/*--------------------------------*- C++ -*----------------------------------*\
  =========                 |
  \\      /  F ield         | OpenFOAM: The Open Source CFD Toolbox
   \\    /   O peration     | Website:  https://openfoam.org
    \\  /    A nd           | Version:  7
     \\/     M anipulation  |
\*---------------------------------------------------------------------------*/
FoamFile
{
    version     2.0;
    format      ascii;
    class       volScalarField;
    location    "12.5";
    object      p;
}
// * * * * * * * * * * * * * * * * * * * * * * * * * * * * * * * * * * * * * //

dimensions      [0 2 -2 0 0 0 0];

internalField   nonuniform List<scalar> 
7724
(
0.3576
0.0191973
0.788951
0.483074
-0.00266033
-0.000133068
0.815685
-0.0161393
-0.000401997
0.214595
-0.000126461
0.0071766
-0.0241034
0.109181
0.22272
-0.0308524
0.361734
-0.0315402
0.00350896
-0.134303
0.145546
0.00469059
0.0802637
0.406339
-0.0409499
0.388443
-0.00246245
0.133137
0.338952
0.00785428
-0.0428665
1.35083
0.0792458
-0.00152295
-0.000356591
0.176448
0.00889305
0.784258
-0.013484
-0.00107007
-0.0122684
-0.029841
-0.127401
-0.0435843
-0.000656716
-0.000283793
0.00463518
-0.0137438
-0.000238497
-0.131254
0.0106979
0.126453
-0.0516468
-0.00361083
0.17508
-0.01439
0.00383253
-0.0161793
-0.0659638
-0.00159012
9.77829e-05
0.013731
0.109499
0.0079106
-0.00302242
-0.041851
-0.000336418
9.56712e-06
0.112875
-0.0128287
-0.000261586
-0.110041
-0.039569
-0.0672616
-0.0304581
-0.093957
0.770237
0.14244
0.122731
-0.124085
-0.0231297
0.742016
0.205165
-0.0699327
-0.00438018
-0.00698014
-0.0172751
-0.0500855
-0.00205068
-0.0135739
0.347778
-0.0576063
-0.000447587
0.00369754
-0.0108198
-0.068923
-0.104981
0.00245796
-0.00483157
-0.00360227
-0.115559
0.135285
-0.0102852
-7.35531e-05
-0.0463759
0.354105
1.15379
-0.015265
-2.78369e-06
0.0748082
0.455918
-0.0762379
-6.10627e-06
0.0793824
0.355473
0.00133546
-0.085455
0.286007
-0.0784273
-0.0685703
-0.120021
0.70832
-0.119779
0.0305544
-0.117108
-0.00299297
-0.0382963
0.00610136
-0.00318327
-0.0427113
-0.119552
0.124402
-0.0018911
-0.00240144
-0.072393
0.444468
0.905887
-6.37916e-05
0.0238595
-0.150376
-0.063729
-0.0912812
-0.0945108
-0.0644542
1.16921
-0.0326212
0.342338
-0.0635561
-0.0882673
0.705093
0.168116
-0.0434594
-0.00452543
0.0898813
0.204613
0.712089
-0.106889
-0.0240025
1.07117
-0.000217072
0.00183895
0.421261
-7.32595e-05
-0.00625377
-0.0121917
0.530475
0.531986
1.11593
-0.00711755
-0.00942363
1.04729e-05
-0.124611
0.00130708
0.03079
0.025829
-0.0869862
-0.0188209
0.229062
-0.000444766
-0.00157593
0.487747
-0.000215232
-0.000381416
0.812954
0.0101062
-0.0671208
-0.073669
-0.0632142
-0.0393954
-0.147176
-7.86044e-05
-0.1012
0.232924
-0.010386
0.000187386
0.330505
-0.00390177
-0.0401139
-0.0387067
1.31977e-05
0.00288325
0.459482
0.277619
0.727639
-0.0755171
-0.0669247
-0.141714
0.144596
0.456792
-0.000700075
8.53946e-05
1.08974
-0.0264199
-0.00197465
-0.0966852
-0.0400758
0.638632
0.660188
-0.0991902
1.27733
-0.00361798
-0.0311076
-0.118493
0.173876
-0.155616
0.285405
1.07719
0.000148988
0.0320707
0.304564
-0.0127995
0.279025
-0.00175653
1.20465
0.700185
-0.0171818
0.00870909
-0.000997625
0.174602
-0.000329116
-0.0190838
-0.140999
-0.000261839
-0.00420564
-0.00141131
0.291167
-7.57579e-05
-0.0140991
-0.120444
1.34878
0.111396
1.17126
-0.000163137
-0.0439517
-0.000643206
0.749539
0.0132287
0.908617
0.00464628
0.00245769
0.0203995
0.150809
0.00182011
-0.000758993
0.00161406
-0.0134437
-0.0649583
-0.000153101
-0.103318
-0.0116149
-0.000488086
-0.00205604
0.855114
-0.0240097
-0.00248279
1.27717
-0.00462788
0.420092
-0.000709514
0.00327443
1.81859e-05
-0.0708807
0.16732
-0.00810104
-0.0663348
-0.0013542
-0.119398
-0.0468412
-0.000612287
0.00155208
-0.00689069
-0.0231188
0.0095829
-0.00389486
-0.0668545
-0.0554496
-0.0660469
-0.0258001
-0.0831769
0.655653
0.687896
-0.00481437
-0.0513779
-2.87033e-05
-0.0074054
-0.0697101
0.394892
0.228247
0.000266259
-0.0068048
-0.0809226
0.321046
-0.00322289
0.0117519
0.00396704
0.0899077
-0.128826
0.552012
-0.00516492
0.0170839
-0.000403113
0.0132916
-0.000193374
-0.0511674
-0.0011415
0.0154695
-0.0914769
-0.081653
0.00736085
0.0285691
-0.00240374
0.0657962
-0.0219535
0.158574
0.301045
-0.177139
-0.0520781
-0.0482391
0.0168352
-0.137114
1.14477
-0.0425498
0.0973259
1.24844
-0.00498146
-0.0056193
-0.0538618
-0.00345182
-0.0263091
0.0208998
-0.0089257
-0.00666981
0.319153
-0.000260742
0.00173571
0.000210076
-0.0108712
-0.0219149
-3.41609e-05
-0.00357536
-0.0632307
1.07906
0.0096754
-0.0259657
0.990896
0.613705
0.140996
-0.0358004
-0.126228
0.0161062
0.51015
-0.0339794
0.514763
-0.0464653
-0.130475
0.291194
0.509029
-0.0979151
0.215221
0.262952
0.452333
0.141894
-0.00978255
-0.0134803
-0.000317657
0.012461
-0.0346917
0.00328448
-0.000380206
-0.00519054
-0.120047
0.149988
-0.0506164
-0.00787534
-0.0121109
0.0123233
-0.0220766
0.00584029
0.232998
-0.00607137
-9.64894e-05
-0.000222253
0.000112172
-0.0609513
0.310617
-0.0127721
0.0894654
-0.164036
0.770727
0.0106274
0.0218119
-0.0162994
0.824208
-0.00345394
0.536388
0.349644
-0.00041246
-0.0511041
-0.0105383
-0.0870994
0.00178582
0.1564
0.011275
0.0202766
-0.0027969
0.265517
0.3302
-0.0773863
-0.0631057
-0.00728569
-0.0435454
0.0925884
1.32632
-0.0655083
0.0147439
-4.42418e-06
-0.0399111
-0.00729359
0.0602231
-0.139078
-0.063932
0.843836
0.296146
-0.124861
0.340806
0.80859
0.0872614
0.00401372
0.515108
-0.00291792
-0.000635271
-0.051712
0.000240499
-0.156101
-0.000176358
-0.0649319
0.0062746
0.347053
-0.0057561
-0.000100685
-0.140749
0.0056703
0.0710273
-0.111287
-0.14651
-0.0160032
0.307966
0.255156
0.262093
-0.000702827
0.132841
0.17079
-0.0017466
-0.0487982
0.00192043
0.0192177
-0.00566828
0.0154942
-0.0025548
0.178267
-8.04546e-05
0.000588505
0.0064329
-0.0628954
0.0660986
-0.0616625
-0.073935
-0.0614037
-0.163406
0.0260187
0.493846
-0.0676586
-0.0207305
1.22168
-0.102677
-0.0230086
-0.0732887
-0.0179073
-0.0593378
-0.0308292
0.0888187
-0.0536669
-0.000108705
0.0780797
-0.000345856
0.683074
0.114926
-0.0152535
-0.0414669
-0.000649155
0.746665
0.573703
0.108816
0.162157
-0.108053
0.940603
-0.000244679
0.0590567
-0.0526519
0.24809
1.13003
0.0768873
0.289166
-0.00546495
-0.000701871
0.146665
-0.0988009
0.781868
0.0762191
0.433231
-0.0217909
0.795525
0.547289
-0.0275097
-0.0233599
0.129035
-0.149723
-0.000314756
-0.038289
-0.143578
-0.109418
0.0356501
0.0293918
-0.000442307
0.569222
-0.00306227
-0.000370587
-0.0473902
-0.00162459
-0.000764096
0.0111847
0.392165
-0.127011
1.0467
0.000168488
0.378019
-0.0394433
-0.000287132
4.4912e-05
0.334118
0.389043
-0.0126388
0.364067
6.36857e-05
0.381567
-0.174018
-0.0287363
0.853851
-0.0928776
0.154831
-0.0702799
0.372446
0.377092
-0.0471597
-0.0594679
-0.0180847
-0.00886107
-0.00069307
-0.00347559
0.488661
-0.000110237
0.373215
-0.119469
0.659209
0.357012
-0.146801
1.00006
-0.00503037
0.0170168
-0.063145
-0.0568296
-0.0197602
-0.0459544
0.0871396
1.20485
0.000112446
-0.00592746
-0.0761536
1.36503e-05
0.690966
0.0057744
1.20827e-05
0.000564822
0.00114528
-0.0490198
0.0582639
-0.00478807
-0.000309876
-0.0209082
0.00820999
-0.154148
-0.135193
0.0670294
-8.32006e-05
-0.177025
-0.0373839
0.152993
0.658718
0.00363758
0.179135
0.000434843
-0.0358894
0.194861
-0.0197883
0.40599
-0.0367365
0.0665642
0.202073
0.287102
0.0142314
-0.0294611
0.298812
-0.128063
0.757559
-0.0265378
0.422228
-0.0264287
-0.00360924
0.27638
0.00566032
0.189245
0.00594867
1.0888e-05
-0.163877
0.228597
0.00448545
0.154972
-0.0348831
-0.180858
0.0180334
-0.0638734
-0.00515029
-0.0250504
-0.117641
-0.0754158
-0.0278074
-0.000524653
0.80486
0.178536
0.0889017
-0.000660627
0.552206
-2.3992e-06
-0.000609346
0.201069
0.00552389
0.208106
0.131411
0.0521157
-0.0431962
-0.153357
-0.017055
0.00404721
-0.108397
-8.68398e-05
0.0117546
0.39073
-0.0449617
-0.00853737
-0.0181013
-0.00601102
-0.00132596
1.25007
-0.0280321
-0.00175399
-2.21328e-05
0.280749
-0.0780943
-0.0010685
-0.0084256
0.323914
0.175157
-0.0969157
-5.41625e-06
0.357034
-0.0441669
0.335348
0.0499115
0.061293
-0.0795103
-0.000331708
0.197377
0.158426
0.0233807
-0.108216
0.497033
0.0187596
0.283099
-0.00745039
-0.0467249
-0.00126038
-0.00367338
-0.000391634
0.313719
0.344742
-0.00455725
0.0580512
-0.0476549
-0.0853136
-0.0977339
-0.00570076
0.0546594
1.19244
0.0124107
-0.000212709
0.174275
-0.0111786
1.00468
-0.0346619
-0.0314131
-0.0035437
-0.036167
-0.0187872
-0.0222374
-0.00984795
0.0046515
0.0742926
0.000284856
-0.157535
-0.00917465
0.630114
-0.0931314
0.228242
0.00628393
-0.0568206
-0.0314521
0.415228
-0.0209806
0.000276366
-0.0430901
-0.0156859
0.0603121
-0.0719231
-0.0618774
-0.0105533
-0.0405617
-0.0120255
-0.115291
1.05626e-05
0.101009
-0.101609
0.202099
-0.0577561
0.188316
-0.116243
0.52436
0.0207215
-0.0820602
-0.0322936
1.06671
-0.133313
-0.0362697
-0.1526
-0.056544
-0.134382
-0.0752876
0.290394
-0.00848906
0.496671
0.0265928
-0.00125306
-0.00368353
0.155968
1.36215
0.00329309
-0.0393112
0.339308
5.45963e-05
-0.0568868
0.0817141
0.0165369
0.0269489
-0.00492374
-0.0710888
-0.0089908
7.18477e-05
-0.088328
0.443479
0.0101988
-0.0458903
0.00578393
0.338315
-0.00122177
-0.00384938
-0.00115708
-0.00242079
0.0485829
0.0116595
0.00968539
-0.0492079
0.000109335
-0.140108
-0.0850161
-0.156463
-0.0388143
0.0445428
-0.000698749
-0.0353541
-0.117994
0.0348949
0.666988
-0.00387707
-0.130029
-0.0143673
0.0259344
0.244099
0.00127505
-0.000528708
0.136343
0.0218371
0.0454174
-0.00907629
-0.00639071
-0.108131
-0.00060271
0.00212015
-0.0371414
0.574848
0.432356
-0.0475213
-0.0974134
0.0221484
0.0139741
0.0147631
-0.11045
-0.0241629
-6.05809e-06
0.0108198
-0.0671758
-0.121249
0.0152229
-0.104663
-0.00128188
-0.00914074
0.364438
-0.076262
-1.60137e-05
-0.00860364
-0.114096
-0.000553687
-0.0308659
-0.000196762
0.0124397
-0.149684
-0.0490017
-0.000108559
7.55607e-05
0.244557
-0.0784868
0.755672
0.41032
0.0085656
-0.00184671
-0.0260201
0.000614293
-0.122527
-0.121402
-0.0187667
-0.0446134
0.362714
0.0253338
0.000753166
0.0180523
-0.142284
0.00595847
-0.0382598
-0.114156
0.00708686
0.0486182
0.140888
0.0247339
-0.0606047
-0.0798685
0.355051
-0.0461259
-1.69714e-06
-0.13606
-0.12565
-0.0547526
0.0128722
0.00223729
0.023745
-0.14481
0.0714428
-0.0722532
0.19881
-0.0634515
0.0178922
0.0427693
0.0365331
-0.0734846
-0.1287
-0.000378696
0.277787
0.390263
0.0174752
0.25354
-0.105984
0.0975082
-0.0778308
0.374188
0.196128
1.17175
7.55207e-06
0.1898
0.322523
0.0325764
-0.00352887
-0.038674
-0.00984333
9.85443e-05
-0.038546
-0.0865589
-0.0423187
-0.0465047
0.000344824
-0.0980636
-0.000941411
-0.00212046
0.450255
0.0151651
0.0687838
0.0454819
0.386665
0.0259568
-0.0010053
-0.123571
0.0186496
0.707724
0.00289717
-0.0913883
-0.000592854
-0.00134505
0.0169118
-0.0728256
-0.000102415
-0.023229
0.0636844
-0.0046097
7.27875e-05
-0.000153828
0.285314
-0.0351919
0.0154618
-0.00265345
0.0196198
0.0343986
0.0195137
-0.000749705
0.561409
-0.105111
0.41068
0.478108
-0.000539311
0.0586509
0.196394
-0.00185345
-0.000683884
-0.00107848
0.00754483
0.036285
-0.0200291
-0.0373934
-0.116045
0.317064
-0.125413
2.23536e-05
-0.040805
-0.0380905
-0.0740302
-0.00982118
0.0135132
0.00281452
0.0607475
-0.0012502
-0.0006119
-0.0364173
-0.00977929
-0.0520711
-4.48673e-05
-0.0313459
0.0728516
-0.0167604
-0.0329462
-0.0185715
-0.0249831
-0.0195777
-0.0117543
0.0220619
-0.0202115
-0.000282553
-0.00099318
0.0510667
-0.0259602
-0.0111696
0.0188896
0.00700819
-0.176485
-0.0236058
0.292209
-0.0266975
-0.104133
-0.0493288
-0.0474615
-0.0328905
-0.00850904
0.00496813
-0.00798744
-0.0294517
-0.0339769
0.33797
0.260014
0.10324
0.651636
-0.000196116
-0.00733143
-0.034628
-0.0174238
0.149635
-0.0425041
0.0985296
-0.00944089
0.348765
-0.00440714
-0.00370272
0.0374197
-0.0325439
-0.000557355
-0.0423306
-0.0132261
-0.0437497
-6.06092e-05
-0.0148486
0.00447642
-0.0368364
0.0736069
0.0747821
0.0408599
-0.0295974
-0.0653079
0.221071
-0.00292838
-0.0044823
-0.00481475
0.978553
-0.000266127
0.140903
-0.0445553
-0.042863
-0.0551933
-0.080441
-0.0597719
-0.0708215
-0.0382369
-0.0103702
-0.000260926
-0.00961314
-0.0454174
0.192079
0.00377882
0.203643
-0.0681471
-0.028014
-0.0021363
-0.0599642
-0.000272206
0.277471
-0.0626641
-0.0545256
-0.0497472
-0.00862531
-0.0670768
-0.00387035
-0.0837158
0.197156
-0.053838
-0.124838
-0.00335192
-0.0562509
-0.0387439
0.0330677
-0.00730214
0.266647
-0.00545566
-0.0401504
-0.00157868
0.298292
-0.0803459
-0.0551286
-0.00732149
-0.0208878
-0.00621768
0.306239
0.0297762
0.254188
-0.0106586
-0.00190627
-0.00289832
-0.00525088
0.226569
-0.121668
-0.015227
0.00070934
-0.0151681
-0.0172895
-0.00208897
-0.026223
-0.0330466
0.116527
-0.011131
0.011043
0.978997
-0.124798
-0.0600585
-0.116692
6.20974e-05
0.149911
-0.00798953
-0.0560449
-0.0125738
-0.0737644
0.00971214
-0.00125538
-0.00655299
0.0072228
0.370841
-0.0130815
-0.00406228
-0.0104437
-0.104901
-0.018487
-0.0465189
0.0096259
-0.0193477
-0.0198951
-0.0073925
0.376111
-0.0945301
0.0071712
-0.0094793
-0.0575259
-0.0305132
-0.101367
-0.00320037
0.17879
0.0495778
-0.0174652
-0.00392217
-0.0295607
1.00305
0.373267
-0.0247908
-0.00135449
-0.0053891
0.0123056
-0.00895653
0.0450849
-0.000992202
-0.0311571
-0.00449157
-0.0365564
-0.0995249
-0.00244318
-0.0232151
-0.0031066
0.594393
-0.0143629
-0.0256355
-0.0206517
-0.00439983
-0.0624771
0.0625418
0.864893
-0.023603
-0.0249676
-0.0048025
-0.00110831
-1.07245e-05
-1.21093e-05
-0.0222937
-0.00153963
0.172638
-0.00157914
-0.00412917
0.017997
-0.00062458
-0.0910283
-0.102153
0.0370148
0.0820211
0.0555141
0.0523658
-0.0650334
0.176304
0.13821
0.186783
0.232777
-0.0282698
-0.00200125
-0.0127554
-0.11368
-0.00791002
-0.0325811
0.0392751
0.534469
-0.0897117
-0.00114199
-0.000107199
-0.00334606
-9.87867e-06
0.0201811
-0.00130889
-0.0101116
-0.0976752
0.0011579
0.00590821
-0.000532915
0.126632
-0.0334269
-0.0530666
-0.00276997
0.617026
0.401822
-0.0221089
-0.110217
-0.0583617
-0.0510597
-0.0312432
-0.00424058
-0.12887
-0.0577076
-0.0854772
-0.0835857
-0.000160449
0.328844
-0.0234693
-0.0212309
-0.0523987
0.0404912
-0.00124865
-0.0184914
-0.00311691
0.0290032
-0.00342982
0.261863
0.000734462
0.0218952
-0.000978351
-0.109797
0.0195511
-0.00176691
0.0255083
0.000841191
0.0319457
0.212944
0.00380071
-0.00329614
-0.000320662
-0.00134022
-0.00119068
-0.12285
0.236855
0.0246964
-0.000646881
0.0207203
-0.00108434
0.423752
-0.120475
0.423533
-0.087987
-0.00106509
-0.000708487
-0.0161882
-0.0125556
-0.00148471
-5.06644e-05
0.05373
0.0615002
-0.00057291
-0.000811538
-0.0420398
-6.06701e-05
0.31358
-0.00217234
-0.106435
-0.0405827
-0.014107
-0.111514
-0.121897
0.283679
-0.0305765
-0.0430784
-0.000760574
-0.113927
-0.0439023
0.0209978
0.134357
0.650542
-0.00268631
-0.119225
0.0288336
0.528317
0.0821548
-0.000304958
-0.0134019
-0.00908487
-0.0110443
-0.0970068
0.170814
0.000334662
0.0414994
0.00661125
0.143067
-0.00122546
-0.000327503
-0.10102
0.474324
-0.109918
0.250548
-0.00283975
-0.000494425
-7.11019e-06
-0.124592
-0.0849814
-0.000827269
0.186334
0.0242446
-0.0118813
0.805624
-0.000952663
-0.00825286
-0.117571
-0.037953
-0.00513012
0.254963
-0.0954338
-0.000411403
0.0281456
-0.000449875
-0.00026516
0.252579
0.0060332
-0.0010644
-0.104006
-0.0516526
-0.00780151
-0.0455255
0.00529851
-0.0480453
0.00370793
-0.00780829
-0.128738
-0.0776339
0.042392
-0.00208291
0.286644
0.386296
-0.127328
0.0213545
0.0410844
-0.00955895
0.310318
0.194421
-0.0583974
-0.000405228
0.0217557
-0.111042
0.0271563
-0.057519
-0.00471753
0.0899974
-0.0574277
-0.000344738
-0.000203365
-0.0539919
-0.0513828
-0.0542897
0.0212358
0.0183821
-0.0893632
-0.000393213
-0.00314803
-0.000522268
-0.0663152
-6.60544e-05
-0.00435148
-0.0759296
-0.14631
0.156069
-0.00665258
0.00913411
-0.0445892
-0.0531765
-0.000329181
-0.0936452
0.134866
0.294575
4.06673e-05
-0.000284625
0.299862
-0.00561399
-0.137594
-0.0821824
0.00740501
0.000995
-0.136908
-0.0288522
0.30698
-0.113505
-0.0033394
-0.0187497
-0.103086
-0.00133884
-0.000581404
-0.00209828
-0.00903842
-0.103097
0.217882
-0.000512567
1.02298
-0.0199322
0.000205484
-0.00221639
0.000486979
0.0005663
-4.53341e-05
0.000253475
-0.106495
-0.00167237
0.00089991
-0.000484223
0.265408
-0.0126612
-0.000473417
-0.000137704
0.597152
-0.04516
-0.0446528
0.00250622
-0.0016444
0.115866
-0.000260788
-0.0259799
-0.152337
0.00480738
-0.0139544
-0.000250433
-0.000499483
-0.0631299
-0.102734
0.0158137
-0.139207
-0.0834436
-7.61973e-05
0.0453004
0.0681316
0.209758
-0.00387926
-0.000390377
-0.112566
-0.013457
-0.00117963
-0.0993965
-0.000347275
0.0823304
-0.000258498
-0.00289061
-0.00113814
-0.004665
-0.1172
0.910135
-0.00367021
0.000556577
-0.106399
-0.0983735
0.0200275
0.0102703
-0.000376253
-0.0645795
-0.000226476
0.365779
1.27545
0.128902
0.00667607
0.00791545
-5.61404e-05
-0.0575107
-0.000165876
-0.0145639
-0.00381091
0.00074481
-0.00746666
-0.0203446
-0.000310722
0.00186606
-0.017026
-0.000746347
-0.0210733
-0.0348213
-0.00843768
-0.00256201
1.12768
-0.00160318
0.00537278
0.000486175
0.0298276
-0.100303
0.0210134
-0.000435972
-0.000256653
0.00575705
-0.000285138
-9.94903e-05
-0.0244412
0.00147224
-6.62346e-05
-0.102598
-0.00497143
-0.113214
-0.0036898
-0.000178351
-0.00694286
-0.0127961
-0.0316714
-0.0451651
0.00509489
0.0010689
-0.0010892
-0.00441492
-0.000217096
0.510171
0.00339513
-5.57548e-05
0.00121957
-0.0045023
-0.000856993
-0.127386
-0.10987
-0.000347275
-0.0153354
1.59873e-05
-0.00574738
-0.000192601
0.0738438
-0.000353862
-0.000476344
-0.0076702
-7.63554e-05
0.0291454
-0.000541505
-0.00285752
0.0402348
1.21109e-05
0.715119
-0.107502
-0.084587
-7.60263e-05
-5.77602e-05
0.00422945
-0.00268118
-0.101048
-4.78613e-05
-1.21075e-05
0.00158258
-8.5159e-06
0.000776437
0.000935086
-0.00107067
0.0016683
-0.105959
0.926916
-0.0651872
0.615865
0.0196657
-0.0348313
-5.33619e-05
-0.00199342
-0.0262823
0.000266143
0.00057331
0.000327338
0.110285
-0.00300374
-0.000547785
0.991292
-0.00123348
0.00121926
0.00105191
-1.34579e-05
0.0196624
-0.00479257
0.0024378
0.000226117
-0.00123002
-0.000177629
-0.00207619
-0.0888748
-0.000972025
-0.00351295
-4.53107e-06
-0.000291735
-0.000613217
0.358155
-0.00102878
-0.000673278
-0.138935
0.00819141
-0.000240531
-0.00300452
-0.00015957
0.327062
-0.145134
-0.000727525
-0.000904343
-0.00413121
-0.000412843
0.116862
0.209696
0.0639022
0.00104591
-1.9089e-05
-2.984e-06
0.113778
0.000507248
-0.122524
-0.0453821
-0.0335637
-0.0483288
1.13363
0.00429227
0.335054
-0.0310642
-0.0602869
0.333186
-0.000833238
-0.131301
-3.75744e-05
-0.0194477
-0.0999207
9.91505e-05
-0.0942665
-0.0021433
-0.00727121
-0.0116276
-0.0875131
-0.0864865
-0.00675493
-0.120409
-0.0901539
-0.000451194
-0.0260626
-0.000158322
-0.077026
-7.45458e-05
-0.000448808
0.0423419
0.315244
-7.16583e-07
-0.0922693
0.00778621
0.000137639
-0.0433683
3.39449e-06
-0.0293439
-0.000633572
-0.0790695
0.000235007
-0.000227389
-0.00446765
-0.000163662
0.308081
-0.0630505
0.129742
-0.000102943
0.00131899
-0.0673027
-1.55103e-07
-0.115064
-0.133185
-0.112677
1.03344
-0.0140671
-4.84558e-05
0.0556492
-0.0852529
-0.00551417
-0.000101136
-0.000221312
-0.0963893
0.000232349
0.00185457
-2.49855e-06
0.000297388
-0.0584022
0.126364
-0.0969326
0.187752
-0.0116168
-3.64715e-06
0.0142107
-0.0976357
-5.57303e-05
-3.93502e-05
0.000653958
0.000117865
0.00083819
0.286802
0.0749751
0.000102517
1.20827e-05
-0.133486
0.386717
0.337389
-0.000114487
-0.0744927
-0.0398397
-0.0217165
-0.0977593
-0.0178529
-0.00634437
0.274627
-0.000124744
-0.0548692
0.325082
-0.0992981
-7.10303e-05
-0.124367
-0.000423306
0.413588
0.0608634
-6.98492e-05
-8.22225e-05
0.348801
4.5503e-06
-0.000433392
-0.0251372
7.4155e-06
0.439005
0.00738299
-0.0158192
-0.130904
-0.0081801
-0.135266
0.353797
-0.0200404
-0.0327647
0.00209698
-6.13719e-05
-0.00227441
-4.70907e-05
-5.61707e-05
0.054338
0.3488
0.291023
-0.00101269
0.47441
-0.0228089
5.39317e-06
-0.0934167
-7.0072e-05
-0.0576955
0.0630553
-0.0300407
0.00952004
0.00404442
-0.0199444
0.000472785
-0.0036587
0.0431241
-0.00626872
-0.000144445
4.98904e-05
-0.00015967
0.0664472
9.3752e-05
-0.0449931
0.504594
-0.0129527
9.20353e-05
-0.00750337
-4.57141e-05
0.110976
-0.000814543
-0.000170642
-0.000211663
-4.01186e-05
0.406856
-0.000374382
0.422651
-0.123056
0.000199196
-0.103064
-0.00111837
0.303348
1.0183
-0.00308622
3.69921e-06
1.55125e-05
-6.22902e-05
0.245956
6.40739e-07
0.00222262
-0.050648
0.407726
6.14766e-06
1.64689e-05
4.86699e-06
4.11355e-05
-0.0430239
2.2858e-06
0.354076
-0.0331851
-0.000303392
5.12196e-05
-0.00449035
-0.0600185
2.41459e-06
-0.000145816
0.319485
5.81335e-05
-0.0658126
-0.0857579
0.000248525
1.02914e-06
-0.172066
1.95533e-06
0.310268
2.51439e-05
-0.00101994
1.43515e-05
-0.000416755
0.185428
7.75694e-07
-0.00356716
3.58604e-06
0.0289346
-0.00733043
-0.0137196
0.00197035
0.298019
-0.000647884
-0.000210757
-0.0189195
-0.0182873
-0.000571385
-0.000163567
-0.00199838
6.38471e-05
0.252817
-0.0215039
0.977802
-8.9701e-06
-0.0163459
-0.000405195
0.247463
9.84316e-05
-0.0542414
3.90694e-05
-0.00345259
-0.0686696
-0.000538692
-0.0330572
-0.100318
0.0108097
-4.72284e-05
-0.106884
-0.000757259
-0.000709548
-0.0118854
-0.0258166
0.0027637
-0.000162771
-0.000993802
-0.00197454
-0.00281213
1.07758e-05
-0.00266082
0.981431
0.000180411
-0.00702245
-0.0716316
-0.147192
-0.127334
-0.0973113
-0.0452035
-0.00118891
-0.0299802
0.000139864
-0.000210274
0.969692
-0.00023543
0.308147
-0.0010101
0.000792115
-0.00249545
-0.0994352
-0.000953379
0.00141658
-5.23421e-05
-0.000896864
-7.07243e-05
-0.000203583
-0.0314493
-0.000278571
-0.000103461
-0.000210441
0.000246973
-4.39212e-05
-0.0864375
0.308394
-2.98148e-05
-0.00133029
-2.26463e-06
5.14268e-05
-0.00184017
1.08597e-05
-0.00199278
0.000546572
-0.00083779
-0.12927
-0.00152869
-0.00394187
4.00302e-06
-0.00334464
0.000673636
-4.06457e-05
-3.1586e-05
2.08555e-05
-0.00175308
0.0010844
-0.0899059
-0.0547788
-0.130663
0.00131282
-0.00395198
-0.0187427
-0.13168
-0.000232633
0.0338511
0.0145259
-0.00227287
-0.0248715
-0.113548
0.848726
-0.000949875
-4.36033e-05
0.00186998
8.29987e-05
2.74055e-05
0.149285
0.00774312
0.173404
-0.070358
0.837504
-0.00115956
2.94555e-07
0.000279704
-5.61823e-05
-0.00295786
0.282272
0.423205
-2.48551e-05
-0.000406532
-6.23652e-05
0.401057
0.0408081
-0.0110697
1.83163e-05
3.15514e-05
0.0155349
-0.00153415
-0.141944
-0.034742
2.64195e-05
0.00742798
-0.0626222
-0.000155789
0.00391289
-0.000186026
-0.092918
-0.00381456
0.273627
2.61671e-05
0.00357584
-0.000134928
2.09341e-05
0.00032268
-0.0474342
2.14548e-05
-0.00200012
2.91109e-05
-0.040657
-0.0924146
-0.00638832
-0.0140086
-0.0181061
0.0195683
-0.0183447
-0.00533173
0.000120363
0.000180588
2.73811e-05
2.45608e-05
-0.000145013
0.0190177
-0.112352
0.000991702
-0.0807841
-0.00659704
-0.095427
0.000160404
-2.99443e-05
0.00277173
-0.0812287
2.62268e-05
-0.0813688
-0.0302683
0.00574761
-0.0797482
4.14014e-05
-0.00732979
0.000366347
-0.158315
0.258251
1.05173e-06
-0.118375
-0.0450885
-0.00899457
5.7442e-05
-2.73277e-05
0.0586863
-0.0344073
2.9155e-05
-0.0142796
-4.33246e-05
0.000409471
0.237827
-2.49692e-05
-2.34347e-05
-0.000232453
5.29231e-05
0.00189119
0.000161424
-0.0110254
0.000443927
-0.0261094
0.00232783
-0.000496802
-0.0630182
-0.0861254
-0.0132266
-4.11299e-05
3.06823e-05
-0.111705
0.0122296
-0.0956051
3.45711e-05
-0.0109117
-9.28236e-05
3.42584e-05
0.142234
-0.0146764
-0.00594134
-2.8981e-05
-0.036286
8.45284e-05
-0.133113
3.66762e-05
-0.150148
8.11642e-06
-1.87059e-05
0.000156002
0.00214799
-0.110371
-0.0372985
-0.136952
1.22295e-05
0.000159243
-0.152931
-0.0468551
-0.0176194
-2.00538e-05
-0.0400037
-0.0986539
-0.154987
-1.56528e-05
-2.73732e-05
-2.96397e-05
-0.112846
-0.131662
0.00150044
-0.0229226
-0.000156207
0.305632
0.00017318
5.72456e-06
0.000278289
-6.12184e-05
-3.07298e-05
-0.0076555
0.000195891
-0.00539537
-0.125951
-0.0270496
-0.117108
5.38683e-05
-0.000131114
0.105562
-0.08456
-0.00994754
0.216696
-3.79149e-05
-4.42642e-05
-3.99747e-05
0.174177
0.000324989
-6.42001e-05
-3.05122e-05
-0.113569
-0.0318924
-1.96215e-05
0.000102181
-0.0192119
-0.0133931
0.000851642
0.427219
-0.114057
0.000384331
1.28963
-9.05866e-05
-0.00152609
-0.0171015
-0.156218
-6.24246e-06
-4.07513e-05
3.39511e-05
0.0101224
-0.0627452
-0.000779666
-0.0982973
-0.0161152
2.7377e-05
-1.41871e-05
-0.021042
-0.00207558
-0.00753048
-0.0893835
-0.0916262
-0.0783397
0.0171629
-0.054087
-0.000163671
0.000690535
0.0245577
0.00109233
-0.000235713
0.0015796
2.52002e-05
-0.000261556
-0.0249859
-3.3384e-05
-9.14873e-05
0.0775633
-0.02361
-0.00041484
-0.000150691
-2.68275e-05
0.469179
-0.0138079
0.00162809
-0.0564334
0.000442534
0.000376162
0.000320667
-0.000131577
0.000960361
-0.0758697
0.0369546
-2.61389e-05
-0.000414223
-0.0824124
-0.0621324
0.0975836
-0.00108098
0.00392427
0.0372598
-1.72768e-05
9.30555e-05
-0.0896175
3.42768e-05
0.310186
-2.25191e-05
0.00887019
0.000312509
0.000426185
-0.140533
-0.0152759
-0.0365642
-0.0051106
4.19269e-05
0.0141819
0.122206
-0.0253125
-0.000327572
0.184586
0.304703
-1.22903e-06
-0.104265
-0.000177667
-3.97948e-05
-0.000115623
-0.00123806
0.0411095
-5.59442e-05
0.000472527
-0.0501282
-0.0523575
-0.0450765
0.593597
2.48608e-07
-0.000178091
0.319532
-0.00720678
-0.00796782
-0.00142276
0.315494
5.48666e-05
-0.000730465
4.67853e-05
1.07715e-05
5.02045e-05
5.69025e-05
0.000133214
-0.0365227
-8.97905e-06
-0.0069744
-0.0899714
0.426642
-0.000370705
-0.000128253
0.00992962
0.166895
-0.0872513
-0.00163786
-0.140621
0.58572
7.14283e-05
0.778461
-1.75398e-05
0.00700185
0.0505067
0.000862349
0.857067
-8.49151e-05
-2.06387e-05
0.00244451
4.76931e-05
-0.00187449
0.000506625
-4.58361e-06
-0.00418383
-2.81281e-05
-0.000349734
-0.00696983
0.455701
0.104785
0.0457419
-0.0886787
-1.7131e-05
-6.55411e-05
0.0070948
-0.104548
-3.69256e-05
-0.0943238
-0.000141581
0.201159
0.12308
-0.0662283
-0.00290601
-0.0240206
-0.00212131
-0.0305619
0.00886859
-0.015082
0.127732
1.19868e-06
0.356986
0.070733
-0.0012755
0.388494
-0.0275831
-3.38456e-05
1.52369e-05
0.000118376
-0.000489233
-0.000301934
0.462595
-0.00213012
0.473463
-0.00227575
0.311599
0.403468
0.189995
-0.0146805
-2.96335e-05
7.07701e-05
-0.0219831
-0.170137
-0.0967512
0.00314851
-1.84137e-06
-0.077676
-0.000713986
-5.01102e-05
0.00211
-0.00231662
-0.00137486
0.0684305
0.000135915
-0.0984726
0.117124
0.000101119
0.000512018
-0.0287691
-0.113082
-0.00159663
-0.00114494
-8.45307e-06
0.000470439
0.131251
-0.0346137
-0.0955251
0.0027487
0.16656
-0.0787657
3.73526e-05
1.96948e-05
0.050816
-0.00025831
0.147008
0.0046021
-0.0281131
-0.000870445
0.00347174
-0.0728305
-0.000141265
0.000977441
0.00750338
-0.14921
0.260586
-0.126423
-0.0550464
-0.00041808
-0.000117386
0.0141143
6.96453e-05
-0.151169
-0.131899
0.00112879
0.00709113
0.00799604
-0.154766
0.0012807
0.000345492
3.78449e-05
-0.0833422
3.71954e-05
0.00112095
0.234971
0.339036
-0.16828
0.0993124
0.0984408
0.048704
-0.000408892
0.0257457
0.000226381
1.47518e-05
-0.000221504
-4.47271e-06
-1.04682e-05
-0.000808299
-0.0159836
-0.0858171
-0.0203558
-0.0577088
0.107692
0.0899814
0.00856053
-0.126864
0.000280734
0.00974096
0.0235395
-0.000879226
0.150087
-0.0026122
-0.0226434
0.0257822
0.0115706
0.00211934
-0.00850927
0.089913
0.00170691
-0.0407278
-0.0339879
1.03193
-0.0504989
0.161004
0.0544361
-0.0738021
0.00470865
0.000155032
-0.00550325
6.64768e-05
-0.00561513
-0.0518714
-0.000181247
-0.000168148
0.458791
-0.00697168
-0.0855427
-0.0390354
0.000368516
-0.00301039
-7.14525e-05
-1.21622e-07
0.0808455
5.85335e-05
-0.00624934
0.151691
0.013087
0.00233323
0.0386909
-0.0121278
0.00884425
-0.158099
0.00179528
-0.00938155
-0.113797
-0.00187206
-0.0169723
0.00157834
0.00253976
0.00206028
0.0786392
-0.000732759
0.0118937
-0.110802
-0.0426056
0.000601217
-0.110434
-0.0311152
-0.0358011
0.000160272
0.0139908
-0.131306
-0.00182854
-0.0101919
-0.102782
0.000830115
-0.00255214
0.40746
-0.0425664
-0.000103553
0.0174755
-0.100284
-0.00228604
0.368701
-0.00457367
0.00211874
0.11952
-0.00307988
0.0173098
0.246064
7.2809e-05
0.00244886
0.000325438
1.79302e-05
-0.00945262
-0.0146367
-0.000345527
-0.0499289
0.19223
-0.0770265
-0.136308
0.00243035
-0.00692047
-0.0013107
-0.074487
8.4628e-07
0.0369061
2.57977e-05
-0.0331089
-0.0041832
-0.0104465
-0.0455536
0.222004
-0.145104
-0.000142427
0.346425
-0.00410512
-0.00515019
-0.121424
-0.150455
-0.0323043
-8.33961e-05
-0.00237539
0.0152909
-0.00654429
-0.00999889
0.000876584
0.171196
-0.0852538
-0.0232382
-0.0140207
0.0522665
-0.00449673
-0.00161505
0.00359494
-7.24228e-05
-0.00655312
0.218132
0.00164173
-0.173088
-0.000190241
-0.0154149
-0.00728118
-0.159121
-0.0239593
-0.179341
-0.000167673
-0.000165817
-0.00758523
0.0219821
0.00382756
-0.194227
0.169792
-0.0983588
0.000341379
-0.207518
-4.80923e-05
-0.211817
-0.0524842
-0.221829
-0.219035
-0.20964
-0.170223
-0.0923365
-0.0618811
-0.0334354
-0.00275341
0.0281074
0.125273
0.160014
0.197544
0.285858
-0.0168816
-0.0153641
0.125573
-0.0339793
0.00186539
0.0362813
-0.0827141
0.00114254
-0.00141029
-9.28318e-06
-0.0294069
0.0372183
6.90374e-05
-0.00069632
-0.0219485
-0.00857898
-0.225614
-0.0248008
-0.113948
-7.66244e-05
0.00116648
-0.000127792
-0.0969742
-0.0182334
-0.0741553
-0.0197139
0.00366221
0.000419389
0.00992839
-8.38445e-05
-0.0147326
-0.000100955
0.000721764
-0.0112313
-0.0239743
-0.000548982
0.00062919
0.0980732
-0.0214678
0.129215
-0.220341
-0.0151593
0.0916887
-0.0387787
0.0077198
-0.044377
-0.00685298
-0.0260407
-0.025651
0.660246
-0.0027555
9.69463e-05
-0.0121608
-0.0184749
3.14638e-06
0.160168
-0.00844286
0.608919
-0.125398
-0.0919135
-0.0550022
0.095397
-0.0098614
-0.000129662
-2.01715e-05
-0.00880093
-0.109884
7.30075e-05
0.602034
-0.00577592
-0.0103062
-0.000226043
-0.000854744
-0.0128093
0.059857
-0.0891343
0.231361
0.00127134
-0.0294804
-1.63057e-05
0.0559112
-0.016078
0.0403028
-0.0276898
-0.0113996
-0.00175534
0.00277494
0.0244247
-3.22178e-05
-0.0197654
0.00118427
-0.000885132
0.000932475
-0.0418628
0.000468415
0.276018
-0.0219424
0.00785483
-0.111349
0.0406536
-0.111394
-0.0238283
0.0787626
-0.0376141
0.337063
-0.0134149
-0.0071489
-0.101979
-0.00156908
-0.000124281
0.000858308
0.00015265
-0.00477301
0.00913823
0.000121561
-0.0281648
0.0453494
-0.00646551
1.88154e-05
-0.00692166
-0.0864669