/*--------------------------------*- C++ -*----------------------------------*\
  =========                 |
  \\      /  F ield         | OpenFOAM: The Open Source CFD Toolbox
   \\    /   O peration     | Website:  https://openfoam.org
    \\  /    A nd           | Version:  7
     \\/     M anipulation  |
\*---------------------------------------------------------------------------*/
FoamFile
{
    version     2.0;
    format      ascii;
    class       volScalarField;
    location    "37.5";
    object      p;
}
// * * * * * * * * * * * * * * * * * * * * * * * * * * * * * * * * * * * * * //

dimensions      [0 2 -2 0 0 0 0];

internalField   nonuniform List<scalar> 
7807
(
0.207311
-0.0251448
0.319871
0.195505
-0.000613422
-1.99449e-06
0.315196
-0.00320615
-6.87659e-05
0.0729898
-1.86969e-06
0.00103674
-0.0049054
0.0321861
0.076521
-0.0120122
0.219255
-0.00663355
-0.00190023
-0.0813727
0.0434075
0.000603498
0.0221305
0.151284
-0.0086571
0.215923
-0.000575513
0.0414137
0.125297
-0.00113139
-0.0141527
0.439364
0.0215042
-0.000250916
-1.26708e-05
0.0581087
-0.00103684
0.305156
-0.00496057
-9.38965e-05
-0.00485775
-0.011198
-0.0954477
-0.0890925
-3.66108e-05
-8.91601e-06
0.000580618
-0.00500658
-1.19212e-05
-0.0815264
0.00179762
0.0389257
-0.0108507
-0.0146792
0.0573174
-0.0031727
-0.00174896
-0.0030403
-0.0205827
-0.000239128
-8.63747e-07
0.00247784
0.0325344
0.00119874
-0.000330416
-0.0144032
-5.88269e-05
-9.39738e-07
0.0395258
-0.00473571
-7.82571e-06
-0.0528
-0.0084244
-0.0144194
-0.0064658
-0.029354
0.316087
0.0425593
0.0241217
-0.0471373
-0.00475823
0.268761
0.0675645
-0.0168806
-0.00132197
-0.00105308
-0.00366352
-0.0106299
-0.000551737
-0.0021569
0.128224
-0.101777
-2.99474e-05
-0.00115881
-0.00197158
-0.0128871
-0.050161
-0.0123979
-0.00136716
-0.00043246
-0.0262641
0.0314771
-0.00189481
3.82476e-07
-0.0924807
0.131476
0.370271
-0.00330882
1.11331e-07
0.0163213
0.182747
-0.0681745
-2.79248e-07
0.0175863
0.131853
6.91892e-05
-0.0943616
0.102639
-0.0386082
-0.015776
-0.0247086
0.25545
-0.0909236
0.00553549
-0.0239043
-0.000756599
-0.0122365
-0.000893653
-0.000351107
-0.0142944
-0.157788
0.0257554
-0.000343376
-0.000613164
-0.0173179
0.175932
0.310086
6.26675e-07
0.00493191
-0.0342948
-0.0131863
-0.0530827
-0.0309649
-0.0138548
0.369143
-0.0318322
0.125993
-0.0224245
-0.0166404
0.25513
0.0551007
-0.0892775
-0.0012648
0.0191632
0.0673396
0.283442
-0.0353361
-0.00463961
0.380138
-1.01448e-05
-0.00175233
0.156876
-3.94393e-06
-0.00254033
-0.00219538
0.197638
0.19817
0.396682
-0.00261719
-0.00155455
-9.65016e-07
-0.0200707
6.94142e-05
-0.0188426
0.00547407
-0.0165679
-0.0697516
0.101437
-3.60967e-05
-0.000332213
0.200407
-6.02603e-06
-1.34064e-05
0.319621
-0.0303237
-0.0535706
-0.0369235
-0.0147452
-0.0341274
-0.0354193
-3.57733e-06
-0.0479935
0.106797
-0.00202718
3.34168e-06
0.146462
-0.000578318
-0.0134854
-0.0312988
-5.45965e-07
7.91003e-05
0.180932
0.135579
0.281501
-0.0878944
-0.0639649
-0.155025
0.0457766
0.178338
-4.06172e-05
-7.27178e-07
0.345826
-0.0102012
-0.000331956
-0.0464271
-0.0128739
0.256901
0.261743
-0.0576803
0.427383
-0.000540694
-0.00629971
-0.0264932
0.0556026
-0.11916
0.177135
0.375351
-6.68233e-06
0.00612423
0.110479
-0.0042047
0.099966
-0.000532377
0.429193
0.276
-0.0034508
-0.000226248
-8.55196e-05
0.0964218
-9.03531e-06
-0.00772303
-0.0377524
-1.2053e-05
-0.00142345
-0.000466019
0.113914
-5.50207e-06
-0.00222498
-0.0466205
0.434969
0.0184012
0.401681
-2.05017e-06
-0.0330081
-0.00012216
0.297383
0.00232267
0.311018
-0.00184049
-3.83181e-05
-0.013235
0.0483097
0.000165485
-5.76338e-05
0.000121372
-0.00447727
-0.056789
-2.10532e-06
-0.034054
-0.00209793
-3.34625e-05
-0.000371212
0.304837
-0.00421209
-0.000252954
0.392469
-0.00144806
0.198427
-0.000122883
-0.00829278
-7.10268e-07
-0.0323934
0.0530105
-0.0616495
-0.0216105
-0.000291705
-0.0677981
-0.00870811
-2.69856e-05
0.000115245
-0.00221415
-0.00446216
0.00158454
-0.00111872
-0.0162799
-0.051997
-0.0150875
-0.0757435
-0.0189096
0.278911
0.291299
-0.000844024
-0.0959005
3.8093e-07
-0.00264696
-0.0125472
0.147073
0.0773455
7.07494e-06
-0.00246433
-0.0184515
0.122676
-0.000754681
0.00203691
0.00044306
0.00865796
-0.172037
0.271486
-0.000742483
-0.0297042
-3.46117e-05
0.00124478
-7.03684e-06
-0.0197467
-0.000102503
-0.00493653
-0.128134
-0.0294072
-0.00686323
0.0054693
-0.000241323
0.0110548
-0.0125321
0.04423
0.117159
-0.199471
-0.0954116
-0.00886201
0.00288168
-0.037917
0.403466
-0.0834391
0.0245784
0.419564
-0.000725693
-0.00105264
-0.098485
-0.00108824
-0.0286419
0.00415802
-0.0013937
-0.000969117
0.117446
-4.73459e-05
0.000153904
2.97323e-06
-0.00171114
-0.00763259
1.83475e-07
-0.000463582
-0.019747
0.351981
-0.00698288
-0.00973983
0.350572
0.226633
0.0350347
-0.0829335
-0.0199816
0.00265296
0.191417
-0.00646216
0.231277
-0.0384992
-0.111885
0.138362
0.234042
-0.0301755
0.0712272
0.175103
0.208965
0.0440808
-0.0019458
-0.00293382
-1.72932e-05
-0.00978312
-0.00653027
5.45878e-05
-2.09402e-05
-0.000910309
-0.0657129
0.0442937
-0.011625
-0.00608905
-0.00211738
-0.0305698
-0.00428622
-0.000735662
0.147785
-0.000883453
-1.14659e-05
-5.17052e-05
-1.01563e-05
-0.0144066
0.11357
-0.00226758
0.0230219
-0.13263
0.296801
0.000487895
0.00413241
-0.00354399
0.294046
-0.000419559
0.268352
0.129073
-2.18713e-05
-0.0403076
-0.00171087
-0.0522421
0.000166219
0.0432146
-0.00287067
0.0037482
-0.000347967
0.100943
0.125703
-0.0599978
-0.0213939
-0.0023758
-0.0308304
0.017762
0.430707
-0.0894461
0.0013912
-1.27803e-07
-0.0091131
-0.00113373
0.00943554
-0.103006
-0.107194
0.314902
0.111764
-0.142849
0.155448
0.28496
0.0249811
0.000211337
0.202033
-0.000973662
-8.49569e-05
-0.00866906
6.99305e-06
-0.170355
-0.00667984
-0.0296895
0.000778095
0.151096
-0.000890313
-9.47803e-06
-0.116994
0.000700592
-0.0057717
-0.0260346
-0.0293969
-0.0598323
0.111831
0.0898259
0.0927033
-5.5658e-05
0.0354357
0.0507438
-0.000360433
-0.0113791
0.000188443
-0.00300941
-0.0138383
0.00285918
-0.000675486
0.0905466
-4.91367e-06
3.163e-05
0.000911929
-0.0129526
0.014912
-0.026243
-0.01585
-0.0510867
-0.139349
-0.00903532
0.195339
-0.112677
-0.00437404
0.429276
-0.0506332
-0.00800657
-0.015858
-0.0109863
-0.011471
-0.0069818
0.0207763
-0.0907157
-1.12518e-05
0.0177113
-1.80695e-05
0.277483
0.0488614
-0.00313451
-0.00739757
-4.9572e-05
0.269142
0.25459
0.0179028
0.0983642
-0.0559765
0.315568
-4.16472e-05
-0.000877032
-0.00925987
0.107548
0.386142
0.00454278
0.106929
-0.00529102
-6.26403e-05
0.0849292
-0.135553
0.282359
-0.00281838
0.167395
-0.00458784
0.299624
0.240762
-0.0059832
-0.00514321
0.0620316
-0.0301676
-5.25783e-05
-0.00886977
-0.0342541
-0.0667893
0.00815364
0.00580509
-7.48532e-05
0.258338
-0.00413095
-3.01161e-05
-0.0479427
-0.000277253
-6.73374e-05
-0.0011101
0.16723
-0.102251
0.363119
2.70656e-06
0.165727
-0.0380566
-5.84998e-05
-1.03094e-06
0.123317
0.16027
-0.00281824
0.142855
-1.47918e-06
0.151989
-0.19018
-0.00620784
0.296358
-0.043631
0.0904779
-0.0144651
0.150147
0.157543
-0.0118966
-0.015085
-0.007006
-0.00156688
-9.45457e-05
-0.00396201
0.216652
-9.07944e-06
0.145485
-0.103729
0.247992
0.137004
-0.0336017
0.362629
-0.00102822
-0.00724049
-0.0737953
-0.0117975
-0.00447775
-0.0406196
0.0100241
0.406582
-1.45658e-07
-0.00120036
-0.063613
-8.54419e-07
0.285106
0.000730684
-1.35393e-06
2.66969e-05
9.6816e-05
-0.0182608
0.00900141
-0.000901996
-1.06078e-05
-0.00464966
-0.00227656
-0.108507
-0.0271247
0.0157399
3.44412e-07
-0.181073
-0.00817898
0.0689473
0.240151
-0.000153704
0.077055
1.64215e-05
-0.00789896
0.0650836
-0.0047173
0.182004
-0.00918554
0.00164344
0.0677973
0.108901
-0.00153521
-0.00674469
0.131796
-0.0784533
0.304492
-0.00650669
0.209366
-0.00616716
-0.000578346
0.100805
-0.0122762
0.0609479
0.000776192
-1.17679e-06
-0.12532
0.141991
0.000109021
0.0652999
-0.0087023
-0.179493
-0.0225825
-0.0275115
-0.000999905
-0.00449301
-0.0624029
-0.0175356
-0.00637551
-0.000143166
0.32415
0.0728816
0.0222784
-8.0425e-05
0.238169
-4.04278e-06
-7.17882e-05
0.0831402
-0.00891765
0.117278
0.0403687
0.0102143
-0.0777559
-0.143247
-0.0615183
0.000471073
-0.0259399
-1.35862e-05
-0.000408994
0.17514
-0.011387
-0.00172103
-0.0256207
-0.00115351
-0.000419122
0.389705
-0.00690641
-0.000368602
7.97527e-07
0.100698
-0.0269458
-0.000236981
-0.00147429
0.118445
0.0519898
-0.0283331
-2.54724e-06
0.132615
-0.0156152
0.141938
0.0125408
0.0161431
-0.0194021
-2.80514e-05
0.0659786
0.0440873
-0.0256662
-0.0979553
0.215951
0.00367533
0.127149
-0.0066022
-0.0446999
-0.000146428
-0.00809896
-0.000123276
0.117506
0.192834
-0.000960084
0.01186
-0.0107406
-0.0838185
-0.0902112
-0.00100131
-0.00201648
0.378133
-0.0422828
-4.65903e-05
0.0520752
-0.0051339
0.324399
-0.00822463
-0.0184734
-0.0191514
-0.0204486
-0.0127713
-0.00496196
-0.00709861
-0.000609809
0.00328106
8.07391e-06
-0.184876
-0.0623241
0.274361
-0.0274102
0.123251
0.000890896
-0.0765866
-0.026054
0.155829
-0.00504587
-5.45805e-06
-0.0158723
-0.00636066
0.00121532
-0.0159606
-0.0155368
-0.0609721
-0.00830705
-0.0223206
-0.0739369
-1.01895e-06
0.0160253
-0.0637593
0.0997926
-0.087729
0.0608096
-0.0966623
0.248088
-0.0156213
-0.0197619
-0.0339478
0.338916
-0.154965
-0.00844469
-0.126347
-0.0559478
-0.120231
-0.0766026
0.123465
-0.00180648
0.186491
0.00575167
-0.000264481
-0.0012132
0.0436841
0.425763
-0.00106088
-0.0404604
0.12477
-1.00491e-06
-0.0145313
0.020471
-0.0331746
0.005868
-0.00136401
-0.034545
-0.00454306
-1.44737e-06
-0.0420881
0.192852
-0.0129829
-0.0103136
0.00082097
0.124482
-0.000294235
-0.000672072
-0.00013797
-0.000929427
-0.00818242
-0.017448
-0.00448145
-0.0121446
-3.47643e-06
-0.138332
-0.124661
-0.157309
-0.0246198
0.0093449
-6.98442e-05
-0.0114903
-0.0470021
-0.024697
0.248796
-0.00153311
-0.039273
-0.00333175
-0.0120293
0.10165
0.000112674
-8.87594e-05
0.0699161
-0.0364713
0.00681497
-0.00195218
-0.000977974
-0.0460457
-0.000132915
-0.016037
-0.00675691
0.212439
0.191947
-0.0686874
-0.0633957
0.00446803
-0.00726558
-0.0470401
-0.0733542
-0.0309394
-1.07904e-06
-0.0483488
-0.0135464
-0.0801975
-0.0100457
-0.0260204
-0.000189819
-0.00180714
0.138851
-0.0188311
-9.01627e-08
-0.00140044
-0.143445
-4.04478e-05
-0.0370494
-3.68108e-05
-0.00154557
-0.105344
-0.066299
-3.08792e-05
-9.39652e-07
0.0857509
-0.0574564
0.269414
0.200382
-0.0490282
-0.000803857
-0.0264769
3.56608e-05
-0.153367
-0.112677
-0.0640954
-0.0107352
0.19244
-0.0023632
5.61337e-07
-0.00504983
-0.151374
0.000853434
-0.044135
-0.0461718
-0.00978953
0.0099577
0.0436591
-0.00426865
-0.0181778
-0.100143
0.131215
-0.0518073
-2.93007e-08
-0.129808
-0.0377213
-0.0610005
-0.00303565
0.000233823
-0.00661365
-0.112124
0.0158108
-0.015103
0.0781042
-0.0707084
-0.00139933
0.00779461
-0.00713958
-0.0164055
-0.162576
-0.000111106
0.0996465
0.145446
0.0033454
0.146422
-0.0897384
0.0253507
-0.0584856
0.139
0.0646117
0.407511
-8.44135e-07
0.0594962
0.120408
0.00734395
-0.00063073
-0.00733538
-0.0626978
-4.66354e-06
-0.00941751
-0.0562213
-0.00778753
-0.0110733
1.30436e-05
-0.136086
-0.000233631
-0.000231279
0.167922
-0.000402343
0.0118957
0.00751611
0.143884
-0.000651592
-0.000361029
-0.144914
-0.000114114
0.258486
0.000327681
-0.0570522
-0.000191472
-0.000179143
-0.00293585
-0.0810573
-1.33703e-05
-0.00396187
0.0115788
-0.00053417
-1.74648e-06
-3.58184e-05
0.102786
-0.0734911
0.00101893
-0.000321608
0.00168406
0.00766273
0.000972855
-0.0002028
0.266561
-0.132144
0.153664
0.225622
-3.99244e-05
0.00284465
0.0640701
-0.000302811
-0.000135536
-0.000432417
-0.0475946
-0.004768
-0.0235353
-0.0281549
-0.0626643
0.115613
-0.130179
-9.05828e-07
-0.0105093
-0.0152639
-0.0159779
-0.00162836
0.00081252
0.000306847
0.0139052
-0.00013163
-0.000210968
-0.0108321
-0.00205594
-0.0135409
-2.88556e-08
-0.00795011
0.0169503
-0.0579273
-0.0607323
-0.00417855
-0.00581125
-0.00413186
-0.00227943
-0.00943227
-0.0039561
-2.88032e-05
-0.000258451
0.00879242
-0.00566699
-0.00232136
0.00207179
-0.00420776
-0.150853
-0.00587036
0.105463
-0.00546357
-0.0392195
-0.0226275
-0.0125916
-0.0078096
-0.00158531
6.90806e-05
-0.00159701
-0.00596956
-0.00754715
0.131734
0.0956389
0.0194435
0.240632
-9.7412e-06
-0.00325545
-0.00715674
-0.00421915
0.0427739
-0.0102835
0.0141889
-0.00397821
0.145104
-0.0009908
-0.000921909
-0.00929327
-0.028463
-9.70344e-05
-0.0250103
-0.00251734
-0.0099953
-3.82486e-06
-0.00276303
0.000514804
-0.00965789
0.00776709
0.0205957
0.00983689
-0.00712604
-0.0170858
0.0759532
-0.000827379
-0.000778103
-0.000771073
0.352446
-9.4808e-05
0.035819
-0.00956418
-0.0110587
-0.0115272
-0.0377712
-0.0134545
-0.0181379
-0.011416
-0.00232145
-2.51801e-05
-0.00177423
-0.00963098
0.0632123
0.000468679
0.0941434
-0.0176932
-0.00723409
-0.000255534
-0.015996
-2.28329e-05
0.0989554
-0.0166707
-0.0141722
-0.013223
-0.00416895
-0.0237077
-0.000526793
-0.0213144
0.0657471
-0.0131672
-0.0799269
-0.000486812
-0.0136073
-0.0102082
0.00757646
-0.00157547
0.094958
-0.000868174
-0.00795789
-0.000368296
0.108042
-0.0207049
-0.0126849
-0.00120831
-0.00527305
-0.00135865
0.128203
-0.0260573
0.139685
-0.00408442
-0.00048937
-0.000422007
-0.0011642
0.115438
-0.0373122
-0.00373721
4.60187e-05
-0.0113399
-0.0271666
-0.000707318
-0.0238586
-0.00842408
0.0348338
-0.0021848
-0.00491093
0.323614
-0.0350892
-0.0115388
-0.0337095
-1.52634e-06
0.0474066
-0.00151183
-0.0120525
-0.00295329
-0.0185909
-0.00038987
-0.000233077
-0.00110895
0.00111328
0.137377
-0.00231831
-0.000773314
-0.00221838
-0.0437681
-0.00395115
-0.00962563
0.000426843
-0.00383106
-0.00351314
-0.00151038
0.139949
-0.0244422
0.00101335
-0.00160148
-0.0129396
-0.00573602
-0.0253577
-0.000828685
0.0576395
0.0106863
-0.00402564
-0.000909727
-0.00767803
0.371082
0.138534
-0.00548946
-0.000159403
-0.00112464
-0.0138003
-0.00203174
0.00983886
-0.000212395
-0.0237922
-0.00072825
-0.00735298
-0.137152
-0.000734451
-0.0132456
-0.000496122
0.226377
-0.00403009
-0.00527774
-0.0693335
-0.000592162
-0.0134663
0.0054513
0.325013
-0.00559411
-0.00625572
-0.000699392
-0.000313485
-4.17786e-06
-4.69348e-07
-0.00523666
-0.000285432
0.0588374
-0.000435195
-0.000736496
0.00236374
-6.51544e-05
-0.0238737
-0.0692037
0.00872211
0.0230659
0.0143501
-0.00869912
-0.0656625
0.0568922
0.0436326
0.0618265
0.0808317
-0.00572781
-0.000368926
-0.00530567
-0.0774109
-0.00138195
-0.00734475
-0.023248
0.247734
-0.0601215
-0.000150174
-2.7559e-05
-0.000443868
-2.5225e-06
-0.00137837
-0.000328355
-0.00437509
-0.0248541
9.55329e-05
0.000646771
-6.53338e-05
0.0273628
-0.00697012
-0.0758513
-0.000889178
0.227331
0.206249
-0.00562895
-0.103702
-0.0139945
-0.0106182
-0.00755489
-0.000875005
-0.0903932
-0.0461453
-0.0299898
-0.121016
-4.83944e-05
0.128937
-0.0327663
-0.00408809
-0.0441052
0.00856487
-0.000205487
-0.00451538
-0.000462863
-0.00037592
-0.00128462
0.108234
4.84922e-05
0.00447766
-0.000102234
-0.141026
0.00360733
-0.000732543
-0.014844
1.62277e-05
-0.0318066
0.071423
-0.00562067
-0.000575907
-3.12224e-05
-0.000230082
-0.000175002
-0.0321015
0.0824545
-0.0376665
-5.6902e-05
-1.71785e-05
-0.000210428
0.158258
-0.0342421
0.179676
-0.0235167
-0.000123699
-0.000183344
-0.00401451
-0.00243598
-0.00039898
-3.50425e-07
0.0113012
0.0145567
-5.77749e-05
-0.000244554
-0.00965005
-5.80191e-08
0.114088
-0.00045924
-0.0277969
-0.00996083
-0.00266408
-0.0305125
-0.0392219
0.102105
-0.0393573
-0.00922457
-7.96602e-05
-0.0286325
-0.00905909
-0.0395889
0.0456479
0.254657
-0.000360923
-0.0317118
-0.00198585
0.22567
0.0210821
-2.43593e-05
-0.00317923
-0.001693
-0.00250009
-0.0170024
0.0505694
-3.08526e-05
-0.0036974
-0.0001555
0.0354939
-0.000166674
-8.13994e-05
-0.130024
0.20341
-0.0283517
0.0942516
-0.00121288
-5.79558e-05
-5.89069e-08
-0.120151
-0.0148353
-0.000187756
0.0587845
0.00511294
-0.00263206
0.285285
-0.000328191
-0.00217142
-0.0360786
-0.046671
-0.000833638
0.0900887
-0.0843839
-2.71104e-05
-0.00403691
-0.000104309
-3.07785e-05
0.0902666
-0.0171349
-0.000111338
-0.0228024
-0.0127842
-0.00124941
-0.0543413
0.000709826
-0.0097856
0.000263513
-0.00170521
-0.0358693
-0.0204109
-0.00585173
-0.000477147
0.103814
0.143774
-0.135378
0.00111712
0.0090027
-0.00219308
0.113435
0.0625405
-0.0121127
-4.72448e-05
0.00194814
-0.0209673
-0.00643433
-0.0185666
-0.00108023
0.0129271
-0.0156479
-2.2463e-05
-2.87598e-05
-0.063793
-0.0240258
-0.0116712
0.00247739
-0.0401238
-0.0267367
-8.29989e-05
-0.000912168
-0.00010616
-0.0330117
-2.90105e-06
-0.00084406
-0.0632535
-0.130443
0.057084
-0.00147462
0.00147433
-0.0135774
-0.0123098
-3.81602e-05
-0.0167975
0.0502317
0.106667
-1.2816e-06
-1.79593e-05
0.108947
-0.00126704
-0.109929
-0.0144547
0.0011474
-7.52729e-05
-0.0267063
-0.0602395
0.111998
-0.0209898
-0.000546377
-0.013522
-0.0405445
-0.000257357
-5.16271e-05
-0.000430545
-0.0542562
-0.0239637
0.086247
-5.36331e-05
0.342365
-0.0719927
-1.3443e-05
-0.000775066
-1.13302e-05
-9.12754e-06
-3.89692e-06
-2.62015e-06
-0.0234559
-0.000405289
6.6329e-05
-4.26143e-05
0.0944679
-0.00261286
-4.70767e-05
-2.55025e-05
0.273164
-0.0122538
-0.0816786
6.61849e-05
-0.000316012
0.0249999
-3.63325e-05
-0.0156568
-0.180541
0.000647581
-0.00618265
-1.9765e-05
-6.85123e-05
-0.0189506
-0.0830603
0.00298401
-0.162584
-0.0955664
-1.96129e-06
0.011184
0.0184043
0.0711278
-0.000633971
-3.81936e-05
-0.0327482
-0.00278009
-0.000345432
-0.023495
-3.56248e-05
0.0114137
-8.55533e-05
-0.000386856
-0.0560167
-0.0020045
-0.0289226
0.330012
-0.00101638
2.97262e-05
-0.0426704
-0.0599519
0.00269731
0.00175332
-2.59176e-05
-0.0159779
-2.78897e-05
0.135768
0.392247
0.029148
0.00099554
0.00113215
-4.29321e-06
-0.0176774
-2.55908e-05
-0.0102886
-0.000808821
1.47599e-05
-0.00132096
-0.00854178
-2.09703e-05
0.000152424
-0.0101331
-8.68239e-05
-0.00836819
-0.00935159
-0.0237711
-0.00102433
0.354778
-0.00060904
0.000746558
2.32638e-05
0.00667098
-0.0216535
0.00394408
-5.35433e-05
-1.72337e-05
0.000310397
-3.48324e-05
-1.97288e-05
-0.0101191
0.000135184
-1.89445e-06
-0.0273015
-0.00222633
-0.0224115
-0.000721692
-8.41282e-06
-0.00114714
-0.0209456
-0.0111967
-0.0282265
0.000704628
5.43096e-05
-0.000186923
-0.00058117
-3.24797e-05
0.19846
0.000416605
-2.41552e-06
-2.26235e-05
-0.00110166
-0.000270109
-0.0245449
-0.0234766
-9.08515e-05
-0.00358173
-2.96617e-06
-0.00282572
-1.1867e-05
0.0201696
-4.31688e-05
-0.000116212
-0.0035154
-1.03936e-05
0.00638561
-7.55999e-05
-0.000468352
0.0096589
-3.32304e-06
0.274052
-0.0298082
-0.0227651
-7.2517e-06
-1.53448e-06
0.000303427
-0.000399523
-0.0375324
-2.00218e-06
-1.88127e-06
0.000103098
4.38197e-08
5.07001e-05
7.1475e-05
-0.000163191
0.00015953
-0.0244836
0.352604
-0.0349406
0.249099
0.00393199
-0.0144184
-2.89674e-06
-0.000245154
-0.00694677
-1.5431e-07
3.24935e-05
9.67402e-06
0.0179623
-0.00133251
-0.000158331
0.322324
-0.00011317
1.13261e-05
8.34713e-05
-2.17685e-07
-0.0227762
-0.0012019
0.000265877
-1.41099e-06
-0.000617932
-6.27901e-06
-0.00103996
-0.0250864
-0.000115859
-0.00173122
4.66956e-07
-0.00324009
-5.06769e-05
0.132771
-0.000139369
-0.000277225
-0.0235927
0.00130077
-6.98713e-05
-0.000539268
-5.46438e-06
0.120019
-0.0387661
-0.000363373
-9.49019e-05
-0.00224892
-0.000161929
0.0311192
0.0698113
-0.01077
-2.86013e-05
-4.01475e-07
1.27328e-07
0.0223534
2.58223e-05
-0.0201281
-0.0319953
-0.0108034
-0.0824064
0.367043
0.000554468
0.135866
-0.0102389
-0.0172235
0.12227
-7.40067e-05
-0.0338111
-2.29055e-06
-0.00503291
-0.0174855
-1.65693e-07
-0.0468702
-0.000292283
-0.0249953
-0.00554274
-0.0151492
-0.0216125
-0.00366778
-0.0428987
-0.0159279
-1.60352e-05
-0.00469934
-4.0156e-05
-0.014327
-1.01016e-06
-2.35557e-05
-0.00831368
0.11551
-3.47723e-08
-0.0257867
0.00106157
-9.70051e-07
-0.0172623
-2.25152e-06
-0.00511011
-0.000148167
-0.0143276
5.65227e-06
-2.31262e-05
-0.00158341
-7.19947e-05
0.112295
-0.0175489
0.0293079
-2.22297e-05
0.00011566
-0.0120386
-4.90803e-07
-0.0309733
-0.0316672
-0.0237215
0.347737
-0.00354678
-1.43831e-06
0.0128648
-0.0161977
-0.00259794
-4.1105e-05
-1.84047e-05
-0.0230221
-3.25797e-07
0.000182323
-1.73636e-07
-1.6175e-06
-0.0109052
0.0575413
-0.096385
0.0588701
-0.00279363
2.38914e-07
0.00024313
-0.0495007
2.46787e-07
-1.88776e-06
4.03129e-05
5.22721e-07
6.03599e-05
0.16654
0.0187372
-4.31228e-08
-2.53819e-06
-0.0282337
0.143851
0.124522
6.84986e-07
-0.0197712
-0.0163816
-0.00942628
-0.0215764
-0.00791246
-0.00130779
0.0983191
-2.00731e-05
-0.0149435
0.118907
-0.0269215
-1.71619e-05
-0.0250758
-4.39737e-05
0.221906
0.0114589
-2.35809e-05
-8.6231e-06
0.131204
-8.87674e-07
-6.3702e-05
-0.00479798
-5.58677e-06
0.182727
-0.000192893
-0.00300663
-0.0245509
-0.00190923
-0.0825827
0.130682
-0.0219364
-0.0673217
0.000226669
-6.60996e-06
-0.0006654
-1.32876e-05
-8.0688e-06
-0.000263284
0.128875
0.105206
-0.000189922
0.178798
-0.0150616
-2.73483e-06
-0.0171488
-1.51892e-05
-0.0164609
0.0125232
-0.0125658
0.00113968
0.000502378
-0.00394042
-2.49393e-05
-0.00082998
0.00621463
-0.000933761
-2.87527e-05
-1.43677e-06
-8.06648e-06
0.0174591
-3.35505e-06
-0.0213146
0.1882
-0.0037639
-1.94226e-07
-0.00140888
-9.35956e-06
0.0241691
-6.16439e-05
-1.12538e-05
-2.53459e-06
-3.15566e-06
0.151542
-7.57139e-05
0.174092
-0.0428418
-1.0752e-06
-0.0373051
-0.000474065
0.110541
0.327471
-0.000409572
-2.90245e-07
-4.89407e-06
-5.13161e-06
0.0907486
-3.44398e-07
0.000163191
-0.00908457
0.162381
-1.90905e-06
-3.82652e-06
-2.8397e-07
-1.3719e-06
-0.0116396
-4.11257e-07
0.203621
-0.0134001
-7.87308e-06
-7.74783e-07
-0.000664889
-0.0120102
-2.81709e-07
-5.27228e-06
0.117598
-8.10563e-07
-0.0182783
-0.0777188
4.95293e-06
-3.66012e-07
-0.184857
-2.83515e-07
0.114482
-7.27616e-07
-0.000169921
-2.27911e-06
-1.36582e-05
0.0609503
-1.51122e-06
-0.000743603
-3.58178e-06
0.000886313
-0.00200369
-0.00241011
-0.00192714
0.108205
-0.000252397
-2.45377e-05
-0.00360212
-0.00370505
-2.794e-05
-5.42675e-05
-0.000458834
-4.0687e-06
0.118361
-0.00840111
0.363687
-1.98627e-06
-0.0037341
-0.000147379
0.0881999
-2.73527e-06
-0.0179301
-1.40002e-06
-0.000658487
-0.0186637
-4.48414e-05
-0.00882203
-0.0286939
0.000882266
-1.17259e-05
-0.0569598
-4.15185e-05
-0.000330625
-0.00249893
-0.0221875
0.000141774
-6.49176e-05
-0.000146367
-0.000951811
-0.000492621
-4.30586e-06
-0.000426142
0.324185
1.87209e-06
-0.001248
-0.019334
-0.0236701
-0.0328555
-0.0188281
-0.0127999
-0.000564996
-0.0217929
-6.26441e-07
-2.01624e-05
0.341688
-1.46241e-05
0.123816
-6.69798e-05
2.53131e-05
-0.000364698
-0.102737
-0.000124985
-0.0014636
-6.92932e-06
-0.000103411
-2.10255e-05
-1.58588e-05
-0.00593726
-4.10216e-05
-3.69301e-05
-1.38929e-05
-4.55017e-05
-8.11593e-06
-0.0280844
0.172657
-1.99977e-06
-0.000102713
-7.96634e-05
-1.51596e-06
-0.000226372
-1.87053e-06
-0.000267513
1.4854e-07
-8.55032e-05
-0.0306523
-0.000226155
-0.000999436
-1.5302e-06
-0.00159195
4.00427e-05
-6.4891e-07
-2.87263e-06
-1.24801e-06
-0.000152712
5.98826e-05
-0.0281513
-0.0207085
-0.0283546
-0.000575399
-0.00207092
-0.0636625
-0.026016
-5.85191e-06
0.00387491
0.00172489
-0.000212532
-0.00652739
-0.0190922
0.323633
-8.17183e-05
-2.80107e-06
1.64741e-05
-2.70427e-06
-1.53781e-06
0.0478454
0.000255229
0.0565494
-0.0368075
0.304344
-8.54931e-05
-9.98615e-07
4.8471e-06
-5.56987e-06
-0.000310229
0.104517
0.158154
-3.9427e-06
-5.67161e-05
-1.05272e-05
0.149108
-0.00185664
-0.00913046
-1.0889e-06
-1.19156e-06
0.00267135
-0.000127468
-0.0449268
-0.00977149
-7.08405e-06
0.000890994
-0.0238872
-9.61786e-06
0.000329453
-3.27292e-05
-0.0227467
-0.000428864
0.0988124
-1.48363e-06
0.000409904
-0.00194166
-1.98861e-06
5.9665e-06
-0.0134737
-1.7867e-06
-0.000186527
-4.23111e-06
-0.00720138
-0.0199302
-0.00336345
-0.0091728
-0.00347214
0.00364416
-0.00470171
-0.000674646
-8.96221e-07
-6.38072e-06
-3.3145e-06
-2.56814e-06
-6.76625e-06
0.00284263
-0.0470764
6.8106e-05
-0.0502238
-0.000860732
-0.0504379
1.12985e-06
-9.03676e-06
0.000279931
-0.118304
-2.33108e-06
-0.0471675
-0.0105293
-0.0454689
-0.0534899
-2.29089e-06
-0.000999264
6.23397e-06
-0.190259
0.0914187
-7.29143e-06
-0.039112
-0.017165
-0.00130256
-4.76852e-06
-2.31922e-06
0.00298482
-0.00591507
-5.43524e-06
-0.00290312
-1.61722e-05
6.02399e-06
0.0820552
-1.54208e-06
-1.24184e-05
-6.32229e-05
-3.72104e-06
0.000162116
1.4715e-06
-0.0016592
3.18921e-06
-0.00721599
0.00019071
-9.53469e-05
-0.0302465
-0.0260359
-0.00329769
-1.11036e-06
-2.92638e-06
-0.0656449
0.00191751
-0.0261909
-7.87858e-06
-0.00259673
5.59509e-07
-3.71762e-06
0.0376196
-0.00221257
-0.000785817
-1.02652e-05
-0.0122824
-2.41821e-06
-0.0368656
-4.71713e-06
-0.0427994
-1.23763e-05
-1.28353e-06
1.06314e-06
0.000208758
-0.127449
-0.00664859
-0.0484581
-6.32321e-06
-5.07367e-06
-0.0390372
-0.0301514
-0.00284228
-2.75574e-06
-0.0594088
-0.0393211
-0.0361134
-7.91252e-06
-3.13002e-06
-2.13198e-05
-0.118525
-0.0496933
8.29433e-05
-0.00366139
-2.2638e-05
0.163237
3.12332e-06
-8.20027e-06
5.22228e-06
-2.82142e-05
-3.81387e-06
-0.00176599
-9.08653e-06
-0.00129583
-0.0504045
-0.00456807
-0.0177198
-8.62953e-06
-4.34175e-06
0.0217172
-0.0733174
-0.00147553
0.0730578
-3.65355e-05
-5.03543e-06
-4.23718e-06
0.0621201
6.79724e-06
-6.35543e-05
-7.20511e-06
-0.0596862
-0.00556332
-1.39239e-05
-6.21908e-05
-0.00520017
-0.00206334
1.06008e-05
0.160008
-0.050683
-0.000822248
0.429755
-4.89886e-05
-0.000555514
-0.00743825
-0.0314111
-6.08762e-06
-1.80709e-05
-1.7697e-06
0.0013417
-0.0325994
-0.000169866
-0.0321496
-0.00255522
-1.03913e-05
-9.08435e-07
-0.00344855
-0.0201438
-0.0497823
-0.115017
-0.0210483
-0.0216346
-0.0387949
-0.0189871
-1.27634e-05
2.0143e-05
-0.0181883
8.07951e-05
-0.000144902
7.03991e-05
-2.02891e-05
-0.000112847
-0.00412045
-1.44846e-06
-1.55784e-05
0.0108622
-0.0529255
-0.000249158
-8.53356e-05
-4.69991e-06
0.175097
-0.00366731
4.50271e-05
-0.0196316
1.98455e-05
8.42333e-06
1.01442e-05
-1.28223e-05
5.06733e-05
-0.0249204
0.00120032
-1.2364e-06
-0.000192494
-0.031039
-0.0279952
0.028491
-7.35944e-05
0.000478677
0.00815127
-6.92498e-06
-6.93549e-06
-0.0483122
-1.9155e-06
0.113575
-2.37175e-05
0.00136551
9.78773e-06
9.23311e-06
-0.0315101
-0.00432216
-0.0103588
-0.000735292
-2.13916e-06
-0.000185759
0.0368881
-0.00757584
-4.55292e-05
0.0604656
0.110441
-2.24557e-06
-0.0296195
-2.21814e-05
-6.21475e-06
-5.3011e-06
-9.36547e-05
0.00944742
-3.12588e-05
8.8163e-06
-0.0101619
-0.0145722
-0.00747492
0.22114
-1.80425e-05
-1.47752e-05
0.117271
-0.0180865
-0.00196582
-0.000110579
0.115258
-1.65885e-05
-0.000428501
-3.4068e-05
-3.02683e-05
-2.51555e-06
-3.22015e-06
1.17018e-06
-0.00700706
-9.50789e-06
-0.00203604
-0.0222785
0.173282
-0.000318931
-6.43232e-06
0.0015333
0.0534312
-0.0493844
-0.000141624
-0.0247942
0.221548
-2.28296e-06
0.29101
-2.17659e-06
0.000752163
0.0117084
5.19126e-05
0.307812
-5.40748e-05
-2.02088e-06
0.000119764
-2.93579e-06
-0.000155711
1.96636e-05
-1.06759e-05
-0.000670285
-4.05076e-05
-5.09543e-05
-0.00133245
0.171903
0.0254015
0.0105926
-0.0188275
-1.50254e-06
-1.21055e-05
0.000639402
-0.0555124
-5.26707e-06
-0.0216224
-1.18228e-05
0.0669313
0.036888
-0.0243635
-0.000562453
-0.00929341
-0.000195041
-0.0052251
-0.00260043
-0.00599401
0.036787
-7.94646e-07
0.18243
-0.00507224
-0.000731081
0.148751
-0.00767053
-1.05667e-06
-1.36689e-05
-8.56126e-07
-1.86748e-05
-6.71085e-05
0.17368
-0.00031355
0.178952
-0.00124112
0.113815
0.158138
0.0671942
-0.00393361
-6.22911e-06
-5.74013e-05
-0.00348467
-0.168994
-0.0363564
0.000350214
-2.73559e-05
-0.0177025
-0.000551205
-6.98261e-05
0.000207746
-0.000306528
-0.000946706
0.0170658
6.92967e-07
-0.0190521
0.0316548
-1.09359e-06
5.53189e-06
-0.0118296
-0.0531002
-0.00020096
-0.000116862
-1.62039e-05
-2.40052e-06
0.0369156
-0.0119259
-0.0373458
0.000270007
0.0514384
-0.0258574
-1.5139e-05
-9.35553e-06
-0.0121552
-0.000123657
0.0384889
-0.00620285
-0.00482191
-0.000171074
0.000281936
-0.0268731
-9.37893e-05
5.61741e-05
-0.0176242
-0.0388276
0.101196
-0.0279243
-0.0168284
-0.000210867
-4.16153e-06
0.00260322
-6.89246e-06
-0.034484
-0.0473916
7.94342e-05
0.000467914
0.00124326
-0.133646
9.16307e-05
-1.82718e-05
-2.22297e-05
-0.0273917
-6.03838e-06
8.13465e-05
0.0810729
0.124593
-0.154269
0.0286699
0.0266245
-0.0105537
-0.000272859
0.000558583
4.40977e-06
-5.89491e-07
-0.000158449
-7.16068e-07
-0.000133526
-9.67994e-05
-0.00416032
-0.0876548
-0.00555787
-0.0251496
0.0294351
0.0241511
0.00116412
-0.0485657
-2.9544e-05
0.000781702
0.00385627
-0.000133794
0.0442177
-0.00160465
-0.00739966
0.00327021
0.00202425
-0.000863342
-0.00212008
0.0207423
0.00010038
-0.0112718
-0.0103515
0.370313
-0.0179455
0.0491124
-0.0126559
-0.033831
0.000500215
-4.38633e-05
-0.000742903
-3.71653e-05
-0.000674517
-0.016983
-1.8517e-05
-0.000201878
0.206837
-0.000910835
-0.024582
-0.00658077
-7.37898e-05
-0.00208535
-8.93834e-06
-4.70537e-06
0.0166885
-6.30487e-06
-0.000841318
0.0441401
0.00152013
0.000248358
0.0069239
-0.00310401
0.0013662
-0.161294
8.59484e-05
-0.00226528
-0.0357031
-0.000589109
-0.00445963
-5.83391e-05
-0.00271836
0.000162393
0.014943
-0.000467327
0.00178974
-0.0217167
-0.0129968
-0.00013815
-0.0189328
-0.00850301
-0.00612584
-0.00010178
0.00236442
-0.0701006
-0.000253052
-0.00300743
-0.0182463
-0.00364105
-0.000454838
0.157882
-0.0214512
1.11521e-06
0.00320687
-0.0424129
-0.000343269
0.136632
-0.00267348
0.000178707
0.0362817
-0.000601329
0.00256732
0.0863103
-0.000290111
0.000240348
-4.36835e-06
-5.12395e-05
-0.00138018
-0.00670241
-0.000347786
-0.0138475
0.0615997
-0.0164285
-0.0753391
0.000242099
-0.00139545
-0.000799401
-0.0722644
-4.67305e-05
0.00275659
-8.61545e-05
-0.00582097
-0.000620545
-0.00154143
-0.0916428
0.0748594
-0.0846367
-1.47055e-05
0.138881
-0.00168357
-0.00342484
-0.0294563
-0.091951
-0.00977422
-6.73484e-06
-0.00135431
0.00256803
-0.00123904
-0.00244267
-0.000143123
0.0538912
-0.0397039
-0.00624691
-0.00211028
0.00115637
-0.00657052
-0.00500979
0.000409308
-0.000509738
-0.00117244
0.0732521
5.20752e-06
-0.177498
-0.000184572
-0.00239522
-0.00430592
-0.104099
-0.00710966
-0.134892
-1.61187e-05
-1.95106e-05
-0.00838643
0.00379092
-0.000184597
-0.166833
0.0507397
-0.0340682
-9.7071e-06
-0.190469
-0.00025227
-0.205477
-0.015258
-0.239308
-0.24348
-0.238604
-0.204536
-0.125009
-0.0929946
-0.0623962
-0.031782
-0.000482703
0.0903403
0.120266
0.147625
0.194182
-0.00269539
-0.00513206
0.0279062
-0.0225408
6.10519e-05
-0.0026658
-0.0256246