/*--------------------------------*- C++ -*----------------------------------*\
  =========                 |
  \\      /  F ield         | OpenFOAM: The Open Source CFD Toolbox
   \\    /   O peration     | Website:  https://openfoam.org
    \\  /    A nd           | Version:  7
     \\/     M anipulation  |
\*---------------------------------------------------------------------------*/
FoamFile
{
    version     2.0;
    format      ascii;
    class       volScalarField;
    location    "17";
    object      p;
}
// * * * * * * * * * * * * * * * * * * * * * * * * * * * * * * * * * * * * * //

dimensions      [0 2 -2 0 0 0 0];

internalField   nonuniform List<scalar> 
115546
(
-0.000801955
-1.58241e-05
-0.018432
-0.00455931
0.00242286
-0.00109187
0.382809
-0.0400018
-0.000347947
-1.66712e-05
-0.000373243
0.000328852
-0.00192495
-0.0758538
-0.000348011
-0.0715981
-0.000104723
-0.000493316
0.445672
0.00250418
-0.04043
-0.00680175
-0.000559104
-0.00715929
0.587255
0.105357
-0.0321541
0.0312336
-1.41261e-05
0.438302
-0.000200046
0.119659
0.00846234
-0.0178378
0.595437
-0.00239041
0.383089
-0.000101279
-0.173458
0.266422
0.120609
-0.000498577
-0.0247272
-0.00239444
-0.0565403
-0.0758312
0.0053382
0.00850095
-0.00031291
0.00031088
2.28609e-06
-0.00431539
0.131313
-8.61799e-06
-0.00322664
0.132867
0.107087
-0.0518125
0.0346826
-0.0156007
-5.79666e-05
-0.007352
-0.00107466
-0.0231874
-9.23231e-05
0.00156475
-0.00157391
0.0817626
-0.0268762
0.0985375
0.297307
0.106109
0.263081
-0.0487592
-0.0200462
-0.0349485
0.0175934
-0.000861853
0.419808
0.0650919
0.0668128
-8.71514e-05
-0.0950559
0.0304742
-0.0042716
0.000318317
-0.0245962
-1.32606e-05
-0.0371147
-2.94611e-06
-0.0984622
-0.0142803
-1.60636e-05
-0.00180611
-0.000605262
0.000630002
-0.00055621
-0.0948616
-0.0712087
-0.0369865
-6.04028e-05
0.0386333
0.00122407
0.00393867
0.297311
-0.0494174
0.286102
-0.0599203
-0.0167785
-1.3109e-06
0.0648536
-0.000550286
0.0201102
-0.0106827
0.732556
-0.00257807
-0.000376516
0.274288
6.36547e-05
0.103255
0.27753
-0.0732969
-0.0181456
0.0405975
-2.84363e-06
0.435847
-0.00726679
0.607555
-0.00230664
0.0613076
-0.0045266
0.000454861
0.251947
0.000317695
6.41074e-05
0.452787
0.566042
0.00826423
-0.00306663
-0.00726539
0.274464
-0.00181087
0.000132656
0.137616
-0.00267817
2.82711e-06
0.0127663
-0.00739312
0.0828783
0.00131935
-0.0492503
-0.057827
-0.0141693
-2.94217e-06
-0.00424522
0.0110016
6.30587e-07
0.032235
-0.0332657
-0.0731985
-0.0344502
0.0126501
-0.00105483
-0.0353985
-0.0120477
-0.00116328
0.0437372
-0.0246806
0.0317183
-0.0131648
-0.0147251
0.00559937
-0.139166
-0.075282
-0.0305244
0.0770351
-0.0752232
-0.0027852
0.00753356
-0.000329724
0.0198549
-0.0194433
0.462445
0.139969
0.286873
-0.000367999
-0.00499797
0.168164
0.0276523
-0.0968801
-0.00272024
-0.00153778
0.47378
-0.0309456
0.107382
-0.0689533
-0.075524
-0.0126528
-0.0332522
-0.0125797
0.149725
0.381803
0.0237371
-1.31292e-05
-0.00483231
-0.0404783
-0.000808331
-8.8577e-05
0.0586384
-0.0305726
-0.0751134
0.283152
0.584248
-1.5146e-06
-0.0116789
-0.0313213
0.0433277
0.0063443
-0.0763236
-0.000164079
-0.0386544
-0.0276577
-0.00103393
-0.0341638
-9.19089e-06
0.522655
0.00114674
-0.0346466
-0.067784
0.530225
0.0357795
-0.0462011
0.285731
-0.0291438
-0.00590564
0.150825
0.000722567
-0.000129884
-0.0281312
-0.00437789
-0.0810461
-0.00355302
-0.0736478
-0.0749974
-0.0023987
0.00126009
0.101289
-0.0361464
-0.0242449
-0.0684885
0.484613
-0.00163773
0.129426
0.000123614
0.613733
0.0204151
0.000378176
0.0322278
0.000511263
-0.0418192
0.0207724
-0.0758503
0.141192
-0.172396
-0.0173986
-0.00444917
0.042667
-0.00228355
0.0357013
-0.000979751
-9.66974e-05
0.028686
-0.000165071
-0.00336588
-0.00160775
-0.0257095
-0.0522878
-0.0299418
-0.00411653
-0.059915
-0.0358034
-0.0023651
0.00019745
-0.039631
0.000181911
0.0161679
0.517169
0.122037
-0.0922035
-0.16136
-0.0527103
-1.01532e-05
0.0256576
0.27928
-3.37956e-05
0.0266156
-0.00170427
0.115378
0.000108443
-0.00173929
-0.0756851
-0.0311795
-0.12016
-0.00839405
-0.0432904
0.0722314
-0.00905505
-0.0343153
-0.164535
0.00780473
-0.00341165
0.301017
0.289295
-0.0278832
-0.00208171
0.00147615
0.473583
0.00120454
-0.00694815
0.00743346
0.01631
-0.00015594
0.0231138
0.728305
0.0858195
-0.0334566
0.011401
0.110631
-0.076375
0.0262403
-0.00340707
-9.95635e-06
-0.0003324
-0.00166634
0.685613
-0.00424027
0.0400574
-9.03614e-05
-0.00111438
-0.00500316
-0.0169876
0.0869036
-0.0456128
-0.0225754
-0.011743
0.00243499
-0.00432594
0.627064
-0.0396247
-0.00334863
0.251803
0.177676
0.0206239
-0.00343694
-0.0133728
-0.00039325
-0.000232367
2.06101e-06
-0.000696771
0.0175516
0.174492
-0.0472788
0.386004
0.690537
0.01426
2.24296e-06
-0.0170328
-0.0232819
-0.000842687
3.40571e-06
-0.0613891
0.15666
-0.0358825
-0.000779588
0.0480927
0.00554708
0.00119844
0.000305263
-0.0015326
0.0198166
-0.046474
-0.0154108
-0.0110154
0.0169776
0.0163268
-0.000179057
0.281143
-0.0701383
0.00250078
-0.0316087
0.117004
0.232017
-0.0249308
0.0313432
-0.0272533
-0.00224577
-0.164835
0.000970406
-0.000176352
-0.0234541
-0.0361768
-0.00232438
0.398784
0.255927
-0.171542
-0.00652919
6.4788e-05
-0.00791785
0.0383792
-0.00820317
-0.0107171
-0.00346747
0.0025595
-0.0042024
-0.00433604
-0.00404124
-2.03481e-05
-0.105707
0.000104115
0.0160127
-3.52019e-07
-0.0757058
0.000448641
0.416973
0.291196
0.19105
-0.00603242
0.206878
0.105526
-0.00221225
0.00252585
-0.000159886
-0.0055759
-0.0337828
-0.00829153
-0.00819938
0.00255902
0.000440991
-0.000219214
0.0002912
-0.00090852
0.0624642
0.000533844
-0.0239411
0.000169614
-0.0589192
0.00123111
-0.000192739
0.229531
0.0761741
0.303496
0.000110881
0.000219323
0.00263419
-0.0242767
-0.00688107
-0.0637318
-0.0357613
0.153613
-0.00975764
0.398435
0.00127465
0.00241452
0.353213
0.295581
-0.0419077
0.00378479
-0.0747865
-0.00979718
0.000111755
0.0159141
-0.0696521
-0.0287886
-0.0492346
0.00131018
0.0851764
-5.63306e-07
0.00386675
0.0380491
0.0454165
0.439551
4.70782e-07
-8.88292e-05
0.0026817
-0.0287768
-0.000692844
-3.25551e-05
0.031653
0.622906
-4.00525e-05
0.284121
-0.0237465
0.500483
0.142572
-0.00415437
-0.0630916
-0.0667047
-0.0102407
-0.000152344
-0.00478686
-0.00174435
0.426906
-0.0285116
0.381197
-0.00961199
0.188807
-0.0236781
-0.0166635
-0.0788027
0.153945
-0.0033155
0.000130493
4.44309e-05
-3.3731e-05
-0.000685983
-0.0561102
0.000448203
0.0352387
-0.000274556
-0.00027513
0.00308952
-0.00809543
0.00111935
0.000912433
-0.0273983
-0.00531907
-0.00557567
0.447851
-0.0252387
0.0106024
-0.0147639
-0.0416929
-4.77552e-05
5.87996e-05
5.41041e-07
-0.0442075
-0.0663534
-0.0376458
5.74776e-05
-0.0179171
0.0886392
-0.0384907
0.0145464
-8.44654e-05
-0.033578
-0.0123173
0.000216898
-4.44394e-05
-0.0353444
0.00260798
0.000608996
-0.05753
0.000740849
-0.0626779
-0.0276116
-0.0236643
-0.0222486
0.00118369
-0.0464396
0.000511309
6.10214e-05
0.00677741
0.332378
0.526847
0.227494
-0.000653967
-0.0147819
0.249712
0.0199458
0.000447401
0.0501581
-0.0183059
0.0307173
-0.00470559
0.0760647
0.00155979
0.224991
0.000909981
-0.00683222
-0.0234617
0.272373
0.00049649
-0.0279702
-0.0626049
0.151535
-0.0249432
-0.00680982
-0.0563068
0.000152238
-0.169489
-0.00559342
0.0272221
-0.0239478
0.00402047
0.157192
0.259181
0.518651
0.206935
0.227186
-0.00378147
0.276512
0.0204623
0.277626
0.30772
0.000417908
-0.00170613
0.523893
7.7126e-05
-0.173888
-0.0140957
-0.023462
0.00153634
0.0457495
-0.00168048
0.00257888
0.439989
0.589319
-0.000219891
0.000526062
0.0233641
0.000263226
-0.123813
0.297002
0.164256
-3.71946e-05
-0.0383154
-0.0309644
0.000967494
0.0031966
0.0998791
0.579474
0.000192483
5.50871e-07
0.274645
0.00291751
-0.000224756
0.0484569
0.00724999
-0.00419307
-0.00285391
-0.16919
-0.0198964
-0.00164988
-0.0358515
0.000540577
-0.000175034
-0.00228889
0.0198619
-0.000329119
-0.0273687
0.00122008
-0.0240589
0.27566
-4.9854e-05
0.72348
-0.0184167
0.500184
0.0223889
-0.000708528
-1.63439e-05
-0.000550643
-0.00681041
0.137506
-0.00216092
-0.017099
0.449618
-0.0671019
-0.0674493
0.0212937
0.0287189
0.447038
-0.000648062
-0.0276782
-0.0238343
0.000409813
-0.00351865
0.00123982
-7.44847e-05
-0.0565347
0.641647
-0.0640864
-0.00262804
-0.0253685
0.000119836
0.0566888
0.0999741
-0.0108416
8.40076e-06
0.281334
-0.0164215
-0.0764601
-0.00240976
0.0157249
-0.038894
0.00692917
-0.0657787
-0.00119739
0.37989
-0.00508157
0.103391
-0.0482353
0.0380459
-1.43268e-05
-0.038195
-0.027471
-0.0283428
0.0472644
-0.0581324
0.000556745
-0.117021
-0.0017815
7.655e-06
-0.00204505
0.00048053
0.585256
0.000419736
0.414039
-0.0259572
0.0364811
0.00424546
0.121552
0.00530781
0.179647
3.65498e-06
-0.0178097
-0.00176519
0.00229336
-0.0319538
7.049e-05
-0.00763053
0.560684
-0.0117662
0.000449197
-0.0708095
0.136885
0.459269
-3.72191e-05
-0.000403237
0.0241393
0.000341473
0.534685
-0.0115814
0.152817
0.17576
0.000329833
-0.0915354
0.204436
-0.000176529
0.0427381
0.520688
-0.00286576
0.000968088
0.000687655
0.0061171
-0.0233826
-0.00746298
0.370243
-0.0100954
0.654465
0.75734
-0.00353791
0.000177873
0.381017
-0.00419442
-0.0203323
0.000496688
0.171028
-0.048179
0.621916
-0.00164395
0.000119243
-0.0164605
-0.0631856
-0.0379932
0.0320913
0.0271954
0.139707
-0.00026259
-0.0587946
5.32344e-05
0.00238739
-7.70008e-07
-0.165136
-0.04247
0.227315
-3.50574e-05
0.518176
-0.000577276
-0.00280561
-0.000816222
-0.0702308
-0.014649
0.104719
-0.000212535
-0.0298183
0.00398844
-0.0152179
-4.31013e-07
8.38022e-05
-0.0003414
-0.045181
0.00237972
-0.00142021
-0.036624
0.000227
0.000564076
0.00159381
-0.000694293
0.247821
0.0823461
-0.0911416
-0.0300894
-0.0459031
-3.43216e-06
-0.0598861
-0.0572382
0.000647836
-0.0375357
-0.00190826
-0.0412204
-0.120446
0.000886394
-0.00796194
8.55113e-06
-0.00680319
-0.000540352
0.26253
-0.00921663
0.000309641
-0.00024475
0.0377552
-0.0529214
-0.00415381
0.000162402
0.373794
0.377668
0.00239464
0.128837
-0.0790719
-0.0683986
0.000187856
-4.88115e-06
0.328082
-0.0401219
0.000238049
0.0715803
-0.00116237
-9.67722e-06
0.0787558
-0.0686082
-0.0637324
-0.0717132
-0.0241402
-0.00786016
-0.0199644
0.000125524
0.196988
-0.000178843
-0.0330773
0.0660516
-4.48632e-05
-0.0731068
-0.00460631
0.169242
0.000592935
-0.0103067
0.482152
0.059816
-0.0311369
-0.0241873
0.286151
0.0481984
-0.0148059
-0.0354082
0.293396
-0.00157697
-0.000477802
-0.10792
-0.0115426
-0.0149771
0.679646
-0.00761305
-9.09301e-06
-0.182324
0.00364957
0.00815874
0.179244
-0.127757
0.0100082
-0.00260915
0.172259
-0.0248339
0.0787583
-0.00471944
0.137458
0.104895
-0.0323253
0.128978
0.253276
-0.000538962
0.0804259
0.584847
-0.105901
0.000708155
-0.0398614
0.162645
-0.00435147
0.0388266
0.281981
-0.00453192
-0.00225531
-0.00649743
-0.00491059
0.0583149
0.0567291
0.000558688
0.447886
0.640441
-0.0408727
-0.00241563
0.0292708
-0.0481708
-0.0366362
0.263933
0.3765
-0.0026383
-0.0383333
-0.0479181
-0.000976113
0.0998918
-0.0709808
-0.00356938
0.0801522
0.000466399
0.180931
-0.0854333
0.149755
0.0484521
-0.162964
0.414542
-0.00170887
-0.0330844
-0.0665162
-0.000238623
-0.0266673
-0.0664392
-0.121738
-0.0440587
-0.00548299
-0.01553
0.0323991
-0.133343
-0.000482518
-0.0152595
-0.0763484
0.221043
-0.0602511
-0.063688
-0.0108748
0.00240491
0.224742
-0.0208978
-2.28496e-05
-0.00316348
0.00213335
-0.0145972
-0.023533
-0.00224758
0.0868993
-0.176254
0.022486
-0.0438551
0.103601
0.052353
0.00232629
0.00437605
-0.00462525
0.706605
-0.0327591
2.66362e-06
-0.00351563
-0.000506674
0.378417
-0.0159104
-1.20054e-06
-0.00974885
-0.00096486
-0.0391212
0.144165
0.102817
-0.0657286
-0.0239692
0.00157364
0.478393
-0.031035
0.112361
-0.0069304
-0.0961177
0.0131569
0.00451436
-0.000208533
-0.0140263
-0.000243793
-0.0412751
-0.00141037
-0.106567
0.000126657
0.134907
6.17824e-05
-0.00325854
0.000169119
0.14754
-0.026268
0.426203
0.0151974
0.123624
-0.131357
0.000808116
0.421471
-0.045702
-0.0241226
0.767904
-0.000692976
-0.0108424
-0.162615
0.0418516
6.3106e-05
-0.00537575
0.00831259
-0.0421219
-0.0317982
0.520149
0.00366607
-0.166991
0.14358
-0.118301
0.00560304
0.00248944
-2.2078e-06
-0.000195418
-0.00220393
0.0359152
-0.000607577
-0.00375802
-0.00154363
0.454272
0.435093
-0.0286772
0.000141954
-0.061764
0.0605829
-0.06801
0.000136053
-0.0693971
-0.0462719
9.43626e-05
-0.00602589
0.0511672
-0.0360952
4.52417e-05
-0.0661508
0.688774
-0.0589475
0.000443224
-0.0717156
0.0426933
0.00074635
0.000123767
-0.161069
-0.0023259
-0.122374
-2.95805e-06
-0.010566
-0.0463217
0.62407
-0.0106648
0.00804775
-0.02472
-0.000264872
0.148126
-0.000527851
0.0331108
0.159694
-7.32603e-05
0.0448421
0.00276133
0.620613
0.766981
0.0180063
0.561775
0.486544
-0.0564519
0.0331751
0.000320636
-0.0156327
-0.0540834
-0.00229823
-0.000216437
0.00604787
-0.000942673
-6.08568e-05
-0.0146947
-0.000793846
-0.0314085
-0.0673399
0.000180046
-0.000299546
-0.13615
0.000183703
-3.70879e-05
0.142692
0.0225813
-0.0277252
-0.00134247
-0.0711955
0.0184564
0.122014
-0.00309947
0.00566501
0.177926
0.072188
-0.0459092
0.00324331
0.000950121
-4.85883e-05
-0.0321765
0.374516
0.0254579
-1.24753e-05
-0.160196
0.000152298
-4.58683e-05
0.140725
0.000950661
0.613296
-0.0022262
0.280715
-0.00443013
0.00553999
-0.00473898
-0.000244027
0.173458
-0.00109911
0.00232371
0.570207
0.520938
0.714836
-0.00279341
-0.144604
0.107008
2.55959e-05
-0.0465375
-0.00593043
0.278576
0.352757
0.00447861
-0.067811
0.00010284
0.0780594
0.00112082
-0.0108907
0.00786804
-0.000981452
-0.00499185
-0.00685161
-0.00408532
0.159381
0.145573
0.00321259
0.172697
-0.0343176
-0.169832
-0.00782095
0.0498457
-0.0261091
0.711292
0.424663
0.0377328
-0.0235651
5.47188e-05
-6.65698e-05
-0.0313861
-0.0556644
-0.0292416
0.0695565
0.265839
-0.112063
0.141169
-0.000346237
0.0133659
-0.0067751
0.237095
-0.074073
-7.14682e-05
0.180104
-0.000109306
0.000195784
-3.64276e-05
6.43196e-07
5.05476e-07
0.23829
0.00464246
-0.0277831
0.00029794
-0.156091
-0.0515523
0.439631
0.0033358
-0.000914151
-0.00358906
-3.65102e-05
-0.000737809
-0.0873038
0.0285336
0.167435
-0.00670187
0.144211
-0.0237775
0.0117194
0.0334305
0.000938114
0.563168
8.10451e-05
-0.003963
-0.000681999
-0.0238984
-0.0106568
0.250719
-0.00423688
4.64306e-05
-0.0686095
-0.00573004
0.264197
-3.54025e-05
0.000285501
0.000244754
-0.0383015
0.00409715
-0.0293275
-0.0713527
0.112935
0.427463
-0.00231903
0.00035601
0.00354819
-0.00163544
0.123124
-0.0561416
-0.00410086
0.0449172
-0.178783
0.000987592
-0.0687362
-0.00334124
0.00389196
-0.0510634
8.49157e-05
0.0387743
0.268965
0.400243
0.208384
-0.000249336
-0.14259
7.75743e-05
-0.0387536
-0.0391015
0.136456
-0.0103914
-0.110672
-0.036341
-0.0367877
0.000270384
-0.0103016
-0.0353426
-0.102147
6.16615e-05
0.101469
-0.000819063
0.342002
0.063125
0.0212468
0.000146745
0.00110469
-0.00179666
3.631e-05
0.126039
-0.0106759
-0.0990669
-0.0774873
0.067724
0.446113
-0.0111415
-0.036314
0.155832
0.0276174
-0.00145493
0.0236113
0.721215
0.00246652
0.0328759
-0.129356
-0.00382149
-0.0341071
-0.00364188
0.349495
0.000208905
0.139476
0.463783
-1.33241e-05
-0.0156745
0.000117937
0.110838
-0.0140601
0.0114509
-0.00726703
-0.00395457
-0.0340943
0.00034618
0.00146824
-0.0161852
0.012789
-0.00333068
6.33309e-06
-0.00265153
-0.0374718
-0.0697567
-0.00434499
-2.93395e-05
0.0227621
-0.00144912
0.00125034
0.0370469
0.199556
-0.0219602
-0.0187272
0.137033
-0.000119199
0.000446407
-0.0385952
2.52527e-05
6.08131e-05
-0.0115492
0.156358
0.00253117
-0.0078277
-0.00274791
0.0275391
0.00016257
-0.000549509
0.000116017
0.109824
-0.00150605
-0.00409295
0.0263239
-4.28065e-06
0.000546698
-0.000154863
0.235445
-0.00149819
-0.00679634
-9.35012e-05
-0.0517073
0.190317
-0.00305014
-0.103864
-5.40661e-05
-1.74578e-05
0.01317
0.000418808
-0.000216327
0.425995
0.00714828
-0.0027057
-0.072906
0.000357424
0.000968346
-0.0112384
-0.000794438
-0.00124123
0.548114
-0.000315613
-0.035499
0.295539
-0.000217236
-0.0356625
-0.000664789
-0.0274849
-0.0490724
0.0344085
-0.00822276
-0.000561076
-0.0071218
-0.0730452
-0.00276467
-0.00704527
0.00135084
-0.00102825
-9.32967e-05
-0.000307284
-0.0366995
-0.0293961
0.120641
0.00391587
-0.0156849
0.699073
0.136553
-0.0606272
-0.000293656
-0.0286122
-0.0388117
0.0565637
-0.055931
-0.0618551
0.111551
0.118499
-0.0192284
-0.0551997
0.426616
-0.0415812
0.000289672
-0.0722704
-0.0756503
0.00409696
0.00907639
-0.0258917
-0.001657
0.0395136
-0.0367671
0.373106
-0.0418025
0.380217
-0.0466304
-0.000859107
0.00459061
0.000233226
7.10291e-05
-4.69726e-05
0.222302
-5.28797e-05
-0.0340705
0.00105709
0.0135956
-0.0484787
-0.000517362
-0.00805489
-0.0357726
-0.00019383
0.204779
0.00835383
-0.00123536
-0.0342749
0.111555
-1.54709e-06
0.0596617
0.00100929
0.274427
0.00445778
-0.0475913
-0.035678
-0.0012244
-0.00092196
0.145922
0.234545
0.232525
-0.00603026
-0.0368892
0.36995
0.0902476
0.0108821
-3.10006e-06
0.135221
0.0252851
0.000638122
-0.0606446
0.456186
-0.0238117
0.0010222
0.645042
-0.000181909
-0.00492912
0.106831
0.248724
0.124205
0.122366
0.491458
0.350077
-0.000314429
-0.000804701
-0.00134883
-0.0012367
0.122953
-0.0340341
0.40217
-0.00419309
-0.00785646
-0.0190269
-0.059098
0.00080906
0.00129692
-0.000789846
-0.0435149
-0.000614711
0.0250341
2.72048e-05
6.29331e-05
0.000312166
-4.78063e-05
0.00097218
-0.0710855
0.00461839
-0.0841901
-0.0981193
0.674139
-0.0467101
-8.36068e-05
-0.0024499
-0.121395
-0.00122161
-0.000204069
-0.0158133
-0.00152864
-0.000664257
-0.00792525
0.0430855
-2.80326e-05
0.0237947
0.00868575
0.000468072
-0.000407985
0.00426594
0.0225817
-0.0434765
0.0770388
-0.000157209
-0.0138944
0.00202209
-0.0476214
-0.00150811
2.88278e-05
0.000210388
-0.00470998
0.175457
-0.0862174
-0.00661567
-0.0112494
-0.070805
-0.000614604
0.451453
-0.0127066
0.112879
0.000989807
-0.000774924
0.000156837
-0.0392922
-0.0740884
0.448099
0.478848
0.137589
-0.0155187
-0.0361754
-5.2731e-05
3.97851e-05
-0.00916542
-0.0956738
0.22026
-0.0996548
-0.0405345
-0.0370005
0.195732
0.0730832
-0.119942
2.3044e-06
0.124535
0.183915
0.0149982
-2.28784e-05
-0.00926934
-0.00499487
0.230209
0.130823
0.00803263
0.00203686
0.695895
-0.0138593
-2.14937e-05
5.55025e-06
0.0259488
-0.0155471
0.101273
2.55368e-05
-0.0774262
0.0033763
0.000128926
0.521294
-0.00511298
0.1027
-0.0100071
0.00100798
0.0335767
-0.0759661
0.310439
-0.023564
-0.0143062
0.544196
0.000966482
0.0315921
0.140116
0.39943
-0.00147426
0.11457
5.90006e-07
0.000706273
0.151635
-0.0119688
0.019558
0.0587703
0.000418614
0.222391
-0.0693249
-9.96864e-07
-0.065819
-0.00198532
-0.00783668
-0.000329848
-8.40573e-05
-0.0434803
-0.052067
0.00107549
-0.00403246
0.00261314
0.125023
0.419585
0.000242886
-0.00255357
-0.000593911
-0.0419367
-0.000367592
0.000101035
-3.8361e-05
0.424457
-0.00453606
0.00127113
-0.0296274
-0.034156
-0.0665539
0.424211
0.339891
0.242097
3.63093e-07
-0.157162
-0.0444318
-0.00882197
-0.0551528
-0.0015318
0.181612
-0.019086
0.0111883
-0.00088991
0.0336158
-0.0661305
0.028077
3.48826e-06
0.0651619
-7.65391e-05
-0.00035322
0.0958918
-0.00186934
-0.0376878
0.680108
-0.010931
0.00184248
-0.00309787
0.1583
0.252094
0.441578
0.270133
-0.068073
-0.00259055
-0.00100374
-0.00340123
-0.0327193
0.00340312
-0.000111274
-0.023711
0.00239098
-0.0281347
-0.011157
-1.31373e-05
-0.0269189
0.0213601
0.492684
0.142114
-1.56059e-05
0.0691666
0.00105345
-0.0639498
-0.0680042
-0.0132578
0.424922
-0.000679855
-0.0428918
0.0188729
-0.000586061
0.000189861
-0.0346423
0.131724
-0.0390203
-0.0408864
0.0493337
-0.0752964
-4.64902e-06
3.73961e-05
0.0429098
0.00994816
-0.0328675
-0.00100076
0.295082
-0.000188731
-1.82755e-06
-0.0010426
0.0040005
-0.0118903
-2.3493e-05
-0.0292325
0.0799189
0.156652
-0.00275179
0.376391
-0.0198065
0.158808
-0.01056
0.0117049
0.000121316
0.0325337
0.0430878
0.0683458
0.603065
0.199786
-0.0104325
0.00367004
0.239684
-0.00993329
0.299929
2.90723e-06
0.119121
0.217146
0.487602
0.000299451
-6.13873e-06
0.3323
0.472757
0.124369
6.59529e-05
-0.136633
0.0845451
-0.00388618
-0.00160615
0.0262888
0.0308542
0.0116945
0.378218
-0.00250098
-0.0450747
-0.00272161
0.0315368
-0.00166215
0.437521
0.116513
0.0417692
-0.00104472
0.114689
-0.0592686
0.014023
-0.0393724
0.000351232
-0.036265
0.0218452
-0.00731091
-0.00309907
-0.058135
-0.00875954
-1.51413e-05
-0.0892185
-0.00382271
0.000503019
0.0129649
-0.00211789
-0.0040801
0.0351278
-6.22496e-05
0.0521936
-0.0540812
0.339009
-0.00030086
0.648473
-1.92958e-05
-0.00836308
0.00911232
-6.41063e-05
-0.00698681
-0.00182805
-0.0679747
0.200924
-0.0239061
-0.0283092
-0.0456655
0.315571
-1.82048e-05
-0.107602
0.0478649
0.0146972
-4.4425e-06
0.68989
0.00832596
0.0195314
-0.00463753
-0.00182021
-8.07544e-05
0.341924
-0.0066077
0.143796
0.000309404
-0.054466
-0.00148231
-7.93284e-06
0.35016
-9.53833e-05
0.179738
0.565025
0.312058
-0.00921137
0.164215
0.190357
0.293591
0.373598
0.232495
0.510553
-1.2601e-05
-0.0308193
0.177105
-0.000584506
0.301456
-0.0452964
-1.4409e-05
-0.000303989
-0.0356377
0.652893
0.0364348
0.00770051
0.109643
-0.000335938
0.000161728
0.0111184
-0.0305366
0.0113445
0.27516
0.62213
-0.0251502
0.383823
-0.043269
0.0426836
0.434029
0.00025616
0.258396
-0.00673984
0.0374841
0.00232889
-0.0909915
-0.0123892
-0.0299605
-1.10692e-05
-0.0187548
-9.73691e-06
0.177823
0.65004
-0.159839
0.00121179
-0.0305304
-0.039349
-8.9171e-05
0.00826287
-0.0327605
0.00862441
-0.0269002
-0.0288897
-0.000847089
0.00134976
0.0536891
0.000270126
-0.0369313
-3.05041e-05
0.123307
-0.00162872
-0.0389822
0.000264423
-0.00659879
-0.0389397
-0.0148876
0.000990108
0.00111592
0.0755576
-0.0369924
-0.0724501
-0.000217711
0.0509891
0.0536464
-0.0501216
0.373997
-0.00796329
-0.0734563
0.0127106
-0.00470852
0.00962388
0.000116688
-0.119931
-0.0232687
-0.00432096
-0.000212022
-0.00111065
0.107927
-4.97159e-07
-0.000598803
0.000147893
-3.89572e-05
-0.00254031
0.426822
0.724594
-0.000550069
-0.00106633
-3.91008e-05
-0.0567858
0.00488825
-0.0109421
0.0326025
-0.00209815
0.143219
0.00448975
-0.00140194
-0.000703599
-0.00661123
0.00572739
-0.000409056
0.318339
-0.00212367
0.641125
-0.0251074
-8.39986e-06
0.113036
-0.00108059
-0.0296927
0.174671
-0.00414812
-0.0242294
0.612895
-0.0426361
0.00387417
-0.047912
0.0602229
-0.00798817
0.0383603
-6.92069e-05
-0.0301171
0.00113118
0.461222
-0.00518486
-0.0332388
0.0333973
-0.0078319
0.0380502
-0.00130645
-0.00547419
0.159849
0.00179891
-0.10343
-0.00774903
-0.00239179
-0.000648705
0.00941418
-0.0450462
-0.0016049
-0.0470036
0.00854144
0.00125393
-0.0388625
-0.000462425
-0.000547166
-0.00212818
-9.48533e-05
-0.0694209
0.00172893
0.144456
4.10155e-05
-0.000750503
0.000120264
0.574511
-9.63151e-05
-0.0598197
0.0934097
0.162405
0.000548259
-0.00423254
0.00443383
0.00285025
-0.0166931
-0.0448278
-0.0388279
-0.0246793
-0.00684769
-0.000588209
0.120923
0.0384393
-0.0298877
-0.00141628
-0.157296
-0.0440672
-0.000231298
-0.0081062
0.0576507
0.612457
0.422462
-0.004109
-0.100139
-0.0126827
-0.000679633
-0.000279083
-0.027743
-1.37694e-06
-0.0714823
-0.0270878
-1.49312e-05
6.71857e-05
-0.0468692
0.0158445
-0.0316537
0.0535846
9.1078e-05
-0.0446599
0.0229992
-0.0292212
0.000261848
-0.042983
-0.000652722
0.215805
-0.000835238
-0.0524565
-8.39492e-06
-0.00186518
-0.0353755
-0.106498
-0.0068599
-0.0323428
0.00021264
0.0678194
-0.0136878
-0.0300126
-0.0672475
0.00696455
0.0819449
0.657114
0.00917722
0.0628551
0.000621043
9.3684e-05
-0.00027628
-0.036978
-3.2843e-05
-0.00161489
0.157264
0.568255
0.60938
-0.0010078
0.338797
-0.00736803
0.00115624
0.00670149
0.040412
-0.0198899
6.55778e-05
0.0563718
-0.00371205
-0.09899
-0.0737294
-0.0753976
-0.0278881
1.0228e-05
0.00140932
-0.00875724
0.22602
-0.0413987
-0.00550058
-0.0372221
0.603636
-0.0019612
0.156601
-7.7415e-05
-0.0376275
-0.00457928
4.78296e-05
0.00153769
0.0348156
-0.00426629
-0.0739458
0.00522232
0.0372965
0.415914
-0.0081912
2.40726e-06
-3.35208e-05
-0.029455
0.0459184
-0.0280214
-0.0106326
0.00186252
0.000831661
0.126426
-6.90171e-05
-0.00368775
-0.00102591
-0.00773624
-0.00348015
-0.00437238
0.143058
0.012635
0.00812436
0.0353574
0.764435
-0.0676814
0.24207
0.144582
-0.0512757
-0.0544206
0.00710154
-0.0515444
-0.00493385
0.145363
-0.0173266
0.000118775
-0.00683056
-1.35309e-06
-0.0659459
-0.00304176
-0.00226978
-0.00731404
0.308764
-0.00032108
-3.31289e-05
0.0956958
-0.114607
1.32452e-05
2.43808e-05
0.0017762
-0.139463
-6.45724e-05
-0.0455154
-0.000541796
-0.0326092
-0.0330566
0.00385566
-0.0108668
0.218798
-0.0420009
0.000312346
-0.000960928
0.290549
-0.00828151
0.0195728
0.000113622
-0.025038
-0.0252715
0.000155833
-0.000115838
-0.0279076
0.00496697
0.434244
-7.5822e-05
-0.112915
-0.00108201
-0.000396597
-0.000564233
-0.00454543
0.212161
0.00581213
-2.31053e-06
0.159145
-0.0132035
-0.000652422
-0.0922715
-0.00149156
0.0449613
-0.0537383
-0.0002636
-0.00203674
0.0111134
-0.0315606
9.51835e-05
-0.127088
-0.0308082
0.0222831
-0.0304155
0.0147255
0.428752
-0.00779886
0.0561011
0.138461
-0.000669426
0.000720817
0.274056
8.87296e-06
0.75261
-0.00900515
-1.15528e-06
0.160176
0.203965
-0.152871
0.03302
-0.0404776
0.0458509
-0.00650967
0.0140952
-9.60637e-07
-0.00845708
0.0719176
-0.0284775
-0.0167433
-0.00298695
-0.0518379
-0.0050297
-0.00321143
-0.000227033
0.0573956
0.598885
-0.0380865
-7.54461e-07
-6.13835e-05
0.00200098
-0.00187781
-0.128205
0.160224
-0.0545295
-0.028
-0.0694071
-0.0714426
0.575468
7.42774e-05
0.0283554
0.00831493
-0.0531467
0.00248278
0.0799077
-0.00295954
-0.001078
-0.00875242
-9.81386e-05
-4.11172e-05
0.0626677
-0.00204336
0.292989
-6.96805e-05
0.058147
-0.0104936
-0.0276944
-0.0267309
-0.00570715
-0.0740784
0.0152868
-1.45969e-05
0.0924545
-0.0817305
-0.000510158
0.110114
-0.0540229
-0.0162165
-0.034978
-0.167241
0.116147
-0.138723
0.0922631
0.00192828
-0.0241307
0.000232106
0.155935
0.0185728
-0.000313338
-1.65598e-05
0.125546
-0.0011719
0.0587387
0.270737
-0.128324
-6.01274e-05
-0.0252869
0.448756
0.110529
-0.00684173
0.158036
0.138545
0.0537502
0.000460044
-0.00217395
0.0229422
0.203803
-0.0363292
0.00130554
-0.0011054
0.000109436
-0.048586
0.00736305
0.0582353
0.0958083
-0.022897
-0.0944885
-0.0372633
-0.0581998
-0.0231127
0.38363
0.0378225
-0.0771803
-0.00158024
-6.48665e-06
0.0004409
-0.0803853
0.00256537
-0.000322182
0.136374
0.144586
-0.0360897
0.120673
0.00730288
0.457633
-0.00158483
0.180561
-0.0521225
-0.000710717
-2.03846e-05
0.0407277
-0.0342232
-0.00110691
-0.0140667
0.245543
0.272886
-0.0194318
0.429353
0.189874
-0.0339551
-0.0297712
-0.0461863
-0.00412976
0.153862
-0.0490347
-0.000411788
-4.33084e-06
-0.000934082
-0.0316211
-0.00589592
-0.0252369
-0.0416772
-0.0702743
-0.0012844
0.475394
-0.00810422
0.259524
0.65621
0.168345
-0.0256828
-1.29305e-05
-0.032831
0.00224759
-0.00863297
0.444216
0.126376
0.115804
0.579174
0.00850607
0.046
-0.0348613
4.73711e-05
0.354553
-0.00514887
-0.0394766
-0.0256494
0.0108776
2.46845e-05
-0.047974
0.0862857
2.22764e-06
0.649692
0.0843716
-0.000494114
-0.000323371
-0.00140066
0.290359
0.0978435
-2.51195e-06
-0.00145548
0.000106816
-0.000266923
0.00208229
-0.00142945
-0.00824824
-0.00412035
-0.00229017
-0.00867447
-0.000574624
-0.000486726
0.0367632
-1.35586e-05
-8.89904e-06
-0.0227617
-0.0284644
0.00548199
0.355081
-0.0156251
-0.000534796
-0.00861633
-4.67317e-07
0.00497171
-0.0493588
-0.067834
-0.096041
-0.00043574
0.26815
0.0450539
0.152989
0.0184518
-0.00295642
-0.0225328
-0.00517228
6.19669e-05
0.0114925
-0.0870245
0.000325481
-0.0297219
-0.0245179
-1.43256e-05
0.686188
0.132833
-0.00128349
-0.0527268
0.186562
-0.0254341
-0.0103043
-1.67631e-05
-0.0333918
-0.0174853
-2.51064e-06
0.0814335
-1.55922e-05
-0.00126769
-0.0397418
-0.0738605
-0.0058392
-0.0066334
-8.4566e-06
-0.0515714
0.00242327
0.166307
-0.0342662
-6.34455e-05
-0.00607723
-0.00102721
-0.0668066
-0.120129
-0.0580781
-0.00914834
-0.0653991
0.124283
0.00146358
-3.89672e-05
-0.0031042
-0.0268769
0.0392135
0.530135
-0.0211379
0.730348
0.000458211
-0.0406273
-0.072732
0.34358
0.422649
-0.0110704
-0.00167306
-0.0435633
-1.37426e-05
0.565726
0.292158
0.097874
-0.0420268
0.0871123
0.11982
0.539851
0.219101
0.240758
-0.0536293
-0.0778309
0.265809
-0.0698169
-0.00158167
-0.0232935
0.0274731
0.000964332
-0.0238889
-0.000283089
0.00701957
-0.000725271
0.00271776
-0.0196531
9.21426e-05
-0.0328939
-0.0769019
-0.0540328
-7.32146e-06
-0.00474215
-8.35386e-05
3.57029e-05
0.14514
-0.06007
-0.0148357
-0.000506499
0.0142317
-1.14642e-05
-8.48591e-05
-0.000508
-0.000378229
-0.0889171
-0.0507747
-5.42223e-05
0.117511
-0.00206426
-0.0492843
0.0523753
-0.00742287
-0.00168693
0.000170533
0.0148562
-0.0422151
-0.0021384
3.84284e-05
0.00498862
-0.0504869
-0.0281944
0.0468003
0.000608071
-0.0329869
0.647343
0.00118788
0.00151234
0.0642919
-0.000498152
-0.0011512
-3.50877e-05
-2.28199e-06
-0.000146238
0.0239159
-0.0595401
0.48
0.688219
-0.00041192
-5.85526e-05
-0.000417891
-0.047916
0.770944
0.0623288
-0.0706382
-0.0430445
-7.96581e-05
0.00108093
-0.0323681
-0.00158015
-0.0372891
0.0141329
-0.0272636
-0.017017
0.00204876
0.599146
-0.0876327
0.00061674
-0.00152859
0.0305802
-0.0228104
-0.124987
-0.0708894
-0.00905581
0.327906
0.451394
0.140844
0.292339
0.108392
-0.066236
-0.00901121
0.00575627
0.115471
-0.0352836
0.000498437
-1.57743e-05
-0.0857349
-0.120832
-0.000870076
-0.0196153
-0.0586617
-0.0626688
0.43968
-0.00208676
-0.0322557
-0.00897416
-0.0295409
0.13216
0.0296893
0.00581835
0.00473457
-0.0170038
-0.00517466
-0.0123422
-0.0353334
-0.00509583
-0.0624844
0.250985
-0.0377868
-0.0169642
-0.00480974
0.198327
-0.057417
-0.0474215
-0.0610062
-1.04214e-05
0.283983
0.0747949
-0.0165872
0.00241223
-0.0255463
-0.0148957
-0.00218075
-0.0544418
-0.0107887
-0.09372
-0.00641556
0.00259636
0.000108017
-0.00027587
0.040777
-2.11089e-05
-0.0158764
-0.0405516
-0.0377568
-0.000281729
0.00021059
0.000261509
0.00245562
0.0372587
0.0201621
-0.0530612
-0.0491901
-0.0169146
-0.0118793
-0.00268041
0.547924
-0.0121962
-0.00440542
0.377
-0.0169288
0.347362
0.526604
-0.0105733
0.134657
-0.0146734
0.0116131
-0.00307788
-0.00233133
-0.000139277
-0.0415933
-0.120523
-0.0400971
0.0031857
0.13715
-0.0098429
-0.12237
-0.000411093
-0.000470335
0.267469
0.197082
-0.0126725
0.286908
-0.00977718
0.445366
-0.00702941
-0.00472309
0.0435157
0.0604104
-0.000201918
-0.00143169
0.220552
-0.0303999
-4.48296e-05
0.611078
0.127311
-0.00719133
-0.0694473
0.254044
0.593211
-0.00604614
-0.0327363