/*--------------------------------*- C++ -*----------------------------------*\
  =========                 |
  \\      /  F ield         | OpenFOAM: The Open Source CFD Toolbox
   \\    /   O peration     | Website:  https://openfoam.org
    \\  /    A nd           | Version:  7
     \\/     M anipulation  |
\*---------------------------------------------------------------------------*/
FoamFile
{
    version     2.0;
    format      ascii;
    class       surfaceScalarField;
    location    "7";
    object      phi;
}
// * * * * * * * * * * * * * * * * * * * * * * * * * * * * * * * * * * * * * //

dimensions      [0 3 -1 0 0 0 0];

internalField   nonuniform List<scalar> 
29574
(
587.54
-435.114
-152.426
269.956
42.874
-312.83
940.097
-1128.29
188.196
-395.238
994.383
-599.145
-633.752
670.61
-36.8583
-687.421
53.6687
207.672
-29.5658
-178.106
616.766
-467.177
-149.59
214.85
-288.404
73.5539
95.4131
521.353
-71.9303
248.316
-176.385
-274.867
277.012
-2.14533
-237.06
-16.0094
253.07
34.5251
553.015
621.973
-650.721
28.7483
-965.163
569.925
-295.882
335.377
-39.4947
-87.047
-992.195
1079.24
-252.734
232.809
19.9251
304.31
-34.3535
-296.329
293.059
3.27076
-28.8275
-246.039
-469.068
564.481
259.454
-305.428
45.9737
940.097
-360.654
77.8265
282.827
889.556
-973.993
84.4376
340.953
-151.15
-189.802
-157.63
-94.073
251.703
-103.478
-149.256
-592.292
741.079
-148.787
336.887
-281.398
-55.4884
384.754
-88.2401
-296.514
556.703
-291.157
-265.546
-717.382
780.459
-63.0773
-731.44
139.148
141.608
-370.484
228.877
932.227
-932.227
783.132
-347.438
-435.694
267.469
431.614
-699.083
3.61655
790.626
-794.243
-302.963
102.138
200.825
-877.903
709.207
168.696
971.941
-82.3855
-119.213
-241.441
115.473
72.0579
-187.531
1107.52
-476.289
-631.229
322.462
-233.215
-89.2476
842.868
-30.4361
-812.432
239.185
-232.334
-6.85101
-787.861
70.4792
47.2196
-742.177
694.958
-272.992
-130.033
403.025
762.797
-836.092
73.2955
158.089
-369.388
211.299
16.1721
-212.598
196.426
383.998
-113.567
-270.431
694.762
-751.748
56.9856
-52.3066
-298.673
350.98
-78.5199
-217.362
-652.22
412.572
239.648
-49.9949
243.922
-193.927
480.86
-483.458
2.59712
-205.646
-346.037
551.683
-697.504
827.981
-130.477
-716.878
108.691
608.187
531.171
-574.577
43.4065
-651.347
-65.5305
-158.108
-354.345
512.453
-128.499
-87.3069
215.806
363.781
-548.125
184.343
313.031
-217.17
-95.8618
675.805
-53.8319
-275.696
-32.5345
308.231
1064.08
-575.088
-488.991
-66.5372
457.944
-391.407
337.818
-126.798
-211.02
-226.111
15.4815
210.63
898.182
-630.713
582.551
-834.737
252.186
634.115
-525.424
817.018
-195.296
-621.722
279.903
-88.4739
-191.429
295.325
-80.475
133.374
-183.369
-610.691
-267.212
241.909
-282.112
40.2032
-40.0161
145.834
-105.818
-651.527
445.881
132.905
-308.309
175.404
-424.008
695.099
-271.091
739.015
148.765
-887.78
904.537
-130.233
-774.303
168.295
-276.539
108.243
192.208
130.254
424.966
55.8939
243.285
-74.9897
-779.23
790.26
-11.0294
-311.636
239.706
1000.84
-905.351
-95.4877
282.984
-150.078
408.664
-419.472
10.8078
170.698
126.331
-297.029
440.738
-182.385
-258.353
1199.63
-1199.63
465.99
26.0985
-492.088
-30.5238
259.948
-229.424
-460.288
227.188
233.1
263.927
8.93066
-272.858
-273.96
-76.9044
350.864
36.9179
-194.548
180.909
26.7629
399.188
-113.108
-286.081
-257.41
-401.775
659.185
-553.433
486.896
-568.618
-431.484
-388.934
-171.236
560.17
576.837
57.2789
-295.782
-5.65584
301.438
-1029.84
242.889
786.947
-170.778
909.793
44.1958
260.359
-304.554
364.413
-602.434
238.02
239.57
-362.035
122.465
127.958
428.745
764.006
-851.053
12.6726
213.377
-226.049
179.674
161.279
242.333
94.554
131.527
-520.461
-24.098
-154.864
178.962
18.1709
221.015
848.375
-844.758
293.155
489.977
131.498
-359.675
228.176
256.975
942.659
286.005
-69.9235
-216.081
-279.358
-16.9709
-408.984
36.6518
372.332
108.205
59.9607
-168.166
285.511
-241.315
27.7544
-303.451
174.49
138.541
-303.218
203.692
99.526
-548.686
87.1562
461.53
-113.573
245.071
-287.213
80.6582
206.555
-95.4641
-224.748
320.212
8.25011
293.871
-302.121
-762.083
-211.91
128.171
-223.635
209.319
971.748
-67.2108
-234.143
-44.6516
278.795
151.832
665.186
-271.185
-16.0277
-747.874
137.183
83.0517
176.402
70.6333
-162.428
91.7948
-14.5261
-222.534
-168.506
326.595
-228.09
198.524
-36.6784
-389.219
-159.467
-193.594
-654.22
847.813
-153.649
113.633
347.802
60.862
263.149
16.7545
432.212
25.7318
-348.476
490.083
338.063
-52.0584
-182.703
-137.592
320.295
-2.68173
-207.696
210.378
402.624
-442.973
40.3495
96.5247
92.3856
-188.91
46.2393
338.514
-571.634
509.173
62.4606
-531.816
-33.8469
565.663
-435.428
-118.006
-20.0335
224.68
-204.646
45.3025
-218.223
172.921
735.474
196.753
341.991
49.8618
-391.853
-83.2764
214.995
-131.718
266.285
38.0249
229.822
-125.4
-104.422
579.971
-216.189
26.2591
974.579
144.956
223.064
116.171
-339.236
278.735
-266.062
237.641
-374.985
137.345
68.0362
-973.387
-574.979
416.871
221.231
-150.598
-42.3874
294.519
-252.131
84.1686
257.822
-50.0728
304.599
-254.526
324.233
-57.9488
-1.76737
224.832
248.169
-378.272
130.104
-84.1525
311.433
-227.28
-455.377
160.534
-347.55
187.016
266.959
-390.131
123.172
-317.322
287.597
29.7247
-3.86171
-330.574
334.436
760.23
-713.01
200.889
-184.717
619.317
-634.616
15.2984
417.598
113.572
-852.64
515.808
336.832
-40.0222
307.067
-267.045
-89.5925
-151.409
241.001
-293.993
556.613
507.466
513.217
-513.217
-537.814
-492.021
-247.816
-212.472
896.618
-603.463
5.88184
261.002
-266.884
-176.397
-261.78
438.178
82.0235
155.863
-237.887
506.223
-930.23
-343.492
266.588
-13.3081
-395.676
354.691
-358.553
-1068.66
500.037
-484.717
484.717
-642.377
-5.05633
647.433
631.183
-266.769
291.754
118.821
-410.575
-327.985
297.462
-220.05
201.371
18.6789
-538.037
833.86
-295.823
306.47
-64.5605
549.829
-83.8392
-418.466
235.764
176.811
66.4739
-652.262
475.864
233.42
-360.218
87.6728
-177.265
250.03
113.35
-363.38
351.415
-111.845
-960.045
-239.589
623.358
-46.5217
-72.8835
265.615
-192.731
527.907
-448.795
-79.1122
-71.5428
752.454
-680.911
-53.2065
896.075
262.316
1.61117
-106.661
188.685
-87.7926
542.349
-454.556
-541.056
193.618
-170.178
14.867
155.311
-116.999
408.753
-35.221
214.659
-179.438
-75.8239
-227.139
193.992
-85.7871
-76.9136
192.387
14.1435
-246.569
232.426
30.9817
459.666
-490.647
710.243
49.3897
-759.633
290.297
16.1722
-69.1175
-158.972
-132.52
40.4042
230.81
-271.214
37.2155
361.973
218.525
-756.562
316.821
-197.557
-84.5553
122.578
-820.629
698.051
61.182
-391.533
-183.044
-275.845
203.868
71.9773
-338.576
-313.644
567.721
-999.205
241.872
-52.9862
-188.886
-42.8785
240.516
-197.637
-1042.1
352.496
689.609
-37.9084
371.592
-333.684
325.086
58.912
-249.009
98.6863
150.322
339.473
-96.1858
-243.287
367.09
-129.45
-175.087
301.418
276.705
-213.566
145.625
-188.504
-101.543
592.425
-490.882
755.033
-172.481
-127.414
-351.024
478.438
853.997
-731.418
248.321
-207.916
-40.5413
-307.934
-537.109
81.2609
81.8541
-163.115
347.755
-83.0016
-264.754
-74.0456
172.753
-98.7078
376.404
-128.236
-108.817
-341.264
450.081
7.58039
843.998
-851.578
-776.566
804.371
-27.8048
-246.156
62.1834
183.973
-754.503
442.111
312.392
60.5327
-164.011
5.83824
172.548
-178.386
-282.388
253.56
6.03214
-230.152
224.119
239.656
-14.976
168.949
-523.057
354.108
228.551
-214.407
-40.3132
-185.798
-70.3346
560.418
344.088
-75.5844
-268.504
-733.922
741.503
-470.605
357.049
113.556
457.312
-325.785
481.742
-853.1
371.359
-280.885
-88.5026
-726.439
28.935
-177.721
-71.2878
-646.646
631.81
14.8354
-177.327
351.5
-174.172
301.701
297.683
264.203
-167.423
-96.78
255.32
-268.322
-479.551
-194.25
-82.2889
275.217
-196.598
-78.6197
-538.237
15.3719
522.865
172.254
-75.7295
1006.26
-1006.26
433.605
-511.009
-531.096
141.116
189.248
-330.364
-476.91
436.369
-331.405
298.87
-330.234
403.032
158.309
-561.341
50.1145
712.682
537.55
-134.519
418.569
-589.805
87.6734
209.41
-297.084
-206.976
-212.866
419.842
290.492
84.4759
-374.968
-297.367
-544.722
842.088
489.893
-747.303
358.411
32.4519
-390.863
-992.195
417.288
95.929
267.851
-270.532
303.973
-356.279
-17.2522
131.752
-114.5
6.15231
-264.77
-253.208
11.6627
241.545
242.626
32.5915
297.487
-380.763
225.857
-92.4828
-537.511
-189.097
-119.212
-389.552
-364.951
-961.411
-176.809
1138.22
-500.51
957.511
-457.001
-131.823
-4.81587
136.639
-669.314
636.921
32.3931
-233.846
359.563
-125.717
242.019
285.889
1.9655
-214.563
873.862
-912.392
38.5294
424.912
-108.409
210.546
-360.69
160.025
200.665
-248.593
58.8532
189.739
-476.41
-61.8269
133.904
-247.47
340.325
-90.2943
-1080.03
886.438
-535.281
447.489
-102.209
217.34
-115.131
-62.723
377.697
-314.974
363.882
-340.552
-23.3302
-370.898
43.4242
-213.603
-297.607
666.167
-368.561
-54.7735
-256.863
-91.3206
449.731
4.38648
191.8
-196.186
908.367
199.151
-343.624
-17.0659
162.952
200.93
-373.615
-455.652
829.268
-841.339
365.05
429.31
-947.837
518.527
90.0688
-428.503
338.434
-262.845
188.799
-8.11998
467.785
-146.885
-200.664
-431.629
150.231
616.239
7.11976
27.3852
214.487
437.773
-91.4121
-346.361
-98.1728
-92.3004
190.473
114.402
214.066
-289.89
9.1081
-107.873
-41.79
149.663
-385.54
-8.97282
394.513
-27.6145
312.514
-284.9
-104.685
495.725
-391.039
-423.79
374.664
-84.1716
-880.426
808.883
341.266
-315.167
-68.8398
-306.146
-70.6056
-307.667
-656.076
-123.154
-527.296
283.037
244.26
-276.022
58.8527
-130.174
128.581
30.5477
177.225
410.347
-587.572
28.2336
-277.254
44.0391
24.0547
280.544
150.414
-263.522
-61.1075
-266.574
327.682
-810.912
796.263
14.6488
235.597
-253.231
17.6339
363.557
533.061
264.493
-360.679
-15.1399
305.437
-724.615
694.179
292.62
-210.44
-82.1798
283.104
11.4148
-175.171
-153.871
-316.052
469.923
-216.313
-101.009
289.143
-372.144
426.444
-535.262
116.692
81.0134
-197.706
206.647
-128.568
-78.0786
277.408
-651.024
143.581
-497.926
240.161
-100.177
-139.984
48.1501
-810.233
-423.448
294.502
-370.086
-583.864
673.933
-479.754
90.5356
368.343
-665.709
135.262
-246.2
110.938
-847.182
895.332
-30.4527
-9.32134
799.948
-223.051
218.228
4.82351
-308.704
199.756
108.948
-240.321
-149.81
-49.5022
420.384
-370.882
535.363
-636.906
35.179
-222.009
186.83
167.553
-132.374
327.416
87.5642
-264.892
168.654
25.3384
-138.79
766.751
107.111
-429.053
170.7
-228.61
181.281
47.3284
194.736
-229.957
0.389214
193.222
-193.611
-338.344
277.236
-226.835
-10.9875
237.822
-533.46
406.047
197.881
-189.631
-581.163
-65.4826
614.66
4.65776
-294.399
-226.062
185.54
-87.8994
-97.641
-123.915
-85.798
209.713
167.348
-225.511
58.163
-42.8367
278.132
-235.295
-227.123
217.726
9.39759
-199.839
-27.2848
341.448
96.325
959.111
-702.136
-263.645
-298.564
243.791
189.848
32.8785
-222.726
-965.102
793.14
171.962
-375.368
172.649
202.719
-486.573
-140.67
627.243
-158.972
-806.191
-2.56015
-294.469
-460.465
451.492
-90.8083
-217.896
251.701
-11.185
653.439
-97.0011
-556.438
347.776
-452.461
-159.266
756.379
-597.113
-213.624
-206.284
419.909
-288.778
273.547
15.2301
5.93176
-63.7517
231.099
-102.647
-173.198
-530.499
3.20259
-16.1956
-91.3626
-744.729
37.3681
-432.303
-209.983
86.0682
-265.017
170.944
698.897
259.455
-304.106
165.206
64.6164
-328.809
10.4972
318.311
-270
21.4073
-37.5036
-996.228
778.271
217.957
-27.9429
229.314
-101.725
277.129
496.017
-521.366
25.3493
-295.972
-174.632
-362.728
399.38
-45.1287
143.088
-97.9594
982.805
-814.518
-168.287
45.5615
-553.874
508.312
-22.9626
-137.815
160.777
-150.288
-125.734
488.421
-63.4541
-239.581
481.599
-556.717
116.306
440.411
-199.539
277.366
518.48
-374.035
-144.445
296.431
8.4109
-304.842
-262.342
189.459
648.032
-93.7066
-554.325
421.088
-243.862
-432.514
388.859
43.6554
256.611
9.00379
-272.135
-56.6739
-182.067
56.6678
204.453
-500.057
61.9018
438.155
-258.575
264.457
-373.432
345.818
-310.805
-67.4297
-417.288
-450.877
401.375
-530.579
1001.82
-471.242
-122.297
77.1684
-177.855
-197.513
488.429
-50.1224
-438.307
-16.8308
-301.9
318.731
-494.018
557.087
-63.069
427.068
206.49
-101.187
-105.303
188.006
-230.843
202.928
-202.539
-312.632
116.035
446.878
-401.317
-9.81525
-278.962
64.3811
-891.026
891.026
129.053
5.48771
420.63
-426.118
-156.122
181.09
-24.9682
-506.943
299.967
-419.764
62.0262
357.737
53.8712
131.669
-503.894
389.348
114.546
-207.552
437.273
51.1475
307.484
41.789
-349.273
331.945
-71.5864
-409.138
-39.6567
112.383
-352.068
289.345
338.69
-239.646
-99.0448
-43.5509
147.809
-104.259
-961.411
-301.264
-200.711
96.7348
103.976
-322.251
234.01
-418.233
-529.604
254.568
541.446
-796.014
-148.443
-528.827
677.27
-468.546
174.147
-24.9575
193.611
216.078
-13.1502
-657.637
640.714
16.9238
67.8122
353.275
276.005
-58.8917
-217.113
-107.402
-538.156
645.558
-566.897
796.546
-229.649
-591.848
52.7415
-778.104
194.214
583.89
-987.344
429.15
558.193
-282.76
-273.957
-121.986
463.252
-968.61
438.031
-675.48
814.358
-138.878
627.017
-734.418
-208.569
252.37
-234.199
124.356
-799.836
-164.694
-694.079
858.772
654.453
-6.42065
501.204
326.777
-85.918
278.126
-95.0425
90.2267
-144.852
214.395
-560.431
255.297
-227.974
-27.3225
-134.369
338.356
-203.987
-163.707
-113.547
520.636
-24.6191
-293.373
276.542
12.8728
624.048
-703.987
-650.948
-251.43
-248.627
28.5599
219.756
33.5687
452.656
-486.224
-364.097
332.119
31.9779
-140.199
155.681
561.588
440.233
-367.892
-182.494
550.386
165.914
-244.434
-96.3983
270.888
-64.876
-354.888
173.999
-243.923
-236.646
304.458
201.355
-129.297
-444.694
-542.649
-287.172
-10.7039
297.876
-317.004
178.89
138.114
-173.021
177.407
-222.003
-95.0008
225.654
-219.622
253.856
-282.285
28.4293
299.137
-86.8524
-212.284
-805.241
646.269
-315.015
-311.079
77.233
-302.079
334.531
277.782
-92.8533
519.921
189.055
-33.1918
278.89
545.689
-824.579
-195.666
166.238
40.4093
-561.831
407.96
-945.904
291.684
311.657
-812.167
-473.546
-73.0188
546.565
-527.563
450.253
77.3098
286.939
-207.678
51.5564
-618.708
379.127
-30.7072
165.97
-334.339
367.908
147.802
-521.837
-123.9
-36.2008
213.012
-6.30793
279.855
270.028
-79.0915
171.477
756.139
-3.68545
295.094
-269.778
-25.3161
-260.071
-99.6039
-103.313
-30.8587
266.456
703.189
254.322
66.4249
210.704
342.958
-109.538
-78.7297
309.628
-230.898
-445.387
94.3631
495.86
-231.083
-264.777
291.993
-298.301
-18.1726
-673.018
691.19
228.085
-827.333
456.434
-230.547
71.4472
-339.951
-119.473
-375.557
495.03
-124.314
139.181
235.508
-321.426
310.471
-16.5994
-866.702
334.886
82.2904
-347.044
-726.451
-515.123
-449.979
242.082
93.5023
-336.789
220.403
-316.801
165.155
75.0064
143.086
-225.646
82.56
-489.198
147.934
497.267
-921.057
-157.712
69.8127
457.977
26.7403
-574.556
-421.672
18.8367
-600
-3.38093
299.812
-109.381
399.58
-290.199
-105.081
-83.829
144.61
-213.913
-80.0803
-344.421
381.636
-242.106
-63.8799
305.986
-72.8079
251.698
-271.153
-262.408
244.407
18.0013
44.0615
-237.802
309.25
365.999
-56.4945
-307.603
-18.8228
236.549
207.227
-27.0177
-180.209
-99.8093
-467.419
53.9821
413.437
-295.22
-125.128
420.348
172.841
-216.392
317.799
-253.122
75.4013
-202.25
-112.006
314.257
805.996
313.905
-33.2781
-214.595
247.873
-23.3184
-504.245
-287.172
-734.604
350.52
384.085
7.94518
-299.102
-10.0584
252.391
-15.0921
233.32
273.775
-337.938
64.1628
-453.814
-121.165
-547.905
192.909
354.996
214.267
23.5556
237.825
336.353
-616.86
280.507
234.44
-418.269
183.829
-364.184
399.506
-668.315
268.809
960.358
-934.098
-742.714
445.107
-425.719
-122.755
548.474
164.216
130.878
-308.805
574.902
-396.565
-178.337
367.506
-201.592
-809.6
242.703
251.174
244.686
-226.068
75.7797
396.101
-98.6395
181.661
-185.334
3.67328
232.497
11.4246
574.19
-608.037
-508.538
185.819
322.72
79.0536
-354.076
-139.532
493.608
80.9125
373.016
-199.017
264.394
59.8395
-463.285
167.313
304.713
123.612
-428.325
121.593
-223.802
-179.731
-229.17
-205.944
-365.149
20.7279
-28.6159
-629.022
-29.7198
228.848
-199.128
-313.125
184.481
128.644
-366.023
-119.475
485.497
-258.276
-85.2163
192.56
14.667
-329.296
85.9528
181.444
89.9106
-271.355
-269.018
-126.913
395.931
-369.435
-290.764
270.983
19.7808
126.11
-354.682
228.572
162.327
-243.949
81.6227
-40.0631
-115.143
-272.39
387.533
-378.395
231.509
211.46
-440.631
-259.323
113.235
146.087
-458.907
142.856
34.9598
-439.706
404.747
-198.97
-63.4387
174.355
405.828
-333.938
-71.8902
-204.928
206.21
-1.28211
-265.388
132.846
132.543
-90.2146
-138.395
-314.914
-112.743
905.883
-219.538
-27.0315
267.975
-484.383
309.75
114.828
-319.752
204.924
-379.009
-141.55
520.558
-470.755
-216.666
218.922
-29.0742
261.732
689.322
-707.495
-49.1384
-273.334
322.472
80.0377
-710.034
629.996
210.313
84.4256
-294.738
289.541
-100.293
-233.796
231.236
-364.842
-41.0645
405.906
-710.778
39.3763
671.402
-482.049
-170.213
-94.0195
-279.413
522.149
-38.8515
-774.407
-19.4936
793.901
-198.412
536.324
-337.912
-202.311
481.201
161.663
-515.739
308.047
-98.6368
117.061
425.287
-425.998
431.486
-318.517
-132.252
450.769
-524.177
50.631
323.737
33.3114
32.7734
-266.57
246.895
-61.052
-185.843
-92.7015
-96.289
285.088
-74.094
-277.974
59.2964
218.069
-302.024
-89.857
391.881
-275.572
330.108
-54.5353
-70.3865
265.123
-330.367
-124.782
455.15
-241.713
108.502
133.211
-132.674
-45.9414
52.5589
-650.399
597.84
-180.871
-251.643
-287.722
-235.335
-336.939
-86.5094
-212.693
-66.1894
278.883
415.41
639.677
176.612
-240.084
63.4725
152.962
520.971
216.095
30.8008
169.793
-242.189
72.396
-380.614
-152.846
-531.065
-87.7058
343.026
-181.949
315.029
-28.0899
645.899
-170.035
-4.69418
230.348
-245.516
275.507
-29.9905
713.545
2.1226
289.871
-602.052
492.448
109.603
219.01
56.9945
205.432
-30.0717
210.929
-330.141
90.3345
-331.775
16.2399
-355.28
362.009
-6.72922
90.866
-196.684
179.556
40.9426
-320.616
323.035
-2.41941
270.547
-334.427
246.131
-13.7055
-349.563
-127.347
-66.6551
267.481
12.1064
243.19
306.025
2.2058
-378.913
-128.785
507.698
-81.3257
-151.009
-200.086
-21.9234
68.2949
248.526
263.425
-294.284
298.666
-67.7966
-241.364
271.781
-30.4163
-1062.74
718.809
343.935
-419.358
124.139
306.954
14.2153
-321.17
-58.1974
347.542
568.366
-179.325
-22.0201
201.345
-67.5001
-214.888
-265.691
-53.8968
319.587
-289.265
-52.4603
341.725
-70.0645
-510.245
-91.8066
-797.77
785.446
12.3238
49.2214
242.924
-292.145
52.7191
302.411
-171.842
457.352
-285.51
-234.344
-64.2199
-457.343
103.808
-208.889
183.841
-255.129
-314.576
-98.6992
413.275
-117.079
444.935
-327.856
-383.414
-77.0513
-225.194
-96.2325
2.34589
-416.851
-118.431
-204.395
684.266
12.4522
645.993
-658.445
-198.682
43.8188
226.096
-810.612
584.515
158.621
-398.942
296.27
-36.3225
103.253
-1003.77
-214.2
-102.601
441.998
-8.39277
-498.484
-387.671
-104.418
-657.426
206.881
-397.677
190.796
-5.75076
283.882
-321.829
-90.9526
412.782
-13.5216
-268.066
281.588
829.948
-116.403
-490.669
482.549
-59.627
-714.78
-89.3396
435.157
-846.636
783.558
299.889
-467.977
403.101
-89.5843
-120.856
171.801
177.791
-349.592
-438.286
-244.315
185.243
19.5541
-204.797
-204.954
910.413
29.6836
-992.019
559.715
-211.758
-87.6904
299.449
727.45
36.5562
352.201
-85.6132
376.382
-355.654
-402.359
410.504
-8.14525
323.648
-327.511
3.8634
357.816
-96.0836
-14.5903
-410.133
-143.741
-218.026
-112.339
-196.839
-100.245
-590.618
788.124
-197.506
-228.557
6.55407
-207.351
-415.849
-462.14
412.018
88.6305
-302.544
-107.816
-124.297
232.112
-44.533
391.506
-346.973
340.815
-63.5788
216.745
-63.0349
-153.71
97.7138
-235.529
133.21
143.495
300.534
-90.2211
-314.441
-87.5907
217.845
552.516
-146.47
26.378
-773.667
747.289
-278.17
107.161
-186.252
-30.1464
-72.566
326.126
57.7724
772.044
-698.749
856.284
-110.802
-745.483
380.029
-76.6376
-303.392
103.745
-218.875
-96.3278
509.92
-413.592
-224.748
-63.6563
25.367
-735.401
429.761
-90.4085
-291.18
289.354
1.82585
-209.993
-55.4051
265.399
206.237
22.9255
-229.162
-32.245
-103.498
-446.481
-616.263
-427.181
205.269
1.43549
-211.552
-11.1109
239.196
52.5137
-535.657
483.144
-310.368
224.748
-402.603
161.444
-362.108
687.352
-310.062
69.3259
-271.798
202.472
-132.795
292.82
582.375
-163.806
-217.354
-144.494
233.547
883.447
91.1324
-297.876
222.886
46.9774
725.067
-13.2312
194.892
-326.073
-93.3987
378.163
-83.6617
-435.516
-513.638
150.974
362.664
-164.336
-513.408
677.744
-581.767
1006.68
-722.402
131.784
-462.619
-284.231
263.292
103.798
-928.771
62.4168
866.355
-334.464
378.091
-88.9482
-4.68962
359.381
323.673
6.43491
223.28
-200.167
-23.1135
-301.673
96.7195
-196.646
-8.28178
242.696
354.119
-89.6265
640.908
-132.595
275.718
100.687
542.76
-116.316
504.044
-93.6971
248.378
-28.2394
-220.139
419.837
-478.214
-327.7
805.914
541.01
-257.973
-279.078
-548.745
80.4482
468.297
301.938
-58.1469
-711.067
677.627
33.4399
517.258
-65.7656
-32.6825
635.684
-603.002
-358.527
271.675
278.37
81.1922
412.06
125.491
-376.118
211.278
-24.4476
337.928
2.88668
-426.796
-128.478
-51.5727
589.653
326.144
-317.558
-8.5863
-505.914
52.1001
-369.111
-330.346
302.256
43.68
327.912
-283.08
326.93
-55.2551
-147.951
-268.241
-251.169
-17.5056
268.675
-400.991
-112.226
-32.2165
547.19
-38.0165
-8.7803
476.566
565.537
-26.3702
-169.968
-271.866
319.25
-47.3839
-71.6783
237.728
32.6034
-743.67
-315.63
-230.306
339.312
-392.129
-58.7477
442.496
635.077
219.813
-854.89
-154.039
566.337
-136.575
314.444
-246.31
-68.1335
-86.8735
-580.774
-197.33
24.9913
204.763
118.91
-139.56
221.183
-277.467
-279.916
332.26
-52.3438
233.063
296.923
-418.909
714.338
423.881
-283.832
359.724
-75.8927
-261.011
-454.1
-219.774
837.385
18.8991
396.724
-58.7958
-957.65
28.8784
380.623
-83.1364
-744.353
-8.72958
-297.416
635.075
207.532
-90.8398
-101.143
7.06114
298.376
-381.972
5.35347
376.619
-234.325
-129.056
212.459
-100.676
-474.053
-87.7783
488.439
-80.4795
332.149
-3.97614
-303.691
-97.3867
-123.202
-519.429
370.985
-115.3
653.396
-628.029
-266.413
354.627
-88.2137
-226.123
62.416
283.659
23.4082
-450.661
-470.396
-418.051
974.345
-459.81
-514.535
552.17
-104.681
-503.103
-115.605
-91.7157
18.6033
500.233
-121.106
5.03721
48.6145
180.234
-221.935
-207.118
60.4088
-96.4264
537.893
-121.023
-407.261
-338.346
282.858
267.946
-1.4897
416.927
-84.7776
-55.192
-149.203
-160.743
-309.866
30.9036
65.3916
-265.477
438.843
-650.753
584.338
-105.646
-478.693
758.976
-726.372
408.751
-69.4391
-261.854
-296.867
29.9907
565.38
-122.884
-758.243
784.621
220.199
-4.53002
-215.669
-134.176
222.807
457.141
-55.7665
592.235
-146.354
-282.563
284.685
-111.596
-89.1148
-210.929
254.994
-44.0651
-106.012
270.228
296.309
-36.8545
-44.0789
251.181
-473.499
-278.249
270.715
-235.231
-35.4839
-407.893
396.748
11.1452
-18.2407
-128.725
291.678
288.005
-294.329
6.32389
-245.503
-93.9971
-12.1579
143.91
-324.344
397.888
-43.3108
787.237
-743.927
-507.136
338.72
-41.7972
28.3355
348.735
11.9281
-360.663
7.01354
381.845
216.06
493.147
26.6347
491.133
28.788
355.288
-47.8043
-64.2261
234.019
244.6
65.0272
-868.243
880.695
-300.99
286.578
14.4122
-550.937
252.34
-1.15918
777.404
-569.375
-208.03
261.484
-187.498
-73.9858
433.218
229.597
25.7373
494.899
-199.827
619.062
-419.235
86.6245
-50.3516
841.679
-791.328
-406.07
290.927
476.862
198.943
237.903
-1.3541
226.455
-175.249
-474.444
649.693
36.282
209.849
55.5426
-561.407
571.349
-508.888
808.154
-271.549
-536.605
-278.742
-176.635
63.2722
270.287
0.696108
-229.353
-274.541
-349.304
-492.035
6.20776
186.801
-193.009
293.646
267.127
198.911
-792.607
768.488
24.119
-12.7907
409.055
-450.612
41.5574
278.927
75.7593
0.789557
756.872
-757.662
84.5108
234.739
57.1183
92.2831
-293.439
308.278
-14.8385
-909.574
-51.8371
199.43
-121.137
-484.537
605.673
-297.093
838.539
-147.514
-387.474
-118.44
-561.509
118.548
375.06
39.4119
-257.59
-24.9726
197.51
-148.895
4.67617
844.758
46.2684
-15.9467
305.817
473.923
-357.698
-116.225
-630.148
248.83
381.318
118.244
166.844
358.653
-356.202
257.157
131.769
281.507
229.792
238.132
33.6485
69.7631
-484.139
414.376
825.761
-246.435
-579.326
168.211
201.17
-369.382
352.327
402.111
250.224
3.65618
-626.258
-305.968
254.864
-889.946
368.237
78.5598
-454.116
69.702
-633.824
-101.577
248.475
-362.383
368.419
549.339
-568.334
645.139
-76.8052
-13.3989
375.372
411.388
-329.253
-30.6209
166.954
-136.333
-303.471
298.543
-18.6879
639.321
-347.758
-23.0777
378.335
-355.258
75.8849
-184.801
246.103
-61.3015
-274.561
223.88
50.6812
281.001
527.153
151.339
-405.06
429.529
-1079.24
1080.03
112.759
-8.75411
433.476
161.793
-54.6321
416.077
336.532
216.406
24.5957
272.599
366.44
-26.2332
-340.206
-650.409
648.435
1.97446
234.421
200.196
-13.3947
502.425
-432.662
-213.744
763.083
280.687
90.832
258.309
-367.847
-177.09
26.626
244.089
750.593
-166.922
-583.67
-866.062
934.098
284.132
353.982
240.455
-226.24
554.104
-992.39
438.989
323.442
306.43
-44.158
449.82
291.56
59.897
-418.228
358.331
-207.942
309.441
-13.6682
-23.3866
-824.376
694.143
829.528
-202.512
335.336
260.761
121.875
341.216
-20.204
-321.012
269.772
291.928
280.026
-191.614
90.427
-275.342
285.733
-10.3915
430.152
-541.645
-254.369
-5.26351
221.669
450.033
-578.818
-278.109
20.5193
446.949
-116.357
-233.306
349.664
-328.587
-185.051
634.943
106.136
426.548
-943.221
516.673
-461.355
418.744
42.6107
-3.48933
255.487
-251.998
330.408
-254.523
258.691
-236.126
-22.5649
296.452
26.9645
-211.766
-847.182
83.8724
334.54
-418.412
-31.0799
720.261
-689.181
323.707
-296.656
-27.051
-445.703
448.494
304.21
-246.438
-400.007
978.66
-578.652
284.116
-13.9625
199.206
549.205
450.795
-175.718
211.894
11.1564
-223.051
-28.4769
400.809
-593.259
33.5294
559.729
205.38
246.358
-342.59
-40.4733
-367.42
-910.413
860.061
-485.465
1034.67
337.963
-51.9002
240.827
-2.10618
-238.721
489.727
-435.745
55.8458
-706.245
-460.66
-0.694426
-260.111
320.206
-469.53
-499.08
299.114
-18.7087
-280.405
-959.242
421.428
-797.77
158.368
34.28
-192.648
32.1874
597.809
648.911
-634.076
-286.739
832.427
-71.5231
210.064
363.707
-521.57
157.863
-121.255
349.56
-228.305
-703.675
750.652
-388.243
209.643
-225.334
234.616
-9.28207
-274.981
701.53
314.983
613.069
27.8663
-786.11
-232.668
232.991
-335.592
-47.3189
-227.806
239.469
-895.332
979.77
176.473
39.5918
-216.065
266.319
-295.527
-85.2359
15.6474
387.374
209.938
-597.312
502.736
-902.743
496.31
-49.4321
-223.991
-4.89887
228.89
-114.645
-195.221
-284.941
72.6566
-164.219
-139.232
303.503
291.363
-264.737
-114.998
-319.574
434.572
282.597
290.979
-17.6086
-294.484
312.092
-691.42
18.4023
848.375
-909.574
960.358
-960.045
942.659
976.104
-976.104
-866.062
-1003.77
269.502
-230.09
-240.681
-231.438
-189.143
-4.46794
748.81
-966.275
217.465
-880.695
14.3313
-284.762
194.882
-36.5147
-763.365
791.232
229.073
-6.86272
-222.21
-263.478
249.957
-11.6977
-249.919
261.617
247.824
-14.0147
-233.809
202.921
-230.243
-23.4602
-253.545
277.005
-188.552
201.278
-12.7264
250.85
281.506
-348.335
408.232
107.979
-185.096
77.1163
-377.452
-595.935
-194.684
207.917
-13.2333
-419.976
-84.0203
503.996
196.363
-176.809
43.446
202.514
-26.0412
-359.302
259.698
487.661
-119.242
208.729
456.814
-47.7589
307.172
-378.468
71.2964
19.0734
-635.061
667.249
262.518
-462.345
-783.799
730.328
53.4706
480.813
497.846
70.62
417.041
-259.774
254.023
-73.1353
-710.664
235.479
-323.169
702.678
-900.183
333.492
-737.279
403.787
130.958
262.775
-205.047
-57.7281
-47.511
-388.829
-867.42
592.438
-2.97617
261.25
3.96545
-304.806
300.84
18.3348
-42.8558
236.744
280.922
-36.8329
184.312
-57.8726
-126.439
738.432
20.544
272.654
305.891
6.59456
183.133
-225.965
42.8321
224.517
-301.971
298.59
-306.99
-203.581
217.761
-14.1794
74.7125
-494.688
237.935
159.954
-86.7246
835.535
-606.148
427.81
564.416
-659.903
218.935
-317.572
313.305
-434.56
183.938
-296.276
218.63
-195.704
-312.543
212.25
-192.261
-8.72616
200.987
215.044
-315.289
367.72
-266.023
-101.698
-1.43465
484.578
-442.537
-560.349
1002.89
-728.308
634.601
-50.3674
-319.996
370.363
21.4007
51.0187
-289.182
279.123
-272.545
-5.56429
198.654
49.6909
-248.345
-183.033
-214.644
-290.364
222.201
-207.941
-14.26
-304.806
-405.858
405.858
188.241
-658.996
163.68
162.916
300.84
727.37
-234.922
-41.7407
-645.961
687.701
522.602
-82.1912
237.338
-365.948
316.81
383.266
245.096
4.33568
231.171
-171.606
-59.565
-38.3869
-686.665
686.665
-173.79
-389.026
-91.8455
-117.044
205.595
20.2621
-137.705
204.179
-424.09
479.984
-157.802
-204.307
724.825
-500.175
-224.649
-112.255
-106.621
522.728
-168.621
-100.357
-32.6442
-486.175
518.819
-500.405
-287.456
509.355
-14.4566
-24.8456
-716.566
541.317
-458.488
-65.689
767.668
19.569
232.51
-113.015
773.831
-660.815
92.1942
839.715
683.244
846.538
152.411
-215.446
-388.057
-72.603
-239.083
248.76
-217.443
49.833
-176.943
-897.225
41.2307
855.994
15.8467
396.726
810.599
-265.178
249.087
16.0905
1066.36
-542.376
-523.979
-168.882
7.63137
474.917
202.912
-36.6744
281.142
269.244
428.299
-772.05
956.329
-184.279
-343.358
5.01127
233.066
18.853
665.413
-79.775
-221.215
-178.694
-239.358
201.296
92.3118
635.059
690.179
-731.92
92.03
-795.705
23.1938
654.433
752.304
-849.642
97.3376
-627.689
536.293
91.3966
627.332
-563.663
-63.6688
-447.063
521.775
49.4661
-92.5523
-122.836
215.388
130.93
304.92
-598.495
428.282
186.685
-186.685
-200.648
219.791
-879.261
436.724
-654.731
533.595
-548.745
868.243
-954.968
24.2801
-237.813
206.631
-177.331
-221.611
-245.996
23.5962
358.04
36.8276
343.202
-353.515
-358.558
31.0465
419.957
-677.93
-55.3145
-726.824
782.138
222.065
-277.47
55.3622
117.661
-241.958
-623.676
656.069
-193.72
-61.4089
8.07237
529.884
136.284
-311.642
-18.7033
-455.106
957.842
863.992
-863.992
334.252
44.0829
13.8952
462.671
-761.625
17.6989
649.724
17.5249
80.3116
417.484
-497.796
216.77
303.716
-3.90378
9.23168
672.291
18.8992
-822.811
625.481
195.817
303.035
-498.852
-822.727
551.178
210.898
-409.749
22.0079
-650.037
-186.208
-42.7598
228.968
-92.5389
209.237
-116.698
15.4369
45.5514
357.406
41.9743
-205.492
17.1543
-265.831
529.65
658.409
61.8523
12.2676
123.243
-98.716
-193.429
198.329
395.529
-508.447
-707.868
-64.1814
-202.281
-467.139
-476.082
-274.029
-360.587
624.864
-515.261
6.804
798.176
-804.98
317.833
49.8875
394.104
-59.8515
615.425
-52.114
-563.311
313.652
-14.7812
-569.106
-94.5407
663.647
-28.161
-237.901
-601.314
431.279
-162.713
-67.8009
230.514
227.084
611.249
66.222
-230.426
-99.7154
25.2353
206.049
-546.322
638.633
195.328
3.87801
-200.44
398.873
-198.433
295.555