/*--------------------------------*- C++ -*----------------------------------*\
  =========                 |
  \\      /  F ield         | OpenFOAM: The Open Source CFD Toolbox
   \\    /   O peration     | Website:  https://openfoam.org
    \\  /    A nd           | Version:  7
     \\/     M anipulation  |
\*---------------------------------------------------------------------------*/
FoamFile
{
    version     2.0;
    format      ascii;
    class       volScalarField;
    location    "11";
    object      p;
}
// * * * * * * * * * * * * * * * * * * * * * * * * * * * * * * * * * * * * * //

dimensions      [0 2 -2 0 0 0 0];

internalField   nonuniform List<scalar> 
7807
(
0.51829
0.0433618
0.694566
0.475216
-0.00285165
-0.000124642
0.69214
-0.0177951
-0.000392268
0.217216
-0.000117655
0.00794888
-0.0266491
0.114861
0.22474
-0.0333997
0.530577
-0.0350402
0.00440579
-0.142705
0.157809
0.00521695
0.0861566
0.383405
-0.0456116
0.529659
-0.0026241
0.139314
0.327939
0.00931209
-0.0472845
0.993881
0.0851894
-0.00161476
-0.000352034
0.181036
0.0104146
0.672852
-0.0146457
-0.00112517
-0.0132396
-0.0324192
-0.127154
0.0319073
-0.000674143
-0.000275609
0.00515504
-0.014866
-0.000228323
-0.137825
0.0118539
0.132437
-0.0577528
0.00106885
0.179967
-0.0158154
0.00480665
-0.0178735
-0.0733498
-0.00169212
0.000133651
0.0151687
0.115095
0.0087547
-0.00326924
-0.0460059
-0.000320146
1.45662e-05
0.265195
-0.0138302
-0.000253013
-0.119908
-0.0440125
-0.0757834
-0.0337678
-0.10544
0.685363
0.153973
0.171814
-0.138784
-0.0255479
0.624088
0.218163
-0.07851
-0.0047742
-0.00761645
-0.0190402
-0.0559445
-0.00217942
-0.0149232
0.335487
0.0413292
-0.000449386
0.00444842
-0.0118809
-0.0774082
-0.114232
0.00773618
-0.00527797
-0.00390875
-0.131742
0.185989
-0.0112899
-6.7256e-05
0.0609018
0.349148
0.869069
-0.016784
-2.25747e-06
0.0839105
0.453559
-0.0673062
-4.99696e-06
0.0891933
0.348235
0.00154477
-0.0578387
0.287673
-0.0839317
-0.0770734
-0.137138
0.599917
-0.116884
0.033997
-0.133715
-0.00322194
-0.0420532
0.00721808
-0.00344453
-0.0468645
-0.016197
0.168788
-0.0020201
-0.0025716
-0.0813745
0.440684
0.720841
-5.80364e-05
0.026229
-0.173141
-0.0717488
-0.0955451
-0.105809
-0.0724679
0.878624
-0.0274942
0.331352
-0.0700583
-0.100099
0.598057
0.172958
0.0474699
-0.00490648
0.237603
0.216655
0.633951
-0.119826
-0.0265517
0.830715
-0.000206636
0.00244737
0.395365
-6.33989e-05
-0.00670918
-0.0134089
0.477327
0.478683
0.856374
-0.00770236
-0.0103188
1.63531e-05
-0.142742
0.00152414
0.0555911
0.0284181
-0.0984989
0.0891779
0.34008
-0.000445319
-0.00166664
0.484578
-0.000205712
-0.000378902
0.696423
0.0361923
-0.0632116
-0.0785347
-0.0708499
-0.0354689
-0.169424
-6.93102e-05
-0.109891
0.352539
-0.0113884
0.000243774
0.40468
-0.00422994
-0.0439698
-0.0360157
1.90528e-05
0.00324024
0.448539
0.394571
0.634202
-0.0486372
-0.0560126
-0.102676
0.150827
0.440769
-0.000722186
0.000117798
0.831728
-0.0286432
-0.00211045
-0.104682
-0.0440338
0.587347
0.596414
-0.104
0.946667
-0.00391983
-0.0346591
-0.135257
0.183593
-0.156027
0.47276
0.831698
0.000212086
0.0355323
0.303396
-0.0138952
0.282966
-0.00184942
0.910138
0.621746
-0.0189626
0.0101103
-0.00104479
0.355261
-0.000322872
-0.0205103
-0.161134
-0.00025264
-0.00454517
-0.00146581
0.336948
-6.3708e-05
-0.0155128
-0.134269
0.991696
0.15391
0.884006
-0.000154204
-0.0422285
-0.0006464
0.657017
0.0146379
0.723594
0.00570372
0.00277381
0.0332294
0.156724
0.00207969
-0.000785906
0.00185259
-0.0146046
-0.0578737
-0.000144042
-0.115756
-0.0127624
-0.000491527
-0.00220073
0.694971
-0.0265413
-0.00267333
0.940492
-0.00502761
0.491402
-0.00072042
0.00650092
2.65433e-05
-0.0763543
0.176516
0.106334
-0.073579
-0.00142312
-0.127156
-0.0522604
-0.000625254
0.00179717
-0.00745852
-0.0255072
0.01062
-0.00422097
-0.0749938
-0.0466261
-0.0741506
0.0505343
-0.0939567
0.622729
0.64127
-0.005244
0.0741463
-2.56153e-05
-0.00798943
-0.0785633
0.37427
0.240758
0.000338259
-0.00731508
-0.0913461
0.343288
-0.00348058
0.0129756
0.00444229
0.189753
-0.0393303
0.606496
-0.0056256
0.0473613
-0.000399551
0.015093
-0.000183688
-0.0557746
-0.00120474
0.0203976
0.0451682
-0.0903578
0.0110546
0.031766
-0.00258346
0.0762295
-0.0226274
0.204534
0.339126
-0.12687
0.0157747
-0.0539648
0.0186288
-0.156436
0.874208
0.0194529
0.107339
0.928857
-0.00541868
-0.00613056
0.0289893
-0.00373554
-0.0208873
0.0228704
-0.00977492
-0.00727004
0.320088
-0.000236798
0.0019946
0.000273581
-0.011954
-0.0238295
-3.06442e-05
-0.00387727
-0.0702261
0.827809
0.0140583
-0.0281901
0.783315
0.536184
0.177177
0.0907201
-0.144874
0.0179174
0.463932
-0.0377346
0.541385
-0.0427046
-0.120955
0.395696
0.546292
-0.110015
0.228861
0.471999
0.507369
0.148495
-0.0107224
-0.0148061
-0.000311097
0.01946
-0.0385625
0.00366687
-0.000377601
-0.00564565
-0.129273
0.240331
-0.0565137
-0.00783523
-0.0133265
0.0395013
-0.0243662
0.0068538
0.432719
-0.00661165
-7.77118e-05
-0.000192017
0.000170098
-0.0682615
0.311672
-0.0140365
0.0974885
-0.161297
0.66118
0.012187
0.0241977
-0.0179468
0.675232
-0.00374173
0.602701
0.337395
-0.000412019
-0.0482697
-0.0115951
-0.0900757
0.00205147
0.189378
0.0141025
0.02252
-0.00301516
0.316608
0.346558
-0.0737466
-0.0697205
-0.00789345
-0.0423355
0.228005
0.978696
-0.0290453
0.0167673
-3.23023e-06
-0.044386
-0.00797478
0.0698478
-0.139406
0.0524231
0.699672
0.323844
-0.0821667
0.421295
0.662877
0.093547
0.00446816
0.486418
-0.00312531
-0.000647136
-0.0579378
0.000306321
-0.116361
0.0016119
-0.0699551
0.00696032
0.409325
-0.00626291
-8.49394e-05
-0.134377
0.00627693
0.138257
-0.126654
-0.168302
0.147417
0.305251
0.254828
0.260959
-0.000724854
0.229414
0.218488
-0.0018583
-0.0544434
0.00219392
0.0241107
-0.00197666
0.0170432
-0.00274017
0.341847
-6.93521e-05
0.000708261
0.00711125
-0.0704429
0.0730824
-0.0668326
-0.0834535
-0.0560302
-0.157028
0.0379106
0.474605
0.0651282
-0.0228838
0.920019
-0.110954
-0.0250704
-0.0823656
-0.0183164
-0.0664222
-0.0341536
0.099218
0.011574
-9.15239e-05
0.0869267
-0.000340788
0.621666
0.280173
-0.0167753
-0.0462076
-0.000665732
0.625749
0.579513
0.202528
0.372687
-0.116236
0.741294
-0.000221003
0.081301
-0.0590028
0.347514
0.859024
0.207654
0.309329
-0.00525658
-0.000722222
0.344462
0.00761912
0.650779
0.138499
0.421249
-0.0240501
0.671956
0.557125
-0.0304652
-0.0257952
0.307066
-0.172356
-0.000296555
-0.0425585
-0.164458
-0.113902
0.0390862
0.0326362
-0.000437213
0.584931
-0.00278601
-0.000364855
-0.0381473
-0.00172706
-0.000789871
0.013185
0.434147
-0.121931
0.809585
0.000219184
0.431974
-0.033128
-0.000264435
6.37695e-05
0.324401
0.417113
-0.01387
0.381293
9.04826e-05
0.399697
-0.126299
-0.0318348
0.690059
-0.100628
0.356498
-0.0789489
0.398454
0.415027
-0.0525026
-0.0664708
-0.0195328
-0.00970936
-0.000708244
-0.00333772
0.517748
-9.57303e-05
0.383642
-0.109258
0.576513
0.366865
-0.168584
0.790089
-0.00547604
0.0238476
-0.0410194
-0.0636014
-0.0217855
-0.0408728
0.114355
0.902909
0.00015057
-0.00646637
-0.069283
2.13863e-05
0.631504
0.00639155
2.0669e-05
0.000682196
0.00133546
-0.0536033
0.0675456
-0.00520946
-0.000303585
-0.023062
0.0101264
-0.158619
-0.15502
0.073638
-7.63532e-05
-0.152339
-0.0415493
0.312015
0.566042
0.00418099
0.313573
0.00053525
-0.0398787
0.198149
-0.0217882
0.463733
-0.0407422
0.0900612
0.205212
0.321132
0.0171417
-0.0326304
0.381028
-0.134692
0.668109
-0.0293057
0.511228
-0.0292237
-0.0039071
0.295739
0.0119461
0.201017
0.00662502
1.81139e-05
-0.167472
0.422853
0.00507268
0.300768
-0.038648
-0.161073
0.0395703
-0.069232
-0.00560678
-0.0277217
-0.127048
-0.084901
-0.0307685
-0.000506779
0.698232
0.301464
0.0974618
-0.00067519
0.552199
1.43544e-05
-0.000620027
0.312771
0.0097934
0.384103
0.13776
0.0582969
0.000472037
-0.13845
0.13836
0.00452436
-0.12317
-6.41937e-05
0.0135815
0.448496
-0.0499919
-0.00934526
-0.0115148
-0.00656368
-0.00137394
0.923132
-0.0309842
-0.00186642
-1.99478e-05
0.277555
-0.0867067
-0.00110439
-0.00923079
0.318307
0.212893
-0.109128
5.04003e-06
0.343841
-0.0484934
0.391816
0.054233
0.0662016
-0.0895535
-0.000323342
0.200441
0.200216
0.179803
-0.0949323
0.514833
0.0205659
0.376357
-0.00719668
-0.0392767
-0.0013281
-0.00209777
-0.000360189
0.32919
0.487521
-0.00495307
0.0649107
-0.0531486
-0.069017
-0.0841299
-0.00623336
0.0752787
0.89433
0.14877
-0.000182954
0.207873
-0.0119182
0.777423
-0.038452
-0.032265
0.00410535
-0.0373228
-0.0187884
-0.0245502
-0.00991391
0.00546336
0.102226
0.000360828
-0.0842824
0.0912031
0.612866
-0.104711
0.390611
0.00698156
-0.02791
-0.0290101
0.394631
-0.023119
0.000362576
-0.0471387
-0.0168791
0.079536
-0.0808086
-0.0692066
0.059211
-0.0452458
-0.00538465
-0.119156
1.88546e-05
0.130723
-0.104945
0.351819
-0.0157808
0.199106
-0.108664
0.572366
0.0361171
-0.0925131
-0.0258588
0.816575
-0.0722097
-0.0402694
-0.146935
-0.0455971
-0.121999
-0.0590263
0.364717
-0.0092831
0.453193
0.029242
-0.00130979
-0.0039859
0.185187
0.997956
0.0039808
-0.0315955
0.332214
7.63827e-05
-0.0635039
0.0892322
0.0536574
0.029631
-0.00535964
-0.0760425
-0.0095112
9.89082e-05
-0.0954186
0.47543
0.0185834
-0.0511726
0.00640875
0.332589
-0.00127373
-0.00417123
-0.00121457
-0.00257148
0.199253
0.0239488
0.0128398
-0.0548468
0.000153212
-0.116989
0.0309623
-0.134151
-0.03908
0.0492996
-0.000717523
-0.0388102
-0.131282
0.167924
0.579445
-0.00414895
-0.147498
-0.0157711
0.0404057
0.333544
0.0014785
-0.000528627
0.322382
0.139142
0.0516973
-0.00993367
-0.00699134
-0.119182
-0.000597153
0.00963652
-0.0413255
0.508471
0.477877
-0.0193749
-0.0991778
0.0243191
0.019851
0.11226
-0.112563
-0.0164168
-1.64943e-06
0.093678
-0.0752077
-0.124486
0.0233587
-0.118699
-0.00135134
-0.0100082
0.368765
-0.0857683
-1.40192e-05
-0.0094508
-0.0506901
-0.000562478
-0.0217521
-0.000168983
0.0149516
-0.153354
-0.0247115
-7.26163e-05
0.000103344
0.244581
-0.0751511
0.629272
0.494277
0.0779397
-0.00193622
-0.0216459
0.000735173
-0.0343511
-0.105609
0.116833
-0.0496604
0.488275
0.0316592
0.000915271
0.0238291
-0.109704
0.00660266
-0.0274303
-0.126681
0.0123264
0.0540214
0.147904
0.0321673
-0.0673542
-0.044968
0.344591
-0.0332522
-1.10006e-06
-0.117337
-0.142533
-0.0392995
0.0161538
0.00254265
0.0325353
-0.144186
0.0794487
-0.0816929
0.29998
-0.0447074
0.0216112
0.0479309
0.0515364
-0.083026
-0.0539547
-0.000348414
0.274766
0.373068
0.0192647
0.428372
-0.0976281
0.106693
-0.0734808
0.361039
0.203861
0.888032
1.43337e-05
0.2197
0.33302
0.0357398
-0.00381836
-0.0430813
0.0742094
0.000143326
-0.0427964
-0.0876866
-0.0472145
-0.0518029
0.000431787
-0.00959781
-0.000961272
-0.00228268
0.41687
0.017784
0.242652
0.0514348
0.367328
0.031335
-0.00102094
-0.0738269
0.0219412
0.602822
0.00327348
-0.0939336
-0.000576903
-0.00141975
0.0211581
-0.0502211
-8.19703e-05
-0.0256605
0.0724584
-0.00499698
0.00010284
-0.000121162
0.281382
0.0160334
0.0176112
-0.00285645
0.0222993
0.0377841
0.0224704
-0.000750799
0.597562
-0.052541
0.389686
0.531937
-0.000546026
0.225426
0.240427
-0.00197719
-0.000688402
-0.00109914
0.0655676
0.0488007
-0.0154158
-0.035838
-0.124554
0.315593
-0.098724
3.26567e-05
-0.0452863
-0.0412778
-0.0834688
-0.0107686
0.0154011
0.00318306
0.0668333
-0.00131998
-0.00059694
-0.0401482
-0.0107076
-0.0580126
-4.03355e-05
-0.0346685
0.0804308
0.0258557
-0.00297637
-0.0204546
-0.0275935
-0.021582
-0.0129054
0.0324354
-0.0223017
-0.00026905
-0.00101892
0.0578756
-0.028712
-0.0122476
0.0213725
0.00941439
-0.173987
-0.0260242
0.287817
-0.0295561
-0.115837
-0.0528124
-0.0527539
-0.0364463
-0.009316
0.0056829
-0.00873472
-0.032588
-0.0377055
0.362112
0.298907
0.127058
0.563775
-0.000184889
-0.007816
-0.0384612
-0.019151
0.230858
-0.0472615
0.130523
-0.0101466
0.394876
-0.00478253
-0.00400162
0.0554054
-0.0292955
-0.000557214
-0.0434077
-0.0145415
-0.0487222
-5.09797e-05
-0.0163328
0.00498933
-0.0407978
0.0925357
0.0802107
0.0445334
-0.0327479
-0.0730662
0.222925
-0.00314019
-0.00486899
-0.00523586
0.777077
-0.000224833
0.169025
-0.0496696
-0.0476173
-0.0617965
-0.0868388
-0.0669486
-0.0794134
-0.042193
-0.0113523
-0.000246994
-0.0105379
-0.0505727
0.199038
0.00422007
0.338844
-0.0763357
-0.0309232
-0.00229383
-0.0669393
-0.000260359
0.275154
-0.0700342
-0.0608089
-0.0553543
-0.00915817
-0.0739631
-0.00420177
-0.0943124
0.200965
-0.0600995
-0.129937
-0.00362605
-0.0628699
-0.0429483
0.0362554
-0.00797549
0.26473
-0.00595006
-0.0446624
-0.00166682
0.293135
-0.0903975
-0.0616347
-0.00801302
-0.0229864
-0.00678215
0.369777
0.0670787
0.414243
-0.0115065
-0.00202286
-0.00312386
-0.00571612
0.375674
-0.137681
-0.0167116
0.000841184
-0.0148845
-0.00948418
-0.0022105
-0.0233772
-0.0365827
0.122244
-0.0122171
0.014754
0.762446
-0.141835
-0.0673965
-0.132212
8.76526e-05
0.156149
-0.00874395
-0.0627402
-0.0137809
-0.0828304
0.0113267
-0.00131825
-0.00715554
0.00800388
0.354531
-0.0143923
-0.00440438
-0.0114451
-0.115697
-0.0203825
-0.0519797
0.0109967
-0.0213491
-0.021948
-0.00808166
0.363873
-0.106804
0.00793375
-0.0103923
-0.0644093
-0.0338247
-0.114852
-0.00344872
0.186232
0.0547967
-0.0192209
-0.00424877
-0.0326609
0.798502
0.356831
-0.0274036
-0.00143239
-0.00587325
0.0220552
-0.00979246
0.0496812
-0.00102312
-0.0297753
-0.00488309
-0.0407095
0.0242515
-0.00260519
-0.0239602
-0.00335117
0.532666
-0.0157107
-0.028371
0.0412971
-0.00476448
-0.0700292
0.221709
0.715189
-0.0260566
-0.0275497
-0.00522155
-0.00114361
4.50968e-06
-9.93772e-06
-0.0245867
-0.00163356
0.263919
-0.00165582
-0.00448034
0.0202984
-0.000637685
-0.102686
-0.103191
0.040442
0.0877299
0.0601349
0.192475
-0.0516385
0.183005
0.144021
0.190226
0.233753
-0.0313471
-0.00214398
-0.0136992
-0.115547
-0.00865388
-0.036132
0.16224
0.568573
-0.0904316
-0.00119598
-7.32328e-05
-0.00362082
-5.10599e-07
0.0244433
-0.00136663
-0.0108321
-0.110503
0.00134411
0.00657207
-0.000538118
0.161953
-0.0371539
-0.0187845
-0.00295583
0.538375
0.508684
-0.0243524
-0.0940647
-0.0652798
-0.0571871
-0.0346033
-0.00460298
-0.13103
-0.0538446
-0.0949241
0.0159334
-0.00012336
0.359898
-0.0143192
-0.0234839
-0.047615
0.0446547
-0.00131144
-0.0203436
-0.00336634
0.0351516
-0.00367942
0.340955
0.00086789
0.024111
-0.00102191
-0.0377874
0.021483
-0.0018495
0.0429028
0.0010156
0.136549
0.245516
0.00607285
-0.00355866
-0.000310094
-0.00141195
-0.0012486
-0.139928
0.237819
0.114817
-0.000663004
0.0244655
-0.00112837
0.397038
-0.136754
0.453891
-0.0991083
-0.00111455
-0.000707216
-0.0177801
-0.0137916
-0.00155253
-4.55195e-05
0.0596809
0.067295
-0.00058233
-0.000818937
-0.0467941
-5.49692e-05
0.306711
-0.00231217
-0.120621
-0.0450999
-0.0155402
-0.1264
-0.137717
0.279855
-0.0197661
-0.0480171
-0.000783721
-0.129492
-0.0489175
0.0969627
0.264643
0.584018
-0.00289058
-0.135572
0.0360007
0.531348
0.0891871
-0.000295459
-0.0147007
-0.0099575
-0.0121003
-0.11016
0.197259
0.000442678
0.0555606
0.00762942
0.183439
-0.00128815
-0.000301459
-0.0406845
0.493623
-0.124724
0.300045
-0.00301842
-0.000496244
-6.08649e-06
-0.105274
-0.0960976
-0.000840556
0.234467
0.0266926
-0.013023
0.661602
-0.000965836
-0.00899466
-0.132914
-0.0251261
-0.00558786
0.253989
-0.0843976
-0.000410027
0.0365945
-0.000432347
-0.000248914
0.277437
0.016139
-0.00111597
-0.118311
-0.0576262
-0.00854149
-0.0303023
0.00586573
-0.0536026
0.00413003
-0.00853503
-0.14654
-0.087216
0.0592473
-0.00222332
0.299668
0.367677
-0.0951152
0.0246823
0.0450903
-0.0104585
0.303787
0.232396
-0.065559
-0.000399126
0.024764
-0.126645
0.0371477
-0.06362
-0.00512721
0.114803
-0.0640191
-0.000339
-0.000181173
-0.0356743
-0.054936
-0.0607433
0.0239689
0.0825552
-0.100344
-0.000376948
-0.00337686
-0.000514647
-0.0705618
-5.81522e-05
-0.00472719
-0.0689443
-0.134667
0.27698
-0.00726434
0.0101596
-0.0493065
-0.0594206
-0.000317069
-0.106331
0.277146
0.289677
5.79606e-05
-0.000275642
0.294415
-0.00611955
-0.133924
-0.0928822
0.00820433
0.00118467
-0.1578
0.00560273
0.300764
-0.129689
-0.00360892
-0.0185064
-0.114217
-0.00141052
-0.000592679
-0.00223257
0.0394064
-0.117033
0.309432
-0.000516936
0.792535
0.0712904
0.000283427
-0.00234822
0.000611559
0.000701158
-3.48877e-05
0.000333956
-0.121292
-0.0017639
0.00105431
-0.000487505
0.263478
-0.0138957
-0.000474761
-0.000109545
0.606744
-0.0501367
0.00961825
0.00283239
-0.00175049
0.141413
-0.000241414
-0.0265849
-0.0799822
0.00533124
-0.0149261
-0.000238146
-0.000502066
-0.0702318
-0.0963511
0.0174231
-0.0884628
-0.0530642
-6.87757e-05
0.0493039
0.0732698
0.212142
-0.00420699
-0.000384827
-0.12736
-0.014793
-0.00121935
-0.112666
-0.000338001
0.102982
-0.000219631
-0.00311782
0.119267
-0.0049888
-0.133414
0.734692
-0.00395812
0.000670543
-0.117835
-0.102144
0.022582
0.0113949
-0.000371897
-0.0723358
-0.000207447
0.350538
0.945819
0.208236
0.007396
0.00878894
-4.54375e-05
-0.0637988
-0.000141243
-0.0145229
-0.00413142
0.00090079
-0.00816755
-0.0218877
-0.000302746
0.00212581
-0.0175072
-0.000767363
-0.0226739
-0.0385213
0.000541063
-0.00272538
0.853848
-0.00167535
0.00595719
0.00059119
0.0327554
-0.113892
0.0232082
-0.000432201
-0.00024586
0.00654188
-0.000269218
-7.13257e-05
-0.0263253
0.00169254
-5.90648e-05
-0.116095
-0.00529043
-0.129313
-0.00399574
-0.000167245
-0.00758894
-0.00721717
-0.0345613
-0.0456086
0.00563674
0.00126655
-0.00113487
-0.00480605
-0.000194267
0.478524
0.00379981
-4.80954e-05
0.0014335
-0.00488803
-0.0008667
-0.145831
-0.125115
-0.000319652
-0.0168534
3.29016e-05
-0.00607857
-0.000180311
0.0792687
-0.000343066
-0.0004582
-0.00817142
-5.7042e-05
0.0320236
-0.000547523
-0.00307621
0.0439112
2.97806e-05
0.621723
-0.121671
-0.0951546
-6.13809e-05
-5.12764e-05
0.00470424
-0.00288496
-0.11237
-4.11395e-05
-5.3664e-06
0.00181571
-7.42256e-06
0.000919363
0.00108986
-0.00111561
0.00191324
-0.120408
0.756979
-0.0685265
0.571922
0.0216637
-0.0376017
-4.4959e-05
-0.00213378
-0.0289838
0.000347287
0.000688944
0.000412098
0.179874
-0.00318538
-0.000530365
0.770248
-0.00130491
0.00143049
0.0012222
-1.15151e-05
0.18774
-0.00521562
0.00276045
0.0003006
-0.00125949
-0.000167359
-0.00217773
-0.0999348
-0.00101261
-0.00370555
-3.94607e-06
0.000273089
-0.000625131
0.344172
-0.00107264
-0.000659101
-0.159455
0.00909838
-0.000206317
-0.00323777
-0.00014942
0.318326
-0.166045
-0.00071206
-0.000940147
-0.00432284
-0.000378737
0.130003
0.239265
0.121036
0.00123995
-1.65608e-05
-2.54131e-06
0.142186
0.000615345
-0.139984
-0.0442087
-0.0368309
0.110534
0.854046
0.00477758
0.377113
-0.0340316
-0.0671612
0.323117
-0.000863674
-0.149877
-3.0527e-05
-0.0213815
-0.113663
0.000133392
-0.101381
-0.00229595
0.00289961
-0.0123609
-0.099171
-0.0975655
-0.00708704
-0.134938
-0.102349
-0.000453439
-0.0288355
-0.000124362
-0.0868044
-6.76847e-05
-0.000450681
0.0623164
0.308242
-1.39318e-07
-0.103924
0.00866034
0.000184761
-0.0471074
1.42494e-05
-0.0325651
-0.000628747
-0.0893304
0.000304626
-0.000211265
-0.00481317
-0.000116018
0.3017
-0.0703724
0.201112
-7.28277e-05
0.0015235
-0.0755971
1.89904e-06
-0.13063
-0.15239
-0.128429
0.799945
-0.0154233
-4.23773e-05
0.0610178
-0.0963143
-0.00585222
-5.88757e-05
-0.000207336
-0.109176
0.000307131
0.0021264
-1.27249e-06
0.000385269
-0.0654075
0.299032
-0.0777574
0.214266
-0.012724
-3.17778e-06
0.0163637
-0.104915
-5.0488e-05
-3.30117e-05
0.000778501
0.000155926
0.000982238
0.455133
0.0815608
0.000136691
2.65756e-05
-0.153205
0.369143
0.336476
-0.000107098
-0.0835692
-0.0430976
-0.0232662
-0.110919
-0.0191023
-0.00692753
0.271725
-9.96672e-05
-0.061106
0.318406
-0.112177
-4.15871e-05
-0.142334
-0.000419908
0.530922
0.0687648
-3.36136e-05
-6.61728e-05
0.353216
8.77661e-06
-0.000429507
-0.0278007
3.11288e-05
0.456281
0.00852576
-0.0174014
-0.150594
-0.00893801
-0.143151
0.342576
-0.0162476
0.00900562
0.0023956
-4.66339e-05
-0.0024225
-1.89771e-05
-3.82289e-05
0.0715164
0.336591
0.286433
-0.00104973
0.435383
-0.0228933
1.85087e-05
-0.106016
-4.28314e-05
-0.06421
0.070782
-0.0323598
0.010704
0.00449335
-0.022025
0.000598217
-0.00395767
0.0492127
-0.00685018
-0.000114725
7.15365e-05
-0.00014809
0.0717128
0.000133917
-0.0479369
0.457616
-0.0141442
0.000123058
-0.00820152
-2.39359e-05
0.226525
-0.000846772
-0.00015757
-0.000203207
-3.10395e-05
0.383503
-0.000359108
0.439544
-0.138735
0.000268116
-0.114755
-0.00114216
0.297498
0.78757
-0.00333502
5.85064e-06
3.883e-05
-5.02685e-05
0.291533
1.68719e-06
0.00252917
-0.056548
0.417886
1.6069e-05
3.66387e-05
7.07597e-06
6.00252e-05
-0.0477196
4.33626e-06
0.503379
-0.0358882
-0.00029646
7.15787e-05
-0.00487974
-0.0674943
3.48529e-06
-0.000135452
0.312383
8.10981e-05
-0.0735454
-0.0743903
0.000318841
2.10948e-06
-0.137768
3.08539e-06
0.319562
3.57155e-05
-0.00105788
2.79656e-05
-0.000416712
0.190034
7.60935e-06
-0.00386051
1.97525e-05
0.034234
-0.00797866
-0.015092
0.00261857
0.292707
-0.000633958
-0.000192134
-0.0208659
-0.020159
-0.000580505
-0.000124357
-0.00211849
9.7306e-05
0.373505
-0.0233173
0.782937
-1.44121e-06
-0.0179763
-0.000372211
0.276347
0.000137856
-0.0598736
5.66863e-05
-0.00373222
-0.0768469
-0.00054657
-0.0365406
-0.113167
0.0122873
-2.14269e-05
-0.114469
-0.000785055
-0.000694809
-0.0130415
-0.0236047
0.00312569
-0.00011846
-0.00103285
-0.00207341
-0.00302358
3.15473e-05
-0.00285923
0.765213
0.000234228
-0.00767314
-0.0802759
-0.169602
-0.145175
-0.110358
-0.0501096
-0.00121657
-0.029136
0.000185867
-0.000194373
0.767582
-0.000224198
0.356791
-0.00106065
0.000954975
-0.00267965
-0.0764541
-0.000990442
0.00190599
-3.60714e-05
-0.000930784
-3.69462e-05
-0.000189741
-0.0349675
-0.000259493
-6.36419e-05
-0.000198059
0.000346584
-2.41256e-05
-0.0965249
0.460479
-2.32867e-05
-0.00141148
7.06333e-05
7.42552e-05
-0.00196737
2.20334e-05
-0.00213112
0.000677628
-0.000866766
-0.147822
-0.00162303
-0.00426861
1.17019e-05
-0.00353285
0.000803118
-3.59639e-05
-2.29303e-05
3.23633e-05
-0.00187232
0.00128971
-0.100757
-0.0598847
-0.149726
0.00156225
-0.00414944
0.0328527
-0.151035
-0.000224038
0.0388371
0.016414
-0.00244437
-0.0274057
-0.129776
0.710154
-0.000994859
-3.53839e-05
0.00214838
0.000118834
4.25405e-05
0.154888
0.00886905
0.177656
-0.0743602
0.689173
-0.00122422
5.17831e-06
0.000359623
-4.29189e-05
-0.00319112
0.307903
0.396031
-1.24707e-05
-0.00039941
-4.10004e-05
0.378906
0.052635
-0.0106813
2.83281e-05
4.64945e-05
0.0171596
-0.00163286
-0.161337
-0.0383655
5.80949e-05
0.00830657
-0.0686086
-0.000143204
0.00437354
-0.000159165
-0.105058
-0.00413103
0.291301
4.00777e-05
0.00400058
0.000225005
3.58912e-05
0.000410013
-0.0526386
3.5359e-05
-0.00214245
5.43532e-05
-0.0451908
-0.104789
-0.00672082
-0.0141755
-0.0199717
0.0214647
-0.020154
-0.0058071
0.000162315
0.000249521
4.92193e-05
4.29194e-05
-0.000133862
0.021371
-0.124226
0.00117341
-0.0827636
-0.00721162
-0.10165
0.000209723
-5.96106e-06
0.00312611
0.00238121
4.36339e-05
-0.0847588
-0.0330326
0.152214
-0.0798876
6.38802e-05
-0.00801494
0.00046173
-0.0806097
0.257248
2.74864e-05
-0.13335
-0.0491917
-0.0098621
9.14607e-05
-2.00386e-05
0.0746317
-0.0382626
5.76793e-05
-0.0157041
-1.06243e-05
0.000512951
0.244989
-1.96283e-05
7.58105e-06
-0.000199963
8.31557e-05
0.00215366
0.000210318
-0.0120945
0.000555846
-0.0287487
0.00264395
-0.000489873
-0.0673458
-0.0965002
-0.0144905
-3.59441e-05
5.16414e-05
-0.117681
0.0135858
-0.107852
6.93023e-05
-0.0119412
-8.57488e-05
5.88152e-05
0.167306
-0.0161648
-0.0064799
-2.69598e-06
-0.0398489
0.000119475
-0.151603
6.47538e-05
-0.171529
4.52975e-05
-1.40148e-05
0.000203917
0.00243672
-0.0688635
-0.0415203
-0.15441
3.85149e-05
0.000223121
-0.175933
-0.0469908
-0.0194428
-1.10144e-05
-0.0165551
-0.109044
-0.178258
8.48556e-06
-1.77913e-05
1.09418e-05
-0.086162
-0.147684
0.00172793
-0.0253476
-0.000132787
0.444386
0.000224142
3.4783e-05
0.000357013
-2.02494e-05
-1.95433e-05
-0.00836025
0.000269505
-0.0058797
-0.140641
-0.029975
-0.134115
9.52909e-05
-0.000121255
0.127154
-0.0752792
-0.0109166
0.224303
1.15744e-05
-3.11565e-05
-2.84201e-05
0.275261
0.000411905
-5.02306e-06
-1.06008e-05
-0.12214
-0.0353962
1.40735e-05
0.000185797
-0.021093
-0.0147228
0.00101706
0.401522
-0.125493
0.000562068
0.953282
-4.282e-05
-0.00159276
-0.0182954
-0.180667
1.54928e-05
-5.42556e-06
5.15795e-05
0.0113341
-0.0662259
-0.000789684
-0.110204
-0.0177683
6.52044e-05
-1.08116e-05
-0.0232491
0.00681643
0.0323507
-0.0388709
-0.103698
-0.0878892
0.070877
-0.0594156
-0.000149235
0.00083817
0.045136
0.00127719
-0.000183304
0.00182392
7.40019e-05
-0.000215923
-0.0276424
-2.80594e-05
-6.69256e-05
0.0949653
0.00493081
-0.00037328
-9.64918e-05
-1.26125e-05
0.432113
-0.0151134
0.00188061
-0.0621447
0.000542971
0.000471516
0.000404624
-0.000114824
0.00114328
-0.0844016
0.0445725
-2.14007e-05
-0.000378441
-0.091019
-0.0669534
0.103792
-0.00113814
0.00436634
0.0408845
4.59162e-06
0.000142547
-0.0949927
5.30497e-05
0.304018
2.10551e-05
0.00983671
0.00039402
0.000530428
-0.161472
-0.0167189
-0.040402
-0.00556561
6.3355e-05
0.0164617
0.12879
-0.0277973
-0.000313105
0.1904
0.299131
8.45208e-06
-0.117756
-0.000157076
-2.35335e-05
-0.000105076
-0.0013105
0.0449313
-1.22866e-05
0.000586227
-0.05582
-0.0582312
-0.050257
0.525234
4.27003e-05
-0.000163102
0.311737
-0.00154567
-0.00869443
-0.00151239
0.308148
0.000105788
-0.000713957
0.00010881
6.45158e-05
7.54571e-05
8.63156e-05
0.000174639
-0.0406601
1.99296e-05
-0.00756866
-0.10163
0.437268
-0.000319415
-0.00011699
0.0110269
0.172836
-0.0914512
-0.00174574
-0.161306
0.524036
0.000102919
0.657334
-1.0156e-05
0.00785582
0.0552697
0.00102822
0.699668
-3.3524e-05
-1.39447e-05
0.00277602
7.40541e-05
-0.00200439
0.000619799
2.69924e-05
-0.00454192
2.51898e-05
-0.000336943
-0.00761786
0.425221
0.118543
0.0499737
-0.100395
-1.18318e-05
-4.2195e-05
0.00801656
-0.111843
-2.24412e-05
-0.106811
-0.000126437
0.206923
0.130119
-0.0729248
-0.00312665
-0.0259667
-0.00228107
-0.033914
0.011007
-0.0162352
0.138127
5.13827e-06
0.470359
0.122964
-0.00130824
0.386395
-0.0303992
-2.90825e-05
5.5763e-05
0.000159337
-0.000493532
-0.000278773
0.426913
-0.00227769
0.438733
-0.00237537
0.304797
0.405399
0.273891
-0.0160804
-1.17137e-05
0.000148077
-0.0243043
-0.152309
-0.107381
0.00353416
4.79545e-05
-0.0875622
-0.000692172
1.37056e-05
0.00239695
-0.00248649
-0.00140151
0.0742711
0.000179215
-0.111886
0.129481
0.000138278
0.000635288
-0.0310122
-0.123532
-0.00169923
-0.0012058
3.07145e-05
0.000589823
0.239478
-0.0378433
-0.105635
0.0030995
0.241713
-0.0877683
8.41751e-05
5.42998e-05
0.0847219
-0.000210433
0.213189
0.00729313
-0.0311848
-0.000891985
0.00389196
-0.0803211
-8.35207e-05
0.0011618
0.0185131
-0.170894
0.318178
-0.144622
-0.0610239
-0.000380486
-0.000107531
0.0155559
0.000110979
-0.173868
-0.148484
0.00133017
0.00806684
0.00885048
-0.147065
0.0015062
0.000451111
9.06429e-05
-0.092837
6.86469e-05
0.00131956
0.237584
0.329662
-0.152702
0.105434
0.106239
0.0771424
-0.000363901
0.0304405
0.000290674
2.1073e-05
-0.000166149
-1.35756e-06
6.61207e-05
-0.000834365
-0.0175298
-0.0667085
-0.0223685
-0.0623309
0.116516
0.0969248
0.0095474
-0.142129
0.000380129
0.0110677
0.026355
-0.000907421
0.164973
-0.0026993
-0.0247362
0.0290793
0.01278
0.00260503
-0.00929007
0.101028
0.00196112
-0.0451191
-0.0374197
0.80992
-0.0554368
0.174585
0.0950871
-0.0795003
0.00522347
0.000240494
-0.00600796
0.000133775
-0.00612172
-0.0572425
-0.000163781
-0.000101005
0.502102
-0.00762076
-0.0960491
-0.0434459
0.000484292
-0.00305862
-5.38099e-05
1.8943e-05
0.092287
9.62653e-05
-0.00682727
0.168234
0.0147901
0.0026429
0.0433611
-0.0132759
0.00984845
-0.128547
0.0020648
-0.0102521
-0.128336
-0.00197682
-0.0186286
0.00182554
0.00347951
0.00234573
0.0909897
-0.000714243
0.0132426
-0.126156
-0.0470335
0.000752773
-0.125938
-0.0343567
-0.0398492
0.00025437
0.0154654
-0.141689
-0.00195153
-0.0111056
-0.117178
0.00171426
-0.0027361
0.404383
-0.0448887
-9.62912e-05
0.0192204
-0.110305
-0.00244964
0.354139
-0.00474879
0.00240948
0.125004
-0.00332559
0.0194188
0.246115
0.000172108
0.00276891
0.000419773
8.46654e-05
-0.0103651
-0.0156081
-0.000289196
-0.0554841
0.206925
-0.0869025
-0.14669
0.0027522
-0.00755827
-0.00134358
-0.0608347
6.23888e-05
0.0434629
0.000103978
-0.0367697
-0.00454262
-0.0114737
0.0956945
0.247489
-0.155232
-0.000124636
0.379698
-0.0043841
-0.00529743
-0.138488
-0.159754
-0.0355415
-7.00097e-05
-0.00247232
0.0169246
-0.00714474
-0.0109338
0.00105508
0.182389
-0.092192
-0.0255781
-0.0154383
0.066639
-0.00364675
-0.000737539
0.00401991
9.76049e-06
-0.00716264
0.240782
0.0018954
-0.142753
-0.000128591
-0.0169907
-0.00758771
-0.168199
-0.0262951
-0.182919
-0.000150896
-0.000146085
-0.00673316
0.0246292
0.0044022
-0.192438
0.193385
-0.109866
0.000441958
-0.200322
3.63431e-05
-0.199956
-0.0582706
-0.178857
-0.163592
-0.138452
-0.0656439
0.0641876
0.112729
0.156952
0.201597
0.245263
0.367667
0.40651
0.443194
0.505707
-0.0186107
-0.016746
0.156026
-0.0339031
0.00214267
0.0468015
-0.0924702
0.00133874
-0.00142953
-6.65849e-06
-0.032221
0.0408436
0.000106406
-0.000671986
-0.0242694
-0.00376525
-0.194849
-0.0240181
-0.128368
-8.03801e-06
0.00137501
-0.00012018
-0.0960469
-0.0198773
-0.0820436
-0.0189857
0.00410445
0.000553593
0.0110162
-7.66607e-05
-0.00435359
-3.64727e-05
0.000872844
-0.0104034
-0.0265177
-0.000482077
0.000765983
0.104218
-0.0234496
0.153166
-0.19893
-0.0143653
0.328467
-0.0429163
0.00868556
-0.0490436
-0.00745736
-0.028821
-0.0275606
0.568483
-0.00283113
0.000163307
-0.0132689
-0.0200603
7.56521e-06
0.166777
-0.00906235
0.537643
0.0142235
-0.104445
-0.0611209
0.115513
-0.0103637
-0.000115414
-1.78793e-05
-0.00959631
-0.11688
0.000134043
0.591864
-0.00630551
-0.0111968
-0.000154533
-0.000882603
-0.013534
0.287145
-0.0144869
0.237837
0.00149621
-0.032526
-1.46237e-05
0.0610675
-0.0170608
0.0440563
-0.0133874
-0.0124694
-0.00162433
0.00315119
0.0273038
-2.84698e-05
-0.0210353
0.00140418
-0.00091105
0.00109538
-0.0217071
0.000601736
0.277752
-0.0241376
0.00888701
-0.0755594
0.115162
-0.0883969
-0.0254286
0.101704
-0.0418482
0.327209
0.0220148
-0.00779617
-0.114666
-0.00155479
-0.000112091
0.00102472
0.000210377
-0.0049408
0.0102275
0.000200161
-0.0301427
0.0494915
-0.00705633
0.000101911
-0.0075552
-0.0966007
0.284432
-0.0746678
-0.10699
0.0188487
0.178323
-0.00284336
0.154982
-0.0267149
0.012247
0.0812795
-0.133051
0.218263
-0.0001236
-0.0663765
0.00269411
-0.00341512
-1.87402e-05