/*--------------------------------*- C++ -*----------------------------------*\
  =========                 |
  \\      /  F ield         | OpenFOAM: The Open Source CFD Toolbox
   \\    /   O peration     | Website:  https://openfoam.org
    \\  /    A nd           | Version:  7
     \\/     M anipulation  |
\*---------------------------------------------------------------------------*/
FoamFile
{
    version     2.0;
    format      ascii;
    class       volScalarField;
    location    "37.5";
    object      p;
}
// * * * * * * * * * * * * * * * * * * * * * * * * * * * * * * * * * * * * * //

dimensions      [0 2 -2 0 0 0 0];

internalField   nonuniform List<scalar> 
7724
(
0.0925374
-0.0154664
0.457588
0.26052
-0.00124085
-5.31315e-05
0.493361
-0.00725696
-0.000174862
0.111249
-4.96153e-05
0.00333914
-0.0108476
0.0531395
0.116464
-0.0149821
0.0957513
-0.0139466
0.0010881
-0.0754847
0.0683758
0.00219723
0.0386538
0.230638
-0.0180953
0.11869
-0.00115558
0.0664134
0.190141
0.00290021
-0.0193993
0.888374
0.0378163
-0.000685362
-0.000149562
0.0900192
0.0034466
0.471361
-0.00628994
-0.000481601
-0.00580917
-0.0141914
-0.0845758
-0.100169
-0.000287343
-0.000116433
0.00213354
-0.00664687
-9.60661e-05
-0.0750082
0.00503769
0.0628771
-0.0226385
-0.00777352
0.088844
-0.00652228
0.00111252
-0.00718847
-0.0296925
-0.00070801
5.65927e-05
0.00647637
0.0536449
0.00369004
-0.00135987
-0.0191783
-0.000137423
5.30344e-06
-0.03945
-0.00631162
-0.000106665
-0.0567819
-0.0175775
-0.028632
-0.0136014
-0.0415187
0.444758
0.067429
0.0277577
-0.0581367
-0.0104291
0.451902
0.0990298
-0.0305312
-0.00202418
-0.00321798
-0.00777233
-0.0220293
-0.000935207
-0.00618368
0.194284
-0.125954
-0.000188713
0.00141939
-0.00491541
-0.0302248
-0.0533777
-0.00475412
-0.00222645
-0.00161756
-0.0486497
0.0345401
-0.00465714
-2.84692e-05
-0.123312
0.190462
0.761031
-0.00694564
-5.66495e-07
0.0326268
0.242431
-0.0591112
-2.17776e-06
0.0345444
0.193005
0.000634579
-0.0855309
0.150591
-0.0406776
-0.0297629
-0.0504363
0.429243
-0.0802846
0.0138211
-0.0490619
-0.00136896
-0.0179074
0.00242062
-0.00144398
-0.0200426
-0.177754
0.0321782
-0.000858255
-0.00109834
-0.0315462
0.236547
0.572801
-2.4409e-05
0.0114034
-0.0627208
-0.0271525
-0.051413
-0.0423082
-0.0277662
0.769299
-0.025451
0.19033
-0.0297901
-0.0372455
0.427771
0.0858211
-0.109727
-0.00217678
-0.0525248
0.0991177
0.414976
-0.0483602
-0.0107777
0.684549
-8.72682e-05
0.000511557
0.239114
-2.6567e-05
-0.00299768
-0.00551638
0.311547
0.312617
0.718366
-0.00334142
-0.00434992
6.29899e-06
-0.0517405
0.00062459
-0.00833376
0.0124077
-0.0369698
-0.103048
0.0539508
-0.000188248
-0.000727843
0.260062
-8.70832e-05
-0.00016054
0.486584
-0.0218417
-0.0466712
-0.038551
-0.0277265
-0.0284322
-0.0610991
-2.90179e-05
-0.0516599
0.0520996
-0.00471578
0.000104484
0.130967
-0.00175813
-0.0189257
-0.026238
7.76717e-06
0.00126996
0.249181
0.0780704
0.431974
-0.0791513
-0.0550014
-0.142553
0.0725364
0.252364
-0.000307625
5.04478e-05
0.708749
-0.0126331
-0.000888268
-0.0495258
-0.0187285
0.362266
0.380966
-0.0567864
0.839167
-0.00162944
-0.0134844
-0.0498333
0.0853115
-0.104623
0.0432334
0.691186
9.15202e-05
0.0145737
0.162427
-0.00596566
0.145665
-0.000793684
0.775001
0.409784
-0.00767712
0.00373181
-0.000447224
-0.0155264
-0.000136776
-0.00947733
-0.0607312
-0.000106262
-0.00193263
-0.000628843
0.125423
-2.67002e-05
-0.00640528
-0.0570144
0.88987
0.0256046
0.76498
-6.54722e-05
-0.0285883
-0.000271591
0.442688
0.00615967
0.57363
0.00154428
0.00106152
-0.00232528
0.0761309
0.000870111
-0.000334312
0.000765606
-0.00629597
-0.0489527
-6.11394e-05
-0.0469649
-0.00526562
-0.000209374
-0.000913795
0.536777
-0.0108346
-0.00112181
0.85516
-0.00211048
0.180056
-0.000302747
-0.00213432
1.10579e-05
-0.0361865
0.0820642
-0.0995567
-0.0302305
-0.000605387
-0.0642434
-0.020735
-0.000264548
0.000741223
-0.00323567
-0.0105322
0.00454256
-0.00183738
-0.0292434
-0.0436645
-0.028725
-0.0887597
-0.0356866
0.357688
0.383642
-0.00217224
-0.139134
-1.0407e-05
-0.00357065
-0.0298732
0.223957
0.111712
0.000144172
-0.00332663
-0.0346748
0.156158
-0.00146786
0.00551537
0.00185446
-0.0264867
-0.177641
0.254329
-0.0023307
-0.0213154
-0.000169
0.00604796
-7.79166e-05
-0.0246226
-0.000510255
0.00339977
-0.173323
-0.0381534
-8.52948e-05
0.0132585
-0.00108713
0.0263415
-0.0121607
0.0518748
0.135729
-0.182544
-0.100363
-0.0210058
0.00779871
-0.0593714
0.734566
-0.088609
0.0436916
0.821041
-0.0022542
-0.00255392
-0.112428
-0.00162491
-0.0221387
0.00977254
-0.00410166
-0.00307436
0.169036
-0.000101921
0.000831111
0.000115424
-0.00492536
-0.0103953
-1.27409e-05
-0.00160967
-0.0286171
0.695414
0.000533277
-0.0123205
0.632305
0.367629
0.0474124
-0.128656
-0.0518385
0.00753104
0.297261
-0.0151485
0.255242
-0.0330405
-0.0984317
0.093019
0.246315
-0.0434661
0.103454
0.0195806
0.20668
0.0701062
-0.00443182
-0.0061127
-0.000130798
-0.000606177
-0.0154061
0.00141709
-0.000159639
-0.00238365
-0.0631164
0.017134
-0.0223085
-0.00481642
-0.00546776
-0.0207742
-0.010007
0.00235162
0.00978314
-0.00278134
-3.23557e-05
-8.31938e-05
7.25473e-05
-0.0267036
0.164197
-0.00581752
0.0411672
-0.116628
0.46319
0.0047125
0.0103592
-0.00735656
0.513289
-0.00156442
0.23893
0.195404
-0.000174095
-0.0352282
-0.00474022
-0.0494415
0.000854921
0.0584981
0.00343987
0.00957824
-0.00126562
0.107394
0.164621
-0.0538344
-0.0291954
-0.00343771
-0.0277478
-0.0445206
0.870833
-0.0827845
0.00659201
-1.05029e-06
-0.0177331
-0.00333886
0.0241481
-0.0930266
-0.142825
0.519948
0.139442
-0.13296
0.133046
0.500851
0.0427922
0.00175878
0.288696
-0.00135821
-0.000274862
-0.0224067
0.000132401
-0.15575
-0.00217477
-0.0324455
0.00285253
0.146796
-0.00263681
-3.55057e-05
-0.102793
0.00259749
-0.0152263
-0.0472144
-0.0622352
-0.133789
0.165395
0.135621
0.140008
-0.000308264
0.00350779
0.0576395
-0.000787734
-0.0215061
0.000922405
0.00557233
-0.00740994
0.00725281
-0.00116366
-0.00462419
-2.88801e-05
0.000302094
0.00300474
-0.0278252
0.0297331
-0.030284
-0.0314472
-0.0436511
-0.120688
0.0023007
0.272
-0.156293
-0.0093047
0.787402
-0.0523302
-0.0107981
-0.0321776
-0.00994929
-0.0262115
-0.0138211
0.0387293
-0.0977618
-3.83077e-05
0.0341977
-0.00014402
0.390596
-0.0423991
-0.0069486
-0.018328
-0.000283414
0.456863
0.296715
-0.0113298
-0.0402839
-0.0572379
0.597285
-9.43326e-05
0.0121304
-0.0228372
0.0699541
0.735246
-0.0519953
0.140869
-0.00350634
-0.000304119
-0.04311
-0.16126
0.480016
-0.00959307
0.236779
-0.00984604
0.482583
0.281223
-0.0122828
-0.0105243
-0.0409808
-0.0628111
-0.000127269
-0.0169925
-0.0611658
-0.0624744
0.0169243
0.0136491
-0.000190551
0.288847
-0.00203558
-0.000154779
-0.039927
-0.000732874
-0.000334742
0.00408498
0.181975
-0.0904537
0.672022
9.37084e-05
0.169154
-0.0312007
-0.000113023
2.70265e-05
0.186812
0.189356
-0.00572606
0.182318
3.84354e-05
0.190777
-0.176072
-0.0128604
0.53485
-0.0470978
-0.0380412
-0.0308571
0.181504
0.177152
-0.0209294
-0.0262143
-0.00870392
-0.00404922
-0.000297694
-0.00209891
0.240197
-4.0179e-05
0.191511
-0.0912896
0.391389
0.183051
-0.0621179
0.636921
-0.00229677
0.00214368
-0.0646492
-0.0250405
-0.00887728
-0.0342595
0.0231412
0.789562
6.35388e-05
-0.00269951
-0.054878
8.99885e-06
0.39458
0.00263284
8.4001e-06
0.000284736
0.000574334
-0.0230989
0.0229639
-0.00217981
-0.000125124
-0.00941246
0.00239609
-0.0978283
-0.0568864
0.0305904
-3.24141e-05
-0.158286
-0.0166384
-0.0182813
0.39736
0.00152992
0.0103409
0.000226849
-0.0159291
0.100076
-0.00894109
0.179283
-0.0164244
0.0145766
0.10387
0.131174
0.0050207
-0.0131636
0.109076
-0.0743372
0.443259
-0.0119637
0.171885
-0.0118397
-0.00163084
0.134876
-0.00384679
0.0912356
0.00270412
7.23378e-06
-0.109861
0.00902286
0.00200804
-0.0106469
-0.0156546
-0.154737
-0.0123449
-0.0313218
-0.00235452
-0.0112532
-0.0613247
-0.0326315
-0.0124683
-0.000214251
0.477733
0.0163092
0.0404038
-0.000286274
0.289957
5.99913e-06
-0.000264294
0.0361632
-0.00159739
0.00671581
0.0649545
0.0230148
-0.0740255
-0.126176
-0.130897
0.00188842
-0.0461311
-2.70117e-05
0.00468946
0.174753
-0.020064
-0.00387212
-0.0182432
-0.00272528
-0.000584357
0.83739
-0.0125953
-0.000775477
-8.35129e-06
0.152036
-0.0355105
-0.000470254
-0.00382364
0.175976
0.0654407
-0.0424592
2.11722e-06
0.2012
-0.0203573
0.144067
0.0239446
0.0295335
-0.0343986
-0.0001366
0.101366
0.053857
-0.101369
-0.0862223
0.251737
0.00883841
0.0948662
-0.00447869
-0.037144
-0.000558867
-0.00395342
-0.000153032
0.156494
0.102638
-0.00207972
0.025568
-0.0211044
-0.0732759
-0.0792646
-0.00256247
0.0108114
0.781634
-0.099592
-7.93345e-05
0.068087
-0.00552865
0.646612
-0.0154579
-0.0175081
-0.0107174
-0.0201602
-0.0110508
-0.00998259
-0.00553536
0.0019738
0.0151482
0.000153306
-0.1847
-0.0921461
0.337176
-0.0410486
0.0246931
0.00291829
-0.0679352
-0.0213772
0.233133
-0.00945715
0.000155214
-0.0200821
-0.00759173
0.0147034
-0.0314669
-0.0273558
-0.0711273
-0.0177412
-0.0147446
-0.068865
8.27753e-06
0.0288584
-0.0593643
0.0163468
-0.0829438
0.0914481
-0.0850324
0.244008
-0.00451914
-0.0355311
-0.0269369
0.694653
-0.152766
-0.0161646
-0.111039
-0.0473112
-0.105848
-0.0666237
0.10907
-0.00386346
0.289738
0.0126936
-0.000560468
-0.0017625
0.0612637
0.903615
0.00129971
-0.0329603
0.18472
3.23096e-05
-0.0252162
0.0375542
-0.0273224
0.0128586
-0.00233068
-0.0367264
-0.00456022
4.08193e-05
-0.0450436
0.216577
-0.00351133
-0.0202372
0.00270228
0.183121
-0.000544724
-0.00174487
-0.000508826
-0.00113265
-0.0805001
-0.00718901
0.00210959
-0.0217906
6.37296e-05
-0.12315
-0.158078
-0.138969
-0.0226807
0.0205084
-0.000302326
-0.0164047
-0.0556281
-0.0811392
0.39787
-0.00182525
-0.0571029
-0.00652807
-0.000643294
0.0739697
0.000635162
-0.000223478
-0.041554
-0.0807078
0.0190126
-0.004115
-0.00286734
-0.0522736
-0.000249466
-0.00737186
-0.0164584
0.3407
0.201136
-0.0606396
-0.0582845
0.0103587
0.00145799
-0.0749598
-0.0675268
-0.0232451
-6.52328e-07
-0.0670102
-0.0300676
-0.0730432
-0.000358883
-0.0449794
-0.000563115
-0.00416117
0.190057
-0.0332215
-5.66225e-06
-0.00387563
-0.142865
-0.000235939
-0.0289771
-7.20583e-05
0.00444814
-0.095655
-0.0574073
-3.16403e-05
4.33538e-05
0.130106
-0.0502461
0.46425
0.170106
-0.0590188
-0.000861591
-0.0204863
0.00031168
-0.166671
-0.0993732
-0.11958
-0.0197961
0.118527
0.00754078
0.000385432
0.00390856
-0.136986
0.0027737
-0.0357119
-0.0542942
-0.00196388
0.0219912
0.069515
0.0060396
-0.0273761
-0.0923347
0.195565
-0.0429432
-2.83133e-07
-0.114555
-0.0548022
-0.0517175
0.00379099
0.00107136
0.00401047
-0.0986981
0.0314077
-0.0302796
0.0408867
-0.0611568
0.00624441
0.0189309
0.00510871
-0.0310488
-0.165145
-0.000146717
0.150638
0.218393
0.00818709
0.0320908
-0.0789217
0.0446055
-0.0505905
0.206886
0.0978554
0.757813
6.4201e-06
0.0791181
0.163937
0.015493
-0.00159264
-0.0170449
-0.0815974
6.05307e-05
-0.0172025
-0.0518845
-0.0185857
-0.0206486
0.000185373
-0.150148
-0.000409903
-0.000933507
0.259683
0.00583495
-0.0807987
0.0192445
0.219457
0.00888414
-0.000437234
-0.137965
0.00720169
0.426793
0.00137249
-0.0535679
-0.000244977
-0.000602994
0.00506358
-0.0715082
-3.43532e-05
-0.01051
0.0262839
-0.00211215
4.33428e-05
-5.19475e-05
0.155454
-0.0739154
0.0065993
-0.00119102
0.00834935
0.0162084
0.0080024
-0.00031902
0.273174
-0.127321
0.231123
0.222389
-0.00022997
-0.0822395
0.0735877
-0.000833746
-0.000288148
-0.00047302
-0.051302
0.00746313
-0.0172902
-0.0245218
-0.0608189
0.168703
-0.116451
1.35613e-05
-0.0182712
-0.018375
-0.0317374
-0.00451219
0.00590659
0.00131772
0.0278051
-0.000556439
-0.000256597
-0.016659
-0.00444243
-0.0231574
-1.67942e-05
-0.014106
0.0327575
-0.0543478
-0.0530141
-0.00837904
-0.0112441
-0.00884195
-0.00534138
0.00152456
-0.00912057
-0.00011365
-0.000437074
0.0218687
-0.0116615
-0.00506825
0.00830784
0.00133532
-0.130118
-0.0106678
0.159121
-0.0119761
-0.0483755
-0.0248683
-0.0212354
-0.0147318
-0.00387197
0.00228538
-0.00363775
-0.0133347
-0.0151681
0.163952
0.112458
0.0353311
0.392431
-7.76878e-05
-0.00355663
-0.0154308
-0.00789682
0.0228958
-0.0189412
0.026133
-0.00458431
0.156766
-0.00202217
-0.00170004
0.00267976
-0.023292
-0.000233819
-0.0237789
-0.00599139
-0.0194112
-2.18102e-05
-0.00675544
0.00207146
-0.0165714
0.0227622
0.0362526
0.0195822
-0.0132808
-0.0288608
0.115774
-0.00134232
-0.00203364
-0.00219237
0.620914
-9.54067e-05
0.0529198
-0.0197108
-0.0191157
-0.024138
-0.0405917
-0.0262312
-0.031162
-0.0174168
-0.00471348
-0.000104482
-0.004379
-0.0203119
0.0963293
0.00176236
0.0251371
-0.0299627
-0.0126589
-0.000950677
-0.02661
-0.000109843
0.149031
-0.0276708
-0.0241619
-0.0221655
-0.00428123
-0.0314007
-0.00172776
-0.0362735
0.100869
-0.0238184
-0.0734168
-0.00151322
-0.0247592
-0.0173689
0.0158274
-0.00333186
0.143679
-0.00246911
-0.0179108
-0.000707876
0.163151
-0.0349981
-0.0242853
-0.00333063
-0.00946716
-0.00284529
0.123568
-0.019808
0.0409376
-0.00512048
-0.000852435
-0.00130561
-0.00240921
0.0303764
-0.053363
-0.00690987
0.000357621
-0.00921979
-0.0193097
-0.000949465
-0.0189801
-0.0148243
0.0570603
-0.00503545
0.00217157
0.626981
-0.0538672
-0.0261029
-0.0506515
3.68437e-05
0.0748974
-0.00362684
-0.0245689
-0.00571812
-0.0322509
0.00387897
-0.000559944
-0.00298593
0.00341675
0.208821
-0.00590751
-0.00185106
-0.00472925
-0.0503103
-0.00830708
-0.0203033
0.0042918
-0.00869239
-0.00899398
-0.00335837
0.206999
-0.0407715
0.00334304
-0.00432787
-0.0251595
-0.0136929
-0.0434289
-0.00145987
0.0887209
0.0227162
-0.00787918
-0.00179345
-0.0133113
0.629102
0.210735
-0.0111257
-0.000601453
-0.00245705
-0.00392143
-0.00407742
0.0209375
-0.000435285
-0.0203193
-0.00202907
-0.0160481
-0.172648
-0.0011141
-0.0127067
-0.00140075
0.348648
-0.00656522
-0.0114825
-0.0739353
-0.00201345
-0.0273839
-0.0763966
0.533504
-0.0106017
-0.0112487
-0.00218769
-0.000488458
1.7244e-06
-4.08184e-06
-0.0100471
-0.000698231
0.0306291
-0.00070102
-0.00187213
0.00821267
-0.000269087
-0.0395478
-0.0633325
0.0177295
0.0399111
0.0267561
-0.0730106
-0.0562481
0.0878666
0.0695524
0.0954554
0.122904
-0.012576
-0.000873809
-0.0061546
-0.0703531
-0.00360843
-0.0145453
-0.0729121
0.260567
-0.0549095
-0.000503812
-3.12967e-05
-0.00151447
-3.25311e-07
0.00683053
-0.000588572
-0.00495626
-0.0421231
0.000567811
0.00263423
-0.000229327
0.039631
-0.0147672
-0.0693431
-0.00127269
0.368518
0.150482
-0.00998925
-0.0914734
-0.0257074
-0.0221157
-0.0139674
-0.0019366
-0.0820366
-0.0401846
-0.0395169
-0.144424
-5.29926e-05
0.154713
-0.0245984
-0.0094576
-0.0376802
0.0188025
-0.000554775
-0.00835101
-0.00140217
0.00975784
-0.00162305
0.0896295
0.000366769
0.0103425
-0.000433747
-0.1457
0.00905727
-0.000810395
-0.00368701
0.000422008
-0.0661727
0.0912205
-0.000382487
-0.00148774
-0.00013154
-0.000600933
-0.000526533
-0.0524574
0.125113
-0.062151
-0.000281675
0.00784342
-0.000478159
0.242907
-0.0521638
0.206208
-0.0382797
-0.00046985
-0.000300301
-0.00732659
-0.00569438
-0.000661906
-1.89339e-05
0.0241903
0.0284264
-0.000247666
-0.000350158
-0.0186162
-2.26743e-05
0.171994
-0.000959139
-0.0457467
-0.0180465
-0.00633688
-0.0480572
-0.0537055
0.154487
-0.0309359
-0.0189875
-0.000329702
-0.0486739
-0.0194742
-0.0544293
-0.014968
0.378719
-0.00120924
-0.0509685
0.00855592
0.276135
0.0381337
-0.000125062
-0.00607776
-0.00412139
-0.0050088
-0.0411641
0.0709893
0.000185559
0.00891547
0.00289567
0.045502
-0.000542748
-0.000128532
-0.129731
0.239048
-0.0473154
0.10225
-0.00133824
-0.000211705
-2.37671e-06
-0.106576
-0.0364725
-0.000355702
0.0647242
0.0115
-0.00540728
0.499703
-0.000413093
-0.00377889
-0.0516778
-0.0379544
-0.00233421
0.136542
-0.0738845
-0.000173387
0.00682633
-0.000182489
-0.000105422
0.117755
-0.00769923
-0.000472879
-0.043823
-0.0228026
-0.00354774
-0.0453064
0.00247572
-0.0213012
0.00168747
-0.00355193
-0.055628
-0.033903
0.00659655
-0.000914624
0.143048
0.218959
-0.12311
0.00865144
0.0191907
-0.00433719
0.171609
0.0770227
-0.0251586
-0.000169956
0.00915207
-0.0465279
0.00468651
-0.0264041
-0.00216278
0.0271703
-0.0255277
-0.000143441
-7.66767e-05
-0.0545591
-0.0260954
-0.0237741
0.00928331
-0.0478558
-0.0392576
-0.000159966
-0.00144617
-0.000216345
-0.0346822
-2.52619e-05
-0.00197889
-0.0558652
-0.114627
0.0037587
-0.00303468
0.00428236
-0.0202006
-0.0233767
-0.00013455
-0.039521
-0.0206402
0.16132
2.40622e-05
-0.000116058
0.164791
-0.00257438
-0.0970466
-0.035239
0.00348501
0.000490729
-0.0549599
-0.0541532
0.169433
-0.047194
-0.00150326
-0.0113028
-0.0485475
-0.000600013
-0.000250809
-0.000928175
-0.0536837
-0.0439269
0.057094
-0.000219373
0.661963
-0.0940195
0.000120019
-0.00101217
0.000259503
0.000294744
-1.49308e-05
0.000143655
-0.0447517
-0.000748244
0.000448303
-0.000206827
0.143022
-0.00576492
-0.000201756
-4.64842e-05
0.30775
-0.0202259
-0.0828746
0.00114248
-0.000752164
0.0410657
-0.000102531
-0.0145274
-0.179812
0.00223658
-0.00688109
-0.000100578
-0.000215981
-0.0284003
-0.0730564
0.00743721
-0.153026
-0.086125
-2.91172e-05
0.0217545
0.032945
0.108835
-0.00175118
-0.000163266
-0.0490765
-0.00608834
-0.000519984
-0.0426281
-0.000143158
0.0266057
-9.27448e-05
-0.00129829
-0.100649
-0.00221936
-0.0500122
0.5719
-0.00170269
0.000283015
-0.0504373
-0.0566376
0.00904216
0.00486772
-0.000157197
-0.028351
-8.76754e-05
0.206121
0.839054
0.01083
0.00312037
0.00368532
-1.93851e-05
-0.0260492
-5.97877e-05
-0.00839321
-0.00173509
0.000381204
-0.00339521
-0.00992683
-0.000127454
0.000892846
-0.00929078
-0.000324579
-0.0105402
-0.0156794
-0.0151531
-0.00121386
0.738064
-0.000723629
0.00249742
0.000252288
0.0142574
-0.0426931
0.00977515
-0.000184323
-0.00010353
0.00264896
-0.000113928
-3.0195e-05
-0.0119742
0.000716627
-2.48146e-05
-0.0443823
-0.0024195
-0.0471431
-0.00167758
-7.04679e-05
-0.00316229
-0.0138201
-0.0149609
-0.0261626
0.00238872
0.000537704
-0.000479505
-0.00197189
-8.23004e-05
0.28862
0.00160045
-2.03379e-05
0.000593046
-0.0020756
-0.000370924
-0.0535115
-0.0463613
-0.000135961
-0.00693054
1.36597e-05
-0.00280881
-7.60628e-05
0.0356833
-0.000145584
-0.000192804
-0.00376197
-2.41925e-05
0.0138687
-0.00023239
-0.00128218
0.0193468
1.2521e-05
0.426259
-0.046607
-0.0369991
-2.5838e-05
-2.15406e-05
0.00188254
-0.00120135
-0.046932
-1.75482e-05
-2.33248e-06
0.000756543
-2.88365e-06
0.000388952
0.000462305
-0.000469964
0.000807683
-0.0451838
0.57486
-0.0351052
0.348261
0.00929515
-0.0170176
-1.89899e-05
-0.000894852
-0.0118734
0.000148177
0.000291956
0.00017333
0.00659283
-0.00142469
-0.000225238
0.635364
-0.000556649
0.000596714
0.000516326
-4.58327e-06
-0.107388
-0.00222458
0.00116338
0.000129573
-0.000562495
-7.0425e-05
-0.000988422
-0.0390868
-0.000424712
-0.00169757
-1.26627e-06
-0.00105066
-0.000268484
0.201621
-0.000450616
-0.000284522
-0.0583382
0.00385982
-8.84834e-05
-0.00135076
-6.35198e-05
0.181411
-0.0625754
-0.000311584
-0.000394581
-0.00203131
-0.000162335
0.0523818
0.0911634
-0.0139859
0.000520084
-6.9143e-06
-7.47696e-07
0.036869
0.000260109
-0.051922
-0.0283251
-0.015582
-0.152254
0.751627
0.00199497
0.151708
-0.0144268
-0.0269031
0.18494
-0.000364211
-0.0561801
-1.31496e-05
-0.00881306
-0.0420518
5.65018e-05
-0.0487141
-0.000959168
-0.015902
-0.00583752
-0.0371111
-0.0374179
-0.00343568
-0.0558595
-0.0378524
-0.000191592
-0.0117492
-5.41011e-05
-0.0334426
-2.8675e-05
-0.000190739
0.00366721
0.174736
5.33678e-08
-0.040248
0.00361885
7.78661e-05
-0.0207906
5.92758e-06
-0.0130489
-0.0002644
-0.0338038
0.000131312
-8.90924e-05
-0.00207628
-4.96149e-05
0.169729
-0.0280182
0.0169347
-3.11088e-05
0.000644101
-0.0294488
6.57257e-07
-0.0495469
-0.0564953
-0.0476006
0.667892
-0.0063868
-1.7841e-05
0.025794
-0.036862
-0.00265171
-2.6156e-05
-8.72749e-05
-0.041183
0.000130906
0.000894213
-3.211e-07
0.000163651
-0.0256897
-0.0425594
-0.0849122
0.080592
-0.00527046
-8.98303e-07
0.00569475
-0.0507888
-2.12068e-05
-1.41533e-05
0.00032905
6.60013e-05
0.000415904
0.0548594
0.034715
5.75063e-05
1.11799e-05
-0.0554314
0.216987
0.178678
-4.59856e-05
-0.0327343
-0.0193733
-0.0108317
-0.0415181
-0.00886903
-0.00288333
0.148814
-4.2217e-05
-0.0244822
0.177497
-0.0430332
-1.7861e-05
-0.0518613
-0.000178187
0.152436
0.0258032
-1.47454e-05
-2.79884e-05
0.181536
3.33489e-06
-0.000186499
-0.0113332
1.30389e-05
0.222459
0.00313679
-0.00721571
-0.0529456
-0.00372598
-0.0782373
0.195699
-0.0161967
-0.0637643
0.0010243
-1.98158e-05
-0.00103863
-8.33223e-06
-1.63575e-05
0.0132145
0.195458
0.159175
-0.000444951
0.2784
-0.0132266
7.60494e-06
-0.0395637
-1.8018e-05
-0.025855
0.0270183
-0.0147243
0.00445242
0.00188815
-0.00897
0.000256099
-0.00167335
0.0176678
-0.00282554
-4.90166e-05
3.01154e-05
-6.22117e-05
0.031869
5.62017e-05
-0.0229567
0.295523
-0.00592789
5.17302e-05
-0.00342031
-1.04002e-05
-0.0228841
-0.000360421
-6.62598e-05
-8.60435e-05
-1.32377e-05
0.231999
-0.000155285
0.214485
-0.0544383
0.000115705
-0.0481874
-0.000495488
0.167268
0.657832
-0.00139422
2.4046e-06
1.60503e-05
-2.13174e-05
0.101236
4.5092e-07
0.00106006
-0.0224647
0.209246
6.68831e-06
1.51722e-05
2.79796e-06
2.54267e-05
-0.0193388
1.69157e-06
0.106522
-0.016082
-0.000123397
3.04975e-05
-0.00203418
-0.0256843
1.13125e-06
-5.70641e-05
0.17788
3.4629e-05
-0.0290867
-0.0678053
0.000135929
5.44816e-07
-0.165741
1.03489e-06
0.158457
1.4928e-05
-0.000447984
1.16231e-05
-0.000176233
0.0939745
3.06347e-06
-0.00162941
8.14349e-06
0.0105826
-0.00336019
-0.00621993
0.000500623
0.163713
-0.000272686
-8.11981e-05
-0.00855174
-0.00825669
-0.000243403
-5.4471e-05
-0.00089386
4.04503e-05
0.0610266
-0.0102716
0.613781
-6.47727e-07
-0.00739689
-0.000158057
0.112193
5.73771e-05
-0.0249687
2.37088e-05
-0.00156411
-0.0303258
-0.000230825
-0.014923
-0.0438723
0.00489308
-9.08238e-06
-0.0561504
-0.000334119
-0.000299403
-0.00539043
-0.0177965
0.00127314
-5.01491e-05
-0.000435039
-0.000936563
-0.00126279
1.32471e-05
-0.00119498
0.627721
9.88558e-05
-0.00320311
-0.031429
-0.0604963
-0.0543085
-0.0417326
-0.0203684
-0.000535656
-0.018719
7.75144e-05
-8.20115e-05
0.618849
-9.46701e-05
0.133063
-0.000449268
0.000402293
-0.00111974
-0.0916485
-0.000417294
0.000419507
-1.53602e-05
-0.000391395
-1.56765e-05
-7.99971e-05
-0.0138563
-0.000110465
-2.742e-05
-8.33145e-05
0.000147775
-1.02976e-05
-0.038749
0.0761578
-9.93922e-06
-0.000599868
3.02027e-05
3.1459e-05
-0.00082497
9.26626e-06
-0.000895371
0.000285808
-0.000366224
-0.0544016
-0.000686577
-0.00180715
4.84483e-06
-0.00160802
0.000342723
-1.51976e-05
-9.83767e-06
1.35741e-05
-0.000787351
0.000544502
-0.0398738
-0.026226
-0.0544493
0.000534674
-0.00192993
-0.0639342
-0.0547109
-9.46023e-05
0.0139484
0.00663921
-0.0010397
-0.0112703
-0.0471383
0.517199
-0.000414314
-1.51239e-05
0.000877602
4.99492e-05
1.80281e-05
0.0755127
0.00347305
0.087887
-0.0374312
0.518088
-0.000522283
2.20254e-06
0.000154267
-1.81935e-05
-0.00135854
0.133514
0.243053
-5.33293e-06
-0.000171965
-1.74425e-05
0.227602
0.0106651
-0.00685709
1.18619e-05
1.96785e-05
0.00718532
-0.000691706
-0.0623708
-0.0157643
2.43555e-05
0.00346384
-0.0297685
-6.03498e-05
0.00179011
-6.76335e-05
-0.040056
-0.0017119
0.133209
1.67454e-05
0.00167135
-0.000328905
1.52099e-05
0.000175509
-0.0212801
1.48371e-05
-0.000904231
2.28439e-05
-0.01827
-0.0391457
-0.00321169
-0.00793861
-0.00814664
0.00900968
-0.00833153
-0.00240421
6.83151e-05
0.000106388
2.07142e-05
1.81333e-05
-5.64388e-05
0.00876822
-0.0538423
0.000498032
-0.0472511
-0.00299366
-0.0507383
8.83768e-05
-2.62053e-06
0.00130603
-0.132219
1.8227e-05
-0.0457434
-0.0142533
-0.109088
-0.0490469
2.70256e-05
-0.0033554
0.000197045
-0.189197
0.138337
1.14548e-05
-0.052869
-0.0213524
-0.00409947
3.83906e-05
-8.59899e-06
0.0169525
-0.0152365
2.4214e-05
-0.00648138
-4.68996e-06
0.000219189
0.120923
-8.34357e-06
3.01636e-06
-8.63395e-05
3.49858e-05
0.000900036
8.83785e-05
-0.00506167
0.000237353
-0.0118649
0.00110215
-0.000205337
-0.0320599
-0.0383269
-0.00601924
-1.51727e-05
2.15506e-05
-0.0619788
0.00568798
-0.0416687
2.86236e-05
-0.00496483
-3.65338e-05
2.44608e-05
0.0562704
-0.00663823
-0.00270255
-1.48026e-06
-0.016593
4.98257e-05
-0.057629
2.68728e-05
-0.0647148
1.90073e-05
-5.88173e-06
8.56435e-05
0.00102688
-0.119242
-0.0164858
-0.0616517
1.58289e-05
9.54069e-05
-0.0649736
-0.027712
-0.00792489
-4.76097e-06
-0.0507192
-0.0466426
-0.0644979
3.24926e-06
-7.63681e-06
4.53094e-06
-0.106362
-0.0604702
0.000724819
-0.0103019
-5.6098e-05
0.0821391
9.61215e-05
1.42002e-05
0.000152126
-8.99488e-06
-8.44905e-06
-0.00349948
0.00011459
-0.0024934
-0.0587171
-0.012094
-0.0481268
4.02999e-05
-5.11761e-05
0.0386506
-0.0639544
-0.00452962
0.109058
4.70468e-06
-1.33114e-05
-1.21704e-05
0.0255738
0.000174828
-1.41318e-06
-4.73418e-06
-0.0594896
-0.0142424
5.34111e-06
7.78681e-05
-0.00874333
-0.0061078
0.000431683
0.242998
-0.0556228
0.00010821
0.851623
-1.85223e-05
-0.000684317
-0.00851645
-0.0622741
6.24375e-06
-2.80412e-06
2.16249e-05
0.00471323
-0.033192
-0.000333807
-0.0437906
-0.00726081
2.69828e-05
-4.58523e-06
-0.00946488
-0.011325
-0.0454094
-0.11147
-0.03917
-0.0344754
-0.0406901
-0.0254769
-6.29292e-05
0.000356785
-0.00755752
0.000531553
-7.94489e-05
0.000764797
3.10935e-05
-9.1568e-05
-0.0112446
-1.19458e-05
-2.83137e-05
0.026405
-0.0451318
-0.000162672
-4.02937e-05
-5.48222e-06
0.271418
-0.00631131
0.000783121
-0.0261117
0.000229643
0.00019983
0.000173863
-4.84952e-05
0.000485486
-0.0343679
0.012769
-9.00964e-06
-0.000163794
-0.0385719
-0.0309388
0.0478895
-0.00048437
0.00181924
0.017473
1.85954e-06
6.14513e-05
-0.0481588
2.24325e-05
0.171793
8.01093e-06
0.00416247
0.000168411
0.000224559
-0.0585724
-0.00696133
-0.0165599
-0.00231498
2.65128e-05
0.00569634
0.060088
-0.0115715
-0.000133812
0.0930343
0.166311
3.44548e-06
-0.045445
-6.63584e-05
-1.0151e-05
-4.43185e-05
-0.000558559
0.0194318
-6.1913e-06
0.000248455
-0.0225912
-0.0233959
-0.019993
0.350469
1.73802e-05
-6.86287e-05
0.177481
-0.0107539
-0.00364847
-0.000641797
0.174088
4.39685e-05
-0.000316557
4.60773e-05
2.62255e-05
3.15687e-05
3.6034e-05
7.41363e-05
-0.0160909
8.2623e-06
-0.00322277
-0.0387162
0.219188
-0.00014506
-4.91683e-05
0.00465421
0.0832505
-0.0483357
-0.000738155
-0.0594805
0.343683
4.34016e-05
0.473591
-4.32517e-06
0.00328301
0.0236313
0.000438156
0.533975
-1.49604e-05
-5.97429e-06
0.00114599
3.11706e-05
-0.00084435
0.000264505
1.08661e-05
-0.0018923
9.56342e-06
-0.000144003
-0.00316525
0.260899
0.0448796
0.0215404
-0.0378504
-4.97939e-06
-1.80668e-05
0.00332016
-0.0556481
-9.56156e-06
-0.0404807
-5.3242e-05
0.101776
0.0601469
-0.0308643
-0.00131548
-0.0117864
-0.000954622
-0.0136301
0.00275885
-0.00727828
0.060034
2.1375e-06
0.124087
-0.00547694
-0.000599214
0.20714
-0.0124885
-1.22322e-05
2.3272e-05
6.67414e-05
-0.000207739
-0.000121956
0.269167
-0.000955553
0.272417
-0.00109799
0.172115
0.213219
0.0450457
-0.00668681
-5.04807e-06
6.37791e-05
-0.00986992
-0.147564
-0.0449971
0.00148317
2.01707e-05
-0.033503
-0.000327437
5.20483e-06
0.00100771
-0.00103819
-0.000672653
0.0319361
7.58959e-05
-0.0415877
0.0530042
5.83465e-05
0.000268487
-0.0141018
-0.0562037
-0.000713726
-0.000510417
1.30682e-05
0.000251277
-0.00481069
-0.0163004
-0.0448773
0.00130322
0.0365791
-0.0354297
3.60272e-05
2.27393e-05
-0.00376254
-9.06093e-05
0.0304507
-0.000548984
-0.0125092
-0.000376817
0.00160739
-0.0339217
-3.64827e-05
0.00049045
-0.0075374
-0.0638312
0.10236
-0.053134
-0.024986
-0.000166521
-4.51445e-05
0.00666166
4.62846e-05
-0.0630671
-0.0595369
0.000564591
0.00329038
0.00375138
-0.116439
0.000639755
0.000190294
3.77361e-05
-0.0380724
2.84236e-05
0.000558928
0.12221
0.186811
-0.137347
0.0482649
0.0460505
-0.000333217
-0.000162784
0.00961115
0.000124209
8.54259e-06
-7.55315e-05
-4.74595e-07
2.48852e-05
-0.000350548
-0.00727403
-0.0769653
-0.00923744
-0.0286662
0.0500984
0.0423449
0.00401221
-0.0585438
0.000161866
0.00446709
0.0108959
-0.000380866
0.0686883
-0.00128547
-0.0105429
0.0111855
0.00545474
0.000893336
-0.00387874
0.0389433
0.000816687
-0.0183128
-0.0155481
0.654386
-0.0236468
0.0754323
-0.00717951
-0.037485
0.00217271
0.000101216
-0.00246
5.58427e-05
-0.00253858
-0.0238564
-6.90514e-05
-4.97056e-05
0.216688
-0.00318139
-0.0376234
-0.0173306
0.000203482
-0.00152553
-2.27779e-05
7.71463e-06
0.0336026
4.04479e-05
-0.0028263
0.0680365
0.00603799
0.00111892
0.0173439
-0.00551498
0.00408949
-0.145332
0.000856881
-0.00427268
-0.050378
-0.000849672
-0.00770182
0.000739106
0.000357095
0.00098409
0.0315915
-0.000323629
0.00555442
-0.0471925
-0.0194781
0.000304611
-0.0464207
-0.0140562
-0.0157945
0.00010279
0.00650979
-0.0696239
-0.000820493
-0.00470335
-0.0426838
-0.000496356
-0.00113422
0.217617
-0.0222892
-4.08373e-05
0.0081267
-0.0483532
-0.00102149
0.2059
-0.00229866
0.00100425
0.0590476
-0.00138257
0.00806845
0.130843
5.49283e-05
0.00116465
0.000177762
3.53061e-05
-0.00431934
-0.00733393
-0.000139378
-0.0223651
0.0907297
-0.0330031
-0.0725543
0.00115171
-0.003154
-0.00062821
-0.0624486
2.68551e-05
0.0139732
4.25536e-05
-0.0147577
-0.00188321
-0.00474899
-0.146272
0.0999157
-0.0810966
-5.25022e-05
0.162792
-0.00195356
-0.00273271
-0.0512985
-0.085562
-0.0148216
-2.93724e-05
-0.00116015
0.00710474
-0.00298409
-0.00454216
0.000425858
0.0824699
-0.0430581
-0.0105328
-0.00634157
0.0148078
-0.00350905
-0.00190008
0.00168975
-5.19778e-05
-0.00297001
0.100103
0.000781367
-0.159545
-5.74885e-05
-0.00694762
-0.00384517
-0.0946086
-0.0109728
-0.118462
-6.3631e-05
-6.16737e-05
-0.00536844
0.0103229
0.00173706
-0.14221
0.0726823
-0.044473
0.00018694
-0.163478
2.4614e-06
-0.175068
-0.0236386
-0.213879
-0.222975
-0.22746
-0.216754
-0.184683
-0.171048
-0.158033
-0.144422
-0.123735
-0.0772813
-0.0592171
-0.0380947
0.0235618
-0.00762677
-0.0071242
0.0421447
-0.0202099
0.000883652
0.00939951
-0.036992
0.000493117
-0.000706589
-2.79525e-06
-0.0136374
0.0174019
4.42012e-05
-0.000333192
-0.00984326
-0.0106759
-0.20755
-0.01553
-0.0505541
-6.58997e-06
0.000559932
-5.1471e-05
-0.0616936
-0.00849633
-0.0342339
-0.0123701
0.00169461
0.000212933
0.00464235
-3.24589e-05
-0.020481
-1.58364e-05
0.000368532
-0.00752446
-0.0107783
-0.000323763
0.000325933
0.0482386
-0.0099676
0.0497082
-0.192286
-0.00981063
-0.0956498
-0.01752
0.00359645
-0.0200541
-0.00316167
-0.0117154
-0.0126484
0.396882
-0.00137195
6.81255e-05
-0.00560023
-0.00870303
3.08201e-06
0.0794259
-0.00404516