/*--------------------------------*- C++ -*----------------------------------*\
  =========                 |
  \\      /  F ield         | OpenFOAM: The Open Source CFD Toolbox
   \\    /   O peration     | Website:  https://openfoam.org
    \\  /    A nd           | Version:  7
     \\/     M anipulation  |
\*---------------------------------------------------------------------------*/
FoamFile
{
    version     2.0;
    format      ascii;
    class       surfaceScalarField;
    location    "21";
    object      phi;
}
// * * * * * * * * * * * * * * * * * * * * * * * * * * * * * * * * * * * * * //

dimensions      [0 3 -1 0 0 0 0];

internalField   nonuniform List<scalar> 
11512
(
145.53
-500.172
354.643
-758.942
-1.80316
760.745
407.641
-371.166
-36.4753
634.098
268.444
-902.542
1510.89
-1069.37
-441.52
1216.29
-1527.13
310.84
-59.1097
473.259
-414.149
168.484
-842.034
673.55
962.111
-1610.81
648.703
-1760.3
1667.52
92.7774
-542.944
1759.24
-1140.59
1934.38
-793.788
608.226
180.772
-788.998
-24.7799
-1314.09
1338.87
220.8
-1981.1
1022.78
-382.348
-640.428
-181.098
326.628
485.77
190.175
-675.945
1155.18
-1313.24
158.066
-315.103
375.687
-60.584
1003.27
-1314.02
310.751
1221.51
799.265
-2020.78
72.8265
-1639.67
1566.85
-473.661
-1169.86
1643.52
476.841
181.468
-658.309
-188.522
-311.65
498.126
1012.77
1646.82
-1804.16
157.337
-88.8476
-1691.35
1780.2
-1558.82
652.018
906.799
-307.341
652.68
-345.339
-193.35
-153.747
347.097
1284.23
-1211.41
355.161
-1407.39
1052.23
-1754.36
1754.36
100.038
1531.16
-1631.2
-1079.22
-479.596
636.966
-696.076
-384.474
941.318
-556.844
1331.95
-1317.31
-14.6375
-1100.07
715.591
626.202
396.573
-395.56
-30.2826
425.843
-448.692
779.37
-330.678
-1618.57
1618.57
1253.59
-1437.9
184.306
-488.588
1710.1
1254.94
-313.625
1660.75
-1161.26
-499.49
71.1961
-386.299
2065.29
-1135.03
-930.266
1812.32
-165.496
456.035
155.53
-611.564
-460.146
971.887
-511.741
-1169.88
1269.92
-568.381
970.716
-402.335
400.732
754.446
661.185
-492.7
-436.768
593.202
-156.434
1190.65
-835.494
2308.19
-1080.66
-1227.53
1163.66
-2008.73
845.067
-1601.6
1576.82
440.67
-1581.26
-759.221
1250.78
-491.561
-671.737
364.397
1661.46
-699.347
-1106.93
-870.893
1977.82
681.403
-370.825
-310.578
689.56
565.383
-258.203
1511.79
109.564
-315.047
205.483
-284.114
760.954
-333.836
565.799
-231.963
-323.974
809.744
-317.1
-147.392
464.492
321.294
86.3471
1457.76
-454.486
-981.277
485.548
495.729
273.784
91.1742
-364.958
949.203
-340.978
-1700.06
651.436
1048.62
17.3335
-854.841
837.508
-280.86
594.388
-313.528
157.073
-1093.75
936.674
1051.82
-1067.29
15.4753
372.671
518.843
-891.514
-244.558
700.592
-1103.71
-482.102
1585.81
-678.775
951.481
-272.706
1356.58
-1445.43
-638.344
280.628
357.716
-470.182
-1011.57
1481.75
-538.7
-793.68
1332.38
576.347
-996.293
419.946
-268.495
-317.745
586.24
404.043
-294.479
-1038.79
578.648
955.306
-798.233
-110.262
944.06
-833.799
-210.479
416.94
-206.461
-627.679
-353.598
-386.527
962.874
1856.39
-1856.39
-470.096
-168.248
-950.781
1557.05
-606.271
497.472
-929.4
431.928
-923.515
355.134
-941.91
-1058.08
-1490.46
344.927
1145.53
-278.538
912.637
-317.573
617.586
-300.013
-1941.9
999.994
-1139.8
-350.666
551.81
-1502.59
1728.5
-1725.61
-2.89628
203.694
-604.134
400.44
-1458.73
974.054
484.678
284.338
215.429
-499.766
310.458
-644.294
244.268
-420.507
176.239
2015.15
-872.547
-1142.61
-545.875
150.314
616.811
835.272
-1452.08
-182.713
426.981
431.204
876.796
-1308
-906.747
392.855
513.892
-1046.4
1447.13
-1068.88
309.663
750.756
-98.0757
555.645
-289.376
-266.269
1006.97
-521.426
593.281
-1403.85
810.569
-1342.23
238.518
-545.699
264.838
-1182.24
903.702
1945.3
-981.352
-963.947
276.805
1579.58
-2094.57
895.096
1199.47
368.744
-29.987
-338.757
-223.503
483.862
-260.359
-105.511
-381.827
487.338
-463.811
146.711
342.296
-129.131
626.602
418.335
382.085
-800.419
-2037.51
1115.02
922.486
460.3
-530.268
69.968
224.312
-366.468
142.156
1018.01
997.149
1783.3
-252.135
728.735
-448.107
796.776
-1389.68
592.901
350.159
331.243
1052.4
-1035.07
-497.853
-232.283
730.136
474.348
-134.696
-339.652
797.369
-616.596
559.853
-724.307
164.454
503.326
1157.42
-1239.8
701.102
1042.38
-1516.04
-3.1347
-1439.43
1442.56
325.494
824.498
-1149.99
623.33
269.755
-893.085
-2269.68
1141.24
1128.45
-1099.14
-1170.55
200.978
358.875
958.503
-633.009
879.517
-899.151
19.6344
-2099.38
992.453
-231.528
-191.033
422.561
-41.751
1770.25
-829.971
71.0292
-1028.16
-1066.41
-229.182
453.494
-674.228
204.133
-272.209
-424.236
696.445
1104.04
-1574.22
783.021
-1374.44
591.424
694.036
-425.592
1947.87
-1444.54
-378.279
-1376.08
75.2188
398.04
-530.973
529.17
17.2351
-572.594
555.359
568.622
-284.285
-603.796
279.825
323.971
781.175
-362.841
32.8819
335.863
1188.47
-1191.61
173.522
230.521
393.174
-665.383
619.671
-1006.2
-2026.71
2026.71
-256.988
-446.592
703.58
699.256
405.793
-1105.05
578.937
171.819
404.2
376.975
-2199.75
1328.85
-926.533
-679.017
1605.55
-486.421
-695.819
-256.907
549.163
-292.255
826.325
-193.813
-632.512
-444.107
647.801
366.779
-684.352
-364.598
-130.041
494.638
-1328.97
-475.184
627.302
-1113.72
-374.138
-1244.43
844.329
1463.86
298.239
-942.082
643.843
965.915
-339.713
1391.39
-798.104
442.355
-268.833
-327.81
-870.93
566.298
304.632
-328.472
-542.458
309.867
-415.378
-214.268
-148.414
362.682
-392.685
1091.94
434.921
-244.745
-393.192
1351.64
-169.898
-1181.74
-469.804
284.7
185.104
225.5
256.131
-481.63
24.0771
-748.384
592.094
-1729.01
1136.91
1482.3
-865.49
-1048.86
-409.871
-1056.83
573.293
483.542
1378.97
-404.912
929.251
-1411.35
-158.973
-200.103
359.076
-469.363
580.548
-1626.94
427.969
903.979
284.109
298.097
-582.206
568.077
1186.29
1103.44
-713.922
-389.52
401.394
-216.619
-184.775
-1419.46
445.254
738.134
-1183.39
1473.31
-544.056
-489.036
928.44
-439.404
426.144
1186.16
-1612.3
47.2842
-726.059
-146.176
419.96
225.924
-419.274
531.622
475.351
-615.261
61.8864
553.374
1024.54
-1307.67
283.132
664.493
-260.293
468.249
-1447.23
978.983
404.683
1686.63
-522.974
908.068
1037.23
-661.227
-1684.51
757.975
563.948
399.259
-963.207
454.325
78.7945
1749.96
-1828.75
1443.74
-379.473
-1064.27
1699.12
-1740.87
-367.274
-523.76
720.551
-196.791
-502.589
182.059
292.289
-372.964
-1226
214.43
-764.55
-639.301
-652.605
998.419
-345.815
-654.146
644.346
9.7998
655.121
-923.787
268.666
-766.335
389.287
377.049
-648.493
-687.73
349.206
338.524
-932.32
1400.57
-416.221
886.215
-469.994
-2205.3
5.55788
178.038
-534.216
356.179
142.138
1209.5
-99.557
-574.671
158.548
-595.316
1487.14
-704.122
379.239
-462.689
83.4503
-570.423
570.423
1223.11
395.458
1777.91
-1228.59
589.145
639.441
849.835
-52.4667
1291.59
773.703
-540.098
1336.87
293.338
301.05
273.381
-797.141
240.544
-689.235
231.494
-443.946
212.452
-238.369
577.299
-338.93
122.01
-360.379
-591.944
-564.478
1156.42
-371.375
540.362
-168.987
-1192.16
2032.04
-839.886
1289.46
-330.954
-406.133
137.638
-1980.81
810.954
1531.45
-847.339
-684.116
1986.95
-877.428
-1109.53
713.513
575.945
-239.376
470.869
-675.117
1141.47
-466.353
-770.031
1201.23
551.607
924.625
-1725.04
800.418
-545.409
-76.2088
621.618
299.806
255.839
409.438
-96.7498
-312.688
896.896
-83.4059
-813.49
918.167
-562.653
-355.514
1576.2
-472.161
889.622
-1626.66
737.038
1068.48
879.388
748.062
-441.861
-306.201
-1059.05
-258.261
562.352
578.094
-1140.45
-461.21
511.653
-50.4432
575.139
-342.817
-232.322
-983.85
567.629
595.523
886.779
-441.788
1096.91
1413.26
-777.956
-635.302
395.285
-924.175
528.89
-1025.23
397.555
553.693
-1042.73
459.119
-533.287
74.1676
474.411
304.959
-521.899
-48.5241
-794.239
-878.43
1672.67
192.486
208.908
-215.542
416.521
-28.2261
-556.841
585.067
493.307
867.775
-1361.08
-521.168
306.901
985.955
-89.0591
836.301
-1064.77
228.471
398.057
846.196
-1386.29
-449.838
831.923
1978.08
-1284.48
-693.609
270.182
609.335
255.974
795.844
84.0951
-965.802
881.707
1673.73
-1089.05
-584.683
-137.849
1887.81
-1866.05
-160.657
483.614
-621.714
138.1
-1013.47
526.403
487.064
-1730.48
538.319
-955.813
845.551
391.309
201.893
586.761
-288.521
-421.498
710.289
255.626
73.132
708.116
-781.248
-1127.45
-900.865
2028.32
-538.875
1103.6
-564.73
-470.932
-342.327
110.799
-1654.81
860.575
-863.893
-597.616
1461.51
-332.158
-294.711
626.869
356.469
-646.74
290.271
243.929
-606.77
321.295
201.552
-522.847
349.316
-606.224
618.455
-261.986
313.301
-460.693
676.614
409.007
-183.507
-388.78
-298.95
1219.86
-2.7679
-1217.09
1039.61
-419.935
560.245
410.471
-1782.37
869.819
912.548
491.46
549.936
-1041.4
-535.779
203.62
-263.052
1180.88
-917.825
-1590.89
1212.61
504.567
-1096.51
384.911
-5.67245
427.784
305.179
-732.963
372.441
-616.999
-32.5375
756.256
-723.719
-526.192
795.947
387.194
322.637
527.198
653.449
94.3105
-405.185
310.874
1058.97
-645.32
-413.645
494.013
-1664.27
1170.26
-1140.42
1753.23
-612.808
1715.82
-1123.73
-333.598
613.423
-1182.17
1266.26
425.289
-797.895
1603.48
-805.588
-261.819
-207.985
-889.889
1470.17
1812.76
-611.139
-1201.62
-404.672
648.379
-1300.98
-124.823
-48.4258
457.864
-680.929
-354.167
-1236.72
-219.688
463.617
903.561
-559.044
177.217
-1674.58
-71.2051
1745.79
-1066.18
527.309
568.458
-1182.44
613.978
901.015
911.746
630.789
619.993
687.207
241.233
-1135.23
460.111
-398.663
415.898
618.848
-515.074
244.08
-731.616
487.536
693.928
-343.768
-334.296
180.549
-603.031
240.819
362.212
-887.516
-739.144
1087.67
-2145.75
399.248
-683.362
-342.805
-724.488
834.064
579.194
-342.263
311.98
372.114
214.975
648.396
-863.37
526.919
614.551
-537.786
173.188
358.508
-615.496
-1036.05
-857.392
1893.44
-1796.93
157.253
1107.04
-1370.09
1157.2
-722.632
-434.57
-503.61
1349.81
-1495.52
627.867
867.653
-289.012
-210.596
499.608
1428.4
558.557
345.982
-476.023
-483.637
-567.666
1051.3
-419.393
597.431
1582.36
-1129.36
-453
-776.068
329.476
654.878
404.087
-1623.42
416.16
1207.26
-188.977
510.272
797.766
784.591
198.792
-687.663
488.871
207.116
209.823
-293.277
-107.728
401.005
489.893
-0.97496
-488.918
-1636.68
587.822
-1605.67
1671.86
-66.193
11.0427
-1616.71
1069.61
765.269
-337.485
-810.242
-214.992
-1134.51
-239.931
-311.259
683.7
-1812.43
-629.721
1207.81
213.615
758.273
-1330.19
-678.536
-465.432
613.056
-328.948
-1013.28
1350.76
-1932.85
582.087
646.321
1288.06
487.314
-3.45188
717.423
704.848
-1422.27
-637.6
334.706
302.894
440.814
-99.4159
-341.398
147.957
303.848
156.859
-460.706
-585.411
1149.36
461.382
-630.197
-461.866
-401.507
863.373
-327.833
168.86
-455.997
161.518
-304.674
-708.793
549.708
-108.894
-571.734
967.019
581.262
-270.1
-311.162
455.726
-779.7
-646.489
446.185
-1129.41
-837.304
1182.23
-569.762
451.279
278.856
-454.935
84.1105
1028.68
-317.679
594.548
-276.869
-509.026
1578.63
-682.05
239.583
371.529
-611.112
219.86
485.913
-28.5921
-457.321
-257.286
-198.711
1018.65
1108.94
564.799
-875.373
942.278
-66.9046
-458.845
169.833
-732.924
308.688
-591.184
323.297
370.63
826.819
-1235.31
408.494
777.155
-809.693
-948.966
-550.363
1499.33
-167.382
465.479
-547.933
258.557
1299.82
777.361
-578.569
1313.32
-686.022
487.337
-674.914
-407.157
-423.511
-378.13
801.641
502.77
-843.748
-457.11
93.7602
363.35
-323.264
572.406
728.564
-329.316
-243.918
-173.011
416.929
-489.282
138.78
350.503
1458.2
81.0896
-1539.29
-751.447
1346.97
-1144.74
-466.07
539.336
-167.807
1150.65
-373.493
1083.5
492.697
696.212
-422.832
-885.084
-522.308
-1328.44
-25.7297
985.016
-959.287
594.363
331.919
-926.282
-333.205
-212.67
-675.252
405.52
1621.19
-181.704
371.952
346.112
-718.063
-1839.77
-2106.68
1519.14
587.54
-2037.14
345.785
364.62
534.203
-898.823
-460.049
1020.29
-396.49
-671.417
1067.91
-2030.53
1391.21
639.321
597.263
-993.753
42.3699
416.749
386.232
194.779
247.576
318.532
961.883
866.122
679.346
-325.666
-353.681
-293.662
620.683
-327.021
573.075
530.367
565.42
514.75
-1080.17
-796.228
-699.292
752.203
398.444
-412.672
702.943
-1193.42
1609.58
421.253
-1092.67
-336.644
538.196
-1381.6
871.344
510.255
-713.975
-351.646
-781.937
358.82
423.118
446.985
718.323
-1165.31
1071.48
-580.016
-409.715
662.041
-252.326
255.269
325.993
-468.247
-431.785
900.032
-234.818
561.097
-954.207
393.11
-459.282
600.598
-1681.26
423.656
671.039
-1094.7
520.649
96.9372
113.407
-2212.79
538.13
-86.8508
1444.09
1777.09
-217.553
-1559.54
-438.437
1789.2
-1986.96
1194.47
792.494
401.98
346.082
-37.6445
871.708
-1283.29
718.808
-869.754
-822.646
796.916
302.118
65.1858
-367.303
232.263
187.031
-419.293
1554.09
-836.671
-1530.96
-325.43
491.461
-215.943
-275.519
394.907
366.048
251.881
361.175
-9.20895
1001.74
-992.536
376.535
283.007
-659.542
-734.057
1817.3
-1083.24
-342.255
737.161
-1218.36
-412.838
-915.323
483.538
575.45
-780.456
205.006
761.154
-380.51
-380.644
-428.894
-446.479
449.161
1080.61
1237.67
-669.215
800.877
-345.151
383.608
319.972
-243.458
-219.231
-206.7
611.384
407.609
-847.392
439.783
220.249
351.372
-571.621
-422.747
830.356
754.596
-1147.28
886.461
-59.6422
-488.859
276.538
775.864
-95.8873
1383.94
1890.5
-58.0319
342.732
-317.309
411.619
-1086.2
1076.99
628.416
375.851
385.303
77.1737
414.288
262.523
498.222
-372.04
-265.56
-564.814
-89.3321
-360.522
364.208
-3.68613
-256.749
-288.949
1011.03
-1540.69
529.66
-191.34
-179.826
-386.012
669.019
-1635.2
1591.03
-963.166
262.079
-669.236
584.313
1224.42
-1808.73
607.397
983.636
310.433
-1121.24
699.742
-286.103
-296.103
1377.2
-1446.52
827.697
618.82
426.455
-630.84
204.385
-376.246
478.321
-102.075
378.002
111.891
1723.89
457.847
-250.731
557.623
-1704.79
1147.17
-94.2051
393.745
342.404
336.942
-448.401
-615.708
1064.11
415.875
-865.713
-641.115
902.901
570.407
-514.713
-251.623
-438.812
-408.58
-307.235
-827.278
1821.12
-1821.12
-104.084
-1590.82
1694.9
292.946
282.193
-917.256
-555.325
1472.58
-408.071
973.491
-596.767
-1039.92
688.6
392.132
-1080.73
474.664
-161.363
573.061
1220.35
-1793.41
-1040.73
2114.55
-1073.82
-375.066
-296.672
-488.477
817.952
-1752.29
1601.47
150.819
1752.29
-1605.96
-146.328
-245.688
523.109
-277.421
-537.277
1620.78
1564.9
-1977.74
1086.16
-290.904
-260.39
551.295
232.678
-569.321
-699.917
287.245
1341.59
636.498
580.76
482.964
-1063.72
276.071
420.141
875.437
500.08
-1375.52
534.34
-1017.98
1574.94
-563.906
-775.202
-362.123
-127.155
489.278
-489.934
1208.26
-741.67
333.417
367.176
370.556
249.15
-619.706
603.234
831.834
-603.364
263.179
679.099
-514.713
-326.915
-235.266
562.182
1168.55
-674.051
609.651
465.967
-1075.62
-1293.22
1293.22
-386.309
762.16
-282.492
-477.688
760.18
491.219
444.176
-935.394
390.692
-673.184
609.734
-868.767
259.033
-366.984
-493.446
1074.21
-661.266
-710.377
1371.64
-376.325
937.423
-1552.7
675.27
32.3583
-419.259
386.901
-513.276
717.409
255.04
322.259
169.303
305.362
-522.567
236.464
1869.54
-1965.42
263.783
-707.89
451.416
-821.86
370.444
-914.472
1414.43
-499.957
-429.552
-485.771
600.721
1124.19
-1724.92
-714.591
339.525
-460.935
1034.01
-782.145
1045.32
-379.455
-627.26
-491.79
732.334
540.277
-358.808
907.094
-307.654
-181.628
1599.02
-1816.57
-346.285
-607.922
-338.786
477.565
266.368
-595.315
-176.576
1063.59
-787.048
204.991
-291.24
-277.35
568.59
392.617
-880.835
488.217
-485.063
-454.308
-942.082
-353.284
582.343
-229.059
-450.796
-430.362
-338.464
-184.383
-394.381
643.531
-446.115
766.087
-1072.63
624.234
-1407.07
543.182
-28.0682
-1835.83
1863.9
569.887
-449.62
1219.45
-692.145
336.005
-336.005
671.114
-441.992
1040.23
-1636.99
-1158.73
-947.947
292.315
328.367
887.808
715.675
-498.645
-302.14
800.785
1657.88
-1685.95
-434.371
344.432
224.19
1134.78
-525.125
-943.332
1550.47
-607.141
442.732
-247.953
376.463
386.681
-763.144
533.69
470.621
-1004.31
-331
664.417
-37.897
1907.43
1592.04
992.827
-1696.95
727.124
-1177.06
449.933
-492.444
1367.88
837.603
-1341.21
-563.59
272.685
800.315
-401.056
551.358
-1189.02
637.665
-636.925
-1215.54
-695.65
1911.19
-192.124
551.101
-358.977
-175.819
309.989
-502.112
329.794
368.796
-698.59
-1484.14
756.807
727.328
884.099
-1434.46
824.326
-431.471
214.507
-360.683
-595.983
269.067
-643.977
-737.623
698.614
506.173
-1204.79
388.461
-202.718
-185.743
555.987
-958.322
-570.59
-425.932
734.62
-831.291
-1155.67
-1437.96
499.633
938.324
8.36911
-640.782
343.782
297
-1315.18
1046.34
268.839
-616.615
-456.02
-665.75
921.724
398.774
-198.942
-199.832
508.194
980.657
-1488.85
977.866
-564.828
167.491
397.337
-403.993
676.115
-412.332
-506.245
167.46
234.312
-1518.79
528.884
542.592
-759.652
246.376
148.536
-456.19
366.621
-820.928
1954.16
-1195.39
-758.77
419.934
-679.462
259.528
325.881
329.663
114.832
-444.495
-570.774
194.197
263.65
-691.691
1374.34
-682.653
423.898
466.175
-1180.15
266.36
1866.78
-1013.59
-853.188
784.931
-535.74
182.456
1402.37
-975.195
-427.173
331.228
-773.22
-616.502
1725.44
610.769
626.904
322.758
-20.6401
266.4
-1138.43
1725.71
-587.281
-1763.52
820.19
1756.94
-1687.35
-69.5941
-660.375
261.711
569.456
-719.1
227.309
1402.62
-565.017
387.038
444.884
-1858.56
1420.13
556.585
-436.353
-120.232
202.842
-541.306
-284.51
-186.422
-352.7
695.105
-580.398
218.274
611.562
550.35
-1161.91
1113.63
-1947.45
833.817
156.276
338.363
-1699.05
1661.16
312.35
-735.181
-166.01
380.517
755.668
679.308
-1434.98
1077.12
-1079.89
525.493
-1105.51
-629.005
252.493
376.512
528.724
-287.906
-606.055
-1030.94
292.047
-722.409
-912.32
174.855
162.774
225.687
394.304
290.251
-684.556
-631.079
-834.005
-978.429
489.791
-1060.57
-297.603
482.707
534.463
647.768
-281.578
-124.555
-410.904
721.337
267.66
-1199.47
568.395
1309.25
-553.578
442.854
-1013.44
-390.472
157.257
399.328
1023.36
551.578
-1715.75
1611.67
1630.62
-566.287
-1064.33
1903.59
-1892.19
-11.3972
212.857
-530.166
-350.059
555.05
-767.424
-323.858
-336.516
1024.56
701.093
-1504.79
803.697
337.832
-26.1901
1625.21
-1086.7
412.648
-1239.85
464.644
-60.585
1518.79
1197.38
-470.255
-489.743
-75.0848
-269.302
736.018
-1951.55
-709.826
353.861
-532.827
178.966
192.295
-509.974
1139.91
671.554
-1811.46
-616.273
179.92
942.013
-1497.34
-210.461
678.888
-468.427
874.194
1125.81
-738.834
1349.6
613.737
-487.852
-125.885
-345.463
1173.16
1042.17
-1979.85
937.682
-1172.89
543.17
1488.75
-585.846
-389.096
-148.69
-1241.88
572.668
1160.48
-111.859
946.076
775.565
-1721.64
-205.183
578.486
-1541.72
963.233
486.966
916.665
-1403.63
621.394
586.421
395.475
-1106.65
591.879
1107.89
1216.47
-452.406
-764.061
-1186.2
-1754.93
-7.0072
-1708.75
-202.939
-427.901
1607.66
-629.265
-978.396
-490.806
1121.6
-1318.11
635.827
682.284
-1361.92
1443.01
-1330.74
591.907
1520.5
-387.99
-575.88
186.784
-1480.76
229.675
176.369
232.347
381.391
437.949
400.549
-838.499
506.301
-939.038
900.735
-1444.79
-702.097
233.86
468.237
-1044.49
459.077
-476.747
863.786
695.496
24.3892
-528.798
169.821
-886.565
-1318.74
-714.774
349.674
365.099
402.704
-722.449
319.745
-478.871
-189.267
-709.884
720.145
1539.63
-593.555
816.156
737.937
1344.79
-844.711
-971.295
-570.424
-796.403
427.569
368.834
-1036.55
-641.735
303.988
337.747
-1433.69
-296.783
-790.204
398.047
392.157
-653.868
406.968
246.901
-680.26
267.928
412.41
487.622
389.447
440.909
479.103
384.27
596.738
-969.701
682.133
467.226
453.764
356.21
-809.974
1630.76
-1079.9
-550.86
-504.512
-286.036
-1029.14
454.301
347.34
409.461
594.173
-1003.63
-1381.06
751.796
-532.365
1146.34
357.036
-53.188
411.845
-865.171
453.326
-1894.84
304.023
441.658
-726.254
284.596
-187.097
402.325
-215.228
-660.874
305.855
355.018
-673.488
319.807
370.354
391.806
612.824
-1020.9
753.013
662.037
-1415.05
438.641
625.469
340.022
392.754
-732.776
409.346
327.815
601.555
672.808
407.804
596.854
-1023.67
426.812
-1669.52
1192.71
476.81
1696.59
-539.17
620.726
-1147.09
526.365
-642.84
348.13
437.064
-934.962
497.898
755.56
-450.381
350.379
344.726
572.157
-918.442
651.378
-1252.85
601.477
377.645
734.762
-1224.7
769.546
509.503
-1279.05
486.984
405.322
-892.306
-501.644
-936.314
-299.803
629.597
352.366
541.981
-894.347
332.983
331.434
-502.178
1944.74
437.241
-847.165
409.925
-917.789
-807.254
-748.115
367.471
-1220.18
438.04
-1734.07
1605.96
128.11
1746.53
-1601.47
-145.061
-783.963
-591.874
265.664
326.21
-1756.94
1977.74
538.454
791.542
-1330
440.022
716.401
690.378
385.54
-1075.92
-73.8217
1617.13
-593.769
385.965
833.489
-649.821
326.875
322.946
-377.832
-297.53
552.799
-218.915
434.344
281.173
-666.267
385.094
264.622
-578.149
-282.511
442.377
-1033.4
591.026
538.038
1092.72
365.876
596.998
312.731
353.441
-666.172
1624.28
-923.186
1691.89
-1520.53
-171.357
-327.253
-822.91
414.33
857.546
-1068.01
-606.107
279.086
-1090.6
1628.64
-1585.19
-78.188
1663.38
-340.443
-349.42
-369.5
537.264
597.512
-501.925
-28.3429
-550.019
505.239
-282.294
-222.945
1748.41
-1299.25
-624.432
299.177
325.255
400.859
357.219
734.722
-296.065
-398.44
-1746.53
1685.95
459.434
-1100.9
641.464
-43.1979
1654.87
571.351
476.324
-1047.67
104.804
1144.85
-1452.09
-14.4992
-1880.34
227.818
-598.531
306.787
291.745
-955.445
612.64
-898.052
468.5
-1128.52
673.535
454.989
371.838
268.17
-766.814
-309.71
1216.76
886.785
699.027
-1182.96
456.096
726.862
494.269
700.842
-1195.11
-358.851
-246.189
408.963
-960.514
438.308
522.206
21.2511
-1879.82
1079.83
-470.098
-499.093
558.115
-1378.16
820.044
-427.648
798.092
-404.901
498.224
-706.783
1725.43
409.302
-183.615
217.214
-169.439
-244.295
413.734
1895.32
-504.112
-1692.28
1051.46
-602.308
304.778
-1013.69
553.64
-311.79
544.264
905.309
-1449.57
-1103.8
438.047
-20.8045
-1944.62
1711.29
-669.12
-540.719
460.656
-1190.5
729.846
191.882
206.891
-282.645
769.975
700.195
838.033
818.429
-462.218
1084.9
-478.027
476.97
-193.423
-283.547
-1923.15
-714.293
-317.358
-644.587
-6.96987
651.556
465.32
-271.122
565.189
1059.09
-804.828
924.686
1244.26
-424.864
-191.68
-226.629
418.309
959.273
-888.551
-322.178
-1067.81
611.792
1557.46
-800.657
537.629
934.952
-393.607
735.281
-341.674
1130.4
-276.793
335.834
1349.66
-705.202
-218.973
448.235
-1198.64
750.408
-992.31
-111.893
1104.2
441.795
-955.517
513.722
175.493
732.976
483.492
738.846
-90.4503
852.754
-425.389
1182.54
-797.005
552.098
-1465.45
913.354
-1216.65
1800.97
-431.712
-1510.19
879.686
-1401.99
-313.646
-419.317
1457.19
-1523.76
784.617
1491.5
201.746
275.225
-357.709
-1734.07
-290.048
-1010.28
1575.47
-1767.09
1767.09
1564.9
-1004.48
-634.098
-341.359
368.291
605.201
-371.714
-365.367
-1389.84
897.398
1125.15
600.565
1202.77
1789.48
-1216.42
-613.053
271.896
1658.99
-1916.45
257.466
814.532
-1267.53
1545.24
-561.606
784.41
319.195
-345.678
554.77
795.036
672.374
1355.94
-229.026
-444.725
-366.479
497.733
-342.204
471.695
736.562
-301.666
-142.828
-333.28
568.517
-235.237
28.2918
-371.109
1107.46
-1720.27
-441.175
-489.701
-568.098
863.775
693.689
-1596.5
904.805
-451.424
-622.541
-513.868
1252
340.155
1723.69
-1702.44
-1657.88
1892.19
-1560.83
840.294
720.534
-378.483
-1796.11
917.682
583.123
819.497
-393.85
1794.29
-680.657
-415.87
680.183
432.115
-1112.3
-1100.03
444.047
753.332
-1617.18
473.176
901.167
176.351
-399.758
223.408
-1596.32
-384.783
-433.086
990.303
-673.488
1442.94
-979.422
1853.62
239.863
-539.601
495.661
-293.916
474.298
893.583
543.089
977.41
-462.617
-427.72
573.917
883.274
-1392.71
-40.9881
1573.54
-835.604
519.939
971.557
-1475.81
-1115.9
1771.32
-1242.13
-529.193
1206.1
-318.983
-887.12
-191.765
452.794
-261.029
-457.107
-248.761
429.056
-180.295
144.528
-390.717
1730.54
-1737.55
-460.87
-530.833
-903.628
442.496
-206.578
-235.918
635.677
-459.571
-359.145
-317.838
676.983
-928.079
385.621
-1167.3
676.498
416.214
-636.42
-437.838
1576.23
-860.551
530.178
-457.703
-570.988
-462.414
373.384
-363.606
-9.7786
-1104.5
412.351
-664.74
-1033.66
1698.4
-601.635
-1423.42
713.047
562.178
-1596.25
1034.08
-393.424
-475.899
152.602
534.605
-1258.35
744.486
539.215
1006.03
-2133.18
999.989
1133.19
-366.451
420.689
-395.788
-24.9006
1478.04
-372.293
449.306
1211.39
582.178
906.569
567.769
527.353
-1095.12
164.668
-443.134
-1687.35
253.175
1127.58
-615.718
518.468
1013.77
-1532.23
1092.86
-1643.72
189.682
696.78
548.732
-870.91
-1086.53
-173.52
429.817
-256.297
-587.155
-432.158
-636.833
-629.641
346.996
-1618.74
939.724
-476.665
213.336
-396.952
533.901
-306.083
-608.121
1197.15
-1276.95
923.62
353.335
-1020.58
-372.522
-758.073
-825.111
1688.89
-476.786
1793.56
-1582.52
-211.034
-1556.63
1018.74
537.9
-726.204
-263.762
445.841
-182.079
-593.34
383.094
273.723
-656.817
-523.853
989.964
629.537
-350.451
-1620.28
1050.52
571.76
1103.55
-1675.31
-416.895
-291.187
-369.686
-745.235
-474.788
-329.592
498.894
1557.99
-995.807
-775.226
1497.45
659.395
-314.963
725.88
1152.37
-1878.25
293.937
309.875
-487.06
-1932.22
1719.86
212.361
737.94
-474.056
-263.884
531.822
1060.84
-1592.66
373.384
-1723.25
-233.209
1752.35
-1580.7
1073.78
506.912
-1723.7
0.450815
-521.576
420.689
1699.05
-1719.86
939.678
624.529
-1564.21
385.227
-218.315
-166.912
-414.586
-265.674
69.8597
95.1064
-358.868
-429.774
-438.993
-405.106
218.008
1510.24
378.824
-215.829
-438.04
462.078
-198.428
323.716
1510.77
996.042
-153.552
-842.49
-1104.1
1704.83
-1728.77
1064.03
-707.156
-1021.61
-1265.09
1844.99
-579.901
1155.07
-1771.14
616.073
272.321
-878.17
1675.7
43.4478
-1719.15
-491.153
-1083.07
-1730.54
-982.048
554.328
1019.62
590.218
1133.04
-1723.26
281.321
-449.128
703.394
-383.587
382.128
924.848
680.702
-381.547
-642.119
582.884
1072.56
-1655.45
-401.283
-367.931
769.214
431.686
-1661.16
1520.53
140.623
582.928
-1043.86
544.741
1083.9
-1555.68
994.073
-237.696
228.404
326.646
1903.59
433.653
-75.4094
995.863
722.751
-1718.61
-697.349
1085.36
-1557.52
164.974
-571.578
197.94
264.138
-659.115
-561.07
582.488
1034.64
-711.209
-277.672
-1368.42
675.584
692.838
-413.038
762.562
64.9595
-827.522
561.648
-137.155
1557.28
-213.223
272.383
-771.965
-1932.22
1664.62
1030.36
389.287
303.384
452.176
-930.029
-993.117
-1767.27
635.587
1693.77
508.098
-474.234
1210.8
1087.13
-424.804
1030
-978.052
492.331
485.72
700.224
1047.93
-1748.16
484.303
482.715
-1494
-746.463
32.5417
779.898
-412.427
-885.755
386.662
-538.83
-802.383
643.843
-577.261
1397.31
1055.14
195.617
234.2
-550.607
1618.53
-772.741
1525.75
-1727.83
575.247
1152.58
543.063
-882.776
-1732.76
1916.45
-183.698
1721.74
181.672
-543.924
373.85
-278.744
-481.342
1211.19
568.267
1128.32
-491.157
430.347
857.654
-461.081
-772.455
427.686
344.768
1418.85
1089.6
-518.17
1422.98
-510.547
-533.549
1044.1
-602.746
478.11
-1200.74
1691.89
1839.58
-687.211
1585.65
-645.975
-1241.25
717.401
-562.452
205.642
-396.675
454.725
-244.902
-520.014
-1246.71
1870.94
-624.231
1173.23
-552.503
1120.29
-1659.46
1694.96
-573.927
-545.614
-549.813
1720.07
-317.045
-688.026
-473.255
1223.66
-1684.35
-1860.1
613.393
301.866
-934.377
168.027
213.367
-1719.03
1204.16
514.871
1162.86
558.887
-511.705
-465.327
1192.19
178.765
223.56
588.444
1251.14
-539.175
-1238.58
1777.76
-1025.38
999.991
866.79
-204.116
-1658.99
1702.44
-510.053
1411.22
-1732.76
-355.846
15.9787
339.867
-261.022
584.472
-323.45
78.5395
487.759
780.799
-378.096
1257.53
1270.86
-413.315
851.881
-437.551
1817.45
-662.376
1586.53
-1723.69
-412.788
-748.817
307.096
441.72
-559.741
-563.282
79.7156
-1138.77
-985.473
-669.725
1655.2
-943.707
-1189.47
159.209
-419.599
-648.353
705.626
1167.45
650
1410.25
-590.754
1636.75
1317.99
-573.507
-490.721
196.805
-503.258
1396.84
1239.99
-564.405
-999.989
892.953
55.1826
-948.135
603.437
-506.11
1403.51
1495.03
-588.466
-381.781
381.781
-589.414
1623.49
1239.49
-486.162
1134.16
-70.0252
1850.22
-389.63
1489.43
-588.692
-507.657
1347.95
-652.408
1218.46
-566.052
1554.79
-591.552
751.479
574.401
-1325.88
-654.584
280.333
497.029
600.18
-1957.3
-989.469
1586.53
382.516
-382.516
-67.1234
387.848
436.478
388.7
-10.6979
-342.639
898.354
-520.709
-425.928
813.776
-243.202
619.713
-431.758
1546.78
-444.323
-884.116
186.422
224.06
-410.482
601.167
1250.78
-1851.94
926.897
-458.397
-363.606
126.152
-1943.01
1816.86
-449.176
180.343
1181.25
-440.411
-740.842
-301.66
-584.095
-492.689
-395.788
-479.072
256.127
1158.09
-560.577
229.266
-377.747
148.481
-22.4039
-107.67
1376.08
-1268.41
34.4488
-599.262
-586.386
-460.568
460.568
-1262.36
1985.11
-1344.39
-213.207
-1823.59
241.068
-1025.75
-974.242
-185.359
-1637.78
707.748
1229.32
-1924.97
368.328
312.611
-680.939
-1850.01
1234.27
615.741
-564.77
564.77
-959.191
-39.8794
-1866.05
-558.137
1650.86
-677.215
1636.16
-601.522
-176.334
-1704.01
-583.645
-445.433
-594.793
-473.651
473.651
-1537.81
194.526
1343.28
173.76
224.285
-398.045
487.225
508.817
996.944
-474.738
1751.3
768.713
-427.655
402.755
520.821
1702.05
-594.589
-552.958
1636.86
469.837
1812.74
-645.29
-1803.96
-1938.08
-646.949
-484.918
484.918
-590.71
224.231
-691.849
1019.37
-465.733
-1072.6
-287.659
1579.58
1852.3
1635.34
-1635.34
-274.035
739.555
1761.49
595.785
1275.15
175.583
209.644
579.184
591.251
1603.53
-1603.53
222.111
-354.121
-434.988
459.755
951.127
-458.795
-639.706
-1131.01
1706.26
280.118
-1651.7
611.784
-287.234
468.906
1744.64
-592.057
-214.865
-417.547
379.938
727.953
1738.57
-613.418
-511.762
-773.671
1960.53
-870.453
-1090.08
1642.78
-705.928
1223.97
-1824.94
600.969
337.078
-876.679
-185.981
-110.065
1098.21
-486.423
132.229
618.485
-1649.42
436.137
611.352
-1803.96
-583.273
1787.43
884.226
-1162.92
1760.49
-597.563
1783.83
-575.524
-1208.31
437.202
926.181
-1737.55
924.767
-1494.51
265.837
1228.68
-831.057
-1254.23
-385.527
77.6244
307.903
581.718
269.262
1027.71
-443.304
845.998
-402.694
820.986
738.844
-1559.83
643.832
1066.27
-24.5084
-663.87
688.378
-1744.3
722.689
700.878
150.524
-1122.69
1936.75
-674.548
-1262.21
-537.173
1665.5
830.526
964.324
-1794.85
1227.87
683.321
-404.085
709.94
829.452
1028.17
-586.376
1761.49
626.661
1773.56
-1185.62
-587.937
-380.081
-333.215
713.295
121.434
-1185.7
1660.55
-540.264
-1437.84
1437.84
1250.57
594.414
1351.57
206.42
-561.745
280.086
-188.912
699.071
1113.67
479.384
-300.619
-870.178
-574.614
1737.1
-1737.1
1011.39
-1011.39
987.33
1025.17
-2012.5
1837.94
-613.969
-581.105
825.41
-947.849
-1052.16
998.334
690.593
-1688.93
-521.899
-350.891
-642.861
-808.422
2042.69
-1246.42
-613.679
1002.97
974.851
1289.77
646.985
325.562
1012.68
227.488
337.495
1186.29
1756.87
-1756.87
671.997
80.1789
-391.341
-997.052
-539.988
1674.15
990.596
1009.4
-1833.28
-223.059
-360.586
606.657
-353.483