/*--------------------------------*- C++ -*----------------------------------*\
  =========                 |
  \\      /  F ield         | OpenFOAM: The Open Source CFD Toolbox
   \\    /   O peration     | Website:  https://openfoam.org
    \\  /    A nd           | Version:  7
     \\/     M anipulation  |
\*---------------------------------------------------------------------------*/
FoamFile
{
    version     2.0;
    format      ascii;
    class       surfaceScalarField;
    location    "22";
    object      phi;
}
// * * * * * * * * * * * * * * * * * * * * * * * * * * * * * * * * * * * * * //

dimensions      [0 3 -1 0 0 0 0];

internalField   nonuniform List<scalar> 
172549
(
201.463
52.4468
-253.909
-473.771
101.999
371.772
-111.102
-78.6909
189.793
113.449
-278.799
165.35
-435.361
323.686
111.675
138.147
-337.189
199.042
-156.369
283.086
-126.717
-83.439
190.136
-106.697
-363.391
351.975
11.4163
-465.115
-8.65579
-229.996
354.508
-124.512
494.976
-360.241
-134.735
-170.084
341.24
-171.156
92.6153
-93.966
1.35076
-43.9495
-319.441
-109.668
64.2086
45.4592
-456.087
86.444
369.643
-411.606
76.9963
334.61
-131.982
286.106
-154.123
-331.958
-103.403
-75.1608
178.096
-102.935
199.545
-197.469
-2.07549
392.859
-290.334
-102.524
160.579
-313.896
153.317
-247.154
212.51
34.6432
-114.586
219.569
-104.983
65.632
73.9814
-139.613
-206.929
459.264
-252.335
-263.259
-175.891
439.15
-57.6983
96.9943
-39.296
427.83
-342.042
-85.7885
-241.297
-67.6853
308.983
-268.044
404.779
-136.735
-101.264
-76.8917
178.156
-93.161
-92.9328
186.094
182.208
95.597
-277.805
-217.224
81.0224
136.201
-99.6388
-356.448
115.862
-140.572
24.7102
106.304
204.416
-310.72
155.942
-397.239
-57.5682
-354.038
-130.51
-37.4902
168.001
-119.201
301.409
-42.6294
104.3
-61.6704
-2.65638
95.2716
265.075
63.8668
-328.942
542.5
-302.778
-239.722
397.561
-147.602
-249.958
414.119
-534.058
119.938
-390.723
478.203
-87.4803
280.205
-101.841
-178.364
-467.055
325.226
141.829
-504.396
451
53.396
-118.354
-166.829
285.183
-312.101
-154.954
548.823
-361.892
-186.931
-134.498
81.2694
53.229
82.1612
75.4974
-157.659
129.512
-230.913
101.401
-515.364
327.459
187.905
-186.295
331.722
-145.427
346.099
-129.43
-216.669
-106.122
187.096
-80.9738
295.894
87.1713
-383.066
9.40324
-401.09
391.687
-351.842
196.937
154.905
-215.811
393.554
-177.743
74.8743
-145.215
70.3402
-530.14
251.957
278.182
-110.173
195.044
-84.8711
194.195
-145.787
-48.4077
361.568
-255.263
-137.414
69.1478
68.2662
-89.5014
-93.2516
182.753
82.0041
-166.509
84.5048
-200.261
47.56
152.701
202.285
-403.078
200.792
-257.137
-128.078
385.215
-285.234
212.118
73.116
-75.6579
-209.576
429.78
-432.778
2.9985
45.8498
-84.8744
39.0245
-303.999
554.058
-250.059
-137.556
241.14
-103.584
342.482
152.494
-110.829
179.093
-68.2637
-324.471
472.876
-148.405
106.615
-119.598
12.9835
-86.6932
441.522
-354.829
128.933
-1.4792
-127.454
203.096
-19.976
-183.119
206.533
-469.792
221.517
50.0876
-271.604
-420.631
315.278
105.353
-574.898
416.844
158.055
262.007
-321.853
59.8463
96.4491
-50.5993
84.1543
-156.163
72.0088
-0.139127
106.754
-314.466
-200.898
197.106
-430.871
233.765
327.695
-179.213
-148.482
-484.969
498.836
-13.867
95.1978
-205.371
166.684
-87.5881
-79.0954
-502.194
308.065
194.129
-34.2196
100.541
-66.3215
-144.44
225.458
-81.0188
-311.334
-71.1398
382.474
-119.291
226.116
-106.824
-54.6637
316.671
-170.366
-29.8943
135.977
105.349
-241.327
-123.416
47.3354
76.0803
205.86
-345.726
139.866
-307.603
77.6064
-84.7619
208.951
-124.189
364.002
-541.571
177.569
51.0019
143.193
-200.799
116.037
-69.5678
-40.1001
-224.121
114.923
109.198
45.3406
-166.181
120.841
-230.662
532.607
-301.945
-107.639
49.9411
-265.459
79.1638
-119.399
66.3395
53.0593
-181.202
-41.7128
222.915
-502.016
504.663
-2.64672
-102.437
230.426
-127.99
567.132
-287.737
-279.395
-165.66
175.77
-10.11
538.937
-196.455
-329.442
480.85
-151.408
-130.375
227.043
-96.668
-266.044
192.688
73.3557
61.0983
-329.142
148.734
-267.088
182.761
148.962
74.0007
49.6076
-123.608
-190.104
340.989
-150.885
502.981
-504.54
1.55905
374.694
-195.771
-178.922
-261.312
158.876
141.961
-532.684
436.928
-329.312
-107.616
-116.162
-149.296
-446.178
230.367
-226.943
-167.19
394.133
109.689
56.995
53.5765
-96.2059
7.37248
195.723
-567.955
273.278
294.677
133.298
146.907
-357.882
426.122
-68.2405
-412.194
100.86
-65.8457
214.185
-148.339
134.428
-134.574
0.146126
-151.096
106.446
44.6498
152.311
-70.3071
138.733
298.195
158.398
187.701
-186.958
148.369
38.5895
264.336
-145.392
-118.944
139.913
173.508
-313.42
440.014
-255.082
-184.931
-57.4837
-108.475
165.959
-184.554
118.708
-242.322
125.821
116.501
-242.21
157.598
84.6126
-100.042
365.118
-99.337
-22.8541
122.191
26.5934
64.2699
-90.8633
-68.3693
-85.3487
153.718
216.572
-431.476
214.903
-75.6979
102.291
194.168
85.4858
-279.653
116.332
-333.041
216.71
277.688
119.873
-286.219
-132.119
418.339
-189.245
99.7431
133.025
-253.169
120.144
-203.041
409.409
-206.368
-263.239
-238.954
-162.437
384.886
-222.449
95.1724
-262.154
166.981
311.115
188.885
-132.549
320.937
-188.388
124.691
4.24146
-105.826
299.994
-338.735
189.989
148.746
450.658
-154.38
-296.278
-204.843
116.429
88.4135
-226.131
111.545
74.4996
-129.89
55.3907
21.0818
-96.7797
-173.527
164.37
9.15644
57.6802
-148.794
91.114
79.738
139.574
-219.312
-563.237
383.835
179.402
-201.664
361.672
-160.008
359.737
57.8514
-417.589
481.28
-479.311
-1.96913
-338.988
169.07
169.919
137.284
-92.6731
-44.6111
370.02
-271.501
-98.5186
-87.2921
383.186
-210.132
-195.236
405.368
100.517
-207.337
106.82
-72.0178
93.0996
36.3913
271.674
11.6052
-258.759
-384.203
297.51
-160.424
-66.6773
227.102
-87.2478
-117.595
-98.5773
247.242
-148.665
-184.43
-135.19
319.62
82.4443
-85.1007
-123.572
-261.473
385.044
133.997
5.77927
-139.776
137.16
-1.8656
-135.294
136.432
-329.865
193.433
-76.476
140.697
-64.2212
-73.5435
-430.852
-191.58
30.8322
160.747
-197.377
-83.0638
280.441
186.554
-68.5175
-118.036
137.273
-62.7736
-352.955
93.8318
259.123
-0.67564
-409.438
410.114
66.7219
-118.746
52.024
45.9899
-119.03
73.04
86.4978
-177.383
90.885
-232.283
122.389
109.893
-224.997
-338.24
-641.778
285.45
356.327
392.16
-205.573
-186.586
-52.0677
159.338
-107.27
240.088
-166.56
-73.5279
-40.4012
144.995
-104.594
-291.325
162.327
128.998
-112.398
-38.6982
147.138
-62.984
278.424
-217.411
-61.0138
-235.02
407.585
-172.565
440.452
-217.321
-223.132
136.435
-87.6372
-48.7981
-162.148
104.664
-63.3839
-35.7626
99.1465
209.52
275.946
-485.466
-370.709
241.195
129.514
224.422
-525.503
301.082
387.382
-237.097
-150.285
121.736
-88.4151
-33.321
-4.82265
-281.397
-72.3184
172.568
-100.25
-557.954
297.422
260.533
503.653
-503.653
-182.595
99.1563
369.052
-373.875
-4.106
86.5503
-472.652
269.611
-125.224
115.498
9.72619
38.4699
-182.91
258.39
-144.94
-101.745
147.085
179.709
-280.139
100.43
101.089
93.7022
-194.792
-97.1458
201.028
-103.882
415.212
-131.523
-283.689
-323.012
190.463
427.793
-150.105
-218.62
-72.7051
141.42
177.953
-319.373
-189.887
104.159
85.7277
42.1167
-100.002
57.8851
-169.385
101.016
-249.052
297.856
-48.8037
79.3282
-113.548
-123.353
-63.6055
97.2222
184.684
-404.807
220.123
69.3862
67.898
456.542
-254.394
-202.148
173.123
204.55
-377.673
52.4217
-244.001
492.581
-502.438
9.85739
117.378
-66.8558
-50.5221
101.242
-144.268
43.0263
109.458
-67.3409
-500.32
66.1268
434.193
-164.785
29.5236
135.262
359.6
-323.208
-258.673
409.62
-150.947
-477.49
301.899
175.591
364.455
-244.498
-119.956
-136.423
-210.846
347.268
-162.106
345.184
-183.078
-223.666
126.52
-72.2715
-22.9589
95.2304
106.897
-192.345
85.448
-58.7918
133.128
-74.3362
309.619
-193.099
-116.52
82.9548
42.0729
-125.028
-125.672
274.287
-148.615
-250.066
161.575
88.4918
113.669
72.8848
90.1904
-118.404
28.2132
-170.429
286.761
-91.8826
-187.866
279.749
113.302
18.8923
-132.194
-91.0043
149.828
-58.8236
-151.748
99.6806
-330.492
160.408
-181.149
346.163
-165.014
348.158
102.5
177.391
-412.411
273.321
-112.742
-175.551
120.173
55.378
-6.15251
-173.331
179.484
262.799
-386.371
-58.8439
418.581
-33.2943
-90.1214
177.851
69.7924
-247.643
-144.599
60.6175
83.9811
-366.773
8.89085
192.487
-405.854
213.367
29.8701
-102.142
-148.198
-16.5874
194.48
-286.363
-432.873
-67.447
141.563
229.581
-371.144
219.099
145.355
140.506
-63.384
-77.1218
172.9
101.634
-274.533
-249.134
162.477
86.6577
80.343
-357.612
277.269
353.04
-214.892
243.564
-148.392
85.1928
107.598
-192.791
-129.395
262.601
-133.206
127.425
-61.793
92.7048
-183.093
90.3886
266.586
-88.7611
-177.825
-169.809
-213.15
382.96
-174.553
-74.4996
-83.0539
-21.3622
104.416
81.1041
48.434
-129.538
320.609
-174.116
-146.493
-202.822
37.1628
-504.407
345.836
158.571
362.508
6.54394
170.759
-290.685
119.926
183.635
-103.897
183.464
87.6191
-271.083
-46.3161
247.779
-105.321
-299.561
404.882
-171.089
388.674
-217.585
-114.421
259.258
-144.837
-169.469
274.557
-105.088
146.135
-96.006
-50.1285
-150.883
-66.3409
-154.857
88.0842
66.7729
265.538
-152.229
-113.309
-438.082
332.761
-161.726
164.496
-2.77002
-186.835
110.839
75.9966
304.099
-167.667
-168.962
473.042
-304.08
191.503
-87.0233
-104.48
68.5266
74.5225
-143.049
73.8509
62.5844
25.6828
229.94
-255.623
92.0114
102.317
-194.328
62.2057
305.917
-368.123
146.546
510.412
-96.2929
226.09
95.6372
-321.727
-137.04
294.182
-157.143
136.948
-70.2261
213.547
-120.434
-93.1128
-78.8687
202.358
-123.49
135.228
-249.649
394.633
-221.51
-371.335
369.345
1.99054
128.495
-82.5047
-57.7911
-40.4554
98.2465
488.428
-164.742
-66.0596
182.005
-115.945
-225.336
420.723
-195.387
266.015
177.973
-443.988
67.8979
-178.727
-451.692
244.763
-20.9578
158.118
-324.996
187.756
137.24
0.515939
89.6745
-316.567
-131.869
448.436
267.979
159.814
-76.6863
-84.0589
160.745
98.9845
1.14545
-100.13
-242.503
354.839
-112.336
111.329
-110.673
-0.655905
-153.205
383.261
-230.056
-122.255
122.132
0.122176
55.8536
117.916
-173.77
142.048
-471.49
-171.029
261.838
-90.8083
-96.4545
243.618
-147.164
-133.778
198.263
-64.4851
254.574
-160.721
-93.8535
-274.884
87.0176
237.624
-407.433
-39.0041
214.109
-175.105
-226.136
88.5799
197.125
100.731
381.516
-113.537
73.6786
-127.707
54.0285
353.325
69.9302
-423.255
-196.916
405.148
-208.231
-232.838
-267.159
22.8
-94.8178
601.475
-379.257
-222.218
-48.3847
129.098
-80.7135
-148.29
57.2855
295.951
-385.367
89.4163
-131.453
187.307
-391.912
373.996
17.916
326.624
222.2
147.597
157.522
-305.118
-504.347
382.442
121.905
-352.603
426.18
-73.5762
-99.3183
253.08
-153.762
181.51
-67.8409
129.728
179.89
125.078
-296.108
-126.407
267.273
-140.866
382.774
218.701
336.285
-330.422
-5.86297
325.162
-529.534
204.372
341.586
-139.301
-101.922
-400.094
60.2119
-212.734
152.522
80.5335
-157.22
357.467
99.0746
174.613
-79.9448
-94.6682
238.281
169.304
134.609
233.679
-368.287
-106.081
372.096
408.748
-192.176
-398.004
6.37029
391.633
-291.2
-180.977
472.177
421.535
-291.844
-129.692
489.393
-249.115
-240.278
-67.2141
-94.9339
-60.4512
273.101
-212.65
61.0267
77.3443
-138.371
84.8391
-142.946
58.1064
156.411
150.702
-307.113
-185.595
31.4062
154.188
25.785
85.5437
412.032
-173.75
374.962
113.466
-275.639
-136.527
412.166
-32.6131
145.915
-170.675
95.5143
-160.651
-219.971
380.622
-25.2203
89.4903
-38.0651
-147.529
166.338
-457.538
197.717
-36.2356
-56.5022
92.7378
218.809
-59.4705
-92.024
-45.3899
-257.048
130.64
-100.73
278.58
-324.718
499.957
-175.24
261.356
-422.007
394.06
-196.954
104.85
191.485
-296.335
-137.51
71.7788
65.7312
-367.32
488.64
-121.319
307.411
-227.068
554.298
-227.385
-326.913
114.134
104.674
358.817
-116.83
-241.988
-271.819
434.533
-162.713
135.963
-238.745
102.782
-171.691
31.8168
139.874
-148.967
-74.6986
141.401
-388.56
247.158
11.2356
-120.422
109.187
454.839
-199.231
-255.608
301.795
-472.495
170.699
-227.699
188.695
89.4895
102.014
103.729
-4.69034
-99.0389
254.053
-118.075
250.299
141.861
323.077
-180.563
-142.513
-327.026
217.534
109.492
-489.903
390.98
98.923
185.07
-98.5721
-112.953
183.394
-70.4401
-176.541
-73.5257
343.416
-47.4651
120.181
10.3346
-130.515
-117.387
202.58
-126.26
85.8589
-524.273
358.741
165.531
311.752
-140.993
226.729
160.653
160.985
-398.082
-474.612
238.096
236.516
-245.979
159.901
86.0784
112.331
-39.568
-72.7627
-218.971
-203.146
422.117
100.577
142.846
-243.423
-407.098
282.6
124.498
-272.258
-134.84
-561.2
373.248
187.952
-280.509
103.969
585.826
-299.712
-286.114
-147.767
-177.718
325.485
-133.451
138.71
-5.25875
-166.134
275.117
-108.983
-254.812
155.494
-413.726
315.944
97.7824
101.775
89.5627
-191.337
-369.096
194.952
174.144
-111.491
-130.719
143.564
-103.822
-39.7415
276.548
104.968
573.969
-316.412
-257.557
253.319
-519.76
266.441
57.3757
-119.582
62.206
98.1752
5.55409
-61.4448
146.946
-85.5017
272.972
300.997
73.1884
-174.453
-283.165
153.77
119.078
-44.2041
112.146
153.392
347.268
82.5114
109.651
71.8583
42.349
-187.87
145.521
365.263
-514.237
148.974
-60.8851
326.096
-265.211
-34.4275
119.267
174.576
379.722
-147.502
359
-211.498
60.174
-160.766
100.592
-340.945
-300.832
-67.2657
-33.6397
100.905
6.94543
-140.397
-108.018
119.254
178.153
-85.4485
180.003
-327.77
-140.472
81.276
59.1958
-351.767
-87.7662
439.533
-338.282
521.85
-183.567
109.112
-370.354
261.241
46.2081
-133.333
87.1248
-105.532
-247.423
283.185
115.318
-398.503
173.871
-113.66
250.849
-141.235
-109.615
549.325
-182.579
-366.747
-367.31
51.0094
316.301
331.676
90.6859
-422.361
-474.984
494.734
-19.75
-146.118
-78.0035
-91.4262
192.516
142.302
180.774
247.24
-530.398
283.157
376.824
-367.421
457.76
-174.576
552.877
-298.761
-254.116
-223.961
245.799
-21.8373
-51.7074
171.888
-83.1318
-259.787
342.918
56.7755
446.877
-63.8868
-87.8615
139.803
-78.7768
313.887
-157.476
132.961
55.1267
-188.088
166.664
-227.115
-64.6239
-97.5713
162.195
552.666
-552.666
-7.31816
-114.936
281.528
-169.251
-112.277
-306.344
-171.146
-161.809
94.5945
-366.031
-118.938
-66.8646
135.391
208.362
-299.022
178.199
120.823
6.44078
-398.353
128.264
98.638
-226.902
85.7083
115.32
121.102
-47.1013
-65.4936
-301.816
65.3903
-238.646
173.255
-4.46804
-393.535
-298.428
150.926
-131.954
-184.309
316.264
106.653
245.929
-352.582
-328.361
500.851
-172.491
-84.9772
-40.2471
-67.1708
103.991
-36.8199
-101.207
182.623
-81.4158
228.012
169.129
-397.141
313.02
-208.17
406.013
-186.914
-304.338
-200.009
138.602
-270.584
-174.219
81.0582
-412.927
308.1
104.827
84.0105
-435.777
89.7246
145.229
-234.954
-222.325
-152.962
375.287
43.203
-101.995
120.33
-152.943
-111.137
-223.431
334.568
-301.824
240.939
-97.2343
-55.1801
152.414
-188.14
106.251
81.8889
358.164
-517.163
159
317.645
-209.521
-108.124
154.315
286.137
95.5234
75.962
-171.485
387.24
-160.511
146.879
-514.2
247.554
-182.164
154.181
163.464
-64.6922
-348.235
213.446
-372.66
159.214
407.267
-235.354
-171.913
74.9188
-260.527
185.609
-229.028
-10.1246
239.152
58.4039
-152.765
94.3607
84.7293
-162.414
77.6852
193.522
212.491
-48.0247
147.009
-334.195
418.206
135.77
234.119
-369.889
-103.705
309.565
75.3166
103.772
-179.089
41.7742
-314.693
272.919
-140.342
147.287
278.696
-457.912
179.216
-89.7675
222.729
276.468
-455.249
196.576
-108.483
-3.18245
111.665
34.3378
120.407
-154.745
225.304
229.536
-111.144
186.461
339.982
-28.4863
-311.496
-124.021
444.718
-320.697
101.92
290.939
45.1593
227.941
314.459
133.029
-447.488
328.408
-267.748
-60.66
-32.4912
-129.234
-207.411
77.0362
-80.4282
-30.3221
110.75
12.7072
-93.1353
-310.285
173.245
-75.4737
-170.981
246.455
203.854
113.078
-316.931
-222.593
-47.6246
270.217
-152.787
88.8999
81.3102
-182.517
-83.9711
-318.669
402.64
-74.721
-143.899
517.478
-238.782
-72.108
70.1916
56.4502
-126.642
-180.539
78.0142
102.525
75.4929
-93.285
17.7922
105.842
173.181
-279.023
-188.349
107.769
80.5792
-134.553
318.017
-96.0988
-122.648
218.747
-323.791
-206.348
-242.321
129.756
112.565
-229.282
527.005
-297.723
438.181
-296.779
-72.3409
-95.2013
167.542
-77.7021
107.572
-184.424
323.292
-138.868
-119.398
266.583
-147.186
162.917
-66.0968
-96.8198
-250.186
359.298
142.982
-85.8428
-57.139
-274.201
280.116
-5.91432
-272.136
115.767
197.614
8.57096
-206.185
-194.928
382.074
-187.146
127.565
-62.3629
-65.2024
226.204
-465.277
239.073
-497.834
173.363
165.613
-31.6162
-141.414
1.07199
-190.9
90.5964
100.304
-149.074
362.521
141.54
-81.3656
80.9376
-415.133
-46.3898
-60.1214
106.511
-105.509
-509.24
357.378
151.862
248.465
79.9421
-305.635
-160.821
466.456
-78.6958
298.803
90.8313
-139.216
-56.2542
-133.633
-231.743
-241.305
473.048
-197.715
-242.988
440.702
-279.81
266.913
12.8969
312.719
-250.513
-298.228
-206.179
340.84
-509.802
95.0859
98.0972
-193.183
-383.349
211.845
171.504
157.904
217.058
-79.5753
144.312
-64.7369
-330.361
526.171
-195.81
-183.425
131.71
51.7151
-133.441
54.4151
79.0262
57.2262
-124.397
-63.8428
395.518
89.7926
61.4123
-151.205
499.073
-184.614
-127.923
260.948
-318.775
156.668
-287.054
287.054
-144.884
234.609
-548.816
281.55
267.266
-251.929
-89.881
341.81
187.546
-145.197
-113.173
127.26
-14.0877
-244.421
74.9521
123.333
-483.575
46.0447
71.3332
-130.761
-315.226
445.987
-232.48
368.25
-243.484
144.907
501.368
-246.517
-254.85
-191.501
-37.527
148.636
-327.849
-568.391
398.449
169.942
-284.473
-157.83
-204.03
37.9444
166.085
-39.9116
-115.02
154.932
135.618
118.434
-82.2735
117.718
-35.4445
-2.77376
76.658
-73.8842
223.217
-222.259
-0.958314
212.903
-337.849
124.946
57.7749
-170.728
-72.4278
-155.272
105.973
-200.667
94.6942
-393.401
-261.652
327.906
-66.2544
85.282
42.2833
-8.83903
-134.007
142.846
-150.055
-201.786
155.667
-386.641
230.973
-174.595
102.254
86.387
50.7406
-137.128
40.58
-137.814
-152.302
232.578
-80.2762
150.558
108.227
-258.785
-152.606
-285.797
438.403
171.129
-421.713
250.584
103.441
-154.31
50.8686
-540.729
308.917
231.811
464.981
-323.401
-141.58
-501.517
176.8
-121.456
114.138
-70.1035
-100.572
301.746
-407.827
-344.518
-130.094
-171.259
-127.763
-380.765
155.948
224.817
-210.318
135.597
-46.3428
307.35
-261.007
-94.0267
-242.101
130.61
169.654
99.7819
-269.436
258.813
-454.484
195.671
194.662
-94.1454
-315.68
106.159
224.71
-95.1974
-327.578
-112.14
439.718
383.549
-227.881
-331.873
336.496
-4.62321
-69.7159
124.301
-54.5847
-380.106
166.956
-312.543
126.46
186.082
134.426
-134.426
-194.886
-256.111
450.997
471.544
-390.607
66.3823
-263.759
4.00948
335.973
335.779
213.547
-236.405
-47.2209
283.626
128.491
6.18427
-134.675
-73.9739
140.778
-66.8043
-179.914
107.97
71.9435
-323.009
-244.946
-158.502
93.8785
116.813
-46.6218
-272.611
-302.287
-146.341
84.8961
132.265
208.975
75.4151
33.7851
-109.2
-41.6687
129.014
-87.3457
379.72
173.158
-165.634
-114.875
-336.3
-172.94
-156.065
-101.087
257.151
-69.368
-272.714
342.082
-340.724
178.97
161.754
-91.784
-104.368
196.152
337.837
-505.044
167.207
209.191
-354.642
145.451
231.541
-410.189
178.649
-82.3418
-52.1566
-238.051
165.624
166.667
-395.091
228.425
-139.914
100.002
-379.11
177.446
-205.079
362.982
-67.7038
136.027
-68.323
87.6003
-135.733
48.133
30.0298
-93.4137
-153.954
366.857
483.496
-465.544
-17.9517
-95.6105
141.819
-78.5033
137.295
-58.7916
260.916
-455.802
-58.5414
160.532
-101.99
-149.391
289.303
390.875
-507.236
116.361
226.279
74.3518
-300.631
54.4806
-102.726
48.245
-34.0674
109.56
58.8121
35.9883
-94.8003
-39.3749
141.509
-102.134
-10.7991
161.235
-150.436
177.807
-71.8339
386.665
-136.366
-66.3422
268.097
-201.754
-303.718
-48.8855
182.333
-100.571
-81.7623
192.095
-296.555
104.46
-239.908
-147.135
387.042
-79.9899
167.59
-272.053
158.143
113.909
228.686
-349.898
121.213
-324.302
202.663
121.639
252.524
-135.137
-117.387
-130.869
62.0813
68.7877
182.701
-392.833
-103.623
-75.9661
179.589
-46.6377
-134.554
181.192
88.0318
-234.945
146.913
-109.323
201.335
186.938
-98.9651
-87.9728
-61.4433
-107.494
168.937
-40.5763
160.906
-163.887
-117.528
281.416
-304.818
-8.65276
313.471
54.6574
-107.667
53.0098
170.093
96.4929
118.3
106.41
-101.506
105.667
-4.16099
-204.03
-55.6416
446.517
4.43782
111.424
377.487
12.7543
-390.242
386.984
-325.886
-472.921
174.693
48.7702
52.9004
-101.671
-142.527
-33.0247
82.8913
-260.005
177.114
113.363
-375.015
-177.148
-33.7325
260.011
-66.9685
264.582
255.119
154.29
-404.843
209.915
-145.358
65.7823
385.84
-161.418
230.68
-97.7179
-132.962
259.089
-328.457
296.773
-179.772
-117
191.989
-177.781
-14.2076
113.795
-59.1381
-215.153
-235.622
450.776
-190.473
35.8003
154.673
491.33
-484.44
-6.88997
234.928
-65.1
-169.828
242.876
244.568
-487.445
261.56
-173.528
-165.336
301.283
-135.947
-159.96
307.557
-135.325
220.709
-85.3839
-189.763
-149.225
64.719
-148.133
83.4137
102.436
-198.535
352.068
119.476
-253.607
-160.12
-57.2633
-123.276
118.126
-42.7114
-172.592
275.75
-103.158
-65.5056
147.667
119.242
-44.8285
-74.4137
-138.003
76.5596
-581.759
365.836
215.924
60.7873
-128.377
67.5902
-179.078
261.969
-68.0068
133.338
-65.3315
73.17
46.0722
-142.594
363.796
-221.202
-120.321
-98.1956
218.516
-57.5456
-40.6022
98.1478
338.177
-145.44
-192.738
235.82
-81.7477
-154.072
-379.792
-311.671
-161.249
-51.3071
-96.1406
147.448
117.348
-305.201
187.853
138.794
-74.0751
-114.38
-7.07586
159.74
-416.877
312.454
-94.9198
-161.338
95.2781
-164.01
80.8589
83.1513
338.879
-129.688
161.138
-129.273
-31.8653
-77.773
-86.2372
56.6141
-122.328
65.7138
94.4889
-164.592
115.394
-64.409
-104.747
169.156
-88.36
218.479
-130.119
109.706
-30.9041
-78.8024
-269.348
-35.4695
124.116
89.4308
-88.4157
10.7136
-98.0308
205.963
-107.932
-96.3271
101.107
-4.77956
-101.333
-78.2709
-96.3029
174.574
483.475
-385.773
-97.7022
417.632
-115.886
134.738
-100.4
-425.691
463.883
-38.1922
-179.051
305.655
-126.603
-234.431
300.813
99.8179
87.1201
-72.3649
-114.47
-93.0578
272.767
-143.114
289.769
-146.655
43.8723
49.4759
-93.3482
-290.208
155.716
134.492
118.937
-61.5613
-75.8175
-69.9699
-216.708
-186.709
403.417
139.211
344.264
-455.732
258.017
240.13
-240.13
-85.5256
88.2686
-2.74301
185.006
-103.452
-81.5541
246.002
-540.004
294.003
183.299
154.879
-252.742
356.508
-103.765
116.027
-55.2395
-204.876
130.425
74.4514
156.96
330.238
-487.197
254.53
-118.912
-317.373
160.783
156.59
86.214
-177.947
91.7333
280.367
153.429
-433.797
-221.473
101.152
89.2273
-155.979
66.752
139.752
-179.127
-169.704
397.717
-182.196
101.359
80.8376
175.335
-105.868
-69.4664
-92.5386
365.222
-272.684
333.092
-166.428
-40.844
105.55
-64.7061
180.923
176.859
-357.782
-206.895
-248.837
-90.7768
349.59
98.7502
-185.038
86.2882
-205.009
399.447
-194.438
152.122
-65.9082
318.813
-219.469
-99.3439
131.454
-57.7753
-219.974
-151.561
83.8567
-620.249
303.836
132.701
493.628
-501.546
7.91788
205.844
188.899
-394.743
115.453
45.6847
-365.921
-123.982
144.618
-150.77
13.1974
-293.008
-20.3491
-123.551
143.9
160.206
-295.835
135.629
110.695
280.285
-134.26
87.9824
46.2778
49.3863
-183.941
47.4642
-85.9595
38.4953
263.467
95.3506
262.967
-174.527
-88.4392
140.609
-82.2052
-390.576
272.826
117.75
-260.076
-360.173
184.324
50.6039
144.065
-454.806
310.741
-59.0388
-81.3404
140.379
34.7906
-126.734
91.9437
291.961
209.406
-2.2453
379.733
-80.3153
-60.2566
423.941
-143.573
70.3474
-122.701
52.3532
-463.406
259.724
203.682
-201.819
-245.258
447.077
-366.485
566.483
-199.998
280.985
146.846
-173.806
249.908
-76.102
-157.63
258.207
352.027
-277.118
-74.909
-180.174
290.984
-110.81
-185.915
-152.82
-94.2205
-185.014
279.235
75.9304
39.0162
-114.947
181.781
-80.0068
440.419
-378.776
-61.6428
-176.55
107.348
69.202
82.622
266.059
-348.681
123.018
-36.6308
347.524
92.8947
-63.0373
152.265
-101.679
-32.5816
-225.968
514.175
-288.208
4.78728
191.624
-196.411
221.018
-388.321
167.303
-82.1621
-41.8154
123.978
289.34
97.3253
-85.1686
-22.5046
107.673
-143.17
129.219
13.9511
-179.877
119.172
60.7057
182.84
384.292
100.52
-41.708
-267.975
-122.601
228.62
-443.773
413.732
-509.861
96.1295
60.2937
223.263
-31.8268
-191.437
120.194
-63.5794
80.8994
-408.477
-77.8321
-88.975
166.807
102.974
-10.1309
-92.8433
-115.844
32.7901
122.206
132.369
153.813
-328.59
174.777
-92.684
163.09
-70.4056
152.366
-357.376
351.793
-234.445
341.9
-82.8119
-358.592
-199.363
-287.99
468.141
-180.151
429.265
-324.299
-104.967
-9.09748
-339.307
348.404
-335.966
-176.505
512.471
-164.277
-7.41339
80.8803
-33.4162
-503.116
261.693
241.422
-177.309
-88.7349
-79.6528
-51.2163
-48.4745
151.916
-91.6633
167.161
-554.663
382.762
171.9
98.0823
-162.491
-24.4022
91.3359
-66.9337
181.551
-146.384
192.346
-314.911
122.565
322.537
-255.55
-66.9864
87.4118
-397.448
310.036
216.213
-97.9134
114.479
255.541
-93.2287
-94.9112
109.521
-55.0409
474.87
-299.188
-175.682
-267.316
364.018
-96.7023
-119.686
192.175
282.695
-417.828
31.8668
385.961
-286.007
-186.645
138.406
-214.727
76.3212
-132.126
-75.3164
207.443
107.595
211.06
-318.655
42.9744
-264.986
-238.129
-83.3364
-38.1167
121.453
-204.494
326.224
-121.73
480.182
-174.265
408.89
-63.0539
-293.802
168.13
95.4897
7.48442
-270.749
-35.0287
305.777
57.0734
-373.64
-408.895
137.076
130.46
-17.0009
-113.46
173.378
-270.058
96.6803
-109.045
259.603
-458.717
334.696
-79.7195
-73.0451
497.249
-149.725
-240.57
406.767
-166.198
216.593
-339.232
122.639
470.015
-111.851
46.7003
75.0358
-309.384
135.579
346.809
-192.267
-154.542
-173.996
296.182
-122.185
132.857
347.325
165.449
-268.426
102.977
389.857
-107.258
360.396
129.668
-490.064
329.208
-226.193
-103.015
473.501
-502.425
28.9239
124.583
-89.0532
-35.53
342.674
-236.02
-9.79214
-98.6904
-80.4053
-182.618
263.024
36.8429
-113.643
76.8004
-142.237
66.4193
-307.191
474.402
-167.211
-87.2587
-53.213
-194.613
199.4
108.163
38.7523
-115.925
77.1727
288.874
2.76109
-291.635
-147.333
91.48
55.853
-100.81
454.135
177.397
119.376
-143.817
304.023
-236.833
157.964
335.175
51.8096
-159.717
-157.657
16.5761
226.988
-247.321
81.6866
-141.417
241.344
-99.9269
61.3911
-128.256
409.822
-203.979
-370.022
376.545
-6.52326
-133.585
493.981
68.2587
-140.064
71.8054
125.952
-68.5756
-142.162
210.738
-151.642
187.263
-71.8098
88.035
13.465
-101.5
66.8861
-121.587
54.7007
-249.618
153.163
-99.8974
-68.8717
168.769
-267.757
-294.064
127.772
166.292
119.27
-84.4797
49.7905
-113.008
63.2173
52.1763
-184.302
139.923
134.364
-105.321
258.935
-153.613
-143.408
90.1856
53.2221
-77.4476
194.479
-117.031
-375.369
212.932
-180.198
361.121
152.672
-271.658
118.986
241.498
171.231
-412.729
-56.6141
-32.1333
88.7473
331.459
97.8062
329.629
-147.401
-182.229
-157.621
406.188
-248.567
164.915
-70.9646
325.723
-254.758
327.681
121.679
-449.36
474.56
326.045
142.066
-468.111
249.312
-456.208
191.74
-29.9989
-161.741
-338.237
184.895
153.342
-116.326
15.8563
100.47
92.9569
18.0651
-111.022
-67.0781
-70.4319
13.2988
-383.321
-356.372
213.778
61.1989
193.044
-254.243
-377.99
307.025
222.62
123.092
-345.713
-60.1063
107.869
-47.7627
-101.022
-145.521
246.543
568.598
-257.484
63.338
136.207
-136.238
-279.089
415.326
-121.985
171.371
-222.652
383.207
-160.555
-354.286
41.8479
312.438
-177.965
-279.172
457.136
-57.5705
-75.8708
-564.253
366.721
197.532
300.978
-182.699
-118.279
-123.838
346.458
-168.639
68.7419
111.681
-189.513
142.94
87.7399
-163.133
-490.527
250.996
239.531
-163.333
85.5596
-266.647
97.3959
-289.896
-291.863
-58.1619
-243.662
95.58
-332.133
236.553
-203.608
-175.022
67.2407
107.781
-243.698
-71.9823
-113.328
-40.541
153.869
-51.9464
-44.9746
96.921
-314.064
221.526
10.9661
-84.147
73.1809
158.312
-190.139
153.513
-365.447
211.933
6.10868
-276.857
-191.833
316.6
-124.767
-235.67
248.867
106.241
-133.1
-89.5875
222.687
398.927
-408.025
109.349
-65.4769
285.377
189.596
-474.974
-78.5574
-84.7752
-78.3445
272.825
364.857
-367.103
96.7105
-3.75365
409.541
-125.251
-284.289
105.486
161.595
-267.081
142.233
-40.1461
-125.171
165.317
268.747
-122.388
-146.36
347.833
42.0247
119.173
-82.3297
-501.731
173.371
68.003
-136.01
-132.931
70.7549
62.1759
-50.2902
159.5
-109.21
-140.778
-78.1047
218.883
31.3232
-96.661
65.3379
-125.781
43.6188
174.683
-186.949
12.2658
227.517
-280.425
52.9084
-219.031
78.2526
-88.3086
-78.2003
-57.636
-60.675
118.311
142.567
184.316
197.758
-225.585
179.243
168.091
-124.423
-43.6684
-373.54
265.897
107.642
228.983
-83.7537
336.212
161.037
335.166
102.879
-438.045
-130.278
-131.034
-537.845
251.05
286.795
220.313
-302.387
82.0732
143.188
119.779
-95.4627
54.6187
-34.0451
96.0164
-61.9713
-269.027
-218.035
487.061
-419.977
440.802
-20.8248
-266.918
106.494
-129.453
-455.065
-21.525
476.59
209.311
241.804
-451.115
-123.81
-188.732
-147.211
-142.997
108.896
-20.8608
-337.204
135.384
-31.0345
166.998
-125.03
-271.88
169.799
102.081
83.9727
68.3385
-130.351
-144.937
275.288
126.788
-88.0354
416.37
-294.533
-121.837
-132.467
349.06
-213.547
-39.622
457.153
24.1277
-114.609
-76.0995
190.708
454.654
-0.196772
-454.457
-89.1328
320.523
-231.39
117.859
82.2268
-200.086
-373.576
220.699
152.877
-131.135
-109.366
-162.514
142.821
-74.5624
-107.538
290.096
-182.558
139.919
139.504
-279.423
-150.977
-53.8993
-246.36
-176.049
422.409
116.115
476.439
-332.698
-143.741
-154.163
149.736
-93.8315
-55.9045
37.0953
-93.5976
204.613
-271.581
294.444
-352.606
-402.78
343.936
193.72
-317.53
231.034
180.998
435.478
-203.937
-227.675
161.333
95.732
82.4212
-94.1586
107.854
-158.144
-271.172
289.365
-18.1935
-276.899
-21.5294
76.7034
-142.16
65.4566
115.476
286.424
-158.652
246.116
-135.106
-111.01
-70.6948
132.086
-269.46
120.838
-189.414
311.309
-62.4785
-248.83
-257.993
467.304
484.77
-148.559
-370.144
267.27
102.874
-22.2831
476.937
-219.008
411.494
-86.042
-203.298
289.34
104.745
-263.407
158.662
12.522
289.377
-334.61
-247.385
581.995
147.219
-347.987
200.768
-292.784
392.82
-100.035
-121.297
447.342
352.511
-126.421
177.027
-89.5698
369.587
-280.017
-83.2967
-64.0362
-236.142
151.69
84.4517
177.356
148.868
56.1594
-59.6772
-279.852
339.529
-386.127
-78.9874
-131.13
-198.181
-337.857
230.319
-412.896
412.896
157.861
-335.143
177.283
180.923
-339.865
158.942
231.943
79.3663
53.545
41.1174
-94.6624
218.471
-371.434
287.708
-465.673
242.144
-39.7855
145.918
158.181
72.7708
198.003
-270.774
124.214
-84.0354
-40.1789
-71.856
-293.472
365.328
108.367
-179.429
71.062
-63.3774
174.603
-111.225
331.933
4.35172
-79.2961
80.4415
-276.373
321.665
-45.2923
45.1801
146.56
95.0529
17.2252
-112.278
-313.862
-40.4247
36.1824
-169.96
-193.331
-129.979
323.309