/*--------------------------------*- C++ -*----------------------------------*\
  =========                 |
  \\      /  F ield         | OpenFOAM: The Open Source CFD Toolbox
   \\    /   O peration     | Website:  https://openfoam.org
    \\  /    A nd           | Version:  7
     \\/     M anipulation  |
\*---------------------------------------------------------------------------*/
FoamFile
{
    version     2.0;
    format      ascii;
    class       volVectorField;
    location    "19";
    object      U;
}
// * * * * * * * * * * * * * * * * * * * * * * * * * * * * * * * * * * * * * //

dimensions      [0 1 -1 0 0 0 0];

internalField   nonuniform List<vector> 
7807
(
(1.07529 0.107177 3.95311e-20)
(1.06584 -0.0224714 1.2305e-19)
(1.03805 0.0897888 -6.34006e-20)
(1.04961 0.0680965 1.26637e-19)
(1.02659 -0.00205719 1.96332e-20)
(0.985058 -0.0158171 1.53596e-20)
(1.03765 0.0858083 -1.25687e-19)
(1.02057 -0.0023221 4.87547e-22)
(1.02397 -0.00156089 1.72223e-20)
(1.03303 0.00209317 -1.08994e-20)
(1.01118 -0.00714472 -1.69739e-20)
(1.02717 -0.00235199 -3.11785e-20)
(1.00517 -0.00319525 -3.03158e-20)
(1.03332 -0.000857774 -1.29379e-19)
(1.03188 0.00248099 4.5492e-20)
(1.02213 -0.00902696 4.83539e-20)
(1.07601 0.111183 -8.39093e-20)
(0.99324 -0.000705942 8.4513e-21)
(1.02881 -0.00570348 -2.45277e-20)
(1.01446 -0.0675828 1.04078e-20)
(1.04605 0.00387119 -3.48804e-20)
(1.02675 0.000341036 8.86194e-20)
(1.03515 -0.00159597 1.67467e-20)
(1.0149 0.0387746 -7.70265e-20)
(0.974523 0.000981601 3.00166e-20)
(1.07256 0.105529 -3.96524e-20)
(1.02693 -0.00170074 1.63998e-20)
(1.03742 0.000658613 4.26256e-20)
(1.00716 0.0198629 -1.12151e-20)
(1.02872 -0.00570319 2.18885e-20)
(1.01844 -0.00946854 6.89724e-20)
(0.600055 0.0115445 1.30514e-20)
(1.03434 -0.00168557 9.02747e-20)
(1.02456 -0.00292938 -3.73275e-20)
(0.565899 -0.00145686 6.9823e-24)
(1.03407 0.00273172 1.73801e-20)
(1.02962 -0.0071005 1.61202e-20)
(1.03774 0.0848331 -2.13451e-20)
(1.02392 -0.0055541 -8.74549e-20)
(0.934712 -0.0042641 -4.57106e-20)
(1.02431 -0.00555137 8.80055e-21)
(1.02217 -0.00865739 1.8047e-20)
(1.03558 -0.0749545 -4.96753e-20)
(1.14267 -0.0190936 -1.77218e-20)
(0.536017 -0.0032146 -2.1712e-20)
(0.957095 0.00523406 9.84985e-21)
(1.02548 0.000482616 -5.39067e-20)
(1.02496 -0.00502841 5.14819e-20)
(1.02377 -0.00114112 9.41432e-21)
(1.01777 -0.0681299 -1.53324e-20)
(1.02764 -0.00184181 2.48694e-20)
(1.03824 0.00158614 -4.60381e-20)
(0.93847 0.00143471 8.23165e-20)
(1.03431 -0.0185057 1.75693e-20)
(1.03411 0.00159514 -1.33814e-20)
(1.02411 -0.0030366 8.94351e-21)
(1.02762 -0.00478096 3.86906e-20)
(1.01213 -0.00218778 -5.75992e-20)
(1.01215 -0.0110257 7.86936e-20)
(1.02443 -0.00358116 4.53374e-20)
(1.02255 -0.00133547 -2.27803e-20)
(1.02896 -0.000120589 2.36354e-20)
(1.034 -0.000275507 -2.92432e-20)
(1.02636 -0.00175386 3.18346e-20)
(0.954187 -0.00769148 -3.43867e-20)
(1.01884 -0.00981286 -1.10069e-20)
(1.02301 -0.00204071 -1.60279e-20)
(1.02041 0.000241822 2.32594e-21)
(1.13375 0.0719544 4.01671e-20)
(1.02518 -0.00444986 2.07398e-20)
(1.00475 -0.00144619 -8.89956e-21)
(1.00695 -0.0378439 9.22258e-20)
(0.999725 -0.00147934 -1.48686e-20)
(0.868148 -0.00321587 -1.25699e-20)
(1.01017 -0.000701078 -2.64799e-20)
(1.00281 -0.0172886 1.25577e-20)
(1.03885 0.0906774 1.0158e-19)
(1.0446 0.00348909 4.3831e-20)
(1.08668 0.0127963 -9.02478e-20)
(0.996096 -0.0302326 1.04099e-19)
(1.0169 -0.00337498 4.66562e-20)
(1.02232 0.088082 1.43831e-19)
(1.04788 0.013661 7.6748e-20)
(0.994588 -0.00390298 -5.6136e-20)
(1.02446 -0.00282216 2.6564e-20)
(0.840476 -0.00536489 -1.43691e-20)
(1.02279 -0.00299771 -7.68725e-20)
(0.973277 -0.00145673 -5.26485e-20)
(1.02561 -0.00177506 -2.24628e-20)
(0.842072 -0.00561064 -2.75941e-20)
(1.00749 0.0225668 7.95899e-20)
(1.16769 -0.00364033 2.75452e-20)
(1.021 -0.00206335 1.60685e-20)
(1.02756 -0.00469406 1.8078e-20)
(1.0143 -0.00315589 -3.29017e-20)
(0.605093 -0.00390075 9.70258e-20)
(1.00867 -0.037657 -5.54877e-21)
(1.0354 -0.0174898 -3.02705e-20)
(1.02408 -0.0027835 -5.31905e-21)
(0.919919 0.00449953 -9.72024e-21)
(0.919283 -0.0119982 -2.64497e-20)
(1.08703 0.0168958 6.78586e-20)
(1.02095 -0.00168306 8.15096e-20)
(0.587167 -0.00146617 8.5935e-22)
(1.16942 0.00637104 1.74452e-20)
(1.03703 0.0366136 -7.66096e-20)
(0.833403 0.0456697 1.77317e-20)
(1.02395 -0.00292886 3.41693e-20)
(1.01913 -0.000867105 -8.02039e-22)
(1.04198 -0.00534762 -3.70291e-20)
(1.05129 0.0653503 -1.46979e-19)
(1.04777 -0.0529695 9.40606e-20)
(1.01967 -0.000667513 1.00171e-21)
(1.04342 -0.00549824 -8.0345e-21)
(1.03336 0.0356884 7.99667e-20)
(1.02499 -0.000329573 -1.2039e-20)
(1.08491 -0.062045 6.9088e-21)
(1.03717 0.0230172 -2.12048e-20)
(1.01578 -0.0295392 -5.66167e-20)
(0.933304 -0.00135914 1.34168e-20)
(0.733893 -0.00653335 6.24073e-20)
(1.00811 0.0608195 -9.57466e-20)
(1.04062 -0.0737818 6.82421e-20)
(1.03152 -0.00332645 1.03408e-20)
(0.809898 -0.00828399 -2.45221e-20)
(1.02538 -0.00214099 -4.775e-20)
(1.01996 -0.00690798 -2.53197e-20)
(1.02771 -0.00510644 -2.96958e-20)
(0.842896 0.00305199 7.84911e-20)
(1.01905 -0.00852389 -1.6627e-21)
(1.20052 -0.0146191 8.05445e-21)
(1.08221 0.0105919 1.51359e-20)
(1.02525 -0.00332037 -3.51242e-21)
(1.02512 -0.00193115 4.98734e-20)
(0.975466 -0.00428572 -1.60685e-20)
(1.04859 0.0601485 5.85039e-20)
(1.02496 0.108958 1.61419e-19)
(0.83077 0.00685955 2.21614e-21)
(1.03188 -0.00176593 5.67223e-21)
(0.625335 0.00467624 6.68272e-20)
(0.758475 -0.00445684 5.5156e-20)
(1.01935 -0.042134 7.09887e-20)
(1.00333 -0.0187794 -1.68306e-20)
(0.861205 -0.00130799 9.90694e-22)
(0.684371 0.00586615 6.98453e-20)
(1.03655 -0.0294699 4.64288e-21)
(1.01505 0.0233633 -4.24912e-20)
(1.01363 -0.013648 4.22884e-20)
(0.661257 0.00379104 -1.18222e-20)
(1.01049 0.0766624 -4.77969e-20)
(1.03596 0.00335864 5.07893e-20)
(1.15693 -0.00708506 1.19946e-20)
(1.02568 -0.00190491 7.49072e-20)
(1.1385 0.0660765 9.59077e-21)
(1.04615 0.0129665 -8.13019e-20)
(1.04031 0.0849552 -1.10339e-19)
(0.9994 -0.0208697 -4.52803e-20)
(0.959179 -0.00591862 -1.14299e-20)
(1.03689 0.0701992 1.60232e-19)
(1.02342 -0.00373342 9.9754e-21)
(1.0276 -0.00473301 -4.51148e-20)
(1.0159 0.0430392 5.29284e-20)
(1.02044 -0.00240952 -1.21123e-20)
(1.02517 -0.00371151 9.04824e-20)
(0.9936 0.000240365 1.45887e-20)
(1.00702 0.0522518 -1.59575e-20)
(1.0041 0.0432863 5.73669e-20)
(1.02932 0.0660751 4.98392e-20)
(1.02491 -0.00401723 3.91443e-20)
(0.779139 -0.000580866 1.84328e-20)
(1.02151 0.0012411 -2.32686e-21)
(0.483587 -0.00374605 9.95363e-20)
(1.02531 -0.000726952 1.60935e-20)
(1.06712 -0.0194663 -1.43968e-19)
(1.0316 -0.00213561 3.69627e-20)
(0.755237 -0.00242039 -2.34231e-20)
(1.16067 0.0142126 3.24934e-20)
(1.09918 0.0693302 3.26491e-21)
(1.02203 -0.00241633 -9.30863e-21)
(1.02546 -0.00207064 4.59808e-20)
(1.05116 0.0701774 -2.1072e-20)
(1.00799 -0.000375984 4.22104e-21)
(0.776217 -0.0115798 -5.10313e-21)
(1.03765 0.0862867 -1.03297e-19)
(1.06785 -0.0247993 6.23724e-20)
(1.03667 -0.0441083 5.99278e-20)
(1.01715 -0.0285242 8.1264e-20)
(0.977642 -0.00401759 -4.06542e-20)
(1.03443 -0.0306011 -1.14585e-20)
(0.577453 -0.00414794 -3.55085e-20)
(1.01964 -0.00284737 3.80723e-21)
(1.00922 -0.035094 2.27125e-20)
(1.10078 0.0749393 -6.04904e-20)
(1.02312 -0.00160659 -1.17297e-20)
(1.02384 -0.000464225 -1.13829e-20)
(1.07848 0.0713997 4.74703e-21)
(1.02274 0.00138995 -7.47878e-20)
(1.0196 -0.00809738 -3.77495e-20)
(1.03218 -0.0289068 -4.1048e-20)
(1.02202 -0.000963185 -9.78919e-22)
(1.02571 -0.00172991 -3.89156e-20)
(1.04565 0.060698 6.62526e-20)
(1.09076 0.0787316 -6.83142e-20)
(1.03763 0.0833402 -1.44768e-20)
(1.08115 -0.0569728 -3.89569e-20)
(1.0506 -0.0499354 -1.93498e-20)
(1.12535 -0.0850532 1.00233e-20)
(1.03628 -0.00141329 1.15007e-19)
(1.0422 0.0590901 -2.44952e-20)
(0.737253 -0.0178564 2.14708e-20)
(1.02346 -0.000627876 6.59172e-21)
(0.535698 0.0485763 -7.53043e-20)
(1.02269 -0.00850984 1.96005e-20)
(1.02517 -0.00362052 3.12104e-20)
(1.01089 -0.0345396 -5.25927e-20)
(1.01964 -0.00729559 2.80825e-20)
(1.04281 0.0810242 -1.324e-19)
(1.04058 0.0810078 -2.94817e-20)
(1.01737 -0.0431979 -1.83146e-20)
(0.863955 0.0277214 -5.2937e-20)
(1.02736 0.000338915 5.67031e-20)
(0.958971 -0.00208505 -2.95752e-20)
(0.877514 -0.0108492 -3.4266e-20)
(1.04396 0.00705202 -2.27604e-20)
(1.03936 -0.0961901 4.58368e-21)
(1.08926 0.108052 -9.50233e-20)
(1.03847 0.0675961 -1.39894e-19)
(1.0228 -0.00151173 1.65461e-20)
(1.0309 -0.00346962 1.36408e-20)
(1.03474 0.0255873 1.10848e-19)
(1.0249 -0.00419567 6.86681e-20)
(1.03987 0.0235712 -1.462e-20)
(1.02546 -0.00176819 1.62853e-20)
(1.00123 0.0594583 9.74796e-20)
(1.03984 0.0831188 2.27395e-20)
(1.02103 -0.00242036 -4.68758e-20)
(1.02877 -0.00518453 -2.70611e-21)
(0.982202 -0.00368786 8.72166e-20)
(1.11608 0.0924903 3.24692e-20)
(0.766797 0.0106368 -1.646e-20)
(1.02401 -0.00651314 -1.92038e-20)
(0.956138 -0.0190799 -3.93662e-20)
(1.02282 -0.00226415 3.70674e-21)
(1.02467 -0.00288303 1.97151e-20)
(1.02543 -0.00185227 -1.80675e-20)
(1.07196 0.0490287 7.45726e-20)
(1.02133 -0.00231014 -1.58971e-20)
(0.716138 0.00494039 -1.16721e-22)
(0.997787 -0.0301324 -1.21457e-19)
(0.474526 0.016399 -2.8524e-20)
(1.08181 0.00665597 -2.23013e-20)
(1.00804 0.0514775 7.79211e-20)
(0.944736 -0.0056022 1.20573e-20)
(1.03041 -0.0295951 -3.49728e-21)
(1.02419 -0.00275187 3.57388e-20)
(1.03933 0.0858391 -1.05247e-19)
(1.02746 0.000495544 -2.91856e-20)
(1.03287 0.114995 5.13849e-20)
(1.02842 -0.00643252 -7.26589e-20)
(1.02655 -0.00135689 4.95441e-20)
(1.048 -0.0193145 -5.58214e-20)
(1.0357 -0.000251121 -1.07222e-19)
(1.0252 -0.000628094 2.48683e-20)
(0.98642 -0.00622846 -1.48036e-21)
(1.02525 -0.000914667 6.27968e-20)
(1.02502 -0.00439407 5.79947e-20)
(1.04234 -0.0458065 -7.46387e-20)
(1.00039 -0.00795533 -7.96902e-21)
(1.00043 -0.0198416 -3.31576e-20)
(1.01357 -0.000321069 3.09992e-21)
(1.0185 -0.003109 -1.69134e-20)
(1.0254 -0.00347015 -9.38425e-21)
(1.0372 0.0993679 1.2204e-19)
(0.663072 -0.00316233 -1.38339e-20)
(0.827377 1.17676e-05 8.58229e-21)
(0.356153 0.0279915 1.2104e-19)
(1.02454 -0.00320716 3.74175e-20)
(1.06869 0.0867232 -5.11286e-20)
(1.02407 -0.00280196 -5.20898e-20)
(1.03169 -0.0138012 5.35366e-20)
(1.0229 0.000776083 -7.28264e-22)
(1.01543 -0.0233194 3.48724e-20)
(1.04395 0.00676303 3.28568e-20)
(1.16168 0.0223222 -7.51064e-20)
(1.01229 -0.0121202 -6.7446e-20)
(1.02481 -0.00227118 -5.73911e-20)
(1.01376 -0.0566418 -2.62332e-20)
(0.177703 0.000616569 -3.72926e-20)
(0.736065 0.0125727 -2.95821e-21)
(1.02527 -0.000820513 -5.57194e-20)
(1.02542 -0.00290928 -4.34255e-20)
(0.920981 -0.0101582 4.43564e-20)
(1.02885 -0.000839926 -4.81289e-20)
(1.02519 -0.00205745 -2.49591e-20)
(0.996267 -0.00364257 -9.49324e-21)
(1.0458 -0.0439062 5.01601e-20)
(0.975528 -0.00178486 -4.12069e-20)
(1.13648 -0.0126577 5.07265e-21)
(0.908767 -0.00302629 4.36708e-20)
(1.04564 0.0902271 1.19195e-20)
(1.04398 0.0913397 -8.9589e-20)
(1.02538 -0.00142023 3.9479e-20)
(1.18054 0.0222687 9.51213e-20)
(1.01677 -0.00338614 1.50146e-21)
(1.02567 -0.00347003 4.62043e-20)
(0.440448 0.00486871 -1.00034e-19)
(1.01134 0.0348512 4.53353e-20)
(1.04888 0.0176599 -6.76787e-20)
(1.02298 -0.00179158 2.25938e-20)
(1.02566 -0.00283707 6.72846e-21)
(0.949119 -0.00299596 -3.29689e-20)
(1.05927 0.0448506 -3.01208e-20)
(1.02542 -0.00216517 -2.70577e-20)
(1.02658 -0.00124829 2.21254e-20)
(1.02618 -0.00054137 -5.17413e-21)
(1.12007 0.0332615 7.79719e-20)
(1.20047 -0.0257501 4.95168e-20)
(1.05428 0.100569 5.92934e-20)
(0.892501 0.00183799 3.68376e-20)
(1.07513 -0.0227796 -1.22085e-19)
(1.02214 -0.00220222 1.63235e-20)
(1.02927 -0.00484535 -7.60499e-20)
(1.01425 -0.00348808 3.50907e-21)
(1.01763 -0.0133295 -1.16117e-20)
(0.988203 -0.00397157 1.49552e-20)
(1.03481 -0.0128635 7.48908e-21)
(1.2006 0.026056 -8.05802e-20)
(1.00879 -0.0182454 -6.5832e-20)
(1.03255 -0.0130594 -1.56257e-20)
(1.03028 -0.00289458 -2.24717e-20)
(0.932046 -0.00890358 -3.96619e-20)
(1.04407 -0.00896945 2.45788e-20)
(1.0251 -0.0116797 -3.4184e-20)
(1.08199 0.0206429 -3.37712e-20)
(1.06784 0.0476142 3.61691e-20)
(1.16995 -0.0930973 -7.22948e-22)
(1.14066 -0.0272639 4.4402e-20)
(0.316057 -0.00219047 3.98321e-20)
(1.02921 -0.00202703 5.32427e-20)
(0.95877 -0.0180221 1.61051e-20)
(1.01984 0.0614815 -1.56136e-19)
(1.12415 -0.0289218 -7.80506e-20)
(1.04217 -0.00308611 -7.27646e-20)
(0.933461 0.0372057 -7.40175e-20)
(0.804304 -0.0117656 -1.80536e-20)
(1.02508 -0.00155651 1.07944e-20)
(1.1546 -0.0159103 4.40694e-20)
(1.02561 -0.00242241 2.21118e-20)
(1.03668 -0.0270855 -1.59044e-20)
(1.02961 -0.00220749 1.69798e-20)
(0.858825 -0.00168005 1.76336e-20)
(0.897406 -0.00186853 3.64889e-20)
(1.03995 0.0320474 6.08468e-20)
(1.02311 -0.00185877 6.99532e-21)
(1.02523 -0.000260878 -2.18969e-20)
(1.02287 -0.000425762 1.96319e-20)
(0.9356 0.00291424 -8.11447e-20)
(1.02354 -0.00611933 -5.18635e-20)
(0.998176 -0.0123675 -1.47177e-21)
(1.00025 -2.65023e-05 -5.38038e-21)
(1.013 -0.0103659 -2.44548e-20)
(0.758302 0.0204302 4.27681e-20)
(1.03395 -0.0137879 -3.36425e-20)
(1.02291 -0.00799812 -7.25173e-20)
(1.0462 0.0768209 2.04712e-20)
(1.00455 0.0502426 9.2179e-20)
(1.07349 0.010763 -3.23535e-20)
(1.17273 0.0266176 -3.61977e-20)
(0.360728 0.00630616 -5.42464e-20)
(1.02921 -0.00235277 -2.78328e-20)
(1.01601 0.0582197 -4.58802e-21)
(0.895488 -0.00322626 6.44844e-20)
(1.05715 0.0865633 2.47402e-21)
(1.03423 -0.0330912 -1.97657e-21)
(1.05829 -0.084471 2.20722e-20)
(1.08746 0.0762559 4.20961e-20)
(1.05861 0.0895712 -5.80737e-20)
(1.00093 -0.0167869 -7.82506e-20)
(1.05032 0.0158233 -4.77918e-20)
(1.09213 0.111728 8.92631e-20)
(1.06498 0.0870034 9.10104e-20)
(1.03753 0.00110202 3.70303e-20)
(1.0238 -0.00175493 -1.93352e-20)
(1.02408 -0.00309208 -1.32513e-20)
(1.01572 -0.00160289 8.01853e-21)
(1.03858 -0.0167925 2.31743e-20)
(0.814618 0.00215226 -1.47463e-20)
(1.02558 -0.00251084 -2.8253e-20)
(0.982437 -0.00884379 1.40325e-20)
(1.02533 -0.000983434 -1.4943e-20)
(1.01167 -0.0556379 4.33272e-20)
(1.1063 0.041789 2.87789e-20)
(1.00124 -0.00344139 6.14857e-20)
(1.0257 -0.00770707 -8.26347e-20)
(0.93766 0.00270506 4.0951e-20)
(1.0732 -0.025167 4.3263e-21)
(0.948582 -0.00750159 7.82377e-20)
(1.02751 -0.00445599 5.39922e-20)
(1.10193 0.109099 1.4105e-20)
(0.924188 0.00203363 8.9976e-20)
(1.022 -0.00217012 1.34968e-20)
(1.02354 -0.00185957 4.86668e-21)
(1.02282 -0.0017227 3.12499e-20)
(0.997752 -0.0037973 -2.33625e-20)
(1.03803 0.0295272 -7.6531e-20)
(0.826434 -0.00583362 -1.09e-21)
(1.03978 -0.00356949 4.97315e-20)
(1.04612 -0.100804 -3.2735e-20)
(1.03804 0.0846215 -2.36325e-21)
(1.02879 -0.00513032 2.88606e-20)
(1.03098 -0.00297556 -5.01089e-21)
(1.0236 -0.00294111 3.83144e-20)
(1.03065 0.0994333 -1.20382e-19)
(0.822077 -0.00376251 -1.97872e-20)
(1.05597 0.10299 -3.07804e-20)
(1.0121 0.0243717 -7.81668e-20)
(0.998298 -0.00328938 -1.58761e-20)
(1.03264 -0.0338823 4.49686e-20)
(0.982352 -0.00115793 3.95474e-20)
(1.02203 -0.0428457 -8.91991e-20)
(1.02484 0.000347984 2.1041e-20)
(1.06926 0.0129675 4.3766e-20)
(1.03117 -0.00981771 -1.61701e-21)
(1.03048 -0.00213767 8.35562e-21)
(0.959405 -0.00744113 5.0188e-20)
(1.07618 0.046781 3.90303e-20)
(1.05519 0.0438874 1.13338e-20)
(1.03519 -0.0461371 -5.06621e-20)
(1.0135 -0.0125366 4.37906e-21)
(1.02564 -0.00308228 3.05527e-20)
(1.02834 -0.0264537 1.03794e-19)
(1.13512 0.0580856 -5.87429e-20)
(0.706068 0.0216274 -6.48198e-20)
(1.09608 -0.051101 3.62108e-20)
(1.0298 -0.00506468 -1.58247e-20)
(1.02001 -0.000985352 7.88375e-22)
(1.01445 -0.00274866 6.02257e-20)
(0.906847 -0.00330177 -7.20035e-20)
(1.04361 -0.009013 4.06597e-20)
(1.03285 -0.0789334 1.77914e-20)
(1.18021 0.0111696 -3.59774e-20)
(1.03892 0.0855694 -1.38387e-19)
(1.06264 0.0419285 5.42313e-20)
(1.12646 -0.0751072 -3.69244e-20)
(1.07852 0.0760635 1.62014e-20)
(1.01351 0.0798861 1.49586e-19)
(1.03786 -0.00194262 4.25013e-20)
(1.02584 -0.00157122 6.2271e-20)
(1.04049 0.0657843 3.30611e-20)
(1.02559 -0.00233473 -4.70518e-20)
(1.02333 -0.00301627 -1.39462e-20)
(0.611832 -0.0015072 -1.59657e-20)
(1.02478 -0.00145923 4.75992e-21)
(1.1338 -0.0918205 -1.32344e-20)
(1.02947 -0.0110127 3.81776e-20)
(1.01684 -0.0230325 -6.3197e-20)
(1.02622 -0.00107629 1.99577e-20)
(1.07435 0.0692135 8.95764e-20)
(0.932013 -0.00102078 7.47896e-21)
(1.02191 -0.00235548 9.48391e-23)
(1.05256 -0.0886106 -2.282e-20)
(1.02619 -0.000362663 -1.23264e-20)
(1.10716 0.00889495 -8.47951e-21)
(0.921783 -0.0115518 -1.32223e-20)
(0.794782 -0.00445804 -4.0057e-21)
(1.18107 0.0633282 -6.78929e-21)
(1.03204 0.0243783 -2.83468e-20)
(1.02891 0.00800592 1.95236e-20)
(1.02714 0.00728795 -9.1934e-21)
(0.967121 -0.0125311 -4.53188e-21)
(1.11272 0.041481 2.27588e-20)
(1.08224 0.0240203 4.07879e-20)
(1.026 -0.00270567 -1.86538e-20)
(1.01028 -0.00324325 -7.10845e-20)
(1.02574 -0.000358495 -2.33238e-20)
(1.03469 -0.0116577 -8.82627e-20)
(1.03366 -0.0180601 1.64332e-20)
(1.02962 -0.001271 -5.25265e-22)
(1.02534 -0.00220109 5.89703e-20)
(1.11577 0.0863496 -9.61683e-20)
(1.02112 -0.0030418 1.63088e-20)
(1.02472 0.000102686 -1.37075e-20)
(1.02826 -0.00105264 -2.94003e-22)
(0.716385 -0.00351273 -3.81988e-20)
(1.03774 -0.00512019 4.96661e-20)
(1.01626 -0.0190755 9.38161e-20)
(0.789379 0.000597303 1.90443e-20)
(1.03934 -0.0434535 -3.36286e-20)
(1.06246 -0.108916 3.60237e-20)
(1.04655 -0.0174826 2.98066e-20)
(1.04422 0.0649061 -1.90444e-19)
(1.19181 0.0305161 4.839e-20)
(1.02202 -0.00367856 4.77847e-21)
(0.990609 0.0546435 1.12603e-19)
(1.01061 -0.0393153 -8.43461e-20)
(1.0234 -0.00667839 -1.55094e-20)
(0.72882 0.00512865 -3.29696e-20)
(1.02554 -0.0114395 7.12363e-21)
(0.616635 0.00579814 -6.19067e-20)
(1.01849 -0.00258025 2.196e-20)
(1.04285 -0.00508827 -5.5268e-20)
(1.13139 -0.0316582 1.69825e-20)
(1.02198 -0.00223588 1.30355e-21)
(1.04049 -0.00500943 -3.96251e-21)
(1.01388 0.000405022 8.41219e-21)
(1.04235 0.0853028 2.97819e-20)
(1.13451 0.0772744 8.93205e-20)
(1.02346 -0.00265376 -1.32156e-20)
(0.685849 -0.000276946 7.41897e-20)
(1.00774 -0.00201512 2.85683e-20)
(1.01604 0.0900344 9.50815e-20)
(1.05193 0.0891616 7.37133e-20)
(1.11504 0.0346716 -4.24886e-20)
(1.11815 0.106985 -7.60341e-20)
(1.01056 -0.0418935 3.60704e-20)
(1.01399 0.0709636 -1.42099e-19)
(1.02307 -0.00179179 -1.45942e-20)
(1.06188 -0.0121283 9.66291e-20)
(0.476858 0.0111344 1.97073e-21)
(1.09339 0.0673069 -2.27616e-20)
(1.02668 0.0605767 -9.8184e-20)
(1.13869 0.0526021 8.95269e-20)
(1.05751 0.0365278 8.83577e-21)
(1.02616 -0.00767635 2.49559e-20)
(1.02177 -0.00403872 2.4597e-20)
(1.12151 0.0955773 3.37842e-20)
(1.18879 -0.008268 -1.507e-20)
(1.02917 0.095371 -3.64646e-21)
(1.1011 0.00741374 1.05034e-19)
(1.04282 0.0551306 5.94971e-20)
(1.01712 -0.00451166 1.42926e-20)
(1.0375 0.0857891 3.80336e-20)
(1.05381 0.0864187 2.78466e-20)
(1.01916 -0.00135698 6.67779e-20)
(1.02284 -0.00354739 2.97166e-20)
(1.13108 0.088791 2.45209e-21)
(0.740059 0.00359883 6.62731e-20)
(1.02306 -0.00189363 1.93002e-20)
(1.01853 -0.00308603 -7.86181e-20)
(0.901937 -0.0147229 -5.01358e-20)
(1.02002 -0.0544531 9.1026e-21)
(1.03127 -0.00179453 -7.75288e-20)
(1.03012 -0.00240717 6.94695e-21)
(1.02462 -0.00251062 2.4799e-20)
(1.05297 0.0919257 -1.09394e-19)
(1.02717 -0.0075405 -6.39778e-21)
(1.0221 -0.00202363 -7.5316e-21)
(1.04534 -0.0397041 -5.99919e-20)
(1.02511 -0.00328231 -1.47155e-20)
(1.01763 -0.00481474 -2.39409e-21)
(1.02915 -0.00723573 -1.70591e-20)
(1.06644 0.0696625 1.14874e-19)
(1.0455 -0.0778686 -3.42259e-20)
(1.0455 0.0715891 6.0408e-20)
(1.02315 -0.001015 -1.53573e-20)
(1.07016 0.0718889 -1.21732e-19)
(1.03913 -0.0335994 -4.68245e-20)
(1.02363 -0.00226526 5.07148e-21)
(1.02244 0.000194986 -7.72338e-21)
(1.00426 0.0153581 -1.33593e-20)
(1.06227 0.0629134 4.36575e-20)
(1.02412 -0.00303949 -1.41897e-20)
(1.05729 0.0524302 -6.21071e-20)
(1.02212 -0.000185394 5.71739e-21)
(1.0583 0.056829 -8.37764e-20)
(1.15682 -0.0954593 -3.62433e-20)
(1.01063 -0.00128951 -7.23001e-20)
(1.00348 0.0508106 -1.90034e-19)
(1.01115 -0.0323251 -6.37249e-20)
(1.12195 0.102804 7.80024e-20)
(0.752127 -0.00305472 -1.94884e-20)
(1.06203 0.0585399 1.07462e-19)
(1.0662 0.0648117 -3.15211e-20)
(1.01673 -0.00417859 -1.06925e-19)
(1.01166 -0.00477645 6.34704e-20)
(1.02414 -0.00632922 -5.95863e-20)
(1.00448 -0.00092256 1.61181e-20)
(1.02356 -0.00286793 -3.14717e-20)
(1.02707 -0.00747044 1.054e-20)
(1.0591 0.0831299 -1.42142e-20)
(1.02189 -0.00234738 -3.62084e-21)
(1.05302 0.0511382 8.16368e-20)
(1.05722 -0.0773792 -5.88875e-20)
(1.02949 0.0762712 3.73551e-20)
(1.05219 0.0471463 -9.54919e-20)
(0.866414 -0.0121981 6.7747e-21)
(1.04033 0.0768862 -1.30092e-19)
(1.02537 -0.00184128 1.81455e-23)
(1.03821 -0.0152757 3.46588e-20)
(1.07112 -0.0520553 -2.14849e-20)
(0.623168 0.00139068 3.70453e-21)
(1.0237 -0.00357144 -4.43434e-20)
(1.03714 -0.0348204 3.72231e-20)
(1.06591 -0.00459065 -8.53476e-21)
(0.955305 0.0423709 1.44165e-19)
(1.02149 -0.00093855 2.13132e-20)
(1.02514 -0.00178858 -2.47304e-20)
(1.04424 -0.0526072 1.50439e-22)
(1.02321 -0.000849782 1.24686e-21)
(1.04272 0.0872937 1.44113e-20)
(1.02617 -6.06701e-05 0)
(1.02207 0.000753571 1.08574e-21)
(1.02297 -0.000195833 3.38307e-20)
(1.02611 5.35471e-05 4.09948e-22)
(1.01783 -0.0125022 -7.91687e-20)
(1.04059 -0.00806049 -2.80224e-20)
(1.02549 -0.00191761 -4.86159e-20)
(0.968475 0.0115346 -1.67461e-20)
(1.02346 -0.00358302 -2.32184e-20)
(1.0288 -0.00734325 -1.87749e-20)
(1.02363 -0.0844897 4.43768e-20)
(0.484813 -0.000275499 -5.45527e-21)
(1.03718 -0.00456711 7.6703e-20)
(0.834478 -0.00768728 -9.69628e-21)
(1.11632 -0.114793 -4.55127e-20)
(0.99962 -0.00455432 3.2995e-20)
(1.12143 0.0812035 -6.7573e-21)
(1.00148 0.0248962 -3.06142e-20)
(1.02568 -0.00223 1.81129e-20)
(1.1127 0.0721586 -9.98926e-20)
(1.02283 -0.000568009 -6.54602e-22)
(1.01302 -0.00359801 -6.6077e-22)
(1.03429 0.00240428 -5.46133e-20)
(1.02375 -0.00364125 1.79203e-20)
(1.06823 0.0786338 -7.19372e-21)
(1.02047 -0.00384085 6.0889e-20)
(1.06239 -0.0100365 -7.49082e-20)
(1.03466 0.00399016 -5.52008e-20)
(1.06705 0.0435249 -2.11343e-20)
(1.03127 -0.00902884 -4.89013e-20)
(1.02093 -0.00254837 -1.76559e-21)
(1.08321 0.0686382 6.08752e-20)
(1.01477 -0.06022 4.57204e-20)
(1.03943 0.0870458 1.16665e-19)
(1.02261 -0.00325932 8.21447e-20)
(1.06994 0.0944106 3.83967e-22)
(1.02268 -0.00270468 -2.1921e-20)
(1.02655 -0.00118636 4.24285e-21)
(1.05681 0.0338315 2.60017e-20)
(1.0376 -0.0181015 -2.58296e-20)
(1.04569 0.0103482 7.90546e-20)
(1.02477 -0.000744154 1.37443e-20)
(1.02251 0.00108823 5.03015e-22)
(1.03385 -0.0982719 -1.63498e-20)
(1.10142 0.104332 -8.80474e-20)
(1.02589 -0.00218384 -1.62277e-20)
(1.11956 0.0741129 1.10974e-20)
(1.02085 -0.00385701 4.34083e-20)
(1.10865 -0.121188 1.53502e-20)
(1.062 -0.02308 1.14216e-20)
(1.016 -0.0204143 -5.07743e-20)
(1.02553 -0.00170926 1.94149e-20)
(0.75251 -0.00397937 1.74434e-20)
(1.00997 -0.0505476 3.13595e-20)
(0.975105 -0.00433536 -7.13706e-20)
(1.0216 -0.00227195 -5.52325e-20)
(1.02441 -0.00217786 -2.29795e-20)
(1.03776 0.088143 -1.26981e-20)
(1.11071 0.0656861 6.34089e-20)
(1.041 -0.0037671 -1.78904e-20)
(1.0233 -0.00325422 -2.13987e-20)
(1.05232 0.083756 -5.24678e-20)
(1.02179 -0.000966099 6.18287e-21)
(1.02301 -0.00308686 -4.43674e-20)
(1.10417 0.0642771 5.40689e-20)
(1.03409 -0.0151049 4.79785e-20)
(1.10933 0.0967396 8.0855e-20)
(1.03754 -0.000532081 3.1116e-20)
(1.03663 -0.00656915 -9.55106e-21)
(1.10301 -0.0393539 -3.23472e-20)
(1.07643 -0.0981227 -4.38802e-20)
(1.18165 0.0565877 -3.25462e-20)
(1.02619 -0.000623033 -3.69696e-20)
(0.952626 -0.0115814 4.66345e-21)
(1.02229 -0.00162503 4.41866e-21)
(1.02917 -0.00731449 1.22654e-20)
(1.07055 0.0761461 4.14444e-20)
(1.01747 -0.00373137 -7.97355e-20)
(1.02432 -0.00171095 -2.48418e-20)
(1.03877 -0.0259113 5.12104e-20)
(1.02518 -0.00180789 -1.36896e-21)
(1.02546 -0.00196253 -3.29964e-20)
(0.372945 0.0071828 2.57063e-20)
(1.0222 -0.00343244 4.27958e-20)
(1.02493 -0.00292648 6.19221e-20)
(0.57153 -0.00355075 2.56977e-21)
(1.02297 0.00883091 8.23852e-20)
(1.00923 -0.0169554 9.61242e-21)
(1.02474 -0.00237991 -2.88862e-20)
(1.01972 0.000290488 -3.32394e-20)
(1.02972 0.0268258 3.00103e-20)
(1.07305 0.0199255 7.57523e-21)
(1.00009 -0.0150933 4.95107e-20)
(1.02136 -0.000957497 6.96234e-21)
(1.00205 0.0178786 1.8424e-19)
(1.0185 -0.0108344 5.72804e-20)
(1.07405 0.0645255 -9.30619e-20)
(1.03292 -0.000893606 -8.36972e-20)
(1.03372 -0.000360207 1.69433e-19)
(0.99139 -0.00513465 -9.22816e-20)
(1.02231 -0.00172869 5.31136e-21)
(1.03395 0.00105524 -6.73591e-21)
(1.07731 0.0179212 -1.40622e-20)
(1.16256 0.0593162 6.78681e-20)
(1.06226 -0.0728758 -1.87344e-20)
(1.05695 0.0803198 4.49258e-20)
(1.03099 -0.00129823 -2.02938e-21)
(1.088 0.0714265 -8.35258e-20)
(1.02646 -0.00925322 3.18676e-20)
(1.04209 -0.0381642 9.15909e-20)
(1.02396 -0.00285769 2.39611e-20)
(1.02925 -0.0116846 -7.74412e-20)
(1.0244 -0.00205358 -2.03351e-20)
(1.05358 0.039121 -7.06872e-20)
(1.08093 0.101068 -1.37241e-19)
(1.02558 -0.00184438 -1.49317e-20)
(1.03758 -0.00594862 6.15639e-21)
(0.974064 -0.00177702 -2.64297e-20)
(1.06474 -0.0619112 -1.10366e-20)
(1.06051 -0.0666841 2.95009e-20)
(1.02492 -0.00191991 -2.62357e-20)
(1.05916 -0.0127925 -3.85216e-20)
(0.160905 -0.00485996 -4.31026e-20)
(1.16042 0.0439538 6.07523e-20)
(1.02332 -0.00178196 -3.68805e-20)
(1.0692 0.0172875 -3.01632e-20)
(1.02515 -0.00603917 4.55887e-20)
(0.606168 0.0157712 1.69246e-19)
(1.0204 -0.00361269 -5.87713e-20)
(1.02471 -0.0169915 2.0733e-20)
(1.04022 -0.0222965 -2.15917e-21)
(1.02399 -0.0174955 7.93271e-22)
(1.02616 -0.0132442 8.01576e-20)
(1.02349 -0.0034701 -1.43811e-20)
(1.026 -0.00935409 -6.90095e-20)
(1.02751 -0.00417682 -1.64069e-20)
(1.0676 -0.00757674 1.7187e-20)
(1.02202 -0.00136362 -3.26518e-20)
(1.18919 -0.061824 2.15482e-20)
(1.15016 0.0100603 2.56755e-20)
(1.04754 0.0908198 8.53541e-20)
(1.00158 -0.0139894 -7.77779e-20)
(1.10345 0.0928578 -4.04984e-20)
(1.026 -0.000461139 4.12211e-20)
(1.08393 -0.0501166 -1.51051e-21)
(1.03127 -0.0250051 4.64785e-20)
(1.0276 0.0449491 7.1475e-20)
(1.0237 -0.00364419 -4.06219e-20)
(1.02367 -0.00130192 2.43496e-20)
(1.01899 -0.0113262 -7.94143e-20)
(1.02448 -0.00635685 2.33048e-20)
(1.05633 -0.0114136 6.36402e-20)
(0.935269 -0.00164068 6.26661e-20)
(1.00738 -0.00435407 -2.11247e-20)
(1.12663 -0.0138991 2.017e-20)
(0.915165 -0.000325492 5.01964e-20)
(1.03852 -0.0237329 -4.29643e-20)
(1.02136 -0.0580082 -3.79372e-20)
(1.02195 -0.00164698 1.08796e-21)
(1.0678 -0.00111476 7.38144e-20)
(1.02258 -0.0514501 1.15243e-19)
(1.10877 0.0832103 4.48626e-20)
(1.10376 -0.0453124 5.28815e-20)
(1.04447 0.00947574 8.12028e-21)
(1.05104 -0.074689 7.89269e-20)
(1.05763 0.0957716 2.54771e-20)
(1.05257 -0.0205292 5.78709e-20)
(0.975491 -0.00442404 5.48493e-20)
(1.03902 -0.0309391 6.63721e-20)
(0.350318 0.0247658 4.71747e-20)
(1.15716 -0.0668455 -2.1014e-20)
(1.0188 -0.00356439 1.81999e-20)
(1.05312 -0.0964601 4.63378e-21)
(1.0493 -0.0454293 -5.57304e-20)
(1.06556 -0.0873168 2.91582e-21)
(1.06243 -0.0564938 4.48827e-20)
(1.08275 0.0637041 7.98127e-20)
(1.0244 -0.00193969 -1.23857e-21)
(1.01351 0.0557979 2.50414e-20)
(1.03077 -0.000920535 1.84172e-20)
(1.02486 -0.00217997 3.58368e-20)
(1.02576 -0.00214186 -1.05234e-19)
(1.06603 0.011385 -1.5378e-20)
(0.0952444 0.00627478 1.01222e-21)
(1.02742 -0.00429671 2.36075e-20)
(1.04192 -0.0350315 -1.19816e-20)
(1.02993 0.0301906 -4.89587e-20)
(1.02212 -0.000874753 -1.1055e-21)
(1.01262 -0.00463789 -5.41226e-20)
(1.03905 -0.00396729 4.94602e-20)
(1.08422 -0.0214498 7.34968e-20)
(1.03064 -0.000728992 9.63825e-20)
(1.02577 -0.0026671 -1.46382e-20)
(1.01687 -0.026443 2.35812e-22)
(1.02561 -0.00583188 2.35908e-20)
(1.02152 0.000864678 1.28895e-20)
(1.01271 -0.0316533 1.08999e-19)
(1.06201 0.0757434 -1.79183e-20)
(1.0409 -0.0188667 -8.52404e-21)
(0.999681 -0.000606554 4.879e-20)
(1.02699 9.05826e-05 -1.55786e-20)
(1.03332 0.0323459 6.50985e-20)
(1.02533 -0.00249743 1.40048e-20)
(1.0261 -0.00194614 3.12928e-21)
(1.02439 -0.00294068 2.39906e-20)
(1.02565 -0.00219454 4.24148e-20)
(1.1519 0.0593728 4.68088e-20)
(1.04748 -0.0214099 1.38689e-19)
(1.03193 -0.0113274 3.3779e-20)
(1.01487 -0.0039339 2.18075e-20)
(1.02288 -0.000682727 1.28053e-20)
(1.09241 -0.0923 -6.19534e-20)
(1.18935 0.0052153 1.25801e-21)
(1.09799 -0.100422 2.81349e-20)
(1.02579 -0.0219091 3.17182e-20)
(1.03385 -0.00505541 7.64621e-20)
(1.02268 -0.00399811 -1.57855e-20)
(1.02056 -0.00713852 3.57357e-20)
(0.999338 -0.0320579 4.91098e-20)
(1.15145 0.0450112 1.03752e-22)
(1.02665 0.0779609 -1.80223e-21)
(1.02546 -0.00295274 -2.45242e-20)
(0.98607 -0.0222347 -2.49347e-20)
(1.02409 -0.00311037 5.57597e-20)
(1.05065 -0.0187233 -2.27442e-20)
(1.09212 0.0616206 9.38152e-21)
(1.02592 -0.000787788 -4.25199e-20)
(1.02402 -0.00297759 9.81494e-21)
(1.1289 0.0936771 1.07064e-20)
(1.14832 0.029566 -1.41836e-20)
(1.03826 -0.00877947 2.56395e-20)
(1.02428 -0.00214994 -4.12013e-20)
(0.986963 -0.00507025 5.54281e-21)
(1.00424 -0.0328858 -1.23754e-20)
(1.02403 -0.00256286 2.93334e-20)
(1.03963 -0.020352 7.96721e-20)
(0.671895 -0.00385676 -1.13511e-19)
(1.00133 0.0251374 -2.47776e-20)
(1.06492 0.0787336 -8.69683e-21)
(1.07938 -0.0457088 -3.21329e-20)
(1.02573 -0.0517753 -4.06722e-20)
(1.02866 -0.00179553 5.98641e-20)
(1.03649 -0.0147269 -7.07288e-20)
(1.14236 0.0154106 7.02577e-20)
(1.02545 -0.0583496 2.30652e-20)
(1.04115 -0.0294594 -4.04822e-20)
(1.02119 -0.000688881 -1.38288e-21)
(1.13226 0.00245904 6.05114e-20)
(0.61162 -0.00687847 -6.07245e-21)
(1.02468 -0.0657105 -4.19165e-20)
(1.04031 -0.0172163 -1.10137e-19)
(0.956548 -0.00939791 9.31428e-21)
(1.02413 -0.00272826 1.16759e-20)
(1.024 -0.00151582 1.94784e-20)
(1.04837 0.0459138 7.3004e-20)
(0.99299 -0.00510447 2.17686e-20)
(1.02523 -0.000460431 -2.52249e-21)
(0.958509 -0.00265566 4.47156e-20)
(1.15353 -0.0544628 7.77387e-20)
(1.02096 -0.00202715 -4.72943e-20)
(1.04414 -0.0333244 1.63196e-20)
(1.02306 -0.00169924 1.81897e-21)
(1.03027 -0.00848743 5.05513e-21)
(1.02367 -0.0804016 -2.05774e-20)
(1.07362 -0.0467027 2.41481e-20)
(1.02309 -0.00154804 1.49687e-20)
(1.02185 0.000633303 -7.72051e-21)
(1.02839 0.00233568 2.3408e-21)
(1.03638 -0.0499573 -8.75295e-21)
(1.00299 0.0350546 -2.04109e-21)
(1.07121 0.0903082 1.04306e-21)
(1.12184 -0.0071283 -2.62206e-20)
(1.02566 -0.00225992 -3.20772e-21)