/*--------------------------------*- C++ -*----------------------------------*\
  =========                 |
  \\      /  F ield         | OpenFOAM: The Open Source CFD Toolbox
   \\    /   O peration     | Website:  https://openfoam.org
    \\  /    A nd           | Version:  7
     \\/     M anipulation  |
\*---------------------------------------------------------------------------*/
FoamFile
{
    version     2.0;
    format      ascii;
    class       surfaceScalarField;
    location    "37";
    object      phi;
}
// * * * * * * * * * * * * * * * * * * * * * * * * * * * * * * * * * * * * * //

dimensions      [0 3 -1 0 0 0 0];

internalField   nonuniform List<scalar> 
44078
(
-595.127
672.763
-77.6355
1069.93
-1075.56
5.63341
-333.852
380.115
-46.2632
218.118
-257.242
39.1235
-497.747
497.747
211.492
-258.361
46.8692
-393.555
376.374
17.181
34.9937
-573.068
538.075
665.054
-834.257
169.203
-1009.43
1102.37
-92.9464
565.667
-156.293
-409.374
-534.918
534.952
-0.0339548
-687.591
582.534
105.057
-859.801
868.856
-9.05506
284.661
65.7593
-350.42
384.003
-9.89745
-374.106
814.271
-666.941
-147.33
-427.644
425.043
2.60132
160.254
314.836
-475.09
288.774
-354.714
65.9404
-593.809
81.7324
512.077
725.07
-60.0165
48.8191
-382.671
136.289
-488.815
352.525
202.618
-74.8349
-127.784
1072.55
-2.62541
659.663
-680.772
21.1093
-302.805
39.9917
262.813
324.989
-40.328
-444.927
543.833
-98.906
959.125
-246.014
-713.112
-687.62
775.772
-88.1515
255.854
-220.078
-35.776
483.579
-78.1793
-405.4
90.4804
-393.285
258.665
-431.014
172.35
463.871
-608.952
145.082
290.305
-43.9427
-246.363
826.696
-982.222
155.525
1064.99
-238.298
-1018.49
1035.93
-17.4378
396.589
-83.9991
-312.589
704.106
110.165
181.056
-314.268
133.212
1228.5
-777.725
-450.775
-590.935
146.008
534.827
-538.708
3.88065
230.461
645.594
-876.055
226.968
537.102
-764.07
-101.722
565.593
-398.496
186.098
212.399
-5.76392
-226.724
232.488
-679.259
-8.36107
235.865
-24.3729
422.792
-38.7891
-293.976
-59.4376
353.414
523.198
-499.029
-24.1686
-34.3827
-559.427
-467.425
49.0051
418.42
-293.14
-40.6294
333.769
799.471
17.5797
-817.051
-409.135
569.389
-16.2897
-248.057
264.347
-225.643
484.307
-363.63
464.574
-100.944
255.242
206.968
-462.21
493.556
-118.267
-375.289
429.708
-52.2201
-377.488
-430.204
-14.0075
444.211
-986.928
-31.5666
1068.85
3.70186
340.303
239.305
-579.609
-247.543
549.165
-301.622
191.616
40.9484
-232.565
-429.768
379.977
49.7909
-396.796
397.932
-1.1361
310.835
-164.06
-146.776
-249.631
-56.8924
306.523
-699.267
16.5276
682.74
403.89
-82.5844
-321.306
-247.387
247.387
60.839
-759.451
698.612
-668.228
73.1005
-947.206
848.245
98.9613
-323.061
-70.4931
-42.2138
232.98
-190.766
532.563
-112.071
-420.493
-644.375
-43.2161
652.259
-69.7247
89.7502
83.4292
-173.179
-361.113
102.326
258.787
-304.243
54.6123
848.112
-621.144
585.386
-612.259
26.8739
214.687
-88.7904
-125.897
-396.417
167.349
229.068
-35.2614
261.243
-225.981
-846.822
847.738
-0.915932
-40.2232
-151.399
191.622
294.994
5.52292
-300.517
-711.431
12.1635
-260.596
279.846
-19.2498
778.709
20.762
434.014
-648.233
214.219
204.444
-210.208
-767.98
836.335
-68.3552
677.055
-712.504
35.4487
74.5875
577.672
943.82
-846.984
-96.8352
-206.054
246.172
-40.1177
193.923
61.9311
353.091
133.611
-486.702
1009.1
-256.889
-752.215
16.4607
564.75
-581.211
-11.8473
-587.995
599.842
542.793
-202.49
135.681
425.004
-560.685
-302.444
405.125
-102.682
76.7054
-814.818
738.112
-701.515
453.973
-13.9414
-205.384
219.325
27.3201
-861.679
834.359
-325.893
342.343
-16.4506
-15.9788
271.22
23.8975
-891.245
867.348
-378.821
358.549
20.2719
-92.2033
-335.441
24.4406
-298.867
274.426
706.562
-787.737
81.1753
725.985
-860.304
134.319
-165.179
346.235
184.219
126.617
222.784
-208.221
-14.5636
303.395
-329.223
25.8286
-136.689
570.703
633.153
325.973
152.58
106.362
-258.942
272.339
-310.949
38.6104
212.576
-259.751
47.1749
-27.3253
322.319
-365.659
-13.162
2.21671
-180.892
178.675
214.363
-53.7563
-160.606
181.126
827.977
-198.07
-739.273
937.343
-101.04
-396.707
523.125
11.7019
239.6
-222.162
-17.4387
283.956
-217.568
-66.3877
8.60762
-228.888
220.281
-397.67
643.825
-246.155
44.2947
517.007
-561.302
984.169
-886.847
-97.3224
790.8
-787.07
-3.73038
-568.71
-241.633
810.344
-145.192
721.995
-576.803
451.317
-442.67
-8.64645
-262.722
18.8298
243.893
8.8291
-752.419
743.59
-186.569
-211.927
-241.024
228.077
12.947
241.298
-23.1792
31.0126
1020.84
-572.449
-448.396
735.192
-933.262
-396.301
93.8571
7.73321
206.63
16.6141
-778.355
761.741
-90.3464
-856.86
414.864
-450.563
35.6988
-106.885
832.871
51.5408
-737.041
685.5
-239.175
-23.5479
272.339
21.1865
243.627
-264.813
-431.413
431.413
81.7759
681.002
-762.778
-310.007
49.4107
-580.521
596.981
346.621
-314.859
-31.762
-777.827
-63.2633
841.09
-158.959
456.33
-297.371
466.822
65.7419
430.732
-440.648
9.91588
273.681
-61.1048
-187.014
-355.386
542.401
499.111
-380.4
-118.712
-327.169
21.4971
305.672
786.829
-80.2673
-518.053
-82.7869
600.84
-660.975
660.975
-135.077
507.063
-371.987
97.5401
-318.09
220.55
-919.627
350.917
305.177
-354.979
49.8019
436.245
15.0723
793.859
-459.631
-334.229
934.138
-87.2081
-846.93
71.0877
143.6
-847.746
614.895
232.851
-37.0497
283.47
-246.421
-201.157
224.099
-22.9413
-47.9486
-486.969
875.846
-890.478
14.632
-86.5946
428.546
-13.6813
789.908
-796.193
6.28539
244.348
-4.74781
35.9643
-242.019
822.115
-963.796
141.681
280.453
-336.79
56.337
570.329
-570.329
899.931
-93.2106
-806.72
594.018
73.1205
-667.138
67.4743
-333.315
265.84
-213.697
287.063
-73.3661
-481.824
322.865
51.4829
738.425
-392.597
528.886
243.077
-171.989
-684.224
-176.08
485.232
-630.424
453.018
-500.469
47.4508
-909.448
1046.98
-137.528
-578.492
555.24
23.2514
507.244
-581.372
74.1286
130.365
744.109
-874.474
211.118
530.899
-742.017
723.36
505.139
322.78
742.214
318.399
-230.579
-87.8199
-291.239
291.239
370.139
-400.937
30.7977
-26.8818
1095.73
267.585
-320.543
52.9581
531.853
-487.559
-297.43
-562.371
551.21
-564.268
13.0584
-28.8356
904.681
260.785
-297.835
-241.882
203.051
38.8312
498.628
-587.279
88.6517
-197.444
959.167
-761.723
588.398
-81.1541
772.748
-381.784
-390.964
336.909
-48.135
471.968
548.877
-220.713
178.5
-743.829
59.6051
-947.185
37.7364
476.973
46.2253
-680.05
891.168
-709.386
-58.594
180.427
-203.795
23.3676
-73.9873
915.322
-841.334
-38.0624
-817.788
855.85
177.312
-175.095
64.2017
165.054
-229.255
-6.4259
-365.721
372.147
331.865
-307.424
-617.016
219.346
-282.591
467.989
-185.398
908.575
-678.115
303.736
14.6632
299.6
10.7517
-310.351
-565.101
196.073
369.028
459.109
-28.3764
549.373
-736.387
-381.939
-14.8572
645.863
-746.161
100.298
-179.364
134.289
45.0751
-655.947
638.861
17.086
238.016
-216.829
68.1201
174.957
-744.759
826.535
-343.364
338.432
4.93105
67.8901
-361.553
293.663
257.594
-200.851
-56.7435
525.469
-328.043
-197.426
12.1053
-345.626
333.52
-496.555
484.708
-89.8941
317.976
-228.081
-664.087
163.379
500.708
-357.394
-39.023
653.612
6.05136
443.672
-20.8798
-191.197
45.3941
145.803
-22.8342
737.445
-714.611
-866.274
996.638
318.261
-154.139
-164.122
677.276
-775.041
97.7658
426.588
346.16
706.02
59.9593
-765.979
818.114
81.8162
568.211
-542.465
-25.7463
1093.75
-1012.34
-81.41
1.00573
-290.488
289.483
304.714
-5.11382
64.0259
138.593
212.228
10.5564
198.41
-194.057
-4.35273
136.503
152.729
-289.232
-300.418
280.739
19.6788
-174.665
-294.948
469.613
417.613
-552.69
-315.063
199.354
-186.41
-12.9444
184.23
1010.22
-567.593
-442.628
525.497
-109.014
-416.484
171.468
505.588
82.1782
486.033
20.7277
-702.402
717.298
-14.896
40.2941
-544.512
504.217
-104.001
-243.69
347.691
-447.121
38.4895
408.631
-140.054
-335.676
475.73
779.972
-1.26256
25.7797
187.645
-389.613
201.967
176.609
-266.503
-921.076
850.3
70.7761
-290.026
305.006
-14.9801
679.351
-91.3658
-587.985
1046.99
-603.799
-443.191
197.692
-185.753
-11.9393
223.473
-121.436
-102.037
-419.375
417.287
2.088
661.561
-30.044
-631.517
-698.094
-4.30718
381.042
22.8481
-590.145
469.919
120.226
586.137
-577.648
-8.48893
-855.761
44.4212
811.34
856.379
33.1962
-889.576
-423.874
283.82
-205.673
14.4752
-325.487
545.273
-219.785
-178.348
-63.5338
754.99
-793.052
-136.598
200.799
561.053
-181.343
-379.709
-123.256
-308.157
211.888
-211.638
-0.249554
619.6
41.9603
683.24
-608.653
27.0205
-301.341
274.321
838.353
-876.707
38.3533
-327.04
12.1818
960.74
-963.547
2.80732
47.7732
231.05
-278.823
680.113
-34.2501
573.226
-591.848
18.6218
-826.71
854.03
198.044
-211.986
786.726
211.925
747.242
197.265
162.657
-359.922
-293.638
-4.79788
840.239
-92.665
-747.573
588.098
-140.48
-447.618
258.427
-72.3296
76.4429
417.113
74.0266
-287.723
473.644
-503.659
30.0156
140.447
-346.655
206.208
137.344
388.125
76.7419
857.396
653.236
-773.09
119.854
-21.9423
982.682
-272.444
-38.4452
310.889
-209.629
220.68
-11.0507
38.5453
153.071
47.5149
451.597
334.403
-340.829
-377.514
13.8837
-345.753
52.6135
838.318
-58.3463
63.8779
-246.979
183.101
-968.706
21.5212
-932.746
-35.9598
-486.047
60.6828
425.364
-740.982
910.548
-169.566
-235.153
-21.2044
256.357
-135.322
-75.7889
211.111
-126.396
-76.5942
202.99
-174.528
237.407
-62.8793
853.473
429.324
-241.678
148.634
-11.3008
-567.191
-880.316
-40.76
424.857
163.241
202.975
-528.462
200.835
-1107.24
906.409
15.0295
208.945
-223.975
4.0606
-205.218
417.466
26.2065
89.0398
701.761
287.451
41.106
-328.557
-473.226
608.908
728.942
72.6297
-801.571
-781.461
-6.27566
804.276
-856.993
52.717
321.489
-282.484
-39.0044
88.236
230.025
850.991
-864.881
13.8905
978.822
-862.14
-116.682
939.472
-943.942
4.4702
-417.956
-172.189
0.279201
-872.96
561.453
311.507
-174.28
159.715
14.565
-246.69
383.193
138.337
90.5425
-228.88
753.03
271.202
-287.491
431.393
94.1043
785.04
-701.179
-83.8614
-52.1244
-134.292
-63.978
198.27
-302.327
260.989
41.3379
862.982
-839.085
-20.5542
377.503
-356.949
-355.837
-9.82211
573.339
-582.432
9.09383
364.229
-327.056
-37.1724
-828.667
731.278
97.3895
-905.904
831.917
142.829
80.6444
-404.275
275.257
129.017
465.751
-452.926
-12.8254
620.54
-622.583
2.04304
517.882
-44.2385
-359.102
-117.282
476.384
27.0688
-299.512
-61.8663
-250.47
312.337
544.291
563.937
-1108.23
-900.857
849.228
51.629
2.67939
-403.572
416.993
-13.4216
430.361
-398.864
-31.4969
674.931
-852.441
177.51
712.344
-884.749
172.406
-500.524
-163.563
-465.438
81.3755
384.063
301.141
-5.54333
-295.598
-325.905
199.51
477.097
88.5705
-719.771
-108.896
16.1627
182.247
-295.753
302.586
-6.83334
53.6987
-369.98
316.281
488.021
41.0442
-529.065
-239.293
300.632
-61.3388
-896.186
-19.6356
915.821
-151.942
-72.818
224.76
5.48818
-852.811
847.323
804.699
-118.301
-686.398
304.508
146.611
-208.477
-874.864
-21.3221
808.921
41.3792
3.63529
556.21
-203.119
-524.656
-10.2871
534.943
-801.986
913.791
-111.805
312.339
-244.449
-408.239
304.238
-29.6553
590.557
63.0549
381.508
-241.061
275.57
518.289
-10.9396
22.8535
341.375
-773.431
77.7667
695.665
455.582
95.6274
-102.513
-63.7053
166.218
-851.797
-23.0663
63.4624
333.126
-185.076
230.014
-44.9379
39.2768
-278.57
-279.646
294.446
-14.7999
-16.6221
20.0826
-511.509
491.426
-612.123
-134.038
-17.489
297.482
-279.993
-333.329
466.94
599.38
447.61
-1102.79
430.494
672.296
328.239
0.194752
-328.433
-190.178
-206.182
396.36
-523.953
558.947
-661.306
-20.1835
681.49
99.7854
79.2782
-179.064
-44.2598
799.25
839.831
-862.875
23.0438
807.326
-154.09
32.4878
-605.556
-320.271
-25.355
556.757
57.654
-614.411
435.059
24.0495
-347.888
389.433
-41.5449
-854.23
-3.65242
857.882
-27.823
-823.974
312.371
-291.437
-20.9337
625.22
-4.67976
594.156
-425.084
-169.073
-205.117
290.796
-85.6791
-72.3149
-305.199
-417.671
-49.754
897.581
-185.238
-830.306
89.3233
-629.076
16.9529
-536.589
46.4984
490.09
820.543
-39.6186
-780.924
-278.493
103.965
5.0009
-356.368
351.367
866.122
-191.192
304.701
-3.55951
636.881
-63.6555
494.297
-6.27575
801.291
-712.252
-1045.15
-57.6429
444.078
21.6727
545.49
39.8961
721.81
-712.981
796.865
-38.8324
-758.032
187.043
-227.266
271.078
-10.0888
-117.429
213.256
-204.648
474.835
15.1435
-489.979
575.12
-92.5627
-482.557
-457.441
420.941
36.4998
128.779
672.512
13.6015
-80.7882
-770.419
851.208
58.425
-673.233
614.808
220.847
-299.506
78.659
-735.385
654.597
91.6392
713.06
-504.414
1048.7
243.594
-179.717
-289.665
-192.135
225.285
-33.1508
198.256
-264.157
65.9005
-177.632
315.969
-8.66255
-347.174
-50.8811
4.33995
-408.818
404.478
-47.456
-160.78
-193.934
-26.1072
363.468
-337.361
-870.862
944.456
-73.5931
45.4563
-527.82
482.363
62.6423
-272.271
-755.588
105.832
649.756
341.157
-250.677
819.41
1.13301
-8.55522
226.123
-217.568
451.322
142.835
-124.391
-341.047
816.473
-201.578
-95.2437
-914.184
603.263
-363.957
135.969
59.2723
655.325
-594.486
494.096
-10.517
339.411
-34.2338
338.134
-420.385
82.2509
225.99
-279.587
53.5964
53.7198
242.754
-296.474
335.999
-510.663
-7.61126
761.954
-806.214
537.207
-62.3715
-109.194
740.671
-631.477
-267.612
300.188
-32.5762
-70.8818
291.729
196.24
-188.506
-277.593
9.98077
-1069.78
594.467
475.315
-35.7965
-78.6977
168.448
-306.823
292.619
14.2047
-675.959
692.573
266.495
-271.123
4.62843
-487.626
192.678
-509.451
-560.331
233.158
-277.101
847.154
-946.585
99.4303
-342.478
22.2076
490.158
-625.711
135.553
-3.05699
811.978
253.515
-290.796
37.2808
-311.816
-561.144
-36.8756
291.501
-25.0065
364.68
-117.418
-247.262
-20.2541
-854.246
874.5
-872.853
466.678
406.175
-54.9718
735.974
-462.149
44.4779
-148.482
-148.648
297.13
878.959
-838.442
-40.5179
388.239
-324.776
798.373
5.90258
109.767
75.902
-185.669
-580.549
1024.4
-443.847
140.575
-187.818
47.2426
-759.046
-144.951
903.998
133.446
231.235
853.493
-31.3785
813.466
-736.761
500.092
-423.649
7.80027
-255.857
79.817
146.3
-226.117
306.066
250.144
-18.7438
-1098.2
619.194
479.005
9.17007
891.738
-60.5341
-831.203
-430.401
621.529
-191.129
57.1108
756.356
21.4186
-546.075
-590.475
-18.0907
608.565
444.632
138.304
-582.936
-264.816
-522.254
277.852
61.5585
-173.249
-74.1374
-405.26
351.937
53.3229
-783.58
323.949
198.709
-259.315
60.6054
217.398
-262.935
45.5367
428.098
-423.758
736.463
53.9653
-790.428
-200.667
49.2676
830.759
20.5173
-851.276
-379.572
31.1396
348.433
118.64
860.182
-405.908
454.913
410.483
-72.349
-954.669
99.7752
854.894
789.149
102.588
-41.1357
267.126
49.7444
380.617
912.106
134.87
20.3631
-482.512
28.9165
-827.419
798.502
703.762
-776.408
72.6461
636.394
465.98
768.999
-56.0295
-712.969
189.225
-48.6499
75.7882
338.991
-414.779
-735.279
792.39
296.253
168.321
-236.427
167.522
68.9042
-111.29
-426.692
537.982
-30.938
-210.087
1004.43
-573.932
42.2693
-277.422
208.196
-216.752
-107.483
-149.759
30.9279
820.063
-176.421
512.419
-610.55
768.47
-157.92
695.592
-718.426
-402.311
392.024
-443.339
-179.244
39.079
348.569
-16.7712
-331.798
-46.2968
808.251
-505.254
-623.372
1128.63
286.878
-244.837
209.575
0.852312
195.387
-220.359
145.524
-885.406
909.082
-23.6761
-285.793
255.259
30.5339
71.8495
713.191
3.36099
765.638
634.337
-14.7371
-14.8877
-509.742
472.704
37.0386
933.111
17.148
-950.259
-320.7
-58.8724
0.453336
-236.805
807.939
-71.4762
529.001
-622.992
93.9914
-762.314
-84.5081
35.2971
286.192
900.961
11.1451
-489.811
440.091
49.7197
-950.467
-94.6794
34.4814
-403.804
369.322
-208.287
247.039
-38.7517
252.601
-54.3449
-39.2386
1050.28
-313.205
-737.076
579.483
-50.4823
65.3938
-259.406
-73.909
-700.146
798.031
-97.8855
-45.4519
-27.0242
244.422
504.387
-5.75933
92.7824
-870.609
-82.6544
206.148
-123.494
-205.576
212.93
-7.35392
-681.762
570.472
-458.712
478.795
344.406
43.8324
-458.944
423.998
34.9456
566.761
443.46
497.923
-459.607
-38.3159
499.71
-314.864
-184.846
-211.919
47.8597
348.406
-20.4443
-327.962
-229.185
37.0505
-285.935
269.957
-219.064
-636.698
-691.725
-81.3651
257.045
-58.3354
669.664
196.458
7.06561
221.012
817.742
-82.8501
-734.892
327.852
-141.847
646.706
-504.86
263.558
-284.762
-86.6689
531.301
-751.32
6.56099
-83.6302
-95.7341
500.011
-100.045
795.772
-695.728
-191.532
229.092
-37.5599
-44.8719
-240.921
829.582
-737.943
216.449
-429.791
-415.04
844.832
868.798
-199.133
-45.0175
802.256
-757.239
597.219
-6.66252
17.4929
-607.967
277.789
151.43
-429.22
-403.519
479.308
-25.9177
-312.8
338.717
-615.829
64.3145
551.515
-143.061
536.257
-393.195
-484.088
407.054
-481.676
74.6227
104.257
-169.29
65.0331
-157.268
354.533
-182.821
-199.117
739.832
-36.07
102.181
581.059
-610.928
648.629
-37.7013
269.284
-286.773
-811.376
-51.4992
96.6717
-432.348
590.118
460.163
-615.705
172.366
424.919
-854.71
413.084
-681.829
28.6412
653.187
-224.873
273.218
-48.3449
-816.308
886.69
-70.3824
-47.3018
-431.937
479.239
1005.36
-405.657
-599.704
-67.0933
-789.899
5.41726
306.954
-950.451
207.44
743.011
-857.672
-92.7793
-168.777
-5.50237
-777.774
731.477
-138.416
-302.157
440.573
-4.4033
-271.565
275.968
160.045
647.281
261.384
153.792
-415.175
-902.861
154.559
748.302
541.059
-580.802
39.7434
604.518
58.5737
-663.092
-45.8723
673.285
-639.926
-33.3588
351.816
-23.5772
-43.4555
242.604
-199.149
608.537
64.748
12.2842
-793.745
721.528
-777.558
-176.086
255.903
330.092
169.618
151.196
-334.017
199.68
-202.342
2.66236
336.688
-197.199
-139.489
592.273
42.0639
-749.621
801.81
-52.1894
-440.108
-82.5245
522.633
-4.50545
-291.248
270.152
67.0054
-337.157
241.812
-94.6609
-147.151
418.039
-465.341
-61.7116
-740.274
-409.926
122.721
134.873
538.126
-457.448
-80.6784
-233.923
248.953
-194.105
187.772
6.33284
48.6648
-255.647
206.982
-320.77
377.432
-56.6617
221.214
-24.6747
-196.54
450.478
554.882
-254.874
555.289
-473.557
136.115
-190.486
54.3712
-192.676
-24.6334
217.31
701.239
-96.7202
231.442
-163.322
-357.073
269.281
87.7926
-418.281
-42.3751
460.656
-351.677
448.349
304.013
-323.638
19.6252
-13.4633
25.5489
474.543
462.492
35.4311
60.7772
-479.058
218.514
-15.463
-333.28
-9.19841
-366.15
298.345
67.8052
339.579
-61.7262
676.767
220.814
-237.386
286.051
-283.855
305.352
124.929
650.712
-775.641
-738.413
-24.6279
763.041
25.0679
189.216
16.7691
-337.54
-690.583
621.033
69.5507
108.887
-199.287
164.297
34.9908
437.668
-159.878
-245.647
-189.582
435.229
-160.828
-348.915
215.525
-15.8457
-284.972
136.49
97.9481
-180.602
-1009.52
696.316
-346.309
346.309
851.484
242.262
-35.1211
-509.079
-500.442
207.153
327.799
527.82
42.5093
543.622
-49.3248
287.903
-265.534
-22.3697
-629.265
661.999
-32.7336
-50.357
-531.384
-49.1363
-632.915
736.944
-104.029
83.4351
-492.57
-352.468
539.28
4.34194
537.693
36.6082
-574.301
750.649
-646.62
6.69447
-96.7654
-92.0905
188.856
-391.01
105.074
307.44
-30.3546
-277.085
-138.477
-67.1955
-298.402
286.748
11.6544
-305.117
99.9994
871.914
-195.147
-339.909
41.0427
769.913
-2.73338
-767.18
584.108
-658.781
74.6734
-922.869
830.388
92.4807
-21.9407
-639.365
110.464
294.661
-20.792
-259.709
280.501
-805.838
46.3874
-200.696
-286.298
265.506
-465.887
511.343
-259.704
282.702
-22.998
-297.168
301.739
-4.57116
-815.243
706.05
995.968
-148.814
-181.56
318.731
-270.958
358.58
-195.923
437.701
-323.447
-114.254
284.32
55.2582
817.174
-81.0198
-736.155
184.844
-681.399
-764.412
683.182
81.2295
6.29862
-616.759
625.312
-8.55309
58.6124
172.829
-105.531
523.144
-262.547
310.19
-47.6426
378.683
-457.761
79.0773
-608.482
648.997
-40.5147
586.358
43.3156
-629.674
254.348
-217.146
-37.2028
557.629
-26.7606
-530.869
192.422
-84.1884
-108.233
-97.2648
-42.8631
140.128
961.144
-951.606
-9.53727
-575.485
-388.311
-45.2468
-760.402
805.649
-897.624
834.361
-610.8
376.951
233.849
605.011
-623.102
-10.3661
678.347
-667.98
56.741
112.302
-169.043
-73.4534
-296.527
-855.991
-66.8776
15.4728
364.505
334.021
-739.678
213.31
5.204
-223.514
223.514
391.795
-100.954
-290.84
-911.394
25.9882
-2.40349
-19.9421
-483.842
503.784
-753.834
-80.438
486.411
-405.973
-252.365
-408.61
430.653
-9.71218
-46.3723
255.317
152.722
183.966
-551.9
395.607
-164.656
426.04
337.209
-52.8881
763.876
-712.335
-282.849
-4.30918
269.775
-946.906
-3.56168
5.61915
927.492
532.076
-448.641
-850.548
578.509
272.039
16.1967
254.172
-270.369
350.462
-11.9537
-338.508
-460.808
30.407
-836.071
749.796
86.2749
-122.577
-198.123
220.09
49.7328
-269.823
212.633
124.576
-800.985
17.7829
-582.014
339.454
242.56
42.2721
261.123
359.175
-323.507
-35.6673
-404.552
417.859
-13.3074
847.399
-513.378
-454.794
312.948
-316.915
188.343
128.572
423.365
-720.795
568.269
-27.21
811.234
-807.873
82.0739
110.348
-831.325
816.161
15.1642
-795.469
45.8487
-472.164
-527.852
1042.66
-186.279
931.081
-835.194
-95.8876
-521.123
-463.31
984.432
-47.7458
-252.672
38.1197
223.011
-226.51
3.49926
-21.4007
-56.0529
733.328
471.68
-39.5205
-432.16
-347.458
-217.642
32.1869
-56.3872
-280.403
-166.177
443.143
-276.966
-926.071
926.071
92.1181
-798.003
463.774
-510.225
68.9921
441.233
-210.422
-193.852
183.677
-175.166
-376.734
-562.727
387.561
607.798
53.7636
188.048
428.736
-929.028
500.292
-48.0801
335.531
-226.216
-259.831
-210.462
436.118
-106.026
-178.134
-138.782
-65.4648
-835.392
452.31
-517.852
65.5415
18.5931
-706.869
789.618
-82.7483
415.651
-418.865
3.21408
243.493
-565.962
529.682
36.2805
62.4017
137.097
-199.498
191.317
-234.773
378.948
-708.777
329.828
110.531
758.325
144.055
247.74
-68.4479
-491.85
471.908
291.069
-304.842
13.7722
416.077
-37.394
353.489
-379.596
-20.0306
-367.317
387.347
-39.196
-290.027
337.259
14.2891
-351.548
-444.862
278.685
-385.752
36.412
631.212
-749.513
-409.199
530.452
-311.699
-91.8726
976.632
-866.101
-492.807
-312.267
805.073
291.235
33.5817
290.795
-324.376
-444.118
157.489
-280.066
-51.4822
450.138
-563.517
113.378
47.4094
613.566
-201.004
104.238
347.89
-305.617
708.736
-329.788
273.307
-170.982
23.2983
364.379
-387.677
-26.6826
-290.062
-11.2788
-249.65
247.891
1.75873
3.62983
567.468
-546.049
54.6397
-891.583
113.227
802.075
-3.70195
327.54
-114.907
525.496
328.696
-854.192
598.382
239.936
678.002
-778.047
-764.073
107.883
656.191
294.937
63.4339
-358.37
180.738
-173.131
-7.60662
37.3371
274.774
572.964
-208.972
63.091
145.881
-156.502
-607.173
763.675
-335.569
366.578
-31.0098
-278.828
285.383
-6.55514
-146.93
-173.613
-254.157
205.441
48.7167
920.102
-920.102
-86.9921
726.977
-639.985
292.847
-204.611
343.435
-68.1773
-658.394
187.064
26.1228
-213.187
16.7839
-586.678
569.894
49.4043
-274.314
224.909
908.635
-914.246
5.61051
301.521
-674.724
373.202
364.328
-329.847
50.3617
308.813
-350.736
876.232
556.741
-106.602
-71.7904
-239.159
-399.171
316.368
82.8025
226.403
-344.67
328.297
-500.166
171.869
-272.604
47.7314
-873.307
-73.5985
33.8445
-740.714
338.98
-171.63
796.37
-773.27
-23.1002
431.4
61.1522
-492.553
-685.407
610.576
74.8302
-274.857
219.013
55.8432
318.428
-27.3583
-426.002
-254.771
885.92
-840.684
-45.2367
-357.347
658.868
116.376
-556.485
-865.248
11.0181
-51.9625
-609.315
661.277
48.0883
-142.045
-94.3815
-920.429
394.124
526.305
184.408
3.36339
448.302
-32.6512
543.451
283.314
-276.788
-6.52658
-332.801
-5.61853
338.419
-566.022
464.301
18.3521
-237.936
219.584
227.15
-40.0855
-107.516
378.62
-271.103
-352.284
4.39562
433.441
-9.44298
51.7511
-813.495
761.744
-664.235
664.235
84.0034
179.554
-96.2658
-506.822
603.088
-854.504
938.126
-83.6218
741.155
55.2153
-14.0979
-834.599
848.697
322.57
-339.55
16.9799
323.787
12.3304
-336.117
585.221
-636.667
51.4454
47.2875
326.429
-373.717
-220.501
-127.5
348.001
189.225
-8.48752
108.985
-711.655
602.669
-760.049
267.243
345.429
-311.847
793.723
59.7706
-77.2058
-433.019
339.196
-391.416
-682.522
103.998
578.524
333.469
-293.818
-39.6508
-529.77
617.375
-87.6057
-81.4832
-362.58
444.063
404.642
-381.789
-606.113
-314.316
620.075
-722.716
102.64
-409.974
-440.574
837.871
-39.6739
-645.733
99.0055
485.509
-584.514
563.537
-644.648
81.1107
46.8114
-264.38
11.1132
-692.942
-316.537
321.538
-11.6531
570.374
-692.666
122.292
-344.461
-430.58
5.41818
-686.194
697.704
-11.5098
763.049
-164.667
645.102
-102.522
-542.58
235.449
302.677
283.513
-294.54
11.0271
807.726
-935.851
128.125
-663.353
-100.72
-316.712
54.1646
-327.217
60.5754
266.642
-55.2851
640.506
106.084
-278.621
172.537
356.345
-334.6
-21.7454
-368.721
-213.293
-25.4507
205.878
-38.4627
-165.332
227.677
150.783
-378.46
-269.976
317.96
-47.9839
592.446
-688.712
20.9508
286.489
-291.363
-35.8541
-302.456
-308.344
-711.288
540.768
170.52
-112.655
-145.706
-154.131
65.3402
-576.757
536.104
40.6529
576.951
-1098.07
-23.556
-1015.06
-140.914
375.684
60.4339
-21.5167
-51.3491
-761.465
129.988
858.57
-853.082
617.331
-76.5629
1.85782
589.213
-591.071
-291.247
-159.733
450.98
-62.3307
-212.526
13.6734
185.759
-211.412
25.6528
-997.24
244.821
449.264
-120.967
19.5614
-627.851
608.29
299.507
-364.74
31.6897
333.051
65.7841
573.676
-639.461
-100.64
773.778
-673.138
-669.668
-195.214
-738.794
37.866
700.928
-24.8972
579.305
-554.407
929.438
-920.485
-8.95294
571.12
-623.083
-611.179
-23.4161
634.595
-393.651
123.675
282.463
-280.913
-1.54999
801.806
-772.89
-95.6295
730.679
-635.05
456.492
16.2119
-433.16
-669.564
604.126
65.4379
399.879
-92.0263
-563.92
-59.497
-10.1233
-398.694
-44.0895
241.998
-197.908
17.9828
327.446
-358.715
362.928
-4.21289
749.862
-795.109
92.5824
163.775
209.255
-220.362
11.1076
684.172
-775.206
91.0344
-331.325
-699.494
-0.651669
796.301
75.6127
290.419
120.064
813.892
-17.5904
-32.1037
-1029.92
168.241
3.92766
24.5906
-569.102
150.248
-93.5067
-1082.24
-255.067
273.419
76.0814
216.765
-107.294
-467.075
574.37
-2.34419
-477.357
479.701
838.903
-31.1769
569.963
75.1388
-58.8856
-220.162
279.048
753.95
-798.968
-164.304
391.981
-415.339
446.983
-31.644
-679.386
722.938
-43.5526
303.147
-329.911
11.8201
388.531
-111.075
-277.455
179.068
-510.963
465.684
45.2784
3.51675
-459.212
466.293
-7.08044
613.501
-596.008
45.4735
-173.015
604.415
-290.064
57.3707
440.376
40.0659
608.531
-648.597
-64.3061
-155.772
221.749
-2.73555
33.1088
-386.086
21.3453
-416.008
0.668727
248.225
-249.972
1.74674
711.19
-682.549
-482.908
82.399
400.509
-42.1383
626.246
-46.9164
-208.73
914.254
-141.726
-772.528
518.882
537.492
-1056.37
-307.507
-6.76072
288.356
4.26251
10.2911
270.448
-697.07
-6.44098
703.511
592.361
-748.863
-220.867
187.036
33.8313
-540.727
-5.70123
-667.532
29.6733
106.442
-136.3
-427.968
-108.003
214.086
22.4358
-644.97
622.534
-37.8772
-497.976
535.853
-271.75
319.038
-69.1857
625.943
-733.299
755.55
-22.2508
217.627
-482.444
277.082
-280.205
3.12295
5.41888
-840.301
25.0573
256.052
-476.553
920.899
-932.174
11.2744
638.1
12.1723
-650.272
-48.4966
-543.351
-807.259
840.455
142.984
-206.962
897.667
-78.2572
234.834
-11.8231
-60.4914
-716.037
776.528
-89.7857
-596.409
-34.6097
572.303
-687.011
23.6583
201.096
-241.612
40.5164
-231.114
-0.171771
231.285
-556.868
533.487
23.3812
-173.51
76.2454
46.5279
97.5755
-144.103
-880.26
314.243
17.4151
-331.658
54.8852
637.919
-692.804
-336.551
374.74
-38.1896
-663.009
-24.0025
-659.133
784.062
-897.071
127.859
769.212
-142.247
-167.76
-443.285
62.8858
-457.432
-618.13
273.721
-2.51886
-284.707
287.433
-2.72603
159.595
-97.1932
-420.645
392.637
28.0078
-954.913
972.061
-319.686
109.751
209.936
98.2501
51.9976
526.624
869.725
-889.979
276.313
-46.288
387.477
-530.538
-790.068
811.81
-21.7415
-350.896
-195.99
546.886
127.992
-165.064
37.0727
424.619
-530.15
759.064
-691.427
-67.6368
-262.379
-45.1285
357.623
-87.4712
311.123
-290.172
327.571
-652.014
-17.55
5.67741
633.183
-351.284
100.607
20.6309
-891.493
550.419
-387.041
608.138
368.494
422.706
7.94737
744.702
-805.193
-38.8291
-7.8896
827.286
70.3808
420.978
-499.637
78.6589
239.791
-189.83
-49.9608
-198.234
236.405
-38.171
-1.60579
338.583
-336.977
-618.673
658.739
432.407
255.731
-210.925
-44.8059
355.517
523.443
312.009
-332.453
724.035
93.139
84.4346
-607.241
522.806
639.508
-35.382
34.7413
-930.86
114.266
816.595
193.386
-266.204
-246.442
-793.219
732.28
60.9388
5.0873
815.107
-820.194
934.731
-934.731
-376.424
17.7082
602.815
36.6934
-109.047
-42.3887
-189.659
232.048
437.293
27.5505
-464.843
-432.14
18.3402
413.8
189.82
972.174
-453.292
-218.142
34.5176
183.624
-627.738
630.596
-2.85818
457.982
-472.062
14.0796
-430.343
-1.79668
36.9869
-770.64
733.653
-635.753
-65.7624
-548.06
518.314
29.7456
-392.109
319.794
40.5717
-252.035
211.463
-174.733
-144.954
-27.1861
237.127
-15.3778
33.7805
328.288
-287.182
-71.0813
791.598
364.054
-49.8117
-770.12
31.7072
-890.016
814.449
75.5678
127.958
297.085
354.311
188.483
-759.476
859.33
326.447
199.684
-526.131
-159.529
594.425
-643.986
49.5608
497.432
56.516
-553.948
652.605
-354.607
-297.999
-493.773
-118.486
-784.306
683.666
23.1634
-690.327
667.163
-711.205
108.48
602.726
-761.7
17.1686
48.8044
508.401
-87.4233
-531.417
354.996
572.582
-597.479
-35.3064
-63.667
219.822
-156.155
75.9045
-708.82
-228.64
-223.081
159.414
-26.139
289.882
-110.651
-179.231
181.879
-5.34798
-639.641
717.408
-48.612
219.95
-171.338
869.859
-630.627
13.8676
145.395
202.495
0.98878
397.293
-398.282
-220.011
-210.128
430.14
180.916
763.54
378.513
-355.215
-843.879
7.80803
626.381
-609.853
-1.82134
-821.801
823.623
589.51
15.9602
-605.47
854.996
47.8186
-902.814
305.135
-3.39587
118.136
-409.382
425.146
8.29479
-254.309
333.915
-79.6064
185.636
380.707
-90.288
610.434
-53.7317
-556.702
-759.738
788.122
-28.384
12.245
661.733
-673.978
-647.476
117.707
-4.86075
-441.97
614.882
34.0913
322.254
-28.4971
181.933
-82.1472
-334.127
1.32649
95.9342
742.969
2.09964
-275.313
273.213
-425.102
-503.925
-57.4204
-757.779
815.199
275.642
-44.5922
188.699
-274.188
85.4895
178.045
-93.2259
-216.449
-516.873
-581.326
-792.279
-19.0973
-158.936
-815.745
776.437
39.3087
-34.1877
469.168
-434.981
59.7797
821.331
-881.111
190.139
-143.611
776.799
25.0112
-238.941
196.552
19.2274
-303.248
284.021
575.694
-573.836
-648.061
106.994
541.068
-591.783
587.677
4.10675
27.3552
256.158
-665.305
-441.939
608.527
45.7667
-654.293
-721.945
606.741
-679.195
72.454
-132.578
-76.3941
449.763
-484.145
-847.348
852.436
109.059
-308.155
-588.915
-642.23
593.189
49.0414
173.878
-69.6207
-42.7174
465.325
187.28
-577.556
66.0471
514.418
-526.449
12.0313
73.4563
-717.628
644.172
264.383
-16.1578
-306.696
164.111
142.585
-577.51
614.118
-136.411
496.462
-360.051
681.372
-86.9469
-1.07592
-315.223
316.299
-447.172
-442.715
889.887
-146.966
264.043
-117.077
-104.169
-578.353
-591.104
438.626
152.478
410.282
-47.1601