/*--------------------------------*- C++ -*----------------------------------*\
  =========                 |
  \\      /  F ield         | OpenFOAM: The Open Source CFD Toolbox
   \\    /   O peration     | Website:  https://openfoam.org
    \\  /    A nd           | Version:  7
     \\/     M anipulation  |
\*---------------------------------------------------------------------------*/
FoamFile
{
    version     2.0;
    format      ascii;
    class       volScalarField;
    location    "15";
    object      p;
}
// * * * * * * * * * * * * * * * * * * * * * * * * * * * * * * * * * * * * * //

dimensions      [0 2 -2 0 0 0 0];

internalField   nonuniform List<scalar> 
7639
(
0.318374
0.0077757
0.546745
0.339258
-0.00173349
-7.60482e-05
0.55085
-0.0106373
-0.000240725
0.144463
-7.18344e-05
0.00482393
-0.0158609
0.0729108
0.150132
-0.020497
0.333388
-0.0207225
0.00225033
-0.0879579
0.0973395
0.00316463
0.0540908
0.275797
-0.0268378
0.334962
-0.00159858
0.089497
0.230524
0.00512563
-0.0282703
0.847272
0.0531724
-0.000980484
-0.000214401
0.118272
0.00576431
0.532188
-0.00895147
-0.000683962
-0.00816468
-0.0198063
-0.0850273
-0.0536448
-0.00040986
-0.000168237
0.00312417
-0.00913591
-0.000139325
-0.0865924
0.007208
0.0851344
-0.0337715
-0.00349648
0.117388
-0.00947509
0.00250339
-0.0106607
-0.0431677
-0.00102487
8.00666e-05
0.00923353
0.0732214
0.00531333
-0.00197237
-0.0276343
-0.000196173
8.53061e-06
0.060892
-0.00852686
-0.0001544
-0.0717529
-0.0259379
-0.0438334
-0.0200088
-0.0610465
0.537793
0.0953212
0.0767686
-0.0800175
-0.015214
0.490878
0.137534
-0.0455605
-0.00290365
-0.00459552
-0.0113713
-0.0327625
-0.00132554
-0.00894988
0.236184
-0.0751005
-0.000273115
0.00244977
-0.00713748
-0.0448615
-0.0686685
0.000550678
-0.00320116
-0.00235304
-0.0743957
0.0861806
-0.00677851
-4.1103e-05
-0.0713916
0.241264
0.729957
-0.0100577
-1.28171e-06
0.0493405
0.31945
-0.0535424
-3.03313e-06
0.0523239
0.241886
0.000929952
-0.0654457
0.194008
-0.0518908
-0.0446661
-0.0771046
0.468899
-0.0812453
0.0205106
-0.0753224
-0.00195481
-0.0252205
0.00404603
-0.00207844
-0.0281512
-0.126968
0.0785395
-0.00122606
-0.00156193
-0.047121
0.30999
0.586256
-3.54785e-05
0.0160802
-0.0957554
-0.041556
-0.0606515
-0.0614275
-0.0420194
0.738642
-0.02333
0.232581
-0.0416885
-0.0571985
0.467208
0.113095
-0.0610499
-0.00299941
0.0335721
0.137099
0.491039
-0.0692327
-0.0158008
0.68956
-0.000126172
0.00120892
0.286536
-3.87821e-05
-0.00415333
-0.0080422
0.357878
0.358634
0.71607
-0.00472667
-0.00622417
9.61754e-06
-0.0799443
0.000914526
0.0158577
0.0174254
-0.0563908
-0.0477121
0.16555
-0.000270923
-0.00101741
0.344878
-0.000125559
-0.000230488
0.553388
0.0010302
-0.0461217
-0.0488326
-0.0412335
-0.0276504
-0.0938261
-4.22428e-05
-0.0662698
0.169858
-0.0068378
0.000145924
0.244092
-0.00254896
-0.0264558
-0.0269768
1.13489e-05
0.0019322
0.319261
0.212028
0.494391
-0.0582117
-0.0477947
-0.106723
0.0975993
0.315888
-0.000438972
7.06598e-05
0.693478
-0.0175672
-0.00127875
-0.0634479
-0.0264035
0.44459
0.455531
-0.0656474
0.803364
-0.00236327
-0.0204467
-0.0761952
0.116651
-0.103353
0.258806
0.690592
0.000126368
0.0215288
0.206792
-0.0084418
0.189391
-0.00112631
0.767062
0.480751
-0.011314
0.0058045
-0.000635304
0.125061
-0.000196855
-0.0127042
-0.0902094
-0.000154108
-0.00276882
-0.000894682
0.203755
-3.90664e-05
-0.00929736
-0.0778272
0.845778
0.0692943
0.743957
-9.42226e-05
-0.0302853
-0.000393521
0.514559
0.00890281
0.588138
0.00298614
0.00164424
0.0113167
0.101563
0.00125389
-0.00047764
0.00111739
-0.00888719
-0.0455503
-8.80492e-05
-0.0669296
-0.00765953
-0.000299
-0.00133006
0.560199
-0.0158033
-0.00161699
0.801567
-0.00305137
0.323552
-0.000438084
0.00150223
1.58355e-05
-0.0467783
0.112297
-0.0422864
-0.0434345
-0.000867047
-0.0790017
-0.030655
-0.000380033
0.00107567
-0.0045469
-0.0152144
0.00646803
-0.00257517
-0.0435831
-0.0397717
-0.0430605
-0.0404747
-0.0539827
0.470945
0.491403
-0.00316094
-0.0870263
-1.5517e-05
-0.00491652
-0.0453758
0.268085
0.15386
0.000202758
-0.0045136
-0.0525668
0.222469
-0.00210776
0.00789818
0.0026837
0.0425202
-0.119189
0.439219
-0.00338091
0.004838
-0.000243437
0.00894614
-0.000112212
-0.0337618
-0.000731184
0.0096462
-0.133754
-0.0533386
0.00429075
0.0192376
-0.00156323
0.042966
-0.014832
0.103783
0.21003
-0.133704
-0.055545
-0.0315739
0.0112751
-0.0878095
0.731609
-0.0478822
0.0644751
0.787298
-0.00325912
-0.00369717
-0.0638908
-0.00227971
-0.0190851
0.0139388
-0.00589192
-0.00438474
0.21731
-0.000145927
0.00119609
0.000163022
-0.00718461
-0.014506
-1.86405e-05
-0.00233659
-0.0413959
0.68601
0.00577736
-0.0172491
0.644046
0.411024
0.0914867
-0.0743798
-0.0809384
0.0108398
0.344775
-0.0223105
0.384069
-0.0323453
-0.0896894
0.220422
0.385206
-0.063496
0.144653
0.248224
0.343442
0.095182
-0.00643738
-0.008875
-0.00018942
0.00706455
-0.0227763
0.00218197
-0.000229665
-0.00341072
-0.0791429
0.0936668
-0.033108
-0.00541578
-0.00799182
0.00241534
-0.014525
0.00388563
0.204556
-0.00398
-4.79865e-05
-0.000119032
0.000100995
-0.0397907
0.211344
-0.00842354
0.0593697
-0.109205
0.52132
0.00715003
0.0147291
-0.0107331
0.540985
-0.00225557
0.432421
0.237502
-0.000250482
-0.0352124
-0.00696093
-0.0583409
0.00123272
0.102716
0.00720438
0.013682
-0.00182192
0.184437
0.228114
-0.0531501
-0.0413829
-0.00481974
-0.0299337
0.0409708
0.832962
-0.0540748
0.0099027
-1.89961e-06
-0.0261603
-0.00480814
0.039319
-0.0926139
-0.0900732
0.561009
0.204714
-0.0967054
0.255302
0.529425
0.0587941
0.00266719
0.355865
-0.0019094
-0.000393568
-0.0338151
0.000183954
-0.115917
-0.000504078
-0.0429899
0.00420746
0.25391
-0.00377128
-5.22386e-05
-0.0953255
0.00380369
0.0355014
-0.0717119
-0.0934184
-0.0771822
0.209103
0.172334
0.177178
-0.000440547
0.080296
0.112866
-0.00112717
-0.0319376
0.0013239
0.0122111
-0.00477633
0.0103729
-0.0016629
0.128419
-4.24223e-05
0.000425875
0.00432144
-0.0409965
0.0438705
-0.0407417
-0.0480977
-0.0428934
-0.110047
0.015318
0.343118
-0.103965
-0.0136303
0.776231
-0.0675101
-0.0152528
-0.0476581
-0.0121405
-0.0387122
-0.0202437
0.0587199
-0.0574667
-5.63515e-05
0.0515105
-0.000207447
0.476888
0.0618518
-0.0100555
-0.0271735
-0.000404777
0.492739
0.424219
0.0592352
0.120771
-0.070914
0.605346
-0.000135993
0.036009
-0.0344185
0.17807
0.719834
0.0255108
0.198543
-0.00385346
-0.00043859
0.0994575
-0.112834
0.516295
0.0399416
0.298813
-0.0143332
0.532726
0.402448
-0.0180769
-0.0153554
0.0786947
-0.0953271
-0.000181951
-0.0251077
-0.0916838
-0.0728329
0.0240752
0.0198227
-0.000266914
0.426646
-0.0022689
-0.000222502
-0.0342682
-0.00104841
-0.000479925
0.00726344
0.284245
-0.0861309
0.670957
0.000131408
0.277926
-0.0282306
-0.000162383
3.82313e-05
0.227181
0.27694
-0.00831672
0.254038
5.43872e-05
0.267668
-0.132703
-0.0188841
0.555122
-0.0610114
0.108496
-0.0457281
0.262936
0.270655
-0.0308924
-0.0388528
-0.0120216
-0.00584528
-0.00043016
-0.00254947
0.361505
-5.87814e-05
0.259219
-0.082587
0.443805
0.246805
-0.0936557
0.651269
-0.00330765
0.0102515
-0.0484684
-0.0370987
-0.0129883
-0.032307
0.0545563
0.761879
9.02618e-05
-0.0039003
-0.0532364
1.26915e-05
0.485495
0.0038723
1.21756e-05
0.000409005
0.000804621
-0.0323511
0.0380835
-0.00314543
-0.000184509
-0.013742
0.00527849
-0.101551
-0.0864364
0.044557
-4.66774e-05
-0.123602
-0.0245172
0.0960569
0.438464
0.00245569
0.120572
0.00032138
-0.0235446
0.130929
-0.013006
0.302986
-0.0241057
0.0410947
0.135677
0.19907
0.00923938
-0.0193467
0.219068
-0.0842863
0.523487
-0.0174348
0.335974
-0.0173625
-0.0023571
0.189355
0.00250951
0.126592
0.00400249
1.06744e-05
-0.107146
0.19746
0.00301297
0.100019
-0.0228934
-0.124396
0.00752635
-0.0422045
-0.00338677
-0.0164884
-0.0772924
-0.0490594
-0.0182653
-0.000310545
0.554031
0.120577
0.0589213
-0.000410477
0.401235
8.13412e-06
-0.000377345
0.138514
0.00287706
0.166089
0.088043
0.0346169
-0.0408955
-0.105339
-0.0677672
0.00273612
-0.0699337
-4.00274e-05
0.0076619
0.290708
-0.02946
-0.00561692
-0.0138013
-0.00395529
-0.00083802
0.78553
-0.0184148
-0.00112831
-1.20374e-05
0.190181
-0.0510675
-0.000673915
-0.00555091
0.220014
0.116003
-0.0628425
2.72815e-06
0.242647
-0.0291394
0.242339
0.033666
0.0412523
-0.0516866
-0.000197153
0.13245
0.103781
-0.031965
-0.0761625
0.363179
0.0125549
0.209411
-0.0051559
-0.0334256
-0.000804866
-0.00288842
-0.000221857
0.215684
0.295286
-0.00299375
0.0384669
-0.031189
-0.0617232
-0.0692409
-0.00375143
0.0332696
0.752743
-0.0347395
-0.000113501
0.115583
-0.00748293
0.642773
-0.022746
-0.0212541
-0.00414863
-0.0243894
-0.0128629
-0.0146138
-0.00673039
0.00313363
0.0454523
0.000216003
-0.13616
-0.038572
0.459653
-0.0604359
0.178174
0.00423409
-0.0458218
-0.0220418
0.282629
-0.0137893
0.000216986
-0.0284739
-0.0104348
0.0374603
-0.0468075
-0.0403887
-0.0272664
-0.0265901
-0.00965184
-0.0765288
1.11945e-05
0.0635362
-0.0677711
0.146399
-0.0507049
0.126144
-0.0798785
0.405457
0.0109234
-0.0532884
-0.0233984
0.679541
-0.113283
-0.023791
-0.102827
-0.040992
-0.0928744
-0.0549375
0.209954
-0.00558356
0.33611
0.0179486
-0.000798737
-0.00243726
0.102815
0.85317
0.00220428
-0.0284351
0.23058
4.58611e-05
-0.0371812
0.0542376
0.00267681
0.018237
-0.00326708
-0.0470964
-0.00604302
5.92024e-05
-0.0581234
0.32444
0.00517516
-0.0300477
0.00389762
0.230031
-0.000777018
-0.00251739
-0.00073592
-0.00157758
-0.00566817
0.00539872
0.00599363
-0.0322094
9.1588e-05
-0.0999584
-0.108913
-0.109274
-0.0264227
0.02986
-0.000435834
-0.0233159
-0.076496
-0.0138139
0.447157
-0.00255132
-0.0835327
-0.0094529
0.0147367
0.17384
0.000891327
-0.00032169
0.0869835
-0.0201631
0.029864
-0.00596862
-0.00419925
-0.0704286
-0.000364205
-0.000203036
-0.0243609
0.386065
0.320291
-0.039492
-0.0654321
0.0148623
0.00839904
-0.0170402
-0.0738445
-0.0181912
-1.10239e-06
-0.0151224
-0.043726
-0.0807509
0.00870435
-0.0675748
-0.000819283
-0.00601601
0.250885
-0.0496057
-8.57889e-06
-0.00567924
-0.0988406
-0.000341492
-0.023065
-0.000104463
0.00808156
-0.0988143
-0.0393107
-4.60728e-05
6.20318e-05
0.16533
-0.0544006
0.497249
0.322427
-0.0121783
-0.00119278
-0.0187033
0.000442014
-0.121215
-0.0855566
-0.0643402
-0.0292266
0.300136
0.0160637
0.000551314
0.0112368
-0.104234
0.00401749
-0.0284826
-0.0740556
0.00376937
0.0324373
0.0944306
0.015395
-0.0396634
-0.0633917
0.241325
-0.0343498
-6.44622e-07
-0.0959816
-0.0808104
-0.0408129
0.00821478
0.00153559
0.0144084
-0.0963618
0.0471505
-0.0470238
0.136494
-0.0476202
0.0115643
0.0285002
0.0219257
-0.047804
-0.113454
-0.000214264
0.188247
0.265055
0.0117644
0.210503
-0.0732372
0.0646729
-0.0543045
0.254365
0.131689
0.745937
8.51794e-06
0.126743
0.220981
0.0219844
-0.002304
-0.0253593
-0.0318892
8.55251e-05
-0.0252784
-0.0583503
-0.0277262
-0.0304472
0.000258678
-0.0999225
-0.000587827
-0.00137594
0.305079
0.00992912
0.00973581
0.0300865
0.262574
0.0166707
-0.000624639
-0.0993505
0.0121951
0.470601
0.00197823
-0.0611655
-0.000354054
-0.000861264
0.0107696
-0.0551649
-5.07195e-05
-0.0152869
0.0417667
-0.00301002
6.16458e-05
-7.55303e-05
0.193438
-0.0386901
0.0102538
-0.00172475
0.0129814
0.0232013
0.0128348
-0.000459303
0.434837
-0.0870514
0.2791
0.368354
-0.000331577
0.000543141
0.131504
-0.00119846
-0.000419112
-0.000673404
-0.00941118
0.0222812
-0.014663
-0.0258008
-0.0765096
0.215446
-0.0912468
1.94819e-05
-0.0267616
-0.0252644
-0.0481582
-0.00649207
0.00900003
0.00192134
0.040459
-0.000800376
-0.000366732
-0.0239512
-0.00643123
-0.034078
-2.46653e-05
-0.020586
0.0482793
-0.022129
-0.0297767
-0.0122105
-0.0164146
-0.0128721
-0.00774387
0.0129383
-0.0132941
-0.000164447
-0.000623078
0.0336207
-0.0170634
-0.0073483
0.012609
0.00434813
-0.116259
-0.0155149
0.1982
-0.0175571
-0.0676686
-0.0328029
-0.0310992
-0.0215872
-0.00560293
0.00337217
-0.00525587
-0.0193516
-0.0222983
0.235534
0.178829
0.0664493
0.436045
-0.000112947
-0.00487361
-0.0227273
-0.0114558
0.0946484
-0.0278515
0.0614684
-0.00630922
0.249837
-0.00289486
-0.00242733
0.0217797
-0.0228881
-0.000338885
-0.0286224
-0.00871411
-0.0286554
-3.12253e-05
-0.00978434
0.00301539
-0.0241793
0.0467858
0.0503472
0.0275332
-0.0194355
-0.0426118
0.149014
-0.00190951
-0.00293741
-0.00315687
0.637972
-0.000139555
0.0921735
-0.0291784
-0.0281059
-0.0360567
-0.0530614
-0.0390104
-0.0461366
-0.0251479
-0.00681864
-0.000151047
-0.00633515
-0.0297296
0.128946
0.00255688
0.146659
-0.0444416
-0.0184089
-0.00138458
-0.0391848
-0.000158996
0.187869
-0.040931
-0.0356723
-0.0325886
-0.00577402
-0.0439763
-0.00252811
-0.054383
0.132215
-0.0351989
-0.0825642
-0.00218772
-0.0367651
-0.0254286
0.0223568
-0.00480564
0.180544
-0.00358121
-0.0263134
-0.00101264
0.202417
-0.0522287
-0.0360209
-0.0048256
-0.013733
-0.00409448
0.21979
0.0121854
0.206357
-0.00709428
-0.00122792
-0.00188623
-0.00345675
0.173168
-0.0783948
-0.0100142
0.000506515
-0.0104427
-0.0135223
-0.00134879
-0.0185238
-0.0217005
0.0781711
-0.00732714
0.00684538
0.628366
-0.0802579
-0.0391807
-0.0752427
5.26802e-05
0.100923
-0.00525865
-0.0366048
-0.00827065
-0.0480275
0.00642286
-0.000801571
-0.00430976
0.00487149
0.252042
-0.00862216
-0.00266145
-0.00686798
-0.0683732
-0.0121592
-0.0304584
0.00647349
-0.0127249
-0.0130885
-0.00486444
0.255862
-0.0612485
0.00481522
-0.00625438
-0.037574
-0.0200512
-0.0655412
-0.00209186
0.119855
0.0331485
-0.0114848
-0.00257256
-0.0194243
0.656953
0.253716
-0.0162945
-0.000867609
-0.00354625
0.00638697
-0.00589027
0.0302648
-0.000623685
-0.0215404
-0.00294265
-0.0239838
-0.125261
-0.00158542
-0.0157217
-0.00202301
0.403751
-0.00945521
-0.0168606
-0.0308484
-0.00286895
-0.0407522
0.00710141
0.575641
-0.0155107
-0.0164099
-0.00314779
-0.000697616
2.19099e-06
-6.01919e-06
-0.0146492
-0.00099288
0.113407
-0.00100759
-0.00270419
0.0121259
-0.000387557
-0.0590186
-0.0685627
0.0249699
0.0552744
0.0374265
0.00181489
-0.0472608
0.118083
0.0931709
0.125157
0.157208
-0.0185842
-0.00129245
-0.00849466
-0.0759353
-0.0052096
-0.0213886
-0.00578007
0.407227
-0.0604532
-0.000725275
-4.624e-05
-0.00218549
-6.06713e-07
0.0130079
-0.000833741
-0.00675042
-0.0632011
0.000809187
0.00395934
-0.000327574
0.0811773
-0.0219471
-0.0454759
-0.00180387
0.413243
0.326842
-0.0145366
-0.0782465
-0.0381158
-0.0333976
-0.0205147
-0.00278323
-0.0855959
-0.0400308
-0.0557448
-0.0978547
-7.71282e-05
0.230097
-0.0180355
-0.0139705
-0.0366754
0.0272098
-0.000796817
-0.0121574
-0.00203101
0.0185948
-0.00225386
0.186134
0.000522463
0.0147709
-0.000620552
-0.101334
0.013046
-0.00113618
0.0136967
0.000610422
-0.00525603
0.143863
0.00213603
-0.00214821
-0.000189349
-0.000858403
-0.000757977
-0.0789756
0.159936
-0.00718112
-0.000403136
0.0135295
-0.000686498
0.287299
-0.0775552
0.306129
-0.0571208
-0.000676023
-0.000432575
-0.010646
-0.00827022
-0.000945406
-2.78473e-05
0.0357744
0.0410005
-0.000354326
-0.000501055
-0.0275484
-3.35543e-05
0.212631
-0.00139621
-0.0687517
-0.0266091
-0.00929797
-0.0719703
-0.0785844
0.19233
-0.0232508
-0.0282213
-0.000475834
-0.0734167
-0.0287552
-0.0053327
0.0799959
0.446174
-0.00174594
-0.0767641
0.0182406
0.381787
0.0546086
-0.000180251
-0.00881523
-0.00598324
-0.00726345
-0.0626982
0.113435
0.000264263
0.025521
0.00444942
0.0924658
-0.000781148
-0.000185116
-0.0888533
0.344104
-0.070894
0.173272
-0.00185896
-0.000302299
-3.68901e-06
-0.0886133
-0.0550995
-0.000512788
0.124009
0.0163851
-0.00781682
0.528055
-0.000590749
-0.00542841
-0.0758199
-0.0287498
-0.0033688
0.172523
-0.0671207
-0.000249492
0.0175009
-0.000264436
-0.000152401
0.172069
0.00193595
-0.000677323
-0.0671402
-0.0337987
-0.00514183
-0.0345574
0.00356035
-0.0314367
0.00248123
-0.00513798
-0.0826518
-0.0505214
0.0254602
-0.00134245
0.1955
0.262294
-0.0947674
0.014042
0.027586
-0.00628537
0.210987
0.130385
-0.0381295
-0.000243494
0.0143687
-0.0715271
0.0165164
-0.0377259
-0.00310296
0.0570436
-0.0375659
-0.000206465
-0.000111426
-0.0410974
-0.0341696
-0.0354791
0.0141359
-0.00372214
-0.0580961
-0.000230306
-0.00205575
-0.00031369
-0.044035
-3.56622e-05
-0.00285538
-0.0530291
-0.100339
0.0984574
-0.00438143
0.00617225
-0.0293308
-0.0347686
-0.000193746
-0.0605891
0.078485
0.199847
3.46484e-05
-0.00016806
0.203558
-0.00369974
-0.0925719
-0.0533231
0.0049957
0.000707847
-0.0876114
-0.0285175
0.208533
-0.073053
-0.00217732
-0.0129063
-0.0671039
-0.00085824
-0.000360314
-0.00134914
-0.0188929
-0.0665875
0.150691
-0.000314602
0.65519
-0.0419713
0.000168951
-0.00143404
0.000366923
0.000421215
-2.1506e-05
0.000199842
-0.0686831
-0.0010716
0.000635648
-0.000296698
0.179732
-0.00833691
-0.000289072
-6.807e-05
0.449658
-0.0296186
-0.046052
0.00169502
-0.00106447
0.074811
-0.000148082
-0.0176373
-0.130255
0.00323943
-0.00933646
-0.000145512
-0.000305978
-0.0413014
-0.0707984
0.0106429
-0.109069
-0.065027
-4.20523e-05
0.0305564
0.0458318
0.141157
-0.00253664
-0.000234656
-0.0726505
-0.00886391
-0.000743398
-0.0642442
-0.000206259
0.0524875
-0.000136024
-0.00188141
-0.0399285
-0.00309431
-0.075421
0.597255
-0.0024097
0.000402654
-0.0692097
-0.0655427
0.0134533
0.00692972
-0.00022658
-0.0421337
-0.000127244
0.248595
0.801627
0.0775733
0.00450301
0.00532779
-2.78975e-05
-0.0376902
-8.71899e-05
-0.00999158
-0.00249829
0.000542604
-0.00491562
-0.0136026
-0.00018445
0.0012848
-0.0115261
-0.000466264
-0.0140337
-0.022873
-0.00779347
-0.00167418
0.714732
-0.00102509
0.0036197
0.000355644
0.0201928
-0.0647903
0.014105
-0.000263547
-0.000150052
0.00390456
-0.000164759
-4.46987e-05
-0.0163046
0.00102094
-3.60714e-05
-0.0663273
-0.00329747
-0.0728769
-0.00241461
-0.000102263
-0.00457065
-0.0099769
-0.0209435
-0.0307172
0.00343085
0.000763798
-0.000690023
-0.00288836
-0.000119478
0.351148
0.00230334
-2.94115e-05
0.000858719
-0.00296323
-0.000530114
-0.0816428
-0.0708153
-0.000196431
-0.0100877
1.93828e-05
-0.00381594
-0.000110258
0.0496255
-0.000209508
-0.000280362
-0.00511456
-3.54904e-05
0.0196608
-0.000332985
-0.00185673
0.0271307
1.74854e-05
0.483957
-0.0694392
-0.0549485
-3.78427e-05
-3.13787e-05
0.00282082
-0.00174139
-0.0657009
-2.52297e-05
-3.44858e-06
0.00109584
-4.56325e-06
0.000553027
0.000657578
-0.000677574
0.0011536
-0.068353
0.617047
-0.0435019
0.430118
0.0132694
-0.0231421
-2.74851e-05
-0.00129092
-0.0172801
0.000207684
0.000413988
0.000246182
0.0644161
-0.00196825
-0.000325267
0.634557
-0.000793067
0.000859101
0.00073691
-6.99872e-06
-0.04338
-0.00316491
0.00166797
0.000179739
-0.000779195
-0.000102287
-0.0013519
-0.0577005
-0.000614033
-0.00231876
-2.43218e-06
-0.000395355
-0.000380808
0.243515
-0.000650453
-0.000405202
-0.0887052
0.00553858
-0.000127575
-0.00195392
-9.14697e-05
0.222158
-0.0926959
-0.00043962
-0.000570418
-0.00273107
-0.000234047
0.07761
0.141459
0.0320605
0.000743653
-1.015e-05
-1.47573e-06
0.072788
0.000369209
-0.0786127
-0.0312474
-0.0221274
-0.11068
0.719519
0.00289768
0.237679
-0.0204969
-0.0394368
0.226453
-0.000524668
-0.0841808
-1.87817e-05
-0.0127912
-0.0645388
7.99611e-05
-0.0621234
-0.00138801
-0.00724834
-0.00780565
-0.0567143
-0.0561186
-0.00452485
-0.0776481
-0.0583953
-0.000275392
-0.0171495
-7.76606e-05
-0.0500352
-4.13689e-05
-0.000273811
0.0247404
0.214338
-6.91757e-08
-0.0598692
0.0052425
0.00011085
-0.0287201
8.27576e-06
-0.0192892
-0.000383893
-0.0513481
0.000181681
-0.000129358
-0.00294173
-7.33591e-05
0.209141
-0.0411968
0.0796069
-4.57628e-05
0.000917744
-0.0438238
1.04556e-06
-0.0741475
-0.085286
-0.0725427
0.662245
-0.00925403
-2.59267e-05
0.0371803
-0.0552705
-0.00365507
-3.80546e-05
-0.0001268
-0.062383
0.000183366
0.00127954
-7.48341e-07
0.000230451
-0.0381102
0.0721567
-0.0703367
0.125468
-0.00764035
-1.8885e-06
0.00933985
-0.0643206
-3.09247e-05
-2.02652e-05
0.000468136
9.36157e-05
0.000592177
0.247574
0.0498675
8.19644e-05
1.56454e-05
-0.085444
0.262381
0.229946
-6.52561e-05
-0.0485058
-0.026429
-0.0145144
-0.0632163
-0.0119509
-0.00417543
0.186087
-6.18465e-05
-0.0359077
0.220746
-0.0642853
-2.66407e-05
-0.0798207
-0.000255907
0.348506
0.040024
-2.21663e-05
-4.08651e-05
0.239282
5.09121e-06
-0.000262078
-0.0165445
1.80683e-05
0.313694
0.00495124
-0.0104231
-0.0838692
-0.00538275
-0.0886476
0.240357
-0.014552
-0.0335681
0.00144447
-2.88968e-05
-0.00147383
-1.27907e-05
-2.39745e-05
0.0336919
0.237259
0.197423
-0.000638898
0.321648
-0.0156072
1.07606e-05
-0.0604447
-2.72431e-05
-0.0377567
0.0415722
-0.0200011
0.00643807
0.00273099
-0.0131263
0.000359978
-0.0023967
0.0283442
-0.00411513
-7.13878e-05
4.28528e-05
-9.05885e-05
0.0445256
8.0086e-05
-0.0299982
0.341024
-0.00853253
7.38393e-05
-0.00493766
-1.54799e-05
0.0591316
-0.000514632
-9.64248e-05
-0.000123878
-1.91088e-05
0.276202
-0.000219848
0.300526
-0.0793936
0.000160081
-0.0668698
-0.000700834
0.20602
0.651137
-0.0020132
3.48981e-06
2.27425e-05
-3.09092e-05
0.169252
9.51407e-07
0.00152556
-0.0331193
0.285632
9.40488e-06
2.15332e-05
4.23489e-06
3.59552e-05
-0.0282232
2.54347e-06
0.310886
-0.0220523
-0.000180634
4.29282e-05
-0.00293992
-0.0391633
2.08847e-06
-8.28691e-05
0.217473
4.87603e-05
-0.0429825
-0.0607088
0.000191018
1.18125e-06
-0.12297
1.81551e-06
0.212094
2.14392e-05
-0.000643456
1.64939e-05
-0.000253254
0.124594
4.38351e-06
-0.00233579
1.14124e-05
0.0187278
-0.00482412
-0.00904206
0.00126108
0.202291
-0.000389547
-0.000117878
-0.0124503
-0.012033
-0.000352828
-7.79998e-05
-0.00128322
5.796e-05
0.189362
-0.0143461
0.642247
-1.09505e-06
-0.0107542
-0.000229582
0.168802
8.24497e-05
-0.0356285
3.39138e-05
-0.00225437
-0.0447922
-0.000332379
-0.0217155
-0.0649454
0.00729822
-1.41209e-05
-0.0704606
-0.000477123
-0.000427737
-0.00782243
-0.0181391
0.00187503
-7.44602e-05
-0.000626842
-0.0012836
-0.00182505
1.84478e-05
-0.00172685
0.629626
0.000140581
-0.00462201
-0.0467004
-0.0937653
-0.0817691
-0.062888
-0.0296642
-0.00075024
-0.0206669
0.000111488
-0.000119058
0.629817
-0.000136937
0.217628
-0.000644189
0.000574357
-0.00161874
-0.0731277
-0.000601052
0.000956249
-2.25549e-05
-0.000564888
-2.39848e-05
-0.000116097
-0.0206711
-0.000159107
-4.07038e-05
-0.000121032
0.000206447
-1.54635e-05
-0.0563205
0.260893
-1.43177e-05
-0.000857509
3.91134e-05
4.45323e-05
-0.00119068
1.29922e-05
-0.00128962
0.000406441
-0.000526517
-0.0829207
-0.000984951
-0.00258989
6.82777e-06
-0.00220308
0.00048343
-2.19609e-05
-1.41801e-05
1.9255e-05
-0.00113479
0.000775083
-0.058474
-0.0360882
-0.0837373
0.000876242
-0.00261157
-0.0263743
-0.0843259
-0.000136544
0.0222353
0.00980868
-0.00148355
-0.0163527
-0.0730705
0.568804
-0.000602628
-2.17408e-05
0.00128572
7.10773e-05
2.53624e-05
0.100425
0.00523172
0.116222
-0.0468418
0.552787
-0.000744111
3.00798e-06
0.000215323
-2.65309e-05
-0.00193111
0.194232
0.28734
-7.97419e-06
-0.000243836
-2.58335e-05
0.272204
0.0255125
-0.00764076
1.68288e-05
2.78217e-05
0.0103972
-0.000990974
-0.0908561
-0.022834
3.41506e-05
0.00501995
-0.0411935
-8.76739e-05
0.00262959
-9.83508e-05
-0.0601756
-0.00247951
0.186708
2.38604e-05
0.00242358
-8.3626e-05
2.13114e-05
0.000245761
-0.031122
2.0986e-05
-0.00129923
3.21825e-05
-0.0266445
-0.0598366
-0.00426895
-0.00951098
-0.0119154
0.013033
-0.0120649
-0.00348904
9.74164e-05
0.000148743
2.91871e-05
2.54846e-05
-8.1943e-05
0.0128527
-0.0730219
0.000704527
-0.0542322
-0.00433992
-0.0631021
0.00012587
-4.59797e-06
0.0018899
-0.0868077
2.59129e-05
-0.0542955
-0.0199995
-0.0466812
-0.0539606
3.81758e-05
-0.00483219
0.000276911
-0.1372
0.174709
1.57034e-05
-0.0764114
-0.0297922
-0.00593632
5.44276e-05
-1.23786e-05
0.0369412
-0.0225911
3.40646e-05
-0.00941188
-7.87753e-06
0.000307853
0.160552
-1.20509e-05
3.30739e-06
-0.000123666
4.95555e-05
0.00130105
0.000126062
-0.00728255
0.000333508
-0.017174
0.00159529
-0.000298296
-0.0418839
-0.0560126
-0.00870024
-2.19675e-05
3.06738e-05
-0.0739659
0.00821877
-0.061941
4.07576e-05
-0.0071754
-5.23884e-05
3.48908e-05
0.0934202
-0.00967954
-0.00389885
-2.76295e-06
-0.0239969
7.14211e-05
-0.0853787
3.83526e-05
-0.0960754
2.60214e-05
-8.60056e-06
0.0001223
0.00147288
-0.0871056
-0.024467
-0.0878549
2.24048e-05
0.000132772
-0.0979748
-0.0319183
-0.0116039
-6.95752e-06
-0.0329878
-0.0643337
-0.0986538
4.17704e-06
-1.10921e-05
4.92474e-06
-0.0831065
-0.0849028
0.00104253
-0.0150894
-8.19477e-05
0.25048
0.000134723
1.99761e-05
0.000213614
-1.42321e-05
-1.22348e-05
-0.00503969
0.000160698
-0.00356327
-0.0813509
-0.017794
-0.0753013
5.62932e-05
-7.41917e-05
0.0684399
-0.0594538
-0.00656747
0.145845
4.74151e-06
-1.93777e-05
-1.7632e-05
0.113912
0.000246638
-6.08299e-06
-7.2441e-06
-0.0746557
-0.0209495
7.07335e-06
0.000108717
-0.0126416
-0.00883393
0.000613643
0.290465
-0.0741924
0.000267226
0.810694
-2.84442e-05
-0.000973103
-0.0114297
-0.0993051
8.58205e-06
-4.88238e-06
3.07762e-05
0.00683181
-0.0418588
-0.000481622
-0.0638307
-0.0106192
3.80602e-05
-6.62324e-06
-0.0138504
-0.00342768
-0.0150907
-0.0763753
-0.0593569
-0.0509869
-0.00149588
-0.0355583
-9.14544e-05
0.000503853
0.0122525
0.000766543
-0.000115667
0.00109826
4.30026e-05
-0.000134514
-0.0164423
-1.71923e-05
-4.18299e-05
0.0497485
-0.0231155
-0.000232381
-6.18139e-05
-8.16434e-06
0.317569
-0.00908768
0.00113004
-0.0371148
0.00032541
0.000282652
0.000242492
-7.0624e-05
0.000687627
-0.0495592
0.0236923
-1.3099e-05
-0.00023445
-0.0539105
-0.0411612
0.0652425
-0.000691518
0.00265093
0.0250245
1.95743e-06
8.47255e-05
-0.0594041
3.16695e-05
0.211052
1.08182e-05
0.00597399
0.000236018
0.000318175
-0.089806
-0.0100549
-0.0240299
-0.00334857
3.78447e-05
0.00928466
0.0818818
-0.016672
-0.000191612
0.123931
0.206749
4.801e-06
-0.0674423
-9.66069e-05
-1.4928e-05
-6.43271e-05
-0.000796402
0.0276307
-9.6024e-06
0.000351671
-0.0327797
-0.0343001
-0.0295113
0.399579
2.41196e-05
-9.99117e-05
0.217107
-0.00617638
-0.00524455
-0.000918438
0.214014
6.21991e-05
-0.000443317
6.33753e-05
3.66778e-05
4.50991e-05
5.14779e-05
0.000104979
-0.0239639
1.09594e-05
-0.00458967
-0.0583405
0.301104
-0.00020258
-7.16026e-05
0.00668715
0.111619
-0.0580726
-0.00105884
-0.089752
0.396807
6.15755e-05
0.519982
-6.36725e-06
0.00473879
0.0338519
0.00061772
0.562765
-2.30971e-05
-8.64797e-06
0.001667
4.41903e-05
-0.00121494
0.000372344
1.50766e-05
-0.00273809
1.26496e-05
-0.000206058
-0.00458623
0.310129
0.0691285
0.0307027
-0.0574584
-7.30198e-06
-2.66973e-05
0.00481197
-0.0688707
-1.41429e-05
-0.0610334
-7.7586e-05
0.135163
0.0823325
-0.0435004
-0.00188972
-0.0159756
-0.00138169
-0.0200819
0.00568445
-0.0100222
0.0851942
2.99717e-06
0.287638
0.0380491
-0.000816049
0.267497
-0.0181425
-1.77862e-05
3.21716e-05
9.55282e-05
-0.000299757
-0.000171493
0.313667
-0.00137824
0.321947
-0.0014884
0.211633
0.280364
0.126762
-0.00966127
-7.79366e-06
8.63803e-05
-0.0144715
-0.115747
-0.0630179
0.00213936
2.69754e-05
-0.0504893
-0.000438836
4.80091e-06
0.00144703
-0.00150205
-0.000890182
0.0456018
0.000107714
-0.0636441
0.0778726
8.28804e-05
0.000380895
-0.0191611
-0.0739934
-0.00102925
-0.000731563
1.70782e-05
0.000353813
0.0765648
-0.0228659
-0.0623358
0.00187459
0.107899
-0.0514204
4.93777e-05
3.16571e-05
0.0278064
-0.000131609
0.0931715
0.00258795
-0.018487
-0.000543112
0.0023425
-0.0477594
-5.44304e-05
0.000697916
0.00269968
-0.0953783
0.182198
-0.081093
-0.036087
-0.000236228
-6.57919e-05
0.00950282
6.58358e-05
-0.0965674
-0.0850054
0.000799363
0.0048119
0.00537903
-0.104553
0.000904796
0.000269528
5.28118e-05
-0.0542962
4.05561e-05
0.000792809
0.158332
0.230217
-0.115902
0.0664021
0.0655
0.0274826
-0.000227875
0.0167373
0.000174494
1.25863e-05
-0.000105962
-8.69168e-07
3.50959e-05
-0.000506452
-0.0105148
-0.062864
-0.0133955
-0.0381812
0.0716183
0.0599087
0.00577813
-0.0816772
0.000226874
0.00658489
0.0158354
-0.000550892
0.100251
-0.00171767
-0.0149547
0.0170772
0.00778123
0.0014572
-0.00559766
0.0593683
0.0011816
-0.0267403
-0.0223776
0.66899
-0.0332456
0.107748
0.0288194
-0.048733
0.00315765
0.00014212
-0.00360472
7.81191e-05
-0.00367933
-0.0340804
-0.000100501
-6.77893e-05
0.343299
-0.00459118
-0.0556178
-0.0255935
0.000288753
-0.00198149
-3.34193e-05
1.07997e-05
0.0530921
5.714e-05
-0.00410509
0.101094
0.00884996
0.00159801
0.025854
-0.00797999
0.00597247
-0.113763
0.00124189
-0.00616907
-0.0735045
-0.00120449
-0.0111657
0.00108844
0.00153541
0.00141625
0.0514676
-0.000445961
0.00800358
-0.0713543
-0.0280253
0.000445921
-0.0711059
-0.0204529
-0.0234985
0.000149076
0.00937508
-0.0856045
-0.00118179
-0.0067267
-0.0663498
0.000371979
-0.00165113
0.281704
-0.0285107
-5.86521e-05
0.0116722
-0.0654854
-0.0014805
0.250383
-0.0030356
0.00145447
0.0801137
-0.00200724
0.0116976
0.166315
9.14972e-05
0.00167444
0.000251193
4.80956e-05
-0.00624026
-0.00981114
-0.000186515
-0.0327211
0.128507
-0.0500746
-0.0890504
0.00166306
-0.00455374
-0.000842442
-0.0537724
3.50323e-05
0.0239267
5.88291e-05
-0.0217453
-0.00273578
-0.00690109
-0.0887332
0.149995
-0.0941505
-7.66497e-05
0.24424
-0.00270681
-0.00348004
-0.0780748
-0.0983012
-0.0212673
-4.30126e-05
-0.00155715
0.0102477
-0.0043063
-0.00657484
0.000625754
0.114641
-0.0561396
-0.0152855
-0.00924862
0.0328904
-0.00324902
-0.00129566
0.00243634
-2.1962e-05
-0.00431217
0.147219
0.00113575
-0.123548
-8.34272e-05
-0.010161
-0.00494176
-0.103971
-0.015779
-0.11728
-9.26125e-05
-8.98599e-05
-0.00537507
0.0149145
0.00259632
-0.127989
0.112887
-0.0639505
0.000264305
-0.136502
1.25634e-05
-0.141323
-0.0344012
-0.157283
-0.163968
-0.168452
-0.167509
-0.152532
-0.137333
-0.117051
-0.0848965
-0.0532176
0.0879563
0.138034
0.191492
0.282545
-0.0111206
-0.0101814
0.0809122
-0.0232138
0.00128648
0.0226768
-0.0538724
0.000778973
-0.000916484
-4.07039e-06
-0.0194083
0.0249865
6.33028e-05
-0.000431093
-0.0144476
-0.00696417
-0.15452
-0.0171389
-0.0736377
-9.45013e-06
0.000820233
-7.31995e-05
-0.065743
-0.0120531
-0.0485495
-0.0136843
0.00247365
0.000322621
0.00668432
-4.6903e-05
-0.0123714
-2.60699e-05
0.000524015
-0.00788103
-0.0157787
-0.000352533
0.000460049
0.0658567
-0.0141679
0.084424
-0.14774
-0.0105882
0.0335421
-0.0254643
0.00522793
-0.0292189
-0.00451575
-0.0171342
-0.0171101
0.440528
-0.00181046
9.6238e-05
-0.00801578
-0.0122259
4.45383e-06
0.107089
-0.00559967
0.409864
-0.165664
-0.0595285
-0.0360343
0.0616595
-0.0066743
-7.08317e-05
-1.08963e-05
-0.00578825
-0.072478
7.89089e-05
0.43829
-0.003816
-0.00681541
-0.000113068
-0.000535794
-0.00864315
-0.0104221
-0.0863278
0.156079
0.000897511
-0.0193788
-8.83689e-06
0.0373987
-0.0108039