/*--------------------------------*- C++ -*----------------------------------*\
  =========                 |
  \\      /  F ield         | OpenFOAM: The Open Source CFD Toolbox
   \\    /   O peration     | Website:  https://openfoam.org
    \\  /    A nd           | Version:  7
     \\/     M anipulation  |
\*---------------------------------------------------------------------------*/
FoamFile
{
    version     2.0;
    format      ascii;
    class       volScalarField;
    location    "35";
    object      p;
}
// * * * * * * * * * * * * * * * * * * * * * * * * * * * * * * * * * * * * * //

dimensions      [0 2 -2 0 0 0 0];

internalField   nonuniform List<scalar> 
115545
(
-0.0134782
-8.19071e-06
-0.0136205
-0.00330855
0.00145541
-0.000690722
0.360351
-0.0591985
-0.000203717
-8.67459e-06
-0.000230266
0.000231491
-0.00156341
-0.0524872
-0.000205592
-0.0519998
-4.74708e-05
-0.000307691
0.448225
0.00150721
-0.0617224
-0.00469597
-0.000348973
-0.0053772
0.661075
0.0494689
-0.108609
0.0221366
-2.45439e-06
0.375276
-0.000121953
0.0930578
0.00465552
-0.0127343
0.665382
-0.00150991
0.352269
-4.41377e-05
-0.199751
0.242684
0.0934331
-0.000311902
-0.0187073
-0.00152099
-0.0493046
-0.0527897
0.00205507
0.00566391
-0.000709773
0.000220736
1.8447e-06
-0.00287009
0.106402
-4.33851e-06
-0.00283603
0.108053
0.0867281
-0.0397505
-0.0479236
-0.0122325
-2.60206e-05
-0.00557325
-0.000684462
-0.0169126
-5.17343e-05
0.0010487
-0.00127984
0.061241
-0.119188
0.0789483
0.231488
-0.00774771
0.238995
-0.0347776
-0.0300193
-0.0250425
-0.0325984
-0.000620799
0.428233
0.0204883
0.0213916
-5.0787e-05
-0.107022
0.0217969
-0.00280655
0.00022558
-0.01844
-4.85051e-06
-0.0255268
3.7243e-06
-0.138565
-0.0103031
-3.04113e-06
-0.00114789
-0.000383056
0.000440556
-0.000346518
-0.107202
-0.11311
-0.0254583
-2.69706e-05
0.0275051
-0.000445605
0.0026105
0.234446
-0.0570854
0.265792
-0.0572779
-0.0157473
8.34121e-06
0.0113421
-0.000344156
-0.0307748
-0.00976289
0.851473
-0.00309164
-0.000230007
0.200524
4.77241e-05
-0.00683022
0.202897
-0.0550237
-0.0135807
-0.0281996
-1.35675e-06
0.374022
-0.00544885
0.645584
-0.00146707
0.0466431
-0.0218522
0.000318893
0.148191
0.000225456
4.7846e-05
0.448723
0.625036
0.00444414
-0.00270894
-0.0055196
0.0539862
-0.00229047
9.65243e-05
0.110556
-0.0200887
2.29822e-06
0.00723927
-0.00556286
0.0624619
0.000810447
-0.0557497
-0.0513873
-0.010215
-1.49734e-06
-0.00281348
0.00692289
9.6008e-06
-0.0071349
-0.0235327
-0.0831786
-0.0244565
0.00719954
-0.000671737
-0.0360856
-0.0101831
-0.000727933
0.02989
-0.0216451
-0.00768722
-0.0110515
-0.0117153
0.00235497
-0.163716
-0.0538068
-0.0317787
0.0588624
-0.0540081
-0.00192255
0.00308157
-0.00068998
0.013069
-0.029627
0.467173
0.114228
0.26741
-0.000211949
-0.00347184
0.145674
0.0144308
-0.138628
-0.00190629
-0.00208523
0.500836
-0.0236357
0.0522554
-0.0758599
-0.0540908
-0.00910853
-0.0247415
-0.0160265
0.124787
0.378807
0.0159215
-3.6783e-06
-0.0034012
-0.0298871
-0.00051347
-4.92632e-05
0.0431826
-0.0386865
-0.0532076
0.26326
0.657678
4.92325e-06
-0.0125025
-0.0239604
0.013252
0.00296383
-0.0536757
-9.30699e-05
-0.0333902
-0.0215468
-0.0015337
-0.0237454
-4.62452e-06
0.556555
-0.0016983
-0.0258575
-0.074421
0.580715
0.0256352
-0.0362919
0.0940761
-0.0242924
-0.0239377
0.125846
0.000507247
-0.000892685
-0.0237989
-0.00287279
-0.122815
-0.0115801
-0.0837863
-0.11804
-0.00155216
0.000720144
0.077248
-0.0248334
-0.0212518
-0.0510068
0.51651
-0.00108282
0.107695
-5.01514e-05
0.662013
0.0134419
-0.0539945
0.0231382
0.000360398
-0.0616573
0.0136951
-0.0531302
0.115091
-0.20725
-0.0164664
-0.00322577
-0.0260052
-0.00146885
-0.0181647
-0.0487812
-5.49438e-05
0.0153311
-0.000566393
-0.0114458
-0.00123439
-0.0193283
-0.0424814
-0.0313806
-0.00382352
-0.0578611
-0.0373773
-0.00153494
0.000117671
-0.0285768
0.000148094
0.0104562
0.548366
0.100638
-0.0964256
-0.190553
-0.0428378
-1.89865e-06
-0.0499931
0.259283
-2.05677e-06
0.018196
-0.00114943
0.0877871
-0.000213973
-0.0502091
-0.0537381
-0.0298926
-0.154662
-0.00640906
-0.0378992
0.0321972
-0.0185697
-0.0254082
-0.216563
0.00322541
-0.00229035
0.196175
0.132237
-0.0238075
-0.00169392
-0.00017861
0.501044
0.000676464
-0.00518159
-0.0622033
-0.0130169
-8.68092e-05
0.0154222
0.846678
0.0426085
-0.023476
0.00725562
0.0848082
-0.0547213
-0.0510678
-0.00229881
-1.80702e-06
-0.000193833
-0.0011183
0.79201
-0.00312293
-0.00238927
-5.02182e-05
-0.000697761
-0.00344093
-0.0129735
0.0543511
-0.116594
-0.0164523
-0.00905172
0.00146198
-0.00406038
0.676698
-0.0297981
-0.00322755
0.150104
0.153244
0.0136074
-0.00245645
-0.0168616
-0.00362266
-0.0127252
1.51708e-06
-0.000439988
0.00289412
0.12043
-0.0417701
0.357136
0.794894
-0.0314363
1.64823e-06
-0.0122709
-0.0183467
-0.0013961
2.87912e-06
-0.0927203
-0.0414493
-0.0248413
-0.000481636
-0.00866368
0.00336138
-0.000404077
0.000215626
-0.000991462
0.00427939
-0.0364114
-0.0148058
-0.00964599
0.00242183
0.0106037
-0.000109705
0.0872766
-0.0519772
0.00153464
-0.0476947
0.091051
0.206573
-0.0186831
0.0222408
-0.0211459
-0.00151494
-0.213143
0.000651974
-0.000547482
-0.0168928
-0.0270501
-0.00159952
0.282661
0.230707
-0.216993
-0.0378551
4.83975e-05
-0.00655567
0.00983075
-0.00571201
-0.0100729
-0.00232134
0.0015364
-0.00295215
-0.00288145
-0.00366832
-0.000438297
-0.145636
7.57428e-05
0.010488
-4.53159e-07
-0.054148
0.000319192
0.380857
0.138566
0.162256
-0.0379895
0.178335
0.0852518
-0.00164942
0.00167189
-8.70626e-05
-0.00378235
-0.0250183
-0.00638552
-0.00677879
-0.0104162
0.000314602
-0.000130327
0.000208405
-0.000644232
0.047569
-0.0119563
-0.0175831
0.000135004
-0.0920251
0.000709122
-0.00011433
0.204295
0.0579712
0.287168
8.06281e-05
0.000175752
0.00170457
-0.0212781
-0.00543702
-0.0845732
-0.0245001
0.11218
-0.00688131
0.284123
0.000739754
0.00147204
0.345896
0.190943
-0.0632635
0.00243073
-0.0533301
-0.0068332
8.13051e-05
0.0103876
-0.0518067
-0.0246965
-0.0352167
-0.0121236
0.0425809
-1.62961e-07
0.00247122
0.0270133
0.0270161
0.399936
8.37226e-07
-4.87971e-05
0.00178957
-0.0250269
-0.000420958
-1.08132e-06
-0.00878531
0.709861
-0.0496733
0.26564
-0.0161369
0.538641
0.119361
-0.00294294
-0.0947997
-0.046695
-0.00942374
-0.000867487
-0.00394078
-0.00112996
0.438064
-0.0238076
0.325821
-0.019802
0.160287
-0.0171346
-0.0126383
-0.120744
0.12964
-0.002334
-2.94536e-05
-0.00011884
-1.87845e-05
-0.0116834
-0.0486207
0.000320358
0.00869128
-0.000153724
-0.000154708
0.00204496
-0.018302
0.000769254
-9.03435e-05
-0.0189686
-0.00406391
-0.00380021
0.464344
-0.0628695
0.00582896
-0.0116207
-0.0330367
-0.000424054
4.52e-05
7.78915e-07
-0.0305946
-0.0461895
-0.0288967
4.42525e-05
-0.0128384
0.0565596
-0.126526
-0.0302593
-4.82718e-05
-0.0248337
-0.0162403
0.000155992
-9.81729e-06
-0.023841
0.00173795
5.36505e-05
-0.0715213
0.000519945
-0.0512911
-0.019226
-0.0160691
-0.0161597
0.00013801
-0.0352771
0.000367423
4.57222e-05
0.00416052
0.23976
0.575051
0.20487
-0.0132531
-0.0112587
0.226982
0.0134116
0.000315905
0.0374439
-0.0135701
-0.0237917
-0.00386328
0.0591297
0.0010427
0.202101
0.000627508
-0.00519117
-0.0170681
0.251552
0.000347393
-0.0238216
-0.083092
0.108921
-0.025439
-0.00508808
-0.0983766
0.000110289
-0.21662
-0.00430443
0.0186701
-0.0210462
0.0026551
-0.0303636
0.234163
0.556042
0.1785
0.1624
-0.0508474
0.0531872
0.0138084
0.235069
0.292006
-0.000155937
-0.00127951
0.571831
5.69963e-05
-0.209975
-0.119349
-0.0176191
0.000962171
0.0272321
-0.00112276
0.00168195
0.441891
0.655336
-0.00013452
0.000377737
-0.00632974
7.85252e-05
-0.15508
0.197518
0.12992
-3.66096e-06
-0.0376907
-0.0307488
0.00066637
-0.00367211
0.07616
0.642225
1.27126e-05
9.38838e-07
0.232425
-0.00399657
-0.000138561
0.0324511
0.00386915
-0.00302595
-0.00186019
-0.193869
-0.0142126
-0.00109916
-0.0268763
0.000388782
-0.00010305
-0.00285399
-0.0370255
-0.000198428
-0.0189963
0.000820292
-0.0244408
0.254588
-1.22878e-05
0.84436
-0.0446409
0.538222
-0.0338603
-0.000452758
-1.74488e-06
-0.000344017
-0.00546056
0.115422
-0.00244097
-0.0121753
0.446086
-0.049717
-0.0499758
0.0055135
0.00259622
0.458832
-0.000394086
-0.0236363
-0.0178915
0.000284031
-0.0130725
0.000839222
-0.0107555
-0.0526337
0.7221
-0.0524478
-0.00178682
-0.0189509
-0.00309572
0.0145653
0.0802632
-0.0156416
6.72996e-06
0.262406
-0.0118107
-0.0551724
-0.00236228
0.00225468
-0.0336934
0.00428648
-0.121183
-0.000767403
0.358815
-0.00573895
0.0784594
-0.0346912
0.0275194
-5.63169e-06
-0.0330246
-0.0190422
-0.0240145
0.0313546
-0.0720743
0.000400051
-0.152626
-0.00115154
1.3399e-05
-0.00233875
0.000345079
0.651497
0.000292527
0.378246
-0.0193602
0.0262993
0.00272181
0.0789881
0.00312264
0.155436
3.01881e-06
-0.0279938
-0.00146661
0.00123322
-0.0234706
5.23791e-05
-0.0731376
0.570336
-0.113932
0.000315563
-0.110127
0.114756
0.46333
-0.00036877
-0.000247805
-0.00516852
0.000242285
0.586904
-0.0156332
-0.0441878
0.122374
0.000232247
-0.0969282
0.181299
-0.000103973
0.0124297
0.567374
-0.00184254
-0.000629279
0.000479265
0.00276235
-0.0169567
-0.00512876
0.310334
-0.00925286
0.727825
0.876988
-0.00233085
0.000135018
0.330053
-0.00295955
-0.0147272
0.000356798
0.135191
-0.0350487
0.699346
-0.00137393
0.000103455
-0.0119215
-0.128187
-0.0377897
-0.0110109
0.00754101
0.11651
-0.000156931
-0.108263
4.11591e-05
0.0015529
-2.84131e-07
-0.209726
-0.0645805
0.202164
-1.95245e-05
0.556862
-0.000364947
-0.0126225
-0.00051571
-0.0522112
-0.0116625
0.0573488
-0.000132046
-0.0384883
-0.0033703
-0.0118704
8.21319e-06
7.87812e-05
-0.000211284
-0.0385263
0.00142597
-0.000893551
-0.0258536
0.000165451
0.000394517
-0.00130611
-0.000442389
0.224506
0.0557465
-0.140737
-0.0209572
-0.0537872
-1.69235e-06
-0.102296
-0.0537864
0.000452888
-0.0289113
-0.0015635
-0.0301279
-0.163706
0.000613973
-0.0183077
1.42471e-05
-0.00505853
-0.000337388
0.223083
-0.0064128
0.000219957
-0.000147016
0.026153
-0.0417098
-0.00294688
0.000130855
0.313863
0.374145
0.00131817
-0.0201846
-0.116649
-0.0507287
0.000142489
-2.41063e-06
0.235631
-0.0290423
0.000173474
-0.028476
-0.000722698
-4.33547e-06
0.0449043
-0.0741198
-0.0522286
-0.0528321
-0.0208439
-0.00540122
-0.0142449
-0.000620855
0.150002
-0.000105169
-0.031212
0.0294754
-1.06108e-05
-0.109263
-0.0121618
0.135826
-0.000991356
-0.0088247
0.450625
0.0442067
-0.0454783
-0.0183309
0.234014
-0.0077062
-0.010781
-0.036127
0.194876
-0.000992179
-0.000300658
-0.137327
-0.00879037
-0.0116576
0.777662
-0.00531965
-3.92156e-06
-0.204673
0.00208953
0.00476547
0.155128
-0.170837
-0.0608872
-0.00176357
0.136784
-0.0189886
0.0458746
-0.00537399
0.111622
0.080077
-0.023814
0.107439
0.172636
-0.000336116
0.0387346
0.655163
-0.134396
0.000492757
-0.0573485
0.140063
-0.0196214
0.0281889
0.229831
-0.00366975
-0.00165726
-0.00444294
-0.00345643
-0.062508
0.0142346
0.000388862
0.464235
0.722277
-0.0298902
-0.00156126
-0.0531594
-0.0337976
-0.0376061
0.243903
0.266545
-0.00177839
-0.0273996
-0.0338463
-0.0007109
0.0368215
-0.0521504
-0.00243701
0.0289392
0.000333048
0.156924
-0.127001
0.119639
-0.0707283
-0.208238
0.421482
-0.00110562
-0.0488897
-0.100977
-0.000141263
-0.0191214
-0.100926
-0.16961
-0.0666916
-0.00419984
-0.0110398
-0.00559728
-0.185109
-0.000299845
-0.0145877
-0.0542484
0.151421
-0.0505572
-0.0526436
-0.00765524
0.00159771
0.199513
-0.048147
-1.22141e-05
-0.00223239
-0.000866167
-0.010577
-0.0184746
-0.00143297
0.0450454
-0.205683
-0.00128102
-0.0301279
-0.0226534
0.0377065
0.00153304
0.00282267
-0.00307831
0.811334
-0.0317357
2.06972e-06
-0.00239536
-0.000316382
0.263419
-0.0117869
-3.50588e-07
-0.00908738
-0.00173896
-0.0654971
0.120613
0.0406243
-0.108322
-0.0210406
0.000986263
0.466368
-0.0231704
0.0883516
-0.00524344
-0.113565
0.00784424
0.00291215
-0.000126917
-0.0100946
-0.000141402
-0.0684723
-0.000893422
-0.146354
0.000107003
-0.0113876
4.73002e-05
-0.00229949
0.000122424
0.121691
-0.0186581
0.437849
-0.0138881
0.0813262
-0.160826
-0.00108761
0.430691
-0.0366063
-0.0183201
0.891202
-0.000425675
-0.00831055
-0.18988
0.0287278
4.83503e-05
-0.0205044
0.0054245
-0.0467092
-0.0228287
0.566579
0.00209615
-0.192919
0.119984
-0.164953
0.00360326
0.00160984
-1.04015e-06
-0.0001186
-0.00138906
0.00973314
-0.000383156
-0.00279769
-0.00211343
0.46594
0.376046
-0.0673129
0.000116414
-0.0947864
0.0446281
-0.133767
0.000116463
-0.111554
-0.03716
6.93263e-05
-0.00452087
0.0348035
-0.0246597
-0.000663233
-0.0473579
0.799347
-0.0891644
0.00031273
-0.0527349
0.029338
0.000516234
9.00176e-05
-0.189686
-0.00144941
-0.173083
6.44409e-06
-0.00739452
-0.0367922
0.675139
-0.0100539
0.00408133
-0.0175394
-0.000156316
0.117926
-0.000328847
0.023848
0.135502
-4.05747e-05
0.0329639
0.00180177
0.707475
0.885529
0.0124372
0.618104
0.462824
-0.106761
-0.0483123
0.000228589
-0.0111268
-0.0372811
-0.00145147
-0.000134696
-0.00321905
-0.000597527
-3.40914e-05
-0.0114919
-0.000495285
-0.0314654
-0.072607
8.60279e-05
-0.000184236
-0.162204
8.33929e-05
-2.05289e-05
0.116383
-0.0237829
-0.0392003
-0.00085395
-0.0526478
0.0127535
-0.0508732
-0.00304912
0.00357696
0.153564
0.0314168
-0.0365063
0.000167182
0.000629365
-1.16754e-05
-0.0221402
0.345091
0.00599291
7.63759e-07
-0.189188
0.000127697
-8.94939e-06
0.105302
0.000650032
0.658994
-0.00143551
0.236092
-0.00823956
0.00354735
-0.00943013
-0.000129403
0.150826
-0.000698289
0.00155658
0.594484
0.567501
0.829601
-0.00189439
-0.189948
-0.0192659
2.23723e-05
-0.0348278
-0.00447564
0.23301
0.216362
0.00231002
-0.130808
7.49301e-05
0.0369557
-0.000852048
-0.0098113
0.00460663
-0.00179935
-0.00350643
-0.0177856
-0.00269569
-0.0263846
0.119936
0.00198077
0.15002
-0.0238642
-0.195243
-0.00542766
0.0335745
-0.0186945
0.817426
0.369502
0.00889534
-0.0172179
4.22316e-05
-0.000556114
-0.0222852
-0.0526405
-0.0412085
0.0300376
0.222565
-0.147092
0.0591352
-0.000196655
0.00803007
-0.0050247
0.211485
-0.0521029
-3.95952e-05
0.142498
-4.89336e-05
2.55463e-05
-1.99739e-05
9.64406e-07
7.97526e-07
0.215625
0.00300256
-0.0278347
-0.00109788
-0.218809
-0.0391163
0.401124
0.00204285
-0.000674458
-0.00237982
-2.00271e-05
-0.000503441
-0.0911707
0.00773007
0.144966
-0.00460324
0.120403
-0.01832
0.00669653
0.0210394
0.000641295
0.578716
6.00024e-05
-0.00296925
-0.000463626
-0.017456
-0.00749891
0.171514
-0.00303374
3.63563e-05
-0.104021
-0.00439894
0.2445
-3.90677e-06
0.000180242
0.000159156
-0.031983
-0.00323321
-0.0223765
-0.0503611
0.0889239
0.402088
-0.00143499
0.00022788
0.000301603
-0.00105421
0.0817723
-0.053059
-0.00269656
0.033067
-0.216559
0.000669552
-0.103974
-0.0022476
0.00225573
-0.0386192
-0.000228863
0.0143279
0.225483
0.36049
0.158802
-0.000134503
-0.188689
5.73055e-05
-0.02782
-0.0284487
0.0460646
-0.0082412
-0.141304
-0.024925
-0.0363299
-0.00522594
-0.00821364
-0.0254322
-0.127354
4.62056e-05
0.0766708
-0.000508417
0.246057
0.0450011
-0.00805552
0.000124414
0.000732062
-0.0195467
2.93973e-05
0.0865576
-0.0081142
-0.117195
-0.0761065
0.0519494
0.463412
-0.0120078
-0.0249147
0.13322
0.0194022
-0.000922708
-0.000420028
0.834443
0.00157341
-0.00646328
-0.158947
-0.0136984
-0.0242129
-0.00320435
0.210404
0.0001616
0.103537
0.468999
-3.65015e-06
-0.0113081
8.58012e-05
0.0809488
-0.010297
0.00641399
-0.00547211
-0.0142164
-0.0236865
8.96425e-05
-0.00216535
-0.0120766
0.0083144
-0.0032127
1.27785e-05
-0.00179123
-0.0286268
-0.0519841
-0.00518111
-1.97266e-06
0.0151805
-0.000921202
0.000734362
0.0256225
0.152393
-0.0159533
-0.0287216
0.0470659
-0.000579841
-6.74617e-05
-0.0296096
-0.000276032
-0.000448215
-0.0167071
-0.0251656
-0.000541081
-0.00539393
-0.00180514
0.0193762
0.000133001
-0.00034332
8.43624e-05
0.0843685
-0.000957895
-0.00290584
0.0177719
-1.99575e-06
0.000203399
-9.34832e-05
0.212751
-0.000992024
-0.00513112
-5.23988e-05
-0.128258
0.121271
-0.00296947
-0.130123
-1.76883e-05
-9.15859e-06
0.00721389
0.000121971
-0.00013389
0.431059
0.00309431
-0.00176084
-0.0537994
0.000151023
0.000663175
-0.00993053
-0.00135112
-0.00078417
0.554783
-0.000192983
-0.0617363
0.204852
-0.000128763
-0.0257163
-0.000415012
-0.0276111
-0.0376537
0.0218811
-0.00566346
-0.000348912
-0.00589263
-0.117122
-0.00273533
-0.018449
0.000902109
-0.000642417
-5.35015e-05
-0.000187391
-0.0718933
-0.0226408
0.0993247
0.00227715
-0.0112814
0.799611
0.109821
-0.0517932
-0.000178775
-0.0242665
-0.029493
0.0417993
-0.0482616
-0.0945847
0.081633
0.0924437
-0.0168639
-0.0474992
0.368921
-0.0599701
0.000206294
-0.0527585
-0.0534386
-0.00933711
0.00607938
-0.0185697
-0.00124165
0.0155393
-0.0330962
0.348266
-0.0468782
0.354762
-0.0326827
-0.000541109
0.00243951
-4.12503e-05
5.2764e-05
-1.2527e-05
0.155266
-2.98592e-05
-0.0238861
-0.000416456
0.00748848
-0.03692
-0.000322769
-0.0141616
-0.0257161
-0.000114639
0.154664
0.0043669
-0.000778497
-0.0239832
0.0641864
-7.90189e-07
0.0436195
0.000681395
0.0813577
-0.0495325
-0.033768
-0.0247603
-0.000769354
-0.000580923
0.111096
0.212668
0.209798
-0.00465866
-0.0278546
0.344478
0.0355595
0.00613223
-1.55345e-06
0.108152
0.017861
-0.00033471
-0.103471
0.426225
-0.0185322
0.000659028
0.704857
-0.000110593
-0.00781445
0.0818165
0.222345
0.084319
0.0857908
0.494869
0.174103
-0.000191919
-0.000512837
-0.000854412
-0.000781837
0.0920531
-0.0232532
0.327895
-0.0202895
-0.00539333
-0.0167046
-0.0920716
0.000557064
0.00077074
-0.000505185
-0.0305432
-0.00120425
0.00205769
2.37882e-05
4.70351e-05
0.000200969
-1.04073e-05
0.000642417
-0.121602
-0.00885631
-0.129511
-0.134642
0.770249
-0.0324635
-0.000197093
-0.00158441
-0.162912
-0.000768254
-0.000123399
-0.0116832
-0.00209514
-0.00041999
-0.0060324
0.0296222
-1.52561e-05
-0.00099619
0.00167204
-0.000440169
-0.000252853
0.00271489
-0.00200715
-0.0376132
0.0267715
-0.0686953
-0.00999627
-0.0175845
-0.0429587
-0.000960851
2.49146e-05
0.000171425
-0.00379344
0.152771
-0.139688
-0.00490489
-0.00860356
-0.106963
-0.00038622
0.469056
-0.00902766
0.0575583
0.000668841
-0.000476654
0.000129681
-0.0744442
-0.0542382
0.44723
0.469022
0.111123
-0.0110483
-0.0289854
-2.96208e-05
3.16603e-05
-0.00639631
-0.133103
0.197561
-0.110231
-0.0279119
-0.0332184
0.127402
-0.0279483
-0.155987
1.85587e-06
-0.0473997
0.156035
0.00140665
-9.07884e-06
-0.00647134
-0.003611
0.207503
0.0514676
0.00120762
-0.0179619
0.808519
-0.0101341
-7.89201e-06
1.21059e-05
0.00268329
-0.0114093
0.0814332
2.23912e-05
-0.0767386
0.00189876
9.3535e-05
0.544097
-0.00773986
0.0827324
-0.00698455
0.000676125
0.00739029
-0.0748376
0.114022
-0.0173028
-0.0104925
0.544222
0.000637019
0.0222972
0.0614311
0.324866
-0.000935295
0.066641
7.71726e-07
0.000492061
0.111133
-0.0100203
-0.00962572
0.043194
0.000191204
0.199221
-0.0650805
5.42582e-06
-0.0462157
-0.00159868
-0.0059717
-0.000197896
-4.76229e-05
-0.0308831
-0.110684
0.00070395
-0.00492114
0.00157411
0.0841104
0.404924
0.000176081
-0.00166882
-0.000372403
-0.0341226
-0.000229373
8.06857e-05
-2.14141e-05
0.347824
-0.0122032
0.000768285
-0.0441836
-0.024278
-0.0491993
0.395944
0.241641
0.214917
6.43626e-06
-0.187429
-0.0331981
-0.00748403
-0.0502042
-0.000976117
0.153704
-0.013584
0.00638684
-0.00065692
0.0097605
-0.0488428
0.00733503
2.63226e-06
0.0270939
-4.4277e-05
-0.000204336
-0.0744323
-0.0011955
-0.0312132
0.783832
-0.00981469
0.00124793
-0.00203419
0.134446
0.225832
0.457643
0.234062
-0.0509603
-0.00169601
-0.00062202
-0.025544
-0.0277838
0.00191888
-6.47084e-05
-0.0691486
0.00141179
-0.0216383
-0.00854514
-6.72667e-06
-0.104291
0.0113098
0.527922
0.118863
-8.13668e-06
0.0163697
0.000717904
-0.0468249
-0.0511532
-0.0109248
0.434831
-0.000424723
-0.0297791
-0.0275023
-0.000367672
0.000136884
-0.0248789
0.108055
-0.0361685
-0.0314624
-0.000117739
-0.115426
-2.28021e-06
3.02569e-05
-0.0019577
0.00263007
-0.0240658
-0.00061338
0.151199
-0.000111764
-8.92899e-07
-0.000647618
0.00258642
-0.0100335
-1.25971e-05
-0.0207214
0.0277488
0.134103
-0.00186054
0.270249
-0.0142549
0.136263
-0.00741106
0.00668414
8.77158e-05
0.010425
0.000226616
0.0524405
0.655889
0.176721
-0.00884664
-8.2189e-05
0.205223
-0.00692083
0.208932
2.38104e-06
-0.00525729
0.000213683
0.489839
0.000214152
3.15806e-06
0.154418
0.463363
0.0937124
4.93313e-05
-0.182438
0.0581034
-0.00290076
-0.00102118
-0.00308767
0.0219989
0.00679598
0.341172
-0.00162639
-0.0355623
-0.00265426
-0.00686921
-0.00109489
0.40036
0.0889253
-0.0194808
-0.000646176
0.0600357
-0.0820009
0.0014902
-0.028129
0.00025134
-0.0286472
0.0116376
-0.0140124
-0.00202714
-0.0559102
-0.0074403
-7.01623e-06
-0.118683
-0.00253535
0.000247635
0.00837074
-0.00135664
-0.00305715
0.0206939
-2.42526e-05
0.00183574
-0.0379509
0.248505
-0.000183488
0.712806
-3.6427e-06
-0.00601444
0.00601338
-3.58457e-05
-0.00575381
-0.00156846
-0.0503769
0.177812
-0.0213678
-0.0727841
-0.0335625
0.290556
-2.80533e-06
-0.138155
0.0354286
-0.0320291
4.17048e-06
0.798679
0.00472476
0.00468502
-0.0031784
-0.00230283
-4.56479e-05
0.251168
-0.00437545
0.113965
0.000220758
-0.0384014
-0.000943297
-3.66176e-06
0.343296
-5.46233e-05
0.153286
0.596132
0.130575
-0.00644767
0.141761
0.117121
0.274933
0.33847
0.21057
0.537851
-3.49795e-06
-0.0231819
0.13919
-0.000373998
0.095641
-0.0332665
-7.44695e-06
-0.000177454
-0.0246106
0.713283
-0.00618867
0.00435457
0.0861406
-0.000203801
0.000132766
0.00697408
-0.0228215
0.00703869
0.255795
0.697393
-0.0249932
0.349524
-0.032043
0.0306161
0.432912
-3.04026e-05
0.175752
-0.00557433
0.0190859
0.00151976
-0.120856
-0.0103307
-0.0460439
-2.31949e-06
-0.0197635
2.10021e-06
0.151546
0.723506
-0.173344
0.000823345
-0.0470723
-0.0298177
-5.16641e-05
0.00552654
-0.0241242
0.00572491
-0.0288678
-0.0223465
-0.00054543
0.000248945
0.0387246
0.00019297
-0.0264295
-3.22246e-06
0.0949438
-0.00121539
-0.0297289
0.000189732
-0.00456546
-0.0337076
-0.0119046
-0.0570796
0.00073807
0.0586687
-0.0304499
-0.0530235
-0.000128397
0.0380884
0.0385579
-0.0852355
0.336046
-0.0056606
-0.0533163
0.0081776
-0.0042484
0.0040023
8.50266e-05
-0.167104
-0.0171263
-0.00284502
-0.000126583
-0.000703029
0.0787732
-4.25395e-07
-0.000375677
0.000106806
-2.13344e-05
-0.00165488
0.400626
0.83832
-0.000343606
-0.0111056
-2.14212e-05
-0.0504126
0.00261632
-0.00771206
0.0162039
-0.00134576
0.120637
0.0023736
-0.00110334
-0.00143969
-0.00440623
-0.00280473
-0.000252261
0.293905
-0.00173471
0.706483
-0.0213111
1.26738e-06
0.0870209
-0.000687149
-0.0222708
0.151962
-0.00309807
-0.0215599
0.694365
-0.0295035
0.000113006
-0.0823073
0.0457233
-0.00580404
-0.0432802
-3.87452e-05
-0.0225651
0.000772161
0.476889
-0.0145295
-0.0231038
0.0167347
-0.00544184
-0.0234461
-0.0214708
-0.0239386
0.135757
0.00109104
-0.121728
-0.00532291
-0.00164218
-0.000402578
0.00397311
-0.0322894
-0.00103252
-0.0808954
0.00488737
0.00083656
-0.0365031
-0.000287293
-0.000344295
-0.00136738
-5.44489e-05
-0.0521717
0.00114947
0.121798
3.26553e-05
-0.00046917
8.7396e-05
0.589203
-5.48838e-05
-0.0493755
-0.00984584
0.139875
0.00038041
-0.00443101
0.00284388
0.00185719
-0.0118837
-0.0331802
-0.0325927
-0.0209638
-0.00522783
-0.000373567
0.084012
0.0279046
-0.0386096
-0.000878033
-0.222759
-0.0325473
-0.000137537
-0.00703339
0.0427493
0.695015
0.346275
-0.00267351
-0.144506
-0.0105787
-0.000434572
-0.000160754
-0.0240772
-6.14056e-07
-0.104707
-0.0211193
-7.69399e-06
5.02246e-05
-0.0372916
0.00919381
-0.03025
0.0388036
6.84183e-05
-0.0327421
0.0153191
-0.0318517
0.000187509
-0.0319538
-0.000403813
0.15331
-0.000539761
-0.0455788
-3.93744e-06
-0.0024384
-0.0249524
-0.146782
-0.0132163
-0.0276086
0.000151878
-0.0545305
-0.0101031
-0.0206139
-0.0704577
0.00433829
0.0350271
0.721786
0.00201286
0.0105481
0.000429308
7.02413e-05
-0.000168229
-0.0385626
-4.33103e-06
-0.00127105
-0.0445368
0.63545
0.652991
-0.000638676
0.19912
-0.00606866
0.000785732
-0.00196084
-0.0401992
-0.0400421
4.91858e-05
0.0145958
-0.0228268
-0.108834
-0.053257
-0.0535522
-0.0211385
1.51507e-05
0.000882841
-0.00630878
0.159352
-0.0326605
-0.0515785
-0.0284595
0.639775
-0.0119585
0.133839
-4.44554e-05
-0.0302023
-0.00415514
3.73714e-05
0.00102885
-0.00854498
-0.00309385
-0.0536867
-0.00469448
0.0190073
0.401398
-0.00584765
1.90776e-06
-1.38381e-06
-0.0246169
0.0309968
-0.0242017
-0.00741498
0.00113463
0.000571969
0.093415
-3.7957e-05
-0.0234363
-0.000638166
-0.00633752
-0.00307261
-0.00318226
-0.00181205
0.00748691
0.00528006
0.0250649
0.88759
-0.0723235
0.216081
0.0408103
-0.0385733
-0.0604881
0.0044626
-0.0388147
-0.0227559
0.121516
-0.0173471
8.62745e-05
-0.00464114
-6.39492e-07
-0.0466247
-0.00203212
-0.0015406
-0.00507776
0.119403
-0.00019182
-1.84668e-05
-0.0754484
-0.15117
1.04387e-05
2.16707e-05
0.00118186
-0.186529
-2.16294e-05
-0.0360294
-0.00110168
-0.0238488
-0.0230076
-0.104751
-0.0159086
-0.00771529
-0.0403578
0.000220366
-0.000631956
0.24856
-0.00607392
0.0135929
8.27149e-05
-0.0210779
-0.0212571
0.000127247
-0.0202509
-0.019508
0.0026749
0.439563
-4.22983e-05
-0.147829
-0.000674169
-0.00103142
-0.00035555
-0.00299058
0.189044
0.00385619
-8.66472e-07
0.0570318
-0.00958828
-0.000419002
-0.130692
-0.00117004
0.0302662
-0.0587354
-0.00015611
-0.00130937
-0.0443706
-0.0231866
6.9695e-05
-0.171857
-0.0230104
0.00626912
-0.0383802
0.00839299
0.405016
-0.00675418
0.014421
0.11163
-0.000422419
-0.000282489
0.237957
7.11294e-06
0.867581
-0.0147764
-5.99761e-07
0.136364
0.176313
-0.214676
-0.00830852
-0.0275784
0.0316234
-0.0048203
0.00965608
-2.48853e-07
-0.00627818
0.0338506
-0.0216168
-0.0166135
-0.00195154
-0.0389135
-0.00361935
-0.00215739
-0.000135219
0.0426185
0.677668
-0.0288308
-2.37741e-07
-1.82578e-05
0.00113075
-0.00119204
-0.169914
0.136438
-0.0387365
-0.021131
-0.101201
-0.115706
0.609425
5.50637e-05
0.00243016
0.00528617
-0.041713
0.00164487
0.0624531
-0.00194808
-0.000670671
-0.00633182
-4.29242e-05
-1.49384e-05
0.0257675
-0.001385
0.144674
-3.96459e-05
0.0430117
-0.0072483
-0.0307138
-0.0208154
-0.0283826
-0.0533435
0.00876205
-4.99566e-06
0.0434204
-0.103635
-0.0109609
0.0863888
-0.0370613
-0.0164516
-0.033348
-0.203554
0.0883732
-0.189807
0.0393103
0.00024307
-0.0217845
0.000167902
0.13178
0.00933728
-0.000186312
-8.03273e-06
0.0926122
-0.000739576
0.0371587
0.0837904
-0.167479
-3.33259e-05
-0.0177043
0.449791
0.0854882
-0.0051024
0.134062
-0.00752614
0.0403568
0.000319236
-0.00140912
0.0124013
0.175887
-0.0355089
-0.000233532
-0.000688149
7.97861e-05
-0.0473412
-0.0481778
0.0430069
-0.00673497
-0.0167064
-0.132111
-0.0392867
-0.0791909
-0.0431352
0.249296
0.0273534
-0.0767288
-0.00136401
2.93653e-06
-0.0100815
-0.101798
0.00166393
-0.000197465
0.112132
0.0618462
-0.0252058
0.098926
0.00311852
0.430661
-0.00104224
0.156665
-0.0945502
-0.00139623
-6.78542e-06
0.0285199
-0.0240993
-0.000691661
-0.0103123
0.218409
0.219897
-0.0139114
0.427703
0.143489
-0.0240922
-0.0224951
-0.0542178
-0.00272449
0.131176
-0.0474078
-0.000256624
-2.14777e-06
-0.000615912
-0.0306031
-0.0041559
-0.0179717
-0.0777285
-0.122215
-0.000806196
0.467257
-0.0144277
0.238956
0.729567
0.134442
-0.0660773
-6.42104e-06
-0.0230454
0.00149286
-0.006026
0.405343
0.101174
0.0788612
0.597751
0.00544633
0.0332605
-0.033407
3.54155e-05
0.18884
-0.00349816
-0.0581174
-0.0191402
0.00604412
2.19066e-05
-0.0834689
0.0399369
1.80528e-06
0.719164
0.0663432
-0.00030774
-0.00019445
-0.000895704
0.196186
0.0505567
-1.12479e-06
-0.000926479
7.83499e-05
-0.000161913
0.00129768
-0.00090853
-0.00594884
-0.00290619
-0.00154118
-0.00607624
-0.000357264
-0.000304061
0.0265166
-6.93383e-06
-3.73179e-06
-0.06344
-0.043067
-0.0048087
0.34722
-0.0403721
-0.000387858
-0.00643776
-4.24797e-07
0.00318962
-0.0516232
-0.106222
-0.127801
-0.000270405
0.248872
-0.0118969
0.112889
0.0127899
-0.0220395
-0.0186174
-0.0091884
4.62817e-05
0.00649196
-0.127012
0.00022782
-0.038182
-0.0450526
-2.44063e-06
0.787227
0.108939
-0.00085146
-0.0413331
-0.0304894
-0.0177716
-0.00870068
-2.18183e-06
-0.023396
-0.0144679
-1.21268e-06
0.0637902
-7.45896e-07
-0.000801848
-0.028388
-0.053821
-0.00414105
-0.00548973
-3.50867e-06
-0.0442828
0.00158709
0.131354
-0.0238799
-2.06324e-05
-0.00420906
-0.000829667
-0.0627165
-0.157507
-0.100796
-0.00679028
-0.0486015
0.0961206
0.000952217
-1.67015e-05
-0.00207264
-0.0299966
-0.0253102
0.580352
-0.0416072
0.844539
0.000149258
-0.0285554
-0.0536205
0.201615
0.433058
-0.00780478
-0.00112158
-0.0553336
-1.06121e-06
0.632113
0.195421
0.0784063
-0.0296408
0.0445066
0.098313
0.559243
0.195899
0.145079
-0.0455422
-0.120524
0.226984
-0.0532882
-0.0010082
-0.100584
0.0172892
0.000656433
-0.0217895
-0.000172669
0.00370375
-0.00353907
0.00175386
-0.0250542
7.42799e-05
-0.0229794
-0.116892
-0.0456568
3.46186e-06
-0.00330357
-4.61388e-05
3.11144e-05
0.114958
-0.0501592
-0.0115498
-0.000315145
0.00798223
-2.6701e-06
-4.02115e-05
-0.000322479
-0.00023131
-0.129749
-0.0362865
-0.000997943
0.081202
-0.0013264
-0.0387476
0.0376453
-0.00768031
-0.00143195
0.000134057
0.00427912
-0.0293349
-0.00139279
3.34762e-05
0.00319267
-0.0750983
-0.0233432
0.0324501
0.000213066
-0.0228647
0.711886
0.000790859
0.00098519
0.0253061
-0.000309203
-0.000724926
-1.39017e-05
-1.09718e-06
-8.083e-05
0.0115036
-0.0498911
0.509857
0.788458
-0.000251252
-2.19605e-05
-0.000257344
-0.0564296
0.899517
-0.0598451
-0.0532319
-0.0312417
-4.48611e-05
0.000736884
-0.046853
-0.00221587
-0.0633813
0.0094038
-0.0892004
-0.0572964
0.00115087
0.629096
-0.127668
0.000427589
-0.00119722
0.000745991
-0.0165506
-0.162304
-0.0489001
-0.00709793
0.310788
0.464124
0.117487
0.27301
0.0456665
-0.0611272
-0.0066603
0.00375087
-0.0108947
-0.0246754
0.000343126
-7.42344e-06
-0.125641
-0.159721
-0.000547108
-0.0250739
-0.0560451
-0.0552806
0.455217
-0.0013495
-0.0226786
-0.0149327
-0.0315997
-0.0223856
0.0212119
0.00332583
-0.0046206
-0.0140981
-0.0147235
-0.00897185
-0.0252895
-0.00345199
-0.0550271
0.227987
-0.0289669
-0.0123068
-0.0033496
0.103282
-0.115043
-0.0554273
-0.0948507
-2.23924e-06
0.253497
0.0335714
-0.0416719
0.00156999
-0.01826
-0.0124468
-0.00147502
-0.0381043
-0.0120477
-0.125195
-0.00535518
0.001581
8.01899e-05
-0.000160234
0.0275623
-1.12818e-05
-0.0162645
-0.0312436
-0.0357368
-0.000168642
0.000161926
0.000187161
0.00146274
-0.0248357
0.0140496
-0.044883
-0.0579306
-0.06434
-0.00867103
-0.00189595
0.563214
-0.00885678
-0.00288042
0.267338
-0.0121254
0.286786
0.5762
-0.00742633
0.10016
-0.0108626
0.00705502
-0.00199844
-0.00150603
-0.00543114
-0.028966
-0.165921