/*--------------------------------*- C++ -*----------------------------------*\
  =========                 |
  \\      /  F ield         | OpenFOAM: The Open Source CFD Toolbox
   \\    /   O peration     | Website:  https://openfoam.org
    \\  /    A nd           | Version:  7
     \\/     M anipulation  |
\*---------------------------------------------------------------------------*/
FoamFile
{
    version     2.0;
    format      ascii;
    class       volScalarField;
    location    "4.5";
    object      p;
}
// * * * * * * * * * * * * * * * * * * * * * * * * * * * * * * * * * * * * * //

dimensions      [0 2 -2 0 0 0 0];

internalField   nonuniform List<scalar> 
7807
(
1.06343
0.110558
1.33859
0.936517
-0.00596964
-0.000261703
1.32315
-0.0373537
-0.000824364
0.43703
-0.000245294
0.0164248
-0.0558162
0.233442
0.452193
-0.0685481
1.08268
-0.073683
0.00960354
-0.285955
0.323608
0.0107517
0.17785
0.75771
-0.096074
1.08077
-0.00546395
0.283813
0.655575
0.019986
-0.0989943
1.83648
0.175909
-0.00338616
-0.00072976
0.364776
0.0219628
1.28908
-0.030565
-0.00235727
-0.0274712
-0.0669753
-0.24041
0.138854
-0.00140849
-0.000568906
0.0106226
-0.0307709
-0.000472671
-0.275025
0.0246483
0.269939
-0.121749
0.00677521
0.362922
-0.0331682
0.0106277
-0.0376203
-0.154014
-0.00355739
0.000279849
0.0315326
0.233824
0.018096
-0.00687494
-0.0960919
-0.000671449
3.11312e-05
0.594996
-0.028461
-0.00052401
-0.244191
-0.0926867
-0.160868
-0.0709332
-0.222726
1.32276
0.315787
0.371459
-0.289627
-0.0535719
1.19098
0.443735
-0.165854
-0.0101122
-0.0158822
-0.0400079
-0.117934
-0.00456398
-0.0311819
0.669065
0.174482
-0.000939895
0.00951793
-0.0248441
-0.163343
-0.2337
0.020091
-0.0111656
-0.00823517
-0.281022
0.397956
-0.0236432
-0.000140108
0.213943
0.69495
1.61435
-0.0351559
-5.43505e-06
0.174773
0.897644
-0.118422
-1.09122e-05
0.185735
0.692389
0.00319667
-0.0780452
0.576875
-0.170862
-0.162929
-0.292583
1.14818
-0.220962
0.0709601
-0.285449
-0.0067582
-0.087484
0.0155155
-0.00724856
-0.0971472
0.0846804
0.363207
-0.00424371
-0.00539846
-0.171904
0.872489
1.35204
-0.000120637
0.0545071
-0.370436
-0.152368
-0.190162
-0.222929
-0.153483
1.63194
-0.0489076
0.66129
-0.14572
-0.212883
1.14516
0.349235
0.176545
-0.0102794
0.548068
0.440847
1.22406
-0.25184
-0.0555522
1.56096
-0.000427386
0.00539605
0.779539
-0.000133486
-0.0138755
-0.0280673
0.929393
0.932853
1.60424
-0.0160591
-0.0214471
3.50365e-05
-0.305255
0.00318792
0.133268
0.0591152
-0.209221
0.261865
0.715809
-0.00093116
-0.00348911
0.955239
-0.00042649
-0.000788746
1.33321
0.097723
-0.116218
-0.159563
-0.149411
-0.0652109
-0.362704
-0.000145693
-0.224474
0.742071
-0.0238456
0.000518703
0.828246
-0.0088633
-0.0909726
-0.0677962
3.97747e-05
0.00664397
0.885189
0.81807
1.22004
-0.0601943
-0.0953565
-0.134897
0.307474
0.867529
-0.00151225
0.000245933
1.55146
-0.0591428
-0.00442856
-0.213724
-0.0914939
1.14152
1.15527
-0.205712
1.7548
-0.0082212
-0.0730282
-0.288576
0.373263
-0.294622
0.980968
1.56054
0.000454241
0.0741271
0.606682
-0.0289296
0.56826
-0.00386487
1.70212
1.20003
-0.0398859
0.0215091
-0.00218471
0.765984
-0.000667494
-0.0419477
-0.342482
-0.000522875
-0.00955531
-0.00305355
0.688434
-0.000132991
-0.0324201
-0.279583
1.83119
0.334321
1.64718
-0.000321412
-0.0800176
-0.00134709
1.26389
0.0304753
1.3597
0.0123018
0.00566522
0.0775874
0.318691
0.00432808
-0.00164633
0.00385434
-0.0304036
-0.103515
-0.00030026
-0.243082
-0.0267058
-0.00102409
-0.00462799
1.31608
-0.0553631
-0.00560918
1.732
-0.0105985
0.990847
-0.00150231
0.0160064
5.58482e-05
-0.155885
0.358983
0.295731
-0.154
-0.00298096
-0.25779
-0.109792
-0.0013028
0.00377231
-0.0155495
-0.0532441
0.0220668
-0.00887495
-0.158349
-0.0819477
-0.156666
0.173002
-0.199215
1.21648
1.2477
-0.0109892
0.252887
-5.44334e-05
-0.0165676
-0.166464
0.741438
0.488624
0.000718059
-0.0150906
-0.193741
0.691902
-0.00730867
0.0268838
0.00919628
0.435156
0.0424274
1.20334
-0.0118251
0.122001
-0.00083269
0.031873
-0.00038067
-0.115415
-0.00252865
0.0445757
0.21708
-0.188455
0.0252568
0.0664231
-0.00541415
0.160403
-0.0451873
0.430266
0.689256
-0.157332
0.104336
-0.113648
0.0387277
-0.332106
1.63822
0.10447
0.222329
1.72317
-0.011372
-0.012841
0.140352
-0.00788775
-0.0354408
0.0471622
-0.0203536
-0.0151661
0.6387
-0.000489157
0.00417193
0.000587594
-0.0249468
-0.0494132
-6.44306e-05
-0.0081534
-0.14728
1.5486
0.0316753
-0.0583642
1.47488
1.03443
0.374673
0.283572
-0.310466
0.0374297
0.903915
-0.0790239
1.07364
-0.0785158
-0.216174
0.816725
1.08573
-0.232191
0.466013
0.983748
1.01714
0.302435
-0.0224776
-0.0310344
-0.000645758
0.0447541
-0.0807964
0.00746365
-0.000786906
-0.0117863
-0.263957
0.523536
-0.119245
-0.0151381
-0.0278957
0.103871
-0.0509958
0.0146169
0.91166
-0.0138526
-0.000159796
-0.000396826
0.000364322
-0.144056
0.623607
-0.0293145
0.201076
-0.295822
1.26769
0.0258915
0.0506138
-0.0376744
1.281
-0.00787715
1.20022
0.673153
-0.000860119
-0.0891923
-0.0242556
-0.179002
0.00430243
0.396656
0.0304105
0.0471677
-0.00632294
0.651438
0.696028
-0.135664
-0.145359
-0.0164552
-0.0805363
0.524262
1.8111
-0.0110792
0.0354668
-7.5231e-06
-0.0935835
-0.0166399
0.147001
-0.262997
0.20995
1.33236
0.655833
-0.0957694
0.861483
1.2557
0.193462
0.00913864
0.952308
-0.00654627
-0.00135652
-0.12223
0.000646741
-0.155935
0.00477629
-0.143789
0.0143529
0.833077
-0.013116
-0.000175324
-0.243755
0.0128775
0.318093
-0.26969
-0.358605
0.400834
0.610349
0.511302
0.523641
-0.00151773
0.505671
0.457713
-0.00391369
-0.114948
0.00458011
0.051998
-0.00100562
0.0352719
-0.00575609
0.736895
-0.000145253
0.00149017
0.0146293
-0.148427
0.151691
-0.137733
-0.177099
-0.102786
-0.284364
0.0854184
0.932551
0.252905
-0.0481188
1.71809
-0.227015
-0.0520546
-0.173706
-0.0366713
-0.139901
-0.0718287
0.206503
0.0906063
-0.000188362
0.181162
-0.000708841
1.20518
0.622057
-0.0350952
-0.0971773
-0.00139219
1.19283
1.14195
0.457361
0.813502
-0.235318
1.38761
-0.000456357
0.178781
-0.12447
0.727419
1.60366
0.486978
0.62469
-0.0102288
-0.00151018
0.752467
0.124485
1.24026
0.316512
0.832174
-0.0504416
1.2852
1.10027
-0.0640669
-0.0541896
0.679244
-0.3683
-0.000617397
-0.089815
-0.350443
-0.226779
0.0815007
0.0683251
-0.000925352
1.15439
-0.00522384
-0.000758287
-0.0638321
-0.00362615
-0.00165149
0.0279035
0.874526
-0.223925
1.51871
0.000462618
0.872924
-0.058088
-0.000554252
0.000133429
0.650239
0.836524
-0.0290908
0.764112
0.000186814
0.800299
-0.163985
-0.0668177
1.30186
-0.205928
0.778726
-0.166567
0.800624
0.836204
-0.110762
-0.140302
-0.0403442
-0.0202794
-0.00148103
-0.00646042
1.02956
-0.000197566
0.765945
-0.193662
1.11083
0.733181
-0.359644
1.4873
-0.0114732
0.0533142
-0.0537872
-0.133975
-0.0458556
-0.0735234
0.247957
1.67916
0.000314687
-0.0135506
-0.126916
4.56634e-05
1.22392
0.013125
4.44565e-05
0.00143995
0.00280544
-0.111601
0.143164
-0.0109062
-0.000630633
-0.0484965
0.0222175
-0.304796
-0.330842
0.152465
-0.000159301
-0.239021
-0.0874478
0.684592
1.08777
0.00886775
0.677671
0.00113126
-0.0840507
0.39839
-0.0458267
0.93609
-0.0859165
0.197301
0.412677
0.65249
0.0365827
-0.0687511
0.784864
-0.266628
1.28642
-0.06169
1.03246
-0.0615584
-0.00818759
0.597656
0.0292938
0.408938
0.0137461
3.88975e-05
-0.315978
0.891728
0.0105055
0.658736
-0.0814345
-0.262627
0.0992724
-0.142747
-0.0117294
-0.0578538
-0.259005
-0.179648
-0.0647507
-0.0010457
1.33846
0.650213
0.201549
-0.00141319
1.08765
3.06606e-05
-0.0012976
0.666927
0.0228174
0.817573
0.280493
0.121496
0.0502452
-0.231923
0.378243
0.009351
-0.262122
-0.000130734
0.0285384
0.904832
-0.105352
-0.0195928
-0.0161368
-0.0137593
-0.00286048
1.70123
-0.0652808
-0.00393822
-4.32149e-05
0.556381
-0.18198
-0.00229772
-0.01931
0.635172
0.44438
-0.230903
1.06895e-05
0.687196
-0.101514
0.798047
0.112584
0.136886
-0.1897
-0.000672442
0.403025
0.421267
0.446875
-0.164536
1.02014
0.0425029
0.778794
-0.0143009
-0.0683813
-0.00277452
-0.00287901
-0.000737574
0.661983
0.997206
-0.0103795
0.135242
-0.111855
-0.113491
-0.143888
-0.0130911
0.166215
1.66243
0.38658
-0.000376455
0.432353
-0.0244367
1.44635
-0.0810894
-0.0645449
0.0153914
-0.0742669
-0.0370542
-0.0516687
-0.0199226
0.011662
0.224492
0.000768791
-0.0618393
0.260398
1.20076
-0.221231
0.826681
0.0144565
-0.0209019
-0.0546022
0.779276
-0.0486594
0.000769261
-0.0984845
-0.0347901
0.174201
-0.170536
-0.145884
0.178345
-0.0954155
-0.0039907
-0.233827
3.99704e-05
0.282436
-0.207284
0.751276
0.0199411
0.404704
-0.197719
1.13986
0.0853284
-0.195903
-0.0439657
1.52178
-0.0612238
-0.0848783
-0.267257
-0.0767495
-0.2117
-0.0943326
0.751783
-0.0194566
0.884926
0.0609615
-0.00273351
-0.00840173
0.386378
1.8383
0.00854954
-0.0532796
0.661933
0.000159353
-0.133899
0.184184
0.139097
0.0617623
-0.0112856
-0.15504
-0.0193836
0.000207258
-0.195026
0.947934
0.0445163
-0.107915
0.0132043
0.662536
-0.00266614
-0.00873766
-0.00253491
-0.0053857
0.478796
0.0593292
0.0281375
-0.115725
0.000318432
-0.185446
0.172418
-0.210938
-0.0771428
0.102431
-0.00149872
-0.0808764
-0.273575
0.416875
1.1146
-0.00864661
-0.312262
-0.0330752
0.0929644
0.697614
0.00309745
-0.00111162
0.710972
0.355192
0.108107
-0.0208369
-0.0146779
-0.24687
-0.00123851
0.0262799
-0.0868167
0.985659
0.958392
-0.00611076
-0.194495
0.0504392
0.0444597
0.298499
-0.219246
-0.0242644
-3.9782e-06
0.252082
-0.158085
-0.24424
0.0536633
-0.252054
-0.00282643
-0.0209589
0.735215
-0.181358
-2.90566e-05
-0.0197944
-0.0163977
-0.00117509
-0.0330992
-0.000346741
0.0318649
-0.293722
-0.0210264
-0.000146572
0.000215329
0.491388
-0.144533
1.19789
0.998448
0.213128
-0.00405391
-0.0384109
0.00154494
0.0361906
-0.17923
0.32654
-0.104746
0.997605
0.068192
0.00193992
0.0522893
-0.156183
0.0136213
-0.0418644
-0.263488
0.029013
0.112301
0.301697
0.0702751
-0.141431
-0.0399042
0.685414
-0.0508476
-2.61199e-06
-0.194501
-0.302136
-0.0589588
0.0349872
0.00529437
0.0722988
-0.270205
0.165115
-0.173904
0.638965
-0.0650865
0.0461079
0.0998947
0.115255
-0.17644
-0.00335803
-0.00071432
0.55101
0.738846
0.0400463
0.899802
-0.175818
0.22022
-0.140576
0.716383
0.412556
1.65895
3.03168e-05
0.45393
0.667919
0.0744723
-0.00800514
-0.0906586
0.217702
0.000299722
-0.0902523
-0.171371
-0.0993939
-0.109178
0.000920568
0.0815612
-0.00199391
-0.00481183
0.820097
0.0376487
0.569156
0.107705
0.729151
0.0667098
-0.0021248
-0.0722252
0.0464374
1.15498
0.0068174
-0.184827
-0.00119465
-0.00296879
0.0455136
-0.070799
-0.000167978
-0.0535673
0.151796
-0.0104765
0.000213907
-0.000247649
0.564155
0.0851371
0.0370147
-0.0059871
0.0467386
0.0788356
0.0472258
-0.00155655
1.1827
-0.0312758
0.769766
1.06105
-0.00113702
0.534927
0.499662
-0.00414691
-0.00143169
-0.00229592
0.181468
0.107635
-0.025773
-0.0677735
-0.253867
0.630951
-0.148369
6.87337e-05
-0.0954309
-0.085419
-0.176839
-0.022378
0.0323922
0.0066317
0.138465
-0.00276308
-0.00124028
-0.084151
-0.0224424
-0.122297
-8.38177e-05
-0.0730252
0.16669
0.0937767
0.0266758
-0.043
-0.0580493
-0.0453359
-0.0270175
0.0734183
-0.0468151
-0.000557607
-0.00212237
0.120777
-0.0602865
-0.0256692
0.0449
0.0207554
-0.313849
-0.0547541
0.576734
-0.0619125
-0.242167
-0.108297
-0.111082
-0.0767744
-0.0194924
0.0119836
-0.0182957
-0.0680789
-0.0793368
0.729323
0.611731
0.270141
1.08511
-0.000382057
-0.0160504
-0.0807644
-0.0402334
0.499832
-0.0996226
0.282985
-0.0209731
0.800558
-0.0100183
-0.00838212
0.125602
-0.0540151
-0.00116739
-0.0865949
-0.0304363
-0.102643
-0.000107523
-0.0341633
0.0102896
-0.0859255
0.199063
0.165351
0.0924238
-0.0689936
-0.154128
0.448436
-0.00656788
-0.0101861
-0.0109655
1.46569
-0.000455111
0.355402
-0.104458
-0.100395
-0.13033
-0.178007
-0.141206
-0.167588
-0.0884542
-0.0237981
-0.000511136
-0.0220417
-0.106007
0.402679
0.00870968
0.723143
-0.161197
-0.0650853
-0.00482168
-0.141144
-0.000539718
0.55181
-0.147812
-0.12828
-0.116663
-0.0187524
-0.153926
-0.00882372
-0.199854
0.404529
-0.126757
-0.256784
-0.00760675
-0.132702
-0.0904902
0.0755372
-0.0167163
0.531252
-0.0124831
-0.0937749
-0.00349984
0.587622
-0.1913
-0.129961
-0.0167494
-0.0483278
-0.0142159
0.758057
0.165122
0.869328
-0.0238014
-0.00423882
-0.00654663
-0.0119804
0.795692
-0.291461
-0.0350841
0.00176273
-0.029148
-0.0103961
-0.00462432
-0.0430596
-0.0771138
0.248615
-0.0256082
0.0324448
1.42013
-0.301295
-0.142483
-0.280414
0.000181407
0.318039
-0.0183169
-0.132313
-0.0288919
-0.175054
0.0242343
-0.0027624
-0.0149648
0.0165611
0.705373
-0.0301394
-0.00921546
-0.024005
-0.240088
-0.0428654
-0.109596
0.0232703
-0.0448732
-0.0460498
-0.016944
0.721568
-0.226614
0.0163557
-0.021691
-0.135976
-0.0706737
-0.244055
-0.00723024
0.377925
0.113797
-0.0404033
-0.00890764
-0.0687996
1.50856
0.711248
-0.0576167
-0.00299696
-0.0123124
0.0531303
-0.0205318
0.10311
-0.00213242
-0.0570387
-0.0102306
-0.0858427
0.171819
-0.00545205
-0.0480117
-0.00702027
1.03271
-0.0329335
-0.0594939
0.143416
-0.0099951
-0.147723
0.521365
1.36027
-0.0548753
-0.0580103
-0.0109387
-0.00239068
1.00689e-05
-2.15158e-05
-0.0517361
-0.00343346
0.56745
-0.00345163
-0.00937786
0.0427343
-0.00133482
-0.217521
-0.200017
0.0840462
0.180838
0.124617
0.461786
-0.0844328
0.370636
0.293254
0.382384
0.47006
-0.0657879
-0.00452386
-0.0282626
-0.224436
-0.0180873
-0.0760779
0.400078
1.12739
-0.175741
-0.00249284
-0.000148116
-0.00759843
-1.13989e-06
0.0522516
-0.0028576
-0.0222965
-0.234467
0.002811
0.0135697
-0.00113069
0.345671
-0.0782149
0.000405474
-0.00616461
1.03736
1.03286
-0.051245
-0.157887
-0.137645
-0.120704
-0.0729694
-0.00964155
-0.25174
-0.0986356
-0.19842
0.127968
-0.000254514
0.727842
-0.0183133
-0.0493899
-0.0864146
0.0926549
-0.00274115
-0.0427865
-0.00706106
0.0750484
-0.00770882
0.70851
0.0018157
0.050197
-0.00213536
0.0143475
0.0443821
-0.00386789
0.100762
0.0021646
0.342182
0.504415
0.0140118
-0.00745435
-0.00064388
-0.00295526
-0.00260374
-0.297808
0.478075
0.294025
-0.0013867
0.0518944
-0.00235961
0.784862
-0.290234
0.908249
-0.2099
-0.00232691
-0.00146528
-0.0373592
-0.0288581
-0.00323359
-9.42448e-05
0.124131
0.139147
-0.00121921
-0.00171096
-0.0986996
-0.000114529
0.613358
-0.00483162
-0.256217
-0.0951667
-0.0325912
-0.268413
-0.291237
0.561243
-0.0269785
-0.101175
-0.00163549
-0.275453
-0.102757
0.250292
0.586626
1.13002
-0.00605525
-0.288451
0.0776641
1.0486
0.183685
-0.000613599
-0.0308463
-0.0208593
-0.0253783
-0.23416
0.409181
0.000943947
0.122289
0.0161847
0.389187
-0.00268917
-0.000626634
-0.00336594
0.980261
-0.264848
0.616307
-0.00631248
-0.0010402
-1.28976e-05
-0.171679
-0.203572
-0.00174728
0.49039
0.055651
-0.0272833
1.25502
-0.00201208
-0.0188407
-0.281171
-0.0348041
-0.0117066
0.509914
-0.149094
-0.000854516
0.0800946
-0.000896877
-0.000514953
0.563523
0.0417911
-0.00233335
-0.252071
-0.121671
-0.0178406
-0.0422728
0.012038
-0.112539
0.0084461
-0.0179011
-0.311224
-0.184504
0.132166
-0.00467631
0.604747
0.731722
-0.134146
0.0520032
0.0933832
-0.0219394
0.609874
0.481048
-0.138814
-0.000833329
0.0519531
-0.270173
0.0826328
-0.132993
-0.0107489
0.246317
-0.134958
-0.00070526
-0.000372978
-0.0483498
-0.112452
-0.12815
0.0501852
0.215541
-0.212102
-0.000790875
-0.00704649
-0.00107378
-0.143518
-0.000121915
-0.00989937
-0.124478
-0.234653
0.604963
-0.0152424
0.0212054
-0.103253
-0.125436
-0.000659007
-0.226222
0.614346
0.580695
0.000121729
-0.000572381
0.590463
-0.0128382
-0.247469
-0.19681
0.016979
0.0024599
-0.33982
0.0468729
0.603368
-0.277101
-0.00756305
-0.0363511
-0.238057
-0.00295873
-0.00124179
-0.00466602
0.123625
-0.248902
0.653545
-0.00108326
1.4815
0.220362
0.000603165
-0.00491022
0.00129634
0.00148229
-7.33459e-05
0.00070994
-0.258537
-0.00368707
0.00220322
-0.00102008
0.528695
-0.029071
-0.000993196
-0.000223596
1.19328
-0.105552
0.0771475
0.00581809
-0.00368759
0.299149
-0.000499177
-0.0531673
-0.0501067
0.0109603
-0.030641
-0.000492957
-0.00105956
-0.147563
-0.177747
0.0361603
-0.093378
-0.0664563
-0.000143417
0.102356
0.151139
0.426677
-0.00881981
-0.000802102
-0.269826
-0.0309995
-0.00254602
-0.239281
-0.000703385
0.22008
-0.000447625
-0.00654072
0.326131
-0.0103542
-0.283869
1.39077
-0.00827345
0.00141303
-0.245248
-0.202314
0.0475122
0.0237483
-0.00077325
-0.152707
-0.000428149
0.697433
1.75182
0.457458
0.015281
0.0182239
-9.53948e-05
-0.133886
-0.000289732
-0.0289262
-0.00866766
0.0019053
-0.0170948
-0.0449734
-0.000629605
0.00439506
-0.0352791
-0.0016015
-0.046268
-0.0811261
0.0104562
-0.00571247
1.58918
-0.00350781
0.0122737
0.00124444
0.0682934
-0.242162
0.04837
-0.000904973
-0.000509664
0.013757
-0.000557941
-0.000144712
-0.0540079
0.00352782
-0.000123678
-0.24623
-0.0108992
-0.276185
-0.00837339
-0.000345284
-0.0158702
-0.00904992
-0.0716259
-0.0902085
0.0115636
0.00268244
-0.00236718
-0.0101146
-0.000400219
0.935993
0.00784692
-0.000101577
0.0029864
-0.0102516
-0.00181049
-0.311252
-0.266631
-0.000659987
-0.0354015
6.96223e-05
-0.0124706
-0.000372366
0.163386
-0.000714964
-0.000946993
-0.0167688
-0.000116786
0.0667213
-0.00115647
-0.00644434
0.0911878
6.28997e-05
1.19536
-0.258008
-0.201287
-0.00012704
-0.000106947
0.00962803
-0.00604792
-0.23491
-8.65186e-05
-1.16778e-05
0.00375432
-1.49324e-05
0.00193155
0.00226873
-0.00232234
0.00399484
-0.255993
1.4349
-0.138287
1.11265
0.0450763
-0.0775577
-9.52933e-05
-0.00447327
-0.0610079
0.000740019
0.00145081
0.000881571
0.397095
-0.00663192
-0.0010952
1.43548
-0.00273511
0.0029836
0.00254823
-2.43731e-05
0.463842
-0.0109659
0.00573608
0.00064117
-0.00264048
-0.000346085
-0.00455805
-0.211183
-0.0021139
-0.00762863
-7.76881e-06
0.00128288
-0.00130042
0.686128
-0.00223796
-0.00137387
-0.340564
0.0189247
-0.000427011
-0.00678928
-0.000308658
0.637636
-0.352903
-0.00148539
-0.00196206
-0.0088413
-0.000779865
0.269003
0.491554
0.281945
0.00258356
-3.4457e-05
-5.78546e-06
0.304132
0.00130088
-0.298033
-0.0848098
-0.0768894
0.328946
1.58428
0.00984697
0.765401
-0.0710086
-0.141453
0.644917
-0.00180087
-0.318924
-6.45672e-05
-0.0449486
-0.242038
0.000279368
-0.206634
-0.00481408
0.0165941
-0.025253
-0.210625
-0.206795
-0.0143998
-0.282158
-0.217877
-0.000946435
-0.0600936
-0.000254845
-0.183516
-0.000141113
-0.00094049
0.141056
0.618987
-5.44259e-07
-0.220013
0.0179805
0.000382827
-0.0977614
3.03637e-05
-0.0681696
-0.00130296
-0.189412
0.000657227
-0.000436397
-0.0100636
-0.000230953
0.604442
-0.148346
0.438352
-0.000147452
0.00318234
-0.159474
4.31951e-06
-0.277456
-0.324805
-0.273609
1.49659
-0.0323721
-8.91059e-05
0.126321
-0.203726
-0.0120544
-0.000119029
-0.000428589
-0.232062
0.000657699
0.00445585
-3.17061e-06
0.000819333
-0.1378
0.663899
-0.125353
0.441634
-0.0266916
-6.73913e-06
0.0345711
-0.213512
-0.000104391
-6.97391e-05
0.00163358
0.000326233
0.00204777
0.946078
0.168134
0.0002855
5.63005e-05
-0.327827
0.731338
0.671497
-0.000227288
-0.176521
-0.0890998
-0.0475734
-0.235981
-0.0391083
-0.0145272
0.545049
-0.000203418
-0.128722
0.635392
-0.237834
-8.29706e-05
-0.304217
-0.000876987
1.07337
0.143286
-6.58804e-05
-0.000136477
0.705137
1.93798e-05
-0.000907354
-0.0580361
6.58562e-05
0.907993
0.0181208
-0.0364074
-0.32374
-0.0187478
-0.283491
0.681533
-0.0284602
0.0612299
0.00501788
-9.63228e-05
-0.00507477
-3.62435e-05
-7.80108e-05
0.156436
0.673104
0.574585
-0.00219111
0.852858
-0.0454352
3.95261e-05
-0.225398
-8.58667e-05
-0.13514
0.14751
-0.0664835
0.0224853
0.00921336
-0.0462118
0.0012639
-0.00829452
0.103485
-0.0143834
-0.000233951
0.000149266
-0.000305663
0.14793
0.00027801
-0.097925
0.893682
-0.029612
0.00025614
-0.0171619
-4.75734e-05
0.512945
-0.0017742
-0.000325232
-0.00042339
-6.56144e-05
0.760032
-0.000756367
0.875831
-0.293166
0.00057496
-0.239489
-0.00239024
0.597048
1.47036
-0.00700283
1.23366e-05
8.19643e-05
-0.000105015
0.598566
3.87875e-06
0.00524396
-0.118604
0.833101
3.43425e-05
7.73622e-05
1.46316e-05
0.000125513
-0.100418
9.45977e-06
1.02671
-0.0739943
-0.000613095
0.00014999
-0.0102353
-0.143079
7.09751e-06
-0.000279655
0.628584
0.000168416
-0.155207
-0.129407
0.000675926
4.84879e-06
-0.19462
6.59102e-06
0.641303
7.43622e-05
-0.00219979
5.94628e-05
-0.000869008
0.38354
1.60973e-05
-0.00809477
4.21033e-05
0.0725698
-0.0167122
-0.0315773
0.00574796
0.587298
-0.00132326
-0.000396133
-0.0437858
-0.0423239
-0.00120549
-0.00025524
-0.00442127
0.000203168
0.783711
-0.0481582
1.47893
-3.30525e-06
-0.0377423
-0.000765656
0.562857
0.000286554
-0.125137
0.000118831
-0.00782096
-0.162183
-0.00114334
-0.0769254
-0.239518
0.0260007
-4.18388e-05
-0.232406
-0.00164573
-0.00144973
-0.0273332
-0.0445422
0.00646252
-0.000240015
-0.00215338
-0.00435251
-0.00633249
6.65426e-05
-0.00598688
1.42821
0.000488829
-0.0160485
-0.169667
-0.364028
-0.309129
-0.234092
-0.105294
-0.00255061
-0.0567312
0.000385204
-0.000401103
1.44464
-0.000463837
0.728035
-0.00222304
0.002028
-0.00561336
-0.116086
-0.00206529
0.00424753
-7.40073e-05
-0.00194155
-7.34435e-05
-0.000391808
-0.0732876
-0.000537927
-0.000129514
-0.000409548
0.000741838
-4.84883e-05
-0.203144
0.950637
-4.95767e-05
-0.00295747
0.000162732
0.000154448
-0.00412656
4.69036e-05
-0.00446774
0.00143927
-0.00180508
-0.31555
-0.00340063
-0.00894799
2.49448e-05
-0.00728888
0.00168444
-7.5525e-05
-4.8574e-05
6.85544e-05
-0.00391331
0.0027533
-0.212569
-0.123999
-0.320182
0.00322536
-0.00851322
0.117163
-0.323092
-0.000466101
0.0814097
0.0346475
-0.00512543
-0.0576484
-0.277356
1.35444
-0.00208797
-7.47855e-05
0.00445263
0.00024714
8.97053e-05
0.314458
0.0188119
0.358088
-0.150481
1.31001
-0.00256595
1.06046e-05
0.000766013
-8.91921e-05
-0.0066959
0.62387
0.781504
-2.60425e-05
-0.000837877
-8.30851e-05
0.75047
0.114782
-0.0208307
6.04225e-05
9.76594e-05
0.0356142
-0.00341513
-0.341702
-0.0806479
0.000122148
0.0173113
-0.14251
-0.000295435
0.00900852
-0.000326486
-0.222866
-0.0087113
0.589607
8.48634e-05
0.0082522
0.000783206
7.58069e-05
0.000870001
-0.110721
7.49726e-05
-0.00447654
0.000113838
-0.0945608
-0.222944
-0.0137004
-0.0283127
-0.0419696
0.0442673
-0.0423404
-0.0121925
0.000336227
0.00053375
0.000103187
9.0164e-05
-0.000276076
0.0449882
-0.257833
0.00248884
-0.162804
-0.0151027
-0.205597
0.000436418
-1.0267e-05
0.00647087
0.09314
9.19806e-05
-0.168781
-0.0686773
0.400334
-0.154444
0.000133115
-0.0167158
0.000978003
-0.0477173
0.516359
5.87582e-05
-0.281115
-0.102411
-0.0205579
0.000190777
-4.26325e-05
0.161334
-0.0801743
0.000120867
-0.032875
-1.90787e-05
0.0010849
0.494721
-4.19343e-05
1.85342e-05
-0.000415325
0.000173459
0.00445918
0.000442015
-0.025085
0.00117793
-0.0604452
0.0054834
-0.00102642
-0.137978
-0.203403
-0.0303897
-7.55069e-05
0.000108377
-0.236289
0.028314
-0.228367
0.000146035
-0.0250322
-0.00018014
0.000123293
0.349553
-0.033782
-0.0135873
-2.95382e-06
-0.0829787
0.000249323
-0.32192
0.000135724
-0.365141
9.72164e-05
-3.02118e-05
0.000425518
0.00504721
-0.0762842
-0.087222
-0.32555
8.15985e-05
0.000480443
-0.374828
-0.0920734
-0.0407764
-2.34639e-05
-0.00639601
-0.227064
-0.382177
1.96412e-05
-3.76726e-05
2.57823e-05
-0.126513
-0.309846
0.00357705
-0.052922
-0.000272345
0.918588
0.000469047
7.43768e-05
0.00076135
-3.87698e-05
-4.10197e-05
-0.0175301
0.000574553
-0.0123437
-0.293825
-0.062586
-0.287218
0.000201702
-0.000250536
0.268597
-0.134431
-0.022717
0.453434
2.80056e-05
-6.4818e-05
-5.95814e-05
0.593751
0.00087576
1.93708e-06
-2.04654e-05
-0.248382
-0.0740182
3.24756e-05
0.000406165
-0.0442996
-0.0307322
0.00212758
0.791735
-0.259301
0.00118356
1.76374
-8.43557e-05
-0.00333582
-0.0374227
-0.390648
3.36084e-05
-7.79854e-06
0.000108423
0.0237454
-0.134422
-0.00164052
-0.232453
-0.0372252
0.000138787
-2.34082e-05
-0.0486784
0.0224784
0.102326
-0.0136931
-0.220328
-0.185695
0.185745
-0.123474
-0.000307617
0.00177731
0.109067
0.00268748
-0.000375115
0.00379117
0.000156884
-0.000436983
-0.0576368
-5.93517e-05
-0.000135781
0.202616
0.0397298
-0.000779621
-0.000186956
-2.5868e-05
0.849259
-0.0316755
0.00390799
-0.129597
0.00115257
0.000999275
0.000861139
-0.000235957
0.0024267
-0.17729
0.0951253
-4.56241e-05
-0.000786744
-0.189789
-0.137634
0.212801
-0.00238586
0.00896689
0.0848514
1.10118e-05
0.000303624
-0.191617
0.00011116
0.611498
4.73576e-05
0.0204094
0.000838339
0.00112249
-0.345336
-0.0350686
-0.0849092
-0.0116898
0.000132418
0.0345418
0.262799
-0.0583465
-0.000651738
0.385334
0.598771
1.80431e-05
-0.249448
-0.000322983
-4.80176e-05
-0.000217631
-0.00274727
0.093148
-2.17471e-05
0.00124198
-0.116773
-0.122626
-0.105553
1.01612
9.26121e-05
-0.000336401
0.624831
0.0024243
-0.0182238
-0.00316722
0.616212
0.000224369
-0.00150063
0.000233934
0.000140012
0.000157047
0.000180273
0.000365001
-0.0855124
4.36495e-05
-0.0158167
-0.215682
0.869819
-0.000673478
-0.000241867
0.0229417
0.349825
-0.18287
-0.00365021
-0.344012
1.01581
0.000214582
1.25672
-2.18441e-05
0.0164005
0.11441
0.0021815
1.3276
-6.20575e-05
-2.98688e-05
0.00574537
0.00015432
-0.00418784
0.00130899
5.88335e-05
-0.00951666
5.86547e-05
-0.000704793
-0.0159613
0.835881
0.246576
0.103425
-0.213207
-2.55377e-05
-8.49371e-05
0.0168441
-0.226109
-4.63255e-05
-0.226736
-0.000260415
0.41809
0.265721
-0.152136
-0.00655126
-0.0532836
-0.00478866
-0.0709523
0.0237158
-0.033486
0.283589
1.08169e-05
0.961275
0.280955
-0.00275663
0.767449
-0.063974
-6.12587e-05
0.000120376
0.000331677
-0.00102768
-0.000584039
0.8389
-0.00476643
0.858727
-0.00493133
0.61098
0.805072
0.583206
-0.0337293
-2.33057e-05
0.000324926
-0.0508706
-0.244329
-0.224414
0.00730077
0.000103739
-0.185379
-0.0014674
4.41327e-05
0.00497432
-0.00521595
-0.00293802
0.153046
0.000372589
-0.238194
0.268066
0.000288021
0.00134953
-0.0636008
-0.254212
-0.00356137
-0.00252548
6.70909e-05
0.00125182
0.530882
-0.0784085
-0.220257
0.00640871
0.517607
-0.184622
0.00017895
0.000115059
0.195125
-0.00042604
0.45874
0.0170766
-0.0652369
-0.00185753
0.00802197
-0.16762
-0.00015852
0.00246761
0.0469339
-0.364007
0.655499
-0.308689
-0.128059
-0.000791382
-0.000222621
0.0322607
0.000233379
-0.372253
-0.312682
0.00282086
0.0170414
0.0183051
-0.262332
0.00320143
0.000962048
0.000193483
-0.194589
0.000144024
0.0027963
0.477638
0.656724
-0.256885
0.215602
0.218418
0.176123
-0.000758694
0.0645712
0.000611572
4.39142e-05
-0.000341681
-3.47856e-06
0.000138319
-0.00174172
-0.0367906
-0.10508
-0.0470261
-0.128133
0.239715
0.199113
0.0198978
-0.29773
0.000811353
0.0233978
0.0551674
-0.00189228
0.339293
-0.0055253
-0.0516611
0.0608052
0.0265005
0.0056376
-0.0194786
0.210175
0.00407199
-0.0949249
-0.0784174
1.52545
-0.115539
0.357828
0.220731
-0.16248
0.0106947
0.000519653
-0.0126489
0.000289344
-0.0128554
-0.119764
-0.000337242
-0.000208188
1.00312
-0.0159194
-0.202984
-0.0912046
0.00101227
-0.00617262
-0.000110546
4.05147e-05
0.193134
0.000201536
-0.0143175
0.346684
0.0312243
0.00548485
0.0904621
-0.0278432
0.0205713
-0.192821
0.00429557
-0.0214919
-0.271002
-0.00413795
-0.0391296
0.00377002
0.00779294
0.00485915
0.191113
-0.00150181
0.0276365
-0.268219
-0.0982536
0.00156775
-0.268477
-0.072334
-0.0836725
0.000534155
0.0321076
-0.287902
-0.00409256
-0.0232044
-0.250257
0.00412436
-0.00572356
0.802255
-0.0908526
-0.000203672
0.0397619
-0.22862
-0.00513099
0.703265
-0.00964243
0.00499357
0.253524
-0.00698562
0.0407929
0.494485
0.000347747
0.00572997
0.000891109
0.000189953
-0.0215806
-0.0319133
-0.00061051
-0.116782
0.422212
-0.184165
-0.297788
0.00570965
-0.015833
-0.00283042
-0.101921
0.000139633
0.0918578
0.000233011
-0.0769012
-0.00952579
-0.0238678
0.302452
0.506876
-0.311732
-0.00025604
0.766992
-0.0090907
-0.0107029
-0.295335
-0.319104
-0.0744989
-0.000145294
-0.00510837
0.035179
-0.014953
-0.0229302
0.00218112
0.372172
-0.188896
-0.0538012
-0.0322699
0.144435
-0.00662492
-0.000786885
0.00828571
-3.09563e-05
-0.0150103
0.492157
0.00392746
-0.213785
-0.000268033
-0.0355689
-0.0152909
-0.330874
-0.0551855
-0.348961
-0.000310537
-0.000300112
-0.0126394
0.0518785
0.00926798
-0.348704
0.399859
-0.231036
0.00094013
-0.34737
7.18774e-05
-0.334094
-0.122498
-0.247737
-0.202601
-0.14172
0.00913794
0.260255
0.349256
0.430684
0.512379
0.591352
0.810615
0.878409
0.943628
1.05315
-0.0389828
-0.034961
0.332245
-0.0667741
0.004449
0.10211
-0.194724
0.00271641
-0.00297524
-1.46538e-05
-0.0673046
0.0845736
0.000222263
-0.00143144
-0.0507446
-0.00275913
-0.290529
-0.046793
-0.270936
-7.16623e-06
0.00285364
-0.000255165
-0.184639
-0.0414753
-0.171559
-0.0369861
0.00847537
0.00114528
0.0229066
-0.000159452
0.00234583
-6.4895e-05
0.00185416
-0.019823
-0.0553212
-0.00101137
0.00162436
0.214122
-0.0490332
0.321392
-0.316736
-0.0276502
0.740313
-0.0902483
0.0182198
-0.102658
-0.0156189
-0.0600813
-0.0564712
1.09343
-0.00575819
0.000349029
-0.0277421
-0.0416901
1.57578e-05
0.338263
-0.0186888
1.03916
0.169555
-0.222762
-0.128588
0.24495
-0.0210084
-0.000237782
-3.76098e-05
-0.0201015
-0.235717
0.00028582
1.16287
-0.0132638
-0.0233169
-0.000343364
-0.00184056
-0.0275065
0.666975
0.0576775
0.479951
0.00318544
-0.0684458
-3.16368e-05
0.126286
-0.0348086
0.0914835
-0.0110648
-0.026136
-0.00313302
0.00648749
0.0573014
-5.98483e-05
-0.0430143
0.00286637
-0.00189778
0.00229868
-0.020143
0.00119551
0.557395
-0.0507523
0.0187283
-0.0955484
0.283531
-0.136945
-0.0520693
0.219491
-0.0880242
0.656571
0.0789217
-0.0163506
-0.241981
-0.00315339
-0.000231598
0.00217266
0.000447697
-0.0100022
0.0213938
0.000432
-0.0618316
0.102498
-0.0148106
0.000215872
-0.0158506
-0.203705
0.569572
-0.154072
-0.222166
0.0392874
0.370322
-0.00599705
0.375106
-0.0561515
0.0254055
0.167246
-0.276674
0.440773
-0.000255109
-0.1385
0.00561501
-0.00716468
-4.37593e-05
-0.0287851
0.460426
0.00450769
0.824071
-0.0993391
0.155356
-0.0755539
0.000824152
-0.00640908
0.287574
-0.141838
0.836957
0.183783
0.11411
0.634384
-0.199639
-0.0203996
-0.303902
0.00362565
-0.1624
0.588442
-0.0137053
1.1155
-0.00635314
0.376027
0.000491753
0.407824
0.55276
0.0194742
-0.0944534
-0.00177691
-2.84511e-05
0.0254148
0.010365
-0.186873
-0.170361
-0.0270328
-0.193938
0.606495
0.245933
-0.158019
-0.0725888
0.000144824
0.0203527
0.94806
0.0222285
0.614205
-0.281229
0.0256798
0.000423125
0.00194559
-0.0967592
-0.00541639
-0.0122217
-0.150621
-0.00295055
0.0168521
-0.141048
-0.18705
0.877803
-1.56713e-05
-0.0841984
0.000923488
-0.121001
-0.00169609
-0.265083
0.488677
-0.158141
-0.109945
-0.00668697
-0.0716709
-0.00309669
-0.0246945
0.342379
-0.125783