/*--------------------------------*- C++ -*----------------------------------*\
  =========                 |
  \\      /  F ield         | OpenFOAM: The Open Source CFD Toolbox
   \\    /   O peration     | Website:  https://openfoam.org
    \\  /    A nd           | Version:  7
     \\/     M anipulation  |
\*---------------------------------------------------------------------------*/
FoamFile
{
    version     2.0;
    format      ascii;
    class       volScalarField;
    location    "7";
    object      p;
}
// * * * * * * * * * * * * * * * * * * * * * * * * * * * * * * * * * * * * * //

dimensions      [0 2 -2 0 0 0 0];

internalField   nonuniform List<scalar> 
20933
(
-0.00711228
-0.0438077
0.0535751
4.54307e-05
-0.00142282
-0.00250781
-0.0964612
1.06565
-0.0445988
1.04625
-0.0647595
0.869087
-0.0522724
-0.00676232
-0.00818725
4.03077e-05
0.322279
0.688149
-0.0859957
-0.0419469
-0.0318583
0.884593
1.05515
-0.0387451
0.0491757
1.54014
0.0162492
-0.0392696
-0.00852824
-0.0840851
-0.00258836
1.73697
1.05772
-0.0265532
-0.000382167
-0.0025631
1.14987
-0.000132424
0.0240671
0.617722
0.090977
1.23187
1.31274
0.0143424
1.53884
-0.10817
0.926845
0.583335
-0.000382536
-0.0673084
-0.000594886
0.207425
0.127445
-0.000371631
0.126574
-0.0982847
-0.0510094
-0.00299994
-0.00349216
0.339031
1.60885
-0.0814808
-0.0214204
0.991213
-0.000961441
-0.0103683
1.51013
-0.0115288
0.185461
1.52352
0.0664118
0.250326
-0.00742716
-0.0452925
1.51629
0.0838666
1.51232
-0.113239
0.60856
1.43116
-0.00859968
0.00276942
-0.0225092
-0.0391239
-0.0814979
1.31928
-0.0437626
1.84659
0.989021
1.59239
0.881688
0.00018415
-4.8373e-05
1.81966
0.551966
-0.0200344
1.83365
-0.00211961
-0.0468079
1.1032
1.60507
-0.0476063
1.629
0.161481
0.350079
0.138144
1.44349
0.203203
-0.0608628
1.40002
-0.0140097
-0.101714
-0.0485996
0.0654445
0.100128
7.00979e-07
1.29491
-0.00761109
0.120779
1.41507
0.000160593
-0.0182515
0.696432
-0.00917918
-0.0264726
0.695138
0.998389
-0.0381545
1.75366
1.3167
-0.0521109
-0.0666805
0.0908391
0.0230562
1.45129
0.321091
0.675483
-0.0288643
-0.0374072
-0.0716912
-0.028825
-0.0494208
0.213443
1.644
0.462553
1.46171
1.11445
-0.0604641
0.948226
0.0184081
-0.0609754
1.51249
-1.6545e-05
-0.0350079
0.00274423
1.13163
1.33821
-0.0433904
-0.105699
-0.0555985
0.108178
-0.0816209
-0.00297909
0.487368
0.511208
1.83553
-0.0449472
-0.027538
0.0730808
1.13493
0.657149
1.54526
1.36832
-0.0301586
1.90757
1.04191
-0.00634175
1.59066
0.11619
1.43433
1.48286
-9.6807e-05
1.64118
1.34576
-0.0397697
-0.114906
0.0688028
1.06679
0.144399
1.74256
0.990329
0.329514
1.12384
0.203516
-0.104832
0.791856
1.63655
0.478263
-0.0391505
1.75732
0.622959
0.186508
0.148721
1.71849
1.66493
-0.0720904
-0.0165395
0.21108
-0.0969472
-0.00331892
1.50183
1.57699
-0.0620579
-0.0920945
1.41959
1.51551
-0.0124094
1.41459
0.222881
0.026057
-0.0219005
1.36577
1.6799
0.889341
1.38896
-0.0402139
-0.0119062
1.93467e-05
-0.0096744
-0.00105576
0.683635
0.0980753
1.42996
-0.0661212
1.34438
-0.0399898
0.136295
1.53569
1.84899
1.35276
1.5013
-0.0939546
1.21284
-0.0052129
0.379394
-0.00760382
0.136125
0.313756
0.21945
-0.000333888
-0.0594366
1.69307
0.74116
0.0215377
-0.0770489
0.0999268
-0.0785923
1.24412
-0.0667666
-0.104822
-0.0418803
-0.0230456
-0.00128359
-0.0403015
-0.0743896
1.64331
0.465383
-0.0447868
1.35634
1.65909
-0.0431065
0.000689942
-0.0389696
1.50768
0.0627001
1.60292
-1.23031e-05
-0.090983
1.40249
1.4845
0.0137018
-0.0472716
1.73031
0.232808
0.319732
1.61789
1.73458
-0.0472232
1.41586
0.5138
1.42051
1.24867
0.000703792
0.456424
1.15277
-0.00687591
-0.0786935
0.51675
-0.050278
0.606779
0.39022
2.45328e-05
-0.00158856
1.59594
-0.00168603
-0.0864268
-0.0547653
0.884995
-0.0734836
1.43389
0.554361
-0.0470759
-0.116741
1.10382
0.815368
2.20326e-07
1.58687
1.32709
1.57573
0.153604
-0.00103347
1.72324
-0.00653673
-0.0350453
0.790513
0.486364
-0.0574468
0.203844
1.34406
1.81299
1.48173
0.629429
1.91845
4.32128e-05
-0.0269423
1.48661
0.0474326
1.14422
-0.0411997
1.52643
0.50732
-0.000582941
0.492757
1.28594
0.0158046
1.64527
1.3224
-0.000926009
0.0718853
1.03654
0.721728
-0.0111806
1.35605
0.00204897
1.87857
-0.0331045
-0.0626327
-0.0559016
1.47922
1.33343
-0.0815275
1.09535
1.59019
-0.0017032
1.21863
1.30862
1.90593
-0.00548262
0.894759
0.294884
-0.103463
-0.000499314
1.5283
1.23935
0.416245
1.56293
0.6588
-0.0535515
1.19345
0.518714
0.745774
1.87842
-0.0146597
0.737637
1.57164
-0.0798259
0.444231
-0.0389539
1.01283
-0.0738463
0.894887
0.433435
0.716452
0.000954538
0.936536
1.56339
1.24548
-0.0307522
-0.0200502
1.70572
1.72434
-0.00660527
-0.0870676
1.42393
-0.082558
0.116189
1.23925
-0.0581367
1.94991
0.0259792
0.946933
-0.0191781
1.57198
1.30644
0.228186
0.122053
0.341522
0.636354
-0.00189466
1.42055
0.258887
1.01192
1.86546
0.161283
0.0860472
-0.00181887
0.603796
0.451155
-0.050642
1.26716
-0.00032596
-0.0626033
0.0242284
0.250874
-0.0367942
-0.00037349
-0.0497644
0.770835
-0.00421646
0.0494542
-0.0757163
0.527878
0.405702
-0.067324
-0.113587
0.000322036
0.187098
-0.0800318
0.0210142
0.0244343
0.817632
1.23213
0.512528
-0.000973073
1.75393
0.0213366
-0.000453047
0.0838804
-0.0804988
-0.0386295
1.65473
0.0190174
0.521711
-0.063887
-0.0729247
1.21799
-0.0320707
-0.0579281
-0.072335
-0.000474709
0.179592
1.78188
-0.0666649
-0.0902376
1.25802
-0.0559347
1.24025
0.957661
-0.0074824
-0.0030862
1.33104
1.84434
-0.084732
1.08156
0.755131
-0.0762386
-0.0774243
1.42216
0.314611
-0.00944704
-0.0250873
-0.0849505
0.145125
1.71207
0.625137
9.99027e-05
1.63251
0.0353141
-0.0392555
1.38738
0.0271852
-0.0203453
-0.000962762
0.24496
-0.0692101
1.6401e-05
1.07564
0.0782466
1.42806
-0.00119575
-0.00069298
-0.058898
-6.81915e-06
-0.0920284
0.0100694
-0.00169377
-0.0275305
-0.112629
1.36734
1.57136
-0.00641225
0.00464116
-0.0689719
1.57946
-0.00405966
1.58136
-0.035878
1.88257
1.24688
0.899613
1.8107
0.286897
-0.0187037
0.292125
0.0040188
1.55497
1.41305
-0.0584871
0.14941
0.387913
0.0696801
-0.017814
0.119237
1.39981e-05
1.37394
-0.11529
-0.0480547
-0.018223
-0.0175482
0.94374
0.536932
-0.0104865
0.0272521
-7.07513e-05
1.88497
1.69816
-0.00940673
-0.0541689
0.0576925
1.40972
-0.112817
0.761736
-0.0857661
1.49583
0.902543
-0.071638
1.94063
0.127472
1.47013
-0.0171513
-0.0876707
1.64129
0.0102038
1.85413
1.38497
1.90167
-0.0176171
-0.0280819
-0.0136892
0.340553
0.0245244
-0.0042467
1.47139
1.50978
1.23508
1.56726
1.83422
1.05787
1.56301
1.24374
0.00475183
1.34702
-0.0593683
-0.0827275
-0.00232998
0.0580081
0.00459912
1.07424
0.256987
1.43054
-0.00687739
0.453825
1.38706
0.00623071
0.110759
-7.22279e-05
0.00041557
1.06976
-0.0510738
-0.070972
0.000475876
-0.000494098
0.362241
-0.000893145
0.537379
1.89667
1.10459
1.01365
-0.0682028
1.41941
0.628589
-0.00171649
-0.0531546
-0.00535387
-0.00102096
0.00192516
-0.0175505
-0.0674595
1.12274
0.333202
-0.108921
-3.31098e-05
1.47907
0.357362
0.211906
0.0142146
0.684366
0.0478532
-0.10748
1.38947
1.78449
1.34285
-0.0754537
1.35283
-0.073594
-0.0474923
1.13418
9.33414e-05
-0.0301805
0.912963
1.04167
-0.0694148
1.39382
1.66993
1.36078
-0.0840593
-0.111917
0.0641296
0.535344
1.3092
-0.0085318
1.62963
-0.0358342
-0.0820932
0.312255
1.76856
1.13298
1.4264
0.0218894
1.8623
-0.0658855
-0.0443241
1.92294
0.203148
-0.0485509
1.45424
1.49687
-0.0588371
1.29782
1.58066
1.48674
1.40772
1.46981
1.27072
-0.0273866
-0.0642616
0.00322483
-0.0796009
1.56059
-0.0753726
0.839515
0.796849
-0.0730261
0.546804
0.92321
1.58645
0.537821
-0.00144272
0.15882
-0.0516559
0.240903
0.230238
-0.0815169
1.39564
1.61905
0.406619
1.57659
1.85236
-0.00881197
0.00527141
-0.00763937
-0.0553157
1.18464
1.88924
0.643155
1.42376
-0.0420402
1.30161
1.33051
0.109488
-0.0863807
-0.111658
0.838474
0.00491742
0.354943
-0.0723791
-0.103288
1.43524
-0.0154213
0.0205242
1.50041
0.527627
1.73122
-0.0301081
1.22677
0.222063
-0.0429362
1.62379
1.77175
1.55846
-0.0246965
1.76602
-0.0789268
1.60712
0.230453
1.5488
-0.054954
-1.25784e-05
1.55327
1.6132
1.6038
1.55566
1.06242
0.459716
1.20745
-0.0489017
1.55638
1.38467
0.355647
0.266221
-0.026375
0.296898
1.41331
-0.0985045
-0.0797662
1.59192
1.56891
-0.0481028
1.53465
-0.0909171
0.660336
-0.0346494
1.59052
1.61352
1.85823
1.59434
-0.00789876
-0.0428478
-0.00261079
-0.0521899
1.72411
0.985043
1.39475
-0.101438
1.24878
0.0647607
1.7284
0.077632
1.58227
-0.0319093
1.69453
1.75609
-0.0462853
0.668701
1.68799
-0.00814203
1.79119
0.0455187
-0.0100709
-0.0885155
1.4767
0.866469
-0.0607042
1.54775
1.77731
1.32114
0.135708
-0.0402021
0.264549
1.56515
1.75952
1.89836
0.955977
-0.00195209
-0.0818856
1.40834
0.00145202
-0.0305895
0.00255671
-0.0229334
-0.0140764
0.051403
1.64651
0.0162386
-0.00195001
1.36005
0.967053
-0.000253292
0.762753
0.00256736
0.836634
1.3683
1.54446
0.0240056
0.712142
-0.015622
0.12398
-0.009155
1.57875
1.65317
0.0441233
0.0118321
-0.0124301
0.000834192
1.55671
0.0169502
0.0268705
-0.0552885
0.143439
1.82326
-0.0286739
0.461937
1.59137
-0.0186739
0.577071
0.0314263
-0.0361562
-0.00863663
-0.00128315
1.81215
1.21485
0.0285919
0.380959
1.25709
1.51886
1.37879
0.195099
-0.0559448
-0.0321439
-0.0477692
1.33101
-0.0709245
-0.0329918
-0.00037139
-0.0608986
-0.00413858
-0.00689132
1.48979
-0.0425887
1.57699
1.55142
-0.0814302
-0.0373648
1.84579
1.2796
0.359857
-0.040984
1.29188
-0.0381736
1.16336
1.81395
1.21048
-0.06556
-0.0447709
1.45276
-0.0722179
-0.0589121
-0.0368262
1.67079
-0.0557009
0.331237
1.27016
1.09626
1.34848
0.0167587
1.1665
-3.08912e-05
1.58495
-0.0630999
0.904062
-0.0140591
-0.0267831
-0.00217374
-0.00453533
0.00147364
1.67713
-0.0356784
1.23516
0.637682
0.0872763
-0.0144765
1.01072
1.8744
1.70578
0.0513285
0.963131
0.0445298
0.572581
-0.0761258
0.777352
-0.0924997
0.000635644
1.3083
-0.0568098
0.0284017
1.66017
1.44203
1.60599
0.140841
0.25847
-0.0270235
0.983003
0.159307
0.000160476
1.70056
0.723166
0.940061
0.392968
-0.00032368
-0.0158872
0.00271771
0.916668
3.49606e-05
-0.0325879
0.0204653
-0.0465518
1.72712
-1.47802e-05
-0.0467609
-0.105689
1.79223
0.0436361
-1.94696e-05
0.0133847
0.66646
1.36866
-0.0399305
-0.0334973
-0.00301479
1.38995
-0.0413606
0.928743
0.0720188
0.0363859
0.546442
1.3704
0.497707
0.965304
-0.00947798
1.44017
1.7681
-0.035783
1.2356
-0.0592615
1.79658
1.74615
-0.00979167
0.592088
0.543599
1.21631
-0.000225876
1.55356
1.91042
-0.016511
0.858414
1.11537
0.000526018
0.00108042
-0.0445945
1.8681
-0.0118412
-0.041619
1.56479
0.00377033
1.1992
1.59806
-0.0516071
1.69328
-0.0606846
-0.0375591
1.60251
0.956824
1.34719
-0.0101994
1.60893
0.928926
1.54402
-0.0705672
-0.0103259
0.860465
1.69616
1.60491
1.70931
1.56947
0.265789
-0.0853734
0.40876
1.26291
1.54758
1.77394
-0.0696106
1.04366
1.82346
1.48571
0.000704443
-0.0965854
-0.0494868
0.793593
0.121549
1.67428
0.952494
1.54239
0.569561
0.143902
1.55064
0.2907
1.2774
0.0244278
0.508661
-0.00940774
0.0167093
-0.0580206
1.77985
-0.0568271
-0.0508579
0.243077
0.868831
0.577409
-0.0522468
0.390535
0.0870417
-0.0441246
1.32119
0.837921
1.4067
0.0672984
1.61006
-0.0194193
0.000303215
-0.0151042
0.0379538
0.0083548
0.031183
0.0109555
1.12657
1.7126
0.865921
0.455833
0.0124482
-0.0581139
1.22486
0.0286993
1.80587
1.14214
0.0248557
-0.0531805
0.238282
0.046054
-0.0270079
0.00848933
0.161949
-0.0406377
1.10287
1.74311
1.63128
1.04466
-0.0136167
-0.0631266
-0.00583294
-0.0205302
1.33501
-0.0332779
1.29838
-0.0231673
-0.0338283
1.72155
1.74884
0.000550679
1.56303
1.62455
0.766201
0.0332718
0.839502
1.32701
1.74532
1.17392
0.0114614
1.71718
0.488124
-0.0184878
-0.0323244
0.0100447
1.7736
0.0420752
1.58396
1.15259
1.69961
0.0998794
1.20118
1.27305
-0.0202771
1.60613
0.245707
1.67658
0.00096043
1.19767
1.28593
1.30878
0.000880284
0.367951
-0.0065326
-0.0682256
1.11622
-0.0372487
1.23731
1.22776
1.86125
0.100446
1.68308
0.0744982
0.0652284
0.47671
1.55983
0.662141
0.281005
0.44032
1.41253
0.0020963
1.83979
0.00677049
0.207716
0.646798
-0.0592255
1.57704
-0.0199482
1.63793
1.3788
0.718279
0.343947
0.843347
-0.000242058
0.302746
1.66801
-0.0532177
0.200093
1.17575
0.557626
0.1995
0.357753
-0.0373429
1.73588
-0.0582598
0.459737
0.213955
-0.095329
1.5397
1.88435
-0.0756251
-0.0618831
0.0178065
0.541573
0.0010717
0.743239
1.75227
1.69936
0.0728562
0.811006
-4.86059e-05
-0.0830109
1.45207
0.028968
0.956629
-0.0591269
1.82513
1.43171
-0.0637774
0.0312905
-0.0237948
1.83571
-0.0658825
-0.00353099
-0.0545561
0.747943
-0.02986
-0.0567476
0.706627
1.74739
-0.0694986
1.79405
1.89955
-0.0413604
0.182208
0.000599388
-0.0111612
0.0824942
-0.0441502
1.82566
-0.0495907
-0.0164713
1.29693
-0.060843
1.39234
-0.0261101
0.374402
1.40138
1.30534
-0.0755904
-0.0224689
-0.0627058
1.4925
-0.0649344
0.985701
-0.0750925
-0.024074
-0.0791868
-0.00388477
-0.00975264
-0.0619362
-0.0475609
0.194103
0.0334591
0.674192
-0.00677961
-0.071325
-0.0492761
-0.0492154
0.0108986
1.7255
0.2888
-0.0382305
0.0140985
1.46563
-0.00626993
1.32292
0.179044
0.500052
-0.0306357
1.38777
0.990336
-0.0901578
-0.0047895
-0.0175466
1.19204
-0.000274435
1.29921
1.48879
0.0174451
0.105795
0.688266
0.600537
-0.0291444
0.816879
1.43316
-0.0540595
1.25398
-0.0881469
0.121828
1.22005
1.74826
0.265195
0.00756989
1.53852
1.29219
-0.0609226
-0.0584961
-0.0828664
0.114611
-0.0588925
-0.0221849
1.45521
-0.025827
0.0734089
1.46001
0.0375821
-0.0580741
1.08087
-0.0134525
0.802505
1.29106
0.259537
1.33392
-0.0304181
1.71041
0.000154183
-0.000391453
-0.000197886
0.44517
0.000198465
-0.0366612
0.820642
0.0731773
0.00289402
-0.0346314
-0.0405952
0.961522
1.57997
-0.00234451
-0.0433071
0.055657
1.24674
-0.0762104
-0.043982
-0.0636138
0.441376
1.08671
-0.015894
-0.0316683
0.181265
1.38109
1.4699
0.798974
1.31324
1.61787
-0.00191598
1.24864
0.601773
0.274419
-0.0556988
0.176179
1.92085
0.023425
0.014482
-0.0873103
1.38369
-0.0385483
-0.000885788
-0.0778669
-0.0891515
-0.0131954
1.58314
1.13638
1.29356
1.47516
1.31879
-0.0527237
0.731692
1.11971
0.423964
1.55138
0.938809
1.17715
-4.45895e-05
1.15608
-0.0391568
0.916791
1.18455
-0.0645948
0.510855
0.505851
-0.0479819
-0.0256487
0.492694
0.893574
1.76345
0.964758
-9.80717e-05
1.04238
-0.0456969
1.20321
0.987765
-0.0413192
-0.0547221
1.2609
1.5703
0.711985
-0.113672
-0.0680757
0.855532
1.25845
-0.0847921
1.43921
-0.0643263
0.780844
0.220059
1.67409
-0.00249955
0.00402138
-0.0151695
-0.0722314
0.160752
-0.0594208
1.29689
1.46903
0.0241676
1.05699
0.0275745
-0.0440988
-1.91967e-05
0.928499
-0.00877219
1.11859
-0.000116085
1.2794
-0.102002
1.41534
0.176177
1.50162
-0.0920119
-0.035459
-0.00258076
1.58625
-0.0748079
0.580561
0.765786
0.0349918
1.40198
-0.0361426
0.0250114
-0.0762656
-0.0151294
1.59046
-0.01635
-0.0703489
-0.0508923
-0.000105034
-0.050852
1.42991
0.00169944
-0.102964
0.00311995
-0.00556723
1.34569
0.19154
0.454515
0.000432375
0.00140356
-0.00911913
0.309981
-0.0797706
0.0039267
-0.039085
0.953611
3.4532e-05
-0.0711243
0.276424
0.768598
1.54593
-0.0566358
0.0164182
-0.109499
-0.0262016
1.34055
1.45353
1.60465
-0.000152322
0.879369
-0.079491
-0.077359
1.15123
-0.0491742
-0.0418062
-0.0530192
-0.0180254
-0.0604948
-0.0556229
-0.0483966
0.00445323
0.0804425
1.26774
0.0399541
1.02911
0.414403
0.294183
0.880095
0.641907
1.1474
0.157317
1.30341
0.000364789
-0.0222911
1.2383
-0.0942721
1.32981
1.28239
-0.0505145
-0.0999443
0.000228131
-0.0830983
0.403687
-0.0627374
-0.0652674
-0.068004
-0.0575419
-0.0986348
-0.0613493
-0.0486167
-0.0250792
-0.109541
1.14908
-0.0923277
-0.0108998
-0.105232
0.00541876
-0.105091
1.44319
1.40108
0.933193
1.65683
0.0186141
0.140334
-0.0826096
0.00539456
-0.0110546
-0.000653794
-5.56372e-05
0.910494
0.725391
-0.0007649
0.0326378
0.561017
0.865615
-0.0584904
-0.0664688
0.0218917
-0.0115852
0.00442705
-0.0015381
-0.102241
-0.0292845
1.72538
0.00713156
-0.025403
-0.0648647
-0.0677893
-0.050327
-0.0764429
0.0011497
-0.0509326
-0.0475274
-0.0955691
-0.0494603
0.640299
-0.0546963
1.05887
-0.0857011
-0.0117095
0.1627
1.32398
1.37331
1.11294
0.101484
0.0429945
0.0166276
0.0896587
-0.0652486
0.0703844
-0.0954924
0.0555961
-0.0299449
-0.00808236
-0.000151623
0.398971
-0.0247248
-0.00281261
0.0118808
1.7659
-0.0663711
-0.0405217
1.68859
1.73321
-0.0723927
1.71214
1.63822
1.362
-0.000798186
0.0800355
1.74139
-0.00378205
-0.002254
0.00632286
-0.0729572
-0.0305702
0.059838
-0.0687548
-0.0890578
-0.090932
-0.0063711
-0.00103009
-0.0567543
-0.0324475
1.85764
-0.077712
-0.0571754
1.86131
-0.0195113
1.80306
1.69616
1.27452
-0.0623711
1.85021
0.536677
1.50511
0.0836927
-0.000499198
-0.00182618
0.0203311
0.305299
1.5693
-0.00992527
0.000650671
-0.0768626
-0.000965316
0.0191282
0.85744
-0.000828906
1.31953
-0.053486
-0.0173219
-0.081685
-0.0651708
0.816606
-0.0207317
1.71244
0.00435773
1.61957
0.0295505
-0.0803636
-0.000211755
-0.114993
-0.0134492
-0.107048
1.47945
1.55466
-0.000210942
1.7255
-0.0742353
0.00113294
-0.0214461
1.62932
-0.0462975
-0.00349036
-0.0019798
0.00198603
0.000409089
-0.000835791
-0.00388073
1.75574
-0.00191337
-0.011485
0.016388
1.79608
1.90611
-0.0246483
-0.0853588
1.34878
1.86511
-0.0802688
-0.0799779
-0.000203666
0.134089
1.60342
1.32195
0.00149255
-0.0653289
-0.0871965
1.64996
-0.0735911
-0.0389326
-0.0415732
-0.0404393
-0.00532888
1.39567
-0.000700537
1.67645
-0.0122178
1.77376
-0.00470912
1.6975
-0.0601973
0.410645
-0.0253896
-0.000122507
0.00227207
-0.0295602
-0.0575229
-0.017912
0.000887123
0.00573734
-0.0127229
-0.0814487
0.000818686
-0.0529527
-0.0505474
0.00353011
0.500277
-0.000678278
1.31741
-0.0831145
-0.00506082
0.00905099
-0.049556
1.81684
-0.0459954
-0.0332324
-0.0334475
-0.0983744
-0.0699948
1.2875
1.37959
0.0241715
-0.0553997
0.0835127
0.560836
1.67336
-0.102287
1.26224
1.42888
-0.000240081
-0.0925438
-0.0744562
0.00445987
-0.00363691
-0.00404727
0.00329763
-0.0292799
-0.0280852
0.0381789
-0.0380068
0.0908015
1.00688
0.00686216
1.32048
0.712399
-0.0781337
-0.000166506
0.00196844
1.57331
-0.00475556
-0.0929358
-0.00340153
-0.0988553
-0.0461987
1.09225
0.349498
1.75048
0.000490626
0.0010976
-0.0922089
1.07021
0.0128751
1.68264
0.72585
-0.0780563
-0.0509428
-0.0488137
0.0595071
1.27952
0.222982
1.59005
-0.106136
-0.0011252
-0.00863633
-0.0426016
0.000325918
-0.00256882
-0.0144581
-0.0402991
0.0328227
-0.0950147
-0.000577071
-0.0967298
-0.0449417
-3.71445e-05
-0.000726559
0.0127326
0.00152541
-0.00155598
-0.0121693
0.16252
0.00264641
0.333323
-0.0487073
1.33978
-0.0835137
-0.0481206
-0.000152623
-0.048389
-0.0818849
0.00664283
-0.026292
-5.73031e-05
-0.0233819
-0.000797958
-0.0310871
0.430436
0.654054
-0.0898905
0.000445557
0.294129
0.00046558
1.42474
1.17873
1.38185
-0.00803552
-0.0182957
-0.00256788
-0.0262714
1.61878
1.28939
-0.00867005
-0.00851465
1.01238
1.28578
1.74047
8.02188e-05
-0.0140423
-0.0332435
-0.00023863
-2.34643e-06
-0.000607165
0.00133783
-0.00892978
1.33727
-0.00155975
-0.000403624
0.0312013
0.00210293
0.416552
0.0187305
1.10025
0.0028126
0.694953
-0.0842276
-0.104963
0.862538
0.744698
0.00035868
0.844068
1.67025
-0.0935166
1.36976
-0.107992
-0.0236819
1.45665
-0.00562242
1.33379
-0.0106166
0.0976494
-0.00492612
-0.0279745
-0.0554316
0.00163625
-0.00136542
0.148803
-1.08959e-05
-0.0454604
-0.094944
1.68816
0.0676988
0.0112153
1.31417
-5.20881e-05
0.000970197
0.0483312
-0.00401717
1.65747
-0.00788178
0.00125474
-0.0579026
0.602678
-0.040867
0.00339957
-0.00114591
0.564227
0.0309649
0.000742815
1.54903
1.78974
0.00254598
0.264472
-0.00124949
1.39052
-0.00213713
-0.0125941
-0.000595219
-1.88252e-05
-0.0089062
0.0126338
0.00282377
-0.0554383
-0.00341263
0.0277852
-0.00091624
-0.00164491
0.036171
1.46987
1.52931
0.041802
1.2964
0.439835
-0.000209685
1.2939
-0.0158535
0.00501514
0.0129882
0.2694
-0.00169894
0.152667
-0.00576684
-0.0173294
0.90201
-0.0606346
-0.0474249
0.773793
1.10898
0.708798
2.4046e-05
-1.06317e-05
-0.0589602
1.03917
-0.0173172
-0.087663
-0.00171974
1.28338
0.118589
1.4694
1.18229
-0.0532279
0.757499
-0.00368503
1.32715
0.384685
-0.0851848
-0.0010497
0.00298738
-0.04971
-0.0577791
-0.0428193
-0.0677471
0.633422
-0.0322928
1.03414
8.06259e-05
0.0145821
-0.00308824
0.623654
0.132464
0.0113266
-0.00015261
0.115263
0.988341
-0.0817043
0.100051
0.0874335
0.454515
0.0762637
-0.00208302
0.00153706
1.42741
1.50938
1.56493
0.000325452
1.5157
1.40272
1.5225
-0.0109889
-0.00154511
0.000558541
1.09767
1.20874
-0.0643753
-0.10197
-0.0932826
-0.0398511
0.505385
-0.051312
-0.0279303
1.25465
0.00418624
-0.044725
-0.000396655
-0.0592119
1.52422
-0.0542144
-0.000284729
-1.96529e-05
1.62813
1.40277
0.3362
1.00171
-0.0476716
0.297996
-0.0559333
0.259964
0.224724
0.197241
0.96135
-0.0657544
0.666542
-0.000321322
1.48838
-0.0142577
-0.0156449
1.37821
0.0853042
-0.0370346
-0.103253
0.298049
0.723224
0.0366788
-0.00082865
1.25943
0.0012729
-0.0411366
0.405234
-0.00140853
-0.0190496
0.00387449
-0.101587
-0.084663
0.360355
-0.00211411
0.318292
-0.0340857
0.280911
0.246337
-0.0374607
-0.062524
0.215963
-0.0900928
-0.053559
-0.0456377
1.10966
-0.0617789
-0.0268945
-0.000649484
-0.07374
-0.103993
-0.000832063
1.14543
1.46168
-0.0859855
-0.0680202
-0.0443975
-0.030934
-0.00141103
-0.00376733
-0.0116173
0.252206
-0.00116975
0.0663448
-0.0954611
-0.0896497
0.00259954
-0.000958069
1.09759
-0.0135862
0.614137
1.16698
0.00308546
-0.10479
-0.0869203
-0.000646129
0.567247
-0.101534
-0.0963901
0.519126
0.844706
-2.75371e-05
0.472149
0.870971
-0.00127564
0.66472
-0.0429356
0.050928
1.25405
-0.0172419
0.000418065
-3.47991e-05
1.2266
0.0855186
-0.0454124
-0.0987487
-0.0487946
-0.0292052
-0.0271765
-0.0852155
0.60475
1.58473
1.72644
1.35913
-0.000914664
1.08839
0.552033
-0.0521259
-0.10139
1.06115
-0.0987769
0.058448
-0.00177497
-0.0866528
1.32444
-0.000488547
-0.0560511
-0.0320657
0.142606
0.0016379
1.37943
-0.101619
1.35786
-0.0647003
-0.0760707
0.0317988
-0.00315646
1.21835
-0.0441384
-0.028594
-0.000107516
0.037815
0.18792
0.796332
-0.0306668
-0.000453974
0.81417
-0.000131143
1.00895
0.7478
0.000959229
1.00984
-0.0555288
-0.000776276
-0.0398976
-0.001606
0.00209281
0.0036551
1.18966
-0.055895
0.00265288
-0.059455
-0.0468461
1.1795
1.52498
0.000731872
-0.0360767
-0.0199998
-0.0322688
1.26383
0.0923038
0.00124078
0.95593
0.803382
1.34326
-0.0241224
0.00215369
1.08281
-7.69675e-05
-0.10296
0.099382
1.61391
-0.0448712
-0.0459012
0.00160264
-0.0189739
1.60441
-0.0890844
1.77133
0.737769
-0.032075
-0.00237016
-0.040756
0.0186809
0.00042369
-0.0391189
1.58269
4.41427e-06
-0.0236332
1.59774
-0.00128534
-0.0379177
0.000499516
-0.00533118
0.000483338
0.232666
0.0140454
-0.00536344
-0.0312982
-0.00269227
0.00023175
0.000298736
-0.000503322
-0.0331763
0.000359033
-0.0033811
0.049728
-0.0294498
1.76078
0.266082
-0.00949156
-0.0160209
1.13654e-05
-0.0458587
0.000249558
0.566757
1.33009
-0.00676706
-0.0140569
-0.0143185
0.455562
0.00415675
1.83425
0.00554688
-0.00472368
0.988051
0.042073
0.000309123
-0.0758779
1.30991
-0.00196435
1.29973
1.32651
-0.0537127
-0.0753085
1.49084
-0.0447932
-0.00635862
-0.0918333
1.16332
0.573705
-0.0654781
-0.00119865
1.54432
-0.00284243
0.0808747
-0.0177024
-0.00847721
1.70024
0.0019049
0.000104826
-0.0661366
0.931278
1.78179
1.29724
1.88522
-0.0160756
1.68007
-0.00161233
1.10363
-0.0109732
-0.00283293
0.760624
-0.0378437
0.538183
9.44114e-06
-0.107963
1.79356
-0.0440087
0.163457
0.00499521
-0.00400834
0.880954
0.00686689
-0.0853061
0.000280904
-0.029332
-0.000638896
1.83295
-0.0529792
-0.0768069
0.432806
0.0481307
0.714099
1.30323
0.000586395
0.129868
0.84583
1.37855
1.84821
-0.000108452
0.0918075
0.0613955
-0.00549178
0.920665
0.997643
0.0741109
1.61936
0.606975
0.857192
-0.043036
1.2561
-0.0983361
0.00013553
0.000141224
0.00023149
-0.00141711
0.00353748
-0.0706485
0.000130091
0.00251876
0.0293161
-0.00044557
1.03268
-0.00375673
-9.12438e-05
1.77965
0.00102212
-0.000734436
1.5294
1.8421
-0.107929
-0.0171362
1.47883
-0.027718
1.68051
0.379614
-0.00130943
-0.0716687
-0.0164651
0.00774907
0.0018999
1.35904
-1.17662e-05
0.000689725
1.61377
-0.00177045
0.00621864
-0.04893
-0.0681035
-0.0891273
0.000257117
0.488901
-0.0979097
0.000304929
-0.0813695
-0.00581075
1.04421
-0.00042732
-0.000450009
-0.00538088
1.59107
-0.027213
-0.0158214
-0.00455222
0.00598277
1.53928
0.0429899
0.684376
1.48566
-0.0026099
1.70444
1.44568
-0.0293675
-0.0709888
0.000944634
-0.0602069
1.67798
0.00956986
-0.00213999
0.000187116
-0.09838
-0.0186242
-0.00258757
0.000551604
1.69763
0.000112582
1.35537
-0.0238947
-0.080032
0.000229153
0.00382256
0.000899966
1.51264
1.53478
0.850984
-0.00281977
-0.100288
-0.0440167
0.709004
0.560449
1.00569
-0.0910735
-0.0481391
-0.118063
-0.00146894
-0.00238201
-0.00307649
-0.00454722
-0.00326105
-0.00384504
-0.00689374
-0.0169578
-0.103082
-0.00767003
-0.00812471
-0.104402
-0.00117069
-0.00533892
-4.9248e-05
1.93634
0.484796
-0.00702355
0.0118732
-0.00616917
-4.71011e-05
-0.00140137
-0.0107557
-0.00928861
-0.0929118
0.000114821
-0.118149
-0.00208007
-0.00366224
0.000158159
-0.0921922
-0.0633812
-0.0123635
1.58366
-0.0117128
1.32941
-0.0789975
1.63533
-0.122336
-0.122663
-0.122282
-0.121463
-0.119607
-0.118655
-0.116295
-0.000977459
-0.113926
-0.110516
1.52551
-0.105204
0.110984
-0.092803
-0.00166979
-0.0250424
-0.0499511
0.000189436
-0.0089063
-0.000401515
-0.00618206
0.221178
-0.004308
0.98227
1.38454
-0.0260793
0.0051437
-0.10032
0.014452
-0.0160208
-0.0238915
-0.0798164
-0.00093085
1.80061
-0.0467954
-0.050758
-0.0102611
-0.00506651
-0.0140593
-0.0103244
-0.123784
-0.0182232
-0.00660142
-0.0396793
0.399807
7.74349e-05
-0.000805175
-0.0113884
0.102448
-0.00768255
-0.0118771
-0.00893432
0.000210035
0.000712514
0.000475999
0.0007951
-0.00564464
-0.0136237
-0.0134658
1.50467
-0.00298971
-0.010076
-0.00580839
0.0027531
0.000415963
0.000673968
1.19678
-0.012743
1.45862
-0.0177033
-0.00356475
0.000167355
1.29963
0.00528213
0.000724628
-0.000652736
-0.000577662
-0.0345041
-0.015565
0.406748
-0.000533258
-0.013835
-0.00249134
-0.00735284
-0.00423111
-0.0200514
0.00656701
-0.0512571
1.48071
-0.100873
-0.0389037
-0.00181229
-0.000444266
-0.0950755
-1.10291e-05
0.0568755
-0.0168215
-0.0187278
0.00119694
-0.0183902
-0.0286671
-0.0773028
-0.00206135
0.000160145
-0.0653608
-0.0016871
-0.0226777
-0.0236037
-0.0212486
-0.000377078
1.69136
-0.00137892
1.89186
-0.0281704
-0.0263415
0.0275396
9.32369e-05
-5.26346e-05
0.231515
0.000791453
0.0402015
-0.00116901
0.301385
-0.0255393
-0.000554407
-0.000517783
0.00861239
1.68067
-0.000983666
-0.0540141
0.0224337
1.47599
-0.0739934
-0.0440224
-5.32357e-06
0.140284
-0.0388478
-0.055061
0.00658447
0.000585894
0.0352653
1.77677
-0.0442979
0.00197643
-0.0336105
-0.000618333
1.33515
1.46551
-0.000330837
-0.00623082
1.25207
-0.000818232
-0.0206399
-0.000481369
-0.00140213
-0.0434247
-0.0798502
-0.0187077
0.173246
-0.00233797
-0.000266657
-0.000669474
-0.00581962
0.00345856
1.02849
-0.0416381
-0.000420867
1.42803
0.00341242
-0.0042676
-0.101517
-0.0290704
-0.00275921
-0.000630814
0.0279503
-0.00621081
-0.034286
-0.000188047
-0.00202827
1.00847
-0.0222897
1.26453
1.62967
0.0177714
0.00705707
-0.0875854
-0.0244127
1.7739
0.0396684
-0.00749933
6.04538e-05
1.39059
1.70982
1.05403
0.412528
-0.0904924
-0.000411361
-0.0948493
-0.0016783
0.00254664
-0.0429966
1.26852
-0.0603966
-0.000867234
0.00624188
-0.00318853
0.487677
1.32003
-0.0115092
-0.0909885
-0.00374514
-0.00425638
-0.00501784
1.68026
0.0102448
-0.00288076
-0.00145153
-0.0140617
-0.0553068
0.482727
-0.0159544
0.00285374
-0.0190158
-0.000551175
0.0398068
1.32884
-0.116163
-0.00437157
0.047242
1.30251
-0.00447987
0.629199
1.50092
0.00221451
-2.11689e-05
0.692921
1.25706
0.753389
1.11384
-0.0857578
-0.0049044
0.000876438
1.26808
-0.0720316
0.00501996
-0.0685157
-0.0352204
9.64989e-05
-0.0893102
-0.00523108
0.000924877
1.22489
0.00774347
-0.0920047
1.53041
-0.0536764
1.46577
-2.23487e-05
-0.0890687
1.40995
1.78475
0.0491377
-0.0139506
-0.0315964
-0.00269611
-0.00664428
1.46051
0.0358148
-0.0727353
-0.00594222
-0.0032216
-0.00580594
0.00956018
-0.00184991
1.12896
-0.00151011
0.0432123
-0.00730664
-0.0156214
-0.00256771
0.913244
1.38459
-0.119641
-0.120466
-0.120049
-0.00224301
0.0134366
-0.00121987
-0.117941
-0.117107
0.922912
1.37244
-0.115413
0.899654
-0.044872
0.0119945
-0.0404756
-0.112913
1.14479
0.86904
-0.110663
-0.0251043
1.38665
1.16039
-0.00723324
0.000183206
-0.00456949
1.66817
-0.00144526
0.000131988
-0.00838965
-0.00604899
-0.00383105
0.00661801
-0.00703248
0.0339854
0.617026
-0.0491999
0.000109142
-0.0761076
-0.0765763
-0.0466293
-0.0743526
-0.120984
-0.00515764
-0.00910318
-0.00962269
-0.015734
1.42135
-0.00824359
-0.0111293
0.150512
4.84057e-05
1.63306
1.3832
-0.0735839
-0.0094964
-0.00190263
-0.0109415
-0.000503783
1.34614
0.324315
-0.00349792
0.131372
-0.000604236
0.114652
-0.0038172
0.100166
0.0873852
1.56017
-0.0450847
-0.000750846
-0.00866152
0.0117926
0.899633
1.2394
-0.0954382
1.23444
1.70221
-0.00506007
-0.0343634
1.19566
-0.0125762
0.369584
1.63936
1.18475
-0.034914
1.19833
-0.0127787
-0.023698
-0.00431302
-0.00499776
-0.101793
-0.000102176
0.326865
0.288395
0.253724
0.220114
-0.0491907
0.437612
0.00112975
-0.0096567
1.01591
-0.0299366
-0.00035714
-0.00794856
-0.0143796
-0.0843172
-0.000537825
-0.0370287
0.095559
1.87881
0.390956
1.36532
0.535087
1.96405
0.348199
0.308057
1.58133
1.63062
-0.0400662
0.977675
-0.00051887
0.223389
0.272117
-0.0163826
0.23949
0.0331396
-0.0765799
-0.0108252
-0.0144122
-0.0186196
0.00394319
-0.0164514
1.34821
0.0374936
0.0161898
0.00288274
-0.0772462
0.0123164
1.50212
-0.00264738
1.27579
-0.0344193
-0.0645735
0.643575
0.696758
-0.0582793
-0.113866
0.00822891
1.33271
1.08233
1.07398
0.072614
0.00168364
0.595052
0.548158
0.00729567
-0.000799786
-0.00454194
-0.0178857
0.501125
0.00701689
0.882488
-0.0210226
1.44034
1.36497
-0.0134187
1.35389
-0.000332468
1.59943
1.55701
-0.0105383
0.639298
-0.101689
0.0145026
1.95794
0.00750553
-0.0347238
0.512394
-0.000417691
-0.0199456
1.15485
1.3612
-0.0214564
-0.0620563
0.583866
-0.0048008
1.03266
1.19296
-0.0223292
0.169201
-0.004229
-0.0250166
0.00051149
0.000800834
-0.00590072
-0.0186136
0.112825
-0.0238022
0.662361
-0.00188186
-0.0372322
0.0806733
0.844229
-0.112787
0.0108119
1.16814
0.00627057
-0.000149789
-0.0100209
-0.0120485
-0.0938321
-0.0366068
-0.0267134
0.00774734
0.981574
0.821233
0.396848
-0.0319473
1.40799
-0.027519
-0.0240655
0.853963
1.95555
1.36627
0.0115293
-0.0739819
0.0242236