/*--------------------------------*- C++ -*----------------------------------*\
  =========                 |
  \\      /  F ield         | OpenFOAM: The Open Source CFD Toolbox
   \\    /   O peration     | Website:  https://openfoam.org
    \\  /    A nd           | Version:  7
     \\/     M anipulation  |
\*---------------------------------------------------------------------------*/
FoamFile
{
    version     2.0;
    format      ascii;
    class       volVectorField;
    location    "30";
    object      U;
}
// * * * * * * * * * * * * * * * * * * * * * * * * * * * * * * * * * * * * * //

dimensions      [0 1 -1 0 0 0 0];

internalField   nonuniform List<vector> 
7807
(
(1.08618 0.115896 3.12727e-20)
(1.07679 -0.0219287 9.69737e-20)
(1.05295 0.0997088 -5.05246e-20)
(1.05866 0.078191 1.00633e-19)
(1.03436 -0.00171176 1.55858e-20)
(0.939905 -0.00891265 1.19861e-20)
(1.05383 0.0985964 -1.00336e-19)
(1.01355 -0.0012819 3.86336e-22)
(1.03226 -0.00145083 1.38118e-20)
(1.03813 0.00347934 -8.64401e-21)
(0.993479 -0.00752619 -1.33199e-20)
(1.03477 -0.00211107 -2.4733e-20)
(0.971783 -0.00214079 -2.38624e-20)
(1.04094 -0.000576511 -1.02489e-19)
(1.03676 0.00355118 3.60829e-20)
(1.02905 -0.0088293 3.83103e-20)
(1.08683 0.119844 -6.63736e-20)
(0.949424 0.00111663 6.67185e-21)
(1.036 -0.00560999 -1.94308e-20)
(1.02073 -0.0741354 8.23904e-21)
(1.0537 0.00558746 -2.76177e-20)
(1.03446 0.000211162 7.03487e-20)
(1.04253 -0.00136568 1.32649e-20)
(1.01634 0.0458276 -6.12941e-20)
(0.913969 0.00375644 2.37756e-20)
(1.08351 0.114223 -3.13849e-20)
(1.03461 -0.00148838 1.30279e-20)
(1.04394 0.000825772 3.37731e-20)
(1.00733 0.0223466 -8.91664e-21)
(1.03616 -0.00572787 1.73399e-20)
(1.0252 -0.00910594 5.46736e-20)
(0.506047 0.0093696 1.03917e-20)
(1.042 -0.00149848 7.15022e-20)
(1.0324 -0.0024451 -2.97832e-20)
(0.473919 0.000463141 -8.27157e-23)
(1.04038 0.003221 1.37786e-20)
(1.03687 -0.00685546 1.277e-20)
(1.05289 0.0982212 -1.70426e-20)
(1.03143 -0.00515741 -6.92548e-20)
(0.863652 -0.00355761 -3.6806e-20)
(1.03177 -0.0051971 6.96872e-21)
(1.02912 -0.00839636 1.42961e-20)
(1.04528 -0.0819965 -3.9167e-20)
(1.15971 -0.0138217 -1.38093e-20)
(0.443406 -0.00172934 -1.75106e-20)
(0.895609 0.00815796 7.64802e-21)
(1.03341 0.000365234 -4.27929e-20)
(1.03223 -0.00467253 4.07676e-20)
(1.03045 -0.00284159 7.54555e-21)
(1.02456 -0.0747184 -1.21334e-20)
(1.03518 -0.00164979 1.97222e-20)
(1.04465 0.00142277 -3.64735e-20)
(0.861784 0.003383 6.47341e-20)
(1.04227 -0.018876 1.39002e-20)
(1.0408 0.00260244 -1.06044e-20)
(1.03097 -0.00278803 7.07396e-21)
(1.0351 -0.00478803 3.06512e-20)
(0.987788 -0.00122766 -4.55367e-20)
(1.0176 -0.0107444 6.24662e-20)
(1.03216 -0.00287504 3.61825e-20)
(1.03058 -0.00131206 -1.82277e-20)
(1.0365 -0.000187226 1.87378e-20)
(1.04146 -0.000160254 -2.31678e-20)
(1.0342 -0.00144913 2.52543e-20)
(0.88291 -0.0088811 -2.65316e-20)
(1.02561 -0.00952573 -8.72735e-21)
(1.03139 -0.00180052 -1.28438e-20)
(1.02853 0.000231928 1.85963e-21)
(1.14601 0.0810678 3.14912e-20)
(1.03243 -0.00421469 1.64249e-20)
(0.977935 -0.00209344 -6.93449e-21)
(1.01224 -0.0403861 7.31913e-20)
(0.960753 -0.000265112 -1.17243e-20)
(0.77351 -0.00286547 -9.93709e-21)
(0.985782 0.000200922 -2.09174e-20)
(1.00559 -0.0179991 9.97907e-21)
(1.0533 0.10052 8.09494e-20)
(1.05227 0.00504541 3.4706e-20)
(1.09784 0.01745 -7.10912e-20)
(0.999165 -0.031595 8.27451e-20)
(1.00073 -0.00334822 3.67801e-20)
(1.02764 0.10746 1.15116e-19)
(1.05531 0.0169648 6.07736e-20)
(0.962625 -0.00284641 -4.46181e-20)
(1.03223 -0.00223541 2.10487e-20)
(0.74158 -0.00294772 -1.12454e-20)
(1.02605 -0.00292715 -6.08578e-20)
(0.915767 -0.000808626 -4.13436e-20)
(1.03346 -0.00147414 -1.78283e-20)
(0.738964 -0.00569671 -2.17968e-20)
(1.00771 0.0253548 6.32855e-20)
(1.18467 0.00424756 2.14245e-20)
(1.02481 -0.00256452 1.28404e-20)
(1.03497 -0.00447457 1.43223e-20)
(0.992921 -0.00348211 -2.60772e-20)
(0.505218 -0.00357337 7.69323e-20)
(1.01417 -0.0401966 -4.40633e-21)
(1.04343 -0.0177995 -2.39524e-20)
(1.03195 -0.0021749 -4.2103e-21)
(0.829245 0.0085297 -7.62089e-21)
(0.844293 -0.0113379 -2.10311e-20)
(1.09805 0.0218883 5.34683e-20)
(1.01526 -0.00119093 6.44766e-20)
(0.492106 -0.00108729 1.04346e-21)
(1.18573 0.0148069 1.3526e-20)
(1.04234 0.0436438 -6.08416e-20)
(0.740088 0.0431544 1.41023e-20)
(1.02978 -0.00287744 2.70088e-20)
(1.02711 -0.00120542 -6.27742e-22)
(1.04971 -0.00494603 -2.93068e-20)
(1.05996 0.0750532 -1.16798e-19)
(1.05814 -0.0564648 7.4167e-20)
(1.02805 -0.00120147 7.88501e-22)
(1.05109 -0.00484657 -6.35859e-21)
(1.03821 0.0423278 6.35109e-20)
(1.0329 -0.000342209 -9.57704e-21)
(1.10015 -0.0646795 5.42029e-21)
(1.04235 0.0276161 -1.6829e-20)
(1.02207 -0.0312719 -4.48871e-20)
(0.856188 -8.68384e-05 1.06335e-20)
(0.629014 -0.0052269 4.95907e-20)
(1.00843 0.0575906 -7.66577e-20)
(1.05102 -0.0804509 5.38098e-20)
(1.03912 -0.00351698 8.19399e-21)
(0.708991 -0.00715331 -1.94675e-20)
(1.03329 -0.00166092 -3.78756e-20)
(1.02686 -0.00648135 -2.00594e-20)
(1.03517 -0.00492103 -2.35253e-20)
(0.734399 0.0101134 6.14218e-20)
(1.02578 -0.00812716 -1.31799e-21)
(1.21834 -0.00470742 6.1975e-21)
(1.09313 0.0149145 1.19267e-20)
(1.03312 -0.00299022 -2.79746e-21)
(1.03312 -0.00157521 3.95877e-20)
(0.924295 -0.00347318 -1.27744e-20)
(1.05659 0.0701106 4.64626e-20)
(1.03186 0.11737 1.30413e-19)
(0.727413 0.0101663 1.97625e-21)
(1.039 -0.00174784 4.49431e-21)
(0.525426 0.00524229 5.36742e-20)
(0.65317 -0.00343862 4.39101e-20)
(1.02608 -0.0451991 5.62218e-20)
(1.00714 -0.0196297 -1.33747e-20)
(0.764098 1.66228e-05 7.82277e-22)
(0.591231 0.00314957 5.58263e-20)
(1.04493 -0.0308987 3.67249e-21)
(1.01594 0.0278636 -3.3772e-20)
(1.01959 -0.0137583 3.3554e-20)
(0.557775 0.0038358 -9.51074e-21)
(1.01174 0.0831977 -3.82538e-20)
(1.042 0.00343644 4.02569e-20)
(1.17383 -0.000131942 9.40194e-21)
(1.03328 -0.00145396 5.93412e-20)
(1.15104 0.0751916 7.48593e-21)
(1.05332 0.0160985 -6.43926e-20)
(1.0535 0.097242 -8.79609e-20)
(1.00103 -0.0219131 -3.60071e-20)
(0.888876 -0.00578002 -9.0986e-21)
(1.04841 0.0784584 1.27921e-19)
(1.02865 -0.00855615 8.15614e-21)
(1.03498 -0.00457698 -3.57406e-20)
(1.01696 0.0504559 4.21275e-20)
(1.02835 -0.00214732 -9.82005e-21)
(1.03268 -0.00338704 7.16604e-20)
(0.949164 0.0017913 1.14664e-20)
(1.00688 0.0560063 -1.2708e-20)
(1.00378 0.0399738 4.5739e-20)
(1.03573 0.0721508 3.9745e-20)
(1.03245 -0.00359488 3.09946e-20)
(0.671238 0.000952704 1.47262e-20)
(1.02965 0.00096896 -1.86079e-21)
(0.398044 -0.00311717 7.91659e-20)
(1.03318 -0.000561429 1.28011e-20)
(1.07798 -0.0185786 -1.13463e-19)
(1.03881 -0.00199843 2.92923e-20)
(0.64992 -0.00230359 -1.85016e-20)
(1.17631 0.0223621 2.52764e-20)
(1.11046 0.0776849 2.56148e-21)
(1.03026 -0.00270606 -7.45348e-21)
(1.03333 -0.00188507 3.66121e-20)
(1.06076 0.0802693 -1.67427e-20)
(0.98712 -0.00283606 3.29792e-21)
(0.667136 -0.0129716 -4.23648e-21)
(1.05358 0.0980216 -8.24015e-20)
(1.07914 -0.0244688 4.91292e-20)
(1.04544 -0.0470575 4.73512e-20)
(1.02358 -0.0301531 6.4426e-20)
(0.924873 -0.00249209 -3.22798e-20)
(1.04263 -0.0321757 -9.06243e-21)
(0.481256 -0.00307484 -2.86352e-20)
(1.02767 -0.00246697 3.10084e-21)
(1.01482 -0.0373796 1.80194e-20)
(1.11203 0.0834538 -4.76289e-20)
(1.02644 -0.001193 -9.25994e-21)
(1.03174 -0.000444628 -9.08903e-21)
(1.08902 0.0799318 3.7503e-21)
(1.01508 0.00209524 -5.94286e-20)
(1.02641 -0.00773762 -2.99107e-20)
(1.04015 -0.0303694 -3.24782e-20)
(1.03011 -0.000753532 -7.81256e-22)
(1.03353 -0.00151581 -3.08692e-20)
(1.0534 0.0709597 5.26682e-20)
(1.10183 0.0873362 -5.391e-20)
(1.05083 0.0977447 -1.1542e-20)
(1.09566 -0.0592371 -3.05664e-20)
(1.06118 -0.0529919 -1.52582e-20)
(1.14636 -0.0864407 7.81237e-21)
(1.04293 -0.000502949 9.11371e-20)
(1.0493 0.0689873 -1.94806e-20)
(0.625224 -0.017667 1.77981e-20)
(1.03143 -0.000734786 5.2737e-21)
(0.44985 0.0444374 -5.90458e-20)
(1.02975 -0.00820991 1.55255e-20)
(1.03298 -0.00329448 2.48518e-20)
(1.01666 -0.0367767 -4.17142e-20)
(1.02647 -0.00685112 2.22496e-20)
(1.05428 0.0933626 -1.05452e-19)
(1.05225 0.0940353 -2.34915e-20)
(1.02387 -0.0464216 -1.45108e-20)
(0.778074 0.0256772 -4.2222e-20)
(1.03025 0.00133763 4.50558e-20)
(0.890386 -0.00180022 -2.34841e-20)
(0.788497 -0.0097557 -2.7247e-20)
(1.05075 0.00898417 -1.80277e-20)
(1.05068 -0.10626 3.60947e-21)
(1.1001 0.116967 -7.50062e-20)
(1.04561 0.0760974 -1.11613e-19)
(1.03095 -0.00140483 1.3221e-20)
(1.03861 -0.00348889 1.08056e-20)
(1.0396 0.0305399 8.79941e-20)
(1.03225 -0.00388974 5.43657e-20)
(1.04557 0.0282256 -1.16006e-20)
(1.03333 -0.00144937 1.29291e-20)
(0.982139 0.0607058 7.78384e-20)
(1.05248 0.0964145 1.81485e-20)
(1.01693 -0.00185784 -3.71514e-20)
(1.03605 -0.00501454 -2.14432e-21)
(0.929105 -0.00349011 7.02221e-20)
(1.12748 0.101695 2.55226e-20)
(0.650944 0.011624 -1.27983e-20)
(1.03122 -0.00629494 -1.52093e-20)
(0.908587 -0.0189288 -3.1313e-20)
(1.02489 -0.00508464 2.87291e-21)
(1.03239 -0.00238435 1.56155e-20)
(1.03331 -0.00154122 -1.43431e-20)
(1.08185 0.0566133 5.90038e-20)
(1.02927 -0.00220285 -1.28458e-20)
(0.606487 0.00404425 -8.25731e-23)
(1.00149 -0.0316261 -9.65386e-20)
(0.393403 0.0136859 -2.26951e-20)
(1.09281 0.0105747 -1.75846e-20)
(0.978542 0.0545467 6.22421e-20)
(0.868162 -0.000743132 9.33997e-21)
(1.03821 -0.0311307 -2.76817e-21)
(1.03229 -0.00229938 2.85769e-20)
(1.05342 0.0980304 -8.39158e-20)
(1.03531 0.000371888 -2.31384e-20)
(1.04244 0.142584 4.11826e-20)
(1.03579 -0.00625756 -5.75602e-20)
(1.03421 -0.0012935 3.92963e-20)
(1.05711 -0.0193667 -4.41085e-20)
(1.04233 0.00040319 -8.49679e-20)
(1.03314 -0.00055544 1.97783e-20)
(0.944282 -0.00572967 -1.28885e-21)
(1.03315 -0.000766926 4.99441e-20)
(1.03231 -0.00408753 4.59199e-20)
(1.05179 -0.0487299 -5.89218e-20)
(0.962971 -0.00770154 -6.13314e-21)
(1.00257 -0.0208432 -2.63481e-20)
(0.992983 0.000143843 2.45508e-21)
(1.01354 -0.00419868 -1.35726e-20)
(1.03332 -0.0030959 -7.46416e-21)
(1.05413 0.125599 9.80119e-20)
(0.556242 -0.00266415 -1.09575e-20)
(0.718688 0.00468279 6.74462e-21)
(0.295308 0.0245532 9.6302e-20)
(1.03225 -0.00259694 2.96311e-20)
(1.07952 0.0957902 -4.0499e-20)
(1.03223 -0.00233077 -4.16722e-20)
(1.03937 -0.0138707 4.23898e-20)
(1.03087 0.000900015 -5.82846e-22)
(1.02165 -0.0244771 2.76588e-20)
(1.05068 0.00828128 2.60291e-20)
(1.17685 0.0309242 -5.84826e-20)
(1.01793 -0.0119999 -5.35321e-20)
(1.03278 -0.00196494 -4.56923e-20)
(1.01979 -0.0615943 -2.08009e-20)
(0.142166 0.000315163 -2.94789e-20)
(0.619744 0.0157568 -2.06502e-21)
(1.03321 -0.000716205 -4.43156e-20)
(1.03284 -0.00257557 -3.43845e-20)
(0.837589 -0.0101403 3.50918e-20)
(1.03619 -0.000896114 -3.81696e-20)
(1.03294 -0.00158239 -1.97706e-20)
(0.964793 -0.00226826 -7.53658e-21)
(1.05556 -0.046524 3.9597e-20)
(0.922712 -0.000394987 -3.27459e-20)
(1.15274 -0.00742766 3.95478e-21)
(0.824758 -0.00273595 3.47249e-20)
(1.05821 0.100236 9.48993e-21)
(1.05694 0.101179 -7.13114e-20)
(1.03312 -0.000638374 3.12566e-20)
(1.19591 0.0319671 7.37109e-20)
(1.00847 -0.00208949 9.96044e-22)
(1.03301 -0.00313687 3.65864e-20)
(0.361201 0.00389984 -7.93266e-20)
(1.01212 0.0410607 3.60822e-20)
(1.05591 0.0218821 -5.36186e-20)
(1.031 -0.00167842 1.8044e-20)
(1.03302 -0.00263888 5.32927e-21)
(0.882145 -0.00276466 -2.62114e-20)
(1.06777 0.0522473 -2.38758e-20)
(1.03339 -0.00165374 -2.14484e-20)
(1.03433 -0.000985519 1.75461e-20)
(1.03397 -0.000522572 -4.10654e-21)
(1.13316 0.0404749 6.11557e-20)
(1.21885 -0.0162148 3.81681e-20)
(1.06601 0.109275 4.70884e-20)
(0.799886 0.00288794 2.94612e-20)
(1.08695 -0.0217713 -9.60998e-20)
(1.03059 -0.00231222 1.31215e-20)
(1.03669 -0.00463149 -6.02609e-20)
(0.993727 -0.00354637 2.87367e-21)
(1.02404 -0.0134148 -9.21221e-21)
(0.940571 -0.00316766 1.19934e-20)
(1.04263 -0.0129678 5.92863e-21)
(1.21524 0.0370527 -6.22692e-20)
(1.01416 -0.0189363 -5.2266e-20)
(1.04025 -0.0131562 -1.23707e-20)
(1.03789 -0.00292802 -1.78067e-20)
(0.851659 -0.00820255 -3.14317e-20)
(1.05212 -0.00809741 1.94478e-20)
(1.0322 -0.0118443 -2.70791e-20)
(1.09253 0.0257376 -2.66363e-20)
(1.07735 0.0550811 2.86354e-20)
(1.19342 -0.0900448 -5.18375e-22)
(1.15802 -0.0227252 3.45393e-20)
(0.254774 -0.00174205 3.1532e-20)
(1.03669 -0.0019701 4.21933e-20)
(0.912019 -0.0177007 1.28326e-20)
(1.01382 0.0653724 -1.24501e-19)
(1.14064 -0.0256531 -6.0971e-20)
(1.04999 -0.00222029 -5.76005e-20)
(0.863071 0.0372736 -5.88772e-20)
(0.701367 -0.012476 -1.4521e-20)
(1.03297 -0.000550653 8.54426e-21)
(1.17197 -0.00961748 3.4247e-20)
(1.03321 -0.0019109 1.75247e-20)
(1.04499 -0.0283221 -1.25775e-20)
(1.03702 -0.0019854 1.34544e-20)
(0.754559 -0.00172507 1.37108e-20)
(0.806037 -0.000565205 2.85885e-20)
(1.04599 0.0378334 4.82984e-20)
(1.03139 -0.00170684 5.59978e-21)
(1.03319 -0.000264497 -1.74142e-20)
(1.03092 -0.000346476 1.56777e-20)
(0.854451 0.00557716 -6.26329e-20)
(1.03071 -0.00574764 -4.10698e-20)
(0.96025 -0.00322086 -5.21398e-22)
(0.953394 0.00357661 -4.28238e-21)
(1.01864 -0.00998623 -1.94073e-20)
(0.669916 0.0138936 3.33045e-20)
(1.04171 -0.0138809 -2.66303e-20)
(1.02995 -0.0076757 -5.74439e-20)
(1.06907 0.0902145 1.63568e-20)
(1.00432 0.046248 7.36349e-20)
(1.08368 0.0149225 -2.55402e-20)
(1.18784 0.0359827 -2.80908e-20)
(0.293781 0.00525509 -4.3126e-20)
(1.03671 -0.00233261 -2.20571e-20)
(1.01842 0.069005 -3.6637e-21)
(0.803385 -0.00299981 5.06486e-20)
(1.06833 0.0961078 1.95027e-21)
(1.04248 -0.0349088 -1.56109e-21)
(1.07178 -0.0916089 1.73435e-20)
(1.09841 0.0847638 3.32382e-20)
(1.06989 0.0989052 -4.6098e-20)
(1.00152 -0.0175044 -6.22019e-20)
(1.05736 0.019794 -3.78436e-20)
(1.1029 0.120712 7.04444e-20)
(1.07589 0.0961848 7.21642e-20)
(1.04441 0.00171367 2.93376e-20)
(1.02961 -0.00110672 -1.52822e-20)
(1.0309 -0.00285165 -1.04838e-20)
(1.00391 -0.000673321 6.61672e-21)
(1.04673 -0.0170008 1.83338e-20)
(0.707947 0.00384962 -1.12959e-20)
(1.03341 -0.00217852 -2.24024e-20)
(0.94075 -0.00235679 1.15895e-20)
(1.03099 -0.000519861 -1.18423e-20)
(1.01739 -0.0604487 3.43484e-20)
(1.1183 0.0490298 2.2645e-20)
(0.971141 -0.00294362 4.86376e-20)
(1.03316 -0.0076019 -6.54532e-20)
(0.856183 0.00295857 3.26368e-20)
(1.08482 -0.0245412 3.39151e-21)
(0.872882 -0.0066474 6.23837e-20)
(1.03496 -0.00433256 4.27777e-20)
(1.11279 0.118216 1.11294e-20)
(0.843656 0.00374164 7.09859e-20)
(1.03011 -0.00225273 1.08442e-20)
(1.03175 -0.00172527 3.89736e-21)
(1.03098 -0.00159973 2.49868e-20)
(0.966274 -0.00223269 -1.85473e-20)
(1.0439 0.0351577 -6.07365e-20)
(0.717131 -0.00557507 -8.47882e-22)
(1.04726 -0.00293413 3.93711e-20)
(1.05876 -0.111125 -2.56789e-20)
(1.05275 0.0991508 -1.92545e-21)
(1.03618 -0.00485965 2.28679e-20)
(1.03823 -0.0028946 -3.97099e-21)
(1.02956 -0.0026905 3.0347e-20)
(1.04279 0.123617 -9.66758e-20)
(0.715576 -0.00134544 -1.58341e-20)
(1.06753 0.111565 -2.44335e-20)
(1.01248 0.0288101 -6.21531e-20)
(0.969689 -0.00328092 -1.27267e-20)
(1.04074 -0.035774 3.55785e-20)
(0.926764 -0.00308985 3.03868e-20)
(1.02907 -0.0459676 -7.06405e-20)
(1.0328 0.000211885 1.67324e-20)
(1.07902 0.0170797 3.45614e-20)
(1.03867 -0.00978959 -1.2805e-21)
(1.03784 -0.00225578 6.62337e-21)
(0.886638 -0.00586125 4.02821e-20)
(1.0861 0.0541804 3.08486e-20)
(1.0633 0.0512143 8.97618e-21)
(1.04388 -0.0494096 -4.00321e-20)
(1.0194 -0.0124762 3.47694e-21)
(1.03299 -0.0027636 2.41902e-20)
(1.03584 -0.0278818 8.21616e-20)
(1.14788 0.0668518 -4.60205e-20)
(0.606955 0.0192261 -5.18044e-20)
(1.11166 -0.051731 2.83102e-20)
(1.03719 -0.00486144 -1.25366e-20)
(1.02814 -0.0011945 6.24111e-22)
(0.998555 -0.0022042 4.75728e-20)
(0.815874 -0.00235664 -5.70029e-20)
(1.0515 -0.00842375 3.21785e-20)
(1.04232 -0.0867085 1.40369e-20)
(1.19634 0.0205174 -2.78813e-20)
(1.05676 0.101683 -1.10576e-19)
(1.07131 0.0489827 4.29526e-20)
(1.14669 -0.0755128 -2.87315e-20)
(1.08915 0.0847021 1.28018e-20)
(1.0142 0.0797835 1.20153e-19)
(1.04462 -0.00152492 3.36664e-20)
(1.03363 -0.00146132 4.93846e-20)
(1.04844 0.0773046 2.63114e-20)
(1.03324 -0.00189314 -3.72902e-20)
(1.03173 -0.00254397 -1.11812e-20)
(0.511647 -0.00122216 -1.25109e-20)
(1.03255 -0.00147923 3.80188e-21)
(1.15606 -0.0929289 -1.02406e-20)
(1.0369 -0.0110699 3.02344e-20)
(1.02322 -0.024122 -5.01119e-20)
(1.03401 -0.000980091 1.58312e-20)
(1.08471 0.0778182 7.08837e-20)
(0.851313 -0.000658121 5.85708e-21)
(1.02992 -0.0024221 7.40738e-23)
(1.06548 -0.0967182 -1.79336e-20)
(1.03392 -0.000374102 -9.77982e-21)
(1.12017 0.0140019 -6.68639e-21)
(0.847419 -0.0110788 -1.05248e-20)
(0.694534 -0.00343348 -3.13183e-21)
(1.19373 0.0739353 -5.26949e-21)
(1.03636 0.0293104 -2.25013e-20)
(1.03304 0.0098799 1.54972e-20)
(1.03092 0.00904049 -7.29037e-21)
(0.911996 -0.00462288 -3.49087e-21)
(1.12509 0.0488557 1.78853e-20)
(1.0927 0.0294937 3.2174e-20)
(1.03374 -0.00239738 -1.48388e-20)
(0.994757 -0.00284118 -5.61968e-20)
(1.03353 -0.000402953 -1.85475e-20)
(1.04245 -0.0117106 -6.98676e-20)
(1.04134 -0.0184576 1.30054e-20)
(1.03694 -0.00111561 -4.17175e-22)
(1.03324 -0.0017445 4.67762e-20)
(1.12727 0.0954223 -7.56011e-20)
(1.029 -0.00284028 1.32061e-20)
(1.03271 -5.99787e-06 -1.09309e-20)
(1.03566 -0.00111863 -2.32841e-22)
(0.610791 -0.00255332 -3.05051e-20)
(1.04535 -0.00475433 3.93214e-20)
(1.02255 -0.0197759 7.44051e-20)
(0.684843 0.0014872 1.52238e-20)
(1.04839 -0.046231 -2.65698e-20)
(1.07818 -0.119172 2.82315e-20)
(1.05537 -0.0174768 2.35559e-20)
(1.05228 0.0759473 -1.51447e-19)
(1.20645 0.0410559 3.73339e-20)
(1.01971 -0.00322362 3.71721e-21)
(0.959158 0.0552612 8.98631e-20)
(1.01629 -0.0420494 -6.69193e-20)
(1.03053 -0.006238 -1.22839e-20)
(0.62283 0.00433751 -2.63307e-20)
(1.03276 -0.0115394 5.64333e-21)
(0.515027 0.00547305 -4.92326e-20)
(1.01228 -0.00242239 1.73574e-20)
(1.05075 -0.0039882 -4.3739e-20)
(1.14858 -0.028171 1.32409e-20)
(1.03006 -0.00234721 1.04346e-21)
(1.04826 -0.00442969 -3.13687e-21)
(1.00337 0.00344314 6.68457e-21)
(1.05506 0.0969247 2.37417e-20)
(1.14662 0.0865382 7.0001e-20)
(1.02441 -0.00221546 -1.04424e-20)
(0.579525 9.98938e-05 5.86135e-20)
(0.987414 0.00146034 2.3111e-20)
(1.0199 0.105273 7.6248e-20)
(1.06362 0.0988571 5.85729e-20)
(1.12773 0.0418067 -3.33154e-20)
(1.12913 0.116417 -5.97044e-20)
(1.01622 -0.0449314 2.85983e-20)
(1.02199 0.071675 -1.15745e-19)
(1.03137 -0.00170437 -1.17006e-20)
(1.07175 -0.0108703 7.62755e-20)
(0.39157 0.0102963 1.49325e-21)
(1.10444 0.0755422 -1.79558e-20)
(1.01103 0.0661195 -7.84844e-20)
(1.15175 0.0612912 7.00089e-20)
(1.06551 0.0430231 6.99342e-21)
(1.03363 -0.00756497 1.97673e-20)
(1.02586 -0.00305972 1.99268e-20)
(1.13292 0.104961 2.65313e-20)
(1.20637 0.000950698 -1.16913e-20)
(1.03904 0.117705 -2.89398e-21)
(1.11377 0.0122266 8.25328e-20)
(1.04958 0.0645819 4.73281e-20)
(1.00128 -0.00470503 1.13395e-20)
(1.05304 0.101784 3.03596e-20)
(1.06516 0.0961836 2.21121e-20)
(1.01019 -0.000193733 5.28849e-20)
(1.02273 -0.00347047 2.35399e-20)
(1.14276 0.0982104 1.91412e-21)
(0.637548 0.00430224 5.25822e-20)
(1.03134 -0.0017187 1.54722e-20)
(1.01353 -0.00256435 -6.21483e-20)
(0.82412 -0.0139824 -3.9811e-20)
(1.02693 -0.0590529 7.21744e-21)
(1.03878 -0.00158809 -6.14316e-20)
(1.03784 -0.00248736 5.5044e-21)
(1.03268 -0.00219656 1.98706e-20)
(1.06472 0.101334 -8.69139e-20)
(1.03447 -0.00731411 -5.06817e-21)
(1.03044 -0.00211239 -6.05602e-21)
(1.05492 -0.04188 -4.73539e-20)
(1.03285 -0.00283234 -1.17251e-20)
(1.01136 -0.00533587 -1.97184e-21)
(1.03674 -0.00715394 -1.35125e-20)
(1.07648 0.078708 9.10053e-20)
(1.0568 -0.0848812 -2.69365e-20)
(1.06059 0.0819618 4.81775e-20)
(1.03115 -0.000917619 -1.22774e-20)
(1.08048 0.0807921 -9.6406e-20)
(1.04788 -0.0353473 -3.70107e-20)
(1.03181 -0.00200199 4.06377e-21)
(1.03049 5.12015e-05 -6.1853e-21)
(1.00397 0.0163749 -1.06172e-20)
(1.07175 0.0718055 3.46072e-20)
(1.03133 -0.00274675 -1.1225e-20)
(1.06575 0.0606379 -4.92654e-20)
(1.03026 -0.000172867 4.58184e-21)
(1.06693 0.0654281 -6.64155e-20)
(1.18041 -0.0942428 -2.80163e-20)
(0.985539 -0.000306204 -5.73009e-20)
(1.00501 0.0486216 -1.53052e-19)
(1.01697 -0.0343443 -5.05505e-20)
(1.1331 0.11225 6.12157e-20)
(0.645543 -0.00265722 -1.54496e-20)
(1.07118 0.067122 8.52e-20)
(1.07603 0.0736318 -2.49906e-20)
(1.01837 -0.00352139 -8.46781e-20)
(1.00607 -0.0032972 5.03853e-20)
(1.03135 -0.00605197 -4.71903e-20)
(0.968815 0.000587152 1.27467e-20)
(1.0319 -0.00236379 -2.52407e-20)
(1.03434 -0.00718586 8.34939e-21)
(1.06998 0.0926902 -1.12898e-20)
(1.02986 -0.00244872 -2.91598e-21)
(1.06111 0.0593693 6.47546e-20)
(1.07012 -0.0836283 -4.62871e-20)
(1.0371 0.0932758 2.98418e-20)
(1.05997 0.0548989 -7.57701e-20)
(0.778092 -0.0109807 5.40802e-21)
(1.0615 0.0882606 -1.0397e-19)
(1.03333 -0.0010428 2.19397e-23)
(1.04625 -0.0153857 2.74221e-20)
(1.08416 -0.0543751 -1.6874e-20)
(0.52055 0.0012316 2.95862e-21)
(1.03025 -0.00318785 -3.50907e-20)
(1.04571 -0.0367137 2.94237e-20)
(1.07605 -0.00240753 -6.73178e-21)
(0.893017 0.0428133 1.14457e-19)
(1.02973 -0.000789235 1.70529e-20)
(1.03291 -0.000811969 -1.95723e-20)
(1.0541 -0.056247 1.32343e-22)
(1.0311 -0.000945898 9.97005e-22)
(1.05566 0.0982068 1.14827e-20)
(1.03402 -0.000144951 0)
(1.03015 0.000531533 8.70392e-22)
(1.03118 -0.000210808 2.69822e-20)
(1.03395 -4.89288e-05 3.26334e-22)
(1.02429 -0.0124747 -6.2771e-20)
(1.04879 -0.00766749 -2.21715e-20)
(1.03358 -0.00113039 -3.84968e-20)
(0.914567 0.00372553 -1.37111e-20)
(1.02783 -0.00328924 -1.83644e-20)
(1.03639 -0.0073145 -1.48708e-20)
(1.0318 -0.0935363 3.49982e-20)
(0.398861 -0.000205582 -4.35405e-21)
(1.04472 -0.00422831 6.07339e-20)
(0.733295 -0.00989333 -8.56648e-21)
(1.13894 -0.119828 -3.5416e-20)
(0.960111 -0.00345542 2.61056e-20)
(1.13315 0.0902937 -5.29398e-21)
(1.00161 0.0209259 -2.44547e-20)
(1.03348 -0.00207512 1.43566e-20)
(1.12437 0.0808237 -7.85411e-20)
(1.03097 -0.000495215 -5.22543e-22)
(0.993944 -0.00297294 -5.29658e-22)
(1.03993 0.00289177 -4.32927e-20)
(1.03106 -0.00325773 1.41775e-20)
(1.07873 0.0878045 -5.7042e-21)
(1.02555 -0.00329143 4.81775e-20)
(1.0723 -0.00841932 -5.91419e-20)
(1.03995 0.00446452 -4.37595e-20)
(1.07626 0.0505331 -1.672e-20)
(1.03877 -0.00894045 -3.87284e-20)
(1.02167 -0.00194051 -1.39957e-21)
(1.09387 0.0769369 4.80786e-20)
(1.02099 -0.0656859 3.61819e-20)
(1.05378 0.0984244 9.30096e-20)
(1.02906 -0.00250638 6.50169e-20)
(1.08094 0.103281 2.81714e-22)
(1.02744 -0.00169072 -1.73401e-20)
(1.03358 -0.000524298 3.36936e-21)
(1.06482 0.0398289 2.06012e-20)
(1.04567 -0.0183843 -2.04347e-20)
(1.05312 0.0130286 6.26079e-20)
(1.03282 -0.000697677 1.09074e-20)
(1.03061 0.000994871 4.03094e-22)
(1.04433 -0.108976 -1.28765e-20)
(1.11242 0.113424 -6.93875e-20)
(1.03368 -0.00201299 -1.28633e-20)
(1.1314 0.0829941 8.70956e-21)
(1.02599 -0.00339315 3.43515e-20)
(1.13086 -0.127791 1.18292e-20)
(1.07259 -0.0228671 9.0031e-21)
(1.02227 -0.0212532 -4.02693e-20)
(1.03352 -0.00084288 1.53733e-20)
(0.642874 -0.00371574 1.37556e-20)
(1.01549 -0.0546673 2.48699e-20)
(0.924634 -0.00394698 -5.66888e-20)
(1.0224 -0.0014329 -4.37295e-20)
(1.03245 -0.00185165 -1.83327e-20)
(1.05306 0.0986736 -1.01214e-20)
(1.12245 0.0741045 4.9837e-20)
(1.04848 -0.00310279 -1.41657e-20)
(1.03176 -0.00278969 -1.71944e-20)
(1.0635 0.0938065 -4.1693e-20)
(1.02988 -0.000973455 4.96545e-21)
(1.03151 -0.00268232 -3.56984e-20)
(1.11569 0.0725204 4.25509e-20)
(1.04185 -0.0153338 3.79783e-20)
(1.12052 0.105851 6.36345e-20)
(1.04435 0.000226166 2.46509e-20)
(1.04421 -0.00622856 -7.56012e-21)
(1.11847 -0.0384335 -2.53177e-20)
(1.09329 -0.105555 -3.43138e-20)
(1.19476 0.0670524 -2.52826e-20)
(1.03401 -0.000503037 -2.93486e-20)
(0.895135 -0.011525 3.69041e-21)
(1.03045 -0.00171987 3.54829e-21)
(1.03668 -0.00699928 9.71643e-21)
(1.08103 0.0850722 3.28148e-20)
(1.01931 -0.00306781 -6.3156e-20)
(1.03098 -0.000917079 -1.96344e-20)
(1.04721 -0.0269669 4.0496e-20)
(1.03289 -0.000626762 -1.08471e-21)
(1.03333 -0.00165437 -2.62139e-20)
(0.310348 0.00724697 2.0548e-20)
(1.02854 -0.00281066 3.38678e-20)
(1.03297 -0.00249749 4.92536e-20)
(0.475644 -0.00314121 1.91865e-21)
(1.02594 0.0106791 6.54173e-20)
(1.01463 -0.0174908 7.63738e-21)
(1.03267 -0.00201428 -2.30199e-20)
(1.00702 0.00217169 -2.62957e-20)
(1.03354 0.0319879 2.38381e-20)
(1.08291 0.024802 5.98899e-21)
(0.997774 -0.0156189 3.93438e-20)
(1.02946 -0.000975019 5.59826e-21)
(1.00166 0.0162462 1.4652e-19)
(1.02516 -0.0106216 4.54121e-20)
(1.08426 0.0729325 -7.36402e-20)
(1.0403 -0.000780049 -6.63078e-20)
(1.04108 -0.000404343 1.34229e-19)
(0.959435 -0.00471239 -7.33267e-20)
(1.03088 -0.00182546 4.26896e-21)
(1.03944 0.00148195 -5.34787e-21)
(1.08766 0.0227608 -1.10899e-20)
(1.17579 0.0690436 5.29398e-20)
(1.07554 -0.0782347 -1.47395e-20)
(1.06765 0.0900633 3.56556e-20)
(1.03816 -0.00132875 -1.60816e-21)
(1.09887 0.079753 -6.59656e-20)
(1.03386 -0.0091132 2.52414e-20)
(1.05129 -0.0402843 7.23521e-20)
(1.02945 -0.00232978 1.91742e-20)
(1.03665 -0.0118393 -6.1329e-20)
(1.03245 -0.00175711 -1.62195e-20)
(1.06152 0.0460965 -5.60472e-20)
(1.09186 0.109868 -1.08527e-19)
(1.03352 -0.0011567 -1.18227e-20)
(1.04523 -0.00568562 4.87231e-21)
(0.915703 -0.00105378 -2.09242e-20)
(1.07765 -0.0657505 -8.67929e-21)
(1.07319 -0.0713528 2.31888e-20)
(1.03203 -0.000772759 -2.07848e-20)
(1.06892 -0.0118284 -3.04108e-20)
(0.130632 -0.00440522 -3.43624e-20)
(1.17443 0.0532021 4.73601e-20)
(1.03155 -0.00166936 -2.95478e-20)
(1.07878 0.0218428 -2.38345e-20)
(1.03248 -0.00574049 3.61064e-20)
(0.589387 0.0304919 1.45068e-19)
(1.02207 -0.00310991 -4.65111e-20)
(1.03181 -0.017475 1.6425e-20)
(1.04869 -0.0230033 -1.70714e-21)
(1.03099 -0.018064 6.30093e-22)
(1.03342 -0.0134554 6.34945e-20)
(1.02791 -0.00307812 -1.139e-20)
(1.03334 -0.0091704 -5.46606e-20)
(1.03496 -0.0039637 -1.29999e-20)
(1.07796 -0.00552585 1.35606e-20)
(1.03022 -0.00115601 -2.60746e-20)
(1.21064 -0.0550021 1.66431e-20)
(1.16574 0.0174347 2.00126e-20)
(1.05984 0.100607 6.78798e-20)
(1.00011 -0.0144234 -6.18289e-20)
(1.11463 0.10183 -3.18833e-20)
(1.03373 -0.000361676 3.27088e-20)
(1.09819 -0.0514787 -1.19079e-21)
(1.03904 -0.0261767 3.67889e-20)
(1.03117 0.0533702 5.68774e-20)
(1.03099 -0.00318064 -3.2141e-20)
(1.03177 -0.00116889 1.94384e-20)
(1.02566 -0.0111897 -6.29542e-20)
(1.03174 -0.00604522 1.84564e-20)
(1.06584 -0.0103452 5.02676e-20)
(0.860348 -0.00107347 4.97258e-20)
(0.991834 -0.00287236 -1.67707e-20)
(1.1423 -0.00939132 1.57832e-20)
(0.826875 0.0020873 3.98258e-20)
(1.04688 -0.0246002 -3.39754e-20)
(1.0285 -0.0630736 -3e-20)
(1.02999 -0.00141885 8.71935e-22)
(1.07805 0.00151364 5.82541e-20)
(1.02979 -0.0556087 9.11966e-20)
(1.12015 0.092099 3.5279e-20)
(1.1197 -0.0448553 4.13578e-20)
(1.05168 0.0120378 6.4305e-21)
(1.06295 -0.0809407 6.21306e-20)
(1.06913 0.104804 2.02142e-20)
(1.06211 -0.0205289 4.57078e-20)
(0.927213 -0.00393887 4.3581e-20)
(1.04766 -0.0324174 5.24628e-20)
(0.293661 0.0266858 3.70302e-20)
(1.17877 -0.0634996 -1.63676e-20)
(1.01386 -0.00319811 1.44239e-20)
(1.0666 -0.105654 3.63929e-21)
(1.05951 -0.0480735 -4.39559e-20)
(1.08022 -0.0943003 2.25815e-21)
(1.07473 -0.059781 3.5307e-20)
(1.09332 0.071793 6.30639e-20)
(1.03155 -0.00125275 -9.75942e-22)
(1.01503 0.06507 1.99461e-20)
(1.03814 -0.000893557 1.45949e-20)
(1.03274 -0.00186443 2.85595e-20)
(1.03327 -0.0017255 -8.33732e-20)
(1.07547 0.015179 -1.21357e-20)
(0.0771451 0.00518853 8.05221e-22)
(1.03485 -0.00409892 1.8703e-20)
(1.05099 -0.0368345 -9.46427e-21)
(1.03385 0.0360998 -3.88856e-20)
(1.03016 -0.000868232 -8.85988e-22)
(1.00782 -0.00329014 -4.2922e-20)
(1.04651 -0.00345746 3.91587e-20)
(1.09679 -0.0199342 5.77996e-20)
(1.03807 -0.000669656 7.63828e-20)
(1.03326 -0.00202122 -1.15922e-20)
(1.02327 -0.0278788 1.76655e-22)
(1.03294 -0.00554491 1.86866e-20)
(1.02975 0.000756461 1.03206e-20)
(1.01869 -0.0336016 8.64563e-20)
(1.07233 0.0851296 -1.42136e-20)
(1.04936 -0.0192104 -6.73798e-21)
(0.965364 0.000259066 3.87238e-20)
(1.03451 5.14156e-05 -1.23625e-20)
(1.03784 0.0382566 5.16987e-20)
(1.03317 -0.0021272 1.11475e-20)
(1.03397 -0.00149573 2.49083e-21)
(1.03182 -0.00221356 1.92246e-20)
(1.03331 -0.00181073 3.36212e-20)
(1.16501 0.0687194 3.66101e-20)
(1.05661 -0.0215873 1.09578e-19)
(1.03947 -0.0113868 2.67477e-20)
(1.01092 -0.00334279 1.72768e-20)
(1.03098 -0.000690897 1.02441e-20)
(1.11075 -0.0976238 -4.83749e-20)
(1.20587 0.0150218 9.90168e-22)
(1.11769 -0.106125 2.19525e-20)
(1.033 -0.0228515 2.51252e-20)
(1.04142 -0.00489076 6.05656e-20)
(1.0306 -0.00332372 -1.27454e-20)
(1.02752 -0.00676292 2.83093e-20)
(1.00357 -0.033784 3.90264e-20)
(1.16523 0.0538799 1.44105e-22)
(1.03376 0.095279 -1.44777e-21)
(1.033 -0.00253713 -1.94271e-20)
(0.971695 -0.0227706 -1.98377e-20)
(1.03139 -0.00285061 4.41189e-20)
(1.05994 -0.0185913 -1.7958e-20)
(1.10311 0.0696098 7.38257e-21)
(1.03365 -0.000698955 -3.38514e-20)
(1.0322 -0.00255313 7.85322e-21)
(1.14039 0.103149 8.38697e-21)
(1.16277 0.0377202 -1.10375e-20)
(1.04573 -0.00839637 2.02975e-20)
(1.03141 -0.00154838 -3.25825e-20)
(0.942255 -0.00595092 4.42254e-21)
(1.00927 -0.0348422 -9.83183e-21)
(1.03215 -0.00215996 2.34353e-20)
(1.04799 -0.0208584 6.30051e-20)
(0.563777 -0.00257547 -8.96328e-20)
(1.00123 0.0213553 -1.9797e-20)
(1.07546 0.0880604 -6.90404e-21)
(1.09289 -0.046894 -2.52481e-20)
(1.03335 -0.055941 -3.2194e-20)
(1.03632 -0.0016329 4.74437e-20)
(1.04446 -0.0149017 -5.59733e-20)
(1.15728 0.0226123 5.48845e-20)
(1.03316 -0.0633875 1.82429e-20)
(1.04994 -0.0307302 -3.19984e-20)
(1.02931 -0.000753321 -1.11139e-21)
(1.14734 0.00840985 4.72778e-20)
(0.510844 -0.0060451 -4.8134e-21)
(1.03246 -0.0717827 -3.31493e-20)
(1.04862 -0.0174003 -8.71049e-20)
(0.900711 -0.00921343 7.42254e-21)
(1.03221 -0.0021255 9.32406e-21)
(1.02965 -0.000924308 1.54084e-20)
(1.05557 0.0536765 5.79309e-20)
(0.961377 -0.00453485 1.73002e-20)
(1.03437 0.00247805 -1.94039e-21)
(0.89038 -0.00363535 3.52775e-20)
(1.17387 -0.0506236 6.03075e-20)
(1.01957 -0.000959667 -3.82932e-20)
(1.05338 -0.0348915 1.28913e-20)
(1.03134 -0.00163656 1.45835e-21)
(1.03783 -0.00839041 4.0035e-21)
(1.03173 -0.0887821 -1.62237e-20)
(1.08656 -0.0483085 1.89914e-20)
(1.03132 -0.00149352 1.19887e-20)
(1.02996 0.000437159 -6.18205e-21)
(1.03243 0.00268739 1.86236e-21)
(1.04519 -0.0536764 -6.91813e-21)
(1.00349 0.0315365 -1.75359e-21)
(1.08213 0.0992356 8.19889e-22)
(1.13676 -0.00242472 -2.04905e-20)