/*--------------------------------*- C++ -*----------------------------------*\
  =========                 |
  \\      /  F ield         | OpenFOAM: The Open Source CFD Toolbox
   \\    /   O peration     | Website:  https://openfoam.org
    \\  /    A nd           | Version:  7
     \\/     M anipulation  |
\*---------------------------------------------------------------------------*/
FoamFile
{
    version     2.0;
    format      ascii;
    class       volVectorField;
    location    "30.5";
    object      U;
}
// * * * * * * * * * * * * * * * * * * * * * * * * * * * * * * * * * * * * * //

dimensions      [0 1 -1 0 0 0 0];

internalField   nonuniform List<vector> 
20933
(
(0.99766 -0.000232885 1.06026e-23)
(0.990465 -0.000733931 7.33928e-23)
(1.02881 -0.00387621 -1.82034e-23)
(1.00028 -4.99898e-05 -1.97016e-24)
(1.00068 -0.00970911 6.28533e-23)
(1.0003 -0.010316 -6.16012e-23)
(1.05104 -0.184513 -8.25457e-22)
(1.10773 0.0741806 -1.3448e-20)
(1.00808 -0.0911778 -2.00537e-21)
(1.11348 0.0752232 9.65073e-21)
(1.0628 -0.16463 -2.43917e-21)
(1.21384 0.131022 -4.04622e-22)
(0.984769 -0.0585554 -3.03343e-22)
(0.997494 -0.000278271 -1.00171e-23)
(0.995525 -0.00344196 3.9329e-23)
(1.00027 -6.14451e-05 -1.74673e-24)
(1.29273 -0.0102301 -7.01762e-22)
(1.12247 0.00197008 -7.03777e-21)
(1.00797 -0.138924 -1.40261e-21)
(0.992609 -0.000351042 -6.3785e-23)
(1.02227 -0.104817 2.67164e-21)
(1.20943 0.130341 -7.52009e-22)
(1.11591 0.0816325 -7.259e-21)
(1.16107 -0.202686 -1.65621e-21)
(1.02676 -0.00178506 4.31832e-24)
(0.991516 0.0888855 -2.23113e-20)
(1.00985 -0.00289136 1.35246e-23)
(0.994254 -0.0632374 1.01123e-21)
(1.21551 -0.183089 -1.54994e-21)
(1.01106 -0.14033 4.94006e-21)
(0.998628 -0.00228317 -7.11355e-25)
(0.945529 0.0147142 3.45087e-20)
(1.14934 0.124709 5.73051e-21)
(0.991475 -0.0362712 1.06751e-22)
(1.00003 -0.00172411 6.49598e-24)
(0.998686 -0.00247086 -2.07713e-24)
(1.09978 0.0937244 -1.46799e-20)
(0.999932 -3.75094e-06 -3.17169e-24)
(1.01625 -0.0211957 7.50662e-23)
(1.13359 0.00399723 -2.36699e-21)
(1.04512 -0.00892079 3.52393e-23)
(1.11468 0.151441 1.0329e-20)
(1.03505 0.046168 -6.32808e-21)
(1.00877 -0.00335436 -1.12305e-23)
(0.991277 0.085348 8.83478e-21)
(0.979253 -0.00149493 3.12409e-23)
(1.10278 0.0112117 -2.05246e-20)
(1.26542 0.070446 -1.30402e-21)
(0.999618 -0.000100351 -2.54709e-24)
(0.971047 -0.0511836 1.36131e-22)
(0.999928 -0.00183388 -1.60223e-23)
(1.08308 -0.0094317 1.31448e-21)
(1.21365 -0.112831 4.17318e-21)
(1.00033 -0.00412566 -2.32987e-23)
(1.25499 -0.110963 -1.07273e-21)
(0.947105 -0.018792 -8.38586e-23)
(0.976752 -0.0337534 3.98424e-23)
(0.998477 -0.00298035 6.20154e-25)
(1.01144 -0.0526173 -1.20913e-21)
(1.28825 -0.00601899 6.07951e-22)
(0.973686 0.0303278 1.86824e-20)
(0.969579 -0.00432138 1.48954e-22)
(0.988886 -0.00332646 -4.20074e-23)
(1.12743 0.0745693 -6.18282e-22)
(0.999458 -8.10989e-05 1.64861e-23)
(0.995143 -0.0086239 3.27191e-24)
(0.994461 0.0613254 5.67832e-22)
(0.994566 -0.00900007 3.84094e-23)
(1.13609 -0.0793532 -3.27938e-22)
(0.997647 0.0904466 8.33162e-21)
(1.04532 -0.0462917 -2.46179e-22)
(1.30095 -0.0420835 -1.51676e-21)
(0.995939 -0.00345898 -1.09754e-23)
(0.98263 -0.0425219 9.05198e-22)
(0.999755 0.00904764 -8.34532e-21)
(1.08629 -0.0922255 9.72037e-22)
(0.998016 0.0845067 3.8595e-21)
(0.960917 -0.0049755 6.40248e-23)
(1.13132 0.00260164 1.51027e-21)
(1.00303 0.0331009 1.21851e-20)
(0.996096 -0.00899583 1.21546e-22)
(1.00234 -0.00489643 -2.31512e-23)
(1.19558 -0.187698 1.24299e-21)
(1.00905 -0.0881733 1.67043e-21)
(0.972831 -0.00341593 -1.6364e-22)
(1.0326 0.0435123 3.04984e-20)
(0.98784 -0.0545091 -5.51797e-22)
(0.897971 0.0525551 3.25776e-21)
(1.12345 0.0697303 -5.83985e-21)
(0.976723 0.0897689 1.41871e-20)
(1.11709 0.0285698 -7.84974e-21)
(1.00034 -7.85417e-05 1.86212e-24)
(1.00004 -0.000336349 7.39338e-24)
(0.954951 0.0046597 -9.62864e-21)
(1.27107 0.0648053 6.57787e-22)
(0.989262 -0.0035155 -1.54222e-23)
(0.963673 0.00300407 1.47628e-20)
(0.999353 -0.00490828 1.77694e-23)
(1.06716 -0.158581 -1.06145e-21)
(1.07443 0.0160441 -8.04817e-21)
(0.973379 0.0921769 -4.20181e-20)
(0.974478 -0.0108787 2.44252e-23)
(0.964328 0.0841664 -4.595e-20)
(1.1974 -0.103498 4.11926e-21)
(1.11039 -0.0031651 -3.90644e-21)
(1.1149 -0.0874946 7.01049e-22)
(1.02315 0.101239 1.56724e-20)
(1.18154 -0.0858015 8.72523e-22)
(0.990286 -0.000420294 5.11611e-23)
(1.04053 0.115387 3.53198e-21)
(1.22425 -0.185678 -5.21112e-21)
(1.04518 -0.184351 -1.86249e-21)
(0.975936 -0.0262508 3.05204e-22)
(1.03718 -0.0239432 -1.49274e-23)
(1.08788 -0.0849165 3.10147e-22)
(1.00007 -0.000113951 -2.00592e-24)
(1.05103 0.0748571 1.49217e-20)
(0.996703 -0.00841844 -4.72982e-23)
(1.1907 -0.117081 9.41524e-22)
(1.00259 0.0249076 -2.87321e-20)
(1.00034 -5.85032e-05 3.54606e-25)
(1.03597 -0.108641 1.72581e-21)
(1.15116 0.023163 -3.18377e-21)
(1.0126 -0.0603275 -1.67377e-21)
(0.991342 -0.034374 -8.70123e-23)
(1.12357 0.00409516 3.62062e-21)
(1.18044 0.137587 -1.30314e-20)
(0.993929 -0.0608228 8.17758e-22)
(0.939064 0.0175075 -1.00666e-20)
(1.04662 0.0771189 7.99609e-21)
(0.989873 -0.0704337 -8.17865e-22)
(0.970641 -0.0491548 -4.49488e-22)
(1.04524 -0.00462752 1.21105e-22)
(1.01529 -0.0195121 -2.98328e-23)
(1.01809 0.0949365 -2.13268e-20)
(1.10669 -0.00592762 -9.8618e-22)
(1.24231 0.0853728 -2.28616e-21)
(1.02592 -0.105304 -1.12491e-21)
(0.979631 -0.01114 2.4629e-22)
(0.992935 -0.0938584 3.67909e-21)
(1.03176 -0.11232 2.94534e-22)
(0.980897 -0.0439887 -8.93993e-22)
(1.30223 -0.0540527 -1.49991e-21)
(0.960697 0.0920474 -1.45179e-20)
(1.21963 0.000140719 9.27022e-22)
(1.01702 0.0977562 1.92875e-20)
(1.15449 0.152848 -1.45999e-21)
(0.967651 -0.0114157 -1.68908e-22)
(1.18795 0.128601 -9.12767e-21)
(1.01114 -0.00386672 -2.65888e-23)
(0.967672 -0.0103659 3.2905e-22)
(0.999314 0.0887552 9.73471e-22)
(1.00005 -0.00029196 -4.73641e-24)
(1.00697 -0.0815177 6.3257e-22)
(1.00228 -0.00440173 4.01253e-23)
(1.1508 0.155983 7.91047e-21)
(1.0284 0.0453691 -3.25074e-21)
(1.15544 -0.199196 7.64596e-21)
(0.942019 -0.0221082 1.97335e-22)
(0.983822 -0.0600348 6.35534e-22)
(1.26226 -0.119851 1.53504e-21)
(1.05547 -0.177755 1.27158e-21)
(0.998432 -0.00274562 -2.62159e-24)
(1.21654 0.00554582 -1.62678e-21)
(1.12525 -0.00271712 -6.46979e-22)
(0.90025 0.0548583 7.75983e-21)
(0.975636 -0.0110776 1.51205e-22)
(1.1886 -0.196341 4.74893e-22)
(1.0814 -0.0946204 -1.1169e-21)
(1.10068 0.0897516 -8.66285e-21)
(1.24713 0.0852089 7.61938e-22)
(0.986831 0.0678425 8.72163e-21)
(1.06225 0.135131 2.38523e-20)
(0.988396 -0.0315202 1.74001e-23)
(0.920519 0.0142378 -1.15371e-20)
(1.15408 0.126001 6.85459e-21)
(0.996846 -0.00061871 -1.12472e-23)
(0.991109 0.006647 -2.19621e-20)
(1.09461 -0.082693 -7.25821e-23)
(1.03337 0.119761 6.79664e-21)
(1.01226 0.103631 -9.77745e-21)
(0.999896 -2.6283e-06 3.87433e-24)
(0.959318 0.0636605 6.18166e-22)
(1.06013 0.117679 2.03654e-20)
(0.992026 -0.000590029 5.04846e-24)
(0.94271 -0.0153323 9.66281e-22)
(1.04471 -0.0431852 2.01407e-22)
(1.08088 0.0123625 -2.0657e-21)
(1.19128 -0.109974 -1.49622e-21)
(0.929384 0.0470743 1.02649e-20)
(1.17843 0.133441 -4.50033e-21)
(1.26213 -0.0306346 -1.28235e-22)
(1.06977 0.0120477 1.6153e-20)
(1.13425 -0.0724831 2.90086e-22)
(0.942337 -0.0232906 5.18511e-22)
(1.21412 0.0997619 -5.32936e-21)
(0.960109 0.0671831 -6.83099e-22)
(1.26564 0.0302567 -1.22282e-21)
(0.993893 -0.000227486 -6.91742e-24)
(0.925615 0.046396 -1.00346e-20)
(1.2362 0.0585289 -5.46619e-21)
(1.26688 -0.0827331 1.25807e-21)
(1.21132 -0.105559 -3.59116e-21)
(0.935761 0.0545459 -1.23866e-20)
(0.952075 0.0581378 2.89832e-20)
(0.961613 -0.0267617 -2.46107e-22)
(1.00057 -0.0445622 -9.54001e-23)
(1.08298 -0.00557917 -1.77224e-22)
(0.946866 -0.0204639 -4.94801e-22)
(0.998855 -0.000107708 2.62596e-23)
(0.995966 0.0629811 -4.14969e-21)
(0.988487 0.0223492 -7.91248e-21)
(0.966189 -0.0147351 3.4214e-22)
(0.951675 -0.0373317 3.66501e-22)
(1.03538 0.116401 1.04539e-20)
(0.999175 0.0163342 1.26384e-20)
(0.99888 -5.36812e-05 -7.23209e-23)
(1.00146 0.019162 -1.94838e-20)
(1.18585 -0.079725 3.80588e-22)
(1.01643 -0.0171569 1.1185e-22)
(1.00597 -0.0652679 1.05703e-22)
(1.03214 0.0711381 -1.62566e-21)
(0.951107 0.101866 1.35724e-20)
(1.11387 0.0256821 1.03783e-20)
(1.04189 0.110666 -1.70727e-20)
(0.978418 -0.0110627 -4.20108e-22)
(1.00293 -0.0439545 -4.60613e-22)
(1.00011 -0.000120687 9.11911e-26)
(0.999228 -3.73058e-05 1.60558e-23)
(1.00053 -0.00810376 1.22476e-22)
(1.14907 0.0201361 1.49138e-21)
(1.15367 -0.123819 -9.13341e-22)
(1.02524 0.0984046 -1.99731e-20)
(1.00299 -0.110004 9.72084e-22)
(1.02259 0.0369567 1.17686e-20)
(0.98941 -0.0525155 -9.70165e-23)
(1.1078 -0.0840578 -5.37251e-22)
(0.98927 0.0665667 1.55775e-20)
(0.957506 0.00368263 4.98441e-20)
(1.03327 0.0674528 2.78792e-20)
(1.00057 0.0820226 -2.37822e-20)
(0.949927 -0.0364689 -3.21561e-22)
(1.10863 0.135875 -6.28896e-21)
(1.01363 -0.0583782 1.83082e-21)
(1.11417 -0.00498919 8.143e-21)
(0.996529 -0.00756802 -8.06409e-23)
(1.29363 -0.0944763 -4.44645e-21)
(1.1892 -0.0504603 1.18578e-21)
(1.09201 -0.0276324 1.9839e-21)
(0.999652 -7.6732e-05 3.06396e-24)
(0.988586 -0.000583963 -4.3031e-23)
(0.946973 0.103864 -2.08712e-20)
(1.17666 0.0509868 2.1544e-20)
(1.01561 -0.0228259 -1.52751e-22)
(0.967525 -0.055626 -8.92094e-22)
(1.14708 -0.119382 3.1243e-22)
(1.09363 -0.192906 3.34345e-21)
(1.10991 0.150519 -1.31021e-21)
(0.994192 -0.0926985 -1.04398e-21)
(0.975314 -0.00182005 -8.90614e-23)
(0.997116 -0.0720619 1.19055e-21)
(0.992269 -0.0303796 -1.11096e-22)
(0.999421 -6.04835e-05 -8.76229e-25)
(0.988317 -0.0500495 5.02021e-22)
(1.05997 -0.177417 -5.90399e-22)
(0.959985 0.0882523 2.7405e-20)
(1.28132 0.036081 3.32438e-22)
(0.977804 -0.0250342 -5.52944e-22)
(1.0201 0.0387264 -1.81672e-20)
(0.953638 0.0626694 -3.44771e-21)
(0.988599 -0.0567254 1.0456e-22)
(1.00066 -0.000286251 -1.18089e-23)
(1.00618 -0.084839 -1.13879e-21)
(0.994883 0.0578635 4.7988e-21)
(1.27719 -0.137535 -2.6814e-21)
(0.975982 0.0280829 -2.81751e-20)
(1.00003 -0.000128714 9.50974e-25)
(0.95361 -0.0412669 6.75171e-22)
(1.04985 0.135185 1.91601e-21)
(0.999417 0.0154355 2.56908e-20)
(1.03556 -0.0805702 -3.13284e-22)
(0.978295 -0.0321967 3.85802e-22)
(0.933322 0.0928127 2.22678e-20)
(1.25801 -0.0669092 2.58829e-22)
(1.25541 -0.035349 2.16414e-22)
(0.968347 0.0855122 1.89467e-20)
(0.930945 0.0536124 -2.09709e-21)
(0.987149 -0.0587049 -3.31933e-22)
(1.04816 0.138043 -1.24564e-20)
(1.1575 -0.00612391 -3.74596e-21)
(1.00452 0.0344417 -3.32852e-20)
(1.06641 0.0822629 9.05924e-21)
(1.00069 -0.000209749 1.48916e-23)
(1.28792 0.0388622 -1.14549e-22)
(1.0938 0.0864286 5.25359e-21)
(0.996787 -0.000530205 -2.82985e-23)
(1.00165 -0.116252 -4.02112e-22)
(1.25131 0.0338672 -8.33363e-22)
(1.17292 -0.189548 -1.36874e-21)
(1.2344 0.0522765 3.16737e-21)
(1.19276 -0.0289466 -9.56574e-22)
(1.0001 -0.000195691 -1.67404e-24)
(0.999483 -0.00344414 4.65314e-23)
(0.977939 0.102203 -3.3557e-20)
(1.00124 -0.0147 -2.53825e-23)
(1.0158 -0.139052 -1.18772e-21)
(0.990935 -0.0761827 1.16212e-22)
(1.20641 0.12517 -4.6903e-21)
(0.971961 -0.00418503 -2.88892e-23)
(1.03468 0.122835 1.20139e-20)
(1.20783 0.0202508 4.1699e-21)
(0.994427 -0.0727013 6.8724e-22)
(0.958069 -0.00606755 -1.68214e-22)
(1.10562 0.0858763 9.4532e-22)
(1.20318 0.0970624 3.95691e-21)
(1.00006 -0.00019992 -1.55047e-24)
(0.975121 0.0630539 2.79767e-20)
(1.04584 0.0810169 4.01649e-21)
(0.993152 0.0143293 -6.82706e-21)
(1.25703 -0.100277 -1.45154e-21)
(0.999505 -5.7699e-05 -1.31604e-23)
(0.934784 0.089132 -1.46341e-21)
(0.996768 -0.00516985 -5.94095e-23)
(0.993066 -0.0554929 2.17243e-22)
(1.20993 0.0951636 -1.67281e-21)
(1.2579 0.0275936 1.56541e-22)
(0.98 -0.0589958 -7.62063e-22)
(1.25827 -0.0776222 1.78635e-21)
(1.02586 0.0431857 4.6967e-21)
(0.956568 0.00451941 1.8125e-20)
(1.00971 0.0938248 -2.53366e-20)
(1.18038 0.0258192 -6.1264e-21)
(0.910534 0.0192349 2.48925e-21)
(1.0003 -9.95982e-06 -1.21936e-24)
(0.98995 -0.0298564 -1.17628e-22)
(0.999899 0.00861056 3.39447e-20)
(1.22056 -0.153228 5.40799e-22)
(1.09305 0.0824329 -1.24049e-20)
(0.984944 -0.0430604 -3.70932e-22)
(0.994066 0.0832797 2.37199e-20)
(1.19315 0.000922436 2.73676e-21)
(1.00008 -0.00376678 3.00709e-23)
(1.18837 -0.00416034 -2.37643e-21)
(1.05121 0.0696026 -1.92284e-20)
(1.18135 -0.166601 -1.8655e-23)
(0.974008 0.00672333 -5.10996e-21)
(1.06651 0.122926 2.84811e-21)
(0.999326 -0.000302815 -1.82652e-25)
(1.03929 -0.0216357 -2.07952e-22)
(1.1394 0.105096 6.16615e-21)
(1.12071 0.00116482 1.3559e-20)
(0.998333 -8.54947e-05 7.76111e-23)
(1.0631 0.131419 -2.12881e-20)
(1.01395 -0.0517606 -1.49401e-22)
(0.889567 0.0531033 -1.30564e-21)
(1.02734 -0.110816 -2.18944e-21)
(0.965949 -0.0132754 1.29749e-22)
(0.989216 -0.00068634 -1.66668e-23)
(1.01086 0.0972562 2.82415e-20)
(1.06003 0.114685 -3.23156e-20)
(0.976192 -0.00260753 5.77019e-23)
(1.10365 0.0792662 3.31144e-21)
(0.976449 0.0854205 -8.1864e-21)
(1.00132 -0.0157788 -3.94404e-23)
(1.04799 0.00657672 4.72948e-21)
(1.02436 0.0184528 -1.32436e-20)
(0.898288 0.0294166 1.6455e-20)
(0.997212 -0.00431344 1.72997e-23)
(1.18385 0.104596 -9.77802e-21)
(1.18399 -0.0562665 -2.12537e-22)
(0.945882 -0.0182977 -1.74072e-22)
(0.999667 -5.65376e-05 -2.59552e-24)
(0.999799 0.00476429 2.04769e-20)
(1.1166 0.155062 6.04034e-21)
(1.26205 0.00396657 -1.17179e-21)
(0.986985 0.102358 -8.59249e-21)
(1.17509 0.0291566 2.98782e-21)
(0.974845 -0.033279 2.77794e-22)
(1.11191 0.131273 -4.68962e-21)
(1.12409 -0.00152976 -2.16716e-21)
(1.17037 0.0472345 6.2825e-21)
(0.901968 0.0317323 -4.30732e-20)
(1.02916 -0.0966729 7.77031e-22)
(1.21894 0.0865902 2.09298e-21)
(0.991548 0.0193335 -1.78951e-20)
(0.966002 -0.0565757 8.04575e-22)
(1.15189 -0.0176824 3.15395e-22)
(1.07502 -0.15833 2.48239e-21)
(1.14207 0.100338 -2.74212e-21)
(0.995016 -0.000172766 4.96166e-24)
(1.10714 0.012351 -2.27506e-21)
(1.26238 0.0120056 6.41894e-22)
(1.22165 0.0810673 4.95088e-21)
(1.00124 -0.00483426 9.25266e-23)
(1.10023 0.00832574 2.17578e-20)
(0.997706 0.0106113 -1.71259e-20)
(1.05324 0.0490538 3.44217e-20)
(1.17238 -0.184503 -5.57479e-21)
(0.993617 -0.0286341 2.47205e-22)
(0.939641 0.0501855 -1.44116e-20)
(0.945688 0.0170254 -3.70274e-20)
(0.997084 -0.00708239 -1.69632e-23)
(0.955522 -0.0403224 3.0126e-22)
(1.01726 0.0713914 3.72346e-21)
(1.02129 -0.145737 -9.76201e-22)
(1.10115 -0.0877738 5.46516e-22)
(1.1082 0.145477 1.95997e-20)
(0.990911 -0.000452581 2.10434e-23)
(0.894984 0.0265689 2.80749e-20)
(1.03711 -0.0718127 -8.46307e-23)
(1.17338 0.112458 3.31185e-21)
(0.989978 -0.0101658 1.99936e-23)
(0.996245 0.010804 -7.30425e-21)
(1.07024 0.119869 -5.9196e-21)
(1.09206 -0.0216584 -2.17039e-21)
(1.11633 -0.0942745 -4.13786e-22)
(1.26272 -0.0235373 4.47003e-22)
(1.23353 0.0634085 5.48329e-22)
(0.999516 -0.00533741 7.77602e-25)
(1.01407 0.0590071 -6.85982e-21)
(1.30688 -0.0350849 3.23489e-21)
(1.11763 0.0695187 1.43336e-20)
(0.89122 0.0560575 4.31336e-20)
(1.26703 -0.0943866 1.06403e-21)
(1.07676 -0.0814593 -1.07091e-21)
(1.00017 -0.00880868 -1.23184e-22)
(1.2656 0.0777376 3.06221e-21)
(1.27241 0.0244656 5.19563e-22)
(0.974362 -0.0255431 9.25361e-22)
(1.09081 0.134153 -1.92675e-21)
(1.00002 -0.00139504 -2.52409e-23)
(0.972463 -0.0452564 -1.56862e-22)
(1.01544 -0.0155876 -1.51917e-22)
(1.24931 -0.0623626 4.41757e-23)
(0.989641 -0.0479954 4.17776e-22)
(0.999616 -0.000131072 6.93236e-25)
(0.988597 -0.0625665 1.30426e-21)
(1.22056 0.0987941 -2.71882e-21)
(1.18322 -0.176039 -2.05253e-21)
(1.05273 -0.0754273 -1.28795e-22)
(0.959955 -0.0274396 -5.17742e-22)
(1.24355 0.031991 -2.99302e-21)
(1.18588 -0.0260055 2.10832e-21)
(0.974082 -0.0586954 -4.05238e-22)
(0.951358 -0.00874697 5.12447e-22)
(1.00091 -0.00505122 -1.50314e-23)
(1.14266 -0.0826246 3.97623e-22)
(1.0345 -0.156536 -1.58295e-22)
(1.01259 -0.00324091 1.78718e-23)
(1.03904 -0.0767703 1.03126e-21)
(1.19841 0.0929255 -6.28483e-21)
(1.05476 0.0454124 -2.09847e-20)
(1.22051 0.0147347 9.0501e-22)
(0.999298 -0.000253501 6.51413e-24)
(0.92647 0.0981104 -3.25655e-20)
(1.01275 -0.00165633 4.60134e-23)
(0.999943 -0.00151066 3.02068e-23)
(1.04245 -0.010717 3.1783e-22)
(0.95975 -0.0407017 -4.93615e-22)
(1.01292 -0.100651 1.26518e-22)
(0.955313 0.0540911 -1.70855e-20)
(1.02644 -0.0590665 8.96364e-23)
(1.15253 -0.0054688 -1.79595e-21)
(1.02794 -0.135423 2.26546e-21)
(1.02466 -0.137942 -2.92683e-21)
(1.11127 0.141328 -1.36279e-20)
(0.995287 -0.0561209 -3.6475e-22)
(0.993402 -0.0883955 5.84798e-22)
(1.00363 -0.114246 9.3799e-22)
(0.999717 -4.02612e-05 5.83542e-24)
(1.1951 -0.0948521 -2.16895e-21)
(0.916548 0.093149 -3.09313e-21)
(1.09581 -0.185904 8.60176e-22)
(0.95741 -0.0517495 -1.08947e-22)
(1.09013 0.12857 -2.53019e-22)
(0.981112 -0.0555334 -8.03721e-23)
(1.06621 0.0774276 -7.53528e-21)
(1.19045 0.131992 -9.48801e-22)
(0.996282 -0.00553133 9.76475e-23)
(0.998721 -0.000156826 -2.1587e-23)
(1.04157 0.0737167 2.36843e-21)
(0.894826 0.0695603 1.40608e-20)
(1.07731 -0.1858 2.20385e-22)
(1.16018 0.145151 1.74791e-21)
(1.23126 0.102791 -7.12859e-21)
(0.96388 -0.0457895 -2.22803e-22)
(0.963863 -0.0481723 -5.31669e-22)
(1.01877 0.0745414 -1.0198e-21)
(1.10713 -0.0109788 1.5133e-21)
(1.19428 -0.178659 4.29534e-21)
(1.07883 -0.150791 -2.02047e-21)
(0.980333 -0.00152723 3.68198e-23)
(1.06633 -0.0156056 8.48807e-22)
(0.942667 0.0264551 -6.42036e-21)
(1.15055 0.0105793 -1.1815e-20)
(1.00028 -9.2233e-05 1.83272e-24)
(0.963021 0.0807958 2.96158e-20)
(1.04011 -0.0682541 -9.76547e-22)
(1.0145 -0.102446 1.64299e-21)
(1.05352 0.133725 -1.12196e-20)
(1.0184 -0.0253091 -1.67032e-22)
(0.989176 -0.00968351 -7.04385e-23)
(0.999338 -0.000450906 1.68266e-24)
(1.17461 -0.0701933 -5.74083e-23)
(0.962287 -0.0207146 -3.61978e-22)
(1.00028 -1.65152e-05 2.08802e-24)
(1.1632 0.147372 -4.2964e-21)
(1.2792 -0.128407 -1.82598e-21)
(1.01199 0.0576048 -1.18603e-20)
(0.999362 -8.71139e-05 -4.34555e-24)
(1.00018 -0.00451456 -1.36874e-23)
(0.97991 -0.0570369 -3.94609e-22)
(0.999999 -0.000112287 1.94443e-25)
(1.07895 -0.191584 -1.12048e-21)
(1.21352 -0.171959 -2.00086e-21)
(0.999584 -0.00451588 9.43629e-24)
(1.0105 -0.0802696 -4.89525e-22)
(0.944024 -0.0151441 2.48392e-22)
(1.05273 0.12118 -1.25084e-21)
(0.984948 0.101028 6.97429e-21)
(0.996738 -0.00469763 1.89179e-23)
(1.00328 -0.00117707 1.5389e-23)
(0.999459 -0.108259 -2.40211e-21)
(0.980903 0.091655 2.23417e-20)
(1.00505 -0.0362051 4.41678e-22)
(0.976796 0.0591506 -7.71518e-22)
(0.980443 -0.0123078 -3.06702e-23)
(0.890352 0.043184 -1.17112e-20)
(1.0418 0.0147703 -2.58069e-21)
(1.14412 0.0656247 -1.42426e-20)
(0.908342 0.0551779 -1.28029e-20)
(1.3034 -0.0232484 8.3026e-23)
(0.990187 -0.00283392 -6.37341e-24)
(1.17587 -0.0558073 2.27953e-22)
(1.00976 -0.03743 -4.81042e-23)
(0.987874 0.0913048 5.64222e-21)
(1.01764 0.0646373 1.6105e-20)
(0.97072 -0.00794874 1.33268e-22)
(1.2859 -0.0904976 4.67474e-21)
(1.13619 -0.0243085 -2.50443e-22)
(1.07388 -0.086372 -8.16558e-22)
(0.996128 -0.000270473 1.92569e-23)
(1.29417 -0.105199 4.39478e-21)
(1.00026 -4.11211e-05 2.99064e-24)
(1.04974 0.117452 7.01823e-21)
(0.943236 -0.0141982 -8.66083e-22)
(0.992249 -0.070236 -2.32217e-22)
(0.995742 -0.0331366 2.56456e-22)
(1.00837 -0.0641264 1.77782e-21)
(1.17016 0.107426 1.01136e-21)
(1.21683 0.020427 -3.35392e-21)
(0.998587 -4.90254e-05 -7.10348e-23)
(1.02956 -0.0566535 -6.9641e-22)
(0.999883 -0.000153437 4.31661e-25)
(0.892645 0.0400475 8.74271e-21)
(0.947525 0.0238459 1.3194e-20)
(0.995263 -0.000989405 1.05348e-23)
(0.970684 -0.0132139 -1.7885e-22)
(1.03821 -0.0413815 -8.09626e-23)
(1.01952 0.0678947 6.92478e-21)
(0.938579 -0.023478 -5.58252e-22)
(1.23371 0.106791 -1.56758e-21)
(0.959752 -0.0529928 1.4697e-22)
(1.00519 0.0932615 -5.05846e-22)
(1.14798 0.0702537 -1.60707e-21)
(0.961136 -0.0226786 -2.65107e-22)
(0.90389 0.0212566 -1.80019e-20)
(1.05831 -0.0027049 -7.48517e-22)
(1.01407 0.0987789 -1.50747e-20)
(0.992011 -0.0148258 1.14294e-23)
(1.03742 -0.166395 4.66044e-21)
(0.979282 0.00404093 -4.27977e-20)
(1.01663 -0.0470528 5.38824e-22)
(0.892201 0.0745085 -6.38227e-21)
(1.02903 0.0791621 8.85181e-22)
(0.906303 0.0238421 -4.30215e-21)
(0.990606 -0.00294618 6.88989e-24)
(0.992988 -0.000508249 -2.91137e-23)
(1.03507 -0.103511 -4.93515e-22)
(1.18731 -0.0424125 -1.8035e-21)
(1.01696 -0.0251128 1.78637e-22)
(1.03352 -0.0933219 -1.66219e-22)
(1.00996 0.0872754 1.36643e-21)
(1.00393 0.100933 4.69177e-21)
(1.04361 0.00281024 4.1747e-24)
(0.984082 0.0894879 -1.59702e-20)
(0.899549 0.080267 3.49396e-21)
(1.14645 0.120235 1.12684e-20)
(0.999208 0.0052591 -2.93349e-20)
(1.04938 0.0382234 -6.63952e-21)
(1.00571 -0.0190491 -3.11333e-22)
(1.03822 0.0757457 -7.81099e-22)
(0.991582 -0.0878243 -5.04412e-22)
(0.961659 -0.0517032 3.85398e-22)
(0.998648 -0.00126421 6.70562e-25)
(1.06657 -0.0867761 1.92702e-21)
(1.13759 -0.163266 -6.03264e-22)
(1.08974 0.0449478 5.46595e-21)
(1.0946 -0.0101684 2.73312e-21)
(1.00225 0.0286848 2.39607e-21)
(1.0108 -0.0549393 1.11275e-21)
(1.13883 -0.0144225 1.61157e-21)
(1.00333 0.0222693 -2.78968e-21)
(1.01114 -0.0392317 6.46813e-22)
(1.11263 -0.0991687 9.67698e-22)
(0.999914 -0.00018086 1.15217e-26)
(1.00047 -0.000238104 2.52081e-24)
(1.08846 0.0405396 -3.60611e-23)
(0.993407 -0.0756656 -6.71785e-22)
(0.968306 -0.048204 6.16361e-22)
(1.00052 -0.000227188 -3.76251e-24)
(1.00004 -0.00312051 1.88044e-23)
(1.13549 -0.0288685 -4.24823e-22)
(0.999517 -5.88879e-05 7.65045e-24)
(1.26938 0.0562362 -1.9808e-22)
(0.895847 0.0320812 2.26616e-20)
(1.15461 0.147885 6.65119e-22)
(1.12596 0.0801618 -4.56918e-22)
(0.967204 -0.00769737 -1.95467e-22)
(1.03092 0.105176 5.47182e-21)
(1.25877 0.0827779 -1.75925e-21)
(1.00559 -0.0337195 -2.64873e-23)
(0.971068 -0.0148615 -1.81199e-22)
(0.997213 -0.00398337 1.59969e-26)
(0.999285 -0.000396458 -1.81175e-24)
(1.00192 -0.00515339 -3.53495e-23)
(0.996476 -0.0352333 2.19072e-22)
(1.05568 -0.164203 2.61497e-21)
(1.10925 0.0989528 1.68872e-20)
(1.21578 -0.0399943 9.35544e-23)
(0.96635 -0.00348093 5.30551e-23)
(0.999892 -0.000118677 2.12668e-25)
(1.00065 0.0577367 1.60033e-20)
(1.28063 -0.00679774 9.04018e-22)
(1.29329 -0.0612961 1.06204e-21)
(1.01935 -0.0483612 -6.0268e-22)
(1.23782 0.0823989 2.95549e-21)
(1.06459 -0.0902253 -5.49123e-22)
(0.98498 -0.00083078 -4.15792e-23)
(1.00193 0.0172424 1.40068e-20)
(0.980758 0.000740787 -5.52152e-20)
(1.07383 0.146511 -1.45583e-20)
(0.990944 -0.000373786 -8.30461e-24)
(1.07079 0.145695 1.13189e-20)
(0.969086 -0.00543002 6.55009e-23)
(0.984264 -0.0518067 -5.04761e-22)
(1.1384 0.140272 -1.27745e-20)
(1.00026 -0.000113372 3.36493e-24)
(0.988811 -0.0334603 -5.97668e-23)
(1.18298 0.109657 3.37855e-21)
(1.14196 0.109733 1.29278e-20)
(0.962346 -0.0246639 -5.86999e-23)
(1.02369 0.0680732 1.05934e-21)
(0.954994 0.104694 -1.41122e-21)
(1.01564 0.0330978 -3.22361e-20)
(0.957647 -0.0417501 7.77793e-22)
(0.952454 -0.00866812 -2.65424e-22)
(1.05661 -0.0712328 -2.12814e-22)
(1.12794 -0.00200249 3.51296e-22)
(1.02283 0.0152689 -7.84315e-21)
(0.995254 -0.00138487 1.03955e-24)
(0.975793 0.00965953 -1.60326e-20)
(0.992263 -0.0529241 1.17841e-21)
(1.04304 -0.165737 -3.17656e-21)
(1.1713 -0.0497802 4.59283e-22)
(0.922797 0.0999455 4.62923e-20)
(1.11097 0.104774 -1.39466e-20)
(1.01433 0.0648606 -1.69299e-20)
(1.22272 -0.163722 9.96038e-22)
(0.965184 0.00220225 -2.46006e-20)
(0.964274 -0.0204688 3.61362e-22)
(0.985808 -0.0498034 3.66153e-22)
(0.926917 0.0109473 8.61565e-21)
(1.08853 -0.0304811 -6.18313e-22)
(1.05505 -0.151889 -4.4907e-22)
(1.01578 0.0913085 -3.467e-21)
(1.00359 0.0895371 -1.0669e-20)
(0.974424 -0.0436918 -5.57944e-22)
(1.02815 0.0199687 -1.77341e-20)
(0.981294 0.0955971 -2.96594e-21)
(1.00461 0.0829581 1.39341e-20)
(1.04243 0.123892 4.51929e-21)
(1.01175 0.0912675 2.24416e-20)
(1.06201 0.0849358 -1.1803e-20)
(0.98645 -0.00359651 4.7448e-23)
(0.965352 -0.0223271 4.53435e-22)
(1.00297 -0.00832629 -1.91781e-23)
(1.01808 -0.136277 3.26624e-21)
(0.993932 0.0203698 -4.13341e-21)
(1.02509 -0.143974 1.91071e-21)
(1.20159 0.103789 -3.09436e-22)
(1.16981 0.060746 -8.12366e-21)
(0.96923 -0.0561375 4.42889e-22)
(1.26237 0.0538027 2.57215e-23)
(1.1907 0.123471 -3.20225e-21)
(0.993259 0.00793886 -1.2652e-21)
(1.25329 0.0425865 1.13834e-21)
(0.999614 -0.00377069 -5.1991e-24)
(1.07016 -0.0151519 6.00463e-23)
(0.983658 -0.0560073 2.45139e-22)
(1.26677 -0.0607242 1.11852e-22)
(1.28446 -0.0573402 -2.19575e-21)
(1.0299 -0.152906 6.19261e-22)
(1.04367 0.118921 2.55939e-21)
(0.971112 0.102976 2.36865e-20)
(1.19974 -0.0236178 1.34189e-21)
(0.997472 0.00650201 1.29878e-20)
(0.893917 0.0650105 -1.56896e-20)
(0.998686 -9.54197e-05 1.90683e-23)
(1.00364 -0.00120198 -3.90135e-25)
(0.996309 -0.00612076 -4.33415e-23)
(0.971396 -0.00843674 3.9213e-23)
(1.08994 0.0939759 -9.11241e-21)
(0.926635 0.0124717 -1.86991e-20)
(1.15267 0.0145292 1.01918e-20)
(1.0326 0.112702 3.29348e-21)
(0.979782 -0.0260676 -2.90198e-22)
(1.08133 0.135054 1.91887e-20)
(1.07751 0.142905 6.13451e-21)
(1.27235 -0.119387 6.6989e-22)
(0.956337 -0.0123945 3.02251e-22)
(0.940209 -0.0220832 3.54071e-22)
(1.20598 0.108044 7.95164e-22)
(1.01433 -0.0482348 2.3093e-22)
(1.21383 -0.0345761 3.78296e-22)
(0.966001 -0.0445135 1.20057e-22)
(0.944658 -0.0432914 -1.05288e-21)
(1.02249 0.0945201 2.47552e-20)
(0.991726 -0.00249136 1.22036e-23)
(1.03082 -0.0649153 -1.70541e-22)
(1.00553 0.0994031 1.16225e-20)
(1.26091 0.0450732 3.96605e-21)
(0.932209 0.0844505 5.25606e-21)
(1.02066 -0.0966371 -8.63876e-22)
(1.0466 0.0130595 8.45386e-21)
(1.27581 -0.0648555 2.4525e-21)
(1.0011 -0.0799113 2.75371e-22)
(0.979255 0.00719289 -5.88162e-21)
(0.990395 0.000462972 3.57677e-20)
(0.990307 0.0287239 -6.42209e-21)
(0.993106 -0.0374686 -4.97442e-22)
(0.938822 0.0157315 2.03101e-20)
(0.959954 -0.0382672 3.89882e-22)
(0.969833 0.0759838 7.5214e-22)
(1.13934 -0.066439 -1.10941e-23)
(0.985777 0.0483318 -3.64289e-21)
(0.980308 -0.0533131 3.09409e-22)
(1.00004 -0.00025009 -2.7624e-25)
(0.986069 0.0422452 1.20951e-20)
(0.967937 0.0680255 1.41172e-20)
(0.972151 0.0830091 -2.26814e-20)
(0.987629 0.0360051 -1.40746e-20)
(1.08109 0.00645286 -2.94218e-20)
(1.14807 -0.0148436 -8.78778e-23)
(1.07659 0.0820328 -2.2725e-20)
(1.05118 -0.147349 1.15171e-21)
(0.99674 0.0155689 4.23535e-20)
(1.02331 0.0609608 -2.0974e-20)
(1.27428 -0.0124105 -1.06053e-21)
(1.09798 -0.013195 -2.90212e-21)
(0.986882 -0.00340037 2.51261e-23)
(1.30871 -0.0168889 -3.687e-22)
(1.02932 0.097734 -4.17304e-21)
(0.946103 -0.0331239 2.36987e-23)
(0.96945 -0.0045997 -1.69473e-22)
(0.992595 0.00421353 -8.41181e-21)
(0.980295 0.0517667 -2.59743e-20)
(0.988835 -0.0609255 -5.3462e-22)
(0.988551 0.0568089 1.89722e-20)
(1.03356 -0.162268 1.10188e-21)
(1.23685 0.076085 -4.88761e-21)
(0.994267 -0.000286418 6.75846e-23)
(0.974336 0.0555032 -1.46172e-20)
(0.967441 0.0600584 3.72256e-20)
(0.902481 0.0356712 3.50273e-20)
(0.977604 0.0981567 3.08431e-20)
(0.997137 -0.000339928 1.09858e-23)
(0.979959 -0.0283552 1.91231e-22)
(0.99847 -0.00129953 -5.16717e-24)
(0.997008 -0.0839512 -2.19666e-21)
(0.933861 0.0649957 -7.48612e-21)
(1.14078 0.0890874 -1.87946e-20)
(1.03867 0.107331 -2.46751e-22)
(0.945278 -0.0414063 6.68366e-22)
(1.04979 0.0416844 2.08376e-20)
(1.04077 -0.040307 5.07783e-23)
(0.932586 0.0750673 1.08372e-20)
(1.10233 -0.108047 -5.37327e-22)
(0.995972 0.00574452 1.43693e-20)
(0.994427 -0.000284967 3.47158e-23)
(0.942946 0.0614195 -2.50244e-20)
(0.923846 0.0794223 -3.02412e-20)
(0.977958 -0.0297032 -5.07492e-22)
(1.20029 0.0473563 3.6657e-21)
(0.945045 0.0516707 -2.49558e-20)
(0.996521 -0.000525478 -6.36158e-23)
(0.918103 0.0359562 -3.93345e-21)
(1.05386 -0.0800173 2.1013e-22)
(0.996684 -0.000346351 2.76826e-23)
(0.954293 -0.0137669 -2.14459e-22)
(1.01414 0.102539 -1.47466e-20)
(1.16717 0.0791848 -1.06968e-20)
(1.01135 -0.114144 1.4677e-21)
(0.991857 0.0991695 1.21404e-21)
(0.918335 0.0893117 2.01139e-21)
(1.07706 0.137985 -2.08236e-20)
(1.06252 -0.0117736 -4.66061e-22)
(0.999487 -0.0742835 4.31076e-22)
(1.17126 -0.0637987 -1.63257e-22)
(0.980932 0.058595 2.14035e-20)
(0.926387 0.0363411 -2.27217e-21)
(0.898251 0.0343549 2.26397e-21)
(1.13916 0.0776163 2.90529e-21)
(1.00047 -0.0111851 2.76612e-23)
(0.978177 -0.00169981 -4.0321e-23)
(1.03204 0.100926 -1.48274e-20)
(1.00204 -0.00865993 2.09798e-23)
(0.983557 -0.00534805 3.15945e-26)
(1.00328 -0.013685 -1.50855e-23)
(0.993017 -0.0326492 -2.43922e-22)
(1.10568 -0.161552 2.19736e-21)
(1.20891 -0.151359 -1.37875e-21)
(0.957667 0.0813783 -3.30368e-20)
(1.02266 -0.0535836 2.00883e-23)
(0.998849 -0.00104471 2.13075e-24)
(1.03014 0.0637957 -3.30897e-22)
(1.16316 0.108416 8.9817e-21)
(1.00199 -0.0138499 -3.17768e-23)
(1.21214 0.0876163 -4.37064e-21)
(1.00196 -0.00144058 3.22166e-24)
(1.15756 0.0609877 9.84473e-22)
(1.01581 0.0348777 2.2605e-20)
(0.986247 0.0542718 -3.67921e-20)
(1.17161 -0.162467 1.58597e-21)
(1.18239 0.0475292 -5.27918e-21)
(0.992981 -0.0152076 -3.75966e-23)
(1.13825 -0.105849 1.56475e-22)
(0.994833 -0.00174325 8.83048e-25)
(0.976804 0.0660397 -3.79078e-20)
(0.956069 0.0790506 1.02017e-20)
(1.24345 -0.152615 1.25278e-21)
(1.20343 -0.169579 1.3017e-21)
(1.16197 -0.179714 4.56997e-21)
(1.03854 -0.0954188 7.55419e-22)
(0.988188 0.0949497 2.55214e-21)
(1.04136 -0.086805 4.76185e-22)
(1.12944 -0.148809 7.32937e-22)
(1.09044 -0.17895 -1.03647e-21)
(1.12972 -0.0931262 -6.8503e-22)
(0.910239 0.0358772 1.91618e-20)
(1.16642 -0.198396 -8.34916e-21)
(1.25567 0.0177427 -1.9342e-22)
(0.985579 0.0166899 7.36047e-21)
(0.995361 -0.000404374 -3.38337e-23)
(1.20547 0.0257702 1.88126e-21)
(1.04386 -0.0778114 -7.15077e-22)
(1.08936 -0.164085 1.78001e-21)
(0.995472 -0.00103102 -5.03276e-24)
(0.999634 -0.00318538 -1.46451e-23)
(0.90908 0.0458189 -3.26595e-20)
(1.05799 0.0440801 1.59025e-20)
(1.23977 -0.162523 4.9987e-21)
(1.30263 0.0114914 -1.96367e-22)
(1.06075 0.0748813 -8.59053e-21)
(0.992134 0.0557535 -2.97303e-21)
(1.02592 0.0646107 6.37634e-21)
(1.24835 -0.0837826 -2.21363e-21)
(0.981284 -0.0600905 8.22286e-22)
(0.993666 -0.0506324 -3.12805e-22)
(0.985105 -0.0541219 -8.43667e-23)
(1.03819 0.0658749 -2.11836e-20)
(0.968986 -0.00587339 1.78126e-22)
(1.00491 -0.0756474 6.54286e-22)
(0.999709 -4.23996e-05 -2.02152e-24)
(0.967324 -0.0219444 -7.45652e-22)
(0.997665 -0.000611454 -8.14975e-25)
(1.13025 -0.167234 1.67255e-21)
(1.0085 0.0997923 -1.38109e-20)