/*--------------------------------*- C++ -*----------------------------------*\
  =========                 |
  \\      /  F ield         | OpenFOAM: The Open Source CFD Toolbox
   \\    /   O peration     | Website:  https://openfoam.org
    \\  /    A nd           | Version:  7
     \\/     M anipulation  |
\*---------------------------------------------------------------------------*/
FoamFile
{
    version     2.0;
    format      ascii;
    class       surfaceScalarField;
    location    "13";
    object      phi;
}
// * * * * * * * * * * * * * * * * * * * * * * * * * * * * * * * * * * * * * //

dimensions      [0 3 -1 0 0 0 0];

internalField   nonuniform List<scalar> 
31093
(
587.942
-435.379
-152.563
270.68
43.1018
-313.782
939.578
-1127.43
187.85
-395.221
994.339
-599.118
-633.769
670.493
-36.7236
-687.33
53.5609
210.956
-30.2858
-180.67
577.272
-438.512
-138.759
215.267
-289.338
74.0709
84.5999
492.672
-72.4507
251.5
-179.05
-240.502
262.7
-22.1984
-237.022
-16.2338
253.256
34.6331
553.309
622.072
-650.713
28.6409
-965.121
569.9
-280.266
337.095
-56.8288
-89.423
-960.954
1050.38
-254.952
234.13
20.8222
305.145
-34.4645
-297.749
294.34
3.40893
-5.47789
-235.024
-439.396
523.996
268.74
-313.629
44.8885
939.578
-361.773
97.4501
264.323
889.325
-973.77
84.4449
341.246
-151.142
-190.104
-167.708
-90.8328
258.541
-104.882
-150.07
-592.216
741.07
-148.854
363.212
-311.338
-51.8744
341.681
-66.6923
-274.989
556.699
-291.163
-265.536
-717.401
780.418
-63.0167
-731.45
139.233
130.566
-342.572
212.006
932.296
-932.296
783.072
-347.681
-435.391
270.244
412.831
-683.075
4.12323
789.23
-793.354
-266.446
86.1555
180.291
-858.236
680.005
178.231
971.738
-82.4126
-141.557
-220.215
116.316
72.4178
-188.733
1064.62
-456.785
-607.839
308.206
-245.949
-62.2574
842.888
-30.4194
-812.468
239.273
-232.201
-7.07205
-787.831
70.4292
48.5739
-739.459
690.885
-262.732
-143.994
406.725
762.698
-836.077
73.3794
147.443
-371.116
223.672
16.2815
-212.418
196.136
383.855
-113.451
-270.404
694.686
-751.757
57.0711
-52.1445
-299.038
351.182
-55.4934
-224.772
-665.222
435.073
230.149
-50.3771
244.848
-194.471
481.027
-483.497
2.46932
-183.975
-332.284
516.258
-697.595
828.061
-130.466
-716.894
108.804
608.091
509.688
-576.392
66.7035
-651.249
-65.645
-148.177
-364.302
512.479
-148.436
-66.3949
214.831
365.074
-548.466
183.392
314.792
-236.846
-77.9466
675.79
-53.7175
-275.596
-32.6749
308.271
1062.43
-558.303
-504.131
-62.7802
458.12
-395.34
333.468
-146.68
-186.789
-227.122
15.3569
211.765
878.534
-608.29
564.006
-833.308
269.302
634.121
-525.318
816.96
-195.368
-621.592
285.688
-84.4082
-201.28
296.157
-80.8898
133.896
-184.274
-583.322
-274.914
241.902
-282.308
40.4053
-64.9366
169.304
-104.367
-610.316
426.341
155.075
-308.434
153.358
-401.143
666.533
-265.389
738.99
148.756
-887.746
904.527
-130.244
-774.283
184.087
-300.566
116.479
204.274
103.932
424.961
56.0666
262.384
-78.2974
-779.125
790.254
-11.129
-315.418
242.968
962.892
-874.643
-88.2492
282.706
-127.631
408.643
-419.275
10.6322
186.909
98.9697
-285.879
445.296
-194.724
-250.572
1186.59
-1186.59
471.24
20.0696
-491.309
-50.2681
255.724
-205.456
-461.906
218.689
243.217
264.942
8.93234
-273.875
-242.664
-88.8952
331.559
32.2663
-199.974
183.175
27.7809
399.045
-113.062
-285.983
-256.493
-402.119
658.611
-553.731
490.951
-568.619
-431.465
-354.901
-178.561
533.462
576.727
57.3944
-291.422
-14.7011
306.123
-1030.14
260.343
769.798
-170.769
909.758
44.2459
261.925
-306.171
367.819
-584.589
216.77
239.969
-362.514
122.545
127.972
428.727
738.187
-827.61
31.2587
181.708
-212.967
179.964
161.282
271.539
91.6737
142.903
-497.804
-24.4507
-154.833
179.284
18.4075
220.865
847.379
-843.256
293.363
489.709
146.27
-347.792
201.522
251.947
934.644
255.972
-41.1865
-214.786
-280.811
-16.9384
-408.988
36.8128
372.175
108.047
60.4954
-168.542
287.057
-242.811
27.8985
-303.495
190.851
123.942
-297.363
222.009
75.3534
-528.33
66.1737
462.156
-89.7039
235.974
-259.768
83.7861
175.982
-95.6336
-224.525
320.159
-15.4604
283.4
-267.94
-761.838
-211.932
127.982
-223.615
185.032
971.729
-67.202
-234.597
-44.8922
279.489
151.895
665.065
-234
-25.768
-732.018
148.696
88.4365
180.304
70.5898
-162.172
91.5821
-14.3088
-222.713
-186.232
333.675
-231.48
201.195
-36.7634
-394.437
-133.893
-185.616
-644.393
830.009
-174.856
109.919
347.635
61.0074
272.432
13.256
434.611
23.5088
-325.478
456.044
324.547
-68.5746
-206.904
-112.222
319.125
-14.923
-180.175
195.098
402.583
-442.951
40.3682
104.927
110.573
-215.5
28.2643
313.417
-571.834
509.273
62.5604
-544.41
-27.169
571.579
-440.001
-113.73
-37.221
219.755
-182.534
22.5203
-195.511
172.991
735.525
196.771
331.323
75.8771
-407.2
-91.0275
202.819
-111.792
266.933
38.212
229.759
-125.529
-104.23
580.038
-214.964
24.3701
938.522
153.874
256.812
103.355
-360.167
265.197
-233.939
254.569
-379.311
124.742
63.6498
-938.293
-571.19
423.013
220.871
-150.281
-16.0095
265.391
-249.382
61.3052
270.018
-24.3087
288.638
-264.33
325.003
-58.0703
16.9952
239.817
259.522
-368.996
109.473
-69.3662
310.553
-241.187
-457.456
191.445
-367.367
175.923
254.794
-405.9
151.106
-317.016
287.344
29.672
-3.81648
-330.714
334.53
756.775
-708.201
200.657
-184.375
619.532
-634.819
15.2872
418.066
91.6217
-863.015
536.962
326.053
-40.1669
306.965
-266.798
-89.3308
-151.316
240.647
-279.885
571.97
490.464
513.62
-513.62
-520.164
-509.977
-240.41
-221.496
896.41
-603.048
5.87265
261.374
-267.246
-190.554
-237.135
427.689
109.593
134.755
-244.348
490.524
-891.667
-325.71
236.815
-13.4614
-395.526
354.849
-358.665
-1068.63
500.015
-485.018
485.018
-642.383
-4.92743
647.31
612.286
-244.467
302.112
114.778
-416.89
-316.38
266.112
-220.833
202.516
18.3173
-510.174
814.764
-304.591
306.636
-64.7332
549.53
-78.2898
-422.104
215.2
191.789
70.5955
-632.931
442.376
210.437
-357.116
87.6473
-176.978
225.978
99.3504
-325.328
351.74
-111.772
-946.291
-240.3
623.374
-46.6472
-59.3737
265.573
-206.199
531.4
-437.597
-93.8023
-67.2906
746.93
-679.64
-53.2199
896.108
263.244
1.69817
-81.7938
191.387
-65.2933
511.393
-446.1
-541.01
193.329
-169.933
14.5918
155.342
-110.943
413.055
-34.9384
218.464
-183.526
-65.4438
-201.002
194.434
-86.3872
-77.3337
193.649
14.4424
-247.076
232.634
30.9782
459.654
-490.632
710.357
49.3861
-759.743
290.305
16.3306
-70.0855
-161.395
-110.453
14.8426
242.393
-257.235
37.2108
361.834
229.515
-739.689
330.671
-197.563
-84.7449
122.583
-820.594
698.011
61.5601
-371.646
-204.745
-279.18
215.193
63.987
-357.846
-307.376
567.724
-999.19
241.516
-52.7545
-188.761
-24.6063
207.939
-183.332
-1038.32
334.053
704.265
-37.3092
372.373
-335.064
325.016
58.8382
-261.658
119.819
141.839
337.885
-79.1578
-258.727
364.935
-110.366
-199.569
298.539
294.8
-213.797
141.325
-165.931
-81.3795
571.699
-490.32
751.717
-187.71
-131.352
-321.613
452.964
853.956
-731.374
231.813
-216.97
-40.9361
-284.542
-537.201
81.1207
82.6662
-163.787
331.01
-55.2648
-275.746
-70.7618
175.218
-104.456
360.503
-100.981
-89.2617
-349.94
439.202
7.57936
843.98
-851.559
-776.474
804.369
-27.895
-244.801
82.473
162.328
-754.417
442.124
312.293
60.3516
-165.234
5.47901
173.017
-178.496
-253.714
248.236
6.2684
-231.039
224.771
220.45
-0.695679
145.81
-507.44
361.63
228.997
-214.555
-40.282
-186.84
-64.9927
521.037
314.322
-47.5018
-266.82
-733.911
741.491
-478.69
339.114
139.576
441.057
-298.154
472.191
-860.711
388.52
-295.479
-75.6365
-726.523
28.9281
-165.222
-96.436
-646.676
631.719
14.9574
-177.56
351.722
-174.162
298.313
306.702
264.323
-167.687
-96.6362
268.518
-275.063
-456.956
-208.044
-92.5221
272.16
-173.137
-99.0231
-510.135
-4.13893
514.274
200.896
-95.9688
1006.23
-1006.23
433.561
-495.869
-542.449
136.544
200.526
-337.07
-448.011
407.075
-331.508
298.833
-328.346
412.011
136.338
-548.349
50.0205
712.677
524.087
-112.076
387.87
-566.431
83.4357
219.008
-302.444
-210.308
-227.788
438.096
255.335
86.8303
-342.165
-297.405
-544.717
842.122
489.891
-746.383
339.875
17.5239
-357.399
-960.954
417.556
96.064
234.279
-249.202
304.314
-356.458
-40.1079
159.903
-119.795
6.24629
-264.692
-254.133
11.7932
242.34
224.203
47.9566
264.6
-355.628
226.922
-93.0253
-503.505
-166.305
-142.129
-389.42
-364.997
-935.543
-168.213
1103.76
-498.914
939.992
-441.078
-143.334
-20.2515
163.585
-669.34
636.832
32.5077
-234.608
331.466
-96.8583
255.858
275.541
1.8298
-214.247
873.924
-912.471
38.5467
441.697
-97.7256
183.881
-365.739
178.244
187.496
-228.582
38.9844
189.598
-470.701
-39.4343
133.905
-247.355
304.904
-78.9261
-1055.96
870.343
-506.007
440.714
-129.801
250.515
-120.714
-62.6573
379.16
-316.503
354.67
-309.363
-45.3076
-390.824
43.6506
-213.584
-277.876
654.523
-376.646
-54.3148
-261.103
-73.9076
413.783
4.41839
192.096
-196.514
875.657
188.967
-325.927
-39.812
175.862
178.809
-373.692
-455.538
829.231
-809.473
352.688
446.473
-951.097
504.624
76.4917
-408.662
332.17
-267.731
196.969
-8.07848
467.733
-175.077
-192.29
-461.162
149.824
616.132
7.24238
27.1763
214.339
429.861
-108.034
-321.827
-99.5347
-92.7937
192.328
109.528
191.583
-257.027
9.11104
-118.413
-60.2961
178.709
-386.893
-7.9952
394.889
-6.88875
277.711
-270.822
-104.847
495.753
-390.906
-414.238
342.854
-87.5186
-874.07
806.78
339.281
-319.211
-83.4288
-295.882
-84.372
-284.624
-656.084
-123.04
-509.212
258.841
250.371
-275.636
38.7899
-117.644
129.196
15.0738
174.727
413.391
-588.117
28.11
-262.78
16.8314
-0.850167
289.489
150.335
-263.398
-58.7286
-236.015
294.744
-810.923
796.221
14.7012
235.446
-253.265
17.8191
363.618
532.792
278.418
-357.576
-15.2594
305.564
-724.627
694.208
292.739
-210.689
-82.0506
278.941
-13.5503
-184.295
-152.544
-318.175
470.719
-216.124
-100.892
300.261
-355.526
434.075
-523.337
116.951
80.7735
-197.724
207.24
-129.155
-78.0854
277.29
-650.982
136.978
-501.28
242.631
-100.896
-141.735
48.1705
-810.008
-424.203
293.388
-340.89
-565.494
641.986
-462.615
68.178
368.338
-665.743
162.725
-258.519
95.7939
-846.907
895.077
-30.5047
-9.82015
799.051
-222.756
218.114
4.64211
-310.009
200.431
109.578
-228.474
-177.426
-48.9862
420.695
-371.708
534.892
-616.272
35.8455
-223.922
188.077
169.079
-133.233
290.934
87.5297
-265.09
169.407
25.0272
-139.713
766.81
107.114
-430.838
180.266
-246.734
175.947
70.7879
198.968
-233.906
0.119723
193.161
-193.281
-307.081
248.352
-226.756
-11.2071
237.963
-506.424
375.072
169.311
-184.772
-581.07
-65.6059
614.823
4.70927
-263.457
-234.348
197.8
-76.1831
-121.617
-126.423
-86.7891
213.213
137.21
-202.911
65.701
-67.3634
275.314
-207.951
-227.086
217.486
9.59929
-199.58
-27.5054
318.283
111.578
948.834
-696.887
-268.703
-301.874
247.559
190.947
32.9787
-223.926
-961.987
791.891
170.096
-398.317
169.338
228.979
-484.639
-121.851
606.49
-158.963
-806.158
18.0701
-303.949
-460.94
452.944
-91.3125
-218.697
231.527
-23.5884
653.13
-96.6295
-556.501
347.632
-452.479
-159.304
756.409
-597.105
-202.484
-216.982
419.466
-288.5
273.354
15.146
5.93443
-69.06
206.27
-94.2989
-184.881
-528.365
19.1527
-16.1663
-91.4476
-744.629
37.5673
-432.29
-213.974
87.5503
-272.068
181.236
698.806
259.993
-304.886
165.067
64.6918
-310.291
23.2828
287.008
-269.409
40.8266
-37.6211
-996.085
778.19
217.895
-27.5111
230.027
-123.33
276.689
496.166
-521.424
25.2579
-278.747
-199.943
-362.548
399.361
-36.1211
158.905
-122.784
953.006
-796.479
-156.527
28.3213
-518.915
490.593
-4.63009
-168.615
173.245
-167.83
-107.806
488.574
-63.6134
-224.149
480.007
-556.8
116.19
440.61
-178.759
276.209
508.184
-347.238
-160.946
296.584
8.20585
-304.79
-261.405
202.031
634.821
-81.2185
-553.602
421.652
-246.925
-433.131
389.441
43.6898
269.8
-4.22704
-241.306
-68.9853
-182.06
56.5316
204.546
-500.082
61.9057
438.176
-258.923
264.795
-339.972
333.083
-316.805
-67.4621
-417.556
-451.113
402.127
-530.579
1001.82
-471.245
-133.282
97.1609
-177.197
-221.12
488.587
-50.2452
-438.342
-16.69
-301.839
318.529
-493.136
557.064
-63.9279
400.149
206.093
-100.943
-105.149
161.016
-228.38
202.655
-202.535
-306.895
133.758
413.591
-385.27
-9.78508
-278.715
82.4829
-888.933
888.933
134.499
5.61598
420.514
-426.13
-158.22
183.075
-24.8551
-522.87
312.562
-419.844
61.7851
358.058
42.1757
155.624
-485.476
360.624
124.853
-239.303
437.277
51.2973
308.071
41.969
-350.04
333.441
-71.516
-415.512
-22.0854
112.12
-353.368
290.711
331.496
-215.975
-115.52
-59.7916
147.65
-87.8587
-935.543
-302.089
-221.542
125.006
96.5362
-289.597
222.904
-429.997
-521.101
257.935
514.607
-772.542
-148.612
-528.653
677.266
-442.257
178.8
-24.6227
194.029
216.037
-13.3823
-657.686
640.702
16.9839
65.7582
355.894
279.924
-56.1697
-223.754
-104.386
-511.095
615.481
-564.977
791.421
-226.443
-572.965
52.7023
-760.627
179.054
581.574
-981.953
413.262
568.69
-282.642
-274.158
-126.516
465.797
-968.609
438.029
-675.445
814.328
-138.883
598.453
-702.839
-209.076
252.365
-233.957
124.358
-799.803
-164.76
-693.983
858.744
649.865
-15.044
501.256
326.805
-60.5996
264.874
-117.233
96.9817
-119.125
193.228
-525.511
255.377
-228.263
-27.1149
-144.803
320.417
-175.614
-175.744
-87.036
520.638
-24.4718
-293.169
276.479
12.7795
624.053
-704.022
-650.906
-251.42
-248.662
29.017
222.483
28.4403
420.643
-449.083
-351.993
334.465
17.5274
-141.227
156.584
561.599
440.225
-346.028
-200.289
546.317
181.056
-236.55
-80.1262
270.977
-64.5218
-355.322
183.789
-224.975
-239.051
304.809
202.32
-129.902
-458.256
-523.697
-295.342
-12.2866
307.628
-281.812
154.412
127.4
-173.679
178.097
-189.801
-92.0114
226.208
-219.94
253.835
-282.454
28.6186
265.154
-68.3516
-196.803
-805.212
646.249
-314.979
-290.97
56.362
-282.327
299.851
277.559
-112.079
512.228
194.719
-59.9644
292.08
523.671
-815.751
-195.58
166.584
40.6567
-562.376
409.832
-925.225
280.833
299.844
-798.759
-473.53
-73.1418
546.672
-539.873
468.518
71.3551
286.989
-210.145
51.9255
-610.683
386.534
-9.50382
172.229
-307.662
336.102
161.373
-508.61
-135.525
-37.5732
229.362
-6.251
279.605
270.166
-86.1032
196.676
753.767
-6.83663
298.341
-272.623
-25.7178
-232.473
-115.32
-121.862
-31.0177
266.463
681.961
258.031
86.3948
190.294
337.838
-127.401
-90.2532
288.582
-198.329
-421.557
99.9438
496.008
-231.013
-264.995
291.806
-298.057
-18.296
-672.843
691.139
229.43
-834.162
443.338
-232.768
45.201
-312.021
-96.376
-369.201
465.577
-124.445
139.037
245.912
-306.511
280.912
2.4878
-874.423
330.013
55.9658
-331.711
-726.454
-514.701
-447.286
242.048
76.5617
-335.288
235.548
-315.674
166.438
76.193
122.281
-224.552
102.272
-477.312
127.372
509.912
-924.15
-174.364
98.1807
458.219
26.7983
-574.504
-421.581
18.963
-600.033
-3.15462
299.738
-106.032
371.698
-265.667
-125.235
-90.2647
127.647
-188.34
-91.5451
-344.325
381.536
-212.373
-64.0119
276.385
-71.2431
225.655
-280.531
-262.222
244.412
17.8103
43.9209
-235.521
280.722
366.099
-38.6508
-313.342
-19.0189
236.505
206.995
-27.152
-179.843
-114.858
-467.562
54.1222
413.44
-296.223
-124.611
420.834
152.128
-211.919
301.877
-268.119
102.897
-203.028
-112.415
315.443
784.793
312.11
-33.5803
-214.896
248.476
-19.0228
-520.85
-295.342
-742.938
371.876
371.062
7.95994
-299.123
-4.28606
275.825
-14.9376
233.052
251.207
-343.069
91.8624
-459.943
-111.247
-553.446
216.171
337.275
214.21
23.7526
237.818
318.963
-623.689
304.725
214.682
-423.975
209.293
-365.874
383.598
-677.062
293.464
924.372
-900.001
-724.986
447.11
-392.933
-123.422
516.355
165.901
132.44
-329.538
561.838
-369.105
-192.733
370.707
-189.651
-803.506
238.529
251.341
244.667
-228.163
60.3332
377.996
-111.884
181.393
-184.971
3.57775
233.188
11.6597
586.122
-613.291
-514.674
210.257
304.417
78.9429
-335.175
-161.704
496.879
82.1784
361.619
-177.831
265.075
59.9282
-471.279
192.532
284.399
153.814
-438.213
123.406
-253.207
-158.407
-229.251
-206.128
-365.025
20.7005
-28.6777
-629.008
-30.1
229.5
-199.4
-331.582
172.204
159.379
-347.914
-100.704
448.618
-228.872
-96.8377
192.198
14.7971
-307.559
86.9019
167.734
119.711
-287.445
-274.669
-123.551
398.219
-364.511
-291.439
271.641
19.7977
155.66
-372.074
216.414
150.181
-260.933
110.753
-40.009
-87.3881
-278.643
366.031
-396.044
220.967
211.633
-440.884
-284.774
139.136
145.638
-460.551
142.376
35.0791
-440.155
405.076
-198.981
-63.241
157.02
376.997
-323.504
-53.4933
-206.156
206.994
-0.838516
-260.373
145.601
114.772
-114.377
-132.357
-283.616
-111.759
903.65
-219.791
-27.2847
277.523
-489.584
289.641
140.314
-347.403
207.089
-362.327
-121.953
484.28
-470.595
-216.735
220.051
-29.1038
233.192
689.157
-707.453
-48.9355
-273.522
322.457
79.9023
-709.854
629.952
214.948
84.0803
-299.028
294.618
-94.0919
-216.613
234.683
-365.447
-40.6225
406.07
-710.821
39.4297
671.391
-449.76
-183.171
-70.9117
-269.06
522.026
-11.05
-774.363
-19.4559
793.819
-171.875
506.547
-334.671
-187.239
479.319
185.166
-520.341
313.745
-94.7366
89.7682
421.625
-425.888
431.504
-326.63
-126.456
453.086
-524.281
50.7508
330.583
8.53071
58.351
-274.964
250.666
-52.3879
-198.278
-87.4676
-94.0282
290.997
-73.7082
-279.66
79.1147
197.094
-303.637
-89.296
392.933
-282.496
333.471
-50.975
-70.3999
269.367
-336.994
-118.382
455.376
-268.935
135.108
133.827
-138.411
-19.2254
40.852
-651.877
611.025
-181.091
-252.04
-265.287
-242.152
-338.588
-85.6147
-216.974
-65.6438
282.618
415.445
639.609
179.486
-269.2
89.7137
138.932
503.053
225.175
25.4907
189.927
-243.259
53.3318
-348.92
-157.504
-533.35
-73.0023
341.521
-181.996
315.197
-28.2078
622.985
-180.609
-4.47367
230.682
-245.909
276.082
-30.1732
713.59
2.15586
289.65
-602.15
492.467
109.684
224.504
55.4199
200.084
-29.6556
189.863
-331.992
112.226
-332.442
16.457
-355.253
361.941
-6.68769
119.173
-223.541
184.543
23.6903
-320.619
322.968
-2.34898
240.035
-304.047
246.533
-13.8991
-323.64
-124.371
-54.9843
235.275
11.8962
243.481
305.952
2.31942
-358.451
-145.641
504.092
-81.1287
-151.072
-201.715
-22.2077
94.6576
236.014
263.305
-294.323
287.278
-67.0463
-223.726
239.664
-15.9377
-1061.08
709.141
351.942
-420.248
124.025
279.906
5.46223
-285.368
-57.8696
348.58
577.814
-182.578
-21.5142
204.093
-41.983
-211.731
-266.744
-53.8493
320.594
-290.192
-52.6135
342.806
-70.119
-510.268
-91.8823
-797.708
785.392
12.3156
78.6878
221.505
-300.193
60.0317
277.247
-167.372
460.425
-293.053
-238.704
-63.1694
-421.822
111.18
-236.416
170.975
-267.411
-322.13
-95.3495
417.479
-95.7947
409.942
-314.147
-385.105
-75.835
-235.01
-71.501
2.14934
-410.171
-95.8364
-204.071
684.23
8.4855
636.7
-645.185
-198.925
44.0922
225.798
-810.212
584.414
185.663
-414.137
275.405
-19.6815
124.299
-1000.69
-229.456
-86.2187
441.962
-8.40136
-463.031
-394.097
-97.2122
-657.402
212.971
-422.184
209.213
18.8217
256.492
-309.279
-69.6027
378.882
8.89496
-278.183
269.288
830.008
-116.418
-490.647
482.569
-59.6694
-714.694
-65.908
398.991
-846.568
783.551
299.938
-468.029
403.507
-89.9023
-120.787
202.647
169.53
-372.177
-438.284
-244.996
185.188
19.7011
-204.889
-220.331
909.976
29.6013
-992.013
559.723
-219.717
-84.6364
304.353
706.991
31.1956
331.991
-95.1757
376.295
-355.595
-402.309
410.443
-8.13445
324
-328.138
4.13765
340.29
-107.098
-14.6673
-394.305
-124.609
-231.961
-105.109
-207.15
-95.2936
-586.111
767.464
-181.353
-203.522
13.7217
-190.094
-380.191
-462.434
412.189
99.782
-288.122
-139
-111.893
250.893
-44.6544
391.472
-346.817
308.759
-60.4072
217.476
-63.6001
-153.876
85.8701
-254.485
120.843
173.956
304.348
-89.4005
-297.268
-105.077
209.009
522.998
-147.926
26.4123
-773.67
747.258
-299.601
121.327
-207.43
-30.2856
-46.8792
295.115
41.4285
772.017
-698.638
856.233
-110.794
-745.439
379.948
-76.7237
-303.224
128.123
-248.837
-96.4038
510.025
-413.621
-225.682
-63.6555
25.5264
-735.381
399.576
-114.667
-291.204
289.241
1.96284
-195.83
-82.9619
278.792
206.147
23.1729
-229.32
-32.285
-128.387
-450.968
-610.114
-427.355
204.754
-13.2584
-234.483
-11.6091
241.04
52.4716
-535.666
483.195
-282.4
248.191
-425.388
190.637
-382.927
697.929
-307.402
69.3504
-271.558
202.208
-110.227
288.471
556.714
-168.844
-240.09
-144.46
233.346
849.495
89.0271
-307.628
229.331
47.0589
724.958
-13.1669
194.56
-326.039
-93.2357
351.037
-57.6491
-437.573
-527.56
156.171
371.389
-153.642
-492.461
646.104
-570.003
1011.7
-700.085
113.974
-463.449
-306
277.335
87.6001
-911.944
68.5692
843.375
-338.665
364.407
-64.1455
-4.58665
359.436
329.446
4.02464
224.781
-201.28
-23.5015
-321.97
101.639
-197.551
-8.60478
242.829
352.128
-73.7098
603.387
-112.794
284.254
76.2491
532.694
-98.6191
504.328
-90.9378
250.438
-28.2394
-222.198
388.637
-463.474
-314.578
778.052
530.051
-271.21
-284.349
-555.529
80.2856
475.243
304.97
-57.4105
-710.978
677.616
33.3619
517.746
-64.802
-32.8737
635.686
-602.812
-319.184
250.833
275.134
56.3323
419.632
104.455
-377.345
212.889
-24.812
305.101
3.6581
-427.884
-129.799
-39.2786
589.416
325.992
-317.444
-8.54721
-501.176
41.2326
-373.105
-330.57
302.362
43.4166
328.956
-287.374
290.927
-40.0937
-144.756
-253.386
-233.201
-1.14686
234.348
-401.29
-112.329
-32.3993
547.37
-38.0962
-8.82629
476.559
539.702
-26.3641
-177.794
-275.314
322.186
-46.872
-100.385
253.077
32.6742
-743.652
-298.503
-212.087
339.987
-393.135
-57.9775
431.512
618.807
225.555
-844.362
-141.222
534.778
-135.202
317.589
-251.314
-66.2748
-115.242
-577.37
-183.257
25.2513
210.488
118.959
-129.761
240.513
-261.022
-255.486
297.816
-42.33
249.663
295.362
-421.878
691.518
412.238
-252.73
329.098
-76.3676
-245.681
-457.393
-210.382
837.344
18.8888
358.285
-53.1839
-936.544
24.6003
352.843
-88.2428
-744.177
12.4548
-308.337
635.095
207.582
-90.6311
-96.4298
7.18357
298.381
-361.552
11.9768
349.575
-210.362
-114.967
242.579
-97.1665
-476.73
-85.6462
488.641
-78.8088
345.181
19.9709
-304.594
-80.2409
-103.704
-519.42
370.807
-118.098
653.348
-627.822
-279.125
353.638
-74.5125
-216.688
40.9436
283.436
23.5283
-445.251
-478.899
-430.812
972.666
-467.957
-504.709
523.259
-82.5456
-510.609
-100.075
-65.7563
18.694
494.088
-107.553
-22.8434
49.1093
180.391
-232.367
-198.471
49.4185
-71.2721
535.932
-112.919
-407.203
-360.283
308.409
267.798
-1.33462
407.301
-62.1197
-54.9361
-149.134
-183.066
-309.545
30.8294
66.3304
-268.045
438.637
-650.57
565.559
-85.636
-479.923
758.948
-726.274
384.477
-44.4898
-280.222
-311.071
27.5981
534.318
-102.806
-758.203
784.616
219.919
-4.31857
-215.6
-113.011
212.793
457.27
-55.1432
556.801
-130.459
-282.373
284.529
-107.131
-114.41
-201.895
228.372
-26.4774
-106.957
272.858
296.935
-36.9416
-64.4444
251.165
-473.429
-278.328
271.595
-235.853
-35.7415
-374.904
381
-6.09553
-18.4023
-100.275
276.136
308.648
-311.533
2.88457
-249.135
-123.561
-0.827492
160.731
-324.325
398.955
-43.3657
787.218
-743.852
-507.617
341.782
-46.42
28.685
348.615
11.8772
-360.492
7.11363
382.327
199.918
480.087
27.2301
467.817
44.4107
355.992
-47.9214
-44.5152
234.442
213.637
74.9451
-855.561
864.047
-301.277
286.794
14.4821
-550.773
252.157
-0.991439
743.779
-545.827
-197.953
261.463
-187.25
-74.2129
433.136
229.518
25.641
494.997
-199.955
619.072
-419.116
70.9231
-50.2556
841.308
-791.052
-382.357
294.969
476.939
198.85
237.685
-1.17929
228.23
-166.397
-477.652
644.049
36.4979
210.035
55.2476
-558.74
571.456
-508.895
791.963
-277.818
-514.144
-291.012
-166.444
37.5478
270.876
0.765055
-230.682
-254.794
-336.431
-473.043
5.98214
186.709
-192.692
294.731
267.98
192.715
-792.612
768.451
24.1609
4.57314
409.356
-450.586
41.2301
285.713
52.5584
5.58244
735.237
-740.82
84.9458
237.24
31.3406
99.7912
-293.258
308.151
-14.8931
-888.647
-46.8958
199.143
-118.591
-486.047
604.638
-295.086
809.694
-138.7
-394.243
-106.933
-561.527
141.478
355.4
40.37
-257.412
-24.9606
198.007
-148.898
4.49015
843.256
45.6769
-16.019
305.669
473.999
-357.595
-116.404
-626.427
265.415
361.012
117.689
173.308
365.076
-348.654
233.134
130.227
287.252
229.9
222.641
17.0227
69.9034
-484.287
414.384
803.816
-251.399
-552.417
181.851
191.306
-373.158
321.109
402.042
254.42
3.60985
-626.304
-305.993
241.543
-889.933
368.161
56.4771
-425.678
67.1134
-633.647
-101.733
248.797
-362.282
352.824
554.749
-568.344
645.2
-76.8562
-13.4351
375.269
412.806
-301.521
-31.3508
168.138
-136.787
-303.444
298.386
-18.7807
626.163
-347.823
-23.2553
378.366
-355.111
62.6257
-185.139
226.754
-41.6151
-245.814
221.501
24.3131
287.629
504.334
170.908
-405.234
399.21
-1050.38
1055.96
99.8448
-8.72907
438.72
179.675
-58.3482
416.647
340.715
216.221
24.4254
243.452
366.464
-26.4054
-340.059
-650.401
648.319
2.08131
234.16
199.899
-13.1892
502.519
-432.616
-211.275
766.024
258.537
90.1237
234.376
-361.778
-179.952
26.8676
244.727
721.492
-149.451
-572.04
-836.352
900.001
297.074
340.339
209.845
-204.383
554.118
-992.402
410.407
312.974
279.359
-45.0425
453.483
291.56
60.0754
-418.33
358.255
-219.687
302.133
-13.3215
-2.74228
-824.372
694.127
793.214
-194.761
335.18
235.95
99.6358
341.28
-20.3916
-320.888
269.761
262.051
284.202
-191.189
90.2452
-275.069
285.578
-10.5098
412.184
-515.742
-256.801
-5.1519
221.373
428.088
-573.729
-277.91
20.4978
438.481
-106.385
-242.492
348.877
-334.501
-193.059
634.99
106.08
426.53
-943.118
516.588
-461.437
418.686
42.7516
-3.63067
255.358
-251.728
328.51
-265.884
259.557
-236.767
-22.7904
265.325
8.24514
-193.384
-846.907
69.5634
315.643
-385.207
-30.947
719.937
-688.99
323.873
-296.616
-27.2579
-445.706
432.191
269.603
-228.174
-400.019
978.687
-578.668
288.074
-14.1764
199.364
538.383
461.617
-190.482
211.556
11.2085
-222.765
-28.6422
400.817
-593.434
33.5777
559.856
203.155
255.462
-326.963
-19.4775
-355.427
-909.976
859.721
-495.291
1033.67
337.822
-51.3811
240.755
-2.27162
-238.484
489.818
-435.696
66.6558
-718.533
-460.603
-0.834635
-259.923
320.028
-469.536
-499.073
299.455
-18.9318
-280.523
-959.788
439.623
-797.708
158.076
34.2006
-192.277
32.337
597.615
648.935
-633.978
-295.065
818.735
-88.3286
212.27
372.858
-508.572
135.714
-121.019
351.176
-230.157
-703.557
750.616
-388.364
229.289
-225.178
234.661
-9.48257
-274.911
701.441
314.875
590.137
27.9004
-786.104
-232.736
247.688
-333.907
-63.2793
-228.618
240.411
-895.077
979.522
176.627
39.8217
-216.449
266.762
-263.005
-92.6227
30.5182
398.985
208.555
-607.541
502.752
-902.771
471.617
-58.0259
-223.827
-4.79694
228.624
-114.525
-195.02
-254.761
57.9585
-164.355
-139.14
303.482
291.988
-265.12
-114.872
-319.613
434.485
282.367
290.776
-17.8169
-294.426
312.243
-691.36
18.5171
847.379
-888.647
924.372
-946.291
934.644
940.629
-940.629
-836.352
-1000.69
242.14
-201.77
-240.702
-206.703
-189.026
-4.25534
735.545
-956.748
221.203
-864.047
14.2328
-284.637
194.572
-36.4959
-763.319
791.219
229.322
-7.07974
-222.242
-249.677
258.571
-11.925
-250.275
262.2
248.692
-14.2255
-234.466
203.018
-230.132
-23.7042
-253.905
277.609
-188.758
201.735
-12.9768
250.822
281.638
-348.221
408.296
107.66
-184.7
77.0403
-360.806
-577.486
-194.925
208.404
-13.4787
-419.995
-84.1667
504.162
196.296
-176.595
43.6182
202.934
-26.3069
-349.947
234.627
451.833
-99.0096
199.166
456.759
-47.4032
316.207
-379.277
63.0699
19.2334
-634.861
667.198
262.379
-462.334
-783.823
730.325
53.4982
480.822
497.865
51.5818
400.251
-233.634
252.455
-73.1677
-710.656
243.105
-327.742
695.169
-876.522
316.587
-707.805
391.219
131.089
263.936
-205.848
-58.0879
-47.0795
-388.87
-867.301
592.39
-3.09022
261.916
3.26262
-311.926
308.663
18.4872
-42.9697
236.693
281.804
-37.0772
185.242
-58.2158
-127.026
738.344
20.6042
273.056
305.793
6.80914
183.436
-226.72
43.2839
237.511
-301.756
298.602
-287.836
-203.856
218.286
-14.4301
74.848
-494.843
247.11
151.845
-89.5924
825.137
-593.923
401.189
544.997
-633.246
227.516
-322.252
315.398
-436.417
195.702
-300.811
218.72
-195.547
-317.038
222.946
-191.951
-8.72586
200.677
224.676
-319.969
368.414
-266.393
-102.02
-1.32668
484.521
-442.546
-560.348
1002.89
-714.091
632.873
-50.5455
-320.458
371.003
21.3888
50.7477
-311.294
307.008
-272.316
-5.59367
203.293
49.0629
-252.356
-188.824
-233.36
-308.27
223.241
-208.802
-14.4389
-311.926
-412.621
412.621
188.38
-658.975
176.972
156.704
308.663
727.491
-235.024
-41.6728
-646.008
687.681
522.601
-81.9908
237.124
-365.82
316.885
383.492
244.848
4.5478
232.363
-172.334
-60.0291
-38.5137
-686.759
686.759
-174.373
-389.076
-98.0761
-138.339
206.653
20.2686
-156.539
227.135
-424.005
480.071
-184.315
-198.613
696.094
-487.992
-208.102
-136.667
-112.17
506.127
-144.496
-78.1614
-30.6677
-487.234
517.902
-500.34
-287.491
509.3
-14.303
-25.3593
-709.181
542.784
-458.461
-65.82
767.603
19.6152
232.389
-113.054
773.856
-660.803
89.6501
807.11
683.241
827.331
152.649
-216.249
-388.161
-72.4421
-238.765
249.71
-214.473
49.9944
-202.839
-897.097
41.2063
855.89
30.5567
404.516
810.361
-264.938
248.792
16.1459
1066.41
-542.391
-524.016
-169.437
7.72102
474.848
203.642
-37.0586
297.588
248.729
431.119
-772.063
956.354
-184.291
-368.285
8.00182
232.981
18.9596
665.27
-79.8723
-221.404
-204.216
-226.596
206.126
92.3807
635.11
690.216
-731.889
92.1006
-795.658
23.2614
654.355
752.348
-849.678
97.3298
-627.62
536.318
91.3014
627.388
-563.676
-63.7121
-447.025
521.873
49.1258
-121.132
-113.84
234.973
158.077
305.447
-583.794
400.623
191.758
-191.758
-200.632
219.839
-879.272
436.726
-653.169
534.578
-555.529
855.561
-945.153
24.3419
-238.379
206.404
-203.073
-211.064
-248.691
23.6038
357.932
36.9278
343.02
-353.52
-359.126
30.9886
394.781
-665.991
-55.341
-726.827
782.168
206.617
-289.579
55.4944
147.918
-259.811
-623.588
656.096
-178.407
-89.0045
8.29547
531.781
122.742
-311.81
-18.7601
-455.124
957.876
863.92
-863.92
334.121
44.245
13.9806
462.578
-761.605
17.753
649.542
17.6565
80.4594
417.639
-498.099
216.576
303.849
-4.11022
9.42251
672.135
19.0044
-802.947
619.69
195.869
302.98
-498.85
-808.959
531.141
211.207
-409.821
22.1824
-650.004
-191.59
-41.7615
233.351
-119.948
228.748
-108.801
15.6275
45.7067
357.253
42.1083
-205.118
17.3932
-237.014
514.411
658.219
61.7189
12.4893
120.002
-124.229
-175.963
198.126
388.535
-498.171
-707.889
-64.1746
-201.95
-467.15
-475.968
-274.078
-360.741
624.936
-515.252
6.82238
798.084
-804.907
318.307
50.1067
394.156
-60.0349
615.02
-51.708
-563.312
313.693
-14.8597
-570.015
-92.8847
662.899
-9.18157
-224.757
-583.363
402.754
-177.124
-41.7068
218.831
230.212
611.282
66.2129
-210.247
-121.745
25.3472
205.769
-546.322
638.703
195.306
4.05854
-200.269
398.702
-198.433
283.808
-827.86
544.052
-778.456
19.5906