/*--------------------------------*- C++ -*----------------------------------*\
  =========                 |
  \\      /  F ield         | OpenFOAM: The Open Source CFD Toolbox
   \\    /   O peration     | Website:  https://openfoam.org
    \\  /    A nd           | Version:  7
     \\/     M anipulation  |
\*---------------------------------------------------------------------------*/
FoamFile
{
    version     2.0;
    format      ascii;
    class       volVectorField;
    location    "3";
    object      U;
}
// * * * * * * * * * * * * * * * * * * * * * * * * * * * * * * * * * * * * * //

dimensions      [0 1 -1 0 0 0 0];

internalField   nonuniform List<vector> 
30084
(
(1.00611 -0.00749692 1.06264e-21)
(1.00633 0.00220394 3.63669e-21)
(0.994673 -0.00192172 -5.88522e-21)
(0.982892 -0.0313753 1.74182e-21)
(0.998613 -2.79211e-05 8.35942e-22)
(0.973873 -0.0195535 -2.76752e-21)
(1.04046 -0.0415385 -8.20567e-22)
(1.00836 -0.0115659 -1.11589e-22)
(1.00115 -0.0010897 1.3949e-22)
(1.0001 -2.63939e-05 3.76233e-23)
(1.00975 -0.0155023 6.77114e-23)
(0.999108 -0.009539 -1.8284e-21)
(0.999737 -0.000113113 1.13912e-22)
(0.999986 -6.15889e-06 2.75939e-24)
(1.06142 0.0597063 1.30493e-20)
(0.996505 -0.00115616 8.92012e-22)
(0.999892 -0.000483288 -4.67821e-23)
(1.07156 0.0122176 -1.35725e-21)
(0.998811 -0.00106902 -2.85973e-22)
(0.993636 -0.000488665 -1.29428e-21)
(0.999526 -0.000142988 -3.92161e-22)
(1.00111 -0.00111425 4.89736e-22)
(0.994598 -0.00204645 6.46745e-21)
(0.998815 -9.34632e-05 3.69597e-22)
(0.948 0.0466709 1.08764e-21)
(1.00659 0.00172916 1.95678e-20)
(0.999719 -2.61728e-05 2.58609e-22)
(0.971955 0.0403696 -7.92818e-20)
(1.06368 0.0605456 -3.26105e-20)
(0.999718 -0.00523852 -3.53952e-22)
(1.00897 -0.00568045 7.07169e-22)
(1.02089 -0.00344825 -5.0033e-21)
(0.993543 -0.0742182 1.52649e-20)
(0.999505 -0.0134397 8.60801e-22)
(0.971025 0.0379855 6.51451e-20)
(1.00276 -0.0189691 1.69103e-21)
(1.03184 0.0263693 -6.5154e-21)
(0.983593 -0.0174297 7.65697e-21)
(1.0032 -0.000442683 -1.88204e-21)
(1.00298 -0.000195204 3.55988e-21)
(1.00024 -0.000106335 -1.13125e-22)
(0.993988 -0.0182801 -6.6993e-21)
(0.999907 -0.000466376 -7.97649e-25)
(1.01952 -0.0407808 -4.12438e-21)
(1.00001 -1.55529e-06 -7.64288e-24)
(0.999726 -0.00534049 2.84718e-22)
(0.998619 -0.00709554 -5.16043e-22)
(1.00004 -4.95295e-05 2.01568e-23)
(1.00185 -0.00214303 -1.99892e-21)
(1.03166 0.0252396 -2.70116e-21)
(1.07898 -0.037894 -9.15321e-22)
(0.984844 -0.0274805 -8.19779e-21)
(1.02008 -0.0026672 1.7512e-21)
(0.974798 -0.0193949 -4.64554e-21)
(0.996585 -0.00120728 -7.87056e-22)
(1.0674 0.0574892 -2.12499e-20)
(0.998044 -0.00130427 2.79172e-22)
(0.999508 -0.000165125 4.96263e-22)
(1.00042 -0.0125451 -1.06975e-21)
(1.00884 -0.0339087 -2.92863e-21)
(0.999969 -7.06183e-06 6.77946e-24)
(0.998834 -0.00108139 -5.88775e-23)
(1.11676 0.0502749 8.9728e-21)
(1.00289 -0.018502 -8.60471e-22)
(1.02255 0.0535207 4.6702e-20)
(0.959538 0.0128146 1.58062e-19)
(0.99988 -0.0159919 -2.15483e-21)
(0.996005 -0.00814236 2.62809e-21)
(0.968502 0.00873853 6.41055e-20)
(1.00025 -0.000104855 7.32326e-23)
(1.00731 0.00245233 -2.66785e-20)
(0.991091 0.0344037 4.80633e-20)
(1.00188 -0.00531179 -8.78616e-22)
(0.956072 0.0544352 4.01423e-20)
(0.99537 -0.00039282 4.15068e-21)
(1.06995 -0.0144406 3.25383e-21)
(1.07641 0.0911099 4.4055e-20)
(0.983986 -0.00977838 1.86111e-21)
(0.999978 -1.00359e-05 -1.92896e-23)
(1.00386 -0.028238 -3.29558e-21)
(0.974476 -0.000474557 -3.13928e-21)
(1.01047 0.0195139 1.48713e-20)
(1.00646 -0.0077864 -3.18443e-21)
(0.999998 -3.16356e-05 -1.61609e-24)
(1.04164 -0.040175 1.69422e-21)
(1.16111 -0.0464687 5.70188e-22)
(1.012 0.0445379 -8.51454e-20)
(0.999726 -0.000114115 -1.02408e-22)
(0.999745 -9.88224e-05 -3.00811e-23)
(0.960526 -0.0257693 -1.16887e-20)
(0.998255 -0.0317122 7.92616e-21)
(0.983912 -0.0102575 2.05623e-21)
(1.00173 -0.00220208 3.47635e-22)
(1.03224 -0.00321496 -3.14338e-21)
(0.956146 -0.0110881 -9.74911e-21)
(1.01486 0.0544698 4.12847e-20)
(1.00062 -0.0413276 1.21221e-20)
(1.00026 -0.000216025 1.85786e-22)
(0.984064 -0.0396916 -1.43283e-20)
(1.05527 0.0683335 5.16246e-20)
(0.999976 -1.13441e-05 2.81489e-23)
(0.984707 -0.00643372 -1.11186e-20)
(0.999971 -7.34238e-06 -3.47951e-24)
(1.0265 -0.00843052 -1.6464e-20)
(0.983975 -0.0274465 5.48502e-21)
(1.01912 0.00702293 2.84107e-20)
(1.00001 0.0323788 7.66695e-20)
(0.999755 -0.000100458 -2.55541e-22)
(0.999996 -3.8191e-05 -1.12671e-25)
(1.00355 -0.0697669 -6.35549e-22)
(0.992033 -0.0735102 -1.37324e-20)
(1.026 -0.0211872 2.39343e-21)
(1.00001 -2.47819e-07 1.39279e-24)
(0.99939 -0.00352174 -1.00777e-21)
(0.999974 -0.0012927 3.89226e-23)
(0.992698 0.0351883 8.70199e-23)
(1.018 0.0294022 -3.15814e-20)
(0.993218 -0.00426609 -4.42441e-21)
(1.00001 -3.63714e-05 2.29285e-24)
(1.00213 -0.00515809 -6.53832e-22)
(1.15517 0.0284136 -3.24455e-20)
(1.00448 0.00647524 4.22092e-20)
(1.1036 -0.00950964 2.15865e-20)
(0.958919 0.0157375 -1.46459e-19)
(1.00061 -0.000202963 -4.60462e-22)
(1.0933 -0.000167799 -6.66453e-21)
(1.06972 0.0136738 -7.27233e-21)
(1.01148 -0.0325348 1.6515e-21)
(1.00225 -0.00202264 -1.76841e-21)
(0.999997 -0.00024153 6.40641e-24)
(1.01905 -0.0395749 1.4642e-21)
(1.07857 0.0898855 2.45472e-20)
(0.995171 0.0631773 7.89562e-20)
(1.11127 -0.0182123 4.53962e-21)
(1.02513 -0.00849346 1.39515e-20)
(1.0088 -0.00507345 1.34293e-20)
(1.01921 0.0850861 6.45175e-21)
(0.983979 -0.000412037 1.57583e-20)
(1.10276 -0.111241 1.68175e-20)
(1.05668 0.0664617 -3.91839e-20)
(1.0913 0.00208805 7.34411e-21)
(0.964285 -0.00316894 -1.30112e-20)
(0.971353 -0.0275136 3.47389e-21)
(1.00001 5.65957e-08 -5.80409e-25)
(0.999994 -1.59833e-06 1.28883e-24)
(0.998584 -4.26714e-05 -6.5465e-22)
(0.998699 -0.00698166 1.0689e-21)
(0.993745 -0.0556217 -1.07932e-20)
(1.09673 -0.0773534 3.55635e-21)
(1.1098 0.0780659 3.53993e-20)
(1.01757 -0.00965787 7.17446e-21)
(1.0101 -0.0108427 2.51022e-21)
(1.00023 -0.00033903 2.88583e-22)
(0.999924 -0.000122613 2.75913e-23)
(1.00039 0.018849 -8.71882e-20)
(1.00028 -0.000894892 3.30905e-23)
(0.996149 -0.006647 5.42056e-24)
(1.02457 0.0873981 -1.99147e-20)
(1.00211 0.0248538 -9.03738e-20)
(1.0801 -0.0351251 3.85732e-21)
(0.975728 -0.00171593 5.39599e-21)
(0.983493 -0.030724 1.24255e-20)
(1.06677 0.0598402 5.35135e-21)
(0.999976 -2.43024e-05 6.05152e-24)
(0.999993 -8.34254e-07 -4.65259e-25)
(0.993203 -0.00451265 1.60046e-21)
(0.972119 -0.0268589 -1.96741e-20)
(1.00003 -0.000126192 -2.10627e-23)
(0.999998 -3.31443e-05 -1.34989e-24)
(0.996102 -0.00299068 -5.11896e-22)
(0.999998 -0.000238162 -5.36382e-24)
(1.00316 -0.00329381 -1.00722e-21)
(1.02285 0.088323 2.25711e-20)
(0.984229 -0.000161138 -1.33476e-20)
(1.03341 -0.0663438 -2.06125e-21)
(0.997117 -5.00707e-05 2.68415e-21)
(1.00119 -0.00153253 1.03646e-22)
(0.984228 -0.00631188 1.83814e-20)
(0.999555 -0.00352399 -8.78037e-23)
(1.10399 -0.00249461 -1.74448e-20)
(0.999992 -5.37921e-06 8.95628e-24)
(1.00878 -0.0221134 2.01588e-22)
(1.01287 0.0454149 3.01997e-20)
(0.99621 -0.00747015 -1.61218e-22)
(1.09753 -0.109232 -1.61564e-20)
(1.01401 0.0248707 -2.77963e-20)
(0.996384 -0.0016479 -3.89241e-21)
(0.989618 -0.00917472 4.91383e-21)
(1.00227 -0.0020405 2.68764e-21)
(0.999518 -0.0048989 -4.85874e-22)
(0.999851 -4.43724e-06 2.92991e-23)
(1.0036 -0.0103804 8.01702e-22)
(0.95681 0.00770383 6.10587e-20)
(1.00078 0.0181674 6.72737e-20)
(0.991748 -0.00362058 1.30998e-22)
(0.996349 -0.00653981 -1.63443e-21)
(0.986427 0.0183272 -6.32914e-20)
(1.00775 0.0153447 1.28685e-20)
(0.957069 -0.0109045 1.21942e-20)
(1.00062 -0.000310992 -3.60967e-22)
(1.05101 -0.0524261 5.2779e-22)
(0.984459 -0.0527994 1.45095e-20)
(0.999282 -0.00979309 8.90558e-22)
(1.00048 -0.000612294 -5.77611e-22)
(1.01991 0.0868228 9.21234e-21)
(0.996241 -0.00301639 -3.55505e-22)
(1.00382 -0.00298892 -1.11072e-21)
(0.99264 -0.0553137 1.4009e-20)
(1.00387 -0.0715557 1.58486e-21)
(0.999981 -5.18306e-07 2.16896e-24)
(0.985144 0.0495334 -7.66573e-20)
(0.999435 -1.63614e-05 -6.2932e-24)
(0.999998 -2.7253e-05 -2.97357e-25)
(0.999703 -0.000117745 4.33341e-23)
(0.999984 -0.0317077 -2.82892e-21)
(1.10602 0.0556394 -3.08947e-20)
(1.00916 -0.0216273 2.60678e-22)
(1.00363 -0.00275099 -7.63718e-22)
(0.998821 -0.000140631 9.17604e-22)
(0.957901 -0.0121643 -2.06362e-21)
(1.00003 -0.000258228 -4.76857e-24)
(1.00026 -0.000925192 2.92609e-24)
(0.998723 -0.000109825 -6.03822e-22)
(1.01456 -0.000442543 2.67224e-20)
(0.998485 -0.0022653 -1.852e-22)
(0.999421 -0.0033084 2.99259e-22)
(1.0146 -0.000893401 1.37436e-20)
(1.00007 -0.000225522 3.07993e-23)
(1.00001 -8.10245e-07 1.98785e-24)
(1.00287 -0.000380633 3.96734e-22)
(0.985973 -0.01981 -6.12984e-21)
(0.985962 -0.000262702 -6.45773e-21)
(0.997317 -0.000201692 -2.85139e-21)
(1.00794 0.00165355 2.21311e-20)
(0.990962 -0.00066038 3.05122e-21)
(1.01039 -0.0107088 -2.34003e-21)
(0.999988 -5.11631e-06 7.84848e-24)
(0.998326 -0.00147449 -1.09687e-21)
(1.00046 -0.000598088 6.24984e-22)
(1.05013 -0.0501684 3.09343e-22)
(1.04668 -0.11518 1.8285e-20)
(0.999244 -6.2058e-05 4.70425e-22)
(1.00024 -0.000311228 -2.22894e-22)
(0.999394 -0.00318419 -1.02937e-22)
(1.00204 -0.0044536 -1.56881e-21)
(0.993796 -0.000356305 -5.54418e-21)
(0.999975 -2.08665e-05 -3.95733e-25)
(1.15582 -0.0452215 3.04013e-21)
(1.00003 -0.000271594 6.46253e-24)
(1.01444 -0.000457253 -1.88284e-20)
(0.998106 -0.00132546 -5.65875e-22)
(1.00007 -0.00021228 1.26717e-23)
(1.01847 0.00721313 -1.80761e-20)
(0.981033 -0.050705 -1.52953e-20)
(1.00013 -2.54134e-05 1.22527e-22)
(1 -4.94808e-06 9.40507e-26)
(0.964171 -0.00227857 -1.48615e-20)
(1.03422 -0.106252 -2.88162e-21)
(0.995155 -0.00477638 -4.20409e-22)
(1.01089 -0.0332453 -4.91801e-22)
(1.01817 -0.0100832 -1.17655e-21)
(1.016 0.0458042 3.68843e-21)
(1.00003 -4.6902e-05 5.54638e-24)
(0.986293 -0.0193393 6.3124e-21)
(1.13289 0.00899257 -2.04826e-20)
(0.979163 0.025563 1.57562e-21)
(0.996212 -0.0072823 1.24177e-21)
(1.01364 0.0237232 3.39612e-20)
(1.06923 -0.0122332 2.36901e-21)
(0.999848 -0.00138769 -2.72736e-23)
(0.921763 0.0216323 7.81931e-20)
(0.999702 -0.000241045 -2.95682e-22)
(1.03334 -0.068709 -3.20407e-21)
(0.95863 -0.012132 1.46956e-20)
(1.00127 -0.00145485 -5.69272e-22)
(1.1036 0.0282373 2.33536e-20)
(0.995149 -0.00055579 -3.2897e-21)
(0.995336 0.0679071 5.62228e-20)
(0.998048 -0.000160336 2.53379e-22)
(0.989919 -0.00985261 -2.55742e-22)
(0.99987 -0.00129591 -2.25896e-22)
(1.04295 0.0779096 1.12209e-20)
(1.00041 -0.00972125 1.98446e-22)
(1.01334 0.054311 2.46651e-21)
(0.999729 -1.42684e-05 -1.12965e-22)
(0.99669 -0.00112902 -1.2401e-21)
(0.976808 0.0598623 -3.23062e-20)
(1.01742 0.000516958 -2.27727e-20)
(1.01469 -0.000238715 1.59459e-20)
(0.983465 -0.0252825 1.53395e-20)
(0.999921 -1.59671e-05 2.95817e-23)
(1.00204 -0.00418958 -1.84899e-22)
(0.999905 -0.000523593 -8.1341e-23)
(0.999998 -2.58462e-05 -1.04923e-25)
(1.03035 0.00551692 6.85083e-21)
(1.00002 -2.75124e-06 2.41372e-25)
(0.988494 -0.00884417 1.15112e-20)
(1.13144 0.00592979 1.86663e-20)
(0.946888 0.0485553 -7.46601e-20)
(0.996504 0.063591 -1.25748e-19)
(0.982868 -0.0435919 4.7683e-21)
(0.992392 -0.0180074 3.68232e-21)
(0.986712 -0.000924326 3.09226e-21)
(1.02092 -0.0200683 6.83637e-21)
(1.00406 -0.0101957 -1.17009e-21)
(0.989523 -0.00959764 -6.78055e-21)
(0.983605 -0.0478426 2.07461e-21)
(1.0152 0.046565 -5.7289e-20)
(0.999508 0.0210408 1.05682e-19)
(0.999296 -8.218e-05 2.58914e-22)
(1.00115 0.0331598 -1.05282e-19)
(1.02984 0.00450645 2.54328e-21)
(1.10575 -0.00636365 -6.00147e-21)
(1.00833 -0.00876718 1.08761e-21)
(1.0007 -0.00912992 -6.37746e-22)
(1.01544 -0.0300434 -1.96187e-22)
(0.99694 -0.00108226 -2.94391e-21)
(0.998526 -0.000387524 -1.9414e-22)
(0.999972 -7.32112e-06 3.62741e-23)
(0.999384 -0.00497244 7.15892e-22)
(1.05753 -0.0166179 1.12138e-21)
(1.04231 0.0800432 -1.75736e-20)
(1.00086 -0.000731732 2.71814e-22)
(0.984214 -0.0162426 -9.22419e-21)
(1.00907 -0.00893647 -3.47897e-21)
(0.99998 -8.52082e-06 -3.06618e-24)
(0.983205 -0.0456412 -7.56351e-21)
(0.93699 0.0376387 -3.66415e-20)
(0.996445 -0.00281715 4.344e-21)
(0.999315 -0.00257904 2.60682e-22)
(1.0085 -0.00873781 -6.79271e-22)
(1.00363 -0.0272905 4.28949e-21)
(1.043 0.0215034 8.75443e-21)
(0.99987 -0.00561234 -1.31279e-22)
(0.999983 -2.82663e-05 1.88156e-23)
(1 2.19699e-07 7.59622e-25)
(0.998511 -0.000350113 -2.14253e-22)
(0.975999 0.0592125 4.65832e-20)
(1.02924 -0.0140553 4.13272e-21)
(1.05011 -0.113451 -5.33167e-21)
(1 -4.64116e-06 -2.02842e-26)
(1.0325 -0.109307 2.03946e-21)
(1.0444 0.00354443 -1.18728e-20)
(0.997066 -8.45275e-05 -1.33896e-21)
(0.960221 -0.00433575 -1.83016e-20)
(0.999358 -0.00255211 -2.62268e-22)
(0.99976 -0.000110364 -1.87168e-23)
(0.986754 -0.0174862 -1.94272e-21)
(1.00052 -0.000658141 -2.78882e-22)
(1.10574 0.000447385 1.63767e-20)
(1.00522 -0.00085197 -7.85406e-21)
(1.08094 0.0764505 -2.23544e-20)
(0.999827 -0.00138078 3.55339e-23)
(1.00267 -0.00799792 3.63848e-22)
(1.00407 0.00576884 -5.73332e-20)
(1.15086 0.0267373 1.46272e-20)
(1.00022 -0.000317673 -1.70031e-22)
(1.00023 -0.000287663 1.68351e-23)
(0.993302 0.042867 4.92453e-21)
(0.99896 -0.0321933 -1.63235e-21)
(0.999804 -0.00552926 1.59647e-22)
(1.00707 0.0170646 6.70607e-21)
(0.983476 0.00905995 1.21827e-19)
(1.07982 -0.0404963 3.46097e-21)
(0.999864 -0.0153283 -7.24689e-22)
(1.10317 0.0548717 3.0947e-20)
(0.999586 -3.81203e-05 -1.97189e-22)
(0.994999 -0.00251356 1.18007e-21)
(0.998085 -0.000160483 -7.26392e-22)
(1.0081 0.0144171 1.15798e-22)
(0.999985 -0.000431742 1.83364e-24)
(1.00509 -0.00101262 8.02519e-21)
(1.11143 -0.0651318 1.68807e-22)
(0.994439 0.0596873 1.20627e-19)
(0.957405 0.0565136 -1.79244e-20)
(0.996494 -0.00162907 1.45002e-22)
(0.995017 -0.00470373 1.26539e-21)
(1.02103 0.0547789 -3.70335e-20)
(1.00925 -0.0349685 4.14623e-21)
(0.999973 -7.01743e-06 -3.53804e-23)
(1.09556 0.0852944 5.25571e-20)
(1.01459 -2.03102e-05 -7.9522e-21)
(1.014 0.000285536 -5.33883e-21)
(0.99677 -0.0080173 -1.7268e-21)
(1.01048 -0.00181715 -1.19459e-20)
(0.972949 0.0523612 1.79796e-20)
(1.09436 -0.0853282 -1.43304e-21)
(0.9856 0.0534646 1.87502e-20)
(0.991988 0.05391 -3.38839e-20)
(0.999996 -3.53299e-05 3.83119e-25)
(1.05547 -0.0164758 -4.21489e-21)
(1.09413 -0.0814608 8.15094e-22)
(0.998407 -0.00227018 4.88513e-22)
(1.00091 -0.000793005 -4.46392e-22)
(0.981049 0.0103821 2.89232e-20)
(1.03058 -0.0141847 -5.39991e-21)
(1.00016 -4.096e-05 2.75821e-23)
(0.990674 -0.0378434 -1.70688e-20)
(0.984039 -0.0543335 -6.91627e-21)
(0.996758 -0.00116827 1.74473e-21)
(0.99993 -0.000121078 -3.48639e-23)
(1.01558 0.0642755 -6.41288e-21)
(1.01847 0.0284743 5.38402e-20)
(1.00003 -0.000289643 -1.57946e-24)
(1.00241 -0.00211396 3.47236e-22)
(1.003 -0.00202201 1.87948e-21)
(1.13039 -0.0307998 -7.1076e-21)
(0.983437 -0.0245832 -1.39561e-20)
(1.00003 -0.000341754 -1.51328e-23)
(0.999993 -6.8841e-07 -7.6099e-25)
(1.00028 -0.000109242 4.31109e-23)
(1.04177 0.0219956 -8.9488e-22)
(0.983524 -0.0167664 -7.33676e-21)
(1.00067 0.0278333 2.48895e-20)
(0.966948 -0.0305532 8.42225e-21)
(0.992813 -0.0178479 -3.96677e-21)
(0.98561 -0.000766139 -1.25467e-20)
(1.00788 0.0163987 -3.29712e-20)
(1.11348 0.0478048 1.95797e-21)
(0.999319 -9.00883e-05 4.74235e-22)
(1.00461 -0.00343056 -2e-21)
(1.00049 -0.000660042 3.16133e-22)
(0.984471 0.0586153 -4.73655e-20)
(0.984796 -0.015164 3.97765e-21)
(1.00061 -0.00017155 -1.50166e-22)
(0.995588 -0.00220843 -1.59149e-21)
(1.09269 0.00613428 1.30606e-20)
(0.999884 -0.00603211 -3.21082e-22)
(0.993207 -0.00779647 -8.6329e-22)
(1.00013 -8.39551e-05 -8.46701e-23)
(1.00013 -2.85405e-05 -3.77035e-24)
(0.935361 0.0401635 5.52379e-20)
(0.995146 -0.000827893 -2.04124e-21)
(0.997161 -0.00292925 1.75808e-21)
(0.999752 -0.0011146 -1.99651e-22)
(0.999595 -2.85517e-05 -2.69751e-23)
(1.01924 0.0452284 -1.98904e-20)
(1.11583 -0.0645791 6.74068e-23)
(0.992066 -0.0270711 2.22788e-21)
(1.00001 -4.32787e-07 -7.13845e-25)
(0.999999 -2.04478e-05 -8.5041e-26)
(0.984195 -0.0156874 1.04047e-20)
(0.995996 -0.00117101 4.19925e-22)
(0.996951 -0.00133371 -2.4166e-22)
(1.00797 -0.00252878 3.79615e-21)
(1.00322 -0.00121829 6.75573e-22)
(1.00054 -0.00996232 -3.25454e-22)
(1.07343 0.00333981 1.96393e-20)
(0.988807 -0.00281718 -2.57039e-21)
(0.986604 0.0523158 -1.59862e-20)
(1.00948 -0.0153821 -1.34938e-21)
(1.00014 -8.38501e-05 9.40124e-23)
(0.982248 -0.0428244 7.19282e-22)
(0.99078 -0.0238798 -8.19618e-21)
(1.09692 0.0279572 1.44825e-20)
(0.99826 -0.00375873 -5.08822e-22)
(0.994988 -0.0316257 -2.56651e-21)
(0.999988 -4.01981e-06 5.02877e-24)
(0.96371 0.0414136 -6.05407e-20)
(1.00873 -0.00109164 6.79051e-21)
(1.00004 -0.000142604 -3.16689e-23)
(0.956942 0.0107875 -7.93511e-20)
(0.99148 -0.0273293 5.07601e-21)
(0.999988 -4.35656e-06 8.36698e-25)
(1.00086 -0.000749593 1.3133e-22)
(0.982473 -0.0447677 -4.22282e-21)
(1.02502 -0.0203192 2.2788e-21)
(1.02777 -0.00496885 9.07425e-21)
(0.999996 -1.55409e-06 1.02238e-24)
(0.995172 -0.000398015 1.6165e-21)
(1.01572 -0.0291774 -6.16159e-22)
(0.996848 -0.00106815 2.41617e-21)
(0.999739 -2.12685e-05 -6.14122e-22)
(0.995088 -0.00259926 3.91606e-23)
(0.985141 0.0183455 7.31769e-21)
(0.995894 -0.00784501 -2.20661e-21)
(0.99348 -0.00762733 6.3968e-22)
(1.00136 0.0205283 -2.66502e-20)
(0.998399 -0.00139045 5.77389e-22)
(0.981905 0.0592063 -5.81234e-21)
(0.999988 -4.45855e-06 -2.60069e-24)
(0.994147 -0.0177875 1.57102e-21)
(0.991842 -0.0525494 1.53892e-20)
(0.995632 -0.0317989 4.2973e-21)
(1.13283 -0.00326256 -4.06003e-21)
(0.999358 -0.00341947 6.7531e-22)
(1.00605 -0.014547 8.87381e-22)
(1.00002 -0.00145817 1.01981e-23)
(0.989891 -0.014031 -4.93262e-21)
(1.02636 -0.0225402 1.0829e-21)
(0.999981 -7.17964e-06 1.55746e-23)
(1 1.95542e-06 -1.242e-24)
(0.996233 -0.000254423 1.11105e-21)
(0.987641 0.0369558 4.8374e-20)
(1.0079 -0.0118522 4.69333e-21)
(1.00152 -0.00216117 -5.5686e-22)
(0.957689 -0.0228382 1.27056e-20)
(1 -4.64171e-06 -1.50676e-25)
(1.00058 -0.000713994 -5.05792e-22)
(0.999972 -0.000410127 -7.18068e-24)
(1.00904 -0.0112352 4.87949e-21)
(0.989884 -0.0102903 8.9893e-22)
(0.999782 -0.000170987 7.75463e-23)
(0.995938 -0.00703261 7.93496e-22)
(0.992512 -0.00447158 -9.48674e-22)
(1.00059 -9.88255e-05 -4.12901e-23)
(0.999987 -5.29884e-06 -1.63194e-24)
(1.12598 0.0233214 2.2949e-20)
(0.999772 -0.00110623 2.143e-22)
(1.04378 0.000283951 9.3703e-21)
(1.00126 0.0593895 1.28351e-19)
(1.01893 0.0536466 -3.33139e-20)
(1.00078 -0.0128851 -1.23522e-21)
(1.00307 -0.00107229 -2.24492e-22)
(1.01052 -0.00133233 7.33297e-21)
(1.00003 -0.00151456 -1.16672e-23)
(0.998715 -0.00651358 7.79149e-22)
(1 -8.66596e-06 2.2057e-26)
(0.990903 0.0538524 -2.60359e-21)
(0.992759 -0.0102715 1.22056e-21)
(1.00763 -0.00225771 -2.71104e-21)
(0.989106 -0.00292762 5.36944e-21)
(1.00243 -0.00780779 3.01901e-23)
(0.99837 -0.00372355 1.12185e-21)
(0.99994 -0.000121783 7.94936e-24)
(1.00001 8.54683e-08 -6.42171e-24)
(0.99727 -0.00290896 -1.28029e-21)
(1.03263 -0.00428481 -5.17872e-21)
(1.00335 0.0261534 4.09166e-21)
(1.00071 -0.000307689 -6.12575e-22)
(0.98525 -0.0396132 -3.83721e-21)
(0.984765 -0.0147004 -1.7598e-21)
(0.995263 -0.000341166 -6.09092e-21)
(1.10799 0.0754554 -2.24567e-20)
(0.999245 -0.000602149 -2.87184e-22)
(1.00235 -0.00892513 -1.17066e-21)
(0.996697 -0.00175457 1.22247e-21)
(0.999943 -0.000117025 6.8815e-24)
(0.982784 -0.0468733 4.73038e-21)
(1.00173 0.0278496 -3.95317e-20)
(1.01476 0.0218093 -3.54087e-20)
(0.986074 -0.00989269 -8.43056e-22)
(1.00029 0.0276071 -1.82905e-21)
(1.00004 -0.000131885 6.17789e-23)
(1 6.79957e-07 2.05977e-24)
(1.09491 0.0830779 -1.94225e-20)
(1.1006 0.0296667 -1.61988e-20)
(0.957202 0.041806 -3.0363e-21)
(1.00391 -0.0539818 9.8878e-21)
(0.985749 -0.00104648 -3.9248e-21)
(1.09031 0.00884104 -1.84689e-20)
(1.00069 -0.000345032 6.93524e-22)
(0.996591 -0.00238003 7.00032e-22)
(1.00026 -0.000122276 -4.11303e-23)
(0.993511 -0.000481016 -1.31409e-21)
(0.992898 -0.00837468 -1.80309e-21)
(0.999996 -1.79351e-05 -1.64831e-24)
(0.999489 -2.04816e-05 1.1207e-22)
(0.994565 0.0584112 -1.18019e-19)
(0.999916 -0.000429484 7.81592e-23)
(0.967807 0.0379102 7.68024e-20)
(1 -6.72239e-06 -9.4375e-27)
(1.13606 0.0510331 2.48789e-20)
(1.04422 -0.000650172 -1.94747e-20)
(1.07243 0.00483582 -2.16455e-20)
(1.00061 -0.000353263 4.17213e-23)
(1.0001 -2.39776e-05 7.57725e-23)
(0.989349 0.0343007 -7.37999e-20)
(1.04509 0.00221217 3.8325e-20)
(0.991528 -0.0536302 -1.39353e-20)
(1.01119 0.0212616 1.58641e-20)
(0.999194 -0.0131002 6.15743e-22)
(0.991843 -0.00339089 -1.38054e-21)
(0.997589 -0.000162593 -7.35846e-22)
(1.04174 0.0918718 -8.05296e-20)
(0.985552 -0.017666 6.31711e-21)
(1.02107 -0.0190563 -4.3538e-21)
(0.9961 -0.00702797 -4.53685e-22)
(1 -4.3622e-06 9.94592e-27)
(0.999249 -0.000557631 -2.43066e-22)
(1.00346 -0.00355021 1.2043e-21)
(0.988718 -0.00516296 6.92391e-21)
(0.986459 -0.00996487 1.25587e-21)
(0.973184 -0.0273529 -1.88393e-21)
(0.988613 -0.00550774 -5.25049e-21)
(1.01157 0.00161028 3.01923e-21)
(0.998756 -8.01934e-05 1.5068e-23)
(0.961464 -0.0260721 6.44147e-21)
(0.991397 -0.000566725 -1.90088e-21)
(1.00002 -0.000129821 1.05842e-23)
(0.992532 -0.0004563 -1.31574e-21)
(1.02173 -0.0207808 -7.82393e-21)
(1.01103 0.00174419 -1.66983e-20)
(0.984229 -0.0178212 -1.58583e-21)
(0.999995 -1.73689e-06 -1.57859e-26)
(0.98939 -0.0105193 1.33955e-21)
(1.00142 -0.00904256 -3.17113e-23)
(1.00082 -0.000701945 1.6787e-22)
(1.11109 -0.0809473 -3.05459e-21)
(1.00081 0.027878 -9.05957e-20)
(1.00054 -0.000713282 4.69397e-22)
(0.992655 -0.000328496 1.93495e-23)
(1.07438 -0.0418824 -5.09807e-22)
(1.01505 0.000379869 2.71084e-20)
(0.991999 0.0158399 -7.87661e-21)
(1.00112 -0.00151867 1.4981e-22)
(1.00072 -0.0134725 3.93073e-22)
(1.03579 0.0692355 -1.17237e-20)
(1.00946 0.0131187 -8.33539e-20)
(0.994822 -0.0176913 4.11063e-21)
(1.00289 -0.00209592 -2.10359e-22)
(0.970272 -0.032664 8.56554e-21)
(0.999997 -9.55306e-07 3.4465e-25)
(0.968849 -0.001455 -6.69209e-21)
(1.00004 -4.18167e-05 1.10806e-23)
(1.07282 -0.0432177 6.0933e-21)
(0.999983 -1.43414e-07 -1.74455e-24)
(1.00001 -3.57105e-05 7.36792e-24)
(1.00041 -0.0149625 -4.59964e-22)
(1.11622 0.0541092 -2.00077e-20)
(1.00506 0.0753217 5.53526e-20)
(1.02386 -0.021022 -1.26499e-20)
(1.00878 -0.00911404 2.31326e-21)
(0.999999 -6.74377e-07 -6.97627e-26)
(0.996302 -0.00284341 -2.34617e-21)
(1.00005 -1.34412e-05 -8.07298e-24)
(0.998113 -0.00150772 8.20431e-22)
(1.00001 -3.30885e-05 -5.75435e-24)
(1.02813 -0.00409503 -2.83556e-20)
(0.999724 -0.000285776 -3.04099e-22)
(1.02634 0.0311326 3.63868e-20)
(0.999936 -0.000132614 -5.52652e-23)
(0.992169 -0.00331429 -2.34917e-21)
(0.973932 -0.000730649 1.5272e-20)
(0.997463 -0.00015966 -9.49798e-22)
(0.98866 0.0200902 7.57844e-20)
(0.989403 -0.000512017 3.63635e-21)
(1.02412 -0.066943 5.75441e-22)
(0.996685 -0.00248596 3.61544e-21)
(1.0148 -0.00127116 -5.90847e-21)
(0.983476 -0.0403661 1.64346e-20)
(1.01159 -0.00105592 -2.02304e-20)
(1.03058 -0.0424224 -8.34729e-23)
(0.999992 5.197e-07 2.26021e-25)
(0.999919 -0.0127373 4.55499e-22)
(0.997634 -0.000212916 1.15383e-22)
(1.00014 -5.95294e-05 5.62929e-23)
(1.00005 -1.06353e-05 1.37445e-23)
(1.04337 0.0935616 8.76791e-20)
(0.997049 -0.00134211 2.03804e-21)
(1.0151 0.00146917 3.07279e-20)
(1.00102 -0.0136895 4.57387e-22)
(1.00051 -0.000198291 1.6007e-22)
(1.01364 -0.00388498 -2.25845e-20)
(1.00009 -1.91295e-05 -1.69192e-22)
(0.99999 -3.47237e-06 -2.45369e-25)
(0.969257 -0.00192257 5.17702e-21)
(0.997926 -0.000760411 9.23384e-22)
(1.00002 -3.2885e-05 8.2701e-24)
(1.02405 0.0539639 2.59199e-20)
(0.942459 0.0327744 -1.04409e-19)
(0.999883 -0.000143357 1.38248e-22)
(0.975133 -0.00147697 -4.21431e-21)
(1.00001 1.22165e-06 1.43544e-24)
(0.971419 0.0511714 -7.24972e-20)
(1.1391 0.0539009 2.94499e-20)
(0.983037 -0.0321088 -1.41185e-20)
(1.00003 -0.000335325 -1.68979e-23)
(1.02021 -0.0184414 9.70107e-21)
(1.01711 -0.000390463 -8.09143e-21)
(1.01777 0.000558549 2.31363e-21)
(1.0284 -0.00539706 -3.60104e-21)
(0.999844 -0.00118649 -3.71397e-23)
(0.999912 -0.00052409 6.36071e-23)
(0.991633 -0.0102499 -3.94807e-21)
(1 -4.15176e-06 -1.01406e-24)
(1 -3.21901e-07 -3.62453e-25)
(0.984986 -0.0173841 -3.74999e-21)
(1.00148 -0.0407521 -5.63578e-21)
(0.973996 -0.026797 -4.92848e-22)
(0.950708 0.0470765 -1.89459e-21)
(1.00011 -1.2998e-05 -6.98644e-23)
(1.0159 -0.0498326 -8.83063e-21)
(1.00445 -0.00319094 -2.06237e-21)
(0.99999 -3.40591e-06 2.70893e-24)
(0.999375 -0.00242994 -5.88221e-22)
(1.00003 -0.000285417 -1.05985e-23)
(0.997413 -0.00805429 1.30567e-21)
(1.00002 -5.3551e-06 8.30559e-24)
(1.03159 -0.0413561 -3.05207e-23)
(1.0115 -0.00131573 1.96354e-20)
(0.982724 0.0580985 1.64067e-20)
(1.01423 -0.00122227 2.21755e-20)
(0.999847 -0.000132053 1.11913e-22)
(1.00026 -0.000245875 -1.61772e-22)
(1.13176 -0.0348602 6.77062e-21)
(1.01479 0.0011431 -2.47257e-20)
(0.998156 -0.00024822 8.23476e-22)
(1.00001 -1.78423e-06 3.02616e-24)
(1.03258 0.0502648 -4.42069e-20)
(1.08746 -0.112155 -2.95318e-21)
(1.00383 -0.0527466 -4.27565e-21)
(0.991162 -0.000480501 -1.01513e-21)
(0.999992 -8.00515e-06 4.84387e-24)
(0.99985 -0.000122456 -6.54096e-23)
(1.09291 -0.113752 8.63026e-21)
(1.00079 -0.032216 -1.58587e-21)
(1.01972 0.0161236 5.0759e-21)
(0.986723 0.0504077 6.8893e-20)
(1.02291 -0.0652115 4.87456e-21)
(0.999269 -4.34292e-05 -1.47712e-22)
(0.999991 -3.41922e-06 -5.78998e-24)
(0.977748 -0.0347812 1.40347e-20)
(0.989825 -0.0700467 -1.60581e-20)
(0.999886 -0.00014558 7.48435e-23)
(1.0066 -0.0143289 2.85242e-21)
(0.995016 -0.0171926 -6.95364e-22)
(0.997206 -0.00143467 8.0308e-22)
(0.997937 0.0233397 -6.16765e-20)
(0.999244 -0.000361872 5.23907e-22)
(1.03632 -0.028341 2.62322e-21)
(1.07548 0.093497 -4.35106e-20)
(0.995337 -0.00210598 -2.32224e-21)
(0.956452 0.039356 -1.08455e-20)
(0.959913 0.0189869 3.33965e-20)
(0.999986 -2.94405e-05 -1.87296e-23)
(0.999981 -0.000450001 -3.44317e-24)
(0.989546 -0.000668875 -2.33287e-21)
(1.00775 -0.0031969 -4.89187e-21)
(0.97621 -0.00134733 8.70473e-21)
(1.00308 -0.00258096 -2.1654e-21)
(0.995513 -0.00210883 2.17622e-21)
(0.999667 -0.000320017 -2.30588e-22)
(0.975358 0.0515489 -1.29846e-20)
(1.02657 0.0301592 -5.67617e-20)
(1.00136 -0.00145645 3.83596e-22)
(0.924801 0.0206097 -2.02318e-20)
(1 9.73991e-07 -2.11925e-24)
(1.01422 0.0034839 -4.18837e-20)
(1.00113 -0.0665695 1.02721e-20)
(1.0175 -0.049603 3.38969e-21)
(1.00005 -0.000127642 -3.177e-24)
(0.975019 -0.000779256 7.18159e-21)
(1.01215 0.00252313 2.33634e-20)
(1.00761 -0.00358638 4.05553e-21)
(1.01711 -0.000306066 1.1131e-20)
(0.999746 -1.52053e-05 4.33335e-22)
(0.99972 -0.000308244 2.75671e-22)
(1.0177 -0.0279556 -7.96429e-22)
(0.997953 -0.000832227 -2.63503e-21)
(0.992372 -0.00769148 -4.25362e-21)
(0.999459 -0.00221307 3.49214e-23)
(1.04037 0.0256993 3.17973e-20)
(0.999913 -0.0133388 -3.24449e-22)
(0.996993 -0.00307999 3.79426e-23)
(0.955227 -0.0193897 -1.90238e-20)
(0.994468 0.0429553 8.08608e-21)
(1.07001 -0.00874556 -1.76865e-20)
(1.01314 -0.00378562 1.81584e-20)
(0.99977 -0.000111607 8.27218e-23)
(0.999704 -0.000197364 3.71537e-23)
(0.989409 -0.0138914 1.00048e-20)
(1.00059 -0.000776473 -3.76102e-22)
(0.998477 -0.00043481 -1.49723e-22)
(0.999993 -8.61271e-06 -1.75987e-24)
(0.999846 -0.00120673 8.52132e-24)
(1.01183 0.00234775 -9.05758e-21)
(0.989134 0.0358173 -7.06305e-20)
(0.999932 -1.00851e-05 1.75198e-23)
(1.05474 0.0901604 -7.85252e-20)
(0.999996 -2.28612e-05 7.14795e-25)
(0.998061 -0.00177524 1.11632e-21)
(0.999997 -5.49935e-05 1.55521e-24)
(1.00311 -0.00221172 -9.57512e-22)
(1.12907 0.0218204 -1.7011e-20)
(0.999981 -2.32762e-05 1.70892e-24)
(0.999978 -2.69318e-05 1.19018e-23)
(0.966208 -0.0309201 -8.03634e-21)
(1 -4.23058e-06 -2.46584e-26)
(1.03058 -0.00462021 3.04132e-20)
(0.993653 -0.027594 7.03669e-21)
(0.999979 -0.000391705 6.38353e-24)
(1.03502 0.040996 -3.45943e-20)
(0.999999 -1.74855e-05 -3.64512e-26)
(0.999778 -1.91839e-05 3.8107e-22)
(0.999955 -2.06274e-05 6.87704e-25)
(0.997109 -0.00312085 -6.58353e-22)
(0.999792 -0.000947534 -1.07881e-22)
(0.996298 -0.000177 -7.46407e-22)
(1.01079 -0.080432 -1.20719e-21)
(0.999814 -0.000922493 7.09968e-23)
(1.00253 -0.00209631 -7.44869e-22)
(0.99999 -2.78054e-06 -1.05114e-24)
(1.00617 0.0741815 -1.08058e-19)
(1.03552 -0.0292771 6.73404e-21)
(1.07205 -0.00864748 -2.71951e-21)
(0.977996 -0.00404435 9.42624e-21)
(0.98596 -0.00283205 -1.70423e-21)
(0.999429 -0.00238187 9.6718e-22)
(1.00175 -0.00160392 1.04109e-21)
(1.01987 0.0356422 1.4628e-20)
(0.990377 -0.0246097 1.11641e-21)
(1.04705 0.0644244 1.79232e-20)
(0.972368 -0.0094041 -1.70399e-20)
(0.997992 -0.00171327 -1.05349e-21)
(0.999996 -1.53181e-06 -1.89269e-24)
(0.99658 -0.0017604 -1.47479e-21)
(0.99672 0.0690425 2.60639e-20)
(1.0302 0.0432268 -7.93562e-21)
(0.991638 -0.0374492 5.67829e-21)
(0.961953 -0.00401198 4.01705e-21)
(1.00894 0.0712731 2.97479e-20)
(0.994899 -0.000372113 1.94129e-21)
(0.996947 -0.0610966 8.05705e-22)
(0.999997 -5.0652e-05 1.59941e-24)
(0.992958 -0.0278094 8.87932e-21)
(0.999527 -0.000141785 -5.56194e-22)
(0.929778 0.0351401 -5.84446e-20)
(0.990893 -0.0498783 -1.21212e-20)
(0.999957 -1.7334e-05 3.15972e-23)
(0.959504 -0.0133544 -1.08794e-21)
(0.99047 -0.0260774 5.48023e-22)
(1.01215 0.0364975 4.9926e-20)
(0.998496 -0.00047127 -1.42039e-21)
(0.989095 -0.0252535 -3.33708e-21)
(0.998596 -0.00667651 -1.07471e-21)
(1.00047 -0.0144208 -9.82436e-22)
(0.999269 -0.000360953 -3.5803e-22)
(1.01189 0.0357793 -6.06049e-20)
(1.04194 -0.112426 8.41842e-21)
(0.989338 -0.0109279 -2.97923e-21)
(0.991932 -0.00948852 6.11089e-23)
(0.992237 -0.0031206 -9.39753e-22)
(1.00313 -0.00142489 -8.7337e-22)
(1.01006 0.0696958 1.1831e-19)
(0.989304 -0.00895705 1.3712e-21)
(1.0081 0.0193279 3.44452e-20)
(1.0016 -0.00131559 7.93358e-22)
(1.13486 0.000521412 -2.80401e-22)
(0.965924 0.0407695 1.09546e-20)
(0.994805 -0.000301453 -6.67442e-21)
(0.999876 -2.40093e-05 7.37669e-23)
(1.01817 0.0463803 1.54404e-20)
(0.993666 0.0559992 -9.49989e-20)
(1.01702 -0.0268988 1.47207e-21)
(1.05232 -0.0187454 2.18337e-21)
(0.997255 -0.00847517 -1.42128e-21)
(0.978336 -0.0036407 -5.56957e-21)
(1.03492 0.0677883 4.81344e-20)
(0.976893 -0.0350014 2.57319e-21)
(0.999991 -6.95679e-06 6.33964e-24)
(0.995586 -6.68418e-05 -3.43947e-21)
(1.00002 -2.5872e-06 8.3718e-24)
(0.997363 -0.000139777 2.57317e-21)
(0.999991 -9.61392e-06 -9.81377e-24)
(0.998916 -0.0092708 1.71103e-21)