/*--------------------------------*- C++ -*----------------------------------*\
  =========                 |
  \\      /  F ield         | OpenFOAM: The Open Source CFD Toolbox
   \\    /   O peration     | Website:  https://openfoam.org
    \\  /    A nd           | Version:  7
     \\/     M anipulation  |
\*---------------------------------------------------------------------------*/
FoamFile
{
    version     2.0;
    format      ascii;
    class       volScalarField;
    location    "24.5";
    object      p;
}
// * * * * * * * * * * * * * * * * * * * * * * * * * * * * * * * * * * * * * //

dimensions      [0 2 -2 0 0 0 0];

internalField   nonuniform List<scalar> 
19930
(
0.00148085
0.000115318
0.00118821
-7.40145e-05
-0.00320525
-0.00347418
-0.088917
0.352938
-0.0394894
0.333586
-0.085874
0.0400706
-0.0247835
0.0013108
-0.000617643
-7.80391e-05
-0.116233
0.200797
-0.0545004
0.000728593
-0.0367181
0.0490017
0.325048
-0.114317
-0.000508414
0.817932
-0.00194633
-0.0235246
-0.147536
-0.0563362
-0.000242143
1.03232
0.207718
-0.0119931
-0.000626464
-0.000394081
0.393893
0.000105318
-0.00526534
0.155033
0.00414839
0.290433
0.614944
-0.00189915
0.822307
-0.000727196
0.331115
-0.0410246
0.000138548
-0.0209447
-0.000644076
0.0244071
-0.106924
-0.00138411
-0.130742
-0.0109581
-0.0143741
-0.000546088
-0.0181525
-0.113424
0.913921
-0.00183554
-0.000593536
0.289426
0.00037038
-0.00268477
0.803367
-0.00276171
-0.0236636
0.809403
-0.00979209
-0.132235
-0.000564163
-0.0165456
0.817881
-0.0288551
0.793704
-0.0103101
0.154827
0.73768
-0.00237995
-0.00183477
-0.143462
-0.0368787
-0.000940275
0.624211
-0.0208121
1.16544
0.294287
0.882397
0.285132
-0.000158964
-0.000120784
1.10311
-0.0550058
-0.000204238
1.11612
-0.00131551
-0.0749683
0.454531
0.8946
-0.005246
0.922892
-0.0733315
0.0662737
-0.0268249
0.695326
-0.0470077
0.00276172
0.609078
-0.157006
-0.0883942
-0.0107575
-0.00297635
-0.0231637
-2.16051e-05
0.571671
-0.00234304
-0.0886595
0.722674
-0.000152924
-0.0424925
0.161701
-0.0229169
-0.0119964
0.200868
0.115484
-0.0227284
1.05028
0.592472
-0.0284001
-0.0193507
0.0043447
-0.00427913
0.713416
0.0564502
-0.00823783
-0.0402444
-0.00420588
-0.0468034
-0.0450877
-0.0181515
-0.147522
0.939374
-0.000342011
0.725026
0.177621
-0.00495163
0.104167
-0.00221137
-0.00393388
0.794164
-0.000109226
-0.0317384
-0.00175996
0.175359
0.642232
-0.12012
-0.0115192
-0.0262564
-0.141233
-0.0812294
-0.00035724
0.00907065
0.119752
1.15108
-0.00451356
-0.130427
-0.0276502
0.390344
-0.0148832
0.843149
0.527171
-0.0107529
1.20235
0.188904
0.000888314
0.883588
-0.0205921
0.648237
0.741203
9.98933e-05
0.943854
0.550817
0.000749764
-0.012683
-0.00854289
0.426514
-0.0736763
1.06089
0.126664
-0.0712523
0.470406
-0.0148839
-0.0128019
0.053305
0.934576
-0.0541846
9.75418e-05
1.07763
0.0141133
-0.121427
-0.0951749
1.03239
0.972411
-0.0134654
-0.0148514
0.026182
-0.0110638
0.000841536
0.791603
0.877955
-0.00686902
-0.0194131
0.63698
0.817085
0.00224458
0.722693
-0.0398946
-0.00327838
-0.0227486
0.651648
0.98178
0.292356
0.610806
-0.00513052
-0.013951
-2.48931e-05
0.00185019
-0.00247697
0.160035
-0.0657463
0.683569
-0.0457108
0.654175
-0.0197486
-0.020333
0.835024
1.1289
0.640139
0.784608
-0.0183761
0.337163
-0.0215683
0.0747377
-0.00190223
-0.15943
-0.0132915
0.0247934
0.000132816
0.00275936
0.994194
0.129817
-0.00621012
-0.0261966
-0.0637293
-0.107815
0.31638
-0.0439332
0.000692652
-0.0273049
-0.0103187
0.000447082
-0.0189053
-0.077487
0.935342
-0.0742275
-0.00982366
0.664562
0.964238
-0.020515
-0.000439096
-0.0330976
0.805334
-0.163722
0.905769
-3.2694e-05
-0.0214981
0.573662
0.788419
-0.0271055
-0.0129523
1.04792
-0.100487
-0.0724511
0.913841
1.05072
-0.0225563
0.580358
0.0840903
0.727292
0.512348
-0.000437035
-0.0873267
0.412888
0.000960245
-0.0560723
-0.0295202
-0.15932
0.0104598
0.00539306
-8.03856e-05
-0.000910434
0.872877
-0.00421897
-0.0699884
-0.0305366
0.0654071
-0.00245345
0.633974
0.0399012
-0.0289639
-0.0121342
0.361866
0.0783441
-7.40803e-05
0.88601
0.594368
0.872796
-0.120474
0.000389933
1.03554
-0.00110683
-0.019131
0.0635362
-0.0417056
-0.0209555
-0.109362
0.649012
1.10313
0.751305
0.0946214
1.2205
-4.96299e-05
-0.0103213
0.788833
-0.132592
0.412566
-0.0154496
0.812165
0.0454667
-0.00104241
0.0451022
0.569213
-0.121509
0.932271
0.502297
0.000197944
-0.000428232
0.251197
0.218315
0.00292812
0.527386
-0.0160726
1.2014
-0.0440324
-0.00589802
0.00192809
0.736536
0.542415
-0.00368664
0.370236
0.880894
-0.00440458
0.547995
0.626244
1.20602
-0.000775724
0.126864
-0.0156103
-0.0140417
0.000195034
0.830135
0.283776
-0.0539198
0.824265
0.110877
-0.0137144
0.330995
0.124488
0.141679
1.206
-0.0366379
0.0443857
0.871894
-0.0264928
0.0643276
-0.0771164
0.245489
0.00276943
0.309165
-0.0553551
0.04348
-0.00175277
0.33942
0.861955
0.554246
-0.145092
-0.00961893
1.01695
1.02129
-0.00187449
-0.0200847
0.708537
-0.064928
-0.02594
0.330527
0.00130336
1.25924
-0.0218181
0.143728
-0.00262
0.87098
0.495257
0.0295997
-0.0358701
-0.0712998
0.0150136
-0.00143407
0.714865
-0.13672
0.315704
1.18375
-0.128322
-0.0210766
-0.00259713
-0.0388047
-0.0650501
-0.0101427
0.397216
-0.000500621
-0.0184526
-0.00322727
-0.0876644
-0.0178203
0.000115741
-0.0272895
0.0406009
-0.132537
-0.0231599
-0.0145338
-0.0155175
0.0181007
-0.023142
-0.00699406
-0.00180253
-0.0245914
-0.0731211
-0.00212366
-0.0234718
0.0909451
0.543488
0.0124798
0.000243648
1.08144
-0.00200572
-0.000500271
0.00346372
-0.0190355
-0.0321039
0.962229
-0.0172606
0.0928223
-0.0616825
-0.0662962
0.322548
-0.0193698
-0.0311734
-0.053048
0.000160215
-0.0669046
1.10622
-0.105267
-0.0257393
0.406979
-0.0235213
0.512718
0.0944784
-0.00118612
0.000820966
0.611372
1.16634
-0.108904
0.153493
0.0199199
-0.0200585
-0.021089
0.703317
0.0525077
-0.141819
-0.0742508
0.000475421
0.014458
1.01311
0.136489
-9.99454e-05
0.929084
-0.0200823
-0.0360336
0.551264
-0.00441466
-0.00245841
0.000129767
-0.0291017
-0.0101843
-3.20457e-05
0.139065
-0.163765
0.723199
0.000439345
-0.00141419
-0.0241205
-1.00966e-05
-0.112006
-0.141795
-0.0013597
-0.0297228
-0.0143627
0.552498
0.839818
-0.000850845
-0.00121065
-0.0438745
0.864279
-0.0108021
0.883146
-0.00399514
1.18313
0.572626
0.229977
1.135
-0.128815
0.000147504
-0.0139812
-0.0101659
0.8353
0.703208
-0.00448523
-0.150751
0.0572102
-0.0297934
0.00158804
-0.159217
-4.26884e-05
0.574746
-0.0106681
-0.0273923
-0.0106353
-0.02313
0.161409
0.0224842
0.00171087
-0.0150712
-8.96863e-06
1.18026
0.999528
0.000934736
-0.00620633
-0.00523716
0.696661
-0.0157513
0.0134074
-0.0233892
0.768228
0.218208
-0.0113612
1.24506
0.0103669
0.72967
-0.00439395
-0.0768675
0.926947
-0.0130869
1.18829
0.655209
1.20676
6.33225e-06
0.0013092
-0.0398094
-0.00623689
-0.00376479
-0.0348352
0.743707
0.779806
0.563491
0.852938
1.17522
0.225033
0.864039
0.560676
-0.0054033
0.625451
-0.0293338
-0.023384
-1.57454e-05
-0.0297956
-0.096332
0.408294
0.0352838
0.736457
-0.0200188
0.0818958
0.698545
-0.00982699
-0.0336222
-2.33118e-05
-0.000297469
0.411289
-0.0305363
-0.0210588
-0.000344838
-0.000863249
0.0490544
0.000270985
-0.0526932
1.1808
0.173415
0.297297
-0.00443657
0.659011
-0.02972
-0.0100948
-0.00645816
-0.000493242
0.000164584
-0.00194148
-0.0106629
-0.0792076
0.354315
-0.0347937
-0.00451589
3.44781e-08
0.776048
-0.0972522
-0.13865
-0.013267
0.00512871
-0.0344499
-0.00215342
0.699216
1.05488
0.440355
0.00135711
0.468098
-0.00322342
-0.0196498
0.236258
-0.000105781
-0.0112841
0.132811
0.23411
-0.0111386
0.680112
0.965284
0.673318
-0.0195475
-0.00989276
-0.0165483
0.128991
0.62802
0.000657663
0.924029
-0.0198552
-0.0791664
-0.00132149
1.10269
0.341837
0.715678
-0.148042
1.13994
-0.00987764
-0.0191448
1.21651
0.0213009
-0.06741
0.71855
0.771053
-0.0177031
0.615679
0.861444
0.765861
0.607505
0.740063
0.531236
-0.00112786
-0.0102764
-0.0025016
-0.0683872
0.860581
-0.0629365
0.0824264
0.153121
-0.0229694
-0.0398385
0.103975
0.881941
-0.0274742
-0.00103648
0.0178333
-0.0227806
-0.10572
-0.124543
-0.0718517
0.598783
0.901811
0.0043301
0.873055
1.17518
0.00205235
-0.00132939
-0.0014682
-0.00350194
0.422795
1.18485
0.141346
0.646459
-0.00980749
0.438166
0.445217
-0.145663
-0.00901293
-0.0176469
0.0701301
-0.0148628
-0.0259176
-0.0192617
-0.0213693
0.694864
0.000292744
-0.0209805
0.764756
-0.0411996
1.04608
-0.0405621
0.554849
-0.119701
-0.031537
0.918112
1.04637
0.859391
-0.0124387
1.06171
-0.0177561
0.902585
-0.00592623
0.850318
-0.0212602
-7.22463e-05
0.855723
0.918287
0.900345
0.857192
0.425634
0.0738811
0.470557
-0.0673311
0.857202
0.677481
-0.0761266
0.0381341
-0.00149226
-0.12997
0.660833
-0.0173174
-0.00363257
0.881911
0.870267
-0.026953
0.833684
-0.0813171
0.0140273
0.00330534
0.8931
0.915067
1.17447
0.874404
0.00110549
-0.0108186
3.3035e-05
-0.033809
1.04015
0.247227
0.623069
-0.0197953
0.563009
-0.00400098
1.0439
-0.0454551
0.879143
0.00282775
1.00601
1.07526
-0.0110642
0.0716074
0.996906
0.00133957
1.10262
-0.0251855
0.00167344
-0.00891842
0.740806
0.167788
-0.0494176
0.821701
1.10891
0.452479
0.0111948
-0.0283239
-0.0188472
0.86555
1.0696
1.23498
0.248526
-0.00302695
0.00169439
0.651011
-0.00267088
-0.00082206
-0.00345009
-0.0114374
-0.0815363
-0.124511
0.938188
-0.0154792
1.08475e-05
0.648964
0.179893
-0.00412539
0.0584317
-0.00108322
0.187404
0.681543
0.844774
-0.109196
0.111233
-0.00445302
-0.0473811
0.000480241
0.873098
0.950749
-0.151664
-0.137267
-0.119298
-0.03667
0.83492
-0.02898
-0.0811922
-0.0922491
-0.033108
1.13533
-0.110715
-0.0449228
0.887678
0.00144958
0.0481522
-0.023907
-0.0855534
0.000884766
-0.000974277
1.12919
0.528218
-0.147989
-0.103553
0.533813
0.817601
0.668978
-0.103509
-0.0211316
-0.0188977
-0.0209664
0.61737
-0.00335282
-0.0289185
0.000153243
-0.00991959
0.000628341
-0.0950392
0.748022
-0.0723298
0.86869
0.83849
-0.0222175
-0.0119486
1.16453
0.552613
-0.00484709
-0.0134425
0.444305
-0.0258815
0.433359
1.13001
0.289239
-0.00375038
-0.015236
0.749814
-0.025057
-0.0625421
-0.0303524
0.977832
-0.0179284
-0.0863236
0.42901
0.212596
0.662362
-0.022315
0.276044
-0.032428
0.884588
-0.0944489
0.0778136
-0.0334825
-0.0343637
4.94434e-05
0.000680289
-0.00070144
0.97256
-0.0424988
0.495021
0.00406287
-0.0561184
-0.0742253
0.255514
1.17278
1.016
-0.0656421
0.216141
-0.0195571
-0.0288216
-0.00264313
0.160983
-0.0196175
-0.00229561
0.62832
-0.0318878
-0.00241135
0.966731
0.680526
0.8922
0.0130291
-0.114234
-0.00951969
0.257008
-0.0223586
-0.000141827
0.98856
0.0138969
0.185384
-0.0907397
0.000151362
-0.00903294
-0.00113251
0.155466
-0.000583937
-0.0172304
-0.0117595
-0.0235054
1.03134
1.29766e-05
-0.0327928
-0.0113436
1.07539
-0.00064166
-1.17299e-05
-0.102858
0.185436
0.588711
-0.0107908
-0.0102237
-0.0216783
0.631958
-0.0146076
0.251673
-0.124903
-0.117439
0.116521
0.494508
0.0908252
0.190785
0.0011221
0.663087
1.09078
-0.00510734
0.393939
-0.040635
1.12265
1.06281
-0.0789747
-0.0295514
-0.0683394
0.493934
-0.000313341
0.85427
1.19924
0.000274073
0.0608272
0.215989
-0.00127261
-0.000582123
-0.00636175
1.17646
-0.0115043
-0.0355343
0.851953
-0.0042788
0.473609
0.890009
-0.0162119
1.00176
-0.0205536
-0.0126877
0.902518
0.261441
0.660549
0.00127372
0.887262
0.126817
0.845782
-0.0579613
-0.00882997
0.07264
0.991783
0.904178
1.01848
0.870762
-0.121709
-0.011361
-0.0567541
0.549701
0.849185
1.08491
-0.0194886
0.408095
1.1041
0.761898
-0.00125377
-0.0168397
-0.00547806
0.0888903
-0.0546326
0.951424
0.325414
0.845585
0.120646
-0.0381807
0.85241
-0.0808248
0.599443
-0.0868127
-0.014995
-0.0130493
-0.0782869
-0.0542638
1.06968
-0.0499445
-0.0192794
-0.081386
0.218885
-0.00104339
-0.0173617
0.0197049
-0.018088
-0.0628255
0.604787
0.280684
0.703167
-0.137115
0.8937
-0.06918
-0.000865867
-0.0100989
-0.0173234
-0.109772
-0.127256
-0.00501278
0.241737
1.02697
0.11007
0.0300583
-0.0325528
-0.0577123
0.37828
-0.0250935
1.11871
0.265482
-0.00378577
-0.0128699
-0.0111616
-0.0741407
-0.0171316
-0.0257755
-0.0258232
-0.088574
0.237907
1.05185
0.936825
0.161305
0.00175035
-0.0191238
0.000929814
-0.00868021
0.64381
0.00333588
0.584524
-0.0635751
-0.0110989
1.03563
1.06611
-0.00105515
0.864145
0.924959
0.0739207
-0.0156022
0.196713
0.643333
1.0638
0.45588
-0.0698547
1.03107
0.0960403
-0.0347655
-0.038154
-0.0813449
1.09821
-0.0217621
0.886134
0.297479
1.01274
-0.0425005
0.533299
0.454954
-0.0799232
0.909549
-0.032038
0.984828
-0.000517704
0.355567
0.606386
0.516453
-0.00266284
-0.0640025
-0.00154271
-0.0219356
0.393047
-0.0166954
0.475361
0.347458
1.18796
-0.0189228
0.992918
-0.0165603
-0.0154293
-0.0268872
0.860136
0.0274793
-0.0769612
0.0314293
0.644027
-0.00570648
1.1556
-0.0038596
-0.08388
-0.0270493
-0.00707946
0.875789
-0.0402941
0.943255
0.689464
0.135374
0.0113313
0.106906
-0.00102053
0.00254705
0.955054
-0.0319411
-0.0598961
0.305432
-0.00238819
-0.00947566
0.00848753
-0.00491963
1.02815
-0.0169028
-0.0252161
-0.0908043
-0.0191399
0.840271
1.19098
-0.0129446
-0.0615429
-0.00260417
0.0746391
-0.00106677
0.0722187
1.07202
1.00944
-0.0203885
0.190677
-0.000335663
-0.0211894
0.677238
-0.0137436
0.282813
-0.0100916
1.16396
0.60399
-0.0737244
-0.0164752
-0.0283175
1.15803
-0.0188508
-0.000720417
0.00044218
0.104575
-0.0699502
-0.00614787
0.0399258
1.02741
-0.0871454
1.11005
1.23808
-0.0170731
-0.0586849
-0.000756702
0.00118641
-0.0504055
-0.0297718
1.14335
-0.00967587
0.00195669
0.600556
-0.051519
0.673292
0.00207057
-0.101069
0.588086
0.624544
-0.069594
-0.0202231
-0.0567827
0.79135
-0.0177899
0.355583
-0.0210613
-0.00892765
-0.0202823
-0.00928978
-0.00314972
-0.0896696
-0.0871321
-0.128082
-0.0016284
0.0804987
-0.000235819
-0.018331
-0.0605018
-0.011498
-0.0285659
1.03509
0.0287705
-0.0230702
-0.0166516
0.763908
0.000731168
0.636461
-0.0798573
-0.0522232
0.00309239
0.657153
0.375675
-0.0223276
-0.0309776
-0.0318709
0.45076
-0.000396888
0.617775
0.74255
-0.0107475
-0.0509716
0.117881
0.156748
-0.0604061
0.056951
0.671918
-0.00888055
0.579858
-0.0234513
0.000157412
0.540234
1.06914
-0.00256704
-0.00557575
0.835982
0.419373
-0.0111742
-0.0342929
-0.10097
0.00827105
-0.00879569
-0.000730193
0.758064
-0.119253
-0.0557238
0.735604
-0.0665746
-0.0210571
0.190904
0.000527157
0.16665
0.603865
-0.0400722
0.495479
-0.00974761
1.01027
-0.0697317
-0.000390313
0.000124175
-0.0758576
-0.000748445
-0.0103209
0.158323
-0.0506757
-0.00472012
-0.0273278
-0.0120585
0.226721
0.876308
0.00047462
-0.00813281
-0.0158038
0.496096
-0.0546041
-0.012835
-0.00870727
0.0728114
0.219239
-0.0119853
-0.00247213
-0.0922035
0.660727
0.693497
0.0360672
0.626623
0.911054
-0.0111326
0.532841
0.159921
-0.00610841
-0.00955507
-0.0147073
1.20231
-0.0135062
-0.0792111
-0.0176637
0.620121
-0.00294385
-0.00207061
-0.0191721
-0.0218353
0.000306698
0.879452
0.275794
0.470047
0.756465
0.636108
0.00015251
0.191039
0.468449
-0.0421111
0.852378
0.196719
0.261572
1.2425e-05
0.435761
-0.0377533
0.166875
0.33374
-0.0831512
0.100483
0.0565134
-0.0152703
-0.00105546
-0.0638357
0.136725
1.04741
0.121283
-0.000101904
0.393807
-0.00841463
0.302629
0.222782
-0.0023917
-0.0161716
0.43518
0.846205
0.0526318
-0.0161902
-0.00859916
0.288093
0.574485
-0.015123
0.737749
-0.0115068
0.171385
-0.028728
0.956413
-0.000401404
-0.00127508
-0.00176729
-0.00805229
-0.1065
-0.000171969
0.495839
0.705126
-0.00194924
0.284577
-0.002338
-0.00186912
2.16282e-05
0.26029
-0.00964432
0.206437
4.3844e-05
0.593104
-0.009895
0.723217
-0.142875
0.804304
-0.0177443
-0.00327944
0.000717668
0.856358
-0.0217652
-0.0161753
0.11855
-0.00127415
0.71068
-0.00268799
-0.0122535
-0.00785135
4.61265e-05
0.886585
-0.00182188
-0.0094807
-0.00869593
-3.58412e-05
-0.00178117
0.736902
-0.000769314
-0.0162733
-0.00360091
-0.00124513
0.658006
-0.165495
0.0139631
-0.0421129
-0.00126574
-0.0112986
-0.110485
-0.0067563
-0.00146891
-0.00236854
0.331811
-0.00041597
-0.00438028
-0.100018
0.136612
0.817534
0.00100662
-0.00199865
-0.00967142
-0.0269841
0.552871
0.703476
0.892536
5.6867e-05
0.199187
-0.0162107
-0.0131976
0.244717
-0.0170623
-0.00187502
-0.000923557
-0.00640068
-0.00858697
-0.00849555
-0.00250584
-0.00279798
0.00342472
0.591902
-0.00098102
0.40154
0.0866567
0.0486116
0.305899
0.179148
0.489996
0.0168952
0.411644
-0.00106652
-0.012672
0.373287
-0.0279234
0.645469
0.604332
-0.0142153
-0.0140581
-0.00042933
-0.0063298
-0.07896
-0.00214924
-0.0016022
-0.00496519
-0.0012099
-0.00765201
-0.017035
-0.00175724
-0.00130383
-0.0201497
0.490675
-0.00667617
0.00096807
-0.0118539
-0.00479857
-0.00868724
0.712671
0.694874
0.219134
0.955359
-0.0100472
-0.0604848
-0.00751566
-0.00332806
-0.00312636
1.80863e-05
3.22859e-05
0.20195
0.0235824
4.60806e-05
-0.0950455
0.127999
0.287274
-0.0370114
0.000324874
-0.0108129
-0.00258473
-0.00134609
-0.00213011
-0.00880413
-0.0323656
0.999127
-0.00368088
-0.0316447
-0.00824544
-0.0177644
0.00046719
0.00205685
-0.0010401
-0.00104241
-0.0141501
-0.00746507
-0.0345853
-0.0132243
-0.00403058
0.27204
-0.0051421
0.000679889
-0.0614772
0.641092
0.669543
0.461058
0.00607167
-0.102191
-0.0332384
-0.118703
-0.0227566
-0.116071
-0.0148957
-0.109166
0.00196219
-0.00874271
-4.87475e-06
0.0651913
0.00164468
0.000725569
-0.0148003
1.05759
-0.0129841
-0.0986958
0.980338
1.01529
-0.000954943
0.988434
0.919082
0.576583
-0.00377022
-0.148643
1.01703
0.000751674
-0.000175744
-0.00992012
-0.0073527
-0.0013934
-0.0258136
-0.00757972
-0.00614699
-0.00278366
-0.0192958
0.000500444
-0.0363827
-0.00225725
1.15696
-0.000898532
-4.73712e-05
1.1492
-0.000378686
1.0781
1.00525
0.578573
-0.000990695
1.15903
0.0382686
0.780503
-0.00648578
-0.000580356
-0.00879493
-0.0195026
0.0363349
0.868378
0.000600869
-0.000741046
-0.00707372
3.85633e-05
-0.152125
0.279718
8.61101e-05
0.629923
-0.0385747
-0.00204249
-0.0181005
-0.000811148
0.0461276
-0.000922748
1.01902
-0.00129242
0.92254
-0.00173764
-0.0107539
0.000123331
-0.00655276
-0.00867861
-0.00698751
0.777343
0.852335
5.68102e-05
1.02096
-0.0185229
-0.00224916
-0.021913
0.934694
-0.13116
0.00057708
-0.000253656
-0.00145783
-0.000881465
0.000228476
-0.000713082
1.03021
0.000429693
0.000460443
-0.019018
1.12314
1.23817
0.00227752
-0.0206312
0.64344
1.13319
-0.0240638
-0.0057643
-4.66954e-06
0.00396779
0.888573
0.639183
-0.00123566
-0.00272797
-0.0156701
0.956083
-0.0777523
-0.00952194
-0.00602249
-0.00378782
-0.0225183
0.693506
0.000184715
0.981647
0.000212167
1.09438
-0.000976057
1.00697
-0.00185542
0.0544465
-0.0181324
6.41679e-05
-0.000889832
-0.00236925
-0.005578
-0.00819795
-0.000869776
-0.00312839
0.00104065
-0.0158107
-0.000892599
-0.00321141
-0.00314476
-0.00240904
0.104631
-0.000751193
0.632709
-0.00543241
-0.0127292
-0.00406953
-0.108456
1.14221
-0.00240016
-0.00323272
-0.00408838
-0.0168008
-0.000869992
0.555638
0.691187
-0.00222893
-0.00142844
-0.0632213
0.143053
0.97885
-0.011574
0.56822
0.735874
6.03499e-05
-0.0231012
-6.03651e-05
-0.00140705
0.000815379
0.000525987
-0.00112255
0.00100617
-0.00159822
-0.00346341
-0.0153236
-0.00160535
0.140587
-0.0745248
0.61395
0.0011916
-0.0796814
6.34381e-05
-0.000826758
0.864766
-0.00123258
-0.0164235
0.000501043
-0.00944924
-0.006214
0.447721
0.0523366
1.04085
-0.000615347
-0.00147038
-0.00574983
0.171664
-0.00175637
0.979578
0.00298885
-0.00215862
0.00259569
-0.0550158
0.00173363
0.529685
0.029143
0.892606
-0.0145052
-8.45139e-05
-0.000634061
-0.00368349
-0.000269875
-0.000154947
0.000588671
-0.0083166
-0.00379997
-0.013026
0.000101536
-0.0144088
-0.0691216
-2.19171e-05
0.000213232
-0.00194648
-0.000760793
-8.19215e-05
-0.0050188
0.0123119
-0.00105183
0.043294
4.78284e-05
0.653641
-0.0111758
-0.0503087
3.33265e-05
-0.0473699
-0.0257978
-0.0186246
-0.00179622
4.22343e-05
-0.00124985
0.00015124
-0.0569707
-0.0659376
0.0899412
-0.0988585
-0.000624381
0.0477057
-0.102518
0.689006
0.426932
0.535022
0.00112818
-0.000571463
0.000428502
0.00122888
0.906619
0.582346
-0.00149191
-0.0029638
0.36976
0.601744
1.0592
-0.000508041
3.58005e-06
-0.00502275
1.31254e-05
-0.000502757
0.000132043
-0.00350197
-0.00190854
0.649347
-0.0226759
-0.000836446
-0.00161588
-0.00120996
-0.0877865
-0.00193881
0.182217
-0.00138754
0.169464
-0.0221581
-0.00776062
0.0961515
0.0372169
-0.000510241
0.152226
0.972192
-0.0172905
0.681444
-0.0061011
0.0013526
0.76005
-0.00152248
0.478133
0.000357624
-0.0362301
-0.0640837
0.000858226
-0.00228682
-0.00102488
-0.000129649
0.00670176
5.29825e-05
-0.00289563
-0.00552704
0.996869
-0.0290832
-0.0020478
0.632391
2.36402e-05
-0.000744755
-0.0144404
-0.00100832
0.962975
0.000526831
-0.000877746
-0.00294139
0.0728438
-0.0215289
-0.00110818
0.00054493
-0.0167164
-0.00363406
-0.000625574
0.837487
1.11515
-0.00213508
-0.0307485
-0.00175052
0.700615
-9.83834e-05
0.000782397
4.83621e-05
2.96581e-05
-0.0588054
-0.00241522
-0.00102726
-0.115498
-0.000789293
-0.0634137
0.000466871
-0.000183251
-0.00140213
0.772591
0.824742
-0.0133606
0.392468
0.0170443
9.76676e-05
0.61481
-0.00695199
-0.00132575
-0.00255398
-0.0960994
-0.000287938
-0.0148838
0.000621037
-0.029372
0.0869383
-0.00459313
-0.00353556
0.0316733
0.425421
0.100342
-6.43708e-05
2.38982e-06
0.000946244
0.168845
-0.00272254
-0.061587
0.000373564
0.604828
-0.148538
0.773007
0.295733
0.00194159
0.190054
0.000423658
0.643052
-0.0456575
-0.0183781
8.25648e-05
-0.00103676
0.00311902
0.00312287
0.00261892
0.0019539
0.144192
0.00317177
0.27625
-0.000788337
-0.00187111
0.000439667
-0.0173814
-0.0151743
-0.00465593
-2.58589e-05
-0.0148285
0.214351
0.0023906
-0.0142409
-0.0129689
0.0424871
-0.0121966
-0.000380138
-0.000795132
0.726044
0.804327
0.86582
-0.00052162
0.81519
0.712128
0.817831
0.00120744
0.000410304
-0.000523412
0.248535
0.494927
-0.0769496
-0.0174343
0.00100595
-0.00622253
0.0256675
0.00353479
0.00304861
0.548762
-0.00132836
0.00230144
0.000207373
0.00385119
0.827801
-0.0264249
-0.000777984
3.76469e-05
0.934012
0.658997
-0.0598178
0.149239
0.00324284
-0.06486
0.00290035
-0.0699997
-0.0736947
-0.0730428
0.131633
0.00173703
0.0425983
-0.000309156
0.789969
-0.0183869
-0.00573866
0.556068
-0.00060984
-0.00601912
0.00165986
-0.11273
0.146356
-0.0118076
0.000417358
0.584114
-0.000640802
-0.00719273
0.0300139
-0.000212703
0.00184648
-0.00121345
-0.00707802
0.00205024
0.0207448
0.000400194
0.0118939
-0.0161218
0.00619281
0.00127937
-0.00185977
-0.00298588
-0.00176749
-0.00537378
0.00309644
0.00340034
0.397751
0.00356662
0.00298628
7.92772e-05
-0.0101445
-0.024888
4.3632e-06
0.30503
0.739954
-0.00724588
-0.00205938
-0.001247
0.00327361
0.000329507
-0.00814561
0.00151848
0.0359024
-0.000157554
-0.00271126
-0.00831263
0.00199127
-0.00095802
-0.000112239
0.340639
0.00122678
0.0221129
0.458169
-0.020984
-0.019159
0.00227235
0.000241717
0.0101712
-0.00602632
0.000519713
-0.00335235
0.118275
-3.49208e-05
-0.0140808
0.229597
-3.91188e-05
0.123503
-0.00316497
-0.022435
0.573638
-0.000232814
-0.000284437
-0.000414212
0.400672
-0.138069
-0.0191683
0.000818587
-0.000730877
0.00337829
-0.00822277
-0.00371931
0.0988864
0.886206
1.03015
0.635947
-5.22142e-05
0.3428
0.0845493
-0.00419041
0.000861537
0.360378
-0.0103996
-0.161086
-5.10975e-05
0.000330202
0.476282
7.44933e-05
-0.0620293
-0.00335197
-0.0500241
-0.000748185
0.62936
-0.0143661
0.587272
-0.00550489
0.00350517
-0.0108535
0.000628935
0.542096
-0.00734965
0.00270301
-4.1812e-06
-0.086434
0.00809258
0.0996865
-0.00605335
-0.000929274
0.201264
1.88724e-05
0.325132
0.0819951
-0.000723658
0.364807
-0.0453947
-7.86225e-05
-0.00472682
0.000652766
-0.00114344
-0.0091836
0.366192
-0.017922
-0.00144677
-0.0455222
-2.84592e-05
0.510223
0.8108
-0.000607397
-0.00930213
0.00236663
-0.00132169
0.458867
-0.00370028
-0.000847626
0.291379
0.0290308
0.657347
-0.00794915
-0.000885779
0.311307
-0.0055674
-0.00351855
0.000661017
0.90166
-0.032907
-0.00565395
-0.00100596
-0.00253096
0.892565
-0.0128608
1.07607
0.199316
-0.00425237
0.000841642
-0.0221505
-0.0340214
-0.000293724
-0.00732335
0.874841
-2.55355e-05
-0.0205005
0.89395
0.000594527
-0.00832863
-0.000338014
0.000709325
-0.000342218
0.0215564
-0.0104321
0.00086952
-0.088006
-0.00021352
-0.000267817
-0.000225303
2.48854e-05
-0.0254337
-0.000260679
0.00109822
-0.0286277
-0.0165421
1.0697
0.0394212
-0.00802472
0.00224265
-4.28773e-05
-0.00707018
-0.000179982
0.142152
0.553488
0.000596496
-0.0236266
-0.00776061
0.0652977
-0.0029202
1.14012
-0.00170275
0.00126174
0.361483
-0.00244504
-0.000278427
-0.0156793
0.62039
0.00074282
0.518748
0.641773
-0.00738299
-0.017135
0.790191
-0.00631665
0.0015137
-0.0144632
0.239306
0.141713
-0.025043
2.03085e-05
0.844423
0.000961821
-0.00213829
0.00260838
0.00177135
0.996657
-0.00185243
-0.000147062
-0.0064327
0.228071
1.0802
0.612787
1.1559
-0.00027013
0.986112
4.1763e-05
0.427336
0.00213564
0.00050864
0.199719
-0.0140961
0.121219
-0.000333467
-0.0213358
1.09222
-0.0134098
-0.0542765
-0.0022445
0.0011781
0.0854056
-0.00193972
-0.0116953
-0.000262479
-0.0210348
0.000209521
1.10457
-0.00223273
-0.00488987
0.0785101
-0.0936529
0.197135
0.463664
-0.000385149
-0.10819
0.2849
0.67629
1.14005
3.17459e-05
-0.11128
-0.0985105
0.00138858
0.331486
0.379729
-0.106917
0.902573
0.137944
0.193517
-0.00286282
0.581155
-0.00561066
-0.000606242
-0.000150974
-0.000282929
0.000639369
-0.00172348
-0.00224586
-0.000134975
-0.000965404
-0.00223495
0.000111197
0.284491
-0.0392596
1.10612e-05
1.10357
-0.000589726
-2.99239e-05
0.800918
1.14186
-0.0106444
-0.011892
0.782541
-0.000466609
0.967577
0.0629233
6.64225e-05
-0.052598
-0.0264356
-0.0028914
-0.000831724
0.491925
-4.51182e-05
-0.000429511
0.917569
0.000695316
-0.00257258
-0.0371658
-0.00278535
-0.00512337
-0.00041917
0.0290104
-0.0042597
-0.000269832
-0.00774131
0.00113008
0.399412
8.92932e-05
4.92276e-05
0.00104793
0.879086
-0.000621797
0.00107264
-5.8383e-06
-0.00199454
0.841223
-0.00170811
0.106973
0.777387
0.000617893
1.01525
0.71808
0.00254811
-0.052912
-0.000563672
-0.00263381
0.968604
-0.0033025
0.000826786
-0.000181822
-0.00654056
0.00268145
0.00090614
-0.000504971
1.00299
-0.000164866
0.651716
-0.0165775
-0.0573926
-0.000192431
-0.0462284
-0.00186271
0.814511
0.836634
0.0437676
-0.000872102
-0.026029
-0.0564768
0.189741
0.111404
0.274816
-0.0711817
-0.044369
-0.00626843
-6.62755e-06
-0.000680512
0.00105605
-0.00153156
-0.00105022
-0.00128749
-0.000549281
0.00224932
-0.00045242
-0.00330018
-0.000895562
-0.00590095
-0.000260184
-0.00189074
-0.000211463
1.24314
0.11199
-0.00291451
-0.00365958
-0.00234078
-0.000163909
-0.000334223
-0.00136452
-0.00108041
-0.021887
-0.000130345
-0.00639403
-0.000559222
0.00113811
-0.000349571
-0.00770881
-0.0257892
-0.00178162
0.878667
-0.0124346
0.624716
-0.0267334
0.940137
-0.0136201
-0.016016
-0.0174432
-0.0189093
-0.0194767
-0.0213813
-0.021893
-0.000201837
-0.0231068
-0.0228611
0.825915
-0.0255458
-0.0432589
-0.0261077
-0.000387755
-0.0587371
-0.0035623
-0.000188081
-0.00382389
-5.92817e-05
-0.000375387
0.0151679
0.00126875
0.0967576
0.690776
-0.00414212
-0.0014982
-0.00403615
-0.00414217
-0.00273334
-0.00579458
-0.00450911
0.000261489
1.12471
-0.000699045
-0.00941813
-0.00485004
0.00135259
-0.00237084
0.000164946
-0.0124764
-0.00335624
0.000476517
0.00221278
-0.0178217
-0.000220951
-0.000152932
-0.00555916
0.00620666
0.000430456
1.12108e-05
0.000293041
-0.000214643
-0.000514543
-0.00192323
-0.00047081
0.00048891
-0.000183966
0.00119919
0.806267
0.000345341
0.000825289
0.0015664
-0.00209987
-0.000432669
-0.000490994
0.270387
-0.00654805
0.66138
-0.000735033
0.000334946
-0.000221694
0.594412
-0.0641534
-0.000467887
-0.000113006
-1.24941e-05
-0.00208838
-0.000436417
-0.103949
0.000139493
-0.0304094
0.000344689
0.000675373
0.000316084
-0.00107448
-0.00176497
-0.0370416
0.783456
-0.0254754
-0.000538687
7.96715e-05
-6.39296e-07
-0.0104833
-0.000206956
-0.0139631
0.00116806
0.00157371
-0.000731647
-0.00738779
-0.00265548
-0.090419
0.000329958
-0.000206186
-0.00480443
0.000309662
-0.00148003
0.000923174
0.000932911
2.48907e-05
0.97769
0.000284164
1.16736
-0.00584433
0.000612143
-0.00179891
-0.000211055
-0.000268261
-0.0227083
-0.000499106
-0.0636443
-0.0003531
-0.143804
-0.00206791
0.000245548
-0.000204992
-0.00436546
0.986132
-0.000283151
-0.0150394
-0.00233985
0.766366
-0.0266238
-0.0519651
-0.000265521
-0.109988
0.00104425
-0.103773
-0.0206612
-0.000387251
-0.00454106
1.06335
-0.0484024
-0.00317439
0.000999369
-5.20932e-05
0.650249
0.764996
-7.64605e-05
0.00117103
0.3462
-0.00022211
-0.00417989
-3.25816e-05
-0.000468107
-0.0237064
-0.0150771
-0.11197
-0.0105206
-0.000842437
-0.000245959
-0.000172347
-0.0458369
-0.0169751
0.374213
-0.0051738
-9.69664e-05
0.694874
-0.00632435
-0.000141046
-0.0253837
0.000772604
-0.00106681
-0.00025374
-0.0095863
-0.00067471
-0.01245
-0.00024901
-0.000704318
0.38518
-0.00405135
0.329348
0.919845
-0.00492484
-0.00572691
-0.0623146
-0.00421155
1.08299
-0.00340727
0.000822536
-0.000154094
0.546791
0.995254
0.184311
-0.0385273
-0.0150534
-0.000217296
-0.00453585
-0.000509218
-0.00113098
0.000317764
0.587274
-0.0157764
-0.000379845
-0.00246722
-0.00128575
0.0568409
0.578309
-0.0184331
-0.00154847
-0.00150035
-0.000371337
0.00012313
0.953113
-0.00232701
0.000592515
0.000203114
0.00226844
-0.00742196
0.0714373
-0.0056461
-0.00793467
-0.0186049
0.000165365
-0.0024856
0.406636
-0.0071827
0.000430194
-0.00501253
0.619525
-0.0018623
0.0859388
0.785533
-0.000950617
-0.000158482
0.052689
0.374225
0.164805
0.269064
-0.0277387
0.000613292
-0.000586134
0.563927
0.00228959
-0.0021897
-0.0257306
-0.00616806
-0.0590151
-0.0131467
-0.0022923
-0.000617817
0.513284
-0.00277675
-0.00846832
0.832417
-0.0122099
0.767697
6.17225e-05
-0.00700049
0.716487
1.08882
-0.013457
-0.00521617
-0.00519215
0.000279199
-0.00336496
0.675713
-0.0050137
-0.0170928
-0.0027187
0.000268018
-0.000403546
-0.00312715
0.000271753
0.417615
0.00025354
-0.0115704
-0.000882664
0.000893909
0.00020327
0.191208
0.504528
-0.0127301
-0.0154157
-0.0180768
0.000279917
-0.00226462
0.000243838
-0.0174839
-0.0192899
0.315712
0.644519
-0.0206694
0.250409
-0.000474805
-0.0463153
-0.000939094
-0.0209972
0.190911
0.134756
-0.022666
0.00337632
0.694879
0.326883
-0.00348035
-0.000340996
0.000809408
0.973587
-0.000787754
-0.000270693
-0.00112465
0.000365894
0.000241855
-0.00172199
0.000377118
-0.00306717
0.146314
-0.0309655
-0.000281603
-0.0111542
-0.014598
-0.00133434
-0.0147316
-0.0127619
0.000405171
0.0017718
-0.00136228
-0.0132077
0.623103
0.000181133