/*--------------------------------*- C++ -*----------------------------------*\
  =========                 |
  \\      /  F ield         | OpenFOAM: The Open Source CFD Toolbox
   \\    /   O peration     | Website:  https://openfoam.org
    \\  /    A nd           | Version:  7
     \\/     M anipulation  |
\*---------------------------------------------------------------------------*/
FoamFile
{
    version     2.0;
    format      ascii;
    class       volVectorField;
    location    "19";
    object      U;
}
// * * * * * * * * * * * * * * * * * * * * * * * * * * * * * * * * * * * * * //

dimensions      [0 1 -1 0 0 0 0];

internalField   nonuniform List<vector> 
7807
(
(1.07238 0.127522 7.71974e-21)
(1.05481 -0.0397133 2.08635e-21)
(0.995007 0.103448 -1.57774e-20)
(1.03484 0.0655195 2.23724e-20)
(0.999182 -0.000995767 -4.27427e-23)
(0.999961 -9.96019e-06 -4.30614e-24)
(0.99025 0.0857458 -3.11992e-20)
(0.994755 -0.00190908 -9.02724e-24)
(0.99988 -0.000184572 -7.45035e-24)
(1.02351 0.000697269 -1.06339e-21)
(0.999964 -1.17082e-05 4.74926e-24)
(1.00222 -0.00128404 -1.77812e-22)
(0.99194 -0.00244312 4.45426e-22)
(1.01904 -0.00183091 -6.92113e-21)
(1.02281 0.00123016 4.49603e-21)
(0.991503 -0.0154894 -8.82171e-22)
(1.07468 0.133289 -1.62583e-20)
(0.989118 -0.00315012 -1.55692e-22)
(1.00246 -0.00952241 -6.06074e-23)
(0.985956 -0.101753 -7.17589e-22)
(1.03439 -0.0038483 -2.384e-21)
(1.00147 -0.000725364 3.3606e-22)
(1.01783 -0.00329887 6.0084e-22)
(1.01081 0.0293162 -1.15263e-20)
(0.985444 -0.00397384 -7.10634e-22)
(1.06801 0.125937 -7.72094e-21)
(0.999215 -0.000942456 -3.03525e-23)
(1.02322 -0.00165675 2.7216e-21)
(1.00535 0.0148443 -1.47864e-21)
(1.00382 -0.0101217 5.03826e-23)
(0.986725 -0.0165326 -1.60297e-21)
(0.876379 0.0379977 4.64232e-21)
(1.0175 -0.00391979 3.69255e-21)
(0.999534 -0.000398657 5.31509e-23)
(0.999898 -5.88128e-06 9.95442e-26)
(1.02299 0.000547856 1.5798e-21)
(1.00447 -0.0111223 5.98129e-23)
(0.994529 0.083236 -4.98881e-21)
(0.996454 -0.00811293 7.2305e-22)
(0.999672 -5.78186e-05 5.05205e-23)
(0.996852 -0.00833703 -8.27353e-23)
(0.991627 -0.0144841 -3.27829e-22)
(1.01471 -0.109435 3.08164e-21)
(1.14977 -0.0393033 1.03837e-22)
(0.999804 -1.12427e-05 1.61644e-23)
(0.999923 -1.61324e-05 -4.50196e-24)
(1.00136 -0.000597645 -2.05318e-22)
(0.996191 -0.00737978 -4.27884e-22)
(0.999934 -2.99484e-05 -3.59942e-24)
(0.990498 -0.10209 1.03739e-21)
(1.00322 -0.0011297 1.91705e-22)
(1.02313 -0.000609024 -2.82987e-21)
(0.980914 -0.00480867 -2.39608e-21)
(1.01222 -0.0306638 1.21979e-22)
(1.02328 -0.000493718 -9.41742e-22)
(0.9954 -0.002632 -8.14225e-23)
(1.0023 -0.00889618 1.27644e-22)
(0.99472 -0.00165049 6.07085e-22)
(0.976956 -0.0202084 -2.85858e-21)
(0.999517 -0.000354297 -6.82327e-23)
(1.00004 -2.36155e-05 -8.12148e-24)
(1.00423 -0.00114535 2.14111e-22)
(1.01935 -0.00113323 -1.62864e-21)
(1.00237 -0.00111061 1.80006e-22)
(0.999065 -0.000197397 9.79024e-23)
(0.98734 -0.0171486 2.82224e-22)
(0.999907 -0.000185401 5.66183e-24)
(1.00001 -2.40283e-06 5.7379e-25)
(1.1446 0.071799 3.81869e-21)
(0.996345 -0.00698278 -1.27851e-22)
(0.999928 -1.98293e-05 3.99294e-24)
(0.971364 -0.0610238 -5.28753e-21)
(0.986082 -0.00440169 3.4577e-22)
(0.973382 -0.0060285 4.73306e-22)
(0.989607 -0.00347188 4.8756e-22)
(0.96403 -0.0295994 -6.25157e-22)
(0.99864 0.104779 2.53536e-20)
(1.03257 -0.00374566 3.02597e-21)
(1.08305 0.00210178 -5.99373e-21)
(0.953625 -0.0507316 -6.70874e-21)
(0.992325 -0.002699 -6.83757e-22)
(0.999167 0.0530466 3.10588e-20)
(1.03892 0.00645811 7.04136e-21)
(0.972903 -0.0107093 2.17375e-21)
(0.99868 -0.00252902 -6.90519e-23)
(0.997794 -0.000321145 7.2762e-23)
(0.994404 -0.00251894 8.36295e-22)
(0.981681 -0.00536896 1.54187e-21)
(0.999373 -0.00117842 4.58707e-23)
(0.995596 -0.000681382 2.60387e-22)
(1.00559 0.0168638 1.09488e-20)
(1.18042 -0.0219129 -1.06084e-22)
(0.999869 -5.49865e-05 -9.6454e-24)
(1.0019 -0.00756258 5.25713e-23)
(0.996523 -0.00104102 2.35757e-22)
(0.973004 -0.00336219 -3.7857e-21)
(0.973909 -0.0604927 3.7573e-22)
(1.0139 -0.0294457 4.88949e-23)
(0.998548 -0.0024397 2.32649e-23)
(0.998887 -0.000190542 3.27275e-23)
(0.947565 -0.0182925 1.63762e-21)
(1.08368 0.00705019 4.90072e-21)
(0.996722 -0.00118271 -5.8798e-22)
(0.999974 -1.10901e-06 -3.61996e-25)
(1.18301 -0.0100194 -1.73399e-22)
(1.02919 0.0293202 -1.05209e-20)
(0.937023 0.0268788 5.3108e-21)
(0.995086 -0.00248974 -3.3901e-22)
(0.999991 -2.19528e-06 5.72265e-26)
(1.02522 -0.0131833 -1.29747e-21)
(1.03804 0.0622177 -2.5986e-20)
(1.02985 -0.0795595 -3.35961e-21)
(0.999989 -2.6213e-06 -1.02212e-25)
(1.02693 -0.0137074 -2.83458e-22)
(1.02597 0.0281015 1.10615e-20)
(1.00041 -0.000568721 -1.61263e-23)
(1.07761 -0.0910663 -1.06621e-22)
(1.02951 0.0168017 -2.55007e-21)
(0.983758 -0.0476433 2.25188e-21)
(0.973059 -0.00733605 -4.93886e-22)
(0.94382 -0.0120178 -3.95494e-21)
(1.00097 0.0328124 -2.02191e-20)
(1.0212 -0.10744 -4.24575e-21)
(1.00962 -0.00776503 1.09434e-22)
(0.945828 -0.0137216 1.55963e-21)
(0.999092 -0.0013659 1.02293e-22)
(0.987817 -0.0124686 5.33245e-22)
(1.00293 -0.00850093 -8.80237e-23)
(0.999013 -0.000145419 -2.1834e-22)
(0.98674 -0.0152179 2.73101e-23)
(1.21888 -0.0362987 -3.76735e-22)
(1.07756 -0.000218927 1.01443e-21)
(0.999422 -0.000538021 5.78954e-24)
(0.999272 -0.00120891 -8.89179e-23)
(0.971566 -0.00981227 6.47268e-22)
(1.03573 0.0555136 9.61637e-21)
(0.995613 0.0270604 3.59699e-20)
(0.999976 -2.63191e-06 -4.22438e-25)
(1.00739 -0.00306007 8.9543e-23)
(0.922607 -0.0151627 -4.9735e-21)
(0.9751 -0.00434296 -1.93242e-21)
(0.989936 -0.0659119 -3.28867e-21)
(0.964624 -0.0318507 8.47329e-22)
(0.974915 -0.00542118 -4.23533e-23)
(0.930726 0.0210836 2.07157e-20)
(1.01434 -0.0472257 -1.09718e-22)
(1.01132 0.0175406 -5.5928e-21)
(0.979475 -0.0240774 -1.47773e-21)
(0.962483 -0.00589116 5.36595e-22)
(1.00068 0.0448865 -1.00532e-20)
(1.02371 0.00126443 3.99089e-21)
(1.16737 -0.0254746 4.60425e-22)
(0.998566 -0.00200125 -2.41519e-22)
(1.14992 0.0641011 6.54794e-22)
(1.03702 0.00603645 -7.30701e-21)
(1.00567 0.0862155 -2.52856e-20)
(0.958465 -0.0349261 2.60914e-21)
(0.991934 -0.00187562 1.50819e-22)
(0.946827 0.0707173 4.63833e-20)
(0.999939 -2.51839e-05 -3.34986e-24)
(1.00144 -0.00797079 -3.73544e-23)
(1.01124 0.0325013 8.29875e-21)
(0.999979 -1.96153e-05 1.89331e-24)
(0.998338 -0.00514948 -3.37533e-22)
(0.996068 -0.00100616 -1.1298e-22)
(1.00366 0.0370037 -2.70703e-21)
(1.00191 0.0298667 1.00332e-20)
(0.939151 0.077916 1.53618e-20)
(0.998066 -0.00498758 -2.12252e-22)
(0.99696 -0.000376703 -1.28095e-22)
(1.00001 -2.66288e-06 -5.36789e-25)
(0.940241 -0.00734981 -6.80911e-21)
(1.00039 -0.000504499 2.22276e-23)
(1.05661 -0.0359008 -2.44226e-21)
(1.00761 -0.00336762 5.96815e-22)
(0.963411 -0.00696914 1.10889e-21)
(1.17289 -0.000179999 6.23336e-22)
(1.10092 0.0716247 3.13545e-22)
(0.999871 -6.58509e-05 5.25417e-24)
(0.999511 -0.000626425 -6.05349e-23)
(1.036 0.0690778 -3.93469e-21)
(0.99994 -1.83908e-05 -1.63695e-24)
(0.999891 -1.22177e-05 2.50346e-24)
(0.990466 0.0909463 -2.57908e-20)
(1.05711 -0.0430616 6.3983e-22)
(1.01469 -0.0677621 -1.93487e-21)
(0.985777 -0.0460742 -3.19328e-21)
(0.975842 -0.00781512 1.41795e-21)
(1.01128 -0.0487913 1.8876e-22)
(0.924536 -0.0128065 2.61563e-21)
(0.999977 -1.786e-05 -6.96268e-25)
(0.974397 -0.0565998 -1.26697e-21)
(1.10338 0.0787597 -7.82556e-21)
(0.996705 -0.00144041 8.44923e-23)
(1.00008 -6.61843e-06 -5.71943e-24)
(1.07351 0.0750641 7.93463e-22)
(0.998791 -0.000389711 2.32054e-22)
(0.987592 -0.0146169 8.53423e-22)
(1.00823 -0.0462738 6.28498e-22)
(1.00002 -2.25801e-06 -2.32299e-25)
(1.00086 -0.00196724 -9.03473e-23)
(1.03225 0.0549769 1.18583e-20)
(1.09051 0.0846777 -1.01116e-20)
(1.00149 0.0764552 -3.39244e-21)
(1.07297 -0.0846546 1.26071e-21)
(1.03349 -0.0755596 7.93453e-22)
(1.12774 -0.119141 -4.80495e-22)
(1.02337 -0.00236665 8.05743e-21)
(1.02974 0.0518213 -3.86534e-21)
(0.999791 -2.16551e-05 -1.89948e-23)
(1.00004 -2.04345e-05 2.16843e-24)
(0.952513 0.0109849 -2.05277e-20)
(0.992846 -0.0138487 -3.08189e-22)
(0.999399 -0.000480868 -5.77423e-23)
(0.976826 -0.0555612 2.60328e-21)
(0.987236 -0.0131707 -6.22749e-22)
(1.01471 0.0799255 -2.84326e-20)
(1.01122 0.0775543 -6.02363e-21)
(0.987086 -0.0677438 9.12512e-22)
(0.900771 0.0527232 -1.75857e-20)
(0.998878 -0.000443099 -1.70521e-22)
(0.989165 -0.00271232 5.5718e-22)
(0.945417 -0.0167208 2.15537e-21)
(1.03278 0.000600671 -1.70089e-21)
(1.02151 -0.136412 -4.21921e-22)
(1.09283 0.125127 -1.64961e-20)
(0.94693 0.0621778 -3.97358e-20)
(1.00006 -0.000108774 6.56631e-24)
(1.00953 -0.0072283 2.963e-22)
(1.02745 0.019212 1.37765e-20)
(0.996285 -0.00607504 -5.49379e-22)
(1.03203 0.0171938 -1.74781e-21)
(0.999484 -0.00127874 -1.44442e-23)
(0.917297 0.0880243 3.10757e-20)
(1.00615 0.079935 5.53059e-21)
(0.994401 -0.0021718 5.31608e-22)
(1.00377 -0.00847033 -1.32323e-23)
(0.999693 -6.80074e-05 -9.39013e-23)
(1.12538 0.0995965 4.02215e-21)
(0.999905 -1.13088e-05 7.40909e-24)
(0.99495 -0.0112367 2.57225e-22)
(0.93362 -0.0334115 2.96042e-21)
(0.999928 -2.61318e-05 -1.65333e-24)
(0.998795 -0.00294436 -5.89207e-23)
(0.999597 -0.00124242 2.67775e-23)
(1.06623 0.0459277 1.01647e-20)
(0.99998 -2.52381e-05 2.23839e-24)
(0.995409 -0.000525239 3.00873e-25)
(0.956175 -0.0502799 7.77644e-21)
(0.87766 0.0283949 -1.02402e-20)
(1.07683 -0.00495669 -1.36494e-21)
(0.92834 0.0594505 2.38025e-20)
(0.999954 -8.55536e-06 -4.01707e-24)
(1.00576 -0.047172 -5.38483e-23)
(0.999817 -0.000316922 -2.08116e-23)
(1.00082 0.0882814 -2.53411e-20)
(1.00385 -0.000766524 -2.75923e-22)
(0.993597 0.0338632 1.17374e-20)
(1.00299 -0.0102555 -2.45573e-22)
(1.00077 -0.00208315 9.71317e-23)
(1.0314 -0.0339573 -6.4764e-22)
(1.02326 -0.00118146 -7.4646e-21)
(1.00057 -0.00033895 4.57941e-23)
(0.999773 -5.56472e-05 4.72203e-25)
(1.00049 -0.000457943 1.03298e-22)
(0.996091 -0.00644474 -4.89248e-22)
(1.02225 -0.0700204 2.10294e-21)
(0.999956 -1.1654e-05 2.71899e-24)
(0.960176 -0.0334081 1.83273e-21)
(0.99627 -0.00115922 -2.11338e-23)
(0.999857 -4.68624e-05 1.02465e-23)
(0.999385 -0.000597753 1.87907e-23)
(0.988367 0.054422 2.83184e-20)
(0.991889 -0.000877021 2.19292e-22)
(0.99924 -0.000112025 -1.96431e-23)
(0.906902 0.0126349 3.91782e-20)
(0.998643 -0.00283538 -1.33783e-22)
(1.05913 0.0971811 -9.2341e-21)
(0.999796 -0.000293453 3.80577e-23)
(1.00872 -0.0231515 9.79522e-23)
(1.00002 -1.42999e-06 -1.95402e-25)
(0.982758 -0.0385173 -1.29244e-21)
(1.03227 0.000442841 2.62463e-21)
(1.17455 0.00944966 -2.01049e-21)
(0.977268 -0.0217375 2.42081e-21)
(0.999596 -0.000634043 6.99421e-23)
(0.98348 -0.0868227 1.62791e-21)
(0.982847 -0.000515261 1.01217e-21)
(0.999818 -2.08157e-05 1.00643e-24)
(1.00047 -0.000397958 -9.14258e-23)
(0.997954 -0.00367685 1.83803e-22)
(0.992271 -0.00156477 -6.54891e-22)
(1.00307 -0.000963701 -3.2781e-22)
(0.998782 -0.0020276 8.7241e-23)
(0.974319 -0.00998043 3.411e-22)
(1.02693 -0.0673046 -1.564e-21)
(0.974439 -0.00837729 1.5159e-21)
(1.14252 -0.0314047 9.02873e-24)
(0.965744 -0.00940673 -1.93463e-21)
(1.017 0.102293 2.8455e-21)
(1.01305 0.104897 -2.0975e-20)
(0.9985 -0.000807395 -1.48867e-22)
(1.19714 0.00825111 6.02412e-22)
(0.999983 -3.51866e-06 -2.32296e-25)
(0.997927 -0.00455783 -2.23604e-22)
(0.972288 -0.0023503 3.87957e-21)
(1.00826 0.0262416 6.88608e-21)
(1.04032 0.0109376 -6.83657e-21)
(1.0001 -3.66443e-05 1.29826e-23)
(0.99804 -0.00429567 -1.4647e-23)
(0.967015 -0.0103972 1.4582e-21)
(1.05143 0.0399406 -4.06605e-21)
(0.999017 -0.00126106 7.68682e-23)
(1.00338 -0.000828118 1.84731e-22)
(1.00125 -0.00102599 -1.66234e-23)
(1.12495 0.0252336 5.48043e-21)
(1.21857 -0.0493412 -2.59259e-21)
(1.03639 0.122549 1.34589e-20)
(0.9984 -0.000254428 -1.45181e-22)
(1.06653 -0.0407183 -1.87052e-21)
(0.999886 -7.13338e-05 -8.3168e-24)
(1.00496 -0.00750425 -6.38819e-22)
(0.999945 -1.40972e-05 -1.15374e-24)
(0.985255 -0.0230748 4.19885e-22)
(0.999654 -7.84243e-05 -1.80566e-23)
(1.01328 -0.022491 1.52857e-22)
(1.22106 0.0114506 3.67945e-22)
(0.972431 -0.0310604 2.89546e-21)
(1.00991 -0.0224839 -7.94856e-23)
(1.00859 -0.00648484 -3.86928e-22)
(0.999266 -0.00014525 8.80602e-23)
(1.02766 -0.0177896 9.18956e-22)
(0.997048 -0.0200935 3.85895e-22)
(1.07783 0.0117082 -2.85948e-21)
(1.06122 0.0438559 4.63913e-21)
(1.18125 -0.12847 4.44671e-23)
(1.14706 -0.0490508 -8.23239e-22)
(0.982088 -0.00105168 -1.08311e-21)
(1.00515 -0.00373785 5.91145e-22)
(0.936229 -0.031609 -1.14363e-21)
(0.930916 0.0772587 -4.7872e-20)
(1.127 -0.0507245 2.36322e-22)
(1.02749 -0.0106617 -3.53984e-21)
(0.909374 0.0568905 -2.38735e-20)
(0.998453 -0.000189132 7.17035e-23)
(0.998241 -0.000999087 -4.59814e-23)
(1.16423 -0.0359542 -6.5502e-22)
(0.998933 -0.00218816 -4.64262e-23)
(1.01447 -0.0439023 1.40169e-22)
(1.0059 -0.00189301 2.07659e-22)
(0.997112 -0.000446198 -1.13847e-22)
(0.997885 -0.000376668 -1.79408e-22)
(1.03229 0.0250244 8.07158e-21)
(0.999933 -0.000158153 -4.09079e-25)
(1.00054 -0.000269712 -4.07586e-23)
(1.00008 -1.49578e-05 9.7915e-24)
(0.996455 -0.000710514 6.08968e-22)
(0.993676 -0.00985117 6.83557e-22)
(0.999982 -2.73013e-06 1.73546e-25)
(0.998897 -0.00026329 1.85598e-23)
(0.978077 -0.0191264 8.52151e-22)
(0.951395 0.0163375 1.28034e-20)
(1.01189 -0.0235131 -7.66048e-23)
(0.992888 -0.0129622 1.1002e-21)
(0.963744 0.0608344 5.51519e-21)
(1.00096 0.0318802 1.80499e-20)
(1.06733 0.000661038 -2.31409e-21)
(1.18809 0.0138539 -4.39846e-22)
(0.938685 -0.00543021 3.71352e-21)
(1.00512 -0.00429425 -2.92152e-22)
(1.00901 0.043193 -9.99852e-22)
(0.988202 -0.00241863 -1.33151e-21)
(1.04037 0.0965663 4.03707e-22)
(1.01107 -0.0524642 1.62313e-23)
(1.04459 -0.120168 -1.44704e-21)
(1.08587 0.0814199 6.23987e-21)
(1.04285 0.101971 -1.19177e-20)
(0.961618 -0.0287827 4.08309e-21)
(1.04146 0.00897223 -4.44754e-21)
(1.09768 0.129625 1.54655e-20)
(1.05339 0.0976809 1.73647e-20)
(1.02432 -0.00204329 2.54558e-21)
(0.996915 -0.00155399 1.32664e-22)
(0.9957 -0.0024062 1.15947e-22)
(0.999909 -2.45889e-05 -3.93753e-24)
(1.01825 -0.028892 1.7533e-22)
(0.987862 -0.00203097 3.13238e-22)
(1.00105 -0.00248641 -7.92816e-23)
(0.999891 -2.58053e-05 -7.39653e-24)
(0.998362 -0.000740994 5.80952e-23)
(0.980436 -0.0857533 -2.68313e-21)
(1.10847 0.0364962 2.57247e-21)
(0.981562 -0.0066067 -1.72816e-21)
(0.999522 -0.0131689 4.14323e-22)
(0.996092 -0.000764017 -3.25684e-22)
(1.06375 -0.0435137 4.78925e-23)
(0.992627 -0.0016451 -1.05112e-21)
(1.00258 -0.00768251 2.45177e-22)
(1.11013 0.123669 2.47626e-21)
(0.998112 -0.000356218 -4.16954e-22)
(0.999978 -4.81827e-05 -1.46467e-24)
(0.999946 -0.000189682 -9.20689e-25)
(1.00005 -0.000111539 8.97738e-24)
(0.976974 -0.00869377 7.9448e-22)
(1.0306 0.0227824 -9.56883e-21)
(0.995846 -0.000583576 1.27039e-23)
(1.02349 -0.00929641 2.2871e-21)
(1.03031 -0.141662 2.96919e-21)
(0.995736 0.0779591 -5.30044e-22)
(1.00423 -0.00773251 2.1213e-22)
(1.00686 -0.00480012 -9.58561e-23)
(0.994757 -0.00271425 -4.2255e-22)
(0.992783 0.0544872 -2.77245e-20)
(0.998929 -0.000132902 5.93342e-23)
(1.04005 0.126399 -6.83318e-21)
(1.00904 0.0182895 -1.0767e-20)
(0.999881 -3.17374e-05 8.66592e-24)
(1.00894 -0.0535097 -1.19034e-21)
(0.996587 -0.000819912 -3.00492e-22)
(0.993763 -0.066653 4.01939e-21)
(1.00057 -0.000142051 4.06918e-23)
(1.06251 0.00331603 3.24899e-21)
(1.00779 -0.0168119 -8.92417e-24)
(1.00641 -0.00427141 5.00227e-23)
(0.999138 -0.000170127 -1.17674e-22)
(1.07125 0.0433383 4.97369e-21)
(1.04696 0.0383519 1.5943e-21)
(1.0126 -0.0708417 1.94576e-21)
(0.979065 -0.0222929 -1.63697e-22)
(0.997839 -0.00392554 -1.59034e-22)
(1.00221 -0.0429171 -2.19431e-21)
(1.14505 0.0546524 -4.9423e-21)
(0.883625 0.0440579 -2.24646e-20)
(1.09177 -0.0774857 -1.20189e-21)
(1.00544 -0.00809644 -1.00473e-22)
(0.999993 -2.788e-06 -3.6761e-26)
(0.986019 -0.00535142 -1.38164e-21)
(0.997685 -0.000404816 3.88553e-22)
(1.02648 -0.017849 1.33606e-21)
(1.01139 -0.114959 -1.2895e-21)
(1.19613 -0.00494539 6.87892e-23)
(0.985929 0.0736215 -3.41401e-20)
(1.05539 0.0368135 6.73397e-21)
(1.12903 -0.107046 2.16751e-21)
(1.07349 0.0814338 2.63851e-21)
(0.999327 0.0328899 3.28811e-20)
(1.01988 -0.00264757 1.87793e-21)
(1.00125 -0.00239527 1.81473e-22)
(1.02462 0.0584321 5.95496e-21)
(0.99914 -0.00213302 1.03634e-22)
(0.999815 -0.000174901 8.21424e-24)
(0.980609 -0.00222355 4.85501e-22)
(1.0001 -3.51155e-05 2.46026e-24)
(1.13805 -0.127253 1.34143e-21)
(1.0046 -0.0187181 -5.26895e-23)
(0.985068 -0.0378245 2.16005e-21)
(1.00192 -0.00164121 9.17193e-23)
(1.06795 0.071936 1.4034e-20)
(0.998193 -0.00033632 -3.43692e-23)
(0.999975 -3.84879e-05 -1.92646e-25)
(1.03756 -0.125775 1.60726e-21)
(1.0017 -0.00139858 -5.36335e-23)
(1.10782 -0.00386339 -6.90135e-22)
(0.95033 -0.017121 7.61916e-22)
(0.926619 -0.020904 3.88535e-22)
(1.20064 0.0565604 -2.76088e-22)
(1.02504 0.0182293 -3.59871e-21)
(1.02132 0.00526445 2.21531e-21)
(1.02004 0.00492657 -8.95667e-22)
(0.999791 -4.59063e-05 2.92829e-24)
(1.11638 0.0358125 2.00282e-21)
(1.07825 0.015814 3.3285e-21)
(0.999481 -0.00067897 2.72272e-23)
(0.982423 -0.00716622 2.008e-21)
(1.00063 -0.000215001 -4.5284e-23)
(1.01312 -0.0206414 -1.03594e-21)
(1.01034 -0.0297155 -3.03856e-23)
(1.00459 -0.00142808 1.82968e-24)
(0.999234 -0.00135024 -1.24043e-22)
(1.12397 0.0918335 -1.23106e-20)
(0.999978 -2.32028e-05 -2.67747e-24)
(1.00021 -0.00011245 -1.22792e-23)
(1.00207 -0.00109771 -3.76846e-24)
(0.975927 -0.00375487 1.34579e-21)
(1.01978 -0.0112343 1.62884e-21)
(0.983861 -0.0318743 -3.0889e-21)
(0.970125 -0.00586944 -7.8421e-22)
(1.01825 -0.0667401 1.08212e-21)
(1.05142 -0.15059 -3.14766e-21)
(1.02934 -0.0310838 4.29518e-22)
(1.02886 0.0590976 -3.40626e-20)
(1.21103 0.0173454 -5.02724e-22)
(0.993199 -0.0027666 -5.47164e-23)
(0.912722 0.0824173 3.70047e-20)
(0.976837 -0.0625844 4.5598e-21)
(0.993375 -0.0104817 2.15243e-22)
(0.970901 -0.00485714 1.29231e-21)
(0.998245 -0.019367 -1.13492e-22)
(0.977474 -0.00273964 2.05746e-21)
(0.98955 -0.00423066 -4.01598e-22)
(1.02802 -0.0127024 -2.47054e-21)
(1.13565 -0.0542823 -4.52567e-23)
(0.999973 -4.51728e-05 -2.26826e-25)
(1.02406 -0.0122727 -2.68855e-22)
(0.9999 -3.14814e-05 -4.18122e-24)
(1.0101 0.0888489 6.78317e-21)
(1.14621 0.0781316 8.81703e-21)
(0.995062 -0.0020702 1.33006e-22)
(0.985077 -0.00192264 -1.84006e-21)
(0.999808 -5.63215e-05 -2.16209e-23)
(0.998052 0.0499633 2.07102e-20)
(1.03056 0.10084 1.5803e-20)
(1.11892 0.0272916 -2.9449e-21)
(1.13043 0.117617 -1.02317e-20)
(0.977019 -0.0664665 -1.94678e-21)
(0.998556 0.0104583 -3.10432e-20)
(0.999937 -0.000138984 3.64252e-24)
(1.0503 -0.0260474 3.22583e-21)
(0.980205 -0.00169601 -7.57023e-23)
(1.09324 0.0692674 -2.935e-21)
(0.937865 0.0565504 -2.9012e-20)
(1.14895 0.0476167 6.12035e-21)
(1.0499 0.030425 1.13387e-21)
(1.00024 -0.0130239 -6.29312e-23)
(0.999795 -8.75423e-05 -1.99064e-23)
(1.1327 0.102703 4.2504e-21)
(1.2053 -0.028383 2.27009e-22)
(0.995752 0.0564739 -6.62777e-22)
(1.10042 -0.00528929 5.40986e-21)
(1.03157 0.047904 1.00362e-20)
(0.992778 -0.00247532 -1.86784e-22)
(0.992321 0.0737881 9.289e-21)
(1.03448 0.0959445 5.58843e-21)
(0.99075 -0.00355833 -1.12512e-21)
(0.992294 -0.00330993 -4.16865e-22)
(1.14352 0.09284 1.88205e-22)
(0.923651 -0.0193954 -5.2515e-21)
(0.999914 -0.000162071 -5.78978e-24)
(0.986714 -0.00577421 1.77705e-21)
(0.930084 -0.0271519 3.8461e-21)
(0.991964 -0.0831422 -5.70645e-22)
(1.00977 -0.00256434 -1.6486e-21)
(1.00853 -0.00587823 1.08565e-22)
(0.999874 -0.000201377 -1.12386e-23)
(1.03259 0.106284 -2.3763e-20)
(1.0006 -0.0117424 1.07373e-23)
(0.999895 -6.18918e-05 3.70011e-24)
(1.02629 -0.0616528 1.05902e-21)
(0.999499 -0.000444986 2.4244e-23)
(0.999773 -7.95586e-05 1.48647e-24)
(1.00566 -0.0124368 -1.1871e-22)
(1.05682 0.0717791 1.90678e-20)
(1.02775 -0.112491 2.22077e-21)
(0.955146 0.0569717 1.70673e-20)
(1.00007 -1.11881e-05 -6.93702e-24)
(1.06199 0.0754289 -1.99142e-20)
(1.01788 -0.0531514 8.70082e-22)
(0.999923 -0.000196364 -1.65735e-24)
(1.00002 -6.22346e-06 -2.26762e-24)
(1.00317 0.0114576 -1.77881e-21)
(1.05244 0.062036 7.11181e-21)
(0.996009 -0.00253771 1.15222e-22)
(1.04813 0.0483257 -9.2194e-21)
(1.00003 -2.04568e-05 1.65747e-24)
(1.04836 0.0535939 -1.27987e-20)
(1.16561 -0.131347 3.04216e-21)
(0.990238 -0.00319045 1.2389e-21)
(0.999195 0.016661 -4.2388e-20)
(0.977 -0.0522029 3.02964e-21)
(1.13446 0.111647 1.00454e-20)
(0.972285 -0.00485434 7.83094e-22)
(1.05282 0.0565046 1.66656e-20)
(1.05731 0.0652545 -5.14262e-21)
(0.983343 -0.00882568 2.89037e-21)
(0.978048 -0.0108827 -2.13511e-21)
(0.995099 -0.0104137 6.34143e-22)
(0.997162 -0.000756858 -9.8226e-23)
(0.999801 -0.000195393 2.27821e-23)
(1.00037 -0.0112196 -1.91219e-23)
(1.04408 0.0910431 -2.82751e-21)
(0.999971 -3.54103e-05 7.04487e-25)
(1.04355 0.0461335 1.21974e-20)
(1.04281 -0.111162 3.36731e-21)
(1.006 0.0580657 8.12662e-21)
(1.04329 0.0416215 -1.38658e-20)
(0.927063 -0.0254795 -4.71411e-22)
(0.961564 0.0728841 -3.5759e-20)
(0.998431 -0.00118834 8.41597e-24)
(1.01779 -0.026551 4.54544e-22)
(1.06023 -0.0783118 7.51077e-22)
(0.978477 -0.00257213 -1.23401e-22)
(0.99361 -0.00348085 5.54761e-22)
(1.01512 -0.0548163 -7.94387e-22)
(1.05668 -0.0172036 -3.34899e-22)
(0.91951 0.0512821 4.54429e-20)
(1.00004 -2.00986e-05 7.73531e-24)
(0.998148 -0.00126826 1.11672e-22)
(1.02488 -0.0791092 4.51168e-23)
(1.00002 -5.05793e-06 2.85184e-25)
(1.01069 0.094785 3.33422e-21)
(1.00172 -0.00120037 0)
(1.00001 -6.44885e-06 2.23023e-25)
(1.00019 -8.86105e-05 2.88776e-23)
(1.00041 -0.000119435 5.72589e-25)
(0.985544 -0.0215557 2.1077e-21)
(1.02366 -0.0168417 -9.64777e-22)
(0.998504 -0.000922416 1.75283e-22)
(0.999915 -1.72778e-05 7.77583e-24)
(0.993176 -0.00326428 3.08611e-22)
(1.00497 -0.012984 -8.95137e-23)
(0.999895 -0.123111 -3.52984e-21)
(0.933273 -0.00858689 3.76308e-22)
(1.01901 -0.0100105 2.82912e-21)
(0.999973 -2.77608e-06 2.25271e-24)
(1.11758 -0.155192 4.14687e-21)
(0.986922 -0.00401704 -7.12516e-22)
(1.13051 0.0846195 -7.16013e-22)
(1.0003 0.0142723 -5.93374e-21)
(1.00129 -0.00360497 4.26762e-23)
(1.11849 0.0741498 -1.1628e-20)
(1.00015 -9.71599e-05 -2.62902e-26)
(0.987567 -0.00450527 2.09758e-23)
(1.02364 0.000901277 -4.57398e-21)
(0.993642 -0.00395879 -2.27216e-22)
(1.05846 0.0849949 -1.13852e-21)
(0.987497 -0.00703811 -1.34019e-21)
(1.05159 -0.0234358 -2.75035e-21)
(1.02422 0.00170166 -4.90826e-21)
(1.06054 0.0389136 -2.87825e-21)
(1.00803 -0.0154383 -4.62588e-22)
(0.990098 -0.00455258 3.33836e-23)
(1.07987 0.0712907 8.80602e-21)
(0.985118 -0.0917563 -3.13532e-21)
(0.999761 0.0934593 2.78646e-20)
(0.991278 -0.00513249 -1.29948e-21)
(1.06174 0.108978 -1.45289e-22)
(0.991252 -0.00450237 3.47065e-22)
(0.998883 -0.000533059 -1.13634e-23)
(1.04934 0.0273116 3.1628e-21)
(1.01651 -0.0304448 -1.1107e-22)
(1.03604 0.00325851 6.9001e-21)
(1.00176 -0.00086066 5.95293e-23)
(1.00001 -4.80822e-06 1.02623e-25)
(1.0147 -0.139612 1.28152e-21)
(1.10835 0.117483 -1.38515e-20)
(1.00153 -0.00349465 -5.72848e-23)
(1.12734 0.0759292 1.13421e-21)
(0.988193 -0.00655312 -8.75766e-22)
(1.10849 -0.163122 -1.4993e-21)
(1.04954 -0.04035 4.83395e-23)
(0.983575 -0.0339137 1.7342e-21)
(0.998389 -0.00103819 -7.40213e-23)
(0.991487 -0.00113363 -2.63215e-22)
(0.977421 -0.0788951 -1.88039e-21)
(0.970048 -0.0105208 2.95998e-21)
(0.990701 -0.00420153 9.20147e-22)
(0.99986 -0.000453659 9.69015e-24)
(0.993149 0.0986533 -3.41128e-21)
(1.11543 0.0661268 7.11086e-21)
(1.02489 -0.0102256 -8.69943e-22)
(0.999807 -0.000151615 1.51538e-23)
(1.03221 0.0906386 -1.07141e-20)
(1.00001 -2.46593e-05 6.07583e-25)
(0.999822 -0.000134931 2.99005e-23)
(1.107 0.0647841 6.11977e-21)
(1.01178 -0.0255382 3.00866e-22)
(1.11726 0.106218 1.1489e-20)
(1.02351 -0.00282991 1.93017e-21)
(1.01745 -0.0126261 -2.00275e-22)
(1.10073 -0.0629387 4.65288e-22)
(1.06802 -0.1364 3.32316e-21)
(1.20079 0.0487137 -1.16626e-21)
(1.00125 -0.000866674 -1.30541e-22)
(0.952425 -0.0186345 -2.99256e-22)
(0.999982 -5.9129e-05 -4.11151e-25)
(1.00531 -0.0113872 8.31175e-23)
(1.06223 0.0813612 7.12692e-21)
(0.984243 -0.00825043 2.01625e-21)
(0.99732 -0.00151613 1.55338e-22)
(1.01749 -0.0422152 -3.96697e-22)
(0.998117 -0.00111966 1.06963e-23)
(0.999624 -0.00111447 3.13632e-23)
(0.912582 0.0119106 8.08002e-21)
(0.990749 -0.00553169 -7.36173e-22)
(0.999484 -0.000743145 -9.44442e-23)
(0.999982 -6.868e-07 -4.44764e-25)
(1.01705 0.00628682 9.63174e-21)
(0.973188 -0.0289992 -4.47376e-22)
(0.999688 -0.000561535 2.77048e-23)
(0.997326 -0.000878508 2.00312e-22)
(1.02306 0.020345 3.92128e-21)
(1.06738 0.0113122 7.36409e-22)
(0.961324 -0.0262785 -2.53247e-21)
(1 -1.55541e-05 4.07583e-25)
(1.00149 0.0132424 2.56703e-20)
(0.986798 -0.0187072 -1.44042e-21)
(1.06785 0.065661 -1.41124e-20)
(1.01265 -0.00130785 -2.48673e-21)
(1.01455 -0.00123464 5.66654e-21)
(0.968295 -0.0131287 4.03318e-21)
(0.999907 -6.61195e-05 -2.40529e-24)
(1.02344 0.000255531 -8.78986e-22)
(1.07227 0.00880629 -1.06815e-21)
(1.1783 0.0536194 4.15664e-21)
(1.04909 -0.105182 6.51447e-22)
(1.04104 0.0859372 8.50729e-21)
(1.00575 -0.00168622 -4.01317e-23)
(1.08634 0.0749016 -1.21041e-20)
(1.00046 -0.0152017 -1.11803e-22)
(1.02194 -0.0594862 -2.09837e-21)
(0.999624 -0.000168592 -3.04191e-23)
(1.00399 -0.0199622 9.92962e-23)
(0.999902 -0.00043623 3.14691e-24)
(1.04571 0.0331987 -9.2778e-21)
(1.07934 0.117182 -2.50522e-20)
(0.998581 -0.00122516 5.89845e-23)
(1.0188 -0.0126646 6.04721e-23)
(0.982704 -0.00498747 6.93977e-22)
(1.05203 -0.091035 2.38235e-22)
(1.04665 -0.0972647 -1.68706e-21)
(0.998212 -0.000884316 1.17293e-22)
(1.04682 -0.0267346 -1.12652e-21)
(0.920436 0.00341371 -1.3664e-20)
(1.17453 0.0354518 2.92816e-21)
(0.999948 -0.000168307 7.59304e-24)
(1.06278 0.00848583 -2.67693e-21)
(0.99736 -0.0094338 -3.05196e-22)
(0.994373 0.00261407 2.93648e-20)
(0.98818 -0.00573446 1.21971e-21)
(0.996996 -0.0282679 -3.64586e-22)
(1.01978 -0.037135 -4.94564e-23)
(0.995578 -0.0293034 -6.02186e-23)
(0.999352 -0.0224177 -7.96688e-22)
(0.992721 -0.00354603 2.12853e-22)
(0.999559 -0.0150913 4.32854e-22)
(1.00204 -0.00650144 -6.58647e-23)
(1.05831 -0.0209043 7.4921e-22)
(1.0001 -2.74654e-05 -1.88911e-23)
(1.20421 -0.0915988 -9.03992e-22)
(1.16004 -0.00457877 5.58118e-22)
(1.02121 0.103861 1.93766e-20)
(0.963311 -0.0248067 3.8494e-21)
(1.10894 0.102032 -5.83859e-21)
(1.0019 -0.000677155 2.10011e-22)
(1.07656 -0.0759501 -5.14867e-23)
(1.00669 -0.0405245 -8.07806e-22)
(1.02009 0.0353845 1.1187e-20)
(0.993241 -0.00428286 5.26251e-22)
(1.00011 -0.000186349 1.25844e-23)
(0.987548 -0.0194472 1.87919e-21)
(0.995957 -0.0101116 -2.40263e-22)
(1.0437 -0.0244049 2.2827e-21)
(0.971649 -0.008031 -2.50204e-21)
(0.97685 -0.010171 7.03807e-22)
(1.13046 -0.0324669 4.77849e-22)
(0.985457 -0.00321681 -1.20436e-21)
(1.01724 -0.0390299 2.17668e-22)
(0.994041 -0.0879731 2.21236e-21)
(1.00001 -8.16774e-06 1.9197e-25)
(1.0594 -0.013141 4.07799e-21)
(0.995267 -0.078794 -5.91573e-21)
(1.11459 0.0887025 5.55361e-21)
(1.10153 -0.070314 -1.04377e-21)
(1.03456 0.00273943 5.87569e-22)
(1.03476 -0.108016 -4.43844e-21)
(1.04142 0.113046 5.2308e-21)
(1.0373 -0.0359603 8.56188e-22)
(0.966828 -0.0121511 -2.38683e-21)
(1.01773 -0.0493463 -9.47216e-22)
(0.962121 0.004961 1.30551e-20)
(1.166 -0.0972115 4.9504e-22)
(0.987497 -0.00533674 -3.70378e-22)
(1.03881 -0.135698 -3.47147e-22)
(1.03158 -0.0694432 1.33758e-21)
(1.0539 -0.123368 -6.78668e-22)
(1.049 -0.084036 -1.58008e-21)
(1.07931 0.0647895 1.11665e-20)
(0.997347 -0.00174002 1.03088e-23)
(1.00801 0.041438 4.15572e-21)
(1.00762 -0.0015692 2.96442e-22)
(0.999627 -0.000567565 -3.99127e-23)
(0.998868 -0.00244249 2.8591e-22)
(1.05847 0.00188228 -1.00322e-21)
(0.87592 0.00421927 3.9106e-22)
(1.0017 -0.00694819 3.6982e-23)
(1.02171 -0.0551772 3.05574e-22)
(1.02319 0.0231904 -6.51773e-21)
(1.00003 -7.83782e-06 -3.92576e-25)
(0.979187 -0.0102137 1.70198e-21)
(1.02221 -0.00957204 2.03332e-21)
(1.07798 -0.0397813 1.39946e-21)
(1.00771 -0.000868657 1.6614e-21)
(0.998487 -0.00215633 5.28688e-23)
(0.985296 -0.0430785 5.20607e-23)
(0.998026 -0.00906566 -8.5976e-23)
(1.00003 -5.81575e-06 4.28986e-24)
(0.979294 -0.0510433 -5.09941e-21)
(1.04974 0.0798724 -3.02325e-21)
(1.02138 -0.0323199 1.53985e-22)
(0.983504 -0.00563531 -1.30312e-21)
(1.00175 -0.000424769 -7.55979e-23)
(1.02611 0.025146 8.59468e-21)
(0.999634 -0.000678922 -1.84707e-23)
(0.998807 -0.000698288 -5.82469e-24)
(0.999656 -0.00018467 -2.76957e-23)
(0.999301 -0.00228584 -7.09659e-23)
(1.16555 0.0546223 3.5453e-21)
(1.03056 -0.0365433 1.11446e-21)
(1.00865 -0.0194286 1.61589e-22)
(0.982383 -0.00830924 -5.94042e-22)
(1.00004 -5.46593e-05 4.16411e-24)
(1.08754 -0.128551 4.28852e-21)
(1.20666 -0.0124743 1.18765e-22)
(1.09476 -0.138467 -2.07349e-21)
(0.998493 -0.035928 -6.78408e-22)
(1.01369 -0.00942109 1.89956e-21)
(0.999796 -0.000106549 1.25653e-23)
(0.989005 -0.0126633 -7.52703e-22)
(0.958897 -0.0530673 -3.04369e-21)
(1.16385 0.0373995 3.66021e-22)
(1.00448 0.0565376 -2.9389e-22)
(0.998921 -0.00344828 5.75592e-23)
(0.943197 -0.0378691 1.74035e-21)
(0.995453 -0.00301272 -5.02282e-22)
(1.03505 -0.033244 -1.77434e-22)
(1.09142 0.0619528 1.18145e-21)
(1.00043 -0.000144309 -6.38179e-23)
(0.99985 -0.00022895 -4.4648e-24)
(1.14149 0.0991437 1.17913e-21)
(1.159 0.0189091 -4.01449e-22)
(1.01848 -0.0157889 7.02717e-22)
(0.997166 -0.00189968 2.6456e-22)
(0.997985 -0.000499065 -2.61875e-23)
(0.966524 -0.0536574 7.42098e-22)
(0.999835 -0.000379838 -1.50316e-23)
(1.01921 -0.0342149 3.26723e-22)
(0.986807 -0.00158896 2.49546e-21)
(1.00055 0.0165092 -4.92026e-21)
(1.05363 0.0849108 -1.55735e-21)
(1.07088 -0.0702941 4.04891e-22)
(0.999631 -0.0790216 2.20358e-21)
(1.00624 -0.00156201 8.29745e-22)
(1.01548 -0.0255892 -6.71824e-22)
(1.15096 0.00230276 2.53398e-21)
(0.999694 -0.0881054 -1.36531e-21)
(1.02077 -0.0473276 5.21833e-22)
(0.999999 -7.65311e-06 7.21828e-27)
(1.13804 -0.0129036 1.40981e-21)
(0.973923 -0.00326568 2.35169e-22)
(0.999401 -0.0980917 2.72673e-21)
(1.02069 -0.0297339 -1.06143e-21)
(0.954742 -0.0176129 -5.37811e-22)
(0.999615 -0.000325425 -1.35616e-23)
(0.997115 -0.00142211 -1.17986e-22)
(1.03923 0.0396147 1.07019e-20)
(0.969961 -0.012273 -9.07579e-22)
(0.999985 -2.0009e-06 4.76334e-25)
(0.997229 -0.000584679 -2.76985e-22)
(1.16188 -0.0823425 -3.8855e-21)
(0.999839 -5.34117e-05 3.15325e-23)
(1.02482 -0.0528644 -1.44835e-22)
(0.999952 -0.000134507 -6.23199e-25)