/*--------------------------------*- C++ -*----------------------------------*\
  =========                 |
  \\      /  F ield         | OpenFOAM: The Open Source CFD Toolbox
   \\    /   O peration     | Website:  https://openfoam.org
    \\  /    A nd           | Version:  7
     \\/     M anipulation  |
\*---------------------------------------------------------------------------*/
FoamFile
{
    version     2.0;
    format      ascii;
    class       surfaceScalarField;
    location    "34";
    object      phi;
}
// * * * * * * * * * * * * * * * * * * * * * * * * * * * * * * * * * * * * * //

dimensions      [0 3 -1 0 0 0 0];

internalField   nonuniform List<scalar> 
11512
(
140.562
-508.492
367.931
-776.441
4.26947
772.172
421.249
-372.009
-49.2395
656.32
255.436
-911.756
1510.26
-1069.4
-440.863
1216.26
-1527.1
310.842
-37.5155
469.967
-432.451
169.222
-840.557
671.335
961.931
-1610.72
648.787
-1770.76
1679.03
91.7275
-542.947
1759.2
-1142.41
1936.14
-793.73
605.029
181.412
-786.44
-25.746
-1322.41
1348.16
223.398
-1994.16
1022.09
-386.609
-635.486
-193.062
333.624
482.237
190.642
-672.879
1154.3
-1316.03
161.73
-332.242
379.539
-47.2971
1013.29
-1327.67
314.383
1221.73
800.25
-2021.98
75.2827
-1650.48
1575.2
-495.886
-1156.83
1652.72
472.179
181.98
-654.159
-183.74
-324.752
497.485
1012.77
1658.01
-1817.2
159.192
-98.0477
-1688.26
1786.31
-1561.13
657.835
903.296
-312.681
652.537
-339.855
-192.249
-126.632
318.881
1293.07
-1217.79
355.366
-1407.19
1051.83
-1754.24
1754.24
100.074
1542.48
-1642.55
-1085.26
-475.868
648.033
-685.549
-388.56
942.201
-553.642
1331.71
-1317.12
-14.5891
-1100.38
711.817
621.651
400.443
-415.692
-15.7126
431.405
-460.539
803.713
-343.175
-1618.33
1618.33
1253.53
-1437.84
184.308
-489.332
1711.06
1252.72
-310.515
1660.7
-1161.2
-499.505
57.4348
-389.676
2067.92
-1137.13
-930.791
1825.05
-167.033
449.999
156.115
-606.115
-473.846
980.872
-507.026
-1179
1279.07
-566.223
969.154
-402.931
396.507
757.797
660.269
-491.047
-438.385
588.451
-150.066
1190.53
-835.166
2308.24
-1080.7
-1227.53
1164.86
-2012.08
847.213
-1612.54
1586.8
440.485
-1582.9
-758.687
1250.23
-491.546
-670.738
358.057
1661.41
-699.482
-1106.93
-870.903
1977.83
700.315
-387.228
-313.088
690.831
561.885
-258.218
1511.75
96.181
-309.338
213.157
-284.712
756.89
-332.707
558.669
-225.962
-324.357
806.594
-320.512
-138.199
458.712
319.035
102.214
1472.23
-458.94
-1001.6
497.611
503.99
261.444
99.7833
-361.227
946.419
-341.391
-1704.52
632.17
1072.35
21.6106
-866.728
845.118
-274.371
588.289
-313.919
158.725
-1093.92
935.191
1050.48
-1066.12
15.6428
373.156
516.528
-889.684
-245.287
695.286
-1102.79
-482.752
1585.55
-676.586
949.248
-272.662
1352.48
-1450.53
-658.891
292.916
365.975
-470.211
-1011.46
1481.68
-535.789
-797.691
1333.48
574.956
-994.854
419.898
-261.167
-313.73
574.897
400.082
-303.901
-1047.94
574.092
955.615
-796.89
-110.415
943.592
-833.177
-199.67
407.268
-207.598
-637.508
-364.094
-386.737
961.693
1856.35
-1856.35
-481.228
-177.663
-946.137
1569.25
-623.112
464.806
-900.882
436.076
-921.792
355.569
-941.902
-1058.08
-1501.27
342.838
1158.43
-268.384
924.704
-335.815
631.976
-296.161
-1941.89
999.992
-1151.39
-349.882
568.585
-1514.72
1728.5
-1726.06
-2.43886
200.182
-618.993
418.811
-1471.75
975.981
495.768
275.072
224.52
-499.591
303.956
-636.663
231.66
-405.027
173.367
2017.66
-870.821
-1146.84
-556.945
141.252
614.439
841.539
-1455.98
-182.707
414.367
431.841
875.859
-1307.7
-902.426
387.185
515.24
-1051.8
1448.3
-1068.23
309.542
745.792
-93.2556
573.427
-294.281
-279.146
1026.67
-529.059
593.483
-1403.59
810.107
-1342.03
239.236
-539.289
264.918
-1191.41
923.024
1944.87
-987.705
-957.162
276.797
1579.56
-2100.39
899.008
1201.38
351.815
-34.3413
-317.473
-222.676
477.323
-254.647
-92.4734
-394.369
486.842
-458.31
137.797
335.993
-131.922
596.728
432.847
375.368
-808.215
-2043.5
1126.89
916.612
462.063
-524.505
62.4427
216.106
-356.343
140.237
1004.15
1013.51
1796.16
-253.678
752.153
-459.238
795.227
-1388.76
593.534
364.866
335.45
1064.59
-1042.98
-488.183
-254.965
743.148
466.517
-125.845
-340.671
794.854
-613.442
547.168
-735.077
187.909
503.332
1157.37
-1240.43
704.642
1032.73
-1528.62
-3.11403
-1439.42
1442.54
327.962
822.155
-1150.12
621.723
269.898
-891.621
-2270.51
1153.02
1117.5
-1100.57
-1169.94
177.487
369.681
959.196
-631.233
877.897
-897.711
19.8144
-2099.39
992.462
-216.147
-185.426
401.572
-42.1228
1770.63
-844.5
68.0591
-1032.34
-1068.05
-227.257
443.363
-695.893
214.664
-288.194
-425.693
713.887
1103.93
-1574.14
782.472
-1374.15
591.673
698.414
-442.977
1947.82
-1444.48
-378.281
-1375.96
62.6373
407.33
-538.668
542.937
31.4636
-590.301
558.837
568.434
-293.362
-597.666
274.21
323.456
788.646
-355.799
35.1988
316.616
1188.47
-1191.58
162.121
237.961
396.336
-684.53
618.15
-1004.89
-2026.78
2026.78
-272.442
-446.158
718.6
698.687
405.836
-1104.52
579.953
165.84
419.023
369.623
-2199.77
1328.86
-925.645
-680.571
1606.22
-476.405
-715.003
-251.3
557.84
-306.541
837.864
-217.635
-620.229
-462.482
662.664
362.602
-698.417
-381.388
-132.069
513.457
-1338.72
-478.482
650.238
-1126.64
-374.135
-1244.2
844.362
1463.88
304.906
-915.878
610.972
966.186
-344.535
1391.15
-797.665
439.678
-277.557
-322.473
-880.815
584.242
296.573
-349.681
-531.134
319.273
-411.746
-188.434
-159.199
347.633
-392.825
1091.51
433.373
-242.731
-382.376
1365.17
-172.865
-1192.3
-483.879
306.154
177.725
222.513
272.038
-494.552
-2.31839
-732.759
592.204
-1729.09
1136.89
1486.43
-871.991
-1048.71
-423.043
-1055.59
574.704
480.886
1392.83
-416.846
928.42
-1411.17
-174.688
-183.286
357.974
-467.401
577.912
-1629.71
427.846
903.866
299.925
298.646
-598.57
568.031
1186.21
1102.34
-709.189
-393.153
390.986
-203.171
-187.815
-1419.42
446.963
736.391
-1183.35
1473.19
-544.774
-485.792
942.395
-456.603
426.164
1186.13
-1612.3
47.4318
-724.018
-154.102
415.546
195.216
-387.465
541.137
485.533
-594.374
39.6516
554.722
1024.51
-1307.64
283.13
672.418
-253.395
468.428
-1447.19
978.766
393.068
1689.12
-524.26
894.121
1050.75
-658.199
-1684.93
759.282
563.621
411.805
-975.426
457.433
79.1
1750.2
-1829.3
1443.6
-379.491
-1064.11
1699.23
-1741.35
-364.759
-542.072
730.377
-188.306
-502.59
171.81
294.707
-373.131
-1225.91
214.445
-764.753
-638.837
-629.066
996.102
-367.035
-650.857
640.654
10.2027
654.748
-923.339
268.591
-708.419
350.237
358.182
-646.952
-701.336
346.688
354.648
-932.083
1400.51
-426.263
893.374
-467.112
-2205.32
5.55627
168.526
-529.835
361.309
144.263
1220.91
-106.217
-589.676
151.943
-590.328
1486.94
-704.469
392.703
-465.96
73.2575
-560.512
560.512
1222.95
395.387
1778.33
-1227.75
590.195
637.552
846.392
-51.5382
1292.71
775.218
-541.133
1336.36
293.71
294.58
267.457
-809.529
249.115
-709.653
224.737
-436.425
211.689
-254.732
589.205
-334.473
113.242
-367.974
-591.1
-564.706
1155.81
-379
557.371
-178.371
-1192.14
2032.03
-839.883
1288.04
-328.849
-396.082
134.915
-1982.51
825.677
1548.23
-851.535
-696.69
1987.05
-877.494
-1109.56
714.518
573.526
-239.73
464.467
-674.136
1157.71
-483.575
-769.105
1200.95
551.99
924.53
-1725.96
801.425
-554.184
-83.7019
637.886
311.534
261.893
411.995
-88.1824
-323.813
896.241
-83.5717
-812.669
937.751
-578.045
-359.706
1576.13
-472.204
895.05
-1630.44
735.394
1068.44
879.377
746.456
-435.067
-311.388
-1058.81
-258.312
573.043
574.421
-1147.46
-470.125
527.756
-57.6314
572.258
-334.581
-237.677
-989.71
563.447
594.007
892.424
-441.754
1096.5
1426.85
-789.285
-637.566
388.595
-922.568
533.973
-1046.92
409.409
572.855
-1058.65
478.239
-554.346
76.1074
489.661
314.052
-511.676
-48.8365
-793.813
-881.958
1675.77
180.743
210.243
-236.491
413.979
-29.0035
-573.269
602.273
501.155
872.243
-1373.4
-501.91
313.477
985.073
-88.8326
835.255
-1064.16
228.906
408.979
844.851
-1385.98
-462.634
838.002
1982.53
-1288.32
-694.21
269.456
608.441
255.453
795.023
97.8559
-981.585
883.729
1673.71
-1088.91
-584.795
-138.076
1888.27
-1866.14
-160.643
482.321
-620.469
138.148
-1011.25
528.414
482.836
-1730.46
538.316
-955.389
844.973
393.01
195.441
578.252
-273.346
-416.667
706.985
259.201
48.2382
721.731
-769.969
-1129.18
-899.429
2028.61
-545.353
1122.74
-577.389
-485.217
-321.75
105.603
-1658.08
864.266
-845.488
-618.561
1464.05
-328.847
-294.329
623.177
351.773
-659.321
307.548
258.278
-614.077
341.435
196.043
-537.478
367.319
-618.619
630.061
-278.288
315.535
-453.734
681.497
418.352
-195.839
-407.444
-293.892
1228.68
-2.18763
-1226.49
1038.44
-420.292
558.258
410.896
-1782.29
869.805
912.49
488.057
562.024
-1050.08
-531.836
202.988
-264.734
1182.21
-917.475
-1590.8
1212.52
504.593
-1095.69
386.266
6.43731
432.357
317.566
-749.923
367.156
-612.443
-38.7722
760.158
-721.385
-524.714
794.612
399.083
320.557
525.835
650.614
105.339
-420.843
315.504
1057.98
-644.493
-413.487
494.053
-1664.27
1170.22
-1140.27
1753.22
-612.948
1715.89
-1123.68
-333.746
607.956
-1182.99
1280.85
424.534
-800.926
1615.25
-814.322
-282.102
-201.777
-903.183
1472.96
1816.77
-610.586
-1206.19
-405.264
676.17
-1305.24
-124.637
-60.1297
472.125
-691.021
-354.184
-1236.62
-213.72
471.998
902.219
-561.4
167.031
-1674.91
-71.3332
1746.25
-1084.03
538.681
565.016
-1187.22
622.207
901.067
915.707
630.41
619.823
703.779
238.616
-1151.19
477.056
-395.977
427.44
614.006
-513.229
234.284
-731.01
496.726
712.568
-347.703
-309.904
183.272
-620.921
253.884
367.038
-885.896
-744.548
1087.67
-2145.74
394.967
-679.678
-342.777
-723.342
838.125
588.727
-341.491
325.778
379.708
240.539
633.217
-873.756
525.78
631.931
-557.514
176.126
357.57
-630.012
-1042.84
-853.159
1896
-1808.02
157.536
1106.59
-1371.32
1167.69
-712.531
-455.163
-504.689
1349.54
-1495.42
627.935
867.484
-283.607
-208.978
492.585
1428.45
558.606
362.81
-494.879
-478.944
-575.384
1054.33
-427.049
595.575
1583.43
-1131.29
-452.135
-792.796
346.638
654.423
403.557
-1623.42
416.191
1207.23
-182.828
524.263
797.542
785.885
206.269
-705.504
499.235
197.217
210.05
-275.03
-110.521
385.551
506.326
-5.48531
-500.84
-1648.64
599.935
-1612.43
1682.8
-70.3761
14.0137
-1626.44
1069.47
784.003
-351.646
-823.394
-223.522
-1134.57
-239.571
-312.093
679.25
-1812.99
-639.619
1214.04
222.268
758.604
-1333.18
-678.896
-466.171
630.654
-330.729
-1013.26
1350.81
-1933.05
582.234
647.518
1288.63
479.52
-2.19738
718.351
713.579
-1431.93
-635.43
326.687
308.743
434.58
-100.786
-333.794
140.076
325.902
151.34
-477.242
-598.018
1161.64
452.692
-648.496
-459.384
-401.851
861.235
-327.057
152.369
-455.034
151.133
-300.731
-710.518
539.691
-105.111
-578.692
967.287
571.994
-267.233
-304.762
452.129
-776.486
-650.231
460.657
-1129.37
-847.481
1190.32
-569.771
445.844
297.304
-468.11
80.8826
1026.9
-313.435
588.65
-275.215
-509.039
1578.51
-700.368
256.731
366.813
-623.544
229.819
502.224
-35.37
-466.854
-267.229
-187.805
1012.29
1108.82
564.886
-890.2
955.053
-64.8528
-450.988
167.381
-749.738
324.045
-596.692
327.624
384.944
845.67
-1250.99
405.323
775.704
-814.476
-948.817
-550.396
1499.21
-178.317
476.962
-565.562
271.281
1308.34
795.762
-589.494
1329.17
-678.928
487.035
-662.644
-402.591
-420.409
-378.488
798.898
499.823
-841.213
-473.782
102.931
370.851
-309.371
572.499
725.107
-330.14
-228.676
-175.079
403.755
-492.421
128.667
363.754
1462.58
83.1768
-1545.76
-756.207
1350.21
-1144.78
-465.936
550.228
-183.415
1153.81
-378.103
1083.41
492.723
705.642
-438.185
-884.687
-522.506
-1328.31
-19.9165
985.903
-965.987
595.306
349.676
-944.982
-352.928
-204.016
-684.521
405.545
1621.24
-197.489
386.392
339.833
-726.225
-1839.75
-2106.71
1519.15
587.554
-2037.58
349.316
382.324
532.946
-915.27
-460.594
1018.85
-414.217
-669.936
1084.15
-2030.56
1391.21
639.349
595.915
-1010.13
43.1089
435.13
386.184
184.715
254.963
323.907
978.239
882.622
675.362
-320.68
-354.682
-287.691
615.723
-328.032
569.099
533.243
564.328
514.504
-1078.83
-796.043
-699.377
750.783
403.024
-408.368
715.916
-1193.38
1609.57
439.094
-1109.03
-355.555
551.599
-1384.93
890.436
494.495
-712.097
-339.197
-776.436
339.787
436.649
447.374
717.329
-1164.7
1079.3
-591.246
-426.105
676.38
-250.275
250.337
321.657
-465.636
-432.4
898.036
-227.686
572.269
-969.839
397.57
-462.259
600.598
-1681.3
424.018
669.991
-1094.01
524.131
107.845
113.413
-2212.81
550.11
-104.266
1445.06
1777.1
-217.547
-1559.55
-438.556
1789.37
-1987.32
1194.61
792.709
395.713
350.743
-43.978
882.103
-1282.63
717.924
-867.487
-821.988
802.071
297.483
80.2732
-377.756
221.366
173.717
-395.083
1563.8
-845.453
-1530.92
-325.432
516.015
-230.295
-285.72
391.025
365.865
265.475
365.179
-11.5433
1003.68
-992.133
379.828
297.352
-677.179
-734.191
1817.44
-1083.25
-342.687
733.712
-1227.52
-415.027
-913.241
480.841
592.897
-793.064
200.167
757.872
-376.256
-381.616
-438.264
-451.936
451.509
1098.63
1242.3
-677.286
798.045
-345.916
382.419
336.181
-233.647
-232.313
-225.864
618.933
408.269
-844.729
436.46
236.626
351.051
-587.677
-419.556
827.825
753.972
-1146.8
897.077
-51.4069
-485.914
282.006
782.584
-96.6923
1385.32
1890.51
-46.3613
352.515
-318.876
424.214
-1088.57
1077.03
645.302
376.558
381.315
86.6236
429.391
261.251
510.92
-378.321
-257.109
-561.154
-89.7033
-372.442
362.738
9.70412
-257.531
-281.758
1010.74
-1540.67
529.936
-181.465
-190.544
-388.664
686.016
-1648.41
1590.92
-962.988
279.742
-682.333
584.336
1224.41
-1808.74
607.445
983.479
325.223
-1128.27
711.607
-286.869
-311.701
1387.87
-1455.78
837.551
618.231
442.272
-648.529
206.256
-397.817
493.036
-95.2197
387.101
119.225
1724.78
448.727
-251.51
557.67
-1704.79
1147.12
-99.3595
395.407
343.128
332.234
-448.77
-614.343
1063.11
410.884
-873.518
-640.143
902.219
570.975
-479.05
-229.369
-435.246
-409.482
-307.704
-826.871
1821.09
-1821.09
-101.001
-1599.96
1700.97
298.189
274.07
-916.81
-555.654
1472.46
-408.169
972.498
-610.777
-1037.86
697.039
402.83
-1099.87
468.013
-152.478
573.076
1220.34
-1793.42
-1040.49
2114.12
-1073.62
-380.178
-290.56
-487.908
834.547
-1760.6
1608.06
152.534
1760.6
-1614.57
-146.027
-238.477
516.887
-278.41
-537.314
1620.73
1575.82
-1990.85
1106.45
-294.898
-272.741
567.64
228.216
-583.772
-713.502
305.134
1343.77
638.758
587.986
478.034
-1066.02
269.59
436.052
875.191
500.112
-1375.3
541.678
-1020.62
1574.94
-564.2
-773.938
-361.915
-140.856
502.771
-490.38
1207.71
-742.203
328.956
366.33
388.425
245.786
-634.211
616.641
831.531
-602.626
262.295
692.758
-479.05
-331.888
-246.266
578.154
1168.42
-681.204
606.177
469.473
-1075.65
-1288.86
1288.86
-382.42
758.978
-274.625
-486.183
760.808
503.683
440.203
-943.886
397.409
-672.034
604.116
-871.141
267.024
-367.664
-488.609
1076.59
-658.887
-714.118
1373
-381.067
953.336
-1552.78
675.29
36.5986
-436.875
400.276
-524.67
739.334
271.705
317.5
160.746
307.267
-537.079
250.21
1870.69
-1967.38
263.694
-726.177
463.4
-826.918
363.518
-906.549
1426.55
-520.003
-430.371
-482.87
600.894
1124.15
-1725.05
-713.69
333.512
-464.372
1033.47
-796.564
1058.86
-371.745
-621.438
-504.487
753.602
537.112
-355.132
914.567
-321.714
-170.707
1599.03
-1816.58
-351.635
-618.204
-352.444
481.11
280.843
-611.572
-178.649
1074.7
-792.69
198.67
-306.779
-271.94
578.72
391.701
-892.793
501.092
-478.208
-468.382
-915.878
-365.969
604.815
-238.846
-464.931
-446.926
-358.033
-179.445
-411.464
657.251
-446.472
782.653
-1071.6
622.829
-1405.83
560.345
-28.8938
-1840.68
1869.58
570.132
-450.793
1238.97
-700.286
294.197
-294.197
674.593
-456.635
1037.45
-1648.23
-1158.74
-947.966
286.818
328.905
897.537
717.712
-511.85
-306.434
818.284
1662.24
-1691.14
-433.146
334.975
233.458
1134.86
-528.684
-943.341
1550.5
-607.156
441.286
-256.571
371.04
406.759
-777.799
545.996
467.356
-1013.35
-331.218
660.174
-38.1851
1908.88
1606.03
992.333
-1696.8
726.436
-1176.54
450.104
-492.515
1367.71
836.359
-1341.05
-580.357
285.458
812.893
-401.089
547.421
-1194.33
646.914
-632.773
-1215.52
-695.708
1911.23
-191.437
569.55
-378.113
-185.854
330.308
-521.745
338.265
362.22
-700.485
-1491.96
756.933
735.03
883.952
-1434.35
821.282
-434.097
203.654
-357.756
-613.082
281.194
-664.099
-720.832
696.954
507.722
-1204.68
381.218
-206.238
-174.979
553.76
-956.69
-583.725
-427.437
751.482
-831.355
-1155.96
-1437.94
499.749
938.188
3.17971
-658.827
357.841
300.986
-1326.35
1050.43
275.919
-615.072
-456.527
-665.479
920.932
396.484
-189.155
-207.33
508.436
980.393
-1488.83
986.199
-559.081
165.083
393.998
-422.024
691.317
-427.622
-509.987
157.543
234.104
-1522.42
525.12
554.183
-781.574
256.904
138.09
-459.804
361.269
-829.651
1954.16
-1195.38
-758.778
429.557
-698.815
269.259
320.249
345.585
103.508
-449.093
-582.725
185.453
263.274
-691.827
1374.16
-682.328
424.099
483.764
-1195.86
259.356
1866.77
-1013.59
-853.179
783.96
-555.173
189.204
1402.3
-975.096
-427.201
326.078
-782.712
-616.6
1725.42
607.235
635.067
331.138
-33.6544
265.211
-1138.33
1725.72
-587.389
-1763.55
820.21
1767.45
-1696.08
-71.3732
-670.904
274.927
583.314
-739.113
234.626
1402.55
-566.192
380.707
457.295
-1858.79
1420.23
576.73
-448.534
-128.197
199.071
-557.103
-289.463
-195.754
-348.032
691.16
-595.177
233.262
622.344
547.605
-1169.95
1113.45
-1947.68
834.225
156.746
356.711
-1700.47
1662.29
307.453
-745.638
-173.842
377.495
764.003
679.138
-1443.14
1085.97
-1088.16
522.981
-1114.23
-624.284
246.276
378.008
546.997
-293.113
-621.823
-1026.4
287.528
-734.454
-912.322
171.733
152.271
228.946
411.253
286.712
-697.965
-639.802
-834.414
-978.574
487.329
-1070.05
-320.247
497.972
534.393
655.926
-276.267
-119.815
-413.375
738.598
264.916
-1205.14
565.342
1315.89
-551.887
442.388
-1026.11
-381.378
164.86
411.87
1023.11
551.825
-1721.16
1620.16
1641.06
-584.246
-1056.81
1906.94
-1896.35
-10.5887
226.546
-545.422
-368.054
566.724
-776.164
-335.825
-335.079
1019.24
709.474
-1518.34
808.866
318.231
-26.1828
1625.22
-1104.24
423.04
-1255.64
481.705
-61.6458
1524.23
1196.95
-470.509
-485.684
-73.3968
-280.096
736.082
-1951.61
-706.396
366.808
-536.34
169.533
190.249
-503.684
1139.96
671.625
-1811.58
-637.257
188.723
941.599
-1497.25
-210.538
678.74
-468.203
873.939
1126.06
-746.231
1353.47
633.36
-498.64
-134.72
-341.697
1179.25
1049.42
-1979.79
930.371
-1180.12
540.499
1488.7
-586.481
-404.469
-153.045
-1247.17
569.887
1164.78
-92.4327
946.278
776.063
-1722.34
-194.592
578.85
-1541.71
962.862
487.028
916.381
-1403.41
630.887
583.153
412.389
-1106.6
589.116
1114.45
1215.11
-452.099
-763.01
-1186.2
-1754.93
-4.96855
-1716.19
-207.024
-441.505
1612.31
-635.209
-977.1
-490.809
1121.22
-1322.7
633.716
688.98
-1365.39
1448.57
-1335.71
589.482
1520.45
-394.962
-596.169
191.699
-1490.79
222.617
176.387
244.907
388.452
439.708
412.942
-852.65
506.461
-938.757
900.009
-1444.78
-720.755
239.713
481.042
-1056.1
458.083
-488.833
869.54
697.684
13.8236
-546.808
168.695
-886.569
-1318.75
-711.153
345.181
365.972
396.461
-721.575
325.114
-472.531
-189.361
-708.35
726.413
1540.18
-593.905
824.911
738.893
1344.59
-844.482
-970.851
-570.861
-793.046
429.073
363.973
-1035.36
-637.333
298.711
338.622
-1433.68
-296.777
-787.253
394.277
392.976
-670.565
420.539
250.026
-696.131
268.509
412.881
485.155
389.9
437.925
476.803
384.432
595.111
-968.242
696.68
464.959
451.627
355.964
-807.592
1630.72
-1079.81
-550.91
-504.92
-292.299
-1034.05
451.313
347.584
409.776
592.525
-1002.3
-1385.43
750.217
-528.173
1150.38
369.383
-43.4811
412.609
-862.811
450.202
-1899.24
299.277
438.856
-723.409
284.553
-193.531
398.986
-205.455
-659.624
298.798
360.826
-669.416
314.734
370.791
388.187
611.648
-1019.82
751.626
664.981
-1416.61
438.878
624.235
337.225
391.771
-728.996
405.695
328.018
600.577
677.184
421.45
607.253
-1038.97
431.716
-1675.53
1181.75
493.777
1696.56
-539.185
618.177
-1146.92
528.745
-639.191
344.861
437.73
-933.121
495.39
772.721
-455.155
350.736
340.424
583.066
-934.7
654.072
-1252.48
598.41
394.713
733.754
-1224.13
768.538
510.061
-1278.6
498.955
405.378
-904.332
-501.816
-936.121
-293.152
631.418
352.482
540.36
-892.842
328.942
331.232
-502.194
1944.73
435.555
-845.286
409.732
-917.559
-808.396
-744.79
363.174
-1236.95
440.388
-1744.33
1614.57
129.764
1752.78
-1608.06
-144.722
-781.162
-586.354
259.496
326.858
-1767.45
1990.85
539.161
790.51
-1329.67
440.173
715.632
689.655
385.613
-1075.27
-54.7046
1617.14
-594.027
393.123
845.844
-644.657
322.927
321.73
-378.92
-295.889
546.226
-210.328
434.848
276.06
-659.449
383.389
258.07
-571.988
-277.806
442.839
-1032.19
589.35
538.074
1092.65
365.974
595.719
308.617
350.168
-658.785
1638.65
-929.18
1692.64
-1521.38
-171.263
-328.285
-820.238
410.755
857.189
-1067.73
-601.187
273.155
-1090.52
1628.6
-1596.37
-74.5254
1670.89
-341.691
-350.514
-370.705
540.665
594.196
-501.609
-22.896
-549.553
499.071
-283.558
-215.513
1761.03
-1309.52
-619.629
294.151
325.478
403.02
357.323
734.19
-290.724
-399.608
-1752.78
1691.14
459.828
-1100
640.177
-41.7293
1661.89
570.675
476.27
-1046.94
102.966
1144.28
-1451.98
-10.2474
-1888.99
220.661
-593.291
306.326
286.965
-954.498
611.721
-895.945
465.574
-1127.78
672.34
455.436
388.075
271.498
-783.348
-310.533
1215.96
886.063
699.483
-1182.55
456.16
726.389
494.712
699.736
-1194.45
-361.362
-249.655
401.926
-958.923
439.069
519.854
21.2126
-1880
1081.53
-477.418
-512.248
558.916
-1378.01
819.095
-438.612
802.13
-405.938
502.632
-711.137
1723.43
401.273
-172.327
212.288
-158.99
-247.499
406.488
1895.35
-504.133
-1704.97
1050.53
-595.677
299.788
-1012.24
551.642
-312.632
544.475
904.931
-1449.41
-1102.85
437.371
-21.1394
-1946.24
1713.01
-663.592
-539.139
460.908
-1189.97
729.063
198.859
197.625
-278.327
774.648
698.314
836.06
816.044
-460.08
1084.06
-495.486
470.076
-185.261
-284.815
-1925.02
-712.858
-317.232
-640.328
-6.34705
646.675
457.55
-272.097
570.943
1067.71
-812.825
922.885
1243.82
-425.961
-175.366
-243.471
418.837
959.506
-888.275
-316.672
-1066.77
610.246
1564.79
-807.856
537.879
934.585
-403.652
737.816
-334.164
1129.83
-273.326
341.902
1349.43
-708.975
-213.593
448.36
-1198.22
749.856
-980.259
-137.749
1118.01
439.335
-954.132
514.797
180.332
732.121
482.987
743.002
-109.785
850.534
-426.351
1181.87
-796.255
552.525
-1465.36
912.838
-1216.64
1800.97
-431.706
-1510.19
879.274
-1401.78
-327.231
-422.692
1457.04
-1528
783.456
1491.4
193.95
276.126
-371.897
-1744.33
-287.164
-1017.69
1588.63
-1779.58
1779.58
1575.82
-1004.32
-630.904
-356.296
368.325
604.173
-377.632
-378.797
-1389.66
897.144
1125.07
600.651
1202.3
1789.49
-1216.41
-621.991
272.29
1659.24
-1916.82
257.573
815.948
-1268.08
1545.16
-561.682
798.863
323.879
-359.139
555.623
793.916
662.015
1366.59
-244.127
-445.743
-384.701
493.364
-337.249
472.048
735.661
-317.549
-131.544
-348.443
575.403
-226.96
35.5655
-370.147
1107.33
-1720.28
-458.07
-503.574
-576.129
864.307
700.482
-1596.3
904.474
-452.28
-632.513
-515.338
1251.73
355.215
1723.86
-1702.65
-1662.24
1896.35
-1560.62
840.11
720.515
-390.313
-1800.08
918.118
584.095
818.456
-393.838
1794.55
-681.096
-423.732
686.927
445.342
-1132.27
-1103.56
444.244
752.701
-1617.12
473.278
900.877
165.84
-390.808
224.968
-1604.53
-389.627
-441.912
990.175
-681.831
1442.81
-979.718
1853.66
242.284
-538.223
489.352
-295.402
474.342
893.364
543.388
977.061
-463.533
-427.882
574.368
882.67
-1392.69
-40.9932
1582.54
-843.647
519.974
971.422
-1475.77
-1115.89
1778.47
-1241.29
-537.176
1206.01
-319.354
-886.657
-182.299
445.075
-262.776
-457.288
-251.274
421.588
-170.315
134.89
-384.545
1737.81
-1742.77
-475.26
-530.885
-903.463
433.809
-196
-237.809
630.347
-469.854
-362.322
-332.215
694.536
-941.259
410.125
-1166.91
676.101
408.124
-646.967
-433.76
1586.89
-869.173
530.201
-458.476
-569.18
-463.008
356.645
-345.747
-10.8978
-1121.32
421.03
-665.056
-1033.49
1698.55
-613.713
-1425.26
711.144
562.352
-1596.24
1033.89
-406.965
-472.665
163.924
539.855
-1258.33
742.99
539.27
1005.89
-2133.17
999.981
1133.19
-385.37
405.128
-379.727
-25.4014
1477.97
-383.687
449.671
1195.63
582.693
906.008
566.098
528.113
-1094.21
154.428
-458.11
-1696.08
248.587
1127.49
-626.898
518.677
1013.54
-1532.22
1092.78
-1643.69
184.63
712.447
561.415
-878.086
-1086.28
-164.974
418.985
-254.011
-586.173
-447.742
-636.663
-622.639
344.312
-1619.81
939.239
-477.176
215.5
-387.827
528.036
-307.376
-620.734
1196.97
-1294.86
928.852
366.007
-1020.28
-390.062
-765.827
-831.603
1695.91
-477.424
1794.78
-1585.92
-208.858
-1556.57
1018.62
537.954
-733.213
-250.821
431.674
-180.853
-605.096
385.119
267.277
-652.396
-524.398
1004.82
625.046
-351.891
-1620.21
1050.44
571.82
1103.47
-1675.29
-433.05
-283.49
-376.134
-751.71
-486.13
-332.307
493.054
1557.98
-995.627
-774.048
1497.44
658.53
-323.555
725.884
1152.34
-1878.23
313.591
323.694
-487.599
-1934.67
1721.61
213.054
734.333
-475.722
-258.611
531.875
1060.74
-1592.61
356.645
-1726.44
-233.215
1752.37
-1580.64
1073.72
506.926
-1729.13
2.6881
-522.107
405.128
1700.47
-1721.61
939.266
625.358
-1564.62
368.571
-215.069
-153.502
-428.475
-267.656
65.6531
94.3589
-345.18
-424.128
-447.012
-402.163
208.632
1510.15
379.14
-219.87
-450.695
452.827
-189.554
338.107
1510.69
993.608
-169.234
-824.375
-1104.03
1704.93
-1728.96
1063.9
-707.521
-1021.44
-1265.06
1844.98
-579.917
1155.05
-1771.26
616.216
266.7
-877.614
1675.95
43.4074
-1719.36
-491.194
-1082.95
-1737.81
-980.512
552.63
1019.5
590.288
1132.96
-1723.25
276.065
-459.48
699.679
-384.944
395.249
924.295
681.922
-387.299
-651.669
582.948
1072.47
-1655.41
-409.103
-361.656
770.759
448.469
-1662.29
1521.38
140.912
579.137
-1043.51
544.764
1083.83
-1555.6
993.918
-231.274
223.004
343.721
1906.94
451.77
-71.9967
995.844
722.75
-1718.59
-696.692
1085.25
-1557.45
155.215
-569.616
189.782
263.045
-670.393
-566.559
582.701
1034.44
-710.75
-288.69
-1368.37
673.539
694.831
-403.598
751.215
87.5228
-838.737
562.312
-137.199
1557.43
-203.304
286.518
-777.788
-1934.67
1664.6
1021.99
350.237
314.473
458.248
-929.833
-995.188
-1767.26
631.395
1693.76
502.842
-474.711
1210.37
1087.03
-424.942
1029.12
-977.071
487.475
489.596
700.83
1047.89
-1748.72
479.126
488.161
-1493.87
-745.276
36.0871
776.879
-413.705
-894.72
382.472
-540.111
-800.936
610.972
-578.157
1397.25
1055.18
187.389
231.596
-550.681
1618.48
-775.477
1527.1
-1727.83
575.308
1152.53
537.634
-882.168
-1733.17
1916.82
-183.646
1721.73
172.978
-546.214
358.441
-264.082
-481.67
1210.73
568.274
1128.28
-491.13
425.734
855.603
-455.16
-774.074
437.109
336.965
1419.54
1089.53
-518.363
1422.84
-510.48
-532.975
1043.45
-602.822
500.934
-1213.46
1692.64
1839.57
-687.221
1586.08
-646.815
-1240.69
716.288
-562.933
193.041
-378.466
443.565
-233.514
-517.621
-1246.7
1870.95
-624.253
1173.39
-555.211
1120.24
-1659.42
1704.96
-573.995
-548.513
-549.851
1720.07
-316.454
-688.115
-473.438
1223.29
-1690.48
-1860.12
613.416
326.258
-946.488
158.812
205.794
-1719.02
1204.13
514.895
1162.84
558.89
-513.221
-465.453
1191.84
184.786
214.2
588.448
1251.12
-539.187
-1238.57
1777.76
-1025.23
999.985
866.782
-204.049
-1659.24
1702.65
-510.198
1411.08
-1733.17
-346.375
1.60123
344.774
-252.147
584.84
-332.693
97.254
486.988
779.666
-383.205
1257.51
1270.57
-413.376
849.492
-438.737
1817.56
-662.509
1586.66
-1723.86
-412.83
-765.491
310.215
455.276
-561.373
-563.613
79.7478
-1138.56
-985.174
-670.433
1655.61
-943.698
-1189.47
159.482
-432.223
-647.152
705.769
1167.43
650.125
1410.27
-591.815
1636.71
1317.99
-574.997
-484.293
188.891
-503.332
1396.7
1239.99
-566.448
-999.98
890.689
59.7324
-950.421
603.409
-506.217
1403.36
1495.04
-589.037
-352.422
352.422
-589.604
1623.49
1239.11
-486.412
1134.12
-63.5714
1849.88
-378.25
1489.46
-589.452
-507.703
1347.81
-650.05
1218.6
-568.545
1554.8
-591.943
761.17
578.642
-1339.81
-658.902
287.887
507.876
600.906
-1957.29
-1005.5
1586.66
357.641
-357.641
-58.5925
382.783
438.499
403.651
-16.5499
-322.63
914.882
-520.169
-428.667
811.45
-237.127
615.135
-424.922
1551.81
-444.35
-883.958
175.308
224.308
-399.615
601.175
1250.76
-1851.94
925.033
-459.459
-345.747
126.147
-1943.05
1816.9
-447.959
170.401
1180.98
-440.511
-740.467
-297.074
-597.645
-496.513
-379.727
-472.393
256.88
1158.05
-563.851
232.935
-369.681
136.746
-23.0813
-107.685
1375.96
-1268.27
34.6517
-595.806
-586.51
-445.236
445.236
-1262.34
1985.09
-1344.31
-211.575
-1824
238.075
-1025.75
-974.245
-177.026
-1639.69
709.854
1229.32
-1925.03
361.992
317.977
-679.969
-1850.02
1234.27
615.756
-558.982
558.982
-958.893
-40.1081
-1866.14
-558.183
1650.83
-675.633
1636.19
-601.75
-183.666
-1705.33
-578.818
-451.018
-594.87
-460.336
460.336
-1537.81
194.531
1343.28
162.69
222.174
-384.864
501.642
491.967
995.536
-475.682
1751.29
769.715
-415.452
390.051
523.338
1702.07
-594.738
-552.991
1636.83
462.071
1812.83
-645.395
-1804.5
-1938.07
-647.112
-473.626
473.626
-606.523
221.822
-698.276
1018.16
-466.519
-1076.46
-296.825
1579.56
1852.29
1635.37
-1635.37
-273.384
741.432
1761.52
595.804
1275.15
163.821
204.75
595.906
587.664
1603.49
-1603.49
215.404
-359.583
-439.437
450.434
950.395
-462.921
-638.573
-1130.95
1706.26
274.532
-1661.77
623.903
-288.863
461.841
1744.65
-592.124
-211.987
-427.867
378.575
735.877
1738.58
-613.511
-511.794
-771.879
1960.54
-870.462
-1090.08
1642.7
-703.146
1223.96
-1824.96
601.003
358.414
-896.636
-185.018
-100.384
1097.32
-487.075
145.892
632.294
-1658.7
430.928
626.795
-1804.5
-583.298
1787.42
883.255
-1162.88
1760.5
-597.62
1783.83
-575.556
-1208.27
438.124
926.376
-1742.77
924.447
-1486.7
252.817
1233.88
-833.231
-1254.22
-370.827
72.5306
298.296
581.774
263.244
1034.5
-437.447
844.999
-407.552
820.246
741.812
-1562.06
644.555
1066.51
-23.9377
-661.418
685.356
-1744.49
723.049
708.731
150.531
-1122.6
1936.78
-674.566
-1262.21
-537.187
1665.47
837.099
967.758
-1804.86
1227.86
683.374
-410.263
709.061
830.058
1026.97
-587.637
1761.52
625.584
1773.56
-1185.59
-587.977
-383.415
-346.834
730.249
121.455
-1185.56
1660.52
-540.286
-1437.77
1437.77
1250.56
594.426
1351.38
206.594
-556.857
280.63
-180.847
699.166
1113.66
475.208
-290.423
-869.335
-575.449
1740.09
-1740.09
998.178
-998.178
987.339
1025.17
-2012.51
1837.96
-614.002
-581.125
841.109
-947.856
-1052.16
998.162
691.41
-1689.57
-511.676
-367.847
-642.285
-808.439
2042.71
-1246.41
-613.706
1002.97
974.859
1289.78
647.003
320.759
1012.69
227.075
342.219
1186.21
1756.9
-1756.9
671.388
79.4601
-384.222
-997.06
-539.996
1674.12
990.779
1009.22
-1833.31