/*--------------------------------*- C++ -*----------------------------------*\
  =========                 |
  \\      /  F ield         | OpenFOAM: The Open Source CFD Toolbox
   \\    /   O peration     | Website:  https://openfoam.org
    \\  /    A nd           | Version:  7
     \\/     M anipulation  |
\*---------------------------------------------------------------------------*/
FoamFile
{
    version     2.0;
    format      ascii;
    class       volScalarField;
    location    "25";
    object      p;
}
// * * * * * * * * * * * * * * * * * * * * * * * * * * * * * * * * * * * * * //

dimensions      [0 2 -2 0 0 0 0];

internalField   nonuniform List<scalar> 
7639
(
0.22372
-0.00143481
0.435948
0.263399
-0.00129716
-5.68432e-05
0.4433
-0.00781396
-0.000182682
0.11014
-5.33913e-05
0.00355489
-0.0116456
0.0545714
0.114829
-0.0153489
0.238184
-0.015135
0.00150039
-0.0670918
0.0721127
0.00233506
0.0403676
0.216753
-0.0195908
0.239312
-0.00119828
0.0675466
0.180606
0.00356262
-0.020734
0.701531
0.0395786
-0.000730102
-0.000159114
0.0898282
0.00405917
0.427554
-0.00663543
-0.000510764
-0.00607735
-0.0147436
-0.0681752
-0.0651588
-0.000305246
-0.000124639
0.00229238
-0.00685172
-0.000103163
-0.0665258
0.00534898
0.0640891
-0.0245914
-0.00426984
0.0889963
-0.00697412
0.0016489
-0.00780358
-0.0316051
-0.000760072
5.93519e-05
0.00685072
0.0549418
0.0039243
-0.00145762
-0.0203369
-0.000147057
6.0396e-06
0.0114888
-0.00642992
-0.000114481
-0.0540667
-0.018961
-0.0316591
-0.0146527
-0.0443856
0.428411
0.070787
0.0472112
-0.0587941
-0.0111753
0.394607
0.102769
-0.0331137
-0.00216546
-0.00340701
-0.00834992
-0.0238789
-0.000987442
-0.00660201
0.184545
-0.0894586
-0.000202762
0.00172199
-0.00526377
-0.032658
-0.0515206
-0.00121815
-0.00238333
-0.0017353
-0.0534231
0.0545583
-0.00499376
-3.05732e-05
-0.0888005
0.186348
0.602876
-0.00741251
-8.6884e-07
0.0358745
0.24665
-0.0454285
-2.30588e-06
0.0380132
0.187377
0.000682843
-0.0608295
0.148776
-0.0393065
-0.0324223
-0.0553366
0.375901
-0.0654637
0.0150527
-0.0540286
-0.00145286
-0.0186882
0.00287554
-0.00153923
-0.0208749
-0.135015
0.0498119
-0.000913816
-0.00116322
-0.0342289
0.239254
0.477397
-2.63274e-05
0.0119819
-0.0684273
-0.030025
-0.0468014
-0.0447974
-0.0304451
0.609671
-0.0199639
0.181465
-0.0308355
-0.0411787
0.374703
0.0858665
-0.0751531
-0.00226166
-0.0129529
0.102466
0.390936
-0.0506277
-0.011596
0.564322
-9.3501e-05
0.000792956
0.225135
-2.88816e-05
-0.00311565
-0.00592275
0.284216
0.284747
0.587979
-0.00352406
-0.00461525
6.93209e-06
-0.0571954
0.00067376
0.00513998
0.0130259
-0.0406769
-0.0682776
0.106075
-0.000201514
-0.00076463
0.267214
-9.31879e-05
-0.000171156
0.444528
-0.00715436
-0.0377071
-0.0370806
-0.0300171
-0.0230812
-0.0670101
-3.14668e-05
-0.0498722
0.107597
-0.00503943
0.0001093
0.175349
-0.00187987
-0.019648
-0.0220493
8.2653e-06
0.00139057
0.247733
0.143204
0.395268
-0.0551559
-0.0413775
-0.0990689
0.0736927
0.246431
-0.000327236
5.24889e-05
0.569742
-0.0130959
-0.000949152
-0.0477891
-0.0195631
0.351053
0.361292
-0.0510112
0.664208
-0.00174408
-0.0148525
-0.0546905
0.0875566
-0.0827203
0.171943
0.565775
9.50949e-05
0.0158133
0.159244
-0.00625572
0.144893
-0.000837773
0.6303
0.382949
-0.00829292
0.00421282
-0.000474089
0.0583607
-0.000145917
-0.00958311
-0.0649816
-0.000114085
-0.00205845
-0.000664309
0.147992
-2.90602e-05
-0.0068524
-0.0573816
0.700776
0.0428563
0.613413
-7.02328e-05
-0.0244445
-0.000291373
0.411433
0.00657807
0.478326
0.00202654
0.00117317
0.00500686
0.0768928
0.000925576
-0.000356008
0.000821392
-0.00659631
-0.0383872
-6.56485e-05
-0.0489895
-0.00564416
-0.000222447
-0.000982936
0.45479
-0.0116137
-0.00119837
0.666741
-0.00226301
0.23996
-0.000324408
7.89258e-05
1.16622e-05
-0.0353619
0.0842413
-0.0651334
-0.0319005
-0.000646052
-0.0599415
-0.0223909
-0.000282089
0.000794165
-0.00338897
-0.0112113
0.00480151
-0.00193183
-0.0316955
-0.0339391
-0.0312741
-0.0552146
-0.039037
0.369636
0.387929
-0.0023317
-0.108522
-1.14561e-05
-0.00369568
-0.0328276
0.210463
0.115388
0.000151663
-0.00340797
-0.0380046
0.166945
-0.00156368
0.00585784
0.00197768
0.00660675
-0.122984
0.336444
-0.00249083
-0.00501067
-0.00018099
0.00659505
-8.33534e-05
-0.0251693
-0.000544538
0.00607644
-0.153944
-0.0393796
0.00219625
0.0142679
-0.00115879
0.0305442
-0.0115225
0.0697407
0.154432
-0.123986
-0.0638546
-0.0229605
0.00833233
-0.0633735
0.599981
-0.0574795
0.0471961
0.651094
-0.00240324
-0.00273211
-0.0752764
-0.00171189
-0.0167787
0.0103182
-0.00436322
-0.00324982
0.167064
-0.000109042
0.000884701
0.000121706
-0.00529694
-0.0107966
-1.38135e-05
-0.00172479
-0.0303571
0.561078
0.00316489
-0.0128352
0.525736
0.328421
0.0618541
-0.0994014
-0.0577322
0.00804275
0.273082
-0.0163321
0.294458
-0.0268545
-0.0749416
0.152349
0.294065
-0.0462206
0.107862
0.160444
0.257836
0.0715377
-0.00474129
-0.0065339
-0.000140252
0.00343863
-0.0166554
0.00155851
-0.00017054
-0.00252845
-0.0594566
0.0507488
-0.0241405
-0.00435926
-0.00588257
-0.0056404
-0.010687
0.00276308
0.123672
-0.00294375
-3.54837e-05
-8.92724e-05
7.56952e-05
-0.028959
0.1623
-0.00621457
0.043756
-0.0894141
0.418491
0.00523134
0.0109765
-0.00788958
0.438051
-0.0016683
0.329116
0.185654
-0.00018609
-0.0289243
-0.00512114
-0.0451606
0.000910294
0.0713304
0.00483867
0.0101781
-0.00134897
0.131409
0.172364
-0.0438517
-0.0305178
-0.0035982
-0.0241615
-0.00247349
0.689078
-0.0547123
0.0072613
-1.35896e-06
-0.0191218
-0.00355805
0.0279969
-0.0746791
-0.108184
0.453461
0.152116
-0.0913754
0.183422
0.427825
0.0441774
0.00191889
0.278996
-0.00142866
-0.000293256
-0.0245511
0.000137832
-0.106768
-0.000951497
-0.032263
0.00307776
0.185182
-0.00278961
-3.8682e-05
-0.0787671
0.00278971
0.0104309
-0.0516097
-0.06706
-0.110328
0.161345
0.132497
0.13644
-0.000328241
0.0392694
0.0765213
-0.000839143
-0.023287
0.000978433
0.00808476
-0.00481151
0.00767742
-0.0012361
0.0653113
-3.15037e-05
0.000317553
0.00318577
-0.029922
0.0321533
-0.0304932
-0.0347244
-0.0353611
-0.0903204
0.00852814
0.267679
-0.126709
-0.00999786
0.638298
-0.0507368
-0.0113191
-0.0347006
-0.00942249
-0.028247
-0.0148379
0.0426483
-0.0655016
-4.17073e-05
0.0374229
-0.00015394
0.377974
0.0107167
-0.00741497
-0.0198407
-0.000301499
0.396595
0.329028
0.0214137
0.0462376
-0.0538436
0.493039
-0.000101261
0.0220989
-0.0249949
0.11731
0.592475
-0.0148453
0.148944
-0.00312619
-0.000325567
0.0328063
-0.124223
0.416065
0.0145567
0.232127
-0.0105353
0.428511
0.310862
-0.0132371
-0.0112734
0.0207926
-0.0681721
-0.000136055
-0.0183462
-0.0658584
-0.0562959
0.0179112
0.0146849
-0.000201343
0.329973
-0.00187066
-0.000165431
-0.0300341
-0.000780895
-0.000356953
0.00505987
0.212099
-0.070864
0.550032
9.80939e-05
0.205982
-0.0242577
-0.000121558
2.83224e-05
0.177531
0.208867
-0.00612079
0.19249
4.02153e-05
0.202892
-0.12318
-0.0138387
0.450479
-0.0458794
0.0388972
-0.0332929
0.197984
0.202283
-0.0225648
-0.028317
-0.00898571
-0.00432104
-0.000318987
-0.00204096
0.275679
-4.35482e-05
0.197792
-0.0695026
0.354066
0.18813
-0.0671429
0.532314
-0.00244885
0.00595346
-0.045388
-0.0270521
-0.00952701
-0.0272241
0.0349727
0.628893
6.68193e-05
-0.00288295
-0.0440255
9.40022e-06
0.38505
0.00283576
8.94729e-06
0.000303192
0.000601032
-0.0239837
0.0269377
-0.00232694
-0.000135842
-0.0100864
0.00348232
-0.0805337
-0.061987
0.0327867
-3.4792e-05
-0.108065
-0.0179334
0.0367376
0.351012
0.00175364
0.0630944
0.000239813
-0.0172081
0.0995023
-0.00955454
0.224532
-0.0176476
0.0254526
0.103175
0.146793
0.00639952
-0.0141658
0.15414
-0.0654356
0.41801
-0.0127968
0.247791
-0.0127226
-0.00174112
0.142119
5.27081e-05
0.0945172
0.00292524
7.80703e-06
-0.0853897
0.118477
0.00219548
0.0439834
-0.0167785
-0.106815
-0.000444107
-0.0315502
-0.00250809
-0.0121019
-0.0581268
-0.0355655
-0.0133884
-0.000229516
0.444581
0.0662779
0.043296
-0.000305483
0.311263
5.93768e-06
-0.000281412
0.082934
0.0009847
0.094942
0.0662697
0.0252721
-0.0459101
-0.0906946
-0.0974376
0.00201574
-0.0503792
-2.96602e-05
0.00543806
0.216007
-0.0215529
-0.00413974
-0.012859
-0.00291962
-0.000620806
0.653291
-0.0135023
-0.000834133
-9.00272e-06
0.147111
-0.0374384
-0.000501208
-0.00409417
0.170401
0.0804849
-0.0456054
1.94515e-06
0.190204
-0.0214671
0.17694
0.0251137
0.030833
-0.0374561
-0.000146395
0.100694
0.0703149
-0.0685569
-0.0649938
0.278791
0.00930636
0.144772
-0.00409206
-0.0286855
-0.000596367
-0.00276157
-0.000163775
0.162946
0.209158
-0.00221721
0.028045
-0.0227778
-0.0540802
-0.0596163
-0.0027633
0.0202766
0.620552
-0.0668681
-8.50473e-05
0.0812675
-0.00564229
0.526176
-0.0166434
-0.0164763
-0.00556742
-0.0189376
-0.0101512
-0.0107166
-0.0052434
0.00226366
0.027655
0.000161557
-0.134571
-0.0598828
0.359587
-0.0439397
0.106153
0.00311833
-0.0450297
-0.0180788
0.221294
-0.0101219
0.000162474
-0.0210433
-0.00780956
0.0236876
-0.0340441
-0.0294594
-0.0416279
-0.0193577
-0.00964019
-0.059898
8.37385e-06
0.0412615
-0.0526951
0.0819255
-0.0536861
0.0943484
-0.0661622
0.308241
0.00404872
-0.0386215
-0.0204777
0.558291
-0.110434
-0.0174054
-0.0847015
-0.0357939
-0.0788507
-0.04878
0.148189
-0.00411875
0.266196
0.0133901
-0.000595639
-0.00184032
0.0724252
0.708381
0.00156051
-0.0248991
0.178703
3.39666e-05
-0.0271418
0.0399852
-0.00852626
0.0135916
-0.00244999
-0.0356575
-0.00459495
4.36069e-05
-0.043761
0.246292
0.00151868
-0.0219177
0.00287613
0.177965
-0.00057936
-0.00186091
-0.000544355
-0.00118431
-0.0451839
0.00042568
0.00377447
-0.0235128
6.73604e-05
-0.0881314
-0.123972
-0.0961845
-0.0207546
0.0220568
-0.000323417
-0.017236
-0.0563519
-0.0484014
0.357202
-0.00191013
-0.0604865
-0.00696045
0.00724175
0.116332
0.000665288
-0.000239605
0.0253756
-0.0495595
0.0214884
-0.00439654
-0.00308832
-0.0522257
-0.000268695
-0.00247549
-0.0178008
0.307181
0.240333
-0.0399664
-0.0512751
0.0110051
0.00479569
-0.0415835
-0.0582238
-0.016673
-8.72438e-07
-0.0356023
-0.0320085
-0.0631294
0.00432709
-0.0488131
-0.000606283
-0.00443844
0.192134
-0.0360179
-6.31141e-06
-0.00418207
-0.0991802
-0.000253058
-0.0209425
-7.76646e-05
0.00561597
-0.0787465
-0.0384327
-3.44619e-05
4.58457e-05
0.127146
-0.0435463
0.400783
0.238018
-0.0294478
-0.000896939
-0.016073
0.000328923
-0.126662
-0.0735126
-0.0911161
-0.0213514
0.213915
0.0106918
0.000410746
0.00704922
-0.0948632
0.00295902
-0.0258045
-0.054659
0.00130973
0.0238344
0.0709939
0.00984981
-0.0290819
-0.0621401
0.187764
-0.0310486
-4.47e-07
-0.0830042
-0.0584314
-0.0370399
0.00547324
0.00113721
0.00866506
-0.0775964
0.0343392
-0.0338253
0.0838434
-0.0435053
0.00798794
0.0208291
0.0127869
-0.0344555
-0.115256
-0.000157844
0.145673
0.207294
0.0087151
0.130755
-0.0611914
0.0475969
-0.0436747
0.198157
0.099277
0.613336
6.40513e-06
0.0906865
0.167833
0.016383
-0.00170154
-0.0185028
-0.0495254
6.32812e-05
-0.0184972
-0.0458483
-0.020208
-0.0222478
0.000194039
-0.107904
-0.000436842
-0.00101315
0.240928
0.00700676
-0.0391464
0.0217005
0.206348
0.0114399
-0.000463286
-0.0960176
0.00862736
0.377177
0.00146141
-0.0477482
-0.000262195
-0.000640279
0.00718889
-0.0507305
-3.75396e-05
-0.0112424
0.0299358
-0.00222767
4.55485e-05
-5.62657e-05
0.149924
-0.0462784
0.00741578
-0.00127386
0.00938721
0.0172179
0.0091999
-0.000340518
0.334729
-0.0862804
0.218695
0.279271
-0.000245598
-0.0446429
0.0913493
-0.000889971
-0.000309698
-0.000500165
-0.0242285
0.0137736
-0.0129961
-0.0209597
-0.0576601
0.165738
-0.0817916
1.43357e-05
-0.0195979
-0.0188525
-0.0348356
-0.00480759
0.00655861
0.00141412
0.0298133
-0.000594128
-0.000272796
-0.0176398
-0.00473932
-0.024901
-1.82725e-05
-0.0150993
0.0353834
-0.0301315
-0.0325778
-0.00896878
-0.0120445
-0.00945878
-0.00570813
0.00712346
-0.00976838
-0.000122025
-0.000464446
0.0243621
-0.0125172
-0.00541222
0.00920055
0.00268351
-0.0952999
-0.0113956
0.153544
-0.0128774
-0.0497286
-0.0247366
-0.0227639
-0.0158152
-0.00413491
0.00248696
-0.00387955
-0.0142291
-0.0163244
0.176763
0.129555
0.0452104
0.348982
-8.35751e-05
-0.00366013
-0.0166327
-0.008424
0.0541291
-0.0203719
0.0393264
-0.00474327
0.184365
-0.00214784
-0.00180339
0.0117998
-0.0190886
-0.000251311
-0.0222118
-0.00641612
-0.0209381
-2.34346e-05
-0.00721212
0.00221539
-0.0177299
0.0311742
0.0376565
0.0205452
-0.014246
-0.0310686
0.114039
-0.00142005
-0.00217025
-0.00233419
0.520327
-0.000102639
0.0641184
-0.021306
-0.0205578
-0.0262416
-0.03986
-0.0284098
-0.033595
-0.0184966
-0.00502409
-0.000112071
-0.00467608
-0.0217756
0.0973766
0.00188224
0.0854431
-0.0323549
-0.0135186
-0.00102227
-0.0286055
-0.000117916
0.144921
-0.0298371
-0.0260385
-0.023825
-0.00436372
-0.0325251
-0.00185939
-0.0394107
0.100458
-0.0256872
-0.0640007
-0.00161657
-0.0267919
-0.0186269
0.016686
-0.00355012
0.139421
-0.00264198
-0.0192618
-0.000753124
0.157062
-0.0379082
-0.0262606
-0.00356416
-0.0100958
-0.00303033
0.157636
-0.00114712
0.130481
-0.00531224
-0.000909796
-0.00139393
-0.00256283
0.1045
-0.05678
-0.007368
0.000377095
-0.00832603
-0.0130722
-0.00100329
-0.0155168
-0.0159016
0.0585411
-0.00539317
0.00423784
0.513685
-0.0579044
-0.0284577
-0.054391
3.89021e-05
0.0761103
-0.00387834
-0.0266541
-0.00609232
-0.0349083
0.0045679
-0.000596958
-0.00318422
0.00361283
0.1975
-0.00634384
-0.00197053
-0.0050554
-0.0506398
-0.00892251
-0.0221584
0.00473683
-0.00933793
-0.00962327
-0.00358888
0.199029
-0.0443031
0.00355153
-0.00462128
-0.0273386
-0.0147087
-0.0473129
-0.00155248
0.0902182
0.0244434
-0.00843559
-0.00190804
-0.0142488
0.534918
0.198827
-0.0119492
-0.000642863
-0.00262371
0.00200512
-0.00434408
0.0223946
-0.000463775
-0.0174818
-0.00217122
-0.0174787
-0.140844
-0.0011787
-0.0121638
-0.00149455
0.320725
-0.00696966
-0.0123612
-0.0426798
-0.00212237
-0.029666
-0.0363367
0.46576
-0.0113741
-0.0120417
-0.00232766
-0.000518962
1.49191e-06
-4.48063e-06
-0.0107529
-0.000741662
0.0670273
-0.000746344
-0.00199861
0.00894614
-0.000288103
-0.0427786
-0.0542816
0.0186347
0.0414015
0.0279655
-0.035917
-0.0416407
0.0890037
0.0704667
0.0950417
0.120599
-0.0135978
-0.000950155
-0.00635539
-0.0598817
-0.00384876
-0.0156581
-0.0386318
0.312323
-0.0476977
-0.000537154
-3.43899e-05
-0.00161662
-5.70572e-07
0.00890913
-0.000622397
-0.00508322
-0.0457094
0.000600243
0.00287601
-0.000244745
0.0539051
-0.0160232
-0.0463343
-0.00134331
0.329803
0.237617
-0.010676
-0.0677807
-0.0277815
-0.0242441
-0.0150207
-0.00206248
-0.0680475
-0.0329969
-0.0410164
-0.108663
-5.76922e-05
0.17122
-0.0170421
-0.0102285
-0.0305088
0.0201291
-0.000592115
-0.00892975
-0.00149967
0.012697
-0.00169474
0.127812
0.000387842
0.0109809
-0.000461414
-0.104164
0.00963483
-0.000849671
0.00560798
0.000452959
-0.0324984
0.103825
0.000983767
-0.00158683
-0.000140738
-0.000639476
-0.000562143
-0.0568593
0.122736
-0.0309354
-0.000300201
0.00952372
-0.000510454
0.226406
-0.0560196
0.231329
-0.0414216
-0.000501184
-0.000320669
-0.00782565
-0.00609131
-0.000701679
-2.05919e-05
0.0262475
0.0302817
-0.000264171
-0.000373022
-0.0201178
-2.47896e-05
0.165188
-0.00102646
-0.0496433
-0.019451
-0.00682924
-0.0519694
-0.0569622
0.14903
-0.0217053
-0.0205859
-0.000352696
-0.0529079
-0.0210154
-0.0253087
0.0311064
0.354455
-0.00129048
-0.0552937
0.0121128
0.29518
0.0403541
-0.00013385
-0.00648688
-0.00441101
-0.00534768
-0.0451906
0.0810942
0.000197115
0.0158407
0.00324143
0.0615346
-0.000579072
-0.000137759
-0.0902908
0.263158
-0.0512026
0.123907
-0.00139681
-0.00022577
-2.70017e-06
-0.0775061
-0.0398566
-0.000380216
0.0844254
0.0121922
-0.00576114
0.426867
-0.000438373
-0.00401068
-0.0549636
-0.0267198
-0.00249046
0.132953
-0.0567931
-0.000185365
0.0111555
-0.000195811
-0.000113143
0.127328
-0.00154069
-0.000503441
-0.04828
-0.0246512
-0.00379624
-0.0320246
0.00262533
-0.022967
0.00180741
-0.00379098
-0.0596379
-0.0366955
0.0149593
-0.000987389
0.147536
0.205802
-0.0866997
0.0100404
0.020429
-0.0046296
0.164336
0.0921015
-0.027634
-0.000181554
0.0103587
-0.0513357
0.00993957
-0.0277783
-0.00230122
0.0376508
-0.027436
-0.000153323
-8.26419e-05
-0.0382863
-0.0258013
-0.0258275
0.0102968
-0.0210592
-0.0422049
-0.000171652
-0.00152917
-0.000232412
-0.0334688
-2.68244e-05
-0.00211266
-0.0445135
-0.0847629
0.0480169
-0.00323847
0.00456777
-0.0215377
-0.0253335
-0.000144122
-0.0436194
0.0265624
0.155154
2.55232e-05
-0.000124596
0.158218
-0.00274195
-0.0755575
-0.0385675
0.00369843
0.00052241
-0.0620989
-0.0329384
0.162324
-0.0523184
-0.00160706
-0.0102503
-0.049497
-0.00064001
-0.000268271
-0.000993162
-0.029195
-0.0480093
0.0967529
-0.00023452
0.5372
-0.0598693
0.000126181
-0.00106764
0.000274064
0.000313687
-1.61673e-05
0.000149943
-0.049347
-0.000795209
0.00047311
-0.000221043
0.138787
-0.00614655
-0.000215451
-5.04963e-05
0.34993
-0.0216855
-0.0528985
0.00123351
-0.000797273
0.0512932
-0.000110063
-0.0136988
-0.129166
0.00238475
-0.00702918
-0.000107902
-0.000229749
-0.0302448
-0.058234
0.00789127
-0.104052
-0.0606795
-3.13024e-05
0.0228123
0.0342594
0.107669
-0.00187263
-0.000174651
-0.0525961
-0.00652282
-0.000552074
-0.0464037
-0.000153358
0.035275
-0.000100183
-0.00138916
-0.0674406
-0.00232059
-0.0543245
0.485515
-0.00179676
0.000299472
-0.0510981
-0.0508106
0.00989321
0.00514695
-0.000168269
-0.0306718
-9.43651e-05
0.194793
0.662533
0.0402359
0.00332319
0.00393373
-2.09173e-05
-0.0276543
-6.46386e-05
-0.00783599
-0.00185091
0.000404696
-0.00362852
-0.0102019
-0.00013678
0.00094843
-0.00890632
-0.000346226
-0.0106134
-0.0167757
-0.00884762
-0.00126193
0.588463
-0.000763359
0.00266407
0.000265622
0.0150582
-0.046713
0.0104255
-0.000196782
-0.000111203
0.0028791
-0.000122372
-3.31401e-05
-0.0122377
0.000758018
-2.68224e-05
-0.0479838
-0.00248773
-0.0522317
-0.00178765
-7.57419e-05
-0.00337666
-0.00950755
-0.0155542
-0.0240522
0.00253216
0.000569915
-0.000512251
-0.00212365
-8.86682e-05
0.275972
0.00169979
-2.20069e-05
0.000633732
-0.00220234
-0.000394437
-0.0585548
-0.0509093
-0.000145628
-0.00741464
1.42613e-05
-0.00287293
-8.16763e-05
0.0371071
-0.000155993
-0.000207069
-0.00385449
-2.64018e-05
0.0146596
-0.000248941
-0.00137016
0.0202822
1.28879e-05
0.387188
-0.0502324
-0.039909
-2.81353e-05
-2.3333e-05
0.00204178
-0.00128531
-0.0483171
-1.8921e-05
-2.67117e-06
0.000807507
-3.30266e-06
0.000411421
0.000488209
-0.000502022
0.000855833
-0.0492847
0.500721
-0.0332978
0.339264
0.00985857
-0.0173306
-2.05789e-05
-0.000956419
-0.0126876
0.00015557
0.000308231
0.000183667
0.0323788
-0.00147952
-0.000240777
0.518514
-0.000591952
0.000635593
0.00054675
-5.14434e-06
-0.0814673
-0.00235774
0.00123493
0.000135081
-0.000585693
-7.57864e-05
-0.00102224
-0.0419494
-0.000454478
-0.00174905
-1.69309e-06
-0.000586942
-0.000283954
0.190952
-0.000481514
-0.000301346
-0.0635644
0.00410621
-9.50705e-05
-0.00144219
-6.79833e-05
0.17324
-0.0667846
-0.000327519
-0.000422419
-0.00206342
-0.000173432
0.0568176
0.10253
0.00949798
0.000551294
-7.53941e-06
-1.02132e-06
0.0487174
0.000274935
-0.0565456
-0.0249954
-0.0163624
-0.137979
0.595803
0.00213143
0.175365
-0.0151543
-0.0288245
0.176615
-0.000389271
-0.06061
-1.4171e-05
-0.00940284
-0.0464128
5.92903e-05
-0.0469241
-0.00102647
-0.00879949
-0.00590962
-0.0408933
-0.0406488
-0.00344425
-0.0570013
-0.0419932
-0.00020443
-0.0125991
-5.81535e-05
-0.0363175
-3.07904e-05
-0.000203379
0.0135483
0.167094
-3.54039e-08
-0.0434238
0.00386899
8.18323e-05
-0.0213835
6.06556e-06
-0.0141141
-0.000283712
-0.0371152
0.000136727
-9.58574e-05
-0.00219198
-5.39107e-05
0.162719
-0.0300768
0.0441931
-3.4001e-05
0.0006808
-0.0318869
7.29601e-07
-0.0535224
-0.0612796
-0.052156
0.543001
-0.00681039
-1.93504e-05
0.0274919
-0.0400583
-0.0027408
-2.86911e-05
-9.39091e-05
-0.0450223
0.000137504
0.00094768
-5.26357e-07
0.000172286
-0.0277775
0.0147593
-0.0619256
0.0905884
-0.00562436
-1.28006e-06
0.00663289
-0.0486175
-2.29304e-05
-1.52499e-05
0.000347799
6.94841e-05
0.000439553
0.164259
0.0368275
6.06017e-05
1.1551e-05
-0.0610723
0.205442
0.17671
-4.90568e-05
-0.0352948
-0.0197562
-0.0109509
-0.0455606
-0.00900824
-0.00308325
0.143954
-4.58425e-05
-0.0262554
0.171237
-0.0465336
-1.98267e-05
-0.0571654
-0.0001906
0.255939
0.0288895
-1.65842e-05
-3.03938e-05
0.183029
3.69559e-06
-0.000197358
-0.012155
1.32669e-05
0.239545
0.00357314
-0.00768821
-0.0595962
-0.00397214
-0.0686696
0.18727
-0.0126129
-0.0392674
0.00107533
-2.15662e-05
-0.00109719
-9.58896e-06
-1.79112e-05
0.0213579
0.185536
0.153192
-0.000474864
0.255738
-0.0122525
7.87868e-06
-0.0435502
-2.01753e-05
-0.0276318
0.030061
-0.0149996
0.0047755
0.00201359
-0.00963825
0.000270005
-0.00177841
0.0202487
-0.00302985
-5.30639e-05
3.16601e-05
-6.70441e-05
0.0332127
5.90212e-05
-0.0226959
0.270707
-0.00629288
5.45177e-05
-0.0036467
-1.16137e-05
0.0163773
-0.000383728
-7.13743e-05
-9.2084e-05
-1.43774e-05
0.217205
-0.000165211
0.229376
-0.0574669
0.000120528
-0.0492778
-0.000521942
0.160295
0.533293
-0.00148894
2.58578e-06
1.66727e-05
-2.31014e-05
0.121154
6.51061e-07
0.0011271
-0.0242023
0.218152
6.923e-06
1.5811e-05
3.08708e-06
2.66304e-05
-0.0206867
1.86932e-06
0.222355
-0.0164849
-0.000133321
3.18699e-05
-0.00217071
-0.0283323
1.46599e-06
-6.13982e-05
0.169782
3.61618e-05
-0.0313304
-0.0518728
0.000142773
7.92296e-07
-0.111684
1.29229e-06
0.161307
1.57915e-05
-0.000477404
1.2159e-05
-0.000188041
0.0942647
3.16492e-06
-0.00173279
8.34864e-06
0.0130493
-0.00356761
-0.0066597
0.000806732
0.157197
-0.00028986
-8.73843e-05
-0.00915477
-0.00884425
-0.000260974
-5.85302e-05
-0.00094858
4.26214e-05
0.122649
-0.0106942
0.523041
-9.11301e-07
-0.00790784
-0.000169653
0.123888
6.06525e-05
-0.0262514
2.5042e-05
-0.00166724
-0.0326417
-0.000247229
-0.015939
-0.0471042
0.00537106
-1.05102e-05
-0.0532453
-0.000355814
-0.000317423
-0.00576049
-0.0149636
0.00137139
-5.49253e-05
-0.000464351
-0.000970517
-0.00134675
1.35713e-05
-0.00127534
0.514038
0.000104158
-0.00341555
-0.0339684
-0.0667752
-0.0588346
-0.045454
-0.0217527
-0.000561535
-0.0165489
8.20685e-05
-8.82108e-05
0.514301
-0.000101504
0.158403
-0.000479618
0.000428214
-0.001196
-0.0658282
-0.000445312
0.000633946
-1.68532e-05
-0.000418448
-1.78101e-05
-8.59989e-05
-0.0150868
-0.00011843
-3.04551e-05
-8.96095e-05
0.000155094
-1.15658e-05
-0.0411335
0.178374
-1.07884e-05
-0.000639335
3.03924e-05
3.29509e-05
-0.000882669
9.60646e-06
-0.00095572
0.000303176
-0.000390469
-0.0594782
-0.000732677
-0.00192329
5.00406e-06
-0.00166012
0.000360204
-1.63714e-05
-1.07071e-05
1.42403e-05
-0.00084181
0.000578574
-0.0425744
-0.0268584
-0.0599258
0.000610086
-0.00197217
-0.0362834
-0.0603087
-0.000101338
0.0159674
0.0072399
-0.00110568
-0.0120183
-0.0523151
0.458699
-0.000446199
-1.63544e-05
0.000942502
5.2426e-05
1.88039e-05
0.0761106
0.00383971
0.0880094
-0.0357344
0.446975
-0.00055542
2.18675e-06
0.000161539
-1.98216e-05
-0.00143646
0.144461
0.226814
-6.05039e-06
-0.00018269
-1.92413e-05
0.213812
0.01645
-0.00612412
1.24639e-05
2.06267e-05
0.00767321
-0.000737193
-0.0656775
-0.0167814
2.51384e-05
0.00371136
-0.0305763
-6.49395e-05
0.0019211
-7.30284e-05
-0.0435363
-0.0018243
0.139912
1.76371e-05
0.00178692
-0.000144251
1.5793e-05
0.000184051
-0.0227918
1.5524e-05
-0.000964868
2.37177e-05
-0.019546
-0.0431127
-0.0032408
-0.00743114
-0.00874991
0.00960496
-0.00887579
-0.00256893
7.18916e-05
0.000111503
2.15328e-05
1.88416e-05
-6.07079e-05
0.00950991
-0.0539979
0.00052599
-0.0423519
-0.00320278
-0.0480069
9.30782e-05
-3.50055e-06
0.00139355
-0.0953539
1.91201e-05
-0.0419596
-0.0148427
-0.0807111
-0.042757
2.8219e-05
-0.00357559
0.000207102
-0.135176
0.134662
1.15037e-05
-0.0555772
-0.0221084
-0.00438521
4.01078e-05
-9.3572e-06
0.0242396
-0.0165083
2.5083e-05
-0.00693342
-5.92917e-06
0.000230235
0.121777
-9.07476e-06
2.35105e-06
-9.25571e-05
3.65542e-05
0.000959047
9.3523e-05
-0.0053889
0.00024953
-0.0126297
0.00117657
-0.000221202
-0.0316071
-0.040839
-0.00640815
-1.63773e-05
2.25984e-05
-0.0566202
0.0060775
-0.0449123
2.99119e-05
-0.00528744
-3.9207e-05
2.56615e-05
0.0659217
-0.00712478
-0.0028789
-2.19206e-06
-0.0176629
5.26205e-05
-0.0616226
2.81783e-05
-0.069323
1.92168e-05
-6.4727e-06
9.04202e-05
0.00108878
-0.0830485
-0.0178677
-0.0638398
1.6386e-05
9.97955e-05
-0.0705445
-0.0251371
-0.00852274
-5.31264e-06
-0.0332867
-0.0475022
-0.070416
2.9309e-06
-8.39896e-06
3.59646e-06
-0.0752449
-0.0620784
0.000770117
-0.011077
-6.07165e-05
0.171311
0.000100425
1.45808e-05
0.000159993
-1.07421e-05
-9.26285e-06
-0.00372433
0.000120222
-0.00264884
-0.0596643
-0.0130417
-0.0537674
4.1742e-05
-5.50108e-05
0.0473684
-0.0500193
-0.00484899
0.11026
3.4869e-06
-1.4542e-05
-1.32683e-05
0.0648097
0.000184332
-3.42666e-06
-5.51834e-06
-0.0563918
-0.0153453
5.0322e-06
8.18782e-05
-0.00930346
-0.00651896
0.000456563
0.228306
-0.0550632
0.000162556
0.671489
-2.11106e-05
-0.000723595
-0.00862672
-0.0701139
6.19473e-06
-3.77494e-06
2.27398e-05
0.00505766
-0.031905
-0.000356893
-0.0464645
-0.00780521
2.80087e-05
-5.00198e-06
-0.01017
-0.00542735
-0.0236797
-0.0765248
-0.042863
-0.0371002
-0.0164548
-0.026362
-6.7742e-05
0.000376561
0.00346355
0.000566936
-8.56781e-05
0.000812479
3.18142e-05
-9.87931e-05
-0.012074
-1.28966e-05
-3.10071e-05
0.0338659
-0.0268397
-0.000172798
-4.46054e-05
-6.20315e-06
0.250781
-0.00670082
0.000834336
-0.02738
0.000242679
0.000210999
0.000181923
-5.23449e-05
0.000513469
-0.0363087
0.0162766
-9.81826e-06
-0.000174552
-0.039779
-0.0308953
0.0490922
-0.000515668
0.00194928
0.0185518
1.34744e-06
6.3483e-05
-0.0453111
2.3436e-05
0.164408
7.73617e-06
0.00442417
0.000176719
0.00023736
-0.0642129
-0.00740319
-0.0176496
-0.00247075
2.79156e-05
0.00661965
0.0615132
-0.0122769
-0.000142959
0.0936993
0.160305
3.47018e-06
-0.0488612
-7.15839e-05
-1.1223e-05
-4.77467e-05
-0.000594338
0.0205327
-7.44812e-06
0.000262502
-0.0240578
-0.0250892
-0.0215675
0.317853
1.77159e-05
-7.39625e-05
0.169369
-0.00660228
-0.00387659
-0.000684201
0.16664
4.59975e-05
-0.000331897
4.73842e-05
2.70373e-05
3.3224e-05
3.79181e-05
7.80416e-05
-0.0174841
8.006e-06
-0.00340254
-0.0421934
0.230493
-0.00015198
-5.30474e-05
0.00495351
0.0841887
-0.0447008
-0.00078687
-0.0644238
0.315202
4.55054e-05
0.418469
-4.84852e-06
0.00351067
0.0250916
0.000461879
0.4557
-1.69903e-05
-6.55801e-06
0.0012246
3.25988e-05
-0.000901507
0.000278197
1.09614e-05
-0.00202156
9.25078e-06
-0.000154026
-0.00338436
0.244281
0.0499543
0.0227909
-0.0414814
-5.51389e-06
-1.98874e-05
0.00356796
-0.0523246
-1.06216e-05
-0.0441119
-5.74618e-05
0.102304
0.0617673
-0.0321031
-0.00139836
-0.0120045
-0.00102504
-0.0147048
0.00382708
-0.00749626
0.0631745
2.19779e-06
0.205415
0.0158011
-0.0006193
0.206286
-0.013326
-1.3265e-05
2.38298e-05
7.05096e-05
-0.000222102
-0.000129192
0.248441
-0.00101993
0.254147
-0.00112765
0.164819
0.215847
0.0789868
-0.00711514
-5.89653e-06
6.56909e-05
-0.0106195
-0.100749
-0.0463595
0.00157825
2.00078e-05
-0.0365682
-0.000335847
4.51025e-06
0.00106928
-0.00111027
-0.000683703
0.0337528
7.98122e-05
-0.0458073
0.0571458
6.1272e-05
0.000284311
-0.0143808
-0.0552417
-0.000763419
-0.000543978
1.26899e-05
0.00026467
0.0326996
-0.0169726
-0.0459845
0.00138472
0.0658259
-0.0375768
3.68461e-05
2.3318e-05
0.0122533
-9.70794e-05
0.0560199
0.00116212
-0.0135305
-0.000402753
0.00171734
-0.0352304
-3.95266e-05
0.000520557
-0.00107357
-0.0686789
0.129209
-0.0581673
-0.0264974
-0.000176298
-4.87562e-05
0.0070521
4.85532e-05
-0.0690681
-0.061904
0.000596658
0.00356319
0.00398074
-0.0868528
0.000675938
0.000201335
3.91025e-05
-0.0398537
2.97697e-05
0.000591562
0.120896
0.179121
-0.100145
0.0497602
0.0484916
0.0134234
-0.000170421
0.0117318
0.000130225
9.16576e-06
-7.96288e-05
-6.76175e-07
2.55245e-05
-0.000375202
-0.00774104
-0.0559767
-0.00984893
-0.0286589
0.052924
0.0444391
0.00428
-0.0596725
0.000170062
0.00486385
0.011742
-0.000407718
0.0737271
-0.0013044
-0.0110704
0.0124118
0.0057762
0.00105005
-0.00413027
0.0430557
0.000871751
-0.0195998
-0.0164789
0.546094
-0.0245975
0.0797642
0.011219
-0.0367929
0.002317
0.000106633
-0.0026478
5.8345e-05
-0.00271156
-0.0251107
-7.44273e-05
-5.12751e-05
0.259499
-0.00339388
-0.0404371
-0.0187121
0.000214329
-0.00151088
-2.4873e-05
7.8504e-06
0.0380609
4.21526e-05
-0.00302608
0.0739052
0.00654938
0.00118384
0.018978
-0.00587725
0.00439636
-0.102278
0.00091598
-0.00454893
-0.0533889
-0.000896676
-0.00821215
0.000794922
0.000883722
0.00104603
0.0365911
-0.000335974
0.00592834
-0.0514652
-0.0206327
0.000327706
-0.051062
-0.0150141
-0.0171539
0.000109654
0.00693012
-0.064775
-0.000876469
-0.00497954
-0.047546
1.89359e-05
-0.00121515
0.217416
-0.0217345
-4.38748e-05
0.00862487
-0.048569
-0.00109349
0.195696
-0.00230453
0.00107215
0.0602282
-0.00148158
0.00868404
0.127894
6.33873e-05
0.00123703
0.00018754
3.6431e-05
-0.00461281
-0.00741794
-0.000142217
-0.0239532
0.0953927
-0.0362121
-0.0674018
0.00122752
-0.00336387
-0.000643477
-0.0467733
2.67189e-05
0.0167878
4.45612e-05
-0.01592
-0.00201662
-0.00509273
-0.113489
0.109673
-0.071818
-5.67494e-05
0.181943
-0.00203151
-0.00268416
-0.0560802
-0.0754973
-0.0156762
-3.1945e-05
-0.00118255
0.00757611
-0.00318268
-0.00484327
0.00045767
0.0855527
-0.0422061
-0.011234
-0.00680836
0.0215521
-0.00279789
-0.00128621
0.00179881
-3.60895e-05
-0.00318141
0.108372
0.000835186
-0.111008
-6.20522e-05
-0.00747027
-0.00380425
-0.0807204
-0.0116272
-0.0929744
-6.85819e-05
-6.65585e-05
-0.00448853
0.0110923
0.00190195
-0.104537
0.0814223
-0.0467435
0.000197398
-0.114283
6.6602e-06
-0.120329
-0.0252142
-0.143191
-0.153601
-0.162393
-0.170868
-0.174786
-0.167404
-0.153912
-0.12852
-0.1059
0.0129998
0.0566015
0.104186
0.186012
-0.00817891
-0.00753375
0.0545799
-0.0183206
0.000946652
0.014632
-0.0393311
0.000549506
-0.000708196
-3.07792e-06
-0.0143478
0.0185083
4.65421e-05
-0.000335199
-0.0105998
-0.00698858
-0.137774
-0.0137463
-0.0534868
-7.07871e-06
0.000601772
-5.50071e-05
-0.052546
-0.00892759
-0.0357316
-0.0109825
0.00181532
0.000233604
0.00494703
-3.49112e-05
-0.0128495
-1.84557e-05
0.000390901
-0.00646965
-0.0115838
-0.000297427
0.000343863
0.0495052
-0.0104798
0.0591429
-0.12846
-0.00859088
-0.0342809
-0.0186918
0.00386943
-0.0214356
-0.00334834
-0.0125806
-0.0128587
0.352319
-0.00137705
7.15577e-05
-0.00592502
-0.00907969
3.24005e-06
0.0806436
-0.00418921
0.326231
-0.181745
-0.0427194
-0.0263821
0.0424309