/*--------------------------------*- C++ -*----------------------------------*\
  =========                 |
  \\      /  F ield         | OpenFOAM: The Open Source CFD Toolbox
   \\    /   O peration     | Website:  https://openfoam.org
    \\  /    A nd           | Version:  7
     \\/     M anipulation  |
\*---------------------------------------------------------------------------*/
FoamFile
{
    version     2.0;
    format      ascii;
    class       volVectorField;
    location    "11";
    object      U;
}
// * * * * * * * * * * * * * * * * * * * * * * * * * * * * * * * * * * * * * //

dimensions      [0 1 -1 0 0 0 0];

internalField   nonuniform List<vector> 
7807
(
(1.06177 0.112486 1.08835e-20)
(1.04687 -0.03526 3.90737e-21)
(0.99454 0.0892013 -2.109e-20)
(1.03001 0.056914 3.05397e-20)
(0.999275 -0.000852284 -6.16602e-23)
(0.999966 -9.72288e-06 -6.96396e-24)
(0.990379 0.0737807 -4.13692e-20)
(0.995507 -0.00163754 -1.32267e-23)
(0.999891 -0.000160321 -1.13861e-23)
(1.02072 -0.00015607 -1.4758e-21)
(0.999969 -1.11682e-05 7.68107e-24)
(1.00193 -0.00116014 -2.5147e-22)
(0.99308 -0.00212333 6.41322e-22)
(1.0157 -0.00167132 -9.73664e-21)
(1.02001 0.000671833 6.23275e-21)
(0.992591 -0.0132158 -1.24846e-21)
(1.06354 0.117855 -2.29277e-20)
(0.990665 -0.00272038 -2.24886e-22)
(1.00211 -0.00814094 -9.18704e-23)
(0.986464 -0.086452 -9.72627e-22)
(1.0296 -0.00319395 -3.373e-21)
(1.00127 -0.00059218 4.73573e-22)
(1.01529 -0.00302951 8.5023e-22)
(1.00973 0.0250649 -1.5674e-20)
(0.98753 -0.00341553 -1.02937e-21)
(1.05791 0.110899 -1.08283e-20)
(0.999287 -0.000802495 -4.44198e-23)
(1.02037 -0.00117374 3.8157e-21)
(1.00512 0.0130361 -2.02201e-21)
(1.00315 -0.00869389 7.73414e-23)
(0.988658 -0.014149 -2.30209e-21)
(0.892927 0.0323708 5.99877e-21)
(1.01466 -0.00346791 5.22766e-21)
(0.999597 -0.000345159 7.74257e-23)
(0.999911 -3.86059e-06 1.46601e-25)
(1.01964 0.00055583 2.19922e-21)
(1.0039 -0.00958454 9.01395e-23)
(0.993964 0.0714193 -6.6304e-21)
(0.99705 -0.0070085 1.0281e-21)
(0.999714 -4.84235e-05 7.39349e-23)
(0.997336 -0.00719122 -1.18812e-22)
(0.992738 -0.0122832 -4.69549e-22)
(1.01044 -0.0938382 3.92985e-21)
(1.13065 -0.037959 -2.99295e-22)
(0.999829 -8.0521e-06 2.40906e-23)
(0.999934 -1.48077e-05 -6.96529e-24)
(1.00114 -0.000503279 -2.89456e-22)
(0.996673 -0.00626411 -6.07239e-22)
(0.999943 -2.62652e-05 -5.64365e-24)
(0.99026 -0.0868687 1.39981e-21)
(1.00278 -0.00102187 2.70703e-22)
(1.02039 -2.70014e-05 -3.97122e-21)
(0.983671 -0.00413045 -3.47142e-21)
(1.01035 -0.0266491 2.09728e-22)
(1.01943 -0.000832347 -1.31744e-21)
(0.996036 -0.00227248 -1.17312e-22)
(1.00185 -0.00772173 1.9047e-22)
(0.995484 -0.00140886 8.73865e-22)
(0.980221 -0.017182 -4.11618e-21)
(0.999587 -0.000305995 -9.94066e-23)
(1.00004 -2.08186e-05 -1.02656e-23)
(1.00368 -0.000933881 3.03038e-22)
(1.01623 -0.00103031 -2.28555e-21)
(1.00205 -0.00100929 2.5455e-22)
(0.999198 -0.000180331 1.4171e-22)
(0.989145 -0.0146915 4.12598e-22)
(0.99992 -0.000163466 8.83073e-24)
(1.00001 -1.98986e-06 7.02541e-25)
(1.12859 0.0630414 6.03741e-21)
(0.996743 -0.00593404 -1.77962e-22)
(0.999938 -1.7719e-05 6.18596e-24)
(0.974989 -0.0517571 -7.38982e-21)
(0.988067 -0.0037806 4.99792e-22)
(0.977274 -0.00509647 6.8769e-22)
(0.991072 -0.00299585 7.03751e-22)
(0.969211 -0.0250398 -9.04317e-22)
(0.997645 0.0904567 3.38702e-20)
(1.02786 -0.00303359 4.27941e-21)
(1.07266 0.000885589 -9.14773e-21)
(0.960215 -0.0428352 -9.57747e-21)
(0.993401 -0.00234235 -9.84615e-22)
(0.998895 0.0446265 4.13065e-20)
(1.03345 0.00540024 9.93317e-21)
(0.976806 -0.00911253 3.15271e-21)
(0.998872 -0.00219035 -9.794e-23)
(0.998088 -0.000276144 1.0439e-22)
(0.995208 -0.00216289 1.20525e-21)
(0.98432 -0.0046102 2.23427e-21)
(0.999448 -0.00102025 6.63057e-23)
(0.99621 -0.000593245 3.74064e-22)
(1.00528 0.0148321 1.49355e-20)
(1.15913 -0.0235274 6.31146e-22)
(0.999888 -4.91313e-05 -1.45756e-23)
(1.00163 -0.00655894 7.6743e-23)
(0.997009 -0.000902229 3.38919e-22)
(0.976898 -0.00286608 -5.49468e-21)
(0.977167 -0.0513143 5.15822e-22)
(1.01171 -0.0256104 2.62785e-24)
(0.998783 -0.00211344 3.32843e-23)
(0.999048 -0.000158672 4.7516e-23)
(0.955358 -0.0154232 2.39711e-21)
(1.07341 0.00532482 7.39649e-21)
(0.997182 -0.00102275 -8.45409e-22)
(0.999977 -7.10016e-07 -5.88294e-25)
(1.16207 -0.012829 3.47834e-22)
(1.02559 0.024759 -1.44542e-20)
(0.944051 0.0229738 6.91508e-21)
(0.995763 -0.00215417 -4.8693e-22)
(0.999992 -1.73577e-06 1.32336e-25)
(1.02178 -0.0111597 -1.87877e-21)
(1.0333 0.0540113 -3.54717e-20)
(1.02439 -0.0690192 -4.00497e-21)
(0.99999 -1.99079e-06 -2.0552e-25)
(1.02338 -0.0117549 -4.10873e-22)
(1.02256 0.0240063 1.51918e-20)
(1.00034 -0.000486188 -2.23791e-23)
(1.06478 -0.0803179 -4.866e-23)
(1.02594 0.0141952 -3.51924e-21)
(0.985675 -0.0405717 3.12441e-21)
(0.97698 -0.00620807 -7.15591e-22)
(0.952245 -0.0101415 -5.80029e-21)
(1.00079 0.0338292 -2.69024e-20)
(1.01596 -0.0922825 -5.41876e-21)
(1.0081 -0.00656257 1.56678e-22)
(0.95393 -0.0115779 2.28762e-21)
(0.999218 -0.00117222 1.48008e-22)
(0.989453 -0.0106221 7.59385e-22)
(1.00255 -0.00744968 -1.31637e-22)
(0.99915 -0.000133406 -3.16078e-22)
(0.988575 -0.0129748 3.7848e-23)
(1.19377 -0.0386515 -1.56577e-22)
(1.06766 -0.00108754 1.54081e-21)
(0.999502 -0.000455828 8.38773e-24)
(0.999368 -0.00105094 -1.28936e-22)
(0.975678 -0.00834576 9.39047e-22)
(1.03133 0.0473021 1.31804e-20)
(0.994897 0.0270526 4.73348e-20)
(0.999979 -2.63661e-06 -6.93499e-25)
(1.00663 -0.00255734 1.27067e-22)
(0.934403 -0.0126684 -7.31873e-21)
(0.978708 -0.00366539 -2.80822e-21)
(0.990638 -0.0561914 -4.45306e-21)
(0.969689 -0.0269508 1.22521e-21)
(0.978559 -0.00459179 -6.18189e-23)
(0.938896 0.0180644 2.68362e-20)
(1.01176 -0.0407678 -1.39276e-22)
(1.01058 0.0148412 -7.65314e-21)
(0.982332 -0.020542 -2.11022e-21)
(0.968018 -0.00502037 7.82728e-22)
(1.00035 0.0403687 -1.33905e-20)
(1.0206 0.00169696 5.56118e-21)
(1.14706 -0.0261387 8.37994e-22)
(0.998723 -0.00171086 -3.43949e-22)
(1.1335 0.055832 1.15667e-21)
(1.03195 0.00502694 -1.02888e-20)
(1.00403 0.0742877 -3.38306e-20)
(0.96442 -0.0294997 3.7779e-21)
(0.993075 -0.00160398 2.1637e-22)
(0.95294 0.060017 6.06232e-20)
(0.999947 -2.14312e-05 -5.31572e-24)
(1.00121 -0.00686169 -5.75784e-23)
(1.01051 0.0280002 1.12517e-20)
(0.999982 -1.6976e-05 3.35872e-24)
(0.998567 -0.0044681 -4.77676e-22)
(0.996627 -0.000866483 -1.62287e-22)
(1.00368 0.0326414 -3.65696e-21)
(1.00208 0.0303991 1.35008e-20)
(0.946152 0.0664748 2.00748e-20)
(0.998372 -0.00432467 -3.02175e-22)
(0.997371 -0.000313151 -1.82948e-22)
(1.00001 -1.61146e-06 -6.43156e-25)
(0.949243 -0.0062359 -1.00132e-20)
(1.00032 -0.000430578 3.08577e-23)
(1.04867 -0.031995 -4.56498e-21)
(1.00674 -0.00287895 8.4299e-22)
(0.968782 -0.00592952 1.61806e-21)
(1.15308 -0.0034283 1.80216e-21)
(1.08868 0.0627291 4.90823e-22)
(0.999888 -5.55469e-05 7.9748e-24)
(0.999567 -0.000545802 -8.77413e-23)
(1.03068 0.0598977 -5.36995e-21)
(0.999948 -1.6658e-05 -2.57342e-24)
(0.999905 -1.00831e-05 3.82043e-24)
(0.990571 0.078213 -3.42618e-20)
(1.04867 -0.0381733 1.43192e-21)
(1.01176 -0.058359 -2.42454e-21)
(0.987434 -0.0392799 -4.42887e-21)
(0.97933 -0.00664359 2.0552e-21)
(1.00913 -0.0421022 2.28728e-22)
(0.936024 -0.010689 3.8435e-21)
(0.999981 -1.55601e-05 -1.19752e-24)
(0.977614 -0.0480273 -1.76202e-21)
(1.091 0.0692774 -1.15454e-20)
(0.997164 -0.00124587 1.2147e-22)
(1.00007 -5.17696e-06 -7.48666e-24)
(1.06416 0.0657624 1.12782e-21)
(0.998961 -0.000332204 3.36323e-22)
(0.989288 -0.0124779 1.21593e-21)
(1.00663 -0.0398795 7.76671e-22)
(1.00002 -2.20428e-06 -2.86075e-25)
(1.00071 -0.00171714 -1.28636e-22)
(1.02826 0.0469505 1.61404e-20)
(1.07893 0.0744051 -1.4547e-20)
(1.00026 0.0655048 -4.53228e-21)
(1.061 -0.0746665 1.20817e-21)
(1.02753 -0.0656774 9.66512e-22)
(1.10706 -0.10745 -4.32532e-22)
(1.0201 -0.00275023 1.12754e-20)
(1.02592 0.0449557 -5.26128e-21)
(0.999819 -1.79381e-05 -2.81114e-23)
(1.00003 -1.72386e-05 2.71603e-24)
(0.957687 0.00927934 -2.67818e-20)
(0.993834 -0.0117691 -4.4017e-22)
(0.999484 -0.000410769 -8.38621e-23)
(0.979683 -0.0471723 3.6265e-21)
(0.988952 -0.0112075 -8.84711e-22)
(1.01205 0.0686415 -3.8276e-20)
(1.00886 0.0665511 -8.10952e-21)
(0.988116 -0.0577148 1.24309e-21)
(0.913487 0.0450255 -2.2766e-20)
(0.999035 -0.000382838 -2.46947e-22)
(0.990712 -0.00232259 8.03647e-22)
(0.95356 -0.0140937 3.16128e-21)
(1.02862 0.000771733 -2.39325e-21)
(1.01523 -0.116863 -5.46002e-22)
(1.0803 0.111095 -2.37014e-20)
(0.952982 0.0527722 -5.19416e-20)
(1.00006 -9.43774e-05 8.36907e-24)
(1.00799 -0.00630294 4.20139e-22)
(1.02405 0.0164392 1.89821e-20)
(0.996776 -0.00521195 -7.87481e-22)
(1.02803 0.014656 -2.41553e-21)
(0.99955 -0.0011012 -2.14564e-23)
(0.927412 0.0751512 4.04904e-20)
(1.00448 0.068604 7.35593e-21)
(0.995213 -0.00185515 7.66343e-22)
(1.00332 -0.00727441 -1.85636e-23)
(0.999731 -6.26607e-05 -1.377e-22)
(1.11062 0.0884134 6.05701e-21)
(0.999917 -1.15688e-05 1.13874e-23)
(0.995558 -0.00968077 3.59457e-22)
(0.943538 -0.0280654 4.31714e-21)
(0.999937 -2.23274e-05 -2.56398e-24)
(0.99898 -0.00253468 -8.47878e-23)
(0.99965 -0.00107481 3.90225e-23)
(1.05752 0.0394098 1.43267e-20)
(0.999983 -2.16349e-05 4.0612e-24)
(0.996052 -0.000459552 4.27292e-25)
(0.962363 -0.0424746 1.11004e-20)
(0.893948 0.0241239 -1.32172e-20)
(1.06699 -0.00518629 -2.06873e-21)
(0.936728 0.0505476 3.09401e-20)
(0.999961 -8.24057e-06 -6.39809e-24)
(1.00457 -0.0406 -7.7291e-23)
(0.999842 -0.000271929 -3.15655e-23)
(0.999696 0.0761166 -3.37778e-20)
(1.00321 -0.000611402 -3.90588e-22)
(0.99285 0.0296029 1.54949e-20)
(1.00262 -0.00893328 -3.69836e-22)
(1.00063 -0.0017574 1.3859e-22)
(1.02667 -0.0298542 -1.13073e-21)
(1.01997 -0.00144969 -1.04451e-20)
(1.00048 -0.000290763 6.38921e-23)
(0.999804 -4.88749e-05 7.39453e-25)
(1.00042 -0.000394689 1.44189e-22)
(0.996595 -0.0055156 -6.96538e-22)
(1.01805 -0.0605354 2.51717e-21)
(0.999962 -1.12599e-05 4.32522e-24)
(0.965882 -0.0282408 2.64197e-21)
(0.996798 -0.00101163 -3.04345e-23)
(0.999874 -4.22045e-05 1.54739e-23)
(0.99948 -0.00050898 2.73277e-23)
(0.988498 0.0463561 3.73454e-20)
(0.993025 -0.000752347 3.15629e-22)
(0.999351 -0.00010587 -2.84454e-23)
(0.918557 0.0107932 5.06167e-20)
(0.998857 -0.00245189 -1.91816e-22)
(1.05106 0.0850141 -1.28535e-20)
(0.999824 -0.000253979 5.7001e-23)
(1.00742 -0.0202308 2.0293e-22)
(1.00002 -9.17045e-07 -2.3814e-25)
(0.984936 -0.0328124 -1.81624e-21)
(1.02832 0.00101703 3.6843e-21)
(1.15502 0.00524245 -4.85498e-21)
(0.980466 -0.0184749 3.48068e-21)
(0.999656 -0.00055663 1.01792e-22)
(0.984722 -0.0737482 2.26094e-21)
(0.985306 -0.00043012 1.46479e-21)
(0.999841 -2.06809e-05 1.60223e-24)
(1.00039 -0.000338799 -1.27632e-22)
(0.99822 -0.00314913 2.62632e-22)
(0.993339 -0.0013314 -9.41188e-22)
(1.00273 -0.000804623 -4.63513e-22)
(0.99894 -0.00176326 1.23703e-22)
(0.978018 -0.00848874 4.93998e-22)
(1.02215 -0.0581915 -1.8988e-21)
(0.978143 -0.00711745 2.20141e-21)
(1.12436 -0.0306982 1.37387e-22)
(0.970735 -0.00797449 -2.82049e-21)
(1.01368 0.0886616 3.82159e-21)
(1.01019 0.0909522 -2.82239e-20)
(0.998717 -0.000696283 -2.14543e-22)
(1.17594 0.00326262 4.25766e-21)
(0.999985 -3.26776e-06 -3.9557e-25)
(0.998202 -0.00388875 -3.16567e-22)
(0.976312 -0.00200134 5.64284e-21)
(1.00747 0.0220764 9.35586e-21)
(1.03533 0.00887373 -9.58197e-21)
(1.00009 -3.42557e-05 1.71222e-23)
(0.998261 -0.00368082 -2.08756e-23)
(0.971818 -0.00881643 2.12567e-21)
(1.04482 0.0343038 -5.65094e-21)
(0.999157 -0.00108933 1.10935e-22)
(1.0029 -0.000769272 2.60902e-22)
(1.00108 -0.000869536 -2.34443e-23)
(1.10997 0.020663 8.91251e-21)
(1.19305 -0.0505333 -1.49799e-21)
(1.02997 0.106871 1.83724e-20)
(0.998628 -0.000202965 -2.10353e-22)
(1.05714 -0.0364775 -3.78094e-21)
(0.999901 -6.21159e-05 -1.2686e-23)
(1.0043 -0.00648242 -9.09393e-22)
(0.999953 -1.17772e-05 -1.82833e-24)
(0.987227 -0.0197042 5.94525e-22)
(0.999702 -6.70823e-05 -2.63572e-23)
(1.01127 -0.0194907 2.22438e-22)
(1.19829 0.0051852 -2.80872e-21)
(0.97625 -0.0263473 4.13965e-21)
(1.00841 -0.0196752 -1.31553e-22)
(1.00733 -0.00558737 -5.47705e-22)
(0.999367 -0.000136516 1.2752e-22)
(1.02394 -0.0158336 1.33593e-21)
(0.997294 -0.0172165 5.2539e-22)
(1.06827 0.00963082 -4.21187e-21)
(1.05306 0.0377302 6.50741e-21)
(1.15378 -0.119133 -3.66973e-23)
(1.12801 -0.0464018 8.14345e-23)
(0.984672 -0.000892542 -1.56909e-21)
(1.00444 -0.00322087 8.3835e-22)
(0.945731 -0.0265728 -1.66976e-21)
(0.93919 0.0659339 -6.24274e-20)
(1.10973 -0.0471801 -1.34257e-21)
(1.02352 -0.00940494 -5.05975e-21)
(0.920635 0.0484958 -3.09828e-20)
(0.998666 -0.000141996 1.0381e-22)
(0.998489 -0.00086655 -6.62209e-23)
(1.14388 -0.0354236 3.86799e-22)
(0.999068 -0.0018745 -6.66205e-23)
(1.01192 -0.0379165 1.46887e-22)
(1.00512 -0.00173011 2.95183e-22)
(0.997505 -0.000388869 -1.62674e-22)
(0.998164 -0.000337558 -2.57859e-22)
(1.02779 0.0217073 1.11262e-20)
(0.999941 -0.000137954 -9.38326e-25)
(1.00045 -0.000223858 -5.68921e-23)
(1.00007 -1.46419e-05 1.27971e-23)
(0.996952 -0.000632231 8.7517e-22)
(0.994502 -0.00838576 9.74714e-22)
(0.999984 -2.83236e-06 3.04845e-25)
(0.999056 -0.000229497 2.70229e-23)
(0.98117 -0.0162676 1.22748e-21)
(0.956875 0.0137192 1.66733e-20)
(1.01016 -0.0205191 -1.57749e-22)
(0.993868 -0.0109766 1.56191e-21)
(0.967547 0.0518557 7.21506e-21)
(1.00097 0.0330542 2.41221e-20)
(1.05868 -0.000422069 -3.40907e-21)
(1.16767 0.0087115 -1.82294e-21)
(0.94796 -0.00461199 5.46329e-21)
(1.00444 -0.00365431 -4.13972e-22)
(1.00762 0.0365253 -1.33247e-21)
(0.989871 -0.00210044 -1.92066e-21)
(1.03424 0.0840496 5.83271e-22)
(1.00891 -0.0453125 1.39615e-23)
(1.0353 -0.104062 -1.75673e-21)
(1.07486 0.0715596 8.93205e-21)
(1.0363 0.0889156 -1.63258e-20)
(0.967161 -0.0243388 5.91709e-21)
(1.03672 0.00726941 -6.27492e-21)
(1.08451 0.115272 2.22756e-20)
(1.04594 0.0853569 2.39802e-20)
(1.02072 -0.00190286 3.57558e-21)
(0.997349 -0.00134409 1.91079e-22)
(0.996297 -0.00207066 1.66957e-22)
(0.999921 -1.96752e-05 -6.07305e-24)
(1.01551 -0.0251412 2.97916e-22)
(0.989589 -0.0017644 4.52225e-22)
(1.0009 -0.00218733 -1.13733e-22)
(0.999906 -2.23124e-05 -1.12563e-23)
(0.998575 -0.000645936 8.35809e-23)
(0.982205 -0.0727646 -3.71299e-21)
(1.09544 0.0310781 3.89956e-21)
(0.984202 -0.00565029 -2.50234e-21)
(0.999527 -0.0114103 5.538e-22)
(0.996646 -0.000638897 -4.66706e-22)
(1.05482 -0.0386698 1.31498e-22)
(0.993652 -0.00141077 -1.51423e-21)
(1.00219 -0.00661854 3.54632e-22)
(1.09621 0.110329 3.55937e-21)
(0.998365 -0.000312791 -6.01701e-22)
(0.999981 -4.11546e-05 -2.82545e-24)
(0.999953 -0.000165014 -1.55471e-24)
(1.00004 -9.74367e-05 1.09724e-23)
(0.980286 -0.00740563 1.15023e-21)
(1.02624 0.0193877 -1.3209e-20)
(0.996429 -0.000491068 1.80501e-23)
(1.02017 -0.00814968 3.2643e-21)
(1.02236 -0.121703 3.68026e-21)
(0.995253 0.0667206 -6.90842e-22)
(1.00367 -0.00678243 3.03004e-22)
(1.00602 -0.00408581 -1.35554e-22)
(0.995505 -0.00234817 -6.08939e-22)
(0.992974 0.0467859 -3.65933e-20)
(0.99908 -0.000101883 8.60051e-23)
(1.03314 0.110375 -9.36723e-21)
(1.00875 0.0153916 -1.46976e-20)
(0.999897 -2.75845e-05 1.31727e-23)
(1.00713 -0.046198 -1.53537e-21)
(0.997078 -0.000729474 -4.31123e-22)
(0.993857 -0.0568613 5.4376e-21)
(1.00048 -0.000112899 5.68379e-23)
(1.05432 0.00214906 4.75488e-21)
(1.00667 -0.0145623 -1.37677e-23)
(1.00558 -0.00353718 6.96167e-23)
(0.999256 -0.000145474 -1.70579e-22)
(1.06253 0.0370604 7.07957e-21)
(1.04076 0.0330276 2.22733e-21)
(1.00979 -0.0609543 2.48075e-21)
(0.981991 -0.0189816 -2.36609e-22)
(0.998113 -0.00335919 -2.26894e-22)
(1.0014 -0.0367718 -2.84435e-21)
(1.12887 0.0471966 -7.99311e-21)
(0.899072 0.0376553 -2.90141e-20)
(1.07769 -0.0693672 -9.70006e-22)
(1.00464 -0.00703054 -1.45854e-22)
(0.999994 -1.89614e-06 -1.02166e-25)
(0.987998 -0.00458417 -1.99759e-21)
(0.998001 -0.000344095 5.57079e-22)
(1.02311 -0.0154306 1.94478e-21)
(1.00736 -0.0984192 -1.67574e-21)
(1.17442 -0.00885075 -1.16707e-21)
(0.986755 0.0631121 -4.51689e-20)
(1.04842 0.0314936 9.42111e-21)
(1.10893 -0.0968864 2.06327e-21)
(1.0641 0.0714836 3.74783e-21)
(0.999065 0.0331898 4.35167e-20)
(1.0176 -0.00251218 2.65266e-21)
(1.00106 -0.00208514 2.59624e-22)
(1.02108 0.0498414 8.06104e-21)
(0.999252 -0.00184171 1.48718e-22)
(0.99984 -0.000148916 1.23906e-23)
(0.983394 -0.0019362 7.04766e-22)
(1.00009 -3.14917e-05 3.22145e-24)
(1.11556 -0.115149 1.43212e-21)
(1.00385 -0.016199 -4.44299e-23)
(0.986969 -0.0322335 3.02588e-21)
(1.00165 -0.0014509 1.30231e-22)
(1.05916 0.0628229 1.97129e-20)
(0.998429 -0.000290241 -4.97038e-23)
(0.999979 -3.27878e-05 -2.79743e-25)
(1.02912 -0.108542 1.97555e-21)
(1.00146 -0.00118879 -7.58754e-23)
(1.09441 -0.00484922 -1.02429e-21)
(0.957686 -0.0144398 1.11253e-21)
(0.937731 -0.0175646 5.7316e-22)
(1.18086 0.0481197 -6.18478e-22)
(1.02206 0.0152644 -4.95925e-21)
(1.01882 0.00424236 3.05475e-21)
(1.01768 0.00395 -1.24395e-21)
(0.999819 -4.0421e-05 4.397e-24)
(1.10254 0.0304347 3.0904e-21)
(1.06865 0.0130877 4.90657e-21)
(0.999559 -0.000585125 3.98273e-23)
(0.984933 -0.00612589 2.90762e-21)
(1.00055 -0.000183055 -6.32545e-23)
(1.01114 -0.0178691 -1.5694e-21)
(1.0088 -0.0255928 -1.14422e-23)
(1.00403 -0.00126551 3.09194e-24)
(0.999342 -0.00116801 -1.79517e-22)
(1.1095 0.0813207 -1.85043e-20)
(0.999981 -2.01564e-05 -4.70909e-24)
(1.00019 -9.3282e-05 -1.67193e-23)
(1.00184 -0.000921054 -5.23583e-24)
(0.979375 -0.00318535 1.95663e-21)
(1.01697 -0.00977206 2.33598e-21)
(0.985968 -0.0271529 -4.35937e-21)
(0.97448 -0.00494669 -1.13821e-21)
(1.01479 -0.0575519 1.35495e-21)
(1.03984 -0.130147 -3.84942e-21)
(1.02495 -0.0270983 7.12969e-22)
(1.02516 0.0504549 -4.62875e-20)
(1.18926 0.0111372 1.43563e-21)
(0.994157 -0.00236598 -7.96627e-23)
(0.923578 0.0703354 4.80769e-20)
(0.979566 -0.0530902 6.36968e-21)
(0.994272 -0.00894352 3.0712e-22)
(0.975109 -0.00408675 1.88071e-21)
(0.998403 -0.0166469 -1.55351e-22)
(0.980691 -0.00235008 2.98789e-21)
(0.991017 -0.00364347 -5.79515e-22)
(1.02419 -0.0116411 -3.55499e-21)
(1.11726 -0.0505683 3.51291e-22)
(0.999977 -3.91052e-05 -3.92528e-25)
(1.02058 -0.0109796 -3.81724e-22)
(0.999913 -2.73227e-05 -6.40065e-24)
(1.00794 0.0766609 9.08417e-21)
(1.13005 0.0689118 1.39479e-20)
(0.995741 -0.0017885 1.90922e-22)
(0.987197 -0.00166168 -2.66071e-21)
(0.999832 -4.9119e-05 -3.21475e-23)
(0.997291 0.0430237 2.74836e-20)
(1.02547 0.0875857 2.15028e-20)
(1.10473 0.0225854 -4.82185e-21)
(1.11526 0.105157 -1.55606e-20)
(0.979639 -0.0564087 -2.68875e-21)
(0.998756 0.0121976 -4.07148e-20)
(0.999945 -0.000119364 5.94163e-24)
(1.04348 -0.0232131 5.02976e-21)
(0.983064 -0.00147651 -1.10675e-22)
(1.08183 0.0605582 -4.25218e-21)
(0.945002 0.0482065 -3.77491e-20)
(1.13237 0.0407218 1.04639e-20)
(1.04382 0.0261519 1.59211e-21)
(1.00016 -0.0112843 -8.00254e-23)
(0.999825 -7.5479e-05 -2.96099e-23)
(1.11738 0.0912925 6.47733e-21)
(1.18161 -0.0306413 -1.74987e-22)
(0.995854 0.0478911 -9.02378e-22)
(1.08767 -0.00605566 8.86827e-21)
(1.02783 0.041236 1.36298e-20)
(0.993785 -0.00212101 -2.69101e-22)
(0.992477 0.0633081 1.23305e-20)
(1.02907 0.0833706 7.64184e-21)
(0.992064 -0.00305064 -1.624e-21)
(0.993369 -0.00285645 -6.01715e-22)
(1.12764 0.0824734 3.26599e-22)
(0.935267 -0.0162952 -7.70854e-21)
(0.999925 -0.000139896 -9.20608e-24)
(0.988592 -0.00494687 2.56913e-21)
(0.940621 -0.0228107 5.62822e-21)
(0.991958 -0.0708355 -7.91132e-22)
(1.00841 -0.00239555 -2.33155e-21)
(1.00711 -0.00506119 1.55346e-22)
(0.99989 -0.000173039 -1.71822e-23)
(1.02708 0.092475 -3.23398e-20)
(1.00052 -0.0100252 1.3631e-23)
(0.999909 -5.30494e-05 5.66034e-24)
(1.02169 -0.053435 1.13263e-21)
(0.999566 -0.000383035 3.52203e-23)
(0.999804 -7.01402e-05 2.24279e-24)
(1.00486 -0.0107932 -1.75392e-22)
(1.0495 0.0622702 2.65391e-20)
(1.02127 -0.0968584 2.76115e-21)
(0.959932 0.0485743 2.22943e-20)
(1.00006 -1.12602e-05 -8.96842e-24)
(1.05384 0.0657599 -2.77862e-20)
(1.01469 -0.0459735 1.03071e-21)
(0.999935 -0.000167256 -2.61293e-24)
(1.00002 -5.06979e-06 -2.79282e-24)
(1.0032 0.0101197 -2.43827e-21)
(1.0455 0.0537313 9.85864e-21)
(0.996568 -0.00218515 1.66014e-22)
(1.04204 0.0416958 -1.27372e-20)
(1.00002 -1.73332e-05 2.02867e-24)
(1.04238 0.0462744 -1.77531e-20)
(1.13953 -0.120466 2.96012e-21)
(0.991621 -0.00273065 1.78787e-21)
(0.999291 0.0190527 -5.58924e-20)
(0.979873 -0.0443311 4.23543e-21)
(1.11907 0.0997502 1.53947e-20)
(0.976289 -0.00412128 1.13116e-21)
(1.04606 0.0488569 2.31007e-20)
(1.04988 0.056606 -7.12191e-21)
(0.985703 -0.00753426 4.17651e-21)
(0.981184 -0.00927416 -3.09018e-21)
(0.995743 -0.00890054 8.99184e-22)
(0.997553 -0.000649578 -1.4107e-22)
(0.99983 -0.000168217 3.41601e-23)
(1.00036 -0.00951661 -2.40064e-23)
(1.03767 0.0792091 -3.86035e-21)
(0.999976 -3.06243e-05 1.20038e-24)
(1.03783 0.0398636 1.68569e-20)
(1.03414 -0.0963333 4.02439e-21)
(1.00476 0.048206 1.08562e-20)
(1.03775 0.0359774 -1.91354e-20)
(0.938097 -0.0213966 -6.90703e-22)
(0.965293 0.0620431 -4.68745e-20)
(0.998645 -0.00101956 1.20079e-23)
(1.01512 -0.0231161 7.08164e-22)
(1.0504 -0.0687978 7.76554e-22)
(0.981554 -0.0021937 -1.76335e-22)
(0.994511 -0.00298867 8.00663e-22)
(1.01233 -0.047416 -9.63395e-22)
(1.04887 -0.015669 -5.2417e-22)
(0.929254 0.0435127 5.90059e-20)
(1.00004 -1.81673e-05 9.79816e-24)
(0.998405 -0.00109031 1.60861e-22)
(1.02017 -0.0683762 4.30256e-23)
(1.00001 -4.24537e-06 3.40042e-25)
(1.00823 0.0820085 4.46395e-21)
(1.00145 -0.00102203 0)
(1.00001 -5.10432e-06 2.5702e-25)
(1.00016 -7.55607e-05 3.91659e-23)
(1.00036 -9.5189e-05 7.958e-25)
(0.987504 -0.0183645 3.00109e-21)
(1.01997 -0.0147343 -1.40757e-21)
(0.99871 -0.000781241 2.52676e-22)
(0.999929 -1.40507e-05 1.2007e-23)
(0.994128 -0.00280368 4.45208e-22)
(1.00416 -0.0112864 -1.35401e-22)
(0.99741 -0.104822 -4.59078e-21)
(0.943362 -0.00721327 5.54353e-22)
(1.01628 -0.00868887 4.03344e-21)
(0.999977 -2.35691e-06 3.71349e-24)
(1.09612 -0.138128 4.6967e-21)
(0.988788 -0.00342784 -1.0301e-21)
(1.1156 0.074668 -1.13437e-21)
(1.00035 0.0178222 -7.92736e-21)
(1.00109 -0.00314408 6.12677e-23)
(1.10469 0.0650628 -1.75099e-20)
(1.00013 -8.42653e-05 -2.17365e-27)
(0.98934 -0.0038528 3.02353e-23)
(1.02042 0.000809382 -6.36933e-21)
(0.99453 -0.00339166 -3.27977e-22)
(1.05073 0.0739775 -1.57704e-21)
(0.989255 -0.00602407 -1.93602e-21)
(1.04459 -0.0212739 -4.22621e-21)
(1.02136 0.00197046 -6.83393e-21)
(1.05285 0.0336727 -4.05925e-21)
(1.00685 -0.0134052 -6.80476e-22)
(0.99149 -0.00391503 4.81594e-23)
(1.06984 0.062461 1.25816e-20)
(0.985891 -0.077998 -4.21836e-21)
(0.998716 0.0805512 3.71819e-20)
(0.992495 -0.00439559 -1.87502e-21)
(1.05307 0.095731 -1.51738e-22)
(0.992483 -0.00386308 5.00787e-22)
(0.999037 -0.000458788 -1.64668e-23)
(1.04311 0.0237679 4.41679e-21)
(1.014 -0.0265001 -2.14592e-22)
(1.0309 0.00275235 9.72365e-21)
(1.00146 -0.000760596 8.42349e-23)
(1.00001 -3.60566e-06 1.187e-25)
(1.00942 -0.119353 1.63961e-21)
(1.09466 0.104551 -2.02118e-20)
(1.00131 -0.0030467 -8.10151e-23)
(1.11272 0.0666867 1.75865e-21)
(0.989847 -0.00560683 -1.26424e-21)
(1.08792 -0.144311 -1.51721e-21)
(1.0422 -0.0356178 1.55164e-22)
(0.985718 -0.0288813 2.44413e-21)
(0.998606 -0.000895522 -1.06506e-22)
(0.992682 -0.000967753 -3.78634e-22)
(0.979814 -0.0668622 -2.61339e-21)
(0.974395 -0.00894091 4.30303e-21)
(0.992005 -0.0036055 1.32836e-21)
(0.999879 -0.000389985 1.50226e-23)
(0.992854 0.0850314 -4.5201e-21)
(1.10187 0.0577856 1.07758e-20)
(1.02166 -0.00894695 -1.23409e-21)
(0.999834 -0.00013008 2.26515e-23)
(1.02723 0.0787016 -1.45871e-20)
(1 -2.10355e-05 5.23318e-25)
(0.999846 -0.000114886 4.47778e-23)
(1.09418 0.0565483 9.13468e-21)
(1.0101 -0.0220786 4.89654e-22)
(1.10316 0.0944781 1.69905e-20)
(1.02037 -0.00289582 2.71089e-21)
(1.01512 -0.0110532 -2.93736e-22)
(1.08613 -0.0569117 6.59895e-23)
(1.05455 -0.119072 3.82576e-21)
(1.18075 0.0408575 -2.68612e-21)
(1.00107 -0.000752386 -1.83797e-22)
(0.959443 -0.0157199 -4.41243e-22)
(0.999985 -5.06339e-05 -8.26489e-25)
(1.00457 -0.00999636 1.2185e-22)
(1.05406 0.0711278 9.95894e-21)
(0.986463 -0.00704439 2.91247e-21)
(0.997697 -0.00130582 2.23633e-22)
(1.0146 -0.0364785 -3.93611e-22)
(0.998383 -0.000963507 1.53457e-23)
(0.999676 -0.000957168 4.64235e-23)
(0.923405 0.010054 1.04563e-20)
(0.992044 -0.00474133 -1.0625e-21)
(0.999569 -0.000646062 -1.38139e-22)
(0.999984 -7.20226e-07 -7.76889e-25)
(1.01519 0.00525368 1.32525e-20)
(0.976944 -0.0245707 -6.49447e-22)
(0.999731 -0.000489256 4.07489e-23)
(0.997701 -0.000752536 2.87874e-22)
(1.02048 0.0173329 5.38192e-21)
(1.05891 0.00921198 1.05135e-21)
(0.966929 -0.0222147 -3.66675e-21)
(1 -1.31921e-05 1.93333e-25)
(1.00177 0.0136702 3.50205e-20)
(0.988673 -0.0159773 -2.05926e-21)
(1.05917 0.0572703 -1.98405e-20)
(1.01093 -0.00127627 -3.51446e-21)
(1.01253 -0.00106945 8.00141e-21)
(0.972895 -0.011139 5.86548e-21)
(0.99992 -5.76627e-05 -3.7034e-24)
(1.02046 2.93923e-05 -1.2136e-21)
(1.06301 0.006884 -1.5873e-21)
(1.15965 0.0459376 7.56227e-21)
(1.03975 -0.0914326 7.18166e-22)
(1.03505 0.0747027 1.16757e-20)
(1.00512 -0.00142676 -5.62484e-23)
(1.07556 0.0658051 -1.72988e-20)
(1.0004 -0.0131256 -1.46654e-22)
(1.01805 -0.0514889 -2.4932e-21)
(0.999677 -0.000146007 -4.45618e-23)
(1.0033 -0.0171833 8.0115e-23)
(0.999915 -0.000378369 5.58619e-24)
(1.03961 0.0282844 -1.28791e-20)
(1.06841 0.10354 -3.5336e-20)
(0.998775 -0.00105817 8.49422e-23)
(1.01603 -0.0109695 9.78332e-23)
(0.98518 -0.0042667 1.00206e-21)
(1.04287 -0.0794503 2.14077e-22)
(1.038 -0.0845903 -2.01629e-21)
(0.998472 -0.000760393 1.68863e-22)
(1.04022 -0.0235743 -1.77966e-21)
(0.930735 0.00274784 -1.77019e-20)
(1.1557 0.0291018 5.69813e-21)
(0.999955 -0.000144345 1.2666e-23)
(1.05476 0.0067177 -3.85772e-21)
(0.997697 -0.00809179 -4.2927e-22)
(0.993506 0.00269158 3.8396e-20)
(0.989845 -0.00491082 1.76212e-21)
(0.997266 -0.0242546 -4.95462e-22)
(1.01662 -0.0321222 -7.59062e-23)
(0.995976 -0.0251363 -8.48868e-23)
(0.999294 -0.0193561 -1.06752e-21)
(0.993739 -0.0030547 3.06769e-22)
(0.999654 -0.0130062 5.89281e-22)
(1.00174 -0.00563633 -9.4192e-23)
(1.05031 -0.0190696 1.15298e-21)
(1.00009 -2.6914e-05 -2.49377e-23)
(1.17676 -0.0877231 -4.51423e-22)
(1.14104 -0.00706206 1.43724e-21)
(1.01728 0.0900755 2.6209e-20)
(0.968613 -0.0209789 5.58327e-21)
(1.09561 0.0904477 -8.60476e-21)
(1.00164 -0.00060833 2.96406e-22)
(1.06462 -0.0672457 -8.2616e-23)
(1.00535 -0.0348371 -1.03282e-21)
(1.01797 0.0302731 1.51961e-20)
(0.994184 -0.00367367 7.59004e-22)
(1.00009 -0.000160612 1.64865e-23)
(0.989287 -0.0165955 2.68624e-21)
(0.996496 -0.00864872 -3.40701e-22)
(1.03752 -0.0216993 3.47762e-21)
(0.975748 -0.00681377 -3.63501e-21)
(0.980162 -0.00866375 1.01779e-21)
(1.11356 -0.0310438 1.0497e-21)
(0.987537 -0.0027387 -1.73544e-21)
(1.01442 -0.0337512 1.71315e-22)
(0.993554 -0.0750045 2.93486e-21)
(1.00001 -7.0985e-06 2.10651e-25)
(1.05109 -0.012145 6.14635e-21)
(0.994863 -0.0672689 -7.91876e-21)
(1.10103 0.0783093 8.32552e-21)
(1.08656 -0.0634638 -4.46921e-22)
(1.02959 0.00227299 8.29271e-22)
(1.02743 -0.0933213 -5.44393e-21)
(1.03482 0.0986445 7.19904e-21)
(1.03181 -0.0315531 1.46425e-21)
(0.971649 -0.0103075 -3.47096e-21)
(1.01464 -0.0426838 -1.06937e-21)
(0.965455 0.0041949 1.70168e-20)
(1.14198 -0.0903568 1.86643e-22)
(0.989259 -0.00456627 -5.34945e-22)
(1.0298 -0.117018 -4.26525e-22)
(1.02601 -0.0602127 1.48886e-21)
(1.0431 -0.107198 -8.56251e-22)
(1.04055 -0.0733974 -1.73954e-21)
(1.06943 0.056667 1.59078e-20)
(0.997716 -0.00149307 1.48715e-23)
(1.00677 0.0354709 5.61813e-21)
(1.00665 -0.00130987 4.19092e-22)
(0.999677 -0.000492593 -5.83585e-23)
(0.998997 -0.00211758 4.08052e-22)
(1.05079 0.00116711 -1.49208e-21)
(0.892471 0.00355379 5.03546e-22)
(1.00145 -0.00599271 5.42453e-23)
(1.01796 -0.047802 3.68408e-22)
(1.02048 0.0195283 -8.95102e-21)
(1.00002 -7.019e-06 -4.98233e-25)
(0.982151 -0.00870663 2.46276e-21)
(1.01922 -0.00832758 2.90189e-21)
(1.06716 -0.035875 2.76108e-21)
(1.0067 -0.000831294 2.34667e-21)
(0.998687 -0.00182124 7.56324e-23)
(0.987071 -0.0367508 9.07701e-23)
(0.998263 -0.00779632 -1.16347e-22)
(1.00003 -4.63497e-06 5.37803e-24)
(0.981838 -0.04339 -7.11862e-21)
(1.04296 0.069485 -4.16825e-21)
(1.01808 -0.028134 1.82277e-22)
(0.985861 -0.00481717 -1.88543e-21)
(1.00152 -0.000335217 -1.06823e-22)
(1.02311 0.0216572 1.18124e-20)
(0.999685 -0.000575917 -2.68852e-23)
(0.998968 -0.000599141 -8.469e-24)
(0.999705 -0.000161019 -4.07545e-23)
(0.999388 -0.00196621 -1.02309e-22)
(1.14774 0.0470306 5.95869e-21)
(1.02603 -0.0321619 2.14172e-21)
(1.00737 -0.0167915 2.58803e-22)
(0.984885 -0.00708978 -8.58983e-22)
(1.00004 -4.70687e-05 5.21708e-24)
(1.07169 -0.113276 4.71056e-21)
(1.18379 -0.0162419 1.76354e-22)
(1.07736 -0.122288 -2.28625e-21)
(0.998415 -0.0308394 -9.16563e-22)
(1.01175 -0.00813292 2.69397e-21)
(0.999825 -9.09999e-05 1.87167e-23)
(0.990486 -0.0108258 -1.07519e-21)
(0.96463 -0.0448387 -4.34049e-21)
(1.14579 0.0311729 3.7964e-22)
(1.00327 0.0472345 -3.91837e-22)
(0.999066 -0.0029716 8.23339e-23)
(0.951527 -0.0318752 2.52811e-21)
(0.996083 -0.00259646 -7.23606e-22)
(1.02992 -0.0292277 -3.64528e-22)
(1.08023 0.0540123 1.75423e-21)
(1.00038 -0.00012488 -8.81677e-23)
(0.999873 -0.000193165 -6.87937e-24)
(1.12577 0.0882741 1.85965e-21)
(1.14081 0.0143168 -9.72619e-22)
(1.01635 -0.0138227 1.01296e-21)
(0.997565 -0.001634 3.81319e-22)
(0.99827 -0.000417358 -3.78083e-23)
(0.971023 -0.0454085 1.05544e-21)
(0.999858 -0.00032677 -2.30165e-23)
(1.01619 -0.0297037 6.92387e-22)
(0.988685 -0.00136564 3.61015e-21)
(1.00063 0.0198054 -6.56764e-21)
(1.04634 0.0738345 -2.13155e-21)
(1.05991 -0.0621486 1.7506e-22)
(0.998539 -0.0675497 2.96743e-21)
(1.00532 -0.00142132 1.17585e-21)
(1.01311 -0.0221965 -1.065e-21)
(1.13309 -0.000543475 5.09349e-21)
(0.998347 -0.0752709 -1.8172e-21)
(1.0173 -0.040975 5.74835e-22)
(0.999999 -6.43016e-06 8.88809e-26)
(1.12099 -0.0139561 3.27262e-21)
(0.97765 -0.00277841 3.39417e-22)
(0.997841 -0.0837471 3.64261e-21)
(1.01755 -0.0259331 -1.78668e-21)
(0.961393 -0.014861 -7.8586e-22)
(0.999671 -0.00028679 -1.99141e-23)
(0.997514 -0.00122741 -1.69971e-22)
(1.0342 0.0341857 1.47598e-20)
(0.974308 -0.0104232 -1.32064e-21)
(0.999986 -1.56398e-06 8.30271e-25)
(0.997622 -0.000495847 -3.97514e-22)
(1.13934 -0.076927 -3.00666e-21)
(0.999862 -4.27532e-05 4.7434e-23)