/*--------------------------------*- C++ -*----------------------------------*\
  =========                 |
  \\      /  F ield         | OpenFOAM: The Open Source CFD Toolbox
   \\    /   O peration     | Website:  https://openfoam.org
    \\  /    A nd           | Version:  7
     \\/     M anipulation  |
\*---------------------------------------------------------------------------*/
FoamFile
{
    version     2.0;
    format      ascii;
    class       surfaceScalarField;
    location    "23";
    object      phi;
}
// * * * * * * * * * * * * * * * * * * * * * * * * * * * * * * * * * * * * * //

dimensions      [0 3 -1 0 0 0 0];

internalField   nonuniform List<scalar> 
11265
(
143.127
-528.299
385.172
-758.999
5.4021
753.597
427.661
-372.656
-55.0049
658.906
261.457
-920.363
1510.85
-1069.44
-441.409
1216.28
-1527.12
310.842
-30.898
469.087
-438.189
168.856
-842.126
673.27
962.075
-1610.8
648.729
-1765.94
1672.17
93.7724
-542.947
1759.23
-1140.78
1934.6
-793.814
607.79
181.228
-789.019
-25.4899
-1315.33
1340.82
221.145
-1987.09
1023.48
-382.494
-640.988
-206.483
349.61
485.313
190.64
-675.953
1155.29
-1313.46
158.166
-305.854
374.917
-69.0633
1000.86
-1316.88
316.023
1221.57
799.382
-2020.95
73.7222
-1641.44
1567.72
-491.426
-1161.84
1653.27
476.273
182.016
-658.289
-187.839
-340.459
498.027
1012.82
1648.84
-1807.68
158.833
-96.0414
-1689.39
1785.43
-1558.97
652.208
906.759
-307.622
653.432
-345.81
-190.756
-122.465
313.221
1285.64
-1211.92
355.229
-1407.39
1052.16
-1754.3
1754.3
101.417
1534.09
-1635.5
-1079.4
-479.564
652.814
-683.712
-384.802
941.669
-556.867
1331.88
-1317.27
-14.6111
-1100.41
715.608
626.617
396.865
-382.127
-39.9127
422.04
-471.044
762.598
-291.554
-1618.45
1618.45
1253.57
-1437.88
184.308
-488.67
1710.24
1255.18
-313.513
1660.74
-1161.24
-499.497
79.5742
-385.428
2065.58
-1135.23
-930.347
1815.05
-166.212
455.217
156.14
-611.358
-459.044
970.311
-511.267
-1172.24
1273.66
-568.119
970.763
-402.644
400.648
754.644
661.292
-492.436
-437.817
594.637
-156.82
1190.66
-835.433
2308.2
-1080.67
-1227.53
1163.8
-2009.06
845.255
-1603.96
1578.47
440.672
-1581.45
-759.034
1250.65
-491.617
-672.507
364.885
1661.46
-699.383
-1106.93
-870.896
1977.82
716.454
-363.214
-353.24
689.877
565.305
-258.211
1511.78
114.5
-318.375
203.875
-284.842
761.115
-334.68
565.005
-230.325
-324.537
809.85
-318.382
-148.528
466.91
318.327
109.333
1460.36
-459.502
-986.009
473.871
512.138
278.294
90.2422
-368.536
949.225
-341.434
-1705.58
628.569
1077.01
12.4438
-857.288
844.844
-280.554
595.406
-314.852
157.33
-1093.89
936.564
1051.4
-1066.97
15.577
373.06
518.54
-891.599
-245.429
700.646
-1103.61
-482.234
1585.84
-677.938
950.788
-272.85
1354.88
-1450.92
-619.006
234.348
384.659
-470.197
-1011.54
1481.74
-538.667
-793.916
1332.58
576.089
-996.211
420.122
-265.187
-316.706
581.894
406.696
-292.196
-1036.89
577.843
955.465
-798.135
-110.348
943.927
-833.579
-209.771
418.308
-208.537
-644.136
-341.872
-386.739
962.828
1856.37
-1856.37
-498.945
-120.061
-954.252
1571.63
-617.375
458.246
-892.314
434.068
-923.567
355.448
-941.908
-1058.08
-1489.12
342.136
1146.99
-275.049
933.955
-309.842
608.846
-299.004
-1941.9
999.994
-1141.13
-347.996
561.158
-1515.41
1728.53
-1725.69
-2.83457
194.11
-583.738
389.627
-1468.53
980.385
488.149
287.178
213.474
-500.652
309.802
-644.483
241.865
-417.949
176.083
2019.48
-862.298
-1157.18
-537.037
154.91
616.463
835.692
-1452.16
-184.169
426.034
431.351
876.69
-1308.04
-907.576
393.037
514.539
-1046.67
1447.32
-1068.65
309.616
751.545
-98.1137
531.701
-326.479
-205.222
1010.24
-536.366
593.357
-1403.85
810.491
-1342.27
238.666
-546.538
265.985
-1201.56
926.516
1941.06
-994.351
-946.706
276.801
1579.57
-2095.05
895.406
1199.65
364.836
-31.3426
-333.493
-223.806
482.134
-258.329
-110.784
-377.337
488.121
-466.52
148.138
341.199
-131.785
590.031
414.714
382.218
-796.931
-2043.62
1123.29
920.321
461.153
-531.778
70.6252
221.782
-363.372
141.591
996.714
1022.76
1787.24
-253.151
705.572
-471.225
796.612
-1389.69
593.074
337.155
379.299
1055.65
-1043.21
-487.639
-262.626
750.265
477.757
-136.165
-341.592
797.13
-615.901
540.409
-733.588
193.179
503.331
1157.41
-1239.99
701.327
1037.82
-1529.24
-3.12832
-1439.43
1442.56
325.772
824.438
-1150.21
623.019
269.955
-892.973
-2272.03
1157.51
1114.52
-1109.6
-1162.44
170.172
370.238
958.746
-632.975
878.955
-898.7
19.7447
-2099.38
992.455
-225.087
-189.543
414.63
-41.7947
1770.32
-823.45
64.4515
-1028.5
-1066.55
-229.519
451.3
-656.7
157.754
-273.108
-455.093
728.2
1104.01
-1574.21
782.93
-1374.43
591.5
707.96
-446.503
1947.86
-1444.53
-378.285
-1376.02
58.0335
411.053
-522.547
527.949
12.1778
-565.027
552.849
569.471
-282.293
-604.351
279.376
324.975
778.412
-363.699
33.9642
330.872
1188.47
-1191.6
177.603
229.093
426.854
-699.962
619.437
-1006.18
-2026.73
2026.73
-268.922
-464.593
733.515
699.14
405.868
-1105.01
579.6
171.945
400.544
377.868
-2199.75
1328.86
-926.491
-679.19
1605.68
-484.023
-717.542
-276.011
583.179
-307.168
843.354
-223.773
-619.581
-437.383
631.493
364.674
-674.516
-353.464
-113.69
467.154
-1332.63
-475.05
648.168
-1132.19
-374.146
-1244.31
844.336
1463.87
304.075
-909.768
605.694
966.479
-339.862
1391.38
-798.025
444.387
-266.783
-327.976
-887.831
591.199
296.632
-355.714
-532.117
306.828
-417.612
-182.72
-159.567
342.286
-392.775
1091.91
434.927
-244.287
-393.94
1353.08
-166.44
-1186.64
-458.016
267.231
190.785
238.271
282.693
-520.964
-7.96036
-725.627
592.117
-1729.03
1136.91
1482.48
-866.012
-1053.5
-415.03
-1057.06
573.605
483.451
1388.3
-407.913
929.161
-1411.39
-176.788
-177.182
353.97
-469.066
580.496
-1627.17
427.929
903.952
287.644
342.23
-629.874
568.058
1186.24
1103.87
-714.147
-389.727
405.629
-218.366
-187.263
-1419.45
445.521
738.003
-1183.52
1473.35
-544.188
-506.419
953.833
-447.415
426.151
1186.15
-1612.3
47.3784
-725.316
-145.291
423.585
191.145
-381.9
545.037
465.2
-586.205
35.2142
550.99
1024.53
-1307.66
283.132
662.223
-261.679
468.296
-1447.24
978.946
390.188
1686.89
-523.09
886.114
1054.94
-661.25
-1684.63
758.14
560.042
399.51
-959.552
454.612
78.83
1750.01
-1828.84
1443.71
-379.49
-1064.22
1699.16
-1740.95
-367.178
-515.948
714.54
-198.592
-502.592
183.903
293.854
-373.193
-1225.98
214.439
-764.63
-639.218
-623.496
994.507
-371.011
-652.919
642.879
10.0397
654.981
-923.62
268.639
-699.67
345.312
354.359
-648.373
-719.163
357.652
361.511
-932.277
1400.57
-415.809
885.616
-469.807
-2205.31
5.55754
180.195
-536.041
355.846
139.478
1213.6
-62.2243
-594.475
159.129
-596.946
1487.14
-704.213
373.692
-462.5
88.8072
-564.628
564.628
1223.02
395.428
1777.99
-1228.7
589.379
639.323
849.175
-52.0458
1291.73
773.85
-540.302
1336.91
294.548
300.858
272.889
-788.836
207.623
-678.667
230.745
-443.938
213.194
-263.004
598.064
-335.06
109.831
-372.835
-591.779
-564.616
1156.4
-406.816
527.718
-120.901
-1192.15
2032.04
-839.886
1289.55
-330.801
-401.367
136.179
-1984.59
822.751
1541.85
-856.077
-685.775
1986.97
-877.442
-1109.53
713.75
575.798
-240.684
471.428
-687.56
1162.9
-475.337
-769.912
1201.26
551.661
924.641
-1725.18
800.54
-583.546
-45.7813
629.328
265.896
265.805
417.954
-84.5198
-333.435
896.707
-83.4981
-813.208
911.166
-567.257
-343.909
1576.19
-472.178
889.912
-1626.91
736.999
1068.47
879.388
749.119
-442.977
-306.142
-1058.98
-258.293
562.011
577.322
-1139.33
-510.249
490.828
19.4213
577.173
-344.802
-232.372
-983.095
567.286
595.335
887.141
-441.816
1096.8
1412.72
-780.191
-632.531
395.812
-924.589
528.777
-1030.29
386.15
560.927
-1067.35
413.435
-497.703
84.2673
444.365
318.233
-515.903
-48.7248
-794.252
-878.7
1672.95
194.11
211.52
-239.693
409.864
0.652847
-564.343
563.69
496.691
865.419
-1362.11
-494.778
312.058
985.64
-88.9336
836.145
-1064.78
228.636
414.018
846.079
-1386.38
-447.19
829.408
1978.5
-1284.83
-693.67
269.923
609.032
255.795
795.602
87.1035
-976.59
889.487
1673.74
-1089.03
-584.712
-137.876
1887.89
-1866.07
-160.654
483.242
-621.418
138.176
-1013.9
526.789
487.113
-1730.47
538.318
-955.766
845.419
392.276
202.361
574.239
-270.164
-421.085
710.653
255.825
42.5057
722.336
-764.841
-1137.7
-890.404
2028.11
-553.807
1110.25
-556.439
-469.041
-333.205
108.118
-1655.09
860.84
-848.608
-619.084
1467.69
-331.15
-295.051
626.201
357.024
-671.63
314.605
239.959
-603.658
305.577
202.622
-508.199
361.136
-637.147
644.388
-287.364
315.016
-463.543
684.564
446.175
-207.904
-418.137
-301.026
1221.46
-0.996954
-1220.46
1039.59
-420.152
560
410.763
-1782.35
869.82
912.532
490.134
549.103
-1039.24
-534.688
203.538
-263.211
1181.06
-917.847
-1590.87
1212.58
504.661
-1096.44
385.641
-11.949
461.404
293.448
-754.853
372.068
-617.497
-32.5068
756.415
-723.908
-525.735
795.69
388.619
322.116
527.06
653.405
101.861
-445.104
343.243
1058.72
-645.045
-413.673
494.024
-1664.27
1170.25
-1140.4
1753.24
-612.842
1715.84
-1123.72
-334.743
614.119
-1189.52
1276.62
425.052
-796.16
1604.19
-808.029
-244.494
-213.522
-907.485
1470.41
1813.07
-611.12
-1201.95
-405.028
681.356
-1304.85
-124.724
-68.966
486.92
-688.736
-354.178
-1236.69
-220.908
460.867
903.364
-558.433
181.097
-1674.65
-71.222
1745.87
-1072.93
519.125
568.256
-1182.15
613.89
901.044
912.03
630.684
619.968
699.59
254.243
-1154.79
467.233
-398.551
410.729
620.282
-514.951
245.871
-731.327
485.456
722.045
-384.891
-304.457
181.991
-587.375
242.787
344.588
-887.483
-739.428
1087.67
-2145.75
398.906
-683.748
-342.893
-724.08
832.204
580.517
-342.832
302.919
407.657
246.82
628.765
-875.585
541.089
621.808
-507.746
154.282
375.318
-644.24
-1053.29
-842.822
1896.12
-1798.55
157.102
1107.05
-1370.26
1176.13
-719.311
-456.822
-503.794
1349.87
-1495.51
627.894
867.618
-286.58
-210.233
496.812
1428.41
558.568
328.531
-442.221
-483.747
-567.432
1051.18
-418.394
598.588
1582.51
-1129.56
-452.949
-806.432
341.84
654.781
403.937
-1623.42
416.169
1207.26
-192.461
498.038
797.777
784.732
174.772
-681.538
506.765
206.784
211.524
-291.334
-109.52
400.853
474.89
52.0584
-526.948
-1646.78
593.278
-1610.6
1677.43
-66.8239
11.5984
-1622.2
1069.57
784.48
-323.076
-826.153
-204.133
-1134.57
-239.86
-312.17
684.238
-1812.52
-629.736
1207.06
212.756
757.555
-1330.46
-678.597
-465.582
653.3
-365.656
-1013.28
1350.77
-1932.89
582.114
646.445
1288.15
484.984
-2.84974
716.221
706.241
-1422.46
-638.892
336.343
302.549
439.584
-100.245
-339.338
149.513
282.303
160.281
-442.584
-585.841
1145.88
458.591
-631.15
-461.513
-401.923
863.436
-323.912
147.124
-457.823
165.627
-304.682
-709.221
547.031
-107.448
-571.464
967.276
577.647
-269.289
-308.359
455.387
-779.924
-644.434
445.018
-1129.4
-839.7
1181.84
-569.77
446.383
303.883
-482.458
119.244
1028.72
-315.842
592.382
-276.54
-509.041
1578.61
-708.862
264.457
369.657
-634.113
200.934
528.752
-21.243
-507.509
-254.188
-203.635
1005.65
1108.91
564.823
-875.46
936.644
-61.1844
-455.084
168.504
-766.541
311.449
-594.165
366.204
355.841
835.347
-1253.74
418.395
777.299
-809.806
-948.928
-550.384
1499.31
-167.701
509.931
-527.798
201.319
1309.93
774.082
-599.309
1335.13
-686.965
487.711
-660.665
-407.173
-423.11
-378.662
801.772
502.445
-843.879
-479.812
75.1368
404.676
-322.676
572.432
728.943
-330.037
-244.22
-175.507
419.727
-488.446
143.785
344.661
1458.55
81.3236
-1539.87
-751.838
1347.17
-1144.76
-466.041
561.501
-191.844
1150.88
-373.577
1083.48
492.71
690.709
-417.82
-885.015
-522.375
-1328.42
-25.6245
985.043
-959.418
612.013
347.229
-959.242
-319.622
-217.415
-683.122
405.525
1621.2
-194.42
367.777
346.061
-713.837
-1839.78
-2106.69
1519.14
587.543
-2038.84
349.45
378.267
546.751
-925.019
-460.329
1020.33
-408.658
-682.017
1090.67
-2030.54
1391.21
639.328
608.899
-1017.56
23.5173
389.918
386.74
198.141
246.245
361.051
987.167
893.981
680.001
-325.476
-354.524
-293.534
621.628
-328.093
573.18
530.695
565.201
514.831
-1080.03
-796.189
-699.323
752.319
398.558
-415.76
730.365
-1193.41
1609.58
432.005
-1114.02
-323.665
526.287
-1388.62
894.196
494.422
-722.787
-353.739
-772.083
333.094
438.989
447.139
718.18
-1165.32
1069.92
-579.789
-403.833
649.046
-245.214
253.488
324.159
-467.952
-432.196
900.148
-235.881
569.05
-953.022
383.972
-459.563
600.599
-1681.27
423.816
670.889
-1094.71
516.697
92.1494
113.409
-2212.79
557.43
-111.047
1444.22
1777.09
-217.552
-1559.54
-438.458
1789.23
-1987.03
1194.5
792.531
402.826
346.293
-40.1506
872.355
-1283.28
718.667
-869.875
-822.627
797.003
306.469
54.1204
-360.589
227.863
182.669
-410.532
1554.48
-838.258
-1530.94
-325.432
458.042
-202.44
-255.602
394.433
366.682
245.978
407.321
-9.37621
1001.96
-992.585
416.987
278.967
-695.954
-734.082
1817.33
-1083.25
-342.942
737.375
-1221.07
-414.437
-915.496
483.299
602.801
-810.595
207.794
761.602
-380.289
-381.313
-434.88
-440.58
451.103
1102.02
1237.56
-669.303
801.103
-345.716
405.406
328.109
-249.837
-212.663
-233.314
623.502
408.128
-847.681
439.552
243.587
362.352
-605.939
-422.441
830.57
754.48
-1147.25
899.248
-63.9009
-487.784
273.07
782.58
-95.9627
1384.11
1890.5
-68.5296
335.761
-345.633
447.494
-1086.44
1077.07
662.965
376.506
385.096
67.1507
390.891
256.087
497.51
-371.494
-267.398
-563.314
-89.6052
-356.258
366.222
-9.96404
-258.1
-288.439
1010.99
-1540.71
529.722
-177.739
-194.916
-420.615
699.582
-1635.86
1591.02
-963.127
285.515
-692.688
584.319
1224.42
-1808.74
607.419
983.602
307.585
-1119.9
698.811
-315.816
-314.058
1380.29
-1446.5
828.699
617.803
428.445
-614.408
185.963
-356.763
461.64
-104.877
403.732
71.1581
1724.02
459.685
-252.901
557.636
-1704.79
1147.16
-94.3595
408.382
343.213
336.788
-448.6
-615.504
1064.1
415.118
-862.308
-640.965
902.825
570.525
-473.908
-225.762
-438.568
-409.113
-307.342
-827.228
1821.11
-1821.11
-103.214
-1596.32
1699.53
293.446
283.727
-917.186
-555.404
1472.59
-408.231
973.432
-604.528
-1042.26
706.656
384.332
-1090.99
477.183
-162.167
573.065
1220.35
-1793.41
-1043.62
2114.64
-1071.01
-375.269
-297.238
-504.857
846.697
-1753.16
1602.1
151.063
1753.16
-1607.01
-146.154
-245.475
524.394
-278.919
-537.291
1620.77
1568.71
-1983.15
1092.81
-337.118
-226.105
563.223
231.116
-554.781
-725.017
309.258
1341.82
636.683
580.707
483.132
-1063.84
276.041
414.668
875.381
500.11
-1375.49
534.003
-1017.75
1574.96
-563.968
-786.509
-377.931
-147.161
525.092
-490.08
1208.26
-740.261
332.878
367.768
360.075
245.519
-605.594
591.191
831.887
-603.25
256.073
680.571
-473.908
-371.482
-202.557
574.038
1168.53
-688.6
609.702
466.226
-1075.93
-1286.32
1286.32
-386.001
762.507
-283.606
-476.732
760.337
489.308
442.806
-932.114
389.98
-673.585
610.23
-868.694
258.464
-367.43
-493.702
1074.41
-661.237
-710.617
1371.85
-366.7
935.75
-1552.72
675.275
-6.46353
-363.963
370.426
-546.815
704.57
280.147
317.917
170.137
307.046
-561.894
246.078
1869.7
-1965.66
252.638
-690.021
448.909
-820.079
371.169
-912.445
1427.95
-515.505
-429.975
-485.52
600.755
1124.19
-1724.95
-715.402
340.133
-461.179
1034.36
-785.782
1041.85
-378.498
-628.278
-508.018
715.641
539.949
-357.933
904.426
-300.616
-187.83
1599.02
-1816.58
-334.876
-618.146
-332.615
476.399
269.1
-634.755
-158.931
1066.43
-793.363
206.665
-318.201
-274.138
592.339
388.261
-876.28
488.02
-486.159
-450.871
-909.768
-352.746
542.758
-190.012
-436.955
-424.162
-323.233
-184.966
-386.471
631.991
-466.558
794.667
-1072.65
624.049
-1408.29
559.677
-28.1467
-1836.27
1864.41
569.957
-449.817
1223.52
-704.4
289.36
-289.36
671.345
-437.797
1043.39
-1647.92
-1158.73
-947.952
292.231
329.397
889.736
714.453
-504.2
-287.476
791.676
1658.26
-1686.4
-434.222
347.042
222.428
1135.06
-525.356
-943.335
1550.48
-607.145
444.154
-246.013
381.256
409.248
-790.504
532.56
468.835
-1001.39
-331.821
664.699
-37.9196
1907.62
1604.55
992.759
-1696.97
727.006
-1177.04
450.032
-492.479
1367.86
837.507
-1341.3
-581.744
244.625
797.54
-398.031
551.092
-1188.48
637.388
-637.647
-1215.53
-695.663
1911.2
-184.831
528.096
-343.265
-120.142
290.338
-475.169
328.357
369.882
-698.238
-1484.46
756.377
728.082
884.064
-1434.45
824.959
-431.922
218.421
-363.712
-610.83
239.348
-667.26
-721.358
698.516
506.406
-1204.92
392.579
-204.561
-188.018
555.754
-958.397
-571.291
-451.114
762.563
-831.305
-1155.72
-1437.97
499.666
938.301
30.1187
-651.378
310.376
341.002
-1315.29
1045.55
269.735
-616.41
-456.239
-665.813
921.608
401.16
-202.568
-198.593
508.252
980.615
-1488.87
975.366
-562.43
166.512
395.918
-429.339
662.255
-409.617
-504.434
171.819
234.301
-1519.13
527.87
542.053
-759.69
212.875
153.799
-454.415
365.718
-816.588
1954.16
-1195.39
-758.772
445.322
-673.858
228.536
323.565
320.918
121.287
-442.205
-570.403
194.189
265.496
-691.745
1374.33
-682.583
424.086
476.111
-1198.9
266.295
1866.78
-1013.59
-853.186
784.755
-503.598
150.852
1402.36
-975.171
-427.19
330.018
-767.815
-616.527
1725.44
610.603
626.956
318.093
-11.6243
258.422
-1138.41
1725.72
-587.307
-1763.53
820.195
1762
-1692.12
-69.8778
-654.102
255.551
601.239
-709.19
201.172
1402.7
-565.198
387.197
442.21
-1858.61
1420.15
520.601
-449.279
-71.3224
200.431
-523.664
-320.565
-148.475
-352.417
695.63
-617.444
239.513
611.462
549.15
-1160.61
1113.62
-1947.5
833.888
144.286
322.867
-1699.22
1661.31
310.637
-728.457
-164.871
383.292
756.482
678.644
-1435.13
1080.09
-1081.08
523.937
-1103.73
-630.352
252.865
377.487
514.783
-271.995
-616.408
-1031.51
289.644
-713.807
-912.321
171.333
164.695
227.884
387.418
286.618
-674.036
-631.053
-834.064
-978.458
487.766
-1058.17
-280.623
471.408
532.726
649.11
-279.352
-122.014
-440.9
748.485
262.575
-1199.04
567.991
1309.29
-552.805
438.286
-1009.58
-386.8
117.942
402.66
1023.32
551.634
-1719.71
1616.5
1642
-579.615
-1062.38
1903.91
-1892.56
-11.3567
228.037
-573.67
-338.986
545.651
-770.441
-318.105
-335.997
1025.59
700.803
-1510.55
809.744
311.298
-26.1884
1625.21
-1095.71
407.115
-1257.14
470.628
-60.7104
1519.26
1197.37
-470.36
-488.258
-74.1725
-233.345
736.032
-1951.57
-710.326
348.602
-531.182
182.581
191.217
-507.059
1139.92
671.569
-1811.49
-585.978
136.699
941.954
-1497.36
-210.512
678.872
-468.36
878.959
1121.04
-739.009
1349.61
635.332
-538.534
-96.7979
-344.266
1172.97
1050.57
-1980.83
930.259
-1172.04
542.299
1488.79
-585.963
-383.692
-124.054
-1241.67
572.368
1166.71
-89.7063
946.114
775.633
-1721.75
-209.832
578.565
-1541.75
963.184
487.003
916.606
-1403.61
621.195
585.863
386.279
-1106.64
590.833
1106.83
1215.73
-452.292
-763.439
-1186.2
-1754.94
-6.19902
-1713.51
-178.216
-436.192
1607.89
-629.531
-978.362
-490.855
1121.54
-1318.19
635.663
682.527
-1362.17
1443.49
-1330.69
591.678
1520.52
-402.721
-546.269
162.577
-1492.06
226.251
176.38
202.445
432.887
457.915
394.105
-852.02
506.367
-938.99
900.664
-1444.85
-691.89
212.07
479.82
-1041.44
455.6
-474.645
861.842
694.781
29.383
-504.694
161.428
-886.566
-1318.74
-715.378
349.533
365.845
403.358
-723.11
319.752
-478.743
-189.383
-709.316
720.41
1539.72
-593.602
817.323
737.155
1344.76
-844.654
-971.238
-570.511
-797.052
428.171
368.881
-1036.56
-642.613
303.922
338.691
-1433.69
-296.78
-790.602
397.853
392.75
-641.092
410.721
230.371
-666.874
257.258
412.799
487.349
389.931
440.639
478.8
384.636
596.478
-969.671
681.321
464.562
453.389
356.438
-809.827
1630.76
-1079.88
-550.876
-504.599
-287.166
-1028.12
453.949
347.823
409.698
593.95
-1003.65
-1381.23
751.696
-532.305
1146.19
345.317
-63.0135
412.311
-865.421
453.109
-1898.85
302.537
441.195
-726.133
284.938
-186.696
404.815
-218.118
-661.668
307.065
354.603
-674.278
319.754
370.974
391.534
612.631
-1020.86
752.986
662.278
-1415.26
438.814
625.289
339.394
392.812
-732.205
408.95
328.425
615.337
693.173
408.844
604.23
-1023.73
419.5
-1678.6
1181.38
497.214
1696.59
-539.177
620.689
-1147.33
526.638
-642.579
347.528
437.431
-935.108
497.677
771.969
-478.521
351.149
344.481
580.525
-915.401
651.708
-1253.15
601.444
389.123
734.632
-1224.71
769.431
509.652
-1279.08
488.091
399.535
-887.626
-501.688
-936.279
-301.114
629.471
352.611
541.706
-894.318
332.599
332.1
-502.183
1944.74
436.893
-847.007
410.113
-917.796
-807.385
-748.652
367.339
-1217.88
432.096
-1735.57
1607.01
128.564
1747.11
-1602.1
-145.014
-784.283
-593.121
265.701
327.42
-1762
1983.15
538.611
791.433
-1330.04
440.129
716.266
690.237
385.636
-1075.87
-49.7475
1617.15
-593.824
378.496
845.028
-649.279
326.189
323.089
-378.59
-297.576
551.064
-221.607
435.081
280.489
-666.174
385.685
264.626
-579.479
-282.513
442.612
-1033.44
590.829
538.051
1092.71
366.052
596.776
311.383
352.165
-663.548
1628.89
-928.089
1692
-1520.65
-171.35
-328.495
-823.259
414.147
857.465
-1067.98
-607.241
279.147
-1090.58
1628.64
-1591.75
-77.3293
1669.08
-341.54
-350.383
-370.356
537.544
597.514
-503.045
-28.7332
-549.898
506.854
-283.855
-222.999
1753.59
-1302.48
-625.17
298.956
326.214
400.493
357.3
734.614
-295.773
-399.119
-1747.11
1686.4
459.616
-1100.91
641.298
-42.911
1659.41
571.211
476.4
-1047.61
104.124
1144.78
-1452.12
-12.5865
-1886.27
227.935
-598.836
307.553
291.283
-955.334
612.44
-898.271
468.295
-1128.54
673.381
455.162
380.139
256.27
-760.47
-333.857
1217.01
886.696
699.144
-1182.93
456.163
726.766
494.43
700.699
-1195.13
-388.677
-248.067
412.762
-960.645
438.645
522
21.2447
-1879.85
1079.91
-469.68
-496.59
558.27
-1378.23
819.956
-425.692
796.861
-405.507
499.725
-713.685
1719.33
413.043
-185.159
215.696
-170.82
-246.262
417.082
1895.33
-504.117
-1695.51
1051.45
-601.38
303.804
-1013.76
553.432
-313.184
544.329
905.245
-1449.57
-1103.72
437.903
-20.8358
-1944.82
1714.28
-663.715
-540.362
460.771
-1190.49
729.723
191.074
210.086
-281.511
770.239
700.169
838.025
818.077
-461.638
1084.91
-489.822
478.997
-193.594
-285.403
-1923.37
-713.98
-318.346
-642.959
-6.61494
649.573
467.365
-273.176
564.634
1064.26
-805.815
924.78
1244.28
-425.407
-169.281
-247.593
416.874
956.379
-888.488
-320.074
-1067.85
611.612
1557.85
-801.476
537.695
934.894
-391.868
734.653
-342.785
1130.37
-275.897
370.686
1349.7
-705.123
-219.466
448.315
-1198.62
750.306
-984.252
-138.635
1122.89
441.637
-955.689
514.052
151.298
732.469
483.262
743.801
-115.036
852.95
-425.869
1182.47
-796.839
552.193
-1465.48
913.289
-1216.65
1800.97
-431.71
-1510.19
879.617
-1401.99
-306.223
-448.63
1457.22
-1523.99
784.563
1491.48
202.04
276.958
-350.634
-1735.57
-287.098
-1014.84
1579.47
-1770.17
1770.17
1568.71
-1004.49
-634.185
-333.128
368.422
605.01
-412.03
-359.363
-1389.82
897.345
1125.13
600.587
1202.72
1789.48
-1216.42
-613.181
273.771
1659.04
-1916.52
257.483
814.686
-1267.64
1545.23
-561.632
779.731
330.516
-345.433
554.94
794.933
655.833
1372.27
-255.092
-445.161
-354.35
496.971
-340.831
471.827
736.433
-291.999
-150.207
-328.299
565.481
-237.181
27.714
-372.516
1107.44
-1720.28
-452.008
-486.57
-564.181
863.534
694.319
-1596.49
904.745
-451.809
-622.886
-514.088
1252.09
343.553
1723.72
-1702.48
-1658.26
1892.56
-1560.8
840.249
720.548
-385.657
-1796.45
917.75
583.293
819.412
-388.189
1794.34
-680.727
-449.314
696.883
426.851
-1123.73
-1099.74
444.141
753.224
-1617.17
473.217
901.11
177.146
-402.972
225.825
-1601.13
-385.96
-460.983
990.271
-673.68
1442.94
-975.55
1854.51
242.224
-549.994
497.581
-295.541
474.326
893.534
543.159
977.36
-462.968
-427.964
574.022
883.199
-1392.7
-40.9901
1574.04
-836.883
519.958
971.525
-1475.84
-1115.9
1777.06
-1243.16
-533.896
1206.14
-319.072
-887.066
-192.193
455.336
-263.143
-457.424
-250.818
431.996
-181.178
146.66
-394.727
1735.04
-1741.23
-457.178
-530.859
-903.589
445.094
-206.902
-238.192
634.473
-480.654
-397.515
-309.725
707.24
-947.221
415.104
-1167.26
676.409
419.37
-636.675
-439.502
1576.99
-862.534
530.189
-458.008
-570.772
-462.669
363.931
-353.595
-10.3365
-1111.01
406.608
-664.797
-1033.64
1698.44
-603.155
-1423.64
713.027
562.221
-1596.27
1034.05
-395.417
-481.247
146.551
553.039
-1258.48
744.391
539.236
1006
-2133.18
999.987
1133.19
-352.331
411.829
-386.677
-25.1525
1478.05
-368.238
449.557
1187.25
582.283
906.505
567.617
527.583
-1095.2
166.5
-438.813
-1692.12
252.205
1127.56
-615.961
518.519
1013.73
-1532.25
1092.84
-1643.72
198.951
700.296
547.072
-867.145
-1086.47
-171.532
428.752
-257.22
-586.912
-427.188
-636.837
-627.869
346.358
-1618.91
939.717
-476.865
215.771
-400.93
535.428
-307.493
-610.042
1197.17
-1291.85
936.499
355.349
-1024.45
-360.407
-758.319
-825.783
1689.32
-477.022
1795.32
-1585.49
-209.824
-1556.63
1018.71
537.919
-726.512
-259.969
442.717
-182.747
-593.606
383.874
274.273
-658.147
-524.013
988.202
630.555
-351.407
-1620.27
1050.5
571.777
1103.53
-1675.31
-411.461
-292.671
-368.997
-745.563
-490.718
-331.018
501.154
1558
-995.777
-775.104
1497.46
660.366
-313.324
725.882
1152.36
-1878.24
276.674
302.067
-487.246
-1932.49
1720.06
212.425
738.764
-474.745
-264.019
531.84
1060.82
-1592.66
363.931
-1726.1
-233.211
1752.35
-1580.69
1073.77
506.92
-1727.65
1.54734
-521.748
411.829
1699.22
-1720.06
939.652
624.65
-1564.3
382.723
-219.246
-163.477
-415.624
-251.251
67.6701
94.9682
-354.937
-430.342
-438.352
-407.619
220.923
1510.23
378.91
-194.927
-446.165
463.087
-197.591
321.663
1510.76
988.81
-170.904
-817.906
-1104.1
1704.85
-1728.81
1064.02
-707.219
-1021.59
-1265.08
1844.99
-579.906
1155.07
-1771.17
616.102
271.184
-878.098
1675.75
43.4418
-1719.19
-491.171
-1083.04
-1735.04
-982.056
554.092
1019.59
590.236
1133.02
-1723.26
276.279
-468.123
704.096
-384.343
385.474
924.828
680.853
-372.815
-650.915
582.903
1072.54
-1655.45
-400.587
-368.701
769.288
396.196
-1661.31
1520.65
140.655
583.026
-1044.2
544.75
1083.89
-1555.67
994.041
-238.076
229.527
316.124
1903.91
418.704
-68.955
995.858
722.752
-1718.61
-697.223
1085.33
-1557.51
166.264
-571.294
197.531
265.556
-664.556
-553.322
582.536
1034.61
-711.102
-253.473
-1368.62
675.496
693.127
-415.439
746.786
92.5047
-839.291
561.81
-137.163
1557.31
-216.545
266.568
-772.296
-1932.49
1664.62
1025.55
345.312
289.943
482.026
-930.058
-993.316
-1767.26
636.739
1693.77
508.445
-474.372
1210.81
1087.13
-424.956
1029.97
-978.502
492.535
485.967
700.313
1047.94
-1748.25
484.651
482.625
-1493.99
-746.799
32.6517
780.371
-413.032
-881.633
385.043
-539.026
-802.275
605.694
-577.415
1397.37
1055.15
194.281
234.471
-550.631
1618.52
-772.97
1525.96
-1727.84
575.263
1152.57
543.396
-883.258
-1732.83
1916.52
-183.692
1721.74
182.159
-544.185
367.38
-272.412
-481.458
1211.18
568.272
1128.31
-491.276
429.782
858.251
-461.386
-772.07
425.827
346.242
1418.95
1089.6
-518.227
1422.97
-510.609
-533.348
1043.96
-602.767
500.107
-1219.42
1692
1839.58
-687.214
1585.74
-646.092
-1241.29
717.272
-562.548
202.354
-391.897
454.811
-243.287
-519.752
-1246.71
1870.94
-624.237
1173.45
-552.762
1120.28
-1659.45
1696.28
-573.948
-545.882
-549.823
1720.07
-317.008
-688.055
-473.338
1223.64
-1684.89
-1860.11
613.399
331.27
-950.851
168.853
213.726
-1719.03
1204.15
514.878
1162.85
558.889
-511.857
-465.398
1192.16
178.679
226.135
588.446
1251.13
-539.178
-1238.58
1777.76
-1025.38
999.989
866.787
-204.107
-1659.04
1702.48
-510.101
1411.21
-1732.83
-342.232
-3.45221
345.684
-263.538
584.897
-321.358
100.327
490.872
781.413
-378.056
1257.53
1270.83
-413.362
852.185
-438.039
1817.47
-662.402
1586.56
-1723.72
-412.796
-759.85
334.273
425.577
-559.963
-563.352
79.7366
-1138.71
-985.456
-669.827
1655.28
-943.705
-1189.47
207.037
-433.143
-648.211
705.652
1167.45
650.025
1410.33
-590.919
1636.74
1318.1
-573.712
-492.959
197.418
-503.291
1396.82
1240.14
-564.648
-999.986
893.047
55.2674
-948.314
603.436
-506.15
1403.49
1495.08
-588.571
-366.325
366.325
-589.456
1623.5
1239.48
-486.257
1134.15
-66.1996
1851.63
-393.873
1489.48
-588.821
-507.683
1347.93
-652.355
1218.66
-566.301
1554.81
-591.63
755.502
570.674
-1326.18
-668.864
261.621
512.461
600.288
-1957.3
-990.96
1586.56
369.101
-369.101
-69.1045
387.978
436.982
347.801
55.9309
-318.075
924.282
-535.159
-426.319
814.297
-243.388
620.875
-428.267
1551.56
-444.343
-884.075
187.201
226.5
-413.701
601.17
1250.77
-1851.94
927.087
-458.791
-353.595
126.151
-1943.02
1816.87
-450.725
183.942
1181.23
-440.469
-740.761
-299.928
-581.704
-492.902
-386.677
-480.688
257.689
1158.33
-560.819
230.534
-381.875
151.341
-22.7456
-107.679
1376.02
-1268.34
34.5823
-597.896
-586.415
-451.801
451.801
-1262.35
1985.1
-1344.37
-207.054
-1824.63
239.139
-1025.75
-974.243
-185.913
-1638
707.94
1229.32
-1924.98
369.111
312.576
-681.688
-1850.02
1234.27
615.745
-561.296
561.296
-959.145
-39.9722
-1866.07
-558.152
1650.86
-677.118
1636.18
-601.57
-180.199
-1706.07
-584.927
-469.907
-594.812
-465.966
465.966
-1537.81
194.527
1343.28
173.311
225.842
-399.153
502.046
486.764
997.057
-475.057
1751.3
768.224
-422.522
397.37
521.096
1702.06
-594.623
-552.969
1636.85
471.301
1812.76
-645.311
-1804.05
-1938.07
-646.98
-478.323
478.323
-573.665
219.315
-703.894
1019.44
-466.008
-1072.72
-285.099
1579.57
1852.3
1635.35
-1635.35
-290.977
738.729
1761.5
595.79
1275.15
173.495
209.229
590.886
595.037
1603.51
-1603.51
222.244
-353.998
-435.106
459.837
951.489
-458.954
-639.543
-1131
1706.26
280.172
-1660.54
618.284
-289.156
471.316
1744.65
-592.074
-215.595
-442.932
378.316
728.518
1738.57
-613.44
-511.771
-781.026
1960.54
-870.455
-1090.08
1642.77
-705.507
1223.97
-1824.95
600.978
356.524
-906.518
-185.715
-105.342
1098.25
-486.639
125.08
627.115
-1658.62
436.15
596.684
-1804.05
-583.28
1787.43
884.121
-1162.91
1760.49
-597.577
1783.83
-575.533
-1208.3
431.813
928.986
-1741.23
924.713
-1486.36
250.772
1235.59
-830.929
-1254.23
-379.199
75.5217
303.677
581.733
269.468
1027.43
-443.833
846.552
-402.719
820.996
739.073
-1560.07
643.919
1066.32
-24.1727
-663.011
687.183
-1744.35
722.754
701.286
150.557
-1122.67
1936.76
-674.552
-1262.21
-537.179
1665.49
831.539
964.379
-1795.92
1227.86
683.333
-403.533
710.598
837.561
1028.33
-586.695
1761.5
626.49
1773.56
-1185.61
-587.947
-421.253
-322.349
743.602
121.449
-1185.67
1660.55
-540.272
-1437.81
1437.81
1250.57
594.418
1351.53
206.463
-568.494
282.185
-191.942
699.091
1113.67
482.274
-303.595
-870.097
-574.755
1739.69
-1739.69
993.63
-993.63
987.333
1025.17
-2012.5
1837.95
-613.977
-581.111
839.724
-947.851
-1052.16
998.336
690.703
-1689.04
-515.903
-365.461
-652.096
-808.427
2042.7
-1246.42
-613.686
1002.97
974.853
1289.77
646.989
325.506
1012.69
238.01
337.58
1186.24
1756.88
-1756.88
671.865
79.8086
-388.167
-997.054
-539.992
1674.14
990.018
1009.98
-1833.29
-223.208
-361.719
597.098