/*--------------------------------*- C++ -*----------------------------------*\
  =========                 |
  \\      /  F ield         | OpenFOAM: The Open Source CFD Toolbox
   \\    /   O peration     | Website:  https://openfoam.org
    \\  /    A nd           | Version:  7
     \\/     M anipulation  |
\*---------------------------------------------------------------------------*/
FoamFile
{
    version     2.0;
    format      ascii;
    class       volVectorField;
    location    "23";
    object      U;
}
// * * * * * * * * * * * * * * * * * * * * * * * * * * * * * * * * * * * * * //

dimensions      [0 1 -1 0 0 0 0];

internalField   nonuniform List<vector> 
29659
(
(1.01287 -0.0165938 2.00134e-22)
(1.01245 0.00551535 9.50978e-22)
(0.988705 -0.00412528 -1.17964e-21)
(0.963186 -0.0620031 3.71124e-22)
(0.99702 -6.40171e-05 1.67979e-22)
(0.94652 -0.0383186 -5.43274e-22)
(1.07024 -0.0938387 8.94521e-22)
(1.01689 -0.0250653 -1.96895e-23)
(1.00245 -0.00236864 2.93352e-23)
(1.00023 -6.01127e-05 8.9929e-24)
(1.01893 -0.0334733 -4.60141e-24)
(0.997483 -0.0202146 -4.43355e-22)
(0.999416 -0.000237948 2.16987e-23)
(0.999963 -1.31457e-05 3.22005e-25)
(1.21052 0.0692704 1.2283e-21)
(0.992601 -0.00239028 1.80982e-22)
(0.999807 -0.00103946 -8.13616e-24)
(1.15833 -0.0183111 -1.09683e-22)
(0.997401 -0.00219901 -5.72701e-23)
(0.986622 -0.000992767 -2.59754e-22)
(0.998951 -0.000335487 -7.66456e-23)
(1.0023 -0.00236364 1.02824e-22)
(0.988597 -0.00436391 1.29689e-21)
(0.997387 -0.000209998 7.36063e-23)
(0.808853 0.209387 4.18945e-22)
(1.01362 0.0043541 5.11686e-21)
(0.99937 -7.17579e-05 4.97766e-23)
(0.913701 0.168207 -3.05318e-20)
(1.21468 0.0664039 -3.38685e-21)
(0.999038 -0.0110623 -8.20217e-23)
(1.01859 -0.0134445 1.43345e-22)
(1.04582 -0.00919599 -1.06932e-21)
(0.978516 -0.143968 3.84438e-21)
(0.997806 -0.0279838 2.26396e-22)
(0.908874 0.160383 2.50759e-20)
(1.00447 -0.0397292 6.52959e-22)
(1.09513 0.0524255 -1.45291e-21)
(0.965611 -0.034753 1.54123e-21)
(1.00645 -0.00100062 -3.9426e-22)
(1.00622 -0.000712931 7.49875e-22)
(1.00052 -0.000199474 -2.56462e-23)
(0.986526 -0.0373124 -1.55301e-21)
(0.99983 -0.00101017 -2.00073e-25)
(1.03256 -0.0862603 -2.68623e-21)
(1.00004 -6.85569e-06 -2.30678e-24)
(0.999282 -0.0112189 6.15944e-23)
(0.997012 -0.0150241 -1.25776e-22)
(1.00009 -0.000103144 5.46602e-24)
(1.00405 -0.00442991 -4.12295e-22)
(1.09414 0.0490309 -5.99034e-22)
(1.13619 -0.103059 5.99148e-22)
(0.967249 -0.0544866 -1.75705e-21)
(1.04572 -0.00809768 3.77589e-22)
(0.948243 -0.0379703 -9.07565e-22)
(0.992784 -0.00245215 -1.59481e-22)
(1.21265 0.0552712 -2.18251e-21)
(0.995896 -0.00274658 5.7308e-23)
(0.998922 -0.000369654 9.70139e-23)
(1.00007 -0.0263707 -3.17907e-22)
(1.01343 -0.0707444 -1.17694e-21)
(0.99992 -8.60913e-06 1.00809e-24)
(0.997493 -0.00225294 -1.18106e-23)
(1.25222 -0.0194653 -4.58805e-22)
(1.00492 -0.0388208 -3.64609e-22)
(1.11609 0.139251 1.15897e-20)
(0.852358 0.055578 6.5512e-20)
(0.998969 -0.0332033 -6.12135e-22)
(0.99119 -0.0168871 5.59773e-22)
(0.890768 0.0348442 2.63575e-20)
(1.00055 -0.000188393 1.66345e-23)
(1.01568 0.00521551 -6.97152e-21)
(0.985817 0.128688 1.74555e-20)
(1.00392 -0.0109752 -1.5605e-22)
(0.851439 0.244647 1.58925e-20)
(0.990189 -0.000775236 8.39308e-22)
(1.13462 -0.0608089 -9.5612e-23)
(1.28428 0.0672824 1.60932e-21)
(0.96684 -0.0197196 3.65912e-22)
(0.99994 -2.72072e-05 -2.61044e-24)
(1.00498 -0.0585872 -1.14201e-21)
(0.948235 -0.000890735 -5.98597e-22)
(1.03144 0.05468 4.08329e-21)
(1.01312 -0.0173126 -6.01142e-22)
(1 -7.59236e-05 -2.32319e-24)
(1.07291 -0.0914209 -1.37696e-21)
(1.24018 -0.146972 -3.55837e-21)
(1.07071 0.133108 -2.41092e-20)
(0.999393 -0.000234449 -1.97836e-23)
(0.999434 -0.000212104 -5.82938e-24)
(0.92032 -0.0494518 -2.19129e-21)
(0.992872 -0.0643125 2.10181e-21)
(0.966724 -0.0206581 4.10134e-22)
(1.0038 -0.0045793 7.02419e-23)
(1.07196 -0.0151027 -5.90531e-22)
(0.912581 -0.0211776 -1.83904e-21)
(1.09527 0.157345 1.10531e-20)
(0.995906 -0.08323 3.32569e-21)
(1.00057 -0.000468857 4.11769e-23)
(0.964561 -0.0778138 -3.28663e-21)
(1.21817 0.0959229 6.42986e-21)
(0.999936 -2.66345e-05 3.78434e-24)
(0.968392 -0.0128381 -2.20197e-21)
(0.999922 -1.05914e-05 -5.29022e-25)
(1.05626 -0.0249626 -2.92727e-21)
(0.965559 -0.0543227 1.14683e-21)
(1.04715 0.0155426 6.95747e-21)
(1.01039 0.116347 2.56251e-20)
(0.999457 -0.000214654 -4.85202e-23)
(0.999994 -8.43668e-05 1.41493e-25)
(0.997526 -0.136943 -1.92623e-22)
(0.975733 -0.142462 -3.46579e-21)
(1.05099 -0.0501539 1.61237e-22)
(1.00002 -2.41943e-06 4.99059e-25)
(0.998631 -0.00748537 -2.14034e-22)
(0.999864 -0.00267269 4.64349e-24)
(0.991144 0.130829 1.54812e-22)
(1.06465 0.07577 -8.5563e-21)
(0.985733 -0.00886123 -8.91867e-22)
(1.00003 -8.29932e-05 8.73802e-25)
(1.00431 -0.010867 -1.20328e-22)
(1.26658 -0.067747 8.48594e-21)
(1.0084 0.0169873 1.12507e-20)
(1.18826 -0.0758929 -3.79185e-21)
(0.849293 0.0681226 -6.05714e-20)
(1.00133 -0.000434871 -9.95426e-23)
(1.18065 -0.0555015 4.23962e-22)
(1.15733 -0.0139291 -6.42192e-22)
(1.01875 -0.0681366 8.86417e-22)
(1.00484 -0.00420266 -3.68403e-22)
(1.00003 -0.000534498 2.53932e-24)
(1.03204 -0.0839165 9.57891e-22)
(1.28331 0.0615224 5.46143e-22)
(1.04443 0.230189 2.41339e-20)
(1.19319 -0.0922713 -1.18715e-21)
(1.05441 -0.0244909 2.46575e-21)
(1.01804 -0.0129421 2.72461e-21)
(1.19514 0.235702 1.39546e-21)
(0.96694 -0.000951514 3.06644e-21)
(1.15107 -0.218691 1.1034e-20)
(1.21632 0.0898739 -4.98406e-21)
(1.17998 -0.050697 -3.64966e-22)
(0.928309 -0.0062342 -2.4116e-21)
(0.941224 -0.0534038 7.1071e-22)
(1.00002 -2.16882e-06 -2.11395e-25)
(0.999986 -4.24484e-06 3.00433e-26)
(0.996942 -0.00010625 -1.31302e-22)
(0.997241 -0.0147199 2.57855e-22)
(0.980761 -0.109238 -2.66347e-21)
(1.14935 -0.168848 5.06588e-21)
(1.27708 0.0071466 -1.28528e-21)
(1.0371 -0.0237327 1.34707e-21)
(1.02158 -0.0241472 4.36352e-22)
(1.00053 -0.000760113 6.44506e-23)
(0.999841 -0.000269613 4.49234e-24)
(1.0026 0.0357288 -2.50332e-20)
(1.00065 -0.00186243 7.03981e-24)
(0.991919 -0.0137387 2.49556e-25)
(1.2175 0.223733 -3.81608e-21)
(1.0079 0.0686992 -2.74347e-20)
(1.13915 -0.0992304 -1.26009e-21)
(0.950645 -0.00338527 1.0226e-21)
(0.964375 -0.0607317 2.6867e-21)
(1.21568 0.0592716 5.58646e-22)
(0.99994 -5.57068e-05 7.81589e-25)
(0.999985 -4.08424e-06 -1.23242e-26)
(0.985669 -0.00931304 3.21555e-22)
(0.942672 -0.0523106 -3.92182e-21)
(1.00006 -0.000274116 -6.62711e-24)
(1 -8.06394e-05 -1.31165e-24)
(0.991807 -0.00621304 -1.06706e-22)
(1.00004 -0.000518672 -2.08505e-24)
(1.00694 -0.00722478 -2.03372e-22)
(1.21494 0.232786 4.30796e-21)
(0.96742 -0.000502837 -2.59607e-21)
(1.05123 -0.1356 -1.19859e-21)
(0.993871 -0.000119798 5.41908e-22)
(1.00255 -0.00327498 2.1807e-23)
(0.967539 -0.0126248 3.63688e-21)
(0.998992 -0.00746864 -1.93966e-23)
(1.1931 -0.0667895 2.21101e-21)
(0.999974 -1.2274e-05 8.08677e-25)
(1.0154 -0.0468788 -5.02864e-22)
(1.0749 0.134976 8.48644e-21)
(0.991555 -0.0156884 -3.22511e-23)
(1.14407 -0.215311 -1.05853e-20)
(1.04853 0.0661687 -7.64977e-21)
(0.992385 -0.00342526 -7.92638e-22)
(0.978158 -0.0186051 9.91017e-22)
(1.00458 -0.00422307 5.59573e-22)
(0.999126 -0.0103137 -1.25475e-22)
(0.999664 -8.95778e-06 5.34385e-24)
(1.00726 -0.0217545 7.58213e-23)
(0.840165 0.0340484 2.54757e-20)
(1.00168 0.0294044 1.9309e-20)
(0.9827 -0.00750049 2.4872e-23)
(0.99228 -0.0135337 -3.51659e-22)
(0.965979 0.0720598 -2.45257e-20)
(1.01928 0.0431157 3.52729e-21)
(0.914413 -0.0209461 2.27461e-21)
(1.00139 -0.000583201 -7.7617e-23)
(1.08498 -0.116153 1.76343e-21)
(0.963901 -0.103184 3.45706e-21)
(0.997812 -0.020632 2.11863e-22)
(1.00101 -0.00128073 -1.26722e-22)
(1.20377 0.239185 1.78832e-21)
(0.992069 -0.00622635 -7.21205e-23)
(1.0081 -0.00647559 -2.29244e-22)
(0.97868 -0.108631 3.46864e-21)
(0.997933 -0.140205 4.75737e-22)
(0.999955 -6.33579e-06 2.93614e-25)
(0.980134 0.193267 -2.67621e-20)
(0.998759 -2.80584e-05 -1.29358e-24)
(1 -6.47568e-05 -5.60805e-25)
(0.999346 -0.000249865 8.45088e-24)
(0.996358 -0.0646461 -7.75113e-22)
(1.24947 -0.00308249 9.45908e-22)
(1.01659 -0.0459496 4.73108e-23)
(1.00785 -0.00604913 -1.5729e-22)
(0.997415 -0.000288969 1.83204e-22)
(0.916004 -0.0233498 -4.29651e-22)
(1.00004 -0.000568209 -1.74347e-24)
(1.00058 -0.00189906 5.59476e-25)
(0.997216 -0.000245285 -1.20927e-22)
(1.0348 0.00138754 6.51458e-21)
(0.996839 -0.00474479 -3.94255e-23)
(0.998659 -0.00695545 6.3318e-23)
(1.03375 -0.00181287 3.16466e-21)
(1.00015 -0.000464095 7.95366e-24)
(1.00004 -5.91528e-06 6.09196e-25)
(1.00594 -0.000718405 8.01003e-23)
(0.970552 -0.0395792 -1.32658e-21)
(0.970996 -0.000486427 -1.26916e-21)
(0.994245 -0.000455845 -5.73612e-22)
(1.01696 0.00409637 5.76252e-21)
(0.981114 -0.00137332 6.105e-22)
(1.02188 -0.0233435 -4.28106e-22)
(0.999962 -1.46704e-05 8.93394e-25)
(0.996473 -0.0031338 -2.22165e-22)
(1.00095 -0.00127083 1.37044e-22)
(1.08429 -0.111993 1.75931e-21)
(1.06568 -0.218801 7.58702e-21)
(0.998345 -0.000149629 9.42316e-23)
(1.00056 -0.000675868 -4.90848e-23)
(0.998541 -0.00679002 -2.14441e-23)
(1.00419 -0.00970722 -2.97613e-22)
(0.986888 -0.000732687 -1.10963e-21)
(0.999942 -5.31266e-05 -9.02228e-26)
(1.23492 -0.144179 -7.72537e-21)
(1.00005 -0.000580951 2.92523e-24)
(1.0344 0.00130728 -4.58977e-21)
(0.996026 -0.0027501 -1.15713e-22)
(1.00017 -0.000450083 3.13383e-24)
(1.0459 0.0161751 -4.42168e-21)
(0.957623 -0.098842 -3.48692e-21)
(1.0003 -5.08965e-05 2.8478e-23)
(1 -1.51805e-05 -2.24256e-25)
(0.92811 -0.00446165 -2.74354e-21)
(1.04648 -0.203389 -1.17844e-21)
(0.989661 -0.00989037 -8.62205e-23)
(1.01762 -0.0696341 -2.34455e-22)
(1.03811 -0.0246184 -2.20445e-22)
(1.08176 0.127857 1.04629e-21)
(1.0001 -9.73735e-05 1.47595e-24)
(0.97111 -0.0387534 1.34748e-21)
(1.23434 -0.0731629 4.26007e-21)
(0.937308 0.104829 5.7274e-22)
(0.991451 -0.0153359 2.59155e-22)
(1.04653 0.0640092 9.40245e-21)
(1.135 -0.0565981 -2.55034e-23)
(0.999861 -0.00294132 -7.31256e-24)
(0.686718 0.094497 3.41827e-20)
(0.999349 -0.000526179 -5.68233e-23)
(1.05038 -0.139524 -1.53398e-21)
(0.917407 -0.0233276 2.81566e-21)
(1.00271 -0.00309513 -1.19885e-22)
(1.21797 -0.0279014 -7.22079e-22)
(0.989686 -0.00112396 -6.63218e-22)
(1.05644 0.2493 1.70373e-20)
(0.995822 -0.000317924 5.2495e-23)
(0.978789 -0.0200651 -5.19997e-23)
(0.999756 -0.00267187 -4.38778e-23)
(1.22387 0.142118 1.50097e-21)
(1.00008 -0.0209128 5.56319e-23)
(1.09061 0.160598 7.13428e-22)
(0.999387 -5.54459e-05 -2.19579e-23)
(0.992975 -0.00226978 -2.52491e-22)
(0.957422 0.24795 -1.13721e-20)
(1.04054 -0.000110584 -5.3278e-21)
(1.0335 -0.00128584 3.68377e-21)
(0.964767 -0.050325 3.22235e-21)
(0.999817 -3.95072e-05 4.93538e-24)
(1.00407 -0.00937423 -3.39826e-23)
(0.999803 -0.00113579 -1.40318e-23)
(1 -6.13663e-05 -3.62185e-25)
(1.07299 0.00350094 1.38635e-21)
(1.00005 -6.39067e-06 4.11795e-26)
(0.975925 -0.0177975 2.32009e-21)
(1.23105 -0.0750571 -4.04521e-21)
(0.804045 0.219723 -3.07475e-20)
(1.05078 0.228871 -3.84534e-20)
(0.961747 -0.085328 1.07374e-21)
(0.983288 -0.0363184 8.39059e-22)
(0.972404 -0.00187664 6.05857e-22)
(1.04102 -0.0461279 6.02587e-22)
(1.00794 -0.0214591 -1.52606e-22)
(0.978016 -0.0194955 -1.36792e-21)
(0.962753 -0.0936478 4.78403e-22)
(1.08033 0.132314 -1.57727e-20)
(0.999301 0.0295052 3.92608e-20)
(0.998454 -0.000182413 5.17668e-23)
(1.01314 0.116912 -3.5002e-20)
(1.07164 0.00181911 4.63239e-22)
(1.193 -0.0731355 1.08245e-21)
(1.01651 -0.0192973 2.08312e-22)
(1.00135 -0.0192546 -2.71678e-22)
(1.02705 -0.0638176 -6.15543e-22)
(0.993483 -0.00219537 -5.97873e-22)
(0.996775 -0.000798031 -3.8685e-23)
(0.999927 -8.35348e-06 5.1786e-24)
(0.998931 -0.0105677 1.83874e-22)
(1.11319 -0.0578402 9.18293e-23)
(1.22997 0.146837 -2.4032e-21)
(1.00196 -0.00168012 5.69579e-23)
(0.966908 -0.0325522 -1.84002e-21)
(1.01885 -0.0197441 -6.56923e-22)
(0.999953 -2.01561e-05 -3.90362e-25)
(0.9622 -0.0893323 -1.71374e-21)
(0.754576 0.168276 -1.58288e-20)
(0.99248 -0.00585109 8.92561e-22)
(0.998679 -0.00556276 5.7442e-23)
(1.01723 -0.0190764 -1.2988e-22)
(1.00459 -0.0568963 1.44995e-21)
(1.11722 0.0298975 1.58378e-21)
(0.999397 -0.0119877 -3.01194e-23)
(0.999961 -6.44933e-05 1.49271e-24)
(1.00002 -3.4107e-06 2.65877e-25)
(0.99673 -0.000726989 -4.28473e-23)
(0.952553 0.246858 1.64395e-20)
(1.06061 -0.0374647 5.58834e-22)
(1.07143 -0.216287 -1.96651e-21)
(1 -1.52146e-05 -6.08037e-26)
(1.0435 -0.208403 7.59724e-22)
(1.10187 -0.00936293 -1.75091e-21)
(0.993721 -0.000200317 -2.68836e-22)
(0.920455 -0.00849348 -3.40038e-21)
(0.998781 -0.00546535 -5.7621e-23)
(0.99947 -0.00024046 -3.52329e-24)
(0.971933 -0.0350214 -4.02727e-22)
(1.00112 -0.00140509 -6.08432e-23)
(1.19742 -0.0642019 -1.93596e-21)
(1.01125 -0.00131963 -1.65737e-21)
(1.26075 0.0493258 -9.0769e-22)
(0.999905 -0.0029026 9.4369e-24)
(1.00529 -0.0170907 5.15718e-23)
(1.00812 0.0150101 -1.5209e-20)
(1.26222 -0.0667926 -3.42278e-21)
(1.00052 -0.000715407 -3.7865e-23)
(1.00054 -0.000633852 3.7263e-24)
(1.00074 0.154977 1.66566e-21)
(0.994257 -0.0655086 -4.18113e-22)
(0.999186 -0.0118058 3.67982e-23)
(1.0179 0.0483464 1.86089e-21)
(0.951129 0.0369805 4.82888e-20)
(1.13681 -0.107812 -2.01496e-21)
(0.99897 -0.0320497 -1.84552e-22)
(1.24691 -0.000731606 -9.50665e-22)
(0.999064 -8.99706e-05 -3.81934e-23)
(0.989352 -0.00517155 2.34964e-22)
(0.995909 -0.000334219 -1.47091e-22)
(1.02137 0.0408341 2.91856e-24)
(0.999985 -0.000933298 -1.11321e-24)
(1.01087 -0.00160392 1.69333e-21)
(1.1735 -0.156053 1.44338e-22)
(1.03561 0.217159 3.83334e-20)
(0.858984 0.25297 -6.99428e-21)
(0.992617 -0.00341767 3.21367e-23)
(0.989354 -0.00965819 2.58186e-22)
(1.11365 0.144941 -9.17865e-21)
(1.01396 -0.0729263 1.69451e-21)
(0.999929 -9.98721e-06 -5.0623e-24)
(1.2812 0.028909 -5.53028e-22)
(1.03404 0.00206162 -1.95713e-21)
(1.03345 0.00205911 -1.33026e-21)
(0.99297 -0.0166786 -3.8232e-22)
(1.02311 -0.00244715 -2.59597e-21)
(0.929792 0.221391 6.66809e-21)
(1.14433 -0.179856 -1.43726e-21)
(0.988015 0.20768 6.53398e-21)
(1.0142 0.199007 -1.11964e-20)
(0.999996 -8.07753e-05 -4.5589e-25)
(1.10971 -0.0565036 -6.81672e-23)
(1.14454 -0.173924 9.50363e-22)
(0.996691 -0.00478762 1.02521e-22)
(1.00201 -0.00180353 -9.39592e-23)
(0.9424 0.0431355 1.15557e-20)
(1.06264 -0.0385471 -7.09252e-22)
(1.00035 -9.36373e-05 6.41015e-24)
(0.977368 -0.0751172 -4.06149e-21)
(0.962968 -0.105914 -1.63318e-21)
(0.993129 -0.00233259 3.55023e-22)
(0.999852 -0.000261738 -5.65823e-24)
(1.12187 0.185166 -1.27202e-21)
(1.06345 0.0728474 1.43667e-20)
(1.00006 -0.000636172 -1.0322e-25)
(1.00503 -0.00453584 7.21836e-23)
(1.00648 -0.00454445 3.9035e-22)
(1.21091 -0.117116 5.79798e-21)
(0.964814 -0.0489704 -2.9194e-21)
(1.00008 -0.000755094 -5.16007e-24)
(0.999982 -2.71031e-06 -5.18577e-26)
(1.00061 -0.000206818 9.73e-24)
(1.11571 0.0320902 -1.55717e-22)
(0.965592 -0.0335273 -1.47377e-21)
(1.00471 0.075119 8.07031e-21)
(0.932676 -0.0590615 1.69807e-21)
(0.984288 -0.0361523 -8.85267e-22)
(0.970153 -0.00145856 -2.42646e-21)
(1.02009 0.0463498 -9.16711e-21)
(1.24705 -0.0181398 -1.45447e-22)
(0.998502 -0.00019389 9.45508e-23)
(1.00974 -0.00739316 -4.14837e-22)
(1.00105 -0.00139071 6.90072e-23)
(0.991202 0.231197 -1.62932e-20)
(0.968121 -0.030388 7.90775e-22)
(1.00135 -0.000353439 -3.26425e-23)
(0.99063 -0.00460632 -3.21407e-22)
(1.18466 -0.0462703 -3.08012e-22)
(0.999518 -0.0128804 -8.08603e-23)
(0.985628 -0.0159341 -1.7977e-22)
(1.00029 -0.000178806 -1.98873e-23)
(1.0003 -6.80474e-05 -8.89984e-25)
(0.747112 0.180178 2.38318e-20)
(0.989764 -0.00167399 -4.12182e-22)
(0.994036 -0.00603217 3.66799e-22)
(0.999533 -0.00236783 -4.13181e-23)
(0.999088 -6.86699e-05 -5.2291e-24)
(1.09096 0.121445 -5.26409e-21)
(1.17965 -0.156617 3.58753e-22)
(0.981612 -0.0543199 5.30833e-22)
(1.00002 -2.70216e-06 -2.44305e-25)
(1 -4.93444e-05 -3.24081e-25)
(0.96687 -0.0314759 2.08085e-21)
(0.991541 -0.00245396 8.46802e-23)
(0.993538 -0.00280052 -4.87472e-23)
(1.01809 -0.00679036 8.00336e-22)
(1.00726 -0.00308455 1.40076e-22)
(1.00042 -0.0214171 -9.96681e-23)
(1.1535 -0.0342871 7.34587e-22)
(0.976741 -0.00567417 -5.11626e-22)
(0.990537 0.202389 -5.55157e-21)
(1.01785 -0.0334882 -1.45318e-22)
(1.00031 -0.000179506 2.20501e-23)
(0.960648 -0.0837476 1.58214e-22)
(0.979376 -0.0481573 -1.84407e-21)
(1.21041 -0.0219731 -1.08385e-22)
(0.996404 -0.00788461 -1.09681e-22)
(0.986374 -0.0637041 -6.27349e-22)
(0.999973 -7.17567e-06 4.82545e-25)
(0.880172 0.177685 -2.41067e-20)
(1.0193 -0.00283376 1.46185e-21)
(1.00011 -0.000305561 -8.64757e-24)
(0.840068 0.0465933 -3.30419e-20)
(0.98029 -0.0545889 1.18252e-21)
(0.999972 -8.37715e-06 8.53508e-26)
(1.00182 -0.00164207 2.7779e-23)
(0.960905 -0.0875761 -9.40958e-22)
(1.04911 -0.0485061 1.93555e-22)
(1.06258 -0.0179741 1.70307e-21)
(0.999989 -4.56879e-06 -1.88503e-26)
(0.989708 -0.000855241 3.27622e-22)
(1.02815 -0.0624514 1.1044e-21)
(0.993319 -0.00214044 4.90635e-22)
(0.999412 -6.36598e-05 -1.17629e-22)
(0.989562 -0.00534005 6.51701e-24)
(0.960146 0.0752738 2.84531e-21)
(0.991027 -0.0164051 -4.65864e-22)
(0.986236 -0.015606 1.316e-22)
(1.00312 0.0415871 -7.78092e-21)
(0.996537 -0.00296051 1.15476e-22)
(0.980952 0.237441 -2.03151e-21)
(0.999971 -8.44619e-06 -2.53983e-25)
(0.98694 -0.0363946 3.60782e-22)
(0.978078 -0.103336 4.04467e-21)
(0.987646 -0.064114 1.071e-21)
(1.22722 -0.0857085 1.19333e-21)
(0.998509 -0.00727332 1.43397e-22)
(1.01187 -0.031375 3.2837e-23)
(0.999891 -0.00312601 1.40631e-24)
(0.97851 -0.0283439 -1.03017e-21)
(1.05078 -0.0525615 3.0282e-23)
(0.999955 -1.93066e-05 1.85434e-24)
(1.00002 -1.56251e-06 -4.26852e-25)
(0.991955 -0.000549827 2.23052e-22)
(0.974609 0.139883 1.75276e-20)
(1.01627 -0.0259535 7.25802e-22)
(1.00328 -0.00462167 -1.14666e-22)
(0.914964 -0.04375 2.35393e-21)
(1 -1.36412e-05 -1.87627e-25)
(1.00124 -0.00153391 -1.09735e-22)
(0.999955 -0.000889968 -1.31044e-24)
(1.01803 -0.0248897 8.29465e-22)
(0.978697 -0.0209521 1.8245e-22)
(0.999513 -0.000374149 1.45206e-23)
(0.991618 -0.0146365 1.75738e-22)
(0.984294 -0.00924312 -1.8937e-22)
(1.0013 -0.000211925 -8.94432e-24)
(0.99997 -9.80463e-06 -1.66351e-25)
(1.23788 -0.052337 -3.59413e-21)
(0.999581 -0.00232819 4.43875e-23)
(1.09826 -0.0147909 1.33701e-21)
(1.06084 0.202081 3.86838e-20)
(1.1056 0.146023 -8.59291e-21)
(1.00078 -0.0270274 -3.77415e-22)
(1.00711 -0.00279487 -4.63811e-23)
(1.02356 -0.00195175 1.59131e-21)
(0.999954 -0.00319534 -1.56942e-24)
(0.997206 -0.0137055 1.82618e-22)
(1 -2.27171e-05 -4.83215e-25)
(1.00907 0.20088 -7.97651e-22)
(0.984485 -0.02098 2.55388e-22)
(1.01773 -0.00626096 -5.72278e-22)
(0.977266 -0.00588908 1.0654e-21)
(1.00468 -0.0168077 5.89051e-24)
(0.99662 -0.00775489 2.39568e-22)
(0.999867 -0.000268242 1.24127e-24)
(1.00002 -1.45733e-06 -2.17628e-24)
(0.994239 -0.00600825 -2.67139e-22)
(1.07205 -0.0172302 -9.16331e-22)
(1.0084 0.0720204 1.25272e-21)
(1.00156 -0.000627271 -1.31503e-22)
(0.966715 -0.0779026 -8.69979e-22)
(0.968033 -0.0294763 -3.48635e-22)
(0.989962 -0.000670508 -1.22894e-21)
(1.27325 0.00790845 7.84351e-22)
(0.998343 -0.00127501 -5.68463e-23)
(1.00477 -0.0190051 -1.25061e-22)
(0.993033 -0.00368319 2.48669e-22)
(0.999878 -0.000258571 1.05781e-24)
(0.961275 -0.0916718 1.07744e-21)
(1.00412 0.0647787 -1.26235e-20)
(1.04667 0.0577194 -9.60937e-21)
(0.971127 -0.0197088 -1.68004e-22)
(1.00314 0.0613766 -5.27614e-22)
(1.00011 -0.000286951 1.72219e-23)
(1.00002 -1.99961e-06 6.99348e-25)
(1.27703 0.0289918 8.11298e-23)
(1.2164 -0.0232967 7.2335e-22)
(0.849231 0.183187 -1.13281e-21)
(1.00036 -0.107775 3.05872e-21)
(0.970476 -0.00201364 -7.81157e-22)
(1.18362 -0.0407621 5.00575e-22)
(1.00148 -0.000653904 1.49046e-22)
(0.99278 -0.0049603 1.42521e-22)
(1.00058 -0.000219641 -9.19948e-24)
(0.986341 -0.000939063 -2.63538e-22)
(0.984986 -0.0171545 -3.73875e-22)
(0.999995 -4.42428e-05 1.11476e-24)
(0.998868 -4.3638e-05 2.20024e-23)
(1.03324 0.211599 -3.75716e-20)
(0.999835 -0.000924079 1.21306e-23)
(0.894551 0.161893 3.02313e-20)
(1 -2.1624e-05 3.65738e-25)
(1.26732 -0.0362868 -3.23825e-21)
(1.09811 -0.0173343 -2.8668e-21)
(1.15353 -0.0305612 -8.20117e-22)
(1.00133 -0.000620123 8.95836e-24)
(1.00024 -5.50964e-05 1.79605e-23)
(0.980726 0.13066 -2.66952e-20)
(1.10184 -0.0122447 5.79157e-21)
(0.977393 -0.105402 -3.67436e-21)
(1.03286 0.0574173 4.43161e-21)
(0.997193 -0.0274553 1.57388e-22)
(0.982868 -0.00706636 -2.75459e-22)
(0.994811 -0.000286433 -1.475e-22)
(1.26589 0.166914 -8.87952e-21)
(0.969435 -0.0352387 1.2963e-21)
(1.04163 -0.0442002 -4.29478e-22)
(0.991954 -0.0145018 -1.01018e-22)
(1 -1.35707e-05 -5.45274e-27)
(0.99836 -0.00120396 -4.81796e-23)
(1.00764 -0.00780496 2.41947e-22)
(0.976447 -0.0104988 1.36391e-21)
(0.971882 -0.0198676 2.52077e-22)
(0.944679 -0.0532858 -3.80951e-22)
(0.976201 -0.0111327 -1.03462e-21)
(1.02497 0.00370245 7.76698e-22)
(0.997284 -0.000185251 3.03207e-24)
(0.922224 -0.050064 1.21551e-21)
(0.981966 -0.00120422 -3.78098e-22)
(1.00005 -0.000277111 3.8371e-24)
(0.984268 -0.000963523 -2.61136e-22)
(1.04239 -0.0477721 -6.08501e-22)
(1.02398 0.00398052 -4.29606e-21)
(0.966824 -0.035456 -3.21376e-22)
(0.999978 -9.54883e-07 -1.97119e-27)
(0.977702 -0.0214179 2.74296e-22)
(1.0028 -0.0194257 3.05228e-23)
(1.00178 -0.00152452 3.58016e-23)
(1.16865 -0.177388 -4.36521e-21)
(1.00337 0.0616806 -2.95416e-20)
(1.00116 -0.00151519 1.01964e-22)
(0.984538 -0.000726773 3.50585e-24)
(1.12707 -0.108066 7.31443e-23)
(1.03541 0.000316467 6.5108e-21)
(0.983089 0.053681 -3.06026e-21)
(1.00237 -0.00322558 3.14766e-23)
(1.00055 -0.0281506 1.1753e-22)
(1.1879 0.145398 -2.14203e-21)
(1.02239 0.0360739 -2.26176e-20)
(0.988294 -0.0362682 9.58953e-22)
(1.0061 -0.00454836 -4.36486e-23)
(0.938762 -0.0632039 1.7446e-21)
(0.999997 -6.9193e-06 -1.97913e-25)
(0.93717 -0.0026872 -1.2402e-21)
(1.00011 -9.09013e-05 2.889e-24)
(1.12385 -0.109436 -4.78231e-21)
(0.999957 -4.63528e-06 -2.00179e-25)
(1.00004 -8.1145e-05 2.56952e-24)
(1.00009 -0.0314811 -1.42537e-22)
(1.25549 -0.0157789 1.15861e-21)
(1.11529 0.252106 1.47105e-20)
(1.04661 -0.049161 -9.02531e-22)
(1.01797 -0.019937 4.37083e-22)
(0.999999 -5.3972e-06 7.56371e-26)
(0.992207 -0.00589316 -4.81773e-22)
(1.00012 -2.76827e-05 -2.06677e-24)
(0.995991 -0.00315091 1.66005e-22)
(1.00004 -7.55637e-05 -2.01181e-24)
(1.06282 -0.0155472 -5.30895e-21)
(0.999398 -0.000619276 -5.78457e-23)
(1.08694 0.0717878 8.97903e-21)
(0.999839 -0.000286022 -8.82545e-24)
(0.983494 -0.00690224 -4.66522e-22)
(0.947101 -0.00144352 2.88771e-21)
(0.994544 -0.000392966 -1.90565e-22)
(0.972765 0.0756938 2.93478e-20)
(0.977846 -0.000945726 7.12108e-22)
(1.03483 -0.135121 2.64679e-22)
(0.992969 -0.00520262 7.3852e-22)
(1.03289 -0.0034933 -1.33416e-21)
(0.96342 -0.0791149 3.76779e-21)
(1.02509 -0.00182532 -4.4486e-21)
(1.05188 -0.0919896 -1.12997e-22)
(0.999982 -2.16645e-06 1.1272e-26)
(0.999126 -0.0266097 1.30019e-22)
(0.994895 -0.000378031 2.32141e-23)
(1.00032 -0.000120804 1.31525e-23)
(1.00011 -2.32453e-05 3.55566e-24)
(1.27259 0.16324 9.61324e-21)
(0.993753 -0.00280945 4.1156e-22)
(1.03524 0.00131406 7.45176e-21)
(1.00138 -0.0288251 1.44514e-22)
(1.0011 -0.000397323 3.50324e-23)
(1.03051 -0.0109462 -4.83442e-21)
(1.00021 -5.18984e-05 -4.04573e-23)
(0.999969 -4.46745e-06 -2.33412e-26)
(0.937936 -0.00357923 9.57353e-22)
(0.995532 -0.00160212 1.84927e-22)
(1.00004 -7.35839e-05 2.72925e-24)
(1.12202 0.13697 6.06987e-21)
(0.778888 0.146181 -4.41259e-20)
(0.999731 -0.000302783 2.47949e-23)
(0.949463 -0.00291226 -7.96615e-22)
(1.00002 -2.00094e-06 4.91103e-25)
(0.921852 0.217078 -2.73541e-20)
(1.27135 -0.03658 -4.17693e-21)
(0.963338 -0.0634589 -3.03456e-21)
(1.00006 -0.000730216 -6.32083e-24)
(1.04019 -0.0426693 1.06515e-21)
(1.04002 -0.00386268 -1.84159e-21)
(1.04148 -0.000188662 5.48155e-22)
(1.06402 -0.0189018 -6.51069e-22)
(0.999539 -0.00249594 -6.61244e-24)
(0.999833 -0.00110711 1.09875e-23)
(0.982132 -0.0208732 -8.12335e-22)
(1.00001 -1.19574e-05 -7.54122e-25)
(1.00002 -1.66232e-06 -1.26034e-25)
(0.968327 -0.0346209 -7.62017e-22)
(0.99775 -0.0821396 -1.64789e-21)
(0.946289 -0.0522767 -9.73577e-23)
(0.821425 0.210232 -1.01696e-21)
(1.00026 -3.35136e-05 -1.64672e-23)
(1.02301 -0.102019 -3.56444e-21)
(1.00943 -0.00694157 -4.26732e-22)
(0.99997 -4.73256e-06 2.71463e-25)
(0.998709 -0.00517887 -1.24368e-22)
(1.00005 -0.000618989 -4.57938e-24)
(0.994342 -0.0169104 2.88997e-22)
(1.00006 -1.36168e-05 2.35418e-24)
(1.0541 -0.0902997 -2.65601e-22)
(1.02459 -0.00222761 4.31316e-21)
(0.983097 0.231722 5.70007e-21)
(1.0322 -0.00328738 5.01583e-21)
(0.999645 -0.000296574 2.03919e-23)
(1.00059 -0.000511808 -3.59155e-23)
(1.21059 -0.123061 -5.8539e-21)
(1.03515 0.00102501 -5.99501e-21)
(0.996045 -0.000518341 1.66169e-22)
(1.00002 -1.99485e-06 1.01986e-24)
(1.13598 0.108812 -9.63428e-21)
(1.12913 -0.2182 -1.84969e-21)
(1.00042 -0.105396 -1.36315e-21)
(0.98147 -0.00102553 -1.99861e-22)
(0.999973 -2.95542e-05 3.81558e-25)
(0.999648 -0.000279775 -1.19055e-23)
(1.13665 -0.221164 5.17099e-21)
(0.997882 -0.065745 -4.54016e-22)
(1.05428 0.0394663 1.36142e-21)
(0.987766 0.195032 2.4131e-20)
(1.03307 -0.131719 1.96661e-21)
(0.998384 -0.000111245 -2.96677e-23)
(0.999973 -1.38086e-05 -5.32115e-25)
(0.952957 -0.0678437 2.96721e-21)
(0.972232 -0.135875 -4.07406e-21)
(0.999741 -0.000313509 1.30508e-23)
(1.01268 -0.0305081 2.8018e-22)
(0.988692 -0.0352951 -1.69389e-22)
(0.994077 -0.00301227 1.62324e-22)
(0.997427 0.0544148 -2.27302e-20)
(0.998357 -0.000719853 1.05385e-22)
(1.06754 -0.0679601 -1.4772e-22)
(1.28819 0.0687117 -1.7147e-21)
(0.990113 -0.00434601 -4.69012e-22)
(0.844326 0.17237 -4.271e-21)
(0.856576 0.0793711 1.3808e-20)
(0.999961 -6.83029e-05 -1.43749e-24)
(0.999967 -0.000972673 3.49697e-25)
(0.978114 -0.00125654 -4.56261e-22)
(1.01683 -0.00616432 -1.0367e-21)
(0.951593 -0.00268394 1.66128e-21)
(1.00664 -0.00564197 -4.47895e-22)
(0.990469 -0.00435945 4.38795e-22)
(0.999275 -0.000659298 -4.45521e-23)
(0.940759 0.215344 -4.80352e-21)
(1.08689 0.0681695 -1.39616e-20)
(1.00291 -0.00312644 8.04871e-23)
(0.700338 0.0898771 -8.72052e-21)
(1.00002 -1.74402e-06 -7.16735e-25)
(1.03339 0.00832881 -1.05134e-20)
(0.993263 -0.130673 2.94037e-21)
(1.02612 -0.101917 1.39338e-21)
(1.00012 -0.000278699 -9.16388e-25)
(0.949256 -0.00147136 1.36618e-21)
(1.03014 0.00757957 5.93905e-21)
(1.0164 -0.00660055 8.5743e-22)
(1.03938 -0.00244338 2.57125e-21)
(0.999428 -4.98991e-05 8.27101e-23)
(0.999391 -0.000659698 5.24501e-23)
(1.03214 -0.0608067 3.11516e-22)
(0.995607 -0.00172621 -5.30872e-22)
(0.983862 -0.0156047 -8.80938e-22)
(0.998866 -0.00469331 7.36415e-24)
(1.11555 0.0410209 6.35883e-21)
(0.998795 -0.0277265 -8.892e-23)
(0.993687 -0.00638444 8.97208e-24)
(0.910471 -0.0370881 -3.46189e-21)
(1.00506 0.154007 2.7411e-21)
(1.13918 -0.053015 -1.04925e-22)
(1.02982 -0.0104853 3.88756e-21)
(0.999492 -0.000241352 1.55933e-23)
(0.999351 -0.000431484 7.10449e-24)
(0.97754 -0.028011 2.07131e-21)
(1.00127 -0.00165033 -8.12376e-23)
(0.99669 -0.000913968 -2.99929e-23)
(0.999974 -2.83631e-05 -1.39298e-25)
(0.999587 -0.00254289 1.36588e-24)
(1.02933 0.00699217 -2.31201e-21)
(0.98021 0.136946 -2.55822e-20)
(0.999837 -2.06034e-05 2.88392e-24)
(1.2738 0.122013 -6.43827e-21)
(0.999994 -5.51944e-05 -4.5595e-25)
(0.995866 -0.00373105 2.25996e-22)
(0.999989 -0.000126601 -2.00384e-25)
(1.00669 -0.00488386 -1.98844e-22)
(1.23914 -0.0564299 2.73636e-21)
(0.999949 -5.7372e-05 2.29723e-25)
(0.999948 -6.14774e-05 1.39723e-24)
(0.931296 -0.0597752 -1.62193e-21)
(1.00001 -1.18349e-05 -3.4122e-26)
(1.06812 -0.0189964 5.40006e-21)
(0.98464 -0.0555845 1.70527e-21)
(0.999971 -0.000855404 7.64433e-25)
(1.12404 0.08169 -7.60847e-21)
(1 -3.94284e-05 6.10232e-25)
(0.999492 -5.16106e-05 7.15768e-23)
(0.999886 -4.72984e-05 1.21571e-25)
(0.993915 -0.00639698 -1.37683e-22)
(0.999574 -0.00202756 -2.06845e-23)
(0.992109 -0.000416914 -1.49971e-22)
(1.00877 -0.156836 -3.41365e-22)
(0.999622 -0.00197451 1.38118e-23)
(1.00535 -0.00455487 -1.54897e-22)
(0.999968 -3.24219e-06 -1.06888e-25)
(1.11598 0.244605 -2.86733e-20)
(1.06545 -0.069345 -4.25665e-22)
(1.14285 -0.0540289 1.82953e-22)
(0.955032 -0.00801699 1.792e-21)
(0.971068 -0.0056759 -3.30238e-22)
(0.998823 -0.0050645 2.05315e-22)
(1.00372 -0.0034786 2.17424e-22)
(1.07612 0.092436 3.90196e-21)
(0.97854 -0.0495712 2.50588e-22)
(1.19687 0.108002 2.86637e-21)
(0.943954 -0.0182518 -3.22776e-21)
(0.995718 -0.0036027 -2.12921e-22)
(0.999988 -5.59068e-06 2.09877e-26)
(0.992793 -0.00369608 -2.99739e-22)
(1.06413 0.250275 7.73092e-21)
(1.11691 0.0985164 -1.81251e-21)
(0.979377 -0.0745286 1.38788e-21)
(0.923814 -0.0079097 7.45044e-22)
(1.11695 0.226423 7.84786e-21)
(0.989191 -0.000765329 3.88599e-22)
(0.986202 -0.11981 2.32556e-22)
(0.999989 -0.000121031 -1.22683e-24)
(0.983188 -0.0558752 2.12037e-21)
(0.998943 -0.000298127 -1.09034e-22)
(0.720609 0.155967 -2.49837e-20)
(0.976467 -0.0982532 -3.05149e-21)
(0.999889 -4.2422e-05 4.8398e-24)
(0.919048 -0.0257198 -1.9368e-22)
(0.978429 -0.0525945 1.15209e-22)
(1.05837 0.107322 1.43395e-20)
(0.996737 -0.000997471 -2.82676e-22)
(0.975906 -0.050781 -7.47861e-22)
(0.996969 -0.0140528 -2.54928e-22)
(1.00018 -0.0304202 -2.95274e-22)
(0.998401 -0.000732511 -7.2024e-23)
(1.05598 0.105192 -1.74432e-20)
(1.05834 -0.213923 3.34498e-21)
(0.977631 -0.0222976 -6.08114e-22)
(0.982828 -0.0194019 1.29872e-23)
(0.98363 -0.00651916 -1.87827e-22)
(1.00667 -0.00265987 -1.82648e-22)
(1.1164 0.218057 3.06306e-20)
(0.977531 -0.0180858 2.75304e-22)
(1.02219 0.0552306 9.75255e-21)
(1.00343 -0.00279494 1.65779e-22)
(1.23158 -0.082817 -9.9989e-23)
(0.890131 0.174547 4.57737e-21)
(0.988977 -0.00059683 -1.34342e-21)
(0.999711 -5.43666e-05 1.32384e-23)
(1.08928 0.1261 4.06724e-21)
(1.02474 0.203674 -3.09561e-20)
(1.03114 -0.0586664 -3.78075e-22)
(1.10246 -0.058611 1.05951e-23)
(0.994061 -0.0175391 -3.22645e-22)
(0.955723 -0.00724642 -1.06231e-21)
(1.18208 0.143471 8.71955e-21)
(0.951179 -0.0681324 4.97433e-22)
(0.99997 -2.83781e-05 5.6722e-25)
(0.990626 -0.000147685 -6.91588e-22)
(1.00005 -7.41408e-06 2.45979e-24)
(0.994356 -0.000352964 5.17571e-22)
(0.999968 -2.97866e-05 -8.92216e-25)
(0.997514 -0.019602 4.27535e-22)
(0.998793 -4.83495e-05 3.89299e-23)
(0.996567 -0.00735386 2.77013e-23)
(1.21715 -0.106089 -9.90988e-22)
(0.999253 -0.000504478 3.83879e-23)
(0.999372 -0.000258764 2.58737e-23)