/*--------------------------------*- C++ -*----------------------------------*\
  =========                 |
  \\      /  F ield         | OpenFOAM: The Open Source CFD Toolbox
   \\    /   O peration     | Website:  https://openfoam.org
    \\  /    A nd           | Version:  7
     \\/     M anipulation  |
\*---------------------------------------------------------------------------*/
FoamFile
{
    version     2.0;
    format      ascii;
    class       surfaceScalarField;
    location    "9";
    object      phi;
}
// * * * * * * * * * * * * * * * * * * * * * * * * * * * * * * * * * * * * * //

dimensions      [0 3 -1 0 0 0 0];

internalField   nonuniform List<scalar> 
176195
(
203.031
51.0699
-254.101
-473.61
101.976
371.634
-103.758
-77.1944
180.953
104.604
-269.182
164.578
-445.761
327.817
117.944
144.379
-333.583
189.204
-157.767
259.684
-101.917
-91.469
199.985
-108.516
-362.87
348.162
14.708
-464.931
-8.67887
-228.288
352.162
-123.874
497.162
-360.138
-137.023
-164.13
342.006
-177.876
76.5029
-76.6482
0.145356
-47.6689
-315.201
-95.4301
51.7297
43.7004
-456.357
89.5239
366.833
-408.884
78.3218
330.562
-166.365
289.955
-123.59
-336.703
-109.058
-84.4062
187.267
-102.861
180.241
-178.582
-1.65824
389.209
-285.158
-104.051
152.202
-302.682
150.48
-296.65
247.126
49.5239
-80.6454
190.496
-109.851
18.7238
55.0262
-73.7501
-216.695
480.036
-263.341
-262.502
-176.362
438.864
-66.0996
96.9245
-30.825
426.341
-340.361
-85.9793
-252.024
-55.6655
307.69
-275.606
417.02
-141.414
-92.9045
-71.0273
163.932
-133.652
-92.6301
226.282
181.194
86.5225
-267.716
-197.956
67.5764
130.38
-102.529
-353.828
14.9819
-111.918
96.9359
90.5547
197.272
-287.827
144.606
-396.63
-59.295
-349.589
-122.119
-38.874
160.993
-108.947
290.141
-38.1605
104.376
-66.2151
-1.34171
77.8446
271.713
63.8059
-335.518
567.212
-316.908
-250.304
403.542
-153.235
-250.307
415.663
-536.355
120.692
-390.775
478.242
-87.4668
260.707
-95.3055
-165.401
-463.506
328.835
134.671
-504.3
450.909
53.3908
-121.003
-164.813
285.816
-315.589
-147.917
560.075
-367.738
-192.337
-130.813
84.2594
46.5535
35.1204
63.234
-98.3545
126.754
-223.14
96.3862
-513.975
328.241
185.733
-181.518
319.795
-138.277
339.399
-127.245
-212.154
-101.823
175.32
-73.4968
294.881
87.662
-382.543
9.2121
-410.233
401.021
-351.765
201.007
150.758
-209.516
397.357
-187.841
34.5444
-81.5383
46.9939
-543.144
259.234
283.909
-94.0572
169.306
-75.2486
123.145
-89.9077
-33.2368
337.749
-247.194
-124.762
63.4424
61.3197
-90.6724
-94.08
184.752
77.4021
-154.482
77.0799
-177.706
63.8604
113.845
208.78
-403.707
194.927
-295.085
-76.4829
371.567
-272.47
186.673
85.7973
-87.1079
-185.362
429.188
-432.18
2.99245
39.6871
-90.4759
50.7888
-318.972
581.529
-262.557
-125.118
225.215
-100.098
342.439
154.723
-108.83
170.005
-61.1749
-324.139
472.744
-148.604
100.179
-110.939
10.7597
-87.2236
441.579
-354.356
120.809
-52.3633
-68.4453
189.271
-18.6678
-170.603
207.007
-469.509
208.905
55.1577
-264.062
-415.955
309.518
106.437
-580.529
420.254
160.274
259.204
-318.542
59.3375
100.446
-60.759
35.7158
-135.326
99.6104
0.912374
99.2668
-315.528
-198.447
199.994
-445.904
245.91
333.73
-181.639
-152.091
-501.395
516.578
-15.1825
85.329
-179.386
177.515
-96.3625
-81.1527
-484.894
282.466
202.428
-42.8139
107.634
-64.8196
-146.329
221.429
-75.0993
-311.909
-70.323
382.232
-88.4471
197.344
-108.897
-54.3143
313.518
-130.656
-47.0501
138.967
100.266
-239.232
-159.546
53.8102
105.736
207.308
-347.6
140.292
-305.505
77.2176
-74.1169
180.033
-105.916
363.994
-541.867
177.873
36.8968
86.2478
-173.048
98.9312
-57.1362
-38.2939
-213.906
107.493
106.414
60.1553
-128.067
67.9114
-230.642
532.468
-301.826
-106.498
40.3984
-255.755
74.2368
-135.376
63.1947
72.1809
-173.472
-40.6131
214.085
-522.159
524.358
-2.19846
-102.81
231.553
-128.744
570.865
-290.053
-280.812
-136.762
144.071
-7.3098
541.142
-198.703
-329.452
481.135
-151.683
-151.752
230.648
-78.8962
-301.377
240.583
60.7943
62.7663
-338.372
147.095
-268.098
178.387
141.408
71.928
23.0402
-94.9682
-192.983
345.103
-152.12
503.759
-505.303
1.54372
371.993
-187.382
-184.611
-261.921
159.111
141.91
-532.685
447.684
-335.048
-112.637
-110.641
-145.114
-452.206
242.69
-225.181
-177.042
402.223
113.994
63.5212
57.432
-95.5924
6.91883
182.352
-567.688
273.172
294.517
124.468
136.238
-370.344
440.962
-70.6181
-411.946
100.037
-85.5245
210.315
-124.791
123.222
-123.042
-0.180336
-168.231
120.762
47.4695
141.3
-63.8983
145.045
302.639
155.554
183.845
-191.859
149.707
42.1519
261.799
-145.886
-115.913
140.59
166.675
-307.265
449.494
-257.574
-191.919
-52.9059
-108.883
161.789
-182.594
97.0697
-239.066
126.245
112.821
-235.47
154.091
81.3796
-101.735
373.448
-8.1131
-75.3791
83.4922
25.7481
51.3088
-77.0569
-71.5029
-83.1481
154.651
214.811
-441.736
226.925
-60.6246
86.3727
184.13
91.3197
-275.45
121.941
-340.672
218.731
278.057
125.485
-293.563
-138.885
432.449
-190.745
100.072
105.001
-247.508
142.507
-209.223
408.79
-199.567
-234.986
-249.907
-168.55
383.765
-215.215
95.641
-252.841
157.2
312.216
187.784
-130.661
323.656
-192.995
65.0661
55.7425
-110.57
294.701
-342.969
191.94
151.029
444.645
-107.717
-336.928
-194.958
109.429
85.529
-198.098
117.453
76.0068
-141.187
65.1799
21.1034
-81.728
-152.749
144.571
8.17744
54.6638
-138.92
84.2565
76.9501
140.387
-217.337
-559.504
386.561
172.944
-241.766
351.779
-110.013
368.871
63.9844
-432.856
481.326
-479.085
-2.24048
-324.286
165.535
158.751
128.169
-84.1246
-44.0441
366.47
-263.397
-103.073
-87.7954
382.676
-213.931
-204.374
418.305
103.023
-213.846
110.823
-57.6625
78.7659
12.8366
269.629
1.95835
-298.608
-384.288
297.064
-154.176
-69.9592
224.135
-83.9488
-111.01
-112.708
245.247
-132.539
-188.433
-138.142
326.575
67.739
-69.0807
-125.554
-258.157
383.712
130.966
9.41428
-140.38
132.143
-4.04842
-128.095
134.851
-333.632
198.781
-70.5502
129.491
-58.9403
-73.5505
-430.749
-230.65
60.227
170.423
-194.773
-88.3712
283.144
172.165
-62.7721
-109.393
148.195
-72.1882
-375.732
78.3078
297.424
-3.809
-423.221
427.03
73.8197
-121.074
47.2538
20.6906
-86.8742
66.1837
86.2815
-173.914
87.6322
-233.971
123.278
110.693
-219.056
-340.448
-648.848
288.96
359.889
398.839
-207.983
-190.856
-49.1016
155.887
-106.785
223.193
-154.069
-69.1249
-78.8292
113.451
-34.6222
-291.616
161.588
130.027
-127.081
-41.15
124.773
-89.0571
266.925
-207.941
-58.9838
-232.295
413.876
-181.581
441.313
-225.512
-215.8
126.459
-81.2583
-45.2012
-157.896
104.99
-62.6277
-28.3432
90.9709
256.818
230.088
-486.906
-361.707
228.405
133.302
228.214
-532.381
304.167
390.642
-231.213
-159.428
136.792
-112.166
-24.6256
-2.91331
-290.65
-26.5029
124.411
-97.9082
-585.324
312.331
272.993
507.493
-507.493
-192.654
101.185
383.207
-386.12
-2.9303
70.6693
-471.315
262.092
-59.2329
134.082
-74.8489
32.9505
-179.28
249.462
-144.858
-56.0958
116.251
171.272
-268.662
97.3893
59.6658
102.511
-162.177
-108.689
174.657
-65.968
414.677
-131.723
-282.954
-325.916
195.255
434.435
-156.378
-217.945
-73.6708
148.755
170.247
-319.002
-180.597
95.6754
84.9217
47.9086
-102.724
54.8158
-170.154
98.6516
-249
298.389
-49.3888
78.0992
-120.913
-123.575
-68.2839
93.453
176.769
-404.236
227.467
66.4914
61.6773
457.896
-248.964
-208.932
179.788
210.829
-390.617
29.4179
-260.068
499.685
-510.419
10.7337
125.686
-77.8896
-47.7961
9.62991
-112.71
103.08
112.139
-64.2306
-500.408
66.414
433.994
-112.409
36.8929
75.5162
334.84
-322.003
-254.159
408.879
-154.72
-492.536
314.135
178.401
353.595
-241.566
-112.029
-149.048
-198.944
347.993
-157.551
348.802
-191.25
-193.349
84.6599
-58.0482
-21.8535
79.9017
109.7
-192.33
82.6301
-63.7259
74.4102
-10.6843
298.43
-186.199
-112.231
89.0847
38.2412
-127.326
-134.746
267.054
-132.308
-248.921
160.922
87.9987
105.838
66.3273
157.809
-132.835
-24.9744
-171.753
293.694
-94.3887
-174.39
268.779
89.038
22.3289
-111.367
-84.9932
121.823
-36.8301
-148.728
99.6264
-329.108
164.978
-183.717
352.754
-169.037
384.649
59.9967
185.996
-418.291
264.484
-112.282
-117.29
59.3684
57.9214
-20.6557
-161.81
182.466
259.728
-385.282
-64.3
433.171
-35.0739
-124.473
185.849
49.8545
-235.703
-132.764
56.9469
75.8171
-379.459
9.11434
201.599
-407.066
205.466
26.9942
-85.0424
-85.2572
-27.1519
180.929
-275.318
-432.637
-67.7705
147.798
221.767
-369.565
219.403
134.193
178.422
-77.0847
-101.337
165.949
104.63
-270.579
-234.041
137.397
96.6433
79.752
-356.855
277.103
349.873
-205.494
235.25
-139.609
83.8142
100.735
-184.549
-111.803
251.555
-139.752
61.7185
-42.9946
89.261
-171.311
82.0498
257.235
-86.1647
-171.07
-179.35
-213.831
393.18
-174.695
-74.3051
-105.815
-8.97919
114.795
74.925
49.7559
-124.681
322.442
-173.981
-148.46
-167.653
30.8913
-500.23
339.786
160.444
374.352
8.85532
160.091
-281.971
121.881
181.578
-104.627
189.118
82.7345
-271.853
-44.5568
247.588
-105.393
-299.572
404.964
-178.173
387.118
-208.945
-119.336
262.031
-142.695
-136.578
243.865
-107.288
150.205
-102.956
-47.2483
-144.16
-53.7963
-197.478
106.77
90.7079
237.959
-119.695
-118.264
-438.103
332.711
-143.112
145.669
-2.55706
-179.586
103.354
76.232
308.153
-173.302
-169.052
473.112
-304.06
205.102
-107.932
-97.1702
30.7859
62.0962
-92.8821
68.9543
57.5053
25.0484
226.764
-251.812
95.3866
66.7927
-162.179
66.7915
312.86
-379.652
150.013
512.466
-96.8028
211.949
104.319
-316.268
-135.148
295.07
-159.922
139.871
-66.0516
209.651
-122.306
-87.3458
-73.3096
198.056
-124.747
133.496
-252.832
410.883
-231.096
-370.326
368.29
2.03517
96.8183
-76.1278
-57.1003
-31.9172
89.0175
500.826
-173.009
-70.7251
188.204
-117.479
-234.973
420.283
-185.31
252.834
173.367
-426.201
60.8675
-169.697
-470.634
253.939
-17.5339
149.677
-317.934
175.461
142.473
59.1312
98.6781
-316.21
-140.581
456.791
268.577
165.858
-74.952
-75.9797
150.932
92.3183
2.55013
-94.8684
-232.87
349.42
-116.55
97.0848
-106.97
9.8847
-136.588
359.851
-223.263
-61.1023
142.049
-80.9467
72.7907
105.578
-178.369
142.328
-471.781
-170.026
261.136
-91.1099
-106.302
241.093
-134.791
-119.009
177.118
-58.1085
251.026
-154.531
-96.4952
-263.827
89.4371
239.327
-418.677
-43.3093
210.949
-167.639
-209.891
84.7737
196.618
101.771
387.893
-119.316
77.8818
-154.574
76.692
353.421
70.348
-423.769
-205.433
422.721
-217.288
-232.81
-267.018
21.9315
-79.594
604.276
-383.049
-221.227
-49.9389
125.275
-75.3363
-120.596
35.6031
294.175
-373.339
79.1635
-116.22
189.011
-373.332
361.396
11.9358
334.743
225.332
151.561
150.478
-302.039
-518.093
389.481
128.612
-347.385
425.296
-77.9107
-98.4478
239.855
-141.407
167.602
-61.7639
124.159
174.271
124.774
-294.799
-127.284
268.265
-140.981
386.421
217.855
335.62
-328.79
-6.82989
325.13
-531.619
206.489
340.672
-131.892
-106.201
-415.958
57.8072
-211.935
154.128
72.9941
-147.946
352.827
105.069
185.084
-103.014
-82.0701
236.048
177.828
134.983
232.021
-367.004
-104.327
357.161
415.303
-200.492
-370.747
-17.4125
388.159
-291.149
-181.624
472.773
424.544
-288.979
-135.564
502.825
-259.389
-243.436
-62.7026
-95.1937
-56.1025
265.24
-209.137
71.917
81.8834
-153.8
78.2596
-132.747
54.4875
132.677
160.359
-293.035
-164.055
27.9774
136.078
10.6266
86.4582
418.532
-182.484
380.887
119.939
-310.955
-82.5161
393.471
-32.9366
121.975
-180.795
96.3891
-168.946
-223.414
392.36
-24.6245
75.9333
-34.1693
-129.886
167.04
-458.189
205.45
-28.0089
-55.9987
84.0076
215.732
-59.8448
-84.1498
-40.6123
-257.786
130.502
-82.0125
267.861
-324.599
499.755
-175.156
266.826
-435.772
405.838
-205.843
112.714
189.529
-302.242
-137.502
77.1759
60.3263
-367.305
488.595
-121.291
306.741
-226.989
570.544
-234.194
-336.35
111.029
104.703
356.421
-122.32
-234.101
-266.9
433.567
-166.667
144.399
-226.132
81.7335
-201.256
32.353
168.903
-105.238
-88.1108
114.31
-370.344
256.034
11.7815
-110.261
98.4793
460.954
-233.457
-227.497
298.833
-474.676
175.842
-224.739
181.43
111.381
93.7208
95.0009
-8.82648
-86.1744
252.503
-113.536
253.616
145.223
320.241
-181.308
-138.933
-316.917
205.314
111.603
-499.733
355.557
144.175
181.199
-94.9177
-107.999
171.208
-63.2092
-176.625
-72.2966
333.185
-39.0102
114.452
6.20765
-120.66
-110.54
194.354
-106.377
27.5473
-523.741
352.82
170.921
304.853
-144.762
221.897
168.745
168.591
-399.804
-474.439
238.071
236.368
-246.232
159.172
87.0601
116.429
-45.258
-71.171
-224.933
-199.539
424.471
109.681
132.199
-241.88
-406.232
277.396
128.836
-266.432
-139.8
-578.762
383.895
194.867
-279.713
103.089
595.859
-305.65
-290.209
-153.159
-178.966
332.125
-120.48
126.968
-6.48769
-158.609
269.753
-111.143
-241.83
143.382
-411.791
365.96
45.8303
74.8841
108.656
-183.54
-377.621
200.888
176.733
-107.604
-127.866
143.491
-108.034
-35.4569
278.292
109.601
574.312
-316.907
-257.404
253.284
-519.748
266.463
50.9755
-109.545
58.5698
86.0182
8.98274
-61.1942
142.014
-80.8197
273.435
300.877
68.0598
-160.964
-275.383
163.58
65.452
-30.9076
84.9587
153
346.806
82.3817
102.425
65.1769
46.264
-188.473
142.209
366.165
-515.714
149.549
-64.1427
326.66
-262.517
-32.2206
110.48
179.992
390.552
-145.978
365.672
-219.694
65.1193
-174.129
109.01
-345.127
-303.721
-62.2673
-35.6971
97.9643
9.05209
-129.532
-97.4495
109.231
166.969
-77.7079
181.811
-334.97
-134.351
73.4866
60.8643
-359.251
-83.5225
442.773
-338.305
522.137
-183.832
108.139
-379.748
271.609
33.6805
-114.948
81.2672
-85.8841
-289.848
270.072
120.047
-390.119
172.914
-115.107
242.233
-134.939
-107.294
530.739
-163.533
-367.206
-377.236
49.3687
327.867
329.804
95.3269
-425.131
-494.825
514.932
-20.1077
-137.094
-76.8124
-92.7637
152.429
143.988
176.253
255.492
-547.683
292.19
385.015
-375.803
447.336
-177.263
560.953
-303.654
-257.298
-220.538
240.02
-19.4813
-45.5129
159.965
-61.1762
-257.563
318.74
57.4416
450.052
-61.0573
-87.6707
155.024
-83.107
295.371
-162.694
131.038
54.2009
-185.239
165.106
-221.208
-94.9108
-53.6413
148.552
553.562
-553.562
64.0754
-125.178
275.312
-161.489
-113.822
-312.475
-180.062
-157.691
94.9881
-379.363
-122.032
-53.5276
84.3135
201.161
-327.776
169.306
158.47
10.8562
-384.188
100.691
95.7437
-196.434
96.8444
77.8128
91.0577
-19.1297
-64.7813
-312.455
63.6795
-214.768
151.088
24.6536
-395.4
-301.454
155.477
-139.313
-175.961
315.274
88.2911
286.761
-375.052
-328.314
501.195
-172.881
-97.5694
38.3365
-35.6825
59.618
-23.9355
-99.5459
173.41
-73.8645
227.236
179.058
-406.294
319.751
-207.037
395.142
-175.739
-308.936
-209.157
99.1923
-265.557
-210.778
77.1256
-411.384
306.903
104.481
79.9475
-439.198
98.8437
133.197
-232.041
-217.626
-161.793
379.418
-7.29972
-56.4262
95.1056
-128.042
-120.205
-206.915
327.12
-302.663
238.521
-102.245
-53.5159
155.761
-188.199
109.56
78.639
362.813
-525.043
162.23
318.071
-208.802
-109.269
147.224
294.089
134.432
68.0833
-202.516
390.711
-168.813
146.798
-514.102
223.051
-159.372
153.129
164.942
-64.5143
-346.87
215.064
-380.459
165.395
417.62
-242.741
-174.879
78.8745
-257.394
178.52
-217.989
-9.37785
227.367
108.954
-104.067
-4.88782
78.3363
-148.255
69.9188
195.275
199.867
-46.499
138.817
-341.298
421.245
136.212
232.481
-368.693
-105.152
312.459
83.5553
57.4408
-140.996
42.1992
-312.984
270.785
-126.616
135.668
279.424
-467.873
188.449
-87.985
219.023
273.663
-454.157
199.998
-138.317
-8.85112
147.168
22.947
129.998
-152.945
258.369
202.585
-67.6177
151.173
333.69
-25.9788
-307.711
-124.87
444.605
-319.735
103.329
285.88
41.8814
223.358
315.621
135.693
-451.313
330.313
-270.974
-59.339
-28.6522
-114.46
-208.054
56.3021
-66.3957
-31.3337
97.7294
15.6126
-82.0082
-311.718
176.57
-86.0879
-161.425
247.513
247.095
66.1774
-313.272
-222.161
-44.3883
266.549
-149.965
88.9074
73.6615
-173.207
-87.5795
-318.159
405.738
-73.1452
-144.8
528.17
-248.746
-73.3179
79.2617
53.7937
-133.055
-215.38
82.1231
133.257
70.4949
-90.1368
19.6419
109.314
164.633
-273.947
-178.457
105.538
72.9189
-130.858
319.977
-107.013
-103.067
210.08
-330.577
-212.567
-240.7
129.393
111.306
-229.383
527.187
-297.804
423.241
-308.931
-66.3543
-89.0751
155.429
-62.8101
89.8043
-184.673
326.378
-141.704
-122.942
269.256
-146.314
166.081
-70.9505
-95.1306
-261.352
369.49
76.3515
-22.173
-54.1785
-268.292
273.915
-5.62222
-245.611
87.8438
199.463
5.74557
-205.209
-187.877
383.773
-195.897
116.047
-55.5103
-60.5363
237.433
-485.715
248.283
-497.673
173.534
165.087
-34.1211
-129.622
3.00589
-187.779
90.7822
96.9968
-154.41
369.474
153.74
-88.6206
77.022
-418.32
-55.3487
-74.3275
129.676
-108.012
-509.176
356.397
152.779
251.684
78.6285
-312.616
-157.033
469.649
-76.3452
298.841
83.886
-133.825
-56.4321
-124.165
-243.455
-252.266
495.721
-207.822
-248.036
455.858
-258.07
260.572
-2.5026
322.601
-255.81
-293.449
-206.781
340.747
-509.799
96.2694
98.1179
-194.387
-386.941
218.831
168.11
155.242
225.644
-75.6412
135.296
-59.6545
-330.337
526.49
-196.152
-117.607
61.8807
55.726
-147.351
68.6817
78.6689
35.8971
-71.5796
-68.3388
398.143
57.3745
94.9486
-152.323
503.097
-187.476
-158.255
263.255
-319.156
161.605
-284.949
284.949
-132.562
231.405
-550.925
284.344
266.58
-299.865
-75.1499
375.015
188.065
-141.801
-80.9705
76.1863
4.78422
-218.366
81.788
125.553
-485.691
41.02
84.6656
-125.6
-315.407
441.006
-230.903
367.116
-244.117
131.409
510.01
-265.544
-244.466
-181.752
-36.2366
151.784
-333.422
-574.472
401.998
172.473
-290.169
-147.336
-183.106
33.7239
149.383
-32.4492
-108.743
141.193
138.731
113.772
-108.622
136.592
-27.9698
-6.46102
105.435
-98.9742
209.795
-209.162
-0.632602
209.314
-338.053
128.739
50.6629
-158.662
-76.275
-148.464
96.4841
-181.432
84.9477
-396.138
-242.136
320.714
-78.578
78.5226
37.5239
5.70246
-174.095
168.393
-156.389
-195.376
165.645
-389.655
224.009
-162.736
96.3819
34.9787
39.4032
-74.3818
38.5451
-140.79
-127.758
218.073
-90.3154
148.158
115.048
-263.206
-158.753
-282.742
441.495
171.534
-419.872
248.339
106.059
-99.1445
-6.91446
-541.035
308.792
232.243
476.617
-327.876
-148.741
-501.309
176.71
-65.0637
129.139
-80.4903
-100.305
288.998
-393.325
-344.289
-130.151
-214.017
-113.759
-376.688
155.171
221.517
-209.713
136.568
-43.0937
301.336
-258.242
-85.1091
-235.015
127.411
146.607
109.056
-255.664
257.991
-452.871
194.88
200.113
-97.09
-317.015
108.214
217.937
-91.1831
-326.656
-112.99
439.646
386.087
-220.442
-329.914
334.426
-4.51181
-75.554
126.603
-51.0491
-390.208
176.378
-305.307
127.876
177.431
124.817
-124.817
-198.22
-254.158
452.378
472.201
-395.179
71.353
-266.126
1.64791
332.042
331.728
199.011
-225.938
-60.6869
286.625
77.6673
-15.3852
-62.2821
-67.0189
127.522
-60.5027
-189.728
116.537
73.1901
-322.825
-244.864
-139.681
44.7704
121.812
-42.5504
-274.762
-305.767
-141.738
80.5443
139.207
202.799
67.5289
34.8575
-102.386
-97.1628
155.033
-57.8706
384.634
176.319
-165.371
-114.343
-335.41
-173.766
-155.745
-94.7455
250.491
-69.7942
-268.987
338.781
-308.584
165.91
142.674
-86.1633
-93.1151
179.278
335.961
-506.539
170.578
207.259
-352.749
145.49
234.363
-422.208
187.845
-75.4709
-55.3419
-235.141
158.866
177.217
-398.551
221.334
-127.189
94.7395
-364.579
122.813
-214.961
370.203
-46.7429
86.6493
-39.9065
118.315
-139.78
21.4657
23.731
-86.3587
-158.048
367.362
483.445
-465.486
-17.959
-88.5928
122.273
-74.8064
127.705
-52.8986
259.105
-457.325
-47.5868
102.651
-55.0646
-142.683
283.273
390.718
-507.101
116.384
233.809
57.9851
-291.794
50.9127
-107.766
56.8532
-35.462
105.957
57.6011
27.5537
-85.1547
-35.1324
137.204
-102.072
-10.106
144.521
-134.415
161.169
-64.685
393.657
-140.041
-78.2897
250.165
-171.875
-303.483
-43.9024
183.106
-103.945
-79.1612
173.569
-290.432
116.863
-234.261
-151.513
385.774
-60.6624
178.977
-272.013
156.614
115.4
211.91
-340.179
128.269
-328.289
205.238
123.051
250.393
-135.676
-114.717
-136.48
61.8876
74.5922
191.537
-405.468
-105.688
-79.9404
185.628
-47.9634
-125.596
173.559
81.795
-208.968
127.173
-74.2424
169.629
169.382
-89.7625
-79.619
-57.9705
-111.862
169.833
-38.4234
133.529
-157.335
-116.372
273.708
-302.26
-8.48905
310.749
62.3299
-127.607
65.2772
163.339
93.8953
116.158
101.779
-133.403
128.407
4.99602
-183.106
-55.6834
446.401
-87.4433
102.425
384.287
16.6447
-400.931
397.029
-334.263
-469.016
175.567
61.6504
64.9809
-126.631
-79.7195
-37.5703
87.2044
-254.622
167.418
122.332
-364.468
-170.082
-19.627
253.436
-64.9892
264.452
248.286
160.504
-406.13
218.253
-136.129
60.4881
391.081
-162.867
195.829
-84.2484
-111.58
255.466
-325.26
288.867
-162.356
-126.511
225.039
-203.092
-21.9473
134.212
-71.8822
-223.998
-231.976
455.974
-201.222
40.854
160.368
492.102
-485.345
-6.75666
234.901
-62.7551
-172.146
255.183
255.732
-510.915
232.051
-150.256
-160.602
299.465
-138.862
-152.999
304.56
-120.899
203.091
-82.1922
-184.781
-139.505
33.0503
-84.8516
51.8013
82.9868
-190
355.888
116.313
-299.92
-111.87
-55.9426
-159.437
110.643
-43.1143
-163.242
264.39
-101.148
-54.6791
89.7995
108.09
-40.1733
-67.9171
-138.266
80.2959
-579.841
351.575
228.266
66.7504
-115.897
49.1469
-168.503
255.708
-61.8808
123.957
-62.0766
66.7488
41.3416
-149.322
364.293
-214.972
-81.8584
-100.339
182.198
-56.5426
-31.3368
87.8794
320.176
-134.142
-186.034
217.95
-88.8198
-129.131
-381.966
-307.445
-161.571
-85.1515
-30.2129
115.364
126.705
-303.707
177.002
77.7212
-44.6709
-124.786
59.7221
104.273
-399.357
303.218
-97.9045
-167.586
96.861
-175.775
105.827
69.948
337.315
-130.057
146.005
-117.961
-28.0446
-104.276
-71.4981
55.0148
-151.676
96.6609
94.1013
-174.592
116.702
-57.0444
-92.957
150.001
-103.593
214.072
-110.479
139.342
-35.9999
-103.342
-266.879
-35.3809
126.132
83.5196
-73.2227
10.4126
-72.1349
170.882
-98.7472
-100.42
101.066
-0.645847
-97.7293
-69.2566
-84.6166
153.873
496.095
-392.683
-103.412
402.138
-113.14
131.165
-108.218
-425.592
463.768
-38.1756
-169.416
299.475
-130.059
-232.895
304.248
90.4336
78.948
-72.6612
-106.925
-90.8556
262.128
-151.96
281.374
-129.414
-37.6919
123.607
-85.9149
-290.67
161.749
128.921
109.122
-58.1462
-42.6918
-47.2159
-220.236
-195.127
415.363
146.945
349.15
-472.043
264.222
222.282
-222.282
-116.124
107.185
8.93935
185.481
-107.22
-78.2606
246.069
-540.151
294.083
168.971
151.205
-249.321
353.273
-103.952
107.707
-40.957
-190.724
121.087
69.6367
156.916
330.105
-487.021
253.684
-114.953
-321.789
163.538
158.251
79.4004
-182.1
102.7
276.634
159.387
-436.021
-187.288
105.43
40.5446
-133.892
93.3478
139.489
-174.621
-179.319
406.555
-192.21
102.946
89.2641
165.846
-99.2629
-66.5835
-102.92
370.411
-267.492
325.069
-159.964
-39.1843
118.151
-78.967
188.486
181.099
-369.584
-217.392
-254.651
-90.3815
348.373
89.2724
-167.348
78.0756
-197.484
395.642
-198.158
155.927
-76.5263
312.218
-211.286
-100.932
158.432
-80.5505
-212.437
-98.2643
51.5214
-620.589
303.681
135.437
494.704
-502.544
7.84027
210.564
179.504
-390.068
105.865
40.14
-327.402
-172.331
135.835
-156.491
26.1155
-284.185
-66.4149
-28.53
94.9449
163.113
-298.726
135.613
49.6303
305.927
-130.643
90.615
40.0278
50.6255
-176.221
69.2288
-117.66
48.4308
257.845
98.5756
253.984
-167.621
-86.3627
102.929
6.02571
-398.08
281.018
117.061
-259.898
-360.691
186.317
48.5842
152.184
-474.863
322.678
-64.7053
-82.2038
146.909
34.391
-118.312
83.9212
311.146
198.864
-5.96474
390.251
8.7411
-120.659
426.599
-149.965
73.1347
-153.069
79.9347
-477.974
271.573
206.401
-203.723
-255.153
458.876
-366.437
566.416
-199.979
279.57
146.771
-173.647
241.682
-68.0346
-148.685
258.366
348.176
-273.868
-74.3078
-173.329
287.115
-113.787
-187.684
-155.285
-50.0136
-227.734
277.748
68.1556
46.8085
-114.964
170.333
-95.4493
441.857
-375.102
-66.7548
-188.804
99.3012
89.5025
79.6829
277.461
-357.144
66.0196
-31.0409
343.357
98.4996
-92.6113
133.156
-103.634
-27.009
-226.286
514.746
-288.46
0.535633
188.81
-189.345
222.861
-396.309
173.448
-76.0744
-38.7666
114.841
293.667
99.9899
-77.3359
-16.2048
93.5407
-177.942
167.518
10.4241
-194.746
116.738
78.0075
184.471
386.394
90.5513
-32.9502
-275.751
-122.329
224.905
-448.903
414.161
-510.64
96.4781
111.67
214.371
-31.4941
-182.877
147.526
-92.5107
81.7087
-408.364
-69.1784
-78.8594
148.038
95.3234
-4.25697
-91.0664
-130.272
24.4561
124.358
126.669
157.781
-337.064
179.284
-85.9219
148.691
-62.7695
156.415
-353.899
347.641
-220.936
338.696
-83.2298
-375.741
-209.583
-282.71
466.617
-183.907
428.682
-323.468
-105.214
-9.27791
-354.659
363.937
-347.59
-178.427
526.017
-195.855
-5.4008
110.737
-41.5084
-528.334
275.648
252.686
-225.249
-76.1277
-87.6888
-48.791
5.68603
100.373
-41.2942
104.528
-557.032
382.675
174.357
87.7583
-144.803
-22.3392
81.8525
-59.5133
173.758
-145.969
190.398
-314.883
124.485
317.042
-250.927
-66.1152
87.1765
-397.066
309.89
209.729
-93.5704
119.131
247.339
-90.1641
-98.0352
115.386
-64.4737
472.875
-303.727
-169.148
-265.815
362.172
-96.3569
-74.528
186.633
286.241
-417.626
31.8696
385.756
-280.517
-190.799
108.642
-195.574
86.9314
-136.249
-75.9124
212.161
109.521
201.825
-311.346
34.0086
-278.84
-249.494
-58.1854
-14.9273
73.1127
-204.447
328.495
-124.049
495.91
-183.05
405.506
-65.72
-285.816
151.07
93.1514
2.17195
-269.98
-39.461
309.441
63.0502
-379.26
-408.001
141.101
119.348
-15.02
-104.328
164.622
-244.273
79.6518
-114.711
262.869
-458.568
333.698
5.80811
-109.875
498.464
-155.107
-235.461
405.639
-170.178
197.474
-329.898
132.424
477.141
-114.328
40.3658
96.4257
-299.144
125.497
307.716
-172.36
-135.356
-177.547
295.14
-117.594
139.861
356.049
161.591
-266.678
105.088
390.205
-112.809
362.264
128
-490.265
322.739
-221.302
-101.437
487.255
-516.559
29.3037
137.269
-107.408
-29.8609
365.173
-276.882
-8.68465
-129.632
-85.8537
-172.859
258.713
102.17
-157.697
55.527
-89.8089
47.1171
-306.808
474.474
-167.666
-87.7992
-46.5518
-192.023
192.558
92.9484
18.1198
-91.5877
73.4678
294.134
5.45531
-299.59
-79.6855
36.3464
43.3391
-101.211
454.632
160.381
128.485
-144.303
307.416
-234.073
160.763
343.405
53.6239
-161.312
-160.476
19.2061
216.044
-247.196
81.8251
-129.398
225.884
-96.4856
28.981
-82.5086
406.248
-195.684
-382.104
385.443
-3.3389
-132.081
494.345
64.1294
-129.742
65.6122
106.566
-62.4756
-126.945
189.421
-157.598
169.845
-63.9795
123.047
2.74686
-125.794
71.7212
-117.564
45.8427
-248.171
141.869
-97.0045
-61.7334
158.738
-267.6
-295.8
124.11
171.69
111.136
-76.7446
57.4205
-118.634
61.2137
52.7774
-189.026
124.107
142.947
-100.765
233.772
-133.007
-70.3596
24.6039
45.7558
-79.0931
157.225
-78.1314
-374.416
205.866
-184.608
373.093
144.25
-262.496
118.245
227.656
166.654
-394.309
-44.6654
-31.1447
75.8101
330.644
98.038
312.781
-129.213
-183.568
-161.229
405.707
-244.478
173.085
-70.9998
325.581
-254.581
327.731
121.61
-449.342
474.529
308.253
147.965
-456.218
255.458
-472.85
189.895
-29.0109
-160.884
-342.52
187.037
155.483
-128.397
-25.6248
154.022
82.4815
20.8469
-103.328
-70.8919
-66.6103
10.2511
-392.355
-357.193
207.871
64.6186
179.308
-243.927
-377.796
306.796
213.749
131.15
-344.899
-56.1154
114.988
-58.8722
-109.683
-141.011
250.694
568.754
-256.538
56.8171
123.423
-143.194
-274.393
417.586
-113.901
164.526
-230.564
394.964
-164.4
-357.737
38.7277
319.009
-184.838
-278.901
463.74
-54.6639
-92.6867
-564.7
366.716
197.984
296.515
-175.868
-120.646
-132.422
346.171
-158.566
61.5617
99.4459
-168.624
124.344
71.4848
-156.266
-490.755
250.811
239.944
-175.14
70.8635
-260.406
98.9164
-276.367
-303.474
-61.2669
-241.396
104.491
-336.825
232.334
-199.235
-174.007
64.3913
109.616
-242.808
-74.2073
-107.787
-40.3309
148.118
-42.6241
-37.8852
80.5093
-319.737
216.818
7.91909
-80.8242
72.9051
151.179
-182.673
162.782
-370.794
208.012
10.1613
-280.142
-181.211
308.094
-126.883
-216.339
242.454
111.214
-123.687
-83.9646
207.652
417.693
-426.971
62.0752
-99.7671
284.596
195.86
-480.455
-108.083
-67.0568
-81.9331
262.862
371.623
-377.588
90.3071
-7.82562
416.525
-130.581
-285.943
112.892
155.497
-268.389
122.286
-34.8836
-120.283
155.166
240.727
-97.8436
-142.884
343.638
46.5667
159.579
-57.409
-502.089
173.775
64.2582
-126.139
-123.792
64.2835
59.5084
-20.4171
113.537
-93.12
-137.208
-78.5141
215.722
35.1885
-114.759
79.5703
-116.494
40.4197
179.553
-189.097
9.54376
224.155
-280.429
56.274
-216.243
79.0355
-80.8554
-73.6265
-65.3127
-73.4017
138.714
142.83
193.095
190.678
-220.981
177.888
150.709
-105.969
-44.7399
-383.05
266.338
116.712
228.825
-95.6277
332.244
166.22
335.575
110.756
-446.331
-130.721
-131.199
-538.005
251.419
286.586
202.584
-294.223
91.6389
137.111
116.873
-105.52
66.3356
-46.1555
104.79
-58.634
-277.911
-226.684
504.595
-456.021
434.086
21.9353
-262.937
108.761
-120.025
-456.525
-21.3158
477.84
219.805
251.476
-471.282
-124.955
-180.352
-152.56
-138.11
138.238
-15.1912
-344.566
140.843
-14.4804
158.879
-80.8933
-271.171
168.946
102.224
76.3495
64.9509
-132.701
-142.991
275.692
104.327
-86.2072
417.826
-290.64
-127.187
-140.76
338.234
-228.062
-19.4459
456.915
24.4109
-105.651
-70.2442
175.895
455.179
-0.116162
-455.062
-101.736
321.125
-219.39
111.265
77.6263
-188.892
-382.982
224.021
158.961
-124.295
-109.489
-161.682
132.301
-68.1716
-116.195
296.415
-180.221
145.188
136.06
-281.248
-140.197
-50.5263
-256.558
-184.294
440.853
117.995
476.358
-331.762
-144.596
-145.308
140.179
-88.9613
-51.2174
29.3443
-85.343
206.972
-271.961
291.533
-352.8
-416.777
352.477
185.025
-309.98
228.632
189.9
446.513
-212.15
-215.467
137.177
92.3086
74.6603
-94.4752
94.2138
-114.631
-273.864
294.161
-20.2968
-282.225
-19.2295
76.9244
-138.087
61.1622
120.725
289.132
-165.022
244.768
-134.454
-110.314
-55.3248
84.3058
-272.356
107.784
-170.26
300.655
-64.8882
-235.767
-268.971
488.776
486.143
-153.899
-366.661
262.59
104.071
-22.3619
477.54
-211.32
412.919
-85.9091
-195.9
281.809
106.611
-256.302
149.691
15.8759
298.259
-334.523
-247.252
581.776
155.539
-354.962
199.424
-292.032
391.928
-99.8956
-126.51
434.763
343.942
-131.993
169.324
-90.0125
369.152
-279.139
-56.7701
-22.9154
-202.589
115.997
86.5919
177.148
151.347
68.8994
-62.6467
-277.246
339.893
-386.023
-78.9076
-129.4
-205.648
-344.459
228.265
-411.31
411.31
111.913
-326.584
214.671
185.81
-346.715
160.905
219.232
81.423
51.9704
32.0194
-83.9898
214.638
-376.43
287.917
-472.756
240.698
-42.6413
144.462
163.691
71.6396
193.004
-264.643
133.329
-98.8103
-34.5192
-72.185
-291.082
363.267
102.839
-183.942
81.1032
-48.7362
146.114
-97.3782
330.434
5.18543
-74.1306
76.6807
-271.162
318.166
-47.0039
44.3324
145.563
85.5721
20.1917
-105.764
-320.352
-37.3851
32.5736