/*--------------------------------*- C++ -*----------------------------------*\
  =========                 |
  \\      /  F ield         | OpenFOAM: The Open Source CFD Toolbox
   \\    /   O peration     | Website:  https://openfoam.org
    \\  /    A nd           | Version:  7
     \\/     M anipulation  |
\*---------------------------------------------------------------------------*/
FoamFile
{
    version     2.0;
    format      ascii;
    class       surfaceScalarField;
    location    "18";
    object      phi;
}
// * * * * * * * * * * * * * * * * * * * * * * * * * * * * * * * * * * * * * //

dimensions      [0 3 -1 0 0 0 0];

internalField   nonuniform List<scalar> 
44730
(
-595.446
667.815
-72.3691
1063.21
-1072.34
9.13026
-334.767
381.833
-47.0658
225.056
-259.576
34.5203
-498.349
498.349
218.352
-262.828
44.4751
-376.4
374.218
2.18186
27.0693
-565.045
537.975
663.904
-833.662
169.758
-1009.32
1102.28
-92.9653
557.224
-145.715
-411.509
-532.468
536.458
-3.99039
-687.795
582.642
105.153
-859.812
868.872
-9.05977
248.014
63.0571
-311.071
385.415
-10.3177
-375.097
814.529
-666.879
-147.651
-394.553
404.714
-10.1609
161.003
314.798
-475.8
290.234
-356.679
66.445
-594.005
81.6773
512.328
724.57
-60.6654
49.7017
-384.468
136.494
-489.358
352.864
241.483
-135.177
-106.306
1067.59
-4.37548
659.817
-680.955
21.138
-275.158
-9.28626
284.445
288.263
-40.2487
-442.5
543.93
-101.43
953.568
-248.858
-704.71
-671.504
761.157
-89.6525
251.225
-226.206
-25.0192
480.242
-71.6831
-408.559
139.152
-414.31
266.187
-432.163
165.976
432.201
-577.607
145.406
291.781
-39.9591
-251.822
824.837
-979.501
154.664
1062.36
-237.524
-1018.21
1035.73
-17.5238
402.004
-90.5162
-311.488
704.042
110.488
191.852
-313.242
121.39
1228.48
-777.709
-450.77
-591.283
148.783
538.044
-538.872
0.828566
230.495
645.54
-876.035
224.925
537.266
-762.19
-105.608
537.809
-381.022
165.998
215.024
-11.5736
-226.281
237.855
-666.939
-4.56502
239.031
-20.678
423.927
-38.5118
-267.401
-45.3933
312.794
524.426
-499.692
-24.7339
-34.289
-559.716
-464.597
43.3752
421.222
-299.257
-29.7546
329.012
799.5
17.5784
-817.078
-409.16
570.163
6.21664
-239.676
233.46
-218.18
484.367
-312.598
427.5
-114.902
263.466
245.703
-509.168
496.599
-124.613
-371.986
429.014
-48.7081
-380.306
-453.955
-31.846
485.801
-986.713
-31.4936
1060.56
7.03196
292.338
291.008
-583.346
-243.641
547.243
-303.602
167.062
89.4182
-256.48
-431.544
381.403
50.1405
-369.465
385.8
-16.3353
270.964
-152.7
-118.264
-250.936
-59.9124
310.849
-699.292
16.5391
682.753
408.346
-90.9457
-317.401
-252.567
252.567
87.4357
-761.497
674.062
-663.868
68.4219
-947.218
848.229
98.9891
-321.211
-55.1884
-19.2694
215.305
-196.036
517.946
-141.135
-376.812
-644.515
-43.2806
652.435
-69.7931
96.7772
82.168
-178.945
-358.132
93.5758
264.556
-308.633
57.6964
846.335
-621.41
563.036
-595.891
32.855
222.853
-93.6439
-129.209
-351.997
126.461
225.536
-24.6319
255.672
-231.04
-846.73
847.479
-0.748408
-33.4826
-158.588
192.071
258.522
4.2524
-262.775
-711.447
12.1552
-265.001
282.757
-17.756
778.733
20.7669
431.326
-634.027
202.701
204.061
-215.635
-754.084
816.5
-62.4162
638.409
-717.509
79.1008
74.6648
577.77
943.841
-846.976
-96.8651
-217.409
244.602
-27.1927
200.055
51.1704
356.055
119.639
-475.694
1009.1
-256.885
-752.21
18.2812
563.858
-582.14
-12.7452
-587.436
600.182
538.443
-246.104
103.873
424.018
-527.891
-303.141
407.379
-104.238
76.7388
-814.826
738.087
-699.061
455.42
12.7768
-213.078
200.302
19.326
-854.964
835.638
-320.987
318.087
2.90013
-40.1572
303.623
24.0624
-890.848
866.786
-345.733
343.51
2.22257
-74.3721
-320.181
12.661
-289.178
276.517
704.177
-786.783
82.6054
726.131
-860.282
134.151
-151.602
343.454
171.176
99.7877
191.456
-205.455
13.9986
299.431
-305.739
6.30756
-126.078
557.404
626.408
327.16
151.134
65.0158
-216.15
275.861
-315.112
39.2515
222.858
-255.322
32.4647
-23.3202
281.843
-351.769
6.03619
1.79507
-185.841
184.046
221.46
-59.5247
-161.936
181.124
827.972
-198.074
-739.275
937.349
-101.136
-397.213
523.007
15.0363
233.257
-226.466
-6.79104
272.233
-224.428
-47.8049
31.6116
-221.08
189.468
-397.186
634.317
-237.131
51.9187
509.113
-561.032
984.096
-886.52
-97.5751
790.899
-787.088
-3.81112
-572.732
-237.88
810.612
-145.858
722.098
-576.24
454.746
-443.631
-11.1151
-205.174
-6.87417
212.048
35.6035
-763.829
728.226
-164.598
-216.424
-246.007
232.413
13.5937
242.276
-17.2201
20.8617
1020.87
-572.446
-448.425
735.194
-933.268
-399.038
95.8973
12.7619
208.698
16.4961
-778.258
761.762
-90.3796
-856.839
417.051
-451.998
34.9468
-106.7
832.831
53.9874
-736.56
682.573
-204.134
-1.04016
275.861
5.06787
249.274
-254.342
-432.483
432.483
82.6919
679.704
-762.396
-313.88
48.8781
-579.611
597.892
322.111
-309.253
-12.8587
-777.831
-63.2695
841.1
-147.332
449.585
-302.253
428.132
89.8141
429.379
-442.662
13.2829
266.61
-43.7524
-210.295
-323.691
533.987
500.917
-381.24
-119.676
-328.375
18.696
309.679
785.585
-81.4075
-520.301
-79.9877
600.289
-661.065
661.065
-127.957
503.228
-375.27
94.7062
-348.964
254.258
-919.576
346.844
306.532
-357.767
51.2353
436.809
17.9376
814.266
-499.05
-315.216
913.766
-64.1332
-849.633
75.3041
147.549
-847.299
614.341
232.958
-21.6015
270.3
-248.698
-209.503
224.267
-14.7638
-43.7048
-488.763
875.122
-890.208
15.0868
-52.9998
429.549
-12.4971
788.504
-792.358
3.85386
247.025
-13.7677
24.8679
-242.277
822.128
-963.814
141.687
240.871
-343.492
102.621
570.616
-570.616
899.941
-93.235
-806.706
594.218
73.0839
-667.302
59.0285
-330.138
271.11
-175.911
259.24
-83.3284
-475.05
327.718
53.4038
735.1
-392.966
529.461
252.26
-176.956
-684.033
-176.249
484.632
-630.49
453.494
-501.06
47.566
-896.277
1030.96
-134.685
-580.141
555.643
24.4979
506.174
-582.187
76.0121
129.303
732.743
-862.047
211.273
530.738
-742.011
723.346
505.132
322.169
740.192
324.079
-232.216
-91.8635
-294.645
294.645
370.944
-401.911
30.9672
-28.2348
1088.79
269.488
-323.052
53.5646
531.269
-479.35
-297.429
-562.383
551.617
-565.418
13.8013
-29.2909
904.413
262.409
-284.011
-230.541
204.532
26.0087
498.94
-587.688
88.7485
-197.653
959.066
-761.412
588.741
-82.5662
771.945
-383.479
-388.466
338.71
-48.4756
471.993
548.878
-204.532
185.263
-743.847
59.8141
-932.861
36.5834
477.559
46.8677
-679.892
891.165
-692.168
-61.916
187.433
-203.831
16.3989
-74.0057
915.223
-841.217
-38.0537
-817.792
855.846
182.249
-180.454
47.7515
172.542
-220.293
-8.53383
-366.005
374.539
325.478
-312.817
-607.122
209.937
-233.539
436.753
-203.214
908.556
-678.06
304.288
19.7916
302.205
-10.4763
-291.729
-568.228
160.426
407.802
460.597
-31.2179
517.684
-727.98
-369.156
-0.308513
646.785
-746.166
99.3807
-232.603
158.151
74.4516
-656.191
638.952
17.2382
225.529
-220.461
72.3809
179.879
-743.291
825.982
-305.28
319.2
-13.92
68.0207
-363.057
295.036
231.225
-208.948
-22.277
526.362
-328.561
-197.801
9.20253
-346.792
337.589
-497.221
484.476
-68.9821
269.974
-200.992
-661.798
158.797
503.001
-344.254
-7.7427
653.775
6.04192
445.244
-21.3179
-160.422
7.87803
152.544
-22.974
724.805
-701.831
-853.487
982.79
321.149
-151.57
-169.578
677.318
-775.104
97.7862
424.309
347.636
706.324
59.6505
-765.974
818.102
81.8387
551.089
-524.393
-26.6961
1093.72
-1012.32
-81.4065
3.78728
-294.907
291.12
283.873
18.3322
99.8989
141.584
210.844
-19.3881
197.432
-199.534
2.10213
142.656
149.907
-292.564
-303.873
283.711
20.1622
-162.292
-299.007
461.299
420.363
-548.32
-319.172
198.694
-193.088
-5.6063
194.594
1009.19
-562.308
-446.887
525.835
-109.114
-416.721
128.266
510.143
81.6888
469.4
1.12417
-693.61
713.67
-20.0608
45.3972
-547.487
502.09
-89.6511
-249.171
338.822
-448.61
39.0465
409.564
-140.431
-335.986
476.416
779.997
-1.26446
23.6294
195.666
-379.91
184.244
155.37
-224.353
-920.798
849.415
71.3824
-295.206
306.192
-10.9864
670.943
-84.6082
-586.335
1047.01
-603.805
-443.205
196.869
-191.949
-4.92034
266.427
-110.566
-155.86
-421.266
418.104
3.16253
663.03
-31.3826
-631.648
-694.967
1.3575
376.689
31.6573
-556.412
443.405
113.007
583.795
-578.284
-5.51063
-855.761
44.3997
811.361
856.373
33.1981
-889.571
-424.51
284.079
-202.7
42.2776
-327.327
532.59
-205.263
-183.129
-47.4119
754.994
-793.048
-147.561
195.312
535.374
-167.727
-367.647
-123.519
-308.963
218.292
-218.873
0.580281
619.575
43.4553
683.417
-608.752
22.6809
-302.244
279.563
837.634
-876.442
38.8076
-303.245
-6.00801
955.901
-959.081
3.18063
56.6245
192.077
-248.701
680.231
-33.4458
569.49
-592.9
23.41
-829.321
848.647
202.067
-189.29
786.442
212.106
746.96
149.065
197.201
-346.266
-299.104
-7.48843
820.461
-66.7972
-753.664
598.128
-129.515
-468.613
249.79
-83.792
82.9484
413.651
84.0085
-259.92
473.808
-503.86
30.0524
142.108
-348.489
206.382
137.633
388.73
53.1698
860.596
653.083
-773.242
120.159
-22.6579
978.559
-280.39
-17.8943
298.285
-221.017
205.999
15.0186
-7.97061
175.033
48.3078
452.609
335.044
-343.578
-350.49
37.8916
-341.842
42.5846
838.341
-58.3441
80.4029
-226.776
146.373
-955.125
22.2641
-918.81
-36.3153
-486.28
57.4229
428.857
-733.049
901.947
-168.898
-197.072
-65.0186
262.09
-118.252
-88.5035
206.755
-159.016
-41.4047
200.421
-127.908
228.05
-100.142
853.461
415.868
-220.202
153.981
-12.3345
-567.807
-879.416
-41.3812
449.196
148.931
190.49
-517.817
200.767
-1107.07
906.307
24.0691
205.236
-229.305
-5.61986
-203.883
418.539
26.7055
89.1386
701.76
280.141
6.47862
-286.619
-470.122
573.995
728.794
72.8159
-801.61
-778.928
-7.85504
801.402
-855.524
54.1222
295.94
-279.854
-16.0859
84.7569
236.392
850.811
-864.952
14.1404
978.827
-862.147
-116.68
939.178
-943.722
4.54375
-392.69
-163.722
-3.42472
-872.88
545.599
327.282
-181.627
161.873
19.7544
-245.103
387.76
140.169
91.5206
-231.69
756.328
261.047
-254.83
431.628
94.2068
783.169
-696.982
-86.1869
-52.5745
-100.756
-95.0006
195.756
-307.125
261.229
45.8963
862.595
-838.532
-21.4851
379.305
-357.819
-326.055
-25.7144
571.098
-583.59
12.4912
367.681
-327.448
-40.233
-828.531
731.222
97.3085
-905.811
831.805
142.698
123.728
-405.988
276.634
129.354
467.81
-453.843
-13.9674
621.183
-622.649
1.46543
518.075
-44.2673
-309.29
-136.962
446.251
7.91317
-288.304
-69.8398
-248.31
318.15
544.287
563.931
-1108.22
-900.865
849.218
51.6471
-0.933023
-404.795
418.632
-13.8376
431.722
-399.64
-32.0823
672.58
-846.223
173.643
711.418
-882.152
170.734
-503.056
-158.742
-431.779
63.3396
368.439
304.449
-6.23196
-298.217
-326.827
167.811
476.113
81.1111
-719.711
-108.82
9.90507
187.527
-301.602
302.092
-0.48948
29.5051
-333.011
303.506
489.949
39.7338
-529.682
-234.327
302.13
-67.8039
-896.193
-19.6387
915.832
-202.928
-33.1287
236.057
6.52668
-846.728
840.202
804.707
-118.406
-686.301
340.409
143.268
-213.107
-874.875
-21.3184
808.625
40.7898
-2.66562
545.699
-189.644
-507.166
-18.0237
525.19
-801.991
913.794
-111.803
313.564
-245.544
-400.461
310.81
-30.0711
590.686
63.0891
383.498
-241.391
305.965
508.301
-13.648
25.6795
342.001
-776.934
86.1362
690.798
456.539
95.0782
-134.183
-25.5896
159.772
-851.805
-23.0699
69.2411
332.763
-195.555
230.704
-35.1494
46.6332
-280.96
-279.7
273.176
6.52418
-18.3281
27.7265
-513.937
486.211
-611.312
-134.854
-21.5525
301.582
-280.03
-334.751
454.389
599.386
447.625
-1102.78
430.489
672.291
329.24
0.310086
-329.55
-240.588
-161.191
401.779
-525.555
552.624
-661.261
-18.6918
679.953
99.9423
85.5244
-185.467
-44.252
799.246
839.07
-862.607
23.5373
807.465
-154.382
38.575
-603.62
-324.496
-22.2961
556.8
57.7754
-614.576
438.972
21.6246
-349.174
392.298
-43.124
-853.726
-3.76212
857.488
-27.8189
-823.986
276.179
-279.801
3.62243
625.216
-4.03285
566.241
-411.354
-154.887
-220.585
273.044
-52.4592
-91.6379
-258.852
-420.71
-43.8869
895.065
-183.648
-822.151
89.102
-629.279
17.9672
-539.383
49.8738
489.509
820.549
-39.6266
-780.923
-256.524
128.616
1.25123
-356.448
355.197
860.003
-187.423
307.167
-2.71794
636.964
-67.4737
494.261
-4.31209
801.372
-712.233
-1045.14
-57.6418
444.832
22.9789
530.945
32.0914
730.958
-695.355
796.192
-38.5502
-757.642
193.216
-226.699
274.633
-13.4041
-117.98
203.994
-172.382
474.936
15.4992
-490.435
576.51
-97.3025
-479.207
-459.085
421.784
37.3011
128.871
672.501
6.74541
-97.1089
-760.304
857.413
81.2832
-666.706
585.423
225.58
-303.237
77.6578
-742.13
645.021
91.738
712.969
-504.409
1048.7
224.777
-144.374
-275.775
-175.24
255.186
-79.9457
208.964
-265.667
56.7038
-179.572
319.741
8.31552
-334.37
-51.1075
5.2747
-410.5
405.226
-47.5346
-161.759
-194.92
-29.2464
367.059
-337.813
-870.854
944.464
-73.6097
45.4926
-528.07
482.577
24.4598
-245.477
-755.804
106.13
649.674
359.733
-220.581
819.406
1.14311
-31.8843
220.362
-188.478
436.014
130.227
-104.949
-326.83
816.026
-201.685
-95.214
-914.105
616.295
-325.287
124.02
51.47
652.794
-565.358
495.645
-15.403
341.886
-35.3539
338.896
-421.285
82.3891
192.434
-231.396
38.9621
49.4276
248.345
-297.772
338.89
-501.182
-4.65926
761.957
-806.209
537.626
-62.6895
-106.177
737.864
-631.686
-269.127
303.324
-34.1967
-69.3139
294.894
203.051
-190.289
-280.888
11.7609
-1058.45
586.929
471.52
-35.8637
-77.7366
174.514
-309.129
294.635
14.4941
-676.016
692.512
268.086
-272.906
4.81961
-478.828
179.821
-502.519
-555.93
238.758
-278.717
847.162
-946.592
99.4308
-343.809
19.3137
486.86
-627.089
140.229
-2.5254
811.151
257.221
-277.392
20.1702
-321.952
-550.928
-37.3715
293.315
-25.2295
356.978
-127.131
-229.846
-19.93
-841.014
860.944
-877.04
488.923
388.117
-55.9747
735.679
-459.002
38.2919
-143.889
-117.979
261.868
874.64
-817.549
-57.091
392.758
-323.517
797.136
4.26591
107.756
82.7216
-190.477
-580.554
1024.4
-443.844
144.415
-192.69
48.2757
-758.988
-144.982
903.97
141.134
215.844
853.508
-31.3805
813.471
-736.732
503.466
-420.518
-13.9168
-225.759
36.5944
152.285
-188.879
310.557
235.142
-24.0242
-1098.2
619.197
479.002
8.28233
891.703
-60.5432
-831.16
-430.576
622.687
-192.111
57.1423
756.329
26.9961
-534.162
-590.519
-18.2694
608.788
408.204
144.772
-552.976
-264.74
-522.347
278.783
63.1024
-177.047
-75.5192
-406.186
352.655
53.5304
-792.805
293.755
200.597
-261.664
61.067
225.894
-258.91
33.0162
429.783
-424.508
727.275
51.6447
-778.919
-203.553
44.9647
821.695
20.8224
-842.517
-363.098
17.1492
345.949
118.64
860.188
-409.493
452.868
411.314
-72.4176
-954.518
99.7135
854.804
789.111
102.592
-29.256
221.689
50.4195
381.302
897.782
133.18
26.3239
-485.326
28.7334
-826.961
798.227
698.639
-766.6
67.9613
636.325
465.959
769.009
-56.0319
-712.977
193.924
-49.5094
76.288
339.366
-415.654
-735.251
792.394
254.956
172.544
-281.209
168.601
112.608
-111.202
-426.814
538.017
-31.7977
-214.21
1004.42
-573.928
93.8664
-290.938
180.448
-212.332
-104.943
-154.633
30.6858
820.125
-164.154
503.044
-601.674
754.823
-153.149
682.522
-705.496
-394.671
376.647
-442.772
-179.876
39.4455
349.007
-13.2377
-335.769
-46.2901
808.247
-505.249
-623.368
1128.62
288.185
-240.032
215.4
5.72615
197.325
-255.222
120.044
-885.319
908.983
-23.6634
-277.241
258.608
18.6332
73.8801
709.289
3.36355
765.645
635.563
-15.9877
-15.0534
-512.112
471.576
40.5362
933.086
17.1522
-950.238
-318.509
-44.5898
-0.456234
-234.939
796.419
-69.1444
529.015
-623.108
94.0928
-762.021
-84.7094
14.3556
281.584
887.068
10.7134
-490.642
440.746
49.8964
-950.458
-94.6797
46.3627
-376.552
330.19
-215.165
238.619
-23.4536
250.994
-42.0302
-39.6419
1050.3
-313.218
-737.077
579.58
-50.5657
51.4444
-264.541
-65.5973
-688.713
771.394
-82.6803
-85.9565
-12.2414
238.135
504.72
-5.78045
92.7888
-870.62
-89.4464
211.813
-122.367
-200.893
217.734
-16.8412
-681.79
570.587
-452.166
479.893
343.539
49.2193
-460.336
424.719
35.6164
581.239
427.955
498.373
-459.901
-38.4722
484.743
-315.75
-168.993
-182.576
29.8763
350.191
-21.2675
-328.923
-257.607
82.3667
-332.932
292.775
-219.041
-636.719
-691.583
-81.659
259.27
-58.673
662.685
197.318
7.01583
225.398
816.528
-84.6535
-731.875
328.706
-142.068
646.978
-504.91
234.83
-299.849
-97.784
505.988
-750.918
7.62737
-125.517
-107.086
500.007
-95.1657
782.516
-687.35
-199.655
225.967
-26.3122
-31.9628
-245.278
829.589
-737.851
220.769
-427.635
-406.346
833.981
862.933
-200.248
-42.7691
787.773
-745.004
597.359
-6.67288
17.6988
-608.218
282.96
139.334
-422.294
-404.033
480.321
-23.0447
-316.775
339.82
-616.881
65.6336
551.247
-137.904
505.235
-367.33
-481.176
409.197
-482.954
73.7577
105.39
-175.71
70.3204
-186.927
335.992
-191.439
-177.717
729.908
-31.2686
102.272
581.145
-611.024
648.844
-37.8199
269.589
-291.142
-810.578
-52.0294
97.0304
-433.016
590.119
460.177
-615.784
173.011
417.075
-844.711
375.707
-681.878
28.6506
653.227
-187.959
230.173
-42.2138
-816.298
886.701
-70.4027
-48.18
-432.177
480.357
1005.36
-405.623
-599.738
-68.6946
-786.829
-15.4237
291.603
-950.461
207.426
743.036
-857.703
-92.7584
-172.299
-9.328
-777.769
731.479
-127.968
-300.026
427.993
-12.8872
-268.635
281.523
160.31
647.155
230.634
150.191
-380.825
-902.867
154.573
748.294
541.16
-580.928
39.7676
604.536
58.5928
-663.129
-44.6462
673.778
-639.885
-33.8928
352.94
-23.6997
-29.4809
234.116
-204.635
608.407
65.3711
13.7763
-792.704
721.536
-777.568
-178.5
215.095
329.51
155.233
130.517
-321.956
202.786
-206.363
3.57688
340.646
-199.07
-141.576
592.164
43.3988
-747.859
801.151
-53.2926
-394.811
-103.57
498.381
-10.9969
-290.605
240.317
53.9903
-294.307
247.854
-98.5036
-149.35
418.298
-466.478
-61.7152
-740.276
-410.778
83.0312
148.193
494.961
-433.792
-61.1693
-231.749
255.818
-200.442
193.145
7.29751
10.8565
-215.03
204.174
-322.256
379.027
-56.7712
217.572
-14.4172
-203.155
450.451
554.91
-261.197
555.492
-473.815
142.287
-240.167
97.8809
-200.615
-15.743
216.358
701.273
-96.737
239.971
-167.59
-358.63
275.566
83.0641
-426.968
-11.649
438.617
-351.991
449.021
310.6
-324.518
13.9187
-16.3753
31.6261
471.84
462.745
35.6281
29.6524
-456.62
205.087
-0.555185
-337.566
-6.24341
-369.568
297.911
71.657
341.737
-62.9537
673.918
221.148
-231.198
242.055
-287.991
306.687
96.2207
657.698
-753.919
-736.825
-25.6289
762.454
4.17306
156.805
16.7783
-339.034
-690.672
621.096
69.5766
127.463
-168.664
171.252
-2.58786
431.232
-148.272
-250.374
-170.854
421.228
-164.741
-347.371
219.57
-16.784
-251.766
107.877
94.77
-184.216
-1009.53
696.317
-347.618
347.618
851.468
242.254
-35.2421
-509.093
-500.441
209.704
326.755
528.07
42.5467
545.411
-51.1507
266.594
-264.927
-1.6671
-629.383
662.252
-32.8693
-50.2966
-532.42
-47.1906
-635.847
709.85
-74.0032
84.1332
-493.294
-353.009
539.458
5.95369
523.754
19.5845
-543.338
747.834
-647.235
7.3506
-118.005
-59.5931
177.598
-419.167
86.2349
311.345
-32.6679
-278.677
-158.677
-44.023
-301.405
288.913
12.4922
-288.512
67.9275
869.63
-195.712
-337.616
48.4378
768.291
-1.56077
-766.73
584.169
-658.985
74.816
-922.859
830.379
92.4805
-23.3704
-637.891
110.202
297.177
-22.7574
-261.11
283.868
-781.245
19.7474
-203.124
-289.93
267.173
-466.095
511.587
-259.509
261.676
-2.16613
-302.572
301.167
1.40479
-811.235
705.058
995.976
-148.814
-168.271
286.62
-229.996
362.518
-165.317
414.77
-319.185
-95.5858
286.972
54.7649
811.179
-92.233
-718.946
184.352
-681.573
-755.054
670.91
84.1437
5.76188
-617.298
624.373
-7.07535
62.6481
177.323
-99.1697
519.533
-271.756
287.604
-15.8476
379.087
-458.228
79.1403
-608.616
649.188
-40.5714
585.761
44.2164
-629.977
249.79
-222.85
-26.9399
556.6
-24.5675
-532.033
241.232
-129.426
-111.806
-132.774
-50.3448
183.119
955.94
-946.835
-9.10571
-575.495
-388.32
-46.2723
-756.917
803.19
-897.637
834.367
-581.806
365.426
216.38
605.078
-623.347
-15.0498
674.145
-659.095
16.5604
151.211
-167.772
-52.4775
-280.533
-855.98
-66.8786
15.4656
365.938
334.07
-739.693
212.282
-7.19482
-227.785
227.785
413.171
-150.568
-262.603
-911.284
25.9641
-3.1409
-26.1548
-478.306
504.461
-753.751
-80.6209
486.973
-406.353
-252.396
-408.669
432.13
-10.3452
-53.9772
259.213
154.987
185.659
-544.464
398.749
-164.707
395.34
339.192
-52.2198
762.899
-708.912
-284.204
-7.18553
271.025
-946.897
-3.56103
5.61235
927.474
532.861
-448.728
-838.664
575.286
263.378
5.39609
260.862
-266.258
350.604
-8.08009
-342.524
-461.838
31.2623
-835.126
748.85
86.2766
-133.643
-184.865
188.991
32.9238
-221.914
212.999
126.193
-800.99
17.8499
-592.414
322.295
270.12
57.6156
241.815
361.652
-325.03
-36.6225
-371.114
392.755
-21.6407
847.413
-513.343
-454.979
312.91
-321.558
191.022
130.537
423.377
-720.806
568.384
-27.2234
811.244
-807.881
79.2442
161.988
-829.199
812.097
17.102
-794.765
46.9063
-472.163
-527.847
1042.65
-186.28
931.095
-835.182
-95.9131
-521.121
-463.314
984.435
-48.4417
-255.431
59.3861
225.564
-231.662
6.09724
-22.0192
-56.0667
733.385
469.422
-34.5647
-434.858
-373.594
-194.634
23.3235
-97.9181
-245.574
-145.731
420.817
-275.086
-926.042
926.042
92.7942
-807.333
492.117
-510.774
69.1605
441.614
-211.483
-194.505
165.494
-165.087
-379.378
-555.114
390.028
598.967
56.733
191.121
419.87
-929.789
509.919
-18.1585
298.299
-223.701
-262.579
-215.363
421.275
-91.7654
-180.813
-140.745
-65.4843
-835.381
452.474
-518.066
65.5928
17.373
-693.015
775.693
-82.6776
415.802
-420.623
4.82097
246.203
-567.675
529.758
37.9168
113.22
112.591
-225.811
198.644
-228.125
378.938
-708.785
329.847
110.539
758.333
175.147
238.024
-68.6297
-492.967
466.812
292.521
-306.878
14.3569
416.467
-37.3793
354.083
-383.33
-22.1136
-367.645
389.759
-19.1639
-286.575
299.954
24.6457
-324.6
-423.145
277.414
-388.119
39.6113
631.124
-749.53
-409.916
532.257
-313.066
-91.7284
976.646
-866.107
-492.748
-312.3
805.048
295.723
37.7692
290.749
-328.519
-457.171
143.742
-277.386
-51.7628
450.973
-563.87
112.897
47.4229
613.642
-182.754
64.7486
338.999
-281.384
708.744
-329.806
271.455
-177.879
23.9136
364.781
-388.694
-28.2174
-295.366
-6.87831
-254.956
250.758
4.19716
1.30323
556.072
-529.076
44.9473
-891.588
113.33
799.403
-2.26735
329.375
-116.376
525.49
328.705
-854.194
598.395
239.946
669.495
-764.661
-747.662
106.054
641.608
292.069
42.8457
-334.914
185.515
-178.184
-7.33046
30.0889
274.558
572.921
-194.403
28.6104
165.793
-156.818
-606.958
763.776
-340.474
363.217
-22.7428
-246.13
295.529
-49.3986
-148.192
-174.861
-255.928
210.81
45.1181
920.095
-920.095
-87.2903
727.042
-639.752
294.82
-210.063
344.796
-68.1624
-657.89
189.585
27.4069
-216.992
49.2574
-583.974
534.716
25.3947
-221.902
196.507
908.326
-914.018
5.69123
301.071
-674.541
373.47
335.792
-289.429
51.5167
310.136
-350.745
876.235
557.03
-106.057
-72.6516
-242.461
-400.684
322.003
78.681
221.518
-346.132
332.636
-500.507
167.872
-229.005
41.0455
-873.298
-73.5992
34.7268
-727.742
310.652
-184.192
796.381
-773.245
-23.1354
433.461
50.5985
-484.06
-685.56
610.656
74.9039
-261.793
219.671
42.1213
320.414
-27.8926
-426.102
-254.852
878.138
-834.424
-43.7132
-357.648
658.719
132.458
-527.269
-864.794
11.0686
-56.2506
-601.206
657.456
34.8607
-136.398
-144.811
-916.994
415.403
501.591
190.175
2.97024
449.843
-34.0417
543.448
252.335
-266.967
14.6323
-334.352
-5.97384
340.325
-542.858
437.249
-13.2209
-189.045
202.266
230.793
-41.208
-88.3807
359.441
-271.061
-355.111
5.93678
434.694
-9.97476
61.8379
-808.457
746.619
-664.283
664.283
43.5655
191.265
-88.9757
-506.768
595.743
-854.482
938.11
-83.6283
741.129
55.2523
-14.1341
-834.543
848.677
324.017
-341.315
17.2981
325.012
14.0102
-339.022
584.417
-636.89
52.4732
28.4021
311.217
-339.619
-203.001
-120.847
323.847
194.442
-8.92716
106.801
-710.742
603.941
-760.018
267.27
349.912
-312.143
793.734
59.774
-77.3582
-433.416
342.037
-390.746
-681.451
101.875
579.576
320.937
-265.474
-55.4631
-531.288
615.203
-83.9154
-81.8655
-362.887
444.753
408.135
-382.456
-591.656
-325.338
595.927
-725.462
129.535
-408.652
-430.012
837.86
-39.7336
-645.827
129.064
449.437
-578.501
563.559
-644.772
81.2123
27.5327
-251.961
11.11
-692.988
-320.474
321.726
-0.838374
570.524
-692.713
122.19
-344.497
-430.607
-0.480538
-685.021
698.114
-13.0927
763.068
-164.673
645.516
-102.858
-542.658
207.978
286.984
288.699
-297.186
8.48731
807.724
-935.875
128.151
-648.848
-98.8139
-284.461
12.7049
-327.442
90.8241
236.618
-56.2696
640.687
86.0149
-266.244
180.229
357.594
-335.61
-21.9838
-332.59
-259.824
-18.4556
205.888
-31.4343
-172.397
234.049
137.858
-371.907
-271.47
319.393
-47.9225
589.691
-678.666
23.1697
288.175
-258.556
-68.8864
-284.066
-297.74
-711.327
540.709
170.618
-112.166
-150.661
-160.04
66.3964
-578.147
536.371
41.776
576.955
-1098.08
-24.7172
-1014.81
-140.804
372.357
48.918
-22.504
-51.3867
-759.041
127.355
852.299
-845.773
617.384
-76.6743
1.85999
589.237
-591.097
-284.31
-164.831
449.141
-46.663
-215.13
8.92204
195.233
-213.29
18.0579
-993.765
229.936
448.95
-116.315
19.6594
-627.96
608.301
299.603
-365.272
27.9859
337.286
60.9698
573.869
-634.839
-103.01
771.797
-668.787
-669.49
-195.462
-727.993
39.7514
688.242
-33.1493
564.925
-531.775
923.979
-915.517
-8.46274
563.537
-619.788
-611.186
-23.6208
634.807
-395.578
124.108
251.15
-270.43
19.28
801.381
-772.648
-95.986
730.849
-634.863
459.215
12.3614
-433.856
-669.83
604.138
65.6918
399.46
-92.1857
-564.005
-42.405
-11.0358
-399.465
-29.4383
231.376
-201.938
22.1281
327.784
-360.22
364.171
-3.95047
746.454
-792.726
131.92
130.171
212.901
-224.549
11.6478
684.154
-775.275
91.1209
-318.411
-674.016
-14.697
795.156
74.4745
290.939
120.375
811.722
-16.5665
-11.176
-1030.04
175.074
3.93901
20.4347
-567.922
160.856
-144.296
-1082.26
-240.519
227.298
72.7592
222.061
-107.626
-467.119
574.745
-2.46212
-477.484
479.946
838.923
-31.1991
570.061
75.455
-28.7627
-201.768
230.531
742.248
-785.017
-151.478
385.527
-406.623
445.815
-39.1916
-679.293
723.157
-43.8646
298.923
-367.058
18.0945
395.789
-153.648
-242.141
174.018
-511.5
466.056
45.4444
4.33335
-461.715
462.708
-0.992551
613.732
-596.034
36.2152
-162.165
595.626
-293.778
57.4722
440.877
41.213
607.576
-648.789
-75.9859
-150.22
207.293
12.3785
31.4094
-390.622
25.3506
-414.913
8.29019
250.516
-252.5
1.9844
711.24
-682.589
-484.735
83.8048
400.93
-42.258
626.427
-8.5573
-206.473
914.263
-141.766
-772.497
518.882
537.487
-1056.37
-296.158
-17.0834
290.433
4.20193
10.2825
273.429
-691.768
-2.45584
694.224
592.164
-748.983
-218.053
194.077
23.9754
-522.638
-28.5036
-638.203
-0.838115
143.125
-137.196
-428.223
-119.227
205.242
16.4469
-635.645
619.198
-38.6601
-497.821
536.481
-261.512
289.914
-69.289
626.089
-728.912
754.076
-25.1645
217.702
-482.442
230.567
-251.249
20.6821
-13.2601
-838.733
27.4979
240.799
-443.8
908.566
-918.595
10.029
636.988
13.5378
-650.526
-52.9902
-539.91
-807.252
840.451
112.255
-207.255
897.672
-78.2658
239.755
-14.1909
-60.4028
-715.996
776.399
-88.0561
-596.965
-18.586
542.34
-671.524
22.6759
208.601
-239.237
30.6359
-235.569
1.62572
233.943
-558.389
533.546
24.8437
-221.958
89.1833
56.4372
92.2352
-148.672
-880.254
314.652
19.541
-334.193
54.9536
637.891
-692.845
-342.099
369.858
-27.7596
-648.526
-22.9979
-667.232
763.453
-896.709
127.585
769.124
-145.135
-168.745
-445.024
63.7838
-457.09
-615.254
241.86
19.1873
-289.02
290.258
-1.23747
179.969
-66.7485
-422.418
393.612
28.8066
-954.887
972.039
-321.426
122.502
198.924
144.195
16.6613
523.519
856.501
-876.431
277.528
-41.1359
363.79
-501.694
-789.479
811.399
-21.9192
-351.468
-183.072
534.539
131.419
-171.437
40.0176
426.58
-525.75
746.12
-683.138
-62.9815
-264.477
-31.6815
314.186
-73.8693
314.93
-291.761
331.039
-652.038
-17.7923
5.55226
633.4
-376.448
155.867
20.6483
-891.503
548.727
-389.93
608.143
368.504
423.507
8.62251
744.652
-805.055
-39.9036
-21.1989
827.284
70.3881
421.103
-499.811
78.7072
208.425
-187.135
-21.2899
-204.576
227.67
-23.094
-8.74738
342.904
-334.157
-617.668
658.881
437.692
253.901
-219.021
-34.8794
366.433
508.207
312.882
-334.149
706.325
104.854
78.5098
-602.155
523.645
639.751
-35.6129
13.6663
-930.501
113.988
816.513
221.975
-255.104
-250.777
-793.283
732.266
61.0166
5.2265
814.434
-819.66
927.979
-927.979
-377.825
17.6054
602.824
36.9273
-109.129
-28.8009
-196.759
225.56
437.538
27.7821
-465.32
-434.771
20.7916
413.979
189.613
972.17
-453.288
-226.008
37.9419
188.066
-627.284
630.784
-3.49964
419.548
-469.551
50.0031
-430.811
-3.96006
47.2162
-763.169
715.953
-636.729
-62.3314
-549.246
518.479
30.7671
-366.23
274.592
27.7508
-245.656
217.905
-162.513
-158.913
-28.6309
234.628
-27.3347
51.8004
282.984
-276.506
-71.5613
791.606
366.45
-51.7971
-769.45
32.6251
-890.025
814.432
75.5932
131.54
273.174
384.449
153.994
-755.319
858.833
332.062
189.415
-521.476
-163.36
594.446
-644.029
49.583
477.503
59.2151
-536.718
638.914
-342.232
-296.683
-474.9
-120.991
-781.996
678.985
27.5068
-686.509
659.002
-711.299
108.505
602.794
-764.38
-3.25121
34.0432
508.563
-87.4591
-521.184
357.03
551.166
-584.315
-35.3953
-66.1498
227.463
-161.313
42.6119
-678.459
-234.636
-230.964
164.814
-28.6209
287.797
-121.181
-166.615
168.57
-8.93385
-635.136
721.272
-33.0958
209.879
-176.783
869.866
-629.566
12.2681
153.915
185.084
1.00329
397.516
-398.52
-225.299
-198.001
423.3
180.932
763.533
379.449
-355.535
-842.73
7.60378
626.402
-609.863
-0.324783
-811.963
812.288
589.542
16.0583
-605.6
844.143
45.9459
-890.089
309.989
-8.82217
123.936
-408.245
425.828
8.86595
-255.115
334.866
-79.7515
192.832
381.439
-90.5003
611.148
-55.059
-556.089
-756.79
782.645
-25.8554
14.6655
646.604
-661.269
-646.177
114.889
-6.26289
-442.34
606.138
34.4143
323.18
-30.0986
187.426
-87.4839
-336.097
1.74563
95.9574
742.966
3.34878
-277.321
273.973
-422.791
-506.998
-57.4414
-757.758
815.2
242.053
-49.976
198.024
-270.836
72.8116
202.009
-95.6902
-220.769
-516.876
-581.323
-792.039
-18.5387
-166.882
-815.754
776.443
39.3114
-34.43
469.66
-435.23
59.7815
821.336
-881.118
197.235
-140.798
775.102
26.0491
-232.131
203.33
20.1162
-306.158
286.042
575.718
-573.858
-644.496
139.307
505.189
-552.015
587.641
-35.6263
30.5676
258.131
-665.225
-441.848
608.538
45.8066
-654.345
-721.936
606.755
-679.209
72.4547
-158.241
-36.1627
450.007
-484.296
-846.646
851.872
106.143
-307.848
-588.861
-642.388
593.263
49.1251
179.612
-74.2217
-43.5181
461.621
177.293
-572.44
58.5029
514.29
-527.093
12.8026
73.2118
-717.661
644.449
266.923
-16.4077
-311.722
165.938
145.784
-564.499
584.084
-120.636
462.662
-342.027
681.413
-86.967
0.550628
-317.522
316.971
-446.944
-442.758
889.702
-161.113
259.241
-98.1281
-102.108
-579.343
-564.343
416.607
147.736
405.137
-38.665
-366.472
0.906122
157.245
-253.114
355.671