/*--------------------------------*- C++ -*----------------------------------*\
  =========                 |
  \\      /  F ield         | OpenFOAM: The Open Source CFD Toolbox
   \\    /   O peration     | Website:  https://openfoam.org
    \\  /    A nd           | Version:  7
     \\/     M anipulation  |
\*---------------------------------------------------------------------------*/
FoamFile
{
    version     2.0;
    format      ascii;
    class       volVectorField;
    location    "34";
    object      U;
}
// * * * * * * * * * * * * * * * * * * * * * * * * * * * * * * * * * * * * * //

dimensions      [0 1 -1 0 0 0 0];

internalField   nonuniform List<vector> 
30084
(
(1.0122 -0.0144879 3.56176e-23)
(1.00847 0.0041809 1.51177e-22)
(0.989409 -0.00395779 -2.18793e-22)
(0.968094 -0.0643837 7.4915e-23)
(0.997246 -5.93712e-05 3.09056e-23)
(0.948035 -0.0407664 -1.10285e-22)
(1.08188 -0.0725465 1.33043e-22)
(1.01659 -0.0216298 -3.68915e-24)
(1.00225 -0.00215848 4.95265e-24)
(1.00021 -5.51288e-05 1.29378e-24)
(1.01953 -0.0289148 9.87564e-26)
(0.998363 -0.0189165 -7.68884e-23)
(0.999462 -0.000219297 4.22226e-24)
(0.999966 -1.21289e-05 1.18687e-25)
(1.11334 0.103842 4.67957e-22)
(0.99311 -0.00226249 3.35293e-23)
(0.999825 -0.000957302 -1.9061e-24)
(1.12725 0.0268581 -3.76444e-23)
(0.997607 -0.00204049 -1.05072e-23)
(0.987395 -0.000958578 -4.89966e-23)
(0.999034 -0.000310099 -1.4384e-23)
(1.00212 -0.00215535 1.73604e-23)
(0.989308 -0.00418724 2.41834e-22)
(0.997586 -0.00019475 1.35638e-23)
(0.903639 0.0998367 6.34694e-23)
(1.00937 0.00332711 8.12356e-22)
(0.99942 -6.60646e-05 9.62518e-24)
(0.95117 0.084362 -4.28189e-21)
(1.11685 0.105023 -1.23818e-21)
(0.999324 -0.0102516 -1.44317e-23)
(1.01693 -0.0113072 2.48092e-23)
(1.03824 -0.00419259 -1.86278e-22)
(1.00007 -0.150706 8.19411e-22)
(0.999288 -0.0262282 3.91885e-23)
(0.949448 0.0804969 3.43711e-21)
(1.00692 -0.0366913 1.11329e-22)
(1.05859 0.0505261 -2.65543e-22)
(0.967837 -0.0355936 2.93655e-22)
(1.00585 -0.000896224 -6.72871e-23)
(1.00565 -0.000644342 1.28044e-22)
(1.00048 -0.000182245 -4.02303e-24)
(0.989211 -0.0363787 -2.83377e-22)
(0.999845 -0.000930415 -2.57726e-26)
(1.04319 -0.0762447 -4.65201e-22)
(1.00004 -6.29458e-06 -2.5269e-25)
(0.999561 -0.0103862 1.07528e-23)
(0.997623 -0.0140461 -2.23627e-23)
(1.00008 -9.47804e-05 6.5239e-25)
(1.00374 -0.00401296 -7.04131e-23)
(1.05896 0.0481039 -1.09112e-22)
(1.14827 -0.0555654 8.59005e-23)
(0.971446 -0.0559419 -3.46454e-22)
(1.03795 -0.00335613 6.53337e-23)
(0.949843 -0.0402596 -1.796e-22)
(0.993284 -0.00231914 -2.94393e-23)
(1.12205 0.0990075 -7.64301e-22)
(0.996208 -0.00256695 1.05082e-23)
(0.999007 -0.000341726 1.82225e-23)
(1.00129 -0.0245047 -5.44109e-23)
(1.0208 -0.0652122 -2.06914e-22)
(0.999927 -7.89695e-06 2.75499e-25)
(0.997692 -0.00209009 -2.16255e-24)
(1.19356 0.0860876 1.74631e-22)
(1.00721 -0.0357554 -6.14453e-23)
(1.04659 0.100722 2.11049e-21)
(0.925455 0.0279297 8.52064e-21)
(1.00091 -0.0311133 -1.0655e-22)
(0.992186 -0.0161024 1.00155e-22)
(0.945127 0.0178884 3.42788e-21)
(1.0005 -0.000171991 2.60314e-24)
(1.01093 0.00402025 -1.10747e-21)
(0.988654 0.072018 2.39699e-21)
(1.00382 -0.0099644 -2.74287e-23)
(0.921478 0.114975 2.34913e-21)
(0.990814 -0.000738459 1.55145e-22)
(1.12789 -0.0177598 3.15289e-23)
(1.14038 0.148023 1.65536e-21)
(0.9682 -0.0200915 6.9809e-23)
(0.999945 -2.49586e-05 -7.82808e-25)
(1.01023 -0.0549006 -2.00597e-22)
(0.948474 -0.000940616 -1.18554e-22)
(1.0186 0.039954 6.41116e-22)
(1.01247 -0.0151082 -1.07208e-22)
(1 -7.00582e-05 6.71056e-26)
(1.08378 -0.0693838 -2.01788e-22)
(1.27149 -0.0414494 -6.74971e-22)
(1.02727 0.0877355 -3.92218e-21)
(0.999441 -0.000216117 -3.82708e-24)
(0.999479 -0.000195453 -1.122e-24)
(0.920213 -0.0549482 -4.7737e-22)
(0.999091 -0.0625794 3.88173e-22)
(0.968124 -0.0210504 7.90251e-23)
(1.00351 -0.00415174 1.20011e-23)
(1.06027 -0.00290664 -1.12059e-22)
(0.909981 -0.0236915 -4.00991e-22)
(1.03325 0.103993 1.96862e-21)
(1.00563 -0.0812786 6.39025e-22)
(1.00053 -0.000430448 6.46652e-24)
(0.971781 -0.0810611 -6.98331e-22)
(1.10435 0.118416 2.09854e-21)
(0.999942 -2.44681e-05 1.14508e-24)
(0.969523 -0.0130217 -4.2035e-22)
(0.999929 -9.68263e-06 -1.42425e-25)
(1.05007 -0.014686 -5.54586e-22)
(0.969651 -0.0559633 2.2792e-22)
(1.0345 0.0151514 1.1543e-21)
(1.00199 0.0693657 3.66544e-21)
(0.9995 -0.000197766 -9.48011e-24)
(0.999995 -7.77561e-05 -1.64075e-26)
(1.01962 -0.138047 -3.95419e-23)
(0.996499 -0.149773 -7.38478e-22)
(1.05155 -0.0376369 4.41299e-23)
(1.00002 -2.43419e-06 4.40723e-26)
(0.998832 -0.00693814 -3.8507e-23)
(0.999887 -0.00245942 1.42311e-24)
(0.990867 0.0738361 1.21991e-23)
(1.03526 0.0574175 -1.38714e-21)
(0.986632 -0.0085875 -1.66853e-22)
(1.00003 -7.64013e-05 5.94061e-26)
(1.00417 -0.00985304 -2.10323e-23)
(1.24511 0.0597087 5.22831e-22)
(1.00529 0.012109 1.77502e-21)
(1.18223 -0.00412797 -1.90452e-22)
(0.923768 0.0341327 -8.07965e-21)
(1.00122 -0.000398178 -1.64027e-23)
(1.1641 0.00955852 -5.07902e-23)
(1.1244 0.0293161 -2.09654e-22)
(1.02541 -0.0615541 1.53385e-22)
(1.00445 -0.00379033 -6.29009e-23)
(1.00003 -0.000491391 8.62321e-26)
(1.04208 -0.0739822 1.63925e-22)
(1.14329 0.145721 9.32807e-22)
(0.99983 0.123987 4.52103e-21)
(1.19559 -0.0157901 -1.07053e-22)
(1.04847 -0.0146908 4.67912e-22)
(1.01645 -0.0109298 4.73719e-22)
(1.04974 0.156211 3.26288e-22)
(0.967871 -0.000969172 6.14521e-22)
(1.21435 -0.166624 2.42696e-21)
(1.10638 0.115115 -1.58905e-21)
(1.16092 0.0127653 7.46286e-23)
(0.927078 -0.0068137 -5.053e-22)
(0.943514 -0.0575458 1.51868e-22)
(1.00002 -2.21198e-06 -1.90772e-26)
(0.999988 -4.27617e-06 6.34799e-26)
(0.997174 -9.86027e-05 -2.44203e-23)
(0.997821 -0.013747 4.55312e-23)
(0.994885 -0.112024 -5.40678e-22)
(1.19264 -0.11506 9.63129e-22)
(1.18406 0.124133 9.3684e-22)
(1.03385 -0.0175984 2.45301e-22)
(1.02064 -0.020254 7.94345e-23)
(1.00048 -0.000698282 9.97164e-24)
(0.999854 -0.000248274 1.09406e-24)
(1.00132 0.0200035 -3.82926e-21)
(1.0006 -0.00170756 1.15395e-24)
(0.99274 -0.0130664 3.0993e-26)
(1.05949 0.158317 -9.67677e-22)
(1.00363 0.0403007 -4.07591e-21)
(1.14971 -0.0505261 -1.47672e-22)
(0.951021 -0.00355944 2.04787e-22)
(0.969184 -0.0628644 5.3484e-22)
(1.12098 0.10274 2.00924e-22)
(0.999945 -5.14115e-05 2.47834e-25)
(0.999987 -4.13058e-06 -2.37041e-26)
(0.98658 -0.00902603 5.90402e-23)
(0.944992 -0.0562066 -8.06578e-22)
(1.00006 -0.000251939 -6.41313e-25)
(1 -7.43568e-05 2.22795e-26)
(0.992405 -0.00590093 -1.97414e-23)
(1.00004 -0.000476935 -6.80591e-26)
(1.00642 -0.00646498 -3.50717e-23)
(1.05648 0.160573 1.14221e-21)
(0.968358 -0.00051307 -5.0607e-22)
(1.07676 -0.12078 -2.29683e-22)
(0.994307 -0.000112782 9.96117e-23)
(1.00236 -0.0029821 3.69136e-24)
(0.968654 -0.0128301 7.10632e-22)
(0.999166 -0.0069125 -3.50241e-24)
(1.18113 0.00696893 5.50601e-24)
(0.999976 -1.13627e-05 3.88191e-25)
(1.01832 -0.041842 -7.52915e-23)
(1.02898 0.0895583 1.40376e-21)
(0.992478 -0.0149453 -5.72681e-24)
(1.20634 -0.166502 -2.24889e-21)
(1.02759 0.0491342 -1.21845e-21)
(0.992911 -0.00324488 -1.44595e-22)
(0.979548 -0.0184393 1.82715e-22)
(1.00421 -0.00381482 9.5863e-23)
(0.999381 -0.00954939 -2.23226e-23)
(0.999691 -8.21752e-06 1.09536e-24)
(1.00756 -0.0195758 1.50369e-23)
(0.919551 0.0170754 3.37289e-21)
(1.00081 0.0162825 2.94645e-21)
(0.983652 -0.00733106 4.59344e-24)
(0.993073 -0.0128561 -6.31039e-23)
(0.983037 0.0374161 -3.21087e-21)
(1.01168 0.0313314 5.50252e-22)
(0.912029 -0.0233748 4.84562e-22)
(1.00127 -0.000532198 -1.28337e-23)
(1.10425 -0.0890982 2.99884e-22)
(0.975231 -0.108607 7.29076e-22)
(0.998702 -0.0192752 3.65218e-23)
(1.00093 -0.00117271 -2.0568e-23)
(1.05167 0.159272 4.75338e-22)
(0.992652 -0.00590821 -1.31149e-23)
(1.00742 -0.00576 -3.94031e-23)
(0.992377 -0.111856 7.18358e-22)
(1.02087 -0.141755 1.00305e-22)
(0.99996 -5.75384e-06 9.44672e-26)
(0.978424 0.100904 -3.97208e-21)
(0.998856 -2.58962e-05 -2.39118e-25)
(1 -5.97478e-05 1.98521e-26)
(0.999398 -0.000230452 1.63385e-24)
(1.00268 -0.0623175 -1.42124e-22)
(1.1789 0.0940951 -7.20889e-22)
(1.01928 -0.040812 9.47478e-24)
(1.00719 -0.00538475 -2.70105e-23)
(0.997613 -0.000267794 3.36767e-23)
(0.913881 -0.0260168 -9.4443e-23)
(1.00004 -0.000522309 -1.65178e-25)
(1.00054 -0.0017414 1.11305e-25)
(0.997428 -0.000227418 -2.22675e-23)
(1.0271 0.00174029 1.06606e-21)
(0.997111 -0.00442295 -7.12246e-24)
(0.998845 -0.00644454 1.14273e-23)
(1.02778 -0.000999386 5.28584e-22)
(1.00014 -0.000426282 9.97705e-25)
(1.00004 -5.45686e-06 6.64019e-26)
(1.0054 -0.000649128 1.36115e-23)
(0.973334 -0.040185 -2.72908e-22)
(0.971975 -0.000489234 -2.44365e-22)
(0.994657 -0.000428164 -1.05995e-22)
(1.01193 0.0031703 9.16556e-22)
(0.982029 -0.00134834 1.16152e-22)
(1.02077 -0.0195228 -7.71581e-23)
(0.999965 -1.35105e-05 3.33446e-25)
(0.996749 -0.00292312 -4.02719e-23)
(1.00087 -0.00116425 2.22306e-23)
(1.10198 -0.0852435 2.94304e-22)
(1.12165 -0.205736 1.78944e-21)
(0.998473 -0.000138245 1.75842e-23)
(1.00051 -0.000620952 -7.6666e-24)
(0.998731 -0.00629444 -3.89575e-24)
(1.00401 -0.00879711 -5.20274e-23)
(0.987652 -0.00070651 -2.07374e-22)
(0.999947 -4.90015e-05 -1.57145e-26)
(1.2647 -0.0416133 -1.37072e-21)
(1.00005 -0.000534014 1.90181e-25)
(1.0267 0.00159282 -7.50615e-22)
(0.996329 -0.00256864 -2.11306e-23)
(1.00016 -0.000413496 4.21636e-25)
(1.03343 0.0153892 -7.33806e-22)
(0.967637 -0.104967 -7.54973e-22)
(1.00028 -4.67879e-05 4.24819e-24)
(1 -1.41224e-05 1.38219e-26)
(0.926845 -0.00487755 -5.74693e-22)
(1.09444 -0.196325 -2.62994e-22)
(0.990443 -0.00946838 -1.5626e-23)
(1.02468 -0.0632423 -4.06313e-23)
(1.03484 -0.0181647 -4.02243e-23)
(1.03378 0.0877042 1.71712e-22)
(1.00009 -8.94788e-05 1.8033e-25)
(0.97384 -0.0392545 2.56396e-22)
(1.2203 0.0296546 2.31646e-22)
(0.966515 0.0552388 7.89888e-23)
(0.992358 -0.0146212 4.64124e-23)
(1.02671 0.0476215 1.47944e-21)
(1.1266 -0.0143337 2.98168e-23)
(0.999889 -0.00270571 -1.77097e-24)
(0.843792 0.0484899 5.00756e-21)
(0.999401 -0.000485089 -1.0988e-23)
(1.0773 -0.125171 -3.05525e-22)
(0.915443 -0.025931 6.00562e-22)
(1.0025 -0.0028161 -2.02962e-23)
(1.17631 0.0542137 4.10406e-22)
(0.990335 -0.00107192 -1.23566e-22)
(1.00155 0.13301 3.12702e-21)
(0.996133 -0.000295914 9.79985e-24)
(0.98025 -0.0198574 -9.56921e-24)
(0.999788 -0.00245936 -9.48769e-24)
(1.087 0.13658 4.76831e-22)
(1.00086 -0.0193837 9.30602e-24)
(1.03061 0.104307 1.2034e-22)
(0.999436 -5.11008e-05 -4.21517e-24)
(0.993462 -0.00214471 -4.64965e-23)
(0.963994 0.121453 -2.01786e-21)
(1.03227 0.00181298 -8.91317e-22)
(1.02757 -0.000706537 6.13772e-22)
(0.968357 -0.0518596 6.42166e-22)
(0.999832 -3.62572e-05 1.10672e-24)
(1.00389 -0.00850208 -5.88894e-24)
(0.999821 -0.00104529 -3.42082e-24)
(1 -5.66106e-05 1.64827e-26)
(1.05634 0.0117472 2.54921e-22)
(1.00005 -5.91194e-06 6.1518e-27)
(0.977284 -0.0177301 4.34316e-22)
(1.21923 0.0249028 -2.26417e-22)
(0.901615 0.104325 -4.93452e-21)
(1.00241 0.124428 -6.95948e-21)
(0.969977 -0.0895945 2.29397e-22)
(0.985921 -0.0356839 1.58674e-22)
(0.973392 -0.00188218 1.16062e-22)
(1.04168 -0.0363275 1.43805e-22)
(1.00816 -0.0192628 -2.85289e-23)
(0.979452 -0.019331 -2.52358e-22)
(0.972399 -0.0983879 1.01895e-22)
(1.03211 0.0895736 -2.65042e-21)
(0.999522 0.0135089 5.21956e-21)
(0.998574 -0.000168734 9.69313e-24)
(1.00313 0.0703185 -5.05596e-21)
(1.05576 0.0101472 8.86334e-23)
(1.18466 0.00130911 5.66938e-23)
(1.01563 -0.0165532 3.69858e-23)
(1.00193 -0.0177398 -4.54965e-23)
(1.03265 -0.0556891 -9.86468e-23)
(0.99394 -0.00206999 -1.09573e-22)
(0.997019 -0.000740882 -7.09634e-24)
(0.999933 -7.61333e-06 1.4555e-24)
(0.999211 -0.00979409 3.29773e-23)
(1.10812 -0.0245081 3.09575e-23)
(1.08684 0.140113 -7.89808e-22)
(1.0018 -0.00153597 9.52232e-24)
(0.969019 -0.0332295 -3.47123e-22)
(1.01774 -0.0166952 -1.17059e-22)
(0.999957 -1.85296e-05 -1.27072e-25)
(0.97109 -0.0938075 -3.65355e-22)
(0.87867 0.082096 -2.22668e-21)
(0.993035 -0.00554379 1.62772e-22)
(0.998837 -0.00514925 1.05453e-23)
(1.01625 -0.0162802 -2.29747e-23)
(1.0096 -0.0532811 2.53081e-22)
(1.0791 0.0430621 3.28982e-22)
(0.999699 -0.0110936 -5.23089e-24)
(0.999964 -5.95607e-05 8.13149e-25)
(1.00002 -3.4237e-06 2.15847e-26)
(0.996978 -0.000675036 -7.90455e-24)
(0.962271 0.120607 2.91941e-21)
(1.05683 -0.024082 1.18183e-22)
(1.1275 -0.200726 -4.56925e-22)
(1 -1.41383e-05 1.0669e-27)
(1.09275 -0.202915 1.75025e-22)
(1.08181 0.0104687 -3.8209e-22)
(0.994166 -0.000188817 -4.99839e-23)
(0.918466 -0.00940081 -7.13502e-22)
(0.998928 -0.00505645 -1.05763e-23)
(0.999513 -0.000221582 -6.92635e-25)
(0.974367 -0.0353776 -7.58588e-23)
(1.00103 -0.00128623 -9.93576e-24)
(1.18309 0.0119691 2.06244e-23)
(1.01011 -0.0011347 -2.82848e-22)
(1.14507 0.126094 -7.82348e-22)
(0.999929 -0.00266964 2.29291e-24)
(1.0054 -0.0154784 9.54255e-24)
(1.00513 0.0107205 -2.40641e-21)
(1.24044 0.0570479 -1.64306e-22)
(1.00047 -0.000657409 -5.86053e-24)
(1.0005 -0.000582407 5.73959e-25)
(0.992242 0.0865738 2.48167e-22)
(1.0007 -0.0635366 -7.70171e-23)
(0.999493 -0.0109364 6.37345e-24)
(1.01048 0.034438 2.88989e-22)
(0.976251 0.019082 6.2822e-21)
(1.15101 -0.0595586 -2.88653e-22)
(1.0008 -0.0300073 -3.20927e-23)
(1.17495 0.0930576 7.16228e-22)
(0.999138 -8.32989e-05 -7.25439e-24)
(0.990042 -0.00494939 4.34328e-23)
(0.996214 -0.000311064 -2.73022e-23)
(1.01322 0.0300565 2.76063e-24)
(0.999988 -0.0008586 2.02477e-25)
(1.00978 -0.00139055 2.89031e-22)
(1.21107 -0.0891907 3.09443e-23)
(0.998181 0.117598 7.00665e-21)
(0.924383 0.118486 -1.087e-21)
(0.993131 -0.00323502 5.85283e-24)
(0.990141 -0.00925307 4.6895e-23)
(1.04411 0.102824 -1.68829e-21)
(1.02177 -0.0672836 2.98473e-22)
(0.999935 -9.1202e-06 -1.41979e-24)
(1.16619 0.135558 1.65609e-21)
(1.02623 0.00220683 -3.19149e-22)
(1.02571 0.00210924 -2.15673e-22)
(0.993883 -0.0158172 -6.81418e-23)
(1.02008 -0.00193788 -4.41488e-22)
(0.95489 0.108461 9.89985e-22)
(1.19219 -0.128792 -3.02916e-22)
(0.980192 0.107876 1.06498e-21)
(0.992109 0.107315 -1.8215e-21)
(0.999997 -7.45245e-05 5.22704e-26)
(1.10468 -0.0245295 -6.67992e-23)
(1.18972 -0.12278 1.97608e-22)
(0.996975 -0.00446556 1.86514e-23)
(1.00185 -0.0016467 -1.57199e-23)
(0.971614 0.0224696 1.50452e-21)
(1.05882 -0.0245303 -1.5334e-22)
(1.00032 -8.60575e-05 9.69512e-25)
(0.984882 -0.0762008 -8.00098e-22)
(0.974704 -0.111804 -3.41801e-22)
(0.993608 -0.00220262 6.53394e-23)
(0.999864 -0.000241068 -1.37198e-24)
(1.03746 0.121171 -2.89623e-22)
(1.03524 0.0555215 2.33626e-21)
(1.00006 -0.0005851 -4.76024e-26)
(1.00462 -0.00408809 1.23546e-23)
(1.00593 -0.00407087 6.68576e-23)
(1.22663 -0.029448 8.77363e-22)
(0.968286 -0.0504379 -5.68214e-22)
(1.00008 -0.000694509 -4.41054e-25)
(0.999984 -2.79331e-06 -3.55602e-26)
(1.00056 -0.00018898 1.53298e-24)
(1.07737 0.043703 -3.20271e-23)
(0.967727 -0.0343349 -2.80738e-22)
(1.00184 0.039587 1.16568e-21)
(0.934597 -0.0645456 3.78809e-22)
(0.98689 -0.03543 -1.64102e-22)
(0.971126 -0.00147035 -4.85387e-22)
(1.01202 0.0335166 -1.42197e-21)
(1.18932 0.0825392 2.58134e-23)
(0.998618 -0.000179443 1.77477e-23)
(1.00891 -0.00652776 -7.14755e-23)
(1.00096 -0.00127335 1.12649e-23)
(0.978957 0.117688 -2.75632e-21)
(0.970128 -0.0309271 1.4881e-22)
(1.00124 -0.000323724 -5.37375e-24)
(0.991256 -0.00439305 -5.87652e-23)
(1.16234 0.019259 1.98007e-22)
(0.999853 -0.0119167 -1.40045e-23)
(0.986778 -0.0154595 -3.27487e-23)
(1.00027 -0.000164126 -2.95083e-24)
(1.00028 -6.27769e-05 -1.30612e-25)
(0.875445 0.0878324 3.49446e-21)
(0.990412 -0.001597 -7.70445e-23)
(0.994506 -0.00568162 6.67162e-23)
(0.99958 -0.00218223 -8.40147e-24)
(0.99916 -6.36801e-05 -9.95756e-25)
(1.03952 0.0865228 -8.9557e-22)
(1.21696 -0.086244 6.10952e-23)
(0.986208 -0.0540251 1.00286e-22)
(1.00002 -2.6106e-06 -2.23348e-26)
(1 -4.55385e-05 1.50977e-26)
(0.968906 -0.0321359 3.93922e-22)
(0.992108 -0.00233154 1.55978e-23)
(0.993995 -0.00264135 -8.93026e-24)
(1.01611 -0.00569251 1.37399e-22)
(1.00661 -0.00275489 2.39737e-23)
(1.00121 -0.0198205 -1.66088e-23)
(1.13105 0.0124105 4.04105e-22)
(0.977754 -0.00562792 -9.82026e-23)
(0.981866 0.105989 -8.65905e-22)
(1.01854 -0.0290985 -3.03484e-23)
(1.00029 -0.000164717 3.28138e-24)
(0.968537 -0.0881117 3.41528e-23)
(0.983201 -0.0480232 -3.44755e-22)
(1.16669 0.0532603 2.88405e-22)
(0.996774 -0.00737067 -1.98935e-23)
(0.992365 -0.062954 -1.2116e-22)
(0.999976 -6.76774e-06 2.14098e-25)
(0.935598 0.087034 -3.41981e-21)
(1.01699 -0.00235883 2.48928e-22)
(1.0001 -0.000280666 -1.01883e-24)
(0.919419 0.0233417 -4.34354e-21)
(0.984912 -0.0544452 2.32518e-22)
(0.999975 -7.85102e-06 3.38688e-26)
(1.00167 -0.00150199 4.64406e-24)
(0.969427 -0.0921313 -2.0219e-22)
(1.04948 -0.0366088 4.76748e-23)
(1.05349 -0.00742513 3.1753e-22)
(0.99999 -4.60926e-06 5.03637e-26)
(0.990356 -0.000815896 6.15649e-23)
(1.03334 -0.0542174 1.657e-22)
(0.993786 -0.00201928 9.04272e-23)
(0.999459 -5.87206e-05 -2.28504e-23)
(0.990247 -0.00510823 1.16871e-24)
(0.979914 0.0395323 3.72689e-22)
(0.992005 -0.0156526 -8.35115e-23)
(0.987354 -0.0151127 2.39606e-23)
(1.00142 0.0232687 -1.17965e-21)
(0.996807 -0.00276045 2.10056e-23)
(0.974236 0.119131 -3.54802e-22)
(0.999973 -7.88038e-06 -1.08761e-25)
(0.989529 -0.0354199 6.5709e-23)
(0.990677 -0.10614 8.33085e-22)
(0.993771 -0.063169 2.0493e-22)
(1.22297 0.0120024 1.07141e-22)
(0.998713 -0.00674464 2.58246e-23)
(1.01279 -0.0279332 1.02984e-23)
(0.999915 -0.00287636 4.05018e-25)
(0.980491 -0.0281182 -1.92305e-22)
(1.05197 -0.0398442 1.39289e-23)
(0.999959 -1.77278e-05 6.46334e-25)
(1.00002 -1.45527e-06 -3.77994e-26)
(0.992493 -0.000522756 4.1501e-23)
(0.981843 0.0761828 2.46043e-21)
(1.01614 -0.0224894 1.35427e-22)
(1.00304 -0.00420142 -1.95877e-23)
(0.913792 -0.0489162 5.10823e-22)
(1 -1.27403e-05 2.91431e-27)
(1.00114 -0.00140385 -1.80228e-23)
(0.99996 -0.000818621 -2.56946e-25)
(1.0176 -0.0213402 1.52751e-22)
(0.980204 -0.0207407 3.35694e-23)
(0.999552 -0.000344738 2.8713e-24)
(0.992494 -0.0139421 3.18138e-23)
(0.985246 -0.00899739 -3.48655e-23)
(1.00119 -0.000194312 -1.47867e-24)
(0.999973 -9.0777e-06 -6.78891e-26)
(1.20878 0.0492426 -5.257e-23)
(0.999624 -0.00214557 9.01224e-24)
(1.08069 0.00503491 2.87574e-22)
(1.01069 0.115664 6.82464e-21)
(1.0404 0.101292 -1.54606e-21)
(1.00202 -0.0250586 -6.41326e-23)
(1.00647 -0.00249962 -7.92361e-24)
(1.02042 -0.00153234 2.70118e-22)
(0.999974 -0.00293955 -4.57127e-25)
(0.997738 -0.0127992 3.22348e-23)
(1 -2.0961e-05 2.54137e-26)
(0.989789 0.107554 -1.35709e-22)
(0.985923 -0.0204475 4.64095e-23)
(1.01579 -0.00525874 -9.8032e-23)
(0.978275 -0.00583332 2.00498e-22)
(1.00483 -0.0152626 1.02728e-24)
(0.996971 -0.00724272 4.29973e-23)
(0.999878 -0.000247037 3.22274e-25)
(1.00002 -1.4031e-06 -2.06815e-25)
(0.994695 -0.00565494 -4.85351e-23)
(1.06086 -0.00447561 -1.7592e-22)
(1.00378 0.0420531 1.82262e-22)
(1.00143 -0.000572665 -2.18249e-23)
(0.974089 -0.0808437 -1.78139e-22)
(0.969971 -0.0300129 -6.72166e-23)
(0.990597 -0.000638756 -2.30145e-22)
(1.18173 0.1209 -5.90512e-22)
(0.998474 -0.00117865 -1.05184e-23)
(1.00506 -0.0172713 -2.4543e-23)
(0.993525 -0.00348109 4.53207e-23)
(0.999888 -0.000238165 2.70768e-25)
(0.970479 -0.0964975 2.30723e-22)
(1.0016 0.0341242 -1.82176e-21)
(1.02772 0.0437717 -1.52797e-21)
(0.97256 -0.0198691 -3.25405e-23)
(1.00113 0.032438 -8.18938e-23)
(1.0001 -0.000263641 1.96805e-24)
(1.00002 -1.88263e-06 6.36847e-26)
(1.16508 0.132657 -6.32215e-22)
(1.17208 0.056137 -2.34368e-22)
(0.921626 0.0886438 -1.68981e-22)
(1.01553 -0.106083 6.15763e-22)
(0.971454 -0.00202923 -1.52471e-22)
(1.15829 0.0230392 -2.67104e-22)
(1.00136 -0.000596804 2.47197e-23)
(0.993303 -0.00469369 2.59667e-23)
(1.00054 -0.000200658 -1.4611e-24)
(0.987124 -0.000907573 -5.05803e-23)
(0.986209 -0.0166788 -6.80108e-23)
(0.999995 -4.0841e-05 -1.44465e-25)
(0.998956 -4.01612e-05 4.14972e-24)
(0.997904 0.115146 -6.37368e-21)
(0.99985 -0.000850681 3.08749e-24)
(0.942798 0.080485 4.10896e-21)
(1 -1.99381e-05 -1.94802e-26)
(1.21827 0.0877939 2.00641e-22)
(1.08124 0.00318592 -6.19927e-22)
(1.12957 0.014869 -4.50636e-22)
(1.00122 -0.000565932 1.47988e-24)
(1.00022 -5.04792e-05 2.61702e-24)
(0.985842 0.0724269 -3.67404e-21)
(1.08274 0.00827235 1.25245e-21)
(0.990375 -0.108623 -7.69872e-22)
(1.0192 0.0417817 6.92466e-22)
(0.998654 -0.0257849 2.73377e-23)
(0.983808 -0.00690437 -5.14611e-23)
(0.995189 -0.000267899 -2.74051e-23)
(1.08934 0.159667 -3.63501e-21)
(0.971829 -0.0358016 2.44244e-22)
(1.04181 -0.0344627 -9.75332e-23)
(0.992805 -0.0137956 -1.81923e-23)
(1 -1.26809e-05 -5.34896e-28)
(0.998489 -0.00111296 -8.93868e-24)
(1.00705 -0.0069643 4.17857e-23)
(0.977552 -0.010432 2.57134e-22)
(0.973322 -0.0199973 4.84803e-23)
(0.947266 -0.0570873 -7.89065e-23)
(0.977323 -0.0110693 -1.94579e-22)
(1.01825 0.00302586 1.2469e-22)
(0.997491 -0.000171852 5.58611e-25)
(0.922358 -0.0554692 2.67492e-22)
(0.982864 -0.0011801 -7.15533e-23)
(1.00005 -0.000254675 2.70923e-25)
(0.985112 -0.000938718 -4.96128e-23)
(1.04328 -0.0375167 -1.53027e-22)
(1.01746 0.00321138 -6.89855e-22)
(0.969149 -0.0362271 -6.11039e-23)
(0.999981 -9.31698e-07 -9.77479e-28)
(0.97924 -0.0212587 5.07205e-23)
(1.00328 -0.0177978 4.53393e-24)
(1.00163 -0.00139428 5.9726e-24)
(1.21603 -0.113614 -8.67799e-22)
(1.00135 0.0313023 -4.22522e-21)
(1.00107 -0.00138707 1.67343e-23)
(0.985374 -0.000707853 6.61851e-25)
(1.142 -0.063991 -1.46931e-25)
(1.02812 0.000759087 1.07254e-21)
(0.991977 0.0259547 -3.9896e-22)
(1.00219 -0.00293961 5.31798e-24)
(1.00192 -0.0261383 2.00313e-23)
(1.07374 0.124466 -5.45477e-22)
(1.01425 0.0269251 -3.54682e-21)
(0.990847 -0.0351594 1.74035e-22)
(1.00559 -0.00408068 -7.48449e-24)
(0.941733 -0.0686318 3.79478e-22)
(0.999997 -6.68768e-06 2.76791e-26)
(0.93667 -0.00289203 -2.63817e-22)
(1.0001 -8.35351e-05 3.65931e-25)
(1.13953 -0.0670734 -7.05149e-22)
(0.999961 -4.20954e-06 -7.16434e-26)
(1.00003 -7.46973e-05 2.0748e-25)
(1.0018 -0.0293473 -2.43131e-23)
(1.19257 0.0914201 -3.74184e-22)
(1.0214 0.143547 2.98383e-21)
(1.04738 -0.0378163 -2.35439e-22)
(1.01698 -0.0169538 7.78416e-23)
(0.999999 -5.34612e-06 -7.32714e-27)
(0.992777 -0.00558908 -8.80718e-23)
(1.00011 -2.55788e-05 -2.73503e-25)
(0.996299 -0.00294481 3.00868e-23)
(1.00003 -6.95961e-05 -1.61185e-25)
(1.05309 -0.00548798 -9.892e-22)
(0.999447 -0.000570708 -1.12634e-23)
(1.04888 0.0599057 1.5562e-21)
(0.999852 -0.00026324 -2.10186e-24)
(0.984417 -0.00673295 -8.64403e-23)
(0.947273 -0.00152917 5.87025e-22)
(0.994938 -0.000368789 -3.52166e-23)
(0.986432 0.0389633 3.84147e-21)
(0.978808 -0.000934107 1.39607e-22)
(1.05946 -0.12541 5.22395e-23)
(0.993486 -0.00491964 1.34483e-22)
(1.02742 -0.00223937 -2.25231e-22)
(0.970789 -0.0826562 8.35688e-22)
(1.02162 -0.0014085 -7.54213e-22)
(1.06365 -0.0763938 -1.82214e-23)
(0.999984 -2.29927e-06 9.02863e-27)
(1.00043 -0.024811 2.23954e-23)
(0.995267 -0.00035349 4.30209e-24)
(1.0003 -0.000110807 1.97745e-24)
(1.0001 -2.15423e-05 4.55902e-25)
(1.09247 0.161746 3.97989e-21)
(0.994197 -0.00264743 7.52589e-23)
(1.02759 0.00167475 1.2231e-21)
(1.00276 -0.0266952 2.44674e-23)
(1.00101 -0.000364363 5.72772e-24)
(1.0265 -0.00811489 -8.33866e-22)
(1.0002 -4.77673e-05 -5.77259e-24)
(0.999972 -4.20946e-06 -9.67458e-27)
(0.937498 -0.00384946 2.02587e-22)
(0.995862 -0.00149776 3.39523e-23)
(1.00004 -6.77858e-05 2.4322e-25)
(1.04975 0.101421 1.15214e-21)
(0.889621 0.0714628 -6.15003e-21)
(0.999752 -0.0002787 5.29499e-24)
(0.949774 -0.00306921 -1.57926e-22)
(1.00002 -1.88161e-06 4.54684e-26)
(0.951872 0.106163 -3.97024e-21)
(1.22152 0.0916891 2.02558e-22)
(0.968416 -0.0658943 -6.53503e-22)
(1.00006 -0.000671695 -5.22429e-25)
(1.0402 -0.0333969 2.32318e-22)
(1.0327 -0.00117368 -3.11517e-22)
(1.03302 0.00194834 9.14824e-23)
(1.0549 -0.0078523 -1.24263e-22)
(0.999585 -0.00230017 -1.33537e-24)
(0.999849 -0.00101898 2.70078e-24)
(0.983601 -0.0204711 -1.48376e-22)
(1 -1.12552e-05 -5.28022e-27)
(1.00002 -1.69104e-06 -1.17098e-26)
(0.970635 -0.0352502 -1.44056e-22)
(1.0073 -0.0798407 -3.16259e-22)
(0.948916 -0.0558348 -2.00505e-23)
(0.909105 0.100194 -1.29615e-22)
(1.00024 -3.07668e-05 -2.41639e-24)
(1.03771 -0.0944216 -6.69035e-22)
(1.00862 -0.00613631 -7.34749e-23)
(0.999973 -4.48187e-06 1.10976e-25)
(0.998856 -0.00479302 -2.28777e-23)
(1.00004 -0.000569212 -3.25209e-25)
(0.995202 -0.0159617 5.11078e-23)
(1.00005 -1.25604e-05 2.72189e-25)
(1.0655 -0.0741857 -4.31574e-23)
(1.02124 -0.00173082 7.32476e-22)
(0.975639 0.117106 9.4021e-22)
(1.02693 -0.00216833 8.44351e-22)
(0.999673 -0.000273218 4.17577e-24)
(1.00054 -0.000469718 -5.63249e-24)
(1.22954 -0.0349768 -9.13341e-22)
(1.02763 0.00132821 -9.83099e-22)
(0.996341 -0.000482326 3.08557e-23)
(1.00002 -1.93859e-06 9.73543e-26)
(1.06422 0.0927918 -1.90946e-21)
(1.19142 -0.177085 -4.08006e-22)
(1.01501 -0.103438 -2.68281e-22)
(0.982377 -0.00100625 -3.76104e-23)
(0.999975 -2.70807e-05 2.16854e-25)
(0.999676 -0.000257694 -2.4472e-24)
(1.20043 -0.1766 1.15051e-21)
(1.0044 -0.0631587 -8.34652e-23)
(1.03547 0.0331856 2.18287e-22)
(0.981442 0.102503 3.60591e-21)
(1.05658 -0.122317 3.86548e-22)
(0.998509 -0.000102861 -5.53247e-24)
(0.999976 -1.27255e-05 -2.53234e-25)
(0.957924 -0.0720058 6.51274e-22)
(0.991105 -0.143194 -9.00197e-22)
(0.999762 -0.000288596 2.82232e-24)
(1.01341 -0.0270458 5.91999e-23)
(0.991145 -0.0341583 -3.07895e-23)
(0.994504 -0.00283525 2.96444e-23)
(0.998553 0.0254907 -3.0449e-21)
(0.998486 -0.000664419 1.98288e-23)
(1.0715 -0.0491238 4.74637e-24)
(1.13974 0.151382 -1.76586e-21)
(0.990759 -0.00415044 -8.6429e-23)
(0.919646 0.0836937 -6.07214e-22)
(0.927205 0.0398008 1.8533e-21)
(0.999964 -6.29902e-05 -8.17315e-25)
(0.999972 -0.000895149 -2.17971e-25)
(0.979073 -0.00124089 -8.88457e-23)
(1.01502 -0.00520283 -1.775e-22)
(0.952014 -0.00281717 3.33943e-22)
(1.00609 -0.00505021 -7.69007e-23)
(0.991099 -0.00415909 8.05197e-23)
(0.999334 -0.000607751 -8.60412e-24)
(0.959835 0.106647 -7.11902e-22)
(1.04975 0.0577497 -2.41441e-21)
(1.00268 -0.00284207 1.36407e-23)
(0.850535 0.0457085 -1.24606e-21)
(1.00002 -1.61897e-06 -6.53659e-26)
(1.02489 0.0074433 -1.71172e-21)
(1.01345 -0.132275 6.13275e-22)
(1.04085 -0.0934983 2.60198e-22)
(1.00011 -0.000256108 -1.00778e-25)
(0.949551 -0.00155028 2.71971e-22)
(1.02233 0.00653279 9.60751e-22)
(1.01466 -0.00558374 1.47041e-22)
(1.03189 -0.000233127 4.30756e-22)
(0.999474 -4.60798e-05 1.61247e-23)
(0.99944 -0.00060788 1.02002e-23)
(1.03679 -0.0517707 4.11041e-23)
(0.995932 -0.00161331 -9.70181e-23)
(0.985038 -0.0152124 -1.61549e-22)
(0.998993 -0.00434044 1.35552e-24)
(1.07454 0.0493619 1.2484e-21)
(1.00021 -0.0258992 -1.53084e-23)
(0.994186 -0.00602285 1.65967e-24)
(0.908245 -0.041698 -7.62182e-22)
(0.994293 0.0866168 4.08453e-22)
(1.12849 -0.00910713 -3.00131e-22)
(1.02592 -0.00782275 6.68145e-22)
(0.999533 -0.000222397 3.06194e-24)
(0.999403 -0.000397716 1.38518e-24)
(0.979495 -0.0278527 3.88481e-22)
(1.00117 -0.00151042 -1.34212e-23)
(0.996941 -0.000848924 -5.50993e-24)
(0.999976 -2.59858e-05 -8.21635e-26)
(0.999631 -0.00234285 2.62813e-25)
(1.02172 0.0059918 -3.73512e-22)
(0.984865 0.0753978 -3.53426e-21)
(0.99985 -1.89708e-05 6.5795e-25)
(1.1092 0.152825 -3.46466e-21)
(0.999995 -5.09265e-05 6.15993e-26)
(0.996188 -0.00348989 4.10203e-23)
(0.99999 -0.000116588 8.66377e-26)
(1.00612 -0.00437083 -3.40662e-23)
(1.21298 0.0476515 5.16937e-23)
(0.999953 -5.29544e-05 6.97382e-26)
(0.999952 -5.67192e-05 4.90822e-25)
(0.933152 -0.0654766 -3.74701e-22)
(1.00001 -1.11518e-05 -2.03837e-27)
(1.05826 -0.00691855 1.05169e-21)
(0.989465 -0.0549395 3.18321e-22)
(0.999974 -0.000786702 2.57234e-25)
(1.06634 0.0754576 -1.4864e-21)
(1 -3.64633e-05 -3.78049e-26)
(0.999533 -4.77041e-05 1.4082e-23)
(0.999896 -4.36172e-05 2.30503e-26)
(0.994399 -0.00602924 -2.49908e-23)
(0.999615 -0.00186774 -4.27695e-24)
(0.99264 -0.000396455 -2.79811e-23)
(1.03761 -0.156908 -7.13492e-23)
(0.999659 -0.00181831 2.85426e-24)
(1.00491 -0.00409944 -2.65173e-23)
(0.999971 -3.06747e-06 -4.15643e-26)
(1.02313 0.141172 -5.66481e-21)
(1.0699 -0.0510397 -2.1919e-24)
(1.1316 -0.00858445 -6.97751e-24)
(0.955664 -0.00835888 3.60824e-22)
(0.972082 -0.0057172 -6.53566e-23)
(0.99896 -0.00468507 3.77594e-23)
(1.00342 -0.00315581 3.70276e-23)
(1.0384 0.0687359 6.46551e-22)
(0.982519 -0.049559 4.68498e-23)
(1.09099 0.113876 7.5263e-22)
(0.944238 -0.0194534 -6.64718e-22)
(0.996048 -0.00337149 -3.87293e-23)
(0.999989 -5.48807e-06 -9.13467e-26)
(0.993299 -0.0034965 -5.45959e-23)
(1.00425 0.134562 1.45068e-21)
(1.058 0.0817878 -3.41548e-22)
(0.986878 -0.0752779 2.71253e-22)
(0.922164 -0.00870448 1.56357e-22)
(1.02722 0.135173 1.51476e-21)
(0.989862 -0.000730695 7.2382e-23)
(1.00311 -0.122149 4.93037e-23)
(0.99999 -0.000111552 1.55863e-25)
(0.988034 -0.0554205 3.98934e-22)
(0.999026 -0.00027545 -2.05189e-23)
(0.862376 0.0772559 -3.60762e-21)
(0.98799 -0.100914 -6.30875e-22)
(0.999898 -3.91332e-05 1.21429e-24)
(0.917356 -0.0285429 -4.05429e-23)
(0.982773 -0.0526655 2.02403e-23)
(1.02621 0.07312 2.30851e-21)
(0.996984 -0.000926442 -5.18887e-23)
(0.97997 -0.0511265 -1.41833e-22)
(0.997535 -0.0131368 -4.51063e-23)
(1.00178 -0.0283265 -5.03234e-23)
(0.998526 -0.000676076 -1.34883e-23)
(1.02526 0.0716978 -2.7941e-21)
(1.11158 -0.203648 7.81164e-22)
(0.979218 -0.0221389 -1.12835e-22)
(0.984208 -0.0189884 2.37906e-24)
(0.984543 -0.00635858 -3.52371e-23)
(1.00607 -0.00237673 -3.11958e-23)
(1.02874 0.132125 5.92687e-21)
(0.978898 -0.0179497 5.0909e-23)
(1.01278 0.0392972 1.50412e-21)
(1.00315 -0.00253524 2.8154e-23)
(1.22479 0.0178726 -2.7577e-23)
(0.940214 0.0860521 6.13571e-22)
(0.989656 -0.000569915 -2.51364e-22)
(0.999734 -5.01451e-05 2.74684e-24)
(1.03764 0.0884629 6.99286e-22)
(0.995683 0.110656 -5.31895e-21)
(1.03536 -0.0499665 -4.53153e-23)
(1.09938 -0.0290786 2.9843e-23)
(0.994968 -0.0165738 -5.73727e-23)
(0.956373 -0.00754547 -2.14134e-22)
(1.07194 0.122052 2.18438e-21)
(0.956052 -0.0725593 1.06442e-22)
(0.999973 -2.6005e-05 2.81231e-25)
(0.991229 -0.000140765 -1.28204e-22)
(1.00004 -6.79539e-06 2.76333e-25)
(0.994762 -0.000331555 9.60346e-23)
(0.999972 -2.73236e-05 -4.4034e-25)
(0.998367 -0.0183294 7.64228e-23)
(0.998887 -4.45613e-05 7.32184e-24)
(0.996912 -0.0068681 4.99589e-24)
(1.22633 -0.0144331 -1.39884e-22)
(0.999313 -0.000465448 7.36126e-24)
(0.999422 -0.000238531 5.00882e-24)