/*--------------------------------*- C++ -*----------------------------------*\
  =========                 |
  \\      /  F ield         | OpenFOAM: The Open Source CFD Toolbox
   \\    /   O peration     | Website:  https://openfoam.org
    \\  /    A nd           | Version:  7
     \\/     M anipulation  |
\*---------------------------------------------------------------------------*/
FoamFile
{
    version     2.0;
    format      ascii;
    class       surfaceScalarField;
    location    "32.5";
    object      phi;
}
// * * * * * * * * * * * * * * * * * * * * * * * * * * * * * * * * * * * * * //

dimensions      [0 3 -1 0 0 0 0];

internalField   nonuniform List<scalar> 
11512
(
153.84
-515.312
361.472
-769.749
-17.1473
786.896
437.498
-397.474
-40.024
668.54
261.168
-929.709
1564.87
-1108.57
-456.302
1163.5
-1430.64
267.146
-44.7808
504.701
-459.921
167.97
-855.975
688.005
991.622
-1664.89
673.267
-1787.12
1699.5
87.6213
-568.826
1732.32
-1179.79
2001.25
-821.465
599.145
169.194
-768.338
-22.642
-1350.56
1373.2
229.05
-2016.17
1061.34
-393.781
-667.563
-180.979
334.82
471.54
169.78
-641.32
1197.74
-1358.87
161.131
-320.421
392.382
-71.9611
1041.2
-1346.98
305.778
1263.46
826.95
-2090.41
70.6231
-1684.12
1613.5
-524.069
-1142.48
1666.55
449.27
151.575
-600.845
-197.621
-317.691
514.77
1050.1
1690.41
-1846.66
156.251
-112.839
-1683.91
1796.75
-1613.25
671.138
942.115
-315.639
677.228
-361.59
-93.1499
-89.8155
182.965
1318.88
-1248.26
370.495
-1456.68
1086.19
-973.408
973.408
94.9065
1568.43
-1663.33
-1113.17
-500.085
683.503
-728.284
-396.231
975.229
-578.998
1176.27
-1170.08
-6.18789
-1139.96
743.731
652.377
408.968
-401.549
-43.596
445.145
-442.027
792.308
-350.281
-844.233
844.233
1158.49
-1279.23
120.747
-505.385
1768.84
1301.75
-326.52
1709.75
-1189.77
-519.985
84.0815
-404.502
2135.56
-1173.13
-962.424
1857.64
-167.235
406.609
120.801
-527.41
-464.721
1002.45
-537.734
-1198.89
1293.79
-587.851
1005.64
-417.79
418.531
779.204
641.045
-473.075
-452.378
617.699
-165.322
1232.78
-862.283
2381.53
-1115.63
-1265.9
1203.65
-2077.07
873.422
-1642.7
1620.06
456.287
-1636.07
-598.5
1077.72
-479.223
-697.618
381.979
1717.07
-725.451
-1140.96
-897.9
2038.86
689.692
-380.068
-309.624
714.188
587.561
-266.81
1425.3
121.424
-332.302
210.878
-279.807
729.077
-271.067
432.68
-161.612
-325.241
796.781
-328.416
-155.279
483.695
343.289
94.2087
1494.08
-452.881
-1005.37
508.864
496.507
290.585
92.0572
-382.642
947.92
-348.775
-1751.79
603.612
1148.18
34.7213
-881.866
847.144
-270.523
580.012
-309.489
162.703
-1132.85
970.143
803.219
-814.447
11.2279
383.442
535.467
-918.909
-232.425
639.034
-1141.72
-500.218
1641.94
-441.93
670.651
-228.721
1348.17
-1461.01
-649.126
298.793
350.333
-489.261
-1023.3
1512.56
-560.358
-818.999
1379.36
578.414
-982.547
404.132
-109.238
-182.021
291.258
424.047
-302.623
-1072.08
607.358
989.508
-826.805
-88.7226
698.566
-609.843
-174.967
360.778
-185.811
-633.092
-372.279
-396.144
974.558
1106.45
-1106.45
-466.412
-182.714
-942.946
1582.52
-639.572
314.549
-710.371
395.821
-955.524
367.673
-966.46
-1091
-1538.17
366.137
1172.03
-270.635
939.176
-315.381
636.431
-321.049
-1999.86
1033.4
-1167.62
-370.551
586.659
-1529.6
1786.41
-1784.68
-1.73141
228.266
-629.555
401.289
-1486.5
976.241
510.262
301.632
219.444
-521.076
281.857
-552.924
164.41
-265.598
101.188
2038.72
-847.255
-1191.46
-568.539
166.99
641.806
859.314
-1501.12
-141.291
305.701
447.439
907.443
-1354.88
-943.237
410.913
532.324
-1079.24
1497.77
-758.098
159.598
781.866
-104.638
559.104
-277.376
-281.728
1031.2
-522.337
617.214
-1453.99
836.774
-1390.19
248.472
-509.437
238.914
-1209.56
938.927
2018.26
-1146.84
-871.421
247.651
858.801
-2163.75
923.265
1240.48
185.967
-13.7523
-172.215
-154.704
301.306
-146.602
-118.619
-390.95
509.569
-483.945
155.529
277.975
-49.7085
364.258
423.439
405.584
-829.023
-2053.56
1142.86
910.697
476.964
-553.551
76.5868
134.085
-200.444
66.3585
964.033
1074.68
1823.45
-255.023
742.911
-444.117
825.003
-1439.33
614.329
360.441
329.251
1080.53
-1045.81
-514.039
-261.04
775.079
494.717
-141.735
-352.982
680.618
-511.424
614.865
-814.021
199.156
523.078
1186.67
-1284.23
723.873
1024.41
-1548.48
1.42053
-1486.24
1484.82
336.224
855.005
-1191.23
605.165
238.829
-843.994
-2275.74
1179.96
1095.77
-1120.47
-1155.27
214.71
400.155
992.746
-656.522
616.725
-626.662
9.93757
-2164.8
1023.85
-78.0608
-90.8501
168.911
-44.3507
1830.76
-854.985
85.2361
-1060.73
-1103.02
-161.982
296.067
-687.27
220.859
-282.407
-427.611
710.017
1136.46
-1625.72
808.228
-1422.9
614.67
711.996
-450.828
1902.64
-1379.56
-315.484
-657.924
74.5768
430.125
-552.984
535.837
5.61011
-584.424
578.814
592.356
-290.725
-560.517
269.354
291.163
808.805
-385.366
15.4408
170.526
1227.36
-1225.94
187.136
236.912
396.88
-679.287
639.077
-1035.22
-2092.62
2092.62
-267.88
-452.906
720.785
718.244
398.097
-1116.34
600.001
181.865
409.181
399.623
-2268.42
1370.52
-958.55
-702.491
1661.04
-477.8
-731.762
-258.539
558.747
-300.208
878.578
-233.176
-645.402
-444.132
672.398
391.67
-707.051
-360.101
-150.329
510.431
-1355.99
-490.665
668.421
-1146.22
-302.038
-542.194
871.222
1510.31
208.202
-372.906
164.704
1001.63
-349.253
1440.82
-823.607
463.017
-275.881
-343.235
-914.642
603.251
311.391
-364.539
-550.103
318.229
-436.847
-183.597
-117.142
300.739
-405.383
1123.63
375.46
-205.681
-316.258
1391.47
-187.14
-1204.33
-488.736
285.69
203.046
232.994
258.054
-491.048
1.96972
-815.991
613.353
-1786.5
1173.15
1531.7
-889.898
-1048.11
-438.394
-1096.1
593.727
502.372
1407.42
-431.18
961.214
-1461.43
-166.527
-216.015
382.542
-472.533
603.804
-1683.04
404.603
771.668
290.367
299.563
-589.93
448.521
524.887
1144.66
-743.158
-401.498
382.799
-203.363
-179.435
-1456.58
460.801
764.784
-1225.58
1525.37
-564.155
-486.419
946.529
-460.11
443.45
1221.06
-1664.51
16.4861
-458.416
-149.549
440.134
69.5043
-162.654
533.288
497.913
-637.656
51.996
585.659
919.648
-1118.41
198.763
686.429
-277.247
486.818
-1497.4
1010.59
422.463
1743.81
-540.165
821.282
1196.98
-687.728
-1743.04
784.489
592.612
399.772
-992.384
467.459
82.9791
1808.16
-1891.14
1316.87
-379.8
-937.074
1755.91
-1800.26
-381.911
-531.96
747.25
-215.29
-510.996
192.149
302.567
-377.381
-1238.09
214.792
-794.101
-659.888
-597.134
1062.48
-465.348
-384.386
379.225
5.16157
501.805
-644.829
143.024
-226.798
66.0438
160.754
-672.045
-709.671
359.498
350.172
-962.198
1449.02
-422.329
913.583
-491.254
-2274.53
6.11494
190.586
-558.429
367.844
156.736
1234.74
-109.789
-577.482
167.884
-620.261
1538.91
-730.685
389.492
-483.498
94.0054
-107.53
107.53
537.361
306.872
1838.88
-1272.88
610.04
662.835
712.983
-32.3646
1335.97
799.586
-559.532
1384.54
278.66
301.351
293.855
-825.815
260.083
-702.111
200.052
-367.531
167.479
-253.026
607.847
-354.822
128.778
-381.804
-612.838
-585.052
1197.89
-366.669
547.306
-180.638
-1168.52
2038.23
-869.705
1336.2
-343.455
-143.12
33.8826
-1987.98
845.501
1562.1
-850.043
-712.055
2052.46
-907.087
-1145.37
738.817
597.384
-218.559
418.61
-675.351
1167.12
-491.77
-797.274
1244.71
570.677
956.484
-1784.49
828.011
-545.327
-88.0816
633.408
309.573
249.531
429.16
-104.365
-324.796
657.161
-62.8903
-594.27
940.505
-563.632
-376.872
1627.74
-491.275
916.928
-1681.85
764.925
1085.98
816.661
777.458
-462.62
-314.838
-915.039
-255.045
572.972
605.283
-1178.25
-453.346
516.889
-63.5434
599.182
-359.834
-239.348
-1016.49
594.165
618.794
912.91
-415.057
916.861
1453.23
-790.724
-662.511
415.076
-960.21
545.134
-1053.91
420.818
580.298
-1066.72
480.025
-537.973
57.9484
494.155
298.153
-90.4828
-17.0471
-822.813
-906.418
1729.23
187.452
195.346
-237.605
452.316
-47.058
-556.518
603.576
495.77
901.793
-1397.56
-481.106
297.509
689.437
-32.276
866.748
-1103
236.25
392.63
876.088
-1435.62
-456.781
862.365
2044.59
-1326.69
-717.898
213.857
402.868
216.859
586.36
112.4
-997.484
885.084
1729.59
-1122.74
-606.856
-143.916
1952.08
-1927.22
-165.405
415.088
-515.888
100.8
-1052.29
544.813
507.481
-1617.46
448.936
-911.87
823.148
404.84
212.86
432.246
-224.044
-443.523
738.711
262.919
45.826
808.783
-854.609
-1152.74
-879.533
2032.28
-537.38
1127.67
-590.294
-476.457
-99.1181
21.0574
-1710.86
888.051
-823.414
-651.679
1475.09
-247.204
-252.747
499.951
369.024
-672.98
303.956
242.445
-627.812
322.1
221.376
-543.476
361.517
-620.056
641.205
-272.181
323.144
-478.423
680.233
415.803
-182.808
-402.583
-307.088
1251.83
-10.1377
-1241.69
1073.63
-434.557
579.599
426.042
-1766.2
830.714
935.489
516.599
558.908
-1075.51
-369.801
122.597
-271.755
1221.72
-949.968
-1497.1
1181.61
518.235
-1131.07
402.63
-13.1379
426.865
319.781
-746.646
370.756
-603.181
-28.8948
780.958
-752.063
-409.17
647.999
387.521
288.712
424.27
678.772
93.8613
-409.317
315.456
872.457
-501.671
-370.786
513.575
-1719.21
1205.64
-1176.19
1811.84
-635.658
1772.84
-1159.48
-329.625
598.979
-1183.48
1295.88
261.481
-828.746
1649.22
-820.476
-260.587
-228.148
-961.46
1520.73
1873.65
-633.266
-1240.38
-420.057
778.334
-1375.47
-59.5317
-44.7088
473.869
-705.383
-359.118
-1137.98
-234.757
477.202
819.221
-583.267
192.317
-1730.86
-74.323
1805.18
-1092.08
554.699
593.32
-1222.41
629.092
932.849
940.802
584.419
493.304
708.284
238.245
-1163.27
487.916
-420.832
426.442
644.848
-534.058
262.096
-762.956
500.86
702.716
-342.275
-219.737
129.921
-618.383
230.65
387.733
-920.926
-760.927
1119.34
-2210.34
406.283
-686.09
-298.624
-515.823
865.07
588.164
-362.912
319.316
364.592
267.476
680.367
-947.843
525.39
641.731
-554.076
193.975
364.458
-632.338
-1128.58
-808.539
1937.12
-1847.46
163.338
1145.65
-1417.41
1190.52
-718.276
-472.243
-521.727
1397.82
-1546.24
652.085
894.15
-131.015
-125.359
256.374
1475.13
577.326
342.506
-492.835
-506.144
-582.053
1088.2
-431.886
622.472
1636.99
-1167.44
-469.548
-797.907
345.001
506.866
365.591
-1677.01
433.697
1243.31
-208.177
530.277
825.745
811.244
217.101
-706.645
489.544
184.28
176.498
-201.547
-82.2811
283.828
496.758
-8.07532
-488.683
-1663.23
615.119
-1622.39
1700.01
-77.6171
19.0647
-1641.46
1014.84
778.795
-351.93
-823.253
-230.658
-1175.93
-246.966
-315.188
685.944
-1874.77
-642.904
1248.19
214.035
788.419
-1375.05
-702.02
-482.749
621.73
-331.363
-1042.79
1395.16
-1997.81
602.646
668.431
1332.82
302.485
-1.1788
745.897
718.662
-1464.56
-664.037
352.378
311.659
285.101
-69.3576
-215.743
162.826
304.101
175.214
-479.315
-593.001
1185.61
458.757
-633.984
-467.817
-414.614
882.431
-339.73
173.204
-477.161
174.538
-318.243
-734.051
343.633
-58.532
-587.892
1002.97
292.816
-153.654
-139.161
467.904
-793.145
-671.846
447.097
-1163.43
-852.643
1218.78
-584.591
471.567
303.512
-460.547
80.4785
1055.68
-160.017
340.908
-180.89
-519.033
1533.87
-787.758
252.136
387.501
-639.637
233.469
490.659
-28.5645
-462.095
-263.345
-213.816
853.158
1143.32
586.274
-894.425
973.736
-79.3103
-174.542
43.527
-748.741
321.13
-635.686
320.513
382.202
859.039
-1261.35
402.307
806.701
-835.596
-963.076
-571.886
1534.96
-170.181
469.743
-554.412
277.036
1381.95
796.795
-579.694
1348.14
-679.717
480.103
-693.984
-420.844
-426.554
-385.809
812.363
518.341
-867.116
-463.373
98.2871
365.085
-215.299
594.336
744.141
-337.858
-202.87
-154.682
357.552
-511.244
152.424
358.819
1505.97
81.8966
-1587.87
-773.629
1392.42
-1185.07
-479.816
562.053
-174.552
1190.29
-383.592
1116.25
511.494
721.088
-427.233
-913.579
-543.101
-1342.88
-32.1584
1020.17
-988.013
605.451
349.888
-955.339
-334.72
-233.819
-770.165
418.763
1673.86
-192.456
375.391
368.429
-743.819
-1901.64
-2173.45
1566.61
606.844
-2041.03
357.118
385.994
540.404
-926.398
-477.436
1057.03
-421.246
-674.003
1095.25
-2094.91
1434.39
660.517
601.852
-1023.1
63.3288
416.696
370.227
208.542
254.475
320.479
987.846
890.292
701.316
-336.769
-364.546
-300.828
634.915
-334.087
596.54
548.116
561.058
471.91
-1032.97
-820.989
-725.247
780.632
409.661
-423.637
727.593
-1228.71
1662.41
449.139
-1123.14
-337.453
558.829
-1422.43
930.783
491.643
-714.128
-285.151
-864.206
384.696
479.511
463.171
744.391
-1207.56
1106.68
-590.077
-410.92
685.373
-274.452
151.264
141.552
-484.44
-448.425
932.865
-252.421
562.689
-979.714
417.025
-429.11
619.885
-1735.52
438.475
695.573
-1134.05
544.722
91.7082
117.272
-2282.08
569.24
-97.6733
1494.18
1832.59
-223.565
-1609.03
-453.274
1848.44
-2054.63
1234.74
819.891
420.938
356.52
-27.0985
892.169
-1329.92
744.867
-899.054
-853.607
821.448
322.377
58.7155
-381.092
78.0618
87.1129
-165.175
1600.57
-854.676
-815.613
-290.84
498.555
-206.411
-292.144
388.117
340.96
259.471
362.26
-7.78406
1035.69
-1027.9
377.999
292.768
-670.767
-758.013
1877.01
-1118.99
-346.538
734.655
-1246.4
-416.937
-950.232
501.807
594.788
-803.658
208.87
789.276
-395.31
-393.966
-427.914
-466.511
453.105
1105.69
1279.32
-685.996
823.861
-355.957
387.224
333.561
-261.766
-221.732
-228.705
651.168
421.628
-879.289
457.661
225.911
363.278
-589.189
-438.052
859.68
782.028
-1187.41
902.453
-43.4139
-513.17
297.987
782.544
-98.7384
1431.56
1949.87
-70.7284
356.418
-323.31
417.172
-1122.73
1114.94
637.47
388.274
401.002
63.7306
434.825
282.607
504.289
-383.327
-280.71
-318.626
-65.7601
-370.642
382.167
-11.5247
-245.272
-264.165
1043.79
-1593.91
550.121
-201.419
-196.055
-387.534
680.301
-1681.39
1644.58
-992.491
278.45
-699.294
604.503
1261.85
-1866.36
631.074
1013.5
322.484
-1159
715.477
-289.812
-300.117
1408.08
-1490.73
846.079
644.648
422.439
-648.407
225.967
-376.934
498.201
-121.266
376.962
119.796
1783.43
421.15
-236.87
578.636
-1760.78
1182.14
-92.9975
402.332
350.545
350.77
-463.947
-636.729
1100.68
439.61
-896.391
-664.523
933.575
591.794
-114.995
-111.802
-455.968
-423.321
-320.125
-855.807
1065.55
-1065.55
-96.4668
-1613.89
1710.35
302.33
296.852
-947.014
-576.827
1523.84
-413.748
974.806
-627.283
-1035.94
691.813
415.017
-1106.83
490.576
-167.432
592.528
1257.63
-1850.15
-1046.88
2114.11
-1067.23
-386.114
-311.504
-493.749
838.75
-1805.59
1651.49
154.095
1805.59
-1653.41
-152.177
-237.463
511.112
-273.649
-557.788
1674.03
1597.5
-2014.44
1112.63
-287.512
-269.506
557.019
253.75
-591.203
-727.452
303.814
1387.3
657.292
596.547
504.771
-1101.32
296.199
424.889
901.678
515.326
-1417
548.309
-1054.45
1628.99
-585.202
-773.429
-373.248
-126.479
499.727
-507.836
1252.23
-772.065
317.898
321.136
372.316
270.247
-642.563
626.066
859.884
-623.633
284.701
689.035
-114.995
-322.709
-244.993
567.702
1204.99
-677.062
633.998
480.839
-1114.84
-973.189
973.189
-397.603
785.877
-299.148
-489.918
789.067
499.114
468.507
-967.62
401.251
-700.399
637.147
-900.005
262.858
-380.713
-515.412
1111.96
-686.594
-733.047
1419.64
-398.361
961.051
-1604.1
697.015
52.8248
-437.077
384.252
-510.022
730.88
269.17
338.677
177.264
313.313
-531.31
241.498
1933.48
-2032.22
286.497
-730.63
460.365
-852.276
391.911
-901.163
1442.93
-541.763
-445.87
-504.362
622.258
1160.59
-1782.85
-742.173
356.059
-475.665
1072.2
-792.2
1076.9
-314.011
-630.453
-489.906
749.99
427.176
-275.601
938.724
-313.185
-198.059
1650.1
-1873.67
-369.815
-609.898
-345.522
497.946
273.887
-605.25
-195.943
1090.55
-792.559
224.109
-300.957
-289.872
590.829
415.536
-908.335
492.799
-456.022
-460.594
-372.906
-347.082
598.667
-251.584
-468.765
-434.145
-338.826
-204.65
-396.122
666.369
-450.251
783.812
-1110.41
646.464
-1408.91
585.492
-28.2672
-1896.33
1924.6
591.898
-465.478
1250.59
-695.887
42.3833
-42.3833
692.763
-447.621
1035.21
-1662.5
-1194.86
-978.59
303.076
331.84
906
743.221
-499.637
-322.975
822.612
1712.65
-1740.91
-449.824
364.152
228.204
1175.98
-541.978
-973.405
1599.93
-626.524
462.404
-253.862
383.153
406.388
-789.541
542.195
495.656
-1037.85
-325.837
643.735
-39.3092
1972.79
1621.87
1025.52
-1756.21
752.838
-1220.05
467.215
-511.881
1413.56
867.173
-1388.9
-570.548
283.036
821.194
-421.422
576.4
-1229.43
653.03
-651.957
-1253.67
-719.184
1972.86
-214.643
572.204
-357.561
-189.82
304.634
-519.277
336.891
388.577
-725.468
-1530.02
785.263
744.76
910.257
-1482.14
856.985
-446.072
228.641
-378.19
-603.549
280.84
-711.66
-710.765
723.96
523.8
-1247.76
396.746
-207.058
-189.688
575.934
-993.725
-576.848
-428.978
750.108
-858.917
-1195.71
-1487.61
518.845
968.768
6.3705
-649.429
359.214
290.214
-1352.4
1082.67
269.725
-638.124
-472.286
-644.078
860.936
417.42
-212.234
-205.186
528.2
1012.28
-1540.48
1010.7
-291.984
100.922
191.062
-420.505
698.927
-412.429
-528.402
182.88
242.501
-1569.19
555.033
551.643
-772.576
262.555
163.613
-476.798
389.394
-849.987
2013.88
-1231.38
-782.499
415.348
-692.984
277.636
144.656
335.709
129.016
-464.725
-579.852
184.097
237.054
-717.947
1421.78
-703.828
436.905
496.652
-1210.78
265.84
1931.24
-1049.01
-882.23
685.767
-549.353
202.271
1414.34
-973.236
-441.101
353.081
-800.702
-639.316
1782.64
636.915
642.401
334.853
-12.4765
288.006
-1173.95
1782.95
-608.998
-1819.9
846.495
1785.39
-1710.54
-74.8495
-684.688
263.856
585.409
-735.494
245.588
1452.25
-585.078
409.713
452.653
-1920.5
1467.22
567.964
-429.492
-138.472
223.315
-562.141
-280.434
-196.023
-360.107
710.653
-595.739
222.492
623.221
576.412
-1199.63
1150.21
-2013.68
863.468
177.065
333.366
-1757.95
1718.64
334.08
-761.312
-170.028
398.669
773.267
705.944
-1479.21
1099.7
-1109.84
551.172
-1141.25
-654.424
265.29
389.134
538.36
-307.71
-639.934
-1022.56
313.625
-747.769
-940.572
195.269
168.518
228.228
395.925
312.169
-708.094
-646.012
-863.083
-1011.69
514.938
-1094.79
-296.458
499.504
558.559
660.221
-115.934
-27.1865
-412.529
735.013
289.251
-1239.43
593.42
1350.64
-577.37
467.833
-1044.68
-174.466
176.702
391.262
1056.41
572.588
-1730.37
1633.9
1655.61
-605.073
-1050.53
1967.4
-1955.15
-12.2502
215.897
-539.207
-352.256
576.365
-779.596
-329.432
-355.256
1015.67
728.482
-1536.53
808.045
348.054
-26.0164
1676.12
-1113.42
436.354
-1268.95
495.516
-61.3456
1567.31
1241.55
-488.708
-267.627
-24.3569
-286.763
760.981
-2014.66
-733.168
361.226
-555.588
194.361
57.9747
-217.992
1177.45
694.289
-1871.74
-627.369
197.877
972.859
-1549.69
-206.581
624.39
-417.809
883.064
1116.94
-758.656
1395.57
621.186
-489.661
-131.525
-364.72
1210.8
1064.58
-1981.19
916.612
-1211.09
568.183
1541.02
-607.443
-384.916
-169.16
-1283.21
597.21
1202.55
-54.3678
978.961
802.262
-1781.22
-222.041
600.428
-1595.33
994.897
506.541
945.756
-1452.3
635.265
612.923
397.946
-1140.58
346.86
1144.93
488.74
-268.603
-220.137
-1223.69
-1813.27
-2.11224
-1728.25
-224.579
-423.827
1661.85
-646.556
-1015.3
-496.969
1081.39
-1361.97
661.232
700.737
-1406.84
1488.74
-1375.04
616.379
1573.29
-405.322
-591.493
206.578
-1506.24
238.622
176.243
241.297
379.889
433.418
422.749
-856.167
527.242
-969.203
931.643
-1495.8
-719.246
252.885
466.36
-1076.85
483.845
-485.117
894.83
722.461
31.9883
-547.744
190.183
-913.862
-1360.67
-741.33
364.954
376.376
421.853
-750.332
328.479
-383.368
-151.616
-475.047
740.928
1592.41
-613.451
834.563
766.01
1360.05
-844.723
-1003.46
-591.866
-828.251
442.726
385.524
-1072.68
-662.662
317.021
345.641
-1375.27
-242.192
-820.56
414.493
406.067
-672.099
404.552
267.547
-701.552
289.122
428.025
504.839
401.582
458.098
490.884
391.547
611.435
-988.816
693.264
492.35
439.883
328.933
-768.816
1684.75
-1112.98
-571.775
-524.162
-287.512
-1064.89
465.534
346.829
423.786
614.12
-1037.91
-1427.27
780.71
-556.394
1185.49
371.42
-67.3184
426.976
-898.551
471.574
-1906.89
293.007
421.509
-673.726
252.217
-192.63
420.817
-228.186
-687.474
322.177
365.296
-698.678
334.132
380.019
405.858
632.354
-1046.1
780.652
683.626
-1464.28
452.65
648.025
303.499
307.243
-610.743
413.126
321.529
603.479
676.985
428.704
600.129
-1050.94
450.808
-1707.44
1175.54
531.896
1749.2
-562.528
644.458
-1188.68
544.225
-572.538
319.791
453.964
-970.359
516.395
769.937
-450.157
353.86
356.792
575.773
-945.589
673.57
-1298.47
624.902
396.543
761.103
-1268.94
796.861
528.103
-1324.96
491.172
429.544
-920.717
-521.25
-966.362
-316.584
653.475
351.038
546.605
-897.644
332.23
311.505
-520.552
2005.37
429.775
-813.316
383.541
-949.169
-835.326
-777.428
383.462
-1254.51
462.307
-1783.4
1653.41
129.984
1802.26
-1651.49
-150.766
-811.925
-604.611
275.509
329.101
-1785.39
2014.44
558.021
819.404
-1377.43
456.144
741.746
709.02
388.548
-1097.57
-55.4236
1672.23
-615.824
408.824
841.761
-539.283
289.34
249.942
-390.559
-211.881
363.145
-232.825
452.269
254.435
-569.139
314.704
270.617
-580.105
-295.927
458.562
-1070.35
611.785
558.378
1126.37
365.362
609.196
206.549
173.217
-379.766
1661.44
-932.953
1749.79
-1572.73
-177.052
-333.994
-854.801
431.479
863.535
-1070.12
-625.442
291.355
-1123.95
1682.32
-1612.7
-68.8946
1681.59
-349.933
-359.586
-381.657
554.741
621.234
-521.498
-32.0531
-513.773
505.946
-283.909
-222.036
1782.58
-1329.47
-628.234
306.316
321.918
419.79
366.272
757.355
-296.394
-412.475
-1802.26
1740.91
475.339
-1139.91
664.573
-39.3335
1673.23
579.333
458.501
-1037.83
73.2808
1183.34
-1503.47
-4.58983
-1902.3
232.297
-557.019
275.756
281.263
-890.253
591.63
-932.709
486.839
-1168.86
697.831
471.033
388.499
287.223
-786.86
-315.413
1261.13
916.779
725.16
-1224.79
476.682
748.104
511.989
726.11
-1238.1
-363.752
-253.509
422.026
-996.402
454.977
541.424
21.6476
-1942.14
1119.16
-482.013
-506.998
578.3
-1427.08
848.777
-435.573
827.484
-419.558
507.079
-1026.81
1879.97
411.951
-183.723
148.831
-172.903
-250.002
422.905
1955.15
-520.755
-1732.36
1085
-463.535
251.654
-1050.82
573.381
-314.266
565.577
934.665
-1500.24
-1087.49
443.412
-20.8576
-2011.36
1717.67
-653.093
-492.956
478.307
-1234.16
755.855
197.265
220.155
-218.147
794.036
726.695
831.43
702.912
-373.979
1123.36
-513.931
475.577
-191.254
-284.323
-1988.91
-667.605
-302.584
-358.204
-1.61415
359.818
449.392
-265.295
587.08
1074.36
-824.08
958.804
1289.21
-440.308
-204.879
-257.804
462.683
953.125
-910.464
-344.587
-1105.84
633.551
1606.11
-820.843
558.511
965.329
-401.271
762.929
-361.658
1165.16
-231.578
327.069
1397.7
-729.116
-231.094
467.432
-1243.67
776.243
-984.377
-164.798
1149.17
458.677
-991.203
532.526
193.471
206.411
282.328
800.809
-120.442
885.075
-440.89
1149.75
-761.202
572.865
-1516.97
944.107
-1253.61
1858.11
-442.095
-1557.76
908.343
-1451.44
-326.974
-419.672
1508.57
-1575.04
814.114
1541.33
204.886
270.691
-364.789
-1783.4
-311.126
-1024.2
1611.27
-1809.93
1809.93
1597.5
-1041.07
-659.122
-347.782
360.681
614.125
-368.588
-372.708
-1437.78
925.904
1160.26
622.689
1189.42
1845.73
-1253.2
-626.51
258.137
1714.35
-1980.71
266.362
842.311
-1311.86
1597.23
-583.729
811.711
315.963
-342.897
574.737
823.078
632.755
1399.52
-232.461
-461.135
-367.888
358.587
-237.786
489.294
762.933
-306.039
-158.686
-335.294
588.768
-253.474
26.6725
-386.507
1142.6
-1778.26
-463.238
-496.906
-587.714
895.338
710.769
-1651.76
933.815
-468.553
-634.675
-531.825
1296.61
354.835
1781.06
-1759.41
-1712.65
1955.15
-1597.32
863.594
733.73
-372.651
-1856.11
949.696
603.998
848.252
-417.163
1855.19
-704.972
-413.362
684.081
458.142
-1142.22
-1138.45
461.646
779.9
-1670.76
492.028
929.747
171.717
-381.899
210.182
-1617.45
-398.726
-430.429
1015.93
-689.786
1493.18
-971.934
1855
239.048
-548.951
504.057
-299.171
492.319
921.24
564.044
1009.24
-480.006
-442.211
595.424
913.148
-1338.41
-36.8533
1621.09
-855.081
540.609
1000.72
-1527.62
-1090.76
1789.48
-1241.55
-547.931
1250.06
-331.885
-918.17
-187.18
448.273
-261.093
-467.869
-252.336
432.732
-180.397
152.337
-405.845
1749.87
-1751.98
-466.622
-552.567
-929.576
424.05
-193.682
-230.368
456.491
-457.858
-358.911
-327.846
686.757
-979.909
429.806
-1186.88
689.91
410.764
-648.462
-449.002
1621.79
-878.566
550.087
-474.883
-590.77
-479.576
47.5413
-45.1784
-2.3629
-1131.59
435.701
-688.612
-1067.55
1756.16
-609.014
-1472.81
739.761
583.11
-1650.5
1067.39
-389.223
-485.727
168.598
539.686
-1303.08
771.258
560.459
1036.77
-2198.05
1021.57
1176.48
-366.871
59.8595
-53.5497
-6.30976
1529.37
-389.834
466.265
1149.36
603.824
937.194
588.323
546.215
-1134.54
172.024
-447.688
-1710.54
273.81
1153.44
-626.31
538.562
1046.3
-1584.87
1126.53
-1698.31
177.893
724.559
558.075
-902.662
-1105
-116.444
310.437
-193.994
-529.573
-435.6
-658.849
-438.407
220.26
-1674.66
972.167
-493.448
206.936
-390.659
544.232
-311.935
-615.137
1239.93
-1309.07
930.818
378.248
-1028.07
-370.679
-777.826
-847.226
1742.56
-494.052
1798.66
-1592.66
-205.994
-1608.87
1050.12
558.754
-745.589
-145.413
266.924
-121.511
-602.44
396.271
287.613
-683.884
-542.829
1017.15
652.899
-361.544
-1664.94
1080.35
593.219
1137.66
-1730.88
-418.844
-307.279
-380.195
-766.034
-473.658
-340.831
518.095
1611.01
-1027.9
-802.688
1549.15
686.783
-322.631
750.612
1184.48
-1935.09
293.551
321.391
-504.291
-1997.91
1778.8
219.105
767.724
-490.826
-276.898
552.392
1093.51
-1645.9
47.5413
-1732.84
-240.903
1807.51
-1630.43
1109.35
521.086
-1738.5
5.65376
-540.269
59.8595
1757.95
-1778.8
971.713
646.839
-1618.55
239.256
-146.116
-93.1399
-413.93
-287.622
60.1592
39.699
-185.112
-450.599
-449.405
-423.983
231.352
1556.54
394.249
-236.005
-436.094
403.748
-166.694
337.579
1561.18
1103.21
-230.933
-872.274
-1139.77
1762.03
-1787.61
1099
-732.274
-1055.34
-1302.59
1902.89
-600.298
1192.24
-1830.17
637.93
150.48
-908.044
1731.63
45.0615
-1776.69
-510.287
-1115.44
-1749.87
-1013.85
571.641
1050.89
612.102
1168.11
-1780.21
296.212
-470.764
730.997
-396.865
378.997
956.57
704.471
-404.829
-646.109
604.796
1105.77
-1710.56
-410.812
-386.642
797.454
444.087
-1718.64
1572.73
145.905
606.638
-1082.3
564.384
1117.94
-1608.3
1024.57
-249.584
246.738
329.627
1967.4
429.506
-91.1943
1021.28
743.624
-1764.9
-720.196
1118.37
-1609.65
170.57
-587.81
180.329
223.419
-665.267
-589.24
604.199
1068.03
-710.197
-287.267
-1417.27
700.541
716.728
-379.493
820.023
112.747
-932.769
581.847
-142.013
1609.24
-226.718
275.905
-794.331
-1997.91
1719.75
1012.29
66.0438
318.908
451.03
-962.993
-1025.91
-1823.15
661.561
1749.76
531.267
-491.932
1254.87
1122.91
-436.399
1050.52
-1014.85
513.662
501.192
724.635
1083.26
-1807.9
506.235
496.733
-1545.06
-774.756
31.5977
810.685
-427.222
-916.543
409.546
-557.769
-831.131
164.704
-598.047
1446.82
1090.43
151.329
159.108
-572.102
1673.73
-798.101
1578.75
-1784.77
596.552
1188.22
566.811
-916.064
-1791.34
1980.71
-189.369
1771.89
182.978
-562.264
132.649
-92.95
-499.624
1255.48
586.361
1162.84
-495.86
453.607
890.811
-481.844
-803.135
438.47
364.665
1467.41
1125.79
-538.538
1472.35
-478.376
-420.834
899.21
-625.111
520.777
-1239.05
1749.79
1895.78
-711.298
1640.58
-668.865
-1285.94
743.116
-583.514
117.63
-208.48
360.688
-184.19
-538.747
-1284.96
1930.07
-645.106
1215.38
-570.922
1153.01
-1715.54
1743.49
-595.784
-563.782
-570.267
1775.9
-329.015
-714.152
-492.961
1269.2
-1738.63
-1919.15
634.191
350.889
-996.291
171.639
220.148
-1774.65
1240.04
534.604
1198.64
573.25
-529.004
-486.422
1234.53
184.176
236.641
607.789
1287.99
-557.597
-1275.68
1833.28
-1060.04
1057.77
873.466
-210.512
-1714.35
1759.41
-530.173
1459.92
-1791.34
-383.746
11.2097
372.537
-277.485
608.457
-330.972
98.1854
505.066
810.857
-389.004
1294.07
1291.84
-428.31
884.885
-453.406
1877.6
-685.361
1639.04
-1781.06
-426.649
-763.554
300.795
462.759
-579.123
-584.669
55.5297
-970.569
-1018.87
-693.264
1712.14
-969.024
-1229.02
154.13
-423.636
-671.616
729.329
1204.75
672.854
1460.07
-611.818
1672.34
1364.67
-593.416
-503.846
204.676
-523.382
1444.62
1284.22
-583.678
-941.363
927.195
53.9391
-981.134
560.633
-526.074
1451.98
1547.34
-610.149
-47.9946
47.9946
-611.191
1678.58
1285.28
-505.384
1161.35
-55.0318
1851.78
-358.045
1541.75
-610.11
-527.736
1391.33
-677.1
1262.09
-584.985
1608.55
-613.65
762.249
601.6
-1363.85
-655.273
299.709
497.086
621.706
-2018.03
-1014.73
1639.04
47.9956
-47.9956
-76.5271
405.382
451.603
398.185
-21.2228
-278.125
921.152
-524.609
-440.083
845.465
-254.968
644.102
-416.932
1559.79
-461.754
-881.123
174.963
199.653
-374.616
621.927
1287.52
-1909.45
962.246
-475.406
-45.1784
130.161
-2005.77
1875.61
-469.75
193.869
1218.42
-459.725
-758.694
-321.974
-594.57
-508.199
-53.5497
-466.962
244.926
1200.11
-578.873
237.504
-395.98
158.476
-6.00848
-90.4083
657.924
-567.515
13.9202
-332.547
-608.281
-68.9336
68.9336
-1239.16
1982.78
-1228.39
-231.682
-1826.35
233.691
-1056.33
-1004.63
-190.534
-1694.16
731.164
1268.09
-1987.27
386.242
321.235
-707.478
-1908.38
1272.2
636.178
-109.202
109.202
-990.357
-9.07408
-1927.22
-579.175
1705.55
-701.785
1691.71
-623.678
-193.304
-1709
-604.901
-444.646
-616.657
-75.6296
75.6296
-1586.45
201.573
1384.87
144.756
171.238
-315.994
588.313
514.894
1033.76
-492.34
1806.43
797.012
-170.969
164.659
538.281
1759.14
-616.54
-573.802
1691.74
438.466
1872.34
-667.589
-1865.66
-1996.91
-669.58
-79.9457
79.9457
-612.505
244.617
-695.234
1056.36
-482.979
-1108.3
-295.212
858.801
1909.92
1688.25
-1688.25
-281.154
767.111
1818.41
615.853
1314.22
117.889
121.367
616.012
585.034
855.527
-855.527
229.966
-364.09
-448.043
374.748
986.594
-472.932
-663.016
-1165.93
1762.48
293.312
-1675.06
639.118
-291.879
474.857
1801.9
-613.689
-147.968
-430.082
399.355
745.576
1795.97
-635.705
-531.333
-772.293
2020.95
-897.878
-1123.07
1697.84
-577.184
1261.59
-1883.53
621.935
361.035
-909.986
-172.271
-21.0563
1137.29
-503.738
130.616
649.035
-1671.6
459.256
630.519
-1865.66
-604.293
1844.33
914.954
-1198.74
1817.9
-619.155
1840.92
-596.345
-1244.57
461.764
932.769
-1751.98
954.639
-1473.51
228.942
1244.57
-861.412
-1292.53
-144.38
33.7607
110.619
603.162
282.558
1059.58
-463.76
878.288
-414.528
850.454
762.905
-1613.36
665.664
1103.18
-3.29379
-404.557
407.851
-1803.93
748.593
717.952
84.6898
-1157.52
1998.17
-696.897
-1301.27
-558.154
1720.99
851.86
996.273
-1848.13
1266.29
706.567
-415.785
737.962
844.73
1066.08
-607.404
1818.41
648.605
1830.7
-1221.6
-609.092
-377.5
-344.482
721.982
97.3544
-1034.43
1714.86
-561.85
-691.368
691.368
1287.52
615.374
1394.7
216.306
-565.363
291.779
-199.722
722.964
1149.38
500.74
-316.564
-900.346
-595.453
1746.33
-1746.33
514.339
-514.339
1018.56
1057.28
-2075.84
1896.65
-635.06
-602.089
845.583
-976.976
-1085.16
1032.24
714.77
-1747.01
-90.4828
-373.812
-649.286
-834.29
2106.49
-1284.65
-634.501
1033.76
1005.09
1330.05
668.113
340.438
1043.97
234.993
347.096
524.887
1813.23
-1813.23
671.374
22.0044
-161.166
-1028.36
-563.199
1724.54
989.194
1010.81
-1891.76
-233.013