/*--------------------------------*- C++ -*----------------------------------*\
  =========                 |
  \\      /  F ield         | OpenFOAM: The Open Source CFD Toolbox
   \\    /   O peration     | Website:  https://openfoam.org
    \\  /    A nd           | Version:  7
     \\/     M anipulation  |
\*---------------------------------------------------------------------------*/
FoamFile
{
    version     2.0;
    format      ascii;
    class       volScalarField;
    location    "5.5";
    object      p;
}
// * * * * * * * * * * * * * * * * * * * * * * * * * * * * * * * * * * * * * //

dimensions      [0 2 -2 0 0 0 0];

internalField   nonuniform List<scalar> 
7807
(
3.4338
2.79396
3.68216
3.42936
1.50084
0.373514
3.73687
1.98351
0.920183
2.93994
0.35705
1.74693
2.11165
2.64597
2.95696
2.33278
3.44166
2.21252
2.19517
2.66327
2.85229
1.60666
2.54368
3.2979
2.29742
3.44635
1.47753
2.73275
3.18597
2.23406
2.37786
3.83141
2.54535
1.24348
0.681663
2.84728
2.26309
3.71721
2.1381
1.01535
2.14224
2.31953
2.68868
2.91986
0.836883
0.612672
1.58854
2.11803
0.578341
2.66706
1.85761
2.70908
2.37116
2.559
2.84706
1.96706
2.17454
1.98038
2.45866
1.23439
0.480643
1.93889
2.6449
1.76532
1.34744
2.38005
0.906185
0.0767252
3.17627
2.09899
0.593194
2.60127
2.28514
2.44112
2.19959
2.53546
3.66587
2.83734
3.00209
2.59477
2.10013
3.80999
2.98901
2.45257
1.77534
1.69446
2.01343
2.36037
1.51471
1.86244
3.20102
2.95157
0.772877
2.1185
1.8554
2.36289
2.60048
2.56405
1.7737
1.42776
2.55994
3.02079
1.843
0.219922
2.97339
3.23139
4.14561
1.97823
0.021254
2.65906
3.39815
2.70127
0.0338186
2.68297
3.2286
1.32832
2.77536
3.11119
2.56654
2.44855
2.57925
3.79426
2.69672
2.32322
2.55454
1.58813
2.32553
2.16655
1.38674
2.36441
2.91625
2.98964
1.33378
1.53465
2.46121
3.3821
4.2594
0.253205
2.14741
2.66065
2.4183
2.61872
2.53928
2.43828
4.12492
2.62369
3.19292
2.46493
2.51572
3.77654
2.82469
2.9483
1.72293
3.1494
2.98166
3.65053
2.5585
2.10456
3.90598
0.543822
2.13023
3.32116
0.31774
1.98362
1.88834
3.49224
3.4987
3.87971
1.97923
1.82377
0.0916439
2.47139
1.30474
2.80689
2.17418
2.48136
2.99604
3.24313
0.785038
1.33183
3.43796
0.528139
0.63528
3.72085
2.79573
2.66267
2.56127
2.42288
2.6167
2.6855
0.314636
2.59145
3.25832
1.84992
0.620429
3.31826
1.49263
2.34994
2.60012
0.091011
1.69393
3.39673
3.30482
3.68752
2.77466
2.70745
2.7885
2.76792
3.38686
0.79482
0.44796
4.24084
2.30345
1.32069
2.58891
2.33924
3.59209
3.61582
2.61902
3.87281
1.469
2.2105
2.56546
2.89533
2.69934
3.38548
3.94541
0.777398
2.3163
3.14101
2.06678
3.10474
1.52933
3.84488
3.65163
2.00649
2.18491
0.996037
3.26916
0.764095
2.23374
2.60111
0.598783
1.8139
1.51194
3.22646
0.360263
1.90026
2.5907
3.83092
2.96865
3.9254
0.423615
2.5957
1.08713
3.67781
1.92062
4.2127
2.22063
1.70933
2.69277
2.78195
1.31512
0.908766
1.32198
2.08439
2.68049
0.410644
2.5517
1.87659
0.78485
1.36318
3.96171
2.08296
1.29597
4.16184
1.80804
3.41861
1.07596
2.48162
0.12591
2.52992
2.87597
3.01597
2.46393
1.31839
2.64869
2.40718
0.892907
1.29926
1.90099
2.08308
1.82121
1.70885
2.44033
2.69012
2.4361
2.93252
2.50397
3.59147
3.60943
1.59996
2.99759
0.0966816
1.95962
2.43691
3.28026
3.0348
0.730097
1.93775
2.4923
3.22878
1.57817
1.87727
1.60209
3.07506
2.89385
3.53552
1.59812
2.82713
0.767462
2.18217
0.499826
2.43777
1.04582
2.52098
2.98306
2.51689
2.48604
2.27721
1.26785
2.67798
2.3859
3.03781
3.22707
2.79689
2.90144
2.38629
2.07546
2.59513
3.87509
2.88867
2.71676
3.90039
1.59958
1.65992
2.92756
1.72172
2.61593
2.07197
1.80108
1.68478
3.17727
0.852043
1.29213
0.660905
1.86063
2.21719
0.112218
1.44261
2.44758
4.1021
2.51196
2.28927
3.95777
3.62681
2.98314
3.01022
2.5319
2.09051
3.45614
2.22263
3.48548
2.62522
2.71995
3.30604
3.48463
2.53967
3.01409
3.38411
3.43872
2.76897
1.83729
1.94422
0.66384
2.59476
2.24157
1.76216
0.712138
1.61466
2.64584
3.12352
2.36456
2.27046
1.88884
2.81292
2.07741
2.13552
3.34556
1.63531
0.509802
0.901874
0.766516
2.41511
3.16101
1.93012
2.65696
2.70202
3.72487
2.16801
2.16807
2.00164
3.93321
1.39458
3.52676
3.20551
0.731724
2.62263
1.84671
2.62539
1.27972
2.99268
2.40873
2.14183
1.35005
3.19926
3.23251
2.66097
2.45792
1.92136
2.57161
3.13511
3.88598
2.81001
2.21247
0.0369992
2.29075
1.71219
2.65752
2.68607
2.97403
3.80795
3.19958
2.80421
3.33775
3.99333
2.57237
1.7666
3.46209
1.70438
0.9646
2.28365
0.699793
2.78498
2.40278
2.52647
1.74883
3.32471
1.64907
0.463298
2.71119
1.70902
2.99249
2.55448
2.58787
3.08006
3.14311
3.02817
3.04131
0.893867
3.11547
3.05874
1.36261
2.35536
1.30639
2.5085
2.54017
1.9757
1.56926
3.25363
0.35187
0.975606
1.70942
2.4084
2.57846
2.49805
2.47062
2.67024
2.71835
2.68107
3.43818
2.99819
2.06804
3.85304
2.60583
2.23449
2.45908
2.37743
2.34429
2.20629
2.70786
2.88847
0.499726
2.65296
0.684281
3.62277
3.19307
1.96857
2.21812
0.869411
3.83833
3.53233
3.08562
3.29062
2.61262
4.48817
0.817641
2.8098
2.37027
3.25052
3.96108
3.11444
3.17157
2.2681
0.90734
3.26089
2.93272
3.85859
2.98481
3.35623
2.07792
3.76655
3.50883
2.16684
2.11099
3.22284
2.61176
0.86986
2.28022
2.60155
2.64952
2.26173
2.2686
0.949919
3.53033
2.24362
0.735301
2.68394
1.27305
0.920764
2.31039
3.35859
2.70232
3.98009
0.586923
3.35297
2.64788
0.922407
0.274938
3.17978
3.33826
1.93295
3.28769
0.40021
3.31564
2.79036
2.17906
4.12688
2.58024
3.27393
2.45988
3.31277
3.33388
2.34978
2.41235
2.21443
1.79208
0.993383
2.2282
3.45948
0.453371
3.29129
2.71927
3.65556
3.26447
2.60764
3.88735
1.64855
2.58265
2.76067
2.45741
2.06717
2.64187
2.87084
3.92409
0.497611
1.69405
2.69245
0.121037
3.61927
1.69509
0.13951
0.952026
1.14873
2.42573
2.636
1.61059
0.643858
2.07803
2.31363
2.68013
2.65807
2.56388
0.198457
2.7526
2.26458
3.22389
3.70624
1.88378
3.22007
0.900697
2.25434
2.89054
2.07658
3.39144
2.27496
2.82372
2.90973
3.19812
2.39397
2.1952
3.28908
2.65182
3.67592
2.17088
3.43394
2.16294
1.47975
3.14788
2.58661
2.94693
1.67779
0.116941
2.69245
3.33639
1.88115
3.20949
2.25718
2.74382
2.77638
2.50919
1.63937
2.10213
2.6349
2.47192
2.17452
1.17764
3.6983
3.20404
2.67104
0.949181
3.51067
0.32274
0.919905
3.21351
2.52516
3.2972
2.73279
2.53133
2.84287
2.73071
3.06883
1.58509
2.54996
0.555842
2.28238
3.37142
2.33472
1.80002
2.62563
1.68674
1.47834
3.91195
2.19045
1.38267
0.0220626
3.0777
2.50835
1.26754
1.77625
3.16833
3.03654
2.53588
0.218426
3.22007
2.39715
3.30252
2.36545
2.43651
2.48662
0.717252
2.89499
3.02497
3.10065
2.72923
3.46171
2.0381
3.28338
2.31885
2.66998
1.10243
2.41446
1.15869
3.20302
3.40202
1.6309
2.56262
2.34818
2.73891
2.72789
1.65695
2.7916
3.93661
3.0646
0.867382
3.02129
2.17298
5.19584
2.25049
2.47099
2.62729
2.47749
2.41933
2.10043
2.31256
2.0753
2.85981
0.743566
2.84308
2.98944
3.57373
2.52705
3.3032
1.67867
2.79118
2.57514
3.3172
2.09766
0.941649
2.40044
2.20079
2.78372
2.45526
2.42001
2.9294
2.29499
2.61711
2.65512
0.142859
2.90217
2.64679
3.26193
2.83047
2.93792
2.71124
3.50629
2.72429
2.49417
2.6407
4.3642
2.83433
2.26106
2.71074
2.70238
2.72703
2.73665
3.26847
1.80869
3.43675
2.15686
1.28415
1.75264
2.9772
3.81591
2.08992
2.66343
3.19666
0.313207
2.39955
2.62648
2.85564
2.15512
1.7503
2.54996
2.15746
0.371558
2.5769
3.40986
2.62736
2.33627
1.64009
3.19825
1.33511
1.52136
1.08672
1.71697
3.11507
2.68657
2.44761
2.35932
0.605872
2.75438
2.95799
2.7496
2.52869
2.43784
0.920576
2.31651
2.59361
3.07873
3.67525
1.85354
2.59058
1.97716
2.71417
3.23227
1.17962
0.998461
3.2392
3.0421
2.54772
1.83219
1.66891
2.58869
1.13112
2.61752
2.25408
3.56601
3.40981
2.78832
2.65232
2.09116
2.55864
3.00576
2.66088
2.64981
0.105262
2.97374
2.4715
2.67033
2.6164
2.54554
1.17689
1.81415
3.26767
2.47505
0.0479495
1.7815
2.85137
0.827871
2.67236
0.79872
2.3661
2.67717
2.77377
0.793922
0.385532
3.00218
2.67134
3.88876
3.41735
2.94387
1.70008
2.59921
0.959406
2.88529
2.73858
3.03626
2.32988
3.40588
2.55753
1.26645
2.54626
2.7752
1.64236
2.69291
2.58999
2.54943
2.48577
2.7718
2.59342
2.43117
2.80066
3.22055
2.71229
0.0171494
2.74635
2.58454
2.7304
2.43405
1.35005
2.62731
2.69787
2.62057
2.51087
3.19609
2.74754
2.44475
2.47174
2.72538
2.58758
2.86289
1.12463
3.07096
3.27639
2.00638
3.3421
2.70957
2.70172
2.67877
3.25282
2.93297
3.89088
0.12151
3.03331
3.20779
2.22568
1.50382
2.24478
2.95941
0.627599
2.28575
2.64063
2.32382
2.34041
0.803195
2.90523
1.28206
1.2554
3.36862
2.35141
3.1641
2.51671
3.26677
2.52074
1.46043
2.81845
2.40485
3.75211
1.4294
2.63428
1.27801
1.14637
2.48346
2.7627
0.544404
2.06681
2.63459
1.29744
0.433397
0.813725
3.08539
2.86719
2.26235
1.32778
2.32097
2.2602
2.36445
1.26371
3.53019
2.83501
3.30855
3.46419
0.811707
3.14598
3.08309
1.29291
1.11963
1.52575
2.91568
2.69288
2.59133
2.56706
2.63859
3.16695
2.76801
0.154914
2.30863
2.39256
2.47405
1.82929
2.23227
1.41442
2.53247
1.08863
1.311
2.3012
1.84581
2.37801
0.149555
2.22808
2.60932
2.85425
2.80148
2.04527
2.14222
2.0474
1.88369
2.66
2.04705
0.711615
1.31578
2.56789
2.14468
1.88089
2.27451
2.39901
2.70705
2.13894
3.10044
2.14902
2.56901
2.4778
2.35471
2.2323
1.78337
1.94863
1.77639
2.18642
2.23555
3.25899
3.16693
2.87083
3.67467
0.522797
2.05909
2.23774
2.0436
3.10598
2.31418
2.91212
2.09855
3.30706
1.64173
1.63628
2.75682
2.59101
1.02518
2.52331
1.91152
2.32106
0.29254
1.9432
1.63845
2.28126
2.79756
2.50711
2.29469
2.20212
2.43705
2.95115
1.63049
1.56879
1.57529
3.91235
1.10559
2.95035
2.33481
2.32459
2.38983
2.56342
2.40744
2.45642
2.31663
1.8774
0.679504
1.82059
2.39949
2.91671
1.49562
3.24635
2.44889
2.19808
1.26093
2.41698
0.666995
3.07445
2.42943
2.39128
2.36898
2.13325
2.47552
1.49041
2.49942
2.90177
2.38271
2.66542
1.43209
2.39486
2.29807
2.22488
1.76996
3.04856
1.62332
2.29917
1.38904
3.11194
2.48931
2.38873
1.72267
2.10673
1.72898
3.27423
2.86608
3.32723
2.08695
1.482
1.38343
1.68612
3.28679
2.58066
2.00992
0.995035
2.40655
2.6425
1.62625
2.56694
2.24624
2.67536
1.87236
2.47201
4.68719
2.58164
2.40521
2.57052
0.377483
2.78768
1.76824
2.40064
1.94333
2.46762
2.21789
1.23773
1.68355
1.71766
3.24075
1.90159
1.56206
1.86834
2.58174
2.03617
2.34231
2.13579
2.03828
2.02481
1.76104
3.25811
2.52628
1.76946
1.81323
2.39804
2.19528
2.53979
1.61856
2.88692
2.47018
2.03397
1.62481
2.21682
3.83418
3.2468
2.13348
1.13218
1.67626
2.64833
1.84117
2.42103
1.23417
2.54319
1.55837
2.25383
2.95955
1.61339
2.4021
1.42971
3.5663
2.0388
2.1364
2.90673
1.81258
2.41508
3.13799
3.80335
2.13058
2.15909
1.56438
1.38159
0.310789
0.0649464
2.10938
1.2864
3.15067
1.46379
1.55097
2.22675
0.905142
2.5178
2.65931
2.25999
2.54046
2.40074
3.104
2.72139
2.87247
2.7413
2.86771
2.97684
2.17218
1.37447
2.16571
2.66874
1.75194
2.22511
3.06694
3.50751
2.6495
1.10092
0.759953
1.41831
0.207744
2.47062
1.3667
2.12375
2.53183
1.1336
1.75797
0.903504
2.96187
2.22898
2.80819
1.6738
3.62567
3.42785
2.12723
2.7383
2.40277
2.37458
2.2212
1.60201
2.67507
2.64519
2.52436
2.93236
0.916976
3.25693
2.66599
2.06491
2.64948
2.38755
1.19257
2.06482
1.41598
2.54545
1.79617
3.23962
0.995779
2.08403
1.0088
2.86869
2.09624
1.66956
2.74428
1.24823
3.03185
3.07836
2.41244
1.4737
0.730092
1.22349
1.14483
2.57475
2.98799
2.99876
0.879352
2.43093
1.22
3.32837
2.57426
3.38467
2.51174
1.05584
1.23014
2.03168
1.90248
1.43221
0.172328
2.51695
2.51713
0.875572
1.32967
2.30936
0.210547
3.14106
1.43094
2.54923
2.30333
1.93552
2.55986
2.58372
3.08186
2.6872
2.31726
0.950695
2.56046
2.31819
2.96732
3.16832
3.61225
1.34102
2.57117
2.58175
3.48702
2.61139
0.686197
1.96569
1.8064
1.89932
2.5405
2.98952
1.14461
2.71522
2.08952
3.00098
1.1306
1.02467
2.85173
3.43671
2.55344
3.17365
1.80687
0.872909
0.0271688
2.74694
2.50437
1.21621
3.07988
2.11785
1.91139
3.95733
1.42797
1.86967
2.57362
2.70725
1.60326
3.02356
2.71893
0.740399
2.61624
1.07704
0.724644
3.12082
2.65588
1.03946
2.54818
2.37369
1.74343
2.72613
1.64455
2.36724
1.70918
1.79405
2.58519
2.48243
2.74797
1.46713
3.15012
3.26924
2.77857
2.39052
2.37008
1.86409
3.13541
3.0648
2.39176
0.82475
2.34984
2.51926
2.64894
2.4291
1.66947
2.85869
2.40906
0.693446
0.718611
2.74411
2.4902
2.38377
2.30488
2.93827
2.52209
1.01203
1.66082
1.06541
2.54361
0.26048
1.59142
2.68283
2.7257
3.17764
1.75456
1.79284
2.3626
2.37892
0.775217
2.53665
3.18493
3.10385
0.25128
0.645324
3.11441
1.71268
2.70335
2.47827
1.71645
1.50956
2.57364
2.81856
3.1285
2.54904
1.46166
2.43915
2.57168
1.26852
0.862502
1.40902
2.87583
2.54355
3.20436
0.859233
4.2075
2.96647
0.929009
1.65648
1.16031
1.1951
0.282815
0.884064
2.59121
1.41899
1.0644
0.816525
3.04519
1.9127
0.829013
0.712345
3.5509
2.34525
2.87012
1.65779
1.3163
2.89862
0.770399
2.44475
2.84185
1.56956
2.20935
0.635436
0.918106
2.44238
2.70214
1.96911
2.8148
2.78911
0.259403
2.32993
2.4719
2.92424
1.50994
0.779706
2.56302
1.93428
1.41368
2.53586
0.762028
2.82071
1.072
1.36712
3.0287
1.93751
2.56433
3.89646
1.67736
0.925742
2.57893
2.63797
2.25761
1.8279
0.723356
2.43246
0.705273
3.23219
4.09307
3.07916
1.67888
1.80763
0.304453
2.42362
0.698741
2.38702
1.58471
1.21198
1.73689
2.27552
0.674496
1.38384
2.35761
0.965104
2.2455
2.27063
2.65301
1.74794
4.21111
1.60819
1.60542
0.912261
2.18837
2.54176
2.12778
0.855955
0.62372
1.93057
0.756621
0.658379
2.30789
1.20673
0.244852
2.54221
1.96434
2.58247
1.5446
0.489234
1.70496
2.60026
2.31391
2.55008
1.59985
1.26439
1.17427
1.52167
0.751228
3.45464
1.46003
0.24473
1.48902
1.68087
1.36301
2.58252
2.54797
1.05778
2.00021
0.290635
2.04306
0.536276
2.50673
0.806932
1.11124
2.08291
0.487168
2.19262
0.948401
1.41369
2.29551
0.312702
3.68801
2.5523
2.50223
0.405774
0.216354
1.7444
1.36967
2.56134
0.20946
0.162333
1.36936
0.00751303
1.02998
1.06469
1.12912
1.24525
2.55561
3.79294
2.56092
3.56644
2.045
2.38252
0.258189
1.2469
2.1867
0.859853
0.927751
0.784509
3.03696
1.83653
1.21155
5.52359
1.07555
1.43412
1.10024
0.0553179
3.11196
1.70794
1.36683
0.825094
1.65185
0.474758
1.79013
2.51472
1.04044
1.92023
-0.0173993
2.20574
0.855764
3.21935
1.08496
1.40946
2.61807
1.75231
1.00502
1.45662
0.430325
3.16646
2.60542
1.50732
0.995211
2.00127
1.25899
2.80213
3.06394
2.9611
1.45557
0.0681553
0.0148441
2.91255
0.893591
2.55466
2.58409
2.29951
3.04504
4.10315
1.53332
3.28308
2.28951
2.42623
3.17551
0.949894
2.58621
0.202831
2.09499
2.54411
0.450068
2.59396
1.28529
2.66953
2.19522
2.51082
2.50595
2.11839
2.58279
2.54153
0.708209
2.13353
0.847951
2.51303
0.244781
0.749516
2.77706
3.14526
0.0132566
2.52366
1.82937
0.620909
2.41863
0.206715
2.17522
1.16453
2.51074
0.692718
0.65997
1.8446
1.05263
3.13035
2.43386
3.06312
0.692083
1.17152
2.41348
0.0383216
2.5637
2.59049
2.55897
4.13488
1.99771
0.196621
2.48526
2.49512
2.01807
0.896771
0.615146
2.52963
0.801569
1.28284
0.0326216
0.918499
2.42527
3.21346
2.75041
3.01745
1.93115
0.00756952
2.28259
2.60229
0.219289
0.189685
0.961678
0.484529
1.03099
3.36832
2.58044
0.448441
0.255242
2.60517
3.26884
3.20894
0.279604
2.47143
2.40872
2.29575
2.53079
2.2639
1.72017
3.06363
0.645209
2.39607
3.16749
2.53717
0.637215
2.55297
0.811593
3.44832
2.60957
0.739569
0.440363
3.24122
0.0703864
0.90181
2.1212
0.427372
3.39217
2.12174
1.96546
2.61062
1.82693
2.65432
3.21606
2.57495
2.84078
1.31855
0.383785
1.58072
0.581887
0.431038
2.76093
3.20487
3.09658
1.18808
3.40356
2.45044
0.242799
2.52454
0.603411
2.41393
2.60333
2.35507
1.99209
1.54359
2.07117
1.21422
1.59542
2.52475
1.68533
0.745773
0.320004
0.468042
2.48625
0.572217
2.47068
3.45341
2.02674
0.416956
1.74479
0.47877
3.12388
0.924875
0.515793
0.534678
0.249292
3.30095
0.97954
3.37049
2.59532
0.76772
2.55822
1.5584
3.12129
4.6445
1.37574
0.0353163
0.405366
0.338109
3.1589
0.0174341
1.49823
2.34265
3.34379
0.18272
0.348151
0.0358633
0.283972
2.33007
0.0347818
3.41604
2.36571
0.650958
0.288759
1.52925
2.45708
0.0171306
0.41516
3.15539
0.333977
2.44576
2.71653
0.739942
0.0162294
2.76841
0.0177826
3.18304
0.159525
1.14315
0.233138
0.68118
2.87649
0.137049
1.55606
0.300474
2.5081
1.85577
1.90843
2.15471
3.1106
1.37686
0.672831
2.02272
2.0198
0.834664
0.951003
1.43901
0.50145
3.28221
2.26686
3.83184
0.172313
2.01124
1.2256
3.12281
0.550458
2.42168
0.262002
1.51596
2.45304
0.836055
2.25316
2.54037
2.11856
0.547583
2.62542
0.839635
1.47464
1.90151
2.55079
1.63949
1.01906
1.09872
1.76022
1.42728
0.370285
1.38389
4.56681
0.644498
1.71384
2.46457
2.59645
2.58216
2.53664
2.35081
1.62114
2.5268
0.598792
0.62762
3.98845
0.590379
3.25553
0.981868
1.19124
1.34104
2.76019
1.05465
2.07577
0.396743
1.00994
0.705578
0.582349
2.2086
0.803175
0.862486
0.569769
1.16422
0.444115
2.52088
3.37454
0.182549
1.072
1.16854
0.341841
1.22096
0.19612
1.25874
1.13997
0.965232
2.58191
1.21173
1.66418
0.146306
1.89232
1.0118
0.151504
0.228357
0.179849
1.18947
1.24315
2.52584
2.44758
2.57853
1.86768
1.97475
2.88019
2.57098
0.557325
2.48123
2.16445
1.19579
2.16732
2.56965
3.77111
0.98962
0.236685
1.59015
0.515025
0.236382
2.7735
2.07328
2.83565
2.56627
3.86711
1.02727
0.10187
0.815145
0.350273
1.31928
3.17281
3.32457
0.286889
0.870864
0.499483
3.29032
2.68252
2.37481
0.153182
0.225641
2.02572
1.12142
2.60802
2.27748
0.531576
1.87463
2.47759
0.481863
1.68996
0.765493
2.52248
1.43577
3.13877
0.213728
1.52764
2.08923
0.246313
0.873139
2.36548
0.223677
1.22146
0.418141
2.25629
2.52644
2.09319
2.34675
2.01202
2.07816
2.07422
1.65569
0.564152
0.813224
0.36081
0.30328
0.431914
2.20954
2.59249
1.14267
2.62159
1.63274
2.60695
0.612416
0.4918
1.47327
2.9072
0.280807
2.60596
2.29686
3.07366
2.63743
0.351453
1.68832
0.931647
2.8528
3.03204
0.48368
2.57993
2.41486
1.78774
0.523333
0.195065
2.75027
2.23893
0.475175
1.94547
0.650465
0.990059
3.02848
0.150864
0.595104
0.971041
0.466319
1.36249
0.58036
1.84133
1.04756
2.19465
1.47791
1.03479
2.53246
2.51246
1.97565
0.164594
0.338467
2.64558
1.97365
2.52896
0.565798
1.90892
0.259505
0.39597
2.9363
1.90238
1.64785
0.526307
2.34292
0.492573
2.59149
0.453211
2.61478
0.642766
0.129717
0.590198
1.37746
2.80667
2.27276
2.60786
0.462081
0.753885
2.61761
2.56203
2.00078
0.219592
2.77017
2.56733
2.62963
0.470533
0.240897
0.753451
2.76974
2.60571
1.39183
2.05519
0.665925
3.35851
0.60491
0.518107
0.793171
0.807984
0.274745
1.80338
0.87174
1.72334
2.60424
2.14878
2.53249
0.634862
0.378527
2.85859
2.70706
1.845
2.98197
0.910774
0.329222
0.295479
3.16831
0.850822
1.06697
0.423203
2.62728
2.21518
0.629545
1.14917
2.10405
1.90732
1.29453
3.33274
2.60171
1.88403
3.87141
0.965217
1.57668
2.24302
2.73625
0.414599
0.684845
0.271133
1.97466
2.54944
1.18394
2.54823
1.9467
0.62146
0.0951821
2.05473
2.64499
2.84992
2.83763
2.52024
2.48588
2.91037
2.42814
0.528867
1.15497
2.77095
1.12808
1.27329
1.44859
0.801328
1.17295
2.09451
0.159083
0.590829
2.78588
2.79798
1.42334
1.12022
0.321036
3.4011
2.00758
1.503
2.44094
0.859546
0.909888
0.808231
0.521367
1.20656
2.49477
2.59398
0.138686
1.32522
2.52884
2.51486
2.61095
1.01075
1.52453
2.32048
0.43619
0.680415
2.6039
0.293595
3.13686
0.787536
1.82529
0.786922
0.967867
2.60135
2.05968
2.29404
1.59347
0.328949
2.32527
2.70933
2.21033
0.821308
2.88579
3.12547
0.195293
2.5481
0.65286
0.376082
0.380283
1.04364
2.33641
0.842217
1.02548
2.35496
2.38781
2.30523
3.58101
0.732732
0.561971
3.15215
2.59088
1.83655
1.10035
3.14368
0.780303
1.57154
0.959016
0.890517
0.386534
0.44386
0.51752
2.24055
0.539556
1.86664
2.51566
3.37105
1.5209
0.413986
1.88358
2.83664
2.60927
1.14681
2.53466
3.56016
0.457201
3.77111
0.184796
1.89427
2.43642
1.12434
3.92406
0.999141
0.174236
1.60587
0.409097
1.22551
0.981912
0.573906
1.52783
0.945019
0.854049
1.72858
3.37688
2.78687
2.38655
2.51539
0.140543
0.53481
1.94513
2.61726
0.342102
2.53173
0.508586
2.93006
2.72156
2.48571
1.46912
2.27275
1.20995
2.19161
2.35781
2.18219
2.79005
0.0781209
3.38803
2.95329
1.71302
3.29708
2.21346
0.145415
0.676762
0.541689
0.745378
0.956931
3.38823
1.29773
3.40107
1.84769
3.13714
3.32588
3.15876
2.02902
0.388945
1.11525
2.01827
2.73731
2.5568
1.4892
0.856012
2.48056
1.66501
1.1008
1.3556
1.29798
1.80215
2.5338
0.554879
2.50583
2.79063
0.506001
1.08287
2.33848
2.60979
1.18589
1.05584
0.697958
1.10427
3.13271
2.32479
2.55966
1.49394
3.11451
2.50536
0.744682
0.587379
2.86856
1.20663
3.07238
2.43676
2.16991
1.17049
1.65581
2.50371
1.15394
1.18469
2.67369
2.61149
3.20342
2.57761
2.41143
1.35803
0.364754
1.93213
0.612808
2.61397
2.60397
1.20002
1.99463
1.75524
2.71761
1.25839
1.08971
0.835444
2.51081
0.509735
1.17927
2.99513
3.18969
2.726
2.62242
2.67285
2.83899
1.45601
2.48161
0.710099
0.0963969
1.30626
0.0767932
1.32038
0.994533
2.04109
2.74933
2.12452
2.49133
2.71809
2.62741
1.88845
2.60209
1.11019
2.0872
2.27207
1.0821
2.88512
1.9311
2.2077
2.36225
1.86545
2.00396
1.85958
2.72524
1.42747
2.32008
2.29144
3.88363
2.42088
2.89768
2.89981
2.53855
1.70577
1.09543
1.60742
0.992971
1.65959
2.4091
0.607493
1.40454
3.43743
1.66743
2.50903
2.2476
1.31525
2.01207
0.451924
0.358039
2.71393
0.579476
1.63098
2.90106
2.1328
1.37138
2.4418
1.96314
1.79113
2.76127
1.48295
1.87336
2.56964
1.56364
2.06235
1.60869
2.2372
1.44232
2.72642
1.60291
1.99134
2.57581
2.34821
1.4961
2.57247
2.24251
2.25334
1.30124
1.99116
2.63999
1.24396
1.96983
2.57814
2.27623
1.41058
3.32682
2.47783
0.291568
2.04289
2.5776
1.32619
3.23898
2.05318
1.42116
2.67804
1.49762
2.17916
3.00652
1.56654
1.43641
0.976771
1.04702
1.81562
2.23046
1.55294
2.37412
2.97182
2.47489
2.64989
1.41508
1.7366
1.74324
2.72608
1.01323
2.55756
1.20187
2.23953
1.51663
1.84665
3.02738
3.07173
2.65787
0.554475
3.28624
1.88183
2.12919
2.57114
2.66645
2.27462
0.394928
1.87583
2.0425
1.70477
1.89591
1.56202
2.90048
2.56778
2.15597
1.90483
2.72733
2.34973
2.31453
1.54665
1.70875
1.69788
3.05538
1.557
2.75737
1.37179
1.93472
2.16722
2.67332
2.19177
2.69499
0.574819
0.620317
2.38379
2.22454
1.93844
2.70625
2.97458
2.55145
1.03363
2.70932
1.50206
2.71782
2.39296
2.75852
2.77883
2.80803
2.88363
3.01147
3.0572
3.09855
3.13962
3.17939
3.28932
3.32417
3.35755
3.41602
1.97753
2.12615
2.93751
2.52048
1.53757
2.66033
2.5068
1.70554
1.83102
0.0728196
2.27208
2.33651
0.557769
1.69559
2.04339
2.57265
2.73795
2.50137
2.57317
1.25419
1.54271
0.267423
2.6657
2.15774
2.50085
2.47471
1.63671
1.54799
1.86307
0.257334
2.67614
1.22107
1.13333
2.41553
2.07949
1.84346
1.09712
2.60775
2.18941
2.91018
2.7265
2.44595
3.25416
2.30426
1.92704
2.36949
1.83236
2.12755
2.32688
3.69739
1.95863
0.938571
2.0051
2.18631
0.0853473
2.82516
2.04958
3.59825
2.96422
2.54517
2.40626
2.83398
2.20445
0.474226
0.0653788
1.8922
2.63583
0.903727
3.5524
1.74937
2.00277
1.6471
1.03882
2.23898
3.21712
2.88714
3.00973
1.23652
2.22425
0.0693089
2.46909
2.27251
2.31782
2.7174
1.94073
2.05005
1.83521
2.25581
0.113339
2.30354
1.8392
1.12566
1.09532
2.75521
1.69116
3.08921
2.13591
1.97697
2.79382
2.98152
2.7595
2.33355
2.83252
2.2607
3.18651
2.83171
1.82235
2.54767
1.91513
0.42726
1.14824
0.700123
2.07883
1.94168
1.06133
2.36174
2.36946
1.76438
1.35278
1.78852
2.52635
3.094
2.51494
2.57029
2.00676
2.94759
1.52799
3.04606
2.18363
1.88067
2.56498
2.60297
2.96408
0.461947
2.44687
1.3552
1.76391
1.46941
1.99519
3.02819
1.82239
3.36667
2.34174
2.88914
2.26722
1.82685
2.16639
2.80397
2.79261
3.35141
2.76256
2.41977
3.16179
2.53483
1.95651
2.57483
2.04779
2.4611
3.11907
1.81773
3.45212
2.03835
2.87051
0.8371
2.91346
3.12004
2.59966
2.32617
0.872998
0.0734645
1.93894
2.04553
2.49715
2.48074
1.97277
2.4961
3.1316
2.79829
2.69943
2.3886
1.73867
1.86829
3.3628
1.92318
3.14447
2.6007
1.91993
1.26853
1.64247
2.43786
1.36792
1.92551
2.62777
1.1036
2.04262
2.6445
2.54446
3.33465
-0.0146522
2.414
1.51545
2.40375
1.00904
2.59902
3.00986
2.61197
2.45951
2.11513
2.24973
1.88759
1.99241
2.82187
2.52631
0.22251
2.29987
2.23582
1.1384
2.15386
2.3179
2.18062
2.47453
0.363089
3.10078
2.53192
2.11698
1.09466
2.14703
1.05209
2.78239
1.24603
2.40128
1.61605
2.49112
1.98165
2.03512
2.35912
1.01727
2.1777
2.03247
3.14972
1.53274
2.03632
2.01878
2.02562
3.00492
2.26433
2.82243
2.41125
1.61206
2.98884
2.65786
1.58652
0.664376
2.70384
2.55462
2.02933
2.4628
2.44641
1.44284
2.85695
2.40529
2.26192
2.16428
3.47501
2.4363
2.85401
2.51783
0.956722
0.255959
2.26219
2.2744
3.18648
2.19138
2.58058
1.00704
3.83207
3.72951
1.29413
3.24632
3.8757
2.48202
0.190497
3.15964
3.09484
1.7205
2.4068
1.66057
0.265057
3.06472
2.9243
0.264959
2.5983
1.59777
2.60653
2.96705
2.50003
2.50851
2.45754
1.75598
1.55271
2.13784
2.88528
2.54644
3.25118
2.05372
2.79784
2.30494
0.779279
2.30095
1.85209
3.05628
2.2264
3.08231
1.78511
2.67212
2.50348
3.06892
2.26066
1.99208
2.51673
1.08922
2.30241
2.97417
2.29215
3.13053
2.32249
2.34176
2.68038
2.86018
2.65376
2.34709
1.22327
2.49649
1.42466
2.20491
1.9869
2.56641
2.3513
2.61132
1.76579
2.65754
2.53205
2.48507
2.89085
2.96969
1.80587
0.128139
2.05653
3.22912
0.540571
1.84282
2.19002
0.989804
2.49343
2.33637
1.81809
1.38042
1.41108
1.07525
2.47943
2.37176
2.49457
2.56555
1.79848
3.5071
2.67326
2.49662
2.51866
1.60251
1.04084
2.347
1.33922
2.11983
3.53329
3.14134
3.09837
1.87136
2.2389
1.54922
2.71626
3.05673
2.95821
3.0939
3.12169
2.37868
1.28114
1.61819
2.69046
2.40474
3.14425
0.332988
2.09003
-0.333501
2.47201
2.58247
1.4588
2.47821
2.50898
2.58284
3.10838
3.06269
2.88758
3.07642
2.89102
2.89592
0.367485
2.46441
2.49188
2.84282
2.43538
2.49947
2.87055
2.813
1.29426
2.56772
2.98384
3.06538
2.67679
3.08568
2.42273
2.40473
2.69418
1.95983
3.73313
0.673164
2.64398
2.76278
2.28393
1.96975
2.5528
3.79721
2.42901
2.76163
1.99664
2.6251
1.03947
3.36396
2.54891
2.45165
2.65789
2.6164
2.74791
3.63465
3.4406
1.89939
1.12665
1.82729
1.05505
2.46682
1.90057
2.74805
0.379701
1.53025
2.93293
3.59585
2.45461
0.0352985
3.88242
2.65514
2.92316
1.743
3.14413
2.60437
2.82195
3.10278
0.16019
3.04092
2.47481
0.864392
2.75069
2.71489
2.76188
3.64918
3.65865
2.07063
2.66267
1.37922
2.46834
2.4931
0.565067
3.08897
2.66086
2.51188
2.93928
2.0758
0.330481
2.02354
2.42946
3.45382
2.51028
1.63945
0.729528
1.88881
0.551213
2.47049
2.52626
2.09252
2.54336
2.58861
2.54103
0.128943
2.57718
1.88649
2.67075
2.7494
0.612054
0.0156089
3.73796
3.55944
3.85434
3.39318
2.6279
1.79788
2.62836
2.58357
0.998911
3.51376
2.86272
1.1724
3.03312
2.94401
2.90366
2.71269
2.5916
3.29028
2.71948
2.76268
1.97301
2.78082
2.80316
3.0353
3.07456
3.11585
3.15525
3.30048
3.33756
2.94755
2.58132
4.01163
2.02436
2.91743
2.55169
1.91826
2.92402
2.77747
2.14929
2.60999
2.7602
2.5802
0.761592
2.54624
3.60949
2.883
3.55415
3.41814
3.85417
2.76283
2.73139
3.65574
2.61892
3.26866
1.22094
1.82977
1.35997
2.59535
2.92956
2.82198
2.61432
2.78863
2.58072
2.94678
2.51599
2.94161
2.59667
1.41066
2.38037
2.74014
2.04025
2.69698
2.37121
4.2605
0.171449
2.98721
1.99937
2.21878
1.93724
2.93094
1.738
2.59332
0.463756
1.99126
2.92887
2.53708
2.37327
2.3267
0.382582
2.95355
3.19448
2.54369
2.52524
2.9225
2.00993
1.60454
3.14591
0.276221
2.75043
2.46903
2.63057
0.118584
1.34403
0.227065
2.624
3.12368
0.174911
2.07134
0.666506
2.78472
2.43304
0.824775
2.49352
2.63851
3.72873
0.599493
2.80319
1.46966
1.16975
1.25182
3.23094
2.73675
2.59049
2.56067
3.40548
2.42745
3.10731
0.0859051
3.41057
3.0121
0.17759
2.66995
2.87193
0.916311
0.567185
2.5071
2.51343
3.81285
0.667076
2.52426
2.51007
0.290371
2.64952
1.59324
2.44194
3.24279
2.4654
2.43962
2.08676
2.0081
3.4674
3.5855
1.58291
2.69104
2.54069
3.4269
2.7318
0.973429
2.84425
2.67764
2.69418
1.32787
2.52265
3.01276
2.5943
2.8709
2.56263
2.60275
2.57757
2.62648
0.321434
2.34583
3.82947
1.21182
2.19011
1.96794
4.35526
2.94872
0.015177
0.0355759
3.14622
3.14394
2.34249
2.6154
2.58788
0.33346
2.36346
2.38915
3.10026
1.76799
3.33291
2.38879
2.72776
3.6344
0.923408
2.41625
2.83582
2.87454
2.36834
2.11516
3.53476
2.71215
3.00405
2.57886
2.63417
0.708671
3.18615
1.73549
0.985658
2.58173
2.90681
1.54937
2.10211
2.654
3.01764
1.86258
2.51985
1.68945
2.3866
1.034
2.71176
1.75216
2.97594
2.5144
3.16404
2.1293
0.579405
1.34694
3.82037
0.320585
2.59245
2.56562
3.4864
2.786
1.45017
2.28639
2.55023
2.57328
2.78968
2.57656
3.01288
2.22116
3.07765
2.4922
2.31894
3.51131
1.84955
2.37583
3.22017
3.04317
3.94828
2.59154
2.46182
1.25507
2.62684
2.6816
2.98597
2.20614
2.46972
1.24947
2.47063
1.76085
2.83505
2.47197
2.75098
1.53956
2.49076
1.21645
3.03716
2.49928
1.35419
0.48585
2.90264
3.88973
2.73935
2.42615
2.22328
1.95369
3.57477
2.51949
0.16656
2.71538
2.65314
0.0888357
2.15462
2.48308
2.13307
1.8638
3.00024
3.48998
3.45409
2.53932
1.78088
2.55779
0.951357
3.29543
3.77647
0.64058
2.12753
2.89562
3.79287
0.253769
3.47852
3.80766
2.5194
1.97534
2.20127
3.50507
2.03673
2.60982
4.05116
1.92777
3.53341
2.3392
2.34881
3.75786
3.22573
3.52546
3.44329
1.6893
0.125911
3.20393
2.80291
2.19016
2.77583
2.83813
2.61147
2.40212
3.49816
1.91082
1.8923
2.69312
2.88593
2.39265
2.62453
2.78311
3.47188
2.70424
2.38518
3.73852
1.64131
0.406898
2.71875
2.56973
2.74831
0.790789
2.07178
0.23025
2.86509
2.54383
0.285872
1.45361
1.65833
0.882415
2.84469
2.17419
1.96518
2.33039
2.56929
2.12116
1.78532
3.46709
2.44944
2.45411
1.43015
2.17056
0.733964
2.60802
3.0001
2.82647
3.19309
2.02424
2.97086
3.22426
3.29363
2.40388
3.7287
2.3854
3.48445
2.70012
0.0982838
2.46807
2.45604
2.41938
3.07907
2.55905
1.46322
3.6744
1.99163
3.10374
2.48843
3.10274
2.831
1.79406
2.46703
2.59798
1.5673
1.1454
2.16112
2.52991
1.9055
1.92969
2.60413
3.17525
2.03442
2.45001
-0.0244906
4.0826
3.86106
2.04039
1.41764
2.4491
2.46584
2.59379
0.894897
2.92496
2.549
1.19744
1.0948
2.66253
1.20884
2.4349
2.56081
3.51359
2.59005
3.60571
1.18737
2.1528
2.23917
3.09964
2.95631
2.6742
1.82395
2.24679
3.41896
2.4916
1.41093
0.421502
1.79394
0.122464
2.76232
2.28112
2.40252
1.84583
3.13962
0.722452
1.86456
3.36815
3.39694
2.38484
1.44233
3.31406
0.893442
1.29688
2.93523
1.28565
4.07366
2.47664
3.48944
2.8295
0.417672
1.98563
3.69657
3.53123
2.28905
2.336
1.92685
3.05792
2.98875
2.19788
1.44922
2.8216
2.55862
0.149684
2.53073
2.56885
2.59811
1.9375
4.10076
2.25705
2.39045
2.57711
1.3224
0.223327
1.5298
2.35558
3.54048
2.75232
0.51736
1.24011
2.65656
3.71862
0.840893
1.19726
2.87252
2.61407
3.64161
2.44074
3.57747
3.52682
0.791722
3.44078
3.51672
2.47925
2.89515
0.772423
3.54533
1.34969
0.563697
2.02734
3.29673
2.11685
3.32141
1.5317
4.12863
1.75575
0.11693
3.69728
2.56381
3.85215
3.0341
2.76799
2.42662
2.58406
3.61643
1.26396
0.636886
2.99879
1.16688
4.44938
2.69943
2.70378
1.65445
2.84678
2.96587
2.59171
2.46911
2.5428
2.29219
2.57505
1.38941
2.29841
2.66416
2.56748
2.65593
3.02988
2.80378
3.0678
2.75061
4.01532
2.62667
2.47612
1.06911