/*--------------------------------*- C++ -*----------------------------------*\
  =========                 |
  \\      /  F ield         | OpenFOAM: The Open Source CFD Toolbox
   \\    /   O peration     | Website:  https://openfoam.org
    \\  /    A nd           | Version:  7
     \\/     M anipulation  |
\*---------------------------------------------------------------------------*/
FoamFile
{
    version     2.0;
    format      ascii;
    class       surfaceScalarField;
    location    "38";
    object      phi;
}
// * * * * * * * * * * * * * * * * * * * * * * * * * * * * * * * * * * * * * //

dimensions      [0 3 -1 0 0 0 0];

internalField   nonuniform List<scalar> 
44730
(
-595.672
670.342
-74.6701
1064.25
-1072.27
8.01976
-334.316
380.935
-46.6194
221.155
-259.201
38.0457
-498.062
498.062
213.866
-260.396
46.5299
-386.107
380.238
5.86884
30.4033
-569.059
538.656
664.464
-833.951
169.487
-1009.36
1102.32
-92.9565
561.829
-150.336
-411.493
-534.036
535.911
-1.87412
-687.706
582.597
105.109
-859.811
868.869
-9.05874
248.078
70.1096
-318.188
384.69
-10.0913
-374.598
814.402
-666.909
-147.493
-400.378
413.841
-13.4632
160.624
314.825
-475.449
289.467
-355.638
66.1711
-593.919
81.7054
512.214
724.811
-60.3473
49.2108
-383.527
136.395
-489.1
352.705
236.753
-127.556
-109.197
1068.06
-3.81574
659.754
-680.879
21.1248
-279.345
-2.23706
281.582
293.425
-45.347
-443.812
543.951
-100.14
956.427
-247.958
-708.469
-676.409
766.736
-90.3263
258.843
-225.878
-32.9657
482.468
-75.203
-407.265
132.437
-411.782
262.877
-432.431
169.554
441.399
-583.222
141.823
291.44
-42.8331
-248.607
825.723
-980.792
155.069
1063.62
-237.896
-1018.33
1035.82
-17.4825
399.429
-86.7315
-312.698
704.073
110.329
189.129
-316.667
127.538
1228.48
-777.711
-450.77
-591.194
147.382
536.487
-538.942
2.45446
230.479
645.562
-876.04
225.915
537.2
-763.115
-101.112
542.511
-391.495
170.765
220.73
-7.52441
-227.499
235.024
-671.921
-4.48845
237.475
-23.6088
423.354
-38.6648
-276.676
-40.4399
317.116
523.808
-499.368
-24.4394
-34.3353
-559.584
-466.462
46.3573
420.105
-298.017
-35.2169
333.234
799.492
17.5789
-817.071
-409.157
569.781
10.2955
-247.314
237.019
-222.305
485.181
-321.438
430.863
-109.425
263.118
241.005
-504.123
495.604
-121.376
-374.229
429.582
-50.703
-378.879
-452.208
-29.302
481.51
-986.806
-31.5281
1062.13
5.92931
300.863
282.155
-583.019
-245.572
548.261
-302.69
170.104
83.3356
-253.44
-430.626
380.671
49.9546
-376.778
394.561
-17.7824
277.565
-159.905
-117.66
-250.439
-57.9146
308.354
-699.285
16.535
682.75
407.555
-86.878
-320.677
-249.242
249.242
79.5152
-759.028
679.513
-666.162
70.49
-947.213
848.235
98.9779
-326.676
-59.4304
-16.0971
218.855
-202.758
517.39
-133.469
-383.921
-644.456
-43.2508
652.359
-69.7622
91.3035
83.8633
-175.167
-361.48
99.1962
262.284
-306.104
55.6649
847.215
-621.3
569.013
-602.985
33.9716
216.948
-89.8807
-127.068
-358.173
134.406
223.767
-31.0219
260.756
-229.734
-846.768
847.598
-0.829499
-38.5743
-154.454
193.028
266.129
-0.66829
-265.461
-711.444
12.1582
-262.337
281.134
-18.7975
778.727
20.7652
434.832
-640.414
205.582
205.14
-212.665
-756.813
822.17
-65.357
645.305
-715.98
70.6755
74.6301
577.729
943.832
-846.98
-96.852
-213.932
249.545
-35.6133
198.95
59.8934
357.784
124.071
-481.855
1009.1
-256.886
-752.209
17.3481
564.351
-581.699
-12.2961
-587.718
600.014
539.118
-238.255
113.033
421.354
-534.387
-302.839
406.194
-103.355
76.7248
-814.821
738.096
-700.363
454.791
17.1176
-220.22
203.103
21.1379
-855.655
834.517
-331.013
325.562
5.45121
-36.8574
299.976
23.9803
-891.032
867.051
-352.07
352.442
-0.371617
-72.3853
-327.992
18.1982
-295.244
277.046
705.334
-787.263
81.9295
726.061
-860.292
134.231
-158.476
347.605
178.62
98.9442
195.145
-204.656
9.51126
309.039
-313.128
4.08935
-128.191
563.023
629.503
326.924
147.191
72.7845
-219.975
273.785
-312.645
38.86
231.901
-265.793
33.8917
-18.8903
285.019
-361.237
9.16682
2.15903
-182.492
180.333
216.945
-55.1717
-161.773
181.124
827.971
-198.072
-739.275
937.348
-101.091
-396.971
523.203
13.2844
240.174
-226.151
-14.0225
282.892
-232.935
-49.9566
36.6779
-228.429
191.751
-398.702
638.902
-240.2
49.121
512.906
-562.027
984.125
-886.674
-97.4513
790.855
-787.082
-3.77391
-576.562
-234.295
810.857
-145.529
722.045
-576.517
452.967
-443.232
-9.73462
-212.871
0.179866
212.692
35.3048
-764.396
729.092
-168.886
-222.61
-242.819
229.683
13.1357
242.703
-21.5476
16.7492
1020.86
-572.449
-448.415
735.195
-933.267
-397.568
94.7286
8.81245
208.132
16.5514
-778.302
761.75
-90.3654
-856.847
415.904
-451.271
35.3668
-106.789
832.849
52.8599
-736.869
684.009
-206.254
-6.61714
273.785
11.4466
251.926
-263.373
-431.95
431.95
82.2471
680.341
-762.589
-311.647
49.3101
-580.112
597.46
329.483
-318.872
-10.611
-777.831
-63.2678
841.099
-152.997
453.983
-300.986
433.703
83.6868
430.299
-441.701
11.4022
278.195
-46.2939
-202.476
-331.595
534.071
499.987
-380.823
-119.164
-327.92
20.4973
307.423
786.199
-80.8646
-519.207
-81.4335
600.641
-661.031
661.031
-131.395
505.371
-373.976
95.419
-345.761
250.342
-919.219
342.656
305.849
-356.24
50.3907
436.616
16.3507
813.738
-495.755
-317.984
918.089
-70.541
-847.548
72.0154
144.933
-847.508
614.606
232.903
-25.2422
278.802
-253.56
-205.52
226.429
-20.9095
-45.9627
-488.074
875.472
-890.335
14.8633
-59.0638
429.054
-13.1492
789.233
-794.2
4.96666
247.824
-7.65063
32.4261
-246.358
822.125
-963.811
141.686
246.396
-341.921
95.5245
570.489
-570.489
899.936
-93.2255
-806.71
594.13
73.1022
-667.232
64.1719
-333.442
269.27
-176.015
264.59
-88.5748
-479.483
326.486
52.5344
736.699
-392.793
529.188
245.653
-173.638
-684.124
-176.168
484.927
-630.456
453.269
-500.778
47.5094
-899.943
1035.86
-135.916
-579.307
555.457
23.851
506.75
-581.8
75.0504
129.954
736.656
-866.609
211.198
530.813
-742.011
723.348
505.133
322.46
741.159
321.024
-231.693
-89.331
-292.669
292.669
370.546
-401.426
30.88
-27.7619
1089.9
268.453
-321.672
53.2192
532.245
-483.124
-297.43
-562.381
551.426
-564.841
13.4155
-29.0662
904.538
267.181
-292.423
-243.673
211.742
31.9312
498.798
-587.5
88.7028
-197.55
959.108
-761.558
588.593
-81.8433
772.426
-382.71
-389.716
337.759
-48.2918
471.984
548.88
-208.574
192.477
-743.837
59.7135
-937.169
37.2258
477.273
46.5346
-679.965
891.162
-697.024
-59.7891
183.954
-205.864
21.9094
-73.9964
915.261
-841.264
-38.055
-817.792
855.847
178.89
-176.731
57.1352
174.717
-231.852
-7.33467
-365.939
373.274
330.371
-312.173
-611.791
213.089
-243.328
440.455
-197.127
908.56
-678.081
304.632
16.392
313.008
-14.1307
-298.877
-569.304
166.438
402.866
459.922
-29.6234
525.172
-727.648
-377.524
0.745803
646.328
-746.168
99.8396
-226.008
155.388
70.6195
-656.078
638.913
17.165
235.276
-223.83
69.0573
176.596
-744.009
826.256
-309.628
327.544
-17.9161
67.9589
-362.279
294.32
233.517
-206.201
-27.3154
525.927
-328.309
-197.617
11.0528
-346.392
335.339
-496.89
484.594
-76.3121
276.708
-200.396
-663.335
161.262
502.073
-343.813
-14.3602
653.708
6.04638
444.438
-21.084
-164.181
12.943
151.238
-23.8541
729.372
-705.518
-857.97
987.924
320.26
-153.943
-166.317
677.304
-775.082
97.7783
425.463
346.962
706.174
59.8024
-765.976
818.106
81.8302
557.998
-528.934
-29.0648
1093.73
-1012.32
-81.4073
1.99864
-292.347
290.348
290.422
22.5854
95.4368
141.316
209.625
-14.4796
199.72
-197.094
-2.62534
139.12
151.911
-291.032
-301.874
282.012
19.862
-166.799
-299.445
466.244
419.337
-550.732
-316.867
200.96
-189.92
-11.0395
190.376
1008.85
-559.356
-449.49
525.681
-109.067
-416.614
136.743
508.561
84.6723
473.326
-1.53048
-697.805
715.765
-17.9599
42.8375
-546.229
503.392
-96.0369
-248.426
344.463
-447.849
38.7519
409.098
-140.243
-335.84
476.083
779.991
-1.26385
24.744
199.686
-387.611
187.925
153.401
-229.713
-920.928
849.844
71.0837
-292.268
306.035
-13.767
674.962
-87.3159
-587.647
1047.01
-603.805
-443.202
199.13
-189.015
-10.1146
261.32
-112.232
-149.089
-420.283
417.707
2.57644
662.302
-30.6988
-631.603
-696.907
-0.897499
380.353
27.2024
-560.751
450.159
110.592
585.094
-578.059
-7.03506
-855.763
44.4088
811.354
856.374
33.1971
-889.571
-424.201
283.957
-202.662
38.4815
-329.911
538.984
-209.073
-188.821
-54.8523
754.993
-793.048
-147.618
204.753
542.494
-168.091
-374.403
-123.389
-308.561
213.863
-213.726
-0.137758
619.606
42.6953
683.341
-608.711
25.6547
-302.287
276.632
837.982
-876.566
38.5841
-309.959
-8.91322
958.136
-961.163
3.02714
62.8682
192.816
-255.684
680.176
-33.8474
571.513
-592.634
21.1203
-828.156
849.294
208.856
-191.739
786.575
212.016
747.092
157.171
191.02
-348.191
-297.308
-6.09975
824.525
-73.5705
-750.955
598.741
-131.272
-467.469
256.894
-86.1282
79.6119
415.992
89.5165
-265.531
473.737
-503.773
30.0353
141.197
-347.52
206.323
137.49
388.437
60.052
858.037
653.157
-773.166
120.009
-22.3493
980.485
-291.45
-17.472
308.922
-218.053
207.173
10.8793
-2.11677
172.221
47.8832
452.104
334.763
-342.097
-352.581
31.143
-345.862
47.8448
838.336
-58.345
87.3765
-233.511
146.135
-958.847
21.6789
-922.911
-35.9364
-486.346
59.2586
427.087
-736.311
905.589
-169.278
-202.054
-58.9549
261.009
-123.396
-91.6076
215.004
-153.738
-46.5086
200.246
-134.79
228.639
-93.8492
853.466
423.983
-224.297
159.495
-11.7954
-567.512
-879.85
-41.0771
447.281
151.46
194.047
-523.957
200.798
-1107.14
906.347
18.1981
208.944
-227.142
1.59301
-207.113
417.998
26.4399
89.0933
701.762
277.445
14.0762
-291.521
-468.249
581.283
728.864
72.7258
-801.589
-780.158
-7.10525
802.787
-856.261
53.4731
302.998
-289.322
-13.6755
87.539
232.721
850.897
-864.915
14.0186
978.827
-862.146
-116.682
939.31
-943.818
4.5087
-400.076
-160.675
-0.828375
-873.432
544.5
328.932
-176.654
161.117
15.5376
-246.494
385.615
139.087
90.9604
-230.047
753.984
269.235
-258.939
431.522
94.1583
784.138
-698.975
-85.1629
-52.3527
-105.218
-90.2116
195.429
-304.452
261.585
42.8677
862.772
-838.792
-20.9695
378.36
-357.391
-332.052
-29.185
572.359
-583.114
10.7555
365.826
-327.396
-38.4299
-828.589
731.243
97.3459
-905.847
831.851
142.977
118.343
-405.1
275.913
129.187
466.746
-453.391
-13.355
620.863
-622.619
1.75512
517.992
-44.2542
-319.058
-130.363
449.421
6.6992
-298.149
-64.9775
-250.531
315.508
544.287
563.931
-1108.22
-900.861
849.22
51.6404
1.58267
-404.175
417.787
-13.6113
431.027
-399.256
-31.7715
673.836
-849.055
175.219
711.883
-883.397
171.513
-502.041
-161.294
-439.101
62.2298
376.871
302.557
-5.79732
-296.759
-325.916
172.178
477.401
84.4282
-719.733
-108.855
14.681
185.039
-298.712
303.253
-4.541
25.8723
-338.356
312.484
488.976
40.4297
-529.406
-238.412
302.475
-64.0621
-896.193
-19.6368
915.829
-196.148
-38.5514
234.699
6.13747
-849.445
843.307
804.7
-118.356
-686.344
336.424
145.909
-210.886
-874.872
-21.32
808.764
41.0799
2.03553
552.087
-194.303
-512.28
-18.2528
530.533
-801.99
913.794
-111.804
312.933
-244.974
-405.877
309.841
-29.8509
590.634
63.074
382.449
-241.252
302.585
511.153
-12.1185
24.0254
341.801
-779.693
90.3749
689.318
456.058
95.3671
-129.323
-30.8232
160.146
-851.804
-23.0683
65.9158
333.514
-190.358
232.502
-42.1449
42.3499
-280.762
-289.328
279.364
9.9641
-17.4493
24.3151
-513.597
489.282
-611.721
-134.447
-18.9871
299.387
-280.4
-336.948
461.019
599.385
447.621
-1102.78
430.489
672.29
328.734
0.247029
-328.981
-232.198
-168.755
400.953
-525.58
555.983
-661.299
-19.4153
680.714
100.526
80.5694
-181.096
-44.2531
799.246
839.439
-862.734
23.2943
807.396
-154.239
36.173
-605.232
-322.145
-24.2476
556.782
57.7192
-614.501
436.924
22.9983
-348.552
390.747
-42.1947
-853.96
-3.70782
857.668
-27.8203
-823.984
280.084
-287.794
7.71011
625.22
-4.35681
573.537
-418.236
-155.301
-216.407
274.152
-57.7446
-85.6907
-266.891
-419.521
-46.941
896.273
-184.39
-825.584
89.2728
-629.182
17.4605
-538.033
48.1071
489.926
820.548
-39.6243
-780.923
-259.149
124.359
3.52086
-356.684
353.163
862.8
-188.963
305.81
-3.25328
637.148
-65.635
494.32
-5.34435
801.336
-712.243
-1045.14
-57.642
444.465
22.2816
537.085
31.9276
729.683
-694.378
796.513
-38.6891
-757.824
190.077
-228.651
272.723
-11.1388
-117.692
210.571
-173.893
474.893
15.3209
-490.214
576.092
-95.0312
-481.06
-458.239
421.366
36.8724
128.829
672.507
11.9444
-102.132
-756.266
858.399
73.842
-666.142
592.3
222.714
-301.146
78.4321
-745.568
643.435
91.6912
713.009
-504.409
1048.7
231.5
-144.124
-283.756
-177.687
251.491
-73.8034
204.921
-267.793
62.8715
-178.459
317.546
11.5451
-343.597
-50.9953
4.76824
-409.629
404.861
-47.4965
-161.236
-194.402
-27.3799
365.131
-337.751
-870.856
944.46
-73.6037
45.476
-527.959
482.483
30.4763
-248.529
-755.698
105.984
649.714
357.528
-225.091
819.407
1.14031
-36.2643
226.656
-190.391
442.693
130.844
-104.584
-334.517
816.235
-201.63
-95.2266
-914.134
614.315
-332.159
124.258
57.4666
651.648
-572.133
495.242
-12.7733
340.54
-34.691
338.519
-420.841
82.3221
191.501
-236.366
44.8652
52.4818
245.088
-297.57
339.776
-506.575
-6.30851
761.956
-806.209
537.424
-62.5309
-107.579
739.256
-631.678
-268.37
301.553
-33.1837
-70.4471
293.161
198.704
-189.891
-278.998
10.6289
-1061.08
588.878
472.205
-35.8309
-79.1231
170.427
-307.867
293.542
14.3247
-675.989
692.54
267.237
-271.945
4.70763
-484.149
184.704
-504.323
-556.76
235.442
-278.275
847.163
-946.594
99.431
-343.331
21.1866
488.735
-626.706
137.971
-2.78682
811.551
267.414
-287.531
20.1163
-326.936
-546.495
-37.127
292.343
-25.1061
366.727
-130.267
-236.461
-19.7808
-845.47
865.251
-878.128
489.173
388.955
-55.4848
735.826
-461.078
41.5569
-139.284
-125.097
264.381
874.361
-822.43
-51.931
390.704
-324.788
797.755
5.03284
110.129
77.665
-187.794
-580.553
1024.4
-443.844
141.814
-189.424
47.6093
-759.009
-144.968
903.977
144.29
222.438
853.505
-31.3801
813.468
-736.743
502.271
-422.659
-18.0057
-229.309
43.5485
149.257
-192.806
311.231
240.855
-21.945
-1098.2
619.197
479.003
8.7705
891.714
-60.5388
-831.175
-430.503
622.109
-191.605
57.1294
756.338
27.5211
-539.801
-590.5
-18.1832
608.683
417.302
140.377
-557.68
-264.776
-522.305
278.339
62.2008
-174.587
-74.6548
-405.727
352.302
53.4249
-793.55
297.796
199.534
-260.348
60.8145
226.066
-265.554
39.4883
428.913
-424.145
730.922
52.1602
-783.082
-202.905
48.4513
825.398
20.7643
-846.162
-372.849
21.9595
350.889
118.64
860.187
-407.963
454.32
410.905
-72.3862
-954.581
99.7419
854.839
789.124
102.59
-35.3059
226.807
50.0629
380.964
902.534
133.324
23.3017
-484.38
28.8233
-827.175
798.351
701.402
-770.727
69.3249
636.352
465.966
769.007
-56.0307
-712.976
190.803
-48.9887
76.0309
339.187
-415.218
-735.261
792.391
262.596
168.267
-275.806
168.771
107.035
-111.243
-426.759
538.002
-31.2204
-211.598
1004.42
-573.927
86.8777
-288.932
181.982
-218.246
-107.305
-151.896
30.8035
820.093
-168.525
508.301
-605.646
759.497
-153.851
686.305
-710.159
-398.984
380.731
-443.058
-179.56
39.2649
349.028
-15.4149
-333.613
-46.2912
808.247
-505.249
-623.367
1128.62
287.924
-244.477
213.456
1.92577
196.778
-250.94
123.385
-885.352
909.021
-23.6689
-284.413
259.796
24.617
72.9862
711.152
3.36179
765.645
634.956
-15.3493
-14.9735
-511.017
472.368
38.6493
933.092
17.1505
-950.243
-323.275
-49.5739
-0.186033
-234.54
800.674
-69.7521
529.011
-623.057
94.0465
-762.157
-84.6111
11.9713
291.027
891.403
11.1313
-490.237
440.429
49.8078
-950.458
-94.679
40.2401
-377.665
337.425
-223.695
249.661
-25.9661
254.56
-49.6392
-39.4143
1050.29
-313.215
-737.079
579.539
-50.5279
54.5001
-262.886
-70.5565
-689.455
777.606
-88.1508
-79.5191
-19.1992
245.265
504.568
-5.7702
92.7874
-870.618
-84.7555
208.764
-124.009
-207.477
217.597
-10.1196
-681.779
570.536
-455.726
480.041
344.561
46.1424
-459.626
424.364
35.2619
584.286
424.56
498.158
-459.763
-38.3952
493.521
-319.401
-174.12
-186.654
26.7488
349.251
-20.81
-328.441
-254.145
76.4577
-327.249
290.391
-219.051
-636.712
-691.652
-81.5147
258.031
-58.4972
665.725
197.074
7.06995
222.613
817.152
-83.8214
-733.33
328.281
-141.961
646.85
-504.889
238.489
-297.444
-92.2046
509.507
-751.119
7.11056
-120.154
-105.854
500.007
-97.1236
786.328
-689.204
-197.558
231.367
-33.8089
-38.2537
-246.16
829.582
-737.891
218.021
-427.607
-409.073
836.68
865.627
-199.901
-42.6463
792.369
-749.723
597.302
-6.66818
17.5991
-608.099
282.593
144.814
-427.407
-403.784
479.815
-24.79
-314.558
339.348
-616.361
64.9646
551.396
-134.798
509.796
-374.998
-483.166
408.081
-482.314
74.2324
105.124
-171.163
66.0388
-181.404
338.575
-197.333
-180.192
733.998
-32.5955
102.232
581.109
-610.983
648.747
-37.7633
269.763
-288.75
-810.966
-51.7677
96.8504
-432.69
590.12
460.174
-615.747
172.689
419.476
-847.083
382.116
-681.861
28.647
653.214
-187.083
234.292
-47.2086
-816.301
886.696
-70.3951
-47.7213
-432.072
479.793
1005.36
-405.638
-599.723
-67.9553
-788.305
-19.2203
299.304
-950.46
207.432
743.028
-857.693
-92.7673
-170.508
-6.14601
-777.769
731.478
-129.138
-303.643
432.782
-7.61626
-271.398
279.014
160.181
647.216
239.782
147.284
-387.067
-902.864
154.568
748.296
541.12
-580.877
39.7571
604.532
58.5849
-663.117
-45.3102
673.533
-639.907
-33.626
352.37
-23.6357
-38.3058
244.172
-205.866
608.473
65.0603
13.0741
-793.232
721.536
-777.566
-175.873
219.421
333.277
160.244
132.051
-329.383
200.912
-203.819
2.90702
338.354
-198.027
-140.327
592.235
42.7206
-748.717
801.479
-52.7615
-404.648
-96.5671
501.215
-6.80121
-291.91
240.044
61.0444
-301.089
243.901
-95.7913
-148.11
418.182
-465.903
-61.7137
-740.276
-410.356
88.5764
144.94
501.556
-434.381
-67.1754
-234.556
252.754
-195.98
189.474
6.50551
17.7664
-219.67
201.903
-321.481
378.201
-56.7198
222.794
-21.3113
-201.482
450.463
554.898
-258.147
555.403
-473.697
141.806
-234.133
92.3269
-197.052
-21.9467
218.999
701.262
-96.7303
233.894
-164.837
-358.827
272.391
86.4365
-422.508
-19.0112
441.519
-351.842
448.693
307.239
-325.003
17.7631
-14.83
28.5039
473.767
462.628
35.5307
37.2342
-459.742
218.461
-6.71861
-335.201
-8.13039
-367.766
298.4
69.3655
340.58
-62.241
675.269
221.005
-229.453
247.219
-285.62
306.117
103.901
654.413
-758.314
-737.595
-25.1463
762.741
1.09408
161.38
16.7761
-338.257
-690.638
621.072
69.566
121.396
-172.816
169.37
3.44595
436.04
-153.447
-254.926
-174.346
429.272
-162.657
-348.36
217.037
-16.1251
-254.537
115.253
97.8604
-182.616
-1009.53
696.318
-346.945
346.945
851.471
242.256
-35.1809
-509.091
-500.443
208.451
327.459
527.959
42.5294
544.514
-50.1933
272.891
-274.052
1.16127
-629.333
662.136
-32.8035
-50.3255
-531.925
-48.1868
-632.631
714.69
-82.0591
83.7785
-492.935
-352.747
539.403
5.11043
524.363
25.9176
-550.281
749.196
-646.93
7.02256
-113.528
-64.1395
177.667
-416.44
89.191
309.104
-31.2003
-277.904
-155.614
-47.0484
-299.705
287.732
11.9738
-289.549
73.1417
870.726
-195.457
-340.636
45.3925
769.085
-2.12744
-766.957
584.143
-658.892
74.749
-922.859
830.379
92.4802
-22.6773
-638.621
110.394
295.8
-21.5043
-260.437
281.941
-786.416
27.3877
-201.708
-287.83
266.326
-466.003
511.479
-268.439
267.639
0.800372
-299.904
302.301
-2.39717
-813.181
705.603
995.978
-148.815
-172.917
294.725
-231.857
361.259
-170.239
422.819
-326.058
-96.7611
285.499
55.0811
811.442
-88.2356
-723.206
184.599
-681.49
-759.081
675.407
83.6733
6.10474
-617.049
624.86
-7.81135
59.4898
174.405
-102.194
521.532
-268.678
289.896
-21.2184
378.896
-458.007
79.1112
-608.56
649.105
-40.5451
586.064
43.7662
-629.83
255.848
-221.784
-34.0641
557.168
-25.6905
-531.477
235.306
-123.669
-111.637
-128.269
-49.4691
177.738
958.331
-949.045
-9.28572
-575.493
-388.318
-45.8183
-758.551
804.369
-897.635
834.367
-590.601
372.882
217.719
605.049
-623.233
-13.4689
676.387
-662.918
21.7841
146.432
-168.216
-50.0457
-288.31
-855.982
-66.8779
15.4718
365.199
334.049
-739.687
220.476
-2.0153
-225.091
225.091
410.321
-143.264
-267.057
-911.327
25.975
-2.83196
-23.3096
-481.314
504.624
-753.784
-80.5311
486.705
-406.174
-252.385
-408.647
431.372
-10.0052
-49.1163
258.06
153.636
184.718
-548.556
398.22
-160.046
399.828
338.137
-52.6375
763.429
-710.569
-283.621
-5.7003
270.743
-946.897
-3.56142
5.61499
927.477
532.472
-448.693
-844.06
577.592
266.468
11.5445
258.878
-270.422
350.828
-10.4264
-340.402
-461.319
30.8163
-835.577
749.303
86.2743
-132.171
-191.103
188.365
38.7779
-227.143
212.856
125.28
-800.989
17.8833
-591.333
325.414
265.919
61.2295
247.809
360.312
-324.237
-36.0752
-375.584
401.332
-25.7478
847.407
-513.359
-454.893
312.931
-318.766
189.418
129.347
423.375
-720.805
568.338
-27.2177
811.242
-807.88
79.8514
155.455
-830.272
814.031
16.2413
-795.116
46.399
-472.163
-527.848
1042.65
-186.28
931.089
-835.186
-95.9026
-521.121
-463.313
984.434
-48.0266
-253.847
55.8229
224.227
-228.409
4.18203
-21.7095
-56.0615
733.365
470.884
-37.1933
-433.691
-370.541
-198.763
29.697
-91.346
-250.575
-147.422
428.93
-281.508
-925.619
925.619
92.4572
-808.276
490.293
-510.513
69.0777
441.435
-210.927
-194.173
169.057
-169.392
-379.164
-559.235
389.843
599.014
54.5909
189.31
418.478
-930.2
511.722
-24.3142
301.759
-225.183
-261.163
-212.919
429.284
-96.0066
-179.194
-139.571
-65.4771
-835.384
452.403
-517.973
65.5694
17.9655
-696.931
780.543
-83.6116
415.771
-419.718
3.9475
244.642
-566.817
529.752
37.0654
106.883
115.691
-222.574
198.356
-236.662
378.943
-708.784
329.841
110.537
758.332
170.771
239.55
-68.5389
-492.961
469.652
291.761
-305.778
14.0165
416.284
-37.3879
353.938
-381.318
-20.9348
-367.558
388.493
-17.3118
-295.816
302.689
29.9897
-332.679
-430.962
283.54
-386.874
37.7346
631.164
-749.52
-409.563
531.573
-312.356
-91.8194
976.644
-866.107
-492.773
-312.285
805.057
295.155
35.1932
291.114
-326.307
-459.65
149.865
-282.036
-51.6253
450.557
-563.698
113.141
47.4175
613.614
-184.078
70.5497
349.172
-287.942
708.744
-329.8
273.739
-174.543
23.5913
364.588
-388.179
-27.4142
-292.457
-9.8299
-251.653
249.197
2.4558
2.38707
561.564
-534.043
51.9873
-891.583
113.282
800.693
-2.9386
328.402
-115.546
525.492
328.703
-854.195
598.392
239.944
671.318
-768.442
-753.801
108.075
645.725
301.651
41.0806
-342.732
182.301
-174.71
-7.59088
35.4505
274.66
572.937
-195.985
33.0102
162.975
-156.664
-607.061
763.725
-339.025
366.194
-27.1689
-250.648
293.102
-42.4542
-147.491
-174.182
-255.529
207.646
47.8828
920.094
-920.094
-87.1444
727.008
-639.864
294.443
-206.904
344.094
-68.1815
-658.129
188.104
26.5268
-214.63
40.5218
-581.999
541.477
31.8391
-228.017
196.178
908.466
-914.118
5.6525
301.292
-674.629
373.337
337.428
-297.188
50.8598
309.452
-350.744
876.235
556.889
-106.333
-72.1512
-240.494
-400.424
319.036
81.3885
224.453
-345.828
330.655
-500.642
169.987
-234.073
46.9894
-873.298
-73.5983
35.5221
-732.453
313.732
-179.326
796.375
-773.255
-23.1201
434.31
54.4533
-488.763
-685.495
610.623
74.8711
-274.57
225.809
48.7612
319.348
-27.5867
-426.061
-254.818
881.495
-837.198
-44.2976
-357.498
658.791
126.77
-531.418
-865.003
11.0436
-54.738
-604.776
659.514
35.2086
-137.443
-138.363
-917.049
416.691
500.358
186.154
3.32075
449.059
-33.288
543.447
256.295
-274.952
18.6573
-333.543
-5.76925
339.312
-545.755
444.643
-6.86435
-195.099
201.964
228.573
-40.4694
-91.9314
368.367
-276.436
-353.568
5.01623
434.057
-9.69291
58.1826
-808.684
750.501
-664.267
664.267
49.1244
189.365
-91.5732
-507.664
599.238
-854.488
938.113
-83.6255
741.138
55.2362
-14.1179
-834.563
848.681
323.264
-340.385
17.1208
324.424
13.0034
-337.427
584.821
-636.784
51.9629
24.9512
319.675
-344.626
-201.379
-126.917
328.296
190.9
-8.59841
107.905
-711.252
603.347
-760.03
267.257
347.521
-312.328
793.732
59.7734
-77.2838
-433.229
340.587
-391.29
-682.039
102.96
579.079
330.056
-269.7
-60.3564
-530.674
616.366
-85.6926
-81.6725
-362.742
444.414
406.285
-382.26
-587.635
-329.415
598.299
-726.21
127.911
-410.146
-433.914
837.863
-39.707
-645.788
120.987
456.496
-577.484
563.551
-644.717
81.1656
28.3925
-261.328
11.1113
-692.972
-318.338
321.858
-8.52728
570.455
-692.693
122.238
-344.484
-430.598
3.34869
-685.628
697.934
-12.3061
763.064
-164.671
645.316
-102.691
-542.624
214.734
286.823
285.663
-295.917
10.2533
807.727
-935.866
128.14
-652.886
-100.914
-288.679
20.0004
-325.446
85.3504
240.096
-55.7796
640.601
91.4781
-276.966
185.488
356.956
-335.1
-21.856
-339.042
-252.291
-23.8746
207.829
-37.034
-168.83
234.366
143.024
-377.39
-270.68
318.647
-47.9666
591.562
-683.136
21.7685
287.336
-262.509
-62.9373
-286.575
-304.026
-711.311
540.738
170.573
-113.01
-147.386
-155.751
65.8705
-577.447
536.252
41.1951
576.954
-1098.08
-24.1255
-1013.99
-140.856
376.968
52.3155
-21.9909
-51.3696
-760.267
128.589
855.076
-848.939
617.361
-76.6226
1.85904
589.23
-591.089
-288.225
-162.54
450.765
-53.6945
-220.876
12.1751
190.234
-214.356
24.1221
-992.65
228.253
449.351
-118.696
19.6141
-627.912
608.298
300.438
-365.32
30.3376
334.982
63.1644
574.068
-637.232
-101.988
772.828
-670.84
-669.575
-195.341
-732.527
39.9885
692.538
-28.7166
566.945
-538.229
926.47
-917.804
-8.66645
566.934
-621.672
-611.184
-23.5221
634.706
-394.568
123.888
255.098
-278.637
23.5385
801.58
-772.757
-95.8102
730.765
-634.954
457.885
14.4828
-433.515
-669.702
604.135
65.5672
399.845
-92.1092
-563.969
-48.001
-10.5394
-399.089
-34.7893
243.955
-209.166
19.5968
327.924
-359.441
363.537
-4.09575
748.057
-793.875
126.52
134.489
210.641
-221.913
11.2712
684.163
-775.244
91.0817
-319.103
-680.161
-9.29419
795.717
75.0095
290.685
120.22
812.765
-17.0487
-8.30748
-1029.36
173.708
3.93378
22.5726
-568.802
159.71
-137.926
-1083.2
-239.432
232.568
75.4047
219.038
-107.462
-467.102
574.565
-2.40462
-477.429
479.833
838.916
-31.1897
570.017
75.2984
-35.6361
-200.635
236.271
746.679
-789.325
-156.55
390.916
-411.66
447.362
-35.7024
-679.339
723.05
-43.7112
308.25
-363.027
17.2658
394.129
-146.407
-247.722
174.896
-511.244
465.882
45.3621
3.66127
-460.945
464.985
-4.04006
613.623
-596.024
41.3275
-166.443
600.753
-291.637
57.4228
440.639
40.644
608.057
-648.701
-69.0224
-156.855
219.29
6.519
32.0506
-388.207
22.8867
-416.448
4.78838
249.23
-251.064
1.83336
711.223
-682.576
-483.797
83.0616
400.735
-42.2019
626.345
-15.1744
-204.495
914.257
-141.748
-772.509
518.881
537.488
-1056.37
-303.598
-13.0691
289.302
4.24049
10.2972
271.714
-694.416
-3.66969
698.085
592.259
-748.923
-223.86
192.041
31.8192
-528.122
-21.4327
-644.709
3.16731
138.638
-136.734
-428.107
-122.428
213.906
18.4869
-639.71
621.224
-38.2631
-497.907
536.17
-269.607
294.558
-69.2417
626.024
-731.052
754.898
-23.8464
217.668
-482.444
238.837
-252.825
13.988
-16.4314
-839.578
26.3964
247.75
-449.129
911.848
-922.476
10.6287
637.547
12.8632
-650.41
-50.8366
-541.797
-807.253
840.45
116.355
-206.566
897.671
-78.2639
236.689
-12.4622
-60.4439
-716.011
776.455
-88.9141
-596.714
-24.7766
549.14
-677.249
24.3625
206.492
-244.397
37.9051
-232.811
0.351757
232.459
-557.629
533.545
24.0846
-215.948
87.6792
49.7043
97.3506
-147.055
-880.253
314.521
18.3101
-332.831
54.9227
637.904
-692.827
-340.728
373.614
-32.8858
-652.663
-24.5855
-663.831
767.732
-896.879
127.718
769.161
-143.343
-168.303
-444.125
63.3018
-456.758
-615.508
245.478
23.7563
-286.451
288.694
-2.24291
177.509
-70.6258
-421.497
393.124
28.3727
-954.893
972.043
-332.525
128.426
204.099
138.538
21.1717
525.255
860.916
-880.697
277.591
-44.8701
371.227
-506.025
-789.757
811.588
-21.831
-354.096
-186.668
540.764
129.192
-166.807
37.6152
425.912
-528.107
750.89
-686.79
-64.1008
-266.417
-37.1807
319.271
-79.2264
312.763
-290.995
329.148
-652.029
-17.673
5.61249
633.301
-373.494
148.403
20.642
-891.498
549.894
-388.633
608.142
368.502
423.111
8.26103
744.671
-805.115
-39.332
-15.6996
827.285
70.3867
421.051
-499.736
78.6853
211.572
-194.421
-17.1517
-212.322
238.799
-26.4766
-4.63284
341.257
-336.624
-618.172
658.816
440.644
257.441
-216.348
-41.0926
362.34
512.02
312.445
-333.255
710.908
100.534
81.2918
-604.821
523.529
639.635
-35.4998
10.9248
-930.67
114.123
816.547
218.362
-256.913
-248.513
-793.255
732.273
60.9816
5.15819
814.753
-819.911
929.219
-929.219
-377.106
17.6648
602.821
36.8132
-109.092
-36.1608
-198.156
234.316
437.425
27.6662
-465.091
-433.418
19.4469
413.971
191.827
972.17
-453.289
-220.456
35.202
185.254
-627.51
630.691
-3.18052
425.721
-469.105
43.3845
-430.658
-2.75993
43.3071
-763.946
720.639
-636.376
-63.987
-548.65
518.411
30.2399
-368.419
282.728
34.4038
-252.562
218.159
-166.339
-166.187
-27.8771
242.232
-22.9416
46.8409
289.115
-275.039
-71.3041
791.605
365.177
-50.6559
-769.779
32.1843
-890.02
814.437
75.5833
136.658
277.183
379.034
160.084
-757.286
859.064
331.126
193.932
-525.058
-160.966
594.44
-644.014
49.574
482.26
61.1124
-543.372
644.775
-346.086
-298.689
-479.57
-123.415
-783.198
681.209
25.9703
-688.577
662.607
-711.264
108.495
602.769
-762.378
-6.41315
37.3384
508.494
-87.4435
-526.653
358.129
557.388
-586.105
-35.3524
-64.3297
222
-157.67
51.8337
-684.464
-232.933
-225.303
160.973
-26.559
298.876
-125.129
-173.747
176.448
-8.19025
-631.766
722.141
-38.7724
220.221
-181.449
869.862
-630.117
13.0682
159.679
189.493
0.996138
397.416
-398.412
-225.083
-202.916
427.999
180.926
763.534
378.976
-355.385
-843.282
7.70465
626.396
-609.861
-0.644617
-815.934
816.578
589.529
16.0129
-605.542
846.935
46.6782
-893.613
307.634
-5.33292
121.272
-409.497
425.493
8.56382
-254.706
334.388
-79.6815
189.395
381.08
-90.3951
610.8
-54.3874
-556.412
-758.269
785.153
-26.8842
15.1503
651.172
-666.323
-646.943
116.269
-5.31641
-442.166
610.049
34.2422
322.714
-29.1448
183.84
-83.314
-335.046
1.50248
95.9477
742.969
2.62596
-276.235
273.609
-421.779
-508.421
-57.4331
-757.765
815.198
247.115
-54.2993
199.016
-276.963
77.9472
199.027
-95.3197
-218.021
-516.876
-581.323
-792.152
-18.8138
-163.967
-815.753
776.443
39.3095
-34.3086
469.423
-435.114
59.7808
821.337
-881.117
194.226
-144.522
775.929
25.55
-240.867
204.706
19.5741
-304.521
284.947
575.711
-573.852
-643.176
131.404
511.772
-559.83
586.403
-26.5735
28.4357
257.228
-665.257
-441.887
608.536
45.7893
-654.325
-721.938
606.752
-679.206
72.4547
-154.708
-41.277
449.894
-484.23
-846.978
852.136
107.358
-307.996
-588.883
-642.319
593.232
49.0874
175.694
-70.5695
-43.1174
464.76
180.015
-575.652
62.0553
514.361
-526.773
12.412
73.3327
-717.648
644.315
265.49
-16.2595
-308.672
164.923
143.749
-565.039
590.956
-119.189
470.262
-351.073
681.399
-86.9591
-0.37551
-316.289
316.664
-447.051
-442.735
889.786
-165.274
267.495
-102.22
-103.156
-578.883
-569.807
424.282