/*--------------------------------*- C++ -*----------------------------------*\
  =========                 |
  \\      /  F ield         | OpenFOAM: The Open Source CFD Toolbox
   \\    /   O peration     | Website:  https://openfoam.org
    \\  /    A nd           | Version:  7
     \\/     M anipulation  |
\*---------------------------------------------------------------------------*/
FoamFile
{
    version     2.0;
    format      ascii;
    class       volVectorField;
    location    "38";
    object      U;
}
// * * * * * * * * * * * * * * * * * * * * * * * * * * * * * * * * * * * * * //

dimensions      [0 1 -1 0 0 0 0];

internalField   nonuniform List<vector> 
19930
(
(0.997616 -0.000231757 3.4999e-23)
(0.99023 -0.000755049 -4.29668e-22)
(1.035 -0.00486288 4.88808e-23)
(1.0003 -6.65178e-05 -2.73243e-24)
(1.00058 -0.0115249 7.08539e-23)
(1.00011 -0.0122407 -6.96881e-23)
(1.04045 -0.220265 -8.80541e-22)
(1.23201 0.0926952 -9.68785e-21)
(1.00367 -0.109089 -2.10318e-21)
(1.2413 0.0877762 6.99519e-21)
(1.05635 -0.200229 -2.71864e-21)
(1.35808 0.00587457 1.62919e-22)
(0.979086 -0.0688759 -2.66468e-22)
(0.997418 -0.000277824 -2.89263e-23)
(0.994643 -0.0039122 -2.00092e-23)
(1.00029 -8.06724e-05 -2.49218e-24)
(1.32684 -0.126359 -2.59607e-21)
(1.19304 -0.00141664 -4.84047e-21)
(0.998184 -0.164108 -1.32208e-21)
(0.992492 -0.000357866 3.78105e-22)
(1.01875 -0.126689 2.92876e-21)
(1.36024 0.0110035 2.17184e-22)
(1.25203 0.0945059 -4.91516e-21)
(1.15056 -0.256557 -2.15209e-21)
(1.03251 -0.00227991 1.55261e-24)
(0.996656 0.216478 -2.64687e-20)
(1.01173 -0.00348996 5.8204e-23)
(0.98995 -0.0750367 9.45603e-22)
(1.20522 -0.24919 -1.98526e-21)
(1.00138 -0.166159 4.81036e-21)
(0.998326 -0.0026344 3.65153e-26)
(0.878613 0.033703 4.57699e-20)
(1.34669 0.0963618 1.9614e-21)
(0.988382 -0.0429299 1.00328e-22)
(1 -0.00201148 6.71724e-24)
(0.99839 -0.0028574 7.69274e-25)
(1.24204 0.131486 -1.06775e-20)
(0.999945 -4.37736e-06 -5.05857e-24)
(1.01907 -0.0259262 1.49193e-22)
(1.20225 -0.0124867 -1.36237e-21)
(1.05561 -0.0114045 2.81171e-23)
(1.34442 0.192334 4.30199e-21)
(1.08039 0.0949574 -6.87134e-21)
(1.01042 -0.00403501 -4.85108e-23)
(0.994652 0.206991 1.07766e-20)
(0.978159 -0.00161834 -2.37809e-22)
(1.18197 0.0121212 -1.70676e-20)
(1.34613 -0.0602521 2.60365e-21)
(0.99959 -0.000111381 -5.17166e-24)
(0.963433 -0.0594564 7.92772e-23)
(0.999875 -0.00213841 -1.63094e-23)
(1.10695 -0.0136557 2.17773e-23)
(1.22685 -0.182291 7.44357e-21)
(1.0003 -0.00485803 -2.62226e-23)
(1.26318 -0.194033 -1.75596e-21)
(0.940136 -0.0205749 2.96677e-23)
(0.971022 -0.0391373 2.91296e-23)
(0.998131 -0.00345586 -1.38981e-24)
(1.01127 -0.0637363 -1.45346e-21)
(1.32687 -0.120969 2.01698e-21)
(0.941012 0.0707963 2.38774e-20)
(0.967595 -0.00465644 -2.50059e-22)
(0.987469 -0.00360113 6.73514e-23)
(1.25868 0.0715643 -3.77925e-22)
(0.999443 -8.02431e-05 3.3378e-23)
(0.993998 -0.0100566 3.5782e-24)
(0.993866 0.144938 7.07758e-22)
(0.993294 -0.0104797 1.53095e-23)
(1.15819 -0.120354 -3.08026e-21)
(1.01391 0.217513 9.86055e-21)
(1.05337 -0.0589345 -9.87577e-22)
(1.31906 -0.153286 -3.80103e-21)
(0.995125 -0.00394471 -6.18447e-25)
(0.977506 -0.0498404 6.71333e-22)
(0.999588 0.017145 -1.0168e-20)
(1.09607 -0.122053 1.97879e-21)
(1.01166 0.201688 4.48999e-21)
(0.95831 -0.00558122 -3.42154e-23)
(1.19811 -0.0114724 8.96769e-22)
(1.0071 0.0689479 1.42065e-20)
(0.995125 -0.0105316 7.50518e-23)
(1.00268 -0.00581259 -3.5787e-23)
(1.18596 -0.249129 1.58443e-21)
(1.00514 -0.105719 1.75523e-21)
(0.971291 -0.00368595 2.76967e-22)
(1.07447 0.0903698 3.29878e-20)
(0.98296 -0.0643137 -4.75911e-22)
(0.755038 0.125661 4.44877e-21)
(1.24854 0.0692745 -3.93969e-21)
(0.956739 0.224439 1.75412e-20)
(1.20587 0.0244157 -5.86585e-21)
(1.00038 -9.6674e-05 2.80966e-24)
(1.00003 -0.000398275 8.10954e-24)
(0.901766 0.0103109 -1.30319e-20)
(1.34553 -0.0668812 -1.28134e-21)
(0.987806 -0.00382053 5.72334e-23)
(0.92126 0.00662735 1.99511e-20)
(0.99912 -0.00576233 1.63057e-23)
(1.06224 -0.194198 -1.24105e-21)
(1.14363 0.0252281 -7.88208e-21)
(0.948207 0.232214 -5.21194e-20)
(0.970357 -0.0120207 -5.40117e-24)
(0.921185 0.211953 -5.79997e-20)
(1.21523 -0.167141 8.80862e-21)
(1.14972 -0.0058895 -1.45683e-21)
(1.13126 -0.123258 2.68472e-21)
(1.0877 0.229545 1.67338e-20)
(1.20601 -0.142935 3.30334e-21)
(0.990111 -0.000430312 6.31792e-22)
(1.1454 0.248246 3.36711e-21)
(1.21206 -0.253536 -6.84665e-21)
(1.03415 -0.219286 -1.95163e-21)
(0.970464 -0.0302034 1.5975e-22)
(1.04491 -0.0302426 4.55661e-22)
(1.09966 -0.113609 8.58932e-22)
(1.00007 -0.000150325 -2.50813e-24)
(1.13099 0.145371 1.50163e-20)
(0.995869 -0.00986745 -3.09471e-23)
(1.20409 -0.178904 1.71156e-21)
(1.0056 0.0489334 -3.32058e-20)
(1.00037 -7.29272e-05 5.34909e-25)
(1.03423 -0.132898 2.0755e-21)
(1.23764 -0.00854077 -1.61582e-21)
(1.01199 -0.0730171 -2.01369e-21)
(0.98831 -0.0406463 -6.02193e-23)
(1.19515 -0.00156276 2.3547e-21)
(1.36799 0.0533249 7.97683e-23)
(0.989712 -0.0721728 7.51326e-22)
(0.863021 0.0402554 -1.35004e-20)
(1.12354 0.153142 8.12022e-21)
(0.984245 -0.0831744 -7.6587e-22)
(0.963054 -0.0570435 -2.93006e-22)
(1.05586 -0.00589486 -7.50634e-23)
(1.01795 -0.0238535 -1.48922e-22)
(1.06924 0.217187 -2.3407e-20)
(1.14321 -0.00989176 -2.02087e-22)
(1.34835 -0.0369596 1.94146e-21)
(1.02288 -0.127704 -1.21217e-21)
(0.975906 -0.0124784 -1.17853e-24)
(0.985556 -0.110808 3.51531e-21)
(1.02885 -0.136633 3.28859e-22)
(0.975377 -0.0514799 -6.68808e-22)
(1.3158 -0.162941 -3.30315e-21)
(0.912549 0.234919 -1.84746e-20)
(1.28484 -0.0799019 -1.00898e-21)
(1.06873 0.225454 2.1311e-20)
(1.37341 0.10623 -3.97269e-22)
(0.963049 -0.0125129 9.97422e-23)
(1.36338 0.0378262 -2.05558e-22)
(1.01329 -0.00467172 -1.25617e-22)
(0.963391 -0.0113267 -2.16941e-22)
(1.01706 0.212161 1.05041e-21)
(1.00005 -0.000348546 -5.22307e-24)
(1.00334 -0.0976916 6.57551e-22)
(1.00262 -0.00522564 6.40575e-23)
(1.37335 0.115775 1.39323e-21)
(1.06589 0.0959236 -3.43213e-21)
(1.14568 -0.251843 9.68158e-21)
(0.934109 -0.0242614 6.0019e-24)
(0.977869 -0.0705264 5.53999e-22)
(1.26515 -0.204146 2.48987e-21)
(1.04634 -0.213503 1.37286e-21)
(0.998082 -0.00317651 -4.9204e-25)
(1.28573 -0.0726141 1.25317e-21)
(1.18164 -0.0101408 -3.12439e-22)
(0.759392 0.131897 1.06965e-20)
(0.971579 -0.0122834 -6.07298e-23)
(1.17744 -0.256091 6.25109e-22)
(1.08988 -0.123952 -2.2687e-21)
(1.23787 0.124906 -6.59605e-21)
(1.34835 -0.0407099 -5.59222e-22)
(0.976792 0.163144 1.06746e-20)
(1.2233 0.266956 1.94331e-20)
(0.984942 -0.0370682 1.27076e-23)
(0.823194 0.0319009 -1.60839e-20)
(1.35029 0.0893927 1.89083e-21)
(0.996597 -0.000647058 -3.85046e-23)
(0.982426 0.0134266 -2.76174e-20)
(1.10829 -0.112478 -8.94362e-23)
(1.13186 0.266793 6.97206e-21)
(1.06096 0.243961 -1.08469e-20)
(0.999913 -2.72705e-06 6.22215e-24)
(0.905304 0.157134 7.05002e-22)
(1.19581 0.230015 1.82911e-20)
(0.991864 -0.000608336 -2.33556e-23)
(0.9367 -0.0166144 -1.84292e-22)
(1.05294 -0.0550461 7.16177e-22)
(1.1531 0.0184524 -2.06592e-21)
(1.2071 -0.171412 -2.92141e-21)
(0.831721 0.113944 1.37768e-20)
(1.36554 0.0542016 -3.38575e-22)
(1.30178 -0.127498 -1.9658e-21)
(1.13548 0.0197775 1.55527e-20)
(1.15877 -0.111744 -1.6043e-21)
(0.934079 -0.0255815 5.9621e-23)
(1.35092 -0.00620727 8.80663e-22)
(0.907578 0.166417 -8.5369e-22)
(1.33184 -0.0848189 4.99311e-21)
(0.993823 -0.00023226 -1.27186e-23)
(0.822754 0.112038 -1.35523e-20)
(1.33361 -0.0473978 3.44751e-21)
(1.28302 -0.173318 2.71388e-21)
(1.22794 -0.17405 -7.16092e-21)
(0.845853 0.133672 -1.64805e-20)
(0.886591 0.142965 3.77367e-20)
(0.954081 -0.0302273 -7.78556e-23)
(0.998758 -0.0533177 -1.00012e-22)
(1.10708 -0.00805758 2.21268e-24)
(0.939417 -0.022457 -1.76364e-23)
(0.998846 -0.000107681 6.22898e-23)
(0.998052 0.148441 -4.95584e-21)
(0.975687 0.0484773 -9.91699e-21)
(0.960721 -0.0163155 -1.47495e-23)
(0.941898 -0.0422111 1.58989e-22)
(1.13302 0.256167 1.02521e-20)
(0.998513 0.0319687 1.54739e-20)
(0.998905 -5.40083e-05 -1.80815e-22)
(1.00315 0.0362555 -2.26491e-20)
(1.2124 -0.138382 1.54501e-21)
(1.01942 -0.0210179 3.95845e-22)
(1.00363 -0.0783718 1.0878e-22)
(1.08762 0.150366 -1.75936e-21)
(0.886584 0.265075 1.74584e-20)
(1.2006 0.0230583 7.75845e-21)
(1.14372 0.234922 -1.65705e-20)
(0.974585 -0.0123502 -3.55658e-24)
(1.00163 -0.0527421 -5.04098e-22)
(1.00011 -0.0001572 1.3796e-25)
(0.999256 -3.76307e-05 5.05925e-23)
(1.00044 -0.00960412 1.3707e-22)
(1.23236 -0.00985528 6.52237e-22)
(1.16428 -0.174684 -1.62458e-21)
(1.09014 0.22075 -2.12749e-20)
(0.995809 -0.130593 9.09808e-22)
(1.0504 0.0794015 1.30995e-20)
(0.984939 -0.0620581 -8.19638e-23)
(1.12371 -0.117346 -1.95067e-21)
(0.982498 0.159259 1.88833e-20)
(0.907546 0.00817894 6.7908e-20)
(1.08748 0.14145 2.97913e-20)
(1.01702 0.194135 -2.77955e-20)
(0.940034 -0.0411359 -1.32349e-22)
(1.31525 0.184164 -3.41654e-21)
(1.01343 -0.0707788 2.20797e-21)
(1.15677 -0.009676 3.35251e-21)
(0.995685 -0.00885103 -4.57533e-23)
(1.29575 -0.192583 -7.35544e-21)
(1.22866 -0.110608 -3.2769e-21)
(1.11719 -0.0405525 -7.40931e-23)
(0.999634 -8.525e-05 6.25136e-24)
(0.988321 -0.000596868 -7.11295e-22)
(0.874798 0.271516 -2.69123e-20)
(1.28678 -0.00314329 5.76349e-21)
(1.01823 -0.0278654 -3.49382e-22)
(0.9591 -0.0644766 -6.58733e-22)
(1.15822 -0.168283 6.45843e-22)
(1.08477 -0.235041 3.70445e-21)
(1.33733 0.20272 -6.40609e-22)
(0.987208 -0.109601 -1.01518e-21)
(0.97395 -0.00201753 3.84096e-22)
(0.9926 -0.0856433 1.15268e-21)
(0.989622 -0.0359184 -9.18138e-23)
(0.999417 -5.89139e-05 -2.50993e-24)
(0.9838 -0.0590753 4.32459e-22)
(1.05123 -0.213783 -6.02958e-22)
(0.909902 0.224284 3.4663e-20)
(1.33959 -0.0894856 -2.97096e-21)
(0.972721 -0.0288496 -2.47531e-22)
(1.04537 0.083787 -2.02981e-20)
(0.890564 0.154914 -4.55587e-21)
(0.983714 -0.0669831 8.22909e-23)
(1.00076 -0.000337418 -1.88802e-23)
(1.00208 -0.10152 -1.17496e-21)
(0.994125 0.136166 5.79694e-21)
(1.26971 -0.224141 -3.92643e-21)
(0.946595 0.0650254 -3.57614e-20)
(1.00003 -0.000167051 1.14241e-24)
(0.94373 -0.0469351 3.64217e-22)
(1.19165 0.285165 1.58781e-21)
(0.998984 0.0295629 3.09344e-20)
(1.03742 -0.099715 -4.30369e-22)
(0.972922 -0.0373732 2.17143e-22)
(0.835888 0.23976 2.96004e-20)
(1.28291 -0.156036 8.29137e-22)
(1.29447 -0.128131 1.65309e-21)
(0.932543 0.214853 2.37193e-20)
(0.834117 0.131068 -2.8295e-21)
(0.981869 -0.0692134 -2.84657e-22)
(1.19143 0.294027 -1.13072e-20)
(1.22105 -0.0439328 -7.99627e-22)
(1.01033 0.0727532 -3.87682e-20)
(1.16899 0.147202 8.34683e-21)
(1.00079 -0.000246952 2.43606e-23)
(1.34182 -0.0909352 2.91526e-21)
(1.22267 0.126305 4.09332e-21)
(0.996572 -0.000549654 -1.13194e-22)
(0.993584 -0.137609 -3.82689e-22)
(1.32703 -0.0738184 1.33179e-21)
(1.16434 -0.246101 -1.77324e-21)
(1.32869 -0.0497674 -1.76602e-21)
(1.24409 -0.0909747 1.45139e-21)
(1.00011 -0.00023997 -2.13467e-24)
(0.999309 -0.00402997 4.15142e-23)
(0.964539 0.259208 -4.05319e-20)
(1.00109 -0.0175264 -2.51475e-23)
(1.00692 -0.165207 -1.19034e-21)
(0.984979 -0.0899384 1.05784e-22)
(1.36143 0.0133119 5.84885e-22)
(0.97007 -0.00446109 5.06439e-23)
(1.13813 0.273777 1.17888e-20)
(1.28823 -0.0544777 -1.40849e-21)
(0.98938 -0.0861596 6.48547e-22)
(0.955189 -0.00680645 1.06539e-22)
(1.24183 0.113518 6.8504e-22)
(1.34612 0.0039515 -2.72443e-22)
(1.00006 -0.000244884 -1.75946e-24)
(0.945881 0.153463 3.48191e-20)
(1.12548 0.162264 3.8679e-21)
(0.986076 0.029152 -8.60239e-21)
(1.2685 -0.185015 -2.56323e-21)
(0.999502 -5.58974e-05 -2.64904e-23)
(0.840047 0.229044 -1.97985e-21)
(0.996043 -0.00600336 -9.62474e-24)
(0.989083 -0.0658251 1.95716e-22)
(1.34693 -0.00415159 1.01771e-22)
(1.32704 -0.0820352 -5.84666e-22)
(0.973472 -0.0690791 -5.66909e-22)
(1.27861 -0.165414 4.06083e-21)
(1.05966 0.0920909 5.29007e-21)
(0.90539 0.0100338 2.4452e-20)
(1.04709 0.21987 -2.85643e-20)
(1.26811 -0.0295045 -1.31523e-21)
(0.799276 0.0430424 3.47938e-21)
(1.00032 -1.25649e-05 -1.77971e-24)
(0.98688 -0.0351636 -8.6461e-23)
(0.999823 0.016155 4.08994e-20)
(1.21953 -0.222572 8.03588e-22)
(1.21647 0.120373 -1.00086e-20)
(0.980211 -0.050604 -2.89026e-22)
(1.00092 0.200241 2.82363e-20)
(1.26253 -0.0619292 -4.92856e-22)
(1.00001 -0.00442651 3.35362e-23)
(1.25453 -0.0635307 4.41902e-22)
(1.12741 0.13435 -1.93405e-20)
(1.17984 -0.22549 -5.47214e-23)
(0.945029 0.0150536 -6.54005e-21)
(1.216 0.232728 2.49838e-21)
(0.999229 -0.000331228 1.75443e-24)
(1.04768 -0.0274258 5.56306e-22)
(1.31104 0.0913429 2.92364e-21)
(1.19329 -2.15954e-05 9.56729e-21)
(0.998356 -8.34313e-05 1.89935e-22)
(1.21956 0.25721 -1.74812e-20)
(1.01437 -0.062869 -1.92767e-22)
(0.735489 0.125851 -1.56503e-21)
(1.02389 -0.134325 -2.46956e-21)
(0.960784 -0.0146266 -3.63612e-23)
(0.988978 -0.00070781 5.6014e-22)
(1.05227 0.228331 3.14672e-20)
(1.19043 0.22254 -2.87076e-20)
(0.975017 -0.00280489 -1.52325e-22)
(1.23103 0.104874 2.39052e-21)
(0.954644 0.212486 -1.00573e-20)
(1.00116 -0.0188201 -4.8427e-23)
(1.09606 0.0124482 4.9043e-21)
(1.04996 0.0388826 -1.46416e-20)
(0.767117 0.0667942 2.29989e-20)
(0.996593 -0.00499998 1.18642e-24)
(1.34344 0.0309674 -1.224e-21)
(1.2206 -0.114045 1.22021e-21)
(0.939028 -0.0200175 -3.24824e-24)
(0.999666 -5.89807e-05 -5.64188e-24)
(0.99964 0.00902137 2.52265e-20)
(1.35032 0.192988 2.30284e-21)
(1.31778 -0.1012 1.27741e-20)
(0.990476 0.255479 -1.0121e-20)
(1.2663 -0.0218866 4.97444e-22)
(0.96879 -0.0384908 1.6241e-22)
(1.31359 0.17104 -2.64165e-21)
(1.181 -0.00576224 -1.12685e-21)
(1.27744 -0.000514605 2.2809e-21)
(0.773368 0.0730628 -6.00466e-20)
(1.02778 -0.118018 9.34502e-22)
(1.34357 -0.0174433 -3.45478e-22)
(0.982482 0.0405412 -2.24019e-20)
(0.957278 -0.0655077 5.85361e-22)
(1.20591 -0.0540289 1.20578e-22)
(1.07097 -0.195154 2.92862e-21)
(1.30715 0.0834194 -1.33521e-21)
(0.99497 -0.000181912 8.65537e-22)
(1.18707 0.012076 -1.69583e-21)
(1.32146 -0.0956933 -5.22255e-21)
(1.34136 -0.022886 -1.50102e-21)
(1.00138 -0.00571168 1.27193e-22)
(1.17815 0.00909498 1.82164e-20)
(0.99545 0.0205814 -2.13249e-20)
(1.11866 0.0918339 3.48531e-20)
(1.16612 -0.241106 -7.07364e-21)
(0.991331 -0.0339006 2.05798e-22)
(0.856126 0.122303 -1.90687e-20)
(0.878354 0.0392072 -4.91675e-20)
(0.996362 -0.00829057 -8.10958e-24)
(0.945991 -0.0459204 1.48656e-22)
(1.05302 0.159755 4.2132e-21)
(1.01223 -0.173544 -9.78118e-22)
(1.11496 -0.120111 1.72775e-21)
(1.3281 0.199674 9.97866e-21)
(0.990761 -0.00046247 -6.98134e-22)
(0.762602 0.0589926 3.98968e-20)
(1.0403 -0.0893556 -1.35832e-22)
(1.34684 0.049296 8.7329e-22)
(0.987789 -0.0116837 -5.28777e-24)
(0.992556 0.0210917 -9.1449e-21)
(1.22075 0.220836 -4.88005e-21)
(1.11833 -0.0320274 -2.43566e-22)
(1.13102 -0.131388 -9.79454e-22)
(1.30522 -0.122227 3.4948e-21)
(1.33516 -0.0423605 -4.22081e-22)
(0.999302 -0.0062755 2.07603e-24)
(1.03968 0.132192 -7.77217e-21)
(1.32409 -0.150515 8.15092e-21)
(1.24113 0.0756089 9.80386e-21)
(0.737704 0.133808 6.01172e-20)
(1.27849 -0.183583 2.10218e-21)
(1.08699 -0.107021 -2.80933e-21)
(0.999998 -0.0104382 -1.37667e-22)
(1.34734 -0.0568497 -4.81033e-21)
(1.33208 -0.0924725 -3.25588e-21)
(0.968663 -0.0293029 3.71511e-22)
(1.28364 0.215339 -1.67571e-21)
(0.999995 -0.00162729 -2.60858e-23)
(0.965388 -0.0525402 -1.02925e-22)
(1.01825 -0.0190912 -5.54746e-22)
(1.27802 -0.14854 3.1679e-22)
(0.985499 -0.0567311 3.53724e-22)
(0.999575 -0.000146874 1.71102e-24)
(0.983347 -0.0738357 1.17596e-21)
(1.35119 -0.0129756 6.40904e-22)
(1.17881 -0.234991 -2.73676e-21)
(1.05881 -0.0958435 -2.31267e-22)
(0.952165 -0.0309467 -1.88697e-22)
(1.32161 -0.0702696 3.71461e-21)
(1.23873 -0.0839956 -1.08528e-21)
(0.966573 -0.0683834 -3.00011e-22)
(0.947635 -0.00961321 -3.82144e-22)
(1.00097 -0.00596135 -2.03329e-23)
(1.16482 -0.126093 3.3764e-21)
(1.02597 -0.187452 -1.66199e-22)
(1.01505 -0.00392541 9.58594e-23)
(1.04203 -0.0955927 1.5871e-21)
(1.34049 0.00657758 9.6265e-23)
(1.11949 0.0843554 -2.11485e-20)
(1.29444 -0.067988 -3.80972e-22)
(0.99921 -0.000273681 1.70156e-23)
(0.816531 0.255083 -4.41147e-20)
(1.01525 -0.00199645 3.35418e-22)
(0.999901 -0.00176077 3.11873e-23)
(1.05212 -0.013593 -2.87743e-22)
(0.950821 -0.0465617 -2.5175e-22)
(1.00829 -0.120717 1.3435e-22)
(0.894905 0.13216 -2.21462e-20)
(1.02882 -0.0727875 1.39236e-22)
(1.21606 -0.0400092 -5.91988e-22)
(1.02136 -0.162568 2.41542e-21)
(1.01727 -0.165027 -3.04598e-21)
(1.32682 0.186799 -6.93392e-21)
(0.991657 -0.0667075 -3.48302e-22)
(0.986663 -0.104492 5.02308e-22)
(0.996129 -0.135541 9.35395e-22)
(0.999722 -4.24222e-05 1.21018e-23)
(1.21611 -0.157426 -5.04663e-21)
(0.789839 0.239795 -4.07322e-21)
(1.08849 -0.228039 9.9363e-22)
(0.947463 -0.0594648 -4.23563e-23)
(1.27408 0.206008 -1.48095e-22)
(0.974976 -0.0650998 -6.00386e-23)
(1.1639 0.137933 -7.02144e-21)
(1.36514 0.0365269 2.37881e-22)
(0.995455 -0.00641713 2.38633e-23)
(0.998687 -0.00015662 -5.07323e-23)
(1.11007 0.149903 2.43685e-21)
(0.740429 0.170353 1.94842e-20)
(1.06874 -0.225376 2.44269e-22)
(1.37107 0.0909476 1.44719e-22)
(1.35333 -0.0203647 2.9401e-21)
(0.955316 -0.0527557 -1.2967e-22)
(0.955171 -0.0555604 -3.2184e-22)
(1.05827 0.166483 -1.13453e-21)
(1.14307 -0.0183573 3.52024e-22)
(1.1878 -0.240023 5.63593e-21)
(1.07651 -0.187442 -2.51368e-21)
(0.979539 -0.00164992 2.57935e-23)
(1.08308 -0.0211148 -2.11667e-22)
(0.868673 0.0620245 -8.49061e-21)
(1.22616 -0.0204188 -5.33926e-21)
(1.00031 -0.0001154 2.70712e-24)
(0.917062 0.202917 3.73928e-20)
(1.04442 -0.0854227 -1.73273e-21)
(1.00997 -0.123062 1.75456e-21)
(1.19976 0.276623 -9.65249e-21)
(1.02147 -0.0310476 -5.28401e-22)
(0.98687 -0.0110851 7.97079e-25)
(0.999224 -0.000503927 6.26106e-24)
(1.20448 -0.124086 -1.79992e-21)
(0.955551 -0.0231771 -6.78565e-23)
(1.0003 -2.12392e-05 3.07874e-24)
(1.37194 0.0868395 -4.3256e-22)
(1.27422 -0.216452 -2.74834e-21)
(1.0343 0.129867 -1.36021e-20)
(0.999345 -8.52542e-05 -8.94943e-24)
(1.00011 -0.00531372 -1.60746e-23)
(0.973479 -0.0667776 -3.15408e-22)
(0.999992 -0.000149062 2.69183e-25)
(1.06948 -0.231581 -1.24561e-21)
(1.20697 -0.238334 -2.71501e-21)
(0.999407 -0.00530166 8.09607e-24)
(1.00764 -0.0965752 -5.33453e-22)
(0.938096 -0.0164378 -1.41468e-23)
(1.18131 0.248068 -1.32948e-21)
(0.983994 0.252891 8.16391e-21)
(0.996021 -0.00544241 3.30307e-24)
(1.00385 -0.00139896 3.73451e-23)
(0.99186 -0.128218 -2.32295e-21)
(0.968919 0.228287 2.71675e-20)
(1.00469 -0.0435728 5.27777e-22)
(0.94965 0.143161 -8.22746e-22)
(0.97666 -0.0138766 -4.23115e-24)
(0.741593 0.100429 -1.63062e-20)
(1.08498 0.0289311 -2.69534e-21)
(1.26855 0.0430642 -7.56923e-21)
(0.778359 0.133801 -1.75874e-20)
(1.32659 -0.140627 3.2925e-22)
(0.988979 -0.00306375 3.64033e-23)
(1.21226 -0.109777 -1.03181e-21)
(1.01032 -0.0453253 -5.49248e-23)
(0.987799 0.224625 6.62633e-21)
(1.05061 0.143621 1.82142e-20)
(0.967287 -0.00859792 -7.84338e-23)
(1.29279 -0.186437 8.33233e-21)
(1.18189 -0.0521163 -2.56462e-23)
(1.08254 -0.11245 -1.49039e-21)
(0.996072 -0.000277231 1.20025e-22)
(1.29218 -0.202016 7.26465e-21)
(1.00028 -5.61912e-05 4.15743e-24)
(1.17033 0.242663 6.35552e-21)
(0.937651 -0.0153511 1.98257e-22)
(0.987042 -0.0830896 -2.18507e-22)
(0.993654 -0.0393911 2.42648e-22)
(1.0066 -0.0772007 1.9793e-21)
(1.33942 0.0502035 3.28411e-22)
(1.29526 -0.0607719 1.68443e-21)
(0.998614 -4.80637e-05 -1.98273e-22)
(1.03283 -0.0701609 -1.19783e-21)
(0.999862 -0.000190858 -1.15312e-25)
(0.748964 0.0925462 1.20255e-20)
(0.880651 0.0556927 1.73081e-20)
(0.994835 -0.0010509 6.52596e-23)
(0.965847 -0.0146419 8.22471e-24)
(1.04493 -0.0521397 -5.90054e-22)
(1.05667 0.150328 7.81614e-21)
(0.930342 -0.0257347 -9.46802e-23)
(1.35399 -0.0207592 7.15914e-22)
(0.950128 -0.0610298 9.13478e-23)
(1.03487 0.221084 -5.69376e-22)
(1.27811 0.0441612 -7.59953e-22)
(0.954037 -0.0254288 -8.07657e-23)
(0.784344 0.0472607 -2.53199e-20)
(1.0729 -0.00360533 2.86218e-22)
(1.06164 0.230129 -1.66571e-20)
(0.990016 -0.0173169 1.22234e-24)
(1.02806 -0.198772 4.91167e-21)
(0.956901 0.00898924 -5.47506e-20)
(1.01797 -0.0573783 7.85649e-22)
(0.732279 0.183361 -8.90209e-21)
(1.08501 0.170955 9.60349e-22)
(0.787573 0.0537985 -5.97813e-21)
(0.989378 -0.00319923 -1.73421e-23)
(0.992795 -0.000519432 -2.74248e-22)
(1.03384 -0.126782 -5.72607e-22)
(1.23086 -0.101563 4.20621e-21)
(1.01973 -0.0307286 5.72489e-22)
(1.03336 -0.114653 -1.99945e-22)
(1.04356 0.202789 1.54854e-21)
(1.03633 0.242299 5.33917e-21)
(1.08753 0.00555828 7.10366e-24)
(0.976797 0.221141 -1.94718e-20)
(0.748554 0.200464 4.82279e-21)
(1.33826 0.096081 4.58511e-21)
(0.998468 0.00992492 -3.66717e-20)
(1.10624 0.0725637 -6.85715e-21)
(1.00632 -0.0229035 -4.58925e-22)
(1.1041 0.156551 -7.89496e-22)
(0.984617 -0.103633 -4.31601e-22)
(0.952419 -0.0596084 2.3975e-22)
(0.998385 -0.00143188 -2.07255e-24)
(1.07373 -0.111718 3.53729e-21)
(1.13709 -0.212374 -7.63787e-22)
(1.18043 0.0635509 4.87679e-21)
(1.12396 -0.0157479 3.87079e-22)
(1.0051 0.0576693 2.83517e-21)
(1.01029 -0.0664596 1.34053e-21)
(1.19224 -0.0407072 4.56532e-22)
(1.00663 0.0434184 -3.22417e-21)
(1.01188 -0.047582 9.06904e-22)
(1.12548 -0.136174 2.22433e-21)
(0.999896 -0.000222419 1.64631e-25)
(1.00053 -0.000280854 3.86373e-24)
(1.17521 0.0573979 -4.1058e-23)
(0.987927 -0.0895179 -6.28511e-22)
(0.960371 -0.0558109 3.99935e-22)
(1.00059 -0.000268133 -5.89228e-24)
(0.999974 -0.00366009 2.10942e-23)
(1.17835 -0.0577936 -3.30488e-23)
(0.999509 -5.86587e-05 1.57128e-23)
(1.34301 -0.0708897 1.0187e-22)
(0.759657 0.0730075 3.17181e-20)
(1.37163 0.103155 1.30936e-22)
(1.26314 0.0800063 -4.24265e-22)
(0.963844 -0.00829621 1.51041e-22)
(1.11094 0.232667 5.62278e-21)
(1.34813 -0.0502647 2.09428e-21)
(1.00549 -0.0406206 -3.20716e-23)
(0.965981 -0.0165793 -6.97264e-24)
(0.996602 -0.00460852 -1.29137e-25)
(0.99917 -0.000438445 -4.79015e-24)
(1.00217 -0.00610519 -4.9062e-23)
(0.994424 -0.0419308 2.00996e-22)
(1.04857 -0.198705 2.92783e-21)
(1.26298 0.127219 1.14493e-20)
(1.25939 -0.113261 -1.328e-21)
(0.96424 -0.00392865 -8.64142e-24)
(0.999875 -0.000153742 5.14882e-25)
(1.00771 0.134071 1.89912e-20)
(1.32309 -0.118605 6.96648e-21)
(1.30852 -0.165378 2.32689e-21)
(1.02117 -0.0591632 -8.83836e-22)
(1.34628 -0.0356819 -1.58597e-21)
(1.07068 -0.115527 -9.06415e-22)
(0.984305 -0.000880771 1.05773e-23)
(1.00374 0.0322826 1.60728e-20)
(0.958814 0.00160043 -7.36795e-20)
(1.26565 0.271379 -9.95781e-21)
(0.990779 -0.000396032 4.73353e-22)
(1.2574 0.276574 8.35074e-21)
(0.966661 -0.00581406 -7.79071e-23)
(0.978899 -0.0609082 -4.10212e-22)
(1.35575 0.131074 -4.45624e-21)
(1.00029 -0.000141287 4.88794e-24)
(0.985337 -0.0394015 -3.49223e-23)
(1.34767 0.0345866 5.12294e-22)
(1.32095 0.0930749 4.88074e-21)
(0.955112 -0.0277934 -5.21082e-24)
(1.06661 0.148405 1.2435e-21)
(0.898341 0.2729 -1.81947e-21)
(1.03403 0.0715721 -3.63018e-20)
(0.94833 -0.0476994 4.10032e-22)
(0.948731 -0.00951792 1.43093e-22)
(1.06416 -0.0912684 -5.28657e-22)
(1.18705 -0.012006 2.14651e-22)
(1.04633 0.0320735 -8.57171e-21)
(0.994661 -0.0014949 1.78232e-23)
(0.948812 0.0216231 -2.04888e-20)
(0.988301 -0.0627292 1.0783e-21)
(1.03442 -0.198643 -3.37213e-21)
(1.2105 -0.101032 -7.1059e-22)
(0.806024 0.260161 6.26676e-20)
(1.27413 0.133598 -8.59883e-21)
(1.04281 0.145752 -1.91526e-20)
(1.21779 -0.233051 1.43064e-21)
(0.924565 0.00490636 -3.34709e-20)
(0.957735 -0.0229458 6.23436e-23)
(0.980844 -0.0586263 2.99313e-22)
(0.838676 0.0246247 1.19905e-20)
(1.11184 -0.0439095 5.58855e-23)
(1.04988 -0.185007 -5.04305e-22)
(1.0609 0.209566 -3.86339e-21)
(1.0285 0.21211 -1.23523e-20)
(0.967768 -0.0507906 -3.6104e-22)
(1.05812 0.0416028 -1.92665e-20)
(0.971494 0.239209 -3.5739e-21)
(1.02772 0.194599 1.6172e-20)
(1.15952 0.267409 4.37584e-21)
(1.05049 0.211959 2.53613e-20)
(1.16279 0.156773 -1.10415e-20)
(0.984888 -0.00387641 -1.08735e-22)
(0.95869 -0.0251595 1.16309e-22)
(1.00335 -0.00992711 -2.82486e-23)
(1.00998 -0.162387 3.40074e-21)
(0.987581 0.0421825 -5.12686e-21)
(1.0168 -0.171977 1.97444e-21)
(1.3507 0.0094161 -1.16052e-23)
(1.28968 0.0121455 -2.68322e-21)
(0.96106 -0.0651411 3.02694e-22)
(1.34061 -0.0681406 -1.45417e-23)
(1.36094 0.0323593 1.31031e-22)
(0.986717 0.015758 -1.57273e-21)
(1.33255 -0.0693894 -1.52524e-21)
(0.999457 -0.0044194 -4.84993e-24)
(1.08828 -0.0207037 2.7585e-23)
(0.977944 -0.0658176 1.97329e-22)
(1.29211 -0.154426 1.18423e-22)
(1.30497 -0.158898 -5.17098e-21)
(1.02116 -0.182815 6.41014e-22)
(1.15697 0.253634 2.47424e-21)
(0.945107 0.264005 2.91607e-20)
(1.25421 -0.0896817 -1.24188e-21)
(0.99507 0.0123397 1.62767e-20)
(0.740303 0.157907 -2.18736e-20)
(0.998713 -9.64618e-05 4.84799e-23)
(1.00428 -0.00142833 -2.98983e-24)
(0.995467 -0.00711933 -1.01443e-23)
(0.967823 -0.00914686 -4.33577e-23)
(1.22624 0.144204 -7.36e-21)
(0.837025 0.0279531 -2.58992e-20)
(1.23161 -0.0180371 4.62199e-21)
(1.12225 0.24966 3.40784e-21)
(0.974992 -0.0301631 -1.53328e-22)
(1.26611 0.234038 1.35543e-20)
(1.26928 0.256614 4.23419e-21)
(1.27292 -0.206582 1.10021e-21)
(0.951329 -0.0135219 -5.71847e-23)
(0.932274 -0.0241903 7.98526e-23)
(1.35465 0.00657182 -5.3354e-23)
(1.01511 -0.0586423 3.01669e-22)
(1.26052 -0.106902 -1.55532e-21)
(0.957858 -0.0513525 7.198e-23)
(0.933458 -0.0489322 -4.80213e-22)
(1.08001 0.213009 2.69357e-20)
(0.990675 -0.00270497 -7.63197e-23)
(1.03352 -0.080316 -2.74283e-22)
(1.0395 0.237374 1.31197e-20)
(1.33668 -0.0725097 -9.17952e-21)
(0.833275 0.215603 6.9705e-21)
(1.01784 -0.116925 -9.80301e-22)
(1.09409 0.0250398 8.78226e-21)
(1.29656 -0.161493 5.27727e-21)
(0.996561 -0.0952257 2.74861e-22)
(0.956818 0.015859 -7.41238e-21)
(0.979615 0.00100995 4.7436e-20)
(0.979688 0.0629576 -7.97196e-21)
(0.990244 -0.0444275 -4.2248e-22)
(0.862981 0.0359905 2.72198e-20)
(0.95122 -0.0437044 1.97707e-22)
(0.93443 0.188539 1.0845e-21)
(1.16688 -0.106416 7.81026e-22)
(0.970287 0.114333 -4.44061e-21)
(0.974161 -0.0624497 2.46543e-22)
(1.00003 -0.000301481 -4.26875e-25)
(0.970387 0.0987943 1.49384e-20)
(0.928147 0.167569 1.77363e-20)
(0.94234 0.207058 -2.83805e-20)
(0.973706 0.0822545 -1.73886e-20)
(1.1524 0.00934787 -2.73239e-20)
(1.20367 -0.0478551 8.01427e-23)
(1.18829 0.136901 -1.98575e-20)
(1.04616 -0.179358 1.32421e-21)
(0.993507 0.0309248 5.26423e-20)
(1.06171 0.132495 -2.34175e-20)
(1.3167 -0.119718 -8.38586e-21)
(1.12855 -0.0207632 -4.36337e-22)
(0.985378 -0.00365699 -6.43125e-23)
(1.33024 -0.138171 -1.27982e-21)
(1.1001 0.215756 -4.27136e-21)
(0.936267 -0.0370577 4.90908e-24)
(0.967349 -0.00494128 2.88842e-22)
(0.985717 0.00840813 -1.05771e-20)
(0.957357 0.123874 -3.24219e-20)
(0.983718 -0.0719507 -4.92974e-22)
(0.978437 0.135039 2.33137e-20)
(1.0242 -0.193762 1.15246e-21)
(1.34266 -0.0377309 2.86677e-21)
(0.99421 -0.000286815 2.9744e-22)
(0.942963 0.134173 -1.83491e-20)
(0.92587 0.146762 4.72447e-20)
(0.772687 0.0830155 4.88287e-20)
(0.962007 0.247806 3.7747e-20)
(0.997043 -0.000351694 4.0728e-23)
(0.975082 -0.032884 1.01239e-22)
(0.998176 -0.00146852 1.87219e-23)
(0.991355 -0.0995854 -2.09271e-21)
(0.839571 0.161572 -1.00796e-20)
(1.29148 0.0733195 -9.42673e-21)
(1.1323 0.230262 -2.94621e-22)
(0.934329 -0.0467149 2.82988e-22)
(1.10872 0.0792133 2.15121e-20)
(1.04816 -0.0510113 6.22407e-22)
(0.835111 0.18917 1.44678e-20)
(1.11154 -0.144166 -1.02431e-21)
(0.992245 0.0109391 1.80504e-20)
(0.994362 -0.000286797 1.69801e-22)
(0.863152 0.151965 -3.27782e-20)
(0.811459 0.201122 -4.06607e-20)
(0.972645 -0.0343908 -2.84042e-22)
(1.30255 -0.0266528 1.27047e-22)
(0.869301 0.126157 -3.27316e-20)
(0.996332 -0.000547746 -2.07883e-22)
(0.808404 0.0850268 -5.39785e-21)
(1.05946 -0.101552 3.8875e-22)
(0.996592 -0.000353831 7.50455e-23)
(0.94888 -0.0150499 3.45299e-23)
(1.0649 0.239955 -1.64563e-20)
(1.30612 0.0315458 -3.50565e-21)
(1.00506 -0.136192 1.52052e-21)
(1.00252 0.244099 1.47898e-21)
(0.795278 0.228955 2.73932e-21)
(1.26138 0.247893 -1.48552e-20)
(1.07825 -0.0158196 3.16432e-23)
(0.995189 -0.0884553 4.23302e-22)
(1.2037 -0.116039 1.60921e-21)
(0.959937 0.141043 2.66272e-20)
(0.827648 0.0863405 -3.09258e-21)
(0.764278 0.0789096 3.15805e-21)
(1.27662 0.0621716 1.61087e-21)
(1.00028 -0.0132834 3.33335e-23)
(0.977208 -0.00182929 -1.15747e-22)
(1.10967 0.221072 -1.51165e-20)
(1.00224 -0.0103078 2.80057e-23)
(0.981294 -0.00580715 1.81917e-24)
(1.00358 -0.0163633 -2.26917e-23)
(0.990406 -0.0386692 -2.06541e-22)
(1.10379 -0.203905 2.81718e-21)
(1.20985 -0.217669 -1.97467e-21)
(0.902433 0.205363 -4.20307e-20)
(1.02473 -0.0657771 2.62861e-23)
(0.998628 -0.00118103 -1.45785e-23)
(1.07857 0.135308 -4.02167e-22)
(1.33589 0.0607564 2.8092e-21)
(1.00203 -0.0165166 -3.89849e-23)
(1.34223 -0.0104801 9.30266e-22)
(1.00229 -0.00170529 5.51528e-24)
(1.27777 0.0247523 6.27777e-22)
(1.03517 0.0757627 2.55291e-20)
(0.972312 0.129157 -4.52339e-20)
(1.17154 -0.219234 2.20283e-21)
(1.28849 -0.0118961 -1.27394e-21)
(0.99116 -0.0178099 -2.57988e-23)
(1.1526 -0.150992 4.19189e-22)
(0.994113 -0.00190106 8.61639e-24)
(0.950697 0.160779 -4.71686e-20)
(0.897842 0.199109 1.28337e-20)
(1.23869 -0.22806 2.03364e-21)
(1.19895 -0.233532 1.81471e-21)
(1.1575 -0.234315 5.71727e-21)
(1.03904 -0.117792 9.77744e-22)
(0.99032 0.234423 3.08766e-21)
(1.04357 -0.107907 6.73144e-22)
(1.13189 -0.195255 1.05521e-21)
(1.08409 -0.219919 -1.20886e-21)
(1.14648 -0.133921 -1.94904e-21)
(0.79029 0.0842603 2.64081e-20)
(1.15614 -0.253757 -1.04084e-20)
(1.32076 -0.0876782 6.7607e-22)
(0.969694 0.036197 9.26946e-21)
(0.995258 -0.000419709 -1.67436e-22)
(1.28973 -0.0480601 -3.44885e-22)
(1.0477 -0.0974444 -1.1124e-21)
(1.08569 -0.203688 2.10974e-21)
(0.995019 -0.00109589 -1.09124e-23)
(0.999498 -0.00372759 -1.28233e-23)
(0.783656 0.109455 -4.4807e-20)
(1.12524 0.0803157 1.6004e-20)
(1.23263 -0.236096 6.95875e-21)
(1.33718 -0.115784 -2.01923e-21)
(1.15086 0.13773 -8.32595e-21)
(0.986895 0.131616 -3.55045e-21)
(1.06947 0.139306 6.98965e-21)
(1.26827 -0.166896 -4.81733e-21)
(0.974886 -0.0704417 6.08871e-22)
(0.990116 -0.0601069 -2.9104e-22)
(0.979759 -0.0636904 -7.68854e-23)
(1.09743 0.135221 -2.24472e-20)
(0.966369 -0.00628622 -2.2909e-22)
(1.00146 -0.0905711 6.72976e-22)
(0.99971 -4.58246e-05 -3.89975e-24)
(0.960923 -0.0247819 -1.71439e-22)
(0.997422 -0.000649416 -3.13197e-24)
(1.12858 -0.214972 2.23312e-21)
(1.04765 0.236635 -1.55599e-20)
(1.05824 -0.184968 7.79247e-22)
(0.963847 0.205711 1.81085e-21)
(0.983124 0.203361 -4.16821e-20)
(0.952592 -0.0568689 -5.0455e-23)
(0.980164 -0.0377773 3.65478e-23)