/*--------------------------------*- C++ -*----------------------------------*\
  =========                 |
  \\      /  F ield         | OpenFOAM: The Open Source CFD Toolbox
   \\    /   O peration     | Website:  https://openfoam.org
    \\  /    A nd           | Version:  7
     \\/     M anipulation  |
\*---------------------------------------------------------------------------*/
FoamFile
{
    version     2.0;
    format      ascii;
    class       volScalarField;
    location    "15";
    object      p;
}
// * * * * * * * * * * * * * * * * * * * * * * * * * * * * * * * * * * * * * //

dimensions      [0 2 -2 0 0 0 0];

internalField   nonuniform List<scalar> 
7807
(
0.421379
0.0299374
0.582546
0.394246
-0.00227867
-9.25249e-05
0.582498
-0.0143056
-0.000298456
0.178272
-8.71301e-05
0.0064806
-0.0214391
0.0937356
0.184591
-0.0271636
0.432669
-0.028131
0.00347855
-0.118282
0.128353
0.00426945
0.0700372
0.318415
-0.0366104
0.431966
-0.00209693
0.11383
0.271493
0.00740499
-0.038082
0.848536
0.0691812
-0.00127967
-0.000269886
0.148485
0.0083256
0.56582
-0.0118233
-0.000888047
-0.0107103
-0.0262757
-0.108857
0.00859362
-0.000525617
-0.00021012
0.00421257
-0.0120687
-0.000172436
-0.11452
0.00966274
0.108132
-0.046322
-0.00041133
0.147485
-0.0127123
0.00378119
-0.0143462
-0.0590037
-0.00133989
0.000119944
0.0123498
0.0940042
0.00713883
-0.00260735
-0.0371067
-0.000239106
1.31444e-05
0.203167
-0.0112563
-0.000192269
-0.0982226
-0.0353418
-0.0605678
-0.0271328
-0.084584
0.574535
0.125289
0.134588
-0.112101
-0.020546
0.525065
0.17776
-0.0629294
-0.00383088
-0.00612715
-0.0152963
-0.0448842
-0.00173063
-0.0120179
0.277799
0.0122264
-0.000345877
0.00358181
-0.00956068
-0.0620838
-0.0933495
0.00508096
-0.00423796
-0.00311725
-0.105059
0.146614
-0.00907422
-4.9021e-05
0.0282095
0.288316
0.740153
-0.0135064
-1.29108e-06
0.0676244
0.375507
-0.059847
-3.26623e-06
0.0718882
0.287814
0.00128137
-0.057121
0.236788
-0.0687795
-0.0617405
-0.109342
0.503776
-0.10015
0.0275796
-0.106576
-0.00257195
-0.0339972
0.00578724
-0.00274919
-0.0379274
-0.0414391
0.132711
-0.00160698
-0.00204739
-0.065214
0.364847
0.609903
-4.21085e-05
0.021355
-0.137826
-0.0573462
-0.0793128
-0.0850119
-0.0579987
0.748233
-0.0244315
0.274199
-0.0566526
-0.0799069
0.502227
0.141842
0.019699
-0.00396053
0.17871
0.176572
0.5312
-0.0963846
-0.0213631
0.704226
-0.000155731
0.00195902
0.328846
-4.45653e-05
-0.00543045
-0.0107879
0.398916
0.399971
0.727116
-0.00622121
-0.00832535
1.49462e-05
-0.11364
0.00126329
0.0403664
0.023158
-0.0786921
0.053545
0.271763
-0.00034254
-0.00132593
0.401906
-0.000155292
-0.000290804
0.585752
0.023786
-0.0546989
-0.0644443
-0.0568292
-0.0308958
-0.134821
-4.93698e-05
-0.0898537
0.28167
-0.00915064
0.000213259
0.329152
-0.00337805
-0.0356163
-0.0309381
1.71933e-05
0.00264377
0.372151
0.318366
0.532202
-0.0493691
-0.050681
-0.101726
0.123261
0.366278
-0.000564067
0.000106253
0.706443
-0.0232381
-0.00167763
-0.0856342
-0.0356131
0.490524
0.498929
-0.0865714
0.807388
-0.00312944
-0.0277681
-0.107849
0.149857
-0.133687
0.381652
0.705383
0.000191031
0.0288146
0.250107
-0.0111956
0.232736
-0.00146195
0.773203
0.521007
-0.0152255
0.00816074
-0.000823325
0.279777
-0.000247108
-0.0167208
-0.128786
-0.000191632
-0.00364081
-0.00115148
0.274091
-4.40709e-05
-0.0124909
-0.108597
0.84687
0.120265
0.752246
-0.000115579
-0.0360199
-0.000497419
0.551466
0.0119034
0.611961
0.00451634
0.00226386
0.024575
0.12824
0.00171471
-0.000614936
0.0015285
-0.0117848
-0.051031
-0.000107679
-0.0931768
-0.0102673
-0.000379802
-0.00174565
0.5874
-0.021369
-0.00213185
0.804155
-0.00402768
0.403117
-0.000557443
0.00450786
2.4018e-05
-0.0624433
0.144034
0.0676227
-0.0592821
-0.00112466
-0.104628
-0.0419719
-0.000486279
0.00148265
-0.00600871
-0.0205529
0.00865944
-0.00339393
-0.0601271
-0.0416127
-0.0594149
0.0247068
-0.0751482
0.519168
0.53568
-0.00419828
0.0363211
-1.79681e-05
-0.00647642
-0.0628431
0.310616
0.196542
0.000292668
-0.00593992
-0.0730488
0.281435
-0.00277941
0.0105784
0.00363508
0.143181
-0.0615243
0.501981
-0.00449507
0.0323077
-0.000306212
0.012244
-0.000138303
-0.04525
-0.000950954
0.0158751
0.00758001
-0.0730066
0.00829913
0.0258394
-0.00205948
0.061046
-0.0187318
0.163012
0.276668
-0.128217
-0.00422122
-0.0432608
0.0151435
-0.12512
0.741965
0.000776252
0.0867558
0.791979
-0.00433081
-0.00491705
0.0043866
-0.00299704
-0.0190019
0.0186017
-0.00787748
-0.00584273
0.263832
-0.000172904
0.00164485
0.000237744
-0.00962942
-0.0192859
-2.17383e-05
-0.00309474
-0.0565305
0.702199
0.0106731
-0.022838
0.663278
0.449673
0.140913
0.0507975
-0.115191
0.0145813
0.387465
-0.0303335
0.447945
-0.037104
-0.10665
0.320158
0.451561
-0.0883018
0.186408
0.38008
0.417464
0.12114
-0.00860809
-0.0118999
-0.000237259
0.0145229
-0.0309875
0.00298369
-0.000289596
-0.00453251
-0.105937
0.18775
-0.0453441
-0.00662131
-0.0107216
0.0264205
-0.0196128
0.00551428
0.346064
-0.00529828
-5.23099e-05
-0.000135466
0.000156496
-0.0547416
0.256778
-0.0113044
0.0789543
-0.140127
0.555743
0.0098623
0.0196975
-0.0144238
0.570013
-0.00298615
0.497998
0.279339
-0.000316665
-0.0416899
-0.00932674
-0.0748377
0.00168926
0.151615
0.0111532
0.0183177
-0.00240526
0.256422
0.284632
-0.0638169
-0.0562854
-0.00637019
-0.0359649
0.171861
0.835103
-0.0353919
0.0135703
-1.73377e-06
-0.0356343
-0.00641565
0.0559362
-0.119334
0.0183406
0.589872
0.264801
-0.0844139
0.342924
0.558717
0.0761118
0.00363089
0.405085
-0.00249994
-0.000501671
-0.0464171
0.00026627
-0.11466
0.000911901
-0.0570274
0.00566968
0.333942
-0.00501742
-5.91935e-05
-0.117528
0.00512874
0.103666
-0.101107
-0.134303
0.0967228
0.25178
0.209753
0.214871
-0.000566007
0.177814
0.174563
-0.001473
-0.0436773
0.00180725
0.0189631
-0.00257247
0.0138706
-0.0021815
0.269202
-4.87302e-05
0.000598033
0.00580587
-0.056556
0.0590933
-0.054362
-0.0666921
-0.0486886
-0.137522
0.0288357
0.394551
0.0250539
-0.0183765
0.782137
-0.0906626
-0.0202807
-0.0660682
-0.0151514
-0.053323
-0.0274437
0.0800014
-0.00623231
-6.3776e-05
0.0700124
-0.000260537
0.519979
0.215996
-0.0135079
-0.0370996
-0.000518668
0.526556
0.481167
0.15447
0.291538
-0.0955526
0.627492
-0.000160602
0.0630322
-0.0472748
0.278731
0.730325
0.154366
0.25337
-0.00446889
-0.000562923
0.269008
-0.019634
0.548098
0.104426
0.349342
-0.0193409
0.56533
0.46199
-0.0244671
-0.0207297
0.237555
-0.137306
-0.000220853
-0.0341558
-0.131236
-0.0946736
0.031765
0.0265315
-0.000332996
0.485352
-0.00242536
-0.000279065
-0.0348065
-0.00137012
-0.000617624
0.0105009
0.356163
-0.105996
0.686632
0.000192515
0.353798
-0.0295888
-0.000193284
5.76449e-05
0.268243
0.342923
-0.0111399
0.313615
8.26938e-05
0.328891
-0.125679
-0.0255855
0.582641
-0.0821974
0.278547
-0.0633278
0.327249
0.340387
-0.0421502
-0.0533345
-0.0158407
-0.00781429
-0.000549606
-0.00285575
0.427711
-6.8144e-05
0.316181
-0.096744
0.483255
0.302093
-0.13444
0.669376
-0.00439087
0.0182307
-0.0410646
-0.0510439
-0.0174848
-0.0359362
0.0895408
0.768932
0.000134203
-0.00518711
-0.0603784
1.97297e-05
0.528372
0.00521791
1.94969e-05
0.000575213
0.00111099
-0.0433568
0.0539512
-0.00417542
-0.000231136
-0.0185198
0.00793322
-0.134416
-0.123576
0.0596396
-5.58695e-05
-0.142143
-0.0333708
0.242971
0.475062
0.00338285
0.246564
0.000456277
-0.032011
0.162505
-0.0174956
0.38008
-0.0327196
0.0700046
0.168287
0.262018
0.0136613
-0.0261977
0.308715
-0.112275
0.560558
-0.0235418
0.419078
-0.0234617
-0.00312023
0.242076
0.00838189
0.163816
0.00538968
1.6952e-05
-0.143526
0.337914
0.0041348
0.234433
-0.0310492
-0.148
0.0277113
-0.0563004
-0.0044985
-0.0223114
-0.104097
-0.0679784
-0.0247128
-0.000382838
0.58702
0.237265
0.0788295
-0.000524559
0.45842
1.83431e-05
-0.000481038
0.247984
0.00716532
0.30506
0.112478
0.0471177
-0.0115438
-0.125486
0.0898355
0.00370304
-0.0983596
-4.02748e-05
0.0108709
0.367696
-0.0401595
-0.00749909
-0.0113791
-0.00526347
-0.00107744
0.789123
-0.0248823
-0.00147402
-1.39004e-05
0.228912
-0.0698109
-0.000866973
-0.0074166
0.262874
0.170728
-0.0874533
8.63703e-06
0.284808
-0.0391114
0.319482
0.0441044
0.0538846
-0.0716905
-0.00024575
0.164351
0.159741
0.127349
-0.0850544
0.426011
0.0167343
0.304003
-0.00599974
-0.0351603
-0.00104775
-0.00213206
-0.000264657
0.270205
0.396813
-0.00396874
0.0524143
-0.0426773
-0.0634349
-0.0758353
-0.00499356
0.0582276
0.761277
0.101548
-0.000128968
0.167079
-0.00970755
0.6598
-0.0308708
-0.0267344
0.00144166
-0.0309501
-0.0157048
-0.0197093
-0.00819781
0.00442907
0.0792842
0.000311089
-0.09507
0.0566961
0.510304
-0.0839819
0.311406
0.00569215
-0.031845
-0.024929
0.327587
-0.0185603
0.000316735
-0.0380687
-0.0136942
0.0619196
-0.0647918
-0.0555547
0.0344986
-0.0362789
-0.00626303
-0.099845
1.82265e-05
0.102618
-0.0876006
0.278754
-0.0254406
0.162347
-0.0950398
0.472755
0.0264332
-0.0740691
-0.0234802
0.693641
-0.0795244
-0.0323343
-0.128299
-0.0415137
-0.109001
-0.0549051
0.295337
-0.00745006
0.37822
0.0237928
-0.00103395
-0.00320724
0.148667
0.853097
0.00321702
-0.0287668
0.274484
6.89178e-05
-0.050987
0.0722781
0.0363489
0.0241197
-0.00431797
-0.0622813
-0.00777998
8.86876e-05
-0.0780075
0.392087
0.0133907
-0.0410605
0.00523736
0.274669
-0.00100293
-0.00333396
-0.00095587
-0.00205134
0.145244
0.0168127
0.0099881
-0.0440245
0.000138496
-0.108598
-0.000710864
-0.124935
-0.0326348
0.0400596
-0.000558886
-0.0313418
-0.106129
0.119337
0.485977
-0.00333208
-0.118163
-0.0126731
0.0302335
0.26764
0.00122815
-0.000404623
0.250015
0.0964722
0.0415572
-0.00796898
-0.00559702
-0.0966846
-0.000456434
0.00607727
-0.0331883
0.425498
0.392972
-0.0241732
-0.0831294
0.0197709
0.0151468
0.0750506
-0.0947153
-0.0158393
9.55981e-07
0.0617946
-0.0604661
-0.104418
0.0174584
-0.0949097
-0.00106555
-0.00803885
0.304019
-0.068723
-9.87375e-06
-0.0075942
-0.062126
-0.000435455
-0.0207414
-0.000118815
0.011929
-0.130145
-0.0276193
-4.06005e-05
9.28287e-05
0.201292
-0.0637415
0.529617
0.405122
0.0504943
-0.0015353
-0.019274
0.000619508
-0.0530265
-0.0954408
0.0741612
-0.0398666
0.397752
0.0249038
0.000770758
0.0185052
-0.105992
0.00538999
-0.0260887
-0.102532
0.00898224
0.0437915
0.120605
0.0250428
-0.0542031
-0.0491893
0.285088
-0.0316029
-4.79421e-07
-0.107058
-0.114101
-0.0376023
0.0127308
0.00209374
0.0250002
-0.124022
0.0640773
-0.0651725
0.23794
-0.0432204
0.0171942
0.0388181
0.039449
-0.0662993
-0.0692743
-0.000255692
0.226636
0.309348
0.0156477
0.34326
-0.0858231
0.0863881
-0.0625098
0.298943
0.166681
0.754759
1.41475e-05
0.177322
0.273669
0.0290737
-0.00304758
-0.0345753
0.0446986
0.000131032
-0.0343665
-0.0735479
-0.0378812
-0.0415961
0.000370107
-0.0318171
-0.000750722
-0.00181077
0.347115
0.0142421
0.180123
0.0414099
0.304865
0.0248475
-0.000792109
-0.0789711
0.0175855
0.50644
0.00268457
-0.078484
-0.000437678
-0.00112221
0.0166912
-0.0490591
-5.49911e-05
-0.0206608
0.0581435
-0.00399472
9.35335e-05
-7.95479e-05
0.232199
0.000624874
0.0142031
-0.00227509
0.0179834
0.0306821
0.0180758
-0.000579178
0.495187
-0.0610586
0.323532
0.438829
-0.000422476
0.165902
0.193365
-0.00157052
-0.000530503
-0.000853504
0.041925
0.0377425
-0.0141537
-0.0306139
-0.102107
0.260112
-0.0937163
2.95548e-05
-0.036385
-0.0335015
-0.0667663
-0.00868886
0.0124509
0.00260847
0.0541793
-0.00104229
-0.000453547
-0.0323402
-0.00859513
-0.0465918
-2.89595e-05
-0.0278535
0.065038
0.0110261
-0.0106206
-0.0164265
-0.0221645
-0.0173412
-0.0103778
0.0245793
-0.0179277
-0.000202079
-0.000797084
0.0466299
-0.0230767
-0.00983618
0.0172842
0.00731339
-0.152544
-0.0209056
0.237497
-0.0237703
-0.0934824
-0.0431083
-0.0423966
-0.0292741
-0.00748448
0.00463984
-0.00701228
-0.0262403
-0.0302895
0.296979
0.242844
0.100849
0.4729
-0.000138594
-0.00633667
-0.0309045
-0.0153811
0.180878
-0.0379563
0.102147
-0.00824345
0.322769
-0.00383327
-0.00320335
0.0419514
-0.0254666
-0.000426582
-0.0360214
-0.0116945
-0.0391206
-3.51341e-05
-0.013148
0.00407802
-0.0327888
0.0728994
0.0652974
0.0362455
-0.0262997
-0.058645
0.183132
-0.00250653
-0.00389737
-0.00419303
0.657695
-0.000156281
0.135067
-0.0398816
-0.0382438
-0.049553
-0.0708852
-0.0537022
-0.0637087
-0.0339754
-0.00911255
-0.000185107
-0.00847407
-0.0406663
0.162778
0.00345448
0.268522
-0.06123
-0.0248502
-0.00182116
-0.0537515
-0.00019617
0.226696
-0.0562026
-0.0488182
-0.0444653
-0.00746184
-0.0597912
-0.00335125
-0.0755038
0.16474
-0.0482416
-0.108535
-0.00289432
-0.0504377
-0.0345086
0.0295146
-0.00640092
0.218181
-0.00476429
-0.0358959
-0.00131731
0.241968
-0.0724212
-0.0494574
-0.00644004
-0.0184666
-0.00544394
0.300366
0.0475754
0.332011
-0.00933327
-0.00160155
-0.00249033
-0.00458703
0.299268
-0.110297
-0.0134213
0.000706894
-0.0124945
-0.0100754
-0.0017525
-0.0203748
-0.0293828
0.0997318
-0.00981234
0.0114437
0.646637
-0.113404
-0.053997
-0.105799
7.98253e-05
0.12749
-0.00701896
-0.050321
-0.0110694
-0.0663959
0.00906826
-0.00103983
-0.00574327
0.00653822
0.293924
-0.0115729
-0.00352549
-0.00918466
-0.0937621
-0.0163659
-0.0416711
0.00890905
-0.0171475
-0.017649
-0.00648378
0.301203
-0.0854422
0.00647247
-0.00836657
-0.0516409
-0.0272136
-0.0917989
-0.00275404
0.152064
0.0444743
-0.0154329
-0.00340075
-0.026238
0.675461
0.295692
-0.0220137
-0.00113132
-0.00471041
0.0159169
-0.00785846
0.0403942
-0.000800865
-0.0253624
-0.00390571
-0.0326479
-0.00900085
-0.00207245
-0.019812
-0.0026725
0.445761
-0.0126252
-0.0228076
0.0196674
-0.00380528
-0.0561646
0.164232
0.603297
-0.0209178
-0.0221253
-0.00418113
-0.000894503
1.00716e-05
-6.50322e-06
-0.0197432
-0.00129538
0.207967
-0.00130616
-0.00358423
0.0164768
-0.000495065
-0.0822263
-0.087071
0.0329191
0.0713907
0.0489281
0.140503
-0.0475994
0.149514
0.117769
0.155967
0.192196
-0.025183
-0.00169521
-0.0111116
-0.0974408
-0.00695531
-0.029019
0.11585
0.470596
-0.0761433
-0.000941079
-4.18922e-05
-0.00289174
3.92899e-06
0.0193907
-0.0010776
-0.00881019
-0.0884004
0.00111647
0.0053443
-0.000415223
0.128066
-0.0298183
-0.0249492
-0.00235967
0.451564
0.415852
-0.0195584
-0.0854572
-0.0523826
-0.0458112
-0.02778
-0.00368711
-0.111125
-0.0466139
-0.0765929
-0.00987793
-7.8908e-05
0.294462
-0.0145266
-0.0188556
-0.0415138
0.0363196
-0.00103455
-0.0163325
-0.00268423
0.0278324
-0.0029527
0.274721
0.000728129
0.0196185
-0.000803384
-0.0524997
0.0174685
-0.00146224
0.0316308
0.000848969
0.096
0.198913
0.00453841
-0.00283884
-0.00023487
-0.00111629
-0.000983813
-0.111751
0.195561
0.079286
-0.000516304
0.0195729
-0.000885933
0.330112
-0.109396
0.373649
-0.0793738
-0.000876438
-0.000544518
-0.0142752
-0.0110899
-0.00122403
-3.27629e-05
0.0483235
0.0546016
-0.00045148
-0.000633167
-0.0375568
-3.96804e-05
0.253362
-0.00182922
-0.0964351
-0.036205
-0.0124886
-0.101074
-0.110379
0.230916
-0.0196105
-0.0385294
-0.000611497
-0.103442
-0.039294
0.0663028
0.204548
0.488769
-0.00230298
-0.108288
0.0282799
0.440613
0.0723297
-0.000224052
-0.0118049
-0.00799816
-0.0097127
-0.08798
0.158944
0.000385295
0.0430427
0.00618898
0.14555
-0.00101531
-0.000220463
-0.0521071
0.407978
-0.0997334
0.243174
-0.00241445
-0.000382122
-4.15509e-06
-0.096686
-0.0768714
-0.000652667
0.187746
0.0217178
-0.0104635
0.557593
-0.000748424
-0.00722026
-0.106518
-0.0247642
-0.00447811
0.209201
-0.0749665
-0.000315049
0.0284544
-0.000324789
-0.000185515
0.226337
0.0109184
-0.000878678
-0.0943887
-0.0462392
-0.00686583
-0.0298059
0.00479883
-0.0430601
0.00337393
-0.00684791
-0.117182
-0.0698923
0.045421
-0.00175698
0.245603
0.3049
-0.0922107
0.0198369
0.0366738
-0.00839044
0.250993
0.187336
-0.0524698
-0.00030465
0.0199472
-0.100961
0.0285583
-0.0513064
-0.00411144
0.0905329
-0.0514156
-0.000258902
-0.000130766
-0.035397
-0.0448915
-0.0487102
0.0193816
0.0558669
-0.0804501
-0.000281702
-0.00270032
-0.000391356
-0.0578928
-4.15555e-05
-0.00378565
-0.060394
-0.120056
0.216211
-0.00582896
0.0082677
-0.039711
-0.0476624
-0.000239404
-0.0848731
0.214261
0.239142
5.22213e-05
-0.000209058
0.243121
-0.00491225
-0.116072
-0.0742928
0.00669729
0.000994924
-0.125112
-0.00420578
0.248455
-0.103294
-0.00287904
-0.0155353
-0.0923403
-0.00111508
-0.000459843
-0.00176709
0.021638
-0.0934852
0.24679
-0.000398935
0.672306
0.040361
0.000251959
-0.00186444
0.000522914
0.000596418
-2.23687e-05
0.000292435
-0.0967374
-0.00139465
0.000881792
-0.000376134
0.217171
-0.0111758
-0.000365584
-7.279e-05
0.504371
-0.0402948
-0.00571063
0.00232445
-0.00139093
0.112499
-0.000178282
-0.0220477
-0.0918309
0.00435978
-0.012153
-0.000179067
-0.000386189
-0.0564908
-0.0836756
0.0141721
-0.093185
-0.0536332
-4.98689e-05
0.0401322
0.0596511
0.174103
-0.00336091
-0.000294103
-0.10198
-0.011891
-0.000954287
-0.0900749
-0.000256596
0.0814614
-0.000152813
-0.0024845
0.0775945
-0.00402694
-0.106559
0.621025
-0.00317441
0.000566128
-0.0953403
-0.0850748
0.0183052
0.00927889
-0.000284891
-0.0580169
-0.000152418
0.290548
0.806437
0.161541
0.0060364
0.00716541
-3.04568e-05
-0.0513586
-9.89117e-05
-0.0120681
-0.00330476
0.000758483
-0.00655851
-0.0178199
-0.00023007
0.00175568
-0.0144327
-0.000598408
-0.0185221
-0.0309589
-0.00195278
-0.00217857
0.726148
-0.00131953
0.00486531
0.000502411
0.0266623
-0.0909785
0.018841
-0.000330707
-0.000185541
0.00533678
-0.000201108
-4.32218e-05
-0.021439
0.00140245
-4.23714e-05
-0.0928979
-0.00428522
-0.103013
-0.00319424
-0.000125119
-0.0060949
-0.00746118
-0.0279791
-0.0380305
0.0046133
0.00105494
-0.000891907
-0.00383496
-0.000140515
0.398829
0.00311501
-3.36721e-05
0.00119535
-0.00392091
-0.000670697
-0.116249
-0.0998182
-0.000234326
-0.0135327
3.27112e-05
-0.00492298
-0.000134679
0.0645026
-0.000259631
-0.000344795
-0.00664128
-3.61842e-05
0.0260603
-0.000421595
-0.00244954
0.0357635
3.06753e-05
0.521766
-0.097373
-0.0762622
-4.13539e-05
-3.67242e-05
0.00383091
-0.00229635
-0.0906904
-2.88029e-05
-8.93686e-07
0.0015034
-5.28384e-06
0.000770456
0.000910476
-0.000876433
0.00158133
-0.0961933
0.639469
-0.0564724
0.477375
0.0176177
-0.0305724
-3.08805e-05
-0.00169558
-0.0232871
0.000302556
0.000581407
0.000352991
0.138892
-0.00255213
-0.000401416
0.653141
-0.00103309
0.00119234
0.00101817
-7.88247e-06
0.133597
-0.00418954
0.00227114
0.000264083
-0.000984954
-0.000125482
-0.00173467
-0.0801388
-0.000793954
-0.00298969
-2.82989e-06
-1.15137e-05
-0.00048697
0.285288
-0.000841483
-0.000500743
-0.12706
0.00742079
-0.000143986
-0.00257829
-0.000111788
0.263147
-0.132716
-0.000541118
-0.000736699
-0.00349477
-0.000277665
0.105245
0.193923
0.0900252
0.00103934
-1.16152e-05
-1.60689e-06
0.112345
0.00052066
-0.111724
-0.037397
-0.0297305
0.06532
0.72772
0.00390687
0.308
-0.0274664
-0.0539638
0.267287
-0.000676548
-0.11971
-2.043e-05
-0.0171744
-0.0906857
0.000119037
-0.0830213
-0.00182465
-0.000340587
-0.0100967
-0.0792152
-0.078095
-0.00578708
-0.108866
-0.0816532
-0.000349385
-0.0232188
-8.14553e-05
-0.0695346
-4.91917e-05
-0.000347216
0.0472986
0.254712
2.42472e-07
-0.0832495
0.00705886
0.000164837
-0.0381884
1.57927e-05
-0.0261717
-0.000481616
-0.0714279
0.000263973
-0.000156672
-0.00386346
-6.9529e-05
0.249236
-0.0565167
0.156678
-4.35264e-05
0.00126316
-0.0606213
2.35368e-06
-0.104444
-0.121595
-0.102478
0.678644
-0.0123856
-2.99376e-05
0.0495434
-0.0771124
-0.00472867
-2.70007e-05
-0.000154628
-0.0872446
0.000268578
0.00175174
-2.5667e-07
0.000334469
-0.0524848
0.230904
-0.0720251
0.17323
-0.0102137
-2.14457e-06
0.0131102
-0.0859971
-3.65909e-05
-2.26514e-05
0.000654691
0.000138449
0.000822218
0.367015
0.0661398
0.000121646
2.68132e-05
-0.121946
0.306146
0.277384
-7.90355e-05
-0.0670242
-0.0350118
-0.0189942
-0.0885787
-0.0155821
-0.00555623
0.224098
-6.66639e-05
-0.0490979
0.263071
-0.0897817
-1.9668e-05
-0.113367
-0.00032167
0.435043
0.0553655
-1.0214e-05
-4.45769e-05
0.290931
8.45718e-06
-0.000327833
-0.0223832
3.43094e-05
0.376655
0.0068861
-0.0140136
-0.119515
-0.00717231
-0.119295
0.283523
-0.0145947
-0.00313794
0.00197303
-2.99166e-05
-0.0019254
-2.81994e-06
-2.21679e-05
0.0556281
0.278593
0.236431
-0.000822969
0.363476
-0.0190871
1.99727e-05
-0.084657
-2.16029e-05
-0.0516198
0.0570049
-0.0263388
0.0087205
0.00368649
-0.0177064
0.000515062
-0.00316614
0.0394561
-0.00548336
-7.61148e-05
6.50476e-05
-0.00011004
0.0583418
0.000122024
-0.0392034
0.382154
-0.0113699
0.000109673
-0.00658587
-9.50737e-06
0.172599
-0.000663898
-0.000116742
-0.000153436
-1.99065e-05
0.31847
-0.000268814
0.362644
-0.111239
0.000236338
-0.0926996
-0.000888171
0.245739
0.668139
-0.00266115
5.47721e-06
4.00765e-05
-3.3703e-05
0.236293
1.69847e-06
0.00208454
-0.0454336
0.344655
1.67526e-05
3.70221e-05
6.46308e-06
5.47968e-05
-0.0383654
4.22297e-06
0.410416
-0.0291602
-0.000226236
6.43823e-05
-0.00390253
-0.0539805
3.18385e-06
-0.000100736
0.258103
7.33388e-05
-0.0590244
-0.0665262
0.000276949
1.99279e-06
-0.133293
2.84477e-06
0.262579
3.22178e-05
-0.000830142
2.74376e-05
-0.000320509
0.155574
9.00052e-06
-0.00308729
2.22188e-05
0.0272571
-0.00640482
-0.0121431
0.00207177
0.241706
-0.000481407
-0.000140884
-0.0167789
-0.0162039
-0.00045057
-7.90556e-05
-0.00167701
9.0285e-05
0.299125
-0.0189375
0.662328
2.47848e-06
-0.0144424
-0.000272862
0.225081
0.000124697
-0.0483
5.14931e-05
-0.00297969
-0.0616701
-0.000423247
-0.0293718
-0.0906706
0.00997518
-5.71523e-06
-0.0939559
-0.000614491
-0.000527235
-0.010477
-0.0203283
0.00256304
-7.22228e-05
-0.000809411
-0.00164882
-0.00240594
3.33856e-05
-0.00227597
0.648571
0.000205863
-0.00616262
-0.0643688
-0.134759
-0.115909
-0.0882473
-0.0403083
-0.000948946
-0.0246036
0.000165167
-0.000143879
0.64998
-0.000168911
0.290471
-0.00083546
0.000801298
-0.00213231
-0.0723795
-0.000776105
0.0015322
-2.11203e-05
-0.000728953
-1.38106e-05
-0.000141257
-0.028075
-0.000192099
-3.15197e-05
-0.000148224
0.000308436
-1.04336e-05
-0.0775762
0.372771
-1.49503e-05
-0.00111889
8.47984e-05
6.78742e-05
-0.0015621
2.1862e-05
-0.00169339
0.000575587
-0.000678554
-0.117842
-0.00128661
-0.00342016
1.24735e-05
-0.00284478
0.000675912
-2.54879e-05
-1.3775e-05
2.98571e-05
-0.00148788
0.00107143
-0.0808703
-0.0485589
-0.119226
0.00127992
-0.00335209
0.0148272
-0.120232
-0.000169481
0.0312489
0.0133293
-0.00195375
-0.0220243
-0.103345
0.598248
-0.000780281
-2.36717e-05
0.00177295
0.000108387
3.93901e-05
0.126789
0.00720403
0.145506
-0.0611635
0.581406
-0.000968102
6.35906e-06
0.000311794
-2.75445e-05
-0.00255128
0.251685
0.329553
-4.13738e-06
-0.000303961
-2.28905e-05
0.314616
0.0410693
-0.00897418
2.60164e-05
4.24203e-05
0.0139463
-0.00129623
-0.129213
-0.0308645
5.88666e-05
0.00677766
-0.0555652
-0.000105872
0.00357097
-0.000111668
-0.0840498
-0.00328516
0.238313
3.68177e-05
0.00328163
0.000163901
3.42064e-05
0.000353963
-0.0423213
3.32199e-05
-0.00170718
5.31527e-05
-0.0363629
-0.0836701
-0.00547503
-0.0117415
-0.0160477
0.0174512
-0.0161911
-0.00464012
0.000145262
0.0002221
4.76542e-05
4.12093e-05
-9.92434e-05
0.0173671
-0.100657
0.000977377
-0.0691362
-0.00578588
-0.0835923
0.000185089
5.46894e-06
0.00256782
-0.0189612
4.12437e-05
-0.0703297
-0.02671
0.102861
-0.0673474
5.95503e-05
-0.00644864
0.000397086
-0.0937748
0.211888
3.26129e-05
-0.107073
-0.0398093
-0.00793988
8.60413e-05
-1.20985e-05
0.0585488
-0.0307367
5.7172e-05
-0.0126365
5.98174e-06
0.000439846
0.200752
-1.26142e-05
1.92348e-05
-0.000139838
7.79451e-05
0.00177654
0.000184974
-0.00975871
0.000475627
-0.0231135
0.0021762
-0.000371959
-0.055025
-0.077496
-0.0116389
-2.53044e-05
4.91049e-05
-0.0973537
0.0110518
-0.0863873
6.88171e-05
-0.00958689
-6.29527e-05
5.62796e-05
0.134204
-0.0130126
-0.00519107
8.95199e-06
-0.0321519
0.000108375
-0.12124
6.2426e-05
-0.136967
5.13815e-05
-8.51741e-06
0.000179829
0.00200793
-0.0716527
-0.0333381
-0.123991
4.10626e-05
0.00019923
-0.140419
-0.0393422
-0.0156317
-4.30719e-06
-0.0204263
-0.0882038
-0.141736
1.67126e-05
-9.36063e-06
2.65925e-05
-0.0824458
-0.118929
0.00143324
-0.0203946
-9.29564e-05
0.359446
0.000197133
3.9364e-05
0.000309046
2.52401e-06
-1.01255e-05
-0.0067112
0.000239547
-0.00472505
-0.113526
-0.0241104
-0.106668
9.19545e-05
-8.98769e-05
0.101376
-0.0664424
-0.0087931
0.183571
3.0799e-05
-1.84473e-05
-1.68931e-05
0.216577
0.000354775
2.10116e-05
1.18416e-07
-0.100169
-0.0284626
2.54445e-05
0.000177373
-0.0169517
-0.0118613
0.000855133
0.333844
-0.101929
0.000471474
0.813594
-1.21908e-05
-0.00125229
-0.0149252
-0.142924
2.11993e-05
1.11973e-05
4.75137e-05
0.00922744
-0.0544181
-0.000611947
-0.088486
-0.0142907
6.69492e-05
-6.65731e-06
-0.0186975
0.00333592
0.0174201
-0.0474448
-0.0828816
-0.0704935
0.0477368
-0.0480739
-0.000109784
0.000706353
0.0326328
0.00105995
-0.000118824
0.00151193
7.91515e-05
-0.000147352
-0.0222501
-1.91934e-05
-4.15886e-05
0.075246
-0.0033612
-0.000268404
-5.18012e-05
-3.58993e-06
0.359909
-0.0121471
0.00155813
-0.0501672
0.000461176
0.000404402
0.000348264
-8.21892e-05
0.00095374
-0.0679288
0.0353159
-1.42386e-05
-0.000275866
-0.0735518
-0.0545571
0.084628
-0.000898206
0.00357889
0.033237
1.28115e-05
0.00013188
-0.0782506
4.92992e-05
0.25108
3.56207e-05
0.00802172
0.000339023
0.000453355
-0.128571
-0.0134309
-0.0325025
-0.00445153
5.85455e-05
0.0132282
0.105076
-0.0223639
-0.000235191
0.15571
0.246946
1.08784e-05
-0.0943007
-0.000113007
-1.13659e-05
-7.69734e-05
-0.00103765
0.0365434
9.73236e-06
0.000499617
-0.0449328
-0.0467962
-0.0403722
0.439665
5.18066e-05
-0.000120207
0.25772
-0.00279326
-0.00698074
-0.00119982
0.254682
0.000104426
-0.000541534
0.000110828
7.32068e-05
6.98346e-05
8.0013e-05
0.00015471
-0.0326318
2.78403e-05
-0.00608107
-0.081289
0.361093
-0.000222536
-8.59551e-05
0.00898506
0.141253
-0.0756964
-0.00138656
-0.128646
0.43848
9.40785e-05
0.553037
-4.29693e-06
0.0064143
0.0449318
0.000859846
0.590874
-3.93785e-06
-7.58544e-06
0.00228225
6.91943e-05
-0.00159459
0.00052642
3.44589e-05
-0.00363124
4.24246e-05
-0.000253755
-0.00611219
0.353972
0.0955704
0.040647
-0.0802409
-6.54619e-06
-2.30192e-05
0.00654253
-0.0919989
-1.11338e-05
-0.0854104
-9.18247e-05
0.169351
0.106088
-0.0589084
-0.00249093
-0.0211551
-0.00181806
-0.027265
0.0087104
-0.0131612
0.112228
5.82781e-06
0.383027
0.0927235
-0.00102699
0.319332
-0.0244308
-2.02056e-05
6.08493e-05
0.000142302
-0.000381192
-0.000204487
0.355839
-0.00181076
0.365782
-0.00189958
0.251858
0.335119
0.217184
-0.0129193
-1.48442e-06
0.000146345
-0.0195457
-0.14062
-0.0866797
0.00290008
5.91931e-05
-0.0700848
-0.000526559
3.67481e-05
0.0019744
-0.00197716
-0.00110902
0.0602893
0.00015916
-0.0892991
0.104859
0.000124281
0.000540209
-0.025255
-0.100587
-0.00134661
-0.000951013
4.11797e-05
0.000504161
0.185054
-0.0306318
-0.0853809
0.00254816
0.19076
-0.0705784
8.6129e-05
5.71964e-05
0.0633501
-0.000142351
0.167537
0.00538918
-0.0250652
-0.000694967
0.00318514
-0.0648735
-4.07622e-05
0.000968327
0.0127386
-0.136408
0.257459
-0.11529
-0.0491372
-0.000276812
-7.91306e-05
0.012667
0.000104107
-0.138353
-0.11931
0.00110512
0.00657687
0.00722149
-0.129651
0.00124805
0.00039096
9.33832e-05
-0.0747983
6.69068e-05
0.0010967
0.195063
0.272664
-0.137931
0.0859491
0.0862005
0.0580456
-0.000260502
0.0242944
0.000253592
1.89577e-05
-0.000104614
6.1166e-07
8.44936e-05
-0.000651362
-0.0140833
-0.0624087
-0.017971
-0.0507837
0.0944755
0.0787052
0.00778594
-0.114556
0.000334235
0.00900098
0.0214419
-0.000708253
0.133943
-0.00217237
-0.0199559
0.0234816
0.0104157
0.00213232
-0.0074549
0.081453
0.00162173
-0.0362729
-0.0301424
0.685908
-0.0448093
0.141982
0.0707951
-0.0649577
0.00427264
0.000220459
-0.00479721
0.000131637
-0.00489625
-0.0461665
-0.00011964
-4.88455e-05
0.413761
-0.00612409
-0.0770236
-0.0349032
0.000423312
-0.00247076
-3.43389e-05
2.27926e-05
0.0741377
9.13112e-05
-0.00546956
0.136328
0.0120241
0.00217626
0.0351641
-0.0106609
0.00800472
-0.121663
0.00170611
-0.00822763
-0.102949
-0.00156464
-0.014962
0.0015112
0.00265759
0.00193482
0.0729191
-0.000542464
0.0107789
-0.100768
-0.0379234
0.000644126
-0.100441
-0.0276132
-0.0319919
0.000236129
0.0125777
-0.11637
-0.00154936
-0.00894077
-0.0933387
0.00123454
-0.00217299
0.334523
-0.0368666
-7.07453e-05
0.0156273
-0.0894565
-0.00194738
0.293435
-0.00385312
0.001985
0.10219
-0.00264872
0.0158055
0.202532
0.00017495
0.00227854
0.000363555
9.30215e-05
-0.00835004
-0.0127444
-0.000198664
-0.0446002
0.168292
-0.0695043
-0.120591
0.00226328
-0.00606579
-0.00105831
-0.0554447
7.43893e-05
0.0346697
0.00011232
-0.0295629
-0.00362876
-0.00924476
0.0523933
0.201038
-0.128457
-8.93165e-05
0.310892
-0.00353092
-0.00434563
-0.110466
-0.13259
-0.0286311
-4.85198e-05
-0.00198233
0.0137605
-0.00573539
-0.00877335
0.000889096
0.14863
-0.0752606
-0.0205528
-0.0124276
0.0522131
-0.00320223
-0.000800731
0.00329878
3.76143e-05
-0.00574577
0.195782
0.00156972
-0.135188
-7.15848e-05
-0.0136675
-0.00625175
-0.140809
-0.0211572
-0.155857
-0.000110076
-0.000104992
-0.00580026
0.0200347
0.00359652
-0.168365
0.156144
-0.0883672
0.000382523
-0.178905
6.4418e-05
-0.181592
-0.0468744
-0.17413
-0.164671
-0.146298
-0.0874314
0.0216675
0.0633324
0.101423
0.140249
0.178326
0.285673
0.320091
0.352412
0.407841
-0.0149717
-0.0135096
0.12372
-0.0283949
0.00176949
0.0364947
-0.0743056
0.00110952
-0.00113634
-3.78365e-06
-0.0259979
0.0332201
9.90209e-05
-0.000512783
-0.0195177
-0.00445832
-0.184892
-0.0202874
-0.102998
2.25962e-05
0.00114756
-8.90226e-05
-0.0814281
-0.0160362
-0.0661905
-0.0160418
0.0033584
0.000482767
0.00897426
-5.60856e-05
-0.00642917
-7.70936e-07
0.000733463
-0.00889191
-0.0213401
-0.000374049
0.000646757
0.0849339
-0.0189024
0.122524
-0.184206
-0.0122179
0.251283
-0.0345174
0.00708119
-0.0394922
-0.00599214
-0.0232004
-0.0224582
0.476866
-0.00228239
0.00015446
-0.0106775
-0.0162057
7.90771e-06
0.136184
-0.00733626
0.450197
-0.02151
-0.0832421
-0.0491459
0.0918749
-0.00851678
-8.36518e-05
-1.25757e-05
-0.00770247
-0.0963684
0.000130245
0.492113
-0.00506316
-0.00903634
-9.17477e-05
-0.000689292
-0.0110972
0.214922
-0.0324599
0.19494
0.00123883
-0.026146
-1.01485e-05
0.0496183
-0.0139465
0.0358381
-0.0151456
-0.0100139
-0.00131367
0.00256299
0.0222253
-2.00479e-05
-0.0171765
0.00114849
-0.00071069
0.000915158
-0.0239136
0.00051658
0.228563
-0.0193949
0.00724204
-0.0759397
0.0820328
-0.0829815
-0.0207448
0.07993
-0.0336054
0.27042
0.00951074
-0.006261
-0.0920363
-0.00124373
-8.1802e-05
0.000857524
0.000187694
-0.00402427
0.00833515
0.000187295