/*--------------------------------*- C++ -*----------------------------------*\
  =========                 |
  \\      /  F ield         | OpenFOAM: The Open Source CFD Toolbox
   \\    /   O peration     | Website:  https://openfoam.org
    \\  /    A nd           | Version:  7
     \\/     M anipulation  |
\*---------------------------------------------------------------------------*/
FoamFile
{
    version     2.0;
    format      ascii;
    class       volScalarField;
    location    "1";
    object      p;
}
// * * * * * * * * * * * * * * * * * * * * * * * * * * * * * * * * * * * * * //

dimensions      [0 2 -2 0 0 0 0];

internalField   nonuniform List<scalar> 
20933
(
-0.0323197
-0.17551
0.215038
0.000386053
0.00349793
-0.000617202
-0.162997
3.49439
-0.0711668
3.4392
-0.0485968
3.04188
-0.137061
-0.0302675
-0.0306249
0.000402138
1.42183
2.33387
-0.19429
-0.170931
-0.025272
3.0763
3.47362
0.0959949
0.200897
4.83465
0.0716822
-0.0870277
0.280902
-0.182837
-0.00909472
5.41791
3.52052
-0.0674761
0.000586773
-0.00851419
3.73025
-0.000856729
0.114605
2.11877
0.356569
4.01912
4.19886
0.0638472
4.83012
-0.440568
3.05732
2.18914
-0.00190113
-0.207964
-0.000244403
0.770853
0.715332
0.00301883
0.752519
-0.362987
-0.161687
-0.00988201
0.0397319
1.47074
5.04302
-0.326117
-0.0808908
3.28038
-0.00486001
-0.0339537
4.75849
-0.038054
0.768388
4.77881
0.292301
1.17827
-0.0279458
-0.131433
4.78174
0.399526
4.75846
-0.433627
2.0826
4.53996
-0.0275045
0.0168854
0.223882
-0.055528
-0.328578
4.21542
-0.112453
5.67422
3.27409
4.97595
2.92866
0.00129522
0.000274054
5.66543
2.10916
-0.0765615
5.69751
-0.00415189
-0.00251814
3.57975
5.01068
-0.175325
5.08219
0.774236
1.23791
0.598518
4.56523
0.881343
-0.255525
4.45312
0.276907
-0.183551
-0.162225
0.272298
0.4491
8.01557e-05
4.14868
-0.0240026
0.664141
4.49764
0.00115263
0.0383775
2.38184
0.0305065
-0.0679014
2.3581
3.37671
-0.0847094
5.45806
4.20802
-0.125194
-0.209169
0.352117
0.107223
4.58875
1.1405
2.45377
-0.00727008
-0.136589
-0.160709
0.00205209
-0.143658
1.08805
5.11874
1.75509
4.61289
3.71372
-0.226599
3.22641
0.0808571
-0.231527
4.75444
0.000352349
-0.051234
0.0164388
3.76767
4.26965
0.0920287
-0.38937
-0.146553
0.693614
-0.121015
-0.0102561
1.8211
1.76813
5.6455
-0.16562
0.176397
0.360353
3.69128
2.41304
4.85092
4.36462
-0.0877014
5.87652
3.48406
-0.0275654
5.01641
0.503876
4.54144
4.67279
-0.000645899
5.11919
4.28518
-0.161419
-0.426609
0.297572
3.47395
0.720083
5.39908
3.3495
1.36181
3.64318
0.823923
-0.383083
2.77383
5.10795
1.8553
-0.157276
5.43677
2.25789
0.941104
0.770006
5.33463
5.18651
-0.250937
-0.0216443
0.781602
-0.35798
-0.0154436
4.73685
4.9603
-0.229141
-0.314186
4.50552
4.7819
-0.0555907
4.49691
0.936416
0.116661
-0.0179484
4.33967
5.2101
2.95608
4.41898
-0.145924
-0.00577167
0.000177154
-0.0442984
0.00300759
2.34367
0.515965
4.53158
-0.139639
4.2878
-0.0997902
0.578875
4.82469
5.74616
4.30806
4.72886
-0.323793
3.95233
0.042653
1.34178
-0.0252116
0.828496
1.22522
0.817795
-0.00170584
-0.250255
5.24601
2.56415
0.107313
-0.233668
0.521561
-0.0556222
4.05318
-0.14773
-0.433194
-0.0878386
-0.0590621
-0.00630534
-0.103859
-0.101274
5.12139
1.83432
-0.150078
4.32282
5.16937
-0.109842
0.00428177
-0.0636275
4.74854
0.577507
5.03037
6.64876e-05
-0.304301
4.4642
4.69138
0.129094
-0.151138
5.3462
1.0719
1.33442
5.04754
5.37774
-0.121403
4.49499
1.82589
4.5091
4.0192
0.00434668
1.82398
3.73824
-0.0300544
-0.165829
1.95667
0.157642
2.21028
1.47046
0.00040024
-0.00313307
4.98717
0.00564324
-0.16468
-0.130057
3.05963
-0.290803
4.54375
2.00473
-0.10462
-0.444754
3.61167
2.83366
0.000280193
4.96885
4.2361
4.96164
0.825423
-0.00521176
5.33235
-0.0230801
-0.0805332
2.76225
1.86665
-0.165502
0.984427
4.28652
5.62832
4.67086
2.21307
5.88953
0.000353769
-0.0755242
4.69781
0.465503
3.71873
-0.117511
4.79656
1.83859
0.00129625
1.78903
4.12214
0.321801
5.18123
4.24393
-0.0041701
0.292361
3.43544
2.44138
-0.0530522
4.33085
0.0559892
5.75496
-0.0165323
-0.233748
-0.232654
4.66822
4.25791
-0.323782
3.58116
4.97234
0.00648518
3.92435
4.18785
5.86028
-0.0194464
3.05271
1.16233
-0.376801
-0.00255911
4.8168
4.03653
1.6411
4.90311
2.29679
-0.172679
3.88994
1.79275
2.56818
5.75889
0.0393181
2.61101
4.94627
-0.243974
1.59109
0.0311573
3.36924
-0.308999
2.96686
1.7058
2.54072
0.00940121
3.08478
4.92209
4.00083
0.199177
-0.0493318
5.30428
5.38121
-0.0213732
-0.292141
4.51319
-0.157651
0.515149
4.03073
-0.239621
5.96351
0.16517
3.20835
-0.0670476
4.94926
4.19342
0.838138
0.557726
1.41006
2.30835
-0.00295065
4.50285
1.21266
3.34036
5.7257
0.862278
0.394434
0.000163257
2.24697
1.77469
-0.170912
4.1005
0.000422647
-0.195847
0.10846
1.11699
-0.092957
-0.00179883
-0.121152
2.71544
0.269627
0.258563
-0.26218
1.97739
1.51093
-0.200377
-0.437357
0.00689238
0.7715
-0.133485
0.0911143
0.163477
2.83229
3.9669
1.90088
-0.00452684
5.40287
0.0922573
-8.69394e-05
0.32856
-0.267899
-0.0611834
5.16002
0.125159
1.842
-0.0958451
-0.119877
3.97155
-0.0682837
-0.139354
-0.14838
-0.00235393
0.828644
5.48463
-0.0174212
-0.288663
4.0682
-0.155214
3.99487
3.2497
-0.0267684
-0.0144857
4.24785
5.66509
-0.0788647
3.61157
2.67844
-0.246907
-0.248678
4.50891
1.12598
0.27098
0.0781961
-0.347293
0.551554
5.3399
2.1668
0.000751409
5.09075
0.196543
-0.0556198
4.4245
0.125877
-0.0720807
-0.00410167
1.00675
-0.249357
0.000139411
3.6024
0.632193
4.52355
-0.00591646
0.00178368
-0.165406
1.81623e-05
-0.100806
0.340836
-0.00241432
-0.0259672
-0.415919
4.36758
4.9225
-0.0231808
0.0227385
-0.154274
4.94081
0.0160448
4.95336
-0.13051
5.79213
4.00558
3.01432
5.5738
1.3003
-0.072754
1.15383
0.0474136
4.87403
4.48116
-0.22136
0.864286
1.40062
0.35224
-0.0735778
0.763785
0.000145523
4.37882
-0.433916
-0.111862
-0.0376524
-0.000398472
3.189
1.97006
-0.0466076
0.152283
-0.000212092
5.80529
5.30458
-0.0398248
-0.198913
0.248746
4.47247
-0.411991
2.70077
-0.275381
4.70983
3.0285
-0.255358
5.94993
0.48535
4.64104
-0.0530016
-0.153271
5.17615
0.0775612
5.68062
4.40413
5.84616
-0.0683353
-0.114103
0.0506136
1.30835
0.114264
0.075774
4.64704
4.74244
3.97252
4.90743
5.61791
3.50429
4.91618
3.99421
0.036766
4.29344
-0.148623
-0.263813
-0.00907109
0.308587
0.230714
3.50172
0.934694
4.53944
0.0314821
1.60734
4.419
0.055425
0.515927
-0.000167467
0.00273179
3.48697
-0.11615
-0.223064
0.00314505
0.00120693
1.31687
-0.00433238
2.05423
5.84041
3.67417
3.35076
-0.263312
4.50197
2.32184
0.024355
-0.193967
-0.0195981
-0.00445141
0.0137625
-0.034777
-0.0717325
3.67024
1.33104
-0.432219
-0.000102036
4.66755
1.49365
1.06142
0.0935488
2.45483
0.282183
-0.43214
4.42757
5.58912
4.32356
-0.311161
4.34678
-0.289585
-0.130745
3.74278
0.000747126
-0.0861802
3.10477
3.45579
-0.246237
4.4255
5.18465
4.3348
-0.280522
-0.426126
0.301441
1.8447
4.18948
-0.0354075
5.12643
-0.0830703
-0.127639
1.20826
5.43684
3.70121
4.52172
0.397895
5.78351
-0.236556
-0.119539
5.91421
0.761609
-0.0241132
4.60048
4.71535
-0.18256
4.15607
4.94418
4.68969
4.47353
4.64115
4.08095
-0.103522
-0.228227
0.020924
-0.143209
4.91283
-0.135446
2.9087
2.7257
-0.224148
2.07165
3.15849
4.99738
2.02632
-0.00223296
0.598755
-0.139649
1.11141
1.10543
-0.142865
4.43996
5.04861
1.53431
4.96509
5.6829
-0.0415094
0.0257516
-0.0267425
-0.210714
3.83434
5.82237
2.22089
4.51581
-0.139211
4.19151
4.2768
0.698006
-0.325419
-0.404031
2.91314
0.0622257
1.393
-0.233594
-0.353801
4.54478
-0.0607392
0.140938
4.72261
2.00814
5.35464
-0.011012
3.94732
1.06591
-0.0827625
5.11218
5.54657
4.90458
-0.057317
5.49039
-0.265116
5.02223
0.906753
4.86773
-0.157006
0.000248469
4.88248
5.03551
5.00857
4.89367
3.45887
1.64076
3.90529
-0.0268816
4.90032
4.40039
1.46334
0.96517
-0.0995515
1.33029
4.48739
-0.345896
-0.313875
5.02423
4.92354
-0.11591
4.82528
-0.157738
2.39333
-0.148773
4.9813
5.04439
5.71281
4.98227
-0.0347485
-0.139714
-0.0103301
-0.113427
5.34345
3.28406
4.43517
-0.350269
4.00847
0.272651
5.35086
0.411663
4.98519
-0.135103
5.26578
5.42238
-0.152064
2.36156
5.25468
-0.0357498
5.53823
0.246719
-0.0446561
-0.333611
4.65293
2.94297
-0.111198
4.85053
5.46963
4.24805
0.521071
-0.0789724
1.06403
4.90952
5.4566
5.80125
3.18682
0.000792601
-0.339862
4.47221
0.0140844
-0.116832
0.0217209
-0.0546803
0.134181
0.464008
5.13513
0.108138
-0.00766287
4.3311
3.25116
0.011368
2.67577
0.0137921
2.83527
4.35431
4.85357
0.326324
2.48133
-0.0473053
0.583386
-0.0372819
4.94815
5.15041
0.483582
0.340232
0.21049
0.100055
4.8777
0.145707
0.28214
-0.00058382
0.628383
5.6237
0.130029
1.78745
5.0093
-0.0774163
2.07445
0.191917
0.0593771
-0.0364672
-0.00178782
5.5884
3.9178
0.421933
1.56708
4.04172
4.78121
4.38356
0.941746
-0.158221
-0.0714435
-0.128513
4.24945
-0.277642
-0.0495213
-0.00190296
-0.215089
-0.0181068
0.187879
4.69587
0.00816229
4.93552
4.86601
-0.261896
-0.114258
5.67306
4.10469
1.37281
-0.123817
4.16107
-0.07653
3.77585
5.59444
3.95581
-0.254423
-0.133178
4.59335
-0.21848
-0.0756739
-0.0614099
5.19857
-0.168833
1.40404
4.09902
3.637
4.3153
0.129939
3.82817
0.0866664
4.98623
-0.024497
3.11085
0.0348885
-0.0122558
-0.00865792
-0.019824
0.00828404
5.21224
-0.0288038
3.98139
2.33459
0.46552
0.118724
3.35962
5.78331
5.28459
0.348492
3.22764
0.231695
2.14491
-0.302553
2.65955
-0.314594
0.00972474
4.1872
-0.136609
0.122931
5.17909
4.56644
5.01305
0.5363
1.18472
-0.0786413
3.27111
0.667238
0.00114679
5.3332
2.59353
3.17015
1.61711
-0.00172703
-0.0338146
0.0145797
3.11476
0.00225329
-0.0775715
0.114144
-0.114353
5.37321
-6.86265e-05
-0.0947106
-0.395611
5.58999
0.178219
-1.54252e-05
0.274317
2.26413
4.3623
-0.128063
-0.103507
0.0538491
4.42063
-0.121927
3.09862
0.535751
0.391461
1.90454
4.38802
1.75685
3.2435
-0.0407453
4.56231
5.4576
-0.127171
4.0014
-0.124695
5.534
5.40599
0.146398
2.20553
2.08804
3.92626
0.000249522
4.89137
5.89724
-0.0649757
2.98872
3.69718
0.00642675
0.00632591
-0.157875
5.75162
-0.012933
-0.0658574
4.9024
0.028471
3.87843
4.99799
-0.157669
5.25834
-0.180956
-0.112684
5.00778
3.18276
4.3171
-0.04418
5.0209
3.16784
4.8554
-0.130623
-0.0121662
2.98231
5.30589
5.01966
5.31772
4.93719
1.22238
-0.313115
1.61827
4.05631
4.86894
5.49603
-0.221707
3.40598
5.67537
4.68568
0.00704719
-0.340149
-0.182304
2.758
0.589114
5.28528
3.14362
4.85487
1.98499
0.638634
4.88018
1.24891
4.09651
0.284704
1.9128
0.000751648
0.237498
-0.0907122
5.54837
-0.095375
-0.14509
1.07452
2.92559
2.12933
-0.156665
1.45334
0.39078
-0.0189096
4.22151
2.79241
4.46105
0.540665
5.09098
0.0888966
0.00439389
-0.0276344
0.200506
0.268855
0.39355
0.060291
3.72101
5.31561
2.9765
1.67854
0.13649
-0.0829878
3.97123
0.183438
5.57921
3.76203
0.111684
-0.174483
0.943619
0.341255
-0.0554206
0.105605
0.683638
0.0476508
3.64911
5.41442
5.09156
3.50638
-0.0584858
-0.195972
-0.025821
-0.0543183
4.26024
-0.143604
4.15712
0.0626497
-0.102259
5.33124
5.40232
0.00585296
4.90865
5.06734
2.67405
0.177279
2.84332
4.24335
5.3962
3.80482
0.207821
5.32382
1.71525
0.0211064
-0.0248051
0.220041
5.46747
0.228048
4.96543
3.77817
5.26301
0.49538
3.87091
4.10205
0.108502
5.02466
1.00843
5.22552
0.0056442
3.8989
4.12366
4.1941
0.0118975
1.48959
-0.0219128
-0.206995
3.63961
-0.0982469
3.99101
3.99665
5.71262
0.443066
5.23749
0.340008
0.303266
1.81314
4.89691
2.37229
1.20889
1.62079
4.48441
0.0279039
5.66733
0.0397876
0.948529
2.37057
-0.217146
4.95995
0.0265726
5.11338
4.40314
2.48099
1.29885
2.90879
0.0026001
1.16291
5.19049
-0.12083
0.88383
3.84438
2.06701
0.796624
1.34944
-0.133856
5.42271
-0.18275
1.75952
0.986182
-0.326201
4.84145
5.79411
-0.268206
-0.0884714
0.079396
1.93091
0.00796101
2.60644
5.41564
5.27576
0.341535
2.75311
0.00104455
-0.271739
4.59074
0.154593
3.17565
-0.206581
5.59891
4.54754
-0.0708729
0.172802
-0.0143862
5.64415
-0.208515
-0.0116668
-0.222008
2.61384
0.0506833
-0.209556
2.50332
5.46874
-0.0658628
5.53956
5.79977
-0.114065
0.824963
0.00504078
-0.0475606
0.447747
-0.0911103
5.62485
-0.169467
-0.0693988
4.15249
-0.106592
4.42194
-0.109417
1.53937
4.45644
4.18073
-0.124323
-0.0290678
-0.102894
4.70559
-0.207713
3.2397
-0.23823
-0.0684554
-0.2588
0.0137833
-0.029337
-0.0304817
0.0188122
0.982612
0.139929
2.37486
-0.0263321
-0.232114
-0.0435024
-0.162449
0.121407
5.36404
1.07034
-0.0828508
0.104375
4.62974
-0.0267831
4.22596
0.844124
1.92888
-0.130625
4.41287
3.24329
-0.296826
0.0651851
0.0182979
3.85994
0.000331559
4.16334
4.69443
0.0995763
0.525381
2.39116
2.04532
0.0349005
2.85383
4.54307
-0.18936
4.02833
-0.286069
0.489152
3.92838
5.3944
1.02843
0.0483662
4.83617
4.16746
-0.210983
-0.136208
-0.0853605
0.438442
-0.210314
-0.0834659
4.60441
0.163775
0.415436
4.61574
0.301325
-0.170001
3.59601
-0.0538793
2.73719
4.13254
1.06485
4.27749
-0.0922746
5.34443
0.164622
-0.000130189
-0.00117808
1.76653
0.00336596
-0.116336
2.79906
0.406474
0.0264544
-0.0591038
-0.127216
3.21654
4.97317
-0.010661
-0.148139
0.267721
4.01318
-0.157825
-0.138191
-0.230559
1.57328
3.60704
-0.026828
-0.118258
0.871321
4.38901
4.64529
2.81433
4.19713
5.04652
0.0253737
4.01599
2.06146
1.07317
-0.193607
0.718978
5.93101
0.131384
0.23679
-0.299801
4.40299
-0.144702
0.0027138
-0.256661
-0.29483
-0.052154
4.98421
3.7357
4.16068
4.65815
4.21892
-0.21262
2.49126
3.63019
1.66341
4.88427
3.15895
3.86019
-0.000176122
3.75327
-0.0508209
3.10549
3.86277
-0.0535095
1.79335
1.82688
-0.145905
-0.0968985
1.91596
3.0506
5.5089
3.27692
8.99716e-06
3.40752
-0.157009
3.93166
3.2994
-0.157567
-0.170617
4.06907
4.91601
2.52005
-0.412583
-0.249588
2.84838
4.03738
-0.295547
4.55499
-0.224206
2.66511
0.90643
5.26971
-0.00850369
0.0203053
-0.053949
-0.268723
0.828315
-0.240678
4.16222
4.63708
0.103284
3.49179
0.118292
-0.170796
-0.000100437
3.09457
-0.00478232
3.7149
-0.000554334
4.09607
-0.385784
4.50133
0.94253
4.73827
-0.319582
-0.131437
-0.0123018
4.96277
-0.236482
2.16124
2.65587
0.144902
4.46552
-0.135516
0.1335
-0.286884
-0.0588372
5.00824
-0.0581237
-0.256164
-0.17723
-0.000251262
-0.199066
4.53756
0.00938952
-0.368265
0.0238849
-0.0186352
4.29308
1.03717
1.69788
0.111034
0.00984369
-0.00299512
1.35322
-0.303682
0.0203705
-0.148461
3.14605
0.00162037
-0.275933
1.23062
2.64497
4.85022
-0.233186
0.0726386
-0.41233
-0.026655
4.28371
4.59801
5.06545
-0.00073862
2.96813
-0.271853
-0.273841
3.79473
-0.143946
-0.161155
-0.211
-0.0492992
-0.218067
-0.197581
-0.186478
0.0267379
0.314759
4.06907
0.16349
3.36167
1.45734
1.04967
2.92341
2.18825
3.71087
0.594569
4.20162
0.00520337
-0.047885
4.00918
-0.299963
4.25584
4.11276
-0.159092
-0.361617
0.00246173
-0.319462
1.62985
-0.2475
-0.259883
-0.261053
-0.228553
-0.379128
-0.195299
-0.189512
-0.0940956
-0.382668
3.71827
-0.356226
-0.045568
-0.390865
0.0370491
-0.401162
4.56879
4.44625
3.12749
5.15034
0.102768
0.669398
-0.311916
0.0324565
-0.0342341
-0.00256164
-0.000278398
3.06342
2.58235
-0.00307627
0.332096
1.94321
2.87705
-0.129332
-0.270725
0.11715
-0.037829
0.0221853
0.000244103
-0.389413
-0.0263577
5.42155
0.0405066
-0.0134063
-0.237136
-0.219547
-0.204414
-0.319425
0.00810988
-0.201513
-0.147425
-0.366416
-0.100088
2.34495
-0.207153
3.5002
-0.333617
-0.0477546
0.760234
4.23638
4.36807
3.60709
0.391246
0.386904
0.155305
0.595798
-0.194639
0.52238
-0.341748
0.450163
-0.123824
-0.0039357
-0.000533067
1.42903
-0.102388
-0.0132513
0.0895806
5.49863
-0.228589
0.0675075
5.29553
5.4277
-0.291086
5.3812
5.17794
4.34272
0.00760396
0.615878
5.46257
-0.0169278
-0.00821902
0.0563653
-0.273937
-0.116316
0.303402
-0.255167
-0.343815
-0.362499
0.0355669
-0.0055973
-0.12521
-0.121808
5.7351
-0.313121
-0.23044
5.76065
-0.074146
5.63149
5.28372
4.09121
-0.249275
5.70428
1.94444
4.73124
0.35602
7.39365e-05
0.0207467
0.138844
1.12118
4.93738
-0.040621
0.00515865
-0.291246
-0.00382491
0.387995
2.85471
-0.00346552
4.2152
-0.106069
-0.0611016
-0.276035
-0.261246
2.86321
-0.077477
5.33474
0.0216794
5.07599
0.12458
-0.293955
-0.00114587
-0.444778
-0.0258818
-0.416
4.66546
4.87995
-0.000972037
5.39272
-0.243872
0.0115033
-0.0203427
5.0917
0.111982
-0.0154335
-0.00687074
0.012719
0.00468977
-0.00397472
-0.0130241
5.50342
-0.00883307
-0.0461151
0.120834
5.52908
5.82207
-0.103744
-0.282627
4.29788
5.80689
-0.252111
-0.307218
-0.000756183
0.531337
5.06967
4.23169
0.0100418
-0.256264
-0.304385
5.15291
-0.0994494
-0.127789
-0.147293
-0.150049
0.0465043
4.43148
-0.00326651
5.21253
-0.0481232
5.47557
-0.0157424
5.26496
-0.236629
1.48087
-0.046722
-0.000616787
0.0120384
-0.109955
-0.214403
-0.0455076
0.00650066
0.0330068
-0.0525892
-0.28094
0.00637689
-0.202991
-0.19296
0.0217222
1.74854
-2.1771e-05
4.2109
-0.321887
0.0164605
0.049576
0.0517905
5.59044
-0.176692
-0.122604
-0.12082
-0.348281
-0.280596
4.1238
4.40084
0.104488
-0.218639
0.461158
1.92894
5.19779
-0.379475
4.0532
4.53682
-0.00109318
-0.306365
-0.302429
0.0225246
-0.0168253
-0.0174396
0.0167426
-0.11764
-0.105685
0.164865
-0.106062
0.371149
3.39528
0.199803
4.21749
2.54958
-0.110683
-0.000808168
0.0106368
4.92755
-0.0153145
-0.326601
-0.014852
-0.373267
-0.166064
3.54773
1.26393
5.46433
0.00409238
0.00916473
-0.35832
3.57588
0.0570734
5.27005
2.58967
-0.311319
-0.213499
-0.053477
0.237016
4.10702
0.822898
4.99343
-0.387319
-0.0040448
-0.0320946
-0.158831
0.00225357
-0.00957878
-0.0578401
-0.136271
0.144883
-0.345712
-0.00252276
-0.348398
-0.00680624
-3.73072e-05
-0.00345868
0.057127
0.00866089
-0.00578304
-0.0332704
0.626797
0.0139725
1.21577
-0.195721
4.27654
-0.304703
-0.0608761
-0.00067525
-0.0683867
-0.254272
0.0811148
-0.0980518
-0.000307807
-0.0873706
-0.00355822
0.019545
1.70491
2.29837
-0.116398
0.00399501
1.05237
0.226917
4.51564
3.81691
4.40919
-0.0345891
-0.0691204
-0.0113869
-0.106665
5.04659
4.12932
-0.030845
-0.0255875
3.31973
4.11704
5.38721
0.00210072
-0.0544952
-0.117348
-0.000932
0.00179931
-0.00274398
0.0162074
-0.0307965
4.26793
0.0608171
0.0012747
0.130317
0.0123874
1.68571
0.0818815
3.67037
0.0158636
2.38409
-0.273738
-0.4042
2.97526
2.63594
0.00322252
2.88038
5.19638
-0.325913
4.37816
-0.420105
-0.0963526
4.60916
-0.018255
4.27834
-0.04252
0.469146
0.133453
-0.112757
-0.216094
0.0100079
-0.0048463
0.583622
-0.000140993
-0.172923
-0.370649
5.2478
0.344124
0.0508742
4.2073
-0.000235265
0.00644612
0.235872
-0.0128425
5.15373
-0.0325197
0.00801307
-0.223357
2.12976
-0.0980245
0.0171501
-0.00613383
2.10526
0.13659
0.00515048
4.86056
5.51594
0.0170254
1.07215
0.000439362
4.43405
-0.00801719
-0.0514498
-0.0024244
-0.000119515
0.107682
0.0584036
0.0146363
0.0434675
-0.011015
0.257449
-0.00504817
-0.00576581
0.150577
4.64839
4.81119
0.205564
4.18893
1.63731
-0.00107158
4.14672
-0.0407077
0.0244805
0.0603495
1.19716
-0.00566295
0.631387
-0.0245098
0.0133814
3.10147
-0.229991
-0.178776
2.73158
3.60814
2.47629
0.000330264
-2.77363e-05
-0.242061
3.48227
-0.0598118
-0.188845
-0.00788587
4.11211
0.73461
4.64509
3.86911
-0.220884
2.57649
-0.0157529
4.24942
1.52628
-0.289155
-0.00430361
0.0153224
-0.209295
-0.243034
-0.180551
-0.28065
2.19226
-0.136911
3.42644
0.00308009
0.0648483
-0.0134352
2.28849
0.556274
0.0603763
-0.000472854
0.491823
3.3037
-0.340224
0.432818
0.3828
1.66215
0.338985
-0.00683891
0.00881183
4.52043
4.75258
4.91671
0.00315615
4.77343
4.46411
4.7894
-0.0466275
-0.00724763
0.00407938
3.62531
3.90256
-0.064728
-0.360836
-0.383494
-0.140193
1.85231
-0.217771
-0.119516
4.0296
0.0210452
-0.186062
-0.00220319
-0.251512
4.80309
-0.136737
0.00148332
-0.000137217
5.07607
4.45526
1.38481
3.37399
-0.201367
1.25406
-0.234698
1.1172
0.99402
0.895489
3.25806
-0.270931
2.37498
-0.000118924
4.69928
0.000484758
-0.0423287
4.39362
0.346389
-0.129699
-0.427494
1.31307
2.48841
0.181024
-0.00458053
4.04287
0.00730447
-0.142673
1.49518
-0.0047645
-0.0787704
0.0193683
-0.393893
-0.350959
1.34459
-0.00953183
1.20329
-0.0875183
1.07269
0.95258
-0.143406
-0.242003
0.845022
-0.351032
-0.225376
-0.193697
3.61811
-0.261263
-0.114561
-0.0027424
-0.268726
-0.346939
-0.00321323
3.75276
4.62139
-0.328428
-0.2691
-0.173865
-0.131906
-0.00651916
0.0114566
-0.0499221
0.918137
-0.00400312
0.275839
-0.363511
-0.371785
0.0135463
-0.00331416
3.59961
-0.0560918
2.22984
3.78208
0.074011
-0.367149
-0.361508
-0.00322873
2.08551
-0.396076
-0.394513
1.9374
2.90705
5.30109e-05
1.79492
2.92437
-0.00480801
2.30345
-0.159888
0.262147
4.02421
-0.0661409
0.00273944
0.00136727
3.97165
0.613671
-0.124732
-0.405558
-0.194372
-0.124922
-0.0831347
-0.335669
2.12669
4.98053
5.37949
4.32649
-0.00332467
3.56932
1.95926
-0.195927
-0.416649
3.47618
-0.369672
0.548302
-0.00673816
-0.354104
4.25148
-0.00210426
-0.0654946
-0.11736
0.657
0.00908414
4.38966
-0.368396
4.33056
-0.244904
-0.321851
0.157482
-0.014395
3.9213
-0.153852
-0.119973
-0.000373416
0.333255
0.726738
2.76102
-0.10358
0.00148505
2.75524
-0.000547872
3.32299
2.61474
0.00629418
3.30903
-0.0997485
-0.00271396
-0.14361
-0.00831523
0.0121426
0.0441889
3.8682
-0.169032
0.0152487
-0.115349
-0.188122
3.80691
4.79569
0.00501545
-0.116745
-0.0856219
-0.122188
4.07166
0.381774
0.00782995
3.16771
2.82535
4.30518
-0.071193
0.0115473
3.56003
0.0162468
-0.409692
0.400185
5.09328
-0.0866005
-0.164885
0.00975889
-0.0664682
5.06357
-0.323185
5.49561
2.50476
-0.114772
-0.0119879
-0.0966752
0.163193
0.00278598
-0.134189
5.00372
0.000101404
-0.0295337
5.02976
-0.00678793
-0.12673
0.00323926
-0.023082
0.00318022
0.873757
0.0863814
-0.0236706
0.0811898
-0.00982417
0.00188385
0.00199047
-0.00199929
-0.0572922
0.00239011
-0.0164114
0.278239
-0.0675572
5.45966
0.962161
-0.0114561
-0.0686613
0.00015988
-0.161226
0.00163182
1.94111
4.25257
-0.0283172
0.014267
-0.0319934
1.63163
0.0260464
5.66341
0.0275894
-0.0224056
3.24403
0.177898
0.00223579
-0.258682
4.1866
-0.0100574
4.16687
4.23808
-0.193119
-0.252316
4.70235
-0.160958
-0.0291957
-0.327956
3.83578
1.96972
-0.18925
-0.00468141
4.86377
-0.0140956
0.332386
-0.0765291
-0.039338
5.27086
0.0135965
0.000952056
-0.247555
3.11634
5.53158
4.1508
5.85497
-0.0614844
5.23933
-0.00641535
3.59045
-0.0494839
-0.0126346
2.58056
-0.108916
1.86561
0.00124364
-0.373165
5.56466
-0.135889
0.744903
0.0272661
-0.0193149
3.03984
0.0336543
-0.309995
0.00204727
-0.0552653
-0.00311226
5.71615
-0.205836
-0.297837
1.53546
0.387627
2.42388
4.19049
0.00373093
0.71887
2.81749
4.38347
5.7245
-0.000490458
0.5915
0.449381
-0.0256695
3.04013
3.26729
0.516571
5.12004
2.10213
2.89685
-0.162886
4.0302
-0.385114
0.00267415
0.00111443
0.0019549
-0.00746812
0.0196237
-0.27984
0.000988638
0.0132311
0.125411
-0.00205864
3.41603
0.0883037
-0.000355744
5.48565
0.00613421
-0.00269796
4.80773
5.69604
-0.406687
-0.0313854
4.67151
-0.105928
5.28452
1.35921
-0.00528391
-0.144009
0.010536
0.0405131
0.0103656
4.35594
0.000137088
0.0043047
5.04848
-0.00910907
0.0332487
-0.0920549
-0.26781
-0.348523
0.00251621
1.79366
-0.386437
0.00214459
-0.306561
-0.0261144
3.41048
-0.00191055
-0.0018643
-0.0242694
5.03157
-0.103654
-0.0641644
-0.0178744
0.0302976
4.84699
0.179541
2.38962
4.68697
-0.0121996
5.2851
4.57635
-0.122726
-0.141602
0.00571526
-0.233861
5.26574
0.0492909
-0.0110203
0.00137074
-0.381357
-0.0808138
-0.0129706
0.00396652
5.29259
0.00105802
4.31735
-0.0454828
-0.16539
0.00161372
0.133085
0.00957665
4.76793
4.83211
2.98391
-0.00825414
-0.329749
-0.0321041
2.41265
1.96266
3.3386
-0.179769
-0.0727588
-0.465398
-0.00566233
-0.00699477
-0.015191
-0.0135929
-0.00959566
-0.0113489
-0.0258843
-0.0722565
-0.420686
-0.0212865
-0.0298562
-0.408666
-0.00364078
-0.0160135
0.00060643
5.93101
1.68248
-0.0200108
0.0598857
-0.0182194
0.000438706
-0.00427225
-0.0396567
-0.034325
-0.308127
0.000920212
-0.46341
-0.00614397
-0.0177084
0.00190785
-0.350733
-0.17788
-0.0446934
4.95555
-0.0100509
4.24325
-0.238851
5.11173
-0.457372
-0.452747
-0.446289
-0.43819
-0.428126
-0.418424
-0.405873
-0.00307476
-0.39321
-0.378328
4.80157
-0.349168
0.530451
-0.296299
-0.00506125
0.0467171
-0.189138
0.00144409
-0.0248713
-0.00130604
-0.0235837
0.842026
-0.0207866
3.34743
4.40729
-0.0909256
0.0254671
-0.398135
0.0719054
-0.0545118
-0.0759641
-0.311802
-0.00443853
5.54459
-0.185484
-0.173683
-0.0267775
-0.0239759
-0.048637
-0.0406355
-0.462675
-0.0610889
-0.0272808
-0.167663
1.55705
0.00113177
-0.00255882
-0.0277397
0.39749
-0.0314345
-0.0460326
-0.0358334
0.00161426
0.00465126
0.00801255
0.0048106
-0.0236357
-0.0521122
-0.0567862
4.74459
-0.0127594
-0.0419647
-0.0274606
0.01764
0.0032077
0.00439861
3.92127
-0.029453
4.61441
-0.0660284
-0.014983
0.00147849
4.15888
0.17194
0.00451738
-0.00209483
-0.00214725
-0.130369
-0.058753
1.68157
-0.00248295
0.0290425
-0.0108187
-0.0308531
-0.0175515
-0.0741963
0.0319974
-0.099547
4.67959
-0.331571
-0.154163
-0.00732326
-0.00167437
-0.352536
0.000721772
0.267745
-0.068823
-0.0769952
0.00728037
-0.0494301
-0.105596
-0.0862345
-0.00909067
0.00138101
-0.248457
-0.00755799
-0.0839304
-0.0949569
-0.0855809
-0.00151262
5.3099
-0.00625753
5.86695
-0.0939561
-0.105184
0.116149
0.00114031
0.000795514
0.939985
0.00490253
0.305962
-0.00335544
1.39134
-0.0943155
-0.00293766
-0.00124988
0.0489398
5.22031
-0.00284963
-0.170835
0.0977053
4.66055
-0.219018
-0.0416612
0.000951351
0.767392
-0.159249
0.0229667
0.0884589
0.00374292
0.156517
5.534
-0.0506865
0.0176998
-0.137335
-0.002184
4.2766
4.63016
-0.000989292
-0.027996
4.06594
-0.00239973
-0.0681015
-0.00171913
-0.00387639
-0.101923
-0.276683
0.174282
0.699901
-0.0064092
-0.000120757
-0.00198097
0.0937137
0.0658717
3.36498
-0.150977
-0.00126099
4.52672
0.0349935
-0.0163533
-0.33625
-0.116156
-0.00751411
-0.00152382
0.138562
-0.0227096
-0.100046
0.000178499
-0.0055412
3.29903
-0.0754446
4.10833
5.07782
0.0901093
0.0474467
-0.183386
-0.0835386
5.47142
0.170933
-0.0318705
0.000813419
4.4332
5.35734
3.52007
1.61947
-0.320521
-0.000808082
-0.372667
-0.004769
0.0139571
-0.17337
4.06682
-0.194905
-0.00203239
0.0328752
-0.00870551
1.76272
4.21954
0.0101949
-0.36484
-0.0104267
-0.0154692
-0.0201414
5.3069
0.0481765
-0.0131078
-0.00627505
-0.0614724
-0.200098
1.72687
-0.0450004
0.0375428
-0.020194
-0.00264317
0.168696
4.28207
-0.45659
-0.0184512
0.205454
4.16782
-0.0125911
2.21561
4.72967
0.0119715
0.000506499
2.45648
4.07457
2.5776
3.6692
-0.265131
-0.0210884
0.00552067
4.06801
-0.299808
0.0270411
-0.198761
-0.121848
0.141944
-0.321356
-0.0146049
0.00583406
3.94849
0.0399468
-0.347384
4.82053
-0.17699
4.63439
-0.000253203
-0.341198
4.47782
5.5331
0.2356
-0.0384769
-0.110018
-0.0114295
-0.0175181
4.62418
0.159899
-0.24165
-0.0163538
-0.0134529
-0.0216893
0.0484872
-0.00808365
3.67429
-0.00668565
0.206351
-0.0267473
-0.0630666
-0.010672
3.07972
4.41821
-0.4482
-0.442907
-0.43567
-0.00965813
0.0608864
-0.0054947
-0.42603
-0.416983
3.05461
4.36636
-0.406001
3.00725
-0.178865
0.162997
-0.159091
-0.393878
3.79666
2.97448
-0.380139
-0.109654
4.41252
3.79271
-0.0192921
0.00195447
-0.0203419
5.20863
-0.00297517
0.00150771
-0.0306296
-0.0249065
-0.0157735
0.0319809
-0.0287453
0.146959
2.12828
-0.107852
0.0014739
-0.274933
-0.264757
-0.183137
-0.255228
-0.453339
-0.0214633
-0.0416035
-0.035168
-0.0233773
4.51526
-0.0329615
-0.0402003
0.617003
0.000825697
5.14865
4.40848
-0.249136
-0.0372998
-0.00398113
-0.0422235
-0.00100019
4.29703
1.26556
-0.0126855
0.546235
-0.00314636
0.483248
-0.0143682
0.427192
0.378732
4.89078
-0.180017
-0.00324659
-0.021834
0.0588384
2.97836
4.00683
-0.356759
3.96863
5.34076
0.0220713
-0.0917242
3.85183
-0.0478603
1.47701
5.15988
3.8329
-0.133681
3.86122
-0.0444069
-0.0995417
-0.0172106
-0.0204682
-0.336322
-0.000593482
1.34071
1.20744
1.0792
0.963063
-0.173283
1.59822
0.00689763
-0.022548
3.41333
-0.10892
-0.00155421
-0.0313495
-0.0540413
-0.343223
-0.00160406
-0.151822
0.384429
5.80991
1.43952
4.35132
1.9289
6.02482
1.29603
1.1595
4.98642
5.0804
-0.172516
3.30427
-0.00167801
0.837594
1.03431
-0.0607886
0.921147
0.159473
-0.22754
-0.0230349
-0.0487011
-0.0683541
0.0221463
-0.054437
4.32403
0.181515
0.0873955
0.015031
-0.319397
0.0757365
4.73488
-0.00583794
4.10332
-0.0980139
-0.195121
2.30925
2.40227
-0.158179
-0.443665
0.0393142
4.26689
3.53801
3.55531
0.286611
0.00943344
2.1645
2.02065
0.0347033
-0.00399506
-0.0184499
-0.0721439
1.87912
0.0334693
3.03566
-0.0770259
4.559
4.35086
0.0242877
4.33551
-0.00138462
5.04708
4.87306
-0.040026
2.22423
-0.35834
0.0710867
6.00667
0.0371147
-0.145227
1.97948
-0.00101733
-0.0801291
3.73671
4.33484
-0.0653438
-0.251944
2.05464
-0.0203386
3.39081
3.84364
-0.0892892
0.657403
-0.0099708
-0.0993852
0.00346292
0.00491804
-0.023862
-0.0607679
0.434975
-0.0871152
2.43589
-0.00689963
-0.150901
0.328386
2.84316
-0.422929
0.0506919
3.78142
0.0316777
0.000134932
-0.0348979
-0.0245712
-0.340372
-0.158757
-0.0976522
0.0384283
3.24191
2.834
1.43248
-0.129734
4.47038
-0.109628
-0.0921789
2.86071
5.98868
4.34987
0.0525566
-0.28539
0.122185
-0.183686
-0.146825
2.69313
5.90135
-0.123767
-0.164602
2.32406
-0.0015176
-0.0847259
0.00493779
-0.0514976
4.66589
3.06882
0.00261126
4.30154
-0.285834
-0.00741551
-0.185801
-0.0607802
-0.00393779
-0.070786
-0.180922
-0.0652519
3.1615
5.76293
4.62346
0.388321
0.710092
5.81554
4.82677
5.71725
0.00367708
-0.165665
0.00384911
5.87114
5.66018
2.13576
3.90675
0.229931
5.60053
0.723905
0.0418802
1.55355
5.53766
-0.0874161
-0.128081
3.33239
5.47981
4.40816
3.76968
0.970508
5.41596
-0.00671805
-0.380731
5.4175
0.0169532
-0.0938706
0.225455
5.35381
-0.01302
4.44302
5.29062
-0.000126057
0.775781
-0.0478201
-0.0134922
0.0416197
4.30035
5.1843
1.10168
4.35082
3.01658
-0.319291
-0.00120545
-0.00180428
-0.182722
0.000483663
3.54573
0.135293
-0.0483539
-0.150613
1.82491
0.23353
-0.202559
0.0605066
4.56325
-0.204349
0.468574
-0.175823
-0.177027
2.52115
-0.200185
4.12672
4.45668
4.64667
1.4573
-0.0603909
4.70247
-0.189917
0.75835
2.17577
3.1458
4.30798
3.92949
4.71722
3.43339
2.84747
-0.160303
-0.133558
3.69337
4.73008
1.0956
-0.198236
-0.190558
-0.113037
-0.0223633
-0.0883482
0.117475
-0.159333
0.0129917
0.170459
-0.143125
1.21777
0.00243532
5.23
2.29973
2.74161
-0.0526235
-0.00295598
4.27584
-0.0727824
-0.166078
-0.082844
-5.63948e-05
-0.118186
4.25324
5.17034
-0.0662294
0.0559687
-0.100892
4.61829
0.000201591
-0.00133054
0.239282
-0.0526558
0.15719
-0.302966
1.66575
-0.20596
4.19532
0.230814
5.11194
0.113855
0.000243694
4.83681
0.873123
-0.206372
-0.000993612
-0.211512
4.59184
0.230309
-0.0589931
5.05419
4.57596
-0.00666123
3.70377
-0.131813
-0.12088
-0.000794134
5.07867
5.61813
-0.456288
2.65796
-0.0673309
4.2824
0.116318
4.99719
-0.105849
4.56074
-0.111973