/*--------------------------------*- C++ -*----------------------------------*\
  =========                 |
  \\      /  F ield         | OpenFOAM: The Open Source CFD Toolbox
   \\    /   O peration     | Website:  https://openfoam.org
    \\  /    A nd           | Version:  7
     \\/     M anipulation  |
\*---------------------------------------------------------------------------*/
FoamFile
{
    version     2.0;
    format      ascii;
    class       surfaceScalarField;
    location    "5.5";
    object      phi;
}
// * * * * * * * * * * * * * * * * * * * * * * * * * * * * * * * * * * * * * //

dimensions      [0 3 -1 0 0 0 0];

internalField   nonuniform List<scalar> 
11512
(
158.019
-503.368
345.349
-748.297
-15.4803
763.777
412.871
-383.934
-28.9375
629.652
278.772
-908.424
1527.33
-1083.07
-444.264
1215.51
-1544.11
328.595
-68.2099
490.158
-421.949
173.044
-854.918
681.874
968.33
-1625.72
657.395
-1764.48
1673.68
90.7976
-555.371
1770.88
-1153.53
1956.62
-803.099
615.5
186.292
-801.792
-23.4155
-1323.32
1346.74
222.255
-1986.74
1039.49
-386.342
-653.149
-168.017
326.036
492.596
194.625
-687.221
1171.44
-1329.96
158.519
-308.148
385.189
-77.0409
1011.12
-1317.96
306.838
1234.56
808.736
-2043.3
70.2418
-1650.69
1580.45
-475.1
-1172.5
1647.6
484.404
186.25
-670.654
-200.957
-302.411
501.679
1025.65
1657.12
-1812.85
155.729
-91.6207
-1692.42
1784.04
-1578.29
657.621
920.664
-310.707
664.255
-353.549
-177.307
-143.952
321.258
1292.48
-1222.24
362.778
-1423.25
1060.48
-1532.27
1532.27
99.294
1537.84
-1637.14
-1089.9
-488.387
650.238
-718.448
-389.016
954.677
-565.661
1336.8
-1325.79
-11.0087
-1115.49
726.471
637.956
401.534
-383.907
-51.1647
435.072
-430.495
758.633
-328.138
-1386.28
1386.28
1262.46
-1447.57
185.11
-494.517
1729.08
1272.76
-318.088
1675.94
-1171.61
-504.333
89.1394
-397.287
2088.2
-1147.34
-940.867
1822.66
-165.534
463.252
158.766
-622.018
-453.34
979.94
-526.601
-1175.17
1274.47
-575.093
984.81
-409.718
408.376
763.064
672.093
-499.048
-445.167
606.898
-161.73
1205.19
-842.407
2327.23
-1089.98
-1237.25
1176.3
-2030.96
854.664
-1610.85
1587.44
445.711
-1599.24
-757.552
1261.24
-503.69
-684.01
373.303
1676.89
-708.556
-1115.52
-877.937
1993.45
664.497
-355.227
-309.27
699.352
573.413
-260.699
1523.16
122.436
-328.202
205.766
-290.566
774.97
-340.783
571.714
-230.931
-330.776
823.372
-323.767
-154.138
477.905
334.933
77.938
1462.29
-451.169
-972.774
484.536
488.238
288.186
89.979
-378.165
963.657
-348.157
-1718.74
648.432
1070.31
21.3474
-857.011
835.664
-287.213
608.072
-320.859
161.497
-1108.32
946.821
1042.06
-1063.34
21.276
379.773
525.05
-904.824
-250.138
713.39
-1113.92
-489.845
1603.77
-661.978
941.227
-279.249
1358.27
-1449.89
-619.243
276.792
342.451
-476.997
-1017.5
1494.5
-547.085
-802.223
1349.31
581.745
-1010.62
428.872
-216.192
-303.519
519.712
417.648
-295.212
-1047.43
594.091
968.477
-806.98
-112.289
942.441
-830.152
-215.123
428.076
-212.953
-620.949
-351.826
-394.653
976.398
1657.11
-1657.11
-454.302
-164.941
-953.155
1559.53
-606.374
469.927
-939.116
469.19
-937.151
362.058
-947.135
-1065.52
-1502.59
355.223
1147.37
-285.883
915.535
-301.502
617.626
-316.123
-1954.43
1007.29
-1143.54
-359.053
552.648
-1505.8
1744.85
-1743.92
-0.932967
223.58
-606.036
382.456
-1461.03
974.635
486.397
297.684
213.722
-511.406
316.453
-657.237
242.424
-411.286
168.862
2025.88
-839.127
-1186.75
-552.834
168.927
627.208
841.66
-1468.87
-187.166
429.59
438.505
885.029
-1323.53
-923.452
400.952
522.5
-1056.92
1465.29
-1055.55
298.003
765.569
-101.314
533.476
-274.731
-258.745
999.268
-514.732
602.678
-1419.69
817.016
-1358.02
244.102
-558.361
271.148
-1188.87
902.99
1969.88
-1069.31
-900.573
282.724
1374.39
-2116.6
903.551
1213.05
331.939
-26.7815
-305.158
-224.958
469.693
-244.736
-120.406
-379.948
500.354
-477.633
153.866
346.757
-107.742
577.668
411.137
398.125
-809.263
-2041.17
1117.48
923.691
468.711
-543.563
74.8517
215.241
-340.807
125.565
1004.6
1021.28
1790.72
-252.878
708.94
-432.147
804.043
-1406.21
602.168
337.478
327.019
1055.11
-1033.77
-513.905
-227.577
741.482
489.935
-141.378
-348.557
807.734
-621.442
593.9
-767.181
173.281
507.853
1168.09
-1256.14
709.05
1046.07
-1521.17
1.11004
-1452.98
1451.87
330.299
835.092
-1165.39
630.126
275.361
-905.487
-2275.56
1152.73
1122.84
-1129.19
-1146.38
215.004
378.896
971.67
-641.371
864.85
-886.716
21.8655
-2116.05
1000.54
-163.476
-168.524
332
-44.339
1789.19
-829.214
80.9176
-1038.42
-1078.17
-230.713
445.954
-655.108
200.806
-258.456
-426.963
685.419
1110.79
-1587.79
789.092
-1389.84
600.749
700.033
-421.261
1965.04
-1457.19
-385.888
-1146.39
83.515
406.643
-535.518
520.037
0.334749
-566.273
565.938
581.167
-283.483
-616.875
285.241
331.633
790.021
-378.884
29.0313
302.908
1200.28
-1199.17
186.328
231.319
394.2
-652.656
625.588
-1020.24
-2045.02
2045.02
-245.971
-452.32
698.291
707.568
408.764
-1116.33
588.652
176.917
397.357
392.664
-2217.52
1339.59
-935.834
-687.819
1623.65
-493.44
-695.433
-266.592
547.058
-280.466
841.019
-192.311
-648.708
-425.501
649.081
384.52
-686.022
-341.213
-143.889
485.102
-1332.43
-480.421
624.749
-1118.19
-385.245
-1001.03
851.093
1476.14
321.342
-679.245
357.903
980.963
-343.007
1407.35
-804.669
455.366
-269.038
-334.801
-883.753
568.317
315.436
-327.114
-556.639
309.888
-430.294
-222.726
-162.351
385.076
-398.678
1106.25
442.059
-247.434
-402.29
1358.42
-174.416
-1184
-473.184
267.78
205.404
236.827
238.531
-475.358
18.2906
-785.471
598.888
-1745.12
1146.24
1499.05
-871.841
-1050.13
-410.904
-1071.96
581.661
490.298
1380.48
-405.844
937.879
-1427.72
-169.041
-217.07
386.11
-475.145
589.95
-1646.87
428.586
908.217
267.501
301.879
-569.38
578.457
953.817
1120.09
-726.082
-394.007
417.001
-225.887
-191.114
-1432.31
452.432
746.248
-1198.68
1490.06
-552.186
-493.103
924.674
-431.571
432.619
1194.19
-1626.81
38.6743
-700.652
-146.242
434.428
146.237
-323.544
522.919
476.35
-651.902
60.3543
591.548
1029.17
-1324.32
295.143
670.593
-273.236
475.874
-1462.44
986.564
422.661
1705.11
-528.81
883.64
1086.24
-672.339
-1703.43
767.593
577.235
389.97
-967.204
458.288
81.8307
1766.03
-1847.86
1454
-388.802
-1065.2
1714.88
-1759.22
-372.607
-514.09
728.182
-214.091
-514.935
190.661
299.273
-380.491
-1236.6
219.092
-775.171
-644.523
-650.25
1022.65
-372.403
-620.165
610.034
10.1308
648.003
-912.308
264.305
-452.038
146.283
305.755
-655.886
-687.836
359.629
328.207
-939.144
1415.02
-413.372
893.874
-480.502
-2222.96
5.43944
188.279
-548.623
360.345
146.568
1211.85
-96.7765
-558.331
164.314
-609.482
1503.41
-714.323
378.499
-474.838
96.3391
-257.845
257.845
986.763
399.515
1796.71
-1244.57
597.769
646.803
856.443
-48.7093
1306.47
781.733
-548.918
1352.96
300.422
307.65
289.3
-803.39
242.511
-673.006
236.415
-452.664
216.249
-232.171
583.737
-351.566
133.433
-365.604
-596.242
-573.476
1169.72
-359.537
522.82
-163.283
-1192.73
2045.55
-852.823
1306.34
-334.665
-294.293
78.101
-1985.97
813.472
1530.28
-845.456
-684.825
2005.21
-885.964
-1119.24
723.463
582.872
-245.195
481.61
-677.506
1138.97
-461.466
-777.092
1215.6
557.77
934.252
-1743.99
809.738
-536.578
-73.2328
609.811
290.806
242.67
420.181
-110.092
-310.089
888.421
-84.1782
-804.243
911.438
-548.293
-363.145
1589.52
-478.729
897.802
-1645.18
747.376
1082.28
882.755
762.543
-453.52
-309.023
-1060.1
-265.697
560.384
591.647
-1152.03
-445.21
492.992
-47.7811
589.224
-354.345
-234.879
-994.436
581.064
604.516
894.533
-454.044
1102.05
1419.76
-775.145
-644.611
406.147
-940.145
533.998
-1017.32
396.375
546.738
-1039.84
451.579
-508.645
57.0656
469.352
289.281
-218.612
-39.2332
-804.166
-887.06
1691.23
200.804
216.197
-230.011
445.015
-39.6594
-537.583
577.242
488.956
878.473
-1367.43
-554.119
331.393
964.245
-75.824
843.653
-1077.97
234.316
380.802
854.669
-1403.59
-444.515
842.641
1999.68
-1297.62
-702.064
268.849
596.001
253.844
788.216
83.8519
-967.157
883.305
1689.08
-1096.61
-592.47
-141.083
1907.11
-1883.28
-161.736
485.801
-627.079
141.277
-1029.6
534.185
495.411
-1749.22
556.49
-969.119
856.83
398.782
208.116
598.436
-277.093
-434.053
722.622
258.341
68.1765
743.192
-811.368
-1160.87
-870.815
2031.69
-533.018
1097.03
-564.012
-456.313
-213.293
49.8167
-1673.32
869.151
-866.416
-602.471
1468.89
-331.964
-300.637
632.601
369.359
-649.814
280.455
233.868
-612.752
303.72
220.865
-524.585
335.447
-602.04
621.099
-251.74
320.776
-474.914
673.269
405.137
-168.31
-377.698
-310.139
1226.8
-6.28518
-1220.51
1053.63
-428.041
566.508
418.302
-1791.08
869.115
921.969
504.718
545.845
-1050.56
-530.732
198.768
-266.602
1194.83
-928.225
-1601.43
1215.54
512.159
-1108.4
395.858
-17.3594
423.559
298.724
-722.283
379.17
-629.308
-29.2472
764.849
-735.602
-530.806
806.167
375.92
324.535
531.908
663.07
79.3409
-390.416
311.075
1058.85
-639.136
-419.713
500.437
-1679.36
1178.92
-1148.81
1769.55
-620.741
1731.75
-1132.86
-341.194
626.435
-1183.94
1267.8
410.421
-807.432
1613.39
-805.963
-242.645
-230.538
-910.759
1487.75
1832.58
-618.645
-1213.94
-412.101
676.636
-1326.89
-113.114
-34.6074
454.789
-682.9
-360.727
-1240.7
-231.555
465.423
914.673
-571.755
191.807
-1691.25
-72.7401
1763.99
-1061.9
528.885
580.047
-1195.99
615.939
911.86
920.723
637.786
623.456
680.834
243.841
-1134.32
456.809
-413.657
413.991
633.025
-521.108
258.604
-747.416
488.812
677.521
-340.043
-335.482
191.531
-593.78
220.277
373.503
-899.677
-745.5
1095.13
-2160.65
405.808
-696.373
-350.919
-712.417
844.344
575.412
-358.261
307.096
357.879
219.199
671.16
-890.359
528.795
610.177
-526.573
185.36
364.7
-610.672
-1099.43
-813.252
1912.68
-1809.7
159.015
1119.34
-1385.94
1165.06
-732.154
-432.902
-511.515
1366.18
-1509.44
636.668
872.77
-244.982
-203.909
448.891
1441.63
563.58
322.487
-466.377
-494.917
-569.908
1064.82
-422.535
610.813
1600.47
-1141.74
-458.724
-771.379
319.06
651.604
407.244
-1638.36
422.397
1215.96
-209.456
513.175
806.755
793.711
200.396
-678.67
478.275
212.451
215.625
-294.504
-110.376
404.88
472.173
2.36579
-474.539
-1639.32
589.193
-1608.42
1676.06
-67.64
11.7975
-1620.22
1068.75
752.057
-328.498
-804.062
-213.261
-1148.54
-241.302
-317.818
696.988
-1832.34
-629.055
1220.7
208.645
771.296
-1345.26
-685.706
-472.995
598.609
-331.108
-1020.37
1363.18
-1951.87
588.685
653.54
1303.08
471.143
-1.4497
727.963
704.844
-1432.81
-651.643
346.162
305.481
432.693
-100.246
-332.447
161.908
282.943
177.325
-460.269
-579.162
1156.4
469.623
-608.494
-467.093
-409.214
876.307
-352.251
183.211
-469.28
174.069
-310.222
-719.374
534.45
-101.757
-575.723
981.869
520.472
-256.963
-263.509
462.26
-793.036
-654.581
429.692
-1137.92
-837.371
1192.59
-575.541
466.39
275.092
-443.227
87.9996
1043.93
-284.726
559.222
-274.496
-517.238
1585.99
-714.142
229.861
385.877
-615.738
215.479
470.264
-18.2323
-452.031
-256.152
-213.128
930.693
1116.91
572.177
-871.652
946.326
-74.674
-351.066
106.084
-724.516
297.553
-633.612
317.955
359.565
823.959
-1234
410.041
788.889
-818.137
-952.695
-559.378
1512.07
-154.376
456.255
-528.855
254.123
1325.07
768.294
-567.898
1316.39
-691.637
496.564
-691.56
-419.953
-429.177
-385.696
814.874
509.065
-857.222
-440.687
83.4409
357.246
-321.286
580.274
741.929
-336.121
-251.797
-179.137
430.935
-501.463
153.603
347.86
1473.89
80.693
-1554.59
-757.61
1362.13
-1157.34
-468.381
542.693
-156.817
1164.71
-375.82
1090.49
499.029
702.564
-413.264
-892.255
-531
-1341.5
-30.7912
997.671
-966.88
601.215
322.524
-923.739
-317.48
-235.353
-717.295
409.239
1635.78
-170.165
363.703
361.826
-725.529
-1857.37
-2124.17
1531.42
592.752
-2041.04
348.623
356.913
540.28
-897.193
-468.109
1034.62
-390.746
-675.626
1066.37
-2047.04
1401.83
645.209
602.648
-993.394
58.9797
392.6
394.195
206.823
248.543
315.887
959.561
862.804
692.578
-331.925
-360.653
-299.981
633.966
-333.985
582.642
537.447
569.691
524.422
-1094.11
-801.126
-708.311
763.271
401.439
-424.234
704.689
-1202.07
1624.47
417.116
-1092.74
-320.069
540.934
-1398.05
881.054
516.994
-717.199
-362.173
-817.809
376.744
441.065
454.818
724.702
-1179.52
1081.63
-576.915
-394.947
663.119
-268.172
245.642
274.83
-473.995
-439.595
913.59
-249.049
551.802
-952.184
400.381
-493.765
605.699
-1695.68
431.396
676.978
-1108.37
532.281
85.3444
114.581
-2230.63
544.094
-77.7045
1460.3
1790.83
-218.692
-1572.14
-442.881
1806.06
-2007.06
1206.19
800.872
412.272
350.271
-28.5183
872.862
-1298.47
724.995
-883.209
-834.907
804.116
320.986
49.265
-370.251
164.735
162.207
-326.942
1565.85
-837.89
-1320.23
-336.882
468.835
-190.773
-278.062
400.589
374.38
238.823
359.786
-8.77199
1013.66
-1004.88
376.11
270.887
-646.997
-740.801
1833.9
-1093.1
-349.575
750.164
-1224.03
-413.11
-929.334
489.74
568.38
-781.943
213.562
774.844
-386.971
-387.873
-420.608
-451.044
449.656
1075.53
1251.62
-671.571
814.322
-352.062
389.069
309.222
-261.926
-212.912
-202.977
625.638
415.282
-861.386
446.104
205.896
360.83
-566.726
-428.626
843.908
762.021
-1160.7
884.455
-60.4959
-501.585
281.174
773.94
-96.8611
1399.95
1905.41
-78.3434
346.123
-322.293
401.634
-1098.6
1089.83
614.933
383.24
391.605
53.4836
415.351
273.595
490.182
-375.404
-276.239
-528.033
-92.1318
-360.826
376.489
-15.6631
-263.013
-295.348
1019.11
-1556.92
537.805
-203.666
-180.268
-386.021
656.908
-1644.8
1605.26
-968.594
253.497
-673.45
590.309
1233.52
-1823.83
615.957
989.304
299.397
-1133.16
699.107
-290.181
-279.199
1382.53
-1458.47
829.016
629.453
406.634
-622.532
215.898
-354.599
479.458
-124.859
366.075
106.098
1742.99
470.533
-258.083
564.239
-1719.99
1155.76
-92.2276
398.216
349.293
343.285
-456.702
-621.328
1078.03
430.52
-875.036
-646.573
911.17
578.895
-250.161
-201.877
-445.321
-416.064
-313.058
-835.482
1625.58
-1625.58
-103.427
-1594.34
1697.76
297.206
292.018
-924.572
-564.064
1488.64
-416.584
986.274
-598.003
-1041.32
682.369
392.565
-1074.93
488.509
-167.733
578.63
1229.43
-1808.06
-1052.93
2116.95
-1064.02
-379.327
-304.683
-493.518
812.577
-1767.76
1616.7
151.061
1767.76
-1619.02
-148.735
-251.901
535.987
-284.086
-543.686
1634.18
1570.98
-1984.09
1078.74
-285.52
-248.99
534.511
250.994
-571.064
-702.019
277.784
1356.93
642.751
584.288
493.476
-1077.76
291.46
411.103
880.878
508.832
-1389.71
536.753
-1031.67
1591.13
-572.02
-777.191
-371.775
-110.656
482.431
-497.965
1222.67
-753.625
339.104
374.287
355.496
265.607
-621.103
606.491
842.979
-608.663
274.318
672.008
-250.161
-319.603
-226.392
545.995
1177.08
-669.338
619.206
471.606
-1090.81
-1145.83
1145.83
-392.355
775.594
-293.605
-479.189
772.794
486.343
458.021
-944.365
392.68
-686.285
623.475
-881.04
257.565
-374.144
-504.086
1088.37
-670.591
-718.079
1388.67
-382.555
934.357
-1567.13
681.165
42.7425
-408.704
365.962
-498.068
698.874
247.458
336.279
175.882
312.627
-512.7
222.519
1890.36
-1987.22
278.008
-703.509
448.554
-833.358
384.803
-917.987
1418.33
-500.343
-437.19
-492.145
607.857
1133.75
-1741.61
-727.694
348.368
-466.563
1049.2
-774.273
1048.59
-386.089
-641.174
-476.159
718.67
547.438
-361.189
916.864
-302.053
-199.41
1612.48
-1831.17
-352.624
-599.559
-334.269
487.872
252.797
-583.905
-187.146
1066.65
-785.476
223.454
-282.232
-290.953
573.185
404.256
-884.269
480.013
-497.095
-447.437
-679.245
-332.455
566.566
-234.111
-452.101
-418.87
-319.903
-204.682
-380.026
645.632
-449.648
758.87
-1086.83
630.132
-1413.08
546.664
-27.7548
-1855.17
1882.92
578.843
-456.767
1215.68
-686.794
97.9767
-97.9767
678.718
-434.069
1042.2
-1640.2
-1167.88
-956.298
298.49
335.476
888.385
725.009
-485.999
-309.488
795.486
1675.58
-1703.33
-437.734
358.716
222.451
1150.5
-531.297
-951.3
1563.63
-612.329
454.298
-247.476
387.392
376.076
-763.468
529.114
483.955
-1013.07
-337.899
677.002
-38.7119
1929.07
1594.85
1001.21
-1715.53
733.665
-1190.82
457.154
-501.095
1381.97
846.115
-1357.63
-547.471
261.951
800.773
-410.803
563.592
-1202.72
639.125
-649.743
-1225.13
-702.47
1927.6
-210.865
548.084
-337.219
-170.976
283.179
-494.044
328.983
381.347
-710.331
-1496.91
767.809
729.101
888.551
-1447.93
839.005
-438.053
226.802
-373.045
-579.907
260.304
-655.518
-742.53
706.598
513.728
-1220.33
403.11
-208.505
-194.605
562.501
-972.219
-562.948
-427.849
725.402
-838.856
-1168.2
-1452.45
506.529
945.916
15.5682
-624.245
335.153
289.091
-1323.67
1058.83
264.839
-622.683
-464.151
-676.13
929.974
410.91
-210.51
-200.399
516.301
988.323
-1504.62
987.135
-509.687
159.908
349.778
-394.55
675.311
-397.303
-517.446
183.177
237.309
-1534.93
542.564
539.069
-740.983
242.915
165.095
-467.148
381.56
-828.996
1968.38
-1203.87
-764.504
406.28
-664.877
258.597
274.976
323.182
132.051
-455.234
-566.608
199.93
270.603
-702.268
1388.75
-686.486
432.301
463.6
-1180.8
272.974
1877.6
-1023.84
-853.761
793.271
-521.167
188.712
1413.57
-981.246
-432.324
346.108
-780.176
-624.04
1740.95
622.673
628.945
326.059
-5.07211
280.364
-1146.91
1741.41
-594.496
-1778.61
827.307
1761.83
-1691.44
-70.3933
-667.211
253.554
565.526
-705.955
229.796
1419.28
-573.17
401.947
440.694
-1876.57
1433.69
538.238
-415.401
-122.838
221.124
-541.027
-276.755
-179.558
-359.089
708.383
-575.755
203.981
609.467
563.115
-1172.58
1123.29
-1967
843.717
171.873
313.229
-1718.49
1679.77
327.653
-740.917
-166.057
392.86
757.506
689.784
-1447.29
1080.1
-1086.39
538.043
-1114.96
-643.057
259.241
383.816
516.042
-295.765
-607.372
-1032.83
307.676
-726.546
-918.859
193.485
170.743
232.367
380.732
305.87
-686.602
-632.395
-843.643
-988.695
502.431
-1069.04
-277.822
483.226
544.422
648.172
-227.685
-66.6084
-410.956
710.353
283.093
-1212.37
579.978
1321.45
-563.946
454.75
-1017.7
-329.442
161.865
376.373
1031.53
559.607
-1719.08
1615.66
1634.59
-567.524
-1067.06
1924.56
-1912.88
-11.6745
197.966
-520.258
-336.084
559.538
-766.33
-318.19
-349.021
1027.21
705.781
-1507.77
801.991
361.537
-26.0526
1638.53
-1083.06
413.721
-1239.27
462.078
-60.0542
1533.95
1211.67
-478.003
-457.285
-52.4014
-266.726
743.174
-1968.3
-723.093
350.203
-543.957
193.754
132.86
-417.586
1150.32
678.355
-1828.67
-596.575
181.174
949.81
-1513.87
-218.452
688.659
-470.208
892.351
1107.65
-742.677
1365.35
594.147
-477.825
-116.322
-355.718
1184.73
1047.36
-1982.87
935.506
-1184.1
555.043
1505.39
-594.218
-367.404
-159.169
-1255.23
583.657
1174.69
-104.381
956.521
784.307
-1740.83
-221.552
587.036
-1558.39
971.352
495.664
922.769
-1418.43
621.653
599.049
380.909
-1115.12
561.325
1118.85
926.219
-435.595
-490.624
-1195.95
-1770.95
-6.7872
-1712.3
-212.087
-410.446
1625.88
-633.449
-992.43
-499.815
1137.6
-1332.42
646.231
686.187
-1376.3
1457
-1345.02
602.347
1536.85
-392.324
-562.712
195.307
-1485.51
243.402
176.975
220.452
373.695
434.987
398.684
-833.671
515.093
-946.137
909.227
-1461.41
-691.585
238.563
453.022
-1050.24
471.078
-472.738
874.685
707.159
35.0326
-523.313
186.093
-893.263
-1329.7
-728.28
356.057
372.223
412.758
-735.323
322.566
-486.335
-194.681
-692.034
726.202
1556.09
-599.571
817.837
748.016
1358.8
-849.963
-979.644
-578.745
-810.87
434.915
375.955
-1050.72
-654.965
310.281
344.683
-1443.93
-305.292
-803.933
404.345
399.587
-647.133
391.191
255.942
-677.187
279.884
419.978
493.612
397.03
446.878
484.845
391.462
602.849
-983.34
676.222
480.174
458.843
362.256
-821.099
1644.86
-1087.39
-557.473
-512.665
-283.14
-1040.53
460.193
354.681
417.391
600.327
-1017.72
-1396.34
762.888
-543.995
1159.93
358.065
-75.1212
419.411
-879.046
459.635
-1898.07
303.737
447.111
-738.01
290.899
-188.578
414.477
-225.899
-674.05
316.122
357.928
-686.891
326.238
377.798
397.796
617.995
-1034.58
762.789
669.461
-1432.25
447.013
631.017
343.815
397.605
-741.419
415.238
334.926
604.906
671.607
403.926
589.283
-1022.73
433.443
-1682.69
1196.38
486.305
1713.22
-545.13
629.345
-1162.91
533.566
-652.932
352.295
444.753
-948.924
504.171
745.017
-446.293
357.513
350.87
563.632
-916.256
660.059
-1270.3
610.238
369.286
741.474
-1239.44
776.817
517.59
-1294.41
479.253
416.573
-895.826
-509.115
-943.33
-311.052
640.035
360.163
547.468
-907.631
338.861
338.142
-508.641
1960.52
441.561
-859.751
418.189
-927.046
-816.945
-761.794
373.921
-1221.3
447.025
-1746.45
1619.02
127.428
1763.38
-1616.7
-146.686
-797.384
-605.508
271.984
333.524
-1761.83
1984.09
546.717
799.176
-1345.89
447.185
722.532
696.194
391.83
-1088.02
-74.6176
1633.37
-601.842
389.696
825.983
-659.297
332.513
326.785
-384.995
-298.096
543.738
-230.136
443.858
285.573
-678.39
392.817
271.089
-591.948
-288.369
450.398
-1047.63
597.232
544.081
1100.78
374.12
602.278
308.9
314.342
-623.242
1629.08
-923.304
1710.36
-1537.38
-172.976
-334.419
-836.735
420.671
862.571
-1081.02
-619.506
285.521
-1098.42
1642.5
-1588.61
-77.5448
1666.16
-347.522
-356.475
-376.61
543.826
606.677
-512.312
-31.2505
-560.355
518.19
-289.052
-229.138
1753.56
-1303.9
-637.288
305.06
332.228
412.322
363.833
742.414
-301.812
-405.737
-1763.38
1703.33
467.684
-1115
647.311
-42.76
1658.42
575.865
482.141
-1058.01
101.937
1155.26
-1468.32
-14.1303
-1883.94
234.104
-610.196
313.116
297.08
-967.292
616.373
-912.018
474.828
-1142.65
679.57
463.078
362.929
275.125
-761.124
-314.734
1233.47
894.63
709.136
-1198.32
465.069
733.253
502.542
707.148
-1209.69
-361.386
-252.821
423.564
-974.563
445.954
528.609
20.9934
-1897.57
1095.41
-471.931
-493.476
566.399
-1394.51
828.116
-424.662
809.465
-412.328
499.335
-854.171
1784.86
423.958
-191.592
214.18
-176.811
-250.96
427.771
1910.78
-508.944
-1700.93
1065.01
-606.998
308.902
-1028.04
559.93
-318.974
553.209
912.399
-1465.61
-1116.45
440.316
-20.8038
-1966.41
1714.42
-667.056
-545.324
468.287
-1204.56
736.274
192.879
218.03
-285.011
777.741
710.01
850.305
826.929
-464.673
1098.7
-478.59
490.116
-199.345
-290.771
-1944.84
-719.992
-324.623
-602.125
-2.5591
604.684
478.409
-278.479
569.89
1059.2
-807.126
938.365
1259.06
-432.39
-204.702
-234.549
439.251
947.071
-894.046
-336.847
-1082.13
617.975
1571.64
-803.827
546.232
942.403
-391.539
746.738
-355.199
1143.38
-278.551
322.016
1365.58
-714.089
-226.056
455.908
-1213.34
757.43
-1001.78
-111.417
1113.19
447.611
-969.433
521.822
181.088
462.153
464.066
762.869
-91.7092
866.289
-432.942
1197.04
-805.207
560.271
-1481.89
921.618
-1225.51
1815.82
-433.188
-1521.24
886.766
-1417.77
-304.931
-417.352
1473.53
-1540.94
795.44
1504.51
207.967
282.15
-352.351
-1746.45
-305.29
-1010.27
1580.16
-1776.39
1776.39
1570.98
-1016.47
-643.881
-335.097
376.529
609.746
-363.941
-360.78
-1404.31
903.216
1133.68
607.725
1220.66
1803.76
-1225.13
-613.324
279.063
1675.28
-1935.58
260.297
823.985
-1282.71
1559.07
-569.764
783.622
313.408
-330.006
563.245
802.939
661.408
1370.28
-214.926
-452.383
-349.94
498.595
-339.829
479.565
743.102
-293.178
-162.056
-323.963
574.758
-250.795
25.8451
-380.19
1116.01
-1736.75
-434.935
-482.889
-573.012
875.618
696.017
-1613.69
911.418
-459.185
-620.983
-521.469
1267.72
331.021
1739.9
-1718.9
-1675.58
1912.88
-1576.02
844.774
731.242
-359.302
-1815.41
928.352
591.575
827.709
-405.016
1812.7
-689.415
-405.83
676.25
430.935
-1107.18
-1113.9
451.317
760.351
-1631.07
481.542
907.212
182.997
-413.705
230.708
-1599.82
-386.914
-421.962
994.836
-675.25
1458.63
-964.202
1856.55
247.147
-547.664
508.894
-300.927
482.918
899.056
551.512
985.334
-470.392
-435.873
582.171
891.354
-1402.51
-41.416
1585.96
-837.946
527.411
977.097
-1492.31
-1119.79
1775.12
-1244.39
-530.731
1220.54
-324.669
-895.873
-198.055
466.344
-268.288
-466.069
-255.675
442.775
-187.1
152.341
-405.162
1734.2
-1740.99
-452.524
-539.51
-908.419
456.138
-213.094
-243.044
635.684
-447.358
-357.295
-305.663
662.959
-940.032
383.393
-1182.04
682.226
430.144
-634.539
-448.522
1586.84
-861.831
535.756
-465.539
-577.193
-470.437
114.005
-107.794
-6.21065
-1101.73
414.938
-673.03
-1042.52
1715.55
-595.49
-1440.81
722.732
569.757
-1612.09
1042.33
-374
-485.684
148.033
532.8
-1274.17
752.7
546.824
1012.24
-2144.7
1003.84
1140.86
-347.542
144.169
-128.377
-15.7915
1493.92
-369.075
457.425
1198.54
590.535
914.852
574.032
535.65
-1109.68
172.604
-433.241
-1691.44
270.407
1133.77
-612.526
526.243
1021.69
-1547.93
1100.73
-1658.2
189.951
694.504
543.852
-880.698
-1093.1
-172.431
432.374
-259.943
-590.764
-420.676
-643.35
-624.964
339.953
-1637.27
949.449
-484.864
220.319
-411.911
547.13
-313.026
-601.125
1210.82
-1275.39
923.324
352.062
-1035.8
-351.439
-761.366
-829.696
1705.31
-484.894
1796.5
-1585.63
-210.872
-1570.57
1025.48
545.09
-730.071
-246.084
428.39
-182.306
-588.865
389.954
281.27
-671.224
-532.291
989.664
642.887
-357.366
-1632.8
1057.26
578.582
1111.69
-1690.27
-403.509
-301.845
-372.205
-750.107
-461.789
-336.756
512.638
1573.45
-1003.69
-782.648
1512.81
673.694
-314.979
734.141
1158.07
-1892.21
274.776
299.613
-495.337
-1953.52
1739.29
214.23
752.088
-482.177
-269.911
538.657
1068.18
-1606.84
114.005
-1726.43
-235.404
1766.83
-1593.02
1082.68
510.337
-1727.09
0.666325
-530.12
144.169
1718.49
-1739.29
948.822
632.768
-1581.59
375.691
-219.085
-156.606
-400.104
-277.083
69.4109
79.5018
-325.586
-441.287
-439.753
-417.458
228.879
1522.25
385.06
-223.664
-423.469
473.57
-202.967
314.446
1523.92
1047.52
-186.381
-861.137
-1113.35
1721.2
-1746.38
1073.35
-715.872
-1030.51
-1273.42
1859.79
-586.363
1164.76
-1787.87
623.105
255.959
-886.146
1691.81
43.6226
-1735.43
-497.867
-1089.92
-1734.2
-996.165
560.293
1026.05
597.176
1141.51
-1738.69
295.605
-452.421
716.923
-390.685
365.155
934.116
689.537
-386.887
-635.839
590.019
1080.29
-1670.31
-402.029
-378.859
780.887
419.116
-1679.77
1537.38
142.394
592.531
-1059.09
550.093
1092.41
-1569.91
1000.15
-244.275
244.679
314.859
1924.56
407.397
-89.9944
999.772
731.086
-1730.86
-703.546
1092.41
-1571.14
172.096
-577.863
203.117
270.453
-652.241
-569.056
590.402
1042.97
-716.972
-269.24
-1386.27
683.969
702.299
-426.047
789.654
70.4923
-860.146
570.314
-138.484
1572.17
-224.578
266.321
-778.052
-1953.52
1679.31
1031.52
146.283
298.951
446.066
-941.409
-1003.43
-1782.07
649.194
1708.87
519.683
-481.972
1225.07
1096.83
-433.146
1042.89
-993.449
501.852
491.597
708.317
1058.33
-1766.65
495.062
486.807
-1508.1
-758.267
32.1843
793.671
-419.75
-893.989
400.513
-546.679
-810.95
357.903
-585.576
1413.69
1065.26
198.214
234.161
-558.328
1632.77
-781.298
1544.09
-1743.26
581.965
1161.29
554.028
-897.035
-1750.49
1935.58
-185.085
1733.91
187.864
-551.176
272.916
-193.414
-489.088
1225.36
574.954
1138.26
-500.073
444.126
872.253
-470.719
-786.363
427.992
358.371
1434.55
1099.77
-526.775
1438.19
-520.538
-528.65
1049.19
-609.983
475.909
-1208.06
1710.36
1853.47
-695.406
1603.02
-654.198
-1256.38
724.093
-570.691
194.622
-363.147
462.91
-247.284
-526.264
-1256.07
1886.21
-630.144
1188.96
-559.612
1129.59
-1674.72
1707.88
-581.359
-552.673
-556.285
1735.21
-321.221
-697.144
-481.083
1238.51
-1701.27
-1875.46
619.391
302.337
-951.045
174.487
219.841
-1734.16
1212.63
521.532
1169.37
564.541
-517.93
-473.669
1206.92
180.506
233.971
595.287
1258.18
-544.432
-1247.14
1791.57
-1035.6
1012.15
865.449
-205.758
-1675.28
1718.9
-518.641
1425.85
-1750.49
-373.679
21.4157
352.263
-273.826
596.571
-322.745
70.6976
497.619
794.333
-381.576
1265.11
1284.22
-421.645
865.742
-445.071
1834.2
-669.435
1601.41
-1739.9
-416.811
-738.989
301.333
437.655
-567.571
-571.585
84.11
-1144.21
-994.955
-677.838
1672.79
-946.198
-1198.51
157.485
-406.475
-654.216
712.45
1177.11
657.085
1426.8
-599.094
1657.24
1334.13
-581.433
-504.349
203.422
-511.793
1410.85
1256.05
-572.08
-981.354
906.288
53.96
-960.248
604.746
-514.577
1417.79
1511.61
-596.761
-112.711
112.711
-597.17
1639.5
1254.24
-493.891
1142.3
-69.389
1853.43
-405.024
1506.22
-596.992
-516.499
1361.27
-661.245
1234.55
-573.306
1571.29
-599.937
748.743
582.461
-1331.2
-652.124
282.635
485.659
608.065
-1970.03
-986.446
1601.41
113.971
-113.971
-76.8229
395.551
443.453
373.836
-7.76023
-340.681
893.912
-524.626
-432.014
827.566
-249.405
633.221
-431.855
1549.34
-452.854
-888.643
193.386
231.576
-424.962
607.842
1258.39
-1866.24
940.915
-466.088
-107.794
127.21
-1959.89
1832.68
-461.711
192.673
1195
-449.004
-745.992
-314.985
-579.004
-498.281
-128.377
-491.695
262.557
1174.04
-567.365
234.728
-392.667
157.939
-14.3721
-113.026
1146.39
-1033.36
29.7264
-557.759
-593.874
-167.255
167.255
-1262.86
1993.95
-1353.73
-223.818
-1826.28
240.645
-1033.07
-981.266
-191.722
-1656.7
715.291
1239.12
-1941.59
378.17
315.422
-693.593
-1865.09
1243.7
621.381
-264.729
264.729
-966.819
-23.086
-1883.28
-564.586
1665.36
-684.952
1652.39
-609.424
-177.188
-1706.76
-596.927
-440.038
-601.747
-178.747
178.747
-1550.69
196.627
1354.07
178.522
229.443
-407.965
526.22
521.297
1011.18
-482.569
1764.66
778.837
-338.636
322.845
527.713
1718.13
-602.114
-559.05
1651.46
482.18
1829.17
-652.062
-1823.23
-1951.93
-654.116
-188.764
188.764
-590.134
240.194
-688.011
1033.55
-473.618
-1084.66
-287.642
1374.39
1866.03
1649.83
-1649.83
-281.727
748.95
1777.04
601.547
1284.67
174.751
200.94
580.539
592.372
1387.08
-1387.08
228.156
-357.153
-439.421
468.667
965.622
-463.771
-645.295
-1139.5
1721.47
286.412
-1654.51
613.196
-294.628
482.492
1760.13
-598.84
-216.664
-415.883
388.593
730.256
1754.23
-620.546
-518.2
-775.669
1975.73
-877.651
-1098.07
1657.55
-713.574
1233.22
-1840.46
607.245
326.821
-874.485
-187.658
-48.5576
1112.46
-494.487
123.263
619.97
-1652.8
450.023
607.089
-1823.23
-589.895
1802.53
892.58
-1171.72
1775.97
-604.242
1799.03
-582.021
-1217.01
447.466
935.978
-1740.99
931.857
-1494.09
260.355
1233.74
-843.316
-1263.54
-292.312
64.8692
227.443
588.411
275.856
1036.77
-453.566
860.133
-406.567
831.019
746.881
-1577.9
651.201
1077.88
-17.2508
-636.551
653.802
-1762.1
731.587
703.11
149.081
-1130.96
1952.61
-680.704
-1271.9
-544.276
1682.54
834.74
974.562
-1809.3
1237.53
690.071
-407.165
723.287
853.621
1042.62
-595.013
1777.04
631.861
1788.84
-1194.38
-594.456
-376.537
-322.916
699.453
128.442
-1193.64
1676.29
-546.701
-1204.9
1204.9
1258.66
601.125
1362.02
211.428
-570.372
288.51
-198.531
706.154
1123.02
493.576
-313.07
-878.548
-582.865
1740.32
-1740.32
789.305
-789.305
995.227
1033.07
-2028.29
1853.37
-620.15
-587.875
819.641
-955.244
-1060.25
1008.28
698.957
-1707.23
-218.612
-345.164
-648.23
-815.373
2059.08
-1255.77
-619.687
1010.91
982.546
1299.91
652.7
331.928
1020.48
234.693
340.767
953.817
1772.04
-1772.04
676.499
50.2068
-313.716
-1004.56
-549.354
1691.66
987.149
1012.85
-1848.58
-228.984
-367.943