/*--------------------------------*- C++ -*----------------------------------*\
  =========                 |
  \\      /  F ield         | OpenFOAM: The Open Source CFD Toolbox
   \\    /   O peration     | Website:  https://openfoam.org
    \\  /    A nd           | Version:  7
     \\/     M anipulation  |
\*---------------------------------------------------------------------------*/
FoamFile
{
    version     2.0;
    format      ascii;
    class       volVectorField;
    location    "28.5";
    object      U;
}
// * * * * * * * * * * * * * * * * * * * * * * * * * * * * * * * * * * * * * //

dimensions      [0 1 -1 0 0 0 0];

internalField   nonuniform List<vector> 
20933
(
(0.997624 -0.000237332 7.85917e-24)
(0.990359 -0.000740025 1.37738e-22)
(1.02818 -0.00378273 -2.58781e-23)
(1.00028 -4.76314e-05 -1.89459e-24)
(1.00069 -0.00950857 6.28952e-23)
(1.00033 -0.0101024 -6.15833e-23)
(1.04883 -0.179754 -8.16015e-22)
(1.1059 0.0726554 -1.39617e-20)
(1.00787 -0.0887752 -1.99969e-21)
(1.11154 0.0736728 1.00165e-20)
(1.06043 -0.160552 -2.39984e-21)
(1.21066 0.128835 -4.39096e-22)
(0.985309 -0.0570722 -3.08793e-22)
(0.997461 -0.000283433 -7.90374e-24)
(0.995627 -0.00340254 4.70691e-23)
(1.00027 -5.87695e-05 -1.68215e-24)
(1.28855 -0.0114811 -5.58314e-22)
(1.12015 0.00187989 -7.36814e-21)
(1.00749 -0.135063 -1.41224e-21)
(0.992514 -0.000354568 -1.20295e-22)
(1.02158 -0.102085 2.64491e-21)
(1.20624 0.128128 -8.06604e-22)
(1.11393 0.0799546 -7.53962e-21)
(1.15617 -0.199362 -1.61769e-21)
(1.02618 -0.00173529 4.65604e-24)
(0.99196 0.0873242 -2.29268e-20)
(1.00965 -0.002828 8.58105e-24)
(0.994512 -0.061621 1.02617e-21)
(1.21014 -0.181187 -1.49561e-21)
(1.01047 -0.136453 4.95733e-21)
(0.998664 -0.00225157 -8.06103e-25)
(0.945396 0.0147171 3.54095e-20)
(1.14674 0.122296 5.97962e-21)
(0.991804 -0.0354186 1.08719e-22)
(1.00004 -0.00169637 6.59967e-24)
(0.998721 -0.00243521 -2.48143e-24)
(1.09811 0.0918299 -1.5212e-20)
(0.999928 -3.66527e-06 -2.98472e-24)
(1.01592 -0.0206972 6.71603e-23)
(1.13104 0.00378693 -2.49265e-21)
(1.04411 -0.00872926 3.62352e-23)
(1.11268 0.148404 1.07223e-20)
(1.03462 0.0452225 -6.51868e-21)
(1.0086 -0.00328197 -7.10314e-24)
(0.991705 0.0838538 9.07445e-21)
(0.979126 -0.00149335 6.99113e-23)
(1.10095 0.0109215 -2.13162e-20)
(1.26184 0.0687748 -1.54205e-21)
(0.999617 -0.000100185 -2.27582e-24)
(0.97199 -0.049934 1.44423e-22)
(0.999937 -0.00180469 -1.6325e-23)
(1.08122 -0.00923392 1.46607e-21)
(1.20872 -0.111922 3.85776e-21)
(1.00034 -0.00404924 -2.34638e-23)
(1.24982 -0.110698 -1.00949e-21)
(0.947987 -0.018567 -9.98355e-23)
(0.97748 -0.0330135 4.14867e-23)
(0.998519 -0.00293515 8.94166e-25)
(1.01123 -0.0513205 -1.18769e-21)
(1.28405 -0.00725618 5.0062e-22)
(0.973869 0.0300117 1.91815e-20)
(0.969557 -0.00431402 2.02983e-22)
(0.988998 -0.00332123 -5.58606e-23)
(1.12522 0.0730212 -6.43957e-22)
(0.99945 -8.27933e-05 1.47403e-23)
(0.995284 -0.00846933 3.24479e-24)
(0.994687 0.0602221 5.8305e-22)
(0.994724 -0.00884043 4.18136e-23)
(1.1328 -0.0780904 -5.77416e-23)
(0.997984 0.0888233 8.56053e-21)
(1.04425 -0.0452126 -1.64372e-22)
(1.2966 -0.043132 -1.34049e-21)
(0.996033 -0.00341698 -1.23405e-23)
(0.983218 -0.0415121 9.40286e-22)
(0.999751 0.00933499 -8.57681e-21)
(1.084 -0.0902567 8.58234e-22)
(0.998313 0.0829904 3.96752e-21)
(0.960926 -0.00495413 7.8096e-23)
(1.12881 0.00242828 1.58694e-21)
(1.00307 0.0330029 1.25336e-20)
(0.996217 -0.00882811 1.29104e-22)
(1.00231 -0.00479865 -2.21337e-23)
(1.1903 -0.185328 1.20006e-21)
(1.00881 -0.0858658 1.6654e-21)
(0.972754 -0.00341195 -2.23484e-22)
(1.03222 0.0426142 3.14209e-20)
(0.98829 -0.0531441 -5.64663e-22)
(0.898787 0.0522917 3.34083e-21)
(1.12132 0.0682665 -6.07399e-21)
(0.977453 0.0882874 1.45671e-20)
(1.11498 0.0279191 -8.17413e-21)
(1.00034 -7.64646e-05 1.78801e-24)
(1.00004 -0.000330082 7.49097e-24)
(0.954643 0.00467817 -9.87702e-21)
(1.26748 0.0631588 7.78104e-22)
(0.989388 -0.00350694 -2.4605e-23)
(0.963399 0.00301727 1.51437e-20)
(0.999387 -0.00481958 1.83253e-23)
(1.06475 -0.154714 -1.03868e-21)
(1.07321 0.0157177 -8.31466e-21)
(0.97419 0.0906727 -4.31416e-20)
(0.97497 -0.0107717 2.84361e-23)
(0.96525 0.0828836 -4.71727e-20)
(1.19279 -0.102489 3.65845e-21)
(1.10808 -0.00311075 -4.20385e-21)
(1.11199 -0.0858657 4.92691e-22)
(1.02304 0.0993001 1.61283e-20)
(1.17738 -0.0848736 6.37746e-22)
(0.990175 -0.000423779 -2.33594e-23)
(1.0401 0.113104 3.64097e-21)
(1.21888 -0.183941 -5.01919e-21)
(1.04316 -0.17952 -1.84637e-21)
(0.976651 -0.025728 3.25915e-22)
(1.03634 -0.0233914 -6.80583e-23)
(1.08561 -0.0831248 2.50396e-22)
(1.00007 -0.000108826 -1.9826e-24)
(1.05031 0.0733687 1.53865e-20)
(0.996807 -0.00826071 -5.00275e-23)
(1.18605 -0.115765 8.61138e-22)
(1.00262 0.0251571 -2.95622e-20)
(1.00034 -5.68193e-05 3.39681e-25)
(1.03487 -0.105881 1.68867e-21)
(1.14839 0.0224912 -3.3517e-21)
(1.01234 -0.0588196 -1.6424e-21)
(0.991671 -0.0335736 -9.12606e-23)
(1.12123 0.00393798 3.79837e-21)
(1.17741 0.135125 -1.37316e-20)
(0.994199 -0.0592764 8.31495e-22)
(0.938991 0.0175067 -1.03273e-20)
(1.04599 0.0755946 8.24043e-21)
(0.990254 -0.0685993 -8.22701e-22)
(0.971592 -0.0479688 -4.72073e-22)
(1.04423 -0.00453019 1.44078e-22)
(1.01499 -0.0190519 -1.70157e-23)
(1.01805 0.0931362 -2.19398e-20)
(1.10443 -0.00583961 -1.07979e-21)
(1.23876 0.0836017 -2.54134e-21)
(1.02512 -0.102579 -1.11576e-21)
(0.980095 -0.0110035 2.79449e-22)
(0.993164 -0.0913258 3.69918e-21)
(1.03076 -0.109429 2.91922e-22)
(0.981536 -0.0429389 -9.27946e-22)
(1.29783 -0.0550219 -1.34785e-21)
(0.961741 0.0906339 -1.48986e-20)
(1.21572 -0.000629105 1.08392e-21)
(1.01701 0.0959075 1.98382e-20)
(1.15179 0.150001 -1.52168e-21)
(0.968174 -0.0113142 -2.05393e-22)
(1.18483 0.126294 -9.62414e-21)
(1.01092 -0.00378291 -1.5687e-23)
(0.968126 -0.0102826 4.02854e-22)
(0.999607 0.0871535 1.00242e-21)
(1.00006 -0.000286024 -4.79474e-24)
(1.00682 -0.0793978 6.32621e-22)
(1.00225 -0.00431399 3.814e-23)
(1.14816 0.153056 8.26513e-21)
(1.0281 0.0444389 -3.35092e-21)
(1.15062 -0.195786 7.42578e-21)
(0.943081 -0.0218017 2.24212e-22)
(0.984391 -0.0585077 6.47763e-22)
(1.25705 -0.119586 1.44063e-21)
(1.0532 -0.173228 1.25576e-21)
(0.998474 -0.00270551 -2.94548e-24)
(1.21271 0.00473769 -1.85817e-21)
(1.12275 -0.00272376 -6.88233e-22)
(0.901155 0.0545607 7.954e-21)
(0.976126 -0.0109609 1.79593e-22)
(1.18339 -0.193719 4.58093e-22)
(1.07921 -0.0925569 -9.85943e-22)
(1.09901 0.0879345 -8.97446e-21)
(1.24359 0.0834393 8.43217e-22)
(0.987222 0.0666908 8.96175e-21)
(1.06138 0.132386 2.4609e-20)
(0.988797 -0.0308066 1.81445e-23)
(0.920233 0.0142491 -1.18246e-20)
(1.1514 0.123582 7.17384e-21)
(0.996839 -0.000624257 -8.13573e-24)
(0.990882 0.00676939 -2.25586e-20)
(1.0922 -0.081004 -7.06384e-23)
(1.0331 0.117405 6.99685e-21)
(1.01238 0.101683 -1.00563e-20)
(0.99989 -2.60753e-06 3.641e-24)
(0.96013 0.0628111 6.35927e-22)
(1.05929 0.115315 2.09924e-20)
(0.991928 -0.000595054 8.69521e-24)
(0.943379 -0.0151786 1.12978e-21)
(1.04366 -0.0421826 1.44922e-22)
(1.07953 0.0120891 -2.13238e-21)
(1.1867 -0.108767 -1.34876e-21)
(0.930178 0.0467502 1.05279e-20)
(1.17541 0.131023 -4.7347e-21)
(1.25762 -0.0313915 1.15242e-23)
(1.06866 0.0117979 1.66975e-20)
(1.13108 -0.0713496 4.88453e-22)
(0.94347 -0.0229596 5.83002e-22)
(1.21074 0.0978486 -5.69203e-21)
(0.960946 0.0662569 -7.01846e-22)
(1.26166 0.0288687 -1.64404e-21)
(0.993807 -0.000229725 -6.28459e-24)
(0.926395 0.0461 -1.02906e-20)
(1.2325 0.0570097 -6.05856e-21)
(1.26191 -0.0829783 1.13102e-21)
(1.20651 -0.104718 -3.23938e-21)
(0.936694 0.0540553 -1.27055e-20)
(0.952922 0.0574523 2.97424e-20)
(0.962652 -0.0262806 -2.69484e-22)
(1.00066 -0.0434772 -9.55107e-23)
(1.08113 -0.00546177 -1.98245e-22)
(0.947846 -0.0202012 -5.61523e-22)
(0.998835 -0.000109658 2.23735e-23)
(0.996183 0.0618393 -4.26492e-21)
(0.988422 0.0223728 -8.12728e-21)
(0.966878 -0.014562 3.90851e-22)
(0.953066 -0.0365673 3.95574e-22)
(1.03506 0.114112 1.07688e-20)
(0.99916 0.0167234 1.2988e-20)
(0.998855 -5.43434e-05 -6.01801e-23)
(1.00149 0.0195409 -2.00425e-20)
(1.18168 -0.078953 2.681e-22)
(1.01609 -0.0167523 8.14247e-23)
(1.00589 -0.0636159 1.06298e-22)
(1.03177 0.069751 -1.67345e-21)
(0.952396 0.100329 1.39256e-20)
(1.11184 0.0250884 1.08072e-20)
(1.04142 0.10848 -1.75906e-20)
(0.978891 -0.0109338 -4.75926e-22)
(1.00295 -0.0428856 -4.59279e-22)
(1.00011 -0.000115692 8.50248e-26)
(0.999209 -3.79023e-05 1.21225e-23)
(1.00054 -0.00794006 1.2302e-22)
(1.14632 0.0195304 1.57374e-21)
(1.1496 -0.12185 -8.43505e-22)
(1.02508 0.0965155 -2.05569e-20)
(1.00285 -0.107016 9.8223e-22)
(1.0224 0.0361748 1.21176e-20)
(0.989814 -0.0512084 -9.95291e-23)
(1.10508 -0.0824429 -3.87812e-22)
(0.989606 0.0654178 1.60049e-20)
(0.957207 0.00369551 5.1122e-20)
(1.03288 0.066128 2.87138e-20)
(1.00081 0.0805384 -2.44467e-20)
(0.951342 -0.0357346 -3.48045e-22)
(1.10678 0.133141 -6.52392e-21)
(1.01335 -0.0569276 1.79601e-21)
(1.11179 -0.00491317 8.7247e-21)
(0.996634 -0.00743021 -8.62241e-23)
(1.28886 -0.0949721 -4.17136e-21)
(1.18527 -0.0502234 1.59408e-21)
(1.08997 -0.0271081 2.22423e-21)
(0.999648 -7.66431e-05 2.73353e-24)
(0.988466 -0.000588711 4.29181e-23)
(0.948349 0.102319 -2.14147e-20)
(1.1736 0.0497453 2.2834e-20)
(1.0153 -0.0222902 -1.31835e-22)
(0.968582 -0.0542451 -9.23932e-22)
(1.14317 -0.117428 2.80554e-22)
(1.09016 -0.188541 3.27894e-21)
(1.10801 0.147484 -1.35757e-21)
(0.994388 -0.0902062 -1.04568e-21)
(0.975191 -0.00181725 -1.57471e-22)
(0.997277 -0.070196 1.20414e-21)
(0.992563 -0.029685 -1.14545e-22)
(0.999409 -6.19008e-05 -7.04491e-25)
(0.988751 -0.0488142 5.13805e-22)
(1.05757 -0.172959 -5.84864e-22)
(0.961015 0.0869222 2.81326e-20)
(1.2775 0.0345796 5.53548e-22)
(0.978463 -0.0245369 -5.96138e-22)
(1.01995 0.0379144 -1.87047e-20)
(0.954518 0.0618879 -3.53716e-21)
(0.989027 -0.0552954 1.07873e-22)
(1.00066 -0.000281111 -1.12369e-23)
(1.00605 -0.082619 -1.13979e-21)
(0.995077 0.0568141 4.93164e-21)
(1.27215 -0.13738 -2.55149e-21)
(0.976108 0.0278079 -2.8932e-20)
(1.00004 -0.000123501 9.44648e-25)
(0.954999 -0.0403728 7.18629e-22)
(1.04926 0.132456 1.97771e-21)
(0.999415 0.015834 2.64086e-20)
(1.03463 -0.0785789 -3.00962e-22)
(0.978974 -0.0314956 4.10215e-22)
(0.934799 0.0915978 2.28325e-20)
(1.25317 -0.0672097 2.12165e-22)
(1.25087 -0.0359818 1.05376e-22)
(0.969206 0.084175 1.94519e-20)
(0.931877 0.0531736 -2.15059e-21)
(0.987619 -0.0572174 -3.39694e-22)
(1.04761 0.135252 -1.2832e-20)
(1.15444 -0.00634706 -4.04009e-21)
(1.00457 0.034177 -3.42379e-20)
(1.0654 0.0806118 9.35327e-21)
(1.00068 -0.000206003 1.41093e-23)
(1.28424 0.0373224 -3.1394e-22)
(1.09225 0.0846806 5.43963e-21)
(0.996771 -0.000536073 -1.852e-23)
(1.00152 -0.113064 -4.04718e-22)
(1.24738 0.032521 -9.79323e-22)
(1.16787 -0.186683 -1.32468e-21)
(1.23068 0.0508276 3.49705e-21)
(1.18898 -0.02908 -1.16764e-21)
(1.0001 -0.000190528 -1.66104e-24)
(0.999508 -0.00338499 4.81387e-23)
(0.978728 0.100469 -3.44678e-20)
(1.00126 -0.0143803 -2.58003e-23)
(1.01506 -0.13525 -1.18619e-21)
(0.991274 -0.0741668 1.19258e-22)
(1.20318 0.122984 -4.97841e-21)
(0.971946 -0.00418382 -3.95617e-23)
(1.03439 0.120409 1.23687e-20)
(1.2042 0.0193097 4.61052e-21)
(0.99466 -0.07081 7.01496e-22)
(0.958119 -0.00603297 -2.08414e-22)
(1.10384 0.0841261 9.79111e-22)
(1.19988 0.095166 4.21962e-21)
(1.00006 -0.000194688 -1.56281e-24)
(0.975669 0.0620748 2.87356e-20)
(1.04523 0.0794127 4.14184e-21)
(0.993037 0.0145705 -7.01235e-21)
(1.25192 -0.100169 -1.34339e-21)
(0.999495 -5.9129e-05 -1.17869e-23)
(0.936209 0.0879823 -1.50046e-21)
(0.996856 -0.00508592 -6.65528e-23)
(0.993365 -0.0541006 2.21076e-22)
(1.20657 0.0932939 -1.78192e-21)
(1.25389 0.0262702 2.08681e-22)
(0.980683 -0.0574995 -7.91212e-22)
(1.25333 -0.0777998 1.58512e-21)
(1.0256 0.042291 4.83418e-21)
(0.956265 0.00453617 1.8593e-20)
(1.00983 0.0920806 -2.60546e-20)
(1.17716 0.0249435 -6.54421e-21)
(0.910323 0.0192341 2.55102e-21)
(1.0003 -9.60386e-06 -1.15807e-24)
(0.990304 -0.0291833 -1.22587e-22)
(0.999907 0.00887589 3.48931e-20)
(1.21524 -0.151821 5.12904e-22)
(1.09151 0.0807627 -1.28428e-20)
(0.985468 -0.0420307 -3.83893e-22)
(0.994428 0.0818083 2.43739e-20)
(1.1896 0.000346902 3.01312e-21)
(1.0001 -0.00369848 3.0318e-23)
(1.18484 -0.00462599 -2.61902e-21)
(1.05048 0.0682128 -1.98274e-20)
(1.17635 -0.164266 -1.56168e-23)
(0.973732 0.00672085 -5.24741e-21)
(1.06555 0.12044 2.94248e-21)
(0.999334 -0.000302483 -4.29907e-25)
(1.03841 -0.0211384 -2.95995e-22)
(1.13699 0.103007 6.42942e-21)
(1.11847 0.00111047 1.4181e-20)
(0.998298 -8.7126e-05 6.50885e-23)
(1.06221 0.128755 -2.19693e-20)
(1.01368 -0.0504899 -1.45159e-22)
(0.890319 0.0528495 -1.34441e-21)
(1.02647 -0.10794 -2.16064e-21)
(0.966574 -0.0131365 1.52346e-22)
(0.989098 -0.000690936 -9.11285e-23)
(1.01097 0.0954404 2.90464e-20)
(1.05919 0.112383 -3.33297e-20)
(0.976082 -0.00260749 8.60385e-23)
(1.10191 0.0776509 3.43643e-21)
(0.977154 0.0840234 -8.40757e-21)
(1.00134 -0.0154342 -3.89218e-23)
(1.04734 0.00643333 4.87912e-21)
(1.02419 0.0180493 -1.36383e-20)
(0.898304 0.0293715 1.68639e-20)
(0.997286 -0.00424605 1.96056e-23)
(1.18077 0.102583 -1.03135e-20)
(1.18008 -0.0558758 -3.42799e-22)
(0.946736 -0.0180804 -1.98017e-22)
(0.999661 -5.72609e-05 -2.27475e-24)
(0.999793 0.00491853 2.10407e-20)
(1.11456 0.151959 6.27131e-21)
(1.25784 0.00284278 -2.19278e-21)
(0.987602 0.100562 -8.83123e-21)
(1.17196 0.0282556 3.2054e-21)
(0.975625 -0.0325586 2.94265e-22)
(1.10998 0.128639 -4.86492e-21)
(1.12162 -0.00153424 -2.29792e-21)
(1.16739 0.0460726 6.63487e-21)
(0.902132 0.0316794 -4.414e-20)
(1.02832 -0.0942089 7.60789e-22)
(1.21548 0.0848128 2.24289e-21)
(0.99146 0.0195062 -1.83822e-20)
(0.967107 -0.0551673 8.34593e-22)
(1.14883 -0.0176674 3.35405e-22)
(1.07239 -0.154563 2.42677e-21)
(1.13962 0.0983334 -2.85743e-21)
(0.994952 -0.000173802 -1.08409e-22)
(1.10525 0.0120279 -2.37157e-21)
(1.25824 0.010797 1.07167e-21)
(1.21815 0.0793482 5.3597e-21)
(1.00124 -0.00474164 9.02781e-23)
(1.09843 0.00812587 2.25907e-20)
(0.997656 0.0109246 -1.75938e-20)
(1.05246 0.0480614 3.55099e-20)
(1.16738 -0.181711 -5.38798e-21)
(0.99387 -0.0279822 2.54715e-22)
(0.940478 0.0497393 -1.47852e-20)
(0.945631 0.0170129 -3.79929e-20)
(0.997174 -0.00695326 -1.8339e-23)
(0.956855 -0.0394516 3.22674e-22)
(1.01716 0.0700282 3.83035e-21)
(1.02033 -0.141778 -9.73439e-22)
(1.09855 -0.0860246 4.18346e-22)
(1.10634 0.142544 2.03284e-20)
(0.990804 -0.000456304 1.13874e-22)
(0.894892 0.0265312 2.87628e-20)
(1.03616 -0.0700622 -7.90792e-23)
(1.17044 0.11031 3.4666e-21)
(0.990252 -0.0100037 2.33795e-23)
(0.996158 0.0111061 -7.50315e-21)
(1.06919 0.117446 -6.11406e-21)
(1.09004 -0.0212408 -2.39865e-21)
(1.11333 -0.0925133 -3.53201e-22)
(1.25828 -0.0243841 2.0628e-22)
(1.22987 0.0618449 6.14363e-22)
(0.999547 -0.00523914 6.49569e-25)
(1.014 0.0578585 -7.05854e-21)
(1.30273 -0.0362608 2.85295e-21)
(1.11561 0.0680671 1.49048e-20)
(0.892096 0.0557613 4.42012e-20)
(1.26199 -0.0945108 9.72196e-22)
(1.07478 -0.0796687 -8.78189e-22)
(1.0002 -0.00862973 -1.23705e-22)
(1.26212 0.0760236 3.54172e-21)
(1.26839 0.0230873 7.79224e-22)
(0.975114 -0.0250461 1.00311e-21)
(1.08933 0.131427 -1.98388e-21)
(1.00003 -0.00137287 -2.56956e-23)
(0.973351 -0.0441858 -1.64659e-22)
(1.01513 -0.0152175 -1.08519e-22)
(1.24455 -0.0626113 2.1592e-23)
(0.990036 -0.0468186 4.28563e-22)
(0.999617 -0.000130447 5.78077e-25)
(0.989022 -0.060965 1.32655e-21)
(1.21713 0.0968987 -2.91674e-21)
(1.17812 -0.173577 -1.97318e-21)
(1.05137 -0.0736522 -1.18104e-22)
(0.961035 -0.0269463 -5.63528e-22)
(1.23963 0.0307032 -3.46058e-21)
(1.18222 -0.0261206 2.39418e-21)
(0.974944 -0.0572124 -4.20048e-22)
(0.951591 -0.00868978 6.40699e-22)
(1.00091 -0.00495531 -1.47087e-23)
(1.13923 -0.0813465 1.0824e-22)
(1.03305 -0.152374 -1.56501e-22)
(1.01233 -0.00317057 9.26647e-24)
(1.03803 -0.0748948 9.70746e-22)
(1.19515 0.0910764 -6.68743e-21)
(1.05396 0.0444925 -2.16564e-20)
(1.21669 0.0137795 1.00685e-21)
(0.999303 -0.000253966 5.3324e-24)
(0.928072 0.0968454 -3.33771e-20)
(1.01248 -0.0016219 1.39345e-23)
(0.999951 -0.00148683 3.07527e-23)
(1.0415 -0.0104892 3.88772e-22)
(0.960976 -0.0398063 -5.27627e-22)
(1.01252 -0.0979888 1.27551e-22)
(0.956071 0.0534518 -1.75352e-20)
(1.02582 -0.0576204 8.4459e-23)
(1.14955 -0.0056699 -1.92159e-21)
(1.02687 -0.131821 2.24471e-21)
(1.02367 -0.134242 -2.90567e-21)
(1.10935 0.138488 -1.41318e-20)
(0.995523 -0.0547123 -3.69212e-22)
(0.993636 -0.0860304 5.96605e-22)
(1.00345 -0.111133 9.39096e-22)
(0.99971 -4.07533e-05 5.18655e-24)
(1.19063 -0.0939474 -1.88826e-21)
(0.918181 0.0920657 -3.173e-21)
(1.09235 -0.181731 8.41959e-22)
(0.958758 -0.0505109 -1.18404e-22)
(1.08866 0.125962 -2.61691e-22)
(0.981759 -0.054141 -8.33779e-23)
(1.0652 0.0758731 -7.78048e-21)
(1.18733 0.129657 -1.01252e-21)
(0.996383 -0.00544163 1.08316e-22)
(0.998703 -0.000159687 -1.84447e-23)
(1.04103 0.0722649 2.44113e-21)
(0.896105 0.0690443 1.44101e-20)
(1.07433 -0.181368 2.16908e-22)
(1.15739 0.142458 1.82992e-21)
(1.22784 0.100879 -7.70561e-21)
(0.965018 -0.0447234 -2.36016e-22)
(0.96501 -0.0470318 -5.6139e-22)
(1.01866 0.0731192 -1.04973e-21)
(1.10486 -0.0108112 1.65179e-21)
(1.18904 -0.176374 4.13638e-21)
(1.07618 -0.147265 -1.96175e-21)
(0.9802 -0.00153024 3.86869e-23)
(1.06486 -0.0152664 9.73702e-22)
(0.942908 0.0263583 -6.58739e-21)
(1.14772 0.0101262 -1.25027e-20)
(1.00028 -8.93153e-05 1.7635e-24)
(0.963937 0.0795886 3.04042e-20)
(1.0391 -0.0666055 -8.94689e-22)
(1.01405 -0.099741 1.63401e-21)
(1.05285 0.131021 -1.15709e-20)
(1.01802 -0.0247111 -1.28176e-22)
(0.989463 -0.00953681 -8.01838e-23)
(0.999349 -0.000448218 1.14466e-24)
(1.17071 -0.0694686 1.05932e-22)
(0.963194 -0.0203991 -4.02514e-22)
(1.00028 -1.58425e-05 1.98619e-24)
(1.16038 0.144664 -4.49772e-21)
(1.27417 -0.128364 -1.73278e-21)
(1.01195 0.0564785 -1.22013e-20)
(0.999352 -8.90877e-05 -3.86565e-24)
(1.00019 -0.00443122 -1.37098e-23)
(0.980595 -0.0555996 -4.06357e-22)
(1 -0.000107033 1.87239e-25)
(1.07588 -0.187022 -1.10372e-21)
(1.20816 -0.170158 -1.91994e-21)
(0.999611 -0.00443453 9.7946e-24)
(1.01026 -0.0781964 -4.86589e-22)
(0.944679 -0.0149937 2.85194e-22)
(1.05205 0.118748 -1.28303e-21)
(0.985594 0.0992728 7.16847e-21)
(0.996824 -0.00462417 2.11481e-23)
(1.00323 -0.00115358 1.31943e-23)
(0.999431 -0.105307 -2.41671e-21)
(0.981566 0.0901103 2.29475e-20)
(1.00501 -0.0353369 4.35922e-22)
(0.97728 0.0582285 -7.9435e-22)
(0.980923 -0.0121392 -3.43131e-23)
(0.890818 0.0430372 -1.20041e-20)
(1.04127 0.0144592 -2.66124e-21)
(1.14162 0.0642174 -1.49015e-20)
(0.909314 0.0548354 -1.31238e-20)
(1.29928 -0.0244764 6.6441e-23)
(0.990274 -0.00283122 -1.16611e-23)
(1.17209 -0.0553499 3.45484e-22)
(1.0096 -0.0365284 -4.78532e-23)
(0.9884 0.0897225 5.79876e-21)
(1.01752 0.063387 1.65714e-20)
(0.971023 -0.00790831 1.61591e-22)
(1.28103 -0.0909156 4.35032e-21)
(1.13336 -0.0240769 -2.73718e-22)
(1.07193 -0.0844516 -7.42434e-22)
(0.996069 -0.000273555 7.21011e-24)
(1.28942 -0.105632 4.12344e-21)
(1.00027 -3.89777e-05 2.87541e-24)
(1.04912 0.115106 7.23693e-21)
(0.943821 -0.0140604 -1.01759e-21)
(0.992555 -0.0684103 -2.36179e-22)
(0.995949 -0.0323611 2.60659e-22)
(1.00823 -0.0625107 1.76154e-21)
(1.16727 0.105348 1.05938e-21)
(1.21309 0.0194246 -3.74861e-21)
(0.998556 -5.00271e-05 -5.66822e-23)
(1.02886 -0.0552775 -6.42813e-22)
(0.999885 -0.000148784 5.17147e-25)
(0.892975 0.0399329 8.9654e-21)
(0.9477 0.0237573 1.35405e-20)
(0.995266 -0.000994303 4.06976e-24)
(0.971284 -0.0130656 -2.04165e-22)
(1.03734 -0.0404153 -2.19701e-23)
(1.01937 0.0665852 7.12506e-21)
(0.939704 -0.0231403 -6.22433e-22)
(1.23034 0.104855 -1.69431e-21)
(0.961036 -0.0517092 1.54824e-22)
(1.00539 0.091547 -5.20355e-22)
(1.14541 0.0687581 -1.68238e-21)
(0.962103 -0.0223145 -2.90521e-22)
(0.903699 0.0212447 -1.84429e-20)
(1.05701 -0.00264457 -8.70387e-22)
(1.01413 0.0969224 -1.55068e-20)
(0.992258 -0.0145387 1.29075e-23)
(1.0358 -0.161969 4.6226e-21)
(0.978993 0.00404275 -4.39506e-20)
(1.01628 -0.0459082 5.13906e-22)
(0.89358 0.0739126 -6.54004e-21)
(1.02874 0.0776257 9.10914e-22)
(0.906193 0.0238279 -4.41006e-21)
(0.990704 -0.00294053 1.00333e-23)
(0.992906 -0.000513396 9.06555e-25)
(1.03403 -0.100889 -4.85195e-22)
(1.18348 -0.0422888 -2.34781e-21)
(1.01662 -0.0245199 1.36346e-22)
(1.03258 -0.0909762 -1.62691e-22)
(1.01004 0.0856534 1.4058e-21)
(1.0042 0.0990748 4.82316e-21)
(1.04305 0.00274092 4.22494e-24)
(0.98467 0.0879636 -1.64024e-20)
(0.901048 0.0795389 3.58011e-21)
(1.1439 0.117897 1.17521e-20)
(0.999184 0.00545258 -3.01357e-20)
(1.04867 0.0374355 -6.84596e-21)
(1.00563 -0.0186161 -2.98441e-22)
(1.03775 0.074263 -8.04671e-22)
(0.991876 -0.0854711 -5.15067e-22)
(0.962883 -0.0504562 4.06004e-22)
(0.998677 -0.00125224 1.02147e-24)
(1.0648 -0.0847955 1.74528e-21)
(1.1334 -0.160265 -5.84571e-22)
(1.08823 0.0440095 5.65692e-21)
(1.09252 -0.00996005 3.00616e-21)
(1.00229 0.0288544 2.46379e-21)
(1.0106 -0.0535781 1.09255e-21)
(1.13603 -0.0143663 1.73767e-21)
(1.00341 0.0224472 -2.86986e-21)
(1.01094 -0.0382852 6.22552e-22)
(1.10968 -0.0972618 8.3105e-22)
(0.999916 -0.000175918 -8.14373e-27)
(1.00047 -0.000233776 2.41951e-24)
(1.08697 0.0397018 -3.52283e-23)
(0.993674 -0.0736652 -6.8378e-22)
(0.969323 -0.0470524 6.47102e-22)
(1.00052 -0.000223036 -3.59464e-24)
(1.00005 -0.00306564 1.89828e-23)
(1.13265 -0.0285557 -4.67189e-22)
(0.999509 -6.00701e-05 6.8159e-24)
(1.26568 0.0546418 -2.18524e-22)
(0.895969 0.0320257 2.32224e-20)
(1.1519 0.145118 6.94856e-22)
(1.12379 0.078516 -4.7106e-22)
(0.967452 -0.00766378 -2.41828e-22)
(1.03066 0.103133 5.63403e-21)
(1.25528 0.0810398 -1.99091e-21)
(1.00553 -0.0329146 -2.60462e-23)
(0.97172 -0.01467 -2.04846e-22)
(0.997286 -0.00392313 3.63028e-26)
(0.999296 -0.00039501 -1.46443e-24)
(1.0019 -0.00505207 -3.44139e-23)
(0.996668 -0.0344019 2.23423e-22)
(1.05353 -0.160047 2.57237e-21)
(1.10741 0.0969536 1.75278e-20)
(1.21156 -0.0401788 2.15954e-22)
(0.966285 -0.00347197 6.31374e-23)
(0.999894 -0.000113871 1.69264e-25)
(1.00076 0.0566522 1.6452e-20)
(1.27636 -0.00798194 4.54723e-22)
(1.28869 -0.0621038 9.58065e-22)
(1.01894 -0.0471855 -5.74174e-22)
(1.23424 0.0806522 3.24606e-21)
(1.06284 -0.0881471 -5.09817e-22)
(0.984864 -0.000830015 -4.91784e-23)
(1.00199 0.0175688 1.44124e-20)
(0.980583 0.000744739 -5.66609e-20)
(1.07272 0.143505 -1.50479e-20)
(0.990843 -0.00037557 -7.20196e-23)
(1.06975 0.142709 1.16944e-20)
(0.969152 -0.00541981 8.48533e-23)
(0.984817 -0.0505224 -5.19607e-22)
(1.13596 0.137548 -1.33024e-20)
(1.00026 -0.000109881 3.25356e-24)
(0.989207 -0.0326928 -6.32831e-23)
(1.17992 0.107576 3.55914e-21)
(1.1395 0.107561 1.35009e-20)
(0.963338 -0.0242399 -6.61259e-23)
(1.02347 0.0667514 1.08972e-21)
(0.956239 0.103071 -1.44795e-21)
(1.01558 0.0324312 -3.31806e-20)
(0.958936 -0.0408283 8.2956e-22)
(0.952681 -0.00861012 -3.23364e-22)
(1.05517 -0.0695786 -1.7778e-22)
(1.12545 -0.00202535 3.69635e-22)
(1.0227 0.0149434 -8.07988e-21)
(0.995294 -0.00138642 -9.7656e-25)
(0.975553 0.00964331 -1.64627e-20)
(0.992585 -0.0516048 1.19848e-21)
(1.04126 -0.161388 -3.14799e-21)
(1.16766 -0.0493847 5.73318e-22)
(0.924459 0.0986735 4.74466e-20)
(1.10909 0.102657 -1.44775e-20)
(1.01426 0.0636144 -1.74197e-20)
(1.21735 -0.162218 9.54669e-22)
(0.964924 0.00221007 -2.52324e-20)
(0.965154 -0.0201539 4.02545e-22)
(0.986315 -0.0485773 3.76605e-22)
(0.926593 0.0109594 8.83095e-21)
(1.08655 -0.0298922 -6.97419e-22)
(1.05305 -0.148069 -4.43303e-22)
(1.01577 0.0895875 -3.56693e-21)
(1.0038 0.0879002 -1.09677e-20)
(0.97525 -0.042664 -5.86395e-22)
(1.0279 0.0195336 -1.82714e-20)
(0.981977 0.093974 -3.04651e-21)
(1.00478 0.0814381 1.4325e-20)
(1.04198 0.121426 4.65642e-21)
(1.01182 0.0895633 2.30781e-20)
(1.0611 0.0832388 -1.21815e-20)
(0.986555 -0.00359201 6.73043e-23)
(0.966255 -0.021957 5.00097e-22)
(1.00294 -0.00815134 -1.85426e-23)
(1.0173 -0.132579 3.24678e-21)
(0.993862 0.0206094 -4.2467e-21)
(1.02403 -0.140096 1.89806e-21)
(1.19831 0.101813 -3.25496e-22)
(1.16688 0.0593751 -8.5682e-21)
(0.970236 -0.0547388 4.62618e-22)
(1.25859 0.052243 2.50951e-23)
(1.18756 0.121234 -3.39408e-21)
(0.993084 0.0081232 -1.29975e-21)
(1.24942 0.0411517 1.31889e-21)
(0.999638 -0.0037043 -5.35995e-24)
(1.0686 -0.0148336 6.40943e-23)
(0.98423 -0.0545996 2.52728e-22)
(1.26198 -0.0612052 1.10984e-22)
(1.27978 -0.0580771 -1.94782e-21)
(1.02862 -0.14881 6.17187e-22)
(1.04318 0.116556 2.63647e-21)
(0.972041 0.101273 2.432e-20)
(1.19591 -0.0238907 1.56084e-21)
(0.9974 0.00673222 1.33413e-20)
(0.895062 0.0645755 -1.60775e-20)
(0.998656 -9.69302e-05 1.58153e-23)
(1.00358 -0.00117796 -1.74079e-25)
(0.996412 -0.00601745 -4.81262e-23)
(0.971738 -0.00838937 5.01163e-23)
(1.08846 0.092076 -9.42487e-21)
(0.926338 0.0124888 -1.91682e-20)
(1.14983 0.0140065 1.07834e-20)
(1.03233 0.110497 3.38887e-21)
(0.980396 -0.0255337 -3.0987e-22)
(1.08005 0.132303 1.98344e-20)
(1.07632 0.139981 6.34063e-21)
(1.26724 -0.119298 6.30861e-22)
(0.956848 -0.0122867 3.51569e-22)
(0.941274 -0.02178 3.91859e-22)
(1.20268 0.106029 8.45802e-22)
(1.01405 -0.0470578 2.24358e-22)
(1.2097 -0.0348087 5.40628e-22)
(0.967073 -0.0434816 1.26866e-22)
(0.946277 -0.0423517 -1.13484e-21)
(1.02236 0.0927141 2.5472e-20)
(0.991805 -0.00248739 2.31516e-23)
(1.03007 -0.0633269 -1.59194e-22)
(1.00576 0.0975678 1.19512e-20)
(1.25706 0.0435858 4.8351e-21)
(0.93361 0.0834202 5.39053e-21)
(1.02006 -0.0941344 -8.51303e-22)
(1.04598 0.0127791 8.71995e-21)
(1.27101 -0.0654082 2.21185e-21)
(1.00113 -0.0778217 2.76919e-22)
(0.978978 0.00719679 -6.04152e-21)
(0.990298 0.000465275 3.67089e-20)
(0.990286 0.0286552 -6.59763e-21)
(0.993394 -0.0365836 -5.11005e-22)
(0.938691 0.0157408 2.08365e-20)
(0.961159 -0.0374461 4.16888e-22)
(0.970588 0.0748171 7.70019e-22)
(1.13613 -0.0654621 -9.53955e-23)
(0.986014 0.04754 -3.7432e-21)
(0.980978 -0.0519874 3.18593e-22)
(1.00004 -0.000244473 -2.65583e-25)
(0.98623 0.0416145 1.24258e-20)
(0.968648 0.0670181 1.44947e-20)
(0.972918 0.0816885 -2.32864e-20)
(0.987695 0.0356068 -1.44604e-20)
(1.07974 0.0063233 -3.04509e-20)
(1.14511 -0.0148559 -1.03072e-22)
(1.07538 0.0803764 -2.34868e-20)
(1.04933 -0.143614 1.13193e-21)
(0.996679 0.015925 4.35121e-20)
(1.02309 0.0597647 -2.15869e-20)
(1.26992 -0.0134845 -5.15388e-22)
(1.09585 -0.012928 -3.18863e-21)
(0.986981 -0.00339858 3.63801e-23)
(1.30478 -0.0182027 -3.02514e-22)
(1.02907 0.0958436 -4.29823e-21)
(0.947523 -0.032504 2.64212e-23)
(0.969452 -0.00459211 -2.31537e-22)
(0.992362 0.0043008 -8.64031e-21)
(0.980653 0.0509496 -2.66777e-20)
(0.989254 -0.0593724 -5.42564e-22)
(0.988829 0.055827 1.94911e-20)
(1.0321 -0.157925 1.09431e-21)
(1.23324 0.0743962 -5.36767e-21)
(0.994185 -0.000290213 3.96567e-23)
(0.974826 0.0546705 -1.50103e-20)
(0.968089 0.0592065 3.82203e-20)
(0.902783 0.0355865 3.58946e-20)
(0.978374 0.0965072 3.16737e-20)
(0.997102 -0.000343768 7.49772e-24)
(0.980578 -0.0277576 2.0416e-22)
(0.998501 -0.00128787 -8.19975e-24)
(0.997146 -0.0817294 -2.21862e-21)
(0.93498 0.0643312 -7.67674e-21)
(1.13835 0.0872718 -1.96141e-20)
(1.03826 0.105221 -2.53729e-22)
(0.946859 -0.0405283 7.23408e-22)
(1.04907 0.0408294 2.14887e-20)
(1.03983 -0.0393705 -1.54258e-23)
(0.933861 0.0742212 1.11143e-20)
(1.09952 -0.10584 -4.87225e-22)
(0.995842 0.00594128 1.47595e-20)
(0.994347 -0.000288376 1.82883e-23)
(0.943934 0.0607484 -2.56761e-20)
(0.925259 0.078556 -3.1009e-20)
(0.978638 -0.0290751 -5.39685e-22)
(1.19688 0.0460917 3.92293e-21)
(0.945874 0.0511579 -2.56064e-20)
(0.996494 -0.000530331 -4.7058e-23)
(0.918534 0.0358338 -4.03257e-21)
(1.05245 -0.0781272 1.91018e-22)
(0.996639 -0.000350806 2.23566e-23)
(0.954879 -0.0136336 -2.486e-22)
(1.01421 0.100609 -1.51657e-20)
(1.16432 0.0775307 -1.12423e-20)
(1.01093 -0.111073 1.46193e-21)
(0.992355 0.097407 1.24635e-21)
(0.919913 0.08829 2.06155e-21)
(1.07587 0.13517 -2.15214e-20)
(1.06112 -0.0115112 -5.25189e-22)
(0.999575 -0.072356 4.34724e-22)
(1.16748 -0.0631543 -3.30203e-22)
(0.981344 0.0576475 2.19827e-20)
(0.926877 0.03619 -2.32982e-21)
(0.898441 0.0342857 2.32016e-21)
(1.13676 0.0760017 3.03203e-21)
(1.0005 -0.0109511 2.74462e-23)
(0.978051 -0.00170386 -3.03507e-23)
(1.03174 0.0989642 -1.5271e-20)
(1.00203 -0.00847929 2.05638e-23)
(0.983771 -0.00532711 -1.91056e-25)
(1.00325 -0.0133857 -1.44292e-23)
(0.993296 -0.0318923 -2.50776e-22)
(1.10223 -0.158097 2.12375e-21)
(1.2037 -0.149767 -1.31385e-21)
(0.958676 0.0802042 -3.39153e-20)
(1.02215 -0.0522754 1.94816e-23)
(0.998872 -0.00103529 4.22573e-24)
(1.02981 0.0625404 -3.3992e-22)
(1.16036 0.10631 9.40936e-21)
(1.00199 -0.0135503 -3.14356e-23)
(1.20873 0.0858295 -4.70218e-21)
(1.00193 -0.00141292 3.02915e-24)
(1.15482 0.0596391 1.02782e-21)
(1.01574 0.0341666 2.32647e-20)
(0.986537 0.0533557 -3.77984e-20)
(1.16679 -0.160042 1.51749e-21)
(1.17923 0.0463179 -5.60424e-21)
(0.993207 -0.0149072 -3.94893e-23)
(1.13467 -0.104072 1.29517e-22)
(0.994893 -0.00174063 -4.37712e-26)
(0.977353 0.064992 -3.89362e-20)
(0.957079 0.0779378 1.04759e-20)
(1.23809 -0.15165 1.18496e-21)
(1.19815 -0.167609 1.24641e-21)
(1.15716 -0.176815 4.42223e-21)
(1.03745 -0.0930434 7.31524e-22)
(0.988733 0.0932947 2.62154e-21)
(1.04025 -0.0846742 4.54599e-22)
(1.12558 -0.14599 6.97734e-22)
(1.08718 -0.174867 -1.0135e-21)
(1.12644 -0.0915189 -5.52645e-22)
(0.910609 0.0357785 1.96429e-20)
(1.16144 -0.195294 -8.083e-21)
(1.25159 0.016525 -2.5424e-22)
(0.985449 0.016721 7.56027e-21)
(0.995298 -0.000407983 -1.80441e-23)
(1.2019 0.024767 2.05404e-21)
(1.04271 -0.0759291 -6.71809e-22)
(1.0863 -0.160345 1.73842e-21)
(0.995484 -0.00103596 -4.37278e-24)
(0.999655 -0.0031309 -1.51669e-23)
(0.909773 0.0456098 -3.34814e-20)
(1.05713 0.0431867 1.64129e-20)
(1.23441 -0.161369 4.77888e-21)
(1.2989 0.010031 -7.38998e-23)
(1.05985 0.0733801 -8.8642e-21)
(0.992352 0.0547617 -3.05608e-21)
(1.02566 0.0633494 6.56539e-21)
(1.2434 -0.0837482 -1.98122e-21)
(0.981929 -0.0585614 8.54216e-22)
(0.993948 -0.0493794 -3.17436e-22)
(0.985635 -0.0527689 -8.53725e-23)
(1.03771 0.0645709 -2.18236e-20)
(0.969092 -0.00586106 2.3269e-22)
(1.00484 -0.0736921 6.55954e-22)
(0.999702 -4.26305e-05 -1.82917e-24)
(0.968188 -0.0215768 -8.25017e-22)
(0.997673 -0.00061465 -5.58138e-25)
(1.12618 -0.164031 1.60548e-21)
(1.00867 0.0979365 -1.42021e-20)