/*--------------------------------*- C++ -*----------------------------------*\
  =========                 |
  \\      /  F ield         | OpenFOAM: The Open Source CFD Toolbox
   \\    /   O peration     | Website:  https://openfoam.org
    \\  /    A nd           | Version:  7
     \\/     M anipulation  |
\*---------------------------------------------------------------------------*/
FoamFile
{
    version     2.0;
    format      ascii;
    class       surfaceScalarField;
    location    "14";
    object      phi;
}
// * * * * * * * * * * * * * * * * * * * * * * * * * * * * * * * * * * * * * //

dimensions      [0 3 -1 0 0 0 0];

internalField   nonuniform List<scalar> 
29574
(
587.708
-435.201
-152.506
270.398
42.9931
-313.391
943.229
-1132.67
189.444
-395.228
994.38
-599.152
-633.024
670.858
-37.8336
-687.39
54.3658
211.944
-34.9609
-176.983
628.99
-480.54
-148.45
211.455
-288.468
77.0136
93.2196
535.77
-79.0324
252.549
-173.516
-283.43
285.408
-1.9785
-234.976
-18.0849
253.061
34.5779
553.13
621.454
-650.355
28.9002
-965.158
569.93
-306.146
345.612
-39.4657
-89.0533
-1010.53
1099.58
-255.293
231.509
23.7844
304.836
-34.4373
-300.316
293.37
6.94577
-29.8149
-253.615
-482.94
576.16
260.41
-312.71
52.3002
943.229
-357.931
70.735
287.196
890.879
-975.094
84.2147
340.23
-149.056
-191.174
-157.881
-101.504
259.385
-107.934
-147.36
-592.322
740.954
-148.632
333.674
-278.555
-55.1191
395.785
-88.7629
-307.022
556.286
-292.39
-263.896
-717.229
780.477
-63.2482
-731.261
138.939
150.715
-381.283
230.568
932.281
-932.281
783.895
-346.182
-437.713
272.104
440.632
-712.736
2.78227
796.07
-798.853
-312.574
102.409
210.166
-882.271
718.533
163.738
972.8
-81.9208
-110.948
-246.983
115.947
72.2898
-188.237
1126.61
-483.211
-643.399
332.133
-239.553
-92.5802
842.847
-30.4376
-812.41
239.135
-230.708
-8.42655
-787.842
70.6126
46.6925
-749.45
702.757
-286.066
-128.544
414.61
762.956
-835.822
72.866
167.276
-381.843
214.568
15.5802
-210.701
195.121
382.068
-111.648
-270.42
694.773
-751.538
56.7644
-55.9094
-296.335
352.245
-82.7113
-223.435
-648.121
406.801
241.319
-50.0865
243.841
-193.755
480.121
-482.744
2.62278
-206.806
-357.902
564.708
-697.523
827.989
-130.466
-715.9
107.896
608.004
536.544
-572.145
35.6006
-651.025
-64.8756
-167.566
-354.763
522.328
-120.627
-93.9295
214.556
362.068
-550.724
188.656
323.285
-222.309
-100.977
675.503
-54.0483
-273.586
-34.6043
308.191
1064
-569.277
-494.72
-73.785
466.547
-392.762
337.154
-119.106
-218.048
-226.1
15.4208
210.679
915.228
-643.124
588.416
-833.789
245.373
633.406
-525.509
816.939
-194.805
-622.134
289.89
-97.5235
-192.366
296.054
-84.5995
133.539
-183.626
-619.563
-262.708
239.922
-282.125
42.2028
-34.8866
139.014
-104.128
-665.319
458.512
124.937
-306.153
181.217
-430.713
708.872
-278.16
739.02
148.777
-887.797
904.513
-130.195
-774.318
170.814
-279.85
109.036
197.325
134.808
424.429
55.6918
246.554
-75.7404
-779.335
789.975
-10.64
-317.204
238.171
1016.55
-916.754
-99.7962
280.86
-155.923
406.962
-417.99
11.0282
164.551
133.625
-298.176
451.523
-182.372
-269.151
1218.32
-1218.32
469.148
32.7487
-501.897
-22.2145
258.886
-236.671
-471.025
236.971
234.054
264.596
8.93227
-273.529
-283.803
-70.0922
353.896
42.8024
-200.683
179.872
32.0721
397.303
-111.42
-285.883
-261.516
-401.532
663.049
-562.25
488.465
-568.647
-431.451
-401.631
-165.54
567.171
576.825
56.5804
-307.261
-0.796709
308.057
-1028.66
237.711
790.945
-170.785
909.804
48.7754
258.544
-307.319
372.047
-615.802
243.755
236.471
-361.996
125.524
129.535
426.751
778.393
-867.446
13.6126
220.028
-233.64
181.347
158.882
240.03
93.6442
124.495
-526.126
-26.9334
-152.773
179.707
19.8191
219.315
852.95
-850.168
292.044
491.851
124.617
-361.348
236.731
262.796
955.528
294.792
-72.5292
-222.263
-278.244
-22.0721
-407.475
35.9962
371.479
104.98
62.2376
-167.218
288.382
-239.606
29.3896
-302.976
178.161
145.124
-302.482
196.399
106.082
-564.191
91.3831
472.808
-121.729
246.345
-297.847
84.541
213.306
-94.7985
-223.854
318.653
8.20393
303.214
-311.418
-763.489
-211.605
127.753
-222.551
216.527
971.752
-67.2389
-231.965
-48.0583
280.023
151.454
665.485
-280.191
-17.6557
-751.257
131.694
78.3402
182.069
69.5257
-160.824
91.2986
-12.6741
-222.302
-169.482
336.757
-232.742
197.781
-36.4881
-398.521
-165.67
-197.987
-665.253
863.24
-147.134
112.247
346.77
60.1926
267.413
22.4774
435.689
30.8578
-353.483
504.198
347.975
-53.1829
-174.194
-145.012
319.206
4.81554
-217.04
212.225
400.926
-442.935
42.0096
96.4886
93.5034
-189.992
46.1913
349.594
-571.522
509.067
62.4549
-532.073
-33.7301
565.803
-437.083
-125.167
-12.13
223.209
-211.079
53.5626
-224.704
171.141
735.516
196.765
342.817
42.6382
-385.455
-76.6738
216.269
-139.595
266.709
38.1266
228.134
-124.415
-103.72
582.958
-220.89
28.2733
988.277
144.262
213.868
117.516
-331.384
287.878
-274.265
242.295
-385.294
142.999
70.1594
-986.913
-587.462
419.896
219.141
-149.615
-43.797
303.322
-259.525
90.0523
252.764
-52.8665
314.129
-261.263
324.75
-58.0414
-5.05906
218.927
254.573
-388.94
134.367
-90.1057
322.144
-232.039
-468.437
152.072
-339.856
187.784
268.302
-383.668
115.366
-315.118
286.447
28.6712
-6.3443
-329.188
335.532
767.701
-721.008
199.053
-183.473
619.399
-634.689
15.2905
415.908
120.636
-851.197
511.358
339.839
-39.4159
305.335
-265.92
-87.8524
-151.04
238.893
-295.933
556.149
507.848
513.518
-513.518
-536.717
-491.938
-256.643
-214.383
897.899
-605.855
2.61191
263.108
-265.72
-169.084
-270.258
439.342
72.9349
160.706
-233.641
517.165
-947.878
-346.552
276.46
-12.9174
-394.558
353.535
-359.879
-1068.66
500.013
-484.947
484.947
-641.943
-5.77524
647.718
645.024
-272.977
291.124
126.528
-417.652
-329.619
307.404
-218.642
203.619
15.023
-548.11
838.84
-290.73
306.621
-66.699
560.039
-90.8905
-415.693
241.499
179.483
67.0713
-656.453
487.369
240.14
-359.246
87.8537
-175.706
261.448
113.2
-374.648
351.809
-115.338
-976.139
-242.185
622.78
-45.9547
-78.2921
275.608
-197.316
538.674
-461.488
-77.1864
-75.424
763.505
-688.081
-53.2084
896.056
262.925
1.67179
-112.88
185.814
-89.9614
556.418
-466.456
-541.782
195.6
-168.151
13.1386
155.013
-125.41
416.534
-42.6151
221.317
-178.702
-74.6514
-237.923
193.387
-88.4067
-77.1186
193.066
17.0689
-247.728
230.659
32.7617
458.017
-490.779
710.273
49.3863
-759.659
288.37
18.2513
-73.9101
-158.832
-137.93
42.7026
236.972
-279.675
35.7537
361.549
212.772
-760.882
310.94
-195.944
-86.1817
122.558
-820.661
698.102
64.0892
-396.933
-175.212
-286.179
208.367
77.8116
-333.747
-314.374
567.743
-999.194
239.648
-51.4925
-188.155
-51.1858
251.341
-200.156
-1041.09
351.09
690.001
-42.4858
375.018
-332.533
324.953
57.115
-242.739
91.7095
151.03
350.464
-102.443
-248.021
378.066
-135.771
-166.423
300.048
269.588
-214.028
143.929
-195.114
-106.225
606.351
-500.126
754.692
-166.277
-122.342
-362.206
484.548
854.031
-731.473
256.393
-213.69
-35.0554
-318.428
-536.944
77.7289
84.5522
-162.281
358.262
-86.7102
-271.552
-83.147
180.128
-96.9813
387.253
-132.681
-114.805
-347.413
462.218
7.61418
843.981
-851.595
-776.629
804.166
-27.5364
-244.557
55.0628
189.494
-754.347
441.133
313.214
55.6238
-163.558
2.81403
173.935
-176.749
-291.097
261.282
6.09113
-230.139
224.047
244.199
-20.9897
174.642
-536.799
362.157
229.531
-212.462
-40.2409
-185.859
-67.2979
571.496
354.192
-77.7392
-276.453
-733.901
741.515
-466.308
360.822
105.486
459.714
-335.219
483.72
-853.413
369.693
-286.805
-95.0382
-726.454
28.9303
-179.162
-63.5771
-646.191
631.74
14.4511
-179.377
351.49
-172.114
310.395
305.396
263.576
-168.388
-95.1881
260.358
-264.488
-486.768
-196.401
-83.4482
274.105
-203.719
-70.3857
-551.913
16.675
535.238
171.798
-75.3098
1006.28
-1006.28
433.687
-505.28
-535.811
150.275
189.903
-340.178
-484.807
449.751
-331.686
297.082
-328.996
410.938
164.259
-575.197
50.4067
712.549
551.096
-140.158
430.107
-595.647
96.4637
208.923
-305.387
-207.162
-212.651
419.813
303.831
79.9781
-383.809
-297.336
-544.692
842.028
490.661
-752.177
370.602
30.6443
-401.246
-1010.53
417.497
96.0208
279.706
-274.891
302.49
-358.4
-13.0552
124.618
-111.563
10.1378
-263.27
-253.815
11.745
242.07
247.496
26.6087
309.473
-386.147
226.277
-92.7378
-547.837
-194.925
-111.228
-390.457
-363.89
-969.43
-180.466
1149.9
-499.275
961.459
-462.183
-130.181
-3.77538
133.956
-668.936
636.898
32.0374
-241.313
370.077
-128.764
242.979
295.695
2.18936
-212.891
873.881
-912.414
38.533
430.723
-114.914
217.322
-370.436
162.995
207.442
-253.228
65.0979
188.13
-487.932
-63.9814
134.532
-246.18
349.795
-88.3469
-1099.62
901.636
-548.665
458.703
-98.2355
211.504
-113.269
-67.5292
380.498
-312.969
374.264
-350.575
-23.6892
-367.476
44.6061
-212.758
-306.894
680.183
-373.289
-62.0856
-255.118
-91.3768
461.979
4.40874
192.029
-196.437
925.088
201.522
-354.389
-16.0476
167.283
206.981
-373.192
-456
829.192
-855.419
372.208
430.519
-948.759
518.241
96.4798
-434.989
338.51
-271.109
187.962
-10.1121
468.129
-139.313
-200.543
-427.29
148.735
616.203
6.57656
25.9455
213.702
438.211
-84.4771
-353.734
-102.973
-89.9065
192.879
122.956
224.193
-298.844
9.10982
-107.191
-40.6898
147.881
-384.942
-14.0566
398.998
-27.4352
321.462
-294.026
-103.844
494.777
-390.933
-422.895
382.78
-78.9495
-892.661
817.237
350.532
-317.784
-69.2888
-316.005
-72.1881
-316.752
-655.769
-123.566
-532.044
291.047
240.997
-285.024
62.7155
-129.549
125.959
35.3393
185.337
410.569
-595.906
28.9147
-285.542
45.9888
26.0829
288.046
150.721
-262.141
-57.4875
-277.902
335.389
-810.808
796.282
14.5253
233.811
-252.954
19.1435
362.988
534.911
269.382
-371.825
-17.4546
305.825
-724.594
694.157
290.976
-210.742
-80.2344
291.265
12.0568
-174.645
-160.101
-314.084
474.185
-215.513
-99.6044
296.29
-383
433.926
-548.732
117.833
78.9993
-196.833
206.038
-128.271
-77.7666
277.768
-650.96
151.111
-505.874
241.413
-96.5851
-144.828
47.8841
-811.373
-427.427
303.031
-380.77
-588.595
685.075
-492.961
94.4401
368.321
-665.657
125.918
-239.798
113.88
-848.691
896.575
-30.3304
-8.01605
804.087
-221.021
217.534
3.48737
-310.163
198.433
111.731
-241.732
-141.936
-53.4169
423.187
-369.77
544.674
-650.899
40.2343
-224.907
184.673
170.341
-130.106
337.392
85.1664
-264.543
170.931
22.4561
-140.913
766.768
107.113
-440.076
170.925
-220.746
180.29
40.4561
192.657
-235.272
-1.11339
192.559
-191.445
-345.861
288.374
-224.893
-12.887
237.78
-540.749
418.407
204.014
-195.81
-581.073
-65.1184
614.715
4.68415
-305.84
-220.286
179.418
-88.7516
-90.6667
-119.252
-92.2716
211.524
172.225
-233.339
61.1142
-43.6934
286.158
-242.465
-226.54
215.773
10.7675
-197.866
-28.674
348.325
89.8867
973.948
-711.151
-272.169
-304.053
241.968
190.43
32.9464
-223.377
-973.903
798.76
175.143
-369.243
171.302
197.941
-496.545
-144.449
640.993
-158.955
-806.204
-8.50436
-289.672
-464.68
450.623
-94.1489
-216.014
255.534
-4.1926
656.343
-99.5392
-556.803
347.644
-451.488
-159.228
756.316
-597.088
-222.587
-206.916
429.503
-287.447
271.751
15.6963
5.93784
-66.6202
238.845
-109.316
-176.863
-529.338
-2.70615
-16.1806
-90.979
-744.843
38.6834
-432.274
-211.437
92.1849
-272.45
170.946
698.996
257.562
-305.62
164.156
63.9782
-331.368
3.6226
327.745
-268.023
14.7949
-37.1953
-996.627
778.462
218.165
-24.4753
228.094
-93.9984
275.215
494.763
-522.529
27.7658
-299.814
-166.494
-362.066
398.062
-45.3862
138.33
-92.9439
992.634
-819.364
-173.271
44.7086
-566.82
522.112
-25.9821
-129.596
155.578
-153.733
-131.291
487.786
-63.3563
-249.422
492.401
-557.938
118.851
439.087
-205.014
275.749
519.82
-382.461
-137.36
295.216
8.43306
-303.649
-271.738
193.446
661.431
-98.597
-562.834
427.267
-241.931
-432.867
389.186
43.6809
263.383
12.2254
-282.095
-49.273
-180.81
56.3956
202.598
-500.365
64.0275
436.338
-260.24
262.852
-384.148
356.713
-318.32
-67.4495
-417.497
-454.05
400.633
-530.592
1001.81
-471.215
-119.372
73.986
-176.33
-192.913
488.207
-50.1411
-438.066
-17.1688
-300.386
317.555
-499.545
559.696
-60.1505
435.343
204.737
-100.65
-104.088
193.866
-237.56
200.914
-202.027
-312.444
108.725
457.408
-412.699
-10.5431
-276.904
64.6071
-897.811
897.811
125.767
4.36205
420.639
-425.001
-160.032
181.204
-21.1728
-509.139
301.977
-422.313
65.4425
356.871
55.6324
123.786
-507.728
398.35
109.378
-205.49
436.795
50.991
307.814
41.8851
-349.699
335.041
-76.4976
-416.826
-44.6619
114.56
-354.99
287.461
338.94
-246.678
-92.262
-37.2639
146.53
-109.266
-969.43
-299.013
-192.428
88.3187
104.109
-331.322
242.559
-422.906
-525.853
250.701
551.971
-802.671
-146.695
-530.241
676.936
-476.281
170.44
-22.4063
193.337
215.41
-14.4965
-657.471
640.636
16.8352
74.7379
352.53
283.023
-65.9287
-217.095
-104.512
-550.33
654.842
-571.916
806.435
-234.52
-596.079
55.474
-793.668
200.762
592.907
-986.681
433.181
553.5
-285.285
-272.653
-119.396
469.928
-968.595
438.003
-675.522
814.383
-138.861
641.122
-745.634
-209.648
251.881
-232.062
124.336
-799.858
-164.435
-694.26
858.695
665.13
-3.69856
501.205
326.784
-89.267
286.592
-92.1318
88.3565
-148.798
217.273
-575.175
254.416
-227.14
-27.2764
-128.37
341.807
-213.437
-168.112
-117.43
521.903
-27.1396
-292.35
275.181
13.0926
623.806
-703.92
-650.805
-253.172
-247.193
33.8816
218.667
29.735
467.949
-497.684
-375.286
339.856
35.4304
-140.598
156.018
561.602
440.205
-374.26
-175.642
549.902
169.53
-252.241
-101.949
280.11
-68.239
-354.074
178.665
-251.194
-234.858
309.596
202.003
-129.713
-444.387
-542.294
-289.177
-11.0266
300.203
-326.244
187.947
138.297
-173.478
177.887
-233.566
-92.678
225.19
-219.099
252.125
-282.377
30.2515
308.612
-87.261
-221.351
-805.239
646.284
-313.4
-320.487
79.1744
-312.402
343.047
275.903
-84.5281
519.871
185.364
-24.6587
272.311
553.189
-825.5
-195.076
165.795
40.2429
-567.73
407.628
-963.187
297.934
315.677
-814.953
-473.262
-72.9858
546.247
-526.552
449.029
77.5224
284.791
-207.249
47.2175
-633.57
384.148
-36.1428
162.061
-345.704
375.439
142.029
-524.49
-122.175
-36.55
216.033
-6.963
278.714
270.376
-79.8686
173.372
764.394
-0.889006
295.198
-275.287
-19.9114
-268.554
-92.7935
-95.9166
-32.3475
266.158
709.837
251.622
59.4353
215.78
342.594
-102.454
-71.8005
313.555
-241.754
-451.474
89.2683
495.06
-230.7
-264.36
290.166
-297.129
-17.3517
-673.651
691.003
225.964
-827.232
459.756
-233.079
73.5548
-350.007
-122.001
-385.792
507.792
-124.636
137.775
241.75
-331.017
319.982
-16.7686
-867.601
335.528
85.7245
-357.277
-726.222
-518.898
-455.005
240.174
99.3644
-347.385
225.175
-327.124
162.163
79.2504
148.485
-224.037
75.5524
-502.143
154.73
499.117
-922.012
-151.51
62.7584
458.166
26.7807
-574.705
-421.922
18.3921
-599.465
-3.55581
298.772
-105.784
406.466
-300.683
-105.731
-84.2614
148.479
-221.919
-74.0142
-344.125
379.879
-252.996
-59.5878
312.584
-69.717
257.664
-278.798
-260.912
242.89
18.0221
43.9131
-244.952
318.507
367.933
-61.0522
-314.234
-20.2536
236.026
206.101
-27.7577
-178.343
-92.888
-466.901
53.8548
413.046
-293.098
-129.914
423.012
178.971
-216.235
327.474
-246.422
67.2602
-199.222
-116.955
316.176
812.168
324.539
-36.4366
-212.555
248.992
-22.996
-503.556
-289.177
-733.08
345.033
388.046
5.59527
-297.985
-9.84503
249.875
-13.8231
231.357
278.885
-334.509
55.6241
-458.899
-128.563
-545.329
185.693
359.635
212.656
25.1235
237.851
341.178
-614.285
273.107
238.948
-414.492
175.544
-361.348
404.156
-665.827
261.671
975.355
-947.082
-758.444
451.55
-438.504
-118.488
556.992
168.358
126.84
-308.992
577.195
-405.474
-171.721
378.048
-208.518
-819.799
247.884
250.725
244.335
-233.137
79.4035
399.455
-92.0502
180.562
-183.4
2.83849
232.386
11.4554
575.959
-609.689
-505.474
178.318
327.155
76.9479
-358.958
-132.091
491.049
84.6193
383.714
-205.049
264.844
59.9068
-459.453
159.639
309.006
114.697
-423.703
119.289
-217.524
-185.121
-229.168
-206.033
-363.262
19.1374
-28.5378
-628.933
-32.7036
230.021
-197.317
-305.616
185.674
119.942
-377.682
-120.109
497.792
-267.793
-78.7598
190.628
15.4723
-337.895
83.4131
183.103
81.3932
-264.496
-267.191
-134.608
401.799
-368.484
-291.198
271.404
19.7942
117.832
-347.563
229.731
163.499
-236.754
73.2552
-38.3091
-118.887
-279.227
398.113
-371.51
232.197
211.459
-440.627
-252.402
108.497
143.904
-461.364
147.281
35.0236
-439.931
404.908
-197.647
-63.2644
179.33
416.56
-343.65
-72.9107
-207.175
204.44
2.7347
-265.002
127.388
137.613
-82.6706
-138.075
-322.713
-114.995
913.755
-217.722
-30.0062
269.814
-481.306
314.812
109.89
-311.68
201.79
-390.509
-142.648
533.157
-471.346
-216.043
219.496
-29.0658
271.085
689.734
-707.086
-49.1586
-272.651
321.81
81.3192
-710.827
629.508
208.98
91.2096
-300.189
298.2
-108.296
-236.931
228.427
-363.912
-44.7167
408.629
-710.634
39.3018
671.332
-492.667
-163.786
-95.343
-288.805
522.452
-40.1801
-774.479
-19.6279
794.107
-202.221
549.797
-347.576
-207.937
480.248
154.151
-513.108
315.738
-106.815
120.436
435.982
-426.081
430.443
-319.673
-140.207
459.88
-523.808
50.5463
320.129
40.6921
25.3484
-262.28
255.947
-67.9441
-188.003
-101.223
-104.332
292.294
-79.3893
-275.601
52.243
223.506
-300.583
-95.0132
395.596
-276.545
338.669
-62.1244
-77.5499
270.207
-332.071
-132.608
464.68
-235.002
104.086
130.916
-132.581
-48.9929
54.984
-650.456
595.472
-180.979
-251.888
-295.979
-240.82
-335.635
-91.7925
-210.994
-73.3273
284.322
415.221
639.73
173.116
-231.546
58.4298
159.379
525.696
220.642
35.3055
173.87
-249.535
75.6658
-392.977
-147.772
-529.024
-94.0872
354.445
-181.062
315.633
-30.8414
651.414
-164.045
-4.66571
229.856
-243.587
276.798
-33.211
713.56
1.28721
288.879
-601.901
492.331
109.57
219.43
63.5936
205.58
-37.1154
216.354
-327.582
82.6589
-329.642
17.5439
-355.197
360.24
-5.04334
85.2182
-189.346
174.193
45.3923
-320.59
321.291
-0.701316
282.212
-341.8
247.09
-16.4314
-360.826
-123.981
-65.4178
275.584
12.05
242.366
304.177
4.01381
-384.976
-122.189
507.166
-79.7884
-150.92
-198.008
-26.8993
60.9379
250.002
261.567
-293.914
308.759
-63.6491
-250.557
280.024
-29.4665
-1061.96
718.496
343.462
-420.522
127.424
319.072
11.5511
-330.623
-63.0635
350.525
566.342
-177.935
-29.2036
207.139
-69.4875
-221.609
-263.543
-58.3271
321.87
-287.062
-56.5273
343.589
-69.9981
-510.099
-91.8018
-797.874
785.523
12.3504
40.211
246.98
-287.191
46.0441
311.526
-181.249
466.876
-285.627
-232.764
-71.2888
-469.059
103.196
-208.927
185.641
-249.218
-314.643
-106.614
421.257
-118.284
456.77
-338.486
-382.393
-82.2868
-231.244
-99.7729
2.24736
-427.796
-120.869
-202.533
683.959
14.1124
647.593
-661.706
-198.164
45.3909
228.005
-812.957
584.953
151.307
-393.039
301.494
-42.6083
95.7385
-1012.81
-219.146
-107.977
440.397
-6.70972
-510.618
-389.72
-112.177
-657.427
205.485
-396.696
191.212
-6.33787
292.496
-332.111
-92.0735
424.185
-15.3685
-275.454
290.822
829.973
-116.414
-491.298
481.186
-59.4563
-715.023
-90.8974
447.61
-846.724
783.475
298.178
-470.831
402.592
-91.8434
-118.898
165.148
177.236
-342.384
-438.261
-245.259
184.178
19.2875
-203.466
-207.428
912.879
30.3505
-992.008
559.734
-211.406
-95.4366
306.843
740.865
37.5282
355.961
-79.5002
374.631
-355.494
-402.25
408.812
-6.56201
326.597
-326.31
-0.287465
361.111
-90.0261
-16.4131
-422.06
-144.761
-219.792
-120.386
-196.977
-108.41
-601.537
804.229
-202.692
-234.963
1.39679
-213.77
-427.454
-462.107
411.966
82.773
-304.692
-99.0874
-125.442
224.529
-43.7412
390.176
-346.435
348.315
-59.941
217.364
-66.2617
-151.102
98.6746
-228.271
134.506
135.082
306.092
-97.1119
-323.824
-89.6313
224.44
560.688
-142.28
26.2965
-773.61
747.314
-273.324
109.115
-188.983
-30.1065
-74.7932
336.075
58.055
771.925
-699.059
856.371
-110.836
-745.536
378.474
-75.6884
-302.786
102.294
-215.563
-93.8582
508.832
-414.973
-227.547
-60.9208
24.0264
-734.854
442.199
-82.4632
-290.956
287.47
3.48634
-211.847
-47.5283
259.375
204.607
24.6214
-229.229
-33.9055
-95.5609
-448.209
-613.749
-427.083
203.548
0.97459
-204.151
-15.811
241.775
54.9606
-536.898
481.937
-319.745
221.805
-398.135
154.148
-354.691
684.872
-320.123
68.5337
-269.904
201.371
-138.41
301.405
589.16
-159.053
-210.129
-142.512
231.627
897.822
90.4542
-300.203
224.463
46.6575
725.267
-12.408
192.97
-324.579
-93.4109
389.017
-85.986
-445.083
-516.934
152
364.934
-164.864
-525.293
690.157
-577.094
1007.82
-737.528
135.991
-472.279
-277.781
268.66
109.406
-932.584
59.23
873.354
-342.473
389.114
-92.824
-7.32587
360.861
327.126
11.5434
225.802
-198.15
-27.6522
-304.764
97.3364
-194.85
-12.3244
242.908
365.106
-95.7244
656.246
-134.134
282.818
104.435
556.247
-122.32
510.538
-99.9692
251.473
-33.4281
-218.045
431.129
-487.42
-333.336
820.755
542.834
-251.787
-287.736
-551.039
80.5982
470.44
306.822
-64.8538
-711.231
677.531
33.7002
521.035
-70.4124
-30.8789
635.398
-604.519
-369.287
282.026
286.744
83.3325
419.834
131.262
-379.972
213.961
-29.2879
350.801
-2.48592
-430.648
-126.505
-50.2151
590.992
324.192
-316.81
-7.38176
-517.411
58.512
-376.767
-331.502
300.661
47.8468
327.172
-288.544
336.489
-54.4622
-146.532
-270.758
-259.997
-16.9745
276.972
-401.222
-112.296
-33.639
547.117
-38.0499
-7.01927
475.149
574.351
-26.3549
-164.518
-269.706
323.223
-53.5171
-63.3192
230.759
32.3256
-743.557
-319.78
-234.048
348.837
-391.122
-62.9287
454.025
639.946
216.157
-856.103
-155.361
575.451
-133.252
320.303
-245.111
-75.1929
-78.8226
-590.459
-203.209
29.1148
202.213
124.913
-140.053
213.308
-281.135
-291.147
341.544
-50.3972
225.852
306.131
-425.528
722.523
427.374
-295.684
367.37
-71.6856
-264.064
-463.559
-220.203
837.439
18.9329
406.596
-55.7951
-963.271
30.6869
387.151
-77.6774
-744.919
-11.2875
-304.718
634.595
206.988
-89.1547
-98.086
9.16254
296.662
-385.561
0.239281
385.322
-238.246
-136.403
204.507
-107.441
-474.17
-93.5593
493.345
-85.7166
340.121
-4.69789
-312.054
-103.165
-128.897
-519.071
372.377
-113.438
653.164
-629.138
-271.019
365.6
-94.5804
-232.796
64.6841
282.547
22.7885
-447.865
-474.147
-412.694
973.634
-463.093
-510.541
566.023
-107.32
-511.585
-121.985
-94.0261
18.2892
512.055
-127.907
13.3389
51.6426
178.378
-224.265
-215.811
58.6487
-100.182
548.277
-128.381
-405.807
-338.902
283.782
266.09
0.0683459
428.943
-88.822
-53.6653
-148.867
-153.473
-308.151
31.2463
70.9163
-268.925
439.883
-651.487
598.796
-109.895
-488.901
758.912
-726.587
420.413
-71.5756
-254.449
-290.669
36.3679
578.873
-124.847
-758.285
784.582
218.169
-3.17052
-214.999
-141.087
223.86
460.21
-59.5762
605.341
-146.829
-281.662
282.95
-110.715
-81.7128
-210.977
262.221
-51.2437
-101.145
269.504
297.9
-40.3384
-39.2625
250.771
-473.529
-278.009
270.875
-235.27
-35.6045
-418.665
407.231
11.4333
-17.8388
-132.795
300.078
291.141
-297.032
5.89053
-247.426
-87.6415
-13.665
138.283
-322.524
407.896
-43.1225
787.19
-744.067
-507.381
342.892
-36.7602
31.2701
346.842
12.7941
-359.637
7.07102
382.115
222.294
496.239
30.9519
497.495
22.3766
355.706
-47.8922
-67.3877
241.257
254.85
58.7044
-870.641
884.753
-301.823
284.909
16.9143
-549.472
250.466
0.305323
791.292
-582.246
-209.045
260.736
-185.511
-75.2245
433.378
228.937
28.066
493.837
-198.81
618.296
-419.487
92.5005
-50.9092
843.85
-792.941
-416.885
297.998
476.519
198.983
235.997
0.0288767
224.574
-181.896
-479.162
661.058
38.3016
208.789
59.2748
-560.618
571.127
-508.673
811.998
-267.64
-544.358
-283.089
-185.349
66.2113
270.659
0.745087
-227.237
-280.491
-354.289
-501.13
4.89647
186.11
-191.007
292.198
265.343
196.166
-792.527
768.511
24.0156
-19.1234
408.523
-453.265
44.7425
278.631
78.0918
0.0421387
771.052
-771.094
90.6262
232.597
58.9818
88.0573
-292.602
306.585
-13.9826
-915.44
-53.9901
197.455
-125.88
-486.173
612.054
-295.573
847.544
-148.089
-391.992
-125.419
-561.12
110.956
380.092
34.6818
-255.892
-25.7707
198.241
-146.598
9.88012
850.168
47.6434
-15.2026
304.081
473.072
-357.186
-115.885
-630.431
242.3
388.131
127.03
165.264
360.262
-356.706
264.444
140.009
281.248
229.731
246.71
33.314
69.6513
-483.691
414.04
831.694
-242.942
-588.752
167.864
209.355
-377.219
359.684
402.102
249.015
3.75563
-626.296
-305.985
263.055
-889.846
368.069
79.9894
-465.781
75.7005
-634.976
-99.8776
246.791
-360.537
379.508
552.135
-568.242
645.044
-76.8016
-12.1189
373.668
411.058
-339.517
-34.7939
169.096
-134.302
-303.422
296.749
-18.0352
652.312
-347.03
-22.7516
377.301
-354.55
82.5108
-182.365
250.719
-68.3537
-282.895
230.408
52.4875
277.109
534.89
144.125
-403.678
441.388
-1099.58
1099.62
120.063
-9.65257
436.1
164.466
-55.351
415.493
342.222
215.618
23.2743
282.351
365.261
-25.9468
-339.315
-650.078
648.702
1.37658
232.424
198.246
-12.136
501.92
-432.269
-212.144
764.279
291.329
87.0956
265.476
-367.93
-175.007
26.6952
244.18
766.818
-170.216
-596.602
-876.922
947.082
290.533
364.697
247.23
-235.679
554.113
-992.374
451.47
333.287
318.249
-40.2877
458.637
291.484
59.6011
-417.342
357.741
-213.463
318.846
-13.6232
-23.5399
-824.351
694.156
843.684
-202.562
334.724
271.975
123.492
340.135
-20.0306
-320.104
269.576
303.721
287.618
-189.761
89.1113
-274.043
283.955
-9.91175
437.668
-551.184
-251.488
-4.11402
219.732
456.698
-578.888
-277.117
21.2256
458.004
-123.459
-234.094
357.553
-330.259
-186.675
634.735
106.218
426.468
-943.489
517.02
-460.565
418.43
42.1342
-3.16823
253.9
-250.731
341.918
-259.407
258.793
-236.123
-22.6696
308.201
34.1578
-216.523
-848.691
83.3548
345.936
-429.291
-31.8636
721.93
-690.066
322.792
-295.838
-26.9532
-445.681
460.58
314.368
-256.313
-399.992
978.644
-578.652
280.51
-13.8441
198.022
544.774
455.226
-179.238
209.793
11.9194
-221.712
-28.0848
399.564
-593.324
33.5497
559.774
204.289
252.842
-352.614
-41.3361
-377.328
-912.879
861.97
-489.459
1034.23
337.177
-55.3379
239.361
-1.90441
-237.456
489.147
-435.292
54.7642
-705.221
-460.204
-0.361001
-258.347
319.379
-469.501
-499.094
298.401
-18.7117
-279.689
-959.292
422.575
-797.874
157.343
33.3915
-190.734
31.0617
598.447
648.502
-634.051
-281.899
835.088
-72.0388
217.163
370.881
-535.217
164.336
-127.013
352.099
-225.085
-703.916
750.574
-387.208
214.321
-224.177
233.312
-9.13476
-275.328
701.797
314.188
626.428
27.7716
-786.057
-231.806
237.979
-345.956
-41.4955
-228.177
239.922
-896.575
980.789
175.703
39.3095
-215.012
264.689
-306.687
-79.4595
9.67383
388.944
209.939
-598.883
502.734
-902.726
509.258
-51.8509
-223.153
-3.83639
226.99
-114.487
-193.664
-295.008
73.6567
-165.197
-137.779
302.761
291.063
-264.368
-116.233
-318.096
434.329
281.547
290.099
-17.5225
-293.57
311.093
-691.205
17.554
852.95
-915.44
975.355
-976.139
955.528
993.274
-993.274
-876.922
-1012.81
274.552
-239.87
-241.598
-240.732
-188.123
-3.32175
751.889
-966.624
214.735
-884.753
12.6397
-283.06
193.011
-35.6678
-763.435
791.207
228.04
-6.81762
-221.222
-271.999
256.63
-11.7635
-249.437
261.201
247.887
-14.114
-233.773
201.973
-229.25
-23.5227
-253.121
276.644
-187.826
200.537
-12.7108
250.534
280.878
-347.782
407.383
106.27
-183.32
77.0497
-384.777
-602.137
-194.017
207.244
-13.2272
-419.689
-84.0154
503.704
194.842
-175.554
41.9596
201.67
-25.9669
-360.29
267.497
499.966
-120.458
209.738
459.193
-50.67
308.887
-387.752
78.8648
18.7122
-635.987
667.049
262.924
-461.733
-783.74
730.308
53.4327
480.795
497.849
71.1056
428.86
-267.576
261.238
-73.1015
-710.639
235.584
-331.02
715.402
-918.094
338.667
-750.227
411.56
128.957
263.289
-205.359
-57.9294
-50.6736
-388.101
-867.839
592.511
-2.3601
258.989
3.86095
-306.661
302.8
17.1774
-46.6306
236.303
281.136
-36.9561
184.849
-58.091
-126.758
738.601
20.3118
272.351
304.123
6.51962
181.17
-227.074
45.9039
230.546
-300.814
297.258
-317.891
-202.961
217.151
-14.1898
74.6317
-494.32
239.043
168.853
-84.8233
836.712
-608.258
436.537
570.353
-670.149
218.983
-325.798
311.742
-438.755
184.565
-304.951
218.465
-193.843
-321.556
213.259
-191.064
-8.05717
199.121
215.548
-323.957
367.808
-265.974
-101.834
-3.5056
485.443
-442.507
-560.36
1002.87
-742.489
643.892
-50.4657
-320.079
370.545
21.3909
54.5545
-289.673
279.828
-270.637
-6.48063
197.335
56.4796
-253.814
-182.897
-213.799
-293.171
222.616
-208.259
-14.3574
-306.661
-407.847
407.847
187.166
-658.512
164.746
172.011
302.8
727.248
-234.917
-41.8453
-645.784
687.629
524.222
-85.1358
236.193
-365.169
316.011
388.897
243.988
4.28329
231.482
-171.731
-59.7512
-35.3985
-686.738
686.738
-174.861
-387.921
-91.8958
-117.031
206.011
20.2658
-139.471
206.542
-423.528
479.22
-151.172
-203.52
733.734
-502.804
-230.93
-110.002
-105.561
536.628
-174.47
-107.51
-37.4181
-487.311
524.729
-500.531
-287.311
510.511
-16.6736
-21.524
-729.206
547.31
-458.17
-65.638
767.774
19.4153
231.408
-112.966
773.758
-660.792
98.467
855.832
683.215
851.46
150.06
-216.322
-387.181
-73.0222
-236.976
249.175
-223.913
49.5432
-171.081
-897.558
41.3205
856.238
12.9511
393.85
811.987
-263.276
247.733
15.5423
1066.36
-542.369
-523.988
-168.512
5.70026
475.486
202.488
-36.6934
274.405
275.497
425.768
-772.039
956.308
-184.269
-344.311
5.40895
232.453
18.1735
665.785
-82.9388
-218.884
-171.279
-241.415
205.37
92.2944
634.953
690.028
-731.874
91.7014
-795.618
22.974
654.557
752.263
-849.596
97.3337
-627.672
536.048
91.6237
627.26
-563.589
-63.6709
-446.704
521.336
53.2415
-84.4761
-122.994
207.47
124.665
305.24
-601.381
437.596
187.913
-187.913
-200.008
218.905
-879.234
436.727
-661.756
535.875
-551.039
870.641
-955.464
23.9871
-237.387
205.679
-170.281
-222.758
-245.973
22.1779
357.701
35.9617
342.513
-352.232
-360.867
34.5579
428.164
-679.95
-55.305
-726.788
782.093
224.508
-272.036
55.2156
109.386
-234.827
-623.669
655.707
-196.056
-53.1621
8.07991
538.19
141.994
-310.176
-21.3267
-455.097
957.832
864.147
-864.147
333.664
43.6373
12.149
463
-761.575
17.5077
650.512
16.5362
80.281
417.324
-497.605
215.896
302.621
-3.8491
9.05042
672.816
18.1871
-839.216
636.007
195.652
303.145
-498.798
-825.212
557.571
210.333
-411.003
20.6712
-649.809
-185.051
-48.9601
234.011
-85.0664
201.382
-116.316
15.2544
45.014
356.778
41.2844
-203.472
17.2567
-277.281
529.247
659.125
62.8053
12.2759
130.907
-90.4967
-196.694
197.031
395.839
-504.066
-707.846
-64.1933
-200.291
-467.064
-476.424
-274.026
-360.664
624.686
-515.116
6.75601
798.394
-805.15
317.872
49.9354
393.166
-59.5017
618.007
-54.1732
-563.834
313.777
-16.6951
-570.419
-98.7883
669.207
-28.2477
-246.017
-605.333
441.288
-167.101
-70.2328
237.334
231.662
611.26
66.2727
-235.381
-92.2013
24.8322
204.889
-546.192
638.487
194.306
3.71635
-200.221
397.659
-197.438
304.295
-855.513