/*--------------------------------*- C++ -*----------------------------------*\
  =========                 |
  \\      /  F ield         | OpenFOAM: The Open Source CFD Toolbox
   \\    /   O peration     | Website:  https://openfoam.org
    \\  /    A nd           | Version:  7
     \\/     M anipulation  |
\*---------------------------------------------------------------------------*/
FoamFile
{
    version     2.0;
    format      ascii;
    class       volScalarField;
    location    "30";
    object      p;
}
// * * * * * * * * * * * * * * * * * * * * * * * * * * * * * * * * * * * * * //

dimensions      [0 2 -2 0 0 0 0];

internalField   nonuniform List<scalar> 
7639
(
0.1978
-0.00428033
0.406672
0.243134
-0.00117743
-5.26091e-05
0.41515
-0.0070256
-0.000168166
0.101072
-4.93518e-05
0.00319401
-0.010472
0.0496682
0.105461
-0.0139188
0.211591
-0.0135768
0.00128286
-0.0615954
0.0651974
0.00209886
0.0364169
0.200717
-0.0175751
0.213285
-0.00108915
0.0615104
0.16698
0.00312205
-0.0186383
0.663221
0.0357352
-0.00066137
-0.000145264
0.0824803
0.00358196
0.399902
-0.00599293
-0.000463688
-0.00549233
-0.0133367
-0.0639808
-0.0695061
-0.000277662
-0.000113945
0.00205428
-0.00621619
-9.44917e-05
-0.0612288
0.00481637
0.0582503
-0.0220367
-0.00453214
0.0815313
-0.00627958
0.00140073
-0.00700669
-0.0284019
-0.00068732
5.23338e-05
0.00617638
0.0500367
0.00352914
-0.00131485
-0.0183061
-0.000135001
5.1755e-06
-0.00340489
-0.00584709
-0.000104759
-0.0493068
-0.017023
-0.0282655
-0.0131634
-0.039774
0.39949
0.0640656
0.0387921
-0.0529869
-0.010053
0.369764
0.0933444
-0.0296577
-0.00195531
-0.00307627
-0.00751015
-0.0214093
-0.000895241
-0.00594727
0.170869
-0.0951465
-0.000184668
0.00150957
-0.00474023
-0.029274
-0.0468833
-0.00175942
-0.00215325
-0.00156447
-0.0476027
0.0455079
-0.00449601
-2.8448e-05
-0.0953867
0.171724
0.570869
-0.00667691
-8.3162e-07
0.0321123
0.227087
-0.0435201
-2.23348e-06
0.0340272
0.172885
0.000609691
-0.0602104
0.136666
-0.0358939
-0.0290192
-0.0492995
0.35167
-0.0615182
0.0134961
-0.0481171
-0.00131413
-0.0168821
0.00253754
-0.00138985
-0.0188595
-0.139226
0.0416866
-0.000827567
-0.00105342
-0.0306502
0.220278
0.44859
-2.45796e-05
0.0108046
-0.0608662
-0.0268121
-0.0431206
-0.0402034
-0.0272228
0.576739
-0.0191554
0.167826
-0.0278427
-0.0367182
0.350583
0.0786548
-0.0804659
-0.00205378
-0.0268894
0.0932364
0.364497
-0.0455091
-0.0104244
0.531865
-8.57656e-05
0.000666645
0.208395
-2.7074e-05
-0.00282465
-0.00533031
0.264577
0.265398
0.554148
-0.00318699
-0.00416502
5.99447e-06
-0.0508805
0.000602577
0.00188069
0.0117565
-0.0363076
-0.0755678
0.0892623
-0.000183713
-0.000695077
0.246482
-8.54803e-05
-0.000156218
0.41589
-0.00967985
-0.0357424
-0.0338962
-0.0269025
-0.021938
-0.0595806
-2.95243e-05
-0.0454391
0.0899684
-0.00453967
9.76084e-05
0.156542
-0.00169529
-0.0177615
-0.0207774
7.24433e-06
0.00123818
0.228583
0.124097
0.369274
-0.0549038
-0.0399329
-0.0982026
0.0670211
0.227788
-0.00029755
4.63259e-05
0.537011
-0.0118517
-0.000858266
-0.0435536
-0.0176693
0.326313
0.3364
-0.0471395
0.628159
-0.001573
-0.0132923
-0.0487246
0.0796959
-0.0775607
0.147746
0.533722
8.4474e-05
0.014186
0.146508
-0.00565339
0.132934
-0.000760093
0.594455
0.35717
-0.00745132
0.00375324
-0.000430508
0.0392851
-0.000133279
-0.0087171
-0.0580262
-0.00010438
-0.00185992
-0.000603012
0.132746
-2.73017e-05
-0.00616994
-0.0518003
0.662923
0.03534
0.579306
-6.4745e-05
-0.022926
-0.000265
0.384212
0.00591581
0.449677
0.00175492
0.00104123
0.00313693
0.0702024
0.000831588
-0.000323565
0.000733822
-0.0059626
-0.0366921
-6.05598e-05
-0.0440551
-0.00508134
-0.00020277
-0.000887612
0.427408
-0.0104466
-0.00108219
0.631612
-0.00204216
0.217277
-0.0002948
-0.000337712
1.03013e-05
-0.0322576
0.0765866
-0.0734923
-0.0287102
-0.000585656
-0.0548674
-0.0200933
-0.000256423
0.000713492
-0.00306778
-0.0100986
0.00432184
-0.00175066
-0.0283946
-0.0325779
-0.0279976
-0.0604039
-0.0348843
0.342669
0.360398
-0.00210099
-0.116522
-1.07134e-05
-0.00335406
-0.0293346
0.195074
0.105002
0.000135538
-0.00309935
-0.0339558
0.151896
-0.00141302
0.00527361
0.001777
-0.00379843
-0.126217
0.308824
-0.0022455
-0.00802924
-0.0001651
0.00591117
-7.65949e-05
-0.0228021
-0.000493705
0.00504569
-0.16117
-0.03554
0.00158677
0.0128421
-0.00104688
0.0270879
-0.0106198
0.0601241
0.139325
-0.123029
-0.0675258
-0.0205529
0.00750114
-0.0566395
0.565903
-0.0610835
0.0424578
0.615682
-0.0021675
-0.00246287
-0.0798144
-0.00155228
-0.0162507
0.00931321
-0.00393545
-0.00293492
0.153544
-0.000100449
0.000797329
0.000108845
-0.00476653
-0.00977051
-1.28933e-05
-0.0015553
-0.0273009
0.530728
0.00240548
-0.0116078
0.495005
0.306811
0.0535512
-0.107809
-0.0512792
0.00723973
0.254442
-0.0146698
0.270388
-0.0254801
-0.0714606
0.133546
0.269529
-0.0414481
0.0979072
0.135458
0.234641
0.0650872
-0.00427033
-0.00588394
-0.000128078
0.00237459
-0.0149508
0.00138459
-0.000155591
-0.00228332
-0.0542507
0.0384842
-0.0216495
-0.00407086
-0.00529264
-0.00826054
-0.00962039
0.00243666
0.100084
-0.00265819
-3.32842e-05
-8.27514e-05
6.67185e-05
-0.0259495
0.149199
-0.00559789
0.0394874
-0.084618
0.391424
0.0046722
0.0098919
-0.00709911
0.4113
-0.00150603
0.301154
0.171865
-0.000169755
-0.0273349
-0.00460466
-0.0416499
0.000819792
0.0626285
0.00415885
0.00917021
-0.00121821
0.116855
0.157298
-0.041334
-0.0275159
-0.00325784
-0.022644
-0.015904
0.651364
-0.0556426
0.00649828
-1.33438e-06
-0.0171683
-0.00320882
0.0248043
-0.0701368
-0.115324
0.425303
0.137837
-0.0911016
0.163735
0.400988
0.0400661
0.00170975
0.258549
-0.00129536
-0.000267031
-0.0219696
0.000123317
-0.105634
-0.0010901
-0.0293291
0.00275642
0.166473
-0.00251921
-3.61172e-05
-0.0747949
0.00250071
0.00285025
-0.0460347
-0.0597878
-0.122119
0.148575
0.12197
0.125612
-0.000298419
0.0272192
0.0662014
-0.000760306
-0.0208837
0.000880447
0.00690723
-0.00488162
0.00692082
-0.00111862
0.0468471
-2.95136e-05
0.000284987
0.00286273
-0.0268524
0.0288997
-0.0276823
-0.0310004
-0.0335378
-0.0856027
0.0065547
0.247538
-0.135329
-0.00898982
0.602091
-0.0461899
-0.0102265
-0.0311093
-0.00867941
-0.0253444
-0.0133384
0.0382004
-0.0688429
-3.89091e-05
0.0335972
-0.000140611
0.351797
-0.00508425
-0.00667916
-0.0178015
-0.0002743
0.371959
0.303548
0.0103054
0.0240302
-0.0492599
0.464355
-9.32769e-05
0.0180633
-0.022369
0.100532
0.55911
-0.027296
0.135494
-0.00291121
-0.000295643
0.0134647
-0.129416
0.390053
0.00712215
0.214243
-0.00948063
0.401248
0.286319
-0.0118924
-0.0101412
0.00280853
-0.0606691
-0.000124951
-0.016469
-0.0587308
-0.051913
0.016126
0.0132167
-0.000184849
0.30408
-0.0017436
-0.000151086
-0.0290823
-0.00070734
-0.000324198
0.00443911
0.19264
-0.0671371
0.518201
8.72539e-05
0.186437
-0.0233138
-0.000111937
2.49109e-05
0.164308
0.190496
-0.00551194
0.175895
3.51074e-05
0.185455
-0.122229
-0.012436
0.423329
-0.0417752
0.0181011
-0.0298441
0.18041
0.183704
-0.020253
-0.025392
-0.00814267
-0.0038951
-0.000289825
-0.0018796
0.252593
-4.05233e-05
0.181296
-0.0664421
0.330586
0.172317
-0.0598223
0.501041
-0.0022097
0.00470817
-0.0450053
-0.024263
-0.00856828
-0.0259757
0.0294284
0.594264
5.89449e-05
-0.0025996
-0.0417905
8.35581e-06
0.358411
0.00254071
7.83097e-06
0.000271317
0.000542239
-0.0216707
0.0238228
-0.00209923
-0.000123846
-0.00907371
0.00297084
-0.0751649
-0.0552204
0.0295311
-3.23284e-05
-0.10506
-0.0161046
0.0196348
0.328165
0.00154561
0.0466143
0.000214652
-0.0154478
0.0911747
-0.00859996
0.20326
-0.0158566
0.0209539
0.0946301
0.132491
0.0055871
-0.0127287
0.136278
-0.0605098
0.390138
-0.0115128
0.223742
-0.0114363
-0.00157116
0.12906
-0.000683109
0.0859269
0.00261995
6.82055e-06
-0.0799677
0.0962514
0.00196623
0.0275887
-0.015084
-0.103115
-0.0028696
-0.0286274
-0.00226324
-0.0108793
-0.0530029
-0.0318165
-0.012036
-0.000209452
0.415744
0.0506693
0.0390131
-0.000277882
0.287186
4.56416e-06
-0.000256293
0.0672092
0.000419702
0.0744366
0.0603773
0.0226474
-0.0480942
-0.0876201
-0.108904
0.00181072
-0.0449558
-2.81368e-05
0.00480922
0.195505
-0.0193596
-0.00372966
-0.0127038
-0.00263088
-0.000563068
0.618705
-0.0121415
-0.000754068
-8.34137e-06
0.135644
-0.033671
-0.000454822
-0.00368792
0.157131
0.0706302
-0.0408338
1.25653e-06
0.176418
-0.0193399
0.159048
0.0226625
0.0278791
-0.0335042
-0.000133812
0.0923491
0.0609634
-0.0805933
-0.0624495
0.256149
0.00839649
0.126832
-0.00380067
-0.0275646
-0.000540012
-0.00273838
-0.000150229
0.148751
0.185601
-0.00200112
0.0251342
-0.0204412
-0.0524535
-0.0574502
-0.00248746
0.0165248
0.586475
-0.0775491
-7.88818e-05
0.0717696
-0.0051279
0.495531
-0.0149504
-0.0151774
-0.00604412
-0.0174586
-0.00940854
-0.00963649
-0.00483422
0.00200762
0.0225825
0.000144551
-0.13617
-0.0669955
0.332866
-0.0393757
0.0858679
0.00279829
-0.0454229
-0.0170498
0.204873
-0.00910714
0.000144829
-0.0189843
-0.00708089
0.0197841
-0.0305034
-0.026428
-0.0465168
-0.0173453
-0.00972991
-0.0555581
7.35577e-06
0.0350284
-0.0487224
0.0635967
-0.0553245
0.0857678
-0.062862
0.282034
0.00199963
-0.034551
-0.0198103
0.526689
-0.111188
-0.0156338
-0.0803531
-0.0346375
-0.0756484
-0.0475194
0.131122
-0.00371277
0.247731
0.0120604
-0.000540519
-0.0016721
0.0640138
0.67045
0.00137067
-0.0241018
0.16486
2.98193e-05
-0.0243568
0.0360729
-0.012037
0.0122339
-0.00221941
-0.0325461
-0.0041885
3.81157e-05
-0.0398661
0.225183
0.000426795
-0.0196585
0.00258115
0.164045
-0.000525958
-0.0016796
-0.000492812
-0.00107613
-0.05782
-0.00108219
0.00313613
-0.0210984
5.89941e-05
-0.0857884
-0.130396
-0.0936513
-0.0192302
0.0198474
-0.000293715
-0.0155522
-0.0508472
-0.0594759
0.333864
-0.0017322
-0.0541364
-0.00627016
0.00503838
0.100183
0.000600208
-0.000218606
0.00624
-0.058972
0.0191312
-0.00396097
-0.00277944
-0.0472592
-0.000244333
-0.0031792
-0.0159773
0.286424
0.218699
-0.0405815
-0.0475643
0.00990586
0.00374849
-0.0495711
-0.054167
-0.0163879
-1.03197e-06
-0.0422863
-0.0287689
-0.0585417
0.0030494
-0.0436153
-0.000548259
-0.00400038
0.176372
-0.0322472
-5.97217e-06
-0.00376228
-0.100792
-0.000230132
-0.0205306
-7.18879e-05
0.00491105
-0.0735629
-0.0386588
-3.30445e-05
4.01644e-05
0.116954
-0.0406961
0.37543
0.214932
-0.0350729
-0.000816446
-0.0154368
0.000295055
-0.130549
-0.070833
-0.100357
-0.0191652
0.190325
0.00916588
0.000365526
0.00584373
-0.0934334
0.0026528
-0.0252876
-0.0493618
0.000587024
0.0214133
0.0646315
0.00826573
-0.0261524
-0.0625929
0.173441
-0.0304188
-4.62273e-07
-0.080263
-0.0522544
-0.036351
0.00468805
0.00102366
0.00701272
-0.0729272
0.0308104
-0.0301401
0.0688325
-0.042802
0.00697027
0.0186611
0.0101455
-0.0307328
-0.117923
-0.000144654
0.134332
0.192017
0.00782154
0.108691
-0.0583037
0.0429317
-0.0408814
0.183185
0.090634
0.578792
5.61753e-06
0.0807845
0.153647
0.0147578
-0.00153542
-0.0165951
-0.0555327
5.54778e-05
-0.0166166
-0.0425649
-0.0181151
-0.0199721
0.000174264
-0.112097
-0.000396795
-0.000912596
0.223707
0.00617898
-0.0546025
0.0193458
0.191288
0.00996103
-0.000421312
-0.0963386
0.00761253
0.352819
0.00131338
-0.0442076
-0.000239255
-0.000580379
0.0061638
-0.0500456
-3.52091e-05
-0.0101173
0.0266418
-0.00201361
3.98739e-05
-5.27006e-05
0.13832
-0.0491385
0.00660968
-0.00114954
0.0083726
0.0154913
0.00817288
-0.000309845
0.307759
-0.0872891
0.202651
0.255192
-0.000223513
-0.0588281
0.080196
-0.000805065
-0.00028137
-0.000454928
-0.029043
0.0113321
-0.0126174
-0.0196964
-0.0526024
0.152479
-0.080099
1.25817e-05
-0.0176116
-0.0170799
-0.0311282
-0.00433522
0.00585775
0.00126854
0.0268539
-0.000538091
-0.000249355
-0.0158926
-0.00427065
-0.0223551
-1.70292e-05
-0.0135795
0.0318198
-0.0329695
-0.0338392
-0.00807102
-0.0108338
-0.00851266
-0.00514161
0.00542751
-0.00878929
-0.000111774
-0.000422208
0.0217752
-0.0112548
-0.00487545
0.00822497
0.00220135
-0.0903206
-0.0102559
0.141609
-0.0115752
-0.0448046
-0.0225257
-0.0204523
-0.0142151
-0.00372643
0.0022278
-0.00349736
-0.012807
-0.0146659
0.160886
0.116106
0.0392638
0.325665
-7.67243e-05
-0.00332332
-0.0149383
-0.00758587
0.04248
-0.0182971
0.0330821
-0.00430293
0.166559
-0.0019401
-0.00163017
0.00890694
-0.0181217
-0.00022893
-0.0204769
-0.00577624
-0.0187953
-2.20996e-05
-0.00649577
0.00198873
-0.015943
0.0267757
0.0340725
0.0185536
-0.012808
-0.0278675
0.104739
-0.00128511
-0.00195784
-0.00210646
0.489537
-9.49518e-05
0.0563369
-0.019118
-0.0184634
-0.0235129
-0.0362659
-0.0254651
-0.0301175
-0.016654
-0.00452759
-0.000102748
-0.00421371
-0.0195695
0.0889429
0.00168843
0.0678885
-0.0290012
-0.0121649
-0.000922254
-0.0256714
-0.000107981
0.133422
-0.0267584
-0.0233644
-0.0213931
-0.00396917
-0.0293684
-0.00167475
-0.0352555
0.0921717
-0.0230474
-0.0591358
-0.00145881
-0.0240218
-0.0167407
0.0150404
-0.0032014
0.128453
-0.00238141
-0.0173043
-0.000682591
0.144935
-0.0339357
-0.0235502
-0.00321169
-0.00909004
-0.0027339
0.140599
-0.00522938
0.109142
-0.00481399
-0.000823131
-0.00125832
-0.00231354
0.0849539
-0.0508143
-0.0066364
0.000338597
-0.00775088
-0.0130667
-0.00090925
-0.0147485
-0.0142945
0.0531384
-0.00485567
0.0034849
0.483087
-0.0517263
-0.0254751
-0.0486252
3.39136e-05
0.0692168
-0.00349445
-0.0238883
-0.00548957
-0.0312678
0.00403992
-0.000541368
-0.00287132
0.00325141
0.182804
-0.00570837
-0.00177916
-0.00455326
-0.045793
-0.00802438
-0.0198472
0.00423096
-0.0083974
-0.0086609
-0.00323438
0.183877
-0.0396031
0.00319125
-0.00416468
-0.0244935
-0.013221
-0.0422572
-0.00140324
0.0822763
0.0219943
-0.00759119
-0.00172348
-0.0128154
0.503044
0.184256
-0.0107433
-0.00058176
-0.00236642
0.000694651
-0.00391602
0.0201697
-0.000421153
-0.0164165
-0.0019576
-0.0156675
-0.147564
-0.00106727
-0.011188
-0.00134916
0.298666
-0.00628317
-0.0111092
-0.0469242
-0.00191851
-0.0265869
-0.0499089
0.437011
-0.0102282
-0.0108323
-0.00210071
-0.0004716
5.48094e-07
-4.3236e-06
-0.00967453
-0.000672706
0.0537626
-0.000675904
-0.00180323
0.00802076
-0.000261948
-0.0382778
-0.0505864
0.0168154
0.037414
0.02526
-0.0478636
-0.0404484
0.0812557
0.0641889
0.0871691
0.110822
-0.0122095
-0.000856317
-0.00575932
-0.055725
-0.00346966
-0.0140675
-0.0490739
0.286778
-0.0443711
-0.000486699
-3.28513e-05
-0.00145911
-1.04163e-06
0.00774443
-0.000565334
-0.00461651
-0.0408609
0.000539951
0.00256906
-0.000223206
0.0462333
-0.0143742
-0.0471901
-0.00121634
0.307853
0.213266
-0.00960784
-0.0654896
-0.0249124
-0.0216964
-0.0134974
-0.00186215
-0.0635767
-0.031198
-0.0369566
-0.113537
-5.42223e-05
0.155231
-0.0169219
-0.00918662
-0.0289477
0.0181238
-0.0005365
-0.00803694
-0.00135318
0.0110355
-0.00153947
0.111652
0.000347892
0.00987566
-0.000418638
-0.106445
0.00868148
-0.000772089
0.00321934
0.000402973
-0.0412407
0.0927834
0.000645257
-0.00143244
-0.000128748
-0.000579721
-0.000509271
-0.0507385
0.112817
-0.0384845
-0.000273029
0.00838488
-0.000463127
0.210436
-0.0500674
0.211123
-0.0370689
-0.000454239
-0.000291866
-0.00704571
-0.00548506
-0.00063629
-1.92665e-05
0.023584
0.0273085
-0.000240599
-0.000339785
-0.0180541
-2.31342e-05
0.152589
-0.000926717
-0.0443482
-0.0174644
-0.00614047
-0.0464308
-0.0509953
0.137476
-0.0214772
-0.0184628
-0.000320076
-0.047226
-0.0188656
-0.0316612
0.0166
0.330208
-0.00116507
-0.0493478
0.0103784
0.271995
0.0364509
-0.000122479
-0.00584262
-0.00397326
-0.00481733
-0.0403307
0.0722024
0.000174781
0.0130701
0.00288856
0.0528711
-0.000524518
-0.000126754
-0.0920036
0.2414
-0.0457512
0.110121
-0.00126931
-0.000206
-2.54509e-06
-0.0751581
-0.0356244
-0.000345408
0.0733765
0.0109678
-0.00519169
0.400273
-0.000398812
-0.00361867
-0.0492066
-0.026411
-0.00224649
0.122385
-0.054374
-0.000169077
0.00934678
-0.000178953
-0.000103791
0.115239
-0.00260863
-0.000456538
-0.0430397
-0.0221107
-0.00342042
-0.0316387
0.00236098
-0.0206137
0.00161829
-0.00341706
-0.0532844
-0.0328596
0.011951
-0.000890709
0.13459
0.191059
-0.0854885
0.00890856
0.0184017
-0.00417133
0.151814
0.0814984
-0.0247101
-0.000165845
0.00922918
-0.0457261
0.00804994
-0.0250271
-0.00207775
0.0321798
-0.0246256
-0.000140085
-7.62456e-05
-0.0379019
-0.023511
-0.0231439
0.00920473
-0.0265736
-0.0378018
-0.000157327
-0.00138346
-0.000211918
-0.0306016
-2.52267e-05
-0.00190625
-0.042421
-0.0812323
0.0333782
-0.00292019
0.00410196
-0.0193729
-0.0227122
-0.000131856
-0.0388994
0.0113295
0.143211
2.23621e-05
-0.000113984
0.14611
-0.00247441
-0.0713994
-0.0344691
0.00332384
0.000467063
-0.0549886
-0.0346788
0.149965
-0.0465514
-0.00144992
-0.00952679
-0.0446726
-0.000580316
-0.000244109
-0.000896852
-0.0326727
-0.042855
0.0816225
-0.000213685
0.506925
-0.066162
0.000111833
-0.000967695
0.000244375
0.00027939
-1.54842e-05
0.000133799
-0.0439734
-0.000720359
0.000425132
-0.000201411
0.127866
-0.00553828
-0.000196508
-4.72602e-05
0.32324
-0.0194848
-0.0557485
0.00110223
-0.00072354
0.0447451
-0.000101092
-0.0126224
-0.130932
0.00213879
-0.00638498
-9.89161e-05
-0.00021003
-0.0271823
-0.0551389
0.007095
-0.104187
-0.0602012
-2.92114e-05
0.0206052
0.0310143
0.0987732
-0.00168913
-0.000159461
-0.0470527
-0.00587153
-0.00050139
-0.0414571
-0.000140194
0.0304349
-9.267e-05
-0.00125342
-0.0767586
-0.00210379
-0.0484826
0.456145
-0.00162609
0.000268412
-0.0461429
-0.0469085
0.00886743
0.00463489
-0.000153546
-0.0274897
-8.67942e-05
0.180376
0.626586
0.0294252
0.00298127
0.00353449
-1.98553e-05
-0.0248747
-5.99755e-05
-0.00724502
-0.00167114
0.000361231
-0.00327007
-0.00925024
-0.000124999
0.000850485
-0.0081885
-0.000314517
-0.00965834
-0.015086
-0.00924711
-0.00114842
0.555868
-0.000692931
0.00238938
0.000238089
0.0135555
-0.0416961
0.00938224
-0.000179735
-0.000101818
0.00258069
-0.000112171
-3.14999e-05
-0.0111063
0.000682575
-2.51214e-05
-0.0429036
-0.00226187
-0.0464906
-0.00161418
-6.96504e-05
-0.003044
-0.0094573
-0.0140612
-0.0222595
0.00227365
0.000509546
-0.000464408
-0.00191211
-8.1728e-05
0.255934
0.00152671
-2.07407e-05
0.000567064
-0.00199012
-0.000359203
-0.0521589
-0.0453838
-0.000133768
-0.00667434
1.2192e-05
-0.00261232
-7.50632e-05
0.0335674
-0.00014268
-0.000189004
-0.0035028
-2.50621e-05
0.013208
-0.000227095
-0.00123662
0.0183253
1.08979e-05
0.361779
-0.0449169
-0.0357414
-2.6486e-05
-2.18982e-05
0.00182304
-0.00115997
-0.0435451
-1.79027e-05
-2.85913e-06
0.000722788
-3.12519e-06
0.00036941
0.000438356
-0.000454932
0.000770817
-0.0439978
0.469841
-0.0305413
0.315129
0.00885718
-0.0157242
-1.9446e-05
-0.000864195
-0.0114163
0.000138886
0.000276478
0.000164483
0.0230746
-0.00134493
-0.00021979
0.48863
-0.000536791
0.000569146
0.00049109
-4.87954e-06
-0.0935534
-0.00213133
0.0011113
0.000120611
-0.000534257
-6.96582e-05
-0.000931856
-0.0375894
-0.000411817
-0.00159091
-1.57848e-06
-0.000626885
-0.000258582
0.176794
-0.000436373
-0.000275443
-0.0566062
0.00368937
-8.81986e-05
-0.00130188
-6.26481e-05
0.160206
-0.0596481
-0.000299468
-0.000382858
-0.00188042
-0.000159396
0.0510737
0.0917955
0.00277146
0.00049375
-7.13999e-06
-9.84302e-07
0.0419987
0.000246511
-0.0504351
-0.0233415
-0.014767
-0.147403
0.561801
0.00191129
0.15839
-0.0136755
-0.025882
0.163049
-0.000353099
-0.054098
-1.35485e-05
-0.00846579
-0.041375
5.2378e-05
-0.0428109
-0.00092697
-0.00935464
-0.00537844
-0.0364914
-0.0363571
-0.00314351
-0.0513507
-0.0374202
-0.000186333
-0.0113319
-5.4576e-05
-0.0325104
-2.87553e-05
-0.000185432
0.0103092
0.154461
-7.25352e-08
-0.0388669
0.0034753
7.20586e-05
-0.0193571
5.05412e-06
-0.0126722
-0.000258111
-0.0331572
0.000122949
-8.80462e-05
-0.00198333
-5.09881e-05
0.150311
-0.0269933
0.0339677
-3.2372e-05
0.000612832
-0.0285733
6.57864e-07
-0.0478148
-0.054642
-0.0465004
0.512052
-0.00613465
-1.82348e-05
0.0247874
-0.0358346
-0.00248755
-2.81031e-05
-8.61981e-05
-0.0402031
0.000122762
0.000854164
-5.68428e-07
0.000153696
-0.024908
-0.00190189
-0.0601948
0.0810118
-0.00506664
-1.18583e-06
0.00587701
-0.0443749
-2.13974e-05
-1.44954e-05
0.000311962
6.13585e-05
0.00039449
0.141091
0.0332399
5.34115e-05
9.88729e-06
-0.0543122
0.190411
0.162497
-4.55297e-05
-0.031632
-0.0179144
-0.00995936
-0.040657
-0.00818801
-0.00277909
0.132714
-4.29272e-05
-0.0235786
0.158014
-0.0416153
-1.94737e-05
-0.0508784
-0.000173919
0.230629
0.0257789
-1.68005e-05
-2.85883e-05
0.167944
3.21673e-06
-0.000180951
-0.0109323
1.08408e-05
0.219559
0.00317097
-0.00692754
-0.0528371
-0.00358091
-0.0634408
0.173102
-0.0121418
-0.0414769
0.00097132
-2.04912e-05
-0.000994321
-1.01133e-05
-1.72831e-05
0.0178449
0.171671
0.141388
-0.000430913
0.237863
-0.011337
6.58698e-06
-0.0388526
-1.96697e-05
-0.0248255
0.0268604
-0.0136147
0.00429435
0.00180639
-0.00866817
0.000240602
-0.00160694
0.0179809
-0.00272899
-4.9652e-05
2.77269e-05
-6.17425e-05
0.0301037
5.16077e-05
-0.0206939
0.251716
-0.00567367
4.79326e-05
-0.00328785
-1.17184e-05
0.00359187
-0.000348652
-6.57133e-05
-8.45105e-05
-1.37939e-05
0.201514
-0.000151812
0.210107
-0.0514297
0.000107687
-0.0444581
-0.000475039
0.148114
0.502883
-0.00134395
2.20677e-06
1.3949e-05
-2.18439e-05
0.107968
5.02402e-07
0.00101175
-0.0217237
0.200051
5.92179e-06
1.33784e-05
2.59484e-06
2.3358e-05
-0.0185971
1.59693e-06
0.197299
-0.0149414
-0.00012159
2.80605e-05
-0.00195802
-0.0253142
1.12233e-06
-5.66084e-05
0.157021
3.1749e-05
-0.0280974
-0.0498269
0.000127463
5.92527e-07
-0.109988
1.0689e-06
0.147631
1.37961e-05
-0.000433002
1.05012e-05
-0.000171469
0.0862002
2.56087e-06
-0.0015657
6.81372e-06
0.0114542
-0.0032195
-0.00599558
0.000674376
0.145168
-0.000264938
-8.04408e-05
-0.00823906
-0.00795861
-0.000237024
-5.51798e-05
-0.000858357
3.7021e-05
0.103817
-0.00967307
0.491896
-1.25579e-06
-0.007119
-0.000155727
0.111653
5.30759e-05
-0.0236578
2.19269e-05
-0.00150537
-0.0292722
-0.000225001
-0.0143393
-0.042168
0.00480825
-1.08442e-05
-0.0485978
-0.000323405
-0.000289848
-0.00518822
-0.0141388
0.00122767
-5.18305e-05
-0.000421089
-0.000884844
-0.00121605
1.13013e-05
-0.00115155
0.484017
9.22567e-05
-0.00307978
-0.0304351
-0.0592886
-0.0524895
-0.0406168
-0.0195587
-0.000511565
-0.0154536
7.22136e-05
-8.10979e-05
0.483956
-9.30584e-05
0.142213
-0.000434936
0.000382759
-0.00107986
-0.0644862
-0.000403845
0.000534563
-1.62632e-05
-0.000379424
-1.77894e-05
-7.90273e-05
-0.0135248
-0.000108757
-2.95335e-05
-8.22388e-05
0.000137243
-1.15866e-05
-0.0369356
0.155551
-1.03796e-05
-0.000579291
2.47975e-05
2.88186e-05
-0.000797766
8.31127e-06
-0.000863838
0.000270648
-0.000354246
-0.0529831
-0.000663447
-0.00173736
4.25493e-06
-0.00150983
0.0003233
-1.53627e-05
-1.04052e-05
1.25678e-05
-0.000760998
0.000517918
-0.0381741
-0.0243117
-0.0533212
0.000536337
-0.00179612
-0.0398061
-0.0536462
-9.28589e-05
0.0142048
0.00648964
-0.00100008
-0.0108192
-0.0465509
0.429977
-0.00040414
-1.55909e-05
0.000843542
4.58501e-05
1.65305e-05
0.0695352
0.00343292
0.0805771
-0.0327301
0.419124
-0.000503793
1.75998e-06
0.000144583
-1.88776e-05
-0.00129945
0.130912
0.210386
-6.25191e-06
-0.000167291
-1.86321e-05
0.198198
0.0138716
-0.00571495
1.10578e-05
1.81194e-05
0.00690526
-0.000667329
-0.0587465
-0.0151054
2.12739e-05
0.00333342
-0.0276533
-5.98868e-05
0.00172161
-6.76586e-05
-0.0389221
-0.00164575
0.12728
1.55182e-05
0.00160343
-0.00016961
1.37723e-05
0.000164662
-0.0204801
1.35934e-05
-0.000872148
2.02905e-05
-0.017576
-0.0384634
-0.00295514
-0.0068655
-0.00787009
0.00865743
-0.0079942
-0.00231549
6.3196e-05
9.90617e-05
1.85216e-05
1.63108e-05
-5.60059e-05
0.00853175
-0.0488014
0.000473443
-0.0392044
-0.00288623
-0.043943
8.229e-05
-4.42052e-06
0.00125036
-0.0990888
1.66177e-05
-0.0386665
-0.0134171
-0.0919579
-0.0398266
2.45574e-05
-0.0032246
0.00018519
-0.136726
0.124004
9.10501e-06
-0.0498377
-0.0199851
-0.00395107
3.47509e-05
-9.10649e-06
0.0206456
-0.0148132
2.13548e-05
-0.00624293
-6.96912e-06
0.000205924
0.111383
-8.73097e-06
6.30316e-07
-8.59617e-05
3.17121e-05
0.000859599
8.2785e-05
-0.00485889
0.000223154
-0.0113725
0.00105528
-0.00020175
-0.0287999
-0.0366428
-0.00577451
-1.54263e-05
1.95237e-05
-0.0519882
0.00546817
-0.0401967
2.54452e-05
-0.00476538
-3.64758e-05
2.20789e-05
0.0583253
-0.00641121
-0.00259656
-3.33618e-06
-0.0159026
4.60447e-05
-0.05507
2.41627e-05
-0.0619633
1.57432e-05
-6.29455e-06
7.99575e-05
0.000978319
-0.0829824
-0.0160292
-0.0572392
1.35169e-05
8.87908e-05
-0.0629962
-0.0233218
-0.00766402
-5.44868e-06
-0.0337812
-0.0428891
-0.0626072
1.39516e-06
-8.3146e-06
1.38761e-06
-0.073882
-0.0558206
0.000689834
-0.00995899
-5.63714e-05
0.149245
8.92465e-05
1.176e-05
0.000143129
-1.16609e-05
-9.17723e-06
-0.00335916
0.000106699
-0.00239232
-0.0537238
-0.011717
-0.0477654
3.61173e-05
-5.07898e-05
0.0414923
-0.0477597
-0.00436776
0.100749
1.01873e-06
-1.40606e-05
-1.28535e-05
0.0507894
0.000164843
-5.34935e-06
-6.1007e-06
-0.0514817
-0.0137867
2.92057e-06
7.113e-05
-0.00838057
-0.0058729
0.000407264
0.211614
-0.0498474
0.000132005
0.635044
-2.12852e-05
-0.000656761
-0.007847
-0.0619946
4.47494e-06
-5.14345e-06
1.99031e-05
0.00454685
-0.0292058
-0.000324308
-0.0416661
-0.00702027
2.36622e-05
-4.86014e-06
-0.0091452
-0.0060764
-0.0265767
-0.0776376
-0.0382827
-0.0332518
-0.0211925
-0.0238268
-6.2472e-05
0.000337206
0.000866613
0.000509148
-8.03957e-05
0.000728675
2.66948e-05
-9.16902e-05
-0.0108574
-1.22494e-05
-2.94224e-05
0.0294091
-0.0282988
-0.000159422
-4.26049e-05
-6.47665e-06
0.233285
-0.00604121
0.000747931
-0.0246882
0.000217622
0.000188641
0.000163194
-4.85956e-05
0.000460176
-0.0326464
0.014194
-9.37798e-06
-0.000160831
-0.0358922
-0.0280835
0.0447724
-0.000467789
0.00174684
0.0167219
7.5515e-08
5.59207e-05
-0.0415215
2.04693e-05
0.151904
4.95919e-06
0.00397962
0.000158398
0.000212217
-0.0571228
-0.00667074
-0.0158816
-0.00222812
2.43175e-05
0.00586573
0.056002
-0.0110616
-0.000131006
0.0856178
0.147886
2.71368e-06
-0.0437195
-6.61441e-05
-1.1142e-05
-4.42332e-05
-0.000538935
0.0185206
-8.82439e-06
0.000234765
-0.0216423
-0.0225337
-0.0193586
0.296218
1.40957e-05
-6.81143e-05
0.156641
-0.00678837
-0.00349736
-0.00061969
0.154021
3.94813e-05
-0.000303839
4.05665e-05
2.2189e-05
2.88875e-05
3.29633e-05
6.89261e-05
-0.0156798
5.83959e-06
-0.00307415
-0.0377117
0.211518
-0.000141115
-4.90748e-05
0.00445723
0.0769261
-0.0411262
-0.000711983
-0.0574257
0.293542
3.98062e-05
0.391835
-4.93948e-06
0.00315486
0.0226309
0.000415424
0.428253
-1.76629e-05
-6.487e-06
0.0010981
2.83048e-05
-0.000814859
0.000249389
8.3858e-06
-0.0018235
6.05349e-06
-0.00014116
-0.00304999
0.226588
0.0446545
0.0205607
-0.0370424
-5.45883e-06
-1.92908e-05
0.00320588
-0.047878
-1.05159e-05
-0.0394182
-5.31689e-05
0.093557
0.05622
-0.0289567
-0.00126373
-0.010902
-0.000925318
-0.0132093
0.00329604
-0.00679653
0.0571577
1.82034e-06
0.182726
0.00923329
-0.000566283
0.189845
-0.0119931
-1.25274e-05
1.98299e-05
6.20259e-05
-0.000202151
-0.000119249
0.23105
-0.000921485
0.236034
-0.00102862
0.152285
0.198464
0.0655141
-0.00641128
-6.34988e-06
5.68889e-05
-0.00954559
-0.0977484
-0.0417833
0.00141708
1.60098e-05
-0.0326997
-0.000309394
1.57351e-06
0.000961562
-0.00100246
-0.000627418
0.0304866
7.04548e-05
-0.0408501
0.0514472
5.3892e-05
0.000254139
-0.0130553
-0.0501508
-0.000690522
-0.000493095
9.74691e-06
0.000236458
0.0198966
-0.0153417
-0.0414965
0.00124344
0.0538762
-0.0337478
3.14771e-05
1.95319e-05
0.0076661
-9.04125e-05
0.0454138
0.00074544
-0.0121479
-0.000365676
0.00154033
-0.0317756
-3.83226e-05
0.000467079
-0.00223587
-0.0613262
0.114426
-0.0518143
-0.0238418
-0.000162675
-4.5132e-05
0.00634493
4.21821e-05
-0.0614676
-0.0555567
0.000536445
0.00319786
0.00358137
-0.0827017
0.000607761
0.000179097
3.31978e-05
-0.0358726
2.54429e-05
0.00053227
0.110956
0.165488
-0.0966544
0.0452441
0.0438568
0.00929643
-0.000157734
0.0103158
0.000116035
7.96544e-06
-7.54769e-05
-7.87436e-07
1.94607e-05
-0.000340379
-0.0069746
-0.0546121
-0.00886795
-0.0260497
0.0478366
0.0402217
0.00384893
-0.0536312
0.000150961
0.00436186
0.0105679
-0.000369786
0.0664635
-0.00119134
-0.00999618
0.0111006
0.00520184
0.000925781
-0.00372394
0.0385315
0.000781055
-0.0176198
-0.0148452
0.514155
-0.022209
0.0721473
0.00600794
-0.0335454
0.0020795
9.36485e-05
-0.00238339
5.0303e-05
-0.00244425
-0.0226293
-6.86186e-05
-5.01282e-05
0.236856
-0.00306015
-0.0362319
-0.0167979
0.000189744
-0.00138466
-2.36185e-05
6.15027e-06
0.0338968
3.64925e-05
-0.00272648
0.0664482
0.00587651
0.00106557
0.0170186
-0.00529563
0.00394289
-0.100312
0.000820898
-0.00410086
-0.0478376
-0.000813375
-0.00739554
0.00071029
0.000705524
0.000938551
0.0324439
-0.000308188
0.00533524
-0.0459408
-0.0185826
0.000291058
-0.0455121
-0.0135079
-0.0153808
9.50231e-05
0.00623925
-0.0591767
-0.000792482
-0.00449425
-0.0423078
-7.80845e-05
-0.00109621
0.200189
-0.019879
-4.07105e-05
0.00777647
-0.0439457
-0.000987141
0.181134
-0.00210456
0.000961236
0.0548543
-0.00133679
0.00780491
0.117638
5.24133e-05
0.00111082
0.000167158
3.04776e-05
-0.00415725
-0.00674952
-0.000133051
-0.0215213
0.0864775
-0.0323554
-0.0615845
0.00110192
-0.00303309
-0.000589621
-0.0452275
2.18995e-05
0.0147808
3.72462e-05
-0.0142982
-0.00181798
-0.00458575
-0.123111
0.0987057
-0.0659131
-5.25893e-05
0.165056
-0.00184394
-0.00246185
-0.0499826
-0.069496
-0.0141292
-2.99281e-05
-0.00107993
0.00681947
-0.00286997
-0.00436442
0.000407602
0.0777931
-0.0384182
-0.0101131
-0.00612673
0.0183336
-0.00268139
-0.00128654
0.0016154
-4.15465e-05
-0.00286645
0.0977581
0.000747882
-0.108837
-5.94012e-05
-0.00671906
-0.00348177
-0.0747064
-0.0104794
-0.086886
-6.32932e-05
-6.1549e-05
-0.00425419
0.00996339
0.00169869
-0.0989491
0.0727943
-0.0419966
0.00017585
-0.109307
1.5618e-06
-0.115853
-0.0226674
-0.141276
-0.153004
-0.163361
-0.17486
-0.183939
-0.178605
-0.16686
-0.143324
-0.122773
-0.00938499
0.0322153
0.0788617
0.158861
-0.00735935
-0.00679585
0.0472652
-0.0170059
0.000847954
0.0123396
-0.0353104
0.00048448
-0.000651481
-2.98668e-06
-0.0129463
0.0166659
4.04052e-05
-0.000310465
-0.00952796
-0.00705231
-0.134954
-0.0128395
-0.0479262
-9.73987e-06
0.000537327
-5.09046e-05
-0.0491506
-0.00806195
-0.0321947
-0.0102539
0.00162804
0.000205394
0.00444955
-3.25036e-05
-0.0131309
-1.95187e-05
0.000350167
-0.00609138
-0.0104154
-0.000282738
0.000308197
0.0450488
-0.00946076
0.052138
-0.124665
-0.00805067
-0.055217
-0.0168152
0.00347533
-0.019272
-0.00302398
-0.0113125
-0.011679
0.328742
-0.00125949
6.22924e-05
-0.00534639
-0.0082102
2.67092e-06