/*--------------------------------*- C++ -*----------------------------------*\
  =========                 |
  \\      /  F ield         | OpenFOAM: The Open Source CFD Toolbox
   \\    /   O peration     | Website:  https://openfoam.org
    \\  /    A nd           | Version:  7
     \\/     M anipulation  |
\*---------------------------------------------------------------------------*/
FoamFile
{
    version     2.0;
    format      ascii;
    class       volVectorField;
    location    "30";
    object      U;
}
// * * * * * * * * * * * * * * * * * * * * * * * * * * * * * * * * * * * * * //

dimensions      [0 1 -1 0 0 0 0];

internalField   nonuniform List<vector> 
7639
(
(1.13909 0.176229 4.27911e-21)
(1.04495 -0.0490201 -7.54112e-23)
(0.999835 0.146462 -1.22778e-20)
(1.05451 0.0817332 1.54522e-20)
(0.999258 -0.000911456 -2.53297e-23)
(0.999965 -7.91223e-06 -2.93069e-24)
(0.991949 0.119702 -2.49029e-20)
(0.995241 -0.00170339 -5.01511e-24)
(0.999894 -0.000167733 -4.8391e-24)
(1.02536 0.000828604 -6.92203e-22)
(0.999968 -9.52054e-06 3.23309e-24)
(1.00203 -0.00114987 -1.01212e-22)
(0.992749 -0.00213783 2.52226e-22)
(1.0198 -0.00201329 -4.21356e-21)
(1.02468 0.00131362 2.93764e-21)
(0.9919 -0.0135576 -5.16013e-22)
(1.14572 0.187042 -8.95337e-21)
(0.990276 -0.00272185 -8.74122e-23)
(1.00199 -0.00888963 -2.71334e-23)
(0.974595 -0.0795794 -4.25273e-22)
(1.03584 -0.00753996 -1.39323e-21)
(1.00134 -0.000696359 1.89778e-22)
(1.0177 -0.00346003 3.55722e-22)
(1.01322 0.0357515 -8.17264e-21)
(0.987103 -0.00338255 -3.9542e-22)
(1.12998 0.17492 -4.46193e-21)
(0.999296 -0.000866908 -1.78336e-23)
(1.0237 -0.00234878 1.68543e-21)
(1.0056 0.0166827 -1.02441e-21)
(1.00328 -0.00951815 2.13846e-23)
(0.98769 -0.0141125 -9.11222e-22)
(0.834568 0.0503428 4.00441e-21)
(1.01746 -0.0042343 2.19888e-21)
(0.999574 -0.000364265 3.1635e-23)
(0.999909 -6.04262e-06 6.00262e-26)
(1.02467 -0.000113132 1.01615e-21)
(1.00374 -0.0104319 2.73829e-23)
(0.99829 0.115894 -3.93554e-21)
(0.99657 -0.00726603 4.2452e-22)
(0.999705 -5.37373e-05 3.04575e-23)
(0.996933 -0.00749023 -4.78215e-23)
(0.992041 -0.0127214 -1.87775e-22)
(0.992746 -0.0911161 2.0341e-21)
(1.1249 -0.101284 7.4222e-22)
(0.999824 -1.1114e-05 9.90177e-24)
(0.99993 -1.42088e-05 -2.88414e-24)
(1.00128 -0.000564851 -1.15862e-22)
(0.996418 -0.00664791 -2.51619e-22)
(0.999941 -2.68406e-05 -2.33775e-24)
(0.977557 -0.0807377 6.21536e-22)
(1.00297 -0.00101125 1.10004e-22)
(1.02331 -0.00147217 -1.74612e-21)
(0.983258 -0.00401176 -1.32631e-21)
(1.00844 -0.0292677 2.68398e-23)
(1.02519 -0.000905153 -5.85342e-22)
(0.995818 -0.00235023 -4.65929e-23)
(1.00193 -0.00826662 6.18451e-23)
(0.995211 -0.00147516 3.45442e-22)
(0.979394 -0.0166058 -1.59652e-21)
(0.999558 -0.000324225 -4.04726e-23)
(1.00004 -2.07688e-05 -4.01626e-24)
(1.00389 -0.00112247 1.23068e-22)
(1.02002 -0.00129862 -9.97565e-22)
(1.0022 -0.00100384 1.02461e-22)
(0.999147 -0.000174639 5.71225e-23)
(0.988179 -0.014668 1.54898e-22)
(0.999915 -0.000167338 3.74328e-24)
(1.00001 -2.26511e-06 2.5868e-25)
(1.22178 0.0187337 2.22936e-22)
(0.996594 -0.00630917 -7.71469e-23)
(0.999935 -1.74705e-05 2.5577e-24)
(0.970969 -0.047884 -3.0194e-21)
(0.987644 -0.00375942 1.93326e-22)
(0.97702 -0.00492371 2.58688e-22)
(0.990701 -0.00300926 2.74227e-22)
(0.96854 -0.0232478 -3.42567e-22)
(1.00548 0.14833 1.97779e-20)
(1.03388 -0.00718383 1.78315e-21)
(1.091 -0.0197296 -2.01305e-21)
(0.958902 -0.03837 -3.67436e-21)
(0.993088 -0.00236741 -3.8719e-22)
(1.00079 0.0709955 2.43569e-20)
(1.04372 0.00280713 4.22669e-21)
(0.976542 -0.00869568 1.19225e-21)
(0.998767 -0.00229469 -4.13903e-23)
(0.997998 -0.000290931 4.21485e-23)
(0.994921 -0.00224346 4.7585e-22)
(0.983892 -0.00449371 8.52957e-22)
(0.999428 -0.00107453 2.71562e-23)
(0.996014 -0.000606635 1.4875e-22)
(1.00598 0.0190106 7.64101e-21)
(1.16259 -0.115288 -1.41591e-21)
(0.999883 -4.86588e-05 -6.00376e-24)
(1.00159 -0.00699683 2.63833e-23)
(0.996839 -0.00093371 1.35217e-22)
(0.976769 -0.00273455 -2.07087e-21)
(0.972958 -0.0477685 2.0226e-22)
(1.01019 -0.0284398 1.04437e-22)
(0.998639 -0.00221207 1.3596e-23)
(0.998984 -0.000175569 1.89845e-23)
(0.956556 -0.0137658 8.67978e-22)
(1.09413 -0.0147084 1.77254e-21)
(0.997015 -0.00106233 -3.36938e-22)
(0.999977 -1.18786e-06 -2.48924e-25)
(1.17589 -0.10875 -1.18321e-21)
(1.03744 0.0334851 -7.10838e-21)
(0.91744 0.0369615 4.50038e-21)
(0.99554 -0.00221804 -1.93796e-22)
(0.999992 -2.09386e-06 5.44932e-26)
(1.02376 -0.0152296 -7.02931e-22)
(1.05789 0.0763124 -1.79475e-20)
(1.01131 -0.0738247 -2.62268e-21)
(0.999991 -2.65521e-06 -8.88803e-26)
(1.02544 -0.0159449 -1.51738e-22)
(1.03312 0.0321341 7.48435e-21)
(1.00039 -0.000524327 -8.82666e-24)
(1.04262 -0.0991688 -2.00906e-22)
(1.03493 0.017454 -1.68792e-21)
(0.982182 -0.039296 1.34478e-21)
(0.97674 -0.00598213 -2.7148e-22)
(0.953925 -0.00896901 -2.08597e-21)
(1.00152 0.033272 -1.58675e-20)
(0.997486 -0.0914156 -2.79768e-21)
(1.00897 -0.00774132 6.05367e-23)
(0.955384 -0.0102861 8.21668e-22)
(0.999163 -0.00124905 6.03881e-23)
(0.98889 -0.0107559 3.06644e-22)
(1.00249 -0.00788736 -4.20986e-23)
(0.999101 -0.000129054 -1.274e-22)
(0.987816 -0.0130189 1.65425e-23)
(1.169 -0.159349 -8.57217e-22)
(1.08376 -0.0194459 3.6014e-22)
(0.999471 -0.000496635 3.43901e-24)
(0.999331 -0.00109937 -5.28436e-23)
(0.975487 -0.00793232 3.53941e-22)
(1.0531 0.0679424 6.49171e-21)
(0.995864 0.0291959 2.9333e-20)
(0.999979 -2.28092e-06 -2.94696e-25)
(1.00674 -0.0030147 5.18846e-23)
(0.938391 -0.0109205 -2.56964e-21)
(0.978459 -0.00357583 -1.05932e-21)
(0.984167 -0.0543191 -2.03286e-21)
(0.968841 -0.025036 4.6422e-22)
(0.978289 -0.00445083 -2.29531e-23)
(0.908632 0.0288525 1.77107e-20)
(1.00717 -0.0440051 -7.97057e-23)
(1.01249 0.0209035 -3.85802e-21)
(0.981201 -0.0199239 -8.37292e-22)
(0.96831 -0.00462085 2.88704e-22)
(1.00153 0.0528574 -7.85596e-21)
(1.02488 0.000439078 2.52826e-21)
(1.14919 -0.105851 -1.2636e-22)
(0.998697 -0.00183254 -1.4287e-22)
(1.22113 0.00243158 -3.78655e-22)
(1.04137 0.00277067 -4.43228e-21)
(1.01493 0.119327 -1.94264e-20)
(0.963899 -0.0269257 1.41839e-21)
(0.99275 -0.00165065 8.60152e-23)
(0.929445 0.0986076 3.89088e-20)
(0.999946 -2.28567e-05 -2.20583e-24)
(1.00115 -0.0073804 -1.1838e-23)
(1.01349 0.0395513 5.9292e-21)
(0.999981 -1.77414e-05 1.43755e-24)
(0.998407 -0.00465913 -2.02073e-22)
(0.996429 -0.000902731 -6.46876e-23)
(1.00432 0.0424454 -1.97691e-21)
(1.00216 0.0292256 7.42313e-21)
(0.918467 0.108106 1.29534e-20)
(0.998152 -0.00450529 -1.24655e-22)
(0.997244 -0.000344149 -7.37344e-23)
(1.00001 -3.03281e-06 -2.40692e-25)
(0.951342 -0.00542574 -3.56533e-21)
(1.00037 -0.000467936 1.21879e-23)
(1.04773 -0.0458313 7.54083e-23)
(1.00704 -0.00326317 3.46624e-22)
(0.969034 -0.00548373 5.97768e-22)
(1.1769 -0.090601 -1.59032e-21)
(1.15803 0.0593005 2.0495e-23)
(0.999883 -6.03017e-05 3.28205e-24)
(0.999557 -0.000569813 -3.64199e-23)
(1.05772 0.0868733 -2.72455e-21)
(0.999946 -1.61538e-05 -1.06858e-24)
(0.999902 -1.13796e-05 1.5747e-24)
(0.992531 0.127664 -2.04591e-20)
(1.04564 -0.0528423 -3.72815e-22)
(1.00283 -0.0607367 -1.39409e-21)
(0.983976 -0.0383161 -1.91022e-21)
(0.979004 -0.00642377 7.80487e-22)
(1.00433 -0.0446601 1.52079e-22)
(0.939804 -0.00924391 1.35325e-21)
(0.99998 -1.62123e-05 -5.11367e-25)
(0.973848 -0.0449527 -7.29223e-22)
(1.16718 0.0687055 -2.6316e-21)
(0.997 -0.00129455 4.84079e-23)
(1.00007 -6.18917e-06 -2.98762e-24)
(1.11757 0.0815289 4.06335e-22)
(0.998897 -0.000356467 1.34602e-22)
(0.988582 -0.0125519 4.89318e-22)
(1.00224 -0.0419919 4.91763e-22)
(1.00001 -1.75449e-06 -1.03372e-25)
(1.0008 -0.00181353 -4.93716e-23)
(1.04798 0.0680366 8.30026e-21)
(1.15108 0.0874681 -4.54434e-21)
(1.0078 0.10523 -2.62382e-21)
(1.0421 -0.092996 1.35761e-21)
(1.01531 -0.0717378 5.81269e-22)
(1.06192 -0.140293 -5.40457e-22)
(1.02436 -0.00237582 5.03146e-21)
(1.04338 0.0633894 -2.69992e-21)
(0.999812 -2.00636e-05 -1.15818e-23)
(1.00003 -1.85873e-05 1.05694e-24)
(0.938668 0.015254 -1.72388e-20)
(0.993125 -0.012235 -1.78774e-22)
(0.99945 -0.000442241 -3.40353e-23)
(0.975812 -0.044475 1.52266e-21)
(0.98836 -0.0113222 -3.58667e-22)
(1.02785 0.108818 -2.12103e-20)
(1.02238 0.105683 -4.47416e-21)
(0.981669 -0.0552365 5.48381e-22)
(0.866721 0.0710667 -1.51057e-20)
(0.998976 -0.000403111 -9.91011e-23)
(0.990318 -0.0023526 3.12976e-22)
(0.954998 -0.012521 1.13781e-21)
(1.03482 -0.00231707 -1.02928e-21)
(0.98983 -0.110683 -2.4347e-22)
(1.1802 0.160933 -7.2222e-21)
(0.929927 0.086458 -3.32747e-20)
(1.00006 -9.8689e-05 3.33914e-24)
(1.00899 -0.00712233 1.71103e-22)
(1.033 0.020697 9.18118e-21)
(0.996545 -0.00547231 -3.19424e-22)
(1.03808 0.0172327 -1.14412e-21)
(0.999526 -0.00116997 -8.83814e-24)
(0.887106 0.120823 2.64201e-20)
(1.01503 0.109952 4.36618e-21)
(0.99492 -0.00193782 3.01928e-22)
(1.00324 -0.00797252 -7.46248e-24)
(0.999724 -6.07846e-05 -5.65986e-23)
(1.22416 0.0842548 8.16424e-22)
(0.999916 -9.52269e-06 4.6892e-24)
(0.995162 -0.00999194 1.52958e-22)
(0.945688 -0.0243322 1.55397e-21)
(0.999935 -2.37346e-05 -1.06047e-24)
(0.998861 -0.00268077 -3.45858e-23)
(0.999628 -0.00113628 1.60124e-23)
(1.09298 0.042679 5.77656e-21)
(0.999982 -2.29739e-05 1.74197e-24)
(0.995846 -0.000466173 1.77895e-25)
(0.960869 -0.0382632 4.26541e-21)
(0.836559 0.0377462 -8.85021e-21)
(1.08074 -0.0239989 -5.16966e-22)
(0.904471 0.0819002 2.02332e-20)
(0.999959 -7.27359e-06 -2.68969e-24)
(1.00002 -0.0423655 -3.17536e-23)
(0.999832 -0.000290272 -1.29544e-23)
(1.00784 0.122818 -1.98087e-20)
(1.00364 -0.000763115 -1.58655e-22)
(0.993762 0.041918 9.48131e-21)
(1.00243 -0.00953507 -1.15075e-22)
(1.00071 -0.0019483 5.23684e-23)
(1.02526 -0.0363228 -9.01097e-23)
(1.02437 -0.00130592 -4.65989e-21)
(1.00053 -0.000313558 2.55444e-23)
(0.999795 -5.00359e-05 3.02968e-25)
(1.00046 -0.000422273 5.7189e-23)
(0.996363 -0.00580248 -2.8633e-22)
(1.00811 -0.0645074 1.67819e-21)
(0.999961 -9.71464e-06 1.81714e-24)
(0.965309 -0.0259065 1.00231e-21)
(0.996609 -0.0010364 -1.22768e-23)
(0.999873 -4.21607e-05 6.37213e-24)
(0.999433 -0.000549673 1.10358e-23)
(0.987511 0.0744196 2.28889e-20)
(0.992722 -0.000770661 1.23744e-22)
(0.999307 -9.73943e-05 -1.15152e-23)
(0.876255 0.0170788 3.37391e-20)
(0.998721 -0.00257521 -7.83633e-23)
(1.10342 0.124654 -5.65075e-21)
(0.999813 -0.000267872 2.33171e-23)
(1.00647 -0.0218959 -1.84321e-23)
(1.00002 -1.69448e-06 -9.18704e-26)
(0.982524 -0.0319444 -7.54232e-22)
(1.03391 -0.0025244 1.60784e-21)
(1.18716 -0.0851471 3.28899e-21)
(0.979555 -0.0178782 1.35574e-21)
(0.999627 -0.000576012 4.2111e-23)
(0.975628 -0.0687244 9.53428e-22)
(0.984933 -0.000437871 5.61613e-22)
(0.999837 -1.78402e-05 6.25257e-25)
(1.00045 -0.00036982 -5.06008e-23)
(0.998106 -0.00334713 1.08086e-22)
(0.99306 -0.00138228 -3.71184e-22)
(1.00278 -0.000910654 -1.87562e-22)
(0.998883 -0.00184617 5.1722e-23)
(0.97771 -0.00814889 1.8804e-22)
(1.0124 -0.0635185 -1.20904e-21)
(0.977841 -0.00685078 8.30785e-22)
(1.12583 -0.0894187 -2.01278e-22)
(0.970838 -0.00746787 -1.04731e-21)
(1.03436 0.142969 2.16702e-21)
(1.02823 0.147335 -1.58169e-20)
(0.998626 -0.000734541 -8.62972e-23)
(1.20444 -0.109415 -6.97754e-21)
(0.999985 -3.05179e-06 -1.65536e-25)
(0.998054 -0.00414234 -1.32401e-22)
(0.976185 -0.00190617 2.11631e-21)
(1.00972 0.031772 4.90167e-21)
(1.0462 0.00807622 -4.22114e-21)
(1.00009 -3.12382e-05 6.86293e-24)
(0.998179 -0.00391036 -8.79885e-24)
(0.971819 -0.00828578 7.89531e-22)
(1.06996 0.0406128 -2.54887e-21)
(0.999095 -0.00114992 4.49527e-23)
(1.00316 -0.000742166 1.06147e-22)
(1.00115 -0.000958061 -9.34263e-24)
(1.15353 -0.0219525 7.61279e-23)
(1.16011 -0.165376 -4.58246e-21)
(1.0696 0.174818 9.48857e-21)
(0.998543 -0.000238353 -8.38253e-23)
(1.05461 -0.0542911 5.53054e-22)
(0.999896 -6.44935e-05 -5.24737e-24)
(1.00441 -0.00709985 -3.56492e-22)
(0.999951 -1.30717e-05 -7.61369e-25)
(0.986049 -0.0195296 2.39727e-22)
(0.999686 -7.21021e-05 -1.08296e-23)
(1.01075 -0.0220393 7.86293e-23)
(1.22199 -0.13602 7.38797e-21)
(0.975033 -0.0250142 1.62538e-21)
(1.00767 -0.0214397 -2.16765e-23)
(1.00805 -0.00635941 -2.21969e-22)
(0.999333 -0.00012718 5.17105e-23)
(1.02539 -0.0199372 4.87475e-22)
(0.99637 -0.0179923 2.48131e-22)
(1.08967 -0.00629569 -1.22498e-21)
(1.08518 0.041656 2.73289e-21)
(1.08427 -0.174842 6.92228e-23)
(1.11665 -0.10649 -2.30176e-21)
(0.984288 -0.000884478 -5.99736e-22)
(1.00476 -0.00355694 3.38159e-22)
(0.94766 -0.0231482 -6.02856e-22)
(0.906846 0.106664 -4.04881e-20)
(1.10099 -0.0948953 2.69909e-21)
(1.02697 -0.0129128 -2.0192e-21)
(0.878353 0.0772173 -2.04292e-20)
(0.998594 -0.000181674 4.14556e-23)
(0.998391 -0.000905439 -2.65914e-23)
(1.13842 -0.110652 -2.49669e-21)
(0.999018 -0.00200191 -2.7774e-23)
(1.008 -0.0412606 1.42041e-22)
(1.0055 -0.00173177 1.18959e-22)
(0.99738 -0.000401335 -6.57188e-23)
(0.998082 -0.000336073 -1.03794e-22)
(1.04061 0.0265578 5.3578e-21)
(0.999938 -0.000142996 -4.35921e-25)
(1.0005 -0.000256285 -2.27316e-23)
(1.00007 -1.26764e-05 5.11454e-24)
(0.996783 -0.000629737 3.47548e-22)
(0.994087 -0.00874237 3.97156e-22)
(0.999984 -2.4356e-06 1.27665e-25)
(0.998992 -0.000238913 1.0671e-23)
(0.980377 -0.0157866 4.75781e-22)
(0.93693 0.0227511 1.08112e-20)
(1.0093 -0.0226916 2.07558e-23)
(0.993203 -0.0114717 6.4374e-22)
(0.953326 0.084758 4.57741e-21)
(1.00129 0.0313906 1.38052e-20)
(1.07308 -0.0134765 -1.06514e-21)
(1.20341 -0.0951568 2.3753e-21)
(0.950204 -0.00399467 1.94416e-21)
(1.00471 -0.00411449 -1.66977e-22)
(1.01275 0.0548454 -7.69415e-22)
(0.989496 -0.00207613 -7.46593e-22)
(1.07182 0.129289 1.84335e-22)
(1.0034 -0.0476065 2.21633e-23)
(1.00954 -0.106998 -1.02886e-21)
(1.14122 0.0839698 2.95687e-21)
(1.07732 0.137742 -8.12992e-21)
(0.966733 -0.0224545 2.22212e-21)
(1.04682 0.00555449 -2.67008e-21)
(1.19276 0.168197 6.51188e-21)
(1.0937 0.127623 1.12293e-20)
(1.02527 -0.00300218 1.57598e-21)
(0.997188 -0.00139842 7.61435e-23)
(0.996089 -0.00215617 6.63439e-23)
(0.999919 -2.30423e-05 -2.4817e-24)
(1.01422 -0.0287807 3.6202e-23)
(0.989202 -0.00174011 1.75637e-22)
(1.00095 -0.00227323 -4.32176e-23)
(0.999903 -2.31695e-05 -4.63788e-24)
(0.998511 -0.000671312 3.3708e-23)
(0.973738 -0.0673251 -1.57892e-21)
(1.14282 0.00502073 7.55888e-22)
(0.983771 -0.00553683 -9.59541e-22)
(0.999117 -0.0119674 2.7485e-22)
(0.996454 -0.000692676 -1.86697e-22)
(1.05105 -0.055543 -5.66641e-23)
(0.993369 -0.00145156 -5.95304e-22)
(1.00222 -0.00714734 1.29865e-22)
(1.2153 0.145861 1.16921e-21)
(0.998286 -0.000320391 -2.40957e-22)
(0.99998 -4.39517e-05 -1.22053e-24)
(0.99995 -0.000172826 -6.71125e-25)
(1.00005 -0.00010092 4.3121e-24)
(0.979914 -0.00716794 4.3881e-22)
(1.03807 0.0242213 -6.30721e-21)
(0.996238 -0.000527187 7.36334e-24)
(1.02288 -0.0107331 1.31909e-21)
(0.994051 -0.116521 1.92506e-21)
(0.999479 0.108086 -4.63696e-22)
(1.00371 -0.00723062 1.17065e-22)
(1.0063 -0.00461012 -5.56431e-23)
(0.995235 -0.00241433 -2.4021e-22)
(0.993014 0.0733048 -2.23487e-20)
(0.999025 -0.000125942 3.45155e-23)
(1.0763 0.181373 -4.70767e-21)
(1.00974 0.0217924 -7.50733e-21)
(0.999894 -2.84941e-05 5.42542e-24)
(1.00142 -0.0481035 -8.36116e-22)
(0.996895 -0.000728738 -1.71696e-22)
(0.986874 -0.055558 2.49839e-21)
(1.00053 -0.00013805 2.27663e-23)
(1.06908 -0.00872438 1.54726e-21)
(1.00634 -0.0160431 -3.55787e-24)
(1.0059 -0.00418106 2.81073e-23)
(0.999215 -0.000154349 -6.87538e-23)
(1.09802 0.0370665 2.64908e-21)
(1.06352 0.0399128 9.61928e-22)
(1.00033 -0.0626843 1.36131e-21)
(0.980988 -0.0184508 -9.09228e-23)
(0.997999 -0.00357268 -9.31567e-23)
(0.997813 -0.0383072 -1.53216e-21)
(1.2043 -0.00455767 2.00911e-22)
(0.843923 0.0585336 -1.9399e-20)
(1.05949 -0.0957258 -1.46908e-21)
(1.00486 -0.00769182 -5.30547e-23)
(0.999993 -2.80178e-06 -4.16151e-26)
(0.987577 -0.00457266 -7.72766e-22)
(0.997897 -0.0003675 2.24198e-22)
(1.02402 -0.0198489 7.06072e-22)
(0.989021 -0.094097 -8.10652e-22)
(1.19021 -0.118382 2.57228e-21)
(0.98486 0.102385 -2.74618e-20)
(1.07387 0.0349747 4.05242e-21)
(1.06892 -0.134001 2.20505e-21)
(1.12084 0.0916244 1.36471e-21)
(0.999628 0.034764 2.63297e-20)
(1.01935 -0.00273123 1.13203e-21)
(1.00114 -0.00220278 9.95103e-23)
(1.03817 0.0748712 4.26311e-21)
(0.999202 -0.0019522 6.17831e-23)
(0.999831 -0.000160323 5.13457e-24)
(0.983044 -0.00184011 2.67718e-22)
(1.00008 -3.08622e-05 1.28492e-24)
(1.06318 -0.150054 9.93406e-22)
(1.00325 -0.017478 -6.88098e-23)
(0.984447 -0.0316431 1.27982e-21)
(1.00177 -0.00150996 5.1466e-23)
(1.1073 0.0795666 8.07501e-21)
(0.998362 -0.000304709 -1.98674e-23)
(0.999977 -3.5193e-05 -1.11499e-25)
(1.00322 -0.108401 1.10544e-21)
(1.00157 -0.00130649 -3.01711e-23)
(1.11373 -0.0409365 -2.63764e-22)
(0.958685 -0.0129765 4.07045e-22)
(0.941131 -0.0150779 1.95868e-22)
(1.26458 -0.077752 4.98108e-22)
(1.02983 0.0201934 -2.39361e-21)
(1.02358 0.00556384 1.47984e-21)
(1.02214 0.00539132 -5.79245e-22)
(0.999812 -4.11479e-05 1.81269e-24)
(1.15209 -0.00188139 4.23192e-22)
(1.09221 -0.00193337 1.42932e-21)
(0.99952 -0.000619345 1.6183e-23)
(0.984482 -0.00602747 1.11449e-21)
(1.00057 -0.000198241 -2.53395e-23)
(1.0109 -0.0203101 -4.58308e-22)
(1.00686 -0.0281675 -5.61531e-23)
(1.00424 -0.00133398 8.35614e-25)
(0.999292 -0.0012315 -7.32803e-23)
(1.2128 0.0719631 -2.46396e-21)
(0.99998 -2.10641e-05 -2.00607e-24)
(1.00019 -0.000105557 -6.67168e-24)
(1.00187 -0.00102723 -2.22642e-24)
(0.979158 -0.0030949 7.37214e-22)
(1.01874 -0.0121513 9.11866e-22)
(0.984102 -0.0266891 -1.80065e-21)
(0.974397 -0.00474282 -4.2782e-22)
(1.0057 -0.0608283 7.8151e-22)
(1.00392 -0.127802 -2.06163e-21)
(1.02403 -0.0333032 1.03497e-22)
(1.04418 0.0749344 -2.39974e-20)
(1.22426 -0.118239 -4.94169e-21)
(0.993856 -0.00245187 -3.10574e-23)
(0.881154 0.112693 3.16484e-20)
(0.974844 -0.0497579 2.63708e-21)
(0.993786 -0.0092656 1.24663e-22)
(0.975049 -0.00393829 7.03614e-22)
(0.997479 -0.0174466 -7.07749e-23)
(0.980447 -0.00225999 1.13012e-21)
(0.990642 -0.00366896 -2.26144e-22)
(1.02702 -0.0148416 -1.36369e-21)
(1.10503 -0.102736 -6.74005e-22)
(0.999976 -4.09868e-05 -1.67017e-25)
(1.02299 -0.0138636 -1.59447e-22)
(0.999911 -2.82081e-05 -2.64126e-24)
(1.02195 0.122821 5.19278e-21)
(1.23278 0.0246802 -3.5246e-22)
(0.995523 -0.00184542 7.61218e-23)
(0.986821 -0.0016297 -1.02504e-21)
(0.999828 -5.10416e-05 -1.32529e-23)
(0.999427 0.0637622 1.64112e-20)
(1.05653 0.138495 1.12246e-20)
(1.14897 -0.0142515 4.74168e-23)
(1.25065 0.113713 -1.12404e-21)
(0.97446 -0.0526668 -1.14862e-21)
(0.998336 0.0104305 -2.55871e-20)
(0.999942 -0.000126505 2.51101e-24)
(1.04524 -0.0344586 1.11849e-21)
(0.982706 -0.00140229 -4.1382e-23)
(1.14453 0.0608805 -1.3022e-21)
(0.917708 0.078154 -2.45731e-20)
(1.20188 -0.0177508 -1.62477e-21)
(1.06422 0.0285776 6.6246e-22)
(0.999774 -0.0118771 -4.75458e-23)
(0.999814 -7.96581e-05 -1.21318e-23)
(1.24005 0.0824733 3.95871e-22)
(1.17164 -0.142472 1.05043e-21)
(0.996666 0.0769119 -4.7576e-22)
(1.10536 -0.0378646 5.67024e-22)
(1.04475 0.057874 7.06929e-21)
(0.993492 -0.00218797 -1.06175e-22)
(0.993956 0.102163 7.38135e-21)
(1.06199 0.129661 3.8399e-21)
(0.991691 -0.00310967 -6.34431e-22)
(0.993055 -0.00290895 -2.36233e-22)
(1.24645 0.0519844 -1.29305e-22)
(0.939046 -0.0139293 -2.71688e-21)
(0.999922 -0.000146952 -3.89252e-24)
(0.988163 -0.00494867 9.94895e-22)
(0.943389 -0.019676 2.0067e-21)
(0.982431 -0.0676136 -3.33823e-22)
(1.00929 -0.00242508 -9.64758e-22)
(1.00808 -0.00577506 6.01866e-23)
(0.999886 -0.000183407 -7.25005e-24)
(1.06088 0.14718 -1.68796e-20)
(1.00015 -0.0108113 7.9297e-24)
(0.999905 -5.58881e-05 2.34222e-24)
(1.01345 -0.0587753 1.01225e-21)
(0.999543 -0.000407582 1.43632e-23)
(0.999795 -7.12155e-05 9.21637e-25)
(1.00479 -0.0117531 -5.94449e-23)
(1.09002 0.084631 1.17098e-20)
(1.00068 -0.0967486 1.51713e-21)
(0.941586 0.0792818 1.43079e-20)
(1.00006 -9.10847e-06 -3.56684e-24)
(1.0996 0.0878377 -1.20194e-20)
(1.0088 -0.0496602 7.18591e-22)
(0.999929 -0.000180516 -1.10096e-24)
(1.00002 -5.88591e-06 -1.08373e-24)
(1.00297 0.0121274 -1.23135e-21)
(1.07958 0.0715208 4.48516e-21)
(0.996362 -0.00227732 6.61158e-23)
(1.06831 0.0533336 -5.95918e-21)
(1.00003 -1.87837e-05 7.8572e-25)
(1.07029 0.0607805 -8.08399e-21)
(1.07513 -0.166755 2.87756e-21)
(0.991251 -0.00278369 6.97645e-22)
(0.999172 0.0166332 -3.43534e-20)
(0.976372 -0.0419716 1.76281e-21)
(1.25255 0.0969658 5.4444e-22)
(0.976169 -0.00394273 4.30612e-22)
(1.07786 0.0633393 1.05688e-20)
(1.08816 0.0744444 -3.26608e-21)
(0.985216 -0.00745549 1.61356e-21)
(0.980739 -0.00899891 -1.18079e-21)
(0.995314 -0.00929986 3.73777e-22)
(0.997419 -0.000683746 -5.65094e-23)
(0.999817 -0.0001782 1.39529e-23)
(0.99995 -0.0103371 -1.43784e-23)
(1.07644 0.119356 -1.95867e-21)
(0.999974 -3.22204e-05 5.07427e-25)
(1.06135 0.051644 7.87198e-21)
(1.01122 -0.100392 2.50831e-21)
(1.01152 0.0790562 6.29183e-21)
(1.05942 0.0454942 -9.06877e-21)
(0.941271 -0.0183832 -2.49063e-22)
(0.950468 0.101949 -2.96582e-20)
(0.998566 -0.00108198 4.7848e-24)
(1.01426 -0.0265262 1.75626e-22)
(1.03484 -0.0831545 7.40226e-22)
(0.981275 -0.00213386 -6.93767e-23)
(0.99421 -0.00308648 3.15273e-22)
(1.00616 -0.0503555 -6.22796e-22)
(1.05476 -0.0281465 -1.10549e-22)
(0.892524 0.0702708 3.87499e-20)
(1.00004 -1.75316e-05 3.83628e-24)
(0.998306 -0.00115276 6.45171e-23)
(1.00777 -0.0721209 3.14869e-23)
(1.00001 -4.76059e-06 1.28507e-25)
(1.02367 0.131748 2.5564e-21)
(1.0016 -0.00113041 0)
(1.00001 -6.42117e-06 9.79729e-26)
(1.00018 -8.18535e-05 1.56718e-23)
(1.00037 -0.000114583 3.15471e-25)
(0.986386 -0.0183009 1.21583e-21)
(1.02183 -0.0184429 -5.02297e-22)
(0.998632 -0.000844468 1.01719e-22)
(0.999923 -1.61252e-05 4.91996e-24)
(0.993834 -0.00288788 1.74961e-22)
(1.00414 -0.0122061 -3.96528e-23)
(0.979543 -0.0967348 -2.19081e-21)
(0.94621 -0.00627896 1.95833e-22)
(1.01813 -0.0108144 1.62785e-21)
(0.999976 -2.51274e-06 1.57322e-24)
(1.03892 -0.155501 2.96193e-21)
(0.988369 -0.00345329 -3.98748e-22)
(1.21642 0.0536273 7.55985e-23)
(1.0004 0.0128201 -4.52265e-21)
(1.00116 -0.00331942 2.28671e-23)
(1.18744 0.0490873 -2.84356e-21)
(1.00014 -8.82865e-05 1.02407e-27)
(0.988914 -0.00387925 1.14796e-23)
(1.02525 0.000483139 -2.91854e-21)
(0.994234 -0.00351285 -1.29099e-22)
(1.09778 0.104952 -7.21385e-22)
(0.988807 -0.00605392 -7.52292e-22)
(1.04751 -0.0322844 -1.04111e-21)
(1.02577 0.00104303 -3.15025e-21)
(1.08152 0.0353212 -1.62552e-21)
(1.00673 -0.0147673 -2.29038e-22)
(0.991111 -0.00395998 1.87714e-23)
(1.12527 0.0719405 4.36524e-21)
(0.975999 -0.0725035 -1.88074e-21)
(1.00668 0.130892 2.16854e-20)
(0.992131 -0.00449743 -7.36074e-22)
(1.11215 0.144229 -2.78492e-22)
(0.992118 -0.00394258 1.96658e-22)
(0.998981 -0.000485524 -6.63487e-24)
(1.06239 0.0245346 1.93194e-21)
(1.01233 -0.0298345 9.04323e-24)
(1.03961 -0.000243096 4.1578e-21)
(1.00165 -0.000789309 3.35772e-23)
(1.00001 -5.18517e-06 4.49196e-26)
(0.984952 -0.110963 7.95117e-22)
(1.20695 0.134236 -4.83193e-21)
(1.00138 -0.00322435 -3.18887e-23)
(1.20255 0.0430701 1.31157e-22)
(0.989421 -0.00565677 -4.9322e-22)
(1.03153 -0.156009 -1.11032e-21)
(1.03994 -0.0478598 -8.71582e-23)
(0.983665 -0.0283198 1.01413e-21)
(0.998528 -0.000942986 -4.29976e-23)
(0.992368 -0.000995989 -1.4887e-22)
(0.972853 -0.0617673 -1.09773e-21)
(0.97424 -0.00846037 1.61361e-21)
(0.991644 -0.00366928 5.19267e-22)
(0.99987 -0.000415868 6.21707e-24)
(0.996963 0.13915 -2.74207e-21)
(1.17573 0.0396376 1.55717e-21)
(1.02405 -0.0119912 -5.12126e-22)
(0.999824 -0.000138773 9.33648e-24)
(1.05711 0.12151 -7.5506e-21)
(1 -2.24815e-05 1.7423e-25)
(0.999838 -0.000123841 1.84894e-23)
(1.1621 0.0445746 1.88413e-21)
(1.00883 -0.0246075 8.62442e-23)
(1.21445 0.105003 3.27971e-21)
(1.02404 -0.00339948 1.18589e-21)
(1.01613 -0.0131593 -1.03471e-22)
(1.07324 -0.0889218 1.03288e-21)
(1.01912 -0.12547 2.48219e-21)
(1.25467 -0.0832548 2.14727e-21)
(1.00116 -0.000805627 -7.36986e-23)
(0.960219 -0.0142 -1.5656e-22)
(0.999983 -5.39295e-05 -3.60622e-25)
(1.00454 -0.0106688 4.29739e-23)
(1.10237 0.0969756 4.2557e-21)
(0.985999 -0.00699837 1.12801e-21)
(0.997554 -0.00137024 8.93225e-23)
(1.01089 -0.0404802 -4.29729e-22)
(0.998277 -0.00101708 6.13398e-24)
(0.999651 -0.00102249 1.90546e-23)
(0.883946 0.0162838 6.92568e-21)
(0.991658 -0.00483203 -4.16157e-22)
(0.999521 -0.000676043 -5.59699e-23)
(0.999985 -6.29024e-07 -3.25612e-25)
(1.0189 0.00704288 6.48633e-21)
(0.975767 -0.0234515 -2.44303e-22)
(0.999713 -0.000510525 1.67952e-23)
(0.997565 -0.000796397 1.15195e-22)
(1.0276 0.023001 2.66429e-21)
(1.07795 -0.00175018 3.96326e-22)
(0.96666 -0.0205012 -1.38203e-21)
(1 -1.41517e-05 3.93467e-26)
(1.00125 0.0119303 1.79784e-20)
(0.987616 -0.0159772 -8.26857e-22)
(1.10409 0.0700599 -8.10296e-21)
(1.01218 -0.00123493 -1.47308e-21)
(1.0142 -0.00128853 3.37119e-21)
(0.972757 -0.0104968 2.19424e-21)
(0.999916 -5.93813e-05 -1.53417e-24)
(1.02499 0.000173752 -5.92737e-22)
(1.08223 -0.00687478 -4.36568e-22)
(1.24082 -0.0470655 -2.8781e-21)
(1.01741 -0.098374 5.90835e-22)
(1.07016 0.111783 5.70308e-21)
(1.00524 -0.00160542 -2.36663e-23)
(1.13723 0.073564 -5.96415e-21)
(0.999766 -0.0138757 -8.10131e-23)
(1.01048 -0.0558269 -1.69399e-21)
(0.999658 -0.000152938 -1.81409e-23)
(1.00255 -0.018574 1.34503e-22)
(0.999909 -0.000398675 2.38274e-24)
(1.06029 0.0336118 -5.89462e-21)
(1.14866 0.152313 -1.36207e-20)
(0.998702 -0.00111392 3.41908e-23)
(1.01757 -0.0134984 1.43065e-23)
(0.984767 -0.00419902 3.87455e-22)
(1.02416 -0.0894494 2.80089e-22)
(1.01831 -0.0920632 -1.26376e-21)
(0.998364 -0.000803582 6.77561e-23)
(1.04171 -0.0341028 -3.62163e-22)
(0.894176 0.00480332 -1.1686e-20)
(1.21551 -0.0599179 -2.46749e-21)
(0.999952 -0.00015372 5.43871e-24)
(1.07151 -0.00304382 -1.37916e-21)
(0.997371 -0.00852478 -1.83696e-22)
(0.994448 0.00275689 2.4419e-20)
(0.989425 -0.00494874 6.85111e-22)
(0.995449 -0.0250578 -2.33244e-22)
(1.01393 -0.0365973 -2.0582e-23)
(0.994125 -0.0257814 -3.2138e-23)
(0.998166 -0.0201923 -5.31367e-22)
(0.993426 -0.00312451 1.20424e-22)
(0.998962 -0.0137142 2.84559e-22)
(1.00176 -0.00602838 -3.54755e-23)
(1.05489 -0.0323501 2.77674e-22)
(1.00009 -2.30639e-05 -9.99574e-24)
(1.1188 -0.172978 -1.70393e-21)
(1.16191 -0.082094 -1.02115e-21)
(1.04145 0.144954 1.42442e-20)
(0.968291 -0.0194772 2.09741e-21)
(1.19515 0.104302 -1.80127e-21)
(1.00176 -0.000614324 1.19557e-22)
(1.04838 -0.0878221 -6.19367e-24)
(1.00198 -0.0369601 -5.84082e-22)
(1.02609 0.0430481 7.9371e-21)
(0.993872 -0.00378948 2.99554e-22)
(1.0001 -0.000170477 6.58715e-24)
(0.988199 -0.0166631 1.08032e-21)
(0.996085 -0.00907315 -1.41811e-22)
(1.03952 -0.0308997 9.45488e-22)
(0.975597 -0.00650516 -1.36635e-21)
(0.979777 -0.0083768 3.90056e-22)
(1.11522 -0.0822311 -4.3589e-22)
(0.987126 -0.0027507 -6.74331e-22)
(1.01133 -0.0376902 2.92271e-22)
(0.983113 -0.0714947 1.38803e-21)
(1.00001 -7.49894e-06 8.16537e-26)
(1.05916 -0.0251507 1.72015e-21)
(0.985678 -0.0649699 -3.71443e-21)
(1.19387 0.0757029 1.3286e-21)
(1.06991 -0.0948835 -1.88325e-21)
(1.03777 -0.000411115 3.45609e-22)
(1.00669 -0.0957676 -3.17325e-21)
(1.07709 0.157429 3.48354e-21)
(1.02996 -0.0398426 1.45206e-22)
(0.971624 -0.00967219 -1.29859e-21)
(1.00956 -0.0465057 -8.55291e-22)
(0.952191 0.00686429 1.09892e-20)
(1.09488 -0.150887 9.00423e-22)
(0.988847 -0.00459282 -2.08378e-22)
(1.00109 -0.115135 -2.36421e-22)
(1.01562 -0.0665403 1.20839e-21)
(1.01469 -0.112163 -3.75964e-22)
(1.02431 -0.0832711 -1.40575e-21)
(1.12062 0.0625121 5.77354e-21)
(0.997577 -0.00157506 5.88191e-24)
(1.01075 0.0514663 3.02367e-21)
(1.00711 -0.00155755 1.72644e-22)
(0.999657 -0.000516309 -2.40498e-23)
(0.99896 -0.00221866 1.69989e-22)
(1.06379 -0.00886366 -4.31102e-22)
(0.834448 0.00563662 3.39464e-22)
(1.00142 -0.00643553 1.71895e-23)
(1.01145 -0.0522492 2.40934e-22)
(1.02835 0.0266662 -4.41676e-21)
(1.00002 -6.73503e-06 -1.90674e-25)
(0.981705 -0.00848427 9.43524e-22)
(1.02141 -0.0107844 1.16856e-21)
(1.06539 -0.0585685 -3.99287e-22)
(1.00723 -0.000791362 9.69501e-22)
(0.998606 -0.00197607 3.09796e-23)
(0.983977 -0.0358532 1.57295e-23)
(0.997991 -0.00821385 -5.54442e-23)
(1.00003 -5.39708e-06 2.08142e-24)
(0.97828 -0.0413643 -2.97879e-21)
(1.08199 0.0994463 -1.97089e-21)
(1.01644 -0.0326191 1.29169e-22)
(0.985429 -0.00476165 -7.24189e-22)
(1.00161 -0.000413783 -4.28986e-23)
(1.03228 0.0282583 5.80564e-21)
(0.999664 -0.000627092 -1.10604e-23)
(0.998911 -0.000636367 -3.45157e-24)
(0.999687 -0.000167089 -1.65606e-23)
(0.99935 -0.00209277 -4.28045e-23)
(1.22924 -0.0294538 -9.44599e-22)
(1.02375 -0.0383831 -8.9224e-23)
(1.00688 -0.0185861 5.4184e-23)
(0.984423 -0.0069925 -3.31145e-22)
(1.00004 -4.99955e-05 2.01891e-24)
(1.03411 -0.127819 3.47155e-21)
(1.18879 -0.134734 2.27971e-23)
(1.03396 -0.136474 -1.64341e-21)
(0.995723 -0.0318132 -4.39183e-22)
(1.01279 -0.00956631 1.08765e-21)
(0.999815 -9.75063e-05 7.66111e-24)
(0.989891 -0.0109694 -4.31117e-22)
(0.962615 -0.0405981 -1.68119e-21)
(1.20758 -0.0454387 4.92245e-22)
(1.00921 0.0765905 -2.22402e-22)
(0.998979 -0.00314131 3.45736e-23)
(0.952356 -0.0280651 9.25635e-22)
(0.995861 -0.00269303 -2.87674e-22)
(1.02872 -0.0366614 5.07942e-23)
(1.13695 0.0510405 3.65735e-22)
(1.00039 -0.000131832 -3.56617e-23)
(0.999862 -0.0002112 -2.85447e-24)
(1.2501 0.064592 -8.14355e-23)
(1.1839 -0.0599464 7.18178e-22)
(1.0165 -0.0163259 3.80935e-22)
(0.99741 -0.00171601 1.52134e-22)
(0.998163 -0.000457022 -1.50754e-23)
(0.968279 -0.0418271 4.12054e-22)
(0.999847 -0.000347776 -9.43399e-24)
(1.01407 -0.0338731 -1.01134e-22)
(0.988298 -0.0013615 1.39259e-21)
(1.00056 0.0148706 -3.77532e-21)
(1.09005 0.106675 -1.04984e-21)
(1.04635 -0.081113 7.29439e-22)
(0.988889 -0.0660179 1.36185e-21)
(1.00588 -0.00142006 4.79439e-22)
(1.0123 -0.0252695 -2.35373e-22)
(1.16052 -0.0674014 -1.7945e-21)
(0.987176 -0.0726711 -8.50777e-22)
(1.01255 -0.045551 4.89944e-22)
(0.999999 -6.90903e-06 4.37966e-26)
(1.1362 -0.0707751 -1.68719e-21)
(0.977533 -0.0026704 1.2959e-22)
(0.984779 -0.0797981 1.67069e-21)
(1.01635 -0.0300569 -2.41669e-22)
(0.962029 -0.0135144 -2.86744e-22)
(0.999647 -0.000294112 -8.10032e-24)
(0.997373 -0.00128257 -6.78991e-23)
(1.05331 0.04406 7.01517e-21)
(0.974121 -0.00986484 -4.93768e-22)
(0.999987 -2.05918e-06 3.56505e-25)
(0.997477 -0.000531605 -1.59133e-22)
(1.10281 -0.139885 -5.30659e-21)
(0.999855 -5.07574e-05 1.94293e-23)