/*--------------------------------*- C++ -*----------------------------------*\
  =========                 |
  \\      /  F ield         | OpenFOAM: The Open Source CFD Toolbox
   \\    /   O peration     | Website:  https://openfoam.org
    \\  /    A nd           | Version:  7
     \\/     M anipulation  |
\*---------------------------------------------------------------------------*/
FoamFile
{
    version     2.0;
    format      ascii;
    class       surfaceScalarField;
    location    "37";
    object      phi;
}
// * * * * * * * * * * * * * * * * * * * * * * * * * * * * * * * * * * * * * //

dimensions      [0 3 -1 0 0 0 0];

internalField   nonuniform List<scalar> 
44730
(
-595.674
670.34
-74.6655
1064.36
-1072.38
8.02047
-334.301
380.917
-46.6158
221.176
-259.151
37.9757
-498.041
498.041
213.921
-260.396
46.475
-386.077
380.081
5.99641
30.3974
-569.044
538.647
664.476
-833.965
169.489
-1009.37
1102.33
-92.9559
561.798
-150.325
-411.473
-534.02
535.912
-1.89133
-687.692
582.588
105.104
-859.807
868.864
-9.05739
248.261
70.1657
-318.427
384.671
-10.0879
-374.583
814.4
-666.911
-147.489
-400.62
413.932
-13.3123
160.617
314.822
-475.439
289.447
-355.613
66.1662
-593.907
81.7056
512.201
724.823
-60.3471
49.2075
-383.509
136.389
-489.081
352.691
236.6
-127.375
-109.225
1068.16
-3.80632
659.739
-680.863
21.1235
-279.342
-2.12535
281.467
293.65
-45.3886
-443.812
543.955
-100.144
956.432
-247.958
-708.474
-676.47
766.763
-90.2937
258.582
-225.725
-32.8569
482.438
-75.1706
-407.268
132.298
-411.64
262.888
-432.407
169.519
441.485
-583.354
141.869
291.406
-42.7746
-248.631
825.739
-980.81
155.071
1063.64
-237.901
-1018.35
1035.83
-17.4806
399.435
-86.7725
-312.662
704.075
110.325
189.047
-316.558
127.511
1228.49
-777.717
-450.772
-591.199
147.387
536.494
-538.94
2.44572
230.478
645.567
-876.045
225.92
537.209
-763.129
-101.153
542.638
-391.542
170.977
220.564
-7.59181
-227.438
235.03
-671.935
-4.53495
237.462
-23.541
423.337
-38.6662
-276.881
-40.4883
317.369
523.793
-499.357
-24.4357
-34.3369
-559.57
-466.441
46.3321
420.109
-297.962
-35.188
333.15
799.486
17.5791
-817.065
-409.153
569.77
10.1402
-247.508
237.368
-222.267
485.155
-321.614
430.985
-109.37
263.026
240.857
-503.883
495.598
-121.401
-374.197
429.57
-50.6855
-378.885
-452.021
-29.2674
481.288
-986.821
-31.5302
1062.23
5.92938
300.932
281.994
-582.926
-245.569
548.265
-302.696
170.132
83.1903
-253.322
-430.598
380.647
49.9505
-376.969
394.539
-17.57
277.928
-160.152
-117.776
-250.416
-57.9455
308.362
-699.28
16.5333
682.746
407.512
-86.898
-320.615
-249.268
249.268
79.5169
-759.114
679.597
-666.159
70.4848
-947.212
848.237
98.9751
-326.538
-59.5389
-16.5561
219.324
-202.768
517.424
-133.393
-384.031
-644.444
-43.2479
652.346
-69.7585
91.411
83.8003
-175.211
-361.391
99.1195
262.271
-306.112
55.6961
847.23
-621.31
569.115
-602.997
33.8814
217.044
-89.9546
-127.09
-358.302
134.54
223.762
-30.9523
260.64
-229.688
-846.776
847.609
-0.832179
-38.4789
-154.481
192.96
266.355
-0.716316
-265.639
-711.439
12.1593
-262.351
281.127
-18.7753
778.721
20.7645
434.774
-640.413
205.639
205.084
-212.675
-756.907
822.244
-65.3371
645.375
-715.913
70.5378
74.6257
577.721
943.83
-846.98
-96.85
-213.81
249.347
-35.5369
198.838
59.7437
357.696
124.122
-481.818
1009.1
-256.887
-752.212
17.3476
564.355
-581.703
-12.2916
-587.724
600.015
539.055
-238.123
113.076
421.406
-534.482
-302.828
406.184
-103.356
76.722
-814.822
738.1
-700.367
454.798
16.8329
-220.314
203.481
21.2492
-855.798
834.549
-330.993
325.814
5.17879
-36.7944
299.821
23.9802
-891.047
867.067
-352.392
352.522
-0.129979
-72.5664
-328.053
18.1823
-295.175
276.993
705.348
-787.279
81.9308
726.058
-860.294
134.235
-158.45
347.498
178.869
99.0584
195.214
-204.626
9.41197
309.002
-313.393
4.39111
-128.256
563.031
629.507
326.925
147.112
72.9957
-220.108
273.779
-312.64
38.8611
231.528
-265.819
34.2906
-18.8701
285.225
-361.315
8.92311
2.14939
-182.534
180.384
216.991
-55.2533
-161.738
181.125
827.974
-198.072
-739.274
937.346
-101.087
-396.954
523.201
13.2934
239.981
-226.057
-13.9244
282.944
-232.637
-50.3074
36.6338
-228.709
192.075
-398.671
638.893
-240.222
49.1148
512.896
-562.011
984.133
-886.685
-97.4486
790.849
-787.079
-3.77033
-576.273
-234.57
810.843
-145.526
722.05
-576.524
452.975
-443.23
-9.74459
-213.119
0.359723
212.759
34.6984
-764.062
729.363
-169.123
-222.419
-242.843
229.7
13.1437
242.646
-21.4703
16.7692
1020.86
-572.447
-448.41
735.193
-933.265
-397.561
94.7331
8.89456
208.097
16.5555
-778.307
761.752
-90.3627
-856.849
415.894
-451.262
35.3681
-106.793
832.852
52.8636
-736.883
684.02
-206.35
-6.76946
273.779
11.5446
251.707
-263.252
-431.927
431.927
82.2468
680.353
-762.6
-311.646
49.2947
-580.117
597.464
329.734
-318.874
-10.8591
-777.829
-63.2664
841.095
-152.967
453.929
-300.963
433.808
83.6157
430.285
-441.702
11.4169
278.236
-46.7074
-202.493
-331.648
534.141
499.967
-380.811
-119.156
-327.903
20.4693
307.434
786.214
-80.8656
-519.214
-81.4309
600.645
-661.02
661.02
-131.378
505.36
-373.983
95.3969
-345.596
250.199
-919.236
342.963
305.835
-356.229
50.394
436.613
16.3616
813.501
-495.405
-318.096
918.22
-70.6051
-847.615
72.081
144.963
-847.523
614.616
232.906
-25.3997
278.77
-253.371
-205.505
226.306
-20.801
-45.9457
-488.075
875.486
-890.346
14.8607
-59.2374
429.045
-13.1518
789.248
-794.213
4.96447
247.714
-7.73287
32.3487
-246.159
822.121
-963.805
141.684
246.454
-341.844
95.3902
570.471
-570.471
899.936
-93.2226
-806.713
594.117
73.1025
-667.22
64.1104
-333.361
269.25
-176.321
264.893
-88.5714
-479.43
326.464
52.5366
736.711
-392.778
529.168
245.759
-173.678
-684.129
-176.164
484.934
-630.46
453.252
-500.758
47.5069
-900.021
1035.94
-135.916
-579.298
555.452
23.8462
506.754
-581.803
75.0496
129.951
736.695
-866.646
211.195
530.819
-742.014
723.353
505.136
322.466
741.174
321.034
-231.672
-89.3621
-292.658
292.658
370.528
-401.405
30.8775
-27.7585
1089.99
268.434
-321.65
53.2163
532.233
-483.119
-297.43
-562.377
551.417
-564.829
13.4118
-29.0636
904.549
267.004
-292.404
-243.598
211.482
32.1163
498.781
-587.48
88.6992
-197.549
959.117
-761.568
588.596
-81.8422
772.435
-382.716
-389.718
337.735
-48.2882
471.98
548.877
-208.954
192.398
-743.839
59.7091
-937.232
37.2108
477.262
46.5303
-679.972
891.167
-697.085
-59.8216
183.948
-205.749
21.8004
-73.9965
915.272
-841.276
-38.0582
-817.79
855.848
178.932
-176.783
57.2503
174.438
-231.688
-7.3407
-365.932
373.273
330.291
-312.109
-611.785
213.114
-243.466
440.547
-197.081
908.566
-678.088
304.589
16.4453
313.023
-13.8645
-299.158
-569.164
166.483
402.68
459.921
-29.6363
525.246
-727.738
-377.538
0.568338
646.327
-746.171
99.8442
-225.825
155.298
70.5272
-656.067
638.906
17.1611
235.169
-223.624
69.124
176.635
-744.022
826.269
-309.996
327.739
-17.7438
67.9554
-362.256
294.301
233.559
-206.127
-27.4326
525.904
-328.295
-197.608
11.025
-346.375
335.35
-496.889
484.597
-76.4802
276.949
-200.468
-663.323
161.244
502.079
-343.834
-14.4685
653.693
6.04666
444.417
-21.08
-164.233
13.0479
151.185
-23.8274
729.404
-705.577
-858.012
987.963
320.221
-153.876
-166.345
677.297
-775.073
97.776
425.466
346.968
706.171
59.8064
-765.978
818.108
81.8273
558.017
-529.012
-29.0049
1093.73
-1012.33
-81.4082
2.02604
-292.362
290.336
290.737
22.2861
95.3237
141.277
209.588
-14.3733
199.618
-197.075
-2.54304
139.156
151.873
-291.029
-301.862
281.998
19.8639
-166.823
-299.381
466.204
419.343
-550.721
-316.879
200.852
-189.908
-10.9439
190.342
1008.85
-559.492
-449.36
525.664
-109.063
-416.601
136.853
508.523
84.61
473.407
-1.25969
-697.799
715.762
-17.9628
42.8534
-546.238
503.385
-96.0293
-248.37
344.399
-447.828
38.7466
409.082
-140.237
-335.829
476.065
779.985
-1.26352
24.7414
199.501
-387.567
188.066
153.431
-229.912
-920.942
849.859
71.0836
-292.283
305.998
-13.7148
674.956
-87.3165
-587.64
1047
-603.802
-443.198
199.026
-189.004
-10.0226
261.156
-112.233
-148.923
-420.272
417.699
2.57305
662.301
-30.6956
-631.606
-696.902
-0.897531
380.282
27.2307
-560.943
450.269
110.674
585.094
-578.064
-7.03002
-855.761
44.4106
811.35
856.376
33.1969
-889.573
-424.184
283.948
-202.628
38.3947
-329.821
538.965
-209.144
-188.534
-55.0647
754.992
-793.05
-147.317
204.567
542.609
-168.214
-374.395
-123.383
-308.544
213.924
-213.805
-0.118686
619.609
42.6921
683.328
-608.702
25.6016
-302.252
276.65
837.996
-876.578
38.5823
-310.2
-8.6743
958.159
-961.182
3.02258
62.9274
193.044
-255.972
680.178
-33.8511
571.508
-592.639
21.1316
-828.146
849.395
208.941
-192.108
786.585
212.016
747.101
157.253
190.921
-348.174
-297.28
-6.10517
824.661
-73.6834
-750.977
598.597
-131.318
-467.279
256.874
-85.897
79.6388
415.959
89.4981
-265.819
473.725
-503.759
30.0337
141.19
-347.506
206.316
137.484
388.42
60.0941
858.126
653.161
-773.166
120.005
-22.3484
980.508
-291.153
-17.8853
309.038
-217.977
207.184
10.7928
-1.99029
172.122
47.8774
452.09
334.756
-342.097
-352.662
31.0476
-345.772
47.8104
838.33
-58.3452
87.456
-233.833
146.377
-958.936
21.7046
-922.98
-35.9564
-486.339
59.2436
427.095
-736.33
905.61
-169.28
-202.108
-58.8297
260.938
-123.679
-91.2616
214.941
-153.621
-46.5953
200.217
-134.899
228.629
-93.7294
853.467
423.968
-224.467
159.265
-11.7914
-567.507
-879.866
-41.0764
447.099
151.497
194.102
-523.923
200.801
-1107.16
906.358
18.2777
208.843
-227.12
1.46916
-206.974
417.981
26.4354
89.0887
701.761
277.426
14.2214
-291.648
-468.31
581.387
728.868
72.7224
-801.591
-780.174
-7.10519
802.804
-856.278
53.4745
303.413
-289.343
-14.0697
87.4748
232.746
850.902
-864.917
14.0146
978.825
-862.144
-116.681
939.325
-943.832
4.50712
-400.167
-160.776
-0.877494
-873.384
544.822
328.562
-176.719
161.092
15.6276
-246.459
385.615
139.085
90.9561
-230.041
754.056
269.421
-259.281
431.509
94.1545
784.152
-698.985
-85.1668
-52.3509
-105.294
-90.1036
195.398
-304.463
261.546
42.9171
862.788
-838.808
-20.966
378.345
-357.379
-332.325
-28.9897
572.357
-583.119
10.7621
365.834
-327.386
-38.4481
-828.599
731.25
97.3492
-905.858
831.861
142.949
118.208
-405.075
275.895
129.181
466.737
-453.386
-13.3508
620.861
-622.62
1.75843
517.978
-44.2526
-319.206
-130.312
449.519
7.10888
-298.261
-65.0343
-250.469
315.503
544.289
563.934
-1108.22
-900.861
849.223
51.6379
1.53489
-404.156
417.765
-13.6082
431.01
-399.244
-31.7663
673.847
-849.07
175.223
711.898
-883.416
171.517
-502.046
-161.277
-439.35
62.4291
376.921
302.548
-5.8021
-296.746
-325.855
172.234
477.38
84.4181
-719.741
-108.858
14.591
185.027
-298.716
303.201
-4.48471
26.094
-338.69
312.596
488.975
40.4302
-529.406
-238.326
302.425
-64.0986
-896.19
-19.6371
915.827
-195.983
-38.6345
234.617
6.13953
-849.464
843.324
804.703
-118.353
-686.35
336.254
145.853
-210.887
-874.869
-21.3203
808.777
41.0819
1.95091
552.035
-194.339
-512.347
-18.1644
530.511
-801.989
913.793
-111.804
312.913
-244.958
-405.807
309.778
-29.8469
590.621
63.0718
382.434
-241.244
302.387
511.114
-12.1316
24.0418
341.792
-779.446
89.9341
689.512
456.048
95.3688
-129.205
-30.9272
160.132
-851.801
-23.068
65.9514
333.483
-190.356
232.391
-42.0347
42.394
-280.72
-289.358
279.692
9.66585
-17.4484
24.3278
-513.584
489.256
-611.727
-134.444
-19.0238
299.397
-280.374
-336.865
460.987
599.383
447.617
-1102.78
430.491
672.293
328.715
0.246197
-328.961
-232.055
-168.82
400.875
-525.57
555.967
-661.308
-19.4169
680.725
100.485
80.6704
-181.155
-44.2561
799.248
839.453
-862.745
23.2927
807.396
-154.235
36.1737
-605.218
-322.157
-24.2181
556.779
57.714
-614.493
436.934
22.9873
-348.54
390.74
-42.1998
-853.977
-3.70737
857.685
-27.821
-823.98
280.544
-287.992
7.44856
625.222
-4.36037
573.672
-418.239
-155.434
-216.322
274.171
-57.8488
-85.6191
-267.043
-419.524
-46.9166
896.292
-184.394
-825.602
89.2719
-629.184
17.4566
-538.039
48.1154
489.923
820.546
-39.6225
-780.923
-259.167
124.268
3.49301
-356.666
353.173
862.814
-188.967
305.794
-3.24653
637.153
-65.645
494.32
-5.345
801.331
-712.243
-1045.14
-57.6424
444.46
22.2773
537.096
32.0192
729.502
-694.804
796.527
-38.6902
-757.837
190.079
-228.558
272.725
-11.1793
-117.684
210.808
-174.174
474.886
15.3174
-490.204
576.097
-95.0441
-481.053
-458.222
421.355
36.8668
128.825
672.507
11.8482
-101.548
-756.64
858.188
73.849
-666.229
592.38
222.74
-301.15
78.4098
-745.246
643.697
91.6884
713.015
-504.412
1048.7
231.794
-144.338
-283.902
-177.684
251.359
-73.6749
204.869
-267.662
62.7927
-178.451
317.536
11.3424
-343.667
-50.9956
4.76395
-409.617
404.853
-47.4954
-161.225
-194.389
-27.4001
365.14
-337.74
-870.858
944.46
-73.6013
45.4742
-527.943
482.469
30.5923
-248.569
-755.696
105.98
649.716
357.4
-225.102
819.408
1.13795
-36.1085
226.871
-190.763
442.713
130.96
-104.783
-334.568
816.249
-201.633
-95.2289
-914.144
614.189
-332.195
124.37
57.3579
651.726
-572.209
495.236
-12.7976
340.528
-34.6933
338.502
-420.82
82.3184
191.568
-236.591
45.0235
52.4214
245.115
-297.536
339.715
-506.538
-6.29603
761.955
-806.212
537.414
-62.5271
-107.577
739.267
-631.69
-268.355
301.55
-33.1953
-70.4204
293.16
198.75
-189.856
-279
10.6447
-1061.18
588.93
472.248
-35.8292
-79.0689
170.48
-307.846
293.522
14.3243
-675.988
692.543
267.218
-271.925
4.70736
-484.105
184.724
-504.367
-556.811
235.471
-278.246
847.159
-946.589
99.4306
-343.314
21.1568
488.725
-626.71
137.984
-2.78804
811.565
267.193
-287.702
20.5095
-326.54
-546.844
-37.1252
292.322
-25.1043
366.621
-130.039
-236.582
-19.7886
-845.517
865.306
-878.031
488.879
389.152
-55.4838
735.837
-461.053
41.529
-139.254
-125.26
264.514
874.462
-822.537
-51.9248
390.705
-324.754
797.771
5.03257
110.048
77.7527
-187.801
-580.551
1024.4
-443.846
141.846
-189.462
47.615
-759.017
-144.967
903.984
144.09
222.531
853.501
-31.3795
813.469
-736.747
502.269
-422.63
-17.8756
-229.632
43.7203
149.186
-192.907
311.155
240.88
-21.9458
-1098.2
619.195
479.004
8.77314
891.72
-60.5386
-831.182
-430.497
622.095
-191.598
57.1264
756.342
27.4489
-539.795
-590.497
-18.1789
608.676
417.403
140.394
-557.797
-264.779
-522.3
278.325
62.2029
-174.609
-74.6596
-405.706
352.285
53.4214
-793.393
297.988
199.522
-260.332
60.8102
225.874
-265.373
39.4992
428.902
-424.138
730.944
52.1729
-783.117
-202.859
48.3773
825.422
20.7611
-846.183
-372.787
22.0282
350.759
118.64
860.185
-407.969
454.301
410.885
-72.3836
-954.594
99.7444
854.849
789.13
102.59
-35.4747
227.042
50.057
380.953
902.598
133.34
23.3248
-484.378
28.8248
-827.19
798.365
701.4
-770.741
69.3402
636.359
465.97
769.004
-56.0307
-712.973
190.837
-48.9907
76.0255
339.176
-415.202
-735.265
792.392
262.746
168.239
-275.634
168.732
106.902
-111.246
-426.753
537.999
-31.2275
-211.616
1004.42
-573.929
86.7278
-288.836
182.37
-218.478
-107.241
-151.91
30.8078
820.095
-168.55
508.265
-605.649
759.537
-153.888
686.363
-710.19
-398.964
380.8
-443.063
-179.557
39.2605
349.01
-15.3861
-333.624
-46.2937
808.249
-505.251
-623.369
1128.62
287.892
-244.377
213.425
2.00451
196.746
-250.796
123.421
-885.363
909.032
-23.6697
-284.289
259.684
24.6049
72.9892
711.163
3.36218
765.642
634.955
-15.3458
-14.9701
-511.019
472.357
38.6616
933.098
17.1501
-950.248
-323.15
-49.6375
-0.180235
-234.498
800.707
-69.7623
529.008
-623.05
94.0416
-762.168
-84.6088
12.3507
291.062
891.46
11.1378
-490.215
440.411
49.8049
-950.462
-94.6794
40.1896
-377.773
337.583
-223.385
249.707
-26.3224
254.431
-49.5621
-39.4119
1050.29
-313.212
-737.077
579.532
-50.5236
54.8511
-262.86
-70.5006
-689.558
777.705
-88.1471
-79.4018
-19.2326
245.107
504.551
-5.7697
92.7856
-870.615
-84.8237
208.77
-123.946
-207.265
217.472
-10.207
-681.776
570.529
-455.702
480.03
344.53
46.175
-459.609
424.353
35.2566
583.953
424.898
498.145
-459.752
-38.3927
493.471
-319.281
-174.19
-186.898
26.7462
349.235
-20.807
-328.428
-254.016
76.3322
-327.057
290.263
-219.053
-636.708
-691.655
-81.5109
258.015
-58.4924
665.737
197.077
7.06724
222.632
817.168
-83.8242
-733.344
328.269
-141.956
646.841
-504.885
238.515
-297.344
-92.2141
509.617
-751.131
7.10907
-120.023
-105.803
500.009
-97.1194
786.388
-689.269
-197.454
231.182
-33.7281
-38.2477
-246.041
829.586
-737.897
218.041
-427.653
-409.1
836.752
865.641
-199.904
-42.6774
792.423
-749.746
597.288
-6.66762
17.5946
-608.092
282.532
144.805
-427.337
-403.772
479.798
-24.7691
-314.57
339.339
-616.359
64.9609
551.399
-134.871
509.958
-375.087
-483.14
408.073
-482.308
74.2347
105.103
-171.233
66.1297
-181.321
338.574
-197.138
-180.4
734.013
-32.6126
102.226
581.102
-610.976
648.736
-37.7599
269.74
-288.764
-810.979
-51.7665
96.8451
-432.674
590.118
460.17
-615.748
172.686
419.506
-847.159
382.134
-681.853
28.6458
653.207
-187.186
234.527
-47.3406
-816.303
886.695
-70.3924
-47.7166
-432.066
479.783
1005.36
-405.64
-599.72
-67.9574
-788.321
-18.9998
299.543
-950.457
207.433
743.024
-857.688
-92.769
-170.502
-6.21679
-777.771
731.478
-129.223
-303.581
432.804
-7.68274
-271.329
279.011
160.177
647.219
239.887
147.315
-387.202
-902.864
154.566
748.298
541.109
-580.865
39.7553
604.527
58.5831
-663.11
-45.3133
673.532
-639.909
-33.6227
352.349
-23.6339
-38.2609
243.93
-205.669
608.475
65.0565
13.0744
-793.248
721.533
-777.563
-175.816
219.536
333.172
160.299
132.267
-329.405
200.916
-203.837
2.92155
338.345
-198.016
-140.328
592.237
42.7173
-748.732
801.493
-52.7612
-404.766
-96.5408
501.307
-6.86074
-291.855
240.158
61.1451
-301.303
243.944
-95.8357
-148.108
418.176
-465.892
-61.7131
-740.275
-410.345
88.7028
144.856
501.722
-434.482
-67.2397
-234.466
252.743
-196.046
189.522
6.5239
17.9238
-219.787
201.863
-321.46
378.176
-56.7168
222.625
-21.2266
-201.398
450.465
554.896
-258.151
555.39
-473.684
141.762
-233.957
92.1952
-197.032
-21.8522
218.885
701.256
-96.7285
233.99
-164.866
-358.776
272.4
86.3762
-422.513
-19.0701
441.583
-351.832
448.677
307.248
-324.951
17.7028
-14.8379
28.5289
473.74
462.617
35.5279
37.2887
-459.802
218.404
-6.92168
-335.212
-8.102
-367.771
298.38
69.391
340.566
-62.2412
675.283
221.009
-229.429
247.353
-285.633
306.103
103.977
654.469
-758.446
-737.609
-25.1453
762.755
1.37891
161.417
16.7753
-338.235
-690.628
621.064
69.5635
121.341
-172.878
169.321
3.55748
435.972
-153.44
-254.762
-174.497
429.259
-162.67
-348.349
217.053
-16.1368
-254.66
115.406
97.7749
-182.599
-1009.53
696.317
-346.924
346.924
851.476
242.258
-35.1787
-509.086
-500.442
208.459
327.453
527.943
42.5277
544.512
-50.1916
273.229
-274.057
0.828232
-629.324
662.124
-32.8003
-50.3272
-531.929
-48.1874
-632.701
714.784
-82.0828
83.7734
-492.926
-352.732
539.403
5.10915
524.457
25.92
-550.377
749.211
-646.928
7.01871
-113.419
-64.248
177.667
-416.261
89.2042
309.111
-31.2205
-277.891
-155.526
-47.1023
-299.694
287.716
11.9782
-289.561
73.2393
870.745
-195.462
-340.562
45.3873
769.099
-2.129
-766.97
584.138
-658.882
74.7439
-922.864
830.383
92.4806
-22.6764
-638.632
110.388
295.796
-21.5219
-260.422
281.944
-786.522
27.4083
-201.702
-287.834
266.312
-465.989
511.464
-268.454
267.967
0.487633
-299.908
302.252
-2.34414
-813.192
705.616
995.973
-148.814
-172.95
295.029
-232.102
361.202
-170.281
422.93
-325.974
-96.9553
285.49
55.0763
811.537
-88.2535
-723.284
184.602
-681.491
-759.092
675.437
83.6553
6.10019
-617.054
624.867
-7.81237
59.554
174.436
-102.181
521.524
-268.615
289.93
-21.3146
378.881
-457.99
79.1083
-608.549
649.091
-40.5426
586.069
43.7634
-629.833
255.657
-221.693
-33.9648
557.172
-25.6902
-531.482
235.13
-123.527
-111.603
-128.15
-49.4407
177.591
958.352
-949.065
-9.28749
-575.49
-388.315
-45.8186
-758.567
804.386
-897.631
834.364
-590.721
372.862
217.86
605.045
-623.223
-13.4614
676.388
-662.927
21.8781
146.3
-168.178
-50.2331
-288.457
-855.986
-66.878
15.4713
365.176
334.045
-739.685
220.235
-1.83149
-225.108
225.108
410.184
-143.128
-267.056
-911.339
25.9762
-2.82958
-23.3231
-481.296
504.619
-753.793
-80.527
486.687
-406.16
-252.38
-408.639
431.356
-10.0006
-49.1779
258.021
153.637
184.707
-548.529
398.204
-160.075
399.962
338.123
-52.6326
763.444
-710.58
-283.607
-5.70647
270.716
-946.901
-3.56139
5.61581
927.482
532.463
-448.689
-844.06
577.575
266.485
11.4893
258.834
-270.323
350.809
-10.3973
-340.412
-461.309
30.8118
-835.594
749.318
86.2764
-132.038
-191.112
188.426
38.9339
-227.36
212.845
125.277
-800.987
17.878
-591.203
325.392
265.811
60.9701
248.032
360.296
-324.222
-36.0739
-375.811
401.467
-25.6554
847.406
-513.361
-454.886
312.93
-318.767
189.418
129.349
423.371
-720.801
568.326
-27.2166
811.239
-807.877
79.8438
155.286
-830.287
814.045
16.2425
-795.131
46.3991
-472.163
-527.849
1042.66
-186.28
931.088
-835.188
-95.9002
-521.122
-463.312
984.433
-48.0263
-253.836
55.7504
224.217
-228.44
4.22304
-21.7059
-56.0598
733.357
470.869
-37.1732
-433.696
-370.385
-198.779
29.6003
-91.2309
-250.613
-147.621
429.033
-281.412
-925.643
925.643
92.4545
-808.123
490.026
-510.494
69.0741
441.42
-210.913
-194.162
169.206
-169.386
-379.144
-559.21
389.825
599.095
54.6299
189.314
418.633
-930.179
511.546
-24.4424
301.869
-225.168
-261.171
-212.923
429.251
-96.0786
-179.196
-139.571
-65.4744
-835.386
452.391
-517.958
65.5668
17.9676
-696.996
780.582
-83.5858
415.768
-419.714
3.94578
244.631
-566.815
529.752
37.0631
106.728
115.729
-222.457
198.186
-236.447
378.943
-708.781
329.837
110.535
758.329
170.663
239.52
-68.5351
-492.955
469.632
291.743
-305.759
14.0159
416.268
-37.3871
353.925
-381.325
-20.9413
-367.552
388.493
-17.6018
-295.792
302.954
29.9139
-332.868
-431.058
283.437
-386.874
37.7537
631.168
-749.522
-409.552
531.579
-312.339
-91.8178
976.639
-866.104
-492.777
-312.283
805.06
295.103
35.2269
291.09
-326.317
-459.398
149.888
-281.926
-51.6211
450.55
-563.694
113.144
47.4161
613.604
-184.104
70.685
349.178
-288.208
708.74
-329.797
273.673
-174.553
23.5872
364.58
-388.167
-27.4119
-292.471
-9.7808
-251.682
249.191
2.49141
2.38344
561.556
-534.107
51.8927
-891.586
113.279
800.71
-2.93855
328.387
-115.542
525.493
328.7
-854.193
598.389
239.941
671.385
-768.504
-753.831
108.044
645.787
301.632
41.3277
-342.96
182.339
-174.757
-7.5827
35.3585
274.666
572.943
-195.982
33.0986
162.883
-156.659
-607.066
763.726
-339.001
366.133
-27.1322
-250.691
293.026
-42.3352
-147.481
-174.169
-255.493
207.67
47.8226
920.098
-920.098
-87.1406
727.01
-639.869
294.399
-206.925
344.074
-68.1791
-658.141
188.101
26.5412
-214.642
40.4848
-582.052
541.567
32.0095
-228.236
196.226
908.481
-914.132
5.65097
301.298
-674.634
373.336
337.542
-297.353
50.8581
309.438
-350.74
876.233
556.886
-106.336
-72.1487
-240.492
-400.398
319.052
81.3451
224.418
-345.819
330.667
-500.64
169.973
-234.314
47.1274
-873.302
-73.5988
35.4886
-732.485
313.814
-179.273
796.375
-773.258
-23.1176
434.262
54.4702
-488.732
-685.483
610.616
74.8666
-274.426
225.566
48.8595
319.328
-27.5849
-426.052
-254.811
881.515
-837.218
-44.2976
-357.497
658.795
126.748
-531.514
-865.021
11.0435
-54.7343
-604.78
659.514
35.3628
-137.423
-138.211
-917.097
416.32
500.777
186.211
3.31105
449.053
-33.2854
543.449
256.673
-275.131
18.4571
-333.523
-5.76839
339.291
-545.875
444.722
-6.71186
-195.265
201.977
228.579
-40.478
-92.1153
368.414
-276.298
-353.564
5.02379
434.041
-9.68866
58.1981
-808.772
750.574
-664.259
664.259
49.2208
189.294
-91.5835
-507.649
599.233
-854.493
938.118
-83.6249
741.142
55.2337
-14.1158
-834.571
848.687
323.243
-340.362
17.119
324.412
13.0122
-337.425
584.828
-636.789
51.9609
25.1283
319.765
-344.893
-201.512
-126.915
328.428
190.944
-8.60457
107.906
-711.259
603.354
-760.034
267.256
347.533
-312.306
793.729
59.7723
-77.2801
-433.214
340.593
-391.279
-682.046
102.961
579.085
330.142
-269.961
-60.1805
-530.683
616.37
-85.6874
-81.6676
-362.732
444.4
406.292
-382.251
-587.989
-329.108
598.529
-726.128
127.599
-410.127
-433.933
837.865
-39.7034
-645.779
120.952
456.577
-577.529
563.549
-644.709
81.1609
28.8025
-261.439
11.1116
-692.965
-318.35
321.843
-8.4266
570.449
-692.69
122.241
-344.479
-430.594
3.29284
-685.635
697.941
-12.3055
763.059
-164.67
645.307
-102.687
-542.62
214.829
286.893
285.685
-295.904
10.2194
807.725
-935.863
128.138
-652.949
-100.881
-288.738
20.123
-325.392
85.2343
240.158
-55.7774
640.606
91.7876
-276.971
185.183
356.935
-335.082
-21.8536
-339.064
-252.139
-23.7708
207.719
-36.9226
-168.826
234.263
143.05
-377.312
-270.662
318.626
-47.9647
591.554
-683.137
21.7877
287.323
-262.572
-62.8207
-286.7
-304.021
-711.308
540.739
170.569
-112.969
-147.428
-155.822
65.8671
-577.439
536.249
41.1905
576.953
-1098.07
-24.1219
-1014.02
-140.859
376.874
52.3771
-21.9868
-51.3676
-760.278
128.588
855.097
-848.957
617.357
-76.6181
1.85889
589.225
-591.084
-288.188
-162.549
450.737
-53.814
-220.612
12.1178
190.241
-214.245
24.0045
-992.745
228.683
449.348
-118.681
19.6099
-627.905
608.295
300.387
-365.297
30.3027
334.994
63.1572
574.072
-637.23
-101.992
772.841
-670.849
-669.58
-195.337
-732.543
39.9644
692.578
-28.7505
567.04
-538.289
926.49
-917.823
-8.66706
566.937
-621.671
-611.183
-23.5173
634.7
-394.542
123.88
255.462
-278.826
23.3639
801.594
-772.769
-95.806
730.764
-634.958
457.89
14.4676
-433.5
-669.696
604.133
65.5631
399.837
-92.1048
-563.963
-48.1652
-10.5352
-399.081
-35.0391
243.919
-208.88
19.6292
327.904
-359.419
363.516
-4.0973
748.073
-793.891
126.387
134.55
210.651
-221.928
11.2775
684.163
-775.24
91.0772
-319.244
-680.245
-9.31314
795.734
75.0111
290.672
120.214
812.782
-17.0485
-8.5682
-1029.4
173.598
3.93334
22.5584
-568.797
159.647
-137.768
-1083.18
-239.429
232.718
75.3434
219.056
-107.457
-467.098
574.556
-2.402
-477.42
479.822
838.913
-31.1878
570.012
75.2942
-35.8086
-200.649
236.458
746.706
-789.383
-156.574
390.837
-411.612
447.329
-35.7173
-679.341
723.048
-43.7069
308.213
-362.843
17.2466
394.052
-146.294
-247.758
174.933
-511.226
465.867
45.3592
3.67724
-460.942
464.961
-4.01838
613.616
-596.021
41.2806
-166.451
600.713
-291.643
57.4201
440.621
40.6419
608.064
-648.706
-69.0489
-156.676
219.189
6.37708
32.0514
-388.216
22.919
-416.413
4.8016
249.215
-251.05
1.83509
711.215
-682.569
-483.787
83.056
400.731
-42.1975
626.336
-15.3302
-204.457
914.258
-141.746
-772.513
518.882
537.49
-1056.37
-303.518
-13.04
289.282
4.23997
10.2955
271.703
-694.419
-3.67969
698.099
592.264
-748.923
-223.638
191.95
31.6871
-528.187
-21.4344
-644.794
3.24639
138.516
-136.728
-428.101
-122.099
213.887
18.4965
-639.715
621.219
-38.259
-497.907
536.166
-269.672
294.8
-69.2368
626.015
-731.059
754.91
-23.8507
217.664
-482.443
239.047
-252.919
13.872
-16.1146
-839.592
26.3995
247.793
-449.305
911.928
-922.548
10.6203
637.556
12.8611
-650.417
-50.8481
-541.791
-807.255
840.452
116.422
-206.526
897.669
-78.2614
236.715
-12.498
-60.4472
-716.016
776.463
-88.9157
-596.72
-24.779
549.236
-677.278
24.3288
206.403
-244.201
37.7975
-232.831
0.378001
232.453
-557.626
533.544
24.0817
-215.777
87.6275
49.792
97.2227
-147.015
-880.256
314.512
18.3192
-332.831
54.9191
637.905
-692.824
-340.694
373.552
-32.8577
-652.719
-24.5588
-663.865
767.842
-896.89
127.722
769.168
-143.358
-168.288
-444.107
63.2956
-456.805
-615.573
245.825
23.5961
-286.46
288.684
-2.22412
177.416
-70.6882
-421.48
393.111
28.3682
-954.9
972.05
-332.607
128.131
204.476
138.389
21.2577
525.249
860.967
-880.756
277.546
-44.7995
371.299
-506.17
-789.773
811.604
-21.831
-354.019
-186.725
540.744
129.216
-166.884
37.6676
425.918
-528.098
750.925
-686.799
-64.1253
-266.311
-37.2065
319.485
-79.3268
312.77
-290.982
329.156
-652.027
-17.6694
5.61565
633.291
-373.347
148.245
20.6395
-891.498
549.884
-388.64
608.14
368.499
423.099
8.25632
744.677
-805.124
-39.3275
-15.6134
827.285
70.3844
421.04
-499.723
78.6826
211.905
-194.661
-17.2435
-212.011
238.816
-26.805
-4.67713
341.248
-336.571
-618.18
658.822
440.508
257.317
-216.293
-41.0238
362.382
512.079
312.433
-333.24
710.981
100.556
81.2803
-604.814
523.534
639.629
-35.4959
11.2373
-930.682
114.127
816.554
218.242
-256.876
-248.524
-793.251
732.273
60.9774
5.15798
814.769
-819.927
929.302
-929.302
-377.084
17.6649
602.82
36.8089
-109.088
-36.1875
-197.922
234.11
437.414
27.6633
-465.078
-433.423
19.4541
413.968
191.71
972.172
-453.29
-220.541
35.2612
185.279
-627.516
630.694
-3.1777
425.763
-469.07
43.3065
-430.656
-2.76703
43.326
-764.037
720.711
-636.385
-63.9826
-548.643
518.407
30.2355
-368.494
282.875
34.402
-252.414
218.012
-166.691
-165.916
-27.8742
241.999
-22.8097
46.7709
289.266
-275.045
-71.2989
791.602
365.175
-50.6626
-769.793
32.1838
-890.02
814.44
75.5804
136.564
277.368
378.921
160.134
-757.298
859.081
331.086
193.925
-525.011
-160.987
594.436
-644.007
49.5718
482.361
61.0429
-543.404
644.781
-346.127
-298.654
-479.661
-123.336
-783.209
681.217
25.9661
-688.579
662.612
-711.252
108.492
602.76
-762.443
-6.09008
37.6957
508.481
-87.441
-526.624
358.074
557.446
-586.197
-35.351
-64.3606
222.086
-157.725
51.8533
-684.554
-232.888
-225.393
161.032
-26.6057
298.676
-124.805
-173.871
176.577
-8.1676
-632.037
721.971
-38.9657
220.137
-181.171
869.862
-630.124
13.0693
159.479
189.699
0.995838
397.403
-398.399
-225.019
-202.926
427.945
180.924
763.536
378.965
-355.378
-843.299
7.70423
626.392
-609.858
-0.648465
-815.959
816.608
589.526
16.0087
-605.535
847.006
46.6807
-893.686
307.635
-5.38294
121.285
-409.473
425.482
8.55958
-254.692
334.369
-79.6777
189.383
381.062
-90.3904
610.801
-54.3843
-556.417
-758.282
785.166
-26.8837
15.1118
651.228
-666.34
-646.948
116.266
-5.3336
-442.152
610.05
34.2388
322.696
-29.1516
183.881
-83.3965
-335.025
1.50204
95.9456
742.967
2.62852
-276.229
273.6
-421.83
-508.349
-57.4308
-757.768
815.199
247.402
-54.3576
198.81
-276.819
78.0093
198.919
-95.3038
-218.041
-516.875
-581.325
-792.163
-18.8158
-163.894
-815.75
776.44
39.31
-34.3056
469.41
-435.104
59.7805
821.334
-881.115
194.192
-144.4
775.944
25.5493
-240.674
204.487
19.5776
-304.508
284.93
575.706
-573.847
-643.203
131.362
511.841
-559.993
586.418
-26.4251
28.4705
257.214
-665.265
-441.894
608.533
45.7865
-654.319
-721.94
606.748
-679.202
72.4544
-154.605
-41.3765
449.883
-484.22
-846.995
852.153
107.359
-308.002
-588.889
-642.309
593.226
49.0828
175.747
-70.6441
-43.1145
464.723
180.058
-575.622
62.0378
514.361
-526.769
12.4077
73.336
-717.645
644.309
265.475
-16.2594
-308.684
164.916
143.768
-565.134
591.054
-119.326
470.464
-351.138
681.392
-86.9569
-0.371834
-316.286
316.657
-447.058
-442.737
889.795
-164.914
267.378
-102.464
-103.156
-578.889
-569.927
424.327
145.599
408.51