/*--------------------------------*- C++ -*----------------------------------*\
  =========                 |
  \\      /  F ield         | OpenFOAM: The Open Source CFD Toolbox
   \\    /   O peration     | Website:  https://openfoam.org
    \\  /    A nd           | Version:  7
     \\/     M anipulation  |
\*---------------------------------------------------------------------------*/
FoamFile
{
    version     2.0;
    format      ascii;
    class       volScalarField;
    location    "20";
    object      p;
}
// * * * * * * * * * * * * * * * * * * * * * * * * * * * * * * * * * * * * * //

dimensions      [0 2 -2 0 0 0 0];

internalField   nonuniform List<scalar> 
29659
(
0.0177635
0.225038
-0.017637
-0.0702199
-0.0048775
-0.0742298
-0.0397496
0.0165326
0.00427685
0.000438953
0.00986591
-0.00959183
-0.000924679
-2.74696e-05
0.142942
-0.0119483
-0.000280122
0.0527083
-0.00430078
-0.0208046
-0.00168697
0.00402602
-0.0178951
-0.00423652
0.981663
0.223591
-0.00099963
0.798856
0.128216
-0.00332101
0.032274
0.0997918
-0.112637
-0.0137889
0.812776
-0.0157824
0.233966
-0.0538835
0.0118362
0.0113824
0.000974955
-0.0340233
-0.000240397
-0.0447179
9.14266e-05
-0.00298871
-0.0084871
0.000201995
0.00692586
0.228069
-0.0597669
-0.0617931
0.103225
-0.0716588
-0.0116948
0.126341
-0.00690868
-0.00174086
-0.00981395
-0.0372965
-9.0863e-05
-0.00417552
-0.0297062
-0.0139585
0.360804
0.926283
-0.0164786
-0.0171219
0.87922
0.00101671
0.221326
0.65202
0.00474044
0.900462
-0.0154875
-0.00325913
0.0744415
-0.0477059
-5.99556e-05
-0.03225
-0.0659985
0.304523
0.0177235
4.49746e-05
-0.0361849
-0.185432
0.424761
-0.000963997
-0.000890992
-0.0963794
-0.0460307
-0.0482895
0.00637616
0.0932138
-0.09913
0.416967
-0.0602498
0.00105613
-0.0791701
0.173711
-6.489e-05
-0.0450456
-8.68604e-05
0.0669591
-0.0631422
0.185839
0.546017
-0.000854227
2.96281e-05
-0.109245
-0.111862
0.0158037
9.21546e-06
-0.00305599
-0.000221295
0.631947
0.321443
-0.0226682
9.09274e-05
0.00554375
-0.112599
0.24077
-0.0495936
0.919525
0.00236832
-0.0206458
0.0594933
-0.0310663
0.00843249
0.00010609
-0.041748
0.066083
0.573799
-0.0753292
0.0663636
0.0313632
0.358253
-0.0459135
-0.187386
0.1679
-0.0122101
-0.0833719
-0.0847127
6.73873e-06
-5.54869e-07
-0.00498906
-0.00794492
-0.087143
-0.141244
-0.0144854
0.0510708
0.0250136
0.00096845
-0.000214207
0.324351
0.00114294
-0.0154793
0.32779
0.395453
-0.0569274
-0.0633504
-0.0683864
0.132726
-5.96708e-05
-8.25778e-07
-0.0228338
-0.0818318
0.000168377
4.35954e-05
-0.0137795
0.000132093
0.0116903
0.338739
-0.0450329
-0.093705
-0.00988899
0.00437352
-0.0467477
-0.00246439
-0.0405552
-1.27935e-05
-0.0097981
0.417562
-0.0159378
-0.186419
0.318296
-0.0123926
-0.0347789
0.00793648
-0.00321699
-0.000511059
0.003645
0.938501
0.31873
-0.0266291
-0.0148301
0.764976
0.28456
-0.0980844
0.00247379
-0.0682698
-0.0953275
-0.00923123
0.00182692
0.341704
-0.0132474
0.014149
-0.0865617
-0.111816
-3.72788e-05
0.681726
-0.00201921
3.68971e-05
-0.00104456
-0.0438521
-0.011777
-0.00756116
0.0137886
-0.0042026
-0.0986581
0.00013378
0.00102261
-0.00454128
0.153507
-0.0056124
-0.00289218
0.102838
0.000324865
8.58108e-05
0.0108904
-0.0538687
-0.0413373
-0.0092486
0.218901
-0.0283923
0.0265286
-2.87909e-05
-0.00591093
0.00171128
-0.0635472
-0.169957
-0.00270427
0.00102818
-0.00302655
0.00582827
-0.0201814
-5.5744e-05
-0.175472
0.000163858
0.155997
-0.00666827
0.000361817
0.188962
-0.0951802
0.000578289
1.26583e-05
-0.0834809
-0.161692
-0.0173491
-0.033673
0.0507288
0.399601
0.000208845
-0.0511915
-0.0746977
0.7838
-0.0159835
0.313656
0.00332637
-0.000385531
1.13477
-0.00103479
-0.0983515
-0.0975005
0.00469052
-0.0111338
-0.0160977
0.567205
-0.00683246
-0.0344811
-0.000454931
0.229681
-0.00613425
0.427792
-0.000968727
-0.0114176
0.7245
0.132442
0.102706
-0.0614243
-0.000257757
0.00567936
-0.00029907
3.81907e-05
0.138485
0.000106649
-0.0373964
-0.0779165
0.994159
0.564777
-0.0840147
-0.037131
-0.0393768
0.0153876
0.00520553
-0.0353198
-0.0892412
0.409541
0.666566
-0.00251011
0.534924
0.134687
-0.0490543
0.022489
-0.00372379
-0.0206805
-0.0105849
-0.00522175
-7.99493e-05
-0.00375571
0.0115049
0.226172
0.00344723
-0.0515998
0.0260956
-4.12835e-05
-0.0865397
1.0552
-0.0125359
-0.00281479
0.0240098
-0.0302905
0.16367
-0.00294519
-2.42104e-05
9.00101e-06
-0.00526508
0.730475
0.0431058
-0.171868
1.40243e-05
-0.169775
0.0990375
-0.0100721
-0.0911033
-0.00256503
-0.00083416
-0.0478143
0.00201166
-0.0390996
0.0218062
0.0637769
-0.000274884
0.00411936
0.238544
-0.107972
0.000950848
0.00100387
0.61681
-0.0460875
-0.00319755
0.298745
0.805281
-0.071459
-0.0152896
-0.00360317
-0.0015032
-0.0167648
-0.00668244
0.278087
3.45782e-05
0.0209956
-0.13677
0.589808
0.882405
-0.0120303
-0.0177912
0.37529
-0.0388094
-7.6705e-05
0.0139106
0.162281
0.16515
-0.0148626
0.0526377
0.771265
-0.160347
0.678551
0.617237
3.2724e-05
0.0130495
-0.148877
-0.00592619
0.00351643
0.813583
0.0428242
0.000660703
-0.0671544
-0.0973331
-0.0111919
-0.000193394
0.409377
0.315384
0.00017372
0.00872162
0.0115016
-0.124501
-0.0612922
0.000209465
-1.41308e-06
0.00112717
0.17167
-0.0534366
0.488291
-0.0938095
-0.0359916
-0.0413311
0.291979
-0.020947
-0.00243383
0.0171004
0.00188173
0.676639
-0.0494536
0.00240319
-0.0150148
-0.00725074
-0.00318826
-0.0246477
0.000562671
0.000571642
1.07159
-0.0162142
-0.0102808
-0.000877522
-0.00146604
0.373402
-0.13827
-0.050173
1.60431e-05
3.26734e-05
-0.0510442
-0.0135862
-0.0105234
0.0360572
0.0131743
-0.00585327
0.0286033
-0.0345404
0.664047
0.00892422
0.000593812
-0.0834485
-0.04752
0.00654087
-0.00701496
-0.0497878
-1.33932e-05
0.868646
0.0410351
0.000240452
0.938691
-0.051723
-1.43709e-05
0.00320986
-0.0857897
0.0179617
0.0853219
3.54015e-07
-0.0160175
-0.0178609
-0.0108633
-0.000928104
-0.0165859
0.773993
-0.0170478
-0.0238524
0.341449
-0.00572736
0.707107
-1.65686e-05
-0.0330069
-0.0909583
-0.048892
-0.0930755
-0.00319567
0.00245172
-0.000232045
-0.0378796
0.0118211
-3.79744e-05
2.11717e-05
-0.0127323
0.682825
0.0144586
0.00545521
-0.0984572
1.33241e-05
0.00221059
-1.52662e-05
0.0189823
-0.0348251
-0.000756329
-0.0165502
-0.0248411
0.00230978
-1.76603e-05
-0.0663663
-0.000773414
0.0891816
0.530543
0.38764
-0.00932267
0.0129561
0.0541134
-0.000108475
-0.00746886
1.71621e-05
0.62579
-0.0277015
0.0355627
-0.0335309
0.00332782
-0.00651253
-0.000165637
2.54098e-05
-0.00994775
0.0874185
0.401917
0.00278036
-0.0756656
-0.0487602
-0.0159181
-0.0114548
-0.00270761
0.00198904
-0.011398
-0.000148532
-0.0883264
0.452863
0.297403
-0.044062
0.443497
0.000241313
1.34329e-05
0.016477
-0.00279257
0.907619
-0.0829087
-0.041542
0.00138717
0.00265224
-0.0119168
0.00107874
-0.0212645
-0.0258907
2.11659e-05
-0.00182348
0.586595
-0.000225871
0.834946
1.75346e-05
-0.0725396
0.0837055
0.0343117
0.00237008
0.00046265
0.667409
0.0932263
-0.0926756
0.310958
-0.014004
-0.0262232
-0.00836846
0.197181
-0.0503527
0.0190612
-0.0158438
1.44944e-05
-0.0026785
0.0126803
-0.0349076
-0.0430955
-0.0804595
-0.035274
0.201371
-0.00443036
-0.0967016
-0.0271398
0.000140804
-0.0238825
0.0140208
0.204913
-0.0529735
-3.56626e-06
-0.0361885
-0.00128024
0.0031417
-0.16117
0.486616
0.00206676
-0.0235789
-0.0580032
0.135835
0.757326
0.0040443
-0.0103939
0.270093
0.265589
-0.0310644
0.0107568
-0.0880174
3.33334e-06
-0.0750276
0.000233301
-0.0578851
-3.45574e-05
9.8428e-05
-0.0135515
-0.0272298
0.487349
0.0148698
0.0244367
3.04296e-06
-0.0129688
0.00023737
-0.00671434
9.7614e-05
0.0914813
-0.000950577
0.282947
-0.000210746
-0.0252368
-0.0664923
-0.00876415
0.749784
-0.0323053
-0.0949256
-0.0116574
0.0909411
-0.0818083
0.0591188
-0.0409993
-9.34862e-07
-0.0113113
-0.00819274
0.000607846
0.000228535
0.186488
-0.0101992
0.148173
-0.00977901
0.00197796
0.0651721
0.000416868
-1.89295e-05
-0.0739443
-0.00724558
0.000104276
0.345597
1.00906
-0.000390053
-0.0641235
1.9332e-05
0.791036
-0.078767
-0.0692411
0.000176796
0.0202914
0.112733
0.132099
0.0832346
-0.000763495
-0.000241638
-0.0305636
1.34375e-05
7.7503e-06
-0.0511971
-0.0589483
-0.0790957
0.955754
0.000497736
-0.0636811
0.0166633
-1.65268e-05
-0.00258101
0.000150224
-0.0127727
0.000125206
-0.0381477
0.0572214
0.695984
0.0883252
-0.000536359
0.00107848
-0.131654
0.145072
-0.00645784
2.83281e-05
0.286171
-0.183429
-0.0807549
-0.0276449
-1.30903e-05
-0.000530126
-0.189586
-0.0435572
0.242932
0.662994
-0.09288
-0.0026233
-1.34235e-05
-0.0816865
-0.111276
-0.000372088
0.00460467
-0.0300372
-0.00971609
0.6666
-0.00269895
-0.00413861
0.0732793
-0.015721
0.913571
0.919939
-2.29715e-05
3.86871e-06
-0.0318081
0.0334607
-0.0623066
0.0115371
-0.0152132
-0.00116073
0.757488
0.276068
0.00502864
1.12036
1.50108e-05
0.185577
-0.102325
-0.0626827
0.000267783
-0.0644909
0.192675
0.0320065
0.119345
-0.00090191
-0.000966894
-0.0119953
-0.00717186
-0.0268479
-0.00222068
0.190538
-0.0125115
-0.0109465
-0.0992676
0.603189
0.0108365
0.0640291
-0.000797748
-0.00103246
-0.0389748
0.00226277
-0.00536138
-1.22091e-05
-0.000645109
0.193362
0.669184
-0.000223849
0.133239
2.40368e-05
-0.00694036
3.01443e-05
0.0118305
-0.0748523
-4.27957e-05
-4.50355e-05
-0.0961842
1.4393e-05
0.0845234
-0.0475667
9.45405e-06
0.26399
2.6768e-05
-0.000793525
-0.000142315
-0.0105028
-0.000727493
-0.01254
-0.117972
-0.000634897
0.00932538
-1.94463e-05
0.479104
-0.00628593
0.00806545
-0.0585652
-0.0421985
-0.002374
0.00644382
0.341106
-0.0492001
0.212501
-0.0713075
-0.00717244
-9.04949e-08
-0.0117565
0.555743
0.292957
-0.0659227
-0.0878452
0.459609
-0.0169298
-0.0958229
2.94594e-05
-0.049458
-0.00169795
1.08515
-0.085357
-0.00013836
-0.0954651
-0.0504957
0.399617
-0.00529502
-0.0525021
-0.00799507
-0.0126369
-0.00262346
0.399461
-0.166524
-0.0367731
-0.0290975
-0.0249962
0.0121984
0.453452
-0.0354204
0.31427
0.00600724
-0.0919649
0.85225
-0.017199
-0.000431758
0.384623
0.602253
-0.00988849
0.0117829
-0.0137312
-0.0579281
0.275218
-0.0816896
-1.67619e-05
-0.0147746
0.00010151
-0.00909199
-1.86216e-05
-0.00977319
-0.0019551
-0.00650156
-0.11263
-0.00119638
-0.000995416
-0.00228432
0.335497
-0.00420773
-0.00660526
-0.00616884
0.27003
0.0112568
-0.000689048
0.539553
0.905465
-0.0365899
0.747564
-0.03226
0.529045
0.0116187
-0.0273685
0.0055361
-0.000886849
4.80797e-05
0.00547676
-0.0225563
-0.0364389
0.305521
-0.0419315
-0.0370039
-0.00182044
-0.103921
-0.0456438
0.013754
-2.82212e-06
0.0163848
0.0726174
0.625788
0.0180352
-0.0247877
0.239052
-0.000614111
0.070962
-0.0329335
0.00138246
-0.0944044
0.00593518
0.539303
-0.00404081
-0.00101977
-0.000139977
-0.090873
-0.00249328
1.09457
1.13113
0.0241599
-4.03506e-05
0.016784
-1.42982e-05
0.0983636
-0.00100081
0.0427717
0.98104
0.0137535
5.13455e-05
-0.0150954
3.99172e-05
-0.166743
-0.061366
0.776858
0.000520771
0.023274
0.00519872
0.000638342
-0.00429008
-0.000530423
-0.0111388
-0.0664633
-0.0414963
0.0118354
0.257434
-0.024171
0.0124269
-0.0366737
-0.00344749
-0.0489912
3.26262e-05
0.00011866
-0.00406122
0.0530181
-0.0561793
-0.0293609
-0.00672131
0.00530057
-0.0422747
0.224946
-0.0229656
-5.09793e-07
-0.0895249
0.707491
-0.0732526
-0.0217068
0.0902922
4.97587e-05
-0.00119758
-0.0506247
-2.82416e-05
-0.000770253
-1.6027e-05
1.12161
0.0169138
0.00694194
1.30162e-06
6.79167e-06
2.72227e-05
1.06452e-06
-0.0399737
0.604908
-0.0613259
-0.000789944
-0.000244293
-0.0100058
0.781691
-0.089721
0.680429
0.0240657
0.231383
-0.000106523
0.775749
-0.00394212
-0.0167036
0.00952509
0.0138871
0.0161452
0.302066
-0.0701913
0.764315
0.398455
-0.0147763
-0.0502096
-0.00549711
-0.0512537
3.16394e-05
-0.00161023
0.00514991
0.119223
-0.0116362
-0.040176
-0.00582556
0.942469
-0.116698
-2.18995e-05
-2.44816e-05
0.786717
-0.00864167
0.003502
-0.0230053
-0.00391342
-0.0268276
-0.0171097
-0.0688265
0.084658
0.0309797
-0.0176009
-0.025001
0.000212638
-0.0100303
-0.00224291
-0.0137734
-2.22902e-05
0.000149752
-0.034437
-0.0352922
0.754861
-0.0461929
-0.000265647
-0.00257998
-0.000485696
0.541108
-0.0658433
-2.3556e-05
-0.0491748
-0.0077729
-0.00615446
-0.0483723
-0.0551572
0.0118217
0.0935396
-0.104706
0.000190107
0.0104531
-0.0227879
3.94704e-06
-6.9512e-05
0.186855
0.137939
-0.0281828
-0.0803393
-0.0875681
0.000994388
0.797752
0.000217161
-0.0295402
0.637814
-0.0290476
-0.0620181
9.82745e-06
0.000355298
-0.0618513
-0.0158076
0.00248273
-0.053964
0.369181
0.286488
0.00125251
0.000527425
0.289186
-0.0211827
2.46165e-06
-0.00241696
-0.0469848
-0.0370397
-0.0180159
-0.00383355
0.14688
3.54584e-05
0.12288
0.411293
0.000107235
0.0150766
-0.000679746
-0.129761
-0.022706
-0.00104437
0.0450671
0.000428772
0.349868
0.00246526
0.0354971
0.0128331
0.998356
0.610226
-0.08647
-0.0115569
9.62231e-06
-0.0502157
-0.0210278
0.227222
0.42881
-0.0538456
-0.0286599
-0.0250786
-0.00950747
0.227315
-0.000248357
0.739809
0.0383725
0.000110564
0.000108199
0.000210314
-0.018968
-0.0262272
0.00120244
0.043798
0.149353
-0.0797315
0.000861786
0.000161483
-0.0343375
-3.17421e-05
-0.00406062
-0.0164397
-0.00094559
0.00151928
0.00643439
-0.001885
-0.00534771
-0.0231258
0.611274
0.629774
0.0552405
2.92586e-05
-0.00071315
0.391402
-0.000581195
-0.150238
-0.000235559
-0.0285937
-0.112355
-0.000228087
-0.000271887
-0.0471251
0.00209297
-6.65155e-05
-0.00178914
0.284509
-0.0490979
-1.25603e-05
0.141288
0.542703
0.552442
0.00101905
-0.142465
-0.0129467
0.703477
-0.0933079
-0.0956051
-0.0145946
-0.0178695
0.0406639
-0.0356671
0.555569
0.103666
-0.000173928
-0.0745908
-0.0974557
-0.00523852
1.78863e-06
-0.00243364
0.334068
-0.000200407
-0.007703
-0.00549406
-0.00156298
0.0126751
0.0414647
-0.000182885
-0.000126323
-0.0105226
-0.128608
-0.0497622
-0.103483
0.387217
-0.00308032
-0.000315006
-0.0511843
-0.0333186
0.0134838
0.0189254
0.000184508
0.104909
0.215508
0.0267016
0.0342262
-0.000793298
-0.0182452
-0.0371709
0.00192905
1.15092e-05
-0.0128765
-0.00542365
-0.000933243
-0.0154888
-0.00109214
0.211811
-0.012329
-0.174872
-0.0331133
-0.0145788
0.0165217
0.782105
-0.0590803
-0.00010617
0.771053
0.247037
0.0108886
-0.0078988
0.0105751
-0.0294393
0.243404
0.000552586
-0.00429753
0.981494
0.468693
0.420078
-0.0611167
-0.00183074
-0.00160187
-1.28115e-05
-0.00169786
0.335871
0.120044
-0.0125424
-0.00816849
-0.000408115
-0.0593986
0.935147
0.653066
0.114931
-0.00377539
-0.0848085
-0.0070844
-0.000913274
-0.0309673
0.0167668
-0.0370041
-0.00471965
0.00135179
-0.123115
-0.129334
0.0425242
-0.033873
-0.00681925
-0.0349576
-0.000221628
-0.00938829
-0.000869704
0.4785
0.000117097
6.87704e-06
-0.0419613
-0.026652
-0.0386722
0.0542951
0.00014641
-0.118454
0.0868078
0.301084
1.06463
-0.00619607
-0.150536
0.0417286
-0.00273518
0.0391408
-0.000744509
0.0144355
-0.00019168
0.312112
-0.120154
0.0147968
0.153951
0.174
0.00212296
0.00376877
8.78557e-06
0.670235
1.52108e-05
-0.0605694
0.000536036
0.00239284
0.264263
0.147375
-0.103497
-0.0522893
-0.00548586
1.13133
-0.104744
9.89186e-06
-0.0209467
1.71893e-06
-0.0232297
0.150473
0.306978
0.00132124
-0.0470892
-0.0125967
0.226065
-0.0235602
-0.0434693
0.949704
-0.0132534
0.000126096
-0.186308
0.997563
0.00238182
0.136277
-0.0594214
0.193756
0.00270019
0.0403299
-0.0998911
0.007151
0.0771051
-0.0413169
0.198136
-0.0351032
-0.0261493
-0.000997761
-0.00101155
0.849391
2.40022e-05
-0.00775171
-2.07333e-05
-0.0107827
0.000558859
-0.00974232
0.304395
1.48393e-05
-0.00129933
-0.00275451
-0.182963
-0.0331868
0.00167067
0.685105
-0.0754936
0.262964
-0.0158479
0.236278
0.00910456
-0.000927635
-0.103358
0.00115284
0.871202
-0.0369524
-9.72213e-05
0.00321107
0.216449
-0.0149788
-0.0008629
-0.000112069
-0.122177
-0.00340083
-0.0132201
-0.101771
5.9024e-06
-0.0912719
0.000670589
0.566728
-0.0138322
0.226165
0.00608258
-0.0048891
0.385927
-0.0856614
-0.185849
-0.00579747
-0.129708
0.398847
0.407512
-0.0187793
-1.41017e-05
-0.0207799
0.00644735
5.45582e-05
0.0521553
0.630783
0.0173728
0.0022816
0.00948658
-0.0928259
-0.000176363
0.106352
0.0650274
0.0987729
0.0182547
0.0379715
-0.000460223
0.272462
-0.112154
-0.1897
-0.00127569
0.0238172
0.214507
0.00119275
-0.0952775
0.337345
-0.0585534
-0.0968997
-0.0981212
-0.13604
-0.137876
0.0741188
0.346697
-0.147067
2.94914e-05
0.00124387
-0.0637308
-0.00232542
0.00547494
2.18999e-05
-0.00762088
0.00555808
-5.76201e-05
0.0816964
-0.000624714
0.181837
-0.0453842
-0.00922477
-0.00918293
-0.0113799
-0.0930632
-0.00776842
-0.00131419
0.0294723
0.111614
0.00609597
-0.0443727
-0.0038979
0.0399938
-0.0126228
-0.0259048
-0.0976661
-0.0212861
-8.93014e-06
-0.0204402
0.768363
7.80008e-05
0.0493776
-0.0726052
0.925746
0.068305
-0.0623055
4.23299e-06
0.00242232
-0.119501
-1.14879e-05
-0.00356485
-2.06721e-06
-0.10266
0.00630596
-0.117416
-0.0308894
-0.000125649
0.430628
0.421173
-0.0482031
0.00069804
-0.000179346
2.63442e-05
-4.72816e-05
0.80576
-0.00170725
0.0032445
0.0302584
0.00140452
-0.00073437
-0.0991254
-0.000240461
0.061903
0.00198668
-0.00273887
-0.000922235
-0.0344998
-0.0558148
0.265981
0.103881
-0.000171286
-0.0177927
0.00083007
-0.100046
-0.000749501
0.185397
-0.0139468
1.12279
-0.0242257
-0.00188762
0.107401
-0.0256841
0.557126
-0.0566614
-0.0151379
-0.0174869
0.0256005
-0.00485505
3.82421e-05
-0.0112414
0.476216
-0.0587617
-0.00432463
-0.0561213
-0.0364485
0.231745
-0.000625157
0.42031
-0.0058842
-0.0907313
-0.000657006
0.018408
0.0637623
-0.0115506
0.484109
-0.000574741
0.0464872
0.128262
0.000778624
-0.000121383
0.901595
0.0821579
-0.00170691
0.0413191
0.0221412
0.000241259
-0.103506
-0.0302911
-0.170295
-0.0144944
0.545671
0.00576145
0.121409
-0.000481741
0.65146
-0.0941812
-0.0071321
0.00871622
0.0440773
-0.0951092
-0.1584
-0.0115924
0.00011703
1.02473
-0.0306167
0.00122297
-0.0596775
-0.0534626
0.505695
0.00426327
-0.0221648
-4.48172e-05
0.0715305
0.0112308
-0.0519016
0.00121029
-0.00468788
-0.0379975
7.36164e-05
-0.070454
-0.0020716
-0.0202066
-0.0871416
0.467929
-0.0139373
0.017451
-0.0677649
-0.0441056
3.34513e-05
0.000265049
-0.00515955
7.6293e-05
-0.0152378
-0.0589912
-0.0027525
4.02754e-05
0.899466
0.00706745
0.000551111
-1.09543e-05
-0.0028621
0.476804
-0.070976
1.02775
0.291283
0.0309413
0.450709
2.74632e-05
-0.0201954
-0.00108971
-0.00333859
0.305899
-0.0140125
1.02056
0.399107
-0.0776285
0.431067
0.011977
-0.0195954
0.00321808
-0.0719288
-0.00539963
-0.0705228
-0.075531
-0.00409788
0.419667
-0.0136229
0.000249
-0.00588074
-0.000856659
-0.0463326
-0.000176356
-0.00166628
-1.66076e-05
0.246444
-0.157367
0.433223
0.0385619
-0.00373092
-0.0473773
-0.0279816
0.106958
-0.00416488
-0.00140454
-0.0884744
-0.0623923
0.0107633
-0.0581124
-0.00615101
0.00643153
0.00265428
9.06711e-05
0.205981
-1.36764e-05
0.082373
-0.00105254
7.2283e-06
0.0028812
-0.000859775
-0.0016234
-0.0222972
0.235013
0.229845
-0.0276352
-0.0174921
0.00415765
-0.00701921
-0.0140616
-3.63318e-06
-0.000618326
0.00105238
0.172404
-0.0122355
-0.0788303
-0.0731561
-0.0033261
-0.0348057
-0.0228261
-0.00231427
0.00751017
-0.0171777
0.377027
-0.0973038
0.00771223
0.00186612
-0.0527947
1.00595
-0.0138733
-0.00793725
0.010961
0.12112
0.00572386
-0.00933798
0.421156
-0.000452622
0.0627292
-0.033706
-0.0812688
0.00901372
-0.00515175
-0.00761974
0.0589572
-0.00496665
-0.000798429
-0.00347824
0.00362566
-0.000262882
0.0393099
-0.0129876
-0.00277079
2.56079e-05
0.249412
-1.70522e-05
-0.0454823
0.116771
-0.0350737
0.000280272
0.170773
-0.0623609
0.271647
-3.2485e-06
-0.00547726
0.0739899
0.000303159
0.00702869
-0.00623796
0.0148243
-0.0288481
-0.0444756
-0.0128815
-0.00367056
0.0140163
0.0295106
-0.0124267
-0.000209987
0.178503
-0.0551905
-0.00456869
-0.00959841
0.00063438
-0.0892069
0.000140503
0.777043
0.295806
-0.000622036
-0.0298151
0.000200953
-0.00295339
-0.00807943
-0.02595
0.25016
0.150723
0.0094305
0.0144119
-0.098925
0.0496066
0.0201311
0.0225817
-0.0697268
0.0199016
0.302971
-0.0132184
0.630418
-0.00121766
-0.015067
-0.0705964
-7.71166e-05
-0.000980608
-2.97477e-05
0.626516
-0.0142624
0.000451064
-0.0215512
-0.00791945
-0.000394137
-0.0181555
0.379973
0.00145984
0.0153958
-0.0431432
-0.000586921
-0.00628934
-0.00104938
1.03841
0.000349261
5.63573e-05
-0.0026638
-0.0201699
0.0346026
0.000848994
0.0108469
0.112685
-0.000131004
0.0029539
-0.098178
-0.00539851
-0.070404
2.71744e-06
0.000561907
-0.0194392
0.0446348
0.494762
0.139245
-0.0466052
2.94256e-06
-0.0784241
-0.00354005
-0.0172996
-0.0167328
0.277612
0.738757
-0.000103746
0.229945
0.371385
-0.0132575
-0.037609
-0.0332742
-0.0221036
0.000202275
-0.0544064
-0.0118997
-7.73774e-05
-0.000666374
-0.0020975
-0.0025269
-0.000849623
0.474482
0.458211
0.216318
-1.95098e-06
-0.031598
-0.00319899
0.158512
0.788548
-0.000604861
-0.0275465
-0.0250148
0.356944
-0.0260165
-0.0131744
-0.0236407
0.236904
0.000495142
-0.000591027
-0.0354418
-0.0639666
0.173745
0.0381984
-0.0592761
-0.0334639
0.00515258
0.0275601
-0.067366
0.00980319
-0.0474149
0.127059
-0.000400922
-0.000773647
0.111759
0.000338385
0.0187171
0.0446858
3.15375e-05
0.250042
-0.0145926
-0.00598193
1.07267
-0.04947
-0.0145923
-0.0520358
-0.0037138
0.730048
0.00168795
1.01113
-0.000123524
-0.0356595
1.02629
0.00962442
0.719149
-0.00774411
6.38157e-05
-0.0382171
0.709378
-0.00208119
-0.00896591
-0.0110018
-0.00129176
-0.0291404
0.739063
0.15037
4.58287e-05
0.027411
-0.00500404
0.0416366
-0.00113856
0.0325553
-0.00348267
-0.000548143
0.697646
0.743274
0.709018
-0.0686024
-0.0340222
0.000267014
-0.0749119
0.446806
0.0206067
0.000409875
-0.0968784
0.000890773
-9.78089e-05
0.744839
0.000225879
0.00592701
-0.0025445
-0.012495
0.719531
0.727268
0.765516
0.0165142
0.00075908
0.316558
0.0106276
0.0302155
-0.0122551
0.000132443
-0.00392928
-1.30164e-05
-0.00609991
-0.00093801
-0.0078505
-1.81197e-05
0.221374
0.0030343
-0.102327
-0.0125074
-0.0930922
-0.0218784
-0.000978969
0.516516
-0.0144573
7.83918e-05
-1.37038e-06
0.988335
5.9651e-05
0.0158855
0.0751469
-0.0240815
0.436935
-0.00702531
-0.0570812
-0.0489917
-0.000597149
0.000224609
0.405118
0.755874
-0.00200711
-0.0306378
-0.0002607
0.728473
0.945256
-0.00186593
-0.00884933
0.0269649
0.00429545
-0.0327678
0.000171306
0.0141409
-0.0502292
0.0756896
0.485982
-0.00194859
0.0400202
0.0915956
0.00875729
-0.0584345
0.0392831
0.912878
0.249084
-0.0695915
0.731977
-0.000712307
0.786286
-0.0102395
0.619357
0.100663
-0.00677809
0.0448453
0.00343833
0.0245864
-0.0948133
-0.000832901
-0.0310755
0.583053
-0.0353956
0.0294152
-0.00191808
-0.0499377
0.236761
-0.0123583
-0.11057
0.00106259
-0.00483982
-0.0317951
-0.00281858
0.00282363
-0.0117581
-0.000605473
0.00345591
0.603763
0.00306416
-0.0211292
-0.077923
-0.0386513
-0.0821856
-0.115761
0.00587303
3.00316e-06
5.57297e-05
0.370539
-0.0806133
0.000116977
-0.0926164
0.259761
-0.0792784
-0.0198914
0.000205745
-0.00246787
-0.0602715
0.181937
-0.0120598
-0.000575424
-0.0601225
-0.0263293
1.03381
0.15822
0.0922754
-0.0693463
3.01472e-07
-0.00886674
0.0902946
-0.000428781
3.996e-05
0.236606
0.135542
0.000923219
-0.00107683
0.00909493
-0.0538637
0.0140925
0.0108164
-0.0198754
0.000105318
0.289342
0.000879925
-0.000743773
-0.000242782
-0.000236098
-0.000144215
0.114101
0.00137787
-0.00363579
-0.0125368
-0.00642442
0.0390492
-0.00707172
-0.0540674
-0.0136103
0.652128
0.521644
-0.000576438
-0.00186789
0.131055
-0.00100089
-0.0287707
0.0582704
0.0198485
-0.00120498
0.0281679
0.0549946
0.0018581
0.0988778
-7.88163e-05
0.0101638
-0.0309899
0.0187345
-0.0190981
0.0671903
0.00014262
-0.000134429
0.000464357
-1.41846e-05
-0.00199471
-0.0125701
-0.0166178
-0.0379861
0.0507284
0.0495389
0.0124711
-0.0878899
0.0142014
0.00768552
0.0175795
0.000112375
0.743755
-0.0106839
-0.00417393
-0.0451669
1.04818
1.39707e-05
0.0411393
4.8009e-05
-0.0672528
-0.00823915
-0.0284087
0.235834
-0.00507099
4.84343e-05
0.129455
0.0986572
-0.000644894
0.0696447
1.33572e-05
0.228707
0.00823344
-0.0363909
-0.000121879
0.310076
0.0382964
-0.0260212
9.93217e-05
0.236063
0.448982
-0.00136798
1.93413e-05
-0.046444
-0.011429
0.00373529
0.0267152
0.791993
0.406049
0.000711358
0.426786
0.311536
-0.00354927
-0.0696824
-0.0491953
-0.0211501
-0.075076
0.0652022
0.00115768
0.820316
0.191932
0.0163895
0.000205775
0.000914945
1.94478e-05
-0.000630122
-0.00345772
0.88209
5.36045e-05
0.106995
0.0359149
-0.000226483
0.794887
0.943826
0.27146
0.326434
-0.067324
0.00331847
-0.000293098
-0.0138844
1.12057e-05
-0.00131533
-0.179002
5.80974e-05
-0.00240405
0.826337
-0.0145695
-1.31133e-06
0.882052
0.000677452
-0.0440717
-0.0887867
-0.00157761
-0.110376
-0.000237351
0.123085
0.00441674
-0.0223866
0.00260029
-0.000739955
-0.000414163
-0.000218597
-0.180692
-0.0761293
0.213684
0.00367415
-0.0102694
0.301371
0.000138971
0.998186
-0.000582468
-0.104587
0.00300105
0.00220092
0.0674281
0.0706558
4.98256e-05
-0.00514566
0.000191273
-0.000771395
0.00117306
0.111473
0.0644515
0.459769
-0.0617925
-8.00779e-05
0.000275391
0.132411
0.438012
-0.00547813
-0.00777463
1.00029
-0.00339319
-0.0256088
0.00118137
0.0651199
-0.0612894
-0.0105715
0.218889
0.0018061
-0.00023247
0.00222213
-0.0500514
0.972074
0.745497
-0.0299372
-0.0518149
-0.00800915
0.00210222
7.27247e-05
0.0997613
0.250679
4.93385e-05
-0.00900036
-9.98939e-07
0.000241619
0.685454
5.04012e-07
-0.102662
-0.0779519
-0.129646
0.0913878
3.85854e-05
0.0127767
-0.00767398
0.619799
-0.0163239
0.006488
-0.0378254
0.000894482
0.451764
0.296297
0.0136237
0.0619008
0.834674
-0.0808681
-0.0748436
-0.00229577
-0.00862995
-0.000381227
0.0250555
-3.8475e-06
0.229592
0.00380927
0.225529
-0.0438376
2.39213e-06
0.0693505
-0.000143273
3.40992e-05
-0.000854795
0.97125
0.92744
0.330808
0.000113758
0.161494
0.785454
-0.00113312
0.00168633
-0.0103977
0.0688368
0.712207
-0.0341604
0.163536
-0.00312482
-0.0796859
-0.0898487
1.08931
-0.00067238
0.736336
0.116143
0.266503
0.000237239
0.000333365
0.00691412
-0.011048
0.107456
-1.60402e-05
0.0001261
0.726342
-0.140654
0.000456987
0.766247
-0.00279149
0.000262387
0.556193
-0.00899662
-0.00182857
-0.0543772
0.12757
0.00046895
-9.89309e-05
0.00443716
-0.00492295
0.714193
0.963986
0.327265
1.06262
0.0512478
-0.0567313
0.846886
-4.15639e-05
-0.00393654
0.0720429
-0.00420511
-0.000733602
-7.8663e-05
0.757634
0.0183167
-0.000723723
0.934779
0.0987777
0.173132
0.0556555
-0.00327469
-0.0256476
0.169131
0.0903922
0.742065
-0.0307594
-0.000889334
0.682235
0.561494
0.0163768
0.4842
-0.0493022
-0.00952241
-0.0116869
-0.000713619
-0.000114301
0.694144
-0.0778082
-0.0160392
0.00110192
0.207276
-0.0386068
-0.0250566
-0.00113837
-0.00486924
0.789361
-0.000908834
-0.0215405
-0.00361073
0.761432
-0.0241218
0.0253537
-0.00914571
0.0018549
0.204843
-0.0269819
0.823238
0.0290234
1.05737
0.356825
-0.07322
0.0396611
-0.00210672
0.00174117
-0.0850822
0.728442
0.783573
0.901218
0.347443
0.705048
-0.000364571
0.841419
1.41661e-06
0.000129443
-0.0587092
0.916126
0.0644088
0.299816
9.65242e-05
-0.0025684
-0.111829
-0.0451231
0.716343
-0.000762721
-0.00934911
0.320888
0.00138986
-0.00515201
1.02039
0.0598373
-0.0554402
-0.192884
-0.00057455
0.0292812
0.00369379
1.07211
0.021074
0.0131323
0.00531387
-0.000230577
-0.0132907
0.255847
0.00652842
0.000212907
-0.12738
0.338014
-0.00173753
0.725745
-0.0927038
0.739692
-0.0393773
-0.0281582
0.843291
-0.00645988
-0.00828403
-0.000417908
-0.00153537
-0.0772437
-0.0274273
-0.0440823
-0.0119016
-0.00351067
-0.133955
-0.0856846
0.724503
0.000405884
0.0010304
-0.0251705
0.146092
-0.140474
-0.0714503
4.51741e-05
-0.133486
0.0579451
-6.92365e-05
-0.107439
-0.103086
0.751607
-0.131439
0.710227
-0.0166762
0.109753
0.345939
-0.0422054
0.265467
-0.00209323
0.0875719
0.000847874
0.10811
0.249615
0.229562
-0.0345487
0.00761697
-0.000715121
0.236063
-6.16971e-05
-0.000102089
-0.00118635
-0.013925
0.0181741
0.0183265
0.59452
0.176936
0.982906
0.539687
-0.0017821
-0.0392007
-0.000136654
-0.0583404
-0.00144106
0.00718543
0.000871531
-0.0414895
0.451922
0.741467
-0.00029179
4.3089e-05
0.00398834
3.51839e-05
-0.0110027
-0.000152425
0.148827
-0.0426505
0.24763
-0.115082
9.85736e-05
-0.0166062
-0.0476366
-0.0316704
-0.0196503
-0.062619
0.0444573
-0.000146544
8.6621e-07
0.00264405
-0.000100163
0.0830076
0.0245049
0.0471212
0.901186
0.0541021
-0.166733
-0.102742
-0.000449563
0.0629535
-8.83752e-05
0.666137
0.123414
0.814179
0.000238491
-0.0391436
-0.00807292
0.0587246
0.0894993
0.572106
-0.00902389
0.0325537
-0.00220235
-0.0235595
-0.00949647
-0.00720531
0.133167
0.00202431
-0.0106348
-0.0242911
0.173001
0.0681819
1.27857e-05
-0.000983526
-0.007332
-0.000657463
0.124439
-0.000727839
-0.0405086
0.162175
0.000133252
0.31258
0.000147864
-5.29757e-07
-0.111795
-0.0248156
0.000259268
-0.0269025
0.000279368
0.857661
0.015142
-0.0288007
0.809102
0.159279
-0.0372969
0.58368
-0.00320931
-0.00215775
-0.00240015
0.0962374
1.134
-0.00169324
-0.000628176
4.17317e-05
0.00957345
-0.00141134
0.0309529
0.00751729
-0.0248488
-0.0702259
0.0222801
0.0126638
-0.0223877
-0.00056891
-0.0470614
0.505527
-0.00207286
-0.0162908
-0.000214949
0.603833
0.063058
0.506901
0.000594977
-0.000928215
-0.0285189
0.907699
0.181449
-0.0336427
-0.000102133
0.0377199
0.0755013
-0.037121
0.240935
-0.0562239
0.0227237
-0.173235
0.576079
-0.0200966
0.318507
-0.00369013
1.06319
-0.0486909
-0.0129848
0.809032
-0.050754
0.207061
-0.186742
0.235075
0.00787237
0.0595531
0.4278
0.0601571
-0.0566557
-0.0113965
-0.00903932
-0.019709
-0.0206226
-0.00174649
-0.0677339
-0.0334391
0.00246081
-0.0776114
-0.0973069
-2.09297e-06
0.0578382
-0.0107415
0.0370802
0.80005
0.458883
-0.0630147
-0.0841114
0.000644924
-0.0996469
-0.00532717
1.02815
-0.0416816
-0.0357777
0.458917
0.0579354
-0.0477704
0.197814
-0.0435224
-0.00067458
-0.0138008
0.0121447
0.000884385
0.482683
-0.00313328
0.177456
0.29933
-0.00667714
0.315102
-0.129675
-0.000381502
0.00811228
0.0673905
0.3662
-0.00291884
0.086579
-0.0836728
0.0729353
-0.0272845
0.481108
-0.0040885
-0.100804
-0.00386943
0.000276272
0.711651
-0.00283629
-0.0406454
-7.11849e-05
0.271252
-3.10632e-05
-0.0580315
-0.00390078
-0.184064
0.000876266
-0.0122922
0.165501
-0.00457754
0.00120334
0.000853403
-0.00482798
0.0331261
-5.83625e-05
9.53914e-06
-0.0100084
-0.0124409
-0.0272836
0.00989518
-0.00218447
0.0894764
0.0964894
-0.00142381
0.00131736
-0.000163857
0.696992
-0.00491314
-0.00822956
0.565678
-0.0219705
0.495638
0.051963
0.752038
0.295332
0.132133
-0.00170115
-0.0123714
0.0964015
0.0252785
-0.00510108
0.000286163
0.0102239
-0.0622847
-0.00106061
-0.00976807
-0.00941017