/*--------------------------------*- C++ -*----------------------------------*\
  =========                 |
  \\      /  F ield         | OpenFOAM: The Open Source CFD Toolbox
   \\    /   O peration     | Website:  https://openfoam.org
    \\  /    A nd           | Version:  7
     \\/     M anipulation  |
\*---------------------------------------------------------------------------*/
FoamFile
{
    version     2.0;
    format      ascii;
    class       volScalarField;
    location    "21";
    object      p;
}
// * * * * * * * * * * * * * * * * * * * * * * * * * * * * * * * * * * * * * //

dimensions      [0 2 -2 0 0 0 0];

internalField   nonuniform List<scalar> 
115546
(
-0.00215052
-1.35071e-05
-0.0168412
-0.00418254
0.00216518
-0.00100005
0.358379
-0.039648
-0.000313612
-1.42437e-05
-0.000333672
0.000297354
-0.00178899
-0.0679866
-0.000314046
-0.0644878
-9.31789e-05
-0.000443531
0.418749
0.00223861
-0.0403769
-0.00623918
-0.000503589
-0.00656669
0.555223
0.0929948
-0.0471832
0.028405
-1.10668e-05
0.410039
-0.000177912
0.109875
0.0075432
-0.0162865
0.562829
-0.00217308
0.358316
-9.00405e-05
-0.178136
0.24849
0.110697
-0.00044838
-0.022564
-0.00217712
-0.0518294
-0.0680155
0.00466286
0.00768172
-0.000347136
0.000281538
2.07259e-06
-0.0039367
0.121045
-7.30334e-06
-0.00300225
0.122526
0.0987156
-0.0470869
0.0205952
-0.0143176
-5.0893e-05
-0.00674706
-0.000968993
-0.021158
-8.07805e-05
0.00140538
-0.00146686
0.0747504
-0.0444025
0.090727
0.275589
0.0880099
0.245307
-0.0440965
-0.0197418
-0.0317452
0.00918221
-0.000805848
0.394386
0.055836
0.0573683
-7.72393e-05
-0.0886145
0.0277376
-0.00389437
0.000288086
-0.0224614
-1.09965e-05
-0.0335598
-1.23457e-06
-0.105381
-0.0130569
-1.27366e-05
-0.00164249
-0.000545551
0.000567077
-0.0004989
-0.0885561
-0.0754456
-0.0334497
-5.30016e-05
0.0351516
0.000965943
0.00355148
0.275737
-0.0467227
0.26715
-0.0552263
-0.0156043
9.13447e-07
0.0542844
-0.000493713
0.0115557
-0.00992626
0.694259
-0.00249017
-0.000336402
0.253216
5.86843e-05
0.0853966
0.256239
-0.0661902
-0.0165961
0.0288348
-2.40446e-06
0.407698
-0.00666084
0.57274
-0.00208634
0.0561455
-0.00621492
0.000410712
0.230708
0.00028759
5.90975e-05
0.425304
0.53472
0.00735512
-0.00285496
-0.00666953
0.248025
-0.00176286
0.00012147
0.126778
-0.00450646
2.59459e-06
0.0114104
-0.00677819
0.0758202
0.00117095
-0.0465069
-0.053114
-0.012956
-2.44641e-06
-0.00387112
0.00990587
2.67339e-06
0.0250433
-0.030183
-0.0689752
-0.0312703
0.011308
-0.000951043
-0.033027
-0.0111205
-0.00105175
0.0396497
-0.0227489
0.024552
-0.0121444
-0.0135277
0.00491343
-0.146926
-0.0676521
-0.0285685
0.0705749
-0.0676173
-0.00255404
0.00660302
-0.000358706
0.0179456
-0.0192268
0.434509
0.129148
0.267942
-0.000337774
-0.00457064
0.156318
0.0245507
-0.103612
-0.00249813
-0.00151482
0.445998
-0.0282573
0.0950396
-0.0645751
-0.0678695
-0.0116227
-0.0302894
-0.0121051
0.138432
0.358204
0.0214889
-1.03865e-05
-0.00442839
-0.0367854
-0.000738714
-7.74249e-05
0.0535252
-0.0293962
-0.0674576
0.264482
0.552441
5.73076e-08
-0.0110077
-0.0286027
0.0370982
0.00560036
-0.0684937
-0.000146179
-0.0355423
-0.0253124
-0.00103726
-0.0309451
-7.76241e-06
0.492797
0.000784992
-0.0315791
-0.0634961
0.500455
0.0325731
-0.0420568
0.259709
-0.0267614
-0.00761456
0.139464
0.000650202
-0.000212883
-0.0258235
-0.0039905
-0.0884276
-0.00417663
-0.0693982
-0.0791638
-0.00217287
0.00111141
0.0927886
-0.0326992
-0.0223432
-0.061784
0.456312
-0.00149953
0.119663
7.96227e-05
0.579051
0.0184522
-0.00889296
0.0293448
0.000461423
-0.0414028
0.0187734
-0.0680508
0.130258
-0.175688
-0.0161942
-0.00408107
0.0310468
-0.00206787
0.0259164
-0.00854823
-8.48684e-05
0.0255106
-0.000208389
-0.00399645
-0.00149307
-0.0234825
-0.0476368
-0.0280517
-0.00385172
-0.0553168
-0.0334895
-0.00214279
0.000160547
-0.0359447
0.000159173
0.014585
0.487455
0.112718
-0.0854681
-0.166031
-0.0480257
-7.957e-06
0.0127719
0.260833
-3.08807e-05
0.0241322
-0.00156413
0.105702
5.34966e-05
-0.00938437
-0.0679837
-0.0289318
-0.131111
-0.00769765
-0.0397614
0.0632531
-0.00946626
-0.0312578
-0.162883
0.0068433
-0.00311888
0.277551
0.264607
-0.0256174
-0.00193412
0.00120423
0.4459
0.00106023
-0.00636799
-0.00476439
0.0115586
-0.000138828
0.020915
0.690275
0.0758723
-0.0303481
0.0102754
0.101412
-0.0686457
0.0130726
-0.00311606
-7.75978e-06
-0.000307072
-0.00152881
0.649412
-0.00389104
0.0321121
-7.92087e-05
-0.00101933
-0.00457216
-0.0155613
0.0781112
-0.0609168
-0.0206039
-0.0107758
0.0021741
-0.00405182
0.591478
-0.0360519
-0.00314697
0.230506
0.16488
0.0186398
-0.00315652
-0.0128488
-0.000703016
-0.00159527
1.82752e-06
-0.00064442
0.0148557
0.159274
-0.0434444
0.361148
0.65381
0.00682498
1.98263e-06
-0.0156029
-0.0213204
-0.000862943
3.00772e-06
-0.0615243
0.133652
-0.0324831
-0.00070018
0.0375953
0.0049733
0.000948725
0.000276308
-0.00140273
0.016896
-0.0423023
-0.014362
-0.0101888
0.0143253
0.0147336
-0.000159386
0.255383
-0.0632457
0.00223873
-0.0313819
0.107426
0.21594
-0.0227662
0.0285084
-0.0249354
-0.00205896
-0.163188
0.000864574
-0.000215732
-0.0213685
-0.032933
-0.00213424
0.370185
0.238482
-0.173104
-0.010518
5.97074e-05
-0.0073122
0.0326335
-0.0075321
-0.00997667
-0.00316901
0.0022858
-0.00384381
-0.00395667
-0.00377127
-7.40673e-05
-0.102466
9.5259e-05
0.0144608
-2.96303e-07
-0.0680215
0.000404643
0.390523
0.266673
0.177065
-0.0101227
0.191997
0.0972493
-0.00204261
0.00227172
-0.000148169
-0.00509596
-0.0307741
-0.00760999
-0.0075714
0.000964094
0.000397923
-0.000195028
0.000263923
-0.000847289
0.0572096
-0.000861752
-0.0218481
0.000147702
-0.059873
0.001086
-0.000171106
0.213625
0.0697568
0.283708
0.000101152
0.000196281
0.00236538
-0.022364
-0.00633471
-0.0617571
-0.0323434
0.140528
-0.00897125
0.370047
0.0011257
0.00215974
0.331036
0.27226
-0.041778
0.00340365
-0.0671945
-0.00899902
0.000101895
0.0143678
-0.0628215
-0.0265011
-0.0445358
-0.00025211
0.0753405
-4.28748e-07
0.00347612
0.0346117
0.0406618
0.411636
5.22495e-07
-7.7757e-05
0.00241447
-0.0265337
-0.000632074
-3.04781e-05
0.0244463
0.589459
-0.00793339
0.26538
-0.0215449
0.471498
0.131895
-0.00380246
-0.0631744
-0.0599868
-0.00952252
-0.000229054
-0.00442393
-0.00158865
0.40113
-0.0261857
0.355777
-0.0100782
0.174977
-0.0215887
-0.0152542
-0.0859109
0.142499
-0.00304137
8.75271e-05
5.8663e-06
-2.95293e-05
-0.00183298
-0.0513566
0.000401591
0.0299453
-0.0002523
-0.000253138
0.00278201
-0.0086597
0.0010064
0.000739755
-0.0248671
-0.00488551
-0.00509708
0.421304
-0.0295043
0.00945605
-0.0135466
-0.0380395
-9.536e-05
5.43616e-05
5.66247e-07
-0.0399088
-0.0596562
-0.0343199
5.31435e-05
-0.0163625
0.0798248
-0.0560827
0.00738623
-7.45393e-05
-0.0305869
-0.0119259
0.000197077
-3.80202e-05
-0.0319264
0.00234728
0.000501889
-0.0549862
0.000666615
-0.057054
-0.0250709
-0.0214696
-0.0203005
0.000990914
-0.0422428
0.000459085
5.63127e-05
0.00608223
0.308011
0.497022
0.211971
-0.00198324
-0.0135344
0.232803
0.0180595
0.000401206
0.045845
-0.0167276
0.0208825
-0.00434765
0.069812
0.00140054
0.209592
0.000817741
-0.00626257
-0.0214034
0.254283
0.000447878
-0.0256863
-0.0607205
0.138407
-0.0233392
-0.00623509
-0.0611737
0.000139093
-0.171209
-0.00514013
0.024691
-0.0220657
0.00362454
0.134469
0.24157
0.488975
0.192048
0.208854
-0.0111435
0.250054
0.0185331
0.258023
0.287677
0.000319083
-0.00158065
0.4942
7.08041e-05
-0.177734
-0.0325712
-0.0214302
0.00136863
0.0409587
-0.00154065
0.00231682
0.413297
0.556823
-0.000195608
0.000472347
0.0182291
0.000210085
-0.134683
0.273918
0.151242
-3.13532e-05
-0.0355715
-0.0288442
0.000869543
0.00228619
0.0914993
0.547399
0.000143868
6.25779e-07
0.255232
0.00201583
-0.000200091
0.043841
0.00645307
-0.00384188
-0.00258947
-0.174712
-0.0181566
-0.00151233
-0.0326508
0.000485678
-0.000155074
-0.00222284
0.00988531
-0.000293867
-0.0248465
0.00109131
-0.0225056
0.257359
-4.54163e-05
0.686062
-0.0207244
0.47122
0.0126216
-0.000639028
-1.27188e-05
-0.000495957
-0.0062795
0.12726
-0.00207391
-0.0156456
0.422337
-0.0606012
-0.0609032
0.0182469
0.0238134
0.420344
-0.000582609
-0.0254241
-0.0217698
0.000368874
-0.00429591
0.00110994
-0.00121557
-0.0520425
0.606729
-0.0583231
-0.00240839
-0.0231627
-0.000219724
0.0481058
0.0920711
-0.0106274
8.14634e-06
0.262767
-0.0149996
-0.0687722
-0.00226979
0.0132894
-0.0357216
0.00622253
-0.078373
-0.00108076
0.35567
-0.00484375
0.094671
-0.0436544
0.0346666
-1.19563e-05
-0.0351325
-0.0249353
-0.0260619
0.0427277
-0.0554276
0.000500223
-0.111234
-0.00162245
8.87466e-06
-0.00196641
0.000431116
0.553052
0.000377992
0.387739
-0.0236918
0.0332297
0.00381898
0.109886
0.0047472
0.166767
3.19207e-06
-0.0177189
-0.00164389
0.00203095
-0.0290798
6.48457e-05
-0.0197142
0.527558
-0.0303495
0.000402786
-0.0731732
0.126665
0.431559
-8.53766e-05
-0.000360786
0.0190143
0.000308834
0.504586
-0.0112489
0.128667
0.160558
0.00029821
-0.0848621
0.190262
-0.000156365
0.0365104
0.49086
-0.00259761
0.000733303
0.000618457
0.00538992
-0.0213239
-0.00684479
0.345159
-0.00938459
0.618308
0.717446
-0.00321846
0.000159763
0.355788
-0.00383685
-0.018583
0.000445708
0.157534
-0.0436488
0.587983
-0.00153539
9.6748e-05
-0.0150429
-0.0795883
-0.0353077
0.024355
0.0233012
0.12919
-0.000234159
-0.0677543
4.92439e-05
0.00214295
-5.93297e-07
-0.166792
-0.0424412
0.211544
-3.07365e-05
0.488626
-0.000518572
-0.00366061
-0.000735877
-0.0633402
-0.0134545
0.0933699
-0.000189309
-0.0287505
0.00296623
-0.0139587
1.56525e-06
6.46717e-05
-0.000304787
-0.0414289
0.00212427
-0.00128644
-0.0332049
0.000205421
0.000505579
0.00120031
-0.000626048
0.23095
0.0745477
-0.104945
-0.0272858
-0.0435244
-2.8566e-06
-0.0648687
-0.0527204
0.00058305
-0.0342292
-0.00177575
-0.0374148
-0.120571
0.000796751
-0.00855511
9.7031e-06
-0.00622851
-0.000484945
0.243795
-0.00844839
0.000279185
-0.000218175
0.0342684
-0.0482053
-0.00380134
0.000135228
0.348515
0.354298
0.00212482
0.108634
-0.0800331
-0.0616875
0.000168901
-4.20636e-06
0.303899
-0.0363981
0.000215402
0.0556803
-0.00105011
-8.11886e-06
0.070272
-0.0641086
-0.0580376
-0.0645998
-0.0222295
-0.00720885
-0.0182235
2.95598e-05
0.181299
-0.000166061
-0.0306414
0.0577861
-4.3952e-05
-0.0738562
-0.00508952
0.156035
0.000381724
-0.00952753
0.45197
0.0546184
-0.0306933
-0.0220739
0.265523
0.0378559
-0.0135738
-0.0330541
0.270464
-0.00142398
-0.000428852
-0.102665
-0.0105802
-0.0137366
0.643328
-0.0069927
-7.58125e-06
-0.186982
0.00325356
0.00730908
0.166401
-0.121931
-0.00252946
-0.00239004
0.158698
-0.0226834
0.0704274
-0.00450348
0.12676
0.096105
-0.0294236
0.119264
0.232702
-0.000483699
0.0708566
0.55256
-0.100708
0.000630166
-0.0391504
0.151032
-0.00572493
0.03539
0.261599
-0.00418203
-0.00207955
-0.00594738
-0.00449974
0.0403698
0.0480954
0.000500632
0.421292
0.605704
-0.0371048
-0.00219145
0.0151829
-0.0435074
-0.0342356
0.246436
0.349714
-0.00241597
-0.0347615
-0.0433055
-0.000910987
0.0869638
-0.0639519
-0.00326668
0.0693885
0.000417943
0.168006
-0.0919892
0.137965
0.0303036
-0.164815
0.389254
-0.00155642
-0.0327782
-0.0672043
-0.000212445
-0.0242871
-0.0672909
-0.118127
-0.0439684
-0.00503731
-0.014219
0.0254946
-0.127306
-0.000432694
-0.0142152
-0.0685746
0.202742
-0.0549596
-0.0580336
-0.00998707
0.00216276
0.209114
-0.0231627
-1.9556e-05
-0.00290364
0.00169585
-0.0133779
-0.0215402
-0.00203397
0.0770312
-0.178672
0.0183181
-0.039569
0.0853338
0.0476856
0.00209009
0.00393889
-0.00422267
0.668986
-0.0304248
2.60756e-06
-0.00321694
-0.000454781
0.351504
-0.0145743
-9.05622e-07
-0.00907946
-0.000998595
-0.0399237
0.133357
0.08991
-0.0706065
-0.0221159
0.00140237
0.44931
-0.0282872
0.103258
-0.00635417
-0.0902078
0.0118004
0.00406381
-0.000185403
-0.0128533
-0.000223744
-0.0419822
-0.00127714
-0.10312
0.000103004
0.11485
5.70651e-05
-0.00299049
0.000154342
0.136277
-0.0239061
0.400582
0.0105147
0.111866
-0.139427
0.000557916
0.395833
-0.0417531
-0.0220177
0.727749
-0.000632314
-0.00994474
-0.167879
0.0379604
5.83001e-05
-0.00666781
0.0074984
-0.0396114
-0.0288897
0.490345
0.00326789
-0.171595
0.1328
-0.114887
0.00504567
0.00223401
-1.92755e-06
-0.000173666
-0.00200533
0.0306375
-0.000545639
-0.00345484
-0.0015224
0.427152
0.406722
-0.0328396
0.000123779
-0.0622178
0.0553
-0.0843085
0.000119179
-0.0740955
-0.0422903
8.70434e-05
-0.00552072
0.046359
-0.0326369
-4.21873e-05
-0.0596176
0.652844
-0.0588791
0.000400518
-0.0646074
0.0387255
0.000664393
0.000113323
-0.165953
-0.00210064
-0.118558
-7.44502e-07
-0.00969991
-0.0423009
0.588822
-0.00993401
0.00713735
-0.022507
-0.000242889
0.136399
-0.000473713
0.0301587
0.147944
-6.38262e-05
0.040921
0.00248193
0.587333
0.726399
0.0163341
0.530448
0.456492
-0.0652212
0.0192648
0.00029016
-0.0143134
-0.0487139
-0.00207769
-0.000192804
0.00470568
-0.000849084
-5.35812e-05
-0.0134832
-0.00072418
-0.0292884
-0.0628906
0.000141535
-0.000267003
-0.144232
0.000144267
-3.2539e-05
0.131646
0.0146001
-0.0271596
-0.00121831
-0.064173
0.0167433
0.100257
-0.0029205
0.005096
0.165126
0.0631061
-0.0419318
0.00273387
0.000844942
-4.5025e-05
-0.0291296
0.350189
0.0216911
-9.24842e-06
-0.165653
0.000134044
-4.3627e-05
0.128842
0.000853775
0.578496
-0.00202951
0.260636
-0.00454802
0.00498916
-0.00490807
-0.000224115
0.161289
-0.000990924
0.0020909
0.537236
0.491384
0.677383
-0.00255806
-0.143414
0.0888436
2.42867e-05
-0.0422784
-0.00543592
0.258558
0.32584
0.00396849
-0.0833071
9.41636e-05
0.0686657
0.000842943
-0.0101054
0.00705031
-0.00101852
-0.00457093
-0.00757912
-0.00372495
0.136715
0.134443
0.00288099
0.160557
-0.031088
-0.174427
-0.00717926
0.0451203
-0.0237812
0.673496
0.397062
0.031988
-0.0214927
5.06133e-05
-0.000127487
-0.0284887
-0.0513505
-0.0286515
0.0607558
0.246795
-0.125235
0.125547
-0.000318239
0.0119942
-0.0062092
0.220709
-0.0664863
-6.22566e-05
0.16595
-9.81732e-05
0.000147943
-3.17038e-05
7.09003e-07
5.53633e-07
0.222109
0.00418042
-0.0259617
0.000124428
-0.153374
-0.0468354
0.411628
0.00299013
-0.000855196
-0.0032774
-3.1757e-05
-0.000688128
-0.0808909
0.024401
0.15564
-0.00614509
0.133371
-0.021731
0.0104785
0.0301075
0.000841061
0.530238
7.43632e-05
-0.00364423
-0.000637102
-0.0217957
-0.00978631
0.230335
-0.00387949
4.30149e-05
-0.0694379
-0.00526426
0.246768
-2.99491e-05
0.000240012
0.000203779
-0.0351326
0.0030751
-0.0267452
-0.0641422
0.103806
0.400627
-0.00209332
0.00030403
0.00300083
-0.00148918
0.111512
-0.0517777
-0.0037357
0.0409958
-0.181275
0.000884449
-0.0697491
-0.00305531
0.00347323
-0.0463773
3.68691e-05
0.0335928
0.249765
0.37432
0.191871
-0.000228844
-0.14155
7.11962e-05
-0.0351529
-0.0354973
0.120308
-0.009549
-0.105323
-0.0328681
-0.0342424
-0.000303206
-0.0094709
-0.0321119
-0.0969269
5.68909e-05
0.092867
-0.00073731
0.316808
0.057439
0.0162615
0.000129306
0.000984831
-0.00371728
3.38902e-05
0.114488
-0.00978458
-0.0931276
-0.0712843
0.0620713
0.419317
-0.0105113
-0.0328454
0.144542
0.0250966
-0.00131882
0.0193513
0.683289
0.00221068
0.0257975
-0.137714
-0.00462632
-0.0309627
-0.0033872
0.322842
0.000185477
0.127601
0.435815
-1.05866e-05
-0.0143344
0.000108221
0.101149
-0.0128622
0.010225
-0.00666668
-0.00479818
-0.0308856
0.000282542
0.00100372
-0.0148354
0.0115413
-0.00313073
7.68477e-06
-0.00242843
-0.034182
-0.0629296
-0.00417144
-2.47713e-05
0.0205946
-0.00131428
0.00110483
0.0336226
0.183744
-0.0200397
-0.0185475
0.120932
-0.000169965
0.000353229
-0.0351727
-1.82737e-05
-9.38063e-06
-0.0113232
0.13395
0.00206306
-0.00718143
-0.00250507
0.0250285
0.000143539
-0.00049471
0.000106498
0.100694
-0.00136135
-0.00375074
0.023837
-3.53318e-06
0.000462517
-0.000137732
0.219433
-0.00137419
-0.0062307
-8.18125e-05
-0.067365
0.173349
-0.00287049
-0.0985614
-4.68491e-05
-1.48998e-05
0.0117445
0.000346597
-0.000192619
0.400185
0.0062842
-0.00246441
-0.06568
0.000296734
0.000868503
-0.0104122
-0.000818282
-0.00111905
0.515773
-0.000282094
-0.0365052
0.272898
-0.000193159
-0.0323616
-0.000598567
-0.0257001
-0.0446548
0.0310151
-0.00754328
-0.000518788
-0.00657796
-0.0802537
-0.00260702
-0.00782706
0.00120875
-0.000925525
-8.1853e-05
-0.0002746
-0.0398008
-0.0268313
0.111407
0.00349544
-0.0143385
0.661652
0.125801
-0.0553688
-0.0002623
-0.0263101
-0.0353507
0.0516486
-0.0512557
-0.0624436
0.101835
0.108834
-0.0177626
-0.0505717
0.398884
-0.0409852
0.000262439
-0.065066
-0.0679201
0.00237175
0.00820597
-0.0235886
-0.00153495
0.0343544
-0.0339148
0.349165
-0.0393949
0.355749
-0.0421258
-0.000773086
0.00407617
0.00017292
6.53121e-05
-4.0439e-05
0.20413
-4.65871e-05
-0.0308972
0.000828014
0.0121281
-0.0440859
-0.00046432
-0.00816036
-0.0324954
-0.000172007
0.188412
0.00742367
-0.00111731
-0.0310748
0.0999061
-1.33392e-06
0.0544183
0.000905649
0.248841
-0.00480598
-0.0430209
-0.0323079
-0.00110695
-0.000829989
0.133831
0.218666
0.216689
-0.00554278
-0.0336158
0.346085
0.0787443
0.00971599
-2.61156e-06
0.12451
0.0229872
0.000485268
-0.0659455
0.427595
-0.0217827
0.000906987
0.608725
-0.000161795
-0.00489569
0.0979131
0.231599
0.112707
0.111299
0.46221
0.322311
-0.000281028
-0.000725573
-0.00122321
-0.00111505
0.112487
-0.030782
0.37488
-0.00571949
-0.00720512
-0.0175812
-0.0599057
0.000721137
0.00114775
-0.000712399
-0.0393511
-0.000652461
0.0208592
2.58659e-05
5.80232e-05
0.000264536
-4.4513e-05
0.000863735
-0.0827214
0.00285617
-0.0960687
-0.102619
0.638068
-0.0421658
-0.000108073
-0.00222252
-0.121305
-0.00110092
-0.000181451
-0.0144843
-0.00150636
-0.000615352
-0.0072665
0.0390851
-2.42219e-05
0.0194203
0.00741777
0.000332522
-0.000365755
0.00383704
0.0182988
-0.0399055
0.0665071
-0.0123273
-0.0127317
-0.00042381
-0.0438652
-0.00136366
2.73168e-05
0.000188678
-0.00434363
0.163162
-0.0995937
-0.00606272
-0.0103156
-0.0717978
-0.000553754
0.42474
-0.0116575
0.100303
0.000886341
-0.000695754
0.000138665
-0.0421959
-0.0666902
0.420866
0.44983
0.12681
-0.0142097
-0.0330659
-4.64379e-05
3.69849e-05
-0.0084007
-0.100264
0.205186
-0.0927256
-0.0366273
-0.0341279
0.178568
0.0570544
-0.114101
2.11686e-06
0.102771
0.17042
0.0125927
-1.862e-05
-0.00849731
-0.0045764
0.214519
0.115527
0.00682821
-0.000462569
0.659589
-0.0126812
-1.73405e-05
6.97008e-06
0.0216716
-0.0142321
0.0932822
2.42769e-05
-0.0713264
0.00300552
0.000118086
0.490998
-0.0050383
0.094616
-0.00917701
0.000903944
0.0284242
-0.0700496
0.283236
-0.0214994
-0.0130966
0.511665
0.000858514
0.028722
0.124461
0.3724
-0.00133519
0.102726
6.09969e-07
0.000635138
0.138733
-0.0110414
0.014718
0.0536358
0.000352139
0.207116
-0.063776
5.79284e-07
-0.0592214
-0.00184468
-0.00718644
-0.00029435
-7.34789e-05
-0.0393624
-0.0646061
0.000956421
-0.00388344
0.00233448
0.113362
0.393575
0.000219853
-0.00231988
-0.000533095
-0.0383601
-0.00032879
9.27861e-05
-3.37099e-05
0.395686
-0.00504149
0.001126
-0.0293158
-0.0310114
-0.0600921
0.397524
0.31472
0.225298
1.80337e-06
-0.161938
-0.0403687
-0.00815388
-0.0507062
-0.00138474
0.168238
-0.0174176
0.00999896
-0.000833263
0.0287964
-0.0597139
0.0239806
3.0931e-06
0.0568128
-6.75957e-05
-0.000325233
0.0743201
-0.00168927
-0.0345393
0.644101
-0.010138
0.0016575
-0.00282523
0.146671
0.234787
0.41504
0.2512
-0.0614427
-0.00235403
-0.000902819
-0.00589431
-0.0300611
0.00302989
-9.85917e-05
-0.0297098
0.00213213
-0.0256701
-0.010233
-1.11697e-05
-0.0417443
0.0189977
0.464097
0.131457
-1.32854e-05
0.0585934
0.000942112
-0.0577722
-0.0614855
-0.012207
0.39918
-0.000612136
-0.038744
0.0110257
-0.000527917
0.000172919
-0.0314782
0.121593
-0.0360758
-0.0372596
0.0399693
-0.0776069
-3.86139e-06
3.48473e-05
0.0344449
0.00857173
-0.0299161
-0.000899416
0.270427
-0.000168802
-1.52059e-06
-0.000943084
0.00360034
-0.0109755
-2.00884e-05
-0.0265589
0.0690204
0.145328
-0.00251947
0.349563
-0.018087
0.14738
-0.00969537
0.0104679
0.000111087
0.0280346
0.0350008
0.0626425
0.569204
0.185899
-0.00963764
0.00304748
0.222481
-0.00910705
0.277147
2.70395e-06
0.10069
0.191977
0.458539
0.000271346
-3.80371e-06
0.30471
0.443999
0.113854
6.0759e-05
-0.135336
0.0766575
-0.00357319
-0.00145133
0.0210424
0.0280746
0.0104694
0.353495
-0.0022705
-0.0411346
-0.00256209
0.0246042
-0.00152155
0.409706
0.106788
0.0306505
-0.000944393
0.102108
-0.0577024
0.0118038
-0.0356921
0.000317807
-0.0331075
0.0194375
-0.00754168
-0.00282501
-0.0536899
-0.00809898
-1.28466e-05
-0.0859202
-0.00348152
0.000428778
0.0116958
-0.00191703
-0.00375149
0.0314555
-5.99726e-05
0.0426207
-0.0487837
0.314512
-0.000268792
0.612148
-1.54163e-05
-0.0076669
0.00822872
-5.61047e-05
-0.0064507
-0.00170746
-0.0613768
0.186967
-0.0220643
-0.0342294
-0.0414108
0.294724
-1.44324e-05
-0.10231
0.0437096
0.00693652
-2.31521e-06
0.65366
0.00743936
0.0167251
-0.00424237
-0.001773
-7.05733e-05
0.317202
-0.00603294
0.132335
0.00028028
-0.0491465
-0.00134029
-6.6664e-06
0.328351
-8.36568e-05
0.166602
0.532562
0.285237
-0.00844316
0.152568
0.173213
0.274311
0.349155
0.216763
0.481015
-1.00877e-05
-0.0281101
0.163078
-0.000542779
0.274306
-0.0410876
-1.22753e-05
-0.000281595
-0.0322569
0.615806
0.0286109
0.00687747
0.100752
-0.000300208
0.000140421
0.0100108
-0.0278423
0.0102054
0.256992
0.587919
-0.023452
0.358985
-0.0392993
0.0388645
0.407521
0.000193014
0.2376
-0.00622541
0.033182
0.00209065
-0.0874826
-0.0114196
-0.0299893
-8.73185e-06
-0.0176264
-6.84762e-06
0.164815
0.614236
-0.168316
0.00108504
-0.030578
-0.0358274
-7.88016e-05
0.00746892
-0.0298357
0.00779076
-0.0252981
-0.0263821
-0.000763481
0.00114096
0.0489098
0.000244891
-0.0335083
-2.53402e-05
0.113103
-0.00150877
-0.0355122
0.000239826
-0.00604655
-0.0357824
-0.0136793
-0.00902877
0.000995006
0.0693359
-0.0338794
-0.0652445
-0.000193713
0.0466078
0.0488546
-0.0521579
0.349465
-0.00729184
-0.0661046
0.0114606
-0.00439198
0.00845045
0.000107087
-0.116337
-0.0212348
-0.00393905
-0.000188774
-0.00100238
0.0984771
-4.44028e-07
-0.000553204
0.000135125
-3.38189e-05
-0.00230678
0.399827
0.686334
-0.000493666
-0.00205311
-3.39842e-05
-0.0521412
0.00434262
-0.0100488
0.0288295
-0.00189974
0.132592
0.00398724
-0.00130747
-0.000749917
-0.00603835
0.00447488
-0.000366556
0.297411
-0.00197314
0.605665
-0.0230861
-5.81975e-06
0.103666
-0.000974236
-0.0270359
0.162412
-0.00381184
-0.0223513
0.579876
-0.0385051
0.00323739
-0.0497788
0.0551398
-0.00731444
0.0244376
-6.05907e-05
-0.0274688
0.00101255
0.433863
-0.00584247
-0.0301153
0.0295466
-0.00719
0.0269922
-0.00355972
-0.00728156
0.148102
0.00160214
-0.0966778
-0.00710696
-0.00219519
-0.000592926
0.00827302
-0.0407652
-0.00145076
-0.0486559
0.00763586
0.00112104
-0.0359973
-0.000414929
-0.000508614
-0.00192709
-8.33477e-05
-0.0626715
0.00155075
0.133752
3.80789e-05
-0.000674512
0.000109718
0.540469
-8.45405e-05
-0.0545207
0.0773601
0.150808
0.000493105
-0.00400115
0.00399108
0.00256214
-0.0152612
-0.0406897
-0.0356318
-0.0226921
-0.00627965
-0.000528595
0.109898
0.0350368
-0.0288539
-0.00128101
-0.154956
-0.0400016
-0.000205933
-0.0075114
0.0526594
0.579356
0.393811
-0.00374041
-0.113456
-0.0116907
-0.000622248
-0.000259321
-0.0255218
-1.147e-06
-0.0711606
-0.0247931
-1.27232e-05
6.1742e-05
-0.0427542
0.014184
-0.0293546
0.0488334
8.34513e-05
-0.0405034
0.020807
-0.0275111
0.000237476
-0.0390546
-0.000587745
0.198137
-0.000752951
-0.0480907
-7.09421e-06
-0.00182336
-0.032077
-0.103529
-0.00707143
-0.0297342
0.000193151
0.0494952
-0.0125275
-0.0271823
-0.0625081
0.00625722
0.0716236
0.620058
0.00786461
0.0525441
0.000550832
8.57635e-05
-0.00024664
-0.0345923
-2.73779e-05
-0.00149995
0.133169
0.537001
0.574796
-0.000908041
0.31248
-0.00680222
0.00103472
0.00537666
0.0267353
-0.0210466
6.02591e-05
0.047977
-0.00569282
-0.092001
-0.0663239
-0.0677225
-0.0254146
1.12209e-05
0.00125397
-0.00800551
0.207617
-0.0377425
-0.0126068
-0.0339254
0.568887
-0.0028884
0.145234
-6.81661e-05
-0.0344044
-0.00427427
4.42701e-05
0.00137901
0.0269007
-0.00390968
-0.0665353
0.00384449
0.0330086
0.39005
-0.00750671
2.09109e-06
-3.03618e-05
-0.0270494
0.0415863
-0.0257649
-0.00975809
0.00166001
0.000741392
0.11559
-6.00377e-05
-0.0057919
-0.000923109
-0.0071375
-0.00323802
-0.00401295
0.122708
0.0113277
0.00732593
0.0321557
0.724557
-0.0631218
0.225359
0.12654
-0.0465065
-0.0511502
0.00638517
-0.0468039
-0.00668269
0.134456
-0.0162251
0.00010892
-0.00625768
-1.11756e-06
-0.0593644
-0.00278049
-0.00208205
-0.00671299
0.282165
-0.000288744
-2.89573e-05
0.0738772
-0.109186
1.24868e-05
2.32588e-05
0.00159369
-0.138121
-5.97418e-05
-0.0415446
-0.000580413
-0.0296603
-0.0299561
-0.0142652
-0.0106799
0.192807
-0.0389045
0.000281519
-0.000879228
0.270147
-0.00758756
0.0177653
0.000103676
-0.023034
-0.0232445
0.000135098
-0.00245294
-0.0253361
0.00441447
0.407984
-6.614e-05
-0.107617
-0.000978095
-0.000452268
-0.000506671
-0.00414583
0.197528
0.00524774
-1.88581e-06
0.141206
-0.0120887
-0.000586967
-0.096597
-0.00138956
0.0407124
-0.0504032
-0.000234897
-0.00184433
0.00145127
-0.028727
8.77556e-05
-0.121017
-0.0280849
0.0191525
-0.0292345
0.0131667
0.401714
-0.00722475
0.0477422
0.127601
-0.000603529
0.000558752
0.254892
8.57302e-06
0.712537
-0.00901358
-1.0071e-06
0.148447
0.189323
-0.149552
0.0256253
-0.0365421
0.0415985
-0.00596586
0.0127741
-8.08235e-07
-0.00775466
0.0631944
-0.0259551
-0.0156628
-0.00272265
-0.0470495
-0.00460686
-0.00293672
-0.000202136
0.0524334
0.566431
-0.0346868
-6.5125e-07
-5.88494e-05
0.0017765
-0.0016959
-0.122197
0.148496
-0.0492384
-0.0255645
-0.0691673
-0.0785992
0.542406
6.82331e-05
0.0235032
0.00748547
-0.0483953
0.00223279
0.0733818
-0.00269907
-0.00097465
-0.00800294
-8.7888e-05
-3.58544e-05
0.0544913
-0.00187583
0.268164
-6.14227e-05
0.0530988
-0.0096002
-0.0261371
-0.0244645
-0.00814978
-0.0666097
0.0136736
-1.16909e-05
0.0814387
-0.078068
-0.00158295
0.101169
-0.048639
-0.0152092
-0.0323984
-0.169443
0.106393
-0.133722
0.0808831
0.00162517
-0.0222902
0.00021006
0.144398
0.016466
-0.00028182
-1.41576e-05
0.11475
-0.00105743
0.0528682
0.245408
-0.124018
-5.28767e-05
-0.0229899
0.421446
0.101407
-0.00627143
0.146406
0.118086
0.0491566
0.000413889
-0.00196855
0.0204272
0.189149
-0.0337315
0.00105462
-0.000995075
9.97865e-05
-0.0450685
-0.00224235
0.0531712
0.0798871
-0.020896
-0.0987694
-0.0349081
-0.0564437
-0.0240666
0.355517
0.0344618
-0.0712244
-0.00148049
-4.08566e-06
-0.000701292
-0.0768245
0.00230359
-0.000288044
0.125915
0.128935
-0.0326923
0.111381
0.0064139
0.428998
-0.00145076
0.167674
-0.0571898
-0.000751251
-1.62904e-05
0.0370031
-0.031046
-0.000996768
-0.0128746
0.228547
0.252887
-0.0177592
0.40311
0.17455
-0.0308269
-0.0271267
-0.0438251
-0.00376551
0.142657
-0.0454399
-0.000368905
-3.75616e-06
-0.000855
-0.0293765
-0.00539542
-0.0229823
-0.0445984
-0.0825932
-0.00116118
0.446435
-0.00823495
0.242239
0.61996
0.155141
-0.030648
-1.11529e-05
-0.0297702
0.0020205
-0.00788966
0.416244
0.116366
0.10503
0.545145
0.00766231
0.0419162
-0.0323003
4.35473e-05
0.326637
-0.00470772
-0.0390378
-0.0234154
0.00970944
2.34866e-05
-0.0501961
0.0758476
2.20564e-06
0.613797
0.0775299
-0.000443721
-0.000288553
-0.00126907
0.267799
0.0867876
-2.19742e-06
-0.00131582
9.83508e-05
-0.000237587
0.00186076
-0.00129221
-0.00755051
-0.00377393
-0.00209893
-0.00793126
-0.000517386
-0.000437131
0.0334886
-1.15222e-05
-7.35399e-06
-0.0278971
-0.0282338
0.00405085
0.332531
-0.0178285
-0.000507056
-0.00790497
-3.71712e-07
0.00447518
-0.0461184
-0.0701586
-0.0926039
-0.000390801
0.250523
0.0346607
0.14004
0.0167443
-0.00500417
-0.0207049
-0.00526948
5.68749e-05
0.0102679
-0.0852457
0.000294386
-0.0286578
-0.0254484
-1.11703e-05
0.64959
0.122613
-0.00117896
-0.0480127
0.161347
-0.0231174
-0.00951679
-1.31307e-05
-0.0302713
-0.0160858
-2.11151e-06
0.0748014
-1.19657e-05
-0.00114696
-0.0360217
-0.0664649
-0.00534696
-0.00612787
-6.94509e-06
-0.0472257
0.00217663
0.153122
-0.0310552
-5.95611e-05
-0.00556085
-0.000964786
-0.0614279
-0.12375
-0.0633132
-0.00840392
-0.059094
0.114046
0.00130714
-3.29198e-05
-0.00283715
-0.0253902
0.0278911
0.500203
-0.0222529
0.691752
0.0003827
-0.036765
-0.0655063
0.317039
0.397158
-0.0101643
-0.00153702
-0.0418593
-1.05581e-05
0.53458
0.269354
0.0901144
-0.0380398
0.0771319
0.110607
0.508345
0.203983
0.220289
-0.049188
-0.0847806
0.246916
-0.0630807
-0.00142796
-0.0381896
0.0247365
0.000864158
-0.0220943
-0.000252756
0.00624192
-0.000964409
0.00244035
-0.0189234
8.51399e-05
-0.0298264
-0.0790104
-0.0494436
-4.69045e-06
-0.00434305
-7.28575e-05
3.38048e-05
0.13357
-0.0548246
-0.0136139
-0.000456299
0.012711
-8.9458e-06
-8.08394e-05
-0.000473522
-0.00033858
-0.0955808
-0.0459095
-0.000164049
0.106736
-0.00186908
-0.0449154
0.0476968
-0.00699
-0.00157672
0.000142078
0.0128188
-0.0381427
-0.00195108
3.62871e-05
0.00448941
-0.0502237
-0.0258829
0.0424802
0.000515395
-0.0298879
0.611088
0.0010609
0.00135143
0.0558206
-0.000462298
-0.00103805
-2.9441e-05
-1.94569e-06
-0.000130111
0.0211236
-0.0543527
0.451852
0.651243
-0.000374759
-5.08722e-05
-0.000374152
-0.0454812
0.731143
0.0439263
-0.0637461
-0.0390287
-6.9659e-05
0.000966909
-0.0318471
-0.00156225
-0.0381527
0.0127787
-0.0394753
-0.0222659
0.00181837
0.564692
-0.0915936
0.000554762
-0.00142317
0.0250574
-0.0208083
-0.120608
-0.0636056
-0.00832102
0.306726
0.4245
0.130244
0.273071
0.0952311
-0.0608319
-0.00827485
0.00518995
0.0969746
-0.0319745
0.000447979
-1.34232e-05
-0.0840659
-0.115064
-0.000782911
-0.0188885
-0.0541413
-0.0573098
0.413302
-0.00190324
-0.0292562
-0.00900285
-0.027736
0.11176
0.0270202
0.005195
0.00345927
-0.0156454
-0.00585704
-0.0112969
-0.0320862
-0.00465792
-0.0571309
0.233975
-0.0344407
-0.0155001
-0.00440445
0.179458
-0.069876
-0.0449584
-0.0619243
-8.10712e-06
0.264564
0.0655547
-0.0186768
0.00216544
-0.0232697
-0.0137219
-0.00200026
-0.0490948
-0.0102209
-0.0903653
-0.00593196
0.00232113
9.86361e-05
-0.000247633
0.0369233
-1.79999e-05
-0.0149069
-0.0369529
-0.0349467
-0.000251322
0.000178328
0.000237166
0.00219153
0.0263549
0.0183062
-0.0486501
-0.0466514
-0.0241607
-0.0108758
-0.00246273
0.515858
-0.0111612
-0.00401485
0.350032
-0.0154846
0.323361
0.49671
-0.00970506
0.123241
-0.0134491
0.0104317
-0.00279378
-0.00211205
-0.00065396
-0.0375953
-0.119952
-0.0364953
0.00287084
0.121479
-0.0277645
-0.118619
-0.000368033
-0.000437812
0.24988
0.183359
-0.0119677
0.267397
-0.0089665
0.418391
-0.00662627
-0.0043721
0.0345926
0.054926
-0.00018121
-0.00129974
0.205509
-0.0276637