/*--------------------------------*- C++ -*----------------------------------*\
  =========                 |
  \\      /  F ield         | OpenFOAM: The Open Source CFD Toolbox
   \\    /   O peration     | Website:  https://openfoam.org
    \\  /    A nd           | Version:  7
     \\/     M anipulation  |
\*---------------------------------------------------------------------------*/
FoamFile
{
    version     2.0;
    format      ascii;
    class       volScalarField;
    location    "26";
    object      p;
}
// * * * * * * * * * * * * * * * * * * * * * * * * * * * * * * * * * * * * * //

dimensions      [0 2 -2 0 0 0 0];

internalField   nonuniform List<scalar> 
7807
(
0.257663
-0.0165947
0.371094
0.234113
-0.000878188
-9.19491e-06
0.364575
-0.00492855
-0.000100113
0.0919042
-8.97262e-06
0.00174555
-0.0075257
0.042813
0.0959448
-0.0154535
0.269601
-0.0101314
-0.00156682
-0.0938399
0.0583918
0.00106578
0.0300494
0.181688
-0.0133068
0.266162
-0.000816555
0.0539912
0.151742
-0.000297808
-0.0192364
0.501283
0.0293895
-0.000393803
-3.58057e-05
0.0742241
-0.00012523
0.353378
-0.00652555
-0.000181177
-0.00627785
-0.0145803
-0.10293
-0.0699513
-8.42401e-05
-2.77003e-05
0.00104545
-0.00653127
-2.75086e-05
-0.0934403
0.00286658
0.050872
-0.0168594
-0.013898
0.0733706
-0.00471559
-0.00133353
-0.00476801
-0.0284141
-0.000388217
1.07204e-05
0.00384449
0.0431398
0.0019839
-0.000613768
-0.0193243
-8.53917e-05
4.62912e-07
0.077177
-0.00613356
-2.52095e-05
-0.0644905
-0.0129406
-0.0222824
-0.00985905
-0.0409625
0.36688
0.0570956
0.0452953
-0.0619628
-0.00729037
0.313472
0.0876108
-0.0251848
-0.00181585
-0.00173859
-0.00551382
-0.0164706
-0.000764859
-0.00354413
0.155383
-0.0781276
-6.35409e-05
-0.000818384
-0.00308432
-0.0207903
-0.0615982
-0.0109732
-0.0019073
-0.00077167
-0.0410168
0.0537618
-0.00296616
-3.01744e-06
-0.0667801
0.160663
0.425311
-0.00493386
1.3697e-08
0.0246038
0.220285
-0.0704691
-4.69613e-07
0.0264194
0.160713
0.000200064
-0.0908662
0.127325
-0.0469107
-0.0237944
-0.040057
0.298415
-0.0980082
0.00877595
-0.0388316
-0.00107054
-0.0165426
-0.000283796
-0.000650332
-0.0191368
-0.132949
0.0459623
-0.000526484
-0.000862859
-0.0258475
0.21248
0.358751
-2.54291e-06
0.00729638
-0.0538408
-0.0205349
-0.0616141
-0.042498
-0.0214273
0.424936
-0.0331678
0.152955
-0.0297656
-0.0275065
0.297975
0.0704831
-0.0670564
-0.00174145
0.0557742
0.0871984
0.330598
-0.0482764
-0.0072192
0.435001
-2.37418e-05
-0.00159766
0.18851
-7.44316e-06
-0.00326381
-0.00345934
0.233884
0.234414
0.453037
-0.00344301
-0.00249733
5.82121e-07
-0.0358638
0.000198373
-0.00940049
0.00804479
-0.0271659
-0.0436148
0.138806
-6.93128e-05
-0.000484893
0.23994
-1.95679e-05
-3.81865e-05
0.369473
-0.0222068
-0.0573268
-0.0446269
-0.0220918
-0.0362784
-0.0543386
-7.47547e-06
-0.0588988
0.145719
-0.00310502
2.33659e-05
0.185269
-0.000952126
-0.018011
-0.0339328
1.19699e-06
0.000354272
0.21765
0.176022
0.327848
-0.0838497
-0.0651279
-0.147412
0.0593063
0.213962
-9.1443e-05
9.4839e-06
0.399093
-0.0132062
-0.00052166
-0.0568087
-0.0174046
0.301771
0.306662
-0.0665962
0.487207
-0.000892234
-0.00971431
-0.0416364
0.072401
-0.127737
0.225972
0.429931
1.04062e-05
0.00950624
0.136174
-0.00562608
0.124443
-0.000718593
0.488496
0.322063
-0.00530283
0.000649659
-0.00016775
0.139891
-3.15246e-05
-0.00981682
-0.0561018
-2.93643e-05
-0.00190479
-0.000617625
0.146154
-9.09867e-06
-0.00367505
-0.0608253
0.496305
0.0374525
0.458438
-1.13366e-05
-0.0362719
-0.000179789
0.345403
0.00365908
0.359958
-0.00138047
0.000192634
-0.00812953
0.0623499
0.000342708
-0.000117349
0.000278381
-0.00597602
-0.0593056
-1.09347e-05
-0.0464913
-0.00331591
-6.95321e-05
-0.000573555
0.352379
-0.00677079
-0.000479262
0.450203
-0.0019757
0.242571
-0.000186015
-0.00737759
1.68609e-06
-0.0399665
0.0691505
-0.0335975
-0.0294094
-0.00042579
-0.0799376
-0.0139362
-7.36865e-05
0.000267369
-0.00297319
-0.00690494
0.00252604
-0.0015392
-0.0241349
-0.0537291
-0.02289
-0.0560074
-0.0289541
0.327404
0.340392
-0.0013321
-0.0666408
-9.98959e-07
-0.0034712
-0.0207247
0.176682
0.099318
3.5008e-05
-0.00321119
-0.0282143
0.153606
-0.00109054
0.00321795
0.000831069
0.0371239
-0.149354
0.321724
-0.00123565
-0.0198604
-6.45569e-05
0.00258923
-1.84872e-05
-0.0255091
-0.000198457
-0.00256135
-0.0980924
-0.0389277
-0.00548276
0.00845997
-0.000460384
0.0189997
-0.0147545
0.0671547
0.148891
-0.187284
-0.0780914
-0.0142677
0.00458749
-0.0552974
0.460951
-0.0681266
0.0350606
0.47858
-0.00119383
-0.00162645
-0.078013
-0.00146818
-0.0293511
0.00625621
-0.00230483
-0.00163802
0.144575
-6.68053e-05
0.000324257
2.51358e-05
-0.00286447
-0.0100764
-1.41524e-06
-0.000805518
-0.0271825
0.405448
-0.00521188
-0.012691
0.402923
0.266171
0.0548362
-0.0534818
-0.0362399
0.00427926
0.226936
-0.0102294
0.276363
-0.0411049
-0.115843
0.178038
0.279993
-0.0421358
0.0924209
0.224786
0.253462
0.057538
-0.00296965
-0.00436753
-3.84798e-05
-0.00708997
-0.0103938
0.000365194
-4.69504e-05
-0.00142604
-0.0784641
0.0745602
-0.0174763
-0.00692332
-0.00335805
-0.0219898
-0.00664992
-0.000154795
0.195792
-0.00147062
-1.63957e-05
-6.83328e-05
3.79298e-06
-0.0215475
0.14007
-0.00358122
0.0323417
-0.139587
0.344234
0.00156469
0.00632539
-0.00530106
0.340956
-0.000734796
0.319184
0.156362
-5.12151e-05
-0.0434392
-0.00281195
-0.0603427
0.000340561
0.063482
-0.00143227
0.00579268
-0.000605491
0.132464
0.156363
-0.0642698
-0.0287418
-0.00318264
-0.0342222
0.0525017
0.492146
-0.0815837
0.00291179
-2.24277e-07
-0.0136225
-0.00184988
0.0166774
-0.111223
-0.0801112
0.363744
0.141656
-0.133885
0.195699
0.330981
0.0334447
0.000596024
0.240491
-0.00129734
-0.000137842
-0.0145842
3.2034e-05
-0.162029
-0.00646861
-0.0368853
0.00140558
0.189367
-0.00144798
-1.4799e-05
-0.122247
0.00126837
0.0155514
-0.0400579
-0.0489212
-0.0229125
0.137524
0.111525
0.114803
-0.000109405
0.0656678
0.0748898
-0.000532804
-0.017057
0.000374691
-0.000333517
-0.0136447
0.00440749
-0.000945266
0.132199
-8.89446e-06
8.9609e-05
0.00154263
-0.0201125
0.0219991
-0.0331357
-0.0245451
-0.0543425
-0.144291
-0.00388162
0.233446
-0.0821067
-0.00662046
0.488936
-0.0617918
-0.0106154
-0.0242974
-0.0128387
-0.0181521
-0.0103827
0.0306661
-0.0754734
-1.71682e-05
0.0262756
-4.20871e-05
0.324344
0.0876528
-0.00476191
-0.011972
-9.98769e-05
0.313547
0.30128
0.0467746
0.146068
-0.0669999
0.364952
-5.93987e-05
0.00953337
-0.0153118
0.144716
0.441848
0.0380798
0.135018
-0.00589716
-0.000118886
0.129263
-0.111321
0.328299
0.0179442
0.201873
-0.00690256
0.347483
0.286263
-0.00901865
-0.00767649
0.103591
-0.0502312
-7.67775e-05
-0.0132367
-0.05308
-0.0767615
0.0117528
0.00887813
-0.000110449
0.305781
-0.00456195
-5.69041e-05
-0.0487321
-0.000431396
-0.000127938
0.000147783
0.206096
-0.107911
0.416355
2.10112e-05
0.20486
-0.0394388
-8.10089e-05
4.67664e-06
0.149415
0.196899
-0.0041687
0.176258
6.78694e-06
0.186837
-0.179679
-0.00933887
0.343574
-0.0537271
0.1363
-0.0227322
0.185438
0.194744
-0.0173659
-0.0220936
-0.00903871
-0.00246111
-0.000153476
-0.00446987
0.260461
-1.51431e-05
0.178501
-0.107135
0.290443
0.168744
-0.0531764
0.415373
-0.00154549
-0.00419866
-0.0710632
-0.0182977
-0.0066319
-0.0427291
0.0239418
0.46417
1.28742e-05
-0.00181232
-0.0672284
1.08161e-06
0.332641
0.00131278
6.38967e-07
8.34741e-05
0.00020622
-0.0238862
0.0160647
-0.00138698
-3.12635e-05
-0.00690768
-0.00127767
-0.119005
-0.0446252
0.0228181
-3.53985e-06
-0.17655
-0.0123385
0.10948
0.28123
0.000197352
0.11538
6.07557e-05
-0.0119419
0.0824843
-0.00687126
0.223919
-0.0133648
0.0131616
0.0858024
0.139062
0.000188224
-0.0100321
0.1695
-0.0895285
0.353456
-0.00943739
0.255773
-0.00909486
-0.000929148
0.127671
-0.0103363
0.0795254
0.00137451
5.85544e-07
-0.134121
0.188961
0.000537431
0.104034
-0.0126211
-0.177353
-0.0152101
-0.0346928
-0.00152481
-0.00717161
-0.0747822
-0.0265919
-0.00942711
-0.000192697
0.374285
0.109418
0.0316885
-0.000134914
0.282767
-2.04114e-06
-0.000121052
0.119305
-0.00758335
0.161702
0.0529172
0.0159367
-0.0668849
-0.144152
-0.0263431
0.000869872
-0.0395646
-1.76026e-05
0.000817925
0.215576
-0.0165222
-0.00261154
-0.025437
-0.00177243
-0.00056043
0.447386
-0.0100356
-0.00054496
6.18168e-08
0.12392
-0.0362807
-0.000341183
-0.00233933
0.144924
0.0747378
-0.0403269
-1.48025e-06
0.160149
-0.0207856
0.178715
0.0175262
0.0222473
-0.0290381
-5.18161e-05
0.083579
0.0661928
0.00971002
-0.100017
0.258831
0.00553616
0.165344
-0.00741096
-0.0461607
-0.000255944
-0.00825584
-0.000159734
0.146755
0.239648
-0.0014305
0.0182373
-0.0161278
-0.0840074
-0.091796
-0.00158567
0.00764877
0.434849
-0.0098374
-6.20194e-05
0.0738131
-0.00641619
0.374614
-0.0121386
-0.0216098
-0.0175588
-0.024009
-0.0146031
-0.00739864
-0.00818468
-0.000167534
0.0164337
3.76926e-05
-0.16786
-0.0374359
0.322463
-0.0387617
0.167235
0.0015137
-0.0710081
-0.0282614
0.187437
-0.00734909
2.32446e-05
-0.0208748
-0.00813094
0.011116
-0.0244404
-0.0227248
-0.0428206
-0.0128346
-0.0216271
-0.08338
7.75812e-07
0.0314473
-0.0725946
0.14097
-0.0778078
0.0790871
-0.10121
0.296666
-0.00980059
-0.0296546
-0.0347712
0.391145
-0.141801
-0.0125033
-0.132006
-0.0568562
-0.122828
-0.0763304
0.159668
-0.00269371
0.221003
0.00841103
-0.000386171
-0.0016192
0.0630905
0.486993
-0.000765477
-0.041282
0.152297
5.8595e-06
-0.0211287
0.0290152
-0.0216675
0.00857446
-0.00189218
-0.0421187
-0.00558093
7.47054e-06
-0.0516345
0.233707
-0.0100564
-0.015557
0.00139435
0.152183
-0.000416014
-0.0010528
-0.000239131
-0.00120364
0.0268819
-0.0131101
-0.00310702
-0.01782
1.00321e-05
-0.136753
-0.0978075
-0.15449
-0.0282033
0.0140564
-0.000126162
-0.0155223
-0.0609963
0.00744226
0.291248
-0.00198083
-0.0558264
-0.00487369
-0.00605611
0.137139
0.00023489
-0.000133624
0.113075
-0.00776301
0.0119841
-0.00290836
-0.00161052
-0.0585084
-0.000188585
-0.0139922
-0.0108703
0.250372
0.233997
-0.0631729
-0.0715277
0.00670946
-0.00475046
-0.0214171
-0.0820235
-0.0308238
-8.13423e-07
-0.0262095
-0.0213237
-0.0900264
-0.00677404
-0.0389358
-0.000308822
-0.00275277
0.170315
-0.0279424
-9.09478e-07
-0.0022665
-0.128642
-8.25803e-05
-0.0369331
-5.03762e-05
-8.17458e-05
-0.115401
-0.062107
-3.66326e-05
8.32275e-06
0.106566
-0.0632109
0.313791
0.245117
-0.0297951
-0.00101765
-0.0275936
9.65981e-05
-0.133304
-0.113879
-0.0331798
-0.015866
0.239092
0.0011969
7.14811e-05
-0.00220928
-0.145633
0.00144444
-0.0438817
-0.0595886
-0.00798865
0.0151748
0.0570724
-0.00046367
-0.0252622
-0.092914
0.15945
-0.0513698
-6.8823e-08
-0.129756
-0.0535711
-0.0600589
-0.00132956
0.000453012
-0.00250694
-0.119736
0.0236316
-0.023592
0.112636
-0.069068
0.000826708
0.0124923
-0.000229616
-0.0251357
-0.144514
-0.000145626
0.122613
0.175469
0.00509956
0.193097
-0.0935594
0.035616
-0.0639722
0.168406
0.082989
0.465143
5.46592e-07
0.0817402
0.149519
0.0106379
-0.000981456
-0.0115587
-0.0411653
7.74609e-06
-0.0137816
-0.0634712
-0.0125368
-0.0163537
4.78877e-05
-0.115087
-0.000326639
-0.000423756
0.200384
0.00133207
0.0520896
0.0126832
0.173071
0.00269688
-0.000469521
-0.13417
0.00206209
0.302289
0.000611126
-0.0649813
-0.000251137
-0.000298776
-0.00064859
-0.0786095
-1.87069e-05
-0.00645035
0.0190077
-0.000953236
7.49679e-06
-4.56706e-05
0.126191
-0.0608642
0.00265449
-0.00056813
0.00379644
0.0111537
0.00313849
-0.000276683
0.315691
-0.119971
0.184824
0.271123
-7.93237e-05
0.0410995
0.0893113
-0.000478727
-0.00019817
-0.000552753
-0.0310082
0.00140365
-0.0240745
-0.0309271
-0.0748823
0.142317
-0.126694
2.05174e-06
-0.0151531
-0.0195749
-0.0248527
-0.00261495
0.00220246
0.000585733
0.0203246
-0.000239906
-0.000273484
-0.0149702
-0.00307955
-0.0195627
-2.14134e-06
-0.0114604
0.0247715
-0.0464832
-0.0537998
-0.00618362
-0.00854467
-0.00622271
-0.00350138
-0.00501499
-0.00610876
-4.88925e-05
-0.000357858
0.0145342
-0.00848622
-0.00349301
0.00406538
-0.00321683
-0.156107
-0.00847104
0.129376
-0.00835835
-0.0516706
-0.0280157
-0.0180555
-0.0114714
-0.00245366
0.000538666
-0.00242173
-0.00917601
-0.0113149
0.164182
0.124731
0.03376
0.281445
-2.20991e-05
-0.00410246
-0.0110035
-0.00611071
0.0714026
-0.0150923
0.029863
-0.00506822
0.181432
-0.00144778
-0.00131142
-0.0015229
-0.0303844
-0.000145287
-0.0291296
-0.00389415
-0.0149165
-6.4314e-06
-0.00432399
0.000955442
-0.0138321
0.0186116
0.0279538
0.0139306
-0.0104161
-0.0247471
0.0951933
-0.00114053
-0.00122445
-0.00124421
0.404486
-0.000118337
0.0540388
-0.0145926
-0.0159944
-0.0177783
-0.0465901
-0.0203349
-0.0264738
-0.0157949
-0.00341866
-4.32737e-05
-0.00275944
-0.0147107
0.0810609
0.000843002
0.133635
-0.0258132
-0.0103573
-0.000449819
-0.0230078
-4.16817e-05
0.122134
-0.0240985
-0.0205571
-0.0190109
-0.00517292
-0.031455
-0.000898892
-0.0315515
0.0834952
-0.0193615
-0.0905153
-0.000806883
-0.0201888
-0.0146396
0.0109041
-0.00233805
0.117211
-0.00140601
-0.0123819
-0.000527092
0.132289
-0.0303686
-0.0190103
-0.00194002
-0.00756725
-0.0020079
0.164007
-0.0134757
0.184577
-0.00529689
-0.000687626
-0.000695934
-0.00171121
0.157823
-0.052717
-0.00538798
0.000116104
-0.0127808
-0.0264849
-0.000937389
-0.0254368
-0.0121601
0.0460296
-0.00335534
-0.0032328
0.373914
-0.0511089
-0.0185748
-0.0485311
6.57661e-06
0.0614246
-0.00233638
-0.0185018
-0.00429909
-0.0274431
0.000643461
-0.00035214
-0.00175404
0.00182472
0.165814
-0.00368562
-0.0011817
-0.00332069
-0.055929
-0.00595388
-0.0149064
0.00138677
-0.00591482
-0.00562407
-0.0022797
0.169704
-0.0361497
0.00171779
-0.00258625
-0.0196259
-0.00902568
-0.0379948
-0.00116826
0.0744958
0.0159429
-0.0059215
-0.00131915
-0.0110019
0.425196
0.166947
-0.00821014
-0.000280538
-0.00168367
-0.010227
-0.00297853
0.0145573
-0.000307335
-0.0261791
-0.00117524
-0.0114465
-0.109507
-0.000998043
-0.0156423
-0.000795929
0.266526
-0.00561277
-0.00807611
-0.0526916
-0.00101114
-0.0207416
0.0422383
0.374718
-0.00819815
-0.0090298
-0.00117423
-0.000427019
-2.91835e-06
-8.92123e-07
-0.00767423
-0.000432561
0.0904565
-0.000600413
-0.00114975
0.00422397
-0.000115483
-0.0349643
-0.0769582
0.0124354
0.0310653
0.0198682
0.0249811
-0.0659767
0.0733869
0.056546
0.0786575
0.100857
-0.00882135
-0.000569468
-0.00676259
-0.0859952
-0.00218183
-0.0109915
0.0073254
0.294969
-0.0672292
-0.000250518
-3.31776e-05
-0.000765366
-1.86452e-06
0.00120657
-0.000459363
-0.00553317
-0.0368524
0.000208303
0.00124325
-0.000108166
0.0460167
-0.0106949
-0.0690968
-0.00119338
0.267245
0.2535
-0.00807572
-0.104621
-0.0207397
-0.0164393
-0.0110655
-0.00130908
-0.0992227
-0.0494993
-0.0401234
-0.0979343
-5.9601e-05
0.161789
-0.0320882
-0.00637179
-0.0468598
0.0127932
-0.000321233
-0.00653887
-0.000762918
0.00344533
-0.00167473
0.143403
0.000121198
0.00669009
-0.000182581
-0.12433
0.00559
-0.000935118
-0.00813143
9.60624e-05
-0.0046458
0.0958533
-0.0049504
-0.000899763
-5.43128e-05
-0.00035559
-0.000282802
-0.0476988
0.102822
-0.0136809
-0.000106964
0.00246439
-0.000313263
0.189422
-0.0494083
0.21929
-0.034315
-0.000215067
-0.000251907
-0.0057819
-0.00375736
-0.0005514
-2.82721e-06
0.0170914
0.0209711
-0.000102799
-0.00032727
-0.0144399
-3.04053e-06
0.139402
-0.000676318
-0.0411814
-0.0146059
-0.00416142
-0.0446445
-0.0544838
0.125387
-0.0385921
-0.0140907
-0.000142272
-0.0431171
-0.0139205
-0.0187535
0.0812511
0.298474
-0.000609008
-0.0469349
0.00210006
0.269097
0.0295637
-4.56524e-05
-0.00462417
-0.00263584
-0.00367685
-0.0287325
0.0706888
1.97124e-06
0.00331034
0.000493474
0.0563341
-0.000276155
-0.000108869
-0.116159
0.245029
-0.0420384
0.124036
-0.00154537
-9.69055e-05
-3.96425e-07
-0.119943
-0.0249375
-0.000266962
0.084128
0.00755725
-0.00388968
0.331193
-0.000429395
-0.00306191
-0.050765
-0.0456705
-0.00134542
0.111574
-0.0870616
-5.65571e-05
0.000345544
-0.00014411
-4.95744e-05
0.116225
-0.0140593
-0.000202108
-0.0355891
-0.0188021
-0.0020434
-0.0530487
0.00123172
-0.0152798
0.000615269
-0.00252669
-0.0522008
-0.0298069
0.00199939
-0.000693039
0.1306
0.172914
-0.130505
0.00354031
0.013242
-0.00321065
0.13831
0.0865846
-0.0188259
-7.82666e-05
0.00433166
-0.0348965
-0.00169313
-0.0252404
-0.00157413
0.0264019
-0.0224061
-4.63005e-05
-4.2506e-05
-0.0618185
-0.0296064
-0.0179032
0.00474182
-0.0219689
-0.0377442
-0.000116202
-0.0012522
-0.000152291
-0.039947
-5.96165e-06
-0.00128679
-0.0665856
-0.133193
0.0923129
-0.00217471
0.00238058
-0.0187673
-0.0184678
-6.25282e-05
-0.0281074
0.0875773
0.130625
3.95556e-06
-3.72653e-05
0.13321
-0.00185671
-0.116182
-0.0241791
0.00188011
1.18233e-05
-0.0447431
-0.0520267
0.136661
-0.0353852
-0.000872929
-0.0152983
-0.052689
-0.000386312
-9.70609e-05
-0.000638755
-0.0412024
-0.0367338
0.12056
-9.37959e-05
0.393937
-0.0490037
8.95733e-06
-0.00102159
3.54355e-05
4.5585e-05
-5.48524e-06
2.4015e-05
-0.036691
-0.000574954
0.000154998
-7.94887e-05
0.116625
-0.00393822
-8.33743e-05
-3.3698e-05
0.321447
-0.0174776
-0.0685872
0.000301616
-0.000474885
0.0405869
-5.5108e-05
-0.0182784
-0.163924
0.00112503
-0.00776993
-3.66893e-05
-0.000108707
-0.0264023
-0.0879368
0.00456761
-0.150722
-0.0911873
-5.72465e-06
0.0157269
0.0251424
0.0895823
-0.00101649
-6.73686e-05
-0.0468052
-0.0042104
-0.000467645
-0.0357302
-6.12497e-05
0.0232508
-0.000107752
-0.000660126
-0.0266921
-0.00255546
-0.0437821
0.380044
-0.00140909
8.54377e-05
-0.0551667
-0.0688091
0.00479157
0.00276309
-5.29549e-05
-0.0236271
-4.34922e-05
0.16377
0.450682
0.0564305
0.0016572
0.0019181
-6.56825e-06
-0.0244189
-3.61513e-05
-0.0117813
-0.00120115
8.60124e-05
-0.00208403
-0.0108573
-4.2576e-05
0.000332421
-0.0119279
-0.000148705
-0.0106648
-0.013312
-0.022128
-0.00131657
0.408969
-0.000789003
0.0012797
7.22393e-05
0.00966789
-0.0340578
0.00607245
-8.75463e-05
-3.45058e-05
0.00086933
-5.55466e-05
-2.46406e-05
-0.0128729
0.00027953
-5.11652e-06
-0.0399656
-0.00280494
-0.0365483
-0.00109402
-1.93028e-05
-0.00184803
-0.0207033
-0.0147908
-0.0324176
0.00120648
0.00015474
-0.000287865
-0.0010069
-4.75392e-05
0.236067
0.000749445
-4.92795e-06
8.89905e-05
-0.00157646
-0.000358736
-0.0409304
-0.0373657
-0.000120793
-0.00524239
3.94233e-07
-0.00350229
-2.40295e-05
0.0274513
-6.99303e-05
-0.000159443
-0.00440585
-1.3661e-05
0.00932759
-0.000120425
-0.000745312
0.0136955
-1.72591e-07
0.319392
-0.043172
-0.0329977
-1.07327e-05
-4.33693e-06
0.000713076
-0.000655372
-0.0495574
-4.13694e-06
-1.69521e-06
0.00025632
-4.47288e-07
0.000127325
0.00016359
-0.000259962
0.000323129
-0.0376367
0.404605
-0.0415317
0.293121
0.00590138
-0.0183258
-5.16351e-06
-0.000428315
-0.00988959
2.78831e-05
8.9616e-05
4.3401e-05
0.0421151
-0.00168542
-0.000211145
0.372172
-0.00021723
0.000124951
0.000187208
-8.26963e-07
0.0136072
-0.00171098
0.000505084
2.27007e-05
-0.000764465
-1.71262e-05
-0.00129043
-0.035859
-0.000199622
-0.00215341
7.07072e-08
-0.00328771
-9.65313e-05
0.16049
-0.000229951
-0.000350201
-0.0414841
0.00211508
-8.91813e-05
-0.000835207
-1.47714e-05
0.145955
-0.0574924
-0.000447496
-0.000170736
-0.00274531
-0.000203552
0.0439108
0.093363
0.00840531
6.589e-05
-1.29385e-06
-1.88816e-08
0.0385545
7.66214e-05
-0.0354568
-0.0356847
-0.0146074
-0.0480084
0.421519
0.000980557
0.170741
-0.0137715
-0.0243408
0.148578
-0.000142627
-0.0505253
-3.72933e-06
-0.00717783
-0.0296591
1.1346e-05
-0.0568981
-0.0004921
-0.0228387
-0.00687145
-0.0256504
-0.0321271
-0.00445746
-0.0573132
-0.0268161
-4.7175e-05
-0.00749111
-5.04797e-05
-0.0233517
-4.75455e-06
-5.54315e-05
0.000373236
0.140681
-7.85451e-09
-0.0371681
0.00183257
1.50567e-05
-0.0222013
-5.46903e-07
-0.00824546
-0.000207599
-0.0236765
2.96189e-05
-3.85682e-05
-0.00209315
-8.5055e-05
0.137077
-0.0249719
0.0550919
-2.73999e-05
0.000244072
-0.0197265
-2.29179e-07
-0.0454336
-0.0486585
-0.0380239
0.400082
-0.00507853
-3.68745e-06
0.0186681
-0.026368
-0.0032509
-4.66539e-05
-3.31291e-05
-0.0349496
2.45543e-05
0.000362317
-1.58857e-07
2.93395e-05
-0.0175096
0.0983771
-0.0958428
0.0802394
-0.00404479
-9.35239e-09
0.00178994
-0.0597964
-2.53199e-06
-3.51819e-06
0.000105205
1.40143e-05
0.000143202
0.21378
0.0265017
1.18297e-05
2.21105e-07
-0.0456052
0.173527
0.153064
-4.62171e-06
-0.0286369
-0.020868
-0.0118456
-0.0335943
-0.00992509
-0.001968
0.121044
-2.71248e-05
-0.0213267
0.145274
-0.03927
-1.96291e-05
-0.0408453
-7.62373e-05
0.270235
0.0183764
-2.58428e-05
-1.24828e-05
0.161467
2.49777e-09
-9.77227e-05
-0.0075082
-2.13169e-06
0.221587
0.000550513
-0.00465582
-0.0414844
-0.00277939
-0.094347
0.158651
-0.022798
-0.0571518
0.000427043
-9.01096e-06
-0.000907721
-1.38406e-05
-9.87504e-06
0.00860153
0.155951
0.12892
-0.000284594
0.212101
-0.0172917
-6.00427e-07
-0.0285563
-1.77014e-05
-0.0232061
0.0196079
-0.0159349
0.0020813
0.000905866
-0.00597988
2.01035e-05
-0.0012084
0.0111931
-0.00154876
-3.75728e-05
5.05635e-06
-1.77424e-05
0.0240948
8.50286e-06
-0.0261855
0.223163
-0.00520011
1.05928e-05
-0.00217326
-1.01287e-05
0.0567538
-0.000125553
-2.18412e-05
-1.48479e-05
-4.53901e-06
0.181757
-0.000106342
0.211584
-0.0584727
2.04502e-05
-0.0494701
-0.000600909
0.134964
0.377966
-0.000696626
3.06432e-07
-8.33563e-07
-7.75681e-06
0.119633
-1.22911e-07
0.000375453
-0.0147248
0.198115
-1.42976e-07
-4.13405e-08
4.51382e-07
4.09967e-06
-0.0165676
5.04707e-08
0.251445
-0.0171473
-2.80632e-05
5.51819e-06
-0.00109674
-0.0189366
1.63324e-07
-1.38219e-05
0.14292
6.45768e-06
-0.0261235
-0.0798139
3.125e-05
-1.16799e-07
-0.177419
8.48255e-08
0.142416
2.54733e-06
-0.000262753
5.39784e-07
-4.17736e-05
0.0778449
-4.73518e-07
-0.00110632
-1.20854e-06
0.00448628
-0.00280136
-0.00383513
-0.00176408
0.132327
-0.00032145
-3.8697e-05
-0.00557646
-0.0056309
-7.02371e-05
-6.58928e-05
-0.000659345
4.78725e-06
0.158933
-0.0108888
0.416729
-1.4994e-06
-0.00549471
-0.000187265
0.114536
9.51553e-06
-0.0242354
3.78938e-06
-0.00100373
-0.0267925
-8.60275e-05
-0.012551
-0.0410325
0.0019788
-1.24321e-05
-0.0681241
-9.82669e-05
-0.000411169
-0.0037554
-0.0239906
0.000405291
-7.74714e-05
-0.000234607
-0.00118693
-0.000766532
-8.99148e-07
-0.000681155
0.374583
2.18638e-05
-0.00195068
-0.0279473
-0.0429707
-0.04926
-0.0306091
-0.0180153
-0.000704667
-0.0243307
1.56549e-05
-3.40937e-05
0.392883
-3.00839e-05
0.157665
-0.000147341
0.000101714
-0.000599595
-0.10081
-0.000207646
-0.00136321
-8.57287e-06
-0.000179292
-2.34212e-05
-2.90762e-05
-0.0093552
-6.14994e-05
-4.25661e-05
-2.75412e-05
-2.18551e-05
-8.89379e-06
-0.0385488
0.218997
-2.9884e-06
-0.000214334
-7.97802e-05
5.26185e-06
-0.000390523
3.74086e-07
-0.000450154
5.32539e-05
-0.000154248
-0.0472303
-0.000366917
-0.00141983
-1.90426e-07
-0.0019897
0.000105985
-2.54051e-06
-3.73639e-06
1.74232e-06
-0.00030483
0.000162108
-0.0391158
-0.0269265
-0.0450761
-0.000487771
-0.00254582
-0.0498097
-0.0428771
-2.04059e-05
0.00777302
0.00321542
-0.000410309
-0.00929016
-0.033311
0.373657
-0.00016036
-4.50761e-06
0.000189171
7.87001e-06
2.38707e-06
0.0617051
0.00102589
0.0723818
-0.044039
0.352515
-0.000180219
-2.5613e-07
3.39849e-05
-7.69921e-06
-0.000574364
0.133016
0.189332
-3.96764e-06
-8.82188e-05
-1.26199e-05
0.17918
0.00448441
-0.010198
1.48875e-06
3.05639e-06
0.00424054
-0.000257358
-0.0629596
-0.0137114
-1.45453e-06
0.00162337
-0.0310627
-1.90156e-05
0.00070622
-4.52126e-05
-0.0340852
-0.000775666
0.125258
2.21293e-06
0.000765326
-0.00200463
1.44913e-06
3.91883e-05
-0.0189946
1.55671e-06
-0.000360315
1.04641e-06
-0.01161
-0.0311796
-0.00411173
-0.0106087
-0.00537683
0.00564446
-0.00671156
-0.00118804
1.33428e-05
1.38104e-05
1.45762e-06
1.57998e-06
-1.53029e-05
0.00480916
-0.0601669
0.000163747
-0.0573224
-0.00149655
-0.0602151
1.91489e-05
-8.46512e-06
0.000550956
-0.0987271
1.83818e-06
-0.054827
-0.0139459
-0.0116593
-0.0598101
3.65504e-06
-0.00171844
4.35519e-05
-0.171373
0.113168
-4.09721e-06
-0.0538953
-0.0223328
-0.00219577
3.56908e-06
-3.06008e-06
0.0118261
-0.00966714
1.6231e-07
-0.00440276
-1.62266e-05
4.70785e-05
0.103743
-2.36524e-06
-1.09062e-05
-8.12924e-05
3.91283e-06
0.000345907
1.94937e-05
-0.00276775
4.7052e-05
-0.0101389
0.000416004
-0.000138515
-0.0370845
-0.0364366
-0.00472823
-2.96936e-06
2.02402e-06
-0.076316
0.00314317
-0.0378939
-1.3227e-06
-0.00376337
-3.83973e-06
1.91566e-06
0.0551552
-0.00371281
-0.00135512
-9.44929e-06
-0.0165308
8.22238e-06
-0.0539613
1.47082e-06
-0.0621277
-7.97374e-06
-1.79777e-06
1.85912e-05
0.000417059
-0.119406
-0.0107283
-0.0653688
-2.22663e-06
1.29833e-05
-0.0593176
-0.0343335
-0.00465642
-2.80937e-06
-0.0550639
-0.0509114
-0.0567637
-6.18752e-06
-3.60924e-06
-2.00535e-05
-0.115264
-0.0656528
0.000225977
-0.00607017
-3.23356e-05
0.208124
2.20237e-05
-4.39711e-06
3.43756e-05
-2.98346e-05
-4.34582e-06
-0.00257488
1.25071e-05
-0.00186733
-0.0654486
-0.00745779
-0.0325004
-2.52192e-07
-1.17061e-05
0.0356384
-0.0763226
-0.00248
0.0931168
-3.65474e-05
-6.32928e-06
-5.35958e-06
0.0954239
4.04625e-05
-6.77581e-05
-6.95095e-06
-0.0715765
-0.00900083
-1.19189e-05
-5.18505e-05
-0.00732417
-0.00342228
9.02748e-05
0.191778
-0.0637008
-0.000831765
0.489085
-5.42373e-05
-0.000724638
-0.00934721
-0.0529269
-3.83819e-06
-1.77911e-05
3.00604e-06
0.00235058
-0.039111
-0.000243213
-0.0443358
-0.00420252
-4.3024e-06
-1.30111e-06
-0.00563694
-0.0180337
-0.0388279
-0.104016
-0.0322672
-0.0310319
-0.0231082
-0.0251536
-2.28557e-05
8.62943e-05
-0.0105992
0.000188189
-0.000170096
0.000219301
-1.4089e-05
-0.000137524
-0.00676406
-2.80856e-06
-1.99087e-05
0.0215693
-0.0461468
-0.000297837
-9.84939e-05
-4.67869e-06
0.208495
-0.00517322
0.000196896
-0.0261976
6.44382e-05
4.699e-05
4.29168e-05
-2.0473e-05
0.000141719
-0.0339661
0.00605222
-2.21684e-06
-0.000236634
-0.0407226
-0.0348835
0.0379826
-0.000161357
0.000872425
0.0119641
-5.52798e-06
4.89702e-06
-0.0573564
3.01531e-06
0.138351
-2.17261e-05
0.00224506
4.18807e-05
5.24177e-05
-0.0498334
-0.00601548
-0.014533
-0.00123811
3.75099e-06
0.0013567
0.0486636
-0.0104323
-7.0174e-05
0.0774537
0.135243
-9.85922e-07
-0.0426288
-3.36247e-05
-6.93993e-06
-1.17269e-05
-0.000196134
0.0136232
-3.24279e-05
5.59402e-05
-0.015778
-0.0206958
-0.012476
0.260461
-1.40251e-05
-2.60527e-05
0.142658
-0.0173471
-0.00281678
-0.000231182
0.140516
-7.57689e-06
-0.000518047
-2.6642e-05
-2.55729e-05
4.48566e-06
4.68634e-06
1.62947e-05
-0.0110188
-6.94326e-06
-0.00279701
-0.0333438
0.210229
-0.000369029
-1.38026e-05
0.0025198
0.0690279
-0.0577964
-0.000281466
-0.0428213
0.261048
6.92846e-06
0.337774
-2.26601e-06
0.00143408
0.0169245
0.000134984
0.356134
-5.90924e-05
-2.39866e-06
0.000349324
3.91913e-06
-0.000320784
7.00044e-05
-7.54613e-06
-0.00107873
-3.97433e-05
-7.79036e-05
-0.00204983
0.205173
0.0373938
0.015268
-0.0296952
-1.83658e-06
-1.43573e-05
0.00133048
-0.0661885
-5.9387e-06
-0.0331507
-2.02565e-05
0.0853383
0.0488527
-0.0321256
-0.000849861
-0.0119596
-0.000379322
-0.00850304
-0.00153078
-0.00768729
0.0498954
-1.35562e-07
0.227387
0.0132072
-0.000889259
0.181125
-0.0107817
-2.53688e-06
-8.5289e-06
1.31146e-05
-5.2808e-05
-9.08716e-05
0.206575
-0.000512904
0.213187
-0.00152024
0.138807
0.192149
0.0987176
-0.00554587
-6.08513e-06
-4.97209e-05
-0.00582319
-0.166858
-0.0478804
0.000658099
-2.38025e-05
-0.0270523
-0.000647503
-7.3051e-05
0.00041313
-0.000520553
-0.00112679
0.0240899
1.6255e-05
-0.0311392
0.0443057
1.09972e-05
5.59767e-05
-0.0150497
-0.0657791
-0.000343726
-0.000213744
-1.31405e-05
4.34206e-05
0.0689859
-0.0158432
-0.0486028
0.000536206
0.0801285
-0.0354068
-7.92894e-06
-4.10088e-06
0.000849712
-0.000148816
0.0645046
-0.0053287
-0.00782601
-0.000252185
0.000613741
-0.035425
-0.000106545
0.000150276
-0.0142115
-0.0584463
0.133035
-0.0440842
-0.0232396
-0.000256592
-1.07226e-05
0.00401047
2.93695e-06
-0.0547871
-0.0637105
0.000187175
0.00115899
0.00203658
-0.137962
0.000212549
1.61259e-05
-1.49053e-05
-0.037267
4.99049e-07
0.000189568
0.10168
0.151649
-0.155771
0.0384173
0.0366921
0.000906522
-0.000322301
0.00370532
2.86585e-05
1.3715e-06
-0.000182997
-5.24829e-07
-0.000138427
-0.000165156
-0.00590816
-0.0868288
-0.00782395
-0.031536
0.0405274
0.033288
0.00200936
-0.0639613
-1.84278e-06
0.00175393
0.00630167
-0.000211911
0.0602367
-0.00193229
-0.00994651
0.00605043
0.00317785
-0.00069302
-0.00303488
0.0308637
0.000264159
-0.0159574
-0.014232
0.424722
-0.0237692
0.0657492
0.00219184
-0.0417647
0.000958763
-2.76223e-05
-0.0012759
-2.80709e-05
-0.00122025
-0.0229891
-3.0155e-05
-0.000225056
0.250239
-0.00159092
-0.0350405
-0.0108429
-4.18361e-05
-0.00246076
-1.19105e-05
-2.26513e-06
0.0261418
2.35804e-06
-0.00143881
0.0606915
0.00284597
0.000475357
0.0111238
-0.00442377
0.00225303
-0.157301
0.000256678
-0.00326789
-0.0499627
-0.000790393
-0.00632854
8.27887e-05
-0.00245882
0.000360324
0.0244745
-0.000559431
0.00297562
-0.0353933
-0.0178954
-8.91087e-05
-0.0325973
-0.0120253
-0.0100495
-8.91197e-05
0.00376576
-0.0836177
-0.00042174
-0.00413462
-0.0308867
-0.00356231
-0.000705295
0.191569
-0.0259495
-3.83691e-06
0.00496542
-0.0539799
-0.000560154
0.165279
-0.0032204
0.000384726
0.0477273
-0.000911919
0.00433307
0.107258
-0.000298831
0.000477939
2.90877e-05
-4.72995e-05
-0.00232628
-0.00835307
-0.000397099
-0.0196369
0.0810291
-0.025678
-0.0891946
0.000479714
-0.00210965
-0.000964639
-0.0730789
-4.41411e-05
0.00728327
-8.40908e-05
-0.00940662
-0.00102979
-0.00259693
-0.0583688
0.0988028
-0.0982225
-2.32345e-05
0.173306
-0.00215885
-0.00404284
-0.0450239
-0.105539
-0.0134337
-1.08259e-05
-0.00164718
0.0041049
-0.00190477
-0.00351813
-7.0583e-05
0.0708746
-0.0490165
-0.00883841
-0.00354283
0.0090959
-0.00696956
-0.00514821
0.000762923
-0.000545093
-0.00183964
0.0962566
0.000155816
-0.172712
-0.000209033
-0.00397154
-0.00515804
-0.116875
-0.00979804
-0.145313
-2.66202e-05
-2.9935e-05
-0.00904824
0.00604228
0.00016313
-0.172688
0.0701244
-0.045993
2.48345e-05
-0.192845
-0.000268524
-0.205014
-0.0213657
-0.228807
-0.229541
-0.221202
-0.179839
-0.091333
-0.0557543
-0.0227534
0.0106685
0.0441955
0.139746
0.170676
0.199139
0.246951
-0.00442507
-0.0068811
0.0454193
-0.0256226
0.000236638
0.00295017
-0.0356289
-0.000187391
-0.00122182
-8.5877e-07
-0.0129093
0.01179
4.42793e-06
-0.000697709
-0.00570095
-0.0170078
-0.229319
-0.0206213
-0.0513506
-0.000126191
2.9162e-05
-5.75798e-06
-0.0750923
-0.00805413
-0.035087
-0.0170936
0.00069434
-0.000186249
0.00255415
-5.32753e-06
-0.0276498
-0.00011859
9.68954e-05
-0.0114608
-0.00641077
-0.00100612
8.23031e-05
0.0382784