/*--------------------------------*- C++ -*----------------------------------*\
  =========                 |
  \\      /  F ield         | OpenFOAM: The Open Source CFD Toolbox
   \\    /   O peration     | Website:  https://openfoam.org
    \\  /    A nd           | Version:  7
     \\/     M anipulation  |
\*---------------------------------------------------------------------------*/
FoamFile
{
    version     2.0;
    format      ascii;
    class       volVectorField;
    location    "6";
    object      U;
}
// * * * * * * * * * * * * * * * * * * * * * * * * * * * * * * * * * * * * * //

dimensions      [0 1 -1 0 0 0 0];

internalField   nonuniform List<vector> 
7807
(
(1.05671 0.0920589 6.81598e-20)
(1.04811 -0.0229944 2.10917e-19)
(1.01598 0.0738645 -1.08302e-19)
(1.03422 0.0528919 2.16829e-19)
(1.01253 -0.00210199 3.11815e-20)
(1.00903 -0.0132846 2.09178e-20)
(1.01341 0.0668769 -2.14319e-19)
(1.01066 -0.0032312 8.17578e-22)
(1.00992 -0.00131571 2.61052e-20)
(1.02434 -0.000496521 -1.85836e-20)
(1.00773 -0.00513805 -2.30931e-20)
(1.01399 -0.00218442 -5.09908e-20)
(1.00949 -0.00385015 -5.03293e-20)
(1.02027 -0.00110219 -2.19072e-19)
(1.02308 0.000751796 7.75632e-20)
(1.01013 -0.009714 8.11219e-20)
(1.05735 0.0961209 -1.44687e-19)
(1.00804 -0.00340206 1.40667e-20)
(1.01646 -0.00591297 -4.09171e-20)
(1.00414 -0.0597338 1.76664e-20)
(1.03287 0.00226767 -5.94325e-20)
(1.01311 0.00031225 1.43684e-19)
(1.02269 -0.002046 2.8226e-20)
(1.01127 0.0274689 -1.31571e-19)
(1.00711 -0.00356728 5.04039e-20)
(1.05401 0.0905241 -6.83143e-20)
(1.01273 -0.00166805 2.59384e-20)
(1.02649 0.000933249 7.23557e-20)
(1.00606 0.0146057 -1.91593e-20)
(1.01554 -0.0057259 3.65654e-20)
(1.00654 -0.010714 1.15889e-19)
(0.847621 0.0243261 2.23587e-20)
(1.02088 -0.0020738 1.52515e-19)
(1.01081 -0.00287792 -5.7457e-20)
(0.778226 -0.00170754 3.22813e-22)
(1.02328 0.00179284 2.96119e-20)
(1.01728 -0.00730684 2.69782e-20)
(1.01447 0.0645352 -3.64061e-20)
(1.01083 -0.00660887 -1.45327e-19)
(1.00069 -0.00287982 -6.71337e-20)
(1.01129 -0.00637226 1.46317e-20)
(1.01012 -0.00944191 3.02346e-20)
(1.02118 -0.0658213 -8.48088e-20)
(1.11436 -0.0247482 -3.09648e-20)
(0.755926 -0.00168201 -3.13848e-20)
(1.00644 -0.00292891 1.52806e-20)
(1.01201 0.000321674 -8.73905e-20)
(1.01222 -0.00552738 8.55228e-20)
(1.00971 2.33228e-05 1.41186e-20)
(1.00686 -0.0601303 -2.60377e-20)
(1.01463 -0.00171259 4.08861e-20)
(1.02707 0.00182369 -7.81136e-20)
(1.00162 -0.00320508 1.39714e-19)
(1.02094 -0.0185745 2.97505e-20)
(1.02203 -0.000179123 -2.27351e-20)
(1.01122 -0.00354873 1.46844e-20)
(1.0142 -0.00503204 6.44878e-20)
(1.01057 -0.00339789 -9.45947e-20)
(1.00176 -0.0120727 1.32555e-19)
(1.01082 -0.00376086 6.96143e-20)
(1.00943 -0.000870373 -3.49634e-20)
(1.01558 -0.000140416 3.8997e-20)
(1.02159 -0.000552023 -4.95211e-20)
(1.01312 -0.00206305 5.2046e-20)
(1.00949 -0.00466594 -5.57599e-20)
(1.00693 -0.0109216 -1.84883e-20)
(1.00936 -0.00188611 -2.43924e-20)
(1.00788 0.000134354 3.49862e-21)
(1.11158 0.0575073 6.99587e-20)
(1.0122 -0.00475088 3.44135e-20)
(1.00914 -0.00027059 -1.38484e-20)
(0.997364 -0.034783 1.5594e-19)
(1.0077 -0.00402068 -2.50524e-20)
(0.989848 -0.00501672 -2.12888e-20)
(1.0089 -0.00364949 -4.41551e-20)
(0.994118 -0.016996 2.11841e-20)
(1.01728 0.0747951 1.7351e-19)
(1.03136 0.00177225 7.46813e-20)
(1.06817 0.00625912 -1.55425e-19)
(0.987799 -0.0284739 1.75673e-19)
(1.00981 -0.0037412 7.74287e-20)
(1.01135 0.0545741 2.4456e-19)
(1.03406 0.00903304 1.31244e-19)
(1.00012 -0.00664353 -9.44714e-20)
(1.01096 -0.00383086 4.31051e-20)
(0.979247 -0.00853173 -2.31682e-20)
(1.01033 -0.00343985 -1.26478e-19)
(1.00391 -0.00387628 -8.95009e-20)
(1.01166 -0.00210748 -3.58268e-20)
(0.988536 -0.00135943 -4.53504e-20)
(1.00618 0.0166751 1.35932e-19)
(1.13761 -0.0129632 4.82993e-20)
(1.00834 -0.00187997 2.378e-20)
(1.01468 -0.0053115 3.006e-20)
(1.01189 -0.00356672 -5.31008e-20)
(0.864387 -0.00302486 1.64232e-19)
(0.998812 -0.0346114 -9.36405e-21)
(1.02179 -0.0174942 -5.1262e-20)
(1.01032 -0.00398877 -8.67526e-21)
(1.00701 -0.00136272 -1.53847e-20)
(0.982957 -0.0111735 -4.47295e-20)
(1.06896 0.00993426 1.1683e-19)
(1.01173 -0.00365028 1.32269e-19)
(0.802104 -0.000682121 3.05068e-22)
(1.14013 -0.00434921 3.0746e-20)
(1.02741 0.025443 -1.31e-19)
(0.974821 0.0406397 3.01255e-20)
(1.0111 -0.00334514 5.61033e-20)
(1.00688 -0.000459088 -1.15635e-21)
(1.0288 -0.00554882 -6.28098e-20)
(1.03723 0.0507767 -2.51658e-19)
(1.0319 -0.0482947 1.60678e-19)
(1.0068 -0.000150218 1.41976e-21)
(1.03092 -0.00566658 -1.36378e-20)
(1.02417 0.025375 1.36743e-19)
(1.0114 -0.000350309 -1.91926e-20)
(1.06212 -0.0567177 1.19213e-20)
(1.02782 0.0157892 -3.623e-20)
(1.00486 -0.0276327 -9.57446e-20)
(0.998273 -0.0053125 2.25654e-20)
(0.937817 -0.00905602 1.05914e-19)
(1.00555 0.0508996 -1.63052e-19)
(1.02532 -0.0649057 1.16494e-19)
(1.01811 -0.00321349 1.72826e-20)
(0.965299 -0.00878362 -4.17161e-20)
(1.01135 -0.00269703 -7.64522e-20)
(1.00776 -0.00800363 -4.24771e-20)
(1.01491 -0.0058839 -4.9467e-20)
(0.992411 -0.0130721 1.24858e-19)
(1.00735 -0.00957182 -2.79489e-21)
(1.16596 -0.0260609 1.43446e-20)
(1.064 0.00445929 2.60563e-20)
(1.01125 -0.00302067 -5.46046e-21)
(1.01105 -0.00228231 7.95817e-20)
(0.999205 -0.00608692 -2.71872e-20)
(1.03557 0.0436974 1.00186e-19)
(1.01024 0.0702262 2.71859e-19)
(0.968969 0.000357643 2.35446e-21)
(1.01941 -0.0017171 9.44382e-21)
(0.869349 -0.000504889 1.09941e-19)
(0.957692 -0.00476847 9.22467e-20)
(1.00796 -0.0383485 1.2038e-19)
(0.994374 -0.0182833 -2.83934e-20)
(0.989729 -0.00545787 1.69757e-21)
(0.89083 0.0189478 1.18641e-19)
(1.02272 -0.0276876 7.88253e-21)
(1.01228 0.0161588 -7.25743e-20)
(1.00296 -0.0140921 7.12589e-20)
(0.903414 -0.00149697 -1.90653e-20)
(1.00573 0.0520382 -8.13837e-20)
(1.02525 0.00360706 8.63574e-20)
(1.12773 -0.0150414 2.08127e-20)
(1.01173 -0.00259799 1.21203e-19)
(1.11583 0.0517011 1.68074e-20)
(1.03323 0.00824748 -1.38929e-19)
(1.02017 0.0664198 -1.88403e-19)
(0.991115 -0.0198922 -7.63977e-20)
(1.00795 -0.00472152 -1.87474e-20)
(1.00257 0.0573544 2.73386e-19)
(1.00999 9.71957e-05 1.46438e-20)
(1.01462 -0.00515574 -7.49825e-20)
(1.01267 0.0308468 9.03669e-20)
(1.00797 -0.00194948 -1.71756e-20)
(1.01205 -0.00443383 1.49088e-19)
(1.01077 -0.00226109 2.36993e-20)
(1.00606 0.0365369 -2.72568e-20)
(1.00398 0.0383206 9.79065e-20)
(0.997647 0.0570484 8.50976e-20)
(1.0117 -0.00508633 6.45635e-20)
(0.9613 -0.00600493 2.96536e-20)
(1.00845 0.00102547 -3.52537e-21)
(0.744419 -0.00575007 1.68923e-19)
(1.01166 -0.000896192 2.56739e-20)
(1.04987 -0.020635 -2.46753e-19)
(1.01957 -0.00229262 6.16715e-20)
(0.953029 -0.00406996 -4.02528e-20)
(1.13275 0.00339266 5.70551e-20)
(1.07946 0.0557742 5.67894e-21)
(1.00859 -0.00198056 -1.38188e-20)
(1.01139 -0.00199064 7.18806e-20)
(1.0344 0.0544408 -3.60941e-20)
(1.01004 0.00112141 6.54748e-21)
(0.949913 -0.0021362 -6.9211e-21)
(1.01408 0.0684436 -1.76229e-19)
(1.04948 -0.0247725 1.07006e-19)
(1.02274 -0.0401805 1.02032e-19)
(1.00606 -0.0267635 1.3743e-19)
(1.00156 -0.00584669 -6.85518e-20)
(1.02093 -0.0287643 -1.94542e-20)
(0.832048 -0.00813906 -5.76482e-20)
(1.00718 -0.00239404 5.25955e-21)
(0.999243 -0.0323725 3.84193e-20)
(1.08135 0.0611552 -1.04779e-19)
(1.01149 -0.00338458 -1.90438e-20)
(1.01036 -0.000296024 -1.77169e-20)
(1.06047 0.0579595 8.19528e-21)
(1.01022 0.000375528 -1.17461e-19)
(1.00769 -0.00896664 -6.33766e-20)
(1.01906 -0.0272994 -6.96049e-20)
(1.00886 -0.000769453 -1.47072e-21)
(1.01221 -0.00215254 -6.33551e-20)
(1.03292 0.0441836 1.13344e-19)
(1.071 0.0645261 -1.18018e-19)
(1.01692 0.0618455 -2.47176e-20)
(1.05906 -0.0524281 -6.71223e-20)
(1.03423 -0.0457524 -3.30423e-20)
(1.09402 -0.0791803 1.74466e-20)
(1.02473 -0.00296212 1.95409e-19)
(1.02997 0.0447129 -4.18514e-20)
(0.935528 -0.00605897 2.96911e-20)
(1.01001 -0.00033982 1.0087e-20)
(0.799762 0.0396072 -1.338e-19)
(1.01045 -0.00940892 3.2811e-20)
(1.01134 -0.00330686 4.84599e-20)
(1.00067 -0.0319023 -8.89645e-20)
(1.00764 -0.0083715 4.71404e-20)
(1.02489 0.0619741 -2.26292e-19)
(1.02198 0.0611026 -5.03581e-20)
(1.00631 -0.0391983 -3.10339e-20)
(0.972548 0.0385321 -9.0447e-20)
(1.01217 -0.000979285 8.89935e-20)
(1.007 -0.00351353 -4.9253e-20)
(0.978018 -0.010735 -5.80443e-20)
(1.03242 0.00499446 -3.879e-20)
(1.02392 -0.0830007 7.82419e-21)
(1.0704 0.0927131 -1.64294e-19)
(1.00349 0.0531763 -2.38829e-19)
(1.00953 -0.00124495 2.56789e-20)
(1.01764 -0.00373262 2.28856e-20)
(1.02574 0.0182049 1.89419e-19)
(1.01198 -0.0049516 1.13594e-19)
(1.02965 0.0165003 -2.49859e-20)
(1.01155 -0.00216804 2.60616e-20)
(0.9861 0.0579324 1.66162e-19)
(1.02039 0.0630468 3.87864e-20)
(1.01042 -0.00351255 -7.68989e-20)
(1.01643 -0.00561247 -4.49383e-21)
(1.00875 -0.00209754 1.28019e-19)
(1.09556 0.0771075 5.63926e-20)
(0.953643 -4.29233e-05 -2.52918e-20)
(1.0113 -0.007166 -3.21019e-20)
(0.97743 -0.0182619 -6.64428e-20)
(1.00943 0.000481383 5.7951e-21)
(1.01126 -0.00377108 3.21096e-20)
(1.01155 -0.00218896 -2.88498e-20)
(1.05428 0.036608 1.28219e-19)
(1.00855 -0.00183078 -2.29727e-20)
(0.935611 0.00189068 -2.49315e-22)
(0.989303 -0.0283352 -2.04975e-19)
(0.732852 0.026159 -4.89597e-20)
(1.06355 0.00129999 -3.8336e-20)
(0.997127 0.0460943 1.32988e-19)
(1.01173 -0.0127229 1.76167e-20)
(1.01751 -0.0278623 -5.9126e-21)
(1.01045 -0.00261414 5.48869e-20)
(1.01798 0.0675001 -1.79658e-19)
(1.01396 0.000440354 -4.8129e-20)
(1.01331 0.0574872 8.73323e-20)
(1.0158 -0.007206 -1.21413e-19)
(1.01287 -0.00152704 8.06792e-20)
(1.0329 -0.01954 -9.50148e-20)
(1.02416 -0.00155542 -1.8216e-19)
(1.01151 -0.000595884 3.97596e-20)
(1.00806 -0.00523235 -1.80956e-21)
(1.01153 -0.000925652 1.00307e-19)
(1.01226 -0.00512764 9.6119e-20)
(1.02752 -0.0418425 -1.2726e-19)
(1.01296 -0.00497761 -1.18157e-20)
(0.991985 -0.018986 -5.59555e-20)
(1.01164 -0.00281564 5.19766e-21)
(1.00871 -0.000986064 -2.4871e-20)
(1.01144 -0.00312143 -1.46534e-20)
(1.00984 0.0611994 2.0686e-19)
(0.904824 -0.00374633 -2.2881e-20)
(0.987749 -0.0151136 1.35131e-20)
(0.567551 0.0389362 2.08189e-19)
(1.01111 -0.00437856 6.09094e-20)
(1.05084 0.0718386 -8.79536e-20)
(1.01021 -0.00266964 -7.96253e-20)
(1.01866 -0.014473 9.03108e-20)
(1.00951 0.000305338 -1.10683e-21)
(1.00463 -0.0221297 5.888e-20)
(1.03261 0.0054829 5.60143e-20)
(1.1344 0.0103803 -1.31727e-19)
(1.00187 -0.0129625 -1.13612e-19)
(1.01096 -0.00235209 -8.98504e-20)
(1.00346 -0.0505938 -4.44328e-20)
(0.32795 0.00231887 -6.34762e-20)
(0.937538 0.000603507 -4.93238e-21)
(1.01149 -0.000744558 -8.89976e-20)
(1.01232 -0.00364152 -7.11312e-20)
(1.00262 -0.00591796 7.35032e-20)
(1.01576 -0.00064254 -7.89469e-20)
(1.01132 -0.0030389 -4.03801e-20)
(1.00084 -0.00651757 -1.59403e-20)
(1.03053 -0.0401468 8.55226e-20)
(1.00081 -0.00570791 -6.9163e-20)
(1.10915 -0.0188236 8.86106e-21)
(0.991988 -0.00518869 7.34664e-20)
(1.02607 0.0741714 2.03818e-20)
(1.02402 0.0755121 -1.53243e-19)
(1.01045 -0.00291329 6.30007e-20)
(1.15178 0.00873931 1.68084e-19)
(1.00748 -0.00433059 1.4325e-21)
(1.01287 -0.00394191 7.60251e-20)
(0.698388 0.00554837 -1.69519e-19)
(1.0086 0.0236205 7.74356e-20)
(1.03677 0.0109034 -1.15742e-19)
(1.00984 -0.00126243 3.52172e-20)
(1.01252 -0.00321153 1.10264e-20)
(0.995763 -0.00558986 -5.54644e-20)
(1.04445 0.0332081 -5.16175e-20)
(1.01122 -0.00283733 -4.33253e-20)
(1.01365 -0.00154944 3.63982e-20)
(1.01276 -0.000645939 -8.40451e-21)
(1.09703 0.0225378 1.35452e-19)
(1.16518 -0.0358988 8.78846e-20)
(1.03534 0.085736 1.01707e-19)
(0.998271 0.000398437 5.78792e-20)
(1.05629 -0.0240224 -2.09739e-19)
(1.00858 -0.00172606 2.43354e-20)
(1.01646 -0.00520583 -1.26759e-19)
(1.01102 0.00152137 4.98542e-21)
(1.00638 -0.0137293 -1.95759e-20)
(1.00863 -0.0040836 2.20987e-20)
(1.02156 -0.0129288 1.2644e-20)
(1.17029 0.0102702 -1.43061e-19)
(0.999029 -0.0179389 -1.11067e-19)
(1.01951 -0.0134856 -2.6373e-20)
(1.01756 -0.00316353 -3.76016e-20)
(1.00684 -0.00824989 -6.15535e-20)
(1.0307 -0.0105411 4.1755e-20)
(1.01273 -0.0115947 -5.74791e-20)
(1.06473 0.013716 -5.80788e-20)
(1.05072 0.0357838 6.206e-20)
(1.13076 -0.0901626 -1.39842e-21)
(1.11234 -0.0314228 7.77493e-20)
(0.550677 -0.00687276 6.73568e-20)
(1.01618 -0.00220564 8.83904e-20)
(0.97895 -0.0174731 2.71737e-20)
(0.993519 0.0556649 -2.66674e-19)
(1.09717 -0.0315987 -1.35851e-19)
(1.02872 -0.0042257 -1.23618e-19)
(0.986232 0.0412979 -1.2628e-19)
(0.969759 -0.00447925 -2.83021e-20)
(1.01055 -0.00311255 1.73139e-20)
(1.1252 -0.0225316 7.73263e-20)
(1.01206 -0.00330038 3.58703e-20)
(1.02294 -0.0255514 -2.70016e-20)
(1.01687 -0.00240026 2.81538e-20)
(0.995225 -0.00418451 2.87572e-20)
(0.997796 -0.00446946 5.85387e-20)
(1.02847 0.0238567 1.04073e-19)
(1.00952 -0.00160635 1.07042e-20)
(1.01144 -0.000195914 -3.50178e-20)
(1.00972 -0.000400857 3.05329e-20)
(1.00731 -0.00272808 -1.35093e-19)
(1.01092 -0.00686992 -8.6534e-20)
(1.01301 -0.0131022 -3.06665e-21)
(1.01361 -0.000958372 -8.53899e-21)
(1.0024 -0.0115192 -4.1175e-20)
(0.942763 0.0420752 7.74925e-20)
(1.02096 -0.014225 -5.68657e-20)
(1.01074 -0.0088146 -1.21465e-19)
(1.00877 0.0567368 3.49171e-20)
(1.00357 0.0446271 1.57157e-19)
(1.05667 0.00426851 -5.5524e-20)
(1.14485 0.0132867 -6.3819e-20)
(0.592099 0.0074852 -9.22742e-20)
(1.01628 -0.00243495 -4.6209e-20)
(1.01041 0.039698 -7.80688e-21)
(0.999416 -0.00313918 1.09296e-19)
(1.03885 0.0709212 4.2779e-21)
(1.0207 -0.0309495 -3.36537e-21)
(1.03928 -0.0742407 3.78702e-20)
(1.06802 0.0624601 7.26651e-20)
(1.04015 0.0742194 -9.96509e-20)
(0.992783 -0.0164202 -1.32016e-19)
(1.03915 0.00965377 -8.17466e-20)
(1.07322 0.0961493 1.54388e-19)
(1.04709 0.0719805 1.5635e-19)
(1.02506 -0.000314258 6.29566e-20)
(1.01147 -0.0035125 -3.14347e-20)
(1.01129 -0.00358486 -2.17134e-20)
(1.00638 0.00221276 1.2201e-20)
(1.02499 -0.0167658 3.92752e-20)
(0.981168 -0.00309948 -2.63391e-20)
(1.01211 -0.00308601 -4.62006e-20)
(1.00575 -0.00908941 1.94654e-20)
(1.01059 -0.00219963 -2.38547e-20)
(1.0017 -0.0498155 7.34039e-20)
(1.08551 0.0307751 4.97583e-20)
(1.00438 -0.004767 1.03424e-19)
(1.01254 -0.00828058 -1.38322e-19)
(1.01036 -0.00127093 6.55067e-20)
(1.0551 -0.0256731 7.48858e-21)
(1.00663 -0.00531483 1.27162e-19)
(1.01472 -0.00475165 8.97892e-20)
(1.08278 0.0935236 2.44029e-20)
(1.00065 -0.00336676 1.44663e-19)
(1.00889 -0.00155751 2.01476e-20)
(1.00989 -0.00154207 7.43343e-21)
(1.00949 -0.00141668 4.82341e-20)
(1.00215 -0.00610657 -3.93221e-20)
(1.02705 0.0206271 -1.30853e-19)
(0.989761 -0.00497881 -2.0778e-21)
(1.02676 -0.00448321 8.43805e-20)
(1.02911 -0.0868762 -5.62173e-20)
(1.01578 0.0629045 -3.97071e-21)
(1.01598 -0.0057507 4.81057e-20)
(1.01872 -0.00275669 -8.39101e-21)
(1.01074 -0.00341558 6.30122e-20)
(1.01193 0.0620154 -2.04074e-19)
(0.980156 0.00107119 -3.09446e-20)
(1.03721 0.0882173 -5.28318e-20)
(1.01063 0.0165729 -1.33524e-19)
(1.00761 -0.00284882 -2.30249e-20)
(1.01931 -0.0316636 7.63421e-20)
(1.01073 -0.00296544 6.56523e-20)
(1.01029 -0.0389675 -1.51272e-19)
(1.01117 0.000308754 3.36502e-20)
(1.05263 0.00694577 7.50764e-20)
(1.01841 -0.0101378 -2.72136e-21)
(1.01754 -0.00183656 1.38649e-20)
(1.01064 -0.00346809 7.51861e-20)
(1.05966 0.0345581 6.7162e-20)
(1.04084 0.032702 1.94547e-20)
(1.02132 -0.0417021 -8.6251e-20)
(1.00288 -0.0132317 7.37552e-21)
(1.01269 -0.00380514 5.01506e-20)
(1.01568 -0.0245882 1.7587e-19)
(1.11228 0.0444028 -1.02373e-19)
(0.917394 0.0312995 -1.09834e-19)
(1.07202 -0.0488267 6.27591e-20)
(1.01689 -0.00547424 -2.64377e-20)
(1.00739 -0.000511421 1.13552e-21)
(1.00737 -0.00447246 1.01211e-19)
(1.00254 -0.0055898 -1.15422e-19)
(1.03098 -0.00938888 6.89826e-20)
(1.01889 -0.0689308 3.03362e-20)
(1.1504 -0.00123346 -6.35078e-20)
(1.01263 0.0625686 -2.3583e-19)
(1.04766 0.0306628 9.29524e-20)
(1.09588 -0.0709203 -6.43839e-20)
(1.0605 0.0624718 2.79578e-20)
(1.0081 0.0599897 2.53862e-19)
(1.02593 -0.00253356 7.18674e-20)
(1.01256 -0.00188049 1.01694e-19)
(1.02671 0.0475436 5.64729e-20)
(1.01197 -0.00296046 -7.62327e-20)
(1.00953 -0.002617 -2.11278e-20)
(0.870653 -0.00486964 -2.78376e-20)
(1.01127 -0.000952177 7.39145e-21)
(1.1004 -0.0854566 -2.3182e-20)
(1.01674 -0.0114257 6.42511e-20)
(1.00579 -0.0219853 -1.06739e-19)
(1.01292 -0.00146004 3.25984e-20)
(1.05648 0.0556813 1.54196e-19)
(1.00245 -0.00203588 1.20838e-20)
(1.00887 -0.00171892 1.51823e-22)
(1.03454 -0.0773736 -3.91344e-20)
(1.01307 -0.000562185 -2.01028e-20)
(1.08553 0.00229273 -1.45879e-20)
(0.984221 -0.0105396 -2.22447e-20)
(0.954189 -0.00798284 -7.28903e-21)
(1.15574 0.0465123 -1.19928e-20)
(1.02393 0.0164318 -4.84541e-20)
(1.0215 0.00485073 3.33234e-20)
(1.01996 0.00443167 -1.56757e-20)
(1.00527 -0.0139239 -6.82666e-21)
(1.09118 0.0303323 3.94452e-20)
(1.06489 0.0159482 7.01184e-20)
(1.01243 -0.00256814 -2.93441e-20)
(1.0049 -0.0051193 -1.19724e-19)
(1.01215 -0.000154969 -3.73035e-20)
(1.02149 -0.0117227 -1.49087e-19)
(1.02112 -0.0177546 2.78195e-20)
(1.01688 -0.00143953 -8.49486e-22)
(1.01139 -0.00276119 9.44434e-20)
(1.09519 0.0713605 -1.67039e-19)
(1.00839 -0.00243315 2.3275e-20)
(1.01092 0.000137185 -2.15027e-20)
(1.01498 -0.000783597 -4.96596e-22)
(0.936808 -0.00564216 -6.35796e-20)
(1.02472 -0.00573589 8.40151e-20)
(1.00523 -0.0186202 1.58268e-19)
(0.968606 -0.00267738 3.17932e-20)
(1.02511 -0.0397934 -5.72627e-20)
(1.04179 -0.0939434 6.19506e-20)
(1.03202 -0.0174043 5.07219e-20)
(1.03116 0.0472989 -3.25646e-19)
(1.16283 0.0152539 8.61373e-20)
(1.00995 -0.00391162 8.00028e-21)
(0.985291 0.0547495 1.9189e-19)
(1.00054 -0.0360512 -1.42666e-19)
(1.01101 -0.00776264 -2.59257e-20)
(0.943525 0.00531299 -5.49091e-20)
(1.01306 -0.0117625 1.19781e-20)
(0.876876 0.00378567 -1.03732e-19)
(1.00867 -0.00407659 3.66334e-20)
(1.02943 -0.00752643 -9.3933e-20)
(1.10333 -0.0342399 2.96585e-20)
(1.00891 -0.00160362 1.97891e-21)
(1.02694 -0.00637752 -6.75793e-21)
(1.00581 -0.00210166 1.23989e-20)
(1.02295 0.0675195 5.08538e-20)
(1.11254 0.062448 1.55698e-19)
(1.01147 -0.00320682 -2.17294e-20)
(0.923318 -0.00261983 1.25768e-19)
(1.00545 -0.00455623 4.09502e-20)
(1.00654 0.0581181 1.6156e-19)
(1.03307 0.0731985 1.26346e-19)
(1.09298 0.0238783 -7.38477e-20)
(1.09856 0.0908755 -1.32386e-19)
(1.00054 -0.0382531 6.10739e-20)
(1.00054 0.05781 -2.38096e-19)
(1.00954 -0.00145948 -2.21398e-20)
(1.04626 -0.0138753 1.65221e-19)
(0.746988 0.00429073 3.82706e-21)
(1.07418 0.0539692 -3.93048e-20)
(1.00186 0.0493178 -1.67391e-19)
(1.11532 0.0392749 1.56366e-19)
(1.04421 0.0269053 1.51611e-20)
(1.01301 -0.00829131 4.17812e-20)
(1.00841 -0.00372814 3.61903e-20)
(1.10095 0.0797399 5.87826e-20)
(1.156 -0.0191315 -2.6526e-20)
(1.01265 0.0617082 -6.25068e-21)
(1.07978 0.000936746 1.81531e-19)
(1.03155 0.0407233 1.01644e-19)
(1.01003 -0.00393083 2.35067e-20)
(1.01437 0.0629167 6.48763e-20)
(1.03534 0.0704219 4.77571e-20)
(1.0094 -0.00391396 1.10948e-19)
(1.00985 -0.00402166 4.91968e-20)
(1.10999 0.0733002 4.2992e-21)
(0.931867 -0.00247437 1.13136e-19)
(1.00961 -0.00161911 2.93156e-20)
(1.00758 -0.00479632 -1.31948e-19)
(0.973528 -0.0146152 -8.49823e-20)
(1.00861 -0.0487171 1.54168e-20)
(1.01852 -0.00225914 -1.29718e-19)
(1.01665 -0.00251259 1.16415e-20)
(1.01104 -0.00207316 3.77598e-20)
(1.03397 0.0763557 -1.87531e-19)
(1.01469 -0.00803735 -1.06892e-20)
(1.00857 -0.00149418 -1.12256e-20)
(1.03018 -0.0368038 -1.02315e-19)
(1.0114 -0.00316903 -2.28013e-20)
(1.00923 -0.00397236 -3.49752e-21)
(1.01608 -0.00772242 -2.86076e-20)
(1.0498 0.0550421 1.97462e-19)
(1.02912 -0.0683702 -5.85804e-20)
(1.00743 0.0544893 1.032e-19)
(1.00984 -0.00079223 -2.37334e-20)
(1.05254 0.0577702 -2.09346e-19)
(1.02493 -0.031411 -7.96238e-20)
(1.01004 -0.0019773 7.71971e-21)
(1.00921 0.000258142 -1.17715e-20)
(1.00382 0.0109542 -2.28453e-20)
(1.04594 0.0489718 7.49632e-20)
(1.01136 -0.00359712 -2.32573e-20)
(1.04283 0.039483 -1.06424e-19)
(1.00895 -0.000217314 8.69808e-21)
(1.04378 0.0432395 -1.43745e-19)
(1.11925 -0.090502 -6.37389e-20)
(1.00909 -0.00376045 -1.20119e-19)
(1.00062 0.0467295 -3.21314e-19)
(1.00089 -0.02999 -1.07746e-19)
(1.10199 0.0868041 1.359e-19)
(0.958568 -0.00572555 -3.28404e-20)
(1.04636 0.0449626 1.84391e-19)
(1.0496 0.0508073 -5.41095e-20)
(1.00546 -0.00612396 -1.79742e-19)
(1.0026 -0.00713806 1.06722e-19)
(1.01158 -0.00708415 -9.94046e-20)
(1.01154 -0.00406752 2.58805e-20)
(1.00972 -0.00256009 -4.75827e-20)
(1.0146 -0.00802096 1.76186e-20)
(1.04112 0.0674784 -2.43661e-20)
(1.00889 -0.00167954 -5.31683e-21)
(1.03907 0.0385397 1.3991e-19)
(1.03868 -0.0684664 -1.01024e-19)
(1.01625 0.0490585 6.36846e-20)
(1.0388 0.0353673 -1.63547e-19)
(0.968173 -0.0134078 1.12089e-20)
(1.00654 0.0590505 -2.21802e-19)
(1.01106 -0.00311346 8.94367e-24)
(1.02471 -0.0154098 5.87184e-20)
(1.05137 -0.0481286 -3.69523e-20)
(0.884856 -0.00135998 6.399e-21)
(1.01026 -0.00406833 -7.33029e-20)
(1.02325 -0.0325652 6.32893e-20)
(1.04884 -0.00784498 -1.46239e-20)
(0.992235 0.0411971 2.47972e-19)
(1.00852 -0.000862723 3.27285e-20)
(1.01108 -0.00338008 -3.9762e-20)
(1.02919 -0.0477595 2.10827e-22)
(1.00982 -0.000418081 1.89111e-21)
(1.0227 0.0702627 2.46194e-20)
(1.01256 -0.00032797 0)
(1.00896 0.000727915 1.65231e-21)
(1.00961 -0.000188115 5.30441e-20)
(1.01218 0.000208259 6.48887e-22)
(1.0065 -0.0130743 -1.33244e-19)
(1.02597 -0.00877715 -4.75967e-20)
(1.01095 -0.00315401 -7.76356e-20)
(1.00843 0.0128465 -2.51905e-20)
(1.01013 -0.00399981 -3.83762e-20)
(1.01545 -0.00766145 -3.15169e-20)
(1.01146 -0.073243 7.56849e-20)
(0.7474 -0.00287404 -9.14743e-21)
(1.02418 -0.00515523 1.29719e-19)
(0.970942 -0.00155078 -1.08003e-20)
(1.0844 -0.102685 -7.90378e-20)
(1.00782 -0.00466879 5.52919e-20)
(1.10043 0.0662628 -1.17923e-20)
(1.00095 0.0314131 -5.21684e-20)
(1.01221 -0.00265961 2.97373e-20)
(1.09224 0.0581718 -1.73338e-19)
(1.00958 -0.000494867 -1.0159e-21)
(1.00789 -0.00450571 -1.06012e-21)
(1.02384 0.00148407 -9.29325e-20)
(1.01037 -0.00430655 2.96344e-20)
(1.05082 0.0635276 -1.23446e-20)
(1.00781 -0.00548594 1.02084e-19)
(1.04633 -0.0129602 -1.28043e-19)
(1.02532 0.00412298 -9.40285e-20)
(1.05119 0.0330084 -3.63452e-20)
(1.01844 -0.00946217 -8.22393e-20)
(1.00897 -0.00435996 -2.94023e-21)
(1.06482 0.0554821 1.05024e-19)
(1.0043 -0.0535646 7.76262e-20)
(1.01789 0.06944 1.99174e-19)
(1.00949 -0.00479441 1.36621e-19)
(1.05174 0.0796839 7.21047e-22)
(1.00953 -0.00447006 -3.64716e-20)
(1.01133 -0.00174256 6.72773e-21)
(1.04302 0.0257227 4.45427e-20)
(1.02423 -0.0182064 -4.3775e-20)
(1.0325 0.00661809 1.35048e-19)
(1.01138 -0.000859748 2.23467e-20)
(1.00915 0.000633636 7.59805e-22)
(1.01948 -0.0845845 -2.79342e-20)
(1.08197 0.0888423 -1.52534e-19)
(1.0125 -0.00272964 -2.66701e-20)
(1.09851 0.0596711 1.93011e-20)
(1.00813 -0.00533168 7.26394e-20)
(1.07797 -0.107098 2.70016e-20)
(1.04474 -0.0231155 1.9558e-20)
(1.00505 -0.019763 -8.56992e-20)
(1.01112 -0.00304922 3.11138e-20)
(0.959623 -0.00462261 2.89486e-20)
(1.00015 -0.0455689 5.30996e-20)
(0.998225 -0.00627656 -1.20321e-19)
(1.00928 -0.00427126 -9.18301e-20)
(1.01069 -0.00211902 -3.57508e-20)
(1.01506 0.0715894 -2.16784e-20)
(1.09009 0.0522845 1.10073e-19)
(1.02855 -0.00497637 -3.03345e-20)
(1.0094 -0.00270643 -3.21171e-20)
(1.0342 0.0675578 -8.99076e-20)
(1.00874 -0.000732304 9.26678e-21)
(1.00923 -0.00253564 -6.62913e-20)
(1.08387 0.0511283 9.36554e-20)
(1.02132 -0.0150533 8.10642e-20)
(1.08937 0.0815384 1.40273e-19)
(1.02572 -0.00228111 5.28169e-20)
(1.02401 -0.00735647 -1.61358e-20)
(1.0786 -0.0392202 -5.60403e-20)
(1.05321 -0.0861627 -7.57932e-20)
(1.15573 0.0404015 -5.73833e-20)
(1.01264 -0.000913198 -5.9942e-20)
(0.986708 -0.0109477 7.89791e-21)
(1.00907 -0.00117506 6.62032e-21)
(1.01641 -0.00833614 2.05391e-20)
(1.05292 0.0619916 7.13197e-20)
(1.00598 -0.00581425 -1.33902e-19)
(1.01141 -0.00362441 -4.02651e-20)
(1.02488 -0.0245563 8.69576e-20)
(1.01095 -0.00362962 -2.16294e-21)
(1.01161 -0.0021915 -5.25377e-20)
(0.583607 0.00989181 4.34944e-20)
(1.00928 -0.00494428 7.13241e-20)
(1.0108 -0.00312734 9.73642e-20)
(0.793224 -0.00188611 2.54593e-21)
(1.0173 0.00586362 1.40627e-19)
(0.999348 -0.0168938 1.62081e-20)
(1.01097 -0.00240186 -4.5033e-20)
(1.01153 -0.00390161 -5.34433e-20)
(1.02254 0.0188682 5.12755e-20)
(1.05663 0.0127051 1.29867e-20)
(0.992664 -0.0150168 8.35357e-20)
(1.00844 -0.000692569 1.03227e-20)
(1.00246 0.0165505 3.14818e-19)
(1.00684 -0.0117895 9.63413e-20)
(1.05654 0.0513605 -1.6016e-19)
(1.02036 -0.00121147 -1.40674e-19)
(1.02129 -0.000393518 2.85197e-19)
(0.997238 -0.00752224 -1.55544e-19)
(1.00866 -0.00133471 7.93004e-21)
(1.02418 0.00025124 -1.1541e-20)
(1.05965 0.0106825 -2.41802e-20)
(1.13777 0.0443678 1.19009e-19)
(1.04302 -0.0649201 -3.21263e-20)
(1.03914 0.0645915 7.70671e-20)
(1.01811 -0.00107353 -3.39437e-21)
(1.06902 0.0581976 -1.4411e-19)
(1.01373 -0.0098433 5.3418e-20)
(1.02744 -0.035486 1.55972e-19)
(1.01026 -0.00308163 3.5869e-20)
(1.01652 -0.0118189 -1.30322e-19)
(1.01065 -0.00199113 -3.17315e-20)
(1.03953 0.028176 -1.21074e-19)
(1.06218 0.0861082 -2.36664e-19)
(1.01131 -0.00294215 -2.39284e-20)
(1.02446 -0.00640244 1.04274e-20)
(1.00446 -0.00367851 -4.40117e-20)
(1.04564 -0.0560479 -1.89494e-20)
(1.04189 -0.0597906 5.0611e-20)
(1.01009 -0.00385258 -4.20233e-20)
(1.04318 -0.013674 -6.5841e-20)
(0.28992 -0.000148946 -7.37791e-20)
(1.13466 0.0301324 1.0654e-19)
(1.00977 -0.00148518 -5.6196e-20)
(1.05316 0.010535 -5.17385e-20)
(1.01228 -0.00676502 7.58997e-20)
(0.731745 -0.00747944 2.57319e-19)
(1.00816 -0.00495366 -9.8396e-20)
(1.01251 -0.0167259 3.49802e-20)
(1.02621 -0.0214518 -3.66825e-21)
(1.01193 -0.0170163 1.32315e-21)
(1.01356 -0.0134277 1.34935e-19)
(1.00994 -0.00409695 -2.38212e-20)
(1.0134 -0.0100324 -1.1571e-19)
(1.01453 -0.00472186 -2.72232e-20)
(1.05035 -0.0109418 2.94447e-20)
(1.00896 -0.00121564 -5.09202e-20)
(1.15041 -0.0656238 3.80971e-20)
(1.12265 0.00033021 4.4943e-20)
(1.02824 0.0748591 1.46157e-19)
(0.993823 -0.0142035 -1.31191e-19)
(1.08369 0.0779224 -7.023e-20)
(1.01293 -0.000650474 6.71547e-20)
(1.06211 -0.0469594 -2.59224e-21)
(1.01839 -0.0237159 7.87436e-20)
(1.02077 0.0319894 1.2208e-19)
(1.01027 -0.00446163 -6.73034e-20)
(1.01021 -0.00115597 3.79635e-20)
(1.0073 -0.0121079 -1.33522e-19)
(1.0118 -0.00714731 3.88643e-20)
(1.04058 -0.0131858 1.0866e-19)
(0.997816 -0.0046841 1.05918e-19)
(1.00206 -0.00672089 -3.54877e-20)
(1.10061 -0.0188601 3.50596e-20)
(1.00378 -0.00476845 8.42113e-20)
(1.02469 -0.0227414 -7.29524e-20)
(1.00968 -0.0516753 -6.44922e-20)
(1.00891 -0.00139287 1.64539e-21)
(1.05013 -0.00503203 1.26618e-19)
(1.01073 -0.0462989 1.95726e-19)
(1.08878 0.0685693 7.78597e-20)
(1.0789 -0.0444322 9.17025e-20)
(1.03131 0.00589327 1.38374e-20)
(1.03377 -0.0660039 1.35097e-19)
(1.03908 0.0806729 4.37503e-20)
(1.03707 -0.0206082 9.86472e-20)
(0.996175 -0.00677613 9.24011e-20)
(1.02492 -0.0290952 1.12852e-19)
(0.544715 0.00852914 8.3867e-20)
(1.12218 -0.0666533 -3.66428e-20)
(1.00792 -0.00477706 3.04227e-20)
(1.03477 -0.0836666 7.95187e-21)
(1.03331 -0.0415796 -9.51828e-20)
(1.04503 -0.0768729 5.0584e-21)
(1.04397 -0.051569 7.69767e-20)
(1.06451 0.0509606 1.37568e-19)
(1.0114 -0.00357243 -2.00671e-21)
(1.00824 0.0386047 4.27653e-20)
(1.01803 -0.0010047 3.06818e-20)
(1.0112 -0.00220717 5.57912e-20)
(1.01239 -0.0029334 -1.71001e-19)
(1.0501 0.00614167 -2.63895e-20)
(0.168507 0.00969226 1.73514e-21)
(1.01445 -0.00474625 3.91687e-20)
(1.02739 -0.032764 -2.04055e-20)
(1.02236 0.0206589 -8.36812e-20)
(1.00907 -0.000533574 -1.68838e-21)
(1.0032 -0.00681498 -9.10298e-20)
(1.02637 -0.00468862 8.37863e-20)
(1.06414 -0.0229781 1.26526e-19)
(1.0178 -0.000829736 1.60658e-19)
(1.0125 -0.0034479 -2.37663e-20)
(1.00578 -0.0249366 4.1922e-22)
(1.01276 -0.00655256 3.92922e-20)
(1.00841 0.000640807 1.96819e-20)
(1.00224 -0.0294407 1.84316e-19)
(1.0448 0.0607217 -3.07365e-20)
(1.02693 -0.0186904 -1.44964e-20)
(1.00558 -0.00402288 8.157e-20)
(1.01374 7.02448e-05 -2.53539e-20)
(1.02522 0.0233552 1.11277e-19)
(1.01156 -0.00251603 2.19456e-20)
(1.01123 -0.00245252 4.98342e-21)
(1.01029 -0.0030577 3.60846e-20)
(1.01208 -0.0028507 6.87436e-20)
(1.12767 0.0449624 8.17818e-20)
(1.03257 -0.0217541 2.36116e-19)
(1.01924 -0.0115634 5.69117e-20)
(1.00488 -0.00580369 3.66533e-20)
(1.00953 -0.000541141 1.96426e-20)
(1.06649 -0.0824196 -1.07307e-19)
(1.15806 -0.00743576 2.17007e-21)
(1.07044 -0.089493 4.87687e-20)
(1.01356 -0.0210178 5.36155e-20)
(1.02089 -0.00520688 1.28676e-19)
(1.00894 -0.00327705 -2.33402e-20)
(1.00827 -0.00825703 5.99347e-20)
(0.990714 -0.0300183 8.2898e-20)
(1.12632 0.0317735 -1.97546e-23)
(1.01381 0.050349 -3.04851e-21)
(1.01219 -0.00374695 -4.00956e-20)
(0.982581 -0.0211487 -4.20495e-20)
(1.01111 -0.00366715 9.15944e-20)
(1.03547 -0.0191529 -3.87864e-20)
(1.07297 0.0487308 1.62593e-20)
(1.01246 -0.000619023 -6.75623e-20)
(1.01038 -0.00258906 1.50451e-20)
(1.10824 0.0779332 1.86904e-20)
(1.12232 0.0178634 -2.49125e-20)
(1.02638 -0.00964459 4.33884e-20)
(1.01145 -0.00360153 -6.70125e-20)
(1.00836 -0.00458299 8.81905e-21)
(0.995008 -0.0306238 -2.08961e-20)
(1.01034 -0.0024453 4.52674e-20)
(1.02578 -0.0199807 1.35255e-19)
(0.91746 -0.00441972 -1.91522e-19)
(1.00103 0.030757 -4.22334e-20)
(1.0474 0.0633751 -1.49027e-20)
(1.05863 -0.043072 -5.52934e-20)
(1.01331 -0.0465225 -6.90478e-20)
(1.01558 -0.00174407 9.9431e-20)
(1.02303 -0.0147394 -1.19659e-19)
(1.1162 0.00557343 1.22615e-19)
(1.01306 -0.0519853 3.91987e-20)
(1.02677 -0.0277957 -6.88317e-20)
(1.00819 -0.000481002 -2.01564e-21)
(1.10657 -0.00536714 1.05476e-19)
(0.873248 -0.00732775 -1.0286e-20)
(1.01242 -0.0581846 -7.12501e-20)
(1.02651 -0.0173055 -1.86909e-19)
(0.988104 -0.00981692 1.57181e-20)
(1.0103 -0.00307425 1.79252e-20)
(1.01148 -0.00352494 3.15815e-20)
(1.0357 0.0341992 1.25027e-19)
(0.998265 -0.00725471 3.67338e-20)
(1.00685 -0.00290953 -3.16908e-21)
(1.00884 -0.00375554 7.22945e-20)
(1.12053 -0.0558508 1.36378e-19)
(1.00803 -0.00180894 -6.90674e-20)
(1.02927 -0.031237 2.77938e-20)
(1.00951 -0.00139583 2.76089e-21)
(1.01732 -0.00887234 8.49698e-21)
(1.0115 -0.0699614 -3.51119e-20)
(1.05383 -0.0437447 4.14817e-20)
(1.00957 -0.00127463 2.28373e-20)
(1.00884 0.000675444 -1.17837e-20)
(1.02099 0.00189859 4.0014e-21)
(1.0226 -0.0448337 -1.48886e-20)
(1.00163 0.0378833 -3.22485e-21)
(1.05302 0.0756119 1.81127e-21)
(1.09699 -0.0126913 -4.56587e-20)