/*--------------------------------*- C++ -*----------------------------------*\
  =========                 |
  \\      /  F ield         | OpenFOAM: The Open Source CFD Toolbox
   \\    /   O peration     | Website:  https://openfoam.org
    \\  /    A nd           | Version:  7
     \\/     M anipulation  |
\*---------------------------------------------------------------------------*/
FoamFile
{
    version     2.0;
    format      ascii;
    class       volScalarField;
    location    "1";
    object      p;
}
// * * * * * * * * * * * * * * * * * * * * * * * * * * * * * * * * * * * * * //

dimensions      [0 2 -2 0 0 0 0];

internalField   nonuniform List<scalar> 
19930
(
-0.0348479
-0.194455
0.240581
0.000431705
0.00378638
-0.000865903
-0.213185
4.30089
-0.0894637
4.20612
-0.085749
3.14426
-0.156725
-0.0326373
-0.0335163
0.000444121
1.35238
2.7925
-0.233534
-0.189279
-0.041596
3.20078
4.23345
0.0312676
0.225153
6.67458
0.0800252
-0.101916
0.20896
-0.221435
-0.00979492
7.79015
4.01964
-0.0768319
0.000791376
-0.00916127
4.61118
-0.000893386
0.127883
2.4971
0.400234
4.75391
5.58145
0.0713499
6.6728
-0.491064
3.79895
2.16659
-0.00201787
-0.234845
-0.00012232
0.873595
0.694275
0.00353782
0.697508
-0.404493
-0.181786
-0.0107101
0.0402388
1.40758
7.08332
-0.363047
-0.0887365
3.95185
-0.00516414
-0.0376918
6.56144
-0.0422197
0.826211
6.56886
0.322612
1.08865
-0.0306161
-0.148817
6.62068
0.424537
6.53997
-0.483219
2.45522
6.17717
-0.0305586
0.0189411
0.158573
-0.0715285
-0.365722
5.61048
-0.128953
8.32575
3.96427
6.95165
3.59308
0.00145464
0.000358312
8.24887
2.07112
-0.0839923
8.31001
-0.00439899
-0.0344812
4.59658
7.01726
-0.195036
7.16405
0.778163
1.42254
0.641556
6.13015
0.920385
-0.283808
5.86115
0.198262
-0.234423
-0.181717
0.304343
0.482897
9.57411e-05
5.44228
-0.0267115
0.662112
6.09702
0.00129505
0.0264407
2.78184
0.0289283
-0.0771484
2.82885
3.65599
-0.0990025
7.86881
5.54222
-0.145001
-0.235972
0.395059
0.119406
6.19608
1.30723
2.49129
-0.0224245
-0.151817
-0.188049
-0.0142881
-0.162596
0.995535
7.23058
1.86053
6.23399
4.14214
-0.252286
3.47406
0.0902473
-0.257659
6.52576
0.00044011
-0.065589
0.018412
4.21309
5.70387
0.0295663
-0.433849
-0.167478
0.622895
-0.166054
-0.0110974
1.94093
2.06682
8.27053
-0.184153
0.108939
0.382131
4.56388
2.43864
6.73454
5.58153
-0.0991197
8.67618
3.94793
-0.0297589
7.03071
0.543412
6.01894
6.33456
-0.000675252
7.23513
5.52012
-0.178638
-0.475269
0.328961
4.4349
0.726251
7.78597
3.65127
1.34459
4.69758
0.893871
-0.426931
2.92127
7.21268
1.8461
-0.173964
7.85789
2.33762
0.886554
0.759211
7.66224
7.36767
-0.280518
-0.0268685
0.887035
-0.39896
-0.0165064
6.52054
6.93976
-0.255379
-0.351495
5.96406
6.62143
-0.0602712
6.09529
0.978732
0.130048
-0.0254854
5.78908
7.40983
3.64029
5.81523
-0.162255
-0.00913284
0.000207322
-0.0479234
0.00332261
2.74344
0.518163
6.07738
-0.168101
5.73772
-0.114626
0.623157
6.68973
8.39899
5.74341
6.4895
-0.361962
4.75864
0.0427423
1.54588
-0.0280204
0.736841
1.30701
0.926988
-0.00180708
-0.277958
7.48098
2.89766
0.119718
-0.26376
0.528299
-0.106105
4.83564
-0.173515
-0.482652
-0.10407
-0.0669245
-0.0066926
-0.118896
-0.145295
7.23688
1.7826
-0.168107
5.79358
7.33359
-0.126295
0.00479899
-0.0798523
6.54426
0.488728
7.06113
8.37187e-05
-0.340955
5.79549
6.4537
0.133693
-0.169921
7.68762
1.03918
1.32704
7.09749
7.74593
-0.139306
5.8382
2.08112
6.12171
5.17963
0.00485575
1.75436
4.66229
-0.0324577
-0.198017
1.98749
0.0990298
2.29727
1.58365
0.000476763
-0.00324158
6.95744
0.00601019
-0.201769
-0.151339
3.21206
-0.32352
6.00739
2.16492
-0.122753
-0.495592
4.4407
3.03845
0.000347876
6.95188
5.57579
6.94024
0.774357
-0.00552913
7.65976
-0.0254767
-0.0935377
2.93385
1.87826
-0.188237
0.944583
5.73151
8.18566
6.35511
2.4849
8.70944
0.000396682
-0.0853366
6.46722
0.411382
4.64758
-0.133364
6.61447
2.01537
0.00164668
1.96793
5.41
0.277366
7.33245
5.41597
-0.00444677
0.32701
4.01653
2.93258
-0.057526
5.54129
0.0582973
8.48596
-0.0340597
-0.260381
-0.258274
6.33815
5.48888
-0.360341
4.4212
6.94946
0.0069288
5.14633
5.57485
8.65906
-0.021337
3.3582
1.23963
-0.419864
-0.0027237
6.6828
4.75126
1.63921
6.78691
2.59814
-0.1939
4.67146
2.10035
2.92882
8.47611
0.0305386
2.74718
6.91476
-0.275384
1.80225
0.000211562
3.93799
-0.343672
3.6698
1.70407
2.66993
0.0106101
3.83602
6.87177
5.24576
0.145808
-0.0559347
7.60055
7.72605
-0.0237422
-0.327404
6.10493
-0.19507
0.552586
4.83363
-0.266079
8.86346
0.17652
3.56279
-0.0743004
6.91893
5.33528
0.951267
0.593597
1.39713
2.39712
-0.00307948
6.10006
1.11214
4.07327
8.4295
0.800894
0.42605
0.000112922
2.21557
1.74789
-0.19124
5.05615
0.000590422
-0.220822
0.120858
1.10042
-0.106539
-0.00190846
-0.139769
2.83405
0.21782
0.278157
-0.293051
2.03086
1.6439
-0.226959
-0.487317
0.00785468
0.824899
-0.172822
0.101724
0.173071
3.06581
5.19665
2.01523
-0.00482518
7.80492
0.102956
3.57524e-05
0.368438
-0.300569
-0.0801375
7.31625
0.133854
2.10582
-0.126398
-0.152786
4.75243
-0.0800338
-0.163419
-0.178589
-0.00250385
0.843265
7.96804
-0.0641835
-0.324602
5.03113
-0.176539
5.1557
3.47116
-0.0295949
-0.0155008
5.62422
8.32052
-0.127058
4.00758
2.74763
-0.277726
-0.279891
6.09153
1.29168
0.212507
0.0529242
-0.386608
0.621348
7.65445
2.52075
0.000834918
7.18043
0.210923
-0.0745327
5.71698
0.140199
-0.0798014
-0.00438023
1.07199
-0.278334
0.00015647
3.97101
0.545184
6.13608
-0.00628759
0.00218265
-0.188082
2.66535e-05
-0.152789
0.276468
-0.00247582
-0.0375005
-0.46336
5.66613
6.82817
-0.0255378
0.0252613
-0.183669
6.87943
0.0160636
6.92382
-0.145129
8.54208
5.27523
3.55541
8.13116
1.20747
-0.0797209
1.23919
0.0510655
6.74957
6.05614
-0.246225
0.783754
1.59344
0.377588
-0.0802421
0.667394
0.00016493
5.70575
-0.483368
-0.130294
-0.0430972
-0.00584258
3.57089
2.1001
-0.0504484
0.164498
-0.000211892
8.56068
7.58606
-0.043202
-0.221548
0.275398
6.03526
-0.459108
2.7517
-0.310012
6.43106
3.55045
-0.285119
8.82968
0.546773
6.28549
-0.0590273
-0.196404
7.31916
0.0828358
8.35788
5.88797
8.62983
-0.0748614
-0.125461
0.0412735
1.40466
0.127429
0.0714272
6.32464
6.47782
5.22186
6.81796
8.2381
4.02702
6.86223
5.24752
0.0406262
5.69953
-0.173372
-0.297048
-0.0097823
0.330263
0.198566
4.42544
1.06839
6.17505
0.0307688
1.84253
5.95957
0.0597795
0.54751
-0.000156321
0.00307114
4.41654
-0.135965
-0.251379
0.00352954
0.00161652
1.49293
-0.00460204
2.02615
8.62338
4.10578
4.04113
-0.293015
5.99716
2.30909
0.0257223
-0.216152
-0.0214544
-0.00475385
0.0154601
-0.0400558
-0.109697
4.48056
1.39572
-0.481648
-0.000101086
6.39647
1.44217
0.978856
0.100314
2.50887
0.300394
-0.481316
5.97345
8.08205
5.42004
-0.346103
5.48161
-0.322231
-0.148985
4.31084
0.000835738
-0.0976089
3.4117
4.01053
-0.275112
5.94813
7.35544
5.82099
-0.314656
-0.474803
0.327129
2.16033
5.57868
-0.0384216
7.23432
-0.0961325
-0.169244
1.31016
7.87741
4.49638
6.12987
0.332863
8.47188
-0.264082
-0.13629
8.74664
0.862279
-0.0547417
6.22776
6.44891
-0.20585
5.52163
6.88017
6.41357
5.87021
6.30631
5.28227
-0.113938
-0.254933
0.0233563
-0.178128
6.85552
-0.171163
3.11668
3.10401
-0.253157
2.06632
3.402
7.00094
2.0518
-0.00227071
0.674612
-0.159338
1.06993
1.03832
-0.182249
5.82134
7.08012
1.64586
6.94594
8.3543
-0.0448577
0.0286183
-0.0296276
-0.234349
4.80155
8.56924
2.58219
5.99546
-0.156084
5.23143
5.34745
0.615714
-0.362539
-0.450257
3.09239
0.0657152
1.46869
-0.262785
-0.395816
6.1135
-0.0664187
0.150457
6.44129
2.01009
7.7058
-0.0243075
5.18061
1.00845
-0.0999543
7.20769
8.00346
6.83836
-0.0653939
7.92716
-0.297251
7.05039
0.98735
6.76539
-0.178333
0.000319704
6.79216
7.07903
7.02292
6.81386
4.41633
1.86917
4.97734
-0.0566905
6.83309
5.91771
1.43302
1.10371
-0.109542
1.22544
5.993
-0.38609
-0.349368
7.04033
6.86967
-0.133798
6.68722
-0.200154
2.46938
-0.164358
6.97729
7.09461
8.38651
6.95236
-0.0375019
-0.156848
-0.0111544
-0.134423
7.68137
3.86698
5.85973
-0.39172
5.26899
0.301855
7.6975
0.429442
6.97885
-0.14895
7.52584
7.84111
-0.170701
2.58156
7.50255
-0.0386448
8.04169
0.263533
-0.0484167
-0.371697
6.30165
3.34918
-0.137856
6.69132
7.93955
5.32611
0.587293
-0.0947138
1.14158
6.84253
7.88383
8.56498
3.77291
0.000718815
-0.378273
5.95352
0.015694
-0.128977
0.0240896
-0.062107
0.10473
0.417633
7.26583
0.115669
-0.00824958
5.78973
3.6733
0.0124811
2.84137
0.0153701
3.28825
5.85264
6.73979
0.287866
2.77899
-0.0528503
0.606704
-0.0405343
6.91287
7.29728
0.41232
0.283231
0.162387
0.097474
6.75146
0.150205
0.262894
-0.0430998
0.667116
8.20964
0.0682354
1.80269
7.02325
-0.0844862
2.25004
0.204203
0.0263397
-0.0395286
-0.00172511
8.14901
5.11917
0.349416
1.46769
5.24948
6.60589
5.8817
0.910506
-0.180198
-0.0829161
-0.146755
5.64317
-0.308907
-0.0625599
-0.00201869
-0.240254
-0.019485
0.153515
6.38716
-0.0204011
6.88056
6.74562
-0.294728
-0.128845
8.31779
5.35299
1.46995
-0.139789
5.20658
-0.0910986
4.75821
8.16482
4.66807
-0.283018
-0.150545
6.26233
-0.246755
-0.105457
-0.0762988
7.39239
-0.19063
1.37366
5.10557
4.14742
5.78112
0.137462
4.48926
0.0846116
6.98433
-0.0637319
3.29162
0.0275337
-0.0243044
-0.00932602
-0.0213319
0.00920371
7.41517
-0.045059
5.10134
2.40296
0.474369
0.0954995
3.96024
8.49787
7.56399
0.342735
3.73833
0.250008
2.1552
-0.336639
3.05964
-0.352161
0.0108654
5.57571
-0.158176
0.137147
7.35365
6.11823
7.01674
0.605059
1.12351
-0.0886687
3.87888
0.717951
0.00128344
7.62663
2.65971
3.61067
1.56141
-0.00182913
-0.038616
0.0162605
3.48858
0.0026457
-0.0894352
0.123553
-0.132084
7.72461
-6.96123e-05
-0.113693
-0.440759
8.09686
0.199846
-6.6107e-06
0.239345
2.70174
5.71062
-0.143953
-0.116523
0.0541609
5.85979
-0.137873
3.68724
0.482231
0.349529
2.20535
5.55552
2.0105
3.69414
-0.0441615
6.08284
7.90835
-0.14169
4.92511
-0.148894
8.05373
7.80142
0.121267
2.20685
2.02622
5.04482
0.000382575
6.81681
8.70334
-0.0710704
3.14136
4.22432
0.00729617
0.00703914
-0.175992
8.44959
-0.0161062
-0.0840085
6.81332
0.0314767
4.95181
7.00248
-0.17787
7.5123
-0.205036
-0.127278
7.02518
3.79389
5.78111
-0.0479283
7.02201
3.49251
6.74314
-0.163298
-0.0146622
3.1623
7.58506
7.04756
7.624
6.89657
1.1506
-0.348972
1.62484
5.29909
6.7682
7.95684
-0.249677
4.33006
8.24762
6.39892
0.00798299
-0.37962
-0.20295
2.99069
0.609019
7.50834
3.89192
6.75107
2.299
0.673159
6.79265
1.23434
5.42465
0.26111
1.97214
-0.00132067
0.215309
-0.117704
8.02019
-0.121116
-0.164862
1.06579
3.44706
2.19924
-0.176933
1.58733
0.424137
-0.0441361
5.58858
3.42614
6.02827
0.47866
7.15323
0.0671192
0.00509274
-0.0318726
0.216675
0.228527
0.344879
0.0668612
4.31176
7.62541
3.24824
1.83279
0.138552
-0.111106
4.85253
0.193227
8.11918
4.39864
0.124567
-0.195689
1.02269
0.330277
-0.0650833
0.107978
0.732572
0.0105753
4.21853
7.80228
7.18411
3.89922
-0.0634491
-0.221124
-0.0278181
-0.0613866
5.68923
-0.15854
5.47907
0.0418103
-0.115321
7.65873
7.80149
0.00668577
6.84063
7.13714
2.87012
0.192059
3.32357
5.66828
7.78783
4.83764
0.192987
7.64248
1.9757
0.0113197
-0.0388649
0.197242
7.93203
0.244973
6.94759
4.48248
7.52086
0.52076
5.06561
5.16084
0.0814088
7.05818
1.06471
7.44436
0.00628989
4.73929
5.46888
5.37912
0.0132166
1.48918
-0.0242807
-0.234222
4.52749
-0.112195
5.08632
4.8417
8.39431
0.479391
7.46895
0.369464
0.330506
1.85129
6.81974
2.48352
1.20276
1.77635
5.95192
0.03087
8.2936
0.0442234
0.937346
2.34802
-0.242004
6.93896
0.0152955
7.2261
5.92777
2.83013
1.41473
3.17858
0.00312112
1.26641
7.36837
-0.142077
0.900061
4.57425
2.1422
0.867826
1.46364
-0.149027
7.79121
-0.20589
1.80557
0.968941
-0.36508
6.71719
8.52784
-0.299434
-0.120658
0.0885915
2.16348
0.00899513
2.80429
7.8252
7.54654
0.369635
3.21834
0.00126217
-0.305314
6.12856
0.16766
3.83334
-0.230889
8.19684
5.97305
-0.104023
0.186315
-0.0239795
8.27202
-0.234834
-0.01271
-0.246519
2.91302
0.0268888
-0.233404
2.63797
7.86875
-0.107408
8.05134
8.57972
-0.129814
0.85174
0.00572923
-0.051615
0.466859
-0.108673
8.21845
-0.189439
-0.0756292
5.50306
-0.134309
5.93343
-0.120169
1.44792
5.81657
5.56509
-0.160322
-0.0366442
-0.132187
6.46728
-0.233756
4.05232
-0.268603
-0.0771616
-0.290824
0.0140843
-0.0326566
-0.0732572
-0.0160962
0.919385
0.156501
2.61361
-0.0288105
-0.260941
-0.0698125
-0.182165
0.123924
7.71234
1.20324
-0.0977321
0.111032
6.32923
-0.0289467
5.63645
0.836101
1.91443
-0.143939
5.90505
4.09055
-0.333279
0.0615226
0.00983074
4.88857
0.000481365
5.53493
6.37657
0.108182
0.544108
2.70418
2.41406
0.0132225
3.00565
6.07182
-0.211497
5.31192
-0.321519
0.543911
5.13977
7.78531
1.11862
0.0534905
6.70742
5.16692
-0.23595
-0.159015
-0.136867
0.493125
-0.234803
-0.0918262
6.29388
0.115793
0.420951
6.27338
0.293253
-0.192706
4.06187
-0.0587993
3.14744
5.47577
1.11271
5.44364
-0.103847
7.6561
0.147355
-2.48241e-05
-0.00123384
1.7203
0.00387755
-0.130765
3.18606
0.421153
0.0291597
-0.0726426
-0.14321
3.75517
6.95929
-0.0114344
-0.165713
0.291364
5.13951
-0.19026
-0.155541
-0.257264
1.79481
4.13511
-0.0314852
-0.131072
0.852839
5.87167
6.23657
2.91951
5.58708
7.09028
0.026232
5.22019
2.44233
1.16345
-0.216351
0.780441
8.76623
0.141959
0.219386
-0.335487
5.81515
-0.160595
0.00310029
-0.288235
-0.330861
-0.056965
6.97611
4.39273
5.2558
6.3601
5.62793
-0.23606
2.95781
4.68429
1.69506
6.80386
3.62736
4.50061
-0.000183533
4.74029
-0.0675678
3.50765
4.65765
-0.094561
2.06423
2.03059
-0.164602
-0.106787
1.88065
3.38691
7.94474
3.56687
6.70153e-05
4.30257
-0.175485
4.66693
3.82028
-0.174856
-0.192234
5.08318
6.82164
2.68627
-0.45969
-0.278334
3.50263
5.31885
-0.330515
6.19473
-0.250721
3.09115
0.968194
7.50244
-0.00916207
0.0226853
-0.0594607
-0.299529
0.798546
-0.267394
5.30394
6.23333
0.115325
4.15851
0.132087
-0.189572
-0.000104458
3.70521
-0.00670816
4.2167
-0.00058958
5.4142
-0.429793
6.10298
0.8658
6.54107
-0.357051
-0.145927
-0.0131543
6.90583
-0.266488
2.19854
2.97397
0.162261
6.03802
-0.150317
0.144908
-0.319639
-0.0643945
7.02083
-0.0640469
-0.285759
-0.197938
-0.000241595
-0.221118
6.16947
0.010431
-0.410571
0.0265342
-0.0205438
5.74951
0.929817
1.82856
0.107407
0.0110715
-0.00525446
1.27877
-0.338245
0.0227175
-0.164678
3.90985
0.00190374
-0.307084
1.18907
2.98712
6.69478
-0.258909
0.0810524
-0.459369
-0.0370454
5.55292
6.19407
7.11333
-0.000784755
3.45342
-0.304354
-0.305767
4.37675
-0.163054
-0.178781
-0.234339
-0.0550213
-0.243332
-0.220562
-0.207165
0.029819
0.352715
5.37866
0.183309
4.27234
1.68628
1.20345
3.60754
2.60435
4.81719
0.67166
5.19743
0.00597523
-0.0548832
4.88648
-0.337255
5.68686
5.45048
-0.179047
-0.403125
0.00283313
-0.355771
1.59015
-0.275151
-0.288892
-0.290575
-0.253959
-0.422341
-0.219781
-0.210466
-0.103806
-0.426966
4.81204
-0.396771
-0.0495747
-0.435494
0.0409456
-0.446909
6.17789
5.99889
3.64808
7.29315
0.112284
0.691517
-0.347466
0.0361278
-0.0380181
-0.00272058
-0.000296033
3.54523
2.66783
-0.00327598
0.30628
2.26608
3.53867
-0.153287
-0.300948
0.127502
-0.041927
0.0246991
0.00030796
-0.433825
-0.0391537
7.76129
0.045069
-0.0241738
-0.264463
-0.24683
-0.226845
-0.355323
0.00914409
-0.223762
-0.166115
-0.40816
-0.120445
2.35939
-0.230475
4.13581
-0.37149
-0.0520209
0.784136
5.65655
5.86633
4.63436
0.439449
0.358327
0.157382
0.554211
-0.220207
0.486633
-0.381177
0.41824
-0.136422
-0.00530735
-0.000555939
1.63235
-0.112401
-0.014158
0.0953196
7.93666
-0.255756
0.0271133
7.55616
7.78804
-0.323743
7.68315
7.31709
5.65935
0.00830892
0.548342
7.84128
-0.0181784
-0.00885759
0.0614318
-0.305214
-0.12859
0.326015
-0.284411
-0.382916
-0.403686
0.0341522
-0.00591003
-0.147906
-0.134888
8.40225
-0.348414
-0.255984
8.43928
-0.0814062
8.16259
7.55563
5.40182
-0.277046
8.35433
2.10926
6.46861
0.394234
0.000251917
0.0220966
0.147149
1.26799
6.89883
-0.0441886
0.00584778
-0.324393
-0.00408347
0.313755
3.50083
-0.00369723
5.61426
-0.128243
-0.0674146
-0.309228
-0.290381
2.99158
-0.0851873
7.64886
0.0240638
7.14593
0.139278
-0.327728
-0.00121211
-0.495659
-0.029657
-0.463458
6.39137
6.78622
-0.00103512
7.73312
-0.273908
0.0128852
-0.0272656
7.18553
0.057546
-0.0165778
-0.00737537
0.0142634
0.00537289
-0.00423516
-0.0142054
7.92031
-0.00944569
-0.0502717
0.128575
8.05259
8.61787
-0.113882
-0.317236
5.73996
8.49783
-0.284172
-0.342117
-0.000797893
0.594052
7.11417
5.64904
0.0112858
-0.284984
-0.340152
7.30255
-0.136052
-0.143273
-0.164164
-0.166664
0.044994
5.9796
-0.00347459
7.42156
-0.0525288
7.94038
-0.0172524
7.52589
-0.263025
1.66984
-0.0557577
-0.000653645
0.0133806
-0.121811
-0.23869
-0.0514396
0.00734609
0.0367625
-0.0572314
-0.314277
0.00722441
-0.225655
-0.214475
0.0242738
2.02449
0.000207133
5.61222
-0.35841
0.0157769
0.0551126
0.00301556
8.16948
-0.196238
-0.136066
-0.134313
-0.388514
-0.312019
5.36986
5.92604
0.11662
-0.242918
0.464011
2.2738
7.39144
-0.422819
5.33912
6.16669
-0.00116298
-0.343508
-0.336452
0.0251915
-0.0179961
-0.0187927
0.01862
-0.129509
-0.116893
0.18379
-0.120468
0.41275
3.7347
0.181142
5.59645
2.56989
-0.152798
-0.000853849
0.0118224
6.86771
-0.0168277
-0.364629
-0.0159764
-0.415839
-0.184944
4.55569
1.4406
7.86654
0.00465358
0.0103026
-0.399067
3.98987
0.0637786
7.51557
2.60405
-0.346337
-0.236833
-0.0784901
0.264908
5.31185
0.935641
6.99241
-0.431611
-0.00431599
-0.0351196
-0.17646
0.00253581
-0.0103495
-0.0631428
-0.152433
0.16155
-0.385325
-0.00268248
-0.38845
-0.0327679
-1.80615e-05
-0.00368233
0.063762
0.00964272
-0.00620705
-0.0373418
0.70607
0.0155611
1.37931
-0.217152
5.72281
-0.339685
-0.0844972
-0.000720074
-0.0911513
-0.286821
0.0849408
-0.108367
-0.000325636
-0.0963157
-0.0037947
-0.00112322
1.68191
2.55413
-0.163486
0.00455758
1.20529
0.190176
6.06955
4.78855
5.66454
-0.037431
-0.075876
-0.0122318
-0.117217
7.0814
5.44091
-0.0342014
-0.0285009
4.16364
5.45318
7.76777
0.00244992
-0.0596095
-0.130689
-0.0009835
0.00212779
-0.0029177
0.0179837
-0.0342095
5.70631
0.060424
0.00163035
0.145807
0.0138869
1.62368
0.0913447
4.13106
0.0177797
2.81116
-0.307731
-0.450302
3.21546
2.74929
0.00367774
3.25391
7.38887
-0.36419
5.88495
-0.468027
-0.105682
6.30382
-0.020191
5.40053
-0.046326
0.495672
0.117358
-0.124001
-0.240164
0.0112414
-0.00518257
0.653799
-0.0001482
-0.192105
-0.412838
7.48967
0.365591
0.0567305
5.60937
-0.000248813
0.00726439
0.257319
-0.0140308
7.30661
-0.0352741
0.0090115
-0.248316
2.35034
-0.113532
0.0190612
-0.0064783
2.14944
0.15227
0.00581853
6.73878
8.02072
0.0190641
1.13103
0.000607732
5.98241
-0.00863813
-0.0560659
-0.00257449
-0.000125563
0.0925371
0.0651837
0.0162897
-0.00875957
-0.012012
0.249818
-0.00532726
-0.00617602
0.168305
6.3753
6.66251
0.224302
5.1528
1.76819
-0.00113611
5.50742
-0.0458155
0.0271384
0.0673065
1.16441
-0.00606097
0.686004
-0.026483
0.00576888
3.30933
-0.25588
-0.198714
2.82974
4.57269
2.75074
0.000384741
-2.44133e-05
-0.268879
3.89389
-0.0662361
-0.227353
-0.0084328
5.4507
0.642424
6.36948
4.57916
-0.245046
3.04577
-0.0169699
5.67668
1.54962
-0.32385
-0.00460168
0.01703
-0.231977
-0.269773
-0.200027
-0.311966
2.56459
-0.150794
4.07654
0.00358266
0.0723847
-0.0144525
2.30683
0.605546
0.0670138
-0.00048698
0.536741
3.79525
-0.37866
0.472998
0.418934
1.8409
0.371607
-0.00733167
0.00982904
6.1331
6.55307
6.85172
0.00361536
6.59301
6.03701
6.62126
-0.0506764
-0.00773153
0.00462175
4.21425
5.02277
-0.100413
-0.402435
-0.427067
-0.156386
1.99691
-0.24144
-0.131428
5.2638
0.0233804
-0.206116
-0.00233959
-0.279252
6.65719
-0.158456
0.00181405
-0.00014488
7.1556
5.94729
1.4015
3.73411
-0.223127
1.26772
-0.260422
1.12483
0.997514
0.900312
3.57275
-0.301146
2.51633
-1.88231e-05
6.4625
-0.00394794
-0.0474241
5.68044
0.38643
-0.144649
-0.476247
1.24681
2.86295
0.197785
-0.00483468
5.33726
0.00811364
-0.159305
1.64911
-0.00508958
-0.0860324
0.0215086
-0.438799
-0.390712
1.47907
-0.0102175
1.32071
-0.100055
1.17616
1.04476
-0.15892
-0.269142
0.927649
-0.390864
-0.249944
-0.21454
4.51913
-0.290231
-0.125825
-0.00291865
-0.299739
-0.388321
-0.00342308
4.47422
6.29058
-0.365813
-0.299229
-0.192922
-0.145191
-0.00696115
0.0119073
-0.0542429
1.04573
-0.00426821
0.308079
-0.404959
-0.413966
0.0150594
-0.00352322
4.3853
-0.0610474
2.34679
4.81946
0.0764999
-0.409513
-0.402472
-0.00343822
2.18544
-0.441204
-0.439429
2.01933
3.2057
9.06183e-05
1.86484
3.46963
-0.00514902
2.6272
-0.177832
0.280495
5.29801
-0.0725153
0.00306462
0.0016323
4.90406
0.554709
-0.141883
-0.451728
-0.21573
-0.137333
-0.0933232
-0.373741
2.41132
6.97083
7.72752
5.75724
-0.00353667
4.36307
2.21389
-0.217954
-0.464159
4.29656
-0.411875
0.461455
-0.00724402
-0.394225
5.37666
-0.00223569
-0.0968706
-0.130316
0.68345
0.0101063
5.81692
-0.41061
5.66966
-0.27265
-0.358041
0.172179
-0.0154357
5.12956
-0.171803
-0.131843
-0.000388057
0.312467
0.8128
3.02313
-0.115654
0.00192138
3.24255
-0.000581239
4.06824
2.84285
0.00708465
4.13218
-0.124287
-0.00287507
-0.159885
-0.0087974
0.0136098
0.0480545
4.72178
-0.191006
0.0170692
-0.141205
-0.208609
4.94231
6.61768
0.00565885
-0.131045
-0.0935367
-0.134918
5.1342
0.423829
0.00879384
3.84143
2.9093
5.76179
-0.0800272
0.012848
4.2776
0.0177948
-0.456396
0.446472
7.16425
-0.105093
-0.183678
0.0109462
-0.0733495
7.1116
-0.360191
7.94942
2.98718
-0.127683
-0.0127491
-0.111773
0.167507
0.00310687
-0.149947
6.99646
0.00011827
-0.038083
7.05926
-0.00717293
-0.141909
0.00360495
-0.0248912
0.00355452
0.985415
0.0942833
-0.0254915
0.0451126
-0.0106077
0.00215452
0.00222746
-0.00211778
-0.0696984
0.0026718
-0.0174853
0.2935
-0.0780875
7.89254
1.10204
-0.0135428
-0.0746506
0.000174508
-0.179892
0.00183059
2.27879
5.51671
-0.0306535
0.00991005
-0.0363548
1.84238
0.0290274
8.2773
0.0307653
-0.0239672
4.06853
0.198476
0.00254528
-0.289663
5.56418
-0.0106759
5.35231
5.65879
-0.21546
-0.282951
6.46323
-0.179232
-0.0313022
-0.365879
4.43917
2.31281
-0.214574
-0.00501011
6.76701
-0.0150122
0.36913
-0.0833891
-0.0424927
7.52972
0.0152938
0.00108967
-0.275807
3.65999
8.0072
5.51038
8.59431
-0.0673805
7.46932
-0.00689386
4.55894
-0.0535904
-0.0135722
3.0667
-0.123439
2.17347
0.00147441
-0.416472
8.06795
-0.153129
0.774164
0.0304698
-0.0206269
3.24816
0.0376254
-0.345624
0.00232382
-0.0656278
-0.00331298
8.31923
-0.228727
-0.331585
1.76206
0.364881
2.89417
5.27799
0.00416106
0.684484
3.46129
5.89594
8.37374
-0.000519573
0.558507
0.424028
-0.0274924
3.77168
4.13051
0.487673
7.20792
2.45332
3.35687
-0.180881
5.31363
-0.428964
0.00310015
0.00126438
0.00223985
-0.00789157
0.0220091
-0.311217
0.00110691
0.0147183
0.139979
-0.0021876
4.08933
0.0833274
-0.000372562
7.96588
0.0068749
-0.00286061
6.61948
8.32974
-0.453123
-0.0368531
6.41584
-0.116716
7.5295
1.55384
-0.00566305
-0.176575
0.00389093
0.0451495
0.0115277
5.53913
0.000179341
0.004783
7.10333
-0.00965362
0.0370894
-0.112152
-0.297874
-0.388112
0.00288397
1.94368
-0.43042
0.00240857
-0.341578
-0.0281003
4.31959
-0.00202966
-0.00197596
-0.0260538
7.0464
-0.114319
-0.0699176
-0.0194129
0.033905
6.73357
0.200341
2.67819
6.42823
-0.0130698
7.56679
6.1989
-0.135044
-0.172328
0.00641097
-0.260015
7.50259
0.054917
-0.0117159
0.00154048
-0.424804
-0.0881675
-0.0138037
0.00448818
7.56932
0.00121729
5.77801
-0.0537902
-0.199826
0.00181784
0.127183
0.0108277
6.58502
6.70249
3.0839
-0.00895763
-0.369755
-0.056053
2.87055
2.26155
3.99202
-0.222288
-0.0942175
-0.518959
-0.00607576
-0.00752104
-0.016183
-0.0149952
-0.0104607
-0.0124447
-0.028417
-0.0786449
-0.46862
-0.0238273
-0.0328729
-0.455277
-0.00385649
-0.0177857
0.000754672
8.80531
1.96271
-0.022371
0.0667368
-0.02032
0.00055535
-0.00452726
-0.0439527
-0.0379274
-0.345849
0.00103882
-0.516298
-0.00656119
-0.0188814
0.00220759
-0.390695
-0.202472
-0.0495773
6.92335
-0.0133701
5.64651
-0.27005
7.22365
-0.509622
-0.504273
-0.497214
-0.487961
-0.477061
-0.466492
-0.452579
-0.00325153
-0.439037
-0.42282
6.64468
-0.391198
0.555163
-0.333595
-0.00537114
0.0276972
-0.210282
0.00163574
-0.0275946
-0.00135065
-0.0258022
0.946079
-0.0222228
3.59526
5.94272
-0.101139
0.0283418
-0.443473
0.08004
-0.0604226
-0.0847247
-0.347097
-0.00473049
8.07915
-0.20582
-0.194216
-0.0301303
-0.0256697
-0.0538817
-0.0443007
-0.51554
-0.0678504
-0.029573
-0.18568
1.64573
0.00132515
-0.00269674
-0.0312713
0.446855
-0.0341471
-0.0502755
-0.0389999
0.00183281
0.00524255
0.00903216
0.00539458
-0.0255745
-0.0570296
-0.0617278
6.54209
-0.0137391
-0.045614
-0.0294322
0.019772
0.00364661
0.00495715
4.59081
-0.033293
6.14216
-0.0725178
-0.0161602
0.00169869
5.4976
0.158052
0.00507956
-0.00219699
-0.00226777
-0.14444
-0.0644161
1.60191
-0.00263891
0.0225488
-0.0116312
-0.0334142
-0.0189711
-0.081628
0.0357763
-0.121482
6.43073
-0.372046
-0.17075
-0.00787745
-0.00176251
-0.392811
0.000873109
0.292515
-0.0750467
-0.0841376
0.00816502
-0.0556482
-0.117062
-0.131602
-0.00975554
0.00157956
-0.27652
-0.00809394
-0.0925841
-0.104198
-0.0937076
-0.00159879
7.57423
-0.00668951
8.62905
-0.104837
-0.115644
0.129806
0.00132558
0.000975291
1.00912
0.00551238
0.302045
-0.00353737
1.28948
-0.104319
-0.00312797
-0.00126737
0.0543071
7.43721
-0.00300052
-0.192297
0.109122
6.37912
-0.248112
-0.0641527
0.00113962
0.733668
-0.176222
-0.0226435
0.0916181
0.00416496
0.174221
8.00292
-0.072449
0.0196643
-0.151679
-0.00230394
5.71931
6.33206
-0.00100934
-0.0301178
4.91041
-0.00251981
-0.075781
-0.0018056
-0.00408653
-0.118467
-0.309378
0.130468
0.762941
-0.00689968
-2.91036e-05
-0.00206931
0.0867364
0.068523
4.20725
-0.167927
-0.00129649
6.09895
0.0385162
-0.0177712
-0.376557
-0.127921
-0.00815517
-0.00156171
0.151763
-0.024901
-0.11328
0.000294565
-0.00590541
4.17087
-0.0839019
4.91766
7.14548
0.100432
0.052397
-0.225186
-0.092961
7.93812
0.19042
-0.0344766
0.000950041
5.69687
7.6672
3.96667
1.659
-0.357767
-0.000786782
-0.415051
-0.00505436
0.0156159
-0.192081
5.37037
-0.219152
-0.00208825
0.0366944
-0.00950102
1.96508
5.53379
0.00718061
-0.406286
-0.0114565
-0.016851
-0.0218996
7.54032
0.0537987
-0.0140648
-0.00672306
-0.066685
-0.223131
1.95506
-0.0502711
0.04095
-0.0264719
-0.00281222
0.188163
5.29114
-0.508918
-0.0199194
0.228228
5.54099
-0.0139504
2.46584
6.49634
0.0133394
0.00062043
2.62538
4.98999
2.98889
4.30345
-0.298988
-0.0227349
0.00620318
5.33737
-0.333406
0.0302457
-0.225598
-0.135992
0.128907
-0.35845
-0.0162747
0.00655788
5.11031
0.044532
-0.38702
6.68322
-0.198587
6.34607
-0.000253643
-0.380046
6.06734
8.01886
0.257742
-0.0430856
-0.12261
-0.0123048
-0.0196597
6.18928
0.177695
-0.27122
-0.0183032
-0.0145066
-0.0237173
0.0540321
-0.00867273
4.62162
-0.00715618
0.225788
-0.0294523
-0.0687897
-0.0114967
3.53438
5.61836
-0.499436
-0.493274
-0.485416
-0.0103805
0.0680377
-0.00586679
-0.474619
-0.464744
3.7863
5.82152
-0.45269
3.59526
-0.198367
0.159194
-0.176331
-0.439519
4.27853
3.3062
-0.424467
-0.120376
5.95141
4.55981
-0.021568
0.00225105
-0.0218539
7.40818
-0.0030442
0.00174532
-0.0338303
-0.0269998
-0.0170406
0.0356763
-0.0312179
0.163881
2.49601
-0.127189
0.0017157
-0.306712
-0.296073
-0.203282
-0.285628
-0.504963
-0.0232165
-0.0450143
-0.0389653
-0.0282775
5.95019
-0.0358776
-0.0446225
0.673348
0.00097257
7.26836
5.72785
-0.279203
-0.0406498
-0.00422456
-0.0460838
-0.000991984
5.75681
1.33489
-0.0137467
0.597403
-0.00335557
0.529126
-0.0155856
0.468278
0.415671
6.79884
-0.19958
-0.00346014
-0.0244755
0.0655827
3.69133
4.98489
-0.397485
5.20733
7.63061
0.0217706
-0.104524
5.02453
-0.0523406
1.50637
7.29496
4.91368
-0.147992
5.03149
-0.0492562
-0.109154
-0.0186558
-0.0221753
-0.377077
-0.000621376
1.36534
1.22744
1.09276
0.9731
-0.193424
1.7746
0.00773027
-0.0254388
3.80949
-0.120901
-0.00164985
-0.0341803
-0.0592137
-0.382002
-0.00166425
-0.167927
0.429294
8.53609
1.5925
5.84884
2.12608
8.9545
1.42974
1.27677
6.9735
7.15441
-0.191035
3.65355
-0.00174872
0.945947
1.13854
-0.0667216
1.01418
0.174957
-0.257408
-0.02607
-0.05397
-0.0751469
0.0248086
-0.0604214
5.47544
0.198947
0.0972413
0.0167477
-0.355297
0.0831979
6.52371
-0.00634794
5.20732
-0.111189
-0.220566
2.4509
2.76396
-0.1808
-0.494395
0.0439258
5.70456
4.40448
4.12369
0.320727
0.0105078
2.28504
2.12306
0.0387681
-0.0042484
-0.0199797
-0.0787872
1.96644
0.0372962
3.27663
-0.0848665
6.20471
5.72023
0.018631
5.81275
-0.00146672
7.07917
6.73354
-0.0437046
2.53893
-0.399883
0.0793004
8.92399
0.0414589
-0.160272
1.93736
-0.00101981
-0.0876619
4.83093
5.81444
-0.0727934
-0.279914
2.33501
-0.0219594
4.17993
5.02987
-0.0978959
0.735153
-0.011213
-0.109195
0.00391508
0.00546551
-0.0259143
-0.0675828
0.489622
-0.0962757
2.41984
-0.00741994
-0.166965
0.366827
3.37192
-0.471186
0.0566061
4.87456
0.0354288
0.000235944
-0.0387611
-0.0279674
-0.379476
-0.175565
-0.108184
0.0429027
3.96047
3.1291
1.61821
-0.143127
5.98506
-0.120636
-0.101371
3.45637
8.90151
5.84033
0.0587435
-0.317716
0.134194
-0.20578
-0.162654
2.95462
8.76792
-0.13828
-0.202622
2.76623
-0.00160109
-0.0945806
0.00550085
-0.0564678
6.39842
3.81452
0.00314623
5.76211
-0.319383
-0.00819836
-0.211132
-0.0682033
-0.00420521
-0.077369
-0.201818
-0.0717739
3.95227
8.52137
6.23614
0.376291
0.747846
8.61837
6.67791
8.44189
0.00415789
-0.183475
-0.0158379
8.72635
8.32764
2.39907
4.80559
0.256363
8.20924
0.81963
0.0459425
1.80183
8.0807
-0.0958588
-0.141336
4.20622
7.96016
5.86198
4.28049
1.1067
7.82822
-0.00768927
-0.424417
7.80137
0.0181831
-0.105464
0.251627
7.6977
-0.0148989
6.00081
7.56603
-9.91706e-05
0.862471
-0.059613
-0.0152596
0.0464988
5.7577
7.36491
1.235
5.60022
3.43274
-0.35808
-0.00121181
-0.00185839
-0.205435
0.000537492
4.28558
0.131757
-0.0536951
-0.173338
1.71992
0.143725
-0.25012
-0.0183303
5.95058
-0.246208
0.364717
-0.228702
-0.205518
2.49816
-0.237335
4.88546
5.65876
6.1861
1.33739
-0.128944
6.35008
-0.222416
0.640632
2.10661
3.2757
5.29039
4.49084
6.39374
3.67933
2.89171
-0.184982
-0.194271
4.08077
6.43175
0.974221
-0.233924
-0.224742
-0.176835
-0.0963037
-0.154778
0.0352908
-0.214661
-0.062637
0.0834511
-0.158244
1.09392
0.00277565
7.44044
2.24165
2.7584
-0.0570889
-0.00315604
5.57296
-0.0836456
-0.192105
-0.0916026
-4.44428e-05
-0.130267
5.16349
7.31655
-0.0723552
0.0624059
-0.112392
6.11082
0.000226865
-0.00132878
0.267462
-0.0615145
0.150514
-0.337929
1.92857
-0.231382
5.41892
0.256107
7.19729
0.12727
0.000267998
6.65394
0.920261
-0.233918
-0.00104178
-0.235861
6.03276
0.24336
-0.0643167
7.08104
6.24399
-0.00714805
4.76574
-0.174979
-0.133256
-0.00078323
7.13794
8.18581
-0.508701
3.2266
-0.0747395
5.73242
0.104087
6.96379
-0.118797
6.19687
-0.124922
-0.00587929