/*--------------------------------*- C++ -*----------------------------------*\
  =========                 |
  \\      /  F ield         | OpenFOAM: The Open Source CFD Toolbox
   \\    /   O peration     | Website:  https://openfoam.org
    \\  /    A nd           | Version:  7
     \\/     M anipulation  |
\*---------------------------------------------------------------------------*/
FoamFile
{
    version     2.0;
    format      ascii;
    class       volVectorField;
    location    "15";
    object      U;
}
// * * * * * * * * * * * * * * * * * * * * * * * * * * * * * * * * * * * * * //

dimensions      [0 1 -1 0 0 0 0];

internalField   nonuniform List<vector> 
117990
(
(1.01819 -0.0377067 -5.31015e-19)
(0.999228 1.06602e-05 -2.6769e-21)
(0.876263 0.0178022 -1.78497e-19)
(0.930623 -0.0406173 3.93695e-20)
(1.05091 -0.0303093 5.02926e-20)
(0.960072 -0.0548923 1.35879e-21)
(0.844392 0.00772642 -1.27967e-18)
(1.10736 -0.0498346 -1.23473e-19)
(0.982081 -0.0238937 -6.86554e-22)
(0.99917 7.35221e-05 5.65733e-22)
(0.984839 -0.00148207 8.85383e-21)
(1.00948 -0.00790968 4.75637e-21)
(0.998695 -0.0485314 5.39283e-20)
(0.575978 -0.016638 1.37822e-18)
(0.981938 -0.0244729 6.76637e-21)
(0.675841 -0.0891712 3.06745e-18)
(0.992244 -0.0195715 2.33504e-21)
(0.978225 -0.0134661 -1.12205e-20)
(1.00846 -0.125011 1.28275e-18)
(1.05094 -0.0290283 1.81455e-19)
(1.10836 -0.0374262 -1.17617e-18)
(0.783296 -0.00563269 -1.97432e-20)
(0.975069 -0.0177284 -9.97922e-21)
(0.917364 -0.0307532 2.37733e-20)
(1.21285 -0.0288456 9.02895e-19)
(0.911582 0.181266 1.44424e-18)
(0.264375 0.203047 -1.58134e-19)
(1.11708 0.00105841 9.37049e-19)
(0.998926 -0.00339035 3.13832e-21)
(1.05311 0.106511 -1.14925e-18)
(0.991433 -0.003122 7.3e-21)
(1.05052 0.0818496 3.40561e-19)
(1.07212 -0.013165 -6.8474e-20)
(0.810352 0.000394409 9.43564e-20)
(1.22929 -0.0326174 3.80988e-19)
(0.911773 -0.0449573 7.98023e-20)
(0.865725 0.0858829 2.14621e-19)
(0.992273 -0.0199811 -1.14502e-21)
(0.613453 1.26121 2.2823e-20)
(0.905155 0.0312463 2.94402e-18)
(1.05267 0.0812462 -6.61857e-19)
(0.97793 -0.0139192 -2.09213e-21)
(0.88613 0.0223319 4.04197e-19)
(0.911289 -0.0440005 -5.61375e-20)
(0.986703 -0.109702 5.09354e-20)
(0.578125 -0.0169082 -1.43557e-18)
(1.04667 -0.00436151 6.55003e-19)
(1.10738 -0.00514399 1.6025e-19)
(1.02864 -0.0333563 7.16585e-20)
(1.00944 -0.000817304 -2.16974e-20)
(1.00035 -2.92497e-05 8.98527e-24)
(0.842229 -0.00546735 7.1813e-20)
(1.04642 0.0522832 1.02987e-18)
(0.999395 4.29713e-07 -4.32324e-22)
(0.999584 -0.0305054 -2.56082e-19)
(1.04566 0.0515143 -2.55881e-19)
(1.08137 0.00804638 8.46801e-19)
(0.89392 -0.131008 2.85994e-19)
(0.376606 0.215103 6.45395e-19)
(0.910334 0.0108506 -5.10982e-19)
(0.995244 -0.0118227 -2.48167e-21)
(0.916873 -0.0261889 -2.1939e-20)
(0.955697 -0.00236625 -1.80146e-20)
(0.836647 0.0313554 -4.6671e-20)
(0.995941 -0.00329347 -8.00822e-21)
(1.05082 -0.000584966 -1.35788e-20)
(1.00248 -0.0437769 -2.882e-19)
(1.07904 0.0417342 8.90822e-19)
(0.366624 0.101217 3.67054e-19)
(1.0905 0.0075513 3.69836e-19)
(0.831693 0.153649 7.41727e-19)
(0.413374 0.0803812 -8.6821e-19)
(0.910208 0.0321556 1.3263e-18)
(0.770235 -0.0171397 3.29569e-19)
(1.02519 -0.057324 2.58741e-19)
(0.814689 0.00659646 9.77627e-20)
(0.798679 0.238328 -3.35132e-19)
(0.99701 -0.0485005 1.08214e-19)
(0.99754 -0.2021 -4.60676e-19)
(0.97588 0.14398 8.67108e-20)
(0.971008 0.149893 3.07761e-19)
(0.996839 -5.28718e-05 2.7307e-22)
(1.08767 -0.255982 -4.14745e-19)
(1.13039 -0.000981253 -4.23525e-19)
(0.848926 -0.0320969 3.98576e-20)
(1.00914 -0.00768449 4.67473e-21)
(0.866618 0.0340282 2.43303e-19)
(0.999306 -0.00123005 -3.54351e-22)
(0.811327 -0.0249773 8.78625e-22)
(0.999291 -0.00202829 1.53604e-21)
(0.356657 0.732858 5.99428e-21)
(0.841281 -0.00637948 -6.01652e-20)
(0.998713 -0.00330361 -3.98352e-21)
(0.928224 -0.043502 6.02998e-20)
(0.973387 -0.0166219 -1.71647e-20)
(1.02154 -0.00296851 9.24566e-21)
(0.976963 -0.00106173 -3.95192e-21)
(1.09191 -0.254137 -3.20082e-20)
(0.909656 0.44224 -2.96214e-20)
(0.809065 -0.0236505 1.94659e-19)
(0.995162 -0.012097 2.51315e-21)
(1.10349 0.00936989 -8.6715e-19)
(1.04002 -0.0169698 -5.26994e-19)
(1.08229 -0.00322852 -1.73e-21)
(0.829511 0.153521 4.96639e-19)
(1.10468 -0.116418 -4.35192e-19)
(0.923363 -0.0238699 -8.13764e-19)
(1.0415 -0.157456 -3.41629e-19)
(0.953782 0.0305482 -1.26116e-19)
(0.998973 -0.0038934 -1.89037e-21)
(0.890083 0.169512 -6.84102e-19)
(0.977204 -0.00139015 1.58426e-21)
(0.783951 0.24848 2.1058e-19)
(0.976286 0.0250453 7.49873e-19)
(1.22304 0.0345618 -1.22054e-19)
(1.0135 -0.00799552 9.50688e-19)
(0.984648 -0.00124839 -1.63456e-20)
(0.820362 0.143554 -9.66307e-19)
(1.00121 -0.00106797 1.69462e-22)
(0.410322 0.0906003 6.0069e-19)
(0.820281 0.142473 1.38371e-18)
(0.673632 -0.0901905 -1.23135e-18)
(0.883371 0.0189477 -1.61497e-19)
(0.542225 0.241448 4.83179e-19)
(0.999251 -0.000122714 -5.3253e-22)
(1.0476 0.110548 1.32731e-18)
(0.917731 -0.0266645 1.92914e-20)
(1.17792 0.0969537 -4.02736e-19)
(0.908409 -0.00418362 1.3552e-21)
(1.12081 0.001393 -7.77475e-19)
(1.0361 -0.0569484 -5.833e-20)
(1.01465 -0.00221569 7.35401e-21)
(0.784131 0.11585 -6.22984e-19)
(1.00916 -0.00727792 -1.42625e-20)
(1.00133 -0.000940197 7.92375e-23)
(1.01376 -0.00879155 2.00853e-18)
(1.21821 -0.0657358 -2.46748e-19)
(1.06892 -0.010888 -8.71863e-20)
(1.00143 -0.0304953 3.52055e-19)
(0.918336 -0.0283918 -2.0045e-19)
(0.784368 -0.130558 3.97663e-19)
(1.02427 -0.0142586 4.82152e-19)
(1.00338 -0.000211388 -5.72903e-21)
(1.03467 0.0689387 1.28334e-19)
(1.03292 -0.0564775 8.60458e-19)
(1.00022 -5.8277e-05 -8.70806e-24)
(1.06201 0.0102863 6.27965e-23)
(0.915886 -0.0234268 6.76146e-20)
(1.08149 0.042113 -1.37509e-18)
(1.04284 -0.0367165 -1.73763e-19)
(1.10087 -0.11503 3.33322e-19)
(0.981525 -0.107511 -3.67831e-19)
(0.839028 -0.00674251 -3.80197e-20)
(0.998978 -0.00011121 2.39698e-22)
(0.843942 -0.00497232 4.23472e-20)
(1.08344 -0.0131537 4.13275e-19)
(0.998961 -0.00398227 2.41387e-21)
(0.998497 0.133965 1.05345e-18)
(0.800177 0.00452907 8.20077e-21)
(1.19606 -0.150014 1.6625e-19)
(0.814809 0.0113251 -5.32918e-19)
(1.0625 0.0116248 4.95079e-19)
(0.956405 -0.0020812 -1.33047e-20)
(1.02309 -0.0873543 -4.77534e-20)
(0.967902 0.0104933 2.81806e-19)
(0.951038 -0.0258717 -4.66189e-20)
(1.08293 0.00249385 4.25526e-19)
(0.948612 0.0102281 4.4039e-20)
(0.984091 0.137859 -1.53673e-18)
(0.954804 0.0132734 -3.23992e-19)
(0.92554 0.00564981 -4.21989e-19)
(1.05035 -0.00822366 -3.69906e-19)
(0.320926 0.810225 6.55008e-20)
(0.634903 -0.0702896 2.15789e-18)
(0.990299 -0.0777419 -4.06848e-20)
(1.09244 0.0270114 -3.91179e-20)
(0.634425 -0.0688061 -4.76777e-19)
(0.951269 -0.0525298 -4.64139e-20)
(1.04527 0.00463582 1.37042e-18)
(1.02823 -0.0353167 1.17278e-19)
(1.0866 0.00385059 8.3292e-20)
(1.02114 -0.0579628 2.95116e-19)
(1.06383 -0.0937453 -5.5399e-19)
(1.03562 0.0610831 5.51908e-19)
(0.926043 -0.0299749 1.91301e-18)
(0.980906 -0.0416925 -3.10041e-22)
(0.909305 -0.0345766 -2.02462e-20)
(1.00014 0.00211067 -5.74151e-19)
(1.05398 -0.00750853 1.2495e-18)
(0.375596 0.734335 -2.18396e-20)
(0.95395 -0.0516986 -1.54383e-20)
(1.02733 -0.015298 -3.23455e-19)
(1.03574 -0.191504 -8.05038e-19)
(0.869206 0.00303569 -7.61696e-19)
(0.919279 0.179707 -1.91251e-18)
(1.13105 -0.167066 1.98195e-19)
(0.629678 -0.0655952 1.41801e-19)
(0.732148 -0.000592303 -6.03938e-20)
(0.832272 -0.0019365 5.54898e-19)
(0.983548 -0.0150534 4.10904e-19)
(1.03221 0.0525271 7.22998e-19)
(0.917935 -0.161659 8.29622e-19)
(1.0927 0.00885642 2.46573e-19)
(0.99927 -0.00146839 -2.42349e-21)
(0.903547 -0.0359428 -2.2588e-21)
(0.826434 -0.0559107 3.64312e-19)
(0.964029 -0.0439371 -1.42063e-20)
(0.996008 -0.00330852 6.16806e-21)
(1.09754 0.00868758 -2.06463e-19)
(1.05451 -0.0708233 -1.26251e-18)
(0.627896 -0.0639567 -1.20354e-18)
(0.922281 -0.0164315 -5.06378e-19)
(1.21081 -0.02989 -6.6971e-19)
(0.999336 -0.0020274 2.01323e-22)
(0.963709 0.0182809 9.20136e-19)
(0.870142 2.48074e-05 3.78587e-19)
(1.03562 0.0928723 6.10785e-19)
(1.05176 -0.0116415 7.40542e-19)
(0.573127 -0.0137742 -8.2962e-19)
(0.991035 -0.0135764 1.24331e-21)
(0.976672 -0.0714364 1.5536e-20)
(0.870335 0.0182969 -2.67207e-20)
(1.0295 -0.02751 -3.38798e-20)
(0.805631 0.00581079 -4.49858e-19)
(0.999394 -4.30807e-05 6.21125e-22)
(1.1807 -0.0752725 7.06667e-19)
(1.02125 0.0140607 -6.27912e-19)
(0.816423 -0.00560806 5.92352e-19)
(1.13016 -0.164686 1.13464e-19)
(1.14584 -0.095873 3.94263e-19)
(1.1088 0.00777672 -8.50983e-20)
(0.979321 -0.121856 -6.65066e-20)
(0.793514 -0.098082 -3.39029e-19)
(0.940669 0.00212471 3.65449e-19)
(1.0401 -0.0554905 -3.91541e-19)
(1.03169 0.052551 1.0837e-18)
(1.02515 -0.00207955 1.03323e-20)
(1.03821 -0.0197967 5.75613e-19)
(0.953638 -0.00372604 -1.33154e-19)
(0.840125 -0.00779655 -9.34077e-20)
(0.498002 0.583255 -2.58111e-19)
(1.00646 -0.0293761 8.01327e-21)
(1.20064 -0.149542 -2.12513e-19)
(0.922422 0.458671 2.21969e-19)
(0.905657 -0.0038557 -6.92246e-20)
(1.03976 -0.0336269 -3.45487e-20)
(1.06005 0.0583661 9.8612e-19)
(0.812665 0.00369469 1.00662e-18)
(0.948233 0.0103825 1.59467e-20)
(0.778914 -0.107477 5.52983e-19)
(1.00871 -0.143677 -4.16321e-19)
(0.941334 -0.0556275 -2.8213e-21)
(1.05758 0.00764995 -3.72051e-18)
(1.02113 -0.0438562 1.78643e-20)
(1.1846 0.093042 -7.66137e-19)
(1.08624 0.00270522 -5.71552e-19)
(0.665495 0.282405 -7.58866e-19)
(1.12995 0.00199545 3.87087e-19)
(1.01707 -0.000389984 4.99935e-20)
(1.11406 -0.0485857 -1.28373e-20)
(1.08925 0.00575392 -1.33488e-18)
(0.576814 -0.00886993 5.09483e-19)
(1.03305 0.0654946 -7.92198e-19)
(0.800623 1.35547 -4.36393e-20)
(0.952158 0.0311013 -9.73594e-20)
(0.933568 -0.0418315 -1.25121e-19)
(0.549484 0.23825 7.83835e-19)
(0.909551 -0.0105701 7.52981e-20)
(0.810371 0.215434 -3.96763e-19)
(0.808132 0.24291 7.32363e-20)
(0.996141 -0.00180799 -5.56291e-23)
(1.05618 -0.00656407 -3.04631e-19)
(1.0311 -0.0360856 3.03702e-19)
(1.00685 -0.0292085 -4.74732e-19)
(0.991349 -0.0518184 2.08031e-19)
(0.863299 0.0323802 1.2102e-19)
(0.984151 -0.114615 -3.81152e-19)
(0.989056 -0.0765644 -1.98749e-20)
(1.00101 -0.013624 -3.87379e-19)
(1.04328 -0.1567 2.73882e-19)
(1.02309 -0.0901357 1.25768e-19)
(0.906797 -0.00318221 -5.2387e-20)
(1.00794 -0.0454871 2.71121e-20)
(0.822348 -0.0506526 -1.91985e-19)
(0.998154 -0.0363314 1.16182e-20)
(1.08938 -0.00029642 9.39957e-19)
(1.17385 -0.0880682 4.13319e-19)
(1.06731 0.00454183 -1.92052e-18)
(1.10234 -0.263155 2.42169e-19)
(0.619746 1.17677 1.64082e-20)
(0.982434 -0.113412 -9.25712e-20)
(0.999426 -0.00146493 -1.82699e-21)
(0.372429 0.252953 4.22892e-19)
(0.92634 -0.0133782 -4.94e-19)
(0.993748 -0.0249107 -1.81223e-22)
(1.09038 0.0116386 -6.45398e-19)
(0.940331 -0.0491653 -5.12145e-21)
(1.05403 0.079658 5.3176e-19)
(1.02559 -0.0411566 -2.27985e-19)
(0.787397 0.261563 1.87425e-19)
(0.613477 -0.0526696 6.46704e-19)
(0.97849 -0.0729953 -1.3595e-19)
(0.170068 0.462105 -2.46115e-20)
(0.919729 -0.0133 1.66691e-19)
(1.01464 -0.105425 5.16682e-20)
(1.03282 0.113558 3.07192e-19)
(1.00268 -0.0461537 -6.46195e-20)
(0.815584 -0.00185957 -4.08934e-19)
(1.63868 0.871201 -3.59478e-21)
(1.04705 0.00428946 5.14612e-21)
(0.905649 -0.0527552 -1.53818e-20)
(0.825626 0.0728496 9.61601e-19)
(0.805406 -0.00746729 6.24328e-19)
(0.952761 -0.00296958 4.02482e-19)
(0.990913 -0.0444878 -2.78005e-19)
(1.04284 -0.0179094 1.43674e-19)
(1.038 -0.188106 -1.26142e-18)
(1.03856 -0.0332016 1.48006e-19)
(0.920081 -0.0329743 -1.04985e-19)
(0.385549 0.272124 -1.06603e-19)
(1.0558 0.0570577 2.11192e-19)
(0.991259 -0.0138346 -9.42607e-21)
(1.09147 0.00752448 -1.93612e-19)
(1.22468 0.0298549 2.1921e-19)
(1.0013 0.130425 -1.18854e-18)
(0.803527 0.0151475 9.2352e-19)
(1.08375 -0.013818 -6.07688e-19)
(1.05518 0.0678914 6.81417e-19)
(0.608723 -0.0483549 -1.25867e-18)
(0.366611 0.24344 -6.65438e-19)
(0.909161 -0.0528104 1.08811e-20)
(0.999385 -0.00152204 3.44698e-21)
(0.982876 -0.0434609 -2.30471e-21)
(0.941973 -0.0541226 1.28002e-20)
(1.229 0.00473591 1.66514e-19)
(0.957356 -0.0387275 1.38359e-19)
(0.978055 0.136072 6.12763e-19)
(0.996586 -0.0018828 6.14321e-22)
(0.957229 -0.0547766 -5.41453e-22)
(0.906519 -0.0341133 2.84831e-20)
(0.886734 0.015707 1.57505e-19)
(1.03867 0.0968125 -2.30288e-18)
(0.267809 0.199582 6.2184e-20)
(0.834696 0.029837 -4.20846e-19)
(0.91074 -0.0117697 -6.60624e-20)
(1.05779 -0.0320536 -5.39788e-20)
(0.998058 -0.0122239 2.40896e-19)
(1.18136 0.0850036 -7.93337e-21)
(0.8836 -0.063768 -1.04566e-18)
(1.00966 -0.0190083 -1.21993e-19)
(0.78714 0.118337 3.27837e-19)
(1.00585 0.0471901 -8.65968e-19)
(1.09011 0.00462955 1.21699e-18)
(0.939005 -0.0471426 -6.99674e-20)
(0.98335 -0.0146031 4.51101e-20)
(1.00893 0.0198178 8.52694e-20)
(1.01886 -0.036185 8.44606e-19)
(1.00035 -0.000144429 -1.40353e-24)
(0.976706 -0.0552026 -6.00078e-20)
(1.04296 -0.014837 -5.35073e-19)
(0.883069 0.205928 1.16336e-18)
(1.02587 -0.119033 -8.72668e-20)
(0.86407 0.0761512 4.08229e-19)
(1.24027 0.0152685 -1.73181e-19)
(0.919909 0.174773 -7.68266e-19)
(1.00018 -0.000165531 -1.01353e-23)
(0.740689 0.000371346 9.15891e-20)
(0.899195 0.0266311 -2.35008e-19)
(1.03196 -0.0281023 -3.01388e-19)
(1.00015 -0.000214493 6.30433e-23)
(1.18622 0.0870119 2.0793e-19)
(0.510857 -0.173148 -4.70707e-19)
(0.812874 0.00444503 9.82435e-19)
(0.967443 -0.00145025 -2.05287e-20)
(0.79621 0.202243 -5.98019e-19)
(1.06546 -0.0236725 7.74943e-20)
(1.04074 -0.0172712 -2.9398e-19)
(1.00916 -0.000545291 1.92465e-20)
(0.948291 -0.0606545 -5.77347e-21)
(1.0444 -0.0183534 -7.82995e-20)
(0.977639 -0.122023 -5.0463e-19)
(0.954275 0.0266399 2.39425e-19)
(0.971981 0.0243481 1.04888e-18)
(1.04177 -0.0140362 -6.50706e-19)
(1.09705 -0.00305646 -5.01934e-19)
(0.993351 -0.000414685 -1.07529e-20)
(0.788192 -0.0894426 7.19475e-19)
(0.749889 -0.109795 -1.25558e-19)
(1.05272 -0.0314464 -1.9511e-19)
(1.07074 -0.0579741 1.78797e-19)
(1.05074 0.075937 -2.35799e-18)
(0.947615 0.0452846 -1.7495e-18)
(0.865359 0.0338605 -1.81263e-19)
(1.11324 0.00355167 5.0319e-19)
(0.871294 0.0185417 -2.45508e-20)
(0.944891 -0.0604608 3.59083e-20)
(1.64367 0.827302 1.41698e-22)
(1.03099 -0.0323036 1.44465e-19)
(1.03065 -0.0363706 -5.50149e-19)
(0.843581 0.0314967 -5.23224e-19)
(0.851333 -0.0316231 -2.63991e-19)
(0.952897 -0.0496134 -5.85997e-20)
(1.01106 0.0337356 -2.92955e-19)
(0.915227 0.0395481 1.23577e-19)
(1.24945 1.18526 2.35323e-20)
(1.03352 0.078247 -6.92319e-19)
(1.00132 -0.000994512 -1.73136e-22)
(0.981837 -0.0109356 -1.00096e-19)
(1.03607 0.0704229 2.60324e-19)
(0.759515 -0.00519626 4.78799e-20)
(0.969131 0.0280607 5.83122e-19)
(0.902002 -0.051887 4.31665e-21)
(1.06072 -0.0306899 -1.51071e-19)
(0.940732 -0.0411673 1.01256e-19)
(0.845442 -0.0298072 -3.16236e-20)
(1.00116 -0.0165897 1.37282e-19)
(1.03234 -0.0360839 3.33017e-19)
(1.44086 -0.00427734 -3.4265e-20)
(1.00238 -0.00152825 2.57274e-21)
(1.10324 -0.00360011 -8.43781e-20)
(0.999294 6.25686e-05 -4.51556e-23)
(0.623241 -0.0604313 1.64725e-18)
(1.01332 -0.0120245 1.30458e-20)
(0.966677 0.161667 8.59131e-19)
(0.807056 -0.00157654 -3.3269e-19)
(0.981749 0.0906536 -7.21714e-19)
(1.04377 0.0714527 4.74475e-19)
(0.963137 0.0778302 -6.88008e-20)
(1.08347 0.00840487 1.21468e-18)
(0.974656 -0.0423799 -2.83663e-20)
(1.05878 -0.0236329 -1.54731e-19)
(0.988044 -0.0319575 7.18851e-23)
(0.8707 -0.0389024 2.41636e-21)
(0.818686 0.00194399 -2.3878e-19)
(0.920802 -0.0174256 6.30289e-20)
(0.979471 -0.00882739 -2.39757e-19)
(1.02389 -0.0373626 -3.16247e-19)
(1.01313 -0.0116029 -1.58186e-20)
(0.990519 -0.00519519 -2.71543e-21)
(1.00824 -0.00706609 -1.02896e-20)
(0.992012 -0.0484709 -1.01802e-19)
(1.11868 0.00159661 7.33706e-19)
(1.01749 -0.0322194 6.73827e-19)
(0.838809 0.0339554 5.56035e-19)
(0.997988 -0.0354432 -2.41122e-20)
(1.15369 0.131163 -4.62293e-19)
(1.03991 -0.0345532 4.38321e-19)
(0.991421 -0.00520185 -1.12894e-20)
(0.949387 0.0479227 2.50872e-18)
(1.08773 0.0247432 1.1818e-19)
(0.974002 -0.0826146 3.20255e-18)
(1.00262 -0.00200146 -2.55611e-21)
(1.00163 -0.0293842 0)
(1.06123 -0.0229726 2.30376e-19)
(0.949367 0.00730181 -2.26668e-19)
(0.938748 -0.0289668 6.56243e-20)
(1.20399 -0.0636774 1.77144e-19)
(0.813551 0.00228806 -6.72482e-19)
(0.989818 0.154244 1.58138e-18)
(0.739121 -0.00259365 3.41093e-19)
(1.00449 0.0297655 -1.56408e-19)
(1.04081 -0.0343144 -3.18689e-19)
(1.05251 -0.0310429 2.30017e-19)
(0.960737 -0.14642 -7.27931e-19)
(0.823169 0.075164 -4.01147e-19)
(1.11398 -0.0356164 6.81236e-19)
(1.06642 -0.0239124 3.55139e-20)
(0.640166 -0.0728946 -2.36005e-18)
(0.739098 -0.00411115 -1.95927e-19)
(1.00264 -0.00211783 1.08669e-21)
(1.09875 -0.00317285 1.01083e-19)
(0.759312 -0.109582 3.12909e-19)
(0.950531 -0.000872756 3.56177e-20)
(0.768026 -0.0185751 -5.76687e-19)
(1.02313 -0.0396493 -1.14479e-19)
(1.00988 0.126527 1.96296e-18)
(0.999225 1.995e-05 -1.37825e-22)
(1.07006 -0.0211797 -7.0022e-20)
(1.09962 0.00778615 6.35504e-19)
(1.0661 0.0135223 -7.76297e-19)
(1.03944 0.16701 -4.11535e-19)
(0.999902 -5.44678e-05 1.05966e-24)
(0.996623 -0.00204782 2.06586e-22)
(1.06878 -0.000701791 -3.4106e-19)
(0.949569 0.000685095 3.86175e-19)
(0.968138 -0.0438336 1.12452e-20)
(0.993593 -0.0266921 -4.64226e-21)
(0.972826 0.147352 -7.59926e-19)
(1.21762 -0.00631165 -8.13761e-19)
(0.776099 0.272943 -8.14984e-20)
(0.970979 -0.0512269 -8.80295e-19)
(0.777947 0.0161486 -1.05728e-19)
(1.0162 -0.127256 2.60103e-19)
(1.04222 0.0365133 1.16999e-18)
(0.945396 -0.0411093 -4.29811e-20)
(1.19124 0.0730582 -2.82729e-19)
(0.694944 -0.0926321 -2.17098e-18)
(0.979267 0.0226931 -5.41519e-19)
(1.03821 -0.0200903 -3.09094e-19)
(0.980358 -0.028273 -1.78799e-19)
(0.931244 -0.0439279 1.77726e-20)
(0.999701 -0.209034 -2.58321e-18)
(0.941418 0.00559051 5.58178e-19)
(0.92475 0.151394 4.73591e-19)
(1.00459 -0.0521219 -4.60655e-19)
(0.984796 0.090706 4.01412e-19)
(0.823445 0.0365154 -1.93332e-19)
(0.890421 0.0146686 4.26526e-19)
(0.473356 0.600107 -9.31105e-21)
(1.03048 0.0487006 1.15451e-18)
(0.945751 -0.049945 8.58721e-20)
(1.02154 -0.0447143 3.51223e-19)
(1.01802 -0.0420141 -2.72254e-19)
(0.999041 -0.000234096 -3.8857e-21)
(1.01419 -0.0352036 -1.16928e-18)
(1.00058 -0.127526 3.78362e-19)
(1.00976 -0.0266573 -2.37034e-20)
(1.05231 0.0478421 -7.28144e-20)
(0.984025 -0.0368221 8.08845e-22)
(0.984037 -0.0375778 -1.31876e-21)
(1.07281 -0.00352578 -2.62474e-20)
(1.0056 -0.0485265 2.81457e-19)
(1.03966 -0.00433131 -5.52337e-20)
(1.04595 -0.0234122 4.30595e-21)
(0.789444 0.018339 -3.18723e-19)
(0.949384 -0.0418529 -6.34791e-20)
(0.87414 -0.0378619 -1.74166e-20)
(1.02531 -0.199605 -3.22327e-18)
(1.00343 0.176195 1.16054e-18)
(1.06204 0.000742632 6.48567e-19)
(0.925307 0.00496167 -3.24529e-19)
(0.974414 -0.101064 6.76332e-20)
(1.03173 -0.0353485 -1.97469e-19)
(1.00127 -0.00195376 -3.01906e-22)
(0.999933 -0.000191255 4.13111e-23)
(0.791048 -0.0275208 -1.13856e-19)
(0.692919 -0.0927048 2.21426e-18)
(0.899365 -0.0504537 1.75482e-20)
(1.00123 -0.0018583 -7.91906e-22)
(0.814173 0.00110027 -1.79111e-19)
(1.04182 0.0963225 2.12736e-18)
(0.376411 0.0982966 -4.39417e-19)
(0.925409 0.184191 -5.35869e-19)
(0.996987 -0.000141869 -2.76819e-21)
(0.817058 0.00388071 -7.81074e-19)
(0.984227 -0.0039206 -6.8071e-19)
(1.00624 -0.000659801 -9.42409e-22)
(0.995264 -0.0142893 1.29341e-21)
(0.808269 -0.00488052 1.21775e-19)
(1.06809 -0.000394638 -1.13132e-19)
(1.04108 -0.0325179 -2.51897e-20)
(1.15457 -0.0948346 9.769e-20)
(1.02573 -0.0024029 -3.14212e-20)
(0.895135 -0.097693 -9.81406e-19)
(0.795993 0.0249772 3.2283e-19)
(0.778475 0.0167722 -1.78996e-19)
(0.838126 0.0294392 -6.97225e-20)
(1.04857 -0.0237173 -2.30774e-19)
(0.872841 -0.102243 -1.14838e-18)
(1.01378 -0.0259744 2.91969e-20)
(1.00125 -0.000852229 -6.16026e-23)
(1.07519 -0.0248859 1.94307e-19)
(0.874573 0.0925012 -3.87812e-19)
(1.14043 -0.0987901 1.98986e-18)
(0.973592 0.0205897 8.91162e-19)
(1.01816 -0.0336473 -2.17547e-19)
(0.913419 0.00805568 9.74649e-20)
(0.959895 0.000200228 4.44099e-18)
(1.08999 0.00444584 -1.68257e-18)
(1.01114 -0.0227101 -1.9555e-20)
(1.12071 0.00210459 -6.46192e-19)
(0.883027 0.020829 -9.29112e-20)
(0.795175 0.217746 -7.53519e-19)
(0.980873 -0.031775 -2.14239e-19)
(1.10825 0.00308352 -1.61201e-18)
(1.05007 -0.00141154 1.22782e-19)
(0.974456 0.0224891 6.14358e-19)
(1.03286 -0.00320068 -5.61132e-20)
(0.944858 -0.0251375 -4.22764e-20)
(0.829522 0.0329385 5.20542e-20)
(0.925002 -0.000656596 5.16868e-19)
(1.01643 -0.000775096 -4.43973e-20)
(0.955396 -0.00618184 -5.23361e-19)
(1.19678 -0.0632292 -3.5298e-19)
(0.985653 0.155229 -1.2454e-18)
(0.958576 -0.0361513 4.00965e-19)
(0.935404 -0.0298928 -9.72478e-20)
(0.851909 0.395626 -1.40514e-19)
(1.00376 -0.000108845 -2.46096e-21)
(1.21823 1.17163 -1.01804e-20)
(0.946136 -0.0409599 -6.77001e-20)
(1.09078 0.0116253 -9.99962e-19)
(0.949014 0.00759369 -2.17054e-19)
(1.08128 -0.00255408 -3.66078e-19)
(0.509236 -0.157513 -1.18744e-18)
(0.910856 0.0381654 -1.22216e-18)
(1.16481 -0.116734 9.20289e-19)
(0.964085 0.0755178 2.01466e-19)
(0.811576 0.187969 6.71287e-19)
(0.822662 0.242906 -5.70845e-19)
(0.780682 -0.143351 -9.54676e-21)
(1.09115 0.00403185 1.86353e-18)
(0.831564 0.13328 6.35349e-19)
(0.9784 -0.0867599 -2.48853e-18)
(1.03416 -0.0307019 -1.08699e-20)
(0.984713 -0.0541475 9.6544e-20)
(1.12379 -0.0998246 -2.15791e-18)
(1.00163 -0.00131134 -3.42482e-22)
(0.772421 1.32995 5.37065e-20)
(0.3977 0.0563092 -1.92111e-19)
(0.870838 0.0330178 -3.82662e-19)
(1.04528 -0.0370883 -2.02769e-20)
(1.07063 0.0108084 -2.62107e-19)
(0.940318 -0.0543125 -7.12353e-21)
(1.05947 -0.0231277 -4.60833e-21)
(0.991515 -0.134751 -5.87311e-19)
(1.22672 -0.0353055 6.90219e-19)
(0.99136 -0.000396869 -6.46205e-22)
(1.01448 -0.0258653 -2.91152e-20)
(1.05056 0.0587599 -2.46857e-19)
(1.0243 -0.0448161 2.38811e-20)
(0.162251 0.450489 5.71716e-20)
(0.822193 0.0818051 -6.75529e-19)
(1.00674 0.117708 2.46057e-19)
(0.995504 -0.0143938 -3.47665e-21)
(1.01784 -0.0978817 -9.10358e-20)
(0.982371 -0.0786458 -7.17676e-19)
(1.0345 -0.00229509 3.7416e-20)
(1.00923 -0.0137567 6.05146e-19)
(1.06078 0.0616303 5.32697e-19)
(1.22225 -0.0483212 -4.48e-19)
(1.02326 -0.0442965 -8.86822e-20)
(0.999789 -8.55853e-05 1.83978e-23)
(0.835465 0.132911 4.78354e-19)
(1.0084 -0.0142579 1.07367e-18)
(0.991234 -0.000419628 -1.43901e-20)
(1.08088 -0.000664786 -1.64714e-19)
(1.06329 -0.0187631 -1.2676e-19)
(0.954071 -0.0397242 1.19881e-20)
(0.889697 -0.00302987 2.9748e-20)
(0.469612 1.18793 3.99384e-20)
(0.792696 0.0100664 -7.23876e-20)
(0.941517 -0.0562822 -4.41623e-22)
(0.852896 -0.0294905 -5.45305e-21)
(1.01514 -0.0251516 4.17756e-20)
(0.992097 -0.0055052 7.91357e-21)
(1.01757 -0.0112417 -5.35777e-19)
(0.690662 0.243406 -1.09291e-19)
(0.985983 -0.00399461 5.55082e-21)
(0.79563 0.0251232 3.82889e-19)
(1.04487 -0.0310781 1.74203e-20)
(0.956668 -0.0328648 1.87449e-19)
(0.92308 -0.00388205 -6.83392e-19)
(0.993232 -0.0250496 1.699e-21)
(1.22295 0.0128923 -3.72164e-19)
(1.05162 0.017253 -4.6848e-19)
(1.02544 -0.137568 2.98013e-19)
(0.714401 0.240546 3.07657e-19)
(0.96958 -0.0153688 7.96039e-21)
(0.998066 -0.00493602 -2.10561e-21)
(0.97546 -0.0173141 -1.59656e-20)
(0.937988 -0.0287172 -2.02943e-21)
(1.0465 0.00935311 0)
(1.01905 -0.0226999 -3.74534e-19)
(0.741393 0.000605212 -2.11853e-20)
(1.00215 -0.0179399 -1.93385e-18)
(0.713857 -0.100817 1.86572e-18)
(0.712088 -0.0984791 -1.61425e-18)
(1.0448 -0.0177354 4.1741e-19)
(1.05282 0.0339025 1.15329e-18)
(1.02425 -0.186486 2.0042e-18)
(0.971456 -0.0178902 7.7463e-21)
(0.954813 -0.00545057 -1.09104e-19)
(0.869429 0.0332502 3.64826e-19)
(1.01198 -0.0121778 1.85014e-20)
(1.00944 -0.0331644 2.78516e-19)
(1.04614 -0.030156 -8.47904e-21)
(1.01343 -0.0291692 -6.19787e-19)
(1.03139 -0.146694 -6.98307e-20)
(1.22764 0.0417561 -7.65071e-19)
(0.883123 -0.0947529 9.5465e-19)
(0.943848 -0.0500685 -1.37692e-20)
(0.861832 0.0345391 6.40887e-19)
(1.01404 0.0179729 -4.52471e-20)
(1.00349 0.13409 -1.32182e-18)
(1.08944 0.00775478 -2.15709e-19)
(0.987522 -0.0298204 -8.39864e-20)
(1.00079 -5.88451e-06 -2.25689e-23)
(0.971681 -0.0467571 1.0976e-18)
(0.834619 0.00141076 2.23659e-20)
(0.602998 -0.0461735 -1.17029e-18)
(1.01628 -0.0238755 -1.94168e-19)
(1.04169 -0.0175046 -2.07268e-18)
(0.999681 -0.0877188 -5.63109e-19)
(1.07748 -0.0254047 8.48548e-20)
(0.230251 0.346248 -2.23344e-19)
(0.950736 -0.00182675 5.09453e-20)
(0.838616 -0.00159968 1.30028e-18)
(0.994367 0.00719873 3.7854e-19)
(1.06002 0.0629137 -2.57303e-19)
(0.775268 -0.0344617 -1.2961e-18)
(1.11915 0.00475353 1.25099e-19)
(0.999273 -0.0012826 -1.01672e-21)
(0.974809 -0.0679631 3.83968e-20)
(0.792709 0.020606 -3.62681e-19)
(0.947011 0.0039814 -5.16672e-19)
(1.08003 -0.00200927 -1.2186e-19)
(1.15932 -0.0982189 9.33188e-20)
(1.01547 -0.0251396 -4.75944e-20)
(1.37307 -0.21747 7.62172e-20)
(0.93002 -0.0444662 -7.34995e-20)
(0.998858 -0.00455745 -9.10461e-22)
(1.01987 -0.0236306 4.16512e-19)
(1.01181 -0.0264925 1.20546e-20)
(1.22572 -0.0457102 6.15532e-19)
(1.01237 -0.0119693 -1.63107e-20)
(0.957434 0.159532 -2.72513e-19)
(0.862438 0.029753 1.02087e-19)
(1.12595 0.00122445 -2.37951e-19)
(1.07642 -0.0207727 -3.5709e-19)
(1.01746 0.126951 1.88036e-18)
(1.063 -0.0228814 -4.4589e-19)
(1.00439 0.045052 -7.4355e-19)
(1.00001 -0.000274235 2.89884e-23)
(1.01906 -0.05801 4.02438e-19)
(1.01155 -0.0417578 -1.31042e-19)
(1.04957 -0.0312831 3.88882e-20)
(0.838677 0.00469044 1.6296e-19)
(1.00142 -0.00109523 7.67743e-22)
(0.380289 0.294804 -3.33759e-19)
(1.16307 0.127566 1.65888e-19)
(0.386675 0.0561442 4.31409e-19)
(1.01112 -0.0220963 3.7954e-20)
(1.08573 0.324899 1.20031e-19)
(1.0468 0.0101372 -2.92664e-19)
(1.05304 -0.0906367 1.35593e-18)
(1.01863 -0.0384603 6.07942e-20)
(0.983404 -0.000167861 -4.33319e-21)
(1.04726 0.0563921 -2.9025e-19)
(1.00994 -0.00880991 -1.05827e-20)
(1.15275 -0.0836201 -4.36551e-19)
(0.983412 -0.00289664 -7.21906e-20)
(0.516222 -0.202484 -1.03916e-20)
(0.886247 0.204341 -1.54799e-18)
(1.00949 -0.00824298 8.38228e-21)
(1.09982 -0.255748 2.34215e-19)
(0.991643 0.0263787 -1.47792e-18)
(0.992102 -0.00524094 3.8901e-22)
(1.03488 0.0965421 1.65921e-18)
(1.02163 -0.061784 1.33747e-18)
(0.888778 -0.00390275 2.42406e-20)
(1.03728 -0.0157524 3.69268e-19)
(1.02367 -0.00300877 2.31399e-20)
(1.05019 -0.00872906 -4.40736e-19)
(0.83288 0.0320955 -2.5701e-20)
(0.770615 -0.00275693 3.23125e-20)
(0.917728 0.14678 -6.52688e-19)
(0.980818 0.0206484 -3.7276e-19)
(1.19485 0.0762446 1.15218e-18)
(1.20568 0.00388206 9.68017e-19)
(0.866218 -0.00361747 -6.9566e-20)
(1.00142 -0.0233681 -2.00035e-21)
(0.919047 0.149737 -2.65016e-19)
(0.9469 -0.040537 -4.22628e-20)
(0.775745 0.00806303 -3.23515e-20)
(1.01275 -0.0266288 -6.76381e-21)
(0.990653 0.132141 6.09998e-20)
(0.77775 -0.0326395 1.84797e-18)
(1.23857 -0.000373034 1.0114e-18)
(1.00217 -0.0484176 1.78652e-19)
(1.00192 -0.0528963 -3.06975e-20)
(0.839333 0.00265343 -7.84036e-20)
(0.335013 0.162455 -2.58678e-19)
(1.01876 -0.0961071 -1.79196e-20)
(0.966819 0.141192 -2.3909e-19)
(1.0684 0.000696851 -8.10353e-19)
(1.04541 0.0385098 -9.82519e-19)
(0.988098 -0.00727045 -3.71602e-21)
(0.362282 0.493984 1.13499e-19)
(1.00108 -0.00178133 -3.83872e-22)
(1.05637 -0.0221497 2.91117e-19)
(0.999167 -7.19735e-06 2.94816e-22)
(1.21244 1.11358 -5.59314e-20)
(1.11503 -0.0310132 -5.57593e-19)
(0.953763 0.0462461 1.18935e-19)
(0.999009 -0.000279375 3.90708e-22)
(1.16271 -0.122115 -2.48115e-18)
(0.975613 -0.00712775 1.1103e-20)
(1.01041 -0.0334822 2.79672e-19)
(0.964985 -0.0169883 2.61756e-20)
(0.753856 -0.109458 -6.2404e-20)
(0.925196 0.00401293 5.32029e-19)
(0.983443 0.144904 9.44996e-19)
(0.991749 -0.000642338 1.96273e-20)
(1.05112 -0.0687648 4.01197e-19)
(1.01126 -0.0129054 1.0884e-19)
(0.91545 0.0077592 3.77011e-19)
(0.998669 -0.00491432 4.22277e-21)
(1.00011 -0.0533704 -3.23075e-20)
(0.986145 -0.000701312 2.1466e-21)
(1.01205 -0.114152 3.65098e-19)
(1.05569 -0.032682 1.65465e-19)
(0.941489 -0.0306294 -1.9489e-21)
(0.818921 -0.00188958 -1.02504e-18)
(1.00519 -0.0127613 -1.11162e-22)
(1.01599 -0.0234067 3.86971e-20)
(1.02366 0.0149833 4.74109e-19)
(0.970059 -0.0154829 4.75767e-21)
(0.957561 0.005323 -1.97548e-18)
(1.06524 0.0759879 1.89307e-18)
(0.259357 0.262388 3.79038e-21)
(0.780322 0.00473036 8.55102e-20)
(1.09549 -0.10555 -3.46354e-19)
(0.998999 -0.000109866 -2.45138e-22)
(0.840534 0.415214 1.54641e-19)
(1.03082 -0.145895 2.54732e-19)
(1.02223 -0.00312614 3.41905e-20)
(0.902402 -0.0502101 2.23235e-19)
(0.99828 -0.050701 1.29449e-19)
(0.832343 -0.0667886 -3.13407e-19)
(1.36479 0.507974 1.84597e-20)
(1.0323 -0.00298321 -4.06047e-20)
(1.00737 -0.0478608 -8.76277e-19)
(0.998867 -0.00464873 3.64066e-21)
(0.930763 -0.0332529 5.77247e-20)
(0.976933 -0.00746765 1.09132e-21)
(0.852986 0.119842 -9.06127e-20)
(0.799707 -0.0214784 -4.21631e-20)
(1.00766 -0.0151276 -2.93102e-22)
(0.989588 -0.00537875 6.48506e-21)
(1.09122 0.00748063 7.95048e-19)
(0.897702 -0.130728 -1.09443e-19)
(0.950102 -0.0404962 6.67328e-20)
(1.00505 -0.0520221 -7.71319e-20)
(0.922113 0.145434 -7.52861e-20)
(0.916429 -0.159552 5.24337e-19)
(1.05238 -0.0308573 1.07647e-19)
(0.471204 -0.0243387 -1.83553e-20)
(1.20074 0.227552 -3.05962e-19)
(0.782585 -0.105726 -5.06503e-19)
(1.00188 -0.0230807 7.90928e-21)
(0.999555 -4.62698e-05 8.84574e-22)
(0.870493 0.0959224 5.06899e-19)
(0.820308 -0.0493128 -1.11633e-19)
(1.00559 -0.0127396 -4.94323e-21)
(0.391752 0.154488 7.18652e-19)
(0.950989 -0.0251048 2.85936e-20)
(0.999361 -0.000333866 2.10056e-21)
(1.03814 0.100768 2.01709e-19)
(1.0924 -0.175527 8.29815e-20)
(0.88503 -0.0966103 -1.26959e-18)
(0.738366 -0.107861 -2.30403e-19)
(0.947769 0.0193155 4.53288e-19)
(0.764492 -0.00444666 5.31293e-20)
(0.77853 0.00662762 2.58405e-19)
(1.03984 -0.020433 -4.54107e-19)
(0.900443 0.18855 -7.04801e-19)
(0.987408 -0.0323359 7.68394e-22)
(0.985338 -0.0768865 -1.35818e-19)
(1.04902 0.112013 1.40983e-19)
(0.992493 -0.0312388 3.31849e-21)
(1.19614 0.21008 4.24055e-19)
(1.00527 -0.0251186 8.55617e-19)
(1.00015 0.111149 -1.89721e-18)
(1.0307 -0.0122867 3.17813e-19)
(0.976423 0.00459001 -9.76969e-20)
(1.10666 0.192599 -6.66404e-19)
(1.09915 0.00884586 5.93714e-19)
(1.07023 -0.0618357 -4.78443e-20)
(0.891175 0.0241565 -3.83909e-19)
(0.827606 0.15152 1.33135e-18)
(0.81413 0.201013 4.26667e-19)
(0.784581 0.000198522 2.79283e-20)
(0.999746 -0.091566 -2.44852e-19)