/*--------------------------------*- C++ -*----------------------------------*\
  =========                 |
  \\      /  F ield         | OpenFOAM: The Open Source CFD Toolbox
   \\    /   O peration     | Website:  https://openfoam.org
    \\  /    A nd           | Version:  7
     \\/     M anipulation  |
\*---------------------------------------------------------------------------*/
FoamFile
{
    version     2.0;
    format      ascii;
    class       volScalarField;
    location    "33";
    object      p;
}
// * * * * * * * * * * * * * * * * * * * * * * * * * * * * * * * * * * * * * //

dimensions      [0 2 -2 0 0 0 0];

internalField   nonuniform List<scalar> 
30084
(
0.0141604
0.167171
-0.0141062
-0.0565775
-0.00400699
-0.0596237
-0.0283273
0.0134355
0.00329495
0.000290557
0.00844144
-0.00746565
-0.000815459
-4.7353e-05
0.185546
-0.00964944
-0.000312201
0.0732857
-0.00353102
-0.0166942
-0.00143321
0.00309767
-0.0143349
-0.00348554
0.580928
0.166167
-0.000875744
0.49266
0.178194
-0.0026404
0.0255728
0.0788871
-0.0939295
-0.010804
0.499333
-0.0123649
0.189061
-0.042918
0.00927966
0.0089105
0.000701995
-0.0271564
-0.000279648
-0.0345776
4.64339e-05
-0.00238591
-0.00679149
0.000110218
0.00539296
0.184553
-0.038522
-0.0496023
0.0814832
-0.0574254
-0.00945043
0.170078
-0.00563539
-0.00147792
-0.00764515
-0.029343
-0.000113117
-0.00343296
0.0567927
-0.0109075
0.288488
0.551108
-0.0129746
-0.0135854
0.526831
0.000735531
0.164572
0.417569
0.00370571
0.545918
-0.0124789
0.0147744
0.184881
-0.0378726
-8.47763e-05
-0.0253712
-0.0527524
0.220877
0.0141853
-4.32217e-06
-0.0251617
-0.138782
0.311337
-0.000847822
-0.000787546
-0.0771431
-0.0368234
-0.0384178
0.00495544
0.078747
-0.0798696
0.317556
-0.0489278
0.000759737
-0.0650264
0.213425
-8.94831e-05
-0.0359226
-0.00010923
0.0563358
-0.0506672
0.141957
0.362146
-0.000757604
-1.87379e-05
-0.0923188
-0.0935023
0.0160334
3.94754e-06
-0.00249404
-0.000267851
0.408088
0.239496
-0.0180662
2.96788e-05
0.00435807
-0.0283746
0.177828
-0.00959705
0.547683
0.00179442
0.0145249
0.0790584
-0.0246007
0.00658736
8.32292e-06
-0.0322493
0.177434
0.403371
-0.0342386
0.0556638
0.0248591
0.341564
-0.0366696
-0.163708
0.206691
0.0234599
-0.0664053
-0.0688027
2.91283e-06
-4.00402e-06
-0.00409379
-0.00637744
-0.0715771
-0.115283
0.103459
0.041553
0.0202594
0.000686733
-0.000236369
0.231632
0.000810764
-0.0123922
0.325835
0.274758
-0.0343091
-0.0505363
-0.0552993
0.175883
-8.91063e-05
-4.40104e-06
-0.0182074
-0.065972
7.10591e-05
-6.41572e-06
-0.0111038
2.91861e-05
0.00917734
0.33006
-0.0358691
-0.0778448
-0.00802256
0.00337511
-0.0374574
-0.00202718
0.00122201
-2.86022e-05
-0.00720795
0.308972
-0.0125877
-0.163028
0.2331
-0.00999851
-0.0276431
0.00620494
-0.0026379
-0.000473796
0.00291299
0.55691
0.228123
-0.021241
-0.0118674
0.470421
0.20676
-0.0792013
0.00187414
-0.0516298
-0.0787112
-0.00719251
0.00136185
0.339604
-0.0106599
0.0111164
-0.0707604
-0.0938496
-5.78452e-05
0.441445
-0.00170424
-7.72267e-06
-0.000914115
-0.0349667
0.0790721
-0.00537402
0.0108279
-0.00345967
-0.0801159
3.27376e-05
0.000714692
-0.00373444
0.116699
-0.00458542
-0.00236727
0.0794212
0.00018522
4.31331e-05
0.00851515
-0.0435174
-0.0330751
-0.00750114
0.162854
-0.0226903
0.0213443
-4.94277e-05
-0.00481893
0.00127095
-0.0475633
-0.156501
-0.00225908
0.000733461
-0.00246294
0.00458521
-0.0161549
-8.50986e-05
-0.126445
5.6049e-05
0.118502
-0.00544002
0.000214847
0.144015
-0.0777815
0.000395962
-2.20071e-06
-0.0664821
-0.147147
-0.0138309
-0.0263496
0.0413843
0.297679
0.000116085
-0.0410945
-0.0155012
0.48176
-0.0126043
0.229637
0.0198709
-0.000421366
0.659758
-0.000908128
-0.0829152
-0.0792463
0.00362741
0.0464936
-0.0129277
0.40723
-0.00558014
-0.0274115
-0.000462967
0.260857
-0.00473015
0.323147
-0.000850164
-0.00923771
0.468054
0.102139
0.0792931
-0.0489641
-0.00026138
0.00447051
-0.000328489
-5.69238e-06
0.113203
5.53737e-05
-0.0298231
-0.0181804
0.587368
0.399933
-0.0683401
-0.0297495
-0.0314179
0.0146532
0.00420005
-0.028107
-0.0732074
0.303711
0.420786
-0.00210048
0.356499
0.110064
-0.00660461
0.0180168
-0.00294117
-0.015769
-0.00856704
-0.00427006
-0.000102577
-0.00306576
0.0247334
0.266763
0.00263593
-0.0409979
0.0209106
-6.45584e-05
-0.0707586
0.616863
-0.0100871
-0.00235426
0.0192321
-0.0236668
0.146376
-0.00232086
-5.92492e-05
3.50759e-06
-0.00430194
0.470944
0.0388327
-0.157
-1.13895e-06
-0.153977
0.0907824
-0.00815862
-0.0731309
-0.00215423
-0.000741442
-0.0380953
0.0015071
0.00575535
0.0171329
0.162399
-0.000337337
0.00331518
0.176585
-0.0244991
0.000672423
0.00071502
0.404215
-0.0367222
-0.00251592
0.215921
0.489509
-0.0464558
-0.0119574
0.0840344
-0.00128422
-0.0134013
-0.00546077
0.202668
-5.75328e-05
0.016478
-0.103444
0.408348
0.537772
-0.00971116
-0.0142048
0.296953
-0.030446
-9.94082e-05
0.143729
0.122964
0.125042
-0.0118167
0.0411238
0.485761
-0.135194
0.442751
0.413372
-1.54037e-05
0.0249435
-0.127938
-0.00484133
0.00269282
0.493808
0.0390732
0.000460283
-0.0546007
-0.0806034
-0.0090573
-0.000219156
0.329678
0.234849
6.19539e-05
0.0068226
0.00901668
-0.0821293
-0.0489769
8.73558e-05
-4.55234e-06
0.000821275
0.151684
-0.0424946
0.327701
-0.0765602
-0.0288145
-0.0328098
0.211625
0.0611958
-0.00203933
0.0134608
0.00140481
0.445874
-0.0392415
0.00182217
-0.0120443
0.0309934
-0.00252741
-0.0196211
0.000381574
0.000390635
0.624997
-0.0130596
-0.00830445
-0.000809021
-0.00125402
0.28418
-0.103967
-0.0405677
7.1567e-06
-6.01093e-06
-0.0404539
-0.0109595
-0.0085016
0.0283371
0.0103125
-0.00450301
0.0488224
-0.0276333
0.435742
0.00773588
0.000405582
-0.0678228
-0.0380265
0.0606584
-0.00568243
-0.0396765
-2.724e-05
0.526608
0.0321509
0.000125646
0.557013
-0.0420054
-2.90054e-05
0.00245385
-0.0697804
0.0176724
0.0714278
-3.09954e-06
-0.012859
-0.0132008
-0.00879713
-0.000817415
-0.0132713
0.475363
-0.0134949
-0.0190115
0.241846
-0.00465915
0.459648
-3.19822e-05
-0.0263198
-0.0761436
-0.0388759
-0.0379801
-0.00260214
0.0023506
-0.000274817
-0.0301346
0.012698
-6.07931e-05
9.56533e-06
-0.0102672
0.434032
0.0118378
0.00423359
-0.0785389
-5.33412e-07
0.00166405
-9.57603e-05
0.0154985
-0.0276957
-0.000679641
-0.0132819
-0.0198139
0.00174913
-3.38579e-05
0.00114322
-0.000725719
0.0816197
0.380352
0.301615
-0.00725227
0.0101337
0.0422664
-0.000176703
-0.00598401
-4.53837e-06
0.417067
-0.0219976
0.0279371
-0.0267468
0.00270583
-0.00527211
-0.000196662
1.16138e-05
-0.00803627
0.0743272
0.278685
0.00211562
-0.0613488
-0.0384954
-0.0128303
0.104865
-0.00225771
0.00163618
-0.00919824
-0.000182396
-0.0722741
0.30821
0.21883
-0.035318
0.301972
0.000127379
5.93118e-06
0.142943
0.0552741
0.545411
-0.0684255
-0.0331024
0.0386248
0.00201599
-0.00959287
0.000782874
-0.0170566
-0.0206047
-1.33798e-05
-0.00154425
0.40468
-0.000265047
0.509939
-3.30841e-06
0.0239255
0.0771108
0.0535379
0.00179293
0.000308418
0.425848
0.0860577
-0.0770865
0.225168
-0.0109127
-0.0208896
-0.00679832
0.275424
-0.040135
0.0175307
-0.0127238
4.07259e-07
-0.00223457
0.00995566
-0.0277539
-0.0345431
-0.0648128
-0.0280456
0.150591
-0.00364547
-0.0781739
-0.0216665
4.84172e-05
-0.019065
0.0136597
0.15307
-0.0422168
-7.83978e-06
-0.0287743
-0.00092991
0.00239797
-0.134719
0.326872
0.00155106
-0.018839
-0.0355731
0.103847
0.465647
0.00311409
-0.00810045
0.271921
0.194496
-0.0247067
0.00843105
-0.0708448
-2.05299e-06
-0.0595831
0.000135191
-0.0366692
-5.4543e-05
3.58027e-05
-0.0105916
0.062303
0.379524
0.0146851
0.0196001
-9.08415e-07
-0.0104347
0.000142638
-0.00546142
3.62029e-05
0.0758928
-0.000840335
0.22057
-0.000233213
-0.0200802
-0.0529394
-0.00711068
0.462657
-0.0257162
-0.0783644
-0.00938344
0.0705266
-0.0670618
0.0461542
-0.0315437
-3.19197e-06
-0.00885421
-0.00665167
0.000418329
0.000136197
0.273543
-0.00824543
0.112854
-0.00758388
0.00148744
0.0513209
0.000273638
-3.41635e-05
-0.0585693
-0.0058876
4.16501e-05
0.283155
0.594256
-0.000380003
-0.0510497
8.54461e-06
0.493866
0.0212355
-0.0552533
6.30062e-05
0.0183777
0.0876925
0.102019
0.0702059
-0.000698539
-0.000282507
-0.0242882
7.98514e-07
3.28339e-06
-0.0408429
-0.0480494
-0.063832
0.56943
0.000335329
-0.051658
0.0131137
-3.10176e-05
-0.00215555
4.46734e-05
-0.0101305
6.65312e-05
-0.0288567
0.0446691
0.454262
0.0685274
-0.000499251
0.000776243
-0.0913918
0.110622
-0.00527655
1.29255e-05
0.247421
-0.163699
-0.0671487
-0.0220362
-3.78395e-05
-0.000493489
-0.170342
-0.0346856
0.183457
0.433549
-0.0769155
-0.00219129
-3.00909e-05
-0.0664373
-0.0923992
-0.000365646
0.00399677
-0.0238735
-0.00786071
0.421065
-0.00225624
0.001735
0.195146
-0.0126136
0.548154
0.547992
-5.89827e-05
-8.22881e-05
-0.0252856
0.026285
-0.049676
0.00905336
-0.0122081
-0.00101123
0.479221
0.215789
0.00389275
0.652471
6.66951e-06
0.139881
-0.0856684
-0.0505858
0.000148503
-0.0514109
0.144815
0.02515
0.0923619
-0.000795636
-0.000854199
-0.00791044
-0.00583427
-0.0214063
-0.00186819
0.165578
-0.00981663
-0.00883701
-0.0788948
0.397485
0.0329568
0.0503858
-0.00071178
-0.000904658
-0.0310524
0.00170553
-0.00438311
-3.62215e-05
-0.000603007
0.145246
0.427548
-0.000231985
0.237371
-1.50936e-05
-0.00563138
-2.60663e-05
0.00927904
-0.0100523
-7.41536e-05
-7.69268e-05
-0.0786172
1.56476e-06
0.072132
-0.0382692
-7.58582e-05
0.222557
-6.72008e-06
-0.000706715
-0.000161958
-0.00847402
-0.000681707
-0.0101216
-0.101052
-0.000607073
0.00730053
-3.46727e-05
0.37409
-0.000572315
0.031893
-0.0465629
-0.0338608
-0.00199258
0.00501492
0.256035
-0.0394348
0.230723
-0.0570172
-0.005819
-4.6954e-06
-0.00948125
0.401528
0.240906
-0.0536643
-0.0702611
0.361885
-0.0136138
-0.0797618
-2.57251e-05
-0.0399017
-0.00144137
0.633306
-0.0704172
-0.000158158
-0.0771754
-0.040098
0.289523
-0.00432945
-0.0420531
-0.00639774
-0.00985027
-0.00219364
0.288635
-0.153743
-0.0292907
-0.023093
-0.0198777
0.00955718
0.356238
-0.0281846
0.22605
0.00466524
-0.0339511
0.51896
-0.0138201
-0.000407691
0.290968
0.408455
-0.00615847
0.0218257
-0.0109437
-0.0460804
0.272201
-0.0660781
-4.10985e-05
-0.0118976
5.23045e-05
-0.00737878
-4.36359e-05
-0.0077112
-0.0016515
-0.00525982
-0.0653114
-0.00103845
-0.000873243
-0.00188164
0.24329
-0.0034575
-0.00539686
-0.00500167
0.206468
0.00883054
-0.000652589
0.399019
0.540975
-0.0291195
0.478693
-0.0257453
0.378469
0.00909772
-0.0210472
0.00429745
-0.000786995
2.25487e-05
0.00425457
-0.0180533
-0.0289586
0.221086
-0.0335042
-0.0294457
-0.00154169
-0.0525401
-0.0364618
0.0108196
-6.32048e-06
0.0158497
0.160843
0.410161
0.0297588
-0.0198379
0.177209
-0.000593043
0.055672
-0.0262788
0.00101074
-0.0764378
0.00478237
0.378982
-0.00333389
-0.000892675
-0.000206043
-0.0748305
-0.00204554
0.638165
0.659388
0.0189859
-6.14416e-05
0.0131627
-2.99611e-05
0.0930783
-0.000880949
0.0338546
0.581763
0.0648589
2.41879e-05
-0.0121559
-1.90912e-05
-0.15503
-0.0489173
0.482123
0.00035299
0.0182751
0.004379
0.000442004
-0.00352953
-0.000489566
-0.00898567
-0.0535292
-0.033311
0.00997683
0.217745
-0.0193284
0.00975774
-0.0291859
-0.00271837
-0.0391423
1.49864e-05
6.22412e-05
-0.00334069
0.0424372
-0.0454656
-0.0233403
-0.00545721
0.00410364
-0.0304714
0.286569
-0.0182577
-5.09767e-06
-0.0715925
0.446756
-0.0339526
-0.0173766
0.10787
-1.08102e-05
-0.00103947
-0.040741
-4.93294e-05
-0.000687317
-3.05601e-05
0.653133
0.0133002
0.00540838
3.14115e-07
2.62539e-06
-1.65886e-05
-1.88359e-06
-0.0318437
0.409744
-0.0488281
-0.000733914
-0.000249549
-0.00787703
0.480622
-0.0736343
0.43989
0.0369066
0.171907
-0.000177939
0.474986
-0.00325425
-0.0134633
0.020635
0.0117171
0.0134901
0.22228
-0.0561742
0.468662
0.327203
-0.0116999
-0.0396737
-0.000204998
-0.0412168
-7.85254e-06
-0.0013708
0.00399201
0.0925357
-0.00932718
-0.0320285
-0.0047309
0.564531
-0.100343
-5.11368e-05
-4.38312e-05
0.488084
-0.00701579
0.00304536
-0.0183761
-0.00322558
-0.0214028
-0.0136491
-0.0272104
0.123009
0.0422552
-0.014041
-0.0199239
0.00010311
-0.00810872
-0.00173845
-0.0110825
-4.18832e-05
6.82986e-05
-0.0270534
-0.0281111
0.464396
-0.0339631
-0.000297042
-0.00216766
-0.00045217
0.396763
-0.0293764
-5.21082e-05
-0.0398822
-0.00630535
-0.0049901
-0.0385834
-0.0439908
0.00929226
0.0771212
-0.0875951
8.74655e-05
0.00818799
-0.0181022
-1.57449e-05
-9.24613e-05
0.140871
0.107515
0.0159673
-0.0638516
-0.0721929
0.000712534
0.501829
8.96513e-05
-0.0232245
0.421743
-0.0232147
-0.0495322
4.34653e-06
0.000199486
-0.0493186
-0.0127042
0.00188179
-0.0427431
0.267011
0.310975
0.000918649
0.000330385
0.251035
-0.0169596
-1.63926e-05
-0.00203552
-0.0376093
-0.029424
-0.0142366
-0.00301682
0.241903
1.62635e-05
0.0952102
0.314091
3.80802e-05
0.013479
-0.000614739
-0.114975
-0.0181465
-0.000911635
0.0352842
0.000251461
0.261432
0.00187147
0.0281567
0.024477
0.588395
0.392466
-0.0690146
-0.00926269
4.236e-06
0.021129
-0.0168378
0.182992
0.355362
-0.0427449
-0.014399
-0.0199937
-0.00769186
0.169079
-0.000253002
0.471704
0.0307652
5.6568e-05
3.96185e-05
0.000119018
-0.0152259
-0.0209047
0.000858523
0.0810702
0.147825
-0.0635044
0.000619979
7.75253e-05
-0.0273512
-5.11439e-05
-0.00334997
-0.0130559
-0.000810799
0.0489517
0.00505143
-0.00159463
-0.00437139
-0.01842
0.392821
0.402348
0.0441834
-1.40034e-05
-0.000642009
0.280544
-0.000536359
-0.121623
-0.000242042
-0.0227508
-0.0943998
-0.000252965
-0.000273462
-0.037617
0.00158037
-8.94929e-05
-0.00152141
0.235092
-0.0391856
-5.02701e-05
0.110123
0.378344
0.390824
0.000714005
-0.122452
-0.0104422
0.44374
-0.0763139
-0.0783618
-0.00817111
-0.0143227
0.032468
-0.0284189
0.390814
0.0970054
-0.000206045
-0.059667
-0.0776419
-0.00428073
-1.96731e-06
-0.00203715
0.237668
-0.0002302
-0.00232315
-0.00448399
-0.00133092
0.00996703
0.0324758
-0.000212507
-0.000145796
-0.00804834
-0.112563
-0.0396378
-0.0855722
0.27018
-0.00245472
-0.000318649
-0.041109
-0.0264352
0.0107685
0.0149098
6.5897e-05
0.0817359
0.165954
0.0209714
0.0271971
-0.000714288
-0.0146489
0.0377383
0.00144725
-7.79199e-05
-0.0102136
-0.004433
-0.000830422
-0.0123144
-0.000954643
0.282899
-0.0099178
-0.159637
-0.0263664
-0.0117422
0.0129598
0.491692
-0.0470628
-0.00014769
0.472685
0.185816
0.00852098
-0.00641604
0.00826338
0.0156172
0.179715
0.000376975
-0.0033691
0.58194
0.316556
0.350361
-0.0486219
-0.00155183
-0.00136483
-4.91987e-05
-0.00144858
0.319373
0.0927653
-0.00660431
-0.00595373
-0.000412213
-0.0195172
0.555173
0.423217
0.0894128
-0.0031195
-0.0676974
-0.00541262
-0.000810865
-0.0244213
0.0148028
-0.0294382
-0.00387701
0.000980344
-0.105267
-0.113907
0.0333264
-0.0269404
-0.00479938
-0.0278376
-0.000230157
-0.00758476
-0.000772198
0.369294
4.40848e-05
2.07782e-06
-0.0326456
-0.0212731
-0.0308434
0.0427314
3.28745e-05
-0.0999855
0.0731226
0.220467
0.623013
-0.00504988
-0.129509
0.0332074
-0.00227738
0.0800837
-0.000669514
0.0113951
-0.000217615
0.285987
-0.0739429
0.0116501
0.148951
0.131359
0.00159202
0.00304925
3.42067e-06
0.442126
-3.68425e-06
-0.0481624
0.000359198
0.00181964
0.203616
0.114389
-0.0863752
-0.0416513
-0.00445971
0.658735
-0.0885935
4.20088e-06
-0.0166901
-5.75058e-05
-0.0179668
0.116794
0.221438
0.000966935
-0.0375801
-0.0101525
0.167881
0.0548935
-0.034699
0.568077
-0.0106773
6.73795e-05
-0.163383
0.589984
0.00195168
0.104138
-0.0477286
0.166419
0.00205409
0.0359781
-0.0794291
0.00574584
0.0604452
-0.0321303
0.223914
-0.0279488
-0.0207901
-0.000881672
-0.000888344
0.516139
-1.20613e-05
-0.00607485
-3.95315e-05
-0.0087052
0.000377536
-0.00787277
0.278309
-3.01819e-06
-0.00111809
0.120621
-0.164502
-0.02633
0.00123376
0.429847
-0.0617853
0.19297
-0.0127112
0.175525
0.00730255
-0.000824472
-0.0491537
0.00083309
0.527843
-0.0292237
-0.00013895
0.00245761
0.161159
-0.0120748
-0.000772306
-0.000151488
-0.104601
-0.00281571
-0.0105707
-0.0850119
1.9072e-06
-0.0734772
0.000434661
0.378543
-0.0110562
0.16887
0.00478353
-0.0039982
0.298727
-0.0709342
-0.15924
-0.0047041
-0.115215
0.307391
0.324438
-0.0151031
-2.79008e-05
-0.0165607
0.0050129
4.50415e-06
0.071301
0.408558
0.0136653
0.00172686
0.00904446
-0.0748094
-0.000192025
0.0899624
0.0535373
0.0839186
0.0143919
0.0300379
-0.000431288
0.199038
-0.0613044
-0.171889
-0.00109951
0.0211043
0.164798
0.00087169
-0.0767808
0.243749
-0.0475726
-0.0785358
-0.0776089
-0.111057
-0.1142
0.0581494
0.245631
-0.129103
-7.57141e-06
0.000905441
-0.0289107
-0.00194989
0.00687094
-1.1846e-05
-0.0061808
0.00430967
-8.28953e-05
0.0634908
-0.000572291
0.136923
-0.0361777
-0.00699868
-0.00743388
-0.00918537
-0.0761798
-0.00630784
-0.00113726
0.0231671
0.0878776
0.00480176
-0.035403
-0.00321764
0.0319081
-0.0101858
-0.0206459
-0.07761
-0.0170408
-4.51146e-05
-0.0163215
0.470328
2.69996e-05
0.151482
-0.0553458
0.557135
0.0536394
-0.0496611
-1.1365e-06
0.00183134
-0.101812
-2.35878e-05
-0.00294733
-5.27623e-06
-0.0863046
0.0049049
-0.100424
-0.0246344
-0.000145238
0.301733
0.291552
-0.0385516
0.000489561
-0.000198563
-8.07413e-06
-6.93601e-05
0.504254
-0.00144965
0.00248462
0.0238022
0.00103344
-0.000659992
-0.0785845
-0.000283735
0.0510647
0.00206401
-0.00228128
-0.000821801
-0.0274902
-0.0449282
0.20293
0.113509
-0.000187368
-0.0142115
0.00058272
-0.0706634
-0.000652602
0.153244
-0.0106821
0.653835
-0.0187187
-0.00159722
0.0837017
-0.0204555
0.373906
-0.0455894
-0.0121579
-0.0140522
0.0201026
-0.00395736
2.88277e-06
-0.0090537
0.334963
-0.0466773
-0.00355712
-0.0446417
-0.0290509
0.172203
-0.000569619
0.306555
-0.00380447
-0.0742062
-0.000595682
0.0144936
0.0508206
-0.00774527
0.360474
-0.0005304
0.0364059
0.0989669
0.000520358
-0.000160461
0.545262
0.0764317
-0.00127135
0.0327674
0.0208024
0.000129908
-0.0731944
-0.0240358
-0.154061
-0.0115337
0.361325
0.00452309
0.19075
-0.000448961
0.423559
-0.0759267
-0.00580295
0.00680051
0.0345857
-0.0788739
-0.133116
-0.00936409
4.46218e-05
0.601473
-0.0243997
0.000888192
-0.0399612
-0.0425765
0.367765
0.00328891
-0.0177327
-6.67245e-05
0.0961263
0.00881724
-0.0413354
0.000879337
-0.00385069
-0.0302894
3.59001e-05
-0.0562661
-0.00174951
-0.0161345
-0.0696448
0.316319
-0.0112382
0.0507829
-0.0537843
-0.0351781
-4.34983e-05
0.000149047
-0.00420075
3.75242e-05
-0.0122311
0.0122517
-0.0022919
-7.02655e-06
0.536887
0.00550855
0.000352524
-5.27019e-05
-0.00238686
0.355308
-0.0564735
0.602961
0.210585
0.0245163
0.311105
-1.33512e-05
-0.0160208
-0.000953401
-0.00276623
0.220455
-0.0112099
0.600994
0.285721
-0.0625003
0.297117
0.00958751
-0.015646
0.00245801
-0.0562395
-0.00441606
-0.0563362
-0.0600317
-0.00338079
0.293228
-0.0109692
0.000146843
-0.00480079
-0.000758304
-0.0365374
-0.000195428
-0.00142149
-3.29982e-05
0.182522
-0.130912
0.30221
0.0310138
-0.00307802
-0.0380711
-0.0222382
0.0824507
-0.00343065
-0.00120442
-0.0710875
-0.049817
0.0098162
-0.0462708
-0.00502545
0.00883332
0.00228899
2.85604e-05
0.158267
-5.41842e-05
0.063991
-0.000921134
3.13735e-06
0.00219844
-0.000768847
-0.00138198
-0.0177721
0.202938
0.170629
-0.0218238
-0.0139746
0.00320408
-0.00570805
-0.0113336
-5.50992e-05
-0.000566507
0.000753221
0.130531
-0.00973658
-0.0635207
-0.059926
-0.00264653
-0.0277691
-0.0171985
-0.00194023
0.00585532
-0.0137963
0.272449
-0.0803831
0.00617926
0.00169279
-0.0419207
0.591953
-0.0111354
-0.00608286
0.00860019
0.0933352
0.00444147
-0.00593945
0.294756
-0.000425008
0.049931
-0.0267512
-0.0672226
0.00704142
-0.00420704
-0.00618779
0.0463855
-0.00407369
-0.000719458
-0.0018948
0.00279114
-0.000276005
0.0353997
-0.0104664
-0.00231038
-1.28174e-05
0.184656
-5.48221e-05
-0.0364609
0.0901596
-0.0278586
0.000139293
0.129058
-0.0508197
0.198771
-7.16851e-05
-0.00445202
0.114162
0.000186189
0.00548021
-0.00508612
0.0116159
-0.022823
-0.035392
-0.0101312
-0.00303423
0.0109998
0.0231667
0.108441
-0.000220128
0.134575
-0.0441055
-0.00373243
-0.00778366
0.000438805
-0.0737532
7.68218e-05
0.475058
0.25042
-0.000565055
-0.0237011
0.000104795
-0.00245334
-0.00634262
-0.0200313
0.184234
0.1839
0.0180164
0.0113139
-0.0797066
0.0410354
0.0559754
0.0691762
-0.0558397
0.0172016
0.243858
-0.0106618
0.41099
-0.00105586
-0.0121256
-0.0580007
-0.000115993
-0.000862826
-4.84745e-05
0.407963
-0.0114989
0.000284088
-0.0171562
-0.00609678
-0.000376162
-0.0145926
0.314413
0.00105343
0.0121609
-0.0345009
-0.00056274
-0.00513764
-0.000916922
0.60953
0.000223413
2.68045e-05
-0.00217923
-0.0159848
0.113369
0.000586503
0.0122422
0.0884791
-0.000188279
0.00226254
-0.079514
0.0720194
-0.0561833
8.16688e-07
0.000361884
-0.00642149
0.0355125
0.341777
0.106378
-0.0368193
1.03384e-06
-0.064641
-0.00292607
-0.013806
-0.0133466
0.202554
0.456307
-0.000127014
0.170965
0.267358
-0.0106926
-0.0256138
-0.0266414
-0.0167108
0.000112395
-0.0433837
-0.0095094
-0.000148554
-0.000618828
-0.00176874
-0.00211201
-0.000759749
0.335139
0.356564
0.226639
-5.08826e-06
-0.0252026
0.0408074
0.12114
0.481031
-0.000550521
-0.0217492
-0.0199801
0.33281
-0.0207279
-0.0104902
-0.00946569
0.175362
0.000317518
-0.000569159
-0.028345
-0.0514226
0.164302
0.0487769
-0.0477796
-0.0263705
0.113624
0.0220044
-0.0542231
0.00767498
0.0281931
0.167414
-0.000395849
-0.000703264
0.118578
0.000215158
0.0316202
0.0350394
-1.41521e-05
0.308305
-0.0116636
-0.0048894
0.62708
-0.0393935
-0.0111201
-0.0411089
-0.00295277
0.452534
0.00124812
0.594195
-0.000158217
-0.0234994
0.603424
0.00751655
0.450544
-0.00628859
-1.11035e-05
-0.0299052
0.458089
-0.00175432
-0.0072647
-0.00882176
-0.00111375
-0.0231435
0.461056
0.126624
1.62623e-06
0.0218441
-0.00410322
0.0329369
-0.000991889
0.025544
-0.00287822
-0.000533098
0.438992
0.470121
0.443705
-0.0549814
0.0451836
0.000148586
-0.0595567
0.309509
0.0171092
0.000251831
-0.0806028
0.00063477
-0.000121744
0.467947
0.000128918
0.00460774
-0.0021306
-0.00996082
0.447966
0.46129
0.474907
0.0130431
0.000514555
0.237663
0.00831441
0.0263059
-0.00989702
7.14629e-05
-0.00323524
-2.60047e-05
-0.00497652
-0.000828452
-0.00631952
-8.27306e-05
0.167832
0.002319
-0.0866051
-0.0100029
-0.0748583
-0.0175081
-0.00085959
0.372856
-0.0116495
-1.57336e-05
-3.69683e-05
0.584315
2.84655e-05
0.0124865
0.0635839
-0.0192351
0.326694
-0.00569842
-0.0454519
-0.0390128
-0.000569681
0.000129569
0.280471
0.471586
-0.00169469
-0.0242319
-0.000263573
0.46563
0.562962
-0.00158231
-0.00712777
0.0211985
0.00335473
-0.0261175
6.5002e-05
0.0110884
-0.040196
0.0641353
0.375242
-0.0016549
0.0314106
0.125467
0.0437388
-0.0463903
0.0310255
0.546788
0.209282
-0.0549898
0.471155
-0.000653858
0.48033
-0.00802798
0.396989
0.0859614
-0.00549802
0.0393294
0.0026374
0.0193242
-0.0752615
-0.000738587
-0.0247855
0.396615
-0.0282455
0.0267923
-0.00162605
6.93503e-06
0.202372
-0.00990093
-0.0234942
0.0007622
-0.00394541
-0.0253718
-0.00234753
0.00214648
-0.00949903
-0.000553067
0.00265213
0.394574
0.00233757
-0.0168762
-0.062798
-0.0308826
-0.0654004
-0.0982745
0.00456268
-2.9926e-06
-1.82338e-05
0.281209
-0.0664823
6.07312e-05
-0.0654056
0.193706
-0.063995
-0.0158474
0.000120268
-0.00206776
-0.0480286
0.160237
-0.00948704
-0.000528474
-0.0478915
-0.0209102
0.60676
0.12106
0.0754908
-0.056973
-2.1305e-06
-0.00719386
0.070614
-0.000413064
1.84763e-05
0.184333
0.110264
0.000661491
-0.000940138
0.0076685
-0.0433462
0.0111117
0.0086457
-0.0159372
5.34887e-05
0.307801
0.000621408
-0.000684547
-0.00025979
-0.000242464
-0.000174107
0.088525
0.000988953
-0.00300528
-0.0100976
-0.0051246
0.0309047
-0.00573748
-0.0431153
-0.0109772
0.427733
0.355981
-0.000535124
-0.00158751
0.1065
-0.000884468
-0.0227737
0.0719509
0.100198
-0.00104304
0.0221152
0.0431494
0.00138278
0.114576
-0.000116621
0.00795369
-0.0173056
0.014763
-0.0152848
0.0523855
7.30422e-05
2.3346e-05
0.00028303
-5.70194e-05
-0.00165413
-0.0101461
-0.0132954
-0.0301948
0.0652049
0.0408371
0.00979279
-0.0729617
0.0117156
0.00664888
0.0138925
5.86693e-05
0.461584
-0.00861449
-0.00343944
-0.0159711
0.614456
6.01416e-06
0.0812794
-5.12996e-06
-0.0460316
-0.00668353
-0.0225702
0.183039
-0.00415824
-4.79834e-05
0.194689
0.0762285
-0.00058957
0.0545822
-1.24014e-05
0.170785
0.00678885
-0.0289469
-0.00015769
0.253645
0.0300812
-0.0207723
3.44212e-05
0.177153
0.324613
-0.00117432
-4.32846e-05
-0.0371811
-0.00923285
0.00564122
0.0236366
0.482308
0.280867
0.000490336
0.350552
0.260297
-0.00293726
-0.0552904
-0.0394166
-0.0167406
-0.0614162
0.149622
0.000836629
0.501584
0.157503
0.0129075
9.23286e-05
0.000646581
8.65859e-06
-0.000587706
-0.00286024
0.536174
2.71186e-06
0.0824619
0.0281647
-0.000240517
0.497384
0.563038
0.205675
0.238027
3.78611e-05
0.00253894
-0.00030083
-0.0111708
-1.36247e-05
-0.001133
-0.161937
-3.30961e-05
-0.00193532
0.509825
-0.0117044
-2.13529e-05
0.531402
0.00046296
-0.0350083
-0.0721611
-0.00135041
-0.0932987
-0.000245021
0.160524
0.00340905
-0.017555
0.00197734
-0.000679812
-0.000405555
-0.000232852
-0.166832
-0.0613435
0.159214
0.00282545
-0.00681578
0.24541
7.10362e-05
0.588619
-0.000560724
-0.0834546
0.00228703
0.00166395
0.0525449
0.0552967
-2.49876e-06
-0.0041857
0.000102634
-0.000690026
0.000850844
0.0863652
0.0502567
0.329877
-0.0502343
-0.000104661
0.000165946
0.101278
0.358343
-0.00447783
-0.00631162
0.589536
-0.00281203
-0.0204499
0.000891199
0.0764729
-0.0494197
-0.0085368
0.162886
0.0013442
-0.000257281
0.00168059
-0.00288344
0.578578
0.460447
-0.0238689
-0.0416028
-0.00647266
0.00158482
2.26251e-05
0.0771184
0.208565
1.34932e-06
-0.00728796
-2.00356e-05
0.000129431
0.434209
-2.4447e-07
-0.0859683
-0.0640358
-0.111943
0.0713291
2.12786e-06
0.0100302
-0.00619354
0.401458
-9.15001e-05
0.00504373
-0.0300981
0.000630655
0.360214
0.213722
0.010863
0.0563575
0.515316
-0.0657537
-0.0608552
-0.00192769
-0.00700656
-0.000391312
0.0234438
-7.34628e-05
0.170516
0.00292373
0.203434
-0.0349327
-1.42353e-06
0.0575693
-0.00017407
-7.90743e-06
-0.000769742
0.575451
0.552906
0.321776
5.50639e-05
0.189589
0.478506
-0.000983456
0.00150049
-0.00839957
0.085792
0.460931
-0.0272176
0.124482
-0.00257614
-0.0636793
-0.0721448
0.636193
-0.000606423
0.459046
0.0897955
0.19545
0.000106547
0.000206996
0.00539674
-0.00889939
0.0848457
-5.77769e-05
6.28062e-05
0.450596
-0.123457
0.000288334
0.471774
-0.00233072
0.000147746
0.383829
-0.00710294
-0.00154894
0.0123432
0.160743
0.000313227
-0.000136569
0.00346711
-0.00403714
0.447391
0.57187
0.292474
0.621502
0.127948
-0.0452485
0.520545
-8.35843e-05
-0.00322807
0.151649
-0.00343922
-0.000657272
-0.000103031
0.470269
0.0263073
-0.000653281
0.557149
0.0763095
0.252548
0.0438294
-0.00271592
-0.0204537
0.162912
0.0743428
0.46869
-0.0243632
-0.000787399
0.431878
0.399349
0.0130534
0.33663
-0.0395486
-0.0077179
-0.00930662
-0.000642465
-0.000143507
0.43676
-0.0628852
0.0163631
0.00078897
0.159597
-0.030767
-0.0195052
-0.00100052
-0.00386311
0.487312
-0.00080386
-0.0171638
-0.00298308
0.479337
-0.019179
0.0199397
-0.00740669
0.00138543
0.15504
-0.021531
0.498211
0.132349
0.618581
0.251617
-0.0582541
0.0310714
-0.00178245
0.00841746
-0.0307928
0.453901
0.483761
0.540472
0.322227
0.441235
-0.000377783
0.511671
-3.3742e-05
6.45839e-05
-0.0470866
0.551541
0.050233
0.247742
-4.80005e-06
-0.00214577
-0.0672708
-0.0361202
0.446207
-0.000682202
-0.00758097
0.321553
0.00102578
-0.00419188
0.599449
0.0469113
-0.0445446
-0.149345
-0.000543018
0.0739889
0.125892
0.626181
0.102062
0.0517157
0.0041591
-0.00023892
-0.00833476
0.191598
0.00545325
0.000125049
-0.0974443
0.241162
-0.00147644
0.459494
-0.077125
0.464686
-0.0274079
-0.0225299
0.517833
-0.00526446
0.0455596
-0.000407803
-0.00131687
-0.0612541
-0.0218941
-0.0350845
-0.00953252
0.00428802
-0.105647
-0.0685955
0.462304
0.00024932
0.000738204
-0.0200145
0.118696
-0.114333
-0.0571454
6.7306e-08
-0.102305
0.04612
-0.00010823
-0.0911952
-0.0108946
0.468677
-0.113551
0.45762
-0.0133215
0.115015
0.245971
-0.033638
0.311573
-0.00175328
0.10413
0.000722285
0.0837801
0.19299
0.170992
-0.0275308
0.00595613
-0.000662745
0.175075
-8.45607e-05
-0.000132284
-0.00102768
-0.00228654
0.0152061
0.0144392
0.39202
0.154348
0.582176
0.363606
-0.0015129
-0.0310802
-0.00017129
-0.0465853
-0.00122234
0.00558563
0.000616887
-0.033122
0.323569
0.457428
-0.00029002
1.99494e-05
0.0444042
-1.5124e-05
-0.00882305
-0.00018453
0.131773
-0.0340097
0.182643
-0.0982162
3.29846e-05
-0.0133362
-0.0382211
-0.025113
-0.0157852
-0.0498237
0.0531677
-0.00016423
-3.61816e-05
0.00200537
-0.00014031
0.077772
0.0980146
0.0378625
0.541401
0.0430891
-0.149132
-0.0825237
-0.000435077
0.0493159
-0.000126546
0.432449
0.0955046
0.504729
0.00013055
-0.0312432
-0.00654986
0.0477144
0.194909
0.396393
-0.00729047
0.0295834
-0.00184736
-0.0186214
-0.00769559
-0.00585925
0.102386
0.00151721
-0.00825511
-0.0194128
0.243384
0.0625642
2.83422e-06
-0.000866473
-0.00596253
-0.000594463
0.111904
-0.000653664
-0.0318765
0.144802
7.20834e-05
0.248223
8.15699e-05
-3.18199e-06
-0.0925027
-0.0191252
0.000153843
-0.0214306
0.000150374
0.525997
0.0119053
-0.0229024
0.491118
0.121341
-0.0297334
0.385775
-0.00266134
-0.00181737
-0.002012
0.0808521
0.656952
-0.00144778
-0.00059702
-4.87931e-06
0.00750087
-0.0012165
0.0242917
0.00585398
-0.0198341
-0.0560357
0.017572
0.0100431
-0.0178249
-0.000528271
-0.0174089
0.38114
-0.00175475
-0.0130734
-0.000229188
0.393723
0.0515051
0.377253
0.000408764
-0.000827361
-0.0227082
0.543417
0.138766
-0.0267952
-0.000131616
0.0299014
0.0981536
-0.0262452
0.193118
-0.0447633
0.0184154
-0.156167
0.396662
-0.015867
0.235824
-0.00304464
0.62263
-0.0387549
-0.0104601
0.496741
-0.040443
0.156867
-0.170196
0.174204
0.00613634
0.0472535
0.309266
0.0473641
-0.0450641
-0.00921032
-0.00723527
-0.0145856
-0.00466544
-0.00145642
-0.0543277
-0.0265901
0.00185983
-0.0620003
-0.0787719
-3.95214e-05
0.12907
-0.00867467
0.134553
0.499822
0.351694
-0.0501774
-0.0678766
0.000428449
-0.0819887
-0.00423665
0.603666
-0.0332413
-0.0284956
0.34734
0.0454213
-0.0382261
0.220614
-0.0347496
-0.000635511
-0.0111279
0.00953501
0.000601391
0.364909
-0.00260089
0.134213
0.317541
-0.00543162
0.226905
-0.110427
-0.000365507
0.00634695
0.0812859
0.331253
-0.00242856
0.0785982
-0.0679715
0.0658467
-0.0217463
0.355669
0.00278731
-0.0739745
-0.00306461
0.000170569
0.455706
-0.00236867
-0.0320145
-0.000109007
0.197644
-6.47496e-05
-0.0468965
-0.00270755
-0.151915
0.000600754
-0.00977481
0.188984
-0.00374869
0.000880202
0.000583379
-0.00394661
0.0513437
-8.13033e-05
-2.60482e-05
-0.00810417
-0.0100306
-0.0216917
0.00773616
-0.0018398
0.0706821
0.0750595