/*--------------------------------*- C++ -*----------------------------------*\
  =========                 |
  \\      /  F ield         | OpenFOAM: The Open Source CFD Toolbox
   \\    /   O peration     | Website:  https://openfoam.org
    \\  /    A nd           | Version:  7
     \\/     M anipulation  |
\*---------------------------------------------------------------------------*/
FoamFile
{
    version     2.0;
    format      ascii;
    class       volScalarField;
    location    "33.5";
    object      p;
}
// * * * * * * * * * * * * * * * * * * * * * * * * * * * * * * * * * * * * * //

dimensions      [0 2 -2 0 0 0 0];

internalField   nonuniform List<scalar> 
20933
(
0.00118443
1.17293e-05
0.00225792
-6.55485e-05
-0.0027547
-0.0030117
-0.0882505
0.327181
-0.0377207
0.317524
-0.0846843
0.179458
-0.0236387
0.00105352
-0.000616181
-6.79576e-05
-0.0654852
0.184166
-0.0525928
0.000530042
-0.0351058
0.190782
0.318571
-0.107108
0.000594609
0.558288
-0.00130236
-0.0219409
-0.140882
-0.0547981
-0.000195344
0.64314
0.296703
-0.0109014
-0.000515252
-0.000328335
0.366339
8.94301e-05
-0.00418365
0.151727
0.00555547
0.38093
0.450772
-0.00129964
0.558708
0.00105094
0.280693
0.0530737
0.00011336
-0.0196087
-0.000534281
0.0265956
-0.0902139
-0.00114832
-0.111915
-0.0096088
-0.0134396
-0.000462824
-0.0167708
-0.0560623
0.589536
-0.001377
-0.000670144
0.291944
0.000301211
-0.00242924
0.543156
-0.0025016
-0.0130194
0.554577
-0.0074874
-0.0871807
-0.00054467
-0.0154813
0.545392
-0.024867
0.545653
-0.00876119
0.149952
0.50799
-0.00208599
-0.00147854
-0.139888
-0.0354204
-0.000431692
0.454997
-0.0194731
0.703194
0.291168
0.584995
0.25728
-0.000128151
-9.56047e-05
0.676981
0.0354315
-0.000262181
0.682975
-0.00109723
-0.0735983
0.358309
0.590894
-0.00496234
0.600303
-0.0576089
0.0663368
-0.0199306
0.511383
-0.0321359
0.00254469
0.484262
-0.149077
-0.0884725
-0.00996083
-0.00141241
-0.0188095
-1.83847e-05
0.440508
-0.00205971
-0.0776327
0.500435
-0.000125131
-0.0401841
0.17203
-0.0213127
-0.0109389
0.185344
0.25605
-0.0211642
0.651331
0.451623
-0.0273583
-0.0179965
0.00576322
-0.00324233
0.515469
0.0571202
0.0986789
-0.0385175
-0.00392162
-0.0461328
-0.0429075
-0.017009
-0.108626
0.609736
0.0384182
0.522088
0.311883
-0.00439313
0.234325
-0.00151247
-0.00343003
0.547171
-8.68144e-05
-0.0301038
-0.00141957
0.317734
0.46386
-0.111019
-0.00981569
-0.0250553
-0.117693
-0.0809127
-0.000292122
0.050494
0.117025
0.696853
-0.00414506
-0.127866
-0.0248185
0.358852
0.0848654
0.561679
0.466817
-0.00981323
0.722742
0.285219
0.000702404
0.575723
-0.0156611
0.50452
0.530406
8.60994e-05
0.606072
0.463095
0.000560637
-0.0112084
-0.00636937
0.341241
-0.062654
0.655407
0.254273
-0.0267874
0.367097
-0.00646642
-0.011186
0.160968
0.602561
0.0166912
-4.49106e-05
0.662534
0.0917646
-0.0926311
-0.0797287
0.643459
0.617585
-0.0125931
-0.0136267
0.0280193
-0.00984218
0.00067169
0.538275
0.57287
-0.00628618
-0.0181278
0.495209
0.545046
0.0018258
0.50051
-0.0242011
-0.00228694
-0.0213633
0.477521
0.628848
0.259929
0.480815
-0.00486822
-0.0127101
-2.02348e-05
0.00148824
-0.00208709
0.168325
-0.0537089
0.503432
-0.0440023
0.467878
-0.0184973
-0.0143126
0.558044
0.689184
0.469946
0.540709
-0.017072
0.377434
-0.0201181
0.074934
-0.00165925
-0.132304
0.00714148
0.0271047
0.000106682
0.00254252
0.634109
0.16941
-0.00510989
-0.0251723
-0.0523706
-0.10918
0.387603
-0.0431455
0.00206337
-0.0258689
-0.00939146
0.000360349
-0.0176547
-0.0766932
0.607427
0.00269439
-0.00908899
0.473061
0.614531
-0.0191028
-0.000345031
-0.0313336
0.543376
-0.151845
0.585878
-2.71722e-05
-0.0202672
0.48165
0.531757
-0.024834
-0.0120452
0.654753
-0.0677804
-0.0295508
0.596855
0.651272
-0.0212971
0.491394
0.0983116
0.503013
0.416788
-0.0003423
-0.00762703
0.370217
0.000739939
-0.0554112
0.0403816
-0.158171
0.0861457
0.0320251
-6.39183e-05
-0.000752814
0.584855
-0.00360221
-0.0697208
-0.0293524
0.197778
-0.00204406
0.502146
0.0833425
-0.0276077
-0.0102933
0.341077
0.176895
-5.94014e-05
0.580281
0.456335
0.570474
-0.0991508
0.000315177
0.648835
-0.000975554
-0.0177919
0.16341
0.025473
-0.0194209
-0.0802812
0.466864
0.676304
0.531196
0.126539
0.731112
-4.30111e-05
-0.00944338
0.532009
-0.122601
0.365952
-0.0142809
0.552821
0.0769726
-0.000839243
0.0746824
0.437221
-0.114292
0.597893
0.440086
0.000164341
0.000999608
0.299202
0.197195
0.00243106
0.460614
-0.0146926
0.720053
-0.0419486
-0.00532905
0.00175476
0.527158
0.454388
-0.00317587
0.340462
0.583233
-0.00376203
0.410053
0.452199
0.723444
-0.000674177
0.221055
0.00473758
-0.0127654
0.000157879
0.550949
0.386345
0.000620335
0.565162
0.141385
-0.0127857
0.371473
0.120065
0.175934
0.721563
-0.0343364
0.136475
0.570147
-0.0253057
0.0769884
-0.0745656
0.288138
0.00279717
0.265582
0.00218988
0.130174
-0.00144535
0.286186
0.565514
0.421411
-0.142624
-0.00874494
0.636463
0.638143
-0.0016389
-0.0188963
0.503263
-0.0654147
-0.0210468
0.388857
0.00119644
0.750089
-0.0197822
0.242243
-0.00235951
0.569651
0.43517
0.0313996
-0.0293775
-0.0284009
0.0925169
-0.00119217
0.501825
-0.0866809
0.301498
0.712081
-0.100814
-0.0178954
-0.00219515
0.0621565
0.00353693
-0.00936613
0.407253
-0.000408459
-0.0172224
-0.00225673
-0.0548824
-0.0166352
9.57141e-05
-0.0258289
0.14903
-0.126708
-0.0204166
-0.0135448
0.0513346
0.0427648
-0.021832
-0.00513074
-0.00150229
-0.0125445
-0.072151
-0.00138152
-0.0213011
0.182129
0.41341
0.0593965
0.000199026
0.668873
-0.00126445
-0.000407745
0.00477868
-0.0178436
-0.0295204
0.612603
-0.0154292
0.10471
-0.0609435
-0.0662612
0.377968
-0.0180547
-0.0296441
-0.0518633
0.000128957
-0.0514966
0.678941
-0.104656
-0.0245019
0.405701
-0.0223764
0.413689
0.239643
-0.00104992
0.000661723
0.459089
0.703597
-0.107193
0.298444
0.137291
-0.018772
-0.0197959
0.50199
0.0539943
-0.136365
-0.0718399
0.000960349
0.0159193
0.63424
0.144958
-8.05384e-05
0.602864
-0.0178635
-0.0336062
0.472865
-0.00329494
-0.00223716
0.000107112
-0.012386
-0.00943943
-3.08142e-05
0.292092
-0.149276
0.505657
0.000358772
-0.0011739
-0.0228103
-7.70254e-06
-0.110183
-0.132687
-0.00114507
-0.0279914
-0.0130514
0.46383
0.571477
-0.000745676
-0.000887331
-0.0423156
0.578083
-0.00963946
0.57844
-0.00367047
0.712517
0.423898
0.247906
0.688761
-0.0765079
1.37492e-05
0.00531665
-0.00889415
0.565838
0.4985
-0.00414801
-0.121976
0.0639844
-0.0264777
0.00125791
-0.135698
-4.00441e-05
0.471157
-0.00886884
-0.0261271
-0.00960657
-0.021787
0.245569
0.0694424
0.00137283
-0.0132775
-5.38858e-06
0.711873
0.627996
0.00070593
-0.0057805
-0.00392749
0.496497
-0.014581
0.139332
-0.0219326
0.537914
0.245834
-0.0105191
0.742757
0.0118929
0.523404
-0.00393457
-0.0764077
0.59569
-0.0117003
0.712989
0.481965
0.723615
-0.000107576
0.00102302
-0.0376422
0.0158803
-0.00273425
-0.0326596
0.525109
0.546115
0.418634
0.572416
0.707123
0.303731
0.566263
0.421642
-0.00460226
0.465712
-0.0277804
-0.0220312
-2.5525e-05
-0.0271058
-0.0910023
0.341026
0.0377621
0.507299
-0.0185145
0.0875478
0.488689
-0.00853716
-0.0281538
-1.72458e-05
-0.000233101
0.339989
-0.0292652
-0.0198574
-0.000272096
-0.000692071
0.0552642
0.000219215
0.0335223
0.713967
0.311648
0.300055
-0.00406897
0.497649
0.0731497
-0.00898559
-0.00601216
-0.000417461
0.000133851
-0.00159388
-0.00960057
-0.0777723
0.346595
-0.00672488
-0.00271294
2.23954e-06
0.529922
-0.0351129
-0.100598
-0.0117756
0.111569
-0.031779
-0.000497135
0.488948
0.655416
0.440035
0.00152474
0.447061
-0.00283065
-0.0183375
0.33357
-8.60399e-05
-0.0103086
0.228739
0.29787
-0.0102726
0.489513
0.622783
0.476905
-0.0182722
-0.00841895
-0.0140698
0.124706
0.453032
0.000486241
0.593975
-0.0185215
-0.0778581
0.0144643
0.677169
0.349846
0.504059
-0.136358
0.694507
-0.00914722
-0.0179552
0.729691
0.0232308
-0.065198
0.515795
0.537768
-0.0165457
0.446835
0.578235
0.533039
0.487712
0.524506
0.426976
-0.00121573
-0.00951554
-0.00202586
-0.0674092
0.564853
-0.0624936
0.186261
0.194236
-0.0216947
0.042454
0.222116
0.574703
0.0470689
-0.000856542
0.0192947
-0.0215244
-0.0701038
-0.0871611
-0.0700704
0.482113
0.597028
0.0338963
0.57064
0.707803
0.00166915
-0.000978302
-0.00130143
-0.00317183
0.381769
0.714439
0.151115
0.498163
-0.00902508
0.427468
0.439882
-0.118105
-0.00828973
-0.0167031
0.182234
-0.0134859
0.00420768
-0.0180423
-0.0197693
0.507312
0.000147313
-0.0191116
0.538724
0.0369822
0.652525
-0.0391699
0.414366
-0.0844932
-0.0300534
0.591346
0.651163
0.564546
-0.0114396
0.656458
-0.0165647
0.589874
0.00342483
0.562023
-0.019989
-5.56797e-05
0.563745
0.595287
0.590794
0.563874
0.339917
0.0834115
0.395419
-0.0639593
0.563375
0.485261
-0.0311079
0.0402461
-0.00156263
-0.0725132
0.49427
-0.0160115
-0.00308429
0.575069
0.571514
-0.0255448
0.555907
-0.0806626
0.0962307
0.00279557
0.582232
0.592447
0.707604
0.584436
0.000845801
-0.0100005
1.41583e-05
-0.0322205
0.64763
0.27869
0.48412
-0.0182449
0.423989
-0.00253333
0.650309
-0.0387382
0.573443
0.00235988
0.632499
0.66428
-0.0101671
0.130076
0.627765
0.00109484
0.674535
-0.0219108
0.0013563
-0.00817392
0.52896
0.220011
-0.0481989
0.563573
0.6791
0.436423
0.0129527
-0.026859
-0.0029444
0.570419
0.659819
0.734854
0.269465
-0.00254663
0.00199926
0.492227
-0.002213
-0.000854924
-0.00282683
-0.0104744
-0.0783414
-0.113478
0.606627
-0.0138567
-1.89412e-06
0.472881
0.258489
-0.00352706
0.152393
-0.00084079
0.217804
0.481285
0.560363
-0.101059
0.155881
-0.00396178
-0.0382921
0.000338014
0.574848
0.611365
-0.138286
-0.129286
-0.11414
-0.0343164
0.566718
-0.0265386
-0.0762749
-0.0899943
-0.0256411
0.689662
-0.108114
0.017225
0.577274
0.00111019
0.0908077
-0.0215739
-0.0830305
0.000687683
-0.00081784
0.686681
0.405243
-0.140173
-0.0320403
0.422465
0.548345
0.482136
-0.0780433
-0.0196949
-0.0177133
-0.0196884
0.458727
-0.00295769
-0.0273437
0.000126222
-0.00918336
0.000496976
-0.0909088
0.532297
-0.0705319
0.577309
0.564502
-0.0208811
-0.0110189
0.702602
0.433296
0.0205847
-0.0124275
0.424202
-0.0244069
0.375311
0.687266
0.371721
-0.00345005
-0.0141515
0.517487
-0.0238738
-0.0611233
-0.0287511
0.620952
-0.0167358
-0.0448909
0.413608
0.314318
0.470469
-0.0200833
0.351642
-0.0302407
0.576032
-0.0944567
0.208531
-0.0315186
-0.032376
2.95459e-05
0.000528355
-0.000542656
0.623567
-0.0403737
0.409846
0.0844461
-0.0490713
-0.0710459
0.290013
0.708322
0.640605
-0.0588315
0.264648
-0.0170919
0.0548117
-0.00225813
0.191264
-0.018292
-0.00188378
0.452891
-0.0305407
-0.00149397
0.614202
0.507784
0.591113
0.0145586
-0.0743604
-0.0086769
0.280179
-0.014533
-0.00011419
0.623723
0.120021
0.249036
-0.0297402
0.000123498
-0.0081256
-0.000877515
0.232391
-0.000460345
-0.0159994
-0.01028
-0.0223345
0.642499
1.3963e-05
-0.0311805
-0.010116
0.664017
0.000359273
-8.3453e-06
-0.0962886
0.172875
0.470459
-0.00992769
-0.00937086
-0.020142
0.483065
-0.0135835
0.261859
-0.110382
-0.108017
0.120288
0.459682
0.0990216
0.259818
0.000878552
0.505909
0.669687
-0.00467953
0.39603
-0.0391122
0.683282
0.657074
-0.0755659
0.0618838
0.0296714
0.402294
-0.000251351
0.562144
0.721261
9.74804e-05
0.183941
0.32083
-0.001019
-0.000452822
-0.00583884
0.709207
-0.0104451
-0.0337346
0.570875
-0.003596
0.39341
0.585492
-0.0150979
0.63228
-0.0191291
-0.0117269
0.588969
0.2734
0.469766
0.000994801
0.591913
0.228832
0.559578
-0.0559425
-0.00785202
0.19003
0.624705
0.58845
0.636898
0.569804
-0.0768719
-0.0104834
-5.04524e-06
0.426363
0.560549
0.666464
-0.0182432
0.330397
0.677559
0.532526
-0.00101055
-0.0155803
-0.00517627
0.172748
-0.045497
0.607441
0.286106
0.557924
0.126565
-0.0300972
0.561603
-0.0425212
0.438042
-0.0815139
0.0459417
-0.0118558
-0.0747263
-0.0527677
0.660963
-0.0483539
-0.0180041
-0.0516842
0.234036
0.0711612
-0.0162429
0.0411369
-0.0145286
-0.0604114
0.454204
0.245179
0.496395
-0.120392
0.580729
-0.0661403
-0.00068408
-0.0091602
-0.0150364
-0.103857
-0.118465
-0.00414099
0.329602
0.641445
0.204043
0.0587569
-0.0302336
-0.0564173
0.390484
-0.0226368
0.681797
0.33862
-0.00284377
-0.0119854
0.000466946
-0.067095
-0.0158665
-0.0236978
-0.0176707
-0.0862259
0.320059
0.651386
0.601986
0.281237
0.00139633
-0.0178764
0.000725064
-0.00784614
0.463211
0.00281041
0.443356
-0.0602928
-0.0102145
0.647282
0.660844
-0.000848162
0.568364
0.599639
0.159924
-0.0136362
0.219729
0.460735
0.658625
0.381776
-0.0653575
0.6442
0.10054
-0.0329075
-0.0365055
-0.0748818
0.673731
-0.0193066
0.578696
0.349459
0.639693
-0.0379415
0.402147
0.417646
-0.0771827
0.589597
-0.0144776
0.622101
-0.000400542
0.374725
0.441533
0.439544
-0.00218894
-0.0146887
-0.00133916
-0.0205277
0.351819
-0.015504
0.407124
0.383734
0.712923
-0.0146421
0.626389
-0.0134105
-0.0127909
0.0328782
0.567481
0.109732
-0.042205
0.0566752
0.493189
-0.00491075
0.698772
-0.0031622
-0.0593603
0.0821899
-0.00655452
0.571602
-0.0382501
0.604367
0.48425
0.165785
0.0285277
0.19504
-0.000824431
0.0174835
0.617173
-0.0306029
-0.0428842
0.360477
0.0645728
-0.0013662
0.0295679
-0.00454316
0.641597
-0.0157608
0.0280295
-0.0639079
-0.0176266
0.557883
0.716154
-0.0121788
-0.060346
-0.00188974
0.09872
-0.000845351
0.150343
0.661789
0.635072
-0.0172189
0.209741
-0.000265158
-0.019897
0.513781
-0.0119792
0.277726
-0.00930084
0.701902
0.495411
-0.0719906
-0.0145667
-0.0266389
0.699758
-0.0176824
-0.000627918
0.000366276
0.161143
-0.0675051
-0.00572108
0.129688
0.641936
-0.0840187
0.677522
0.735786
-0.0158979
-0.0434349
-0.000597955
0.000915605
-0.0460559
-0.0283128
0.692974
-0.0090127
0.00159248
0.442987
-0.0503177
0.48779
0.00166803
-0.0315213
0.483943
0.450834
-0.0689003
-0.0188664
-0.0553382
0.536354
-0.0166221
0.302571
-0.0196297
-0.00813368
-0.0190457
-0.00823708
-0.00278595
-0.0886033
-0.0852791
-0.096655
-0.000703451
0.135068
-0.000247011
-0.0171215
-0.0588454
-0.0106635
-0.0263617
0.64421
0.0349922
-0.0214997
-0.0149843
0.523725
0.000562572
0.458453
-0.0623519
0.0231288
0.00259898
0.482792
0.309107
-0.0209715
-0.0290321
-0.0299635
0.388164
-0.000320742
0.447348
0.530793
-0.00939411
-0.0436816
0.151913
0.149727
-0.0585205
0.170079
0.502732
-0.00818826
0.42738
-0.0221404
0.00281808
0.409794
0.66373
0.00970977
-0.00471247
0.557549
0.421616
-0.01036
-0.0332021
-0.10265
0.00973304
-0.0081038
-0.000734111
0.518509
-0.117979
-0.0494956
0.520066
-0.0621735
-0.0198043
0.305256
0.000362457
0.200771
0.443136
-0.0169699
0.445463
-0.00894896
0.632907
-0.0664324
-0.000313687
0.000104203
-0.00329506
-0.000603379
-0.00951537
0.203199
-0.0432973
-0.00400977
-0.0257881
-0.0111728
0.266568
0.572041
0.000377794
-0.0074189
-0.0135112
0.415064
-0.0539502
-0.0118965
-0.00801174
0.0807827
0.310266
-0.0109438
-0.00235178
-0.0694159
0.481732
0.519956
0.156101
0.453833
0.597088
-0.00991638
0.419396
0.150609
0.00765248
-0.00880514
-0.00772991
0.723304
-0.0118953
-0.0739601
-0.0164681
0.479659
-0.00279977
-0.00173056
-0.0179425
-0.0205152
0.000170305
0.573437
0.339955
0.427475
0.527632
0.4569
0.00012934
0.189007
0.365357
0.00890624
0.561088
0.251717
0.355732
1.32551e-05
0.372899
-0.0364278
0.23668
0.36771
-0.0821028
0.106076
0.0823399
-0.0142271
-0.00106544
0.0158415
0.220524
0.650913
0.241977
-8.07536e-05
0.327249
-0.00776058
0.369751
0.27494
-0.00230442
-0.0150981
0.410896
0.572847
0.133263
-0.0149417
-0.00793094
0.250969
0.428105
-0.0138748
0.511268
-0.0106558
0.195534
-0.0140692
0.609138
-0.000353738
-0.000956674
-0.001639
-0.00740588
-0.0862355
-0.000164803
0.432461
0.522537
-0.00116517
0.312371
-0.00145439
-0.00180872
2.23026e-05
0.263905
-0.00860256
0.318785
3.85606e-05
0.438346
-0.00878186
0.500707
-0.110223
0.539022
-0.0165892
-0.0030869
0.000578889
0.578852
-0.0204648
0.0619446
0.172344
-0.0003608
0.494688
-0.00254151
-0.0106413
-0.00726301
-6.96582e-05
0.576838
-0.00169609
-0.00876454
-0.00806613
-2.73531e-05
-0.00170159
0.507234
-0.000595132
-0.0150054
-0.00299858
-0.00107626
0.469103
-0.123873
0.0485474
-0.0396293
-0.00100617
-0.0101779
-0.0590652
-0.00605334
-0.00114792
-0.002268
0.287855
-0.000332223
-0.00398459
-0.0618815
0.180737
0.560185
0.000901181
-0.00134978
-0.00825481
-0.0253635
0.455771
0.513615
0.579876
4.80299e-05
0.231701
-0.0151171
-0.012397
0.340093
-0.015811
-0.00180167
-0.000899711
-0.00579606
-0.00793747
-0.00785215
-0.00237317
-0.00227521
0.00477172
0.433746
-2.8684e-05
0.324593
0.0858248
0.0495856
0.261309
0.166093
0.377754
0.0184141
0.425731
-0.000851692
-0.0117098
0.397024
-0.0266957
0.461749
0.440293
-0.0132164
-0.012725
-0.000337524
-0.00567135
-0.0165304
-0.0019585
-0.00141128
-0.0045843
-0.00111348
-0.00662201
-0.0159373
-0.00164332
-0.00128017
-0.0187133
0.378628
-0.00580256
0.000742871
-0.0105955
-0.00402504
-0.00746581
0.511505
0.493216
0.25508
0.616842
-0.00869965
-0.0480314
-0.00663983
-0.00271037
-0.00278223
1.40027e-05
2.9984e-05
0.242981
0.127506
3.74756e-05
-0.0885373
0.128133
0.253178
-0.0354938
0.000392954
-0.00934957
-0.00229414
-0.00101665
-0.00177995
-0.00762939
-0.0306285
0.629535
-0.00300986
-0.0299354
-0.00758267
-0.0166323
0.000345675
0.00214783
-0.000827882
-0.000981483
-0.0131139
-0.00643422
-0.0331529
0.0835116
-0.00374489
0.309999
-0.00444835
0.000501305
-0.0483798
0.459377
0.480295
0.363479
0.00753008
-0.0942859
-0.0306086
-0.104116
-0.0215567
-0.104631
-0.0137139
-0.0995427
0.00159897
-0.00780685
-1.59983e-06
0.0705704
0.00128846
0.000577705
-0.0133218
0.655023
-0.0121068
-0.0965146
0.619612
0.636178
-0.000695194
0.624371
0.592348
0.466964
-0.00323447
-0.133085
0.637576
0.000602853
-0.000155592
-0.00875328
-0.00673132
-0.0014312
-0.0228253
-0.00693157
-0.00528841
-0.00202798
-0.0177442
0.00040386
-0.0349313
-0.00217252
0.700803
-0.000548498
-3.90088e-06
0.698063
-0.000440235
0.665883
0.630776
0.431536
-0.000836747
0.700985
0.0799072
0.543607
-0.00432698
-0.00046389
-0.00778225
-0.017685
0.0417085
0.568311
0.000432951
-0.00058897
-0.00643875
3.15052e-05
-0.13617
0.248428
6.87104e-05
0.456163
-0.03702
-0.0018772
-0.0170047
-0.000628442
0.165972
-0.00093945
0.636775
-0.000978284
0.593225
-0.000871492
-0.0099425
0.000103299
-0.00463472
-0.00781245
-0.00570916
0.531207
0.56539
4.76931e-05
0.63801
-0.0173639
-0.00185247
-0.0206299
0.600238
-0.128892
0.000454572
-0.000214416
-0.00116647
-0.000706202
0.000181406
-0.000602518
0.643729
0.000341012
0.000307754
-0.0171992
0.684147
0.736522
0.0018731
-0.0193464
0.468694
0.692197
-0.0227286
-0.00506331
-3.13294e-06
0.0064191
0.578422
0.458433
-0.000986484
-0.00245089
-0.0145013
0.609206
-0.0765088
-0.00880028
-0.00556582
-0.00358389
-0.020786
0.490967
0.000151312
0.623804
9.49762e-05
0.671199
-0.000839519
0.635877
-0.00162447
0.0655002
-0.0167525
5.56652e-05
-0.000682584
-0.00222736
-0.00518752
-0.00740469
-0.000690165
-0.00253572
0.000803499
-0.0147392
-0.000704576
-0.00300982
-0.00290631
-0.0019524
0.106792
-0.000613348
0.456118
-0.0047351
-0.0115057
-0.00331596
-0.105023
0.692605
-0.00225122
-0.00304384
-0.00379073
-0.0156086
-0.000605149
0.43728
0.484881
-0.00140865
-0.00129928
-0.055109
0.135787
0.624909
-0.0103426
0.426659
0.506841
5.14113e-05
-0.0219072
0.000218672
-0.00106593
0.000637879
0.000412373
-0.000860236
0.000783679
-0.00151115
-0.00228863
-0.0142389
0.000481833
0.263771
-0.0702533
0.455117
0.118059
-0.0789952
5.54312e-05
-0.000636554
0.574706
-0.00106772
-0.0152622
0.000391915
-0.00834049
-0.00582924
0.353075
0.056431
0.647479
-0.000487925
-0.00118495
-0.00480859
0.29509
-0.00119985
0.619049
0.123331
-0.00169939
0.00231639
-0.0533742
0.00288671
0.429969
0.0309369
0.57987
-0.0133318
-6.90909e-05
-0.000624485
-0.00348071
-0.000214896
-0.000142328
0.000399739
-0.00767711
-0.00270445
-0.0119564
8.30579e-05
-0.0132613
-0.0680561
-1.58029e-05
0.000175475
-0.0013876
-0.000592456
-7.30016e-05
-0.00447623
0.0143843
-0.000815096
0.0497358
-1.00875e-05
0.466604
-0.0102059
-0.0486161
2.80433e-05
-0.0455152
-0.0244884
-0.0168924
-0.00173215
3.88184e-05
-0.00121684
0.000121995
-0.054591
-0.00243989
0.131325
-0.101134
-0.000491441
0.0486982
-0.0979293
0.502732
0.38028
0.470244
0.00090074
-0.000613492
0.00034085
0.000955231
0.597798
0.440235
-0.00132181
-0.00262243
0.31371
0.441287
0.655673
-0.00040646
-9.25125e-05
-0.00463042
1.26202e-05
-0.000398689
0.000107263
-0.00294902
-0.00170274
0.465053
-0.020847
-0.000689143
-0.000744013
-0.000948933
-0.0188856
-0.00124489
0.306235
-0.00108355
0.172482
-0.0208499
-0.00641748
0.197827
0.138259
-0.000404329
0.2086
0.620479
-0.0160259
0.480197
-0.00440396
0.00106621
0.519177
-0.0013213
0.445237
0.000226974
-0.0297133
-0.0612349
0.000601422
-0.00212289
-0.000801122
-0.000107542
0.00945501
4.70896e-05
-0.00273908
-0.00459572
0.629067
-0.0247079
-0.00152136
0.45487
2.31029e-05
-0.000582863
-0.0123946
-0.000871795
0.617353
0.000382754
-0.000686783
-0.0026555
0.113438
-0.0201567
-0.000842847
0.000441523
0.0585468
-0.00256768
-0.000489348
0.563192
0.680013
-0.00172069
-0.0097704
-0.00144611
0.489669
-9.02125e-05
0.000571582
3.99928e-05
2.98636e-05
-0.0560956
-0.00179368
-0.000786996
-0.112543
-0.000674338
-0.0591263
0.000377417
-0.000152943
-0.000440761
0.524706
0.552966
-0.0114849
0.418816
0.0480522
8.31252e-05
0.445781
-0.00624468
-0.000986361
-0.00190543
-0.0586741
-0.000243181
-0.00915296
0.000479227
-0.0276508
0.209604
-0.00430756
-0.00329714
0.147673
0.354822
0.152981
-5.21177e-05
4.00371e-06
0.00090318
0.282134
-0.00248715
-0.0592432
0.000299292
0.44117
-0.125457
0.525222
0.3609
0.00172612
0.195481
0.000326559
0.460458
0.00071406
-0.0171793
6.61809e-05
-0.000791345
0.00277056
0.00286457
0.00225428
0.00194565
0.149578
0.00265815
0.302125
-0.000636024
-0.00126844
0.000346762
0.0800318
-0.010589
-0.00380785
-1.96802e-05
-0.0109749
0.273057
0.00264186
-0.0110066
-0.0101752
0.0651012
-0.00974151
-0.0003249
-0.000619797
0.506185
0.544689
0.568302
-0.000410527
0.546738
0.495223
0.551155
0.000959655
0.00033164
-0.000409682
0.321134
0.39988
-0.0750769
-0.0161199
0.00179401
-0.00571634
0.0668513
0.00316134
0.00253436
0.423672
-0.00101861
0.00200572
0.000168866
0.00355031
0.550212
-0.0248176
-0.000637107
3.67618e-05
0.602046
0.490885
-0.0211992
0.264143
0.00286807
-0.03105
0.00264491
-0.0404142
-0.0494209
-0.0542614
0.244232
0.00174606
0.116807
-0.000246226
0.533109
-0.0168795
-0.00507734
0.471044
0.00104644
-0.00555171
0.00306093
-0.0604399
0.171552
-0.0101133
0.000337073
0.429948
-0.000496481
-0.00664442
0.0496624
-0.000178069
0.00150945
-0.000924415
-0.00595191
0.00242959
0.0370858
0.000319539
0.0257429
-0.0149885
0.0174263
0.010331
-0.00185447
-0.00262613
0.00565398
-0.00446529
0.00278195
0.00297755
0.350628
0.00332848
0.00249168
6.3746e-05
-0.00946738
-0.0235696
1.79448e-06
0.348257
0.520731
-0.00649986
-0.00175619
-0.00120026
0.00274719
0.000264018
-0.00719326
0.00120273
0.0375883
-0.000131321
-0.00108986
-0.00731863
0.00254933
-0.000732511
-9.28459e-05
0.335803
0.000949058
0.0908991
0.379949
-0.0193741
-0.0178586
0.00271024
0.000198409
0.0732355
-0.00471335
0.00149458
0.0549421
0.198744
-2.62203e-05
0.0376468
0.238651
-3.53348e-05
0.148877
-0.00272811
-0.0195971
0.42678
-0.000323666
-0.000222005
-0.000327948
0.393686
-0.120751
-0.0180221
0.00194926
-0.000762886
0.00283473
-0.00750277
-0.00303167
0.123149
0.576861
0.641792
0.471147
-4.1852e-05
0.333581
0.105827
-0.00384653
0.00215569
0.327783
-0.00927834
-0.142785
-4.81289e-05
0.0008862
0.440759
6.10448e-05
-0.0595556
-0.003114
-0.0391175
-0.000577054
0.478967
-0.0131098
0.466311
-0.00516358
0.00353693
-0.00928269
0.000489957
0.409889
-0.00674656
0.0022569
-1.65921e-06
-0.0798234
0.0126993
0.17755
-0.00552551
-0.000765543
0.214427
1.65129e-05
0.303729
0.15642
-0.000569861
0.312844
-0.0439847
-6.47928e-05
-0.00428091
0.000527016
-0.000895154
-0.00807147
0.374465
-0.0166829
-0.0011536
-0.0437148
-0.000131923
0.392292
0.55138
-0.000478447
-0.00852946
0.00192315
-0.00130654
0.415067
-0.00158524
-0.000666197
0.279948
0.158447
0.468061
-0.007192
-0.000681894
0.327481
-0.0048724
-0.00206383
0.00252206
0.584085
-0.0313414
-0.00517445
-0.000792373
-0.00237612
0.579933
-0.0119068
0.662814
0.19367
-0.00390752
0.000675196
-0.0208307
-0.0314043
-0.000229981
-0.0067249
0.572085
-2.2981e-05
-0.0190142
0.580194
0.000483082
-0.00763945
-0.00026476
0.000547781
-0.000269046
0.0254244
-0.00913485
0.000690732
-0.084918
-0.000191368
-0.000211849
-0.000179352
2.03484e-05
-0.0239038
-0.000205977
0.000888906
-0.0252236
-0.0153498
0.660075
0.0409513
-0.00713693
0.00182297
-3.94532e-05
-0.00650887
-0.000143061
0.136194
0.452166
0.000453511
-0.0219865
-0.00693973
0.0796485
-0.00237558
0.692374
-0.0013197
0.00101072
0.304672
-0.00129887
-0.000218791
-0.0146959
0.451822
0.000598076
0.436795
0.460519
-0.00680075
-0.0159995
0.535359
-0.00604557
0.00121185
-0.0133448
0.342408
0.136787
-0.0239146
1.53126e-05
0.557561
0.000773766
-0.000418211
0.00213855
0.00142908
0.634767
-0.0014933
-0.000117044
-0.00589986
0.256724
0.665066
0.446535
0.702645
-0.000338692
0.622411
2.68507e-05
0.35339
0.00174416
0.00040409
0.199834
-0.0130227
0.121713
-0.000265543
-0.0199762
0.670572
-0.0124334
-0.0411083
-0.00177441
0.000947639
0.20083
-0.00149137
-0.0107258
-0.000208437
-0.0196876
0.00017079
0.678534
-0.00205864
-0.0043698
0.0828702
-0.085394
0.187591
0.430966
-0.000301952
-0.086248
0.247407
0.482767
0.693482
2.86405e-05
-0.0974723
-0.0887241
0.00111073
0.279558
0.311331
-0.0948841
0.584765
0.141423
0.225619
-0.00269549
0.429033
-0.0045285
-0.0004847
-0.000119109
-0.000222024
0.000519006
-0.00137145
-0.00193944
-0.000108125
-0.000742148
-0.00132602
9.15828e-05
0.304215
-0.0368689
1.12922e-05
0.675906
-0.000457185
-2.34689e-05
0.550923
0.693715
-0.00936691
-0.0107805
0.529956
-0.000464738
0.614234
0.0669968
5.0118e-05
-0.0518076
-0.0247228
-0.00228625
-0.000643614
0.453663
-3.52005e-05
-0.000335259
0.592666
0.000561235
-0.00203736
-0.0357971
-0.00248667
-0.00437285
-0.000332083
0.0644124
-0.00307082
-0.00021723
-0.00695158
0.000905588
0.329175
7.37771e-05
4.14913e-05
0.000829607
0.574131
-0.000571275
0.000828464
-3.48793e-05
-0.00155622
0.556461
-0.000601137
0.146296
0.532181
0.000490932
0.638732
0.512767
0.00213013
-0.0521933
-0.000440397
-0.00235158
0.614416
-0.00262104
0.00066668
-0.000146721
-0.00541966
0.00220085
0.000728469
-0.00039795
0.629695
-0.000130005
0.47174
-0.0153478
-0.05776
-0.000151288
-0.0438794
-0.00152059
0.544791
0.55476
0.173356
-0.000735605
-0.0247523
-0.0544341
0.183726
0.12037
0.290849
-0.0692135
-0.0429678
-0.00317532
-8.37828e-06
-0.000569274
0.00085408
-0.00130803
-0.000887431
-0.0010937
-0.000502169
0.00183065
0.000975917
-0.00286573
-0.000820383
-0.00455606
-0.000212006
-0.00162313
-0.000166388
0.741031
0.109064
-0.00254263
-0.00289871
-0.00202493
-0.000129243
-0.00027401
-0.00122911
-0.000978458
-0.0204154
-0.000104583
-0.00353557
-0.00046776
0.000919748
-0.00027477
-0.00669221
-0.0244691
-0.00160478
0.579894
-0.0112997
0.459413
-0.0254385
0.602201
-0.0126457
-0.0143821
-0.0162763
-0.0178811
-0.0182217
-0.0200757
-0.0206905
-0.000163488
-0.0215887
-0.0213646
0.551151
-0.0242657
-0.0350617
-0.0246276
-0.00031515
-0.0563358
-0.00331251
-0.000148983
-0.00332629
-4.60205e-05
-0.000364312
0.0195645
0.0010215
0.241109
0.485525
-0.00380339
-0.00113878
-0.00281942
-0.00329604
-0.002458
-0.00528338
-0.00398398
0.000208836
0.684962
-0.000691013
-0.00867381
-0.00428079
0.0010848
-0.00214442
6.54746e-05
-0.0130307
-0.00302088
0.00035611
0.00185697
0.0178893
-0.000173741
-0.000122864
-0.00491272
0.00759392
0.000310597
-7.41336e-05
0.000179041
-0.000169539
-0.000401358
-0.00156794
-0.000366973
0.000368408
-0.000247258
0.000892085
0.541199
0.000269076
0.000630983
0.00125773
-0.00170186
-0.000338912
-0.000385532
0.362882
-0.00581155
0.513504
-0.000740202
0.000256376
-0.000174455
0.444964
-0.0603596
-0.000366705
-8.98429e-05
-8.81699e-06
-0.00200463
-0.000472529
-0.0313896
0.000113191
-0.02853
0.00027153
0.000508654
0.000236514
-0.00105111
-0.00134147
-0.0355786
0.529633
-0.0238278
-0.000656111
5.75303e-05
1.13241e-06
-0.00924418
-0.00016453
-0.0116185
0.000879884
0.00123661
-0.000569809
-0.00664359
-0.00247954
-0.0908636
0.00026145
-0.000163788
-0.00431669
0.000245771
-0.00141336
0.000667082
0.000662022
2.06686e-05
0.618699
0.000225209
0.707461
-0.00534944
0.000378162
-0.000971596
-0.000167595
-0.000211363
-0.00943798
-0.000389105
-0.0581488
-0.000291414
-0.0845091
-0.00195753
0.000197546
-0.000163113
-0.0035818
0.627167
-0.000232429
-0.0139638
-0.00155122
0.52755
-0.025275
-0.0501793
-0.000211226
-0.0935796
0.000775943
-0.10193
-0.0187781
-0.000303616
-0.00333139
0.657968
-0.0462962
-0.00264717
0.000725746
-4.25011e-05
0.464286
0.52367
-6.16571e-05
0.000924643
0.3956
-0.000181453
-0.00378053
-2.61438e-05
-0.000390786
-0.022399
-0.0140322
-0.107703
-0.00386086
-0.000708824
-0.000194961
-0.000140191
-0.042828
-0.0154143
0.320292
-0.0049044
-7.77886e-05
0.50389
-0.00543289
-0.000144353
-0.0240907
0.000548497
-0.000905081
-0.000202148
-0.00813434
-0.000616135
-0.0114492
-0.000199104
-0.000593137
0.315933
-0.00369277
0.39895
0.602701
-0.00390103
-0.00483473
-0.0603192
-0.00382778
0.670107
-0.00222133
0.000637957
-0.000122251
0.47478
0.626607
0.291762
0.00964122
-0.0139024
-0.000174822
-0.00349787
-0.000420204
-0.000872993
0.00015496
0.433488
-0.0146729
-0.000304596
-0.0019539
-0.00109574
0.0791914
0.450502
-0.0169569
-0.000696536
-0.00127945
-0.000324972
7.89625e-05
0.608478
-0.00177492
0.000474834
0.000161363
0.00184257
-0.00688103
0.0851497
-0.00510466
-0.00691384
-0.0172297
0.000134802
-0.0013554
0.434201
-0.00458309
0.000330112
-0.00355168
0.449226
-0.00160314
0.123999
0.540145
-0.000736388
-0.000126418
0.128104
0.400677
0.185528
0.330173
-0.0265069
0.000476677
-0.000458942
0.43024
0.00232378
-0.0017395
-0.0244129
-0.00565074
-0.0556726
-0.0120514
-0.0019872
-0.000481692
0.407877
-0.00219522
-0.0074473
0.552637
-0.0112331
0.523321
5.34995e-05
-0.00614625
0.498088
0.668555
-0.0113697
-0.00464362
-0.00475403
0.000215276
-0.00294869
0.512766
-0.00377722
-0.0159253
-0.00236225
0.00020207
-0.000366606
-0.00247135
0.000214463
0.360102
0.000200116
-0.00966309
-0.000808583
0.000645728
0.000155883
0.241416
0.470803
-0.0112287
-0.0143452
-0.0166898
0.000219022
-0.00165666
0.000194341
-0.016296
-0.0178472
0.274612
0.476246
-0.0193092
0.252216
-0.000552905
-0.0432304
-0.000982446
-0.0194581
0.327652
0.211574
-0.0214621
0.00282372
0.487417
0.356631
-0.00300678
-0.000270344
0.000644561
0.616643
-0.000655034
-0.000214552
-0.00102065
0.00026165