/*--------------------------------*- C++ -*----------------------------------*\
  =========                 |
  \\      /  F ield         | OpenFOAM: The Open Source CFD Toolbox
   \\    /   O peration     | Website:  https://openfoam.org
    \\  /    A nd           | Version:  7
     \\/     M anipulation  |
\*---------------------------------------------------------------------------*/
FoamFile
{
    version     2.0;
    format      ascii;
    class       surfaceScalarField;
    location    "33.5";
    object      phi;
}
// * * * * * * * * * * * * * * * * * * * * * * * * * * * * * * * * * * * * * //

dimensions      [0 3 -1 0 0 0 0];

internalField   nonuniform List<scalar> 
31093
(
588.231
-435.567
-152.664
271.117
43.23
-314.347
945.436
-1135.75
190.315
-395.182
994.316
-599.133
-632.351
670.909
-38.5588
-687.227
54.8768
221.804
-41.1448
-180.659
586.499
-453.037
-133.462
208.675
-290.091
81.4167
77.5839
508.915
-86.5017
262.142
-175.64
-245.92
273.294
-27.3743
-232.684
-20.5974
253.282
34.7045
553.526
621.131
-649.993
28.8626
-965.105
569.922
-290.485
352.423
-61.9376
-93.2167
-984.41
1077.63
-261.828
232.564
29.2637
305.648
-34.5314
-306.773
295.867
10.906
-0.646218
-245.273
-454.363
531.947
276.69
-331.209
54.5188
945.436
-358.538
91.5323
267.006
891.767
-975.81
84.043
339.92
-146.842
-193.077
-173.898
-100.554
274.452
-114.894
-146.933
-592.236
740.819
-148.583
362.722
-310.838
-51.8847
347.657
-60.5962
-287.061
555.796
-293.647
-262.149
-717.118
780.437
-63.3189
-731.093
138.857
142.799
-352.74
209.942
932.363
-932.363
784.493
-345.184
-439.309
279.141
423.176
-702.317
2.56055
799.288
-801.849
-271.23
81.026
190.204
-860.619
687.98
172.639
973.328
-81.5612
-134.489
-224.049
116.695
72.6082
-189.303
1085.58
-463.393
-622.184
319.307
-258.829
-60.4773
842.895
-30.4242
-812.471
239.102
-228.714
-10.3878
-787.774
70.656
47.6568
-752.672
705.015
-279.868
-148.382
428.25
762.953
-835.545
72.5925
156.631
-391.23
234.599
15.2469
-209.524
194.277
379.797
-109.523
-270.274
694.656
-751.33
56.6748
-59.3042
-294.549
353.853
-54.673
-235.812
-663.171
431.596
231.576
-50.4775
244.965
-194.487
480.13
-482.604
2.47401
-179.325
-348.806
528.131
-697.674
828.129
-130.455
-715.001
107.347
607.654
513.6
-573.795
60.1946
-650.529
-64.472
-160.957
-370.334
531.291
-141.504
-71.5582
213.062
362.435
-553.906
191.471
329.537
-250.271
-79.2663
675.195
-54.0645
-271.192
-36.9298
308.121
1062.08
-554.823
-507.253
-74.852
475.207
-400.355
331.925
-139.886
-192.039
-227.238
15.3481
211.89
902.661
-623.519
566.951
-832.647
265.696
632.739
-525.392
816.793
-194.449
-622.344
305.255
-96.5162
-208.739
298.17
-89.4951
134.137
-184.615
-591.053
-269.565
237.814
-282.402
44.5876
-62.2416
165.905
-103.663
-621.689
442.364
148.606
-305.929
157.323
-405.431
681.973
-276.542
738.981
148.783
-887.765
904.478
-130.17
-774.307
185.093
-302.02
116.927
215.169
104.137
424.3
55.8299
263.671
-78.5781
-779.261
789.682
-10.4216
-328.953
242.451
978.977
-885.113
-93.8636
280.186
-131.58
405.769
-416.72
10.9509
181.939
104.05
-285.989
466.487
-200.785
-265.702
1216.28
-1216.28
480.152
29.589
-509.741
-42.4672
253.281
-210.814
-481.904
232.068
249.836
265.527
8.93494
-274.461
-250.012
-81.4017
331.414
38.2873
-212.186
183.07
38.7344
395.125
-109.707
-285.418
-263.898
-401.984
665.882
-571.146
496.294
-568.674
-431.394
-366.536
-171.376
537.913
576.65
56.089
-309.253
-11.0345
320.287
-1030.02
259.816
770.204
-170.783
909.765
53.4844
259.365
-312.85
382.78
-602.861
220.081
233.98
-362.761
128.781
131.111
424.684
756.253
-849.47
38.8582
184.011
-222.869
183.532
156.388
271.201
91.5208
134.683
-501.219
-30.4447
-150.524
180.969
21.8557
217.246
855.899
-853.338
291.137
493.356
139.531
-347.77
208.239
259.932
956.35
262.306
-37.837
-224.469
-279.599
-27.1739
-406.251
35.6894
370.562
101.365
65.5009
-166.866
293.941
-240.457
31.2711
-302.463
201.744
127.793
-295.919
216.062
79.8575
-547.996
66.3989
481.597
-96.3839
235.914
-270.453
92.3343
178.119
-94.6423
-223.132
317.775
-22.7091
296.973
-274.264
-764.432
-211.378
127.474
-222.117
190.421
971.735
-67.2572
-230.461
-51.9535
282.414
151.178
665.615
-237.89
-32.5626
-733.946
142.893
84.0716
192.618
68.6578
-159.578
90.9205
-10.3947
-222.29
-195.638
352.269
-243.065
201.92
-36.4377
-411.833
-136.163
-190.677
-661.594
852.27
-171.447
109.205
345.875
59.8945
285.268
19.9873
442.998
32.209
-327.361
470.16
336.865
-74.5597
-199.76
-117.999
317.759
-6.32666
-187.459
193.785
399.102
-442.763
43.6618
105.145
111.099
-216.244
22.243
325.414
-571.859
509.272
62.587
-546.111
-26.4822
572.593
-445.775
-125.371
-29.4574
216.391
-186.934
29.5163
-200.076
170.56
735.575
196.788
331.386
70.7538
-402.14
-82.558
201.527
-118.969
267.327
38.3206
227.615
-124.21
-103.404
586.01
-223.575
27.0635
951.914
157.234
251.514
104.036
-355.55
277.629
-238.771
267.925
-397.132
129.207
66.232
-951.345
-592.87
431.914
217.327
-148.67
-11.0431
272.297
-261.254
65.4351
265.951
-21.3116
298.878
-277.567
325.472
-58.1443
15.1635
236.351
273.222
-383.951
110.729
-72.6411
326.585
-253.944
-480.653
186.087
-362.201
176.114
255.329
-401.045
145.716
-312.55
284.933
27.6165
-8.82328
-327.958
336.781
770.412
-722.755
197.622
-182.375
619.699
-634.978
15.2793
416.072
97.5285
-863.16
535.568
327.592
-39.1538
303.941
-264.787
-85.7556
-150.468
236.223
-279.47
573.883
488.193
513.88
-513.88
-517.269
-512.751
-252.861
-229.044
898.864
-607.727
-0.786281
265.899
-265.113
-182.691
-244.507
427.198
102.845
137.619
-240.464
504.926
-910.357
-326.07
244.668
-12.8436
-393.407
352.564
-361.388
-1068.64
499.962
-485.22
485.22
-641.5
-6.29896
647.799
630.87
-248.09
306.94
126.469
-433.409
-316.267
273.8
-218.556
207.895
10.6609
-519.17
818.181
-299.011
306.992
-69.1782
569.097
-88.9447
-419.369
219.609
192.791
70.8799
-634.988
452.297
215.52
-355.406
87.9659
-173.721
238.358
94.4083
-332.766
352.772
-118.792
-970.937
-245.346
622.242
-45.5915
-61.6291
279.166
-217.537
552.164
-455.807
-96.3577
-73.1154
765.864
-692.748
-53.2241
896.119
263.785
1.74157
-85.752
188.597
-62.1257
526.302
-464.176
-542.41
197.225
-165.58
10.9072
154.673
-123.105
430.046
-48.333
233.657
-185.324
-59.8091
-211.421
193.487
-92.1212
-77.5378
194.232
20.5741
-249.727
229.153
34.5016
456.291
-490.793
710.453
49.3834
-759.836
286.342
20.6498
-79.9986
-163.066
-113.98
11.3994
254.798
-266.198
34.3441
360.781
223.633
-742.803
326.083
-194.237
-88.1644
122.541
-820.642
698.101
67.7091
-375.933
-197.861
-294.952
226.769
68.1831
-354.895
-308.276
567.769
-999.163
236.785
-49.6513
-187.134
-32.6698
216.196
-183.526
-1037.47
330.979
706.494
-46.1331
379.797
-333.664
324.595
55.202
-256.562
114.763
141.799
354.634
-82.5236
-272.111
381.744
-113.819
-192.614
296.664
290.123
-214.835
137.59
-170.26
-82.8375
589.9
-507.062
750.994
-184.044
-124.068
-332.097
456.165
854.012
-731.471
239.021
-227.622
-31.7062
-295.655
-537.155
73.8658
88.7402
-162.606
342.982
-53.214
-289.768
-83.8024
189.126
-105.323
373.766
-100.545
-92.6136
-363.946
456.56
7.64805
843.937
-851.585
-776.56
803.964
-27.4044
-242.677
76.8052
165.872
-754.054
440.263
313.791
50.4008
-165.295
-0.905319
176.114
-175.208
-260.858
260.212
6.3071
-231.215
224.908
222.654
-6.26225
148.325
-526.109
377.785
231.236
-210.662
-40.286
-186.952
-58.1655
528.325
323.202
-43.1212
-280.081
-733.867
741.515
-474.992
341.624
133.367
440.935
-306.252
472.021
-861.719
389.698
-310.846
-80.3845
-726.597
28.9227
-165.638
-90.9242
-645.782
631.524
14.2586
-181.868
351.803
-169.935
312.159
321.671
263.028
-169.761
-93.2673
281.993
-270.59
-463.356
-208.983
-93.0368
270.071
-178.501
-91.5692
-525.132
-8.07554
533.208
201.094
-95.9492
1006.22
-1006.22
433.603
-492.747
-544.725
148.512
207.873
-356.385
-453.103
421.397
-332.049
295.119
-326.527
428.986
139.318
-568.305
50.5689
712.384
543.191
-114.205
398.614
-569.99
95.6137
224.139
-319.753
-210.93
-228.194
439.124
267.1
80.2349
-347.335
-297.373
-544.664
842.037
491.619
-755.517
355.744
9.53574
-365.28
-984.41
417.732
96.1482
243.968
-250.295
301.536
-360.841
-37.9328
156.535
-118.602
14.3421
-262.286
-254.671
11.8614
242.809
227.403
42.6673
274.914
-357.472
227.417
-93.2799
-511.203
-170.274
-135.656
-391.117
-362.937
-942.37
-171.919
1114.29
-496.733
942.396
-445.663
-143.07
-19.7559
162.825
-668.596
636.72
31.8761
-248.021
341.551
-93.5304
263.516
288.648
2.26118
-211.785
873.987
-912.542
38.5544
445.177
-105.9
186.926
-382.739
188.708
194.032
-231.273
43.7298
187.544
-488.919
-36.213
135.1
-244.623
310.111
-71.7528
-1083.95
893.276
-520.272
458.146
-128.277
248.551
-120.275
-72.2545
385.772
-313.518
369.536
-317.589
-51.9476
-391.139
46.1694
-211.75
-287.224
675.799
-388.575
-68.0326
-260.92
-68.4784
424.223
4.43494
192.268
-196.703
895.467
190.11
-337.74
-44.9993
186.721
182.815
-372.863
-456.172
829.035
-824.926
361.534
449.389
-951.712
502.323
83.5839
-414.494
330.91
-284.7
200.898
-12.0274
468.318
-170.143
-192.058
-460.335
149.498
616.016
6.22536
24.1975
212.587
429.087
-101.388
-327.699
-110.138
-88.4491
198.587
123.322
202.148
-261.957
9.11406
-118.454
-59.8849
178.339
-386.573
-17.6273
404.2
-0.214438
283.032
-282.817
-103.334
493.883
-390.549
-412.33
347.057
-79.9569
-894.632
821.517
356.098
-326.509
-88.9887
-308.143
-90.7298
-293.221
-655.462
-123.798
-512.692
265.813
246.879
-287.821
37.5505
-112.774
127.972
15.7393
189.218
415.593
-604.811
29.409
-271.936
13.1071
-4.79974
303.678
150.821
-260.529
-51.7799
-245.833
297.613
-810.723
796.248
14.4745
231.663
-252.611
20.9477
362.521
536.343
291.939
-374.463
-20.0226
306.365
-724.604
694.18
289.402
-211.422
-77.9803
291.526
-19.2285
-189.087
-164.138
-315.591
479.729
-214.404
-98.146
315.236
-368.45
450.221
-542.834
119.382
76.4894
-195.871
206.685
-128.845
-77.8408
277.956
-650.819
147.74
-518.074
247.05
-94.4423
-152.608
47.7109
-812.143
-432.706
307.752
-350.873
-568.922
652.506
-479.64
67.807
368.312
-665.685
155.985
-253.354
97.3693
-849.693
897.404
-30.2859
-7.51762
806.806
-218.435
216.546
1.8888
-313.866
198.217
115.648
-229.222
-171.823
-56.5876
426.51
-369.922
551.973
-634.81
46.4347
-231.145
184.711
175.823
-129.388
296.556
82.6144
-264.482
174.536
18.9509
-144.69
766.868
107.119
-451.051
185.349
-240.89
174.686
66.2042
198.308
-246.641
-3.07553
191.679
-188.604
-310.265
258.485
-222.676
-15.2029
237.879
-511.221
387.153
171.825
-194.534
-580.844
-64.9384
614.955
4.74429
-273.887
-227.332
194.141
-76.6633
-117.478
-119.701
-99.6786
219.379
136.128
-209.941
73.8124
-75.1766
287.817
-212.64
-225.765
213.32
12.4453
-195.353
-30.4123
323.678
105.409
972.724
-712.791
-285.603
-314.769
246.736
191.491
33.0431
-224.534
-978.1
802.265
175.835
-395.816
168.843
226.973
-501.752
-122.705
624.457
-158.925
-806.18
13.7585
-299.748
-469.699
452.072
-98.3976
-215.468
232.131
-15.9346
658.721
-101.469
-557.251
347.239
-450.573
-159.254
756.305
-597.05
-213.771
-222.992
436.763
-285.893
269.92
15.9723
5.94575
-76.3962
212.525
-100.015
-194.938
-526.449
13.7573
-16.144
-90.7404
-744.805
40.3515
-432.228
-219.786
100.086
-287.799
187.245
698.942
256.506
-308.46
163.867
63.7478
-309.482
15.8871
293.595
-266.868
35.5943
-37.0722
-996.816
778.526
218.29
-20.1654
228.06
-116.989
274.312
493.69
-523.753
30.0631
-281.519
-193.473
-361.144
396.834
-36.4161
157.007
-120.591
961.662
-800.032
-161.63
21.5694
-530.821
509.252
-6.30062
-163.966
170.266
-177.784
-110.037
487.842
-63.5418
-235.436
498.952
-559.29
121.212
438.077
-182.494
274.026
508.174
-354.213
-153.96
295.088
8.25527
-303.343
-274.573
212.944
655.065
-85.7115
-569.354
434.226
-245.008
-433.526
389.813
43.7127
284.432
-5.26579
-248.894
-60.5876
-180.548
56.338
200.792
-500.635
66.1082
434.527
-262.539
261.753
-348.641
348.426
-331.315
-67.4873
-417.732
-457.66
401.072
-530.611
1001.8
-471.191
-132.338
95.9222
-176.839
-218.978
488.459
-50.2967
-438.162
-17.2475
-299.246
316.493
-503.683
562.295
-58.612
406.786
203.37
-100.202
-103.168
163.684
-238.861
198.313
-201.388
-305.65
127.149
421.977
-400.408
-11.1292
-274.764
82.6393
-901.366
901.366
131.019
3.50457
420.4
-423.904
-167.521
184.906
-17.3848
-524.666
313.736
-425.018
68.5129
356.505
43.1864
150.955
-487.351
367.888
119.463
-239.019
436.724
51.1178
308.439
42.0709
-350.509
340.692
-81.3268
-431.616
-24.1904
116.311
-360.102
287.847
330.517
-221.28
-109.237
-54.3069
145.931
-91.624
-942.37
-299.483
-216.205
119.778
96.4271
-295.37
234.774
-432.477
-519.235
252.826
524.782
-777.608
-145.18
-531.364
676.544
-448.122
174.234
-19.1959
193.732
214.547
-16.2343
-657.398
640.549
16.8496
78.1685
356.057
295.31
-67.1598
-228.151
-98.8438
-524.182
623.026
-574.969
808.564
-233.596
-572.831
58.2235
-783.211
185.359
597.852
-981.044
413.812
567.232
-287.661
-271.629
-124.198
480.295
-968.583
437.972
-675.517
814.363
-138.846
614.165
-713.009
-211.568
251.25
-229.394
124.319
-799.836
-164.285
-694.282
858.566
668.477
-13.4118
501.298
326.831
-59.0856
274.255
-116.213
96.4573
-117.606
191.731
-540.537
254.558
-227.445
-27.1129
-138.226
321.422
-183.197
-185.526
-86.4105
523.122
-29.4318
-291.211
273.963
13.1555
623.564
-703.918
-650.621
-254.893
-245.743
39.6286
222.513
20.3637
437.305
-457.669
-366.784
348.792
17.9914
-141.591
156.939
561.635
440.167
-351.23
-194.046
545.276
191.337
-246.01
-82.3076
284.052
-71.0962
-353.922
194.025
-231.862
-237.108
315.276
202.821
-130.212
-460.287
-520.757
-296.063
-12.3873
308.451
-286.587
162.062
124.525
-174.053
178.488
-199.189
-87.3977
225.915
-219.608
250.237
-282.667
32.4295
271.062
-62.7569
-208.305
-805.199
646.274
-311.652
-301.608
53.5871
-294.513
304.049
273.804
-103.837
510.622
191.296
-53.6773
285.32
530.225
-815.545
-194.238
166.26
40.4249
-574.456
410.318
-950.024
288.43
303.465
-800.198
-473.167
-73.1321
546.299
-540.865
469.145
71.7198
282.625
-211.304
43.783
-634.291
398.855
-12.9997
168.984
-319.158
339.521
155.799
-510.012
-139.287
-37.6979
230.489
-7.45057
277.371
270.887
-86.4904
197.589
768.651
-2.78736
301.008
-285.472
-15.536
-238.948
-108.822
-115.229
-34.0964
265.76
687.739
254.656
80.7773
193.535
336.509
-120.989
-82.5196
289.284
-206.764
-425.249
93.1525
495.17
-230.562
-264.608
288.18
-295.631
-16.7316
-674.012
690.744
226.224
-834.829
443.689
-239.527
41.3723
-321.453
-93.6643
-385.192
478.856
-125.124
136.031
258.508
-317.594
289.1
7.87323
-875.829
329.718
54.1017
-343.87
-725.991
-521.537
-456.563
238.079
79.1524
-351.263
248.272
-330.579
161.55
85.5007
125.797
-222.515
96.7174
-495.657
131.71
512.426
-924.756
-170.947
94.2834
458.383
26.8363
-574.749
-422.067
18.1387
-598.983
-3.40285
298.491
-98.883
375.204
-276.321
-125.67
-90.5738
129.118
-194.348
-85.122
-343.567
377.911
-221.604
-56.8627
278.467
-65.654
227.716
-295.653
-260.358
242.439
17.9187
43.7922
-247.297
288.669
370.049
-39.8921
-326.891
-21.986
235.306
204.583
-28.6941
-175.889
-108.028
-466.992
53.9772
413.015
-292.56
-133.926
426.486
156.625
-210.932
312.61
-262.887
97.2497
-197.469
-122.638
320.107
789.743
327.424
-40.1811
-210.931
251.112
-18.9829
-521.882
-296.063
-742.688
369.38
373.308
3.19067
-296.837
-4.24721
275.449
-12.3515
228.898
254.494
-339.874
85.3802
-472.361
-120.509
-551.43
210.353
341.077
210.831
27.0482
237.868
322.935
-622.007
299.072
217.694
-420.61
202.916
-362.887
387.185
-675.825
288.64
940.186
-913.122
-747.499
460.275
-405.126
-116.472
521.598
175.298
125.71
-332.506
562.57
-376.699
-185.872
387.965
-196.628
-821.387
246.418
250.845
244.325
-238.302
60.5173
378.884
-105.084
179.189
-181.098
1.90934
233.297
11.6675
588.106
-614.588
-512.24
204.366
307.874
74.5676
-339.027
-155.407
494.435
90.4634
376.03
-182.005
265.489
59.9828
-468.184
186.665
287.243
147.231
-434.474
122.641
-250.917
-161.899
-229.31
-206.257
-361.111
17.5445
-28.5693
-628.829
-36.4081
232.285
-195.877
-326.191
172.58
153.611
-362.949
-95.9705
458.92
-236.3
-89.7694
188.129
16.4541
-316.096
82.3272
168.351
113.927
-282.278
-274.652
-136.469
411.121
-363.403
-291.852
272.043
19.8093
150.076
-366.841
216.764
150.481
-255.631
105.15
-36.5161
-85.3499
-292.333
377.682
-391.268
221.125
211.712
-441.022
-281.801
137.074
144.727
-466.531
150.94
35.1517
-440.463
405.311
-197.257
-63.1009
160.536
387.121
-337.393
-49.7283
-211.594
203.992
7.60116
-259.09
140.706
118.384
-109.14
-131.75
-287.258
-115.533
917.799
-216.242
-33.485
285.181
-486.888
293.416
138.011
-343.57
205.56
-377.546
-117.75
495.296
-471.718
-215.51
220.62
-29.1285
240.658
689.919
-706.65
-48.9447
-272.655
321.599
82.3345
-711.344
629.009
215.66
96.5225
-312.182
311.814
-103.941
-218.291
232.05
-363.909
-47.7318
411.641
-710.572
39.3152
671.257
-458.734
-176.254
-66.0472
-282.594
522.598
-5.42959
-774.469
-19.7146
794.184
-170.262
520.902
-350.64
-192.374
477.694
179.014
-518.042
330.748
-106.609
87.2877
439.014
-425.934
429.439
-333.347
-138.222
471.569
-523.816
50.6488
327.365
14.2596
53.0094
-271.301
266.273
-58.4695
-207.803
-98.3576
-106.503
307.4
-84.0567
-276.045
73.3326
200.694
-301.826
-99.2497
401.075
-288.808
351.543
-62.7354
-83.815
282.123
-343.894
-129.837
473.731
-266.284
133.316
132.968
-142.083
-16.0693
41.7841
-652.6
610.816
-181.234
-252.292
-272.501
-253.608
-337.081
-95.6251
-216.896
-78.8036
295.7
415.327
639.68
177.748
-264.994
87.2468
146.077
506.429
236.967
29.3057
201.185
-253.701
52.5166
-360.666
-150.555
-531.34
-77.2369
359.23
-180.155
316.478
-33.8529
626.117
-173.821
-4.47751
230.393
-242.233
279.055
-36.8224
713.644
0.586561
287.594
-602.051
492.386
109.665
229.025
66.2849
199.292
-43.0211
193.582
-329.238
105.901
-329.951
19.1939
-354.98
358.29
-3.31065
116.552
-220.215
177.246
24.9438
-320.486
319.345
1.14167
250.46
-307.323
248.718
-19.565
-335.321
-117.782
-48.728
238.932
11.8685
242.69
302.095
6.02586
-363.46
-139.495
502.955
-77.854
-150.86
-198.839
-32.3068
89.5255
236.558
259.393
-293.49
298.977
-59.8048
-234.778
244.1
-9.32255
-1060.73
707.68
353.055
-423.178
130.618
292.826
-2.44448
-290.382
-67.4112
355.258
577.352
-182.444
-34.78
217.224
-38.0796
-222.779
-263.135
-62.7254
325.86
-286.351
-60.92
347.271
-70.0234
-510.142
-91.9092
-797.892
785.53
12.3625
72.2059
223.57
-295.776
51.0388
285.3
-182.418
480.214
-297.796
-238.754
-76.0151
-431.428
111.225
-236.895
171.627
-262.551
-327.079
-108.099
435.178
-91.2722
420.031
-328.759
-384.104
-85.5957
-247.123
-70.4708
2.08224
-427.238
-93.0343
-200.119
683.62
10.1702
637.24
-647.411
-197.987
47.4631
229.466
-814.716
585.249
180.739
-409.961
278.464
-25.1831
118.287
-1016.9
-241.983
-88.5958
438.68
-5.0771
-473.517
-401.453
-108.288
-657.397
212.96
-422.756
209.796
24.3953
263.421
-323.604
-64.971
388.575
12.6839
-291.926
279.242
830.074
-116.429
-491.814
479.786
-59.3443
-715.125
-61.4842
409.91
-846.709
783.39
296.455
-473.789
402.693
-94.7001
-116.722
199.302
169.224
-368.526
-438.233
-247.339
184.01
19.2581
-203.268
-221.37
914.573
30.8627
-991.991
559.764
-224.246
-96.5009
320.746
725.298
30.9557
332.701
-88.0332
372.673
-355.129
-401.952
406.957
-5.0049
330.221
-326.128
-4.09289
341.153
-100.495
-18.3908
-410.381
-120.44
-242.046
-114.339
-213.456
-106.297
-604.43
790.003
-185.573
-206.693
7.5036
-195.526
-389.652
-462.569
412.272
93.7202
-288.068
-133.32
-112.374
245.693
-43.2099
388.822
-345.612
311.613
-53.1274
219.222
-70.5332
-148.689
86.3354
-250.301
121.413
168.71
317.557
-101.898
-307.6
-112.327
216.464
528.575
-141.422
26.2693
-773.561
747.292
-298.998
122.068
-208.558
-30.2683
-43.4988
303.711
36.2845
771.763
-699.171
856.378
-110.846
-745.532
376.859
-74.9817
-301.878
127.793
-248.068
-91.4438
507.789
-416.345
-231.973
-58.1183
22.9333
-734.277
412.103
-108.394
-290.664
285.29
5.37397
-196.592
-77.4061
273.998
202.703
26.7549
-229.458
-35.6352
-122.18
-451.963
-608.771
-427.417
202.602
-18.5762
-228.495
-21.4109
247.635
57.2864
-538.042
480.755
-290.796
247.376
-424.214
186.327
-378.385
696.972
-321.25
68.0461
-268.666
200.62
-112.107
300.815
561.188
-162.574
-234.822
-143.79
229.264
864.893
87.0208
-308.451
229.872
46.4492
725.314
-11.5649
190.753
-323.522
-93.1987
361.806
-54.0543
-456.453
-528.989
156.707
372.282
-151.372
-506.974
658.346
-567.523
1012.7
-720.206
115.776
-482.116
-302.517
291.205
90.5385
-914.23
65.0196
849.211
-355.968
378.312
-63.076
-9.84722
362.412
339.735
11.8085
230.976
-198.067
-32.9094
-323.375
102.005
-194.605
-16.9888
243.261
369.393
-77.4532
618.586
-109.334
298.31
75.4565
552.986
-102.765
517.421
-101.828
258.106
-38.5022
-219.603
398.785
-475.743
-320.311
796.054
530.659
-264.846
-300.515
-556.72
80.456
476.264
316.638
-69.902
-711.254
677.424
33.8293
525.643
-73.5713
-29.3609
635.088
-605.727
-325.52
262.764
288.763
52.7881
436.014
107.177
-385.882
219.478
-34.7672
317.093
-5.48053
-436.331
-129.21
-32.694
591.988
321.934
-315.772
-6.16213
-520.526
48.1646
-389.814
-333.018
299.165
51.6421
328.155
-300.711
296.383
-33.6198
-144.268
-254.909
-243.675
5.23429
238.44
-401.481
-112.4
-35.3649
547.422
-38.1499
-5.33241
473.651
547.591
-26.3635
-171.205
-273.617
332.115
-58.4979
-94.5363
247.731
32.1625
-743.416
-301.886
-214.367
356.377
-391.717
-65.9425
448.324
622.494
221.88
-844.374
-141.704
541.287
-129.184
330.951
-252.37
-78.5817
-109.698
-594.477
-188.734
33.7558
209.534
130.201
-129.744
234.894
-263.819
-267.557
303.13
-35.5732
243.833
312.176
-436.374
699.119
415.17
-263.324
332.806
-69.4828
-247.808
-475.853
-210.53
837.429
18.9489
363.26
-46.1672
-940.705
26.4749
355.734
-80.8202
-745.209
15.4273
-323.571
634.155
206.414
-87.0319
-89.8059
11.5156
294.85
-361.899
5.33897
356.56
-209.475
-123.292
239.193
-108.517
-478.547
-95.9091
498.626
-88.3076
362.243
25.5188
-318.74
-83.2579
-106.82
-518.679
373.499
-117.602
652.875
-629.941
-292.156
371.553
-79.3975
-224.729
39.2031
281.491
22.45
-443.991
-480.765
-426.732
972.323
-469.709
-502.613
538.382
-80.2356
-528.795
-105.496
-62.1104
18.1022
513.303
-114.447
-16.8944
55.5875
176.698
-241.221
-209.83
42.5538
-70.1406
554.867
-122.953
-404.354
-361.227
309.342
263.886
1.87325
423.913
-61.6698
-51.761
-148.358
-176.965
-306.195
31.4312
77.9768
-276.815
440.6
-651.978
584.74
-86.363
-498.377
758.811
-726.649
397.3
-40.9228
-275.024
-306.29
38.8747
548.368
-100.044
-758.268
784.537
215.574
-1.48477
-214.09
-118.35
212.07
463.513
-62.441
568.848
-126.484
-280.432
281.019
-106.478
-109.728
-199.769
232.693
-32.9245
-98.1521
273.45
300.57
-44.0636
-61.7413
250.211
-473.454
-277.876
271.953
-236.087
-35.866
-383.757
394.495
-10.7375
-17.7545
-99.0972
285.818
310.051
-312.817
2.7659
-255.639
-120.267
-1.64295
158.177
-320.534
417.417
-43.0288
787.117
-744.088
-507.95
351.789
-39.6133
34.87
344.781
13.4838
-358.265
7.17052
382.642
205.972
482.008
36.3717
472.335
38.2868
356.432
-47.9932
-43.4299
244.615
221.524
67.7596
-856.547
866.717
-303.129
283.511
19.6184
-549.091
248.187
2.02469
757.985
-561.078
-196.906
259.806
-182.987
-76.8192
433.348
228.02
30.2532
492.869
-198.026
617.547
-419.521
73.4802
-51.3343
845.352
-794.017
-393.866
308.516
476.318
198.877
233.635
1.67141
225.799
-175.009
-488.405
663.413
40.7507
207.967
62.6005
-557.506
571.249
-508.662
794.37
-273.284
-521.086
-303.903
-176.751
35.0434
271.241
0.802365
-227.828
-259.523
-341.007
-483.919
3.21666
185.166
-188.383
292.533
264.94
186.277
-792.463
768.484
23.9787
-0.783914
408.432
-455.881
47.4488
289.151
49.4627
6.32529
754.413
-760.738
97.2587
234.857
27.4148
95.2673
-291.45
304.754
-13.3041
-893.192
-49.1788
194.896
-126.768
-490.064
616.832
-292.461
817.243
-138.591
-405.636
-114.89
-560.725
135.26
359.175
32.6339
-253.948
-26.4841
199.794
-144.206
13.8704
853.338
48.0285
-14.6625
302.256
472.633
-356.698
-115.935
-626.304
259.638
366.666
132.478
174.922
372.115
-348.019
238.782
144.734
290.444
229.752
233.345
10.7551
69.78
-483.837
414.057
808.096
-247.146
-560.95
187.205
201.471
-388.676
324.203
401.88
254.936
3.78549
-626.341
-306.021
249.998
-889.738
367.668
52.3563
-437.548
77.1375
-635.824
-98.453
245.57
-358.439
367.648
556.009
-568.244
645.115
-76.8709
-11.0014
371.782
413.03
-310.86
-40.3221
173.364
-133.042
-303.237
294.995
-17.6237
645.633
-346.337
-22.7491
376.538
-353.788
67.6506
-181.759
229.2
-47.4407
-252.163
231.869
20.294
282.924
511.446
165.084
-402.541
410.633
-1077.63
1083.95
107.667
-10.4311
446.579
180.696
-58.628
415.782
354.267
214.486
21.7369
251.383
364.55
-25.9973
-338.553
-649.733
648.763
0.970272
229.908
195.722
-10.5561
501.812
-432.032
-210.707
766.716
270.436
83.7331
239.927
-360.916
-177.703
26.9511
245.002
740.946
-149.716
-591.23
-846.89
913.122
311.806
355.06
211.73
-214.175
554.148
-992.381
423.505
327.091
291.507
-38.4143
470.536
291.316
59.6571
-417.041
357.384
-231.154
316.38
-13.3234
3.36552
-824.325
694.155
806.941
-192.776
333.779
247.828
95.4639
339.777
-20.1824
-319.594
269.26
273.002
298.202
-188.077
87.8745
-272.72
282.411
-9.69066
419.724
-524.604
-253.004
-2.87945
217.366
433.579
-573.073
-275.775
21.8272
455.333
-114.863
-248.335
363.198
-335.189
-193.8
634.611
106.209
426.381
-943.578
517.197
-459.932
418.006
41.9257
-3.10036
252.763
-249.663
346.496
-278.846
259.862
-236.97
-22.892
275.777
14.5544
-196.313
-849.693
64.0827
329.944
-394.026
-32.4276
723.108
-690.68
322.856
-295.684
-27.1728
-445.665
448.408
276.714
-240.429
-400.001
978.679
-578.678
283.492
-13.96
197.97
536.122
463.878
-201.093
207.289
12.6961
-219.985
-28.0198
398.581
-593.573
33.6097
559.963
201.466
268.413
-338.884
-14.6801
-369.077
-914.573
863.239
-497.387
1033.51
336.531
-58.0072
238.618
-1.94342
-236.675
488.973
-434.996
66.8158
-719.416
-459.642
-0.290142
-256.748
318.238
-469.479
-499.104
298.858
-18.9497
-279.908
-959.98
442.711
-797.892
156.256
32.4992
-188.755
30.1556
598.854
648.135
-633.876
-289.872
820.097
-94.5557
222.349
388.479
-527.772
139.293
-132.381
357.372
-224.99
-704.004
750.453
-386.282
242.386
-223.776
233.02
-9.24431
-275.534
701.915
313.78
606.613
27.7338
-786.002
-231.923
260.725
-349.321
-58.3963
-229.06
240.921
-897.404
981.447
175.903
39.4014
-215.304
263.747
-272.114
-85.3578
25.1007
400.417
208.987
-609.404
502.766
-902.767
486.828
-64.8507
-221.973
-2.6789
224.652
-114.155
-192.04
-262.952
54.6471
-166.37
-136.093
302.674
291.939
-264.988
-117.253
-316.667
433.92
280.332
288.952
-17.729
-293.352
311.081
-690.916
16.9038
855.899
-893.192
940.186
-970.937
956.35
960.712
-960.712
-846.89
-1016.9
242.162
-209.528
-242.552
-214.955
-186.789
-1.8141
737.127
-956.1
218.973
-866.717
10.7795
-281.053
191.208
-34.952
-763.429
791.163
228.229
-6.98236
-221.246
-258.679
271.363
-11.987
-250.015
262.002
248.957
-14.3156
-234.641
201.855
-228.968
-23.7744
-253.711
277.486
-188.12
201.029
-12.9094
250.06
281.129
-347.22
406.877
104.195
-181.138
76.9431
-368.361
-582.984
-194.379
207.812
-13.4329
-419.749
-84.197
503.946
194.221
-174.963
40.7197
202.08
-26.1769
-349.549
240.727
462.536
-94.8883
199.167
461.466
-53.034
324.179
-396.657
72.4786
18.6633
-636.611
666.767
263.082
-461.109
-783.724
730.286
53.438
480.794
497.885
46.5966
415.939
-239.578
263.974
-73.1176
-710.606
248.143
-344.644
715.577
-901.15
320.507
-722.55
402.043
127.101
264.526
-206.249
-58.2768
-53.1879
-387.447
-868.047
592.513
-1.93338
257.776
3.23844
-312.625
309.387
16.2633
-50.6833
235.659
282.206
-37.2041
185.737
-58.3968
-127.34
738.635
20.1762
272.99
302.096
6.65032
179.63
-229.456
49.8255
250.455
-300.02
296.617
-301.197
-203.386
217.794
-14.4084
74.7667
-494.516
253.769
163.648
-87.9868
825.114
-594.677
408.805
549.887
-643.751
232.848
-339.457
313.668
-446.049
202.957
-317.296
218.34
-191.585
-334.558
230.617
-189.686
-7.46961
197.156
231.178
-337.475
368.726
-266.53
-102.196
-5.42871
486.184
-442.491
-560.372
1002.86
-735.371
649.659
-50.6529
-320.702
371.355
21.3817
57.7192
-312.108
307.861
-268.393
-7.38211
204.189
61.1073
-265.296
-189.228
-233.528
-309.579
223.736
-209.214
-14.5224
-312.625
-413.488
413.488
186.269
-657.987
185.098
167.172
309.387
727.457
-235.071
-41.8439
-645.69
687.534
525.781
-87.7032
235.518
-364.582
315.637
394.932
243.072
4.42606
232.773
-172.568
-60.2049
-32.5406
-686.833
686.833
-176.926
-387.331
-98.2945
-138.601
207.131
20.2856
-157.362
228.242
-423.07
478.9
-180.209
-198.176
703.74
-489.463
-214.276
-136.019
-112.049
524.617
-146.832
-83.783
-39.1148
-490.163
529.278
-500.542
-287.232
511.556
-18.6868
-18.978
-729.922
554.913
-458.032
-65.784
767.781
19.3358
231.077
-112.981
773.732
-660.751
97.6803
825.433
683.187
830.515
148.039
-218.572
-386.507
-73.1351
-234.324
250.21
-224.748
49.5629
-199.683
-897.726
41.3847
856.341
28.6504
402.945
812.924
-261.772
246.583
15.1892
1066.46
-542.409
-524.052
-169.131
3.88027
475.906
203.303
-37.0422
291.406
253.87
428.675
-772.056
956.328
-184.273
-369.358
8.13124
231.58
17.6882
665.932
-86.3501
-216.779
-198.786
-227.946
216.55
92.3823
635.074
689.93
-731.773
91.4755
-795.479
22.8579
654.566
752.328
-849.65
97.3219
-627.534
535.844
91.6901
627.335
-563.605
-63.7297
-446.519
521.285
56.5644
-115.949
-113.747
229.696
155.364
305.779
-585.121
408.867
192.175
-192.175
-199.221
218.985
-879.229
436.738
-666.332
539.564
-556.72
856.547
-944.533
23.8038
-238.146
204.41
-198.187
-211.774
-250.76
20.824
357.087
35.3216
341.538
-351.397
-364.206
38.0779
401.851
-666.698
-55.3381
-726.772
782.11
207.786
-285.192
55.2937
142.842
-255.216
-623.522
655.398
-179.462
-83.0894
8.29035
547.802
127.997
-308.903
-24.1147
-455.134
957.9
864.186
-864.186
333.032
43.5054
10.5063
463.145
-761.493
17.4046
651.003
15.7644
80.4595
417.644
-498.104
214.687
302.531
-4.04051
9.17963
673.084
17.6598
-825.794
637.06
195.563
303.161
-498.724
-810.23
536.946
210.812
-412.388
19.5972
-649.539
-193.407
-52.2689
245.676
-115.431
223.956
-108.525
15.397
44.7929
355.955
40.879
-201.251
17.487
-248.003
512.035
659.625
63.483
12.4975
132.25
-118.07
-177.706
196.482
387.643
-496.102
-707.856
-64.1998
-197.69
-466.959
-476.619
-274.119
-360.859
624.715
-515.05
6.71792
798.483
-805.201
318.535
50.1907
392.537
-59.5045
619.998
-55.613
-564.385
313.899
-18.7794
-573.179
-100.376
673.555
-3.2701
-235.501
-585.612
411.792
-187.809
-38.9527
226.762
241.548
611.327
66.294
-213.621
-115.617
24.6128
203.45
-546.154
638.536
194.22
3.75059
-199.728
396.329
-196.601
295.039
-852.031
556.992
-778.374