/*--------------------------------*- C++ -*----------------------------------*\
  =========                 |
  \\      /  F ield         | OpenFOAM: The Open Source CFD Toolbox
   \\    /   O peration     | Website:  https://openfoam.org
    \\  /    A nd           | Version:  7
     \\/     M anipulation  |
\*---------------------------------------------------------------------------*/
FoamFile
{
    version     2.0;
    format      ascii;
    class       surfaceScalarField;
    location    "13";
    object      phi;
}
// * * * * * * * * * * * * * * * * * * * * * * * * * * * * * * * * * * * * * //

dimensions      [0 3 -1 0 0 0 0];

internalField   nonuniform List<scalar> 
11512
(
149.591
-503.598
354.007
-758.248
-3.15286
761.401
411.751
-374.395
-37.3564
634.821
270.398
-905.219
1510.75
-1069.43
-441.318
1216.28
-1527.12
310.842
-57.1745
476.11
-418.936
168.931
-841.861
672.93
962.053
-1610.79
648.737
-1761.76
1669.09
92.6674
-542.947
1759.22
-1141.01
1934.84
-793.832
607.266
181.283
-788.549
-24.8579
-1315.26
1340.12
220.94
-1982.7
1023.58
-383.576
-640.002
-178.679
328.27
484.681
190.679
-675.36
1155.43
-1314.12
158.69
-316.483
378.75
-62.2664
1003.89
-1315.03
311.142
1221.6
799.509
-2021.11
72.9426
-1641.1
1568.16
-474.458
-1170.93
1645.39
475.388
182.055
-657.443
-192.515
-311.083
497.944
1012.81
1648.24
-1805.71
157.473
-90.16
-1691.73
1781.89
-1559.69
653.059
906.633
-309.069
653.564
-344.495
-193.875
-137.448
331.323
1285.32
-1212.38
355.252
-1407.36
1052.11
-1754.29
1754.29
100.419
1532.23
-1632.65
-1080.42
-479.275
641.486
-698.661
-385.538
941.889
-556.351
1331.85
-1317.25
-14.6079
-1100.54
715.006
625.78
397.798
-395.375
-33.3112
428.686
-446.319
775.55
-329.231
-1618.44
1618.44
1253.57
-1437.87
184.307
-488.776
1710.38
1254.88
-312.99
1660.73
-1161.24
-499.498
73.1328
-389.616
2065.88
-1135.46
-930.425
1813.93
-165.689
454.01
156.2
-610.211
-460.9
973.476
-512.576
-1170.84
1271.26
-567.778
970.494
-402.716
400.225
755.206
661.118
-492.187
-438.383
593.379
-154.996
1190.64
-835.389
2308.21
-1080.68
-1227.53
1163.92
-2009.42
845.508
-1602.96
1578.1
440.657
-1581.66
-758.982
1250.59
-491.607
-672.466
363.397
1661.45
-699.398
-1106.93
-870.897
1977.83
679.077
-366.953
-312.124
690.113
564.766
-258.21
1511.78
109.003
-316.472
207.468
-284.883
760.271
-334.325
563.52
-229.195
-324.553
809.234
-319.557
-145.43
464.987
324.455
87.2962
1458.75
-454.853
-980.391
484.835
495.557
273.285
93.7574
-367.042
948.725
-341.459
-1701.7
648.363
1053.34
17.3233
-855.339
838.015
-278.917
593.735
-314.818
157.53
-1093.87
936.34
1051.25
-1066.84
15.588
373.1
518.173
-891.273
-245.493
699.503
-1103.49
-482.316
1585.8
-677.708
950.53
-272.823
1357.39
-1447.55
-634.503
278.68
355.823
-470.198
-1011.53
1481.73
-538.331
-794.545
1332.88
575.894
-995.991
420.097
-264.177
-316.033
580.21
405.807
-296.804
-1040.27
579.368
955.493
-797.963
-110.355
943.874
-833.519
-206.636
415.214
-208.578
-627.688
-352.703
-386.744
962.638
1856.37
-1856.37
-468.188
-166.315
-952.097
1558.88
-606.786
478.149
-914.364
436.215
-923.269
355.491
-941.908
-1058.08
-1491.77
345.425
1146.35
-280.144
914.965
-316.403
619.017
-302.614
-1941.9
999.992
-1140.84
-350.934
552.325
-1504.42
1728.51
-1725.75
-2.75641
207.127
-604.898
397.771
-1460.15
975.141
485.005
284.456
217.123
-501.579
308.306
-642.631
238.737
-414.185
175.448
2016.62
-861.194
-1155.43
-548.698
153.323
616.966
836.12
-1453.09
-183.985
422.722
431.423
876.569
-1307.99
-906.688
391.8
514.888
-1047.47
1447.7
-1068.59
309.604
750.508
-96.9437
551.219
-287.828
-263.391
1006.26
-521.422
593.378
-1403.81
810.431
-1342.24
238.754
-544.787
265.871
-1185.23
905.084
1942.57
-992.439
-950.135
276.801
1579.57
-2095.65
895.75
1199.9
360.939
-32.514
-328.425
-223.606
481.023
-257.417
-105.915
-383.679
489.593
-464.651
145.094
339.914
-130.557
608.706
419.026
383.227
-802.253
-2039.27
1116.03
923.239
461.85
-530.261
68.411
220.2
-361.507
141.307
1011.86
1004.77
1784.72
-252.486
724.751
-446.071
796.422
-1389.56
593.136
346.947
332.13
1053.15
-1035.83
-500.026
-234.69
734.715
474.92
-132.97
-341.95
796.723
-615.439
560.365
-733.725
173.36
503.331
1157.4
-1240.23
701.901
1043.78
-1518.24
-3.12691
-1439.43
1442.55
326.174
824.078
-1150.25
622.8
269.943
-892.743
-2271.29
1145.89
1125.39
-1110.76
-1160.53
194.096
366.268
958.881
-632.707
878.781
-898.537
19.7561
-2099.39
992.456
-222.341
-188.455
410.795
-41.8741
1770.38
-830.141
71.8927
-1028.95
-1066.7
-229.034
449.234
-670.31
202.122
-268.864
-426.734
695.599
1104
-1574.2
782.862
-1374.39
591.524
696.541
-426.143
1947.85
-1444.52
-378.286
-1376.01
74.4674
401.643
-531.657
528.504
16.0631
-573.526
557.462
570.429
-285.973
-602.804
278.068
324.736
783.095
-364.069
34.5042
326.435
1188.47
-1191.6
173.3
232.507
395.28
-664.144
619.222
-1005.97
-2026.74
2026.74
-254.933
-449.348
704.281
699.065
405.864
-1104.93
579.929
170.578
405.208
377.887
-2199.76
1328.86
-926.39
-679.374
1605.76
-488.061
-697.167
-260.664
550.702
-290.038
830.764
-196.754
-634.01
-441.518
648.645
369.334
-685.737
-360.146
-132.724
492.87
-1329.84
-475.865
627.919
-1115.98
-374.147
-1244.29
844.339
1463.87
302.426
-921.349
618.922
966.734
-340.954
1391.34
-797.966
444.127
-270.827
-326.759
-875.094
568.859
306.236
-330.739
-544.356
311.708
-417.623
-201.938
-156.215
358.153
-392.78
1091.85
434.639
-243.96
-390.621
1352.8
-169.994
-1182.8
-472.388
283.012
189.376
230.049
252.349
-482.397
12.985
-746.71
592.129
-1729.04
1136.91
1483.34
-866.378
-1050.04
-410.107
-1056.85
573.855
482.999
1380.09
-404.95
929.057
-1411.37
-167.978
-196.193
364.171
-468.76
580.297
-1627.77
427.916
903.939
279.952
301.141
-581.093
568.055
1186.24
1103.81
-713.307
-390.504
401.331
-213.417
-187.914
-1419.45
445.719
737.778
-1183.5
1473.33
-544.278
-491.303
929.397
-438.094
426.152
1186.15
-1612.3
47.3864
-725.094
-148.646
421.93
204.919
-398.794
531.19
475.067
-610.601
51.2828
559.318
1024.53
-1307.66
283.132
666.281
-261.073
468.316
-1447.23
978.916
406.796
1687.16
-523.24
899.482
1043.09
-661.062
-1684.69
758.298
565.033
399.195
-964.228
454.872
78.9032
1750.01
-1828.91
1443.7
-379.491
-1064.2
1699.14
-1741.02
-366.741
-523.925
722.783
-198.858
-502.592
180.283
294.636
-373.191
-1225.97
214.438
-764.653
-639.156
-647.858
999.509
-351.651
-652.535
642.464
10.0715
654.942
-923.576
268.634
-725.38
360.304
365.076
-648.151
-690.297
352.89
337.407
-932.246
1400.56
-417.236
887.525
-470.289
-2205.31
5.55737
177.3
-535.262
357.962
142.392
1210.41
-97.9409
-572.369
157.233
-595.616
1487.12
-704.255
381.743
-466.144
84.401
-563.748
563.748
1223.01
395.423
1778.05
-1228.58
589.543
639.032
848.671
-51.9486
1291.89
773.99
-540.422
1336.84
294.498
299.237
275.263
-799.188
239.955
-686.275
229.088
-442.006
212.918
-239.562
581.26
-341.699
123.622
-363.184
-591.672
-564.63
1156.3
-370.302
536.939
-166.637
-1192.15
2032.04
-839.884
1289.37
-330.49
-400.068
135.891
-1983
812.066
1532.24
-848.096
-684.141
1986.99
-877.452
-1109.54
713.912
575.458
-240.61
469.698
-676.802
1142.58
-465.779
-769.791
1201.21
551.698
924.632
-1725.31
800.674
-545.473
-74.3605
619.834
297.398
253.821
413.82
-99.6332
-314.187
896.628
-83.5055
-813.122
917.768
-561.363
-356.405
1576.18
-472.181
890.574
-1627.53
736.951
1068.47
879.387
749.032
-441.271
-307.762
-1058.95
-258.296
563.257
578.558
-1141.82
-459.723
507.896
-48.1724
576.461
-342.166
-234.295
-985.107
567.871
595.582
887.763
-441.807
1096.75
1414.42
-778.562
-635.862
394.767
-924.879
530.112
-1024.33
396.64
552.56
-1043.86
456.993
-527.92
70.9272
472.942
302.608
-514.972
-48.7756
-794.301
-879.073
1673.37
189.784
211.547
-226.542
420.638
-29.4761
-554.016
583.492
493.709
868.491
-1362.2
-515.763
313.824
985.55
-88.9219
836.001
-1064.68
228.682
395.52
845.903
-1386.32
-450.491
833.718
1978.97
-1285.14
-693.829
269.846
608.934
255.741
795.51
83.7399
-966.725
882.985
1673.73
-1089.01
-584.725
-137.935
1887.95
-1866.08
-160.652
483.081
-621.254
138.174
-1013.57
527.212
486.361
-1730.47
538.317
-955.703
845.348
392.798
200.581
582.152
-279.726
-421.85
710.118
256.615
64.6643
715.888
-780.552
-1138.81
-889.238
2028.04
-539.205
1103.31
-564.101
-468.243
-329.778
107.437
-1655.55
861.254
-864.097
-599.604
1463.7
-330.658
-294.94
625.598
360.1
-649.792
289.692
244.3
-608.369
319.064
205.368
-524.431
346.551
-607.216
621.485
-261.385
315.659
-461.088
676.899
410.098
-180.05
-388.075
-302.222
1220.9
-2.8681
-1218.03
1039.41
-420.184
559.697
410.797
-1782.34
869.818
912.525
492.129
550.668
-1042.8
-534.107
203.449
-263.433
1181.24
-917.804
-1590.86
1212.57
504.647
-1096.32
387.677
-5.93414
428.654
303.3
-731.953
370.913
-616.405
-33.5212
757.25
-723.729
-525.564
795.507
386.112
321.826
526.846
653.154
90.1722
-402.876
312.704
1058.6
-644.951
-413.644
494.027
-1664.27
1170.24
-1140.38
1753.24
-612.859
1715.84
-1123.71
-334.662
612.73
-1183.66
1267.4
424.967
-798.388
1604.72
-806.327
-259.101
-213.287
-895.415
1470.87
1813.63
-611.097
-1202.54
-405.096
654.84
-1302.7
-124.712
-46.0775
459.898
-681.879
-354.178
-1236.68
-220.623
464.923
903.178
-561.771
178.093
-1674.68
-71.2476
1745.92
-1066.14
526.93
568.538
-1183.59
615.056
901.177
912.458
630.642
619.947
686.643
242.754
-1136.48
459.679
-400.984
417.047
619.083
-514.663
244.43
-733.433
489.003
691.656
-344.709
-321.709
184.262
-601.658
237.603
364.056
-887.472
-740.053
1087.67
-2145.75
398.036
-682.919
-342.882
-723.958
834.941
579.482
-346.081
312.77
370.624
219.84
649.032
-868.872
528.526
614.055
-535.513
175.367
361.337
-616.27
-1049.86
-844.571
1894.44
-1798.35
157.253
1107
-1370.43
1160.32
-724.669
-435.648
-503.935
1349.84
-1495.5
627.9
867.598
-285.881
-209.982
495.863
1428.41
558.573
341.175
-473.899
-483.556
-568.767
1052.32
-421.433
598.733
1582.67
-1129.77
-452.897
-777.058
327.71
654.723
403.873
-1623.42
416.171
1207.25
-193.357
512.421
797.774
784.897
198.07
-686.066
487.996
203.859
211.354
-286.08
-110.144
396.224
486.136
1.0588
-487.195
-1638.23
588.187
-1606.94
1673.2
-66.2527
11.0204
-1617.96
1069.55
763.649
-334.995
-810.301
-214.027
-1134.58
-239.806
-312.277
683.189
-1812.61
-630.58
1209.14
214.16
759.316
-1330.83
-678.598
-465.673
611.325
-331.373
-1013.27
1350.78
-1932.92
582.133
646.577
1288.26
483.689
-2.66541
717.97
705.516
-1423.49
-638.835
334.211
304.624
438.399
-100.477
-337.923
149.258
300.471
161.519
-461.99
-585.611
1150.64
463.149
-626.36
-461.115
-401.934
863.049
-331.802
163.824
-458.484
161.68
-303.907
-709.667
545.228
-106.829
-573.082
967.849
576.341
-268.848
-307.493
454.714
-779.267
-647.131
443.466
-1129.4
-838.104
1183.53
-569.771
454.22
280.496
-453.315
86.3621
1028.42
-315.318
591.601
-276.283
-509.041
1578.59
-689.846
239.294
375.322
-614.616
218.176
483.472
-25.2482
-458.224
-259.184
-199.3
1007.56
1108.9
564.833
-875.518
942.98
-67.4627
-454.156
168.275
-732.945
306.211
-597.616
323.81
367.846
826.661
-1236.5
409.842
777.233
-810.755
-948.91
-550.386
1499.3
-163.87
465.011
-544.111
256.283
1303.2
776.015
-577.946
1315.6
-687.677
487.61
-675.575
-410.498
-422.569
-378.673
801.243
501.937
-843.396
-453.923
90.4514
363.471
-318.594
572.443
728.182
-330.145
-239.169
-175.776
414.945
-492.455
140.142
352.313
1459.09
81.3392
-1540.43
-752.146
1347.73
-1144.77
-466.022
542.426
-167.105
1151.56
-374.331
1083.47
492.711
697.965
-422.703
-884.96
-522.398
-1328.4
-25.108
985.44
-960.332
597.502
330.594
-928.096
-331.702
-216.996
-682.045
405.528
1621.21
-179.556
372.351
347.47
-719.821
-1839.77
-2106.69
1519.15
587.545
-2038.96
347.237
363.644
536.706
-900.35
-460.396
1020.09
-395.942
-673.303
1069.24
-2030.54
1391.21
639.331
599.548
-995.49
45.4521
411.541
386.665
194.603
249.524
319.602
963.192
867.3
679.052
-324.344
-354.708
-292.054
620.328
-328.274
572.506
531.305
565.061
514.781
-1079.84
-796.166
-699.332
752.26
399.304
-415.974
705.666
-1193.4
1609.58
420.907
-1094.21
-334.626
539.994
-1384.59
874.334
510.259
-715.575
-349.313
-784.956
355.567
429.389
447.178
718.041
-1165.22
1072.85
-580.719
-408.005
662.969
-254.964
252.725
323.616
-467.514
-432.271
899.786
-236.018
560.653
-954.269
393.616
-464.48
600.599
-1681.28
423.854
670.74
-1094.59
523.065
95.9513
113.409
-2212.8
541.654
-87.4348
1444.35
1777.09
-217.551
-1559.54
-438.469
1789.25
-1987.07
1194.52
792.557
401.33
347.702
-37.4199
872.361
-1283.18
718.55
-869.448
-822.955
797.847
306.279
63.3842
-369.663
226.003
179.829
-405.832
1555.31
-837.337
-1530.93
-325.432
486.893
-210.63
-276.263
393.707
366.564
248.462
362.864
-9.68731
1002.24
-992.552
378.405
279.937
-658.342
-734.094
1817.35
-1083.25
-342.954
736.661
-1219.54
-413.105
-915.112
482.84
575.603
-783.182
207.579
760.888
-379.401
-381.487
-428.645
-446.873
449.545
1081.09
1238.74
-670.199
800.53
-345.816
386.394
317.887
-246.012
-220.132
-209.383
616.179
408.216
-847.151
438.935
217.875
355.163
-573.038
-421.856
830.072
754.399
-1147.18
887.127
-60.4656
-489.6
276.738
776.415
-96.0384
1384.3
1890.5
-62.0195
345.032
-320.482
410.654
-1086.74
1077.05
626.867
376.602
384.286
71.7277
415.165
263.617
497.784
-373.887
-264.949
-562.905
-89.6306
-363.079
366.623
-3.54458
-258.144
-286.643
1010.95
-1540.71
529.755
-192.261
-182.134
-387.869
667.806
-1636.49
1591.01
-963.107
261.93
-672.428
584.321
1224.42
-1808.74
607.424
983.583
307.73
-1122.72
700.871
-288.867
-292.225
1378.37
-1447.78
828.516
619.263
423.505
-629.463
205.959
-372.583
479.643
-107.06
376.501
109.635
1724.14
456.69
-252.831
557.64
-1704.79
1147.15
-94.9769
396.047
343.31
335.742
-448.636
-615.311
1063.95
416.948
-867.439
-640.828
902.738
570.596
-488.366
-237.014
-437.887
-409.264
-307.407
-827.174
1821.1
-1821.1
-104.078
-1592.11
1696.18
295.226
281.235
-917.126
-555.444
1472.57
-408.22
973.281
-597.302
-1040.92
688.884
391.632
-1080.52
474.907
-159.248
573.066
1220.35
-1793.41
-1045.93
2115.42
-1069.49
-376.727
-295.739
-490.939
818.649
-1753.53
1602.57
150.965
1753.53
-1607.19
-146.346
-243.539
522.562
-279.023
-537.295
1620.77
1566.27
-1979.37
1085.52
-291.35
-257.064
548.414
236.049
-570.675
-702.564
286.59
1342.1
636.872
582.072
482.566
-1064.64
277.593
420.372
875.351
500.113
-1375.46
535.465
-1019.02
1574.96
-564.004
-776.824
-366.315
-123.388
489.704
-490.131
1208.17
-742.262
331.968
367.535
368.885
251.937
-620.822
604.934
831.83
-603.148
264.083
678.898
-488.366
-326.998
-232.549
559.547
1168.51
-674.503
609.164
466.882
-1076.05
-1286.77
1286.77
-385.228
761.83
-282.107
-479.185
761.292
491.803
445.128
-936.931
392.056
-674.164
609.641
-869.932
260.291
-367.511
-493.075
1075.15
-660.993
-711.142
1372.13
-376.8
937.453
-1552.73
675.276
33.416
-416.082
382.666
-511.72
713.842
255.619
325.641
167.385
307.522
-522.053
233.186
1869.84
-1965.88
266.051
-707.569
452.596
-823.691
371.095
-915.755
1416.35
-500.598
-430.099
-485.013
600.776
1124.18
-1724.96
-715.463
338.736
-461.864
1034.37
-781.944
1046.03
-376.761
-626.716
-489.847
729.802
539.379
-357.325
908.751
-308.715
-183.74
1599.03
-1816.58
-346.649
-607.62
-340.079
480.22
263.062
-594.436
-178.153
1064.45
-787.71
208.292
-291.216
-281.041
572.257
393.66
-881.709
488.049
-484.149
-454.783
-921.349
-349.503
578.815
-229.311
-452.459
-429.854
-335.729
-188.703
-392.926
644.863
-448.372
766.259
-1072.49
623.851
-1408.98
544.88
-28.1559
-1836.72
1864.88
569.99
-449.985
1219.34
-692.409
304.672
-304.672
671.883
-442.228
1041.44
-1638.74
-1158.74
-947.955
290.89
329.438
888.546
716.169
-497.408
-302.911
800.319
1658.73
-1686.89
-434.064
344.47
225.959
1135.16
-525.999
-943.336
1550.48
-607.147
444.362
-249.76
379.739
385.633
-765.371
534.264
471.431
-1005.7
-331.785
663.754
-37.9746
1907.82
1593.77
992.695
-1696.95
726.914
-1176.96
450.043
-492.485
1367.84
837.343
-1341.28
-560.907
269.557
801.211
-402.015
551.53
-1190.27
638.741
-636.62
-1215.53
-695.67
1911.2
-196.224
551.312
-355.088
-173.487
304.712
-500.936
331.076
369.021
-700.097
-1485.26
757.281
727.978
884.045
-1434.43
824.374
-432.573
214.063
-362.709
-593.367
266.369
-647.35
-737.243
698.28
506.623
-1204.9
389.473
-205.637
-183.837
555.403
-958.119
-570.567
-427.975
734.185
-831.308
-1155.77
-1437.96
499.678
938.283
11.0882
-638.084
341.081
297.003
-1316.57
1047.39
269.175
-616.189
-456.298
-665.764
921.505
400.66
-198.711
-201.948
508.278
980.58
-1488.86
979.392
-561.738
166.202
395.536
-403.444
676.526
-410.475
-509.058
168.979
234.296
-1519.44
529.495
543.353
-756.363
244.643
150.38
-459.095
367.854
-822.638
1954.16
-1195.39
-758.772
418.503
-676.864
258.361
322.793
330.739
116.94
-447.678
-571.366
191.561
265.129
-691.759
1374.3
-682.543
424.095
466.086
-1181.66
264.418
1866.77
-1013.59
-853.185
784.627
-532.539
183.036
1402.35
-975.16
-427.192
332.655
-774.883
-616.538
1725.44
610.783
627.954
324.99
-18.7113
268.521
-1138.4
1725.72
-587.319
-1763.53
820.197
1758.43
-1688.75
-69.6854
-662.874
261.89
570.765
-716.767
226.92
1402.69
-565.352
387.914
445.804
-1858.63
1420.17
552.509
-433.018
-119.491
206.449
-542.178
-284.181
-184.062
-351.404
694.714
-581.878
215.562
612.32
550.949
-1163.27
1113.58
-1947.52
833.94
159.414
333.456
-1699.43
1661.45
314.061
-736.764
-168.273
382.336
756.455
679.736
-1436.19
1077.85
-1080.72
526.12
-1106.84
-629.107
251.207
377.9
526.893
-289.291
-606.753
-1031.99
294.02
-723.874
-912.32
178.729
160.723
228.751
393.272
292.454
-685.726
-632.063
-834.134
-978.479
490.533
-1061.9
-295.425
484.801
534.94
648.589
-278.617
-121.45
-412.658
720.388
270.043
-1200.66
568.599
1310.31
-553.856
443.813
-1014.38
-385.447
157.247
395.262
1023.29
551.663
-1717.16
1613.08
1632.57
-567.032
-1065.53
1904.3
-1893.03
-11.2758
209.41
-529.892
-348.832
557.124
-768.001
-324.207
-338.666
1025.81
701.471
-1505.85
804.379
332.777
-26.1881
1625.21
-1086.83
412.328
-1241.01
464.183
-60.6675
1519.75
1197.3
-470.381
-487.739
-73.9992
-267.772
736.04
-1951.57
-709.546
355.244
-535.41
180.165
191.028
-506.346
1139.93
671.579
-1811.51
-612.105
179.087
941.899
-1497.34
-210.516
678.848
-468.333
881.73
1118.27
-739.793
1350.58
610.191
-487.408
-122.783
-345.682
1174.2
1044.96
-1981.1
936.143
-1174.13
543.548
1488.78
-586.044
-385.145
-150.368
-1242.98
572.781
1162.51
-109.173
946.156
775.7
-1721.86
-206.527
578.61
-1541.74
963.134
487.006
916.572
-1403.58
622.401
586.738
393.681
-1106.63
590.515
1108.93
1215.63
-452.261
-763.369
-1186.2
-1754.94
-7.0226
-1710.14
-203.972
-425.491
1608.61
-630.128
-978.482
-490.846
1121.49
-1319.06
635.848
683.216
-1362.57
1443.91
-1331.77
591.974
1520.51
-390.849
-573.154
188.009
-1482.79
233.41
176.384
228.777
381.413
438.875
399.712
-838.587
506.384
-938.954
900.569
-1444.85
-700.326
234.006
466.32
-1045.58
459.967
-477.561
865.475
697.026
24.5984
-528.142
173.054
-886.567
-1318.75
-714.545
348.56
365.985
402.018
-723.229
321.211
-477.237
-189.38
-709.157
721.138
1539.79
-593.636
816.929
738.378
1344.74
-844.626
-971.179
-570.565
-796.342
428.52
367.823
-1036.37
-641.5
302.669
338.831
-1433.69
-296.78
-789.986
397.108
392.878
-652.876
404.879
247.996
-680.14
269.665
412.843
486.942
389.971
440.101
478.43
384.62
596.243
-969.435
682.501
468.143
453.064
356.371
-809.435
1630.75
-1079.87
-550.882
-504.648
-286.529
-1030.04
453.426
347.817
409.723
593.708
-1003.43
-1381.96
751.834
-532.363
1147.42
358.646
-58.1752
412.423
-864.968
452.546
-1896.31
304.208
440.732
-725.622
284.89
-189.32
403.759
-214.438
-661.987
305.402
356.585
-673.293
318.585
371.005
390.825
612.469
-1020.69
752.861
662.65
-1415.51
438.829
625.118
338.957
392.626
-731.583
408.262
328.399
603.466
674.132
406.954
596.661
-1023.87
427.21
-1672.12
1192.15
479.971
1696.58
-539.178
620.293
-1147.35
527.061
-641.9
346.961
437.522
-934.78
497.258
754.466
-451.167
351.153
343.561
571.677
-918.325
652.173
-1253.15
600.979
376.361
734.491
-1224.62
769.289
509.724
-1279.01
486.748
406.322
-893.07
-501.707
-936.254
-299.886
630.962
352.601
541.468
-894.069
331.766
331.988
-502.184
1944.74
436.655
-846.708
410.053
-917.764
-807.542
-747.919
366.433
-1220.67
438.721
-1735.36
1607.19
128.17
1747.55
-1602.57
-144.986
-783.703
-591.57
264.09
327.48
-1758.43
1979.37
538.703
791.293
-1330
440.137
716.165
690.141
385.632
-1075.77
-69.0683
1617.15
-593.857
385.935
833.405
-648.297
325.455
322.842
-378.803
-297.254
549.979
-218.811
435.934
279.397
-664.65
385.253
262.886
-577.704
-281.455
442.665
-1033.25
590.58
538.055
1092.7
366.044
596.594
310.766
351.757
-662.522
1625.44
-923.972
1692.1
-1520.76
-171.339
-328.684
-822.724
413.461
857.422
-1067.94
-605.907
277.633
-1090.57
1628.63
-1586.51
-78.2211
1664.73
-341.817
-350.61
-370.625
538.146
597.017
-503.179
-27.0827
-549.84
504.941
-284.058
-220.883
1749.83
-1300.29
-623.961
297.789
326.172
403.872
357.303
734.543
-294.524
-399.36
-1747.55
1686.89
459.656
-1100.78
641.121
-43.1878
1656.27
571.126
476.38
-1047.51
103.863
1144.7
-1452.1
-14.5103
-1881.8
225.918
-597.604
307.371
290.233
-955.2
612.318
-897.881
467.782
-1128.43
673.217
455.209
370.277
268.795
-766.204
-312.643
1216.94
886.608
699.197
-1182.87
456.162
726.704
494.478
700.547
-1195.03
-361.25
-249.173
409.895
-960.368
438.752
521.617
21.2391
-1879.87
1080.95
-471.312
-499.585
558.38
-1378.2
819.823
-428.613
799.708
-405.701
498.662
-713.231
1720.79
409.792
-181.042
214.841
-167.07
-247.184
414.254
1895.33
-504.119
-1693.9
1051.3
-600.094
302.84
-1013.52
553.123
-313.286
544.354
905.193
-1449.55
-1103.58
437.816
-20.8589
-1945.02
1712.82
-667.867
-540.142
460.793
-1190.41
729.618
194.058
206.602
-280.762
770.842
700.029
837.684
817.715
-461.343
1084.77
-478.608
476.714
-191.135
-285.58
-1923.61
-713.798
-318.207
-642.459
-6.55448
649.013
464.768
-273.207
565.639
1059.8
-805.523
924.464
1244.22
-425.616
-189.286
-233.099
422.385
954.069
-888.459
-323.194
-1067.69
611.388
1558.64
-801.363
537.726
934.845
-394.728
736.745
-342.017
1130.28
-275.337
334.409
1349.67
-706.432
-218.447
448.323
-1198.56
750.233
-993.87
-113.229
1107.1
441.224
-955.457
514.233
175.786
732.414
483.216
743.684
-94.6523
852.524
-426.033
1182.38
-796.747
552.252
-1465.47
913.218
-1216.65
1800.97
-431.71
-1510.19
879.557
-1401.95
-311.384
-420.569
1457.2
-1524.69
784.634
1491.47
199.705
277.009
-358.677
-1735.36
-292.465
-1010.83
1576.47
-1768.65
1768.65
1566.27
-1004.46
-633.662
-342.156
368.41
604.871
-371.715
-366.431
-1389.8
897.314
1125.12
600.597
1202.65
1789.48
-1216.42
-613.925
273.633
1659.07
-1916.56
257.495
814.848
-1267.75
1545.22
-561.639
784.168
319.139
-343.513
555.059
794.779
667.356
1360.69
-226.715
-445.336
-364.226
496.197
-339.997
471.861
736.311
-301.975
-145.704
-333.612
570.255
-236.644
30.1772
-372.343
1107.42
-1720.28
-440.398
-489.982
-569.63
864.181
694.462
-1596.46
904.702
-451.94
-623.18
-514.285
1252.06
338.284
1723.74
-1702.5
-1658.73
1893.03
-1560.77
840.229
720.544
-375.292
-1796.93
917.854
583.424
819.271
-394.961
1794.38
-680.794
-415.282
680.804
431.393
-1112.2
-1101.13
444.157
753.139
-1617.16
473.227
901.074
173.549
-399.516
225.967
-1597.61
-385.091
-432.221
990.255
-674.381
1442.92
-972.97
1854.7
242.722
-542.463
495.548
-295.843
474.329
893.507
543.194
977.314
-463.11
-427.967
574.087
883.117
-1392.7
-40.9902
1574.69
-836.312
519.961
971.509
-1475.83
-1115.9
1773.01
-1243.23
-529.776
1206.12
-319.123
-886.997
-189.163
452.604
-263.441
-457.414
-251.424
429.214
-177.79
142.934
-392.106
1731.93
-1738.96
-460.822
-530.862
-903.569
441.993
-203.512
-238.482
633.608
-458.407
-360.566
-314.743
675.309
-931.847
387.492
-1167.21
676.359
416.271
-637.149
-440.634
1577.4
-861.227
530.191
-458.117
-570.5
-462.745
361.981
-351.45
-10.5307
-1104.67
412.262
-664.84
-1033.62
1698.46
-601.766
-1424
712.854
562.244
-1596.26
1034.02
-390.118
-478.781
151.092
535.551
-1258.47
744.188
539.241
1005.98
-2133.17
999.987
1133.19
-363.449
410.115
-384.86
-25.2548
1478.04
-371.426
449.594
1204.59
582.352
906.43
567.367
527.694
-1095.06
162.712
-442.744
-1688.75
256.102
1127.55
-616.306
518.542
1013.7
-1532.24
1092.83
-1643.72
190.64
696.487
549.163
-872.357
-1086.44
-169.571
426.077
-256.506
-586.79
-431.42
-636.809
-626.71
345.947
-1619.04
939.662
-476.926
216.135
-397.177
533.667
-307.749
-608.058
1197.14
-1277.68
924.846
352.831
-1027.03
-368.728
-758.986
-825.848
1690.03
-477.106
1794.9
-1583.87
-211.028
-1556.62
1018.69
537.925
-727.089
-257.241
439.63
-182.389
-593.756
384.491
272.576
-657.066
-524.076
990.277
629.393
-351.76
-1620.26
1050.49
571.784
1103.52
-1675.31
-415.683
-290.728
-371.259
-746.114
-473.406
-331.871
499.256
1558
-995.751
-774.938
1497.46
661.118
-316.648
725.882
1152.36
-1878.24
290.94
307.24
-487.305
-1932.76
1720.29
212.473
737.972
-475.219
-262.753
531.845
1060.8
-1592.65
361.981
-1724.65
-233.212
1752.36
-1580.68
1073.76
506.921
-1725.11
0.466563
-521.808
410.115
1699.43
-1720.29
939.594
624.753
-1564.35
378.453
-218.233
-160.22
-412.816
-267.325
69.7876
94.914
-352.155
-429.691
-440.241
-406.782
217.462
1510.22
378.946
-216.614
-436.261
460.311
-195.181
321.527
1510.75
996.306
-161.349
-834.956
-1104.09
1704.86
-1728.84
1064
-707.273
-1021.57
-1265.08
1844.99
-579.907
1155.07
-1771.18
616.118
270.059
-878.018
1675.77
43.4364
-1719.21
-491.174
-1083.02
-1731.93
-981.803
553.837
1019.58
590.244
1133.01
-1723.26
285.006
-452.111
703.235
-384.649
379.52
924.745
681.02
-381.71
-642.162
582.91
1072.53
-1655.44
-402.599
-367.703
770.301
428.678
-1661.45
1520.76
140.69
582.441
-1044.31
544.752
1083.88
-1555.66
994.022
-236.31
231.106
326.018
1904.3
428.447
-78.005
995.855
722.752
-1718.61
-697.136
1085.32
-1557.5
162.83
-571.006
195.245
265.066
-659.034
-561.632
582.564
1034.58
-711.043
-275.366
-1368.62
675.208
693.416
-412.09
763.11
70.1205
-833.231
561.906
-137.166
1557.33
-212.724
273.693
-772.853
-1932.76
1664.62
1030.94
360.304
301.903
452.563
-930.095
-993.512
-1767.26
635.698
1693.77
507.872
-474.425
1210.74
1087.11
-424.958
1029.83
-978.562
491.717
486.845
700.383
1047.94
-1748.32
483.924
483.925
-1493.97
-746.713
33.4059
779.737
-413.305
-887.353
387.768
-539.2
-802.078
618.922
-577.534
1397.36
1055.16
192.258
233.819
-550.638
1618.51
-773.306
1526.17
-1727.84
575.269
1152.57
542.431
-883.385
-1732.88
1916.56
-183.685
1721.74
179.396
-544.546
364.892
-269.978
-481.494
1211.11
568.272
1128.31
-491.262
431.19
857.982
-460.184
-774.305
429.216
345.088
1419.04
1089.59
-518.248
1422.95
-510.592
-533.289
1043.88
-602.776
478.859
-1203.53
1692.1
1839.57
-687.214
1585.79
-646.194
-1241.18
717.107
-562.61
199.44
-387.894
451.688
-240.333
-519.368
-1246.71
1870.94
-624.239
1173.51
-553.217
1120.27
-1659.45
1696.33
-573.956
-546.374
-549.827
1720.07
-316.969
-688.063
-473.356
1223.59
-1685.41
-1860.11
613.401
304.522
-938.532
165.772
211.49
-1719.02
1204.14
514.88
1162.85
558.888
-512.038
-465.408
1192.11
181.011
222.748
588.445
1251.13
-539.179
-1238.58
1777.76
-1025.37
999.988
866.787
-204.099
-1659.07
1702.5
-510.116
1411.19
-1732.88
-356.837
13.3682
343.468
-261.159
586.173
-325.013
78.5762
490.282
781.476
-379.458
1257.52
1270.79
-413.366
851.725
-438.264
1817.48
-662.418
1586.58
-1723.74
-412.801
-747.761
307.488
440.273
-560.194
-563.392
79.738
-1138.69
-985.412
-669.914
1655.33
-943.704
-1189.47
160.282
-417.347
-648.047
705.658
1167.44
650.038
1410.33
-591.058
1636.74
1318.1
-573.916
-490.819
194.976
-503.297
1396.8
1240.16
-564.952
-999.985
892.843
55.9561
-948.8
603.43
-506.16
1403.47
1495.07
-588.644
-362.08
362.08
-589.481
1623.5
1239.42
-486.283
1134.15
-69.9044
1851.79
-389.193
1489.49
-588.917
-507.685
1347.91
-651.999
1218.71
-566.709
1554.81
-591.678
751.879
574.918
-1326.8
-655.438
279.994
496.021
600.375
-1957.29
-989.33
1586.58
365.743
-365.743
-67.1518
386.894
437.479
384.922
-8.42064
-332.212
899.156
-522.794
-427.002
813.896
-241.772
619.673
-432.032
1548.07
-444.345
-884.057
183.381
226.204
-409.585
601.17
1250.77
-1851.94
926.754
-458.971
-351.45
126.15
-1943.03
1816.88
-451.258
180.432
1181.19
-440.477
-740.713
-302.816
-584.537
-493.605
-384.86
-478.582
257.698
1158.4
-561.38
231.882
-378.613
146.73
-22.8792
-107.679
1376.01
-1268.33
34.5979
-597.503
-586.43
-450.162
450.162
-1262.35
1985.1
-1344.36
-214.172
-1824.79
240.915
-1025.75
-974.242
-183.298
-1638.27
708.17
1229.32
-1924.99
367.666
314.133
-681.799
-1850.02
1234.27
615.746
-560.852
560.852
-959.103
-40.0477
-1866.08
-558.156
1650.85
-676.873
1636.18
-601.6
-176.531
-1705.27
-583.589
-445.858
-594.82
-464.603
464.603
-1537.81
194.526
1343.28
169.883
225.014
-394.897
494.249
502.057
996.82
-475.203
1751.29
769.166
-420.702
395.447
521.512
1702.06
-594.641
-552.973
1636.85
468.878
1812.77
-645.324
-1804.13
-1938.07
-646.999
-477.237
477.237
-591.367
227.142
-692.343
1019.24
-466.118
-1073.46
-289.578
1579.57
1852.3
1635.35
-1635.35
-277.543
740.06
1761.5
595.792
1275.15
170.388
208.065
579.854
592.158
1603.5
-1603.5
220.382
-355.563
-436.132
457.324
951.561
-459.843
-639.386
-1130.99
1706.26
278.783
-1653.19
612.269
-289.481
468.877
1744.65
-592.081
-214.746
-419.23
380.203
728.727
1738.58
-613.451
-511.774
-774.921
1960.54
-870.456
-1090.08
1642.76
-705.07
1223.97
-1824.95
600.981
335.909
-878.372
-185.59
-103.774
1098.11
-486.725
132.737
619.111
-1651.1
436.862
610.838
-1804.13
-583.283
1787.43
884
-1162.91
1760.49
-597.583
1783.83
-575.536
-1208.3
437.969
930.51
-1738.96
924.67
-1493.66
263.084
1230.58
-832.29
-1254.22
-376.913
74.6388
302.275
581.738
267.913
1028.79
-442.639
846.622
-403.983
820.962
739.443
-1560.41
644.013
1066.36
-24.1272
-662.726
686.853
-1744.37
722.802
701.71
150.559
-1122.66
1936.76
-674.555
-1262.21
-537.18
1665.49
831.209
964.998
-1796.21
1227.86
683.339
-405.608
711.01
839.474
1028.14
-586.919
1761.5
626.34
1773.56
-1185.61
-587.951
-381.249
-330.599
711.848
121.449
-1185.65
1660.54
-540.274
-1437.8
1437.8
1250.57
594.419
1351.51
206.485
-564.442
282.361
-188.604
699.102
1113.67
480.875
-299.864
-869.984
-574.863
1738.49
-1738.49
998.723
-998.723
987.333
1025.17
-2012.5
1837.95
-613.98
-581.113
825.225
-947.851
-1052.16
998.312
690.804
-1689.12
-514.972
-350.523
-644.967
-808.428
2042.7
-1246.42
-613.689
1002.97
974.854
1289.77
646.991
324.432
1012.69
230.618
338.837
1186.24
1756.88
-1756.88
671.787
79.7531
-387.246
-997.055
-539.993
1674.14
989.162
1010.84
-1833.29
-221.495
-362.094
608.5
-352.398
1849.52
-1077.86