/*--------------------------------*- C++ -*----------------------------------*\
  =========                 |
  \\      /  F ield         | OpenFOAM: The Open Source CFD Toolbox
   \\    /   O peration     | Website:  https://openfoam.org
    \\  /    A nd           | Version:  7
     \\/     M anipulation  |
\*---------------------------------------------------------------------------*/
FoamFile
{
    version     2.0;
    format      ascii;
    class       volScalarField;
    location    "38.5";
    object      p;
}
// * * * * * * * * * * * * * * * * * * * * * * * * * * * * * * * * * * * * * //

dimensions      [0 2 -2 0 0 0 0];

internalField   nonuniform List<scalar> 
7807
(
1.33212
1.08532
1.46202
1.35268
0.640089
0.202429
1.48881
0.814618
0.41718
1.16113
0.152001
0.722675
0.85515
1.05124
1.16808
0.937173
1.3367
0.897074
0.886708
1.05448
1.12412
0.670321
1.01263
1.30722
0.912853
1.33925
0.631692
1.08288
1.26118
0.900431
0.954718
1.51977
1.01318
0.551843
0.351324
1.12675
0.910909
1.47856
0.867144
0.480911
0.868518
0.932421
1.04999
1.08938
0.43817
0.252839
0.663941
0.859884
0.26494
1.05458
0.763213
1.07385
0.933104
1.01493
1.12644
0.807682
0.879344
0.815847
0.98684
0.550496
0.215071
0.79274
1.05098
0.729435
0.551094
0.955456
0.410055
0.0350154
1.19998
0.853024
0.241035
1.03786
0.898244
0.991953
0.879342
1.01754
1.45441
1.11884
1.15997
1.0412
0.84197
1.53056
1.17431
0.98332
0.737579
0.706819
0.827481
0.924259
0.643646
0.756199
1.26647
1.08862
0.356019
0.859354
0.778422
0.955525
1.03782
1.01688
0.737279
0.615341
1.02234
1.16825
0.762773
0.156159
1.09681
1.27449
1.69605
0.813338
0.00949959
1.05233
1.33892
1.05409
0.0154834
1.06081
1.27454
0.565349
1.06265
1.22659
1.02308
1.00099
1.03093
1.5191
1.05361
0.932488
1.0173
0.67097
0.934494
0.876579
0.570403
0.949167
1.05316
1.15739
0.582863
0.651276
0.999723
1.33273
1.75123
0.131737
0.868758
1.11813
0.992226
1.03882
1.01939
0.980986
1.70371
1.03628
1.26273
0.988087
0.982268
1.51535
1.11834
1.09478
0.719056
1.1846
1.17167
1.45004
1.02579
0.858864
1.55366
0.257536
0.863682
1.31666
0.158752
0.811718
0.788151
1.39087
1.39223
1.55143
0.810306
0.766696
0.0415497
0.994316
0.556181
1.0912
0.878679
0.970761
1.11258
1.24728
0.366237
0.579748
1.35496
0.201341
0.346768
1.48071
1.0848
1.04674
1.02074
0.981864
1.03406
1.12869
0.159513
1.03398
1.25241
0.768306
0.273806
1.28823
0.65131
0.943598
1.02944
0.041559
0.704025
1.34153
1.27634
1.46842
1.06346
1.05608
1.03884
1.09599
1.34025
0.446817
0.200829
1.55283
0.926454
0.579779
1.03263
0.939554
1.42414
1.4357
1.03827
1.53261
0.632973
0.91596
1.03034
1.14135
1.049
1.30693
1.56802
0.344086
0.930168
1.23912
0.842042
1.22343
0.648393
1.52954
1.45236
0.820917
0.883219
0.469741
1.24613
0.3015
0.90114
1.04022
0.2732
0.751349
0.641711
1.25648
0.174546
0.758296
1.03847
1.49148
1.14871
1.56978
0.196639
1.02792
0.485471
1.46257
0.786262
1.7304
0.895809
0.70983
1.05886
1.10164
0.558229
0.431556
0.561801
0.848246
1.05062
0.180125
1.02383
0.76805
0.365835
0.593143
1.60758
0.83461
0.555694
1.62951
0.749451
1.33389
0.482865
0.988581
0.0568734
1.01011
1.13403
1.11987
0.98876
0.57393
1.05203
0.94992
0.390507
0.553098
0.782843
0.849321
0.749598
0.713772
0.986623
1.05459
0.975523
1.09795
1.01226
1.41888
1.42788
0.677142
1.09828
0.0252423
0.803349
0.953693
1.29967
1.19179
0.320795
0.795521
1.00103
1.26505
0.667892
0.770651
0.668581
1.16733
1.04141
1.38824
0.70216
1.09369
0.356665
0.882066
0.268146
0.976692
0.488033
1.00279
1.07903
1.00828
0.990378
0.91635
0.5261
1.05803
0.955716
1.17883
1.25953
1.01822
1.08322
0.958251
0.843253
1.04954
1.53402
1.08653
1.0735
1.56916
0.715074
0.700035
1.0863
0.71791
1.03355
0.841724
0.735552
0.686271
1.25266
0.386168
0.549522
0.290502
0.72788
0.895409
0.066044
0.619369
0.982657
1.47957
0.999503
0.921334
1.58114
1.44909
1.15978
1.10717
1.00096
0.848709
1.37632
0.868546
1.36874
1.03634
1.04986
1.27924
1.3666
1.02064
1.18269
1.30437
1.34437
1.09544
0.761164
0.800789
0.337338
1.02748
0.880339
0.72928
0.367866
0.685476
1.05278
1.19547
0.945625
0.913701
0.795633
1.09003
0.854369
0.865482
1.28327
0.671486
0.237242
0.405547
0.340512
0.968336
1.24583
0.823707
1.05265
1.04187
1.48542
0.877082
0.876556
0.82034
1.59249
0.63211
1.38274
1.26815
0.336364
1.03536
0.750252
1.04072
0.544079
1.16595
0.963409
0.866939
0.624235
1.2435
1.26842
1.04479
0.985644
0.789995
1.01989
1.18159
1.56783
1.0691
0.892818
0.0174392
0.919045
0.729658
1.05087
1.04797
1.08877
1.52292
1.25204
1.04639
1.29617
1.61509
1.02302
0.730759
1.37156
0.711601
0.442317
0.877235
0.308031
1.03119
0.961176
1.00904
0.723601
1.29383
0.718092
0.218437
1.04716
0.708979
1.14442
1.02879
1.01807
1.1295
1.2405
1.19604
1.2013
0.466913
1.18893
1.18687
0.590991
0.936854
0.554271
0.998452
1.00913
0.806371
0.663735
1.24031
0.172721
0.424402
0.708863
0.969585
1.02438
0.998967
1.0157
1.04964
1.04314
1.05603
1.35954
1.08824
0.841623
1.52997
1.03908
0.901631
1.00467
0.952702
0.955406
0.894741
1.06974
1.08411
0.233948
1.05013
0.290824
1.43712
1.20836
0.804357
0.877546
0.39198
1.54667
1.3907
1.1739
1.24839
1.04013
1.91338
0.371391
1.09807
0.908163
1.25305
1.57586
1.17109
1.2437
0.91293
0.428046
1.23813
1.06835
1.5581
1.14364
1.32612
0.858812
1.50399
1.37999
0.876585
0.860054
1.21882
1.02843
0.395017
0.910714
1.03852
1.04877
0.910402
0.913275
0.429894
1.38824
0.90403
0.342658
1.05208
0.561868
0.449605
0.927868
1.31237
1.04936
1.58026
0.260205
1.30756
1.0431
0.415211
0.123902
1.25767
1.30745
0.795818
1.2898
0.180993
1.30074
1.02275
0.891525
1.6877
1.02959
1.2417
0.980078
1.2971
1.30276
0.940528
0.967118
0.894365
0.765686
0.454221
0.898478
1.35701
0.215378
1.29364
1.05103
1.45821
1.28292
1.03703
1.55607
0.694752
1.02354
1.06556
0.989519
0.842482
1.04098
1.11879
1.53713
0.222371
0.711772
1.05461
0.0545536
1.43317
0.703907
0.0631565
0.414666
0.493016
0.972481
1.0432
0.681657
0.290856
0.849116
0.928942
1.04852
1.07149
1.01944
0.157351
1.02414
0.915334
1.22397
1.48414
0.774108
1.22875
0.393659
0.90079
1.14264
0.84651
1.3232
0.913086
1.1027
1.14949
1.24937
0.958103
0.885183
1.27458
1.04829
1.45986
0.880079
1.33862
0.876023
0.638692
1.23469
1.02449
1.15916
0.696786
0.0531278
1.04514
1.28005
0.773124
1.21982
0.909091
1.02561
1.08183
1.00313
0.691692
0.853095
1.04926
0.989776
0.884376
0.51714
1.46966
1.22411
1.05726
0.438278
1.38283
0.149159
0.426135
1.23216
1.00407
1.26062
1.0826
1.00751
1.08005
1.03734
1.1272
0.662245
1.02051
0.256091
0.917748
1.31554
0.93878
0.748669
1.03675
0.709383
0.6295
1.59825
0.885017
0.597706
0.0461573
1.21634
1.00593
0.554533
0.739343
1.2513
1.18154
1.01776
0.101853
1.27426
0.961906
1.28521
0.948163
0.974205
0.996186
0.332227
1.14408
1.175
1.15272
1.05439
1.36028
0.829038
1.26958
0.931496
1.04903
0.50834
0.965391
0.50862
1.25709
1.3192
0.687985
1.01862
0.95548
1.05939
1.05544
0.699398
1.09208
1.5465
1.1375
0.391304
1.17749
0.879269
2.57809
0.903739
0.98631
1.03745
0.988589
0.967486
0.852308
0.929244
0.84374
1.11348
0.326098
1.03131
1.11529
1.41041
1.01635
1.26631
0.697074
1.07097
1.02121
1.31359
0.852949
0.413544
0.963012
0.889448
1.09002
0.976614
0.97747
1.10534
0.928179
1.034
1.04784
0.0648669
1.12914
1.04663
1.2477
1.07343
1.15622
1.05266
1.37447
1.06837
1.0052
1.041
1.67664
1.04631
0.911355
1.04507
1.05645
1.04694
1.06001
1.26672
0.752088
1.36796
0.872243
0.561715
0.728913
1.16183
1.50417
0.849072
1.04712
1.26232
0.141132
0.96655
1.04182
1.10021
0.871817
0.728951
1.01698
0.873589
0.167272
1.02792
1.33685
1.03787
0.934253
0.683035
1.26241
0.578845
0.65042
0.498398
0.715785
1.16457
1.05601
0.977081
0.946927
0.271377
1.04325
1.07724
1.03307
1.00638
0.974507
0.43395
0.931301
1.03981
1.14972
1.46865
0.765227
1.03789
0.811556
1.06579
1.24685
0.505342
0.450703
1.22538
1.13794
1.01266
0.760043
0.705575
1.03583
0.500877
1.03431
0.886766
1.42167
1.33334
1.0727
1.04746
0.848631
1.01549
1.12534
1.04863
1.04391
0.0494115
1.11942
0.977433
1.05221
1.03451
1.03158
0.527721
0.754756
1.28574
0.997593
0.024603
0.754446
1.05262
0.38851
1.05012
0.36223
0.948147
1.04732
1.07053
0.358172
0.173537
1.18641
1.05217
1.56924
1.33158
1.11327
0.709441
1.02868
0.417405
1.05258
1.05146
1.12223
0.931677
1.32204
1.01544
0.5428
1.01138
1.03888
0.683822
1.05505
1.03762
1.01213
0.991589
1.0964
1.02746
0.976413
1.06284
1.27289
1.05931
0.00806283
1.04649
1.04057
1.06202
0.972317
0.571448
1.03854
1.04846
1.03903
1.03937
1.22659
1.06381
0.976184
0.986475
1.07025
1.06618
1.04326
0.495456
1.21397
1.29673
0.817394
1.28449
1.05282
1.06853
1.0541
1.28585
1.15613
1.54337
0.0555443
1.184
1.26023
0.897546
0.64356
0.91207
1.10984
0.280955
0.918157
1.04374
0.906651
0.944
0.350895
1.06343
0.558681
0.578925
1.33709
0.94276
1.18187
1.0019
1.29424
1.00279
0.622437
1.04741
0.962027
1.50645
0.602207
1.04236
0.554865
0.518862
0.989799
1.06444
0.252031
0.820726
1.04305
0.641109
0.195429
0.367539
1.21982
1.0872
0.910549
0.575813
0.931792
0.909776
0.94746
0.550698
1.38678
1.05524
1.31033
1.35668
0.400872
1.17455
1.19902
0.570491
0.497958
0.646169
1.10798
1.06037
1.02584
1.01819
1.05
1.2485
1.04779
0.0698498
0.928164
0.959575
0.986345
0.770373
0.899881
0.596756
1.0083
0.49941
0.56705
0.925535
0.765484
0.956254
0.0850024
0.899022
1.03543
1.09057
1.07794
0.835771
0.871008
0.838056
0.783575
1.04911
0.837699
0.328268
0.570879
1.02017
0.875512
0.77842
0.914958
0.959891
1.03546
0.868252
1.22534
0.876517
1.02964
0.99052
0.945638
0.901486
0.749072
0.797805
0.742136
0.887443
0.903454
1.27636
1.23493
1.12205
1.47013
0.242594
0.83864
0.899345
0.834656
1.19161
0.931856
1.13157
0.852655
1.28976
0.691414
0.68859
1.07935
1.02604
0.46118
1.00497
0.793134
0.939995
0.144812
0.795309
0.682348
0.917439
1.09621
0.999824
0.922606
0.890493
0.982554
1.16608
0.685685
0.666409
0.670591
1.56491
0.48684
1.15072
0.941072
0.932218
0.971613
1.02293
0.981146
0.992388
0.931272
0.776167
0.313781
0.761928
0.971619
1.15032
0.628382
1.24228
0.982425
0.888678
0.572845
0.972622
0.308469
1.21403
0.974806
0.95876
0.950178
0.865004
0.992225
0.639786
1.00031
1.14612
0.961102
1.05202
0.62319
0.958439
0.923109
0.897233
0.738368
1.20491
0.694986
0.934615
0.598977
1.22996
1.00313
0.967428
0.739786
0.856525
0.723409
1.27188
1.10508
1.27876
0.848684
0.631916
0.604434
0.707716
1.25981
1.03526
0.822876
0.431879
0.962852
1.04158
0.683347
1.01806
0.90424
1.06131
0.772765
0.985639
1.96511
1.03471
0.941485
1.03103
0.170686
1.10247
0.738206
0.966723
0.799467
0.98835
0.894722
0.546282
0.728589
0.711544
1.28283
0.775599
0.663685
0.772722
1.03323
0.829676
0.93264
0.865435
0.8254
0.795434
0.73547
1.28754
1.01248
0.731216
0.730918
0.959319
0.889381
1.01838
0.681852
1.13848
0.986062
0.831011
0.684972
0.894624
1.52548
1.28481
0.865375
0.510629
0.704686
1.04441
0.763138
0.968446
0.5422
1.01041
0.659967
0.897429
1.07074
0.679183
0.961589
0.618737
1.42125
0.83243
0.864497
1.09611
0.709233
0.956772
1.17554
1.51709
0.864675
0.87482
0.642644
0.594517
0.144545
0.0321126
0.857478
0.565015
1.20826
0.624876
0.659689
0.897862
0.422223
1.01425
1.04768
0.910006
1.01167
0.961013
1.16243
1.05911
1.1336
1.08632
1.13397
1.17627
0.878084
0.596387
0.876841
1.0502
0.738315
0.893719
1.14862
1.37719
1.04562
0.502039
0.343724
0.603927
0.0976285
0.985209
0.59014
0.861699
1.02166
0.487204
0.727019
0.416496
1.15055
0.894095
1.07542
0.700796
1.45
1.33309
0.863767
1.05359
0.971931
0.965768
0.894978
0.677625
1.04904
1.04192
1.01174
1.07639
0.410446
1.27297
1.04829
0.837382
1.04338
0.956291
0.53176
0.841944
0.612387
1.01132
0.744518
1.25288
0.432134
0.84585
0.483284
1.05645
0.850854
0.69847
1.07442
0.535376
1.13831
1.20198
0.96463
0.633751
0.337426
0.542811
0.515609
1.03886
1.18043
1.1295
0.426754
0.971295
0.538339
1.31967
1.03746
1.32568
1.0068
0.487932
0.538199
0.830284
0.782004
0.613547
0.0983358
1.00264
1.00289
0.40926
0.574839
0.924104
0.106269
1.24145
0.615673
1.02127
0.923271
0.794265
1.02586
1.03969
1.21841
1.05375
0.924256
0.444253
1.02384
0.936424
1.12285
1.20272
1.4365
0.602124
1.03177
1.0236
1.37227
1.03664
0.317638
0.807193
0.748841
0.783728
1.01968
1.16791
0.497077
1.06767
0.848751
1.16468
0.512037
0.456077
1.05922
1.34935
1.0307
1.23511
0.748172
0.403214
0.00968556
1.04915
0.999198
0.534256
1.19528
0.858199
0.788431
1.60398
0.610607
0.772475
1.03503
1.05824
0.676045
1.19504
1.05613
0.353585
1.03503
0.478194
0.333202
1.22202
1.04668
0.477445
1.03631
0.950775
0.716757
1.06209
0.684668
0.937439
0.709318
0.746486
1.04214
0.99555
1.07733
0.62735
1.23668
1.29407
1.047
0.956804
0.949901
0.771105
1.23973
1.19397
0.963496
0.380086
0.942132
1.00443
1.04566
0.974765
0.701295
1.11656
0.966616
0.329361
0.328724
1.06426
0.994937
0.951042
0.92593
1.11658
1.01229
0.452427
0.696598
0.475109
1.01419
0.135355
0.674225
1.05072
1.04373
1.21115
0.732364
0.738865
0.948745
0.952513
0.356602
1.0196
1.20785
1.22718
0.113469
0.302262
1.2314
0.717084
1.04877
0.988813
0.711197
0.636717
1.04122
1.08219
1.23706
1.00768
0.629692
0.974464
1.03009
0.557261
0.405349
0.608056
1.09699
1.02206
1.23333
0.399316
1.66984
1.10617
0.409322
0.69418
0.502412
0.515958
0.136895
0.388864
1.0621
0.609676
0.460121
0.381451
1.2037
0.790789
0.385821
0.324271
1.39824
0.940947
1.08439
0.690922
0.575372
1.13194
0.352181
0.976828
1.03192
0.656826
0.892353
0.294586
0.420291
0.980194
1.05419
0.803899
1.0379
1.0655
0.147437
0.935448
0.98717
1.15539
0.645776
0.361063
1.0312
0.796206
0.606118
1.0245
0.351865
1.10473
0.473632
0.59354
1.12443
0.795127
1.0312
1.56262
0.702812
0.403352
1.0328
1.04449
0.908884
0.751589
0.335946
0.97453
0.3238
1.27989
1.62803
1.17919
0.697323
0.745304
0.148181
0.972673
0.319266
0.956073
0.671075
0.521778
0.725678
0.916154
0.313093
0.586144
0.945634
0.447497
0.905268
0.913492
1.04508
0.726872
1.59265
0.676429
0.670122
0.398349
0.883898
1.02233
0.861814
0.393781
0.289257
0.791108
0.347285
0.300189
0.927955
0.516275
0.131605
1.02594
0.804688
1.05952
0.657268
0.236652
0.708209
1.0289
0.930411
1.01401
0.668218
0.540871
0.523232
0.632
0.342853
1.37034
0.614571
0.125324
0.62843
0.704895
0.586979
1.02935
1.0124
0.469223
0.819518
0.132917
0.832823
0.248471
0.999464
0.370665
0.491567
0.847061
0.226219
0.885435
0.433127
0.612887
0.922952
0.143385
1.47062
1.02837
1.0065
0.192317
0.119856
0.722396
0.598124
1.02658
0.108812
0.0770479
0.581058
0.000620994
0.446158
0.460224
0.508249
0.531189
1.03837
1.51102
1.01954
1.41337
0.831423
0.95566
0.129365
0.55599
0.88442
0.377867
0.40394
0.34328
1.16536
0.75885
0.529982
2.83115
0.501183
0.60722
0.474365
0.0283679
1.15677
0.714368
0.578203
0.363339
0.691672
0.221404
0.741861
1.0116
0.478873
0.788793
-0.0619153
0.890242
0.436845
1.27456
0.493696
0.60316
1.05882
0.724276
0.447055
0.627116
0.220024
1.25184
1.05058
0.638905
0.466196
0.817772
0.54667
1.1042
1.19707
1.13436
0.615929
0.038947
0.00574906
1.13429
0.389566
1.02698
1.02458
0.925059
1.11377
1.63587
0.642901
1.2803
0.921545
0.973935
1.25609
0.444068
1.04604
0.101213
0.852392
1.01937
0.200967
1.03376
0.57183
1.04982
0.887166
0.994965
1.00798
0.85962
1.03609
1.01789
0.344221
0.853265
0.382003
1.00352
0.114744
0.347676
1.08561
1.24355
0.00639227
1.01232
0.753362
0.27723
0.969423
0.095412
0.889273
0.513513
1.0054
0.303279
0.304492
0.762322
0.464891
1.23773
0.978946
1.17627
0.314719
0.50209
0.966822
0.0171191
1.03268
1.05416
1.0209
1.65247
0.81831
0.104711
0.991478
0.988135
0.823924
0.401083
0.284921
1.01299
0.352453
0.545242
0.0155762
0.403099
0.968557
1.21589
1.05811
1.17937
0.794881
-0.000222957
0.917732
1.03669
0.122306
0.0963661
0.418039
0.216531
0.446522
1.29865
1.02553
0.200882
0.116924
1.05315
1.29398
1.26411
0.182499
0.9959
0.96545
0.923426
1.01344
0.911911
0.720736
1.21113
0.29536
0.963185
1.25146
1.01765
0.290269
1.03028
0.375872
1.34355
1.03484
0.334165
0.207106
1.27496
0.0320605
0.411431
0.854135
0.19565
1.33243
0.860454
0.803902
1.06842
0.757773
1.04951
1.2716
1.0207
1.08441
0.558726
0.181475
0.667409
0.265631
0.200973
1.08267
1.26766
1.22428
0.526682
1.35607
0.978688
0.111788
0.996609
0.275748
0.969929
1.03267
0.945414
0.813146
0.64724
0.891704
0.524025
0.674495
1.00446
0.724633
0.338611
0.144409
0.224654
0.991931
0.256986
0.987512
1.37426
0.828031
0.187397
0.732272
0.220955
1.18354
0.445693
0.241779
0.252996
0.121616
1.30786
0.43957
1.32302
1.04444
0.338096
1.02457
0.658
1.23429
1.86566
0.623609
0.0163015
0.185308
0.162943
1.23
0.00807885
0.630431
0.928753
1.31373
0.0840072
0.15928
0.0167024
0.128201
0.936235
0.0159771
1.326
0.949527
0.295199
0.129941
0.670723
0.988937
0.00826591
0.206415
1.2474
0.150602
0.982018
1.05624
0.325555
0.00743154
1.02143
0.00828199
1.25104
0.0723603
0.511749
0.106525
0.323779
1.1361
0.0634524
0.660832
0.13846
0.998386
0.767253
0.788909
0.872383
1.22993
0.591228
0.309544
0.843952
0.837896
0.393063
0.424295
0.617651
0.226314
1.26242
0.913131
1.52811
0.0811195
0.824358
0.534115
1.22144
0.24717
0.971538
0.118222
0.647407
0.987887
0.395647
0.907705
1.02297
0.858977
0.250828
1.04478
0.417621
0.626972
0.784305
1.01296
0.68381
0.451571
0.496968
0.731072
0.616943
0.169775
0.60297
1.95405
0.286074
0.72911
0.989218
1.05981
1.0346
1.01509
0.944165
0.680604
1.00518
0.267457
0.290221
1.60235
0.27201
1.26757
0.468853
0.513055
0.591122
1.05683
0.482302
0.844059
0.186064
0.468819
0.319665
0.269887
0.905987
0.3664
0.386932
0.263582
0.50553
0.205865
1.01139
1.30466
0.0900128
0.502899
0.509087
0.154478
0.565662
0.089771
0.566814
0.493715
0.455102
1.03897
0.543281
0.698522
0.0673485
0.778849
0.439379
0.0781454
0.110686
0.0811032
0.542154
0.532374
1.01473
0.980669
1.04378
0.768834
0.808279
1.09346
1.04562
0.233183
0.989351
0.875429
0.558029
0.878004
1.02929
1.50512
0.465471
0.117273
0.665926
0.231756
0.106758
1.09868
0.842753
1.12156
1.0219
1.55875
0.491602
0.0472272
0.357573
0.166944
0.595396
1.24215
1.31948
0.135612
0.398416
0.2307
1.3035
1.05732
0.951512
0.0687335
0.101783
0.825113
0.524507
1.05074
0.91657
0.241059
0.770206
0.992306
0.229411
0.702015
0.347982
1.01809
0.630823
1.23074
0.0963458
0.640767
0.848979
0.11198
0.382805
0.949687
0.101319
0.573066
0.190356
0.900389
1.01703
0.850641
0.9416
0.827829
0.844368
0.845198
0.685567
0.252623
0.359292
0.16439
0.138152
0.211023
0.891577
1.03799
0.491274
1.03828
0.699021
1.03723
0.272537
0.225891
0.620046
1.07367
0.127582
1.03433
0.924192
1.13718
1.0418
0.159388
0.716441
0.407848
1.029
1.19817
0.220948
1.03482
0.968226
0.751235
0.236323
0.0950425
1.08016
0.890146
0.215973
0.805018
0.295154
0.432471
1.19242
0.0745369
0.270553
0.433471
0.211
0.577404
0.257992
0.756862
0.456375
0.887412
0.622412
0.463255
1.01069
1.00931
0.810557
0.0869472
0.153954
1.04903
0.806174
1.01858
0.25584
0.787012
0.156295
0.18002
1.14756
0.777701
0.700994
0.240853
0.941313
0.221502
1.03842
0.205787
1.06059
0.290275
0.0636315
0.262639
0.582786
1.05423
0.914432
1.05214
0.210872
0.333002
1.04983
1.01778
0.824259
0.104821
1.07128
1.02788
1.06937
0.215914
0.115546
0.339181
1.05244
1.04887
0.59018
0.82235
0.305056
1.29756
0.26836
0.23589
0.347794
0.363118
0.131012
0.749535
0.384783
0.720337
1.04577
0.863295
1.01136
0.285353
0.199927
1.11916
1.05582
0.764666
1.17453
0.405774
0.156438
0.141412
1.213
0.372748
0.469489
0.195992
1.04604
0.890214
0.285375
0.500631
0.855515
0.787659
0.553579
1.32165
1.04069
0.775031
1.4826
0.42893
0.6651
0.904394
1.10388
0.190731
0.30993
0.122579
0.806719
1.01586
0.522258
1.02189
0.81174
0.280402
0.0466678
0.83649
1.04276
1.09281
1.06459
1.00768
1.00031
1.11101
0.973653
0.247426
0.498827
1.0812
0.485028
0.550993
0.612136
0.358525
0.512923
0.843807
0.080672
0.271178
1.09337
1.07957
0.607533
0.491425
0.150898
1.34982
0.821584
0.633122
0.978831
0.375085
0.398283
0.353585
0.243877
0.518297
1.00097
1.02807
0.0694308
0.57134
1.01283
1.00474
1.03793
0.478407
0.640013
0.931911
0.200925
0.303489
1.03553
0.133004
1.24004
0.353601
0.751729
0.344536
0.42272
1.05869
0.839851
0.922586
0.657256
0.148943
0.933354
1.0736
0.89306
0.375507
1.13902
1.23498
0.0906053
1.02209
0.300161
0.176148
0.189328
0.50539
0.937641
0.377466
0.446803
0.9259
0.958322
0.881068
1.42849
0.329498
0.261532
1.24674
1.0256
0.760951
0.512812
1.24327
0.348745
0.662198
0.424435
0.396484
0.17505
0.200681
0.231068
0.902658
0.245855
0.770929
1.00756
1.32477
0.643242
0.202861
0.773163
1.12083
1.03612
0.544567
1.03376
1.41873
0.206093
1.50917
0.0885283
0.777616
0.973947
0.484592
1.58498
0.442543
0.0843124
0.671293
0.185365
0.537044
0.427806
0.260698
0.655812
0.419729
0.389737
0.724197
1.3405
1.09749
0.955867
1.00224
0.0681718
0.24608
0.796276
1.04126
0.161187
1.02267
0.23899
1.15568
1.07786
0.996045
0.630615
0.91514
0.582354
0.886056
0.945132
0.882798
1.10124
0.0360329
1.31447
1.13523
0.713733
1.29946
0.89395
0.0751881
0.304748
0.242417
0.352839
0.429148
1.34691
0.57541
1.352
0.762595
1.24048
1.30972
1.21481
0.829122
0.180995
0.487436
0.792168
1.02574
1.02433
0.625979
0.382231
0.996188
0.695975
0.482798
0.573925
0.578657
0.745907
1.0089
0.247683
0.996721
1.10024
0.226878
0.470426
0.939236
1.04275
0.54328
0.495253
0.314701
0.479668
1.19269
0.934335
1.02502
0.628156
1.19818
1.00481
0.333664
0.2658
1.11081
0.525798
1.18307
0.973006
0.884121
0.518704
0.68946
1.00311
0.504517
0.509009
1.05246
1.04686
1.24386
1.04453
0.968113
0.58348
0.187113
0.790501
0.275313
1.04866
1.04878
0.514443
0.814317
0.725568
1.04259
0.537551
0.474721
0.37276
1.00725
0.230992
0.5058
1.18178
1.26103
1.03319
1.04214
1.05877
1.10325
0.619524
0.989177
0.313408
0.0437651
0.56335
0.0361346
0.567744
0.459459
0.83347
1.06003
0.862792
0.996068
1.07477
1.04268
0.775176
1.0456
0.483629
0.847661
0.914185
0.488853
1.13485
0.792518
0.892113
0.946571
0.765936
0.818184
0.769085
1.07578
0.603704
0.931948
0.922084
1.54348
0.97084
1.14022
1.11865
1.0135
0.707698
0.478716
0.672308
0.43808
0.661601
0.966746
0.281022
0.599883
1.34612
0.70491
1.00634
0.886355
0.564125
0.821542
0.210975
0.164979
1.07115
0.261086
0.725339
1.13967
0.86402
0.579959
0.975724
0.805948
0.738394
1.03331
0.625101
0.77424
1.03019
0.660854
0.840956
0.673133
0.901719
0.608932
1.07507
0.673542
0.812709
1.03737
0.943183
0.632355
1.03573
0.903944
0.89801
0.559626
0.812491
1.05113
0.557654
0.807679
1.04197
0.91594
0.610761
1.31144
0.989574
0.168715
0.831298
1.03111
0.584255
1.2817
0.836333
0.600478
1.06326
0.640414
0.880713
1.18795
0.659324
0.605947
0.427858
0.460575
0.76217
0.89984
0.654909
0.953755
1.16673
0.986061
1.05396
0.597374
0.727268
0.724627
1.05951
0.447154
1.01581
0.521874
0.905725
0.644028
0.766412
1.10374
1.20142
1.05402
0.257864
1.28435
0.775337
0.863402
1.03059
1.05467
0.915912
0.189115
0.772687
0.831257
0.717744
0.782192
0.6566
1.14244
1.02476
0.873833
0.78936
1.07247
0.942438
0.929699
0.647948
0.711361
0.71477
1.19626
0.65374
1.02509
0.58777
0.808073
0.876918
1.05221
0.886475
1.04631
0.266797
0.286058
0.954614
0.896915
0.794229
1.03158
1.16375
1.02386
0.451593
1.01812
0.635764
1.01061
0.961085
0.993479
0.992223
0.99729
1.02386
1.08495
1.10879
1.13203
1.15476
1.17797
1.24379
1.26497
1.28438
1.31801
0.82108
0.863064
1.14357
1.00332
0.646048
1.04993
1.0054
0.709275
0.756322
0.0353005
0.915173
0.937687
0.251215
0.707037
0.814198
1.01956
0.993753
0.99633
1.03368
0.542776
0.648982
0.195432
1.04901
0.874327
1.00231
0.986997
0.681972
0.652026
0.76555
0.177853
1.05167
0.530218
0.489597
0.965906
0.840625
0.760535
0.47535
1.0365
0.885636
1.13766
1.00215
0.976705
1.22281
0.926433
0.789552
0.951492
0.758922
0.862011
0.934913
1.48017
0.802382
0.415208
0.820337
0.884457
0.0396564
1.11618
0.835425
1.43721
1.05935
1.0472
0.965884
1.11026
0.890323
0.225068
0.0719954
0.780458
1.04706
0.400978
1.40023
0.729593
0.819126
0.689027
0.474297
0.902774
1.20033
1.06692
1.18576
0.528593
0.897712
0.0239212
0.985708
0.914941
0.930883
1.06186
0.798058
0.835041
0.756487
0.908333
0.066367
0.926257
0.758415
0.503519
0.472424
1.06838
0.704523
1.21827
0.866841
0.807794
1.05337
1.13126
1.05332
0.937289
1.10746
0.891006
1.25911
1.08792
0.755574
1.02142
0.78662
0.206947
0.4947
0.310048
0.845454
0.794766
0.465272
0.94772
0.949669
0.735432
0.579872
0.743887
1.01416
1.22231
1.00561
1.02843
0.817434
1.15317
0.649434
1.14796
0.883547
0.771984
1.02017
1.04331
1.16827
0.2207
0.981449
0.573391
0.732752
0.623776
0.817038
1.18484
0.751979
1.33552
0.940598
1.10393
0.913057
0.754229
0.876377
1.10583
1.02546
1.32052
1.08529
0.967912
1.24977
1.01577
0.802739
1.0398
0.834038
0.987984
1.2313
0.753431
1.33991
0.830944
1.13366
0.370506
1.14974
1.21656
1.02877
0.93488
0.440984
0.0371108
0.793506
0.833023
1.00256
0.99616
0.809137
1.00061
1.23828
1.10081
1.05336
0.957673
0.722213
0.767689
1.29022
0.787883
1.24252
1.04325
0.786421
0.547219
0.686359
0.976123
0.596871
0.791035
1.03962
0.515556
0.831727
1.04334
1.01782
1.28538
-0.0077957
0.967143
0.640096
0.9648
0.462964
1.04037
1.18731
1.03582
0.984327
0.858346
0.906822
0.776715
0.815657
1.11607
1.00779
0.0818583
0.924786
0.901414
0.506751
0.87208
0.930532
0.882552
0.99287
0.181365
1.2245
1.00941
0.858246
0.491864
0.870442
0.477431
1.07605
0.536042
0.963532
0.677793
0.999361
0.809762
0.829582
0.946431
0.442437
0.881448
0.828436
1.24534
0.643343
0.86006
0.838357
0.825479
1.18588
0.912351
1.06133
0.965661
0.675308
1.17983
1.05374
0.663717
0.292741
1.07004
1.02251
0.82708
0.986386
0.976344
0.61188
1.10509
0.983879
0.911565
0.876775
1.35237
0.97397
1.07213
1.00324
0.454199
0.115656
0.910746
0.915065
1.22801
0.885549
1.02375
0.44277
1.52799
1.4843
0.631156
1.28558
1.55385
0.993729
0.0866953
1.20558
1.21409
0.749973
0.965477
0.693402
0.12248
1.21067
1.11841
0.124751
1.03869
0.670654
1.03598
1.14285
1.00079
1.03296
0.982876
0.728876
0.651203
0.863942
1.13613
1.01955
1.26335
0.85875
1.09854
0.926253
0.383957
0.924735
0.76551
1.20393
0.89813
1.21076
0.739416
1.04999
0.998824
1.20727
0.910563
0.814022
1.00747
0.470859
0.925024
1.17263
0.922045
1.2299
0.933141
0.939653
1.05066
1.11034
1.08167
0.942602
0.569796
0.99756
0.600912
0.891062
0.811919
1.02085
0.943758
1.03709
0.727644
1.08726
1.01361
0.991434
1.11843
1.17185
0.744408
0.0581838
0.838504
1.27777
0.245231
0.804931
0.884779
0.448716
0.98178
0.937532
0.749254
0.600208
0.580048
0.466094
0.995098
0.950201
0.994137
1.01715
0.747114
1.37044
1.05977
0.999987
1.00208
0.669224
0.456216
0.94101
0.587583
0.859203
1.38477
1.21012
1.19448
0.770635
0.895868
0.657483
1.06941
1.1798
1.16695
1.22074
1.23275
0.953842
0.568048
0.673164
1.06265
0.961963
1.24278
0.155369
0.849377
-0.162348
0.985771
1.02664
0.606744
0.988755
1.00206
1.03504
1.2288
1.20713
1.11238
1.21121
1.13489
1.13404
0.170712
0.98311
0.992824
1.00975
0.972767
1.00448
1.12463
1.02053
0.6067
1.03199
1.16999
1.2016
1.06167
1.17072
0.95732
0.963485
1.06189
0.804376
1.49434
0.299128
1.05038
1.09158
0.91854
0.806261
1.02077
1.51519
0.972565
1.09045
0.815903
1.07509
0.451921
1.30205
1.02162
0.9811
1.05458
1.03568
1.08582
1.43774
1.36695
0.779739
0.484753
0.756664
0.460982
1.00278
0.758323
1.08507
0.17537
0.683843
1.14918
1.42255
0.982897
0.0162151
1.55083
1.05481
1.05337
0.727211
1.19003
1.04938
1.10719
1.21816
0.0744399
1.19559
0.990714
0.378027
1.08209
1.07039
1.08955
1.45347
1.44995
0.841579
1.0568
0.585912
0.992765
0.997728
0.279469
1.21464
1.05124
1.00108
1.05461
0.844235
0.149014
0.824501
0.971159
1.34764
1.00452
0.690408
0.31926
0.778759
0.245245
0.986456
1.011
0.85148
1.01317
1.02436
1.01692
0.0611955
1.02672
0.777469
1.05223
1.0844
0.281136
0.00661091
1.46747
1.39888
1.54387
1.31912
1.03931
0.743722
1.03994
1.02604
0.4377
1.38679
1.09912
0.528633
1.16974
1.15452
1.1245
1.02907
1.03629
1.3007
1.02079
1.08708
0.805724
1.00284
1.00244
1.10051
1.11973
1.14408
1.16606
1.25166
1.27478
1.14644
1.02867
1.60879
0.826843
1.11969
1.02608
0.785483
1.15473
1.07648
0.871407
1.05501
1.00482
1.02585
0.334572
1.02079
1.42511
1.10567
1.40295
1.35512
1.53643
1.08868
1.01619
1.44899
1.03727
1.23367
0.518141
0.750129
0.58022
1.03275
1.15225
1.06643
1.03915
1.08024
1.03168
1.12656
1.00051
1.15588
1.03176
0.595024
0.953285
1.00489
0.830639
1.0571
0.952264
1.69114
0.0774776
1.07601
0.816289
0.896056
0.792522
1.12674
0.720445
1.04472
0.235917
0.81484
1.15013
1.00764
0.942317
0.934387
0.17236
1.12514
1.18897
1.019
1.00653
1.1267
0.821153
0.697757
1.22845
0.12904
1.08351
0.985677
1.04946
0.0569661
0.582571
0.1563
1.03743
1.23065
0.0929272
0.84401
0.295641
1.08169
0.974653
0.360266
1.00028
1.04694
1.47868
0.276487
1.1064
0.618249
0.536897
0.534064
1.21044
1.06576
1.03187
1.04111
1.31605
0.990795
1.20023
0.0391545
1.35284
1.13802
0.0807916
1.04877
1.13206
0.443554
0.262619
1.00159
1.0066
1.51011
0.298899
1.00898
1.00678
0.150278
1.04666
0.667947
0.978163
1.27677
0.99055
0.975307
0.847347
0.81991
1.35288
1.41247
0.661643
1.05574
1.00158
1.32572
1.0653
0.438759
1.12019
1.04975
1.05089
0.585423
1.0026
1.15132
1.02891
1.07611
1.03008
1.05217
1.02443
1.04297
0.144874
0.984055
1.52647
0.6111
0.884806
0.806568
1.72607
1.16442
0.0071229
0.0160351
1.24328
1.2421
0.912745
1.04155
1.03429
0.209295
0.947285
0.95634
1.21398
0.738053
1.29132
0.958368
1.07413
1.44091
0.40361
0.966605
1.01124
1.02814
0.950667
0.858283
1.39646
1.07529
1.13973
1.02392
1.04822
0.314982
1.25975
0.720263
0.433261
1.02761
1.13926
0.649191
0.953508
1.04562
1.18946
0.768988
1.00943
0.703053
0.962125
0.448112
1.06085
0.726736
1.1343
1.00357
1.25106
0.864329
0.211896
0.576085
1.52403
0.185936
1.02967
1.02604
1.3856
1.09543
0.616014
0.920367
1.01299
1.04128
1.10168
1.02948
1.18004
0.896819
1.15658
0.994283
0.931636
1.39858
0.761383
0.952418
1.24627
1.19998
1.58172
1.03081
0.98697
0.559951
1.03747
1.05079
1.1692
0.890384
0.986004
0.539031
0.985673
0.733328
1.09742
0.988823
1.06877
0.654556
0.994449
0.52646
1.14902
1.01261
0.553279
0.217025
1.10043
1.5143
1.11149
0.97101
0.896782
0.800353
1.4126
1.00401
0.0749236
1.06477
1.0748
0.0439407
0.872271
0.997908
0.865747
0.768674
1.18308
1.37562
1.34056
1.01555
0.737201
1.02324
0.41944
1.2668
1.50271
0.283486
0.862724
1.11191
1.51013
0.118013
1.38306
1.513
1.02782
0.711494
0.88896
1.39659
0.83145
1.04905
1.6236
0.793277
1.40362
0.963238
0.942567
1.49545
1.21158
1.40615
1.36835
0.701494
0.0531435
1.2675
1.10701
0.860522
1.12089
1.09483
1.05656
0.962123
1.39282
0.784747
0.828347
1.05276
1.07312
0.956425
1.04703
1.05662
1.35635
1.07107
0.955407
1.48699
0.685177
0.197458
1.07591
1.02199
1.08674
0.377245
0.841925
0.108926
1.0637
1.01081
0.155027
0.624009
0.691772
0.391234
1.12295
0.880073
0.804363
0.93592
1.04145
0.86153
0.742054
1.35593
0.979577
0.980413
0.602781
0.890795