/*--------------------------------*- C++ -*----------------------------------*\
  =========                 |
  \\      /  F ield         | OpenFOAM: The Open Source CFD Toolbox
   \\    /   O peration     | Website:  https://openfoam.org
    \\  /    A nd           | Version:  7
     \\/     M anipulation  |
\*---------------------------------------------------------------------------*/
FoamFile
{
    version     2.0;
    format      ascii;
    class       volVectorField;
    location    "3";
    object      U;
}
// * * * * * * * * * * * * * * * * * * * * * * * * * * * * * * * * * * * * * //

dimensions      [0 1 -1 0 0 0 0];

internalField   nonuniform List<vector> 
7639
(
(1.0871 0.103586 2.53232e-20)
(1.02404 -0.029191 7.29999e-21)
(0.99913 0.0856385 -5.02954e-20)
(1.03195 0.0473032 7.01501e-20)
(0.999517 -0.000490327 -1.36044e-22)
(0.999981 -6.97919e-06 -1.54246e-23)
(0.992512 0.0708067 -9.78094e-20)
(0.997407 -0.000948667 -2.9545e-23)
(0.99993 -9.80066e-05 -2.53471e-23)
(1.01563 -0.00180429 -3.32111e-21)
(0.999983 -7.80298e-06 1.69991e-23)
(1.00117 -0.000753641 -5.46046e-22)
(0.995979 -0.00132697 1.40343e-21)
(1.00932 -0.00129876 -2.14772e-20)
(1.01474 -0.000282101 1.40431e-20)
(0.995126 -0.00724178 -2.71193e-21)
(1.09108 0.111644 -5.31282e-20)
(0.994669 -0.00164122 -4.92147e-22)
(1.00113 -0.00471906 -1.94951e-22)
(0.984523 -0.0420901 -2.10947e-21)
(1.01964 -0.00352609 -7.38472e-21)
(1.00075 -0.000319756 1.02362e-21)
(1.00979 -0.00244171 1.87002e-21)
(1.00886 0.0200595 -3.61494e-20)
(0.992953 -0.00200246 -2.25241e-21)
(1.08134 0.103187 -2.51759e-20)
(0.999507 -0.000464617 -9.79652e-23)
(1.01424 -0.000575981 8.48951e-21)
(1.00456 0.0103882 -4.67246e-21)
(1.00143 -0.00530978 1.58805e-22)
(0.993677 -0.00765901 -5.06216e-21)
(0.901856 0.028454 1.41642e-20)
(1.0086 -0.00267721 1.15586e-20)
(0.999757 -0.000207663 1.71545e-22)
(0.999947 -4.40427e-07 3.36017e-25)
(1.01343 2.77427e-05 4.90053e-21)
(1.00222 -0.0057117 1.87224e-22)
(0.994859 0.0663357 -1.56259e-20)
(0.998491 -0.00415964 2.27118e-21)
(0.999826 -2.53232e-05 1.63267e-22)
(0.998391 -0.00419361 -2.64478e-22)
(0.995424 -0.00646676 -1.03128e-21)
(0.99332 -0.0493728 8.65035e-21)
(1.0662 -0.0637414 3.33601e-23)
(0.999896 -2.06688e-06 5.3028e-23)
(0.999961 -1.14649e-05 -1.51776e-23)
(1.00063 -0.000292765 -6.25771e-22)
(0.997794 -0.00336325 -1.33955e-21)
(0.999968 -1.61004e-05 -1.23277e-23)
(0.985986 -0.0428894 3.03934e-21)
(1.00168 -0.000663292 5.92933e-22)
(1.01404 0.000314489 -8.81229e-21)
(0.990923 -0.00234529 -7.57099e-21)
(1.00453 -0.0170758 4.05715e-22)
(1.01236 -0.00167553 -2.92318e-21)
(0.99767 -0.00135128 -2.58172e-22)
(1.00062 -0.00487898 4.16482e-22)
(0.997481 -0.00077742 1.92078e-21)
(0.988667 -0.00885252 -8.96426e-21)
(0.999765 -0.000186311 -2.20227e-22)
(1.00002 -1.23514e-05 -2.25212e-23)
(1.00223 -0.000511003 6.64701e-22)
(1.01025 -0.000950938 -5.03735e-21)
(1.00125 -0.000683106 5.52585e-22)
(0.999538 -0.00011939 3.14353e-22)
(0.993672 -0.0080944 9.14477e-22)
(0.999954 -0.000102139 1.96014e-23)
(1.00001 -1.09131e-06 1.50843e-24)
(1.13155 0.00156049 1.14426e-20)
(0.997754 -0.00337095 -3.88372e-22)
(0.999965 -1.05427e-05 1.34858e-23)
(0.98345 -0.0255188 -1.58315e-20)
(0.993177 -0.00217333 1.09495e-21)
(0.987655 -0.00252991 1.49501e-21)
(0.994818 -0.00178883 1.54089e-21)
(0.9829 -0.0122267 -1.96808e-21)
(1.00251 0.08714 8.07549e-20)
(1.01817 -0.00337246 9.38776e-21)
(1.05204 -0.0141504 -1.81256e-20)
(0.977487 -0.0201415 -2.04716e-20)
(0.996128 -0.00143394 -2.15512e-21)
(0.99967 0.0376849 9.6565e-20)
(1.023 0.00117949 2.19243e-20)
(0.987131 -0.00472955 6.8542e-21)
(0.999311 -0.00130564 -2.2056e-22)
(0.998829 -0.000157652 2.28388e-22)
(0.997248 -0.00124354 2.65255e-21)
(0.991209 -0.00261052 4.87049e-21)
(0.999653 -0.000616257 1.47098e-22)
(0.997783 -0.000375557 8.19536e-22)
(1.00469 0.0118974 3.4466e-20)
(1.08599 -0.0740221 -1.28744e-22)
(0.999938 -2.84153e-05 -3.21638e-23)
(1.00089 -0.00406411 1.6537e-22)
(0.99822 -0.000530562 7.44426e-22)
(0.987206 -0.00163709 -1.19213e-20)
(0.984629 -0.0253925 1.0193e-21)
(1.00514 -0.0164033 9.81123e-23)
(0.999351 -0.00129151 7.345e-23)
(0.999463 -7.55666e-05 1.05064e-22)
(0.976621 -0.00717607 5.18445e-21)
(1.05485 -0.0107117 1.47608e-20)
(0.998353 -0.000627619 -1.85639e-21)
(0.999985 -1.88552e-07 -1.29425e-24)
(1.09494 -0.07136 -4.24329e-22)
(1.02258 0.0169606 -3.28606e-20)
(0.945821 0.0216554 1.63879e-20)
(0.997481 -0.0012811 -1.06834e-21)
(0.999995 -6.03808e-07 3.30847e-25)
(1.01315 -0.00795733 -4.04589e-21)
(1.03666 0.0443328 -8.14788e-20)
(1.00461 -0.0415617 -9.29424e-21)
(0.999995 -1.16796e-06 -4.86381e-25)
(1.01472 -0.00800395 -8.7966e-22)
(1.01923 0.0170345 3.45476e-20)
(1.00019 -0.000283845 -4.91498e-23)
(1.01836 -0.0561147 -2.38359e-22)
(1.02112 0.00856242 -7.95968e-21)
(0.989564 -0.0210468 6.80639e-21)
(0.987379 -0.00307924 -1.55285e-21)
(0.975307 -0.00470853 -1.25302e-20)
(1.00102 0.0330682 -6.2798e-20)
(0.995626 -0.0493727 -1.1885e-20)
(1.00447 -0.00412087 3.51265e-22)
(0.976083 -0.00540651 4.93639e-21)
(0.999526 -0.000683428 3.28139e-22)
(0.99359 -0.00571946 1.65235e-21)
(1.00149 -0.00475286 -2.875e-22)
(0.999504 -0.000109365 -7.00697e-22)
(0.993053 -0.00687902 8.31432e-23)
(1.08748 -0.101157 -1.0513e-21)
(1.04716 -0.0136808 3.08302e-21)
(0.999703 -0.000260164 1.86039e-23)
(0.999607 -0.000633869 -2.85664e-22)
(0.98658 -0.00432807 2.03353e-21)
(1.03375 0.034681 3.00478e-20)
(0.993362 0.0266827 1.10366e-19)
(0.999987 -2.58456e-06 -1.52546e-24)
(1.00435 -0.00152158 2.79034e-22)
(0.967295 -0.00521511 -1.56773e-20)
(0.988265 -0.00173811 -6.12352e-21)
(0.990365 -0.0291924 -9.69678e-21)
(0.983026 -0.0131807 2.66508e-21)
(0.988214 -0.00229876 -1.34252e-22)
(0.942417 0.0177232 6.30853e-20)
(1.00298 -0.0244924 -3.19939e-22)
(1.00933 0.0110735 -1.75793e-20)
(0.989524 -0.0109882 -4.5799e-21)
(0.982957 -0.00262642 1.68929e-21)
(1.00017 0.0348317 -3.12651e-20)
(1.01419 0.00196556 1.23631e-20)
(1.07931 -0.0671777 1.43717e-21)
(0.999163 -0.00101532 -7.64332e-22)
(1.13135 -0.00948921 1.69646e-21)
(1.02277 0.000613323 -2.27654e-20)
(1.0081 0.0691522 -7.97329e-20)
(0.980135 -0.0140222 8.17131e-21)
(0.995997 -0.000880498 4.73802e-22)
(0.955482 0.0539794 1.43863e-19)
(0.999969 -1.19275e-05 -1.15974e-23)
(1.00055 -0.00412465 -1.20648e-22)
(1.00994 0.0228505 2.59498e-20)
(0.999989 -9.69192e-06 7.53129e-24)
(0.999081 -0.00268318 -1.05341e-21)
(0.998054 -0.000532533 -3.56145e-22)
(1.00422 0.0261107 -8.48176e-21)
(1.00284 0.0282532 3.13351e-20)
(0.947511 0.0619307 4.78773e-20)
(0.999127 -0.00264282 -6.67889e-22)
(0.998397 -0.000167792 -3.97795e-22)
(1.00001 -1.04755e-06 -1.41956e-24)
(0.97397 -0.0030542 -2.16086e-20)
(1.00017 -0.000254739 6.75506e-23)
(1.02697 -0.0276408 -8.54065e-21)
(1.0045 -0.00174425 1.86747e-21)
(0.983234 -0.00308098 3.50482e-21)
(1.09646 -0.0604326 1.5507e-21)
(1.09433 0.0293037 9.08833e-22)
(0.999933 -2.92705e-05 1.76127e-23)
(0.999722 -0.000336094 -1.94323e-22)
(1.03176 0.0491456 -1.23982e-20)
(0.99997 -1.09918e-05 -5.62586e-24)
(0.999944 -5.01309e-06 8.40124e-24)
(0.993131 0.0743846 -8.11495e-20)
(1.0228 -0.0313202 2.38274e-21)
(1.00095 -0.0334116 -5.47702e-21)
(0.990635 -0.0206547 -9.65786e-21)
(0.988484 -0.00346363 4.46795e-21)
(1.00143 -0.0251113 5.47885e-22)
(0.968012 -0.00436269 8.21634e-21)
(0.999991 -9.38726e-06 -2.68954e-24)
(0.985055 -0.0239442 -3.77942e-21)
(1.10239 0.0357103 -2.38524e-20)
(0.99832 -0.000745715 2.66685e-22)
(1.00004 -1.85621e-06 -1.71241e-23)
(1.07113 0.0451881 2.53117e-21)
(0.999384 -0.000189549 7.4151e-22)
(0.993394 -0.00695315 2.64028e-21)
(1.00081 -0.0236691 1.83614e-21)
(1.00001 -7.33702e-07 -6.15925e-25)
(1.00038 -0.0010803 -2.72983e-22)
(1.03043 0.035547 3.71719e-20)
(1.08905 0.0461035 -3.14878e-20)
(1.0024 0.0596516 -1.07001e-20)
(1.0188 -0.0532857 3.13529e-21)
(1.00619 -0.0405314 2.17601e-21)
(1.02709 -0.0811899 -1.12751e-21)
(1.01352 -0.00324925 2.51903e-20)
(1.02601 0.0370034 -1.20026e-20)
(0.999891 -9.05948e-06 -6.2176e-23)
(1.00002 -9.54405e-06 5.95014e-24)
(0.960381 0.00859201 -6.29187e-20)
(0.99616 -0.00643232 -9.67107e-22)
(0.999699 -0.000239842 -1.85206e-22)
(0.98612 -0.0236795 7.8511e-21)
(0.993236 -0.00600235 -1.91688e-21)
(1.01668 0.0607026 -8.96791e-20)
(1.01175 0.059353 -1.88888e-20)
(0.988604 -0.0297829 2.66982e-21)
(0.918776 0.0412569 -5.3785e-20)
(0.999434 -0.000229942 -5.44382e-22)
(0.994734 -0.00127174 1.74853e-21)
(0.975821 -0.00650845 6.83619e-21)
(1.02046 -0.000155522 -5.26632e-21)
(0.990627 -0.0592681 -1.13754e-21)
(1.11351 0.0931812 -5.28095e-20)
(0.955652 0.0473906 -1.23092e-19)
(1.00003 -5.59838e-05 1.90817e-23)
(1.00454 -0.00421052 9.19356e-22)
(1.01958 0.0112011 4.30192e-20)
(0.997999 -0.00298908 -1.73121e-21)
(1.02241 0.00896883 -5.44628e-21)
(0.999722 -0.000651107 -4.70778e-23)
(0.930022 0.0693532 9.64886e-20)
(1.00784 0.0624634 1.74119e-20)
(0.997289 -0.0010245 1.68594e-21)
(1.00203 -0.00435427 -4.09664e-23)
(0.999834 -4.93067e-05 -3.04081e-22)
(1.13714 0.0407503 1.19763e-20)
(0.999951 -1.11702e-05 2.48075e-23)
(0.99699 -0.00558178 7.73441e-22)
(0.97083 -0.0124874 9.23697e-21)
(0.999963 -1.26369e-05 -5.60222e-24)
(0.999402 -0.00148307 -1.89797e-22)
(0.999786 -0.000653125 8.59498e-23)
(1.05309 0.0201475 3.16292e-20)
(0.99999 -1.22054e-05 9.03225e-24)
(0.997694 -0.000300412 8.86252e-25)
(0.978448 -0.0200643 2.37446e-20)
(0.902229 0.020836 -3.11561e-20)
(1.04588 -0.0159036 -4.18136e-21)
(0.938316 0.0461808 7.32145e-20)
(0.999979 -6.9242e-06 -1.41067e-23)
(1.00001 -0.0238614 -1.25444e-22)
(0.999906 -0.000157744 -6.9311e-23)
(1.00334 0.0721091 -7.98784e-20)
(1.00179 -0.000316311 -8.56695e-22)
(0.991302 0.024601 3.62416e-20)
(1.00156 -0.005681 -7.84104e-22)
(1.00031 -0.00102037 2.91568e-22)
(1.01302 -0.021593 -2.13762e-21)
(1.01353 -0.00192439 -2.33297e-20)
(1.00028 -0.000173192 1.40174e-22)
(0.999886 -3.04458e-05 1.61861e-24)
(1.00024 -0.000236063 3.16672e-22)
(0.997899 -0.00317625 -1.52845e-21)
(1.00285 -0.0362492 5.9712e-21)
(0.999979 -7.93612e-06 9.54546e-24)
(0.980921 -0.013588 5.70264e-21)
(0.998128 -0.000642856 -6.68065e-23)
(0.999926 -3.19138e-05 3.40866e-23)
(0.999704 -0.000295707 6.02266e-23)
(0.987022 0.0423302 8.75539e-20)
(0.995936 -0.000444612 6.84753e-22)
(0.999631 -8.88957e-05 -6.29129e-23)
(0.922085 0.00983692 1.18959e-19)
(0.999356 -0.00147499 -4.2815e-22)
(1.06426 0.0716613 -2.94607e-20)
(0.999896 -0.000154529 1.2514e-22)
(1.00371 -0.0133121 3.55501e-22)
(1.00001 3.64955e-08 -5.20192e-25)
(0.98977 -0.0173143 -3.94619e-21)
(1.02017 0.000609738 8.12937e-21)
(1.10382 -0.0589392 -5.29155e-21)
(0.988659 -0.00944615 7.57258e-21)
(0.999804 -0.000350723 2.25268e-22)
(0.985296 -0.0362699 4.96966e-21)
(0.991644 -0.000179749 3.18136e-21)
(0.999903 -1.81871e-05 3.23315e-24)
(1.00021 -0.000199221 -2.80356e-22)
(0.998889 -0.00181482 5.80144e-22)
(0.995992 -0.000718349 -2.05048e-21)
(1.00176 -0.000450669 -1.01601e-21)
(0.999366 -0.00109267 2.739e-22)
(0.987796 -0.00440417 1.07642e-21)
(1.00537 -0.0348125 -4.43427e-21)
(0.987928 -0.00367071 4.78852e-21)
(1.06719 -0.0582589 9.58325e-23)
(0.984122 -0.00396742 -6.12903e-21)
(1.02058 0.0843141 9.09586e-21)
(1.01665 0.0878203 -6.7068e-20)
(0.999268 -0.000415285 -4.72149e-22)
(1.11283 -0.0760233 1.31683e-21)
(0.999991 -2.06416e-06 -8.90993e-25)
(0.998829 -0.00215765 -6.97733e-22)
(0.987052 -0.00110767 1.22625e-20)
(1.00659 0.016421 2.15924e-20)
(1.02729 0.00268072 -2.13066e-20)
(1.00005 -2.24785e-05 3.86616e-23)
(0.998819 -0.00217153 -4.60198e-23)
(0.984694 -0.00441223 4.61868e-21)
(1.041 0.021146 -1.26277e-20)
(0.999508 -0.00066132 2.45221e-22)
(1.00177 -0.000543669 5.70247e-22)
(1.00065 -0.0005026 -5.07478e-23)
(1.08672 -0.0210775 1.63534e-20)
(1.08273 -0.103029 -6.20396e-21)
(1.0417 0.104283 4.38613e-20)
(0.999206 -7.69308e-05 -4.64395e-22)
(1.02949 -0.0328476 -6.429e-21)
(0.999942 -3.78963e-05 -2.79074e-23)
(1.00257 -0.00397787 -2.00609e-21)
(0.999972 -6.6228e-06 -4.00283e-24)
(0.991896 -0.0106424 1.27698e-21)
(0.999828 -4.01019e-05 -5.83275e-23)
(1.0057 -0.0124384 4.70208e-22)
(1.12154 -0.0933817 1.50551e-21)
(0.985943 -0.0132873 8.97433e-21)
(1.00404 -0.0128126 -2.57488e-22)
(1.00443 -0.00353901 -1.21404e-21)
(0.99963 -0.000103297 2.81457e-22)
(1.01439 -0.0121625 2.86924e-21)
(0.997377 -0.0099231 1.15872e-21)
(1.0524 -0.00460364 -8.57278e-21)
(1.04799 0.0206391 1.43224e-20)
(1.03737 -0.101507 6.55339e-24)
(1.06184 -0.0647078 -1.6011e-21)
(0.991443 -0.000421042 -3.40767e-21)
(1.00265 -0.00200258 1.83399e-21)
(0.971813 -0.0119042 -3.58361e-21)
(0.941838 0.0614644 -1.48385e-19)
(1.05218 -0.0588653 -6.42195e-22)
(1.01454 -0.00764233 -1.10198e-20)
(0.924302 0.0443232 -7.34139e-20)
(0.999203 -3.15748e-05 2.28908e-22)
(0.999103 -0.000528371 -1.45895e-22)
(1.07354 -0.0687289 -1.36667e-21)
(0.999426 -0.00108669 -1.49078e-22)
(1.00342 -0.0231905 3.8956e-22)
(1.00319 -0.00120587 6.31498e-22)
(0.998486 -0.000291683 -3.53151e-22)
(0.998852 -0.000268718 -5.65098e-22)
(1.02209 0.0155503 2.5146e-20)
(0.999964 -8.44072e-05 -1.92915e-24)
(1.00025 -0.000127322 -1.24704e-22)
(1.00004 -1.06309e-05 2.91876e-23)
(0.998239 -0.000486515 1.9202e-21)
(0.996409 -0.00465794 2.13759e-21)
(0.999992 -3.54017e-06 6.9485e-25)
(0.999451 -0.000140835 5.96173e-23)
(0.989129 -0.00842536 2.67498e-21)
(0.961444 0.0117813 3.92474e-20)
(1.0051 -0.0135307 -2.44554e-22)
(0.996196 -0.00569555 3.42258e-21)
(0.970294 0.0478666 1.70479e-20)
(1.00118 0.0320129 5.61383e-20)
(1.0419 -0.0111066 -7.1176e-21)
(1.11299 -0.0678831 -1.12923e-21)
(0.973516 -0.00226395 1.17952e-20)
(1.00272 -0.00216948 -9.09315e-22)
(1.00734 0.0294796 -3.10102e-21)
(0.994194 -0.00132326 -4.17207e-21)
(1.04292 0.0749353 1.30924e-21)
(1.00095 -0.0270976 5.39724e-23)
(1.00083 -0.0588026 -3.87508e-21)
(1.08304 0.0453939 1.94074e-20)
(1.04645 0.0805643 -3.82234e-20)
(0.981861 -0.0118488 1.2841e-20)
(1.02988 0.00177086 -1.38577e-20)
(1.12207 0.0970004 4.94963e-20)
(1.05833 0.0741804 5.54633e-20)
(1.0134 -0.00234686 7.95714e-21)
(0.998455 -0.000812799 4.20131e-22)
(0.997807 -0.00121027 3.67136e-22)
(0.999953 -9.25246e-06 -1.33125e-23)
(1.00753 -0.0164631 5.62744e-22)
(0.99414 -0.00110593 9.86449e-22)
(1.00052 -0.00140808 -2.39245e-22)
(0.999945 -1.30761e-05 -2.47532e-23)
(0.999117 -0.000410454 1.83604e-22)
(0.984473 -0.0354805 -8.1418e-21)
(1.08305 -0.00354411 7.72911e-21)
(0.991076 -0.00307036 -5.47934e-21)
(0.999363 -0.00705401 1.22581e-21)
(0.998082 -0.000333252 -1.02033e-21)
(1.0284 -0.0320362 1.28153e-22)
(0.996238 -0.000859311 -3.31647e-21)
(1.00113 -0.00392788 7.75502e-22)
(1.13682 0.0825368 8.13404e-21)
(0.998999 -0.00020263 -1.32423e-21)
(0.999989 -2.32679e-05 -6.17156e-24)
(0.99997 -0.000101544 -3.38997e-24)
(1.00002 -5.91247e-05 2.48269e-23)
(0.988971 -0.00392937 2.5061e-21)
(1.0209 0.0124131 -2.98515e-20)
(0.99791 -0.000251665 3.92273e-23)
(1.01235 -0.0063133 7.12115e-21)
(0.991897 -0.0628804 7.67719e-21)
(0.997064 0.060559 -1.63396e-21)
(1.00211 -0.00440171 6.66986e-22)
(1.00387 -0.00235653 -3.03596e-22)
(0.997409 -0.0014088 -1.34007e-21)
(0.994794 0.0423232 -8.57757e-20)
(0.999459 -1.44712e-05 1.90764e-22)
(1.04646 0.108308 -2.23334e-20)
(1.0084 0.0113645 -3.38923e-20)
(0.999942 -1.58141e-05 2.89861e-23)
(1.00022 -0.0274276 -3.42607e-21)
(0.998342 -0.000509951 -9.4381e-22)
(0.991691 -0.0296457 1.18748e-20)
(1.00027 -5.78566e-05 1.25158e-22)
(1.0389 -0.00762102 9.98131e-21)
(1.0035 -0.00908018 -2.80508e-23)
(1.0034 -0.0020181 1.57717e-22)
(0.999548 -7.93665e-05 -3.77228e-22)
(1.06007 0.0162735 1.54168e-20)
(1.03667 0.0213107 4.95782e-21)
(0.99882 -0.0346506 5.52792e-21)
(0.989384 -0.00992434 -5.15397e-22)
(0.998837 -0.00194873 -5.00453e-22)
(0.997524 -0.020996 -6.30454e-21)
(1.1202 -0.0127189 -1.4414e-20)
(0.90705 0.0338915 -6.84996e-20)
(1.02829 -0.0568612 -2.54396e-21)
(1.00258 -0.00447793 -3.12637e-22)
(0.999995 -1.69035e-07 -2.64654e-25)
(0.993118 -0.00255175 -4.38186e-21)
(0.998809 -0.00018656 1.21917e-21)
(1.01446 -0.0105155 4.19864e-21)
(0.990688 -0.0509182 -3.58854e-21)
(1.10314 -0.0797527 2.48727e-22)
(0.988394 0.05885 -1.06664e-19)
(1.04348 0.0170496 2.08375e-20)
(1.03148 -0.0777462 5.04538e-21)
(1.07397 0.0518693 8.38771e-21)
(0.99889 0.032611 1.01587e-19)
(1.01183 -0.00205012 5.91936e-21)
(1.0006 -0.00127447 5.49678e-22)
(1.02226 0.0399324 1.8567e-20)
(0.99953 -0.00112685 3.31911e-22)
(0.999906 -8.47833e-05 2.77041e-23)
(0.99077 -0.00122463 1.53258e-21)
(1.00006 -1.96405e-05 7.20394e-24)
(1.02712 -0.0866349 2.98593e-21)
(1.00159 -0.010049 -1.47439e-22)
(0.991246 -0.0170643 6.63929e-21)
(1.00098 -0.000939042 2.81024e-22)
(1.06406 0.0437511 4.41691e-20)
(0.999032 -0.000161998 -1.09429e-22)
(0.999988 -1.85123e-05 -6.06498e-25)
(0.997449 -0.0592143 4.30421e-21)
(1.00088 -0.000682438 -1.63143e-22)
(1.06365 -0.027454 -2.05731e-21)
(0.977714 -0.00678659 2.40989e-21)
(0.968565 -0.00776484 1.21421e-21)
(1.1533 -0.0623799 -5.96304e-22)
(1.01816 0.00969544 -1.12221e-20)
(1.01451 0.00211489 6.93817e-21)
(1.0135 0.00217006 -2.78574e-21)
(0.999895 -2.46263e-05 9.68372e-24)
(1.08795 -0.00762825 5.98588e-21)
(1.05436 -0.00301495 9.9711e-21)
(0.999739 -0.000337546 8.8772e-23)
(0.991486 -0.00332528 6.36263e-21)
(1.00034 -0.000106357 -1.39281e-22)
(1.00569 -0.0114935 -3.22759e-21)
(1.00396 -0.0151642 -8.31307e-23)
(1.00256 -0.000823313 8.26339e-24)
(0.999611 -0.000707063 -3.97956e-22)
(1.12931 0.0345209 -3.68742e-20)
(0.99999 -1.1785e-05 -1.0518e-23)
(1.00011 -5.17752e-05 -3.71774e-23)
(1.00117 -0.000510231 -1.1175e-23)
(0.988462 -0.00158854 4.2683e-21)
(1.01031 -0.00693602 5.0687e-21)
(0.990872 -0.0142717 -9.51572e-21)
(0.986101 -0.00238003 -2.46223e-21)
(1.00235 -0.0335684 3.08438e-21)
(0.996532 -0.0692573 -8.19292e-21)
(1.01246 -0.0189193 1.37824e-21)
(1.02813 0.0398006 -1.06571e-19)
(1.12465 -0.0824106 -1.8072e-21)
(0.996613 -0.00136068 -1.77788e-22)
(0.926982 0.0646124 1.14318e-19)
(0.985332 -0.0262543 1.37735e-20)
(0.996436 -0.00480825 6.75121e-22)
(0.986257 -0.00195661 4.08347e-21)
(0.998531 -0.00991506 -3.35012e-22)
(0.989178 -0.0013217 6.51053e-21)
(0.994785 -0.00211326 -1.26996e-21)
(1.01514 -0.0105567 -7.68918e-21)
(1.05299 -0.0627802 1.38297e-22)
(0.999987 -2.32053e-05 -8.4461e-25)
(1.01224 -0.00903766 -8.39737e-22)
(0.999948 -1.60906e-05 -1.40534e-23)
(1.01278 0.0709077 2.14118e-20)
(1.13844 0.00389107 2.45637e-20)
(0.997442 -0.00106554 4.18763e-22)
(0.992716 -0.00105085 -5.79691e-21)
(0.999901 -3.10033e-05 -7.08806e-23)
(0.996745 0.0370531 6.42024e-20)
(1.03321 0.0804882 5.07044e-20)
(1.08608 -0.0158769 -8.81085e-21)
(1.16024 0.0582816 -3.11924e-20)
(0.984944 -0.0279776 -5.80339e-21)
(0.9993 0.0168328 -9.48195e-20)
(0.999966 -6.90634e-05 1.29377e-23)
(1.0255 -0.0202951 1.00244e-20)
(0.990681 -0.000921946 -2.43318e-22)
(1.08706 0.0303959 -9.07261e-21)
(0.947236 0.0450989 -8.92643e-20)
(1.1179 -0.0204745 1.73274e-20)
(1.0388 0.0151125 3.50693e-21)
(0.999869 -0.00693666 -1.919e-22)
(0.9999 -4.49475e-05 -6.52579e-23)
(1.14818 0.0375511 1.25582e-20)
(1.08921 -0.0916375 6.48995e-22)
(0.997283 0.0424416 -2.0861e-21)
(1.05835 -0.0264379 1.62571e-20)
(1.02855 0.0321966 3.12437e-20)
(0.996314 -0.00119301 -5.90787e-22)
(0.995244 0.05833 2.91536e-20)
(1.03682 0.0750765 1.78147e-20)
(0.995451 -0.00176676 -3.56109e-21)
(0.996108 -0.00167823 -1.32393e-21)
(1.15075 0.0204816 4.52023e-22)
(0.967599 -0.00715721 -1.64826e-20)
(0.999953 -8.10935e-05 -2.01717e-23)
(0.993468 -0.00275775 5.64174e-21)
(0.96973 -0.0101539 1.20438e-20)
(0.988961 -0.0359656 -1.73425e-21)
(1.00523 -0.00181171 -5.17346e-21)
(1.00385 -0.0032619 3.44984e-22)
(0.999931 -9.85202e-05 -3.85127e-23)
(1.03557 0.0867567 -7.64054e-20)
(1.00015 -0.0056743 3.3246e-23)
(0.999946 -2.97246e-05 1.24324e-23)
(1.00581 -0.0331126 2.86773e-21)
(0.99974 -0.000228516 7.80053e-23)
(0.999885 -4.28734e-05 4.98476e-24)
(1.00269 -0.00690005 -3.71183e-22)
(1.05533 0.0459554 6.01418e-20)
(0.996645 -0.0527467 6.03683e-21)
(0.96128 0.0448241 5.27628e-20)
(1.00003 -8.15465e-06 -2.00334e-23)
(1.05958 0.0492727 -6.27901e-20)
(1.00359 -0.0278664 2.46619e-21)
(0.999961 -9.5822e-05 -5.80026e-24)
(1.00001 -3.15061e-06 -6.13907e-24)
(1.00287 0.00732357 -5.66244e-21)
(1.04749 0.0392553 2.23211e-20)
(0.997993 -0.00129597 3.6543e-22)
(1.04095 0.028679 -2.8723e-20)
(1.00001 -9.7988e-06 4.3658e-24)
(1.04279 0.0327777 -4.00365e-20)
(1.03202 -0.0961756 7.00544e-21)
(0.995165 -0.00153921 3.91079e-21)
(0.999697 0.024971 -1.30401e-19)
(0.986443 -0.0223509 9.16525e-21)
(1.15962 0.047768 2.98671e-20)
(0.986859 -0.00221058 2.44143e-21)
(1.0468 0.0343259 5.21777e-20)
(1.05341 0.040917 -1.61417e-20)
(0.991838 -0.00405937 9.15334e-21)
(0.989422 -0.00489233 -6.74127e-21)
(0.997336 -0.00493656 1.97071e-21)
(0.998528 -0.000370833 -3.09237e-22)
(0.999903 -0.00010016 7.52619e-23)
(1.00018 -0.00528185 -5.81095e-23)
(1.04609 0.0684485 -8.98521e-21)
(0.999986 -1.8248e-05 2.6288e-24)
(1.03634 0.0280528 3.80308e-20)
(1.00208 -0.0554629 9.05324e-21)
(1.00623 0.0383585 2.54351e-20)
(1.03532 0.0251239 -4.31778e-20)
(0.968649 -0.00946918 -1.49209e-21)
(0.965374 0.0573099 -1.10996e-19)
(0.999189 -0.000591584 2.61219e-23)
(1.00745 -0.0153779 1.43045e-21)
(1.01618 -0.0474597 1.96712e-21)
(0.989677 -0.00112651 -3.79345e-22)
(0.996828 -0.00172722 1.76332e-21)
(1.00245 -0.0286805 -2.24468e-21)
(1.0297 -0.0177786 -1.044e-21)
(0.932236 0.0387979 1.39532e-19)
(1.00002 -1.10682e-05 2.15136e-23)
(0.999051 -0.000637317 3.54541e-22)
(1.00258 -0.0398928 1.06644e-22)
(1.00001 -2.36363e-06 7.53824e-25)
(1.01264 0.077548 1.05365e-20)
(1.0008 -0.000624804 0)
(1.00001 -3.80599e-06 5.80237e-25)
(1.00009 -4.40178e-05 8.7086e-23)
(1.00022 -4.7521e-05 1.75713e-24)
(0.99224 -0.00970934 6.57899e-21)
(1.01056 -0.0110331 -3.01075e-21)
(0.999228 -0.000429913 5.56679e-22)
(0.999963 -6.35185e-06 2.63097e-23)
(0.996557 -0.00162164 9.78443e-22)
(1.00188 -0.00724832 -2.82244e-22)
(0.985412 -0.0513887 -9.67899e-21)
(0.971223 -0.00320024 1.19447e-21)
(1.00979 -0.00620927 8.79559e-21)
(0.999986 -1.54937e-06 8.20183e-24)
(1.01357 -0.0873224 1.03181e-20)
(0.993585 -0.00184285 -2.25683e-21)
(1.13171 0.0219624 -2.02773e-21)
(1.00061 0.0253111 -1.84248e-20)
(1.00056 -0.00199239 1.33459e-22)
(1.11327 0.0212478 -3.50752e-20)
(1.00007 -5.0085e-05 -6.30531e-26)
(0.99393 -0.00215265 6.36407e-23)
(1.01399 0.000208458 -1.41733e-20)
(0.996787 -0.0019188 -7.22473e-22)
(1.06115 0.0580803 -3.54148e-21)
(0.9938 -0.00332676 -4.2553e-21)
(1.02677 -0.0214112 -8.55174e-21)
(1.01561 0.00216024 -1.52539e-20)
(1.04761 0.0192449 -8.92531e-21)
(1.00362 -0.00854237 -1.43814e-21)
(0.995088 -0.00225547 1.05379e-22)
(1.07502 0.0387351 2.74419e-20)
(0.984751 -0.0384805 -8.97831e-21)
(1.00263 0.075979 8.79112e-20)
(0.995612 -0.00246116 -4.12758e-21)
(1.0703 0.0851419 -5.40321e-22)
(0.99566 -0.00220897 1.10294e-21)
(0.999424 -0.000268014 -3.62245e-23)
(1.03641 0.0149785 9.77946e-21)
(1.00639 -0.017316 -3.68313e-22)
(1.02152 -0.000362702 2.14543e-20)
(1.00079 -0.000492661 1.824e-22)
(1.00001 -1.96744e-06 2.64768e-25)
(0.988129 -0.0592742 3.50612e-21)
(1.12936 0.0744743 -4.34715e-20)
(1.00075 -0.00192793 -1.74386e-22)
(1.12194 0.0163322 3.34593e-21)
(0.994104 -0.00309615 -2.78036e-21)
(1.00961 -0.086506 -3.24657e-21)
(1.02033 -0.0280306 2.15362e-22)
(0.990731 -0.0151705 5.34299e-21)
(0.999156 -0.00053175 -2.34616e-22)
(0.995749 -0.000544548 -8.22937e-22)
(0.984259 -0.0325725 -5.71174e-21)
(0.986007 -0.00458935 9.3511e-21)
(0.995349 -0.00206308 2.91693e-21)
(0.999926 -0.000228997 3.25633e-23)
(0.996269 0.0813799 -1.07675e-20)
(1.10485 0.0161265 2.13616e-20)
(1.01403 -0.0071016 -2.69512e-21)
(0.999903 -7.73894e-05 5.0082e-23)
(1.03388 0.0700317 -3.40946e-20)
(1 -1.19223e-05 1.14622e-24)
(0.999908 -6.55771e-05 9.90518e-23)
(1.09638 0.0198075 1.8538e-20)
(1.00516 -0.0137794 9.41524e-22)
(1.13272 0.0563108 3.51779e-20)
(1.01368 -0.00324566 6.00846e-21)
(1.00934 -0.00772167 -6.2973e-22)
(1.03707 -0.0533118 7.93377e-22)
(1.00453 -0.0697182 8.2703e-21)
(1.14567 -0.0639195 -2.53881e-21)
(1.00062 -0.000474862 -3.98144e-22)
(0.978509 -0.00743035 -9.56687e-22)
(0.999991 -2.90643e-05 -1.7964e-24)
(1.0027 -0.00645301 2.58183e-22)
(1.06262 0.0559465 2.26656e-20)
(0.99221 -0.00381005 6.38776e-21)
(0.998657 -0.000777234 4.91693e-22)
(1.00512 -0.0225237 -1.09066e-21)
(0.999057 -0.000568634 3.33374e-23)
(0.999804 -0.000561738 1.02008e-22)
(0.926483 0.00831026 2.4573e-20)
(0.995378 -0.00266631 -2.33877e-21)
(0.999775 -0.000400005 -3.06672e-22)
(0.99999 -1.33936e-06 -1.78072e-24)
(1.01199 0.00344512 3.02152e-20)
(0.986586 -0.0122646 -1.41949e-21)
(0.999838 -0.000301246 8.94892e-23)
(0.998659 -0.000457406 6.31465e-22)
(1.01732 0.0123567 1.22721e-20)
(1.04574 -0.00364503 2.2557e-21)
(0.981858 -0.0107862 -7.96256e-21)
(1 -7.27713e-06 3.94789e-25)
(1.00207 0.0121227 8.11587e-20)
(0.993358 -0.00862912 -4.53756e-21)
(1.06224 0.0384203 -4.43004e-20)
(1.00693 -0.00107155 -7.80381e-21)
(1.00798 -0.000787444 1.7747e-20)
(0.985191 -0.00560824 1.27561e-20)
(0.999953 -3.50641e-05 -8.12315e-24)
(1.01466 -0.000422526 -2.79068e-21)
(1.04623 -0.00696522 -3.21421e-21)
(1.13861 -0.040627 1.03637e-20)
(1.00555 -0.0545286 1.77414e-21)
(1.04142 0.0639742 2.69625e-20)
(1.00331 -0.000815811 -1.19343e-22)
(1.08232 0.0406488 -3.77008e-20)
(0.999975 -0.00782855 -3.43783e-22)
(1.00451 -0.0313532 -5.90699e-21)
(0.99981 -8.57378e-05 -9.81486e-23)
(1.00112 -0.0103511 2.72963e-22)
(0.999947 -0.000231259 1.17814e-23)
(1.03473 0.017058 -2.88459e-20)
(1.09201 0.0892075 -8.04486e-20)
(0.999273 -0.000638368 1.87279e-22)
(1.0094 -0.00771852 1.95033e-22)
(0.991592 -0.0023145 2.19215e-21)
(1.01004 -0.0501437 6.25003e-22)
(1.00658 -0.0512001 -4.54795e-21)
(0.999149 -0.00044938 3.71596e-22)
(1.02216 -0.0197569 -3.52132e-21)
(0.93744 0.00147363 -4.16267e-20)
(1.12288 -0.0472303 7.83185e-21)
(0.999972 -8.35427e-05 2.75766e-23)
(1.04113 -0.00389991 -8.21547e-21)
(0.998455 -0.00465253 -9.4468e-22)
(0.991357 0.00232913 8.93697e-20)
(0.994161 -0.00274608 3.87184e-21)
(0.997356 -0.0140197 -1.09501e-21)
(1.00683 -0.0205195 -1.54867e-22)
(0.996065 -0.0143926 -1.66037e-22)
(0.998597 -0.0115475 -2.39142e-21)
(0.99636 -0.00178937 6.72357e-22)
(0.999651 -0.00773907 1.33116e-21)
(1.00095 -0.00350524 -2.06688e-22)
(1.02962 -0.0208644 2.33404e-21)
(1.00005 -1.97054e-05 -5.64487e-23)
(1.05594 -0.103095 -2.60275e-21)
(1.08786 -0.0554534 1.6496e-21)
(1.0247 0.0850157 6.22436e-20)
(0.982691 -0.0102385 1.21333e-20)
(1.1202 0.0558135 -1.8011e-20)
(1.00099 -0.000399643 6.44456e-22)
(1.02353 -0.0504269 -1.34253e-22)
(1.00049 -0.0204554 -2.34671e-21)
(1.017 0.0235288 3.49668e-20)
(0.996603 -0.0020952 1.67225e-21)
(1.00006 -9.49597e-05 3.70427e-23)
(0.993575 -0.00891911 5.9226e-21)
(0.997753 -0.00496284 -7.46269e-22)
(1.02136 -0.0192979 7.15388e-21)
(0.986582 -0.00347371 -7.88813e-21)
(0.988869 -0.00457618 2.22374e-21)
(1.06148 -0.0521133 1.4846e-21)
(0.992957 -0.00143397 -3.76953e-21)
(1.00539 -0.0212125 5.7166e-22)
(0.988794 -0.0381623 6.35579e-21)
(1.00001 -3.40345e-06 4.66961e-25)
(1.03111 -0.0166351 1.27579e-20)
(0.990875 -0.0349681 -1.73747e-20)
(1.11876 0.0371665 1.66785e-20)
(1.03506 -0.0569325 -2.02982e-21)
(1.01979 -0.000584564 1.81678e-21)
(1.00005 -0.0525385 -1.2172e-20)
(1.04764 0.0929407 1.69127e-20)
(1.01584 -0.0231511 2.7668e-21)
(0.984561 -0.00518755 -7.54607e-21)
(1.00418 -0.0260803 -2.67243e-21)
(0.965694 0.00341025 3.99683e-20)
(1.04408 -0.0893491 1.08328e-21)
(0.993807 -0.00253833 -1.17701e-21)
(0.995808 -0.0626568 -9.22924e-22)
(1.00634 -0.0369104 3.69642e-21)
(1.00316 -0.06199 -1.65456e-21)
(1.0105 -0.0469539 -4.23577e-21)
(1.072 0.0337894 3.47984e-20)
(0.998647 -0.000862822 3.25986e-23)
(1.00506 0.0284658 1.30307e-20)
(1.00418 -0.000784564 9.26142e-22)
(0.999799 -0.000292343 -1.28758e-22)
(0.999347 -0.00127828 9.15781e-22)
(1.0358 -0.00617116 -3.07945e-21)
(0.901099 0.00291552 1.18464e-21)
(1.00074 -0.00358936 1.16725e-22)
(1.00514 -0.0294845 8.68307e-22)
(1.0174 0.0132425 -2.03762e-20)
(1.00001 -4.20256e-06 -1.09222e-24)
(0.989889 -0.00461106 5.38044e-21)
(1.01216 -0.00611629 6.32193e-21)
(1.03494 -0.0354228 4.61118e-21)
(1.00417 -0.000661569 5.20655e-21)
(0.999165 -0.000986608 1.69444e-22)
(0.990742 -0.0195295 2.09802e-22)
(0.998775 -0.00457009 -2.56374e-22)
(1.00002 -2.50644e-06 1.17674e-23)
(0.987497 -0.0220983 -1.5419e-20)
(1.04924 0.0567632 -9.46172e-21)
(1.0085 -0.0186678 4.43183e-22)
(0.991987 -0.00263238 -4.11224e-21)
(1.00092 -0.000161517 -2.32041e-22)
(1.02013 0.0157998 2.68754e-20)
(0.999814 -0.000330196 -5.96159e-23)
(0.999377 -0.000346237 -1.86896e-23)
(0.999828 -9.8443e-05 -8.94735e-23)
(0.999612 -0.00115802 -2.27862e-22)
(1.13233 -0.0291197 9.8067e-21)
(1.01295 -0.0234059 3.82639e-21)
(1.00382 -0.0104688 5.17576e-22)
(0.991398 -0.00378626 -1.88302e-21)
(1.00002 -2.81706e-05 1.13334e-23)
(1.0125 -0.0715709 1.05136e-20)
(1.10078 -0.0893423 3.25722e-22)
(1.01195 -0.0767653 -5.029e-21)
(0.997122 -0.0175273 -2.04087e-21)
(1.00708 -0.00527477 5.89556e-21)
(0.999898 -5.21279e-05 4.12307e-23)
(0.994191 -0.00602522 -2.3465e-21)
(0.979301 -0.0212543 -9.31782e-21)
(1.11851 -0.0374825 1.17978e-21)
(1.00415 0.0379256 -8.79188e-22)
(0.999414 -0.0017434 1.82752e-22)
(0.97414 -0.0144671 5.42364e-21)
(0.997676 -0.00152083 -1.5926e-21)
(1.01531 -0.0216475 -6.08927e-22)
(1.08161 0.0253347 3.60503e-21)
(1.00024 -7.48513e-05 -1.951e-22)
(0.999928 -0.000105506 -1.52866e-23)
(1.15477 0.0277611 3.3626e-21)
(1.10261 -0.045173 -1.12122e-21)
(1.0106 -0.00960585 2.15837e-21)
(0.998579 -0.000964872 8.39522e-22)
(0.999012 -0.00019235 -8.32643e-23)
(0.982118 -0.0219459 2.271e-21)
(0.999916 -0.00019164 -5.0199e-23)
(1.00703 -0.0194127 1.15207e-21)
(0.993617 -0.000766285 7.87481e-21)
(1.00067 0.0259982 -1.52763e-20)
(1.05537 0.0593921 -4.85343e-21)
(1.02267 -0.0467333 8.78338e-22)
(0.9924 -0.0355768 6.49313e-21)
(1.00314 -0.000921232 2.57636e-21)
(1.00647 -0.0143899 -2.12194e-21)
(1.08901 -0.0464116 7.57755e-21)
(0.99096 -0.0390148 -3.92814e-21)
(1.00582 -0.0253892 1.46479e-21)
(0.999999 -3.39039e-06 2.2381e-25)
(1.07424 -0.047786 4.43544e-21)
(0.987462 -0.00150239 7.32631e-22)
(0.989502 -0.0427387 7.92034e-21)
(1.00843 -0.0174774 -3.43077e-21)
(0.979412 -0.00707032 -1.69994e-21)
(0.999813 -0.00017608 -4.39318e-23)
(0.998523 -0.000726209 -3.74006e-22)
(1.03156 0.0240875 3.33235e-20)