/*--------------------------------*- C++ -*----------------------------------*\
  =========                 |
  \\      /  F ield         | OpenFOAM: The Open Source CFD Toolbox
   \\    /   O peration     | Website:  https://openfoam.org
    \\  /    A nd           | Version:  7
     \\/     M anipulation  |
\*---------------------------------------------------------------------------*/
FoamFile
{
    version     2.0;
    format      ascii;
    class       surfaceScalarField;
    location    "31";
    object      phi;
}
// * * * * * * * * * * * * * * * * * * * * * * * * * * * * * * * * * * * * * //

dimensions      [0 3 -1 0 0 0 0];

internalField   nonuniform List<scalar> 
29574
(
588.073
-435.447
-152.626
270.931
43.1601
-314.091
948
-1139.49
191.491
-395.188
994.345
-599.157
-631.861
671.136
-39.2756
-687.252
55.3909
219.85
-43.9394
-175.91
645.457
-500.389
-145.069
205.8
-288.617
82.817
88.3369
557.121
-90.7206
260.291
-169.57
-293.268
294.379
-1.1116
-231.395
-21.4988
252.893
34.6677
553.405
620.728
-649.761
29.0322
-965.131
569.943
-318.246
358.26
-40.0139
-92.0598
-1037.04
1129.1
-260.042
229.568
30.474
305.444
-34.5133
-307.122
294.037
13.0854
-31.4853
-261.783
-503.649
591.986
264.161
-325.402
61.2415
948
-352.405
60.9243
291.48
892.812
-976.695
83.883
338.904
-145.524
-193.381
-160.218
-111.231
271.448
-115.704
-144.338
-592.307
740.743
-148.436
335.585
-280.774
-54.8117
411.422
-88.3055
-323.116
555.344
-294.229
-261.114
-717.005
780.478
-63.473
-730.97
138.663
165.655
-397.084
231.429
932.353
-932.353
784.913
-344.054
-440.858
279.021
453.485
-732.506
1.43008
804.471
-805.901
-324.054
99.6064
224.448
-885.731
730.283
155.448
974.036
-81.2245
-99.3552
-253.049
116.438
72.5161
-188.954
1152.98
-492.382
-660.594
343.313
-246.52
-96.7936
842.866
-30.4367
-812.429
238.817
-227.835
-10.9816
-787.783
70.7783
45.5848
-760.804
715.219
-303.772
-128.449
432.221
763.124
-835.38
72.256
178.369
-399.156
220.788
14.9325
-208.649
193.717
378.733
-108.573
-270.161
694.714
-751.188
56.4738
-61.724
-292.478
354.202
-87.1591
-231.087
-645.327
402.27
243.058
-50.2905
244.344
-194.053
479.534
-482.106
2.57243
-206.79
-376.496
583.286
-697.624
828.079
-130.454
-714.368
106.773
607.595
542.459
-567.781
25.3223
-650.38
-63.9886
-181.004
-356.977
537.981
-109.206
-102.401
211.607
359.417
-554.897
195.481
335.668
-229.379
-106.29
675.008
-54.2799
-269.993
-37.9089
307.902
1063.1
-562.177
-500.919
-84.933
480.527
-395.594
334.555
-108.043
-226.512
-226.634
15.4067
211.227
939.866
-660.845
591.902
-832.517
240.615
632.279
-525.506
816.78
-194.079
-622.7
305.4
-109.602
-195.798
297.271
-91.4711
133.915
-184.206
-631.02
-254.711
236.542
-282.001
45.4595
-32.2506
134.959
-102.708
-684.321
477.531
114.059
-301.561
187.501
-438.9
728.26
-289.36
739.003
148.797
-887.801
904.468
-130.137
-774.332
173.86
-284.442
110.581
203.282
140.032
423.945
55.5885
250.331
-76.4706
-779.397
789.501
-10.104
-327.191
236.471
1037.58
-930.919
-106.661
276.166
-162.107
404.758
-415.933
11.1752
156.069
141.501
-297.57
468.411
-184.151
-284.259
1246.17
-1246.17
474.94
42.4684
-517.409
-9.6074
255.415
-245.808
-487.588
250.682
236.906
265.299
8.93509
-274.234
-296.803
-58.5388
355.342
49.7806
-209.998
178.823
41.0267
394.11
-108.828
-285.281
-267.786
-401.208
668.995
-576.46
491.527
-568.693
-431.384
-419.483
-155.688
575.171
576.709
55.5707
-323.806
4.96041
318.846
-1028.6
238.8
789.805
-170.794
909.797
56.3841
255.767
-312.151
384.089
-635.491
251.403
231.392
-361.889
130.497
131.946
423.397
799.151
-891.211
15.0723
228.423
-243.496
184.033
154.871
242.452
93.1333
112.758
-532.241
-31.6468
-149.222
180.868
22.4568
216.36
860.022
-858.592
290.153
494.76
113.761
-361.657
247.895
270.792
975.376
305.913
-76.1527
-229.76
-276.596
-30.5261
-405.336
35.2157
370.12
99.5104
66.1042
-165.615
293.396
-237.012
31.9934
-301.986
183.772
151.896
-299.236
186.043
113.193
-585.849
96.5343
489.315
-132.821
246.582
-311.326
90.749
220.577
-94.162
-222.72
316.882
8.28239
315.851
-324.133
-765.549
-211.146
127.323
-221.485
225.35
971.751
-67.2822
-228.318
-53.7233
282.041
150.888
665.892
-290.103
-21.2229
-753.923
122.903
72.6407
191.52
68.1863
-158.924
90.7373
-9.60522
-221.789
-173
351.369
-241.245
197.305
-36.2566
-412.193
-173.656
-204.145
-681.746
885.89
-142.74
110.49
345.332
59.4256
275.686
29.7136
441.742
38.7849
-359.376
525.031
360.099
-54.1864
-162.739
-154.012
316.751
17.8689
-230.098
212.229
398.046
-442.607
44.5607
97.7843
96.0506
-193.835
45.1772
366.244
-571.647
509.131
62.516
-536.47
-31.8063
568.277
-440.398
-136.062
0.478636
218.602
-219.081
65.2256
-232.509
167.283
735.569
196.784
341.938
34.9381
-376.876
-64.6677
216.068
-151.4
267.179
38.2654
226.779
-123.657
-103.122
587.648
-228.232
31.3829
1006.2
144.604
206.942
117.477
-324.419
300.508
-285.436
249.814
-399.699
149.885
73.3545
-1004.27
-606.562
425.558
216.468
-148.282
-46.001
315.327
-269.326
96.1375
245.8
-56.0865
326.178
-270.092
325.304
-58.1248
-6.67012
213.612
263.412
-403.467
140.055
-96.7904
336.522
-239.732
-487.924
144.54
-331.488
186.947
268.115
-375.486
107.371
-311.526
284.389
27.1368
-10.3585
-326.811
337.17
779.547
-733.962
196.805
-181.873
619.609
-634.89
15.2815
412.539
129.92
-852.348
510.766
341.582
-38.7441
303.004
-264.26
-85.1098
-150.214
235.324
-296.324
561.097
502
513.811
-513.811
-529.999
-498.605
-269.185
-218.403
899.776
-609.623
-2.77993
266.53
-263.75
-157.319
-281.804
439.123
61.483
164.861
-226.344
533.093
-971.993
-348.493
289.955
-12.5282
-392.808
351.536
-361.894
-1068.65
499.961
-485.171
485.171
-641.21
-6.84868
648.059
665.187
-281.098
292.053
137.712
-429.765
-329.957
320.35
-216.352
207.519
8.83346
-561.515
843.549
-282.034
306.708
-70.1664
576.297
-101.356
-411.08
248.341
182.394
67.9373
-660.041
502.722
248.351
-356.393
87.961
-173.071
279.637
110.436
-390.073
352.396
-121.004
-999.951
-246.218
621.859
-45.1505
-83.7811
287.783
-204.002
555.402
-479.751
-75.6508
-81.3518
780.409
-699.057
-53.2161
896.082
263.576
1.72366
-118.854
180.337
-92.4576
576.539
-484.081
-542.81
198.756
-164.657
10.2919
154.365
-137.492
429.545
-54.2349
232.945
-178.71
-70.1527
-253.901
192.349
-92.8384
-77.397
193.835
21.932
-249.59
227.658
35.5188
455.212
-490.731
710.395
49.3835
-759.779
285.075
21.6335
-81.961
-159.284
-143.167
45.1772
244.618
-289.795
33.5616
360.548
203.664
-765.179
303.053
-193.182
-88.8189
122.525
-820.688
698.163
68.9534
-403.455
-164.327
-299.534
215.618
83.9159
-329.919
-315.409
567.782
-999.166
235.829
-49.1198
-186.709
-64.4643
266.214
-201.75
-1039.27
343.945
695.327
-49.9163
380.701
-330.784
324.448
54.2849
-233.385
83.259
150.126
365.535
-109.675
-255.86
393.196
-143.382
-154.816
296.317
262.017
-214.681
138.885
-203.349
-112.144
626.536
-514.393
753.145
-161.243
-113.159
-378.258
491.416
854.064
-731.539
265.257
-220.079
-25.1016
-334.275
-536.979
71.7441
89.2177
-160.962
372.133
-91.2937
-280.839
-95.7435
191.551
-95.8074
402.045
-138.633
-122.417
-357.237
479.654
7.67155
843.938
-851.61
-776.663
803.833
-27.1696
-240.624
45.394
195.23
-753.969
439.606
314.363
47.351
-163.055
-2.24536
176.193
-173.948
-302.157
270.672
6.19604
-230.655
224.459
248.885
-30.2827
182.223
-556.424
374.201
231.081
-209.149
-40.2796
-186.354
-61.2273
586.258
368.428
-80.8822
-287.545
-733.86
741.531
-459.969
364.218
95.7508
460.865
-348.107
482.236
-855.897
373.661
-296.513
-102.644
-726.549
28.9241
-178.76
-54.6255
-645.47
631.537
13.9329
-182.674
351.321
-168.647
322.426
316.047
262.361
-169.871
-92.4902
268.745
-257.603
-496.32
-199.194
-85.2482
270.85
-212.613
-58.2378
-571.315
17.8799
553.435
174.997
-77.2129
1006.26
-1006.26
433.565
-499.081
-540.191
162.307
192.933
-355.24
-494.781
469.679
-331.923
294.014
-325.868
423.258
172.016
-595.275
50.8223
712.301
570.581
-147.323
446.239
-601.926
108.501
210.278
-318.779
-208.636
-214.845
423.481
323.538
71.096
-394.634
-297.325
-544.645
841.97
491.932
-759.718
389.733
26.6081
-416.341
-1037.04
417.692
96.1189
296.726
-278.857
300.035
-361.759
-11.2191
121.198
-109.979
16.8
-261.464
-254.462
11.8299
242.632
252.975
17.8757
326.747
-391.415
227.007
-93.0922
-561.616
-201.036
-100.525
-391.758
-362.211
-978.391
-185.551
1163.94
-495.453
964.107
-468.654
-131.052
-4.32419
135.376
-668.335
636.763
31.5713
-252.276
385.319
-133.043
245.903
309.498
2.42294
-211.072
873.957
-912.502
38.5451
437.823
-125.304
224.911
-383.806
167.762
216.045
-257.555
73.0476
184.508
-504.937
-66.3785
135.359
-243.931
362.537
-82.9002
-1128.56
924.42
-567.822
475.364
-98.2789
211.491
-113.212
-75.4356
385.271
-309.836
388.489
-364.561
-23.9275
-370.112
46.4956
-211.152
-319.514
700.845
-381.331
-73.8301
-253.361
-90.257
479.99
4.42767
192.222
-196.65
948.77
204.206
-368.473
-15.3338
173.192
215.296
-372.535
-456.475
829.01
-874.877
382.495
437.483
-950.037
512.555
106.332
-443.554
337.222
-284.382
188.639
-13.2366
468.449
-132.351
-199.137
-428.931
148.158
616.06
5.79913
23.6814
212.148
437.153
-74.0969
-363.056
-111.292
-86.0204
197.312
135.898
240.007
-310.16
9.11337
-108.458
-41.7182
150.176
-384.085
-22.2627
406.347
-26.8011
334.431
-307.63
-102.719
493.275
-390.555
-418.414
392.53
-68.9924
-911.097
829.745
365.095
-322.627
-70.6712
-329.028
-74.2834
-329.183
-655.257
-124.14
-537.39
301.877
235.513
-295.476
66.0973
-127.201
123.74
40.0095
198.054
411.331
-609.385
29.9261
-294.991
48.4709
28.1866
297.992
150.982
-259.81
-49.617
-294.721
344.338
-810.647
796.29
14.3571
230.729
-252.268
21.5382
362.024
537.751
277.613
-387.288
-21.2063
306.281
-724.58
694.143
288.114
-211.146
-76.9676
302.014
13.3129
-175.881
-170.012
-311.163
481.175
-214.015
-97.5109
306.478
-397.772
445.767
-568.184
119.615
75.6145
-195.229
206.021
-128.345
-77.6761
278.269
-650.805
161.988
-518.966
244.083
-90.8147
-153.268
47.5106
-813.06
-434.001
315.272
-396.155
-593.825
700.158
-511.543
99.3501
368.3
-665.624
114.533
-230.195
115.662
-850.904
898.414
-30.1694
-6.01003
810.481
-217.537
216.135
1.40202
-312.72
196.276
116.444
-241.944
-133.542
-59.7476
427.668
-367.921
559.147
-671.291
48.8138
-230.129
181.315
175.314
-126.5
350.443
81.1954
-263.869
174.757
17.5914
-144.608
766.839
107.118
-456.888
172.629
-210.351
177.011
33.3399
190.505
-244.74
-3.54312
191.228
-187.685
-354.806
305.189
-221.542
-16.0008
237.543
-549.415
436.257
211.836
-203.554
-580.845
-64.6255
614.881
4.72733
-321.965
-210.277
173.357
-88.4667
-84.8906
-112.509
-102.915
215.424
177.65
-243.69
66.0392
-44.1284
295.914
-251.785
-225.329
212.405
12.9246
-194.456
-30.8734
356.972
80.1813
996.137
-725.345
-285.483
-313.706
239.876
191.15
33.0249
-224.175
-987.675
807.41
180.265
-366.943
170.022
196.921
-511.604
-149.393
660.997
-158.919
-806.212
-15.3172
-282.253
-471.547
449.284
-99.7642
-212.956
258.477
7.73706
660.794
-103.526
-557.267
347.239
-449.959
-159.202
756.241
-597.039
-235.058
-209.178
444.236
-285.275
269.036
16.2392
5.94806
-70.988
248.638
-116.784
-182.75
-526.228
-11.1624
-16.1533
-90.4346
-744.945
40.8186
-432.217
-214.893
102.384
-284.244
173.013
699.067
254.413
-308.136
163.378
63.4008
-332.162
-7.88922
340.051
-263.505
5.94929
-36.7972
-997.178
778.709
218.469
-18.5681
226.087
-83.422
270.923
492.597
-524.223
31.625
-303.637
-156.332
-360.833
396.048
-45.1474
136.58
-91.4322
1004.27
-823.828
-180.441
42.439
-585.25
542.811
-27.3506
-123.633
150.983
-158.308
-137.168
487.319
-63.3734
-262.914
508.818
-559.754
122.884
436.87
-210.991
271.915
519.912
-393.392
-126.52
294.26
8.38601
-302.646
-283.653
199.872
681.455
-105.342
-576.113
437.352
-239.298
-433.349
389.642
43.7067
273.034
14.7487
-295.543
-36.619
-179.907
56.25
199.434
-500.625
67.3336
433.291
-262.945
260.165
-399.899
373.097
-329.32
-67.4788
-417.692
-459.151
399.404
-530.619
1001.79
-471.171
-118.928
73.7806
-175.643
-191.299
488.201
-50.2272
-437.974
-17.5045
-298.393
315.898
-508.258
563.798
-55.5401
445.816
202.678
-99.9932
-102.684
200.907
-245.036
197.402
-200.946
-310.455
97.842
472.423
-429.984
-11.487
-273.788
66.5389
-908.314
908.314
120.153
2.74577
420.456
-423.202
-167.033
181.908
-14.8749
-513.723
305.087
-426.334
70.9274
355.407
56.3951
116.962
-511.155
410.05
101.106
-208.264
436.4
50.9184
308.267
42.0162
-350.284
340.362
-84.5943
-428.944
-50.8064
117.984
-359.949
284.514
337.503
-255.357
-82.1467
-28.1361
143.72
-115.584
-978.391
-294.413
-183.697
80.681
103.016
-344.395
256.09
-427.881
-522.156
243.734
566.28
-810.014
-143.913
-532.347
676.26
-485.829
163.864
-18.0833
192.841
214.066
-16.6631
-657.254
640.504
16.7494
85.6401
351.712
294.866
-76.2429
-218.623
-99.1483
-567.684
666.832
-580.328
821.742
-241.414
-593.717
59.9185
-816.663
209.689
606.974
-984.627
432.387
552.24
-289.274
-270.479
-116.044
481.139
-968.574
437.955
-675.57
814.402
-138.832
661.114
-760.262
-211.395
250.823
-228.366
124.304
-799.874
-164.072
-694.465
858.537
681.646
-0.190858
501.262
326.817
-93.3681
296.65
-92.5633
88.2391
-152.941
220.317
-596.813
253.973
-226.771
-27.2018
-118.171
344.446
-226.275
-172.662
-122.329
523.752
-31.1541
-290.712
273.208
13.3592
623.404
-703.847
-650.554
-255.846
-244.779
42.7
217.591
22.3351
491.318
-513.653
-390.925
351.539
39.3859
-141.171
156.578
561.636
440.154
-382.291
-165.77
548.06
174.909
-262.068
-107.809
291.582
-73.6437
-352.69
184.652
-260.804
-232.381
318.021
202.593
-130.077
-449.334
-535.292
-290.984
-11.3169
302.301
-336.843
201.121
135.722
-173.919
178.346
-250
-86.8427
225.295
-219.099
249.141
-282.352
33.2112
321.49
-86.0196
-235.47
-805.217
646.298
-310.66
-334.232
81.9563
-328.508
355.117
272.902
-71.8731
517.689
178.924
-14.0628
261.71
562.813
-824.523
-193.855
165.826
40.1955
-577.32
407.307
-988.553
306.807
320.757
-816.21
-472.982
-73.0276
546.01
-529.713
452.055
77.6574
281.155
-207.203
40.1697
-655.536
392.622
-41.2772
155.81
-363.021
385.356
133.27
-526.662
-121.937
-36.864
219.258
-7.80206
276.838
270.774
-81.2023
177.253
777.087
3.3225
296.14
-284.984
-11.1568
-279.266
-82.3909
-85.105
-34.7077
265.437
717.765
246.342
49.9719
220.952
340.462
-92.1111
-59.7993
316.442
-256.642
-458.531
80.2737
494.549
-230.353
-264.196
287.273
-295.075
-16.1147
-674.533
690.647
222.665
-828.996
458.884
-237.792
76.7078
-364.253
-125.002
-401.205
526.207
-125.05
135.342
249.75
-343.118
332.93
-17.0791
-870.864
334.394
89.9911
-370.831
-725.841
-524.533
-463.142
236.893
105.85
-361.71
232.61
-340.42
157.488
86.5954
154.147
-220.152
66.0051
-520.661
163.424
504.862
-923.276
-146.545
58.0785
458.347
26.8244
-574.884
-422.295
17.7734
-598.618
-3.62983
297.89
-98.4617
414.969
-316.508
-108.385
-85.4502
153.583
-232.434
-63.89
-343.368
376.93
-268.979
-50.677
319.656
-62.7029
263.824
-289.784
-259.613
241.582
18.0304
43.754
-254.448
331.155
370.963
-66.4823
-324.443
-22.5096
234.914
204.01
-28.8583
-175.152
-82.0615
-466.551
53.8015
412.749
-289.668
-137.644
427.312
186.536
-214.672
339.741
-237.095
58.3356
-194.273
-125.18
319.452
818.718
338.461
-41.6984
-209.112
250.811
-22.58
-507.133
-290.984
-733.288
342.358
390.93
1.81447
-296.044
-9.22966
251.682
-11.8719
228.007
283.574
-328.811
45.2369
-467.619
-138.943
-542.033
176.738
365.295
209.872
27.6712
237.891
347.105
-611.696
264.591
243.178
-408.47
165.292
-355.852
409.413
-664.231
254.818
995.653
-964.27
-781.52
462.006
-456.936
-110.459
567.395
175.574
120.566
-316.441
578.493
-417.263
-161.23
392.179
-217.27
-835.822
255.493
250.445
244.104
-241.1
82.7924
401.805
-81.455
178.705
-180.342
1.63626
232.804
11.5399
580.63
-612.437
-501.398
169.241
332.157
73.4327
-364.71
-122.186
486.897
91.0936
397.886
-213.235
265.335
59.9683
-454.216
150.579
312.719
104.594
-417.313
118.207
-216.485
-190.652
-229.254
-206.193
-360.075
16.7064
-28.4746
-628.779
-37.7027
231.946
-194.243
-296.518
185.121
111.397
-395.783
-119.86
515.644
-280.556
-67.9372
187.352
16.658
-350.091
79.3904
182.941
72.5637
-255.505
-265.318
-146.415
411.732
-366.002
-291.692
271.886
19.8067
109.57
-338.724
229.154
162.822
-227.523
64.7004
-35.6267
-123.719
-289.41
413.129
-363.705
231.354
211.595
-440.849
-249.511
107.336
142.175
-465.597
154.434
35.1146
-440.313
405.199
-196.522
-63.0908
185.379
432.247
-358.325
-73.9217
-211.116
201.567
9.5485
-262.724
119.103
143.621
-74.2222
-136.129
-331.682
-118.376
925.786
-214.644
-34.946
273.76
-476.703
320.372
108.19
-307.258
199.069
-408.273
-143.008
551.281
-472.189
-215.062
220.26
-29.1106
283.633
690.287
-706.402
-49.0768
-272.101
321.178
83.2468
-711.942
628.695
207.942
101.92
-309.862
311.726
-118.793
-238.812
223.495
-362.347
-50.6076
412.955
-710.445
39.2287
671.216
-506.62
-153.421
-96.6627
-303.236
522.852
-42.1348
-774.548
-19.8284
794.377
-206.817
569.237
-362.421
-215.715
477.425
144.546
-509.257
328.605
-118.327
124.739
451.8
-426.025
428.771
-322.89
-151.785
474.675
-523.495
50.5128
314.592
49.6262
16.9343
-255.746
268.831
-75.9568
-192.875
-112.47
-115.925
304.563
-88.0254
-271.924
42.5532
229.362
-298.426
-103.362
401.788
-279.611
352.893
-73.2817
-88.989
279.494
-335.876
-144.025
479.902
-232.995
103.532
129.464
-133.851
-52.4258
55.5423
-651.905
596.363
-181.159
-252.19
-307.418
-249.007
-333.72
-100.281
-209.354
-84.6732
294.027
415.173
639.761
170.091
-226.54
56.449
169.146
531.012
228.441
40.3908
178.866
-257.624
78.758
-410.648
-138.767
-525.641
-101.605
370.349
-179.476
316.462
-35.3073
656.891
-154.17
-4.59183
229.887
-240.343
278.893
-38.5505
713.623
0.150096
287.123
-601.878
492.292
109.587
221.399
73.4669
204.412
-48.5131
222.159
-322.684
72.2537
-325.303
19.6098
-354.819
357.244
-2.42522
83.2048
-185.913
164.523
50.7099
-320.322
318.315
2.00723
299.708
-350.385
248.606
-20.9481
-377.541
-117.24
-61.01
285.458
11.9595
242.014
301.01
6.8914
-392.712
-112.519
505.231
-77.2026
-150.632
-194.905
-35.2242
53.1885
249.865
258.367
-293.074
321.508
-55.0976
-264.512
291.289
-26.7769
-1061.32
715.055
346.266
-422.466
132.798
337.774
5.39987
-343.173
-71.0042
355.518
566.308
-176.579
-40.6659
217.245
-72.3945
-229.763
-260.091
-65.6183
325.71
-283.452
-63.2699
346.722
-69.9411
-510.024
-91.854
-798.005
785.619
12.3857
29.6048
249.385
-278.99
34.4799
323.603
-195.271
482.528
-287.257
-231.231
-82.4757
-486.04
104.124
-212.509
185.782
-240.408
-316.337
-118.446
434.783
-119.099
474.111
-355.012
-380.893
-90.6536
-238.765
-104.353
2.14888
-444.235
-123.587
-199.334
683.438
16.6253
647.665
-664.291
-197.22
47.9984
231.004
-816.569
585.566
144.264
-386.207
307.155
-51.7401
85.5138
-1026.69
-226.434
-113.986
437.682
-4.11713
-528.133
-393.956
-123.453
-657.415
206.174
-400.219
194.045
-7.47639
303.39
-347.881
-93.058
440.939
-17.1002
-284.65
301.751
830.049
-116.426
-492.079
478.842
-59.2036
-715.345
-92.7663
465.864
-846.815
783.342
295.256
-475.335
401.691
-95.5574
-115.589
161.952
175.732
-337.684
-438.217
-246.815
183.459
19.0541
-202.513
-210.51
916.58
31.4202
-991.988
559.771
-212.681
-106.636
319.317
760.661
38.4902
358.882
-68.9271
371.669
-354.963
-401.805
405.945
-4.13973
331.399
-324.329
-7.06955
363.614
-79.9802
-19.3119
-440.278
-144.972
-224.602
-130.638
-199.257
-119.522
-618.053
827.902
-209.849
-242.007
-7.99286
-222.373
-444.543
-462.349
412.122
72.9898
-305.424
-90.7449
-125.061
215.806
-42.6879
388.047
-345.359
357.353
-52.1641
218.417
-71.7125
-146.705
98.3299
-221.962
134.307
127.71
315.904
-107.962
-335.559
-91.5059
231.538
570.752
-134.496
26.1916
-773.522
747.33
-274.404
111.549
-192.751
-30.1504
-78.0874
348.759
56.978
771.704
-699.448
856.473
-110.874
-745.599
375.994
-74.4034
-301.59
104.14
-217.353
-89.8613
506.872
-417.011
-232.276
-56.3409
21.9459
-733.887
460.293
-72.2781
-290.36
284.238
6.12213
-211.958
-38.9147
250.873
201.781
27.3783
-229.159
-36.5038
-85.6322
-450.094
-611.227
-427.234
199.541
0.199135
-194.928
-23.777
246.442
58.7876
-538.641
479.853
-332.535
222.758
-398.401
148.687
-347.823
683.94
-332.723
67.6241
-267.758
200.134
-145.273
313.034
596.975
-150.736
-202.283
-141.322
228.314
917.567
88.6298
-302.301
225.831
46.1852
725.518
-11.265
189.97
-322.653
-93.28
404.507
-89.235
-460.382
-520.406
153.341
367.065
-164.501
-542.698
707.2
-572.119
1009.94
-759.577
141.524
-487.661
-273.301
277.261
115.935
-935.004
53.9329
881.071
-355.854
404.138
-97.6597
-11.5654
363.101
333.888
19.0048
230.275
-194.969
-35.3056
-308.925
98.4147
-191.977
-19.1385
243.083
380.625
-103.013
678.148
-135.337
292.73
109.315
575.911
-130.144
521.089
-109.758
257.025
-41.9921
-215.032
446.615
-501.035
-340.906
841.941
543.783
-241.906
-300.559
-553.554
80.8954
472.658
315.474
-75.5977
-711.422
677.37
34.052
527.151
-77.8663
-28.0258
634.821
-606.795
-384.128
298.109
298.879
86.4394
431.952
138.63
-386.452
218.746
-37.4311
370.374
-13.0213
-437.082
-125.659
-46.3549
593.028
320.908
-315.333
-5.57474
-534.841
67.222
-389.618
-333.25
297.942
54.6677
326.033
-298.343
349.893
-51.7841
-145.307
-272.282
-272.572
-15.4846
288.057
-401.434
-112.377
-35.9078
547.249
-38.1189
-4.27479
472.723
585.945
-26.357
-155.312
-266.961
330.386
-63.4255
-54.1541
221.158
31.933
-743.355
-324.659
-237.016
362.373
-389.506
-69.6448
471.332
644.792
210.381
-855.172
-154.959
587.021
-126.728
330.43
-244.261
-86.1686
-70.3841
-605.529
-211.134
36.0008
199.445
134.443
-138.936
203.636
-284.975
-308.797
354.394
-45.5975
215.387
320.635
-436.679
732.665
431.277
-313.314
376.626
-63.3124
-266.734
-478.363
-219.441
837.495
18.9785
419.557
-49.1827
-968.422
33.4183
394.423
-67.6754
-745.677
-13.7294
-315.299
633.833
205.915
-86.3005
-91.9367
12.5602
293.721
-388.66
-8.5471
397.207
-241.633
-148.44
201.411
-117.857
-474.686
-102.633
501.311
-94.0035
351.712
-5.6263
-323.557
-110.026
-136.232
-518.384
374.471
-112.954
652.72
-630.774
-279.021
381.403
-102.382
-240.123
67.4614
280.951
22.0527
-445.433
-477.844
-405.824
972.973
-466.404
-506.568
585.77
-110.406
-525.105
-130.431
-97.2754
17.836
529.773
-137.151
23.0414
56.7183
175.228
-229.059
-227.829
53.7408
-105.042
564.508
-138.95
-403.521
-342.711
287.9
262.899
2.53771
445.438
-93.726
-51.2457
-148.088
-143.962
-305.405
31.6169
80.3046
-275.209
441.441
-652.587
619.556
-115.223
-504.333
758.79
-726.857
436.896
-74.5234
-245.704
-282.342
46.403
598.181
-126.85
-758.323
784.515
214.659
-1.0232
-213.636
-150.38
223.37
465.09
-65.6864
623.783
-146.252
-279.99
280.14
-108.887
-74.8096
-208.508
270.699
-62.1909
-93.3355
268.91
300.516
-46.1031
-36.0555
249.852
-473.521
-277.667
271.496
-235.718
-35.7787
-434.081
422.526
11.5551
-17.4421
-138.497
311.689
295.328
-300.712
5.38389
-251.531
-84.365
-14.0932
135.291
-319.363
423.311
-42.8681
787.1
-744.232
-507.792
350.219
-29.5835
36.1667
343.77
13.9619
-357.732
7.14192
382.5
231.126
499.158
38.2974
504.84
12.8489
356.241
-47.9734
-70.6636
249.529
268.925
47.5165
-871.104
887.73
-303.095
282.079
21.0162
-546.617
247.237
2.61491
810.329
-600.796
-209.533
259.24
-182.078
-77.1622
433.407
227.583
31.7682
491.983
-197.306
617.049
-419.743
98.7289
-51.8036
847.096
-795.293
-432.333
308.614
476.043
198.965
232.714
2.20017
221.8
-191.326
-487.126
678.452
41.6466
206.96
65.3209
-558.482
571.024
-508.508
815.065
-260.572
-554.493
-290.957
-196.966
69.6497
271.096
0.789529
-223.036
-288.119
-360.54
-514.337
2.79818
184.736
-187.534
289.9
262.44
189.855
-792.407
768.525
23.8816
-28.0969
407.576
-457.422
49.8462
279.404
80.8338
-0.537581
791.914
-791.377
100.766
229.621
61.8291
80.8803
-291.039
303.867
-12.8285
-921.148
-57.2433
194.026
-133.284
-488.889
622.173
-292.111
858.39
-146.936
-399.768
-135.073
-560.373
101.139
385.758
24.9346
-253.114
-26.8752
199.415
-142.697
18.052
858.592
49.7225
-14.2387
301.361
472.032
-356.429
-115.603
-629.966
233.207
396.759
140.122
164.441
364.081
-355.793
273.646
152.779
282.004
229.452
259.616
31.6726
69.6131
-483.436
413.823
837.83
-236.673
-601.157
168.865
220.6
-389.465
367.822
401.827
247.954
3.8831
-626.336
-306.017
272.804
-889.683
367.529
81.5967
-482.801
84.901
-636.642
-97.2458
243.947
-357.388
396.545
554.567
-568.172
645.006
-76.8334
-10.2978
370.846
410.657
-354.18
-41.9357
172.884
-130.948
-303.103
294.074
-17.2361
671.695
-345.707
-22.446
375.874
-353.428
90.4461
-177.105
255.448
-78.3437
-293.706
238.472
55.234
269.923
545.142
134.21
-401.338
458.207
-1129.1
1128.56
130.005
-10.8989
441.056
167.683
-56.1339
414.482
352.223
214.07
21.2537
295.676
363.805
-25.7241
-338.08
-649.522
649.008
0.513371
228.985
194.879
-10.1428
501.411
-431.797
-211.116
765.683
308.039
79.2165
274.431
-366.542
-171.418
26.8438
244.653
789.983
-174.22
-615.763
-890.915
964.27
300.166
381.053
255.254
-249.854
554.144
-992.361
469.781
348.172
336.657
-34.2866
472.232
291.129
59.3604
-416.405
357.045
-220.145
332.821
-13.5975
-23.6249
-824.312
694.175
862.695
-201.581
333.473
289.433
124.977
339.062
-19.9662
-319.095
269.021
321.529
298.399
-187.385
87.3923
-272.117
281.496
-9.37941
447.734
-563.895
-246.119
-2.45264
216.523
465.144
-577.663
-275.287
22.1724
474.595
-133.261
-236.536
369.798
-331.826
-188.58
634.442
106.301
426.341
-943.825
517.484
-459.38
417.843
41.5371
-2.85825
251.936
-249.078
358.152
-267.705
259.379
-236.565
-22.8149
325.43
44.7335
-221.838
-850.904
81.2247
363.837
-445.061
-33.0765
724.46
-691.383
322.177
-295.19
-26.988
-445.647
478.811
327.801
-270.823
-399.981
978.647
-578.666
273.935
-13.7781
197.237
540.466
459.534
-184.924
206.415
12.9658
-219.381
-27.6895
397.81
-593.498
33.5907
559.908
201.179
261.516
-365.869
-42.1258
-391.955
-916.58
864.777
-493.432
1033.9
336.115
-60.8522
237.823
-1.74681
-236.076
488.527
-434.725
56.1499
-708.055
-459.389
0.00901386
-255.877
317.829
-469.456
-499.118
298.199
-18.8158
-279.384
-959.678
429.678
-798.005
155.837
32.1689
-188.006
29.3189
599.376
647.854
-633.921
-273.713
836.527
-73.5462
225.442
382.031
-554.714
172.682
-136.439
356.518
-220.079
-704.242
750.427
-385.386
221.092
-223.193
232.243
-9.0502
-275.811
702.152
313.337
645.827
27.6476
-785.971
-231.363
245.775
-359.761
-33.3622
-228.777
240.607
-898.414
982.297
175.396
39.1349
-214.531
261.966
-322.263
-69.1523
0.774397
392.526
210.679
-603.205
502.753
-902.734
528.393
-55.9698
-221.53
-2.26709
223.797
-114.081
-191.324
-309.017
73.5473
-166.667
-135.319
302.211
291.358
-264.515
-118.057
-315.732
433.789
279.836
288.533
-17.5531
-292.814
310.367
-690.801
16.2683
860.022
-921.148
995.653
-999.951
975.376
1017.61
-1017.61
-890.915
-1026.69
278.638
-253.703
-242.965
-254.654
-186.215
-1.46972
753.337
-964.638
211.301
-887.73
9.96643
-280.127
190.433
-34.5957
-763.508
791.156
227.481
-6.82863
-220.652
-282.658
265.558
-11.8867
-249.496
261.383
248.451
-14.2437
-234.208
201.235
-228.437
-23.6618
-253.222
276.884
-187.595
200.342
-12.7469
249.775
280.646
-346.932
406.292
103.61
-180.451
76.8415
-394.705
-609.568
-193.855
207.133
-13.2776
-419.541
-84.0958
503.636
193.461
-174.407
39.6188
201.373
-25.977
-359.901
277.51
517.841
-121.296
209.084
462.886
-55.3105
313.005
-402.23
89.2251
18.3891
-637.328
666.647
263.418
-460.724
-783.667
730.274
53.3933
480.774
497.873
71.121
446.72
-278.087
270.61
-73.0723
-710.595
237.408
-344.044
734.298
-944.147
345.25
-768.647
423.396
125.579
264.112
-205.939
-58.173
-55.7311
-386.961
-868.406
592.595
-1.46264
255.25
3.76093
-308.343
304.582
15.3919
-52.8858
235.329
281.779
-37.1268
185.479
-58.311
-127.168
738.806
19.9834
272.543
301.096
6.48662
177.862
-228.935
51.0732
237.77
-299.44
295.81
-335.116
-202.859
217.118
-14.259
74.6227
-494.163
242.117
181.194
-82.372
835.709
-609.422
448.192
577.455
-684.116
220.843
-339.171
309.488
-445.926
187.465
-318.103
218.003
-190.625
-335.502
216.708
-189.18
-7.19488
196.375
218.19
-337.713
368.331
-266.256
-102.075
-6.79716
486.65
-442.465
-560.38
1002.85
-763.609
658.266
-50.6004
-320.451
371.052
21.3832
60.2647
-293.284
284.054
-267.484
-7.80249
196.422
67.0293
-263.452
-184.219
-216
-296.951
223.337
-208.87
-14.4674
-308.343
-409.776
409.776
185.478
-657.668
168.171
183.198
304.582
727.288
-234.997
-41.9593
-645.541
687.5
526.648
-89.7788
234.965
-364.16
315.083
398.115
242.557
4.2734
232.218
-172.199
-60.019
-30.4904
-686.817
686.817
-176.652
-386.606
-92.9358
-119.573
206.721
20.2866
-142.592
210.53
-422.755
478.343
-145.803
-202.02
744.972
-505.061
-239.911
-111.33
-106.023
556.354
-182.152
-116.83
-44.8993
-489.24
534.139
-500.67
-287.113
512.199
-20.216
-16.1183
-748.224
556.899
-457.832
-65.6627
767.897
19.2033
230.496
-112.921
773.665
-660.744
106.504
878.343
683.168
855.868
146.118
-217.83
-385.894
-73.4946
-233.402
249.868
-231.877
49.2774
-167.662
-898.035
41.4607
856.574
10.7785
391.491
814.02
-260.864
245.97
14.8938
1066.43
-542.393
-524.033
-168.624
2.64033
476.202
202.636
-36.81
264.541
283.519
421.511
-772.039
956.296
-184.257
-348.606
5.89444
231.186
17.1749
666.263
-88.1022
-214.993
-163.087
-242.737
212.763
92.3231
634.965
689.805
-731.764
91.2127
-795.454
22.6684
654.701
752.267
-849.592
97.3246
-627.568
535.668
91.9005
627.245
-563.543
-63.7014
-446.3
520.923
59.3912
-76.8699
-121.813
198.682
122.486
305.64
-603.57
450.149
188.967
-188.967
-198.741
218.431
-879.203
436.738
-672.807
539.523
-553.554
871.104
-953.476
23.57
-237.537
203.962
-163.216
-222.992
-246.604
20.0417
356.888
34.7823
341.211
-350.609
-364.667
40.3378
439.01
-680.916
-55.313
-726.743
782.056
225.417
-264.332
55.1104
102.333
-227.394
-623.574
655.146
-196.719
-43.6888
8.16121
551.13
149.715
-307.654
-25.5956
-455.115
957.867
864.339
-864.339
332.735
43.1386
9.40178
463.322
-761.475
17.2426
651.624
15.0224
80.3404
417.432
-497.772
214.256
301.778
-3.88736
8.96407
673.525
17.1221
-862.982
651.849
195.421
303.271
-498.691
-826.398
565.826
210.29
-412.904
18.5842
-649.358
-184.686
-58.3625
243.048
-78.8502
193.778
-114.928
15.1771
44.3823
355.65
40.3987
-200.445
17.3984
-294.009
523.638
660.221
64.2383
12.3689
142.288
-80.3276
-198.662
195.884
394.881
-500.144
-707.826
-64.213
-196.852
-466.903
-476.922
-274.084
-360.806
624.542
-514.955
6.67402
798.69
-805.364
318.25
50.0807
391.911
-59.176
622.015
-57.4301
-564.584
313.778
-19.7636
-572.571
-105.377
677.948
-27.9645
-257.471
-609.089
454.92
-171.54
-73.6296
245.17
240.005
611.311
66.3338
-240.472
-82.2115
24.2797
202.936
-546.063
638.386
193.66
3.57659
-199.671
395.691
-196.021
316.585
-878.562
561.977