/*--------------------------------*- C++ -*----------------------------------*\
  =========                 |
  \\      /  F ield         | OpenFOAM: The Open Source CFD Toolbox
   \\    /   O peration     | Website:  https://openfoam.org
    \\  /    A nd           | Version:  7
     \\/     M anipulation  |
\*---------------------------------------------------------------------------*/
FoamFile
{
    version     2.0;
    format      ascii;
    class       volScalarField;
    location    "30";
    object      p;
}
// * * * * * * * * * * * * * * * * * * * * * * * * * * * * * * * * * * * * * //

dimensions      [0 2 -2 0 0 0 0];

internalField   nonuniform List<scalar> 
7639
(
0.196907
-0.00434884
0.405827
0.242647
-0.00117389
-5.12824e-05
0.414248
-0.00701505
-0.000165806
0.100721
-4.80442e-05
0.00319578
-0.0104559
0.0494427
0.105131
-0.0139055
0.211315
-0.013556
0.00128674
-0.0614752
0.0650461
0.00209915
0.0365311
0.200636
-0.0175461
0.212328
-0.00108579
0.0614337
0.166943
0.00311697
-0.018605
0.662543
0.0357776
-0.000658255
-0.000143328
0.0819432
0.00357784
0.399295
-0.00598006
-0.000461038
-0.00548805
-0.0133212
-0.0638778
-0.0697036
-0.000275302
-0.000112067
0.00205483
-0.00620764
-9.27334e-05
-0.061142
0.00481895
0.0582602
-0.0219995
-0.00456574
0.0811353
-0.00626949
0.00139869
-0.00699393
-0.0283524
-0.000684092
5.35725e-05
0.00617723
0.0498245
0.00352959
-0.00131137
-0.0182791
-0.000132676
5.34381e-06
-0.00376074
-0.00584024
-0.000102934
-0.0492367
-0.0169948
-0.0282099
-0.0131425
-0.0396994
0.398664
0.0639215
0.0385568
-0.0528989
-0.0100374
0.368576
0.0931423
-0.0296025
-0.0019526
-0.00307128
-0.00749806
-0.0213722
-0.000891737
-0.00593811
0.170379
-0.0952592
-0.000182497
0.00151082
-0.00473268
-0.02922
-0.0468098
-0.00179349
-0.00214751
-0.00156057
-0.047503
0.045336
-0.00448865
-2.75184e-05
-0.0955123
0.171279
0.569184
-0.00666622
-7.48335e-07
0.0320709
0.226684
-0.0435215
-2.09893e-06
0.0339691
0.17244
0.000612295
-0.0602429
0.136319
-0.0358488
-0.0289653
-0.0491959
0.350941
-0.0614326
0.0134924
-0.0480157
-0.0013105
-0.0168577
0.00253765
-0.00138642
-0.0188343
-0.139665
0.041461
-0.000824176
-0.00105011
-0.0305923
0.219823
0.44818
-2.36631e-05
0.0108267
-0.0607335
-0.0267581
-0.0430672
-0.0401294
-0.0271723
0.575355
-0.0191648
0.167453
-0.0278012
-0.036645
0.349925
0.0783249
-0.0806195
-0.00205076
-0.0274893
0.0928744
0.363758
-0.0454235
-0.0104075
0.530798
-8.40847e-05
0.000667238
0.208204
-2.59824e-05
-0.00282017
-0.00532188
0.264229
0.264713
0.553723
-0.0031799
-0.00415837
6.18596e-06
-0.0507693
0.000604719
0.00183303
0.0117768
-0.0362343
-0.0756565
0.0889058
-0.000181524
-0.000691768
0.245928
-8.38631e-05
-0.000154194
0.415093
-0.00981519
-0.0355748
-0.0338556
-0.0268537
-0.0219451
-0.0594521
-2.83073e-05
-0.0453717
0.0895807
-0.00453229
9.90456e-05
0.156008
-0.00169127
-0.0177395
-0.0207763
7.41241e-06
0.00123869
0.228078
0.123599
0.368444
-0.0549999
-0.0399418
-0.0982421
0.0670583
0.227396
-0.000295163
4.7447e-05
0.536782
-0.0118375
-0.000854894
-0.0434906
-0.0176431
0.325589
0.33569
-0.0471023
0.627032
-0.00156907
-0.0132646
-0.0486223
0.0794792
-0.0774856
0.147128
0.532402
8.63804e-05
0.0141831
0.146175
-0.00564473
0.132625
-0.000756384
0.59362
0.356434
-0.00743919
0.00375437
-0.000427884
0.0386495
-0.000131311
-0.00871094
-0.0579055
-0.000102546
-0.0018556
-0.000599404
0.132346
-2.61081e-05
-0.00616074
-0.0517124
0.662049
0.0351208
0.578598
-6.32524e-05
-0.0229139
-0.000262143
0.383496
0.0059177
0.448879
0.00175313
0.00104167
0.00306442
0.0700257
0.000832977
-0.000321051
0.000737743
-0.00595386
-0.0366656
-5.91142e-05
-0.0439756
-0.00507326
-0.000200587
-0.000884026
0.426568
-0.0104311
-0.00107902
0.631036
-0.00203717
0.216649
-0.000291929
-0.000360816
1.05051e-05
-0.0322191
0.076466
-0.0731698
-0.0286618
-0.00058229
-0.0547419
-0.0200602
-0.000254076
0.000714287
-0.00306222
-0.0100837
0.00433015
-0.00174753
-0.0283422
-0.032555
-0.0279457
-0.0606293
-0.034816
0.341923
0.359681
-0.00209663
-0.11679
-1.0276e-05
-0.00334825
-0.0292783
0.194794
0.104723
0.000137234
-0.00309419
-0.0338892
0.15151
-0.00140922
0.00527427
0.00177743
-0.00442112
-0.126189
0.308048
-0.00224092
-0.00817736
-0.00016296
0.00592032
-7.50223e-05
-0.0227721
-0.000490887
0.00500968
-0.162073
-0.0354833
0.00155552
0.0128349
-0.00104371
0.0269889
-0.0106163
0.0599285
0.138893
-0.12299
-0.0674079
-0.0205242
0.00749561
-0.0565234
0.564676
-0.0612856
0.0423248
0.614773
-0.0021631
-0.00245844
-0.0799407
-0.00154891
-0.0162746
0.00929703
-0.00392928
-0.00293028
0.153306
-9.82055e-05
0.000796501
0.000110224
-0.00475906
-0.00975781
-1.24143e-05
-0.00155155
-0.0272545
0.527642
0.00236829
-0.0115933
0.494021
0.306044
0.0533361
-0.108601
-0.0511671
0.00724298
0.253593
-0.0146448
0.269751
-0.0254824
-0.071425
0.133061
0.268874
-0.0413702
0.097645
0.135016
0.234034
0.0649872
-0.0042633
-0.00587447
-0.00012614
0.00233072
-0.0149265
0.00138501
-0.000153603
-0.00227889
-0.0540473
0.0380393
-0.0216115
-0.0040649
-0.00528376
-0.00824794
-0.0096059
0.00243946
0.099841
-0.00265339
-3.17692e-05
-8.04065e-05
6.86525e-05
-0.0259024
0.148823
-0.0055893
0.039376
-0.0845712
0.390739
0.00467968
0.00990778
-0.00708759
0.410321
-0.0015023
0.300449
0.171452
-0.000167631
-0.0273295
-0.00459692
-0.0416021
0.000819733
0.0623654
0.00413686
0.00918062
-0.00121487
0.116398
0.156928
-0.0415354
-0.0274727
-0.00325207
-0.0226409
-0.0159998
0.650589
-0.0557143
0.00650397
-1.20082e-06
-0.0171391
-0.0032034
0.024759
-0.0701592
-0.115479
0.424536
0.137432
-0.0911265
0.163202
0.400624
0.0401099
0.0017102
0.257994
-0.00129158
-0.000264432
-0.0219291
0.000124918
-0.105629
-0.00110547
-0.0292878
0.00275669
0.165946
-0.00251466
-3.46816e-05
-0.0747521
0.00249967
0.0027591
-0.0459399
-0.0596601
-0.122298
0.148219
0.121563
0.125269
-0.000295996
0.0270261
0.0660796
-0.000756759
-0.0208471
0.000881464
0.00686804
-0.00487445
0.00691639
-0.00111503
0.0465852
-2.82937e-05
0.000287048
0.00286508
-0.0268052
0.0288381
-0.0276438
-0.0309376
-0.0334597
-0.0855213
0.00648234
0.247022
-0.135726
-0.00897554
0.601302
-0.04612
-0.0102113
-0.0310525
-0.0086778
-0.0252993
-0.0133164
0.0380941
-0.0689233
-3.73855e-05
0.0334492
-0.000138604
0.351076
-0.00489119
-0.00666899
-0.0177709
-0.000271886
0.370756
0.302895
0.00991562
0.0236933
-0.0491965
0.463107
-9.11109e-05
0.0180008
-0.022329
0.0998633
0.558495
-0.0275753
0.135136
-0.0029236
-0.000293144
0.0128463
-0.129635
0.38906
0.00682522
0.213841
-0.0094659
0.400406
0.285671
-0.0118732
-0.0101253
0.00306657
-0.0605341
-0.000122648
-0.0164411
-0.0586055
-0.0518538
0.0161658
0.0132048
-0.000182356
0.303386
-0.00174534
-0.000148966
-0.0291119
-0.000704124
-0.00032168
0.00442488
0.19203
-0.0671113
0.517721
8.87483e-05
0.18594
-0.0233281
-0.000109559
2.5561e-05
0.164028
0.19001
-0.00550303
0.175447
3.62397e-05
0.184973
-0.122173
-0.0124163
0.422454
-0.0417138
0.017916
-0.0297913
0.17997
0.183269
-0.0202182
-0.0253466
-0.00813399
-0.0038887
-0.000287166
-0.00188041
0.251958
-3.90763e-05
0.180832
-0.0664191
0.32982
0.171933
-0.0596934
0.500475
-0.00220539
0.00465928
-0.0450612
-0.0242205
-0.00855467
-0.0259875
0.0292518
0.593433
6.02599e-05
-0.00259489
-0.0417224
8.49808e-06
0.357727
0.00253922
8.05372e-06
0.0002733
0.000543878
-0.0216398
0.0237414
-0.00209493
-0.000121818
-0.00905932
0.00295781
-0.0751198
-0.055105
0.0294599
-3.13311e-05
-0.104974
-0.0160782
0.018955
0.327457
0.00155295
0.0460975
0.000216633
-0.0154219
0.0908912
-0.00858645
0.202638
-0.0158304
0.0208275
0.0942598
0.132167
0.00556484
-0.0127078
0.135785
-0.0604269
0.389409
-0.0114946
0.223113
-0.0114179
-0.00156722
0.12901
-0.000721911
0.0856099
0.00262036
7.00289e-06
-0.0798908
0.0956538
0.00196337
0.027185
-0.0150593
-0.103039
-0.00293567
-0.0285862
-0.00225897
-0.0108622
-0.0528673
-0.0317557
-0.0120166
-0.000206333
0.414962
0.0502719
0.038901
-0.000275358
0.286579
5.39458e-06
-0.000253826
0.0667243
0.000395774
0.0739127
0.0601989
0.0226033
-0.0481547
-0.0875285
-0.108491
0.0018108
-0.044864
-2.65484e-05
0.00481099
0.195211
-0.0193268
-0.00372342
-0.0127294
-0.00262613
-0.000559393
0.618307
-0.0121221
-0.000750407
-8.13959e-06
0.1353
-0.0336126
-0.000451492
-0.00368174
0.156792
0.0703228
-0.0407552
1.77041e-06
0.175892
-0.0193099
0.158628
0.0227113
0.0278994
-0.0334399
-0.00013176
0.0919799
0.0607072
-0.0808865
-0.0624312
0.255547
0.00839475
0.126394
-0.00380331
-0.0275784
-0.000537026
-0.00275185
-0.000147161
0.148328
0.184794
-0.00199699
0.0250781
-0.0204063
-0.0524505
-0.0574553
-0.00248241
0.0164477
0.585312
-0.0777778
-7.65775e-05
0.0715048
-0.0051225
0.495001
-0.0149255
-0.0151698
-0.00608134
-0.0174496
-0.00941329
-0.00962124
-0.00483335
0.00201072
0.0224016
0.000146211
-0.135936
-0.0673294
0.332195
-0.0393014
0.085191
0.00280155
-0.0454213
-0.0170522
0.204536
-0.00909286
0.000147159
-0.0189565
-0.00707375
0.0196368
-0.030447
-0.0263808
-0.0466635
-0.0173123
-0.00976518
-0.0555047
7.61354e-06
0.0348166
-0.048668
0.0630398
-0.0554181
0.0855416
-0.0628157
0.281295
0.00192403
-0.0344846
-0.0198294
0.52605
-0.111221
-0.0156076
-0.0802969
-0.0346454
-0.0756429
-0.0475393
0.130723
-0.00370658
0.247324
0.0120949
-0.000537159
-0.00166856
0.0637863
0.669765
0.00137315
-0.0241203
0.164485
3.06272e-05
-0.024314
0.0359763
-0.0121542
0.0122705
-0.00221605
-0.0325098
-0.00418411
3.9191e-05
-0.0398085
0.224679
0.000381951
-0.0196242
0.0025848
0.163698
-0.000522521
-0.00167553
-0.000489877
-0.0010724
-0.0580506
-0.00115007
0.00311372
-0.0210619
6.05859e-05
-0.0857803
-0.130509
-0.0936343
-0.0192221
0.0198241
-0.000291206
-0.0155281
-0.0507556
-0.0597543
0.332911
-0.00172777
-0.0540284
-0.00626019
0.00495741
0.0998526
0.000601647
-0.000215963
0.00651325
-0.0593105
0.0191045
-0.00395439
-0.00277425
-0.0471803
-0.000241346
-0.0032234
-0.0159492
0.285874
0.218113
-0.0406799
-0.0475113
0.00991122
0.00370871
-0.0498422
-0.0541188
-0.0164135
-7.93202e-07
-0.0424816
-0.0287203
-0.0584693
0.0029948
-0.0435281
-0.000545151
-0.00399376
0.175965
-0.0321863
-5.62572e-06
-0.00375567
-0.100816
-0.000227724
-0.0205524
-6.97865e-05
0.00489289
-0.073599
-0.0386932
-3.09337e-05
4.12715e-05
0.116663
-0.0406819
0.374892
0.214434
-0.0352551
-0.000813064
-0.0154507
0.000296971
-0.130274
-0.070825
-0.100679
-0.0191324
0.189593
0.00911288
0.000370694
0.00579707
-0.0934244
0.00265804
-0.0253092
-0.0492751
0.000542105
0.0213791
0.0644996
0.00821042
-0.0261081
-0.062689
0.173094
-0.0304318
-3.84564e-07
-0.0801921
-0.0521496
-0.03637
0.00465942
0.00102412
0.00695501
-0.0728714
0.0307112
-0.030079
0.0685176
-0.0428246
0.00693979
0.018623
0.0100566
-0.0306722
-0.117767
-0.000141673
0.134
0.191513
0.00784968
0.107896
-0.0582924
0.0427979
-0.0408786
0.182778
0.0903092
0.577844
5.838e-06
0.0804868
0.153158
0.0147889
-0.0015315
-0.0165662
-0.0556964
5.71161e-05
-0.0165888
-0.0425213
-0.0180837
-0.0199378
0.00017592
-0.112062
-0.00039338
-0.000909408
0.223426
0.00615781
-0.0549396
0.0192956
0.190987
0.00991817
-0.000417771
-0.096473
0.00758777
0.351855
0.00131511
-0.0441643
-0.00023589
-0.00057735
0.00613213
-0.0500525
-3.3627e-05
-0.0101017
0.0265526
-0.00200942
4.10458e-05
-5.05365e-05
0.137997
-0.0493049
0.00660342
-0.00114619
0.0083575
0.015525
0.00815309
-0.000306518
0.307099
-0.0873724
0.202187
0.2546
-0.000221107
-0.059156
0.0798876
-0.000801781
-0.000278395
-0.000451446
-0.0292103
0.0112533
-0.0126397
-0.0196972
-0.0524909
0.152087
-0.08008
1.29081e-05
-0.0175823
-0.0170582
-0.0310683
-0.00432816
0.00585956
0.00127014
0.0267942
-0.000535165
-0.000245947
-0.015868
-0.00426364
-0.0223164
-1.63862e-05
-0.0135576
0.0317346
-0.0330653
-0.0339157
-0.00805823
-0.0108167
-0.00849939
-0.0051334
0.0053695
-0.00877567
-0.000109746
-0.000418783
0.021722
-0.011237
-0.00486756
0.00822317
0.00218102
-0.0902583
-0.0102398
0.141317
-0.0115568
-0.0447244
-0.0224989
-0.0204177
-0.0141918
-0.00372019
0.00223179
-0.00349148
-0.0127872
-0.0146416
0.160445
0.115665
0.0390854
0.325678
-7.50807e-05
-0.00331791
-0.0149139
-0.00757394
0.0421947
-0.0182662
0.0329125
-0.0042971
0.1661
-0.00193613
-0.00162636
0.00881504
-0.0181349
-0.000226195
-0.0204633
-0.00576707
-0.0187632
-2.11531e-05
-0.00648584
0.00198844
-0.015917
0.0266388
0.0341046
0.0185716
-0.0127874
-0.0278174
0.104433
-0.0012814
-0.00195357
-0.0021021
0.488813
-9.20293e-05
0.0560994
-0.0190853
-0.0184323
-0.0234702
-0.0362134
-0.02542
-0.0300622
-0.0166276
-0.00452019
-0.000100795
-0.00420687
-0.0195363
0.0886544
0.00169037
0.0674995
-0.0289483
-0.0121456
-0.000919193
-0.0256261
-0.000106043
0.133145
-0.0267105
-0.0233235
-0.0213564
-0.00396361
-0.0293242
-0.00167065
-0.0351876
0.0917124
-0.0230071
-0.0590627
-0.00145505
-0.0239791
-0.016713
0.0150739
-0.00319603
0.128145
-0.00237675
-0.017275
-0.000679108
0.144646
-0.0338713
-0.0235084
-0.00320615
-0.00907593
-0.00272919
0.140145
-0.00535758
0.108573
-0.00480714
-0.000819513
-0.00125473
-0.00230931
0.0844806
-0.0507137
-0.00662587
0.000340419
-0.00775552
-0.0131019
-0.000905718
-0.0147638
-0.0142711
0.0530901
-0.00484784
0.00345449
0.482969
-0.0516211
-0.0254296
-0.048528
3.49989e-05
0.0692456
-0.00348855
-0.0238461
-0.00548075
-0.0312095
0.00403376
-0.000538168
-0.00286622
0.00325476
0.182571
-0.00569926
-0.00177509
-0.00454584
-0.0457161
-0.00801158
-0.0198115
0.00423931
-0.00838419
-0.00864746
-0.00322888
0.183486
-0.0395251
0.00319377
-0.00415799
-0.0244491
-0.0132017
-0.0421723
-0.0013995
0.0820183
0.0219598
-0.00757914
-0.00171959
-0.0127949
0.502087
0.183884
-0.0107263
-0.000578817
-0.00236203
0.000633203
-0.00390953
0.0201494
-0.000417907
-0.016422
-0.00195334
-0.0156402
-0.14775
-0.0010637
-0.011182
-0.0013454
0.298206
-0.00627334
-0.0110915
-0.0470004
-0.00191452
-0.0265393
-0.0502681
0.436195
-0.010212
-0.0108151
-0.00209641
-0.000468042
1.36622e-06
-4.03799e-06
-0.00965935
-0.000669478
0.0534382
-0.000672218
-0.00179913
0.00803091
-0.000259493
-0.0382038
-0.0505393
0.0168411
0.0375306
0.025307
-0.0480909
-0.0404567
0.0809694
0.0641468
0.086751
0.110548
-0.0121893
-0.000852652
-0.00575353
-0.0556755
-0.00346389
-0.0140441
-0.0493182
0.286131
-0.0443279
-0.000483726
-3.08005e-05
-0.00145545
-5.2092e-07
0.007708
-0.000561958
-0.00461114
-0.0407803
0.000541354
0.00256859
-0.000220814
0.0460277
-0.0143501
-0.0472389
-0.00121257
0.30716
0.21252
-0.00959284
-0.0654929
-0.0248679
-0.0216529
-0.0134753
-0.0018581
-0.0635166
-0.0312167
-0.0369001
-0.113609
-5.18454e-05
0.15483
-0.0169541
-0.00917148
-0.0289693
0.0181091
-0.000533423
-0.00802428
-0.00134946
0.0109776
-0.00153498
0.111204
0.00034974
0.00989989
-0.000415969
-0.106649
0.0086681
-0.000768681
0.00313138
0.000408426
-0.0413959
0.092526
0.000627142
-0.00142856
-0.000126702
-0.000576625
-0.000506217
-0.050634
0.112521
-0.0387281
-0.000270636
0.00835362
-0.000459939
0.209802
-0.0499666
0.210586
-0.0369975
-0.000451392
-0.000288618
-0.00703452
-0.00547638
-0.000632632
-1.84579e-05
0.0235327
0.0272499
-0.000238203
-0.000336325
-0.0180231
-2.22176e-05
0.152177
-0.000922946
-0.0442592
-0.0174349
-0.00613051
-0.0463375
-0.0508948
0.137165
-0.0215106
-0.0184311
-0.000317499
-0.0471296
-0.0188324
-0.0318604
0.0163411
0.329575
-0.00116166
-0.0492467
0.0103161
0.271381
0.0363498
-0.000120482
-0.0058332
-0.00396668
-0.00480947
-0.040247
0.071939
0.000178053
0.0129784
0.00289207
0.0526173
-0.000521533
-0.000124068
-0.0921129
0.240816
-0.0456594
0.10997
-0.00126512
-0.000203668
-2.40393e-06
-0.0751931
-0.0355536
-0.000342226
0.0730779
0.0109986
-0.00518334
0.399875
-0.000395273
-0.00361245
-0.0491101
-0.0264465
-0.00224201
0.122094
-0.0543545
-0.000166945
0.00928276
-0.000176124
-0.000101762
0.114836
-0.00265738
-0.000453785
-0.0429506
-0.0220719
-0.00341467
-0.0316679
0.00235982
-0.0205792
0.00161872
-0.00341133
-0.0531755
-0.0327978
0.0118426
-0.000887
0.134234
0.190443
-0.0855021
0.0088826
0.0183964
-0.00416441
0.15156
0.0812126
-0.0246642
-0.000163642
0.00920804
-0.0456291
0.00798021
-0.024987
-0.00207369
0.0320152
-0.0245826
-0.000138064
-7.42467e-05
-0.0379395
-0.0234832
-0.0231031
0.00919565
-0.0267522
-0.0377297
-0.000154707
-0.00137966
-0.000209114
-0.0305668
-2.4246e-05
-0.00190211
-0.0424494
-0.0811731
0.0329934
-0.00291525
0.00411262
-0.019341
-0.0226718
-0.000129752
-0.0388213
0.0108483
0.142912
2.29739e-05
-0.000112058
0.145801
-0.00247012
-0.0713468
-0.0344002
0.00332884
0.000469754
-0.0548617
-0.0347796
0.149679
-0.0464535
-0.00144607
-0.00953018
-0.0445951
-0.000577058
-0.000241748
-0.000893174
-0.0328181
-0.0427681
0.081173
-0.000211407
0.505825
-0.0663062
0.000114176
-0.000964144
0.000247759
0.000282946
-1.4581e-05
0.000135948
-0.0438812
-0.000716757
0.000426882
-0.000199229
0.127555
-0.00552947
-0.000194227
-4.52957e-05
0.322574
-0.0194521
-0.0557744
0.00110329
-0.00072026
0.0445526
-9.90075e-05
-0.0126177
-0.131108
0.0021412
-0.00637898
-9.70299e-05
-0.000207644
-0.0271353
-0.0551078
0.00710921
-0.104161
-0.0601642
-2.81735e-05
0.0206258
0.0310145
0.0984808
-0.00168509
-0.000157312
-0.0469595
-0.00586216
-0.000497833
-0.0413744
-0.000138069
0.0302892
-8.98363e-05
-0.00124988
-0.0769516
-0.00209908
-0.0483833
0.455559
-0.00162237
0.000270302
-0.046063
-0.0468603
0.00887048
0.00464315
-0.000151468
-0.0274396
-8.48065e-05
0.180136
0.625398
0.0291056
0.00298743
0.00353695
-1.88587e-05
-0.0248331
-5.80306e-05
-0.0072467
-0.00166721
0.000365397
-0.00326452
-0.0092422
-0.000123052
0.000853012
-0.00818619
-0.000311912
-0.00965659
-0.0150615
-0.00928842
-0.00114446
0.55486
-0.000689523
0.00239245
0.000240046
0.0135985
-0.0416121
0.00938515
-0.000177467
-9.99812e-05
0.00258382
-0.000110071
-2.96725e-05
-0.0110945
0.000683316
-2.41268e-05
-0.0428188
-0.00225724
-0.0463939
-0.00161027
-6.80553e-05
-0.00303869
-0.00948228
-0.0140428
-0.0222464
0.00227642
0.00051508
-0.000461293
-0.00190786
-7.96779e-05
0.255448
0.00152871
-1.98298e-05
0.000569719
-0.00198621
-0.000355714
-0.0520479
-0.0452896
-0.000131011
-0.00666364
1.2875e-05
-0.00260753
-7.34059e-05
0.0336036
-0.000140485
-0.000186078
-0.00349747
-2.36767e-05
0.0132344
-0.000224598
-0.00123295
0.01834
1.16619e-05
0.361031
-0.0448278
-0.0356736
-2.52538e-05
-2.09676e-05
0.00182319
-0.00115642
-0.0434678
-1.70556e-05
-2.42353e-06
0.000725407
-2.91115e-06
0.00037129
0.000440124
-0.000451926
0.000771329
-0.0439085
0.469398
-0.0305076
0.314528
0.00888953
-0.0157064
-1.85516e-05
-0.000861117
-0.0113983
0.000140912
0.000278344
0.000166093
0.022806
-0.00134081
-0.000216592
0.487572
-0.000534027
0.000571971
0.000492715
-4.59274e-06
-0.0939766
-0.00212767
0.00111184
0.000122576
-0.000531062
-6.80968e-05
-0.000928295
-0.0375185
-0.00040902
-0.00158658
-1.43986e-06
-0.000634308
-0.000256259
0.176519
-0.000433476
-0.000271969
-0.0564885
0.00369728
-8.55895e-05
-0.00129813
-6.11648e-05
0.159815
-0.0595239
-0.000296092
-0.000380147
-0.00187571
-0.000156068
0.0509396
0.0915803
0.00256421
0.000496595
-6.76011e-06
-8.85905e-07
0.0417914
0.000248345
-0.0503336
-0.0233295
-0.0147449
-0.148259
0.563161
0.00191343
0.15798
-0.0136558
-0.0258369
0.162986
-0.000350476
-0.0539858
-1.28004e-05
-0.00845265
-0.0412903
5.35153e-05
-0.0427518
-0.000923708
-0.0093989
-0.00537384
-0.0364195
-0.0362867
-0.00313929
-0.0512604
-0.0373494
-0.000184182
-0.0113142
-5.23524e-05
-0.0324498
-2.77192e-05
-0.000183276
0.0102075
0.154154
-2.25199e-08
-0.038792
0.00347812
7.37035e-05
-0.0193311
5.48543e-06
-0.0126514
-0.000255038
-0.0330921
0.00012432
-8.61392e-05
-0.00197874
-4.82182e-05
0.150014
-0.0269456
0.0337079
-3.04726e-05
0.00061393
-0.0285219
6.4872e-07
-0.0477184
-0.0545275
-0.046404
0.511206
-0.00612481
-1.74097e-05
0.0247445
-0.0357699
-0.00248246
-2.57777e-05
-8.43786e-05
-0.0401224
0.000124627
0.000854407
-4.57e-07
0.000155903
-0.0248647
-0.00267134
-0.0601804
0.080757
-0.00505835
-1.08644e-06
0.0058587
-0.0443137
-2.05818e-05
-1.37646e-05
0.000313799
6.26727e-05
0.000396243
0.140439
0.0331592
5.46161e-05
1.04514e-05
-0.0541944
0.18986
0.16208
-4.43677e-05
-0.0315735
-0.0178921
-0.00995133
-0.0405745
-0.0081807
-0.00277423
0.132403
-4.11144e-05
-0.023538
0.157657
-0.0415336
-1.77243e-05
-0.0507692
-0.000171731
0.230096
0.0257155
-1.48058e-05
-2.72853e-05
0.167563
3.30521e-06
-0.000178636
-0.0109155
1.20098e-05
0.219088
0.00317579
-0.00691652
-0.0527154
-0.00357492
-0.0633665
0.172728
-0.012159
-0.0415998
0.000971862
-1.93715e-05
-0.000990714
-8.52241e-06
-1.60653e-05
0.0177414
0.171436
0.14108
-0.000427798
0.23786
-0.0113369
7.11584e-06
-0.0387755
-1.79964e-05
-0.0247829
0.0267855
-0.0135989
0.00429913
0.00180737
-0.00865417
0.000244089
-0.00160312
0.0179381
-0.00272396
-4.76369e-05
2.85403e-05
-6.02047e-05
0.0300437
5.315e-05
-0.0206715
0.251541
-0.00566454
4.91027e-05
-0.00328228
-1.03823e-05
0.00330851
-0.000346087
-6.41008e-05
-8.29348e-05
-1.29695e-05
0.201147
-0.000149345
0.209755
-0.051308
0.00010948
-0.0443829
-0.000471659
0.147787
0.501924
-0.00134039
2.31843e-06
1.5043e-05
-2.07899e-05
0.10757
5.55657e-07
0.00101397
-0.0216889
0.199536
6.25715e-06
1.42689e-05
2.74327e-06
2.4033e-05
-0.0185663
1.67082e-06
0.197315
-0.0149248
-0.000119631
2.87945e-05
-0.00195383
-0.0252648
1.25666e-06
-5.51622e-05
0.156758
3.26383e-05
-0.0280468
-0.0498281
0.000129198
6.74416e-07
-0.11003
1.12397e-06
0.147295
1.41994e-05
-0.000429974
1.09797e-05
-0.000169406
0.0859257
2.8391e-06
-0.00156188
7.55036e-06
0.0114007
-0.00321369
-0.00598622
0.000673775
0.144856
-0.000261477
-7.85199e-05
-0.00822616
-0.0079462
-0.000234646
-5.27237e-05
-0.000854714
3.83656e-05
0.103371
-0.0096594
0.491019
-8.28551e-07
-0.00710769
-0.00015247
0.111295
5.45521e-05
-0.0236193
2.25588e-05
-0.00150148
-0.0292193
-0.000222684
-0.0143163
-0.0420862
0.00481433
-9.32885e-06
-0.0485317
-0.000320924
-0.000286398
-0.00517991
-0.0141471
0.00122884
-4.91581e-05
-0.000418132
-0.000881305
-0.00121234
1.22801e-05
-0.00114796
0.48315
9.39057e-05
-0.00307442
-0.0303789
-0.0591593
-0.0523806
-0.0405401
-0.0195264
-0.000508294
-0.0154532
7.37887e-05
-7.92602e-05
0.483377
-9.12736e-05
0.141823
-0.000432266
0.000386627
-0.00107644
-0.0645071
-0.000400986
0.000537388
-1.51183e-05
-0.000376666
-1.58659e-05
-7.72756e-05
-0.0135061
-0.000106607
-2.72835e-05
-8.05168e-05
0.000140549
-1.0331e-05
-0.0368668
0.154902
-9.74393e-06
-0.000576448
2.79811e-05
2.97193e-05
-0.000794695
8.68864e-06
-0.000860658
0.000273897
-0.000351646
-0.0528707
-0.000660258
-0.00173343
4.51469e-06
-0.00150568
0.000325475
-1.47413e-05
-9.66931e-06
1.28532e-05
-0.000757987
0.000523242
-0.0381033
-0.024283
-0.0532064
0.00053702
-0.00179129
-0.0399104
-0.0535299
-9.12154e-05
0.0141578
0.00649838
-0.000996991
-0.0108024
-0.0464486
0.429012
-0.000401338
-1.47564e-05
0.000845492
4.72329e-05
1.69949e-05
0.0693376
0.00343674
0.080231
-0.0326915
0.418464
-0.00050107
1.96716e-06
0.000146419
-1.78166e-05
-0.0012961
0.130566
0.210218
-5.43757e-06
-0.000165028
-1.72235e-05
0.197846
0.0137875
-0.00571959
1.12574e-05
1.86164e-05
0.00690101
-0.000664413
-0.0586271
-0.0150815
2.27081e-05
0.00333721
-0.0276119
-5.83349e-05
0.00172193
-6.55891e-05
-0.0388456
-0.0016419
0.126905
1.591e-05
0.00160434
-0.000166771
1.42856e-05
0.000166669
-0.0204458
1.40238e-05
-0.000869106
2.14132e-05
-0.0175476
-0.038385
-0.00295049
-0.00686617
-0.00785746
0.00863268
-0.00798177
-0.00231099
6.47231e-05
0.000101069
1.94487e-05
1.70302e-05
-5.45367e-05
0.00854558
-0.0487182
0.000475672
-0.0391705
-0.00288109
-0.0438848
8.38688e-05
-3.05083e-06
0.00125233
-0.0994084
1.72541e-05
-0.0386268
-0.0133989
-0.0923419
-0.039797
2.54655e-05
-0.00321911
0.000187394
-0.136614
0.123675
1.04349e-05
-0.0497414
-0.0199572
-0.00394452
3.61585e-05
-8.45625e-06
0.0205388
-0.0147893
2.26441e-05
-0.00623315
-5.2065e-06
0.000208322
0.111068
-8.19581e-06
2.23775e-06
-8.3432e-05
3.29649e-05
0.000862093
8.43227e-05
-0.0048513
0.000225814
-0.011355
0.00105747
-0.00019904
-0.0287638
-0.0365751
-0.00576527
-1.47446e-05
2.03826e-05
-0.0519296
0.00546877
-0.0401189
2.69614e-05
-0.00475761
-3.53547e-05
2.31289e-05
0.0581081
-0.00640125
-0.00259186
-1.88896e-06
-0.0158723
4.73705e-05
-0.0549575
2.53861e-05
-0.0618368
1.74516e-05
-5.84252e-06
8.14608e-05
0.000979976
-0.083033
-0.016004
-0.0571275
1.47838e-05
9.05922e-05
-0.0628678
-0.0233095
-0.00765231
-4.80257e-06
-0.0338434
-0.0428158
-0.0624695
2.69812e-06
-7.58257e-06
3.40797e-06
-0.073916
-0.0557183
0.000692685
-0.00994359
-5.44912e-05
0.148739
9.07795e-05
1.31727e-05
0.00014489
-9.52656e-06
-8.35798e-06
-0.00335359
0.000108877
-0.0023884
-0.0536252
-0.0116985
-0.0476716
3.77811e-05
-4.94425e-05
0.0413214
-0.0477473
-0.00436071
0.100424
3.36662e-06
-1.30842e-05
-1.19585e-05
0.0503645
0.000166752
-2.51548e-06
-4.91484e-06
-0.0513947
-0.0137633
4.60859e-06
7.43034e-05
-0.00836773
-0.00586396
0.000411834
0.211333
-0.0497645
0.000134194
0.634394
-1.87928e-05
-0.000653262
-0.00783976
-0.0618443
5.6186e-06
-3.29392e-06
2.05094e-05
0.00455043
-0.0291716
-0.000321191
-0.0415868
-0.00700939
2.53087e-05
-4.52523e-06
-0.00913128
-0.00612215
-0.0266988
-0.0776969
-0.0382065
-0.0331901
-0.0213531
-0.0237911
-6.08449e-05
0.000340573
0.000763731
0.000510649
-7.70305e-05
0.000731299
2.88179e-05
-8.85506e-05
-0.0108404
-1.16342e-05
-2.77623e-05
0.0292803
-0.0283777
-0.00015601
-3.96049e-05
-5.56941e-06
0.232633
-0.00603165
0.000750378
-0.0246473
0.000219371
0.000190725
0.00016491
-4.69886e-05
0.000464355
-0.0325893
0.0141253
-8.85245e-06
-0.000157418
-0.0358317
-0.0280453
0.0445709
-0.000465072
0.00174775
0.0167172
1.29089e-06
5.76428e-05
-0.0414677
2.11614e-05
0.151681
7.04519e-06
0.00398316
0.000160064
0.000214464
-0.0569993
-0.00666032
-0.0158562
-0.0022237
2.51553e-05
0.00585428
0.0558385
-0.011045
-0.000128842
0.0853648
0.147576
3.13178e-06
-0.0436339
-6.42822e-05
-1.00699e-05
-4.29141e-05
-0.000536128
0.0185242
-6.62063e-06
0.000237263
-0.0216065
-0.0224952
-0.0193275
0.295722
1.60552e-05
-6.64185e-05
0.156326
-0.00681945
-0.0034915
-0.00061679
0.153664
4.15365e-05
-0.000300612
4.30385e-05
2.44939e-05
2.99212e-05
3.41557e-05
7.03945e-05
-0.0156529
7.3106e-06
-0.00306854
-0.0376375
0.211051
-0.000137886
-4.76436e-05
0.00446032
0.0765869
-0.0410782
-0.000709042
-0.0573048
0.293069
4.1034e-05
0.39112
-4.38259e-06
0.00315941
0.0226068
0.000417915
0.426915
-1.5063e-05
-5.93093e-06
0.00109972
2.93975e-05
-0.0008119
0.000251604
9.93526e-06
-0.00181933
8.4935e-06
-0.000138884
-0.00304471
0.226366
0.0445088
0.0205511
-0.036969
-4.9801e-06
-1.78015e-05
0.0032106
-0.0478146
-9.53337e-06
-0.0393401
-5.15841e-05
0.0932457
0.0560277
-0.0289109
-0.00126003
-0.0108907
-0.000922392
-0.0131862
0.00327999
-0.00678958
0.057
1.97613e-06
0.182215
0.00906181
-0.000563252
0.189466
-0.0119743
-1.19383e-05
2.16264e-05
6.34718e-05
-0.000199938
-0.000116859
0.23069
-0.000918183
0.235652
-0.00102504
0.151998
0.198111
0.0650983
-0.00640114
-5.25278e-06
5.99177e-05
-0.00953178
-0.0977363
-0.0417098
0.00141881
1.82442e-05
-0.032637
-0.000306491
4.52735e-06
0.000962447
-0.000999195
-0.000624369
0.0304193
7.19336e-05
-0.0407668
0.0512868
5.52358e-05
0.000256957
-0.0130398
-0.0500674
-0.000687396
-0.000490321
1.1617e-05
0.000239468
0.0195161
-0.0153193
-0.0414254
0.0012455
0.053533
-0.0336859
3.3448e-05
2.11005e-05
0.00751965
-8.71904e-05
0.0451146
0.000723285
-0.0121292
-0.000362582
0.0015413
-0.0317235
-3.52277e-05
0.000470368
-0.00227476
-0.0611992
0.114233
-0.0517046
-0.0238025
-0.000159238
-4.37903e-05
0.00635656
4.37896e-05
-0.0613339
-0.0554507
0.000539584
0.00320304
0.00358281
-0.0826372
0.0006116
0.000182055
3.53882e-05
-0.0358111
2.68154e-05
0.000534687
0.110615
0.16512
-0.096785
0.0450899
0.0437276
0.00917406
-0.000154364
0.0102762
0.000117748
8.20477e-06
-7.20803e-05
-6.13322e-07
2.28681e-05
-0.000337714
-0.00696365
-0.0546188
-0.00885433
-0.0260156
0.047691
0.0401049
0.00385269
-0.0535323
0.000154025
0.00436725
0.0105626
-0.000366909
0.0662537
-0.0011873
-0.00998183
0.011078
0.00520512
0.000929521
-0.00371764
0.0384339
0.000783604
-0.0175907
-0.0148219
0.513091
-0.0221757
0.0719169
0.00584541
-0.0335006
0.00207883
9.66233e-05
-0.00237862
5.28878e-05
-0.00243969
-0.022593
-6.68357e-05
-4.67499e-05
0.236274
-0.00305474
-0.0361635
-0.0167706
0.000193242
-0.00138036
-2.23103e-05
7.09851e-06
0.0337831
3.80375e-05
-0.00272157
0.0662333
0.00588586
0.00106645
0.0169985
-0.00528698
0.00394995
-0.100303
0.000823315
-0.00409404
-0.047746
-0.000809783
-0.00738398
0.000712296
0.00069857
0.000940945
0.0323354
-0.000305086
0.00533753
-0.0458634
-0.0185528
0.000293964
-0.0454053
-0.0134864
-0.015361
9.84657e-05
0.00623776
-0.0591262
-0.000789311
-0.00448685
-0.042223
-8.63123e-05
-0.00109256
0.199749
-0.0198607
-3.95908e-05
0.0077645
-0.043873
-0.000983741
0.180725
-0.00210018
0.000963472
0.0546759
-0.00133302
0.00781523
0.117348
5.53127e-05
0.00111285
0.000169574
3.32499e-05
-0.00415044
-0.0067444
-0.000129928
-0.0214849
0.0861668
-0.0322929
-0.0615195
0.00110377
-0.00302789
-0.000586584
-0.0452255
2.45424e-05
0.0147361
4.05257e-05
-0.0142749
-0.00181382
-0.00457843
-0.123321
0.0983421
-0.0658302
-5.09229e-05
0.16462
-0.0018395
-0.00245916
-0.0498782
-0.0694051
-0.0141076
-2.86777e-05
-0.00107633
0.00681834
-0.00286494
-0.00435714
0.000410148
0.0774343
-0.0383626
-0.0100974
-0.00611703
0.0182381
-0.0026891
-0.00129473
0.00161657
-3.92248e-05
-0.00286129
0.0974929
0.000750085
-0.108879
-5.59956e-05
-0.00670859
-0.00347955
-0.0746058
-0.0104638
-0.0867675
-6.158e-05
-5.97528e-05
-0.00426193
0.00999337
0.00170289
-0.0988539
0.0725455
-0.0419207
0.000178507
-0.109221
4.70667e-06
-0.115781
-0.0226295
-0.14126
-0.152997
-0.163331
-0.174525
-0.183937
-0.1789
-0.167177
-0.142972
-0.122782
-0.0100001
0.0319671
0.0783757
0.158182
-0.00734819
-0.00678688
0.047004
-0.0170016
0.000850128
0.0122673
-0.0352455
0.000485847
-0.000648488
-2.78767e-06
-0.0129276
0.016671
4.1897e-05
-0.000307687
-0.00951272
-0.0070799
-0.134915
-0.012842
-0.0478329
-6.37965e-06
0.000539804
-4.97321e-05
-0.0491101
-0.00805071
-0.032141
-0.0102587
0.0016289
0.000208197
0.00445255
-3.14095e-05
-0.0131667
-1.62193e-05
0.000353216
-0.00609774
-0.0103989
-0.000280302
0.000311012
0.044951
-0.00944725
0.0519361
-0.124611
-0.00805718
-0.0553254
-0.0167879
0.00347981
-0.019239
-0.00301865
-0.0112946
-0.0116668
0.328586
-0.00125531
6.47079e-05