/*--------------------------------*- C++ -*----------------------------------*\
  =========                 |
  \\      /  F ield         | OpenFOAM: The Open Source CFD Toolbox
   \\    /   O peration     | Website:  https://openfoam.org
    \\  /    A nd           | Version:  7
     \\/     M anipulation  |
\*---------------------------------------------------------------------------*/
FoamFile
{
    version     2.0;
    format      ascii;
    class       surfaceScalarField;
    location    "3";
    object      phi;
}
// * * * * * * * * * * * * * * * * * * * * * * * * * * * * * * * * * * * * * //

dimensions      [0 3 -1 0 0 0 0];

internalField   nonuniform List<scalar> 
43924
(
-594.965
663.307
-68.3419
1060.12
-1070.87
10.7465
-335.598
383.473
-47.8756
232.156
-260.466
28.3096
-498.911
498.911
226.3
-267.26
40.9599
-356.938
361.68
-4.74209
21.2039
-557.879
536.675
662.867
-833.098
170.231
-1009.21
1102.2
-92.9833
548.895
-137.501
-411.395
-529.654
537.401
-7.74661
-687.991
582.745
105.246
-859.826
868.889
-9.06339
258.871
49.479
-308.35
386.753
-10.7299
-376.023
814.766
-666.827
-147.939
-390.106
387.861
2.24468
161.7
314.758
-476.458
291.657
-358.603
66.9455
-594.188
81.627
512.561
724.101
-61.2337
50.5883
-386.186
136.687
-489.867
353.18
245.305
-142.011
-103.294
1065.26
-5.13629
659.965
-681.13
21.1647
-271.945
-15.1102
287.056
289.041
-30.17
-440.116
543.86
-103.744
948.468
-250.336
-698.132
-663.487
751.686
-88.1989
238.387
-228.366
-10.0218
476.249
-65.4117
-410.838
144.987
-416.933
272.057
-431.61
159.553
419.876
-572.655
152.778
292.484
-34.9124
-257.572
823.202
-977.146
153.944
1060.05
-236.848
-1017.93
1035.54
-17.6074
406.615
-97.2671
-309.348
703.988
110.777
196.935
-306.654
109.719
1228.45
-777.69
-450.765
-591.361
151.244
540.823
-538.753
-2.06913
230.526
645.488
-876.014
223.158
537.339
-760.497
-113.998
533.874
-357.321
156.934
200.388
-18.7528
-224.252
243.005
-658.383
-5.10438
241.911
-15.6111
424.992
-38.2392
-256.506
-60.2744
316.78
525.57
-500.299
-25.2705
-34.2039
-559.984
-461.229
38.0557
423.173
-301.539
-19.6991
321.238
799.533
17.5771
-817.11
-409.172
570.871
-16.3455
-223.179
239.525
-210.757
482.814
-306.339
428.383
-122.044
264.236
250.558
-514.794
498.309
-130.351
-367.958
427.993
-45.1545
-382.838
-456.413
-34.1732
490.586
-986.503
-31.4253
1056.83
8.42126
285.314
299.274
-584.588
-240.167
545.371
-305.205
164.176
94.504
-258.68
-433.251
382.768
50.4828
-357.741
366.766
-9.02585
276.179
-147.68
-128.5
-251.879
-63.4407
315.32
-699.319
16.5533
682.765
409.749
-98.3063
-311.442
-258.478
258.478
96.9354
-764.533
667.597
-659.769
64.804
-947.228
848.212
99.0158
-309.58
-47.358
-32.8742
197.82
-164.946
521.392
-149.666
-371.726
-644.65
-43.3405
652.602
-69.8576
106.222
79.4516
-185.673
-352.146
83.4207
268.726
-313.164
61.2852
844.734
-621.576
553.985
-583.461
29.4763
233.138
-100.111
-133.027
-348.824
119.731
229.093
-12.86
246.493
-233.633
-846.642
847.242
-0.600751
-24.4439
-166.17
190.614
254.385
13.3215
-267.707
-711.464
12.1457
-269.753
285.693
-15.9399
778.759
20.7743
424.408
-622.775
198.367
202.277
-221.03
-749.821
807.671
-57.8501
632.748
-720.167
87.4185
74.7377
577.865
943.862
-846.97
-96.8923
-225.439
236.267
-10.8277
203.316
35.0709
352.123
112.115
-464.238
1009.09
-256.883
-752.204
19.934
562.959
-582.893
-13.5568
-586.922
600.479
538.822
-253.508
92.389
429.09
-521.479
-303.704
409.521
-105.817
76.7714
-814.833
738.061
-696.699
456.533
-17.5404
-180.866
198.406
15.5636
-851.986
836.423
-293.415
303.567
-10.1523
-43.1794
307.415
24.2081
-890.494
866.286
-338.923
323.579
15.3446
-84.7489
-305.357
2.49025
-277.973
275.482
702.085
-785.889
83.8038
726.264
-860.258
133.994
-138.613
335.548
165.436
110.744
189.616
-206.824
17.2082
272.077
-290.345
18.2685
-123.127
547.535
620.944
327.524
155.617
61.0719
-216.689
279.612
-319.566
39.9538
200.662
-221.811
21.1492
-32.6759
287.061
-330.282
-8.6416
1.17717
-191.739
190.561
229.536
-67.1123
-162.424
181.122
827.965
-198.078
-739.277
937.355
-101.226
-397.685
522.679
18.1435
221.111
-227.689
6.57834
243.209
-202.472
-40.7374
8.99872
-210.917
201.919
-394.156
626.161
-232.004
56.7632
502.378
-559.141
984.016
-886.217
-97.7993
790.991
-787.106
-3.88462
-574.397
-237.286
811.682
-146.459
722.186
-575.726
457.91
-444.342
-13.5688
-203.869
-11.5695
215.439
45.8473
-769.655
723.808
-157.584
-199.738
-251.678
237.281
14.3963
241.704
-9.54834
32.5346
1020.9
-572.444
-448.456
735.195
-933.273
-401.69
97.9856
19.6175
209.919
16.3846
-778.162
761.778
-90.4119
-856.816
419.132
-453.325
34.1935
-106.528
832.792
55.9501
-735.975
680.025
-205.969
2.09952
279.612
-8.79843
244.739
-235.941
-433.489
433.489
83.4752
678.537
-762.012
-317.892
48.1392
-578.693
598.627
308.614
-283.198
-25.4161
-777.838
-63.2745
841.113
-137.127
441.568
-304.441
424.98
96.4119
427.725
-444.355
16.63
231.403
-30.7415
-220.311
-314.684
534.995
502.626
-382.013
-120.613
-329.209
15.5119
313.697
784.461
-82.3754
-522.229
-77.406
599.635
-661.155
661.155
-121.819
499.346
-377.527
94.1102
-352.439
258.328
-920.33
345.934
307.788
-360.532
52.7447
437.158
20.7519
816.528
-505.419
-311.109
907.346
-56.024
-851.322
80.9569
152.181
-846.889
613.845
233.044
-14.2543
252.272
-238.018
-217.267
220.962
-3.69427
-39.7222
-489.932
874.442
-889.934
15.4924
-50.3518
430.459
-11.3272
787.153
-789.063
1.90959
246.169
-25.0577
10.2354
-235.674
822.142
-963.835
141.693
237.054
-345.419
108.365
570.889
-570.889
899.949
-93.2591
-806.69
594.409
73.0518
-667.46
49.703
-324.193
274.49
-193.499
258.908
-65.4092
-466.915
329.788
54.9256
732.228
-393.31
529.997
263.78
-182.823
-683.852
-176.406
484.084
-630.543
453.942
-501.614
47.6727
-889.679
1022.54
-132.863
-581.665
555.999
25.6656
505.131
-582.849
77.7185
128.138
726.109
-854.247
211.412
530.59
-742.002
723.329
505.126
321.632
738.418
329.572
-233.211
-96.3611
-298.224
298.224
371.697
-402.826
31.1289
-28.9072
1085.74
271.382
-325.573
54.1903
529.478
-472.715
-297.43
-562.396
551.979
-566.474
14.4949
-29.7085
904.15
252.029
-266.284
-199.733
191.127
8.60633
499.233
-588.074
88.8405
-197.834
958.962
-761.128
588.988
-83.8573
771.081
-384.837
-386.244
340.471
-48.8141
472.021
548.879
-188.797
155.923
-743.858
60.0054
-925.444
35.765
478.099
47.4709
-679.743
891.154
-684.857
-64.9641
194.113
-200.744
6.63153
-74.0205
915.126
-841.106
-38.0442
-817.797
855.841
188.158
-186.981
24.5587
171.323
-195.882
-10.6797
-366.123
376.802
316.433
-313.943
-598.844
204.687
-224.706
435.667
-210.962
908.531
-678.006
303.758
25.8141
265.163
10.8672
-276.03
-568.258
155.418
412.84
461.78
-34.0549
509.057
-729.368
-351.226
-6.51446
647.606
-746.147
98.5408
-239.422
160.588
78.8346
-656.417
639.039
17.3776
205.655
-214.453
78.0985
185.682
-741.965
825.44
-309.028
303.622
5.40585
68.1363
-364.502
296.365
230.672
-211.662
-19.0096
527.199
-329.047
-198.153
5.92995
-347.527
341.597
-497.819
484.262
-62.5196
269.855
-207.336
-659.002
154.423
504.579
-347.115
-1.70926
653.933
6.03273
446.737
-21.7452
-157.808
4.211
153.597
-21.3748
717.204
-695.829
-845.846
973.984
322.893
-147.46
-175.433
677.361
-775.168
97.8077
422.241
348.841
706.604
59.3704
-765.975
818.089
81.8605
539.505
-517.978
-21.5266
1093.7
-1012.29
-81.4034
6.94787
-299.473
292.525
269.934
-4.77076
103.866
141.44
212.61
-22.9933
193.697
-204.237
10.5397
148.956
146.363
-295.319
-307.5
286.798
20.7015
-154.457
-297.703
452.159
422.189
-544.008
-323.279
195.057
-199.188
4.13164
200.274
1009.07
-570.893
-438.174
526.153
-109.21
-416.943
120.295
512.453
75.4595
464.045
15.1995
-686.056
709.832
-23.7765
49.9304
-549.688
499.758
-78.0035
-250.387
328.391
-450.022
39.5875
410.435
-140.784
-336.269
477.052
780.026
-1.26681
21.6317
184.461
-363.515
179.054
162.404
-224.924
-920.519
848.619
71.8991
-300.477
306.569
-6.09184
663.715
-79.8291
-583.885
1047.03
-603.813
-443.221
193.204
-197.567
4.36279
270.864
-108.408
-162.456
-423.05
418.836
4.21366
664.355
-32.6239
-631.731
-691.327
5.27168
370.032
39.717
-555.044
434.929
120.115
581.411
-578.603
-2.80745
-855.762
44.3813
811.381
856.363
33.1999
-889.563
-425.103
284.32
-202.886
45.0778
-321.574
520.886
-199.312
-173.422
-26.3113
754.997
-793.041
-151.841
176.4
524.926
-169.97
-354.956
-123.766
-309.723
226.066
-227.861
1.79536
619.532
44.823
683.586
-608.848
17.433
-302.24
284.807
836.961
-876.171
39.2103
-292.047
8.84883
951.772
-955.268
3.49606
41.8974
205.531
-247.428
680.324
-32.7177
565.867
-593.314
27.4467
-830.855
846.419
174.502
-192.043
786.182
212.259
746.703
142.76
202.731
-345.491
-302.443
-9.94987
814.604
-57.8057
-756.798
598.212
-127.402
-470.811
233.168
-76.2346
88.8798
409.429
65.4935
-258.992
473.965
-504.051
30.0855
143.756
-350.253
206.497
137.905
389.294
44.3955
862.951
652.944
-773.379
120.435
-23.3099
975.082
-248.056
-19.1894
267.246
-224.011
205.929
18.0818
-12.8258
177.002
49.0814
453.544
335.555
-346.234
-351.623
45.2844
-334.409
32.8701
838.367
-58.3409
61.0959
-225.477
164.381
-948.425
22.981
-911.75
-36.6747
-486.157
54.1495
432.007
-727.293
895.587
-168.294
-193.224
-69.8439
263.068
-102.477
-82.5063
184.984
-163.404
-37.6092
201.013
-122.99
228.3
-105.31
853.45
399.376
-214.916
140.732
-13.3102
-568.355
-878.605
-41.9133
451.834
146.378
184.782
-506.356
200.703
-1106.91
906.209
34.6855
198.728
-233.414
-18.6252
-198.642
419.547
27.1902
89.2299
701.761
285.315
-0.0982817
-285.216
-474.059
566.448
728.656
72.9831
-801.639
-776.684
-9.20482
798.869
-854.133
55.2643
277.411
-248.796
-28.6151
79.8938
242.999
850.641
-865.007
14.3665
978.837
-862.155
-116.682
938.898
-943.509
4.61147
-382.624
-172.42
-7.99312
-873.442
541.892
331.55
-190.452
163.429
27.0237
-242.647
391.603
142.123
92.5376
-234.66
758.58
243.282
-259.627
431.851
94.3022
781.415
-693.503
-87.9119
-52.973
-97.7071
-98.6855
196.393
-311.926
260.677
51.249
862.244
-838.036
-22.4134
381.021
-358.607
-319.72
-10.5614
568.794
-584.382
15.5882
370.988
-327.545
-43.4432
-828.401
731.169
97.2326
-905.72
831.699
141.82
129.043
-407.634
277.969
129.664
469.737
-454.664
-15.0731
621.767
-622.707
0.940795
518.259
-44.2934
-300.631
-145.425
446.056
10.8526
-258.909
-78.567
-244.395
322.962
544.282
563.924
-1108.21
-900.872
849.207
51.6645
-5.35716
-405.947
420.199
-14.2524
433.001
-400.351
-32.6502
670.253
-841.22
170.967
710.531
-879.904
169.373
-504.806
-154.196
-423.039
71.5453
351.494
307.876
-7.01215
-300.864
-328.267
164.863
473.684
75.2115
-719.652
-108.749
1.43944
192.258
-306.835
300.093
6.74192
49.3296
-333.264
283.934
491.683
38.4923
-530.176
-227.03
301.611
-74.5812
-896.202
-19.6401
915.843
-208.817
-28.4448
237.262
7.107
-841.816
834.709
804.709
-118.501
-686.207
344.668
138.59
-217.157
-874.886
-21.3161
808.341
40.2781
-11.0324
533.743
-181.62
-499.157
-16.3294
515.486
-801.996
913.798
-111.802
314.738
-246.602
-390.35
312.346
-30.4749
590.81
63.1222
385.405
-241.649
310.32
506.207
-16.3625
28.6211
342.367
-778.858
89.5175
689.34
457.42
94.5587
-137.927
-21.8473
159.774
-851.814
-23.0721
75.1692
331.446
-205.552
227.911
-22.3594
54.3832
-281.413
-247.239
259.57
-12.3305
-19.8905
33.7405
-514.413
480.672
-610.553
-135.594
-26.1045
305.506
-279.402
-330.035
442.149
599.391
447.642
-1102.76
430.48
672.284
330.189
0.422014
-330.611
-248.128
-155.184
403.312
-525.401
546.605
-661.162
-17.4162
678.578
99.1513
94.0299
-193.181
-44.2441
799.241
838.362
-862.336
23.9738
807.591
-154.648
42.7612
-600.64
-328.686
-18.8411
556.841
57.8877
-614.729
442.609
19.1711
-350.314
395.093
-44.7785
-853.269
-3.85928
857.129
-27.8166
-823.998
280.43
-260.216
-20.2136
625.22
-3.45321
555.735
-398.73
-157.006
-224.94
273.625
-48.6854
-98.605
-253.018
-422.785
-38.4435
892.89
-182.358
-816.169
88.8756
-629.434
18.8812
-541.78
53.0021
488.778
820.558
-39.6356
-780.923
-255.201
132.211
-2.77558
-356.045
358.821
855.064
-184.811
309.637
-1.76075
636.561
-70.6941
494.15
-2.46668
801.447
-712.217
-1045.12
-57.6392
445.501
24.2361
520.24
33.745
735.756
-689.909
795.578
-38.2869
-757.291
199.056
-223.499
278.071
-17.3936
-118.513
194.672
-185.674
475.028
15.8247
-490.853
577.189
-101.297
-475.892
-460.636
422.555
38.0811
128.956
672.491
-2.51075
-100.951
-759.916
860.868
90.8594
-668.177
577.318
230.672
-306.991
76.3189
-743.691
642.74
91.8283
712.88
-504.401
1048.68
221.414
-160.319
-259.699
-173.007
258.343
-85.3357
217.053
-262.193
45.1406
-181.592
323.715
-6.15417
-313.566
-51.3116
6.18821
-412.087
405.898
-47.6053
-162.72
-195.882
-32.5652
370.496
-337.93
-870.846
944.472
-73.6263
45.5286
-528.305
482.776
20.0488
-244.06
-756.003
106.401
649.601
361.842
-216.855
819.402
1.15586
-4.19806
203.886
-199.688
424.229
131.507
-111.534
-311.505
815.623
-201.778
-95.1845
-914.027
619.227
-319.953
126.197
40.6169
654.496
-557.56
496.324
-20.0747
344.328
-36.5401
339.61
-422.129
82.5187
199.431
-234.349
34.9184
44.0555
254.162
-298.217
336.793
-491.25
-1.73253
761.958
-806.202
538.009
-62.9813
-103.735
735.389
-631.654
-270.511
306.51
-35.9992
-67.335
298.007
210.819
-191.202
-284.279
13.7682
-1053.56
583.427
470.132
-35.9256
-75.5231
181.745
-311.439
296.639
14.7999
-676.069
692.453
269.651
-274.67
5.01943
-468.953
171.25
-499.368
-554.191
244.679
-279.591
847.174
-946.607
99.4323
-344.685
15.9994
483.491
-627.705
144.214
-2.06377
810.405
228.709
-246.158
17.4487
-321.565
-551.877
-37.8094
295.106
-25.4551
334.089
-118.191
-215.898
-20.3493
-833.272
853.622
-875.811
491.922
383.889
-56.8486
735.386
-455.27
32.4852
-152.305
-112.515
264.82
874.282
-810.679
-63.603
396.425
-321.255
795.974
2.89462
103.834
91.592
-195.426
-580.558
1024.4
-443.839
148.992
-198.452
49.4599
-758.929
-145.011
903.939
132.613
201.475
853.525
-31.3828
813.475
-736.704
505.551
-416.671
8.6091
-231.788
32.3865
155.262
-187.649
308.697
225.046
-27.6129
-1098.2
619.2
479
7.40871
891.668
-60.5496
-831.119
-430.723
623.751
-193.029
57.1732
756.302
25.0604
-524.217
-590.559
-18.4341
608.993
397.53
152.153
-549.683
-264.672
-522.435
279.612
64.7159
-181.413
-77.0645
-407.055
353.328
53.7274
-793.118
287.7
202.529
-264.059
61.5295
226.612
-246.217
19.6052
431.367
-425.179
720.882
50.8983
-771.78
-205.002
38.8314
815.241
20.9244
-836.165
-344.035
7.91877
336.116
118.641
860.196
-412.187
450.243
412.093
-72.4827
-954.373
99.6563
854.716
789.073
102.595
-25.3222
224.753
51.0711
381.93
889.457
133.085
31.6851
-486.955
28.5755
-826.551
797.976
693.6
-759.427
65.8271
636.259
465.936
769.02
-56.033
-712.987
199.439
-50.4467
76.758
339.711
-416.469
-735.223
792.396
249.112
179.271
-286.307
168.095
118.212
-111.121
-426.929
538.05
-32.8173
-218.86
1004.4
-573.923
99.489
-292.713
192.704
-196.902
-100.843
-159.622
30.466
820.175
-156.587
493.38
-594.827
746.994
-152.168
676.331
-697.706
-386.825
370.495
-442.259
-180.449
39.7774
348.997
-9.38116
-339.616
-46.2838
808.242
-505.241
-623.361
1128.6
288.734
-231.965
219.105
12.3373
198.482
-258.79
116.779
-885.235
908.886
-23.6512
-263.616
256.565
7.05139
75.399
706.016
3.36452
765.656
636.661
-17.1293
-15.2019
-514.045
470.141
43.904
933.059
17.1564
-950.215
-308.847
-35.1878
-0.928137
-235.634
789.121
-68.2395
529.029
-623.217
94.1874
-761.755
-84.8867
25.9744
251.437
879.641
9.81651
-491.42
441.358
50.0627
-950.445
-94.6794
55.3481
-380.153
324.805
-195.052
206.499
-11.4468
244.718
-27.6651
-40.0569
1050.31
-313.234
-737.08
579.674
-50.6444
36.351
-267.601
-56.5911
-688.378
763.404
-75.0266
-91.2124
2.13503
224.477
505.034
-5.80039
92.7964
-870.634
-97.7906
217.436
-119.645
-189.686
219.133
-29.4469
-681.815
570.694
-445.782
479.522
341.726
54.6981
-461.643
425.382
36.2611
581.6
427.468
498.795
-460.176
-38.6187
467.758
-307.817
-159.942
-187.392
39.7123
351.901
-22.0907
-329.811
-260.726
87.7193
-338.504
295.325
-219.022
-636.74
-691.457
-81.922
261.529
-58.9998
657.304
197.76
6.92599
230.355
815.357
-86.1054
-729.252
329.488
-142.272
647.229
-504.957
232.199
-302.043
-106.522
504.052
-750.528
8.56227
-131.342
-108.08
500.002
-92.1129
776.265
-684.152
-204.667
216.629
-11.962
-19.8018
-243.814
829.592
-737.763
225.661
-427.346
-401.982
829.328
858.175
-200.871
-43.0739
780.285
-737.211
597.493
-6.68254
17.8884
-608.447
283.331
129.354
-412.685
-404.507
481.265
-19.9404
-320.734
340.675
-617.822
66.8366
550.985
-145.82
502.783
-356.963
-477.599
411.21
-484.113
72.9026
106.043
-183.676
77.6326
-191.983
334.744
-174.263
-176.963
722.842
-29.2421
102.358
581.227
-611.115
649.043
-37.9283
269.312
-295.416
-809.842
-52.4938
97.3674
-433.636
590.121
460.193
-615.844
173.585
413.118
-840.464
371.1
-681.927
28.6597
653.268
-197.533
235.428
-37.8951
-816.287
886.71
-70.4229
-49.0072
-432.375
481.382
1005.36
-405.593
-599.77
-69.9879
-784.145
6.82072
273.609
-950.474
207.413
743.061
-857.734
-92.7395
-175.668
-14.7845
-777.763
731.48
-127.178
-292.684
419.862
-22.3542
-263.725
286.079
160.55
647.041
219.142
156.932
-376.074
-902.874
154.587
748.287
541.26
-581.049
39.7896
604.555
58.6108
-663.166
-43.4541
674.231
-639.856
-34.375
354.007
-23.8177
-11.561
215.57
-204.009
608.29
65.9417
15.0306
-791.715
721.548
-777.581
-181.535
213.921
321.602
146.156
131.981
-306.244
206.143
-210.888
4.74495
344.785
-200.965
-143.819
592.051
44.6104
-746.29
800.511
-54.221
-384.726
-112.766
497.492
-18.4897
-288.345
248.056
44.167
-292.223
254.848
-103.246
-151.603
418.519
-467.526
-61.7187
-740.278
-411.555
79.6863
150.986
491.395
-437.653
-53.7422
-226.849
261.535
-208.25
199.598
8.6515
5.98991
-213.459
207.469
-323.696
380.562
-56.8658
208.53
-1.47717
-207.053
450.426
554.937
-266.75
555.685
-474.058
142.121
-245.92
103.799
-207.533
-4.42646
211.959
701.309
-96.7535
250.585
-172.486
-358.393
281.325
77.0687
-433.424
-3.79325
437.217
-352.275
449.642
316.688
-323.762
7.07341
-19.1011
37.1685
468.383
462.982
35.8125
21.5251
-454.949
174.243
16.8841
-341.789
-2.89582
-372.785
297.057
75.7276
343.841
-64.2293
671.482
221.408
-234.38
240.37
-292.217
307.729
86.6889
661.482
-748.171
-735.415
-26.4955
761.911
22.6948
153.025
16.7814
-340.477
-690.76
621.159
69.6014
135.036
-166.07
173.239
-7.16892
422.218
-138.887
-238.808
-166.339
405.147
-168.445
-345.6
224.084
-17.9404
-253.592
101.286
89.493
-187.284
-1009.55
696.319
-348.869
348.869
851.45
242.246
-35.3582
-509.112
-500.442
211.898
325.503
528.305
42.5837
547.027
-52.877
250.714
-234.332
-16.3819
-629.496
662.489
-32.9927
-50.2415
-533.274
-45.4196
-640.61
705.382
-64.7719
84.782
-493.954
-353.515
539.571
7.45603
524.974
10.6431
-535.617
745.369
-647.802
7.94599
-121.575
-56.9305
178.506
-422.152
83.6477
315.354
-35.268
-280.086
-161.091
-41.7948
-304.487
291.065
13.4225
-289.095
64.1558
867.663
-196.182
-331.961
53.989
766.828
-0.538242
-766.29
584.225
-659.173
74.948
-922.846
830.366
92.48
-24.5928
-636.569
109.87
299.652
-24.9771
-262.341
287.318
-775.064
10.531
-205.687
-293.691
268.714
-466.292
511.82
-229.39
247.798
-18.408
-307.387
299.21
8.17679
-807.793
704.058
995.99
-148.816
-160.256
282.959
-241.062
364.458
-161.726
400.431
-303.484
-96.947
289.629
54.212
810.171
-97.3361
-712.835
183.902
-681.721
-747.91
663.116
84.7937
5.14984
-617.715
623.498
-5.78312
68.0822
182.503
-93.7832
515.972
-275.398
287.069
-11.6714
379.465
-458.665
79.1997
-608.746
649.37
-40.6239
585.203
45.018
-630.221
239.285
-225.562
-13.7231
555.558
-22.5632
-532.995
247.059
-135.509
-111.55
-137.699
-51.1882
188.887
951.55
-942.806
-8.74328
-575.505
-388.33
-47.0832
-753.969
801.052
-897.65
834.375
-568.486
350.906
217.581
605.14
-623.574
-17.7216
670.112
-652.39
11.2939
155.58
-166.874
-67.1657
-266.098
-855.967
-66.879
15.4571
367.311
334.116
-739.708
196.646
-22.4037
-232.587
232.587
416.07
-156.774
-259.295
-911.177
25.9417
-3.71858
-31.1564
-472.912
504.069
-753.67
-80.7921
487.497
-406.705
-252.426
-408.729
433.519
-10.9636
-62.766
261.494
157.412
187.373
-537.045
399.544
-174.159
393.301
341.116
-51.4865
761.918
-705.968
-285.269
-9.80914
271.595
-946.885
-3.5602
5.60561
927.453
533.58
-448.798
-829.094
570.98
258.113
-5.98252
264.654
-258.671
350.225
-3.91035
-346.315
-462.785
32.0622
-834.269
748.02
86.2489
-136.104
-172.743
194.79
29.0858
-223.876
213.28
127.835
-800.995
17.8165
-594.213
320.227
273.986
43.2117
228.865
364.092
-326.485
-37.6064
-370.702
379.612
-8.90917
847.427
-513.311
-455.151
312.879
-326.581
193.91
132.671
423.391
-720.821
568.495
-27.2356
811.255
-807.891
78.0968
168.962
-827.233
808.619
18.6139
-794.083
47.7928
-472.161
-527.844
1042.64
-186.28
931.107
-835.169
-95.9381
-521.119
-463.317
984.437
-49.1913
-258.308
62.2301
228.003
-237.441
9.4388
-22.5825
-56.0809
733.442
466.788
-29.8878
-436.9
-376.861
-191.398
11.5956
-103.309
-242.11
-146.51
406.301
-259.791
-926.352
926.352
93.4017
-807.177
496.068
-511.286
69.3174
441.969
-212.514
-195.12
160.568
-157.466
-379.579
-547.651
390.185
599.917
60.4698
194.379
419.194
-928.139
508.945
-13.3028
298.617
-221.068
-265.089
-219.804
406.03
-84.4274
-183.722
-142.859
-65.5036
-835.368
452.63
-518.27
65.64
16.3004
-686.521
767.572
-81.0513
415.862
-422.246
6.38417
249.033
-569.23
529.784
39.4453
118.665
109.568
-228.234
200.756
-212.317
378.931
-708.796
329.865
110.548
758.342
178.953
237.117
-68.8011
-492.876
461.72
293.924
-308.89
14.966
416.832
-37.3666
354.351
-386.916
-24.216
-367.802
392.018
-30.3361
-260.009
306.398
8.26427
-314.662
-409.45
262.94
-390.339
42.9508
631.04
-749.541
-410.572
533.421
-314.378
-91.5691
976.662
-866.115
-492.694
-312.329
805.023
296.734
42.3404
290.132
-332.472
-456.617
131.778
-267.882
-52.0142
451.733
-564.186
112.453
47.4372
613.718
-182.766
61.1907
312.114
-268.902
708.756
-329.825
267.394
-183.973
24.4963
365.144
-389.641
-29.6587
-300.581
-1.65888
-260.834
253.585
7.24865
-0.586552
546.346
-521.286
31.5994
-891.588
113.426
797.041
-1.06727
331.153
-117.873
525.486
328.713
-854.199
598.411
239.956
666.331
-758.444
-737.246
102.163
635.084
265.412
55.6285
-321.041
191.18
-184.285
-6.89494
20.3787
274.363
572.879
-193.113
25.2857
167.827
-157.107
-606.758
763.865
-343.079
357.839
-14.7597
-243.19
298.193
-55.0025
-149.469
-176.104
-256.766
216.476
40.2895
920.087
-920.087
-87.5603
727.096
-639.535
295.642
-215.748
346.1
-68.1303
-657.45
192.254
28.9518
-221.206
59.2815
-587.746
528.464
21.4439
-222.263
200.819
908.035
-913.799
5.76429
300.667
-674.369
373.702
338.879
-283.531
52.7031
311.388
-350.754
876.24
557.288
-105.555
-73.5577
-246.008
-401.189
327.32
73.8693
216.276
-346.627
336.107
-500.215
164.109
-232.423
34.8894
-873.286
-73.5992
33.3246
-719.845
310.159
-190.428
796.39
-773.223
-23.1672
431.564
43.9171
-475.481
-685.707
610.734
74.9734
-234.459
208.352
26.107
322.367
-28.4429
-426.198
-254.932
872.173
-829.385
-42.7873
-357.915
658.582
140.133
-524.86
-864.382
11.1126
-58.8489
-594.891
653.74
36.9159
-135.202
-151.105
-915.477
419.592
495.885
197.22
2.37762
451.255
-35.393
543.442
254.963
-247.524
-7.43862
-335.846
-6.33854
342.184
-541.527
427.529
-17.5637
-186.972
204.535
234.766
-42.5117
-82.8707
341.454
-258.584
-357.885
7.57047
435.868
-10.4863
66.6362
-807.312
740.676
-664.332
664.332
39.3203
192.879
-84.5568
-504.996
589.552
-854.458
938.093
-83.6349
741.103
55.2868
-14.1686
-834.485
848.654
325.413
-343.034
17.6214
326.088
15.7999
-341.888
583.676
-637.061
53.3843
44.1003
294.575
-338.676
-211.456
-108.892
320.348
200.677
-9.49697
104.835
-709.81
604.974
-759.989
267.295
354.186
-311.845
793.747
59.7772
-77.5005
-433.786
344.609
-389.764
-680.366
99.938
580.428
300.236
-264.42
-35.8153
-532.333
613.127
-80.7942
-82.2261
-363.164
445.39
411.437
-382.816
-592.056
-323.421
590.421
-725.715
135.294
-405.716
-423.378
837.848
-39.789
-645.918
138.034
442.997
-581.032
563.582
-644.888
81.3057
22.8615
-225.333
11.107
-693.034
-324.282
321.506
13.63
570.664
-692.757
122.093
-344.535
-430.633
-7.29413
-683.911
698.389
-14.4777
763.089
-164.678
645.895
-103.167
-542.728
200.656
290.739
294.118
-299.502
5.38421
807.724
-935.903
128.179
-642.478
-94.7686
-282.178
6.77984
-330.368
95.2673
235.101
-57.1443
640.82
70.3517
-239.417
169.065
358.781
-336.565
-22.2159
-327.58
-266.633
-8.8105
202.923
-21.4747
-179.27
232.857
128.341
-361.198
-272.929
320.775
-47.8459
586.23
-670.787
25.6531
289.7
-256.611
-73.7574
-282.813
-285.673
-711.364
540.656
170.708
-110.804
-156.456
-167.506
67.3948
-579.422
536.603
42.8189
576.958
-1098.08
-25.7711
-1016.14
-140.7
363.084
42.9451
-23.4225
-51.421
-756.84
125.186
847.329
-840.222
617.434
-76.7777
1.86226
589.261
-591.123
-277.343
-168.866
446.209
-29.8069
-204.652
3.17632
204.83
-212.085
7.25464
-993.622
223.967
448.198
-112.091
19.7522
-628.062
608.31
298.198
-365.214
23.8124
341.401
57.1272
573.439
-630.566
-104.756
769.964
-665.208
-669.326
-195.681
-720.051
38.9188
681.132
-40.3195
563.018
-522.698
919.434
-911.365
-8.06898
557.505
-616.354
-611.193
-23.8086
635.002
-397.448
124.52
254.729
-251.678
-3.05162
800.998
-772.423
-96.3094
731.002
-634.693
461.574
8.56628
-434.501
-670.071
604.148
65.9226
398.759
-92.3329
-564.084
-39.5588
-11.9297
-400.157
-12.4143
200.185
-187.771
26.6257
327.56
-361.667
365.353
-3.68589
743.565
-790.649
136.127
126.941
216.938
-229.249
12.3103
684.137
-775.338
91.201
-315.255
-666.196
-22.1818
794.117
73.5465
291.426
120.667
809.863
-15.7464
-26.6346
-1030.61
178.627
3.94922
16.6664
-566.355
161.466
-150.172
-1081.48
-243.613
226.049
68.1434
227.498
-107.931
-467.157
575.088
-2.56959
-477.603
480.172
838.943
-31.2191
570.15
75.7453
-24.3028
-205.763
230.066
734.778
-777.852
-142.23
375.087
-397.522
442.957
-45.4349
-679.205
723.352
-44.1471
273.231
-371.307
18.8681
397.995
-159.822
-238.173
172.745
-512.001
466.404
45.5976
5.48198
-463.022
458.608
4.41457
613.945
-596.056
26.9522
-154.664
586.228
-297.609
57.5673
441.344
42.2324
606.688
-648.921
-89.8494
-138.516
181.72
26.6314
30.3567
-394.94
29.7268
-412.023
14.5012
252.855
-255.109
2.25414
711.291
-682.631
-486.438
85.1518
401.286
-42.3685
626.594
-4.11162
-209.347
914.272
-141.803
-772.468
518.88
537.482
-1056.36
-281.941
-24.713
292.506
4.13327
10.259
276.539
-687.057
-0.473594
687.531
591.982
-749.089
-208.602
199.045
9.55619
-514.002
-37.3531
-630.824
-5.29335
147.414
-138.032
-428.442
-113.377
183.729
13.0308
-628.531
615.5
-39.3773
-497.666
537.043
-244.207
288.308
-69.385
626.226
-725.036
752.491
-27.4551
217.771
-482.443
225.871
-253.92
28.0497
1.91811
-837.193
29.4004
229.11
-440.566
902.688
-911.834
9.14638
635.959
14.7547
-650.714
-56.7647
-536.549
-807.243
840.443
109.522
-208.207
897.678
-78.2757
245.213
-17.2105
-60.3205
-715.956
776.277
-86.5288
-597.382
-9.6668
534.64
-661.988
19.5101
213.476
-230.559
17.0833
-240.476
3.85541
236.621
-559.768
533.562
26.2068
-228.296
90.5972
68.8029
83.3178
-152.121
-880.244
314.899
21.7295
-336.628
55.017
637.866
-692.883
-344.503
362.983
-18.4796
-641.951
-20.037
-671.345
758.034
-896.378
127.34
769.038
-148.317
-169.575
-446.672
64.6585
-456.908
-613.958
247.214
-3.93258
-293.613
293.091
0.522604
181.622
-62.9562
-424.102
394.514
29.5887
-954.859
972.015
-274.083
103.357
170.726
149.239
12.2276
520.424
849.004
-869.353
277.545
-34.546
353.276
-499.096
-788.952
811.033
-22.0809
-345.815
-177.377
523.192
135.392
-179.497
44.1044
427.765
-521.548
737.825
-676.766
-61.0586
-260.637
-21.3035
315.735
-67.679
318.807
-293.154
334.411
-652.059
-18.0124
5.43879
633.601
-379.399
162.545
20.6652
-891.511
546.627
-392.205
608.148
368.514
424.241
9.27798
744.604
-804.924
-40.9363
-27.721
827.281
70.3967
421.225
-499.976
78.7515
219.008
-175.82
-43.1878
-187.808
197.112
-9.30421
-16.119
345.863
-329.744
-616.742
658.974
429.107
247.669
-224.414
-23.255
371.222
503.06
313.688
-335.779
699.659
110.512
73.5522
-597.346
523.794
639.972
-35.8236
30.18
-930.167
113.738
816.429
225.154
-253.599
-254.827
-793.342
732.253
61.0885
5.35351
813.826
-819.18
925.072
-925.072
-379.163
17.4959
602.831
37.1406
-109.205
-12.8274
-196.022
208.849
437.767
27.9942
-465.761
-437.183
23.1836
413.999
186.205
972.163
-453.283
-235.721
42.643
193.078
-626.867
630.939
-4.07126
415.229
-470.955
55.7253
-431.093
-6.08938
52.5341
-761.578
709.044
-637.296
-59.4035
-550.328
518.614
31.7134
-366.953
268.348
14.3377
-232.415
218.077
-142.469
-131.614
-29.9839
220.231
-38.5107
57.1411
280.369
-280.467
-72.0359
791.615
368.73
-53.8314
-768.823
33.4079
-890.031
814.413
75.6179
117.594
270.267
389.674
149.148
-751.834
858.385
333.48
181.339
-514.818
-167.639
594.468
-644.072
49.6042
470.939
54.6329
-525.572
628.63
-335.916
-292.714
-468.165
-115.296
-779.831
675.075
30.1627
-682.83
652.667
-711.393
108.531
602.862
-766.284
13.4653
18.6911
508.718
-87.4931
-511.171
354.585
542.268
-582.588
-35.4738
-69.3119
236.994
-167.682
31.8036
-672.413
-237.948
-240.833
171.521
-32.114
260.518
-113.246
-147.271
147.141
-10.0848
-634.939
724.456
-17.8514
186.521
-168.669
869.873
-628.567
10.8519
135.648
176.466
1.01646
397.727
-398.743
-225.221
-189.239
414.46
180.947
763.525
380.317
-355.82
-841.712
7.44261
626.426
-609.873
0.116259
-804.983
804.866
589.573
16.1473
-605.721
839.097
44.8486
-883.945
314.235
-15.0247
128.612
-405.955
426.455
9.41294
-255.877
335.766
-79.8882
199.487
382.125
-90.6997
611.757
-56.2599
-555.497
-754.132
778.251
-24.1185
13.4864
639.147
-652.634
-644.797
112.464
-7.92069
-442.684
599.261
34.7281
324.053
-31.7967
193.807
-94.6557
-338.026
2.18063
95.9802
742.963
4.6424
-279.279
274.636
-426.198
-501.941
-57.4617
-757.737
815.199
245.941
-40.4106
196.049
-258.112
62.0635
204.072
-96.3112
-225.661
-516.88
-581.32
-791.797
-18.0443
-173.531
-815.765
776.452
39.3131
-34.6525
470.114
-435.461
59.783
821.342
-881.125
203.292
-134.489
773.581
26.9302
-215.13
202.302
21.0903
-309.13
288.039
575.745
-573.883
-647.227
147.46
499.767
-543.326
589.36
-46.0342
34.3289
259.789
-665.146
-441.765
608.551
45.8442
-654.395
-721.927
606.77
-679.226
72.4552
-160.946
-32.1669
450.232
-484.436
-846.009
851.362
104.043
-307.577
-588.801
-642.538
593.335
49.2031
186.519
-80.4755
-44.2309
455.68
172.95
-566.609
52.196
514.163
-527.673
13.5097
72.9912
-717.692
644.701
269.531
-16.6758
-317.17
167.778
149.392
-565.485
576.128
-128.752
454.394
-325.642
681.454
-86.9864
2.20681
-319.733
317.526
-446.736
-442.794
889.53
-150.5
239.528
-89.0284
-100.248
-580.118
-558.454
404.94