/*--------------------------------*- C++ -*----------------------------------*\
  =========                 |
  \\      /  F ield         | OpenFOAM: The Open Source CFD Toolbox
   \\    /   O peration     | Website:  https://openfoam.org
    \\  /    A nd           | Version:  7
     \\/     M anipulation  |
\*---------------------------------------------------------------------------*/
FoamFile
{
    version     2.0;
    format      ascii;
    class       volScalarField;
    location    "24";
    object      p;
}
// * * * * * * * * * * * * * * * * * * * * * * * * * * * * * * * * * * * * * //

dimensions      [0 2 -2 0 0 0 0];

internalField   nonuniform List<scalar> 
115545
(
-0.0122076
-9.79102e-05
-0.0184509
-0.00593559
0.000187129
-0.00246195
0.385638
-0.0576987
-0.0013544
-0.000101808
-0.00106482
-0.000329141
-0.00356843
-0.0693523
-0.00136405
-0.0673108
-0.000965497
-0.00140221
0.475913
0.000245987
-0.0594757
-0.00816818
-0.00155435
-0.00845262
0.694555
0.065014
-0.0849936
0.0240705
-0.000308894
0.405752
-0.000701103
0.103155
0.00416326
-0.01778
0.700059
-0.00377261
0.378079
-0.000970026
-0.18449
0.260484
0.103725
-0.00141541
-0.0243225
-0.00378011
-0.0587262
-0.0695315
0.00123227
0.00512116
-0.00244294
-0.000269964
-7.71828e-06
-0.00577996
0.116642
-5.35675e-05
-0.00504848
0.118331
0.094717
-0.0501138
-0.0269552
-0.0163577
-0.000691862
-0.00865797
-0.00222413
-0.0225843
-0.000458877
9.66257e-05
-0.00321741
0.0682951
-0.0938235
0.0864356
0.254705
0.0158357
0.256641
-0.0453978
-0.0306723
-0.0327002
-0.0185247
-0.00237008
0.454554
0.0331013
0.0342163
-0.000373273
-0.114176
0.0236084
-0.00564852
-0.000327103
-0.0241236
-0.00015867
-0.0338983
-0.000197343
-0.119614
-0.0147274
-0.000312248
-0.00316303
-0.00161488
-0.000253671
-0.00141807
-0.114239
-0.100334
-0.0338004
-0.000702173
0.0302878
-0.00188416
0.00167816
0.257343
-0.0605016
0.284452
-0.0651934
-0.0192524
-0.000317808
0.0259987
-0.00140944
-0.0165417
-0.012794
0.897651
-0.00507714
-0.00107121
0.223302
-0.000170575
0.016228
0.225907
-0.070153
-0.0183058
-0.0100844
-1.77839e-05
0.404382
-0.00852864
0.685506
-0.0036922
0.0512874
-0.0192314
-0.000274116
0.172348
-0.000321723
-0.000167029
0.477186
0.657545
0.00393852
-0.00489857
-0.0085866
0.0853342
-0.0042241
-0.000219313
0.121626
-0.0173439
-9.898e-06
0.00731886
-0.0086586
0.0695251
-0.00046431
-0.0594681
-0.060741
-0.0146323
-1.82711e-05
-0.00570817
0.00665395
-0.000320011
0.00378479
-0.0308503
-0.0875358
-0.0320916
0.00725317
-0.00219953
-0.0404951
-0.0135869
-0.00241403
0.0336002
-0.0262969
0.00326459
-0.0146121
-0.0156658
0.00153846
-0.146122
-0.0701203
-0.0356748
0.0650792
-0.0702605
-0.00419303
0.00262028
-0.00243191
0.013861
-0.0301845
0.496169
0.125058
0.285826
-0.0016124
-0.00628081
0.156208
0.0172426
-0.119779
-0.00415088
-0.00396641
0.530054
-0.0301506
0.0676709
-0.0813553
-0.0704396
-0.0136083
-0.0317596
-0.0180707
0.135873
0.402306
0.0171373
-0.000198634
-0.00618683
-0.0383123
-0.00211535
-0.000451755
0.0479212
-0.0404938
-0.0696276
0.28183
0.690734
-0.000197045
-0.0151518
-0.0305264
0.0215925
0.00222299
-0.0703638
-0.000885486
-0.0399551
-0.0274544
-0.00332762
-0.031371
-5.66501e-05
0.58744
-0.00295652
-0.0330813
-0.0798848
0.6116
0.0280639
-0.045174
0.12533
-0.0298473
-0.0211214
0.136994
-0.00022793
-0.0025931
-0.0290967
-0.00580977
-0.105765
-0.0118452
-0.0881029
-0.105134
-0.00380169
-0.000583286
0.085987
-0.0329689
-0.0258556
-0.0652416
0.54643
-0.00302887
0.11699
-0.00158652
0.701396
0.0143095
-0.0380821
0.0251181
-0.000262336
-0.0600745
0.0146114
-0.0697858
0.126065
-0.191602
-0.0199895
-0.00582941
-0.00796947
-0.00366871
-0.00325425
-0.034962
-0.000421035
0.0182219
-0.00228063
-0.0116793
-0.00317815
-0.0251647
-0.0521487
-0.0351793
-0.00611929
-0.0655698
-0.0415775
-0.00377037
-0.00129718
-0.0370441
-0.00101651
0.01083
0.579093
0.109533
-0.105193
-0.174762
-0.0525949
-0.000179356
-0.030196
0.277408
-0.00100017
0.0197052
-0.00311171
0.0979556
-0.00181874
-0.0362204
-0.070206
-0.0345356
-0.132547
-0.00960466
-0.0450149
0.0438828
-0.0186642
-0.0326358
-0.204212
0.00281365
-0.00480574
0.221937
0.161015
-0.0290138
-0.00372436
-0.00159876
0.529898
-0.000637391
-0.00822791
-0.0426523
-0.00566834
-0.00088125
0.0165892
0.892351
0.055197
-0.0309595
0.00702117
0.0943424
-0.071174
-0.0309237
-0.00480371
-0.000182293
-0.00159826
-0.003069
0.833298
-0.00565196
0.00940637
-0.000405259
-0.00247795
-0.00626739
-0.0174253
0.0646505
-0.0933244
-0.0220398
-0.012731
0.000262401
-0.00636816
0.71809
-0.037985
-0.00540718
0.174382
0.165525
0.0145074
-0.00485447
-0.0189475
-0.00489143
-0.011487
-1.13477e-05
-0.00209438
0.00564528
0.137512
-0.049328
0.383037
0.83737
-0.0187658
-1.17496e-05
-0.0172851
-0.0235256
-0.0031625
-2.2006e-05
-0.0870908
-0.0123151
-0.0328695
-0.00178907
0.00678486
0.00245352
-0.00185829
-0.000271494
-0.00291395
0.00739439
-0.045377
-0.0180984
-0.0128215
0.00512078
0.0109956
-0.000614197
0.118078
-0.066596
0.000281921
-0.0469709
0.100894
0.222477
-0.0244204
0.0241789
-0.027018
-0.00366495
-0.200704
-0.000535046
-0.00226722
-0.0226449
-0.0346085
-0.0037584
0.31563
0.24809
-0.204991
-0.0301091
-0.0001691
-0.00948692
0.0175713
-0.0095189
-0.0130339
-0.00485504
0.000356312
-0.00552773
-0.00573413
-0.00597824
-0.00212804
-0.14191
-0.000215788
0.0108189
-2.67545e-06
-0.0705527
-0.000355166
0.408496
0.167002
0.176244
-0.0301501
0.193231
0.0931706
-0.00373106
0.00056559
-0.00128754
-0.00685496
-0.0321568
-0.00954686
-0.00974771
-0.00887065
-0.000351682
-0.000782045
-0.000321561
-0.0024034
0.0523067
-0.0107195
-0.0233255
-0.001021
-0.0851999
-0.000594379
-0.000730754
0.219981
0.0641728
0.306104
-0.000228718
-0.000832983
0.000606677
-0.0258817
-0.00833676
-0.0842649
-0.0325887
0.126596
-0.0110271
0.316481
-0.000553373
0.000213775
0.368386
0.216706
-0.0610381
0.00142947
-0.0695844
-0.0110049
-0.000230714
0.0107098
-0.0662778
-0.029972
-0.0459168
-0.0105252
0.0550263
-8.25945e-06
0.00148137
0.0297564
0.0320398
0.429789
-7.20568e-06
-0.0004025
0.000807298
-0.0302113
-0.00198292
-0.0010362
0.00242946
0.745553
-0.0354151
0.283757
-0.0222216
0.569642
0.129634
-0.0054987
-0.0893492
-0.0614587
-0.0123954
-0.00257761
-0.00642914
-0.00311185
0.46487
-0.0292677
0.352855
-0.0197487
0.174101
-0.0229185
-0.0170627
-0.103437
0.140733
-0.00471497
-0.00156285
-0.00166866
-0.000183878
-0.0109043
-0.0578959
-0.000596226
0.0157225
-0.00146887
-0.00147864
0.00107266
-0.0181419
-0.000109623
-0.00162459
-0.0255025
-0.00675136
-0.00685951
0.491211
-0.0530103
0.00563446
-0.0156067
-0.0409568
-0.00212388
-0.000194037
-9.43826e-06
-0.0404508
-0.0609427
-0.0365297
-0.000190507
-0.0178758
0.0667848
-0.101693
-0.0178819
-0.000366313
-0.0319496
-0.0181498
-0.000253005
-0.000736823
-0.0319517
0.000756522
-0.0014972
-0.0733746
-0.000223373
-0.0629334
-0.0257665
-0.0221486
-0.0217115
-0.00136944
-0.0446122
-0.000529885
-0.000161068
0.00342537
0.266292
0.606087
0.219734
-0.0120505
-0.015365
0.243707
0.0141663
-0.000538217
0.041167
-0.0183518
-0.00866342
-0.00634351
0.0650002
9.02889e-05
0.216907
-0.000185698
-0.00813099
-0.0227949
0.26934
-0.000268085
-0.029048
-0.0828173
0.123508
-0.0291025
-0.00806452
-0.0853469
-0.000229418
-0.204893
-0.00703117
0.0202308
-0.0255957
0.00172852
-0.00106644
0.251719
0.586755
0.193423
0.182448
-0.0372529
0.0852478
0.0146131
0.255271
0.311372
-0.0017199
-0.00324861
0.602821
-0.00018977
-0.195133
-0.0936588
-0.0231164
-0.00029005
0.0322996
-0.00307977
0.000584362
0.469386
0.689963
-0.000718228
-0.000521084
0.00134099
-0.00142127
-0.132649
0.222671
0.143633
-0.000730625
-0.0428061
-0.0350719
-0.000165161
-0.00387574
0.0847735
0.676157
-0.00150548
-9.35806e-06
0.252437
-0.00420408
-0.000730552
0.0369267
0.00318607
-0.00556757
-0.00429141
-0.177622
-0.0195613
-0.00304688
-0.0343542
-0.000500775
-0.000700166
-0.00480429
-0.0209468
-0.00099294
-0.0255236
-0.000309371
-0.0280713
0.272837
-0.00102218
0.888496
-0.0394707
0.569034
-0.0180964
-0.00175862
-0.000388273
-0.00153821
-0.00832787
0.125128
-0.0044113
-0.0172251
0.474284
-0.0637554
-0.064101
0.00875821
0.00927447
0.486123
-0.00169039
-0.0288059
-0.0234493
-0.000375248
-0.0129309
-0.000280758
-0.010011
-0.0606254
0.760903
-0.0643919
-0.00403449
-0.0247718
-0.00433684
0.0264866
0.08783
-0.0172245
-2.74749e-05
0.280812
-0.0165536
-0.0715225
-0.00443026
0.00455236
-0.0402133
0.00356981
-0.0995375
-0.00238648
0.383794
-0.007943
0.0874926
-0.0450982
0.0301521
-0.000161874
-0.039506
-0.0255945
-0.0293394
0.0357602
-0.0740444
-0.000491528
-0.153165
-0.00314899
-0.000331933
-0.00429299
-0.000560876
0.685552
-0.000365847
0.405696
-0.0252714
0.0287603
0.00176663
0.0925726
0.00220349
0.167757
-2.27278e-05
-0.0284217
-0.00344593
4.74668e-06
-0.0303653
-0.000178374
-0.0536547
0.607157
-0.0886922
-0.000529045
-0.0999107
0.124465
0.492039
-0.00198577
-0.00112947
0.00238911
-0.000338376
0.618092
-0.017465
-0.0141679
0.139388
-0.000333564
-0.105359
0.194715
-0.000698419
0.0208153
0.599623
-0.00428914
-0.00210426
-0.000243489
0.00200257
-0.0226842
-0.00877148
0.336991
-0.012222
0.770029
0.926943
-0.00500522
-0.000753433
0.356651
-0.00552626
-0.0200726
-0.000550186
0.149457
-0.0453169
0.736426
-0.00331605
-0.00126997
-0.0166399
-0.104985
-0.0427564
0.000931003
0.0121919
0.126666
-0.000906324
-0.0894275
-0.000185308
0.000466723
-1.06654e-05
-0.198009
-0.0621116
0.217696
-0.000188627
0.587326
-0.00147313
-0.0123744
-0.00192493
-0.0667937
-0.0155938
0.0712546
-0.000698938
-0.0401053
-0.00339541
-0.0159589
-0.000358894
-0.00129958
-0.000995046
-0.046265
0.000215049
-0.00273055
-0.0338953
-0.000452451
-0.000487651
-0.00252856
-0.0017374
0.241184
0.0644106
-0.117494
-0.0278029
-0.0568042
-2.21884e-05
-0.0890602
-0.0617647
-0.000250085
-0.0364925
-0.00355958
-0.038799
-0.153437
-0.000190363
-0.018093
-0.000337349
-0.0080541
-0.00141546
0.242467
-0.0103616
-0.000468781
-0.000830147
0.0290056
-0.0519557
-0.00549864
-0.00124216
0.340848
0.397411
0.000102841
0.00636973
-0.108547
-0.0649953
-0.000737508
-3.15181e-05
0.26202
-0.0375786
-0.000445063
-0.00609988
-0.0024062
-7.97734e-05
0.055256
-0.0803056
-0.0640521
-0.0678464
-0.0255316
-0.0091441
-0.0195986
-0.00229632
0.166897
-0.00131601
-0.0361723
0.0402025
-0.00114512
-0.101394
-0.0126294
0.149608
-0.0025025
-0.0119878
0.483416
0.0490434
-0.0453047
-0.0238513
0.255663
0.00751064
-0.0154297
-0.0405845
0.21988
-0.00286974
-0.00127792
-0.13921
-0.012478
-0.0157209
0.81966
-0.00897031
-7.67156e-05
-0.189657
0.00100274
0.00414559
0.167383
-0.170325
-0.0412667
-0.00401355
0.151103
-0.0245616
0.055958
-0.00755454
0.122381
0.0891395
-0.0307487
0.116667
0.195297
-0.0014169
0.0509495
0.689296
-0.136351
-0.000700261
-0.0564752
0.150591
-0.0176102
0.030882
0.251259
-0.00614089
-0.00375529
-0.00779028
-0.0062589
-0.0369862
0.0262475
-0.000483013
0.491426
0.760708
-0.0384854
-0.00381397
-0.0320318
-0.0444565
-0.0420995
0.260745
0.296172
-0.00404028
-0.035699
-0.044382
-0.00249736
0.053545
-0.0670712
-0.00500201
0.0431698
-0.000583288
0.169237
-0.110699
0.131877
-0.0454365
-0.19641
0.447412
-0.00307466
-0.0482965
-0.0939434
-0.000820891
-0.0253602
-0.0936421
-0.164661
-0.0641547
-0.00691423
-0.0159333
0.00488073
-0.182027
-0.0012867
-0.0178889
-0.0708139
0.171708
-0.0611423
-0.0643094
-0.0119795
0.000490068
0.214904
-0.0428374
-0.000133289
-0.00457763
-0.00203219
-0.0152103
-0.0237051
-0.00362418
0.0574195
-0.190319
0.00452092
-0.039975
0.00239586
0.0419532
0.000422185
0.00187885
-0.00607549
0.856688
-0.0364355
-9.27527e-06
-0.00494812
-0.00136526
0.293179
-0.0163609
-1.77262e-05
-0.0119838
-0.00353481
-0.0613728
0.131076
0.0571911
-0.0948428
-0.0256102
-0.000256083
0.496918
-0.0298353
0.0975112
-0.00822614
-0.118719
0.00793205
0.00198124
-0.000688898
-0.0146841
-0.00137662
-0.0642967
-0.00271579
-0.142703
-0.00127159
0.0150299
-0.000196008
-0.00466751
-0.00023742
0.132905
-0.0248877
0.464523
-0.00659703
0.0949552
-0.143595
-0.00255629
0.456848
-0.0451575
-0.0238171
0.942176
-0.00198018
-0.0118831
-0.172708
0.0321827
-0.000199079
-0.018604
0.00485772
-0.0505638
-0.0298591
0.598605
0.00101532
-0.175083
0.130431
-0.159594
0.00275788
0.000579461
-1.38186e-05
-0.000688191
-0.00357504
0.0166705
-0.00150754
-0.00521714
-0.00399356
0.493708
0.407043
-0.0573245
-0.000999959
-0.0885275
0.0495744
-0.109893
-0.000991564
-0.0980432
-0.0457764
-0.000193696
-0.0073543
0.0394852
-0.0328309
-0.00235016
-0.0616921
0.840016
-0.0841508
-0.000273109
-0.0677683
0.0328791
-0.000671583
-0.000221354
-0.17239
-0.00369318
-0.167901
-0.000365647
-0.0116757
-0.045625
0.715769
-0.013001
0.00357637
-0.0235844
-0.00139933
0.130129
-0.00140073
0.0259039
0.146828
-0.000376498
0.0362426
0.000721227
0.742822
0.937502
0.0129061
0.650808
0.49526
-0.0880268
-0.0274487
-0.000341335
-0.0160273
-0.0495795
-0.00367681
-0.000710047
-0.00260419
-0.00203667
-0.000292291
-0.0155009
-0.00209105
-0.0357494
-0.0787305
-0.00136109
-0.000903225
-0.144743
-0.00135758
-0.00019865
0.127475
-0.0108779
-0.0397809
-0.00266083
-0.0675175
0.0132729
-0.0218556
-0.00518462
0.00266138
0.165841
0.0432727
-0.0452553
-0.000922042
-0.000565461
-0.00105782
-0.0294328
0.370397
0.0105162
-0.000387372
-0.171245
-0.000966351
-0.00110491
0.118215
-0.000176407
0.698715
-0.00361707
0.257164
-0.0096598
0.00261074
-0.0106462
-0.00142866
0.161685
-0.00225456
0.00057457
0.630807
0.59824
0.873778
-0.00418462
-0.179854
0.00581632
-0.000186527
-0.04433
-0.00728151
0.254042
0.24708
0.00127528
-0.106569
-0.000213279
0.0490027
-0.00227846
-0.0129002
0.00394104
-0.0035906
-0.00631199
-0.0173417
-0.00548782
0.00266324
0.131001
0.000782022
0.160834
-0.0315306
-0.179831
-0.00914116
0.0381791
-0.0248693
0.863228
0.399219
0.0166954
-0.0229026
-0.000188891
-0.00220079
-0.0293121
-0.0602483
-0.0417436
0.0415569
0.242293
-0.125877
0.078426
-0.0015951
0.00813569
-0.00805752
0.227746
-0.068408
-0.000369045
0.157477
-0.00105656
-0.00148853
-0.000200729
-9.08949e-06
-7.29087e-06
0.231329
0.00208422
-0.0318166
-0.0026707
-0.208186
-0.0495422
0.431212
0.000861891
-0.00244707
-0.00495484
-0.000201283
-0.00218549
-0.0998695
0.0128109
0.155431
-0.00806092
0.130934
-0.0236923
0.00663476
0.023897
-0.000294675
0.615103
-0.000197657
-0.00542524
-0.00213119
-0.0231938
-0.0117788
0.193788
-0.00559314
-0.000182071
-0.0965355
-0.00715411
0.261344
-0.000741099
-0.00125763
-0.00128796
-0.0388007
-0.00325969
-0.0286172
-0.0659898
0.0980917
0.430183
-0.00367925
-0.00120469
-0.00073058
-0.00299584
0.0951771
-0.0607654
-0.00555608
0.0363416
-0.202859
-0.000306019
-0.0962428
-0.00473541
0.00120665
-0.0489938
-0.00191897
0.0208229
0.245329
0.387776
0.176587
-0.00142587
-0.178833
-0.00019202
-0.0361735
-0.0367395
0.0665553
-0.0115891
-0.14303
-0.0331202
-0.0412148
-0.00593422
-0.011537
-0.0331264
-0.129895
-0.000163341
0.0856023
-0.00192263
0.274189
0.0506226
-0.000522513
-0.000961111
-0.000439067
-0.0166421
-0.000173944
0.0996787
-0.0116869
-0.12245
-0.0855888
0.0571528
0.492111
-0.0146112
-0.0330956
0.143705
0.0209414
-0.00277288
0.00550019
0.880455
0.000541524
0.00450692
-0.141652
-0.0134049
-0.0317907
-0.00547535
0.240732
-0.000870989
0.116513
0.497959
-0.000195047
-0.0159919
-0.000212797
0.0914526
-0.0146007
0.00632666
-0.00856099
-0.0138253
-0.031315
-0.00144951
-0.00323019
-0.016668
0.00824643
-0.00538756
-0.000350518
-0.00405104
-0.0362417
-0.0664336
-0.00728804
-0.000738845
0.0163076
-0.00277087
-0.000558622
0.0284052
0.16935
-0.0214623
-0.0292586
0.0675906
-0.00231101
-0.00165099
-0.0374006
-0.00197047
-0.0020767
-0.0182448
0.00394791
-0.00167218
-0.00912071
-0.00417266
0.0209057
-0.000937772
-0.00152603
-0.000211159
0.0937804
-0.0027976
-0.00545709
0.0193077
-2.85124e-05
-0.00130427
-0.000554659
0.228248
-0.00289531
-0.00809796
-0.000449594
-0.102045
0.14059
-0.00510676
-0.132517
-0.000735452
-0.000105974
0.00742509
-0.00140027
-0.000706688
0.457559
0.00252164
-0.00412203
-0.0690194
-0.00133524
-0.000270832
-0.0131066
-0.00311135
-0.0024349
0.590339
-0.000971965
-0.057356
0.229431
-0.000774608
-0.0334525
-0.00169893
-0.0315481
-0.0474572
0.0248153
-0.00949667
-0.00192149
-0.00871977
-0.100615
-0.00483308
-0.0178823
-0.000223195
-0.00216361
-0.000419006
-0.000960772
-0.0632185
-0.0288288
0.108143
0.00123433
-0.0159656
0.844497
0.12077
-0.0621679
-0.000931834
-0.0296134
-0.0374253
0.0462766
-0.0577061
-0.0881614
0.092143
0.102373
-0.0209203
-0.056858
0.398833
-0.0588911
-0.000317843
-0.0680688
-0.0699894
-0.0075583
0.00559029
-0.0247079
-0.00320336
0.0219225
-0.0389177
0.372925
-0.0505585
0.380186
-0.0430126
-0.00191715
0.00140708
-0.00158055
-0.000180623
-0.000729416
0.175238
-0.000260281
-0.0315403
-0.00189766
0.00775669
-0.0466824
-0.0013815
-0.0152289
-0.0334881
-0.000727973
0.172359
0.0038847
-0.00249649
-0.0316807
0.0782563
-1.1668e-05
0.0485434
-0.000160968
0.112185
-0.0337587
-0.0441555
-0.0327243
-0.00247986
-0.00200849
0.124099
0.228025
0.225126
-0.00745632
-0.0354559
0.369136
0.0504709
0.0059892
-1.90965e-05
0.119123
0.0191189
-0.0019033
-0.0897524
0.456805
-0.0238542
-0.000590221
0.747564
-0.000620964
-0.00950772
0.0910009
0.239471
0.0974526
0.0982156
0.52552
0.205952
-0.000973346
-0.00189756
-0.00266262
-0.00242875
0.103323
-0.0309727
0.357884
-0.0179904
-0.00913564
-0.0207352
-0.0854824
-0.000613503
-0.000512058
-0.00187721
-0.0401409
-0.00294344
0.00769672
-0.000205008
-0.000168525
-0.00123906
-0.00106913
-0.000598013
-0.100633
-0.00702698
-0.109067
-0.120189
0.811703
-0.0428948
-0.00181394
-0.00385134
-0.15257
-0.00241049
-0.00070993
-0.0162619
-0.00398772
-0.00206664
-0.00916217
0.0332138
-0.000158702
0.00515103
0.00182797
-0.00203686
-0.00119266
0.00167125
0.00403504
-0.0448788
0.0407776
-0.0489829
-0.0145611
-0.0137461
-0.0503015
-0.00280254
-0.000203581
-0.000830034
-0.00629883
0.163741
-0.115599
-0.00790507
-0.0122373
-0.0990256
-0.00163134
0.495853
-0.0135613
0.0730905
-0.000298348
-0.00178421
-0.000932384
-0.0658648
-0.0698803
0.4754
0.499443
0.12205
-0.0159334
-0.035918
-0.000259604
-0.000179083
-0.0103135
-0.118822
0.212026
-0.117675
-0.037
-0.0390808
0.146774
-0.00554056
-0.156613
-7.91512e-06
-0.0183257
0.169484
0.00370069
-0.000233604
-0.0104153
-0.00632967
0.222663
0.0705928
0.00128451
-0.0139952
0.849961
-0.0144354
-0.00023376
-0.000344694
0.00843756
-0.0159733
0.0890893
-0.000194487
-0.0859609
0.0007683
-0.000218152
0.575735
-0.00950864
0.0904727
-0.0111069
-0.000166418
0.0142815
-0.0839603
0.146717
-0.0229599
-0.0148682
0.580372
-0.000596367
0.0242926
0.0807457
0.354377
-0.00278541
0.0808834
-7.84259e-06
-0.000238612
0.125323
-0.0134433
-0.00223379
0.0479689
-0.00127965
0.214076
-0.0748292
-0.000201845
-0.0607372
-0.00361199
-0.0090873
-0.000990844
-0.000414091
-0.0403646
-0.0895135
-0.000537953
-0.00699354
0.000405132
0.0974944
0.431781
-0.00040546
-0.00396857
-0.00148536
-0.0418289
-0.00105182
-0.000516567
-0.00020334
0.38031
-0.0126344
-0.000515599
-0.0438293
-0.0318134
-0.063146
0.423873
0.269745
0.231741
-0.000202039
-0.170309
-0.042326
-0.010491
-0.0585414
-0.00282769
0.167052
-0.0188357
0.00627009
-0.00241329
0.0159128
-0.0627036
0.0123924
-1.70405e-05
0.0381637
-0.000343042
-0.00161228
-0.0447744
-0.00321208
-0.0380497
0.824719
-0.0129162
0.000269689
-0.00451448
0.145592
0.243148
0.485948
0.2535
-0.0650273
-0.0040092
-0.00212703
-0.021367
-0.0336683
0.00079603
-0.000442013
-0.0561991
0.000199383
-0.0276047
-0.012168
-8.17738e-05
-0.0808018
0.0129223
0.558579
0.129138
-9.72828e-05
0.0308634
-0.000402829
-0.060576
-0.0651708
-0.0145502
0.461298
-0.00172015
-0.039315
-0.0145739
-0.00158743
-0.000246256
-0.0324276
0.117958
-0.0419787
-0.0396106
0.0135473
-0.105145
-2.96261e-05
-0.000177382
0.0105091
0.00292338
-0.03113
-0.00211993
0.179749
-0.000930532
-1.12093e-05
-0.0022844
0.00160812
-0.013423
-0.000136935
-0.0273246
0.0421829
0.144593
-0.00414004
0.300064
-0.0195618
0.146779
-0.0116773
0.00660069
-0.00021992
0.0160475
0.0121467
0.0577001
0.693441
0.189758
-0.0120492
-0.000975628
0.222965
-0.0110259
0.233551
-1.01041e-05
0.0194722
0.0311691
0.520251
-0.000323146
-0.000257106
0.187165
0.493701
0.104983
-0.000173945
-0.172939
0.0668118
-0.00534462
-0.00290595
0.0045391
0.0238668
0.00670811
0.366942
-0.00390932
-0.044164
-0.00475546
0.00371774
-0.00305089
0.430084
0.0991339
-0.00282118
-0.00228112
0.0754757
-0.0805103
0.00342639
-0.036655
-0.000337611
-0.0357166
0.0133166
-0.0148764
-0.00451435
-0.0634426
-0.0104358
-0.000121687
-0.117398
-0.0052989
-0.00120934
0.00832848
-0.0034906
-0.0055375
0.0241887
-0.00116855
0.0157041
-0.0500599
0.275045
-0.000945114
0.755193
-0.000330671
-0.0095798
0.00551822
-0.000324122
-0.00856961
-0.00354606
-0.0646155
0.190995
-0.0258068
-0.0599506
-0.0430947
0.311732
-0.000334078
-0.139722
0.0389846
-0.0189125
-0.000257615
0.840035
0.00417639
0.007607
-0.00596508
-0.00423056
-0.0003961
0.278004
-0.00779624
0.125916
-0.000319225
-0.0505452
-0.00277283
-6.02524e-05
0.365465
-0.000426051
0.166257
0.631251
0.162447
-0.010359
0.152182
0.136743
0.294046
0.363996
0.225702
0.568468
-0.000190068
-0.0297655
0.1541
-0.001975
0.127766
-0.0427305
-8.95127e-05
-0.00156835
-0.0326043
0.75821
0.0056236
0.00371931
0.0950709
-0.00101222
-0.00105588
0.00671418
-0.0293935
0.00682267
0.273676
0.735113
-0.028846
0.375349
-0.0410445
0.033794
0.460273
-0.00155987
0.198659
-0.0083491
0.0237917
0.000430908
-0.119914
-0.0138127
-0.0448019
-0.000187523
-0.0228733
-0.000374367
0.164381
0.76506
-0.153987
-0.000293639
-0.0457121
-0.0378827
-0.000378936
0.00495506
-0.0311392
0.00520003
-0.0322943
-0.0284271
-0.00190298
-0.00123199
0.0431197
-0.000305865
-0.0344251
-0.000601087
0.10565
-0.00317165
-0.0376533
-0.000317775
-0.00792591
-0.0402352
-0.0158501
-0.0400599
-0.000424971
0.0645162
-0.0372317
-0.0683109
-0.000791967
0.0418858
0.0429794
-0.0771973
0.36164
-0.00915168
-0.0690076
0.00811865
-0.00663033
0.00389899
-0.000212545
-0.161748
-0.0227265
-0.00576375
-0.000783584
-0.00230577
0.0890082
-3.75781e-06
-0.00196079
-0.000228278
-0.000213452
-0.00395208
0.429066
0.884358
-0.00142978
-0.0106905
-0.000212787
-0.0595118
0.00163288
-0.0120407
0.0201255
-0.00347006
0.130756
0.00131319
-0.00299691
-0.00320618
-0.00781163
-0.00242578
-0.00119013
0.315067
-0.003772
0.747599
-0.0262423
-0.000251953
0.0966989
-0.00223196
-0.0286826
0.162903
-0.00559471
-0.0260627
0.729336
-0.0390112
-0.000760105
-0.0746824
0.0502923
-0.00916273
-0.0225762
-0.00034162
-0.0290595
-0.000348026
0.504903
-0.0144762
-0.0305509
0.0207655
-0.00915868
-0.00667568
-0.0177724
-0.0209538
0.147057
-0.000157934
-0.127312
-0.00903455
-0.00382114
-0.00193023
0.00381759
-0.0419446
-0.00290616
-0.0735159
0.00436887
-0.000294269
-0.0421419
-0.00129808
-0.00194016
-0.00350364
-0.000414987
-0.066432
7.83314e-05
0.13198
-0.000182488
-0.00174215
-0.000230047
0.628214
-0.000422258
-0.0603462
0.0124494
0.150399
-0.00031283
-0.00668024
0.00181409
0.000787544
-0.0168605
-0.0424749
-0.0394422
-0.025839
-0.00816062
-0.00149235
0.0964501
0.0305461
-0.0401666
-0.00271685
-0.212218
-0.0417345
-0.000804488
-0.00990917
0.0473172
0.730163
0.378586
-0.00554637
-0.121946
-0.0140983
-0.00197023
-0.00154823
-0.029138
-8.70427e-06
-0.0998221
-0.0269395
-9.2561e-05
-0.000159095
-0.0461413
0.00970664
-0.0349702
0.0431465
-0.000260725
-0.0421009
0.016468
-0.0352678
-0.000304227
-0.0408636
-0.0017053
0.172675
-0.00188477
-0.0543436
-6.29872e-05
-0.00435836
-0.0327328
-0.142261
-0.0141417
-0.0333978
-0.00025331
-0.0293017
-0.014311
-0.0275244
-0.0770248
0.00363001
0.0484016
0.766348
0.00222921
0.0249215
-0.000774925
-0.00026025
-0.000887005
-0.0428501
-0.00059691
-0.00322613
-0.0145805
0.667846
0.692292
-0.0021351
0.229215
-0.00893675
-0.000337894
-0.00149815
-0.0198387
-0.0371666
-0.000155826
0.0263783
-0.0195323
-0.11678
-0.069083
-0.0699882
-0.0271588
-0.000318997
-0.00038217
-0.00979737
0.179563
-0.040577
-0.0383664
-0.0360481
0.68008
-0.0115986
0.144441
-0.000346501
-0.0373696
-0.00651612
-0.000186024
-1.60412e-05
0.00347393
-0.00564442
-0.0694823
-0.00395634
0.0236811
0.428115
-0.00940554
-1.36386e-05
-0.000986928
-0.0301921
0.0350828
-0.0293318
-0.0117164
-0.00010717
-0.000603715
0.105187
-0.000363653
-0.0199375
-0.00215783
-0.00926447
-0.00532149
-0.00576506
0.0244046
0.00750816
0.00469411
0.0274955
0.938085
-0.0784935
0.232739
0.0635702
-0.0490751
-0.0648363
0.0037669
-0.0493295
-0.019966
0.132106
-0.0206104
-0.000214609
-0.00814129
-8.8762e-06
-0.0611215
-0.00444966
-0.00369219
-0.0086657
0.150529
-0.0012163
-0.000182154
-0.0461068
-0.150805
-4.10865e-05
-0.000197582
0.000115845
-0.176973
-0.0010917
-0.0446757
-0.00284124
-0.0308777
-0.0304131
-0.0790193
-0.017429
0.0245865
-0.0461513
-0.000460823
-0.00228893
0.269808
-0.00946214
0.0142229
-0.000228148
-0.0260506
-0.0262611
-0.00105114
-0.0164644
-0.0259833
0.00170172
0.466481
-0.000382102
-0.147785
-0.00231878
-0.00274084
-0.0014484
-0.00597956
0.202998
0.00305872
-2.4103e-05
0.0792542
-0.013882
-0.00160478
-0.116741
-0.00308183
0.034258
-0.0633313
-0.000901047
-0.00340481
-0.0284192
-0.0300141
-0.000194935
-0.171135
-0.0296309
0.00962907
-0.0402
0.00876924
0.433484
-0.0095999
0.026167
0.122683
-0.00172116
-0.00182998
0.257616
-2.87463e-05
0.918134
-0.0159887
-8.55302e-06
0.14759
0.190905
-0.20402
0.00313306
-0.036748
0.0355132
-0.00780421
0.00970643
-9.59723e-06
-0.0096627
0.0450695
-0.0277446
-0.0198763
-0.00440485
-0.0495223
-0.00635456
-0.00461143
-0.000798392
0.0471374
0.711699
-0.0366599
-6.92752e-06
-0.0011786
-0.000139464
-0.00321639
-0.170185
0.147647
-0.0508023
-0.0272722
-0.0964931
-0.0993117
0.645619
-0.000186286
0.00906934
0.0047134
-0.0520571
0.000662015
0.068598
-0.00438842
-0.00231819
-0.00980534
-0.00101744
-0.000701601
0.0365087
-0.00347192
0.173779
-0.00031992
0.0476583
-0.0114185
-0.0339099
-0.0265919
-0.0241648
-0.069305
0.00921741
-0.000203977
0.0574013
-0.104744
-0.0103892
0.0953842
-0.049405
-0.01958
-0.0384137
-0.187964
0.0986316
-0.185996
0.0539608
-0.00112381
-0.0261846
-0.000412492
0.142924
0.0105847
-0.00121355
-0.000124058
0.104355
-0.00237979
0.043581
0.114372
-0.163962
-0.000289927
-0.0238256
0.478142
0.094828
-0.00813129
0.145234
0.0190774
0.0443986
-0.000361653
-0.00356053
0.0142284
0.190497
-0.0404796
-0.00167849
-0.002267
-0.000230811
-0.0536947
-0.0321133
0.0476756
0.0154253
-0.022333
-0.118103
-0.0434707
-0.0781128
-0.0404392
0.281292
0.0299628
-0.0858374
-0.00328961
-0.000251781
-0.00944024
-0.102957
0.000560975
-0.000984287
0.122403
0.0810466
-0.03322
0.107948
0.00258884
0.461319
-0.00297327
0.168918
-0.0815182
-0.00317292
-0.000238714
0.0316518
-0.0317514
-0.00227243
-0.014641
0.235451
0.240992
-0.0191842
0.45474
0.160071
-0.0315923
-0.0288685
-0.057187
-0.0055324
0.141645
-0.0539166
-0.00114859
-2.82136e-05
-0.00226048
-0.0352041
-0.00716187
-0.0240589
-0.0689414
-0.101119
-0.00255029
0.497937
-0.015442
0.255344
0.772035
0.148278
-0.0549935
-8.99754e-05
-0.030336
0.000511389
-0.00968378
0.435125
0.111261
0.0911277
0.636501
0.004886
0.0367594
-0.0384168
-0.000125483
0.221362
-0.00646996
-0.0568017
-0.0250066
0.00587525
-0.000189583
-0.0753191
0.0532633
-7.85616e-06
0.761095
0.072795
-0.0013726
-0.000973532
-0.00270614
0.220632
0.0643056
-1.6149e-05
-0.00274032
-0.000202927
-0.000833017
0.000111788
-0.00271017
-0.00939349
-0.00547282
-0.00370389
-0.00974912
-0.00157555
-0.00135626
0.0290113
-8.49265e-05
-7.75455e-05
-0.052298
-0.0426482
-0.00395823
0.369377
-0.0354979
-0.00203236
-0.00983759
-4.2088e-06
0.00227816
-0.0568344
-0.0962337
-0.127163
-0.0012439
0.26584
0.00360019
0.127094
0.0132965
-0.0187372
-0.0233945
-0.0106051
-0.000150371
0.00640931
-0.121324
-0.000271931
-0.039784
-0.042272
-0.000327859
0.829607
0.118949
-0.00267814
-0.0516094
0.00133753
-0.0239178
-0.0118982
-0.000382198
-0.0308016
-0.0186092
-1.58133e-05
0.0700405
-0.000407746
-0.00253693
-0.0369942
-0.0695035
-0.00712932
-0.00824755
-7.48396e-05
-0.05305
0.000516592
0.145289
-0.0316051
-0.00112782
-0.0073607
-0.00264597
-0.0717722
-0.142885
-0.0872466
-0.010421
-0.0621991
0.106828
-0.000214875
-0.000434736
-0.0045103
-0.0331069
-0.00796488
0.61149
-0.0386871
0.891429
-0.00137291
-0.0374841
-0.0688568
0.231896
0.458977
-0.0121423
-0.00309154
-0.0570157
-0.000320736
0.664377
0.220348
0.0858393
-0.0388623
0.0570466
0.107244
0.593045
0.210155
0.168176
-0.0548594
-0.103923
0.246528
-0.0674111
-0.00287217
-0.0774699
0.019248
-0.000295592
-0.0261015
-0.000900037
0.00299701
-0.00493423
0.000667161
-0.0270193
-0.000479967
-0.0303607
-0.106969
-0.0550821
-0.00036772
-0.00608853
-0.000418033
-0.000260775
0.127032
-0.0609607
-0.0155976
-0.00148401
0.00831867
-0.000198421
-0.00120824
-0.00190419
-0.00114203
-0.113347
-0.0473607
-0.00262548
0.0933653
-0.0034346
-0.0482679
0.0419144
-0.010164
-0.00338028
-0.0012437
0.00569578
-0.0387148
-0.00353479
-0.000260118
0.00229019
-0.0719636
-0.0288279
0.0364027
-0.00129371
-0.0303092
0.754204
-0.000355803
-0.000173961
0.0365899
-0.0018636
-0.00234635
-0.000433635
-1.41965e-05
-0.000866969
0.0138969
-0.0605607
0.539553
0.83158
-0.00153792
-0.000682107
-0.00115896
-0.0593977
0.949537
-0.034282
-0.0677045
-0.0403533
-0.000386577
-0.000388745
-0.0467084
-0.00409842
-0.0591296
0.00947514
-0.0692868
-0.0463245
-0.000104981
0.668163
-0.114127
-0.000259613
-0.00311828
0.00863072
-0.0221908
-0.158857
-0.0647538
-0.0103099
0.331983
0.491534
0.127742
0.292171
0.0623718
-0.0704296
-0.0102729
0.00290893
0.0141621
-0.0325026
-0.000343466
-0.000125811
-0.11972
-0.159755
-0.00193204
-0.0270161
-0.0637651
-0.0650073
0.482581
-0.00347506
-0.0298505
-0.0160981
-0.0352028
0.00530953
0.0229436
0.00245132
-0.00405446
-0.018169
-0.0146119
-0.0131089
-0.0330175
-0.00640865
-0.0647167
0.244736
-0.03663
-0.017075
-0.00614871
0.125222
-0.0936837
-0.0585619
-0.0878477
-0.00019494
0.273305
0.0455667
-0.0368728
0.00050713
-0.0243712
-0.0162308
-0.00360474
-0.0503232
-0.0145332
-0.124492
-0.00806919
0.000415346
-0.000264774
-0.00115514
0.0309734
-0.00012561
-0.0193291
-0.0392718
-0.0411971
-0.000951852
-0.00120999
-0.000286964
0.000260906
-0.00799666
0.0147372
-0.0541401
-0.0610135
-0.050365
-0.0127191
-0.00411692
0.598092
-0.0129691
-0.00583001
0.297477
-0.0171144
0.312242
0.608091
-0.0116765
0.112543
-0.0152987
0.00689851
-0.00451976
-0.00372152
-0.0062129
-0.0381914
-0.156298
-0.0385766
0.00115016
0.0766507
-0.0872335