/*--------------------------------*- C++ -*----------------------------------*\
  =========                 |
  \\      /  F ield         | OpenFOAM: The Open Source CFD Toolbox
   \\    /   O peration     | Website:  https://openfoam.org
    \\  /    A nd           | Version:  7
     \\/     M anipulation  |
\*---------------------------------------------------------------------------*/
FoamFile
{
    version     2.0;
    format      ascii;
    class       surfaceScalarField;
    location    "24";
    object      phi;
}
// * * * * * * * * * * * * * * * * * * * * * * * * * * * * * * * * * * * * * //

dimensions      [0 3 -1 0 0 0 0];

internalField   nonuniform List<scalar> 
172499
(
201.204
57.4835
-258.687
-473.773
102
371.774
-111.399
-77.0681
188.467
112.74
-278.227
165.487
-435.994
323.583
112.411
138.323
-337.104
198.781
-146.039
286.903
-140.864
-81.3431
195.245
-113.902
-363.391
351.904
11.4868
-465.117
-8.65609
-229.968
354.471
-124.503
495.008
-360.235
-134.773
-169.421
341.078
-171.658
88.6227
-89.5064
0.883648
-44.0299
-319.361
-105.502
60.202
45.3
-456.098
86.508
369.59
-411.561
77.0271
334.534
-116.929
286.078
-169.149
-331.903
-104.092
-73.0255
183.288
-110.263
198.994
-196.936
-2.05839
392.793
-290.233
-102.56
159.629
-313.063
153.434
-228.876
201.344
27.5326
-117.475
227.132
-109.657
68.4731
72.5433
-141.016
-207.655
462.639
-254.984
-263.249
-175.898
439.146
-50.106
100.785
-50.6792
427.813
-342.019
-85.7943
-247.359
-67.4932
314.852
-267.179
406.042
-138.863
-101.116
-75.8563
176.972
-72.5874
-99.0834
171.671
182.211
95.3541
-277.565
-224.852
95.1699
129.682
-99.6988
-356.399
115.336
-147.439
32.1033
121.058
199.491
-320.55
157.502
-404.861
-57.6072
-353.954
-131.238
-35.263
166.501
-118.934
301.145
-37.8882
101.784
-63.8962
-2.24838
90.8711
263.961
65.9646
-329.926
543.863
-303.674
-240.188
397.88
-148.503
-249.377
414.139
-534.088
119.949
-390.722
478.202
-87.4803
279.735
-101.687
-178.048
-472.749
330.735
142.014
-504.398
451.001
53.3962
-119.255
-165.977
285.233
-317.632
-155.117
555.329
-366.035
-189.294
-132.199
82.1102
50.0885
85.9623
76.6187
-162.581
127.548
-229.63
102.082
-515.343
327.478
187.865
-186.322
330.805
-144.484
345.964
-129.387
-216.577
-104.395
185.423
-81.0281
295.88
87.1822
-383.062
9.43252
-401.285
391.853
-351.628
197.35
154.278
-219.503
399.692
-180.189
80.1378
-145.966
65.8283
-536.567
255.067
281.499
-107.33
202.198
-94.8682
201.22
-153.876
-47.3435
371.104
-250.045
-134.206
67.7468
66.4593
-96.6896
-90.993
187.683
80.1672
-164.049
83.8816
-207.829
49.5266
158.302
202.583
-402.98
200.397
-247.169
-142.1
389.269
-295.13
219.401
75.7295
-78.4355
-216.695
429.782
-432.78
2.99837
38.2958
-84.5991
46.3032
-306.393
558.112
-251.719
-137.215
240.741
-103.526
342.477
152.531
-108.501
177.515
-69.0136
-324.47
472.877
-148.407
105.505
-117.542
12.0368
-86.699
441.524
-354.825
135.07
-5.17694
-129.893
202.445
-20.4746
-181.97
206.541
-469.789
221.222
50.2229
-271.445
-420.545
315.165
105.38
-574.985
416.894
158.091
261.956
-321.794
59.8379
94.1508
-55.855
87.2822
-163.763
76.4805
0.56264
104.942
-314.491
-200.852
200.231
-435.097
234.866
328.008
-177.794
-150.214
-485.527
499.437
-13.9103
107.292
-214.622
170.137
-94.8188
-75.3181
-502.818
318.036
184.782
-40.0545
102.523
-62.4689
-141.576
225.182
-83.6059
-311.343
-71.1271
382.47
-123.338
234.275
-110.936
-54.6588
316.615
-176.612
-31.2171
133.734
107.298
-241.032
-105.766
46.4352
59.331
204.15
-345.405
141.255
-307.569
77.6016
-95.5349
221.433
-125.898
363.999
-541.569
177.57
50.4165
150.803
-213.836
118.301
-65.585
-39.917
-222.737
115.235
107.502
46.5882
-171.807
125.218
-230.663
532.609
-301.946
-112.659
62.5533
-264.734
78.412
-114.298
76.3259
37.9717
-181.034
-41.6917
222.726
-507.521
510.274
-2.7528
-108.796
236.454
-127.657
567.186
-287.771
-279.415
-172.742
187.507
-14.7649
538.968
-196.491
-329.44
480.848
-151.408
-115.562
227.163
-111.601
-258.806
175.452
83.3539
63.0674
-330.246
147.973
-267.228
182.75
148.055
84.5666
54.2031
-138.77
-191.597
341.129
-149.532
502.986
-504.544
1.5584
381.329
-197.099
-184.229
-267.753
158.957
141.961
-532.682
438.348
-332.261
-106.087
-115.334
-149.4
-453.03
233.527
-226.654
-167.651
394.305
107.18
62.9566
55.5341
-93.4223
7.90874
194.536
-567.957
273.279
294.678
133.089
146.646
-360.615
427.577
-66.9614
-412.19
100.847
-67.4935
221.5
-154.006
132.573
-132.751
0.178327
-152.971
113.305
39.6659
150.112
-69.9447
137.549
300.799
158.341
187.623
-189.794
147.121
42.6732
263.568
-143.258
-120.31
139.935
173.363
-313.298
445.764
-260.073
-185.691
-61.2497
-105.23
166.48
-190.838
123.344
-241.111
123.424
117.687
-241.489
155.844
85.6443
-102.278
366.238
-97.6604
-28.1947
125.855
26.6786
60.1306
-86.8092
-73.0472
-82.0277
155.075
219.93
-437.235
217.305
-70.983
97.6617
193.616
85.8422
-279.458
113.866
-333.335
219.47
277.088
120.791
-289.33
-131.285
420.615
-193.297
96.6076
151.196
-261.22
110.024
-208.886
416.337
-207.451
-274.513
-228.305
-162.575
384.869
-222.294
95.4576
-261.783
166.326
311.263
188.737
-137.689
326.191
-188.502
127.108
7.96179
-106.115
299.731
-338.838
188.837
150.001
453.18
-166.041
-287.14
-202.344
116.491
85.8527
-233.898
116.423
69.3312
-131.36
62.029
21.3863
-92.3693
-172.655
163.529
9.12587
55.5478
-146.443
90.8953
83.9148
137.457
-221.372
-569.051
390.016
179.035
-185.406
360.957
-175.551
363.878
56.5281
-420.406
481.283
-479.31
-1.97278
-338.341
169.043
169.298
135.25
-90.1326
-45.1177
369.955
-271.329
-98.626
-87.3033
383.183
-213.633
-196.537
410.17
97.2181
-209.576
112.358
-67.6081
88.9944
51.904
266.132
17.6712
-246.547
-384.205
297.506
-163.53
-63.5623
227.092
-84.7626
-117.582
-100.041
254.045
-154.004
-183.264
-137.398
320.662
78.7881
-81.0364
-123.614
-261.41
385.024
129.936
9.31836
-139.255
134.495
-0.188351
-134.307
134.936
-329.423
194.487
-75.3297
138.692
-63.3628
-73.5437
-430.854
-176.834
14.6204
162.214
-200.398
-80.7775
281.175
184.395
-68.5445
-115.851
138.138
-68.8064
-349.895
101.585
248.311
0.333109
-413.433
413.1
69.0704
-117.717
48.6462
51.2191
-133.113
81.894
83.5568
-176.179
92.6225
-237.958
121.976
115.982
-225.193
-343.859
-641.892
285.509
356.382
392.753
-204.692
-188.062
-56.0048
160.436
-104.431
239.678
-166.25
-73.4289
-44.5754
150.524
-105.949
-293.355
166.818
126.537
-119.022
-33.9491
154.43
-67.1475
278.176
-217.205
-60.9714
-234.576
407.637
-173.062
448.153
-221.634
-226.519
134.334
-86.1203
-48.2138
-163.021
101.772
-63.9993
-31.9611
95.9604
204.3
281.107
-485.407
-370.489
240.874
129.615
227.045
-530.929
303.883
387.329
-236.543
-150.786
118.316
-72.2138
-46.1023
-6.40599
-282.924
-74.4835
178.668
-104.184
-562.243
299.534
262.709
503.708
-503.708
-187.868
106.525
370.188
-376.594
-3.74527
82.5333
-481.046
272.16
-128.704
125.016
3.68883
41.1867
-182.763
257.837
-145.097
-105.549
152.137
179.525
-279.892
100.367
104.643
97.2886
-201.931
-101.236
208.851
-107.615
415.211
-131.529
-283.682
-328.14
190.451
428.083
-150.995
-223.354
-70.0009
141.885
177.352
-319.237
-187.833
104.274
83.5583
45.1617
-99.4642
54.3026
-171.022
97.9745
-248.062
297.844
-49.782
75.0513
-115.106
-120.895
-68.899
97.142
184.4
-404.764
220.364
69.5324
65.7178
456.588
-254.281
-202.307
172.31
206.705
-379.015
67.1419
-243.976
497.886
-507.96
10.0734
116.905
-71.8927
-45.0121
100.628
-151.036
50.4077
108.874
-63.7119
-500.323
66.1293
434.193
-169.06
29.5915
139.469
368.947
-317.043
-258.584
409.61
-151.026
-481.074
302.85
178.224
364.2
-244.485
-119.716
-140.743
-213.604
354.346
-161.412
345.141
-183.728
-232.311
131.074
-68.0583
-22.9031
90.9614
110.799
-192.708
81.9088
-60.8241
133.177
-72.3524
308.759
-193.316
-115.443
85.6528
38.038
-123.691
-129.809
283.066
-153.256
-252.927
166.848
86.0785
111.579
72.8165
101.332
-129.815
28.483
-173.107
286.972
-91.996
-187.396
279.392
126.553
15.219
-141.772
-96.4879
163.642
-67.1543
-152.454
96.449
-330.287
160.866
-179.789
346.468
-166.679
338.996
114.184
177.879
-412.455
272.686
-113.057
-180.319
123.78
56.5396
-4.05938
-180.398
184.458
262.742
-386.356
-57.6058
421.483
-34.7962
-70.9699
184.188
71.6566
-255.845
-142.526
59.3825
83.1431
-368.149
7.53385
197.014
-413.567
216.553
29.33
-97.3883
-152.967
-16.0934
193.994
-285.99
-432.873
-67.4497
141.704
229.408
-371.112
219.139
145.062
122.645
-57.6181
-65.0265
172.08
102.14
-274.22
-257.908
168.481
89.4272
80.3344
-357.605
277.271
352.987
-214.664
243.28
-147.822
83.3059
108.009
-191.315
-132.46
269.321
-136.861
128.999
-60.5259
91.204
-181.482
90.2777
265.862
-89.3517
-176.51
-170.508
-212.798
383.306
-175.065
-72.9966
-67.8432
-35.7161
103.559
77.959
49.7295
-127.689
320.518
-172.926
-147.592
-215.927
43.1849
-509.599
345.185
164.414
365.24
4.94804
170.147
-290.271
120.125
185.711
-101.797
181.307
90.7904
-272.097
-51.6263
252.83
-105.321
-299.56
404.881
-171.307
388.648
-217.341
-112.832
262.854
-150.021
-172.416
283.933
-111.517
144.864
-98.5237
-46.3399
-144.804
-80.0482
-135.664
81.5362
54.1275
275.685
-158.081
-117.604
-438.081
332.76
-160.653
163.385
-2.73223
-185.538
111.851
73.6873
303.749
-168.813
-168.961
473.04
-304.079
201.252
-88.8137
-112.438
66.2655
88.0227
-154.288
72.5698
61.7644
25.6695
229.879
-255.549
95.5196
105.951
-201.47
63.5465
305.9
-369.447
148.219
510.439
-96.3002
225.727
95.8469
-321.574
-142.465
299.894
-157.429
135.884
-66.8139
213.431
-117.753
-95.6776
-81.1443
203.104
-121.96
139.855
-252.687
396.164
-223.853
-371.325
369.333
1.99143
142.989
-91.7694
-58.2233
-36.7083
94.9316
489.131
-165.548
-62.514
185.543
-123.029
-230.688
428.419
-197.731
278.012
172.61
-450.622
68.5315
-177.033
-454.927
247.271
-22.4712
156.966
-324.731
187.327
137.404
2.8691
98.4631
-316.468
-132.127
448.595
267.435
160.648
-74.8945
-84.4068
159.301
96.3376
2.7099
-99.0475
-242.04
354.577
-112.537
125.809
-117.738
-8.07139
-168.381
392.428
-224.047
-127.584
132.842
-5.25797
55.546
123.801
-179.347
142.049
-471.488
-169.302
261.271
-91.9688
-97.6769
250.218
-152.541
-133.314
197.611
-64.2976
254.537
-162.727
-91.8096
-274.537
87.1413
237.269
-407.777
-39.543
214.062
-174.519
-225.728
88.5127
195.942
101.902
381.878
-114.443
84.0679
-136.954
52.8861
353.323
69.9349
-423.258
-196.385
406.839
-210.454
-232.838
-267.158
22.8021
-90.4102
601.521
-379.323
-222.198
-36.5447
129.454
-92.9094
-161.903
65.4147
305.852
-391.703
85.8503
-138.212
193.758
-391.709
380.562
11.1469
330.591
224.737
148.024
156.871
-304.894
-504.838
382.581
122.257
-352.499
426.172
-73.6734
-99.4292
252.645
-153.215
179.477
-67.8985
128.607
180.152
125.956
-295.259
-124.297
270.5
-146.203
382.837
218.684
336.278
-330.396
-5.88185
325.157
-529.563
204.407
341.452
-138.869
-102.896
-404.625
65.529
-217.041
151.512
80.552
-155.446
357.378
99.2104
183.332
-81.8182
-101.514
237.902
169.735
134.619
233.651
-368.27
-99.6443
377.657
414.338
-194.408
-403.773
12.5313
391.241
-291.196
-180.983
472.179
421.605
-291.792
-129.813
489.837
-249.656
-240.181
-71.0243
-91.997
-59.5774
272.152
-212.574
57.2301
85.1433
-142.373
83.6121
-140.748
57.1359
157.857
158.158
-316.015
-184.873
31.2954
153.578
37.2784
88.531
412.088
-174.186
374.934
114.197
-265.414
-150.064
415.477
-29.9173
156.47
-175.343
102.318
-161.294
-219.938
381.233
-25.4133
85.5439
-37.9455
-146.928
166.346
-457.542
199.779
-32.4455
-57.0509
89.4965
217.011
-56.5748
-90.071
-44.1351
-261.199
136.902
-103.529
287.717
-324.718
499.956
-175.239
261.316
-422.61
398.143
-197.912
104.098
196.572
-300.67
-143.138
64.1206
79.017
-367.32
488.64
-121.32
307.405
-227.07
554.735
-227.535
-327.2
115.637
101.374
358.778
-116.959
-241.819
-271.721
434.518
-162.797
140.422
-247.249
106.828
-159.768
32.7953
126.972
-154.384
-77.9262
151.644
-393.742
242.099
10.7673
-119.11
108.342
454.354
-195.709
-258.644
303.289
-477.647
174.359
-227.621
188.078
90.4743
110.778
101.385
-6.20171
-95.1833
253.761
-120.027
249.702
143.051
322.547
-180.896
-141.651
-326.802
217.252
109.55
-488.065
398.725
89.3408
183.931
-100.375
-107.209
188.65
-81.441
-182.527
-70.4002
349.196
-43.3442
118.408
11.0627
-129.471
-117.822
201.128
-131.386
86.8104
-530.242
360.197
170.045
311.384
-141.237
226.274
161.055
161.422
-397.965
-474.617
238.099
236.519
-248.598
165.195
83.4025
112.612
-43.3381
-69.2743
-219.091
-203.079
422.17
101.493
148.499
-249.992
-407.089
282.493
124.596
-272.137
-134.953
-561.729
373.546
188.183
-284.213
101.686
586.004
-299.814
-286.189
-149.04
-176.566
325.606
-132.253
137.179
-4.92609
-165.19
274.67
-109.48
-254.345
154.916
-415.157
300.494
114.663
107.126
92.4278
-199.553
-370.641
193.963
176.679
-112.644
-128.845
141.687
-104.866
-36.8206
276.187
105.692
573.97
-316.416
-257.554
253.319
-519.759
266.441
55.541
-116.945
61.4042
94.571
6.81406
-62.5745
145.18
-82.606
272.976
300.994
72.1177
-173.234
-290.35
157.891
119.749
-39.6111
116.521
159.164
347.27
82.512
107.638
71.8396
38.238
-187.087
148.849
365.272
-514.253
148.981
-60.9512
326.112
-265.16
-33.8642
117.476
174.745
379.99
-146.741
359.053
-212.312
68.091
-165.801
97.7098
-341.014
-300.878
-62.5688
-36.2491
98.8179
6.5299
-138.783
-107.191
117.958
176.649
-85.4448
179.007
-328.047
-137.825
77.9806
59.8447
-351.911
-87.6848
439.596
-338.28
521.848
-183.568
108.386
-370.688
262.302
56.8621
-144.515
87.653
-114.357
-235.538
293.699
107.658
-401.358
178.208
-112.679
249.949
-141.969
-107.98
555.172
-193.739
-361.433
-370.612
52.8916
317.721
331.642
90.7751
-422.417
-479.641
499.782
-20.1416
-146.197
-76.5397
-94.9019
199.545
142.824
179.724
250.066
-536.675
286.61
377.002
-367.57
461.742
-168.043
553.007
-298.841
-254.166
-224.066
244.968
-20.9014
-52.0733
170.482
-98.5899
-254.617
353.207
56.7853
446.922
-67.6308
-84.823
143.116
-85.8862
322.581
-164.724
129.367
59.3171
-188.684
167.01
-226.588
-68.6665
-101.254
169.92
552.673
-552.673
-3.3181
-124.266
280.985
-168.279
-112.705
-309.973
-171.101
-162.759
91.7344
-366.497
-119.03
-77.4865
143.752
202.723
-293.802
186.848
106.953
13.1757
-404.884
129.59
107.531
-237.12
89.2857
119.565
135.76
-51.1931
-67.3335
-303.279
78.5096
-251.65
173.14
-10.9583
-392.814
-298.241
151.5
-132.403
-183.73
316.133
114.298
234.816
-349.114
-328.357
500.851
-172.494
-91.8165
-36.8878
-73.1522
104.861
-31.7087
-99.0918
181.169
-82.0776
227.794
169.602
-397.396
317.714
-213.616
405.757
-186.618
-304.333
-200.505
156.609
-273.538
-161.999
89.4117
-412.909
308.085
104.823
83.9321
-435.843
90.8185
151.436
-242.255
-221.892
-153.409
375.301
40.8321
-101.656
134.651
-164.568
-117.632
-225.149
342.781
-301.845
240.894
-101.414
-51.8964
153.311
-188.29
110.129
78.1612
358.244
-517.297
159.053
319.549
-213.381
-106.168
156.731
291.422
77.4402
85.1222
-162.562
387.198
-160.924
146.88
-514.2
259.007
-180.498
158.094
161.455
-64.6912
-348.217
218.375
-378.009
159.634
408.671
-237.781
-170.89
75.5073
-260.367
184.859
-228.785
-10.1076
238.893
66.2998
-158.244
91.9445
83.5957
-161.121
77.5249
193.576
212.181
-48.8812
145.219
-334.332
418.264
135.78
234.092
-369.872
-105.461
309.611
78.2633
107.266
-185.529
41.7852
-314.668
272.883
-139.133
145.663
278.629
-458.096
179.467
-93.624
222.991
270.357
-455.232
196.649
-94.2223
0.885447
93.3368
39.075
121.557
-160.632
220.27
234.084
-114.985
193.248
339.857
-28.4317
-311.425
-124.035
444.717
-320.682
101.953
290.84
44.4594
227.692
316.879
134.705
-451.584
327.886
-268.416
-59.4702
-32.3156
-128.337
-208.569
93.0067
-76.0207
-30.8581
106.879
13.814
-89.8346
-315.833
173.368
-75.1025
-177.743
252.845
188.945
130.412
-319.358
-222.593
-47.5548
270.147
-153.475
85.8444
81.8991
-180.991
-84.0369
-318.656
402.693
-80.7575
-142.597
517.667
-239.038
-70.3895
75.1979
52.1926
-127.391
-168.398
82.615
85.7834
70.9829
-91.3915
20.4087
106.089
172.769
-278.858
-186.56
105.591
80.9693
-137.779
319.086
-99.287
-126.874
226.161
-327.63
-208.937
-244.178
127.423
116.755
-229.282
527.005
-297.723
442.184
-290.541
-72.5601
-94.1204
166.681
-73.4401
102.77
-183.455
323.575
-140.12
-118.188
270.185
-151.997
163.132
-69.5456
-93.586
-251.333
359.718
144.129
-86.6126
-57.5166
-274.081
279.99
-5.90825
-278.354
132.315
195.839
10.8086
-206.648
-197.92
389.114
-191.194
124.61
-60.5007
-64.1096
227.571
-469.258
241.687
-497.835
173.365
164.331
-34.3948
-139.825
0.692514
-189.655
87.6196
102.035
-149.492
367.867
147.08
-78.9887
80.8645
-415.196
-41.6505
-71.1075
112.758
-105.579
-509.239
357.362
151.876
249.178
78.7082
-305.772
-160.75
466.522
-84.5589
298.8
104.01
-140.554
-54.4288
-133.404
-233.143
-243.827
476.969
-198.424
-242.918
441.342
-286.777
275.236
11.5418
313.863
-250.316
-296.591
-213.009
340.839
-509.8
101.239
95.5732
-196.812
-383.237
212.406
170.831
157.168
217.766
-77.2575
142.449
-65.1919
-330.359
526.17
-195.811
-188.379
135.375
53.0046
-130.467
42.0473
88.42
52.9349
-126.087
-63.9301
395.572
95.1568
64.295
-159.452
503.755
-186.877
-113.728
264.924
-318.57
157.158
-287.02
287.02
-151.005
241.823
-548.847
281.597
267.25
-238.015
-96.9994
335.015
186.813
-148.575
-126.291
134.235
-7.94481
-252.777
80.3614
123.371
-483.606
38.8482
78.0566
-137.974
-310.882
448.856
-232.454
368.235
-250.117
150.075
500.634
-244.563
-256.072
-191.285
-37.5005
150.295
-328.088
-568.488
398.505
169.983
-285.541
-156.469
-203.403
37.8134
165.59
-53.3429
-112.494
165.837
133.219
120.542
-64.9874
111.087
-46.0991
-0.362998
61.0254
-60.6624
222.909
-221.96
-0.949678
212.833
-337.856
125.023
70.8992
-178.108
-72.9835
-154.638
104.839
-199.034
94.1955
-393.457
-264.712
337.137
-72.4255
83.6668
40.9434
-20.5873
-115.523
136.111
-150.542
-201.086
155.9
-386.699
230.799
-173.605
101.045
88.9411
47.6462
-136.587
37.0239
-138.438
-158.001
240.956
-82.9551
156.094
107.739
-263.833
-156.484
-287.269
443.753
171.143
-421.686
250.543
107.917
-158.257
50.3392
-540.729
308.914
231.815
465.339
-323.436
-141.903
-501.517
176.799
-126.964
123.646
-67.7204
-107.623
313.156
-412.8
-344.522
-130.095
-157.132
-136.67
-380.69
155.936
224.753
-214.54
133.782
-46.2723
307.231
-260.958
-90.6688
-241.124
128.481
174.581
104.11
-278.691
258.804
-454.465
195.661
197.074
-99.8561
-316.837
103.457
223.608
-96.0607
-327.563
-112.154
439.716
383.6
-227.699
-331.844
336.465
-4.62126
-71.6721
122.767
-51.0944
-380.469
167.671
-312.395
126.499
185.896
132.352
-132.352
-194.949
-256.073
451.021
471.558
-390.694
64.2168
-264.615
3.95681
335.9
332.826
222.346
-241.656
-48.0225
289.678
127.122
6.4829
-133.605
-73.0222
139.059
-66.0368
-182.838
114.808
68.0299
-323.01
-244.947
-165.852
97.1859
116.861
-41.6629
-272.642
-302.343
-144.579
82.0049
132.784
208.294
72.9554
34.4445
-107.4
-45.3223
138.93
-93.608
379.797
173.209
-171.26
-112.952
-336.285
-172.953
-156.515
-100.105
256.62
-69.3805
-272.643
342.023
-351.885
192.457
159.428
-91.6396
-103.803
195.443
337.801
-505.071
167.27
209.157
-354.612
145.455
235.547
-414.49
178.943
-78.8374
-53.3613
-237.943
164.96
166.925
-395.157
228.232
-152.399
99.0557
-380.144
194.738
-205.924
363.092
-76.3555
144.579
-68.2237
91.0011
-143.842
52.841
26.4864
-90.4857
-154.037
366.87
483.497
-465.546
-17.9517
-95.6888
152.551
-78.2653
135.038
-56.7732
260.88
-455.828
-58.1841
165.928
-107.744
-149.248
289.183
390.877
-507.238
116.361
232.617
76.5312
-309.148
48.0309
-101.31
53.2786
-36.2236
107.207
59.124
32.1272
-91.2512
-42.1534
142.347
-100.194
-10.7907
160.735
-149.945
176.424
-71.5854
387.47
-137.768
-73.7498
278.087
-204.337
-303.722
-48.7772
182.475
-104.261
-78.2136
198.213
-305.596
107.383
-239.79
-147.232
387.021
-86.2312
177.232
-274.646
162.955
111.691
230.037
-357.886
127.848
-324.178
204.207
119.971
252.103
-133.236
-118.867
-134.621
69.7973
64.8239
183.925
-397.558
-110.181
-72.9408
183.121
-44.3613
-135.569
179.93
100.185
-247.054
146.869
-113.199
208.718
185.847
-98.5866
-87.2606
-56.707
-111.573
168.28
-38.4491
173.1
-163.748
-117.508
281.256
-304.775
-8.64953
313.424
48.3438
-110.633
62.2889
168.797
97.0655
116.407
107.202
-84.1059
96.7328
-12.627
-203.403
-55.6417
446.518
-2.86178
118.198
377.273
13.4991
-390.772
389.37
-326.302
-477.024
180.433
60.845
47.9754
-108.82
-146.865
-33.4544
83.1704
-259.854
176.683
120.257
-384.968
-175.599
-34.7059
267.323
-69.1711
265.011
257.381
158.956
-412.218
214.298
-143.29
66.0329
389.892
-162.846
243.693
-107.434
-136.259
259.019
-328.4
306.384
-185.258
-121.126
179.852
-169.215
-10.637
117.331
-68.9873
-215.39
-235.507
450.897
-195.104
32.219
162.885
492.154
-485.502
-6.65251
241.554
-69.9719
-171.582
244.619
247.124
-491.742
272.805
-172.621
-164.359
300.855
-136.496
-159.36
307.383
-134.805
220.151
-85.3453
-189.692
-148.648
71.8379
-153.656
81.8183
106.033
-205.32
352.143
119.416
-239.816
-175.341
-63.7492
-104.649
116.247
-43.2914
-172.383
275.504
-103.121
-66.1231
152.085
116.51
-43.6752
-72.8346
-136.632
79.9248
-581.627
370.294
211.333
57.2836
-138.464
81.1802
-178.65
261.82
-66.0397
131.159
-65.1189
71.6219
44.8879
-142.936
363.75
-220.813
-124.162
-102.506
226.668
-57.8007
-36.8058
94.6064
337.703
-145.086
-192.617
244.248
-85.09
-159.158
-379.841
-309.792
-167.232
-55.8932
-97.5142
153.407
123.041
-313.23
190.189
144.082
-72.2444
-123.438
-3.5259
174.123
-421.291
312.249
-94.9973
-163.723
101.209
-172.693
82.924
89.7689
338.855
-129.698
159.509
-127.781
-31.7279
-79.9851
-92.7078
66.8332
-133.076
66.2427
101.84
-169.561
115.795
-64.0614
-104.052
168.113
-90.7706
225.91
-135.139
123.249
-41.5018
-81.7475
-269.306
-35.469
121.383
92.0476
-84.3239
10.8838
-98.0025
213.642
-115.64
-97.5734
99.12
-1.54655
-98.7924
-77.9539
-95.857
173.811
483.92
-385.919
-98.0004
423.375
-110.219
140.78
-101.705
-425.694
463.886
-38.1926
-178.502
305.328
-126.826
-237.421
301.638
99.4577
86.3894
-70.1087
-115.429
-93.0135
272.538
-148.234
299.112
-150.879
41.0748
58.4232
-99.498
-297.938
157.837
140.101
116.417
-60.8757
-83.423
-70.4534
-220.504
-187.545
408.049
139.605
344.315
-456.441
258.017
239.689
-239.689
-66.7814
79.9816
-13.2001
185.283
-107.331
-77.9521
246.001
-540.003
294.002
182.877
154.826
-252.677
356.451
-103.773
123.402
-66.1185
-203.444
130.016
73.4279
156.959
330.238
-487.197
253.993
-120.774
-317.576
162.24
155.336
94.0571
-185.246
91.1885
281.675
157.404
-439.079
-229.813
105.651
92.2207
-163.231
71.0106
137.232
-179.386
-170.161
397.955
-180.564
109.592
70.9723
173.286
-105.854
-67.4324
-95.2644
371.493
-276.229
332.401
-165.39
-33.8868
106.952
-73.0649
180.082
179.557
-359.638
-207.617
-248.824
-90.7721
349.576
97.9931
-184.004
86.0105
-204.85
399.375
-194.525
158.861
-64.8044
318.682
-219.296
-99.3852
141.626
-57.5576
-219.774
-160.998
84.6423
-620.249
303.833
132.882
493.637
-501.553
7.91612
211.14
189.119
-400.259
114.088
45.4209
-371.981
-116.084
150.435
-154.494
15.2434
-302.021
-24.8686
-123.134
148.003
158.692
-296.485
137.793
124.542
274.183
-131.438
88.351
43.0871
47.1686
-182.737
34.8349
-68.4844
33.6495
263.352
95.4264
262.333
-173.307
-89.0259
146.475
-80.1751
-395.993
275.22
120.773
-260.072
-360.177
186.366
55.1879
145.095
-456.105
311.011
-65.623
-78.0833
143.706
33.0005
-124.547
91.5469
289.173
211.461
-2.97045
380.244
-78.2119
-69.2273
429.368
-147.693
80.2349
-132.918
52.6836
-464.115
260.638
203.476
-201.76
-245.635
447.395
-366.486
566.486
-199.999
280.965
146.848
-173.835
249.711
-75.8764
-163.489
264.981
351.957
-277.058
-74.899
-179.429
290.65
-111.221
-184.74
-154.098
-112.04
-169.551
281.591
88.3028
30.6107
-118.914
189.963
-82.8371
440.464
-378.707
-61.7566
-185.506
115.345
70.1612
84.7221
268.401
-353.123
122.148
-33.2073
347.446
93.0175
-67.3993
159.62
-101.378
-30.0603
-225.968
514.177
-288.208
3.86467
191.685
-195.55
225.791
-394.012
168.221
-80.7756
-41.2987
122.074
288.873
98.5974
-83.1373
-20.5897
103.727
-128.718
110.587
18.1315
-188.152
127.829
60.3228
182.864
384.321
96.9973
-37.8733
-270.228
-125.765
228.502
-443.892
413.733
-509.866
96.1336
68.2631
223.073
-31.8231
-191.25
131.837
-65.0035
80.9121
-408.475
-77.5487
-88.552
166.101
99.756
-7.90086
-91.8552
-112.423
44.5799
120.178
134.359
152.082
-329.258
177.176
-91.4748
161.475
-70.0002
152.458
-357.308
359.708
-236.667
341.844
-82.8246
-361.544
-200.699
-288.062
473.297
-185.235
429.261
-324.289
-104.973
-9.28485
-342.458
351.743
-336.541
-176.346
512.888
-150.921
-8.84629
64.4533
-29.6184
-505.626
262.796
242.83
-160.191
-98.6146
-70.9721
-63.6491
-48.1964
156.114
-95.8473
172.466
-554.699
382.757
171.942
97.4083
-161.47
-23.8975
88.897
-64.9994
181.382
-146.38
197.973
-318.715
120.742
322.428
-255.458
-66.9702
87.4112
-397.452
310.04
215.15
-98.7433
114.587
255.368
-89.6216
-98.6684
108.873
-60.8417
474.791
-299.367
-175.424
-267.294
363.992
-96.6982
-122.529
191.926
282.865
-417.833
31.8678
385.966
-289.525
-191.521
143.635
-222.726
79.0905
-129.767
-82.0138
211.781
107.645
210.859
-318.504
39.1966
-266.098
-239.528
-93.3078
-33.9621
127.27
-203.37
326.166
-122.796
481.529
-175.629
413.394
-68.2088
-303.35
173.54
94.3831
5.37298
-273.87
-32.8567
306.726
57.3338
-373.802
-408.882
137.161
128.741
-16.8167
-111.924
168.029
-278.71
110.682
-108.82
264.913
-458.715
334.68
-77.4474
-80.7969
497.288
-149.841
-240.466
406.75
-166.284
218.965
-347.324
128.359
470.13
-111.886
58.3006
60.0155
-309.132
135.297
355.678
-204.467
-151.211
-171.563
297.021
-125.458
133.968
347.562
169.524
-269.825
100.301
389.876
-107.383
361.135
128.984
-490.119
329.077
-226.093
-102.984
473.836
-502.763
28.9271
122.996
-74.8916
-48.1047
339.22
-224.922
-11.4085
-82.8138
-80.7344
-182.152
262.886
40.7195
-124.33
83.6102
-150.212
66.7886
-307.187
474.403
-167.216
-87.271
-50.5543
-194.642
198.507
104.028
49.3866
-131.484
82.0971
288.396
4.02041
-292.416
-146.137
92.4773
53.6601
-100.814
454.137
182.964
123.42
-145.921
304.613
-236.836
155.691
335.715
53.6548
-158.367
-159.21
16.9419
226.338
-250.749
79.4885
-141.102
240.964
-99.862
59.9378
-137.424
415.52
-204.38
-371.19
376.891
-5.70133
-133.016
494.152
67.117
-138.031
70.9141
132.732
-68.3982
-141.686
210.084
-152.218
185.395
-71.3075
66.5785
24.0242
-90.6026
60.9236
-128.639
67.7159
-256.415
158.738
-98.0868
-69.327
167.414
-267.754
-293.724
126.75
166.974
117.443
-84.4422
54.3765
-113.568
59.1914
57.9081
-187.675
144.442
138.624
-118.897
270.335
-151.438
-142.224
88.8386
53.385
-81.2837
203.271
-121.987
-375.354
212.779
-182.948
363.03
151.807
-271.032
119.225
253.824
165.344
-419.168
-52.7112
-32.2858
84.997
331.449
97.8117
338.145
-147.477
-190.668
-157.698
406.185
-248.487
165.306
-70.9642
325.725
-254.761
327.681
121.679
-449.36
474.56
338.301
132.904
-471.204
249.322
-456.94
189.806
-26.5594
-163.247
-338.447
183.448
154.998
-128.453
16.7847
111.668
89.5184
19.0489
-108.567
-59.7723
-83.3653
12.4637
-383.653
-356.31
213.374
61.3916
192.56
-253.951
-377.992
307.028
222.268
123.365
-345.633
-54.0929
108.108
-54.0148
-100.518
-150.955
251.473
568.628
-257.365
63.145
135.849
-140.612
-280.197
420.809
-122.947
170.115
-221.832
384.928
-163.096
-359.854
44.4849
315.369
-178.104
-279.151
457.255
-68.5161
-61.9512
-564.253
366.718
197.536
300.562
-181.931
-118.63
-124.127
346.396
-167.23
69.1432
111.141
-188.689
154.685
89.0087
-162.436
-490.527
250.993
239.534
-172.147
92.1622
-266.102
97.8224
-292.755
-288.873
-58.2254
-243.62
95.9867
-332.278
236.291
-203.38
-172.685
63.7538
108.932
-247.426
-69.4113
-114.377
-38.1542
152.531
-49.658
-43.229
92.887
-319.853
224.588
24.8003
-92.4941
67.6938
158.157
-189.98
153.929
-365.588
211.659
3.60994
-277.479
-191.589
316.412
-124.823
-241.018
256.261
106.569
-132.873
-89.4574
222.331
402.653
-411.938
113.906
-72.8313
285.333
189.758
-475.091
-81.0784
-91.0689
-78.4997
272.494
364.674
-367.644
94.7427
-5.22427
410.02
-126.055
-283.965
106.185
167.445
-273.63
140.111
-53.8446
-119.939
173.783
277.767
-122.198
-155.569
347.75
42.1263
130.007
-89.2871
-501.731
173.374
67.6623
-133.702
-130.825
68.6711
62.1543
-52.7106
166.968
-114.257
-141.741
-76.6275
218.368
24.4986
-97.7441
73.2454
-123.799
43.0232
177.708
-186.133
8.4246
231.289
-281.385
50.0955
-218.459
76.7181
-87.573
-76.4759
-51.8598
-69.8608
121.721
142.568
188.128
200.986
-225.494
179.221
177.419
-137.787
-39.6314
-378.695
270.703
107.992
235.832
-84.3959
336.139
161.149
335.068
103.143
-438.211
-130.08
-137.674
-537.845
251.053
286.793
225.024
-311.028
86.004
142.003
120.33
-94.9629
61.0761
-41.1563
98.7047
-57.5484
-272.263
-220.397
492.66
-416.512
441.67
-25.1579
-267.271
103.741
-127.419
-457.851
-21.1795
479.03
210.016
244.208
-454.224
-123.842
-188.553
-149.46
-148.477
94.144
-27.5656
-337.394
135.634
-32.4951
172.917
-128.311
-274.81
174.765
100.044
83.3888
66.7231
-131.406
-143.849
275.255
141.184
-91.7976
416.408
-294.46
-121.948
-138.386
357.35
-209.744
-51.4758
457.152
24.1306
-114.374
-75.235
189.609
454.656
-0.194978
-454.461
-92.3968
328.012
-235.615
116.614
82.4593
-199.073
-374.89
223.295
151.594
-130.312
-107.144
-167.665
140.786
-73.6691
-108.225
290.376
-182.151
137.932
142.572
-280.504
-150.35
-53.0936
-246.205
-177.834
424.039
117.148
476.437
-332.683
-143.755
-153.765
147.242
-93.2047
-54.0375
33.3645
-90.4154
202.564
-271.735
294.389
-352.614
-404.771
347.165
193.532
-317.374
230.674
181.414
440.331
-204.785
-237.899
164.149
94.2157
82.4331
-92.0581
112.834
-165.545
-270.886
290.183
-19.2973
-277.288
-20.9531
77.7153
-140.328
62.613
116.296
286.208
-159.458
248.115
-139.745
-108.37
-81.0549
140.993
-270.278
120.414
-188.812
311.07
-62.5577
-248.512
-260.418
470.434
484.809
-148.671
-370.081
267.178
102.903
-22.2845
476.94
-222.147
419.161
-86.0434
-203.142
289.185
105.037
-263.104
158.067
11.4077
291.442
-334.611
-247.387
581.997
147.83
-348.175
200.344
-292.777
392.813
-100.036
-113.225
451.526
352.295
-126.568
175.885
-89.5795
369.585
-280.005
-80.2811
-65.8563
-246.464
155.568
90.8959
176.241
149.925
65.4712
-59.7373
-279.804
339.541
-386.13
-78.9873
-134.692
-197.569
-338.061
229.837
-412.878
412.878
174.646
-338.223
163.578
179.36
-340.642
161.282
231.63
79.4396
53.6881
37.2811
-90.9691
218.083
-371.491
287.699
-465.803
241.187
-38.0832
144.552
159.197
72.7484
197.9
-270.649
124.711
-71.3811
-53.3302
-71.8657
-293.431
365.297
115.931
-186.387
70.4557
-74.9842
188.345
-113.361
331.91
4.36782
-77.6417
80.3516
-276.269
321.601
-45.3325
41.7627
148.044
91.7204
18.2985
-110.019
-317.004