/*--------------------------------*- C++ -*----------------------------------*\
  =========                 |
  \\      /  F ield         | OpenFOAM: The Open Source CFD Toolbox
   \\    /   O peration     | Website:  https://openfoam.org
    \\  /    A nd           | Version:  7
     \\/     M anipulation  |
\*---------------------------------------------------------------------------*/
FoamFile
{
    version     2.0;
    format      ascii;
    class       volScalarField;
    location    "14.5";
    object      p;
}
// * * * * * * * * * * * * * * * * * * * * * * * * * * * * * * * * * * * * * //

dimensions      [0 2 -2 0 0 0 0];

internalField   nonuniform List<scalar> 
7807
(
2.19563
1.80289
2.3701
2.20571
1.04452
0.317533
2.40713
1.34037
0.667622
1.90292
0.279129
1.18198
1.41381
1.7259
1.91339
1.53776
2.20173
1.47566
1.45506
1.73387
1.84778
1.09483
1.66292
2.12557
1.51516
2.20486
1.03015
1.77723
2.05441
1.47772
1.56472
2.46404
1.66392
0.891155
0.528558
1.84755
1.49497
2.3936
1.42381
0.758359
1.42593
1.5301
1.74261
1.85482
0.658632
0.436205
1.08412
1.412
0.425722
1.73543
1.24927
1.76281
1.55397
1.67039
1.84729
1.32887
1.44298
1.33858
1.6131
0.88816
0.345486
1.29867
1.72521
1.19309
0.924423
1.56603
0.656596
0.0563491
2.018
1.40076
0.421803
1.69832
1.50154
1.60564
1.46061
1.6595
2.35924
1.83877
1.92785
1.69683
1.40292
2.45934
1.92934
1.60859
1.20954
1.17168
1.35643
1.54165
1.05031
1.24321
2.06419
1.86634
0.575255
1.40984
1.26989
1.55236
1.69797
1.67365
1.20941
1.00256
1.66695
1.94044
1.26044
0.206218
1.87961
2.08184
2.70668
1.33562
0.0163156
1.73084
2.1853
1.74923
0.0262847
1.74505
2.08059
0.919559
1.78395
2.00723
1.67651
1.62163
1.68351
2.44371
1.74753
1.5303
1.65765
1.09722
1.53365
1.43821
0.969988
1.55646
1.83281
1.92114
0.945393
1.06347
1.62078
2.17581
2.76421
0.214102
1.42495
1.779
1.60024
1.70642
1.66186
1.60907
2.69878
1.70789
2.05883
1.61654
1.62421
2.43412
1.83382
1.86888
1.17881
1.9983
1.9249
2.35023
1.67353
1.40806
2.51416
0.400236
1.41702
2.14136
0.247166
1.33226
1.29432
2.2509
2.25387
2.49592
1.33014
1.25866
0.066822
1.61331
0.904223
1.81156
1.44089
1.59788
1.89736
2.07192
0.582245
0.940514
2.21079
0.373313
0.50295
2.3966
1.80317
1.72882
1.67321
1.59617
1.70373
1.79831
0.247357
1.69224
2.08087
1.26316
0.441234
2.12453
1.05257
1.54784
1.69435
0.0667168
1.15142
2.18695
2.11283
2.375
1.78403
1.75284
1.7767
1.79839
2.18221
0.641376
0.322606
2.61989
1.52051
0.939643
1.69053
1.5416
2.3117
2.32777
1.70629
2.48231
1.0346
1.47626
1.67814
1.87432
1.74726
2.1621
2.53701
0.553999
1.52665
2.02599
1.38295
2.00296
1.05838
2.47445
2.35159
1.35274
1.449
0.748585
2.08101
0.534351
1.47953
1.69743
0.439791
1.23229
1.0469
2.07056
0.274319
1.27062
1.69398
2.43739
1.90785
2.52463
0.326842
1.69147
0.780885
2.36846
1.28787
2.73187
1.47006
1.16122
1.74843
1.8073
0.908389
0.683307
0.9141
1.39302
1.73869
0.312521
1.66927
1.2788
0.587949
0.963408
2.56205
1.38962
0.926341
2.65012
1.22943
2.19074
0.775799
1.62502
0.0913662
1.65473
1.86242
1.90956
1.61614
0.930835
1.72596
1.5665
0.654115
0.89932
1.28518
1.39782
1.22695
1.16963
1.60557
1.74474
1.59781
1.86449
1.64866
2.30867
2.32116
1.11188
1.88932
0.0847459
1.31879
1.57471
2.11396
1.95756
0.517376
1.30584
1.63081
2.07654
1.0922
1.26146
1.09191
1.95985
1.81696
2.26885
1.12532
1.82099
0.567709
1.44678
0.389893
1.60015
0.776603
1.64904
1.87109
1.64783
1.62798
1.50318
0.882298
1.74191
1.56882
1.95325
2.07258
1.76898
1.84423
1.57121
1.38259
1.69976
2.49006
1.84059
1.76564
2.52458
1.136
1.1483
1.85589
1.17629
1.70333
1.37996
1.23745
1.16543
2.04811
0.618025
0.893575
0.468819
1.26315
1.47041
0.121166
1.02143
1.60643
2.52516
1.64354
1.5123
2.5479
2.33763
1.92011
1.89892
1.63564
1.39153
2.22916
1.45061
2.23758
1.70824
1.75564
2.11478
2.23613
1.66201
1.9442
2.16004
2.20496
1.79841
1.25502
1.31579
0.504697
1.69189
1.4734
1.19359
0.55997
1.12219
1.72514
1.99531
1.55528
1.50003
1.29334
1.81317
1.40884
1.41987
2.13267
1.11433
0.377394
0.6505
0.547816
1.58646
2.0376
1.35062
1.7305
1.74476
2.39944
1.43871
1.43744
1.34904
2.54282
0.991418
2.26218
2.06671
0.546948
1.70648
1.24973
1.71017
0.885009
1.92732
1.58249
1.42168
0.997179
2.05294
2.07973
1.72711
1.61241
1.29691
1.67723
1.99112
2.52497
1.80106
1.46465
0.028458
1.51146
1.18264
1.72974
1.74048
1.8746
2.45409
2.0578
1.78695
2.13673
2.57741
1.67962
1.19596
2.23004
1.16538
0.70561
1.46577
0.496813
1.77155
1.5788
1.65287
1.18369
2.13017
1.17195
0.346241
1.75081
1.15905
1.91509
1.67301
1.6682
1.93924
2.02745
1.95702
1.965
0.707546
1.98829
1.9662
0.959776
1.54836
0.902127
1.64165
1.6596
1.32131
1.08469
2.07169
0.270491
0.686492
1.15902
1.58438
1.68379
1.63596
1.63452
1.73358
1.75267
1.7422
2.21375
1.88232
1.38747
2.4806
1.70095
1.48041
1.62231
1.56393
1.5494
1.46659
1.76006
1.83921
0.371637
1.72723
0.503365
2.33148
2.02948
1.33043
1.44347
0.64743
2.47864
2.26872
1.96791
2.09051
1.70443
2.94008
0.594166
1.81671
1.5218
2.07806
2.54657
1.97682
2.04181
1.49865
0.676279
2.07303
1.84701
2.4928
1.91163
2.16151
1.39542
2.42665
2.25331
1.4445
1.41172
2.04708
1.68907
0.631833
1.50545
1.69288
1.72465
1.49362
1.49816
0.688334
2.26673
1.48378
0.544112
1.74083
0.908786
0.692631
1.52326
2.15453
1.74793
2.55898
0.418882
2.14943
1.72126
0.665853
0.198664
2.04967
2.14369
1.30889
2.11378
0.289925
2.13093
1.76905
1.45499
2.67331
1.68535
2.08011
1.61438
2.12765
2.13926
1.54716
1.58559
1.46842
1.24263
0.725381
1.4746
2.22065
0.340752
2.11733
1.75572
2.35613
2.10054
1.69987
2.50323
1.13908
1.68497
1.77948
1.62181
1.38639
1.71756
1.85244
2.51163
0.357235
1.16775
1.74569
0.0876873
2.32832
1.15056
0.10104
0.670535
0.800196
1.59316
1.7167
1.1173
0.4538
1.39299
1.52517
1.7386
1.73677
1.67529
0.194901
1.75669
1.4993
2.05042
2.38927
1.26843
2.05183
0.635791
1.48977
1.87328
1.3914
2.17385
1.50371
1.82518
1.88464
2.05572
1.57359
1.45954
2.10527
1.72574
2.36653
1.44556
2.19967
1.44144
1.04021
2.02706
1.68687
1.90458
1.13914
0.0850188
1.74292
2.12714
1.26662
2.04249
1.49353
1.75389
1.79379
1.64262
1.13468
1.40482
1.71855
1.61837
1.44867
0.835622
2.38151
2.04298
1.73851
0.697424
2.25558
0.237591
0.677011
2.05136
1.65115
2.10057
1.77718
1.65581
1.81993
1.75376
1.93365
1.0813
1.66327
0.408381
1.50633
2.16134
1.53865
1.23273
1.70895
1.16455
1.02613
2.5638
1.45645
0.971439
0.054155
1.98757
1.64297
0.897837
1.22403
2.04335
1.95399
1.65952
0.161967
2.07526
1.57632
2.11653
1.55606
1.59896
1.62837
0.529567
1.87584
1.94558
1.96079
1.76145
2.22335
1.35913
2.10042
1.52927
1.73339
0.810748
1.5857
0.821724
2.06162
2.17591
1.12728
1.67431
1.55498
1.76777
1.76122
1.14751
1.80597
2.50964
1.93799
0.627088
1.94538
1.44342
3.62283
1.48944
1.61904
1.71004
1.62268
1.58842
1.40555
1.52557
1.38387
1.84529
0.526073
1.79271
1.89637
2.29659
1.65425
2.10618
1.13953
1.79478
1.67979
2.13752
1.40346
0.667268
1.57828
1.46033
1.80182
1.5999
1.59144
1.86763
1.51332
1.70409
1.72677
0.103813
1.86992
1.7224
2.07928
1.81139
1.89932
1.75324
2.24922
1.76623
1.63648
1.71731
2.76067
1.79819
1.49511
1.74987
1.75082
1.75699
1.76696
2.09269
1.23675
2.2157
1.43028
0.909771
1.19471
1.91872
2.44646
1.39284
1.72979
2.06078
0.226198
1.57822
1.71251
1.83601
1.4295
1.19562
1.66663
1.43395
0.268315
1.68315
2.18945
1.71054
1.53772
1.11584
2.0616
0.939548
1.06332
0.797781
1.17218
1.97311
1.74428
1.60538
1.55273
0.435941
1.76596
1.862
1.75936
1.65287
1.60012
0.683312
1.52842
1.6957
1.95043
2.36979
1.25514
1.69387
1.33415
1.76083
2.0673
0.820289
0.722321
2.05732
1.92963
1.66504
1.25034
1.15424
1.69184
0.807552
1.70451
1.47549
2.2977
2.18726
1.79433
1.72507
1.39132
1.67097
1.90852
1.7295
1.72252
0.078815
1.89293
1.6119
1.73552
1.70442
1.67014
0.849863
1.24184
2.10315
1.62404
0.0459696
1.22735
1.80804
0.621198
1.73502
0.579772
1.55692
1.73659
1.78737
0.574089
0.278273
1.94129
1.73525
2.50987
2.18901
1.87798
1.16134
1.69389
0.675103
1.82032
1.76395
1.91823
1.535
2.1789
1.67061
0.881607
1.66387
1.77193
1.11723
1.74606
1.69318
1.66534
1.62887
1.79994
1.69143
1.59666
1.79401
2.07603
1.75635
0.0131256
1.76482
1.69059
1.76532
1.59747
0.930322
1.71101
1.74611
1.70856
1.67495
2.04144
1.77334
1.60387
1.62053
1.76771
1.72259
1.80662
0.799566
1.98355
2.11155
1.3397
2.13192
1.75243
1.75695
1.73939
2.09625
1.89757
2.50296
0.0890218
1.95365
2.0649
1.47204
1.05183
1.48815
1.8818
0.451418
1.50939
1.71813
1.51328
1.54267
0.566997
1.83409
0.905292
0.919393
2.17068
1.54797
2.00254
1.64689
2.10561
1.64896
1.01414
1.79257
1.58004
2.42208
0.981711
1.7148
0.899531
0.835584
1.62685
1.77988
0.401461
1.37436
1.71619
0.993739
0.313361
0.588902
1.99241
1.8329
1.4942
0.952144
1.52948
1.49266
1.55569
0.892103
2.26597
1.80335
2.13226
2.22229
0.612243
1.99091
1.98241
0.923221
0.802049
1.05444
1.86395
1.7493
1.68921
1.67468
1.72051
2.04143
1.7739
0.112004
1.52337
1.57341
1.62174
1.25601
1.47654
0.972608
1.65665
0.804078
0.920234
1.51962
1.25913
1.56476
0.124417
1.47742
1.70223
1.83018
1.80237
1.3737
1.42956
1.37537
1.28447
1.72991
1.37681
0.523423
0.926175
1.67715
1.4326
1.28017
1.50137
1.57671
1.74447
1.42704
2.00142
1.43914
1.68012
1.62366
1.55057
1.4796
1.22656
1.30753
1.21923
1.4641
1.48184
2.09471
2.03547
1.85438
2.36831
0.388557
1.37652
1.48472
1.37216
1.98661
1.52631
1.87515
1.39971
2.12096
1.13275
1.12735
1.78502
1.68896
0.740017
1.64986
1.29877
1.53328
0.226352
1.31657
1.11486
1.50757
1.81086
1.64133
1.51368
1.46328
1.60106
1.90994
1.12192
1.09268
1.0975
2.52022
0.785615
1.90178
1.54592
1.53274
1.57624
1.67507
1.59354
1.61306
1.52866
1.27647
0.500342
1.2487
1.59477
1.88774
1.02496
2.07015
1.60742
1.46059
0.921818
1.58849
0.491951
1.98504
1.59597
1.57277
1.55926
1.41982
1.62287
1.04781
1.63598
1.8797
1.56828
1.73343
1.01136
1.57434
1.51744
1.47153
1.213
1.96971
1.13255
1.52792
0.973809
2.00839
1.6319
1.57569
1.20355
1.40829
1.18743
2.09784
1.84303
2.12288
1.3934
1.03034
0.981381
1.16056
2.09613
1.68776
1.3525
0.698881
1.58096
1.71828
1.11759
1.67495
1.48764
1.74296
1.2761
1.61989
3.03901
1.68749
1.56632
1.68088
0.273297
1.80964
1.21584
1.58601
1.31424
1.61762
1.4682
0.882918
1.17448
1.16341
2.08901
1.28801
1.08671
1.27204
1.68753
1.36848
1.53137
1.4195
1.36936
1.32976
1.20893
2.09948
1.6525
1.19633
1.23699
1.57378
1.46318
1.66016
1.11566
1.86921
1.61948
1.367
1.12152
1.4711
2.46888
2.09193
1.42492
0.828943
1.15577
1.72256
1.25465
1.58993
0.876848
1.66115
1.08736
1.48164
1.85758
1.11071
1.57829
1.00846
2.29901
1.36783
1.42604
1.85352
1.21566
1.57251
1.98859
2.45016
1.42264
1.43857
1.08282
0.966583
0.229867
0.0516162
1.41032
0.914692
2.0133
1.01822
1.08107
1.47284
0.669277
1.64884
1.7283
1.49275
1.66105
1.57729
1.96773
1.76012
1.86089
1.78246
1.85956
1.92568
1.44528
0.969219
1.43962
1.73378
1.21012
1.47483
1.9455
2.25127
1.72293
0.804194
0.550605
1.00237
0.154962
1.61918
0.958832
1.41455
1.65826
0.790524
1.18948
0.662973
1.9062
1.47451
1.80368
1.14715
2.33871
2.19412
1.4201
1.7647
1.58291
1.56741
1.47349
1.10978
1.73622
1.71894
1.65247
1.8523
0.659194
2.09188
1.7314
1.38078
1.72163
1.56971
0.857381
1.38435
1.0013
1.66353
1.22055
2.07351
0.699374
1.38656
0.750729
1.81648
1.39525
1.14288
1.77734
0.86938
1.92633
1.98199
1.5846
1.03402
0.537776
0.876458
0.829608
1.6847
1.93239
1.90841
0.656363
1.59562
0.869838
2.14441
1.68387
2.17285
1.64426
0.777567
0.870865
1.36495
1.29271
0.998889
0.146309
1.6474
1.64748
0.648093
0.93324
1.52228
0.171972
2.02657
1.00244
1.66608
1.51992
1.31153
1.67339
1.69017
1.99021
1.74301
1.52163
0.704071
1.67129
1.52262
1.89262
2.01656
2.32656
0.963053
1.68009
1.68467
2.24022
1.70366
0.506614
1.32711
1.23843
1.28896
1.65975
1.92696
0.804712
1.76224
1.39206
1.92995
0.823126
0.733702
1.81171
2.20731
1.67167
2.03818
1.22643
0.641477
0.0211065
1.76598
1.63405
0.863751
1.979
1.40699
1.29649
2.55503
0.994067
1.26893
1.68335
1.75363
1.11512
1.95449
1.75786
0.552898
1.70466
0.770008
0.531637
2.00959
1.7266
0.769525
1.67133
1.56164
1.19701
1.76349
1.11865
1.55862
1.16015
1.22711
1.69142
1.62697
1.78047
1.02259
2.02869
2.10605
1.77718
1.5713
1.5592
1.26793
2.02266
1.97235
1.56657
0.605498
1.54678
1.63458
1.72357
1.59524
1.14942
1.8466
1.5836
0.513073
0.525149
1.77206
1.63096
1.55936
1.51959
1.8777
1.65126
0.726972
1.14028
0.764211
1.66267
0.208998
1.10448
1.73959
1.75516
2.02511
1.20268
1.20911
1.55562
1.56336
0.568768
1.65965
2.02588
2.00362
0.181885
0.476868
2.01
1.17646
1.7484
1.61807
1.16272
1.03845
1.68059
1.81138
2.01854
1.651
1.02798
1.60011
1.68154
0.901813
0.6409
0.989253
1.84204
1.66103
2.04851
0.634036
2.70166
1.88222
0.659941
1.13584
0.813874
0.836439
0.215457
0.627151
1.71557
0.992114
0.745294
0.605404
1.96778
1.29834
0.612539
0.518645
2.28071
1.54514
1.83237
1.12932
0.932709
1.8707
0.562594
1.6035
1.7918
1.0721
1.46498
0.469164
0.670619
1.60339
1.7499
1.31714
1.78641
1.79087
0.215418
1.53481
1.62036
1.89352
1.05749
0.575037
1.67643
1.31084
0.986327
1.66345
0.560819
1.8249
0.76353
0.973795
1.91668
1.30468
1.67767
2.51201
1.15103
0.65197
1.68607
1.71747
1.49116
1.23036
0.53615
1.59772
0.516864
2.08371
2.63668
1.96904
1.13969
1.21962
0.232699
1.59211
0.510192
1.56957
1.09824
0.84636
1.19849
1.50385
0.498383
0.954393
1.55234
0.711139
1.48628
1.50172
1.7243
1.19082
2.62925
1.10575
1.09435
0.643459
1.4495
1.66607
1.4136
0.627437
0.460537
1.2963
0.554242
0.479973
1.52297
0.838284
0.20072
1.66454
1.32042
1.70885
1.07511
0.36875
1.1797
1.69453
1.52689
1.66547
1.09122
0.878689
0.843415
1.03766
0.54795
2.2263
1.00217
0.194296
1.02459
1.15516
0.953913
1.67917
1.65443
0.755619
1.34739
0.212304
1.36675
0.398449
1.64092
0.591172
0.792483
1.39033
0.359992
1.45202
0.691773
0.998227
1.51406
0.228867
2.37612
1.66989
1.63891
0.304222
0.179589
1.18192
0.973248
1.67525
0.167917
0.122174
0.945769
0.00150955
0.722341
0.745561
0.817249
0.863122
1.68346
2.44335
1.67259
2.29515
1.36293
1.56739
0.201722
0.907428
1.45397
0.609535
0.653072
0.554455
1.94487
1.24425
0.857366
3.9032
0.806973
0.989116
0.768895
0.0464477
1.96722
1.17119
0.941332
0.585742
1.13128
0.362
1.21568
1.64665
0.764738
1.29395
-0.0415183
1.46104
0.658542
2.07576
0.791254
0.981523
1.71283
1.18442
0.719271
1.0227
0.334695
2.04171
1.70623
1.0421
0.737813
1.34176
0.885993
1.81688
1.97306
1.89681
1.00361
0.0598014
0.0112799
1.87706
0.629668
1.66863
1.68475
1.51859
1.91658
2.62259
1.0491
2.10608
1.51283
1.59387
2.0481
0.709112
1.6942
0.158432
1.40129
1.65925
0.323099
1.69329
0.925279
1.7335
1.45639
1.62988
1.64131
1.41082
1.68907
1.65988
0.540006
1.41754
0.612472
1.63989
0.205471
0.56564
1.79647
2.02859
0.0102221
1.65185
1.23309
0.445691
1.58891
0.15211
1.45791
0.828992
1.64288
0.489894
0.485674
1.2506
0.749435
2.01982
1.59854
1.96141
0.503499
0.8152
1.58254
0.027624
1.67687
1.70241
1.67149
2.65849
1.34499
0.160557
1.62842
1.62127
1.35212
0.644294
0.454305
1.65204
0.568438
0.886996
0.0249368
0.65049
1.58861
2.04162
1.77194
1.94459
1.30666
0.00494874
1.50631
1.6983
0.19647
0.150395
0.676212
0.347885
0.722995
2.1506
1.68523
0.322608
0.186697
1.7089
2.10687
2.06727
0.251215
1.62095
1.58292
1.51574
1.64859
1.497
1.18338
1.97909
0.471806
1.57573
2.04298
1.65981
0.464208
1.66494
0.598003
2.20837
1.70183
0.535437
0.328407
2.08639
0.0514947
0.657192
1.41695
0.312408
2.17956
1.41142
1.32814
1.72207
1.24539
1.72748
2.0734
1.67973
1.82139
0.909491
0.287265
1.09079
0.424568
0.319407
1.78863
2.06569
1.99915
0.849859
2.1949
1.60684
0.178286
1.63455
0.440636
1.58643
1.69819
1.55104
1.33264
1.05595
1.4274
0.849693
1.10374
1.65139
1.19081
0.541887
0.231443
0.354578
1.62858
0.412496
1.61925
2.22573
1.36036
0.300733
1.20178
0.35212
1.9881
0.704895
0.385182
0.397172
0.191138
2.12669
0.705523
2.16542
1.69809
0.545079
1.6732
1.07448
2.01417
2.99161
0.984936
0.0259153
0.296006
0.256541
2.0296
0.012895
1.02811
1.53191
2.14948
0.134046
0.25438
0.0264869
0.205362
1.5362
0.0255373
2.18545
1.55745
0.488063
0.208442
1.07683
1.61465
0.0128633
0.322522
2.03422
0.241368
1.60561
1.75671
0.525018
0.0119224
1.75996
0.0130879
2.0498
0.115879
0.823811
0.170165
0.51171
1.86403
0.101181
1.08084
0.220734
1.6415
1.26
1.30441
1.43145
2.00768
0.961284
0.493966
1.37005
1.3653
0.633477
0.682057
1.00583
0.362773
2.09609
1.49885
2.46799
0.128812
1.35417
0.864757
2.01043
0.396711
1.5908
0.18935
1.05794
1.61009
0.621815
1.49167
1.66256
1.40871
0.400544
1.71221
0.644476
1.02189
1.29147
1.66567
1.11735
0.727268
0.797655
1.19763
1.00517
0.270974
0.980433
2.99453
0.460493
1.1862
1.61669
1.70988
1.68584
1.65533
1.54859
1.11265
1.6517
0.429867
0.462736
2.57072
0.435515
2.08797
0.736126
0.832004
0.957678
1.77504
0.77142
1.38465
0.295201
0.744517
0.511882
0.430925
1.4754
0.585514
0.621067
0.42185
0.81851
0.327669
1.65055
2.15652
0.141606
0.807501
0.82378
0.247467
0.893716
0.143325
0.911075
0.799639
0.717194
1.68391
0.875004
1.14408
0.107539
1.27749
0.710938
0.127143
0.174372
0.129948
0.878266
0.864417
1.65364
1.60602
1.68389
1.26005
1.32612
1.84169
1.68607
0.399121
1.62574
1.4358
0.897255
1.44296
1.67434
2.42993
0.736639
0.183632
1.0875
0.371766
0.171045
1.80226
1.38199
1.83992
1.67593
2.49699
0.779414
0.0753382
0.577062
0.263654
0.967663
2.04163
2.14316
0.214754
0.635889
0.367614
2.12045
1.74344
1.56234
0.110316
0.162963
1.35248
0.83912
1.70689
1.50576
0.385944
1.26117
1.62408
0.363055
1.14782
0.556692
1.65352
1.02305
2.02097
0.154392
1.04529
1.39283
0.17912
0.617854
1.55738
0.162206
0.914897
0.304411
1.48668
1.65061
1.39605
1.54593
1.3558
1.38441
1.38935
1.13874
0.405719
0.57873
0.262832
0.220878
0.331312
1.46242
1.69446
0.796772
1.70735
1.14499
1.70056
0.438446
0.360423
1.01094
1.84081
0.204113
1.69878
1.51704
1.9408
1.71575
0.255132
1.18996
0.65856
1.7951
1.95955
0.353034
1.68752
1.58674
1.23716
0.378774
0.149727
1.78307
1.47334
0.345536
1.31773
0.472485
0.698768
1.9553
0.117633
0.432896
0.696737
0.337981
0.94003
0.415008
1.26685
0.737958
1.45836
1.01477
0.744202
1.65627
1.64533
1.33229
0.135412
0.246247
1.72315
1.32096
1.65554
0.409939
1.29384
0.225856
0.287992
1.89441
1.2898
1.15748
0.384689
1.54392
0.355372
1.69313
0.329319
1.71467
0.465264
0.100574
0.42253
0.949073
1.79179
1.50295
1.70671
0.337008
0.536462
1.71231
1.67224
1.35367
0.165711
1.78616
1.67874
1.7294
0.344574
0.18241
0.543983
1.7766
1.7046
0.960812
1.36751
0.487239
2.14611
0.432014
0.377261
0.561333
0.582599
0.207038
1.23157
0.620038
1.18155
1.70292
1.43093
1.6474
0.457961
0.298389
1.84791
1.75247
1.27224
1.92711
0.652481
0.247341
0.223189
2.02273
0.601767
0.757559
0.312003
1.71365
1.47018
0.456955
0.809973
1.40617
1.30156
0.899474
2.14824
1.69983
1.27048
2.45258
0.690217
1.0866
1.48476
1.78818
0.304154
0.496442
0.196322
1.32194
1.666
0.843323
1.6674
1.3298
0.449557
0.0741608
1.37632
1.71991
1.82964
1.80933
1.6438
1.62939
1.86359
1.59449
0.393884
0.808408
1.79131
0.786951
0.893623
0.997442
0.575883
0.829421
1.39948
0.126977
0.432861
1.80457
1.80162
0.989038
0.793761
0.23928
2.19058
1.35017
1.03251
1.60224
0.60609
0.643092
0.571066
0.387721
0.840942
1.63476
1.69188
0.10967
0.927764
1.65513
1.64587
1.70372
0.75805
1.04393
1.52933
0.320307
0.487976
1.69845
0.212932
2.02305
0.567469
1.23021
0.556316
0.683
1.71146
1.37995
1.5154
1.10627
0.238502
1.53225
1.76276
1.46715
0.599634
1.86905
2.01679
0.144301
1.66666
0.479052
0.279565
0.29635
0.79611
1.53876
0.606028
0.722414
1.53087
1.57074
1.4722
2.30881
0.528604
0.416672
2.03317
1.68898
1.25019
0.823268
2.02837
0.560297
1.08149
0.683661
0.637633
0.280335
0.321527
0.371145
1.47713
0.393129
1.26578
1.64527
2.16664
1.04943
0.318605
1.26597
1.83977
1.70103
0.863705
1.66753
2.29515
0.330445
2.43086
0.139977
1.27352
1.59909
0.785541
2.53483
0.712771
0.133103
1.09648
0.296832
0.887296
0.691644
0.417209
1.06941
0.675478
0.622545
1.19092
2.17647
1.80719
1.56903
1.6437
0.10782
0.39251
1.30472
1.70697
0.255409
1.66343
0.379637
1.89597
1.77
1.62915
1.02858
1.50235
0.912117
1.45884
1.55196
1.44954
1.81034
0.0574414
2.16751
1.8942
1.16836
2.12261
1.46912
0.118509
0.488796
0.389336
0.558002
0.688901
2.18354
0.930566
2.19333
1.25026
2.02395
2.14014
2.02025
1.36257
0.287738
0.787909
1.32896
1.75091
1.67241
1.02086
0.614263
1.62813
1.13838
0.779761
0.934506
0.933764
1.22223
1.65743
0.398009
1.62307
1.80996
0.364241
0.761225
1.54111
1.70435
0.865341
0.785064
0.504562
0.776283
1.99693
1.53318
1.67402
1.0244
1.99377
1.64119
0.535758
0.425813
1.84733
0.851111
1.96904
1.59873
1.45383
0.836773
1.12678
1.63996
0.815711
0.825799
1.73692
1.70434
2.05453
1.69221
1.58481
0.948324
0.288724
1.29486
0.441924
1.70464
1.70386
0.834992
1.33475
1.18666
1.75153
0.873285
0.767765
0.599157
1.64425
0.369882
0.820796
1.93613
2.05704
1.74957
1.71107
1.74021
1.83135
1.00932
1.62573
0.505024
0.0701331
0.914504
0.0576951
0.922154
0.731278
1.36994
1.77231
1.41798
1.63183
1.76697
1.71333
1.26938
1.70196
0.782264
1.38997
1.49969
0.784461
1.86712
1.2999
1.46525
1.55405
1.25384
1.34168
1.2637
1.77044
0.983426
1.53051
1.51398
2.49877
1.59029
1.87491
1.86381
1.65999
1.15715
0.773746
1.11154
0.706241
1.12778
1.58334
0.448013
0.976206
2.20556
1.16392
1.64315
1.46925
0.91649
1.34781
0.33522
0.262972
1.76338
0.418756
1.16719
1.87619
1.41691
0.944436
1.60246
1.32452
1.20848
1.7632
1.01914
1.27256
1.68072
1.07951
1.3822
1.09962
1.47987
0.992248
1.77072
1.10062
1.33184
1.68555
1.54707
1.03108
1.6823
1.48572
1.48503
0.908726
1.33149
1.7218
0.899247
1.3266
1.68998
1.50342
0.994077
2.1414
1.62315
0.249036
1.36271
1.6848
0.947174
2.08803
1.37234
0.978242
1.7453
1.04558
1.44438
1.94383
1.07651
0.987431
0.69084
0.743161
1.25792
1.47726
1.06912
1.56248
1.91867
1.61242
1.72763
0.973256
1.19441
1.18665
1.7623
0.720863
1.67068
0.845239
1.49037
1.06382
1.27207
1.90429
1.97855
1.73146
0.410531
2.10977
1.27192
1.41692
1.67734
1.73563
1.50422
0.298286
1.26706
1.36269
1.17678
1.28562
1.07187
1.87709
1.67775
1.43628
1.30025
1.76969
1.54747
1.5264
1.05735
1.16409
1.17393
1.96892
1.06705
1.75755
0.955745
1.32413
1.4393
1.73775
1.45645
1.74489
0.425188
0.456276
1.56761
1.47114
1.30177
1.74261
1.9186
1.66936
0.729735
1.73697
1.03679
1.73612
1.57381
1.74044
1.74638
1.75924
1.80256
1.88542
1.91756
1.94686
1.97642
2.00558
2.08714
2.11325
2.1378
2.18039
1.34596
1.41735
1.89233
1.64804
1.05416
1.73049
1.64191
1.16036
1.23963
0.0562317
1.50266
1.53903
0.402941
1.15697
1.35541
1.67828
1.73319
1.63679
1.68319
0.880079
1.05906
0.255842
1.73157
1.43606
1.63829
1.62112
1.1143
1.06419
1.25327
0.240482
1.73726
0.858923
0.793333
1.58623
1.39191
1.24649
0.769664
1.7014
1.45473
1.87853
1.73432
1.60407
2.06112
1.5212
1.29344
1.55971
1.24615
1.42395
1.53423
2.38351
1.31621
0.668829
1.34772
1.45248
0.0630182
1.83249
1.37147
2.32051
1.8523
1.68588
1.58183
1.8332
1.46153
0.356314
0.0785129
1.28209
1.71788
0.64541
2.28223
1.19725
1.34534
1.12657
0.758468
1.48202
2.03342
1.82927
1.94422
0.858507
1.4753
0.0672306
1.61868
1.50198
1.52746
1.75967
1.31158
1.36992
1.23914
1.48987
0.0969867
1.52038
1.24266
0.810321
0.765582
1.7787
1.1525
1.99379
1.42477
1.32384
1.78659
1.90308
1.77316
1.53821
1.83124
1.48515
2.0533
1.81975
1.24093
1.66676
1.28997
0.325801
0.802065
0.499271
1.38737
1.30203
0.751366
1.55494
1.55868
1.20739
0.942591
1.22173
1.65411
1.99744
1.64617
1.68034
1.33996
1.90206
1.06049
1.93728
1.45192
1.26386
1.67612
1.70145
1.91658
0.348977
1.6058
0.933469
1.20087
1.01656
1.34249
1.95172
1.23183
2.16963
1.54336
1.85129
1.49995
1.23584
1.43828
1.81838
1.77057
2.15638
1.7908
1.58904
2.03803
1.65893
1.31816
1.68619
1.36804
1.61465
2.01268
1.23681
2.20771
1.36332
1.86006
0.596583
1.88604
2.00664
1.6943
1.53421
0.676082
0.0600039
1.29987
1.36613
1.63611
1.62642
1.32952
1.63513
2.02023
1.81368
1.74812
1.57087
1.1823
1.25688
2.14342
1.29055
2.02883
1.70042
1.28805
0.887858
1.12192
1.60014
0.969735
1.29818
1.71058
0.819909
1.36372
1.71939
1.66435
2.12961
0.00767172
1.58594
1.04409
1.58024
0.738573
1.69848
1.94506
1.70205
1.61305
1.40845
1.48988
1.27355
1.33978
1.8312
1.65234
0.166044
1.51816
1.47972
0.816389
1.43124
1.5271
1.44986
1.62261
0.282852
2.0015
1.65555
1.40728
0.790345
1.42955
0.764834
1.79356
0.869905
1.57865
1.10768
1.6326
1.32733
1.3608
1.55328
0.71557
1.4477
1.35865
2.03123
1.04971
1.38931
1.36804
1.35325
1.94224
1.49826
1.80191
1.58409
1.10335
1.93251
1.73148
1.0838
0.47221
1.75871
1.67078
1.35615
1.61525
1.60422
0.99672
1.83951
1.60056
1.49667
1.44081
2.2239
1.59904
1.81974
1.64782
0.716268
0.185337
1.49481
1.50193
2.03865
1.45356
1.68409
0.714398
2.4686
2.40221
0.982415
2.09277
2.49547
1.62671
0.138515
2.015
1.99418
1.22335
1.58193
1.13383
0.19514
1.97943
1.87334
0.197785
1.69743
1.09559
1.7012
1.90399
1.63753
1.67202
1.61157
1.1936
1.06283
1.41951
1.86768
1.66582
2.08401
1.39339
1.81223
1.52075
0.594693
1.51814
1.25658
1.97281
1.47436
1.98711
1.21122
1.73584
1.63497
1.97976
1.49481
1.33496
1.64765
0.762792
1.51774
1.92292
1.51363
2.01696
1.5316
1.54283
1.7403
1.84361
1.74744
1.54629
0.912647
1.63477
0.979532
1.46313
1.33119
1.67557
1.54872
1.70385
1.21153
1.75168
1.65696
1.62808
1.86019
1.92072
1.21809
0.0932676
1.37733
2.0818
0.394624
1.30117
1.452
0.718312
1.6165
1.53944
1.22631
0.975786
0.971934
0.754554
1.62554
1.56044
1.63279
1.67402
1.22673
2.2474
1.74091
1.63562
1.64687
1.093
0.736704
1.54462
0.952932
1.40885
2.26611
2.01099
1.98557
1.2633
1.48036
1.07447
1.76357
1.96137
1.91343
1.99692
2.01441
1.56491
0.918552
1.13489
1.74925
1.5799
2.02881
0.246834
1.39367
-0.25294
1.61947
1.68509
0.998481
1.62335
1.64217
1.68871
2.00654
1.9771
1.85552
1.98488
1.86956
1.87093
0.271513
1.61493
1.63119
1.77847
1.59778
1.63741
1.8557
1.77707
0.946081
1.67324
1.92528
1.97559
1.74328
1.9657
1.56972
1.58035
1.75062
1.32141
2.40757
0.481381
1.7233
1.79411
1.50706
1.32244
1.66932
2.44698
1.59478
1.79307
1.33836
1.72643
0.731052
2.15071
1.6676
1.60827
1.73202
1.70501
1.78499
2.3374
2.21831
1.27747
0.786122
1.24191
0.744958
1.6335
1.28599
1.78473
0.279348
1.10235
1.89399
2.31249
1.61025
0.0259622
2.50114
1.73037
1.83447
1.20964
1.99955
1.6973
1.82664
1.99941
0.118569
1.96206
1.62235
0.610589
1.78431
1.76356
1.79273
2.35083
2.35392
1.3798
1.73508
0.953558
1.61896
1.63325
0.429481
1.99187
1.73141
1.62846
1.84037
1.38509
0.238742
1.35148
1.59493
2.21284
1.64364
1.13676
0.515494
1.27872
0.394351
1.6186
1.65338
1.39926
1.66221
1.67432
1.66238
0.0972373
1.68278
1.27604
1.73643
1.78495
0.448729
0.0108572
2.3919
2.28475
2.4845
2.17211
1.71163
1.21827
1.71208
1.68532
0.706732
2.25904
1.83828
0.851947
1.94634
1.90129
1.86853
1.74395
1.69336
2.11972
1.7421
1.79183
1.32018
1.75506
1.76191
1.90374
1.92992
1.9604
1.98874
2.0959
2.12427
1.8977
1.68545
2.58427
1.35805
1.8713
1.66938
1.28649
1.89315
1.79168
1.43143
1.70871
1.74877
1.68527
0.539755
1.66604
2.31986
1.84984
2.28452
2.20306
2.48193
1.79278
1.7446
2.35242
1.70674
2.07308
0.868461
1.25565
0.943655
1.69344
1.89422
1.80419
1.70468
1.79802
1.68648
1.88669
1.64533
1.90099
1.69357
0.969552
1.56556
1.74127
1.36169
1.74876
1.5608
2.73591
0.124078
1.87056
1.33828
1.47183
1.29822
1.88059
1.17893
1.69669
0.333832
1.33807
1.89281
1.65748
1.54863
1.53406
0.276473
1.88854
2.01776
1.66431
1.65137
1.87718
1.34778
1.13725
2.02356
0.204986
1.78493
1.61842
1.71677
0.0903386
0.950754
0.202871
1.70791
2.01451
0.148806
1.38704
0.475942
1.79712
1.59739
0.582118
1.63393
1.71895
2.4022
0.440922
1.81836
1.00806
0.855677
0.867741
2.04462
1.76971
1.69092
1.68919
2.17537
1.6169
1.9923
0.0627115
2.19854
1.91856
0.129206
1.73414
1.85952
0.69245
0.41845
1.63473
1.64575
2.45068
0.480073
1.65172
1.6432
0.231666
1.7244
1.09096
1.60269
2.08781
1.6172
1.60086
1.38927
1.34482
2.22133
2.3031
1.08033
1.74557
1.64543
2.18918
1.76737
0.703342
1.84264
1.73842
1.74502
0.95179
1.649
1.92718
1.69242
1.82834
1.6763
1.70364
1.68199
1.71321
0.232118
1.59187
2.46772
0.937268
1.45219
1.3243
2.7872
1.90816
0.0112094
0.0257292
2.02809
2.02651
1.51207
1.7063
1.69084
0.287723
1.55481
1.57033
1.99688
1.22708
2.13215
1.57123
1.77077
2.33875
0.651897
1.58663
1.77789
1.80201
1.55892
1.4082
2.2729
1.76496
1.91672
1.6823
1.71783
0.506824
2.05483
1.17878
0.699039
1.68518
1.8782
1.05952
1.48095
1.7246
1.9494
1.26202
1.64966
1.14987
1.57234
0.725451
1.75681
1.18974
1.90266
1.64526
2.04121
1.41986
0.373996
0.936565
2.46184
0.273392
1.69079
1.67726
2.24741
1.80576
1.00352
1.51082
1.66516
1.68843
1.8103
1.68369
1.94278
1.47347
1.95421
1.63159
1.52942
2.26425
1.24697
1.56305
2.06221
1.96532
2.54501
1.69091
1.61486
0.903449
1.70913
1.73967
1.92604
1.46131
1.61884
0.874383
1.61949
1.20321
1.82646
1.6204
1.77706
1.06969
1.63095
0.853283
1.93461
1.64046
0.935693
0.348726
1.85435
2.47439
1.79371
1.59289
1.47204
1.31254
2.29839
1.64866
0.120084
1.76064
1.74066
0.0700657
1.43137
1.62776
1.42263
1.27732
1.93898
2.24312
2.20867
1.66117
1.20725
1.67256
0.676199
2.10357
2.43218
0.456624
1.41558
1.85837
2.44317
0.187725
2.24274
2.45329
1.66371
1.25235
1.4591
2.26029
1.36581
1.7068
2.60824
1.30345
2.27642
1.56502
1.54713
2.4202
2.04362
2.27362
2.21923
1.14673
0.104851
2.06605
1.81854
1.44508
1.81011
1.826
1.70875
1.57858
2.2557
1.28658
1.34279
1.74591
1.83216
1.57751
1.7129
1.78417
2.22508
1.75936
1.56808
2.40752
1.11977
0.310447
1.76786
1.67795
1.78566
0.592935
1.3803
0.17254
1.81925
1.66241
0.235767
1.01694
1.13089
0.629808
1.84404
1.44525
1.31899
1.53625
1.6838
1.41548
1.218
2.22307
1.60665
1.60911
0.982387
1.44987
0.525458
1.69937
1.93966
1.81817
2.04421
1.35115
1.91745
2.06636
2.12151
1.57223
2.40307
1.56876
2.2317
1.74226
0.0833876
1.61725
1.6103
1.58885
1.9879
1.67375
1.01058
2.36194
1.33146
1.99792
1.63083
1.97308
1.83562
1.21473
1.61783
1.70786
1.07111
0.84491
1.43856
1.65544
1.29054
1.30195
1.70485
2.04701
1.3636
1.60801
0.039383
2.56541
2.47645
1.36145
0.983263
1.6072
1.61561
1.69106
0.637016
1.88117
1.66538
0.839936
0.810127
1.72898
0.881068
1.59817
1.67209
2.25218
1.69296
2.32523
0.858789
1.434
1.48383
1.96978
1.89889
1.7366
1.23136
1.48814
2.19715
1.63266
0.976756
0.303245
1.22252
0.0902068
1.78395
1.50651
1.57848
1.23123
2.01406
0.51908
1.25708
2.14586
2.16732
1.56897
1.01378
2.11233
0.629767
0.903463
1.88583
0.929165
2.6193
1.62397
2.2439
1.79023
0.316116
1.34768
2.38064
2.27813
1.51058
1.53887
1.29656
1.9716
1.91783
1.45517
1.0156
1.81173
1.69362
0.111292
1.65453
1.67902
1.69385
1.30847
2.60858
1.49226
1.57227
1.6822
0.916561
0.162173
1.04697
1.55108
2.27158
1.78117
0.371162
0.85976
1.72774
2.3946
0.593632
0.832253
1.85161
1.70267
2.34256
1.60225
2.30357
2.27336
0.559436
2.21108
2.26177
1.62482
1.86466
0.573782
2.28083
0.934786
0.394802
1.35851
2.12298
1.41232
2.12207
1.04863
2.64029