/*--------------------------------*- C++ -*----------------------------------*\
  =========                 |
  \\      /  F ield         | OpenFOAM: The Open Source CFD Toolbox
   \\    /   O peration     | Website:  https://openfoam.org
    \\  /    A nd           | Version:  7
     \\/     M anipulation  |
\*---------------------------------------------------------------------------*/
FoamFile
{
    version     2.0;
    format      ascii;
    class       volScalarField;
    location    "14";
    object      p;
}
// * * * * * * * * * * * * * * * * * * * * * * * * * * * * * * * * * * * * * //

dimensions      [0 2 -2 0 0 0 0];

internalField   nonuniform List<scalar> 
29540
(
0.0172701
0.207662
-0.0171828
-0.0651237
-0.00484261
-0.0700794
-0.0290745
0.0165828
0.00398743
0.000349826
0.0107733
-0.00911302
-0.000987248
-5.54313e-05
0.192723
-0.0116553
-0.000371258
0.0666027
-0.00429758
-0.0201037
-0.00174451
0.00374225
-0.0173737
-0.0042404
0.783783
0.206273
-0.00106039
0.662776
0.180075
-0.00329186
0.0309624
0.0957756
-0.0995685
-0.0127323
0.67064
-0.0134236
0.23011
-0.0512824
0.0111912
0.010791
0.000838553
-0.0315657
-0.000332789
-0.0361865
5.83816e-05
-0.00293391
-0.00793984
0.000135957
0.00655282
0.224014
-0.0426932
-0.0577676
0.0989357
-0.0679603
-0.0114031
0.171245
-0.00676142
-0.00179471
-0.00891527
-0.0316841
-0.000133354
-0.00416845
-0.0175386
-0.0117878
0.365905
0.738485
-0.0148156
-0.0163845
0.704789
0.000876384
0.204294
0.554124
0.00457451
0.740329
-0.0150558
0.00896937
0.165137
-0.0458561
-0.000100168
-0.0280525
-0.0630444
0.278915
0.0171848
-2.83832e-06
-0.0256664
-0.161064
0.40139
-0.001025
-0.00095451
-0.0914108
-0.0416881
-0.0462665
0.00603833
0.0930347
-0.0937919
0.409557
-0.0533579
0.000914131
-0.0719917
0.23621
-0.000105628
-0.0432042
-0.000129283
0.0664409
-0.0590891
0.1748
0.47586
-0.000917931
-1.97861e-05
-0.0928843
-0.0990764
0.0192902
5.09107e-06
-0.00303694
-0.000357203
0.541106
0.301509
-0.0218901
3.8904e-05
0.00531269
-0.124865
0.221354
-0.0357209
0.735901
0.00215465
-0.00616649
0.0737185
-0.0253699
0.00798798
1.52574e-05
-0.033608
0.147733
0.537485
-0.0608825
0.0658399
0.0300526
0.443113
-0.0440388
-0.149506
0.225972
0.00221331
-0.0799071
-0.0789829
3.66913e-06
-4.58953e-06
-0.00495828
-0.00741534
-0.0782251
-0.11297
0.0150727
0.0499945
0.0248484
0.00082562
-0.000284341
0.293456
0.000983675
-0.0147013
0.417658
0.352542
-0.0404408
-0.0606666
-0.0633784
0.180245
-0.000104918
-5.06454e-06
-0.0220241
-0.0768742
8.49254e-05
-5.68734e-06
-0.0132748
4.18596e-05
0.0111772
0.426091
-0.0433563
-0.0759978
-0.00968769
0.00407887
-0.0445224
-0.00246059
-0.0268096
-3.36243e-05
-0.00719496
0.397939
-0.0153974
-0.147889
0.29404
-0.0120542
-0.033354
0.00748506
-0.00303945
-0.00057096
0.00414647
0.747535
0.28871
-0.025667
-0.0141097
0.627194
0.260332
-0.0925968
0.00226082
-0.0531056
-0.0855531
-0.00873114
0.00163137
0.439524
-0.0128119
0.0134915
-0.0783244
-0.0953422
-6.76893e-05
0.58983
-0.0020618
-7.08319e-06
-0.00110291
-0.0393659
0.00688743
-0.00508103
0.0131492
-0.00420342
-0.0924882
3.18919e-05
0.000868511
-0.00452334
0.143787
-0.00547857
-0.00289297
0.0971649
0.000223816
5.44184e-05
0.010327
-0.0499099
-0.0395893
-0.00909199
0.202194
-0.0273288
0.026271
-5.80218e-05
-0.00582769
0.00151927
-0.0488772
-0.132764
-0.00273004
0.000887605
-0.00305527
0.00555351
-0.0195998
-9.97937e-05
-0.156166
6.07324e-05
0.146039
-0.00653798
0.00025953
0.177529
-0.0864563
0.000477452
-1.63141e-06
-0.0800476
-0.12746
-0.0167859
-0.0278985
0.049777
0.381214
0.000142837
-0.0479481
-0.0668198
0.643037
-0.0154994
0.289773
0.0155744
-0.00045525
0.887978
-0.00110004
-0.0795147
-0.0913513
0.00437716
0.00409804
-0.0157102
0.544008
-0.00672685
-0.0330007
-0.000558181
0.310852
-0.00571673
0.417983
-0.00103091
-0.0111242
0.632757
0.125039
0.0969951
-0.0578968
-0.00031385
0.00539095
-0.00039227
-4.48577e-06
0.13496
6.92193e-05
-0.0357718
-0.0698386
0.792801
0.532095
-0.0769865
-0.0345795
-0.0378627
0.0179061
0.00550263
-0.0337974
-0.0809019
0.390211
0.559386
-0.00254625
0.468147
0.131211
-0.0362855
0.0218011
-0.00321119
-0.0153883
-0.0103401
-0.00520843
-0.000121223
-0.00352845
0.0200779
0.3178
0.00319775
-0.0492343
0.0254032
-7.55774e-05
-0.078848
0.830841
-0.0121521
-0.00274767
0.0232832
-0.0265972
0.170281
-0.00291196
-6.97307e-05
4.59521e-06
-0.00525914
0.636869
0.0451154
-0.134086
-3.66881e-07
-0.134013
0.102868
-0.00988833
-0.0866829
-0.00251629
-0.00089837
-0.0453233
0.00180742
-0.0268035
0.0207678
0.128694
-0.000338422
0.00416336
0.2193
-0.121145
0.000812367
0.000865012
0.536055
-0.0415914
-0.00317868
0.272472
0.654565
-0.0538196
-0.0138728
0.0154358
-0.00156084
-0.0163519
-0.00657884
0.254776
-6.9783e-05
0.0199867
-0.113371
0.542481
0.730669
-0.0117038
-0.0171847
0.378277
-0.0331089
-0.000117491
0.0735788
0.151731
0.154332
-0.0141261
0.0501426
0.655331
-0.126079
0.591331
0.550051
-1.57313e-05
0.021608
-0.114752
-0.00576287
0.00325935
0.660175
0.0447755
0.000547962
-0.0610498
-0.0872125
-0.0109063
-0.00026313
0.425573
0.295516
6.87274e-05
0.00825429
0.0109267
-0.104455
-0.0575979
9.83879e-05
-5.37046e-06
0.000980321
0.177181
-0.0509156
0.427287
-0.0870909
-0.0334415
-0.0400276
0.266852
-0.00674419
-0.00247039
0.0163241
0.00168215
0.597767
-0.0473166
0.00218852
-0.0146166
0.00657206
-0.00307074
-0.023599
0.000458345
0.000470959
0.84168
-0.0157345
-0.00994034
-0.000943659
-0.0015242
0.361562
-0.115287
-0.0458544
9.19143e-06
-5.0043e-06
-0.0488545
-0.0132146
-0.0102941
0.0344789
0.0125655
-0.00540721
0.0419538
-0.0330817
0.581669
0.00959306
0.000486975
-0.076741
-0.0441318
0.0233886
-0.00674669
-0.0459847
-3.19856e-05
0.708302
0.0390929
0.000151593
0.747608
-0.0472496
-3.40869e-05
0.00295544
-0.0785963
0.0208546
0.0844674
-3.64801e-06
-0.0156456
-0.0129081
-0.0105914
-0.00098943
-0.0161471
0.633416
-0.0163779
-0.0227974
0.307996
-0.00568624
0.616733
-3.7706e-05
-0.0306216
-0.0795823
-0.0450979
-0.0830504
-0.00318706
0.00340996
-0.000369872
-0.0359859
0.0156602
-7.11377e-05
1.25123e-05
-0.0124665
0.578075
0.0146805
0.00513496
-0.0937468
3.62648e-07
0.00199673
-0.000118276
0.0187676
-0.0333035
-0.000825875
-0.0156138
-0.0239183
0.0021001
-3.98813e-05
-0.05989
-0.000843409
0.0932459
0.501114
0.385529
-0.00838015
0.0123687
0.0515463
-0.000248772
-0.00703747
-3.55656e-06
0.555981
-0.026455
0.0340133
-0.0322601
0.00333583
-0.00630184
-0.000236973
1.51105e-05
-0.00962851
0.0878323
0.359946
0.00255314
-0.0695806
-0.0469377
-0.0154472
0.0186518
-0.00274707
0.00222141
-0.0111059
-0.00021913
-0.0804558
0.399139
0.275305
-0.0418647
0.391639
0.000153478
7.77069e-06
0.0778915
0.0136999
0.735806
-0.0713021
-0.0400016
0.0160613
0.00242594
-0.0115955
0.000935098
-0.0205392
-0.0247494
-1.4178e-05
-0.00187478
0.537857
-0.000320723
0.685849
-2.26906e-06
-0.0799492
0.0881662
0.0479617
0.0021597
0.000371614
0.565691
0.097326
-0.0814354
0.284494
-0.0130812
-0.025338
-0.00824224
0.328692
-0.0478215
0.0213062
-0.0149575
1.44316e-06
-0.00271764
0.0121653
-0.0336431
-0.0409533
-0.0756121
-0.0339993
0.186794
-0.00441616
-0.0910328
-0.0261882
6.03462e-05
-0.0231335
0.0167898
0.189882
-0.0503723
-9.22453e-06
-0.0346
-0.000951685
0.002894
-0.127733
0.425826
0.00185734
-0.0228179
-0.0440494
0.127538
0.621844
0.00376177
-0.00936604
0.33068
0.243958
-0.0288619
0.0102048
-0.0827649
-2.17721e-06
-0.0722263
0.000164891
-0.0438854
-6.42842e-05
4.61885e-05
-0.0121739
-0.0146717
0.502649
0.0179883
0.0237661
-8.66022e-07
-0.0125585
0.000173518
-0.006603
4.67305e-05
0.0901202
-0.00102189
0.273805
-0.000285319
-0.0244543
-0.0638053
-0.00863327
0.617106
-0.0312089
-0.0789677
-0.0113401
0.0861422
-0.0741994
0.0561859
-0.0314823
-3.83857e-06
-0.0103105
-0.00808665
0.000500774
0.000166537
0.324858
-0.00997666
0.138814
-0.00869944
0.00178323
0.0622679
0.000331084
-4.04739e-05
-0.0713759
-0.00716427
5.31874e-05
0.357085
0.801632
-0.000463033
-0.0615545
1.13005e-05
0.665531
-0.0898007
-0.0648256
6.57622e-05
0.0222788
0.106845
0.124837
0.0827837
-0.000884788
-0.000335346
-0.0292055
1.85859e-06
4.46401e-06
-0.0486463
-0.0518119
-0.0742017
0.76867
0.000403808
-0.0537003
0.0158934
-3.66825e-05
-0.00256653
4.49216e-05
-0.0121485
8.2789e-05
-0.0288654
0.0544076
0.609118
0.0836866
-0.00060671
0.000936125
-0.109924
0.135875
-0.0063695
1.66999e-05
0.303393
-0.143662
-0.0691539
-0.0267266
-4.35066e-05
-0.000600903
-0.146826
-0.038967
0.228054
0.579107
-0.0770611
-0.00265793
-3.51611e-05
-0.0754455
-0.0986462
-0.000445956
0.0054026
-0.0279189
-0.00950219
0.558721
-0.002721
0.00235146
0.178131
-0.0152907
0.73916
0.734316
-6.99145e-05
-0.00010158
-0.0307931
0.0319269
-0.0597079
0.01097
-0.0148081
-0.00122573
0.64486
0.267037
0.00470943
0.877054
8.70131e-06
0.172903
-0.0885052
-0.0525614
0.000179107
-0.0618113
0.178993
0.0305684
0.112895
-0.000964059
-0.00103791
-0.00765739
-0.00707537
-0.0256997
-0.00223504
0.19522
-0.0114317
-0.0105612
-0.0953021
0.526676
0.0207168
0.0611908
-0.000862124
-0.00109778
-0.0369944
0.00204498
-0.00533937
-4.14428e-05
-0.000772684
0.179589
0.568117
-0.000279123
0.257547
-1.61948e-05
-0.0068265
-2.91907e-05
0.0112428
-0.0683757
-8.79012e-05
-9.06746e-05
-0.0889826
2.7874e-06
0.0841325
-0.0435864
-9.22685e-05
0.270241
-5.9719e-06
-0.000857087
-0.00019403
-0.0101606
-0.000812165
-0.0122654
-0.0997251
-0.000723802
0.00883437
-4.10602e-05
0.494022
0.000278617
0.0183273
-0.056329
-0.0401871
-0.0023664
0.00606859
0.323488
-0.0456495
0.266542
-0.0680213
-0.00704974
-5.45712e-06
-0.0114552
0.536132
0.298232
-0.0596228
-0.0838147
0.475101
-0.0164509
-0.0839784
-2.89685e-05
-0.0452554
-0.00175663
0.855039
-0.076014
-0.00018939
-0.0899307
-0.0471131
0.37116
-0.0052755
-0.0488237
-0.00753019
-0.0113658
-0.00265159
0.37009
-0.130562
-0.0350369
-0.0278841
-0.0242482
0.0115787
0.46646
-0.0339569
0.28616
0.00565061
-0.0846372
0.696961
-0.0167251
-0.000493104
0.371353
0.542909
-0.00591518
0.0197667
-0.0129476
-0.0556775
0.331961
-0.0760018
-4.75816e-05
-0.0144069
6.54015e-05
-0.00893476
-5.04268e-05
-0.00905619
-0.00200163
-0.00631058
-0.0976888
-0.00125874
-0.00105744
-0.00228369
0.308888
-0.00420001
-0.00650764
-0.00598125
0.256588
0.010697
-0.000773215
0.53034
0.724164
-0.0351661
0.645306
-0.0310209
0.498224
0.0110334
-0.022628
0.0051935
-0.000954512
2.90436e-05
0.00515129
-0.0216537
-0.0351134
0.27942
-0.0402198
-0.0356108
-0.00187235
-0.0918313
-0.0425557
0.0131124
-7.55579e-06
0.0192263
0.135099
0.543974
0.0276799
-0.0238408
0.221
-0.00070192
0.0677977
-0.0316678
0.00122792
-0.0888223
0.00614675
0.499606
-0.00403613
-0.00108123
-0.000265698
-0.0809118
-0.00246725
0.859856
0.88717
0.022992
-7.18126e-05
0.0159879
-3.5146e-05
0.103779
-0.00106949
0.0411093
0.791119
0.0324757
3.10052e-05
-0.0147049
-1.95733e-05
-0.13074
-0.0588282
0.645335
0.000423832
0.0221458
0.00561188
0.000528358
-0.00428788
-0.000591858
-0.0108774
-0.0610696
-0.0395173
0.0126922
0.26355
-0.0232884
0.011854
-0.0351503
-0.0033687
-0.0463814
1.93183e-05
7.77275e-05
-0.00405535
0.051252
-0.0490843
-0.0279226
-0.00662787
0.00497128
-0.0321342
0.349534
-0.0223464
-5.91877e-06
-0.0854322
0.594045
-0.0583214
-0.0209538
0.107234
-9.91163e-06
-0.00126561
-0.0480086
-5.79415e-05
-0.000834379
-3.61238e-05
0.877828
0.0161165
0.00655057
6.44663e-07
3.45885e-06
-1.78465e-05
-2.14399e-06
-0.0385203
0.54547
-0.0587342
-0.000869344
-0.000301131
-0.00927685
0.641305
-0.0805098
0.587443
0.0339177
0.213057
-0.000242222
0.634454
-0.00393893
-0.0161654
0.017959
0.014663
0.0167727
0.279734
-0.0668813
0.626458
0.421826
-0.0141176
-0.0470833
0.000885433
-0.0486283
-7.35968e-06
-0.00166578
0.00481899
0.113109
-0.011307
-0.0386804
-0.00566191
0.764597
-0.0976941
-6.05338e-05
-5.14745e-05
0.65266
-0.0085083
0.00402121
-0.0222735
-0.00392854
-0.0255694
-0.0165019
-0.0541697
0.111707
0.0401117
-0.0169839
-0.0238661
0.000125443
-0.00981017
-0.00188534
-0.0134454
-4.92588e-05
8.41168e-05
-0.0289935
-0.0335189
0.61976
-0.0352341
-0.000360967
-0.0025933
-0.000547662
0.527098
-0.0508578
-6.1731e-05
-0.0441244
-0.00764032
-0.00597801
-0.0457355
-0.0527455
0.0113118
0.0917648
-0.0906238
0.000104997
0.00991571
-0.022211
-1.8145e-05
-0.000109548
0.174151
0.130934
-0.0145905
-0.077214
-0.0779349
0.000853474
0.680569
0.00010555
-0.0260989
0.561447
-0.0279403
-0.0586524
5.5568e-06
0.00023587
-0.0584182
-0.015408
0.00226942
-0.0521871
0.340672
0.39286
0.00109852
0.000388901
0.308023
-0.0204586
-1.89824e-05
-0.00244047
-0.0449151
-0.0348417
-0.0162926
-0.00309816
0.266739
2.08725e-05
0.116403
0.403607
4.85445e-05
0.0168502
-0.000744626
-0.103859
-0.0219754
-0.00110618
0.04292
0.000296714
0.33132
0.00224823
0.0341937
0.0225163
0.792208
0.519639
-0.082677
-0.0112429
5.57168e-06
-0.0421433
-0.0203548
0.222551
0.465648
-0.0519072
-0.0170316
-0.0241559
-0.00931276
0.210308
-0.000304521
0.635726
0.0373644
7.10448e-05
5.06909e-05
0.0001452
-0.0183874
-0.0252418
0.00103604
0.0619651
0.163557
-0.07644
0.000770564
9.43653e-05
-0.0325625
-6.02222e-05
-0.00405299
-0.0157028
-0.0010015
0.0158322
0.00629438
-0.00193345
-0.00532471
-0.0220952
0.520118
0.534617
0.053377
-1.45803e-05
-0.000777961
0.359461
-0.000651593
-0.120463
-0.000291417
-0.0272714
-0.0985853
-0.00030127
-0.00032835
-0.0439693
0.00191114
-0.000106371
-0.00184369
0.290205
-0.0466804
-5.70885e-05
0.1341
0.498656
0.517559
0.000854894
-0.109684
-0.0126521
0.590527
-0.0847012
-0.0866726
-0.00826811
-0.0174133
0.0394594
-0.034225
0.517568
0.109159
-0.000253813
-0.0706476
-0.0933803
-0.00514107
-2.24912e-06
-0.00243773
0.301912
-0.000274702
-0.00142207
-0.00538591
-0.00162419
0.0121449
0.0395158
-0.000262467
-0.000174362
-0.0091231
-0.10334
-0.0471344
-0.0923071
0.34626
-0.00236233
-0.000385755
-0.0474667
-0.0318755
0.0131344
0.0180663
7.518e-05
0.0995648
0.20415
0.0254316
0.0330152
-0.000869808
-0.0177182
-0.0269282
0.00173917
-9.63041e-05
-0.012299
-0.00539737
-0.00100667
-0.0147704
-0.00115619
0.342961
-0.0119971
-0.136344
-0.0314154
-0.014207
0.0157404
0.66264
-0.0567002
-0.000177319
0.630834
0.231185
0.0103383
-0.00780498
0.0100567
-0.0162858
0.223638
0.000453328
-0.00376144
0.789345
0.411968
0.457646
-0.0578921
-0.00189023
-0.00166192
-5.70426e-05
-0.00175254
0.407925
0.113477
-0.00651158
-0.00652252
-0.00050321
-0.0455034
0.743198
0.562593
0.108921
-0.00377806
-0.0810927
-0.00610255
-0.000986983
-0.027387
0.018047
-0.0356024
-0.00469832
0.00117549
-0.105664
-0.103685
0.0404936
-0.0322493
-0.00522352
-0.0337276
-0.000276896
-0.00911763
-0.000938496
0.486453
5.59721e-05
2.99463e-06
-0.034046
-0.025736
-0.0372071
0.051931
3.80625e-05
-0.104148
0.086375
0.277905
0.845466
-0.00609456
-0.116508
0.0403476
-0.00277037
0.0579643
-0.000814003
0.0138017
-0.000268822
0.356764
-0.104745
0.0141075
0.1668
0.162297
0.00192517
0.00385503
4.56322e-06
0.592003
-3.04176e-06
-0.0580899
0.000431601
0.00219963
0.25239
0.139606
-0.0907333
-0.0501628
-0.0053539
0.883918
-0.0920417
5.63113e-06
-0.0201968
-6.79439e-05
-0.0194857
0.14251
0.279827
0.00115805
-0.045054
-0.0122616
0.208657
-0.00991686
-0.0416382
0.771282
-0.0128775
8.3681e-05
-0.148855
0.799013
0.00255092
0.127945
-0.0557063
0.19687
0.00247615
0.0420831
-0.0957786
0.0072795
0.0735676
-0.0328531
0.255688
-0.0336982
-0.0250999
-0.0010726
-0.0010785
0.693612
-1.25052e-05
-0.00718207
-4.60847e-05
-0.0105278
0.000453092
-0.00944049
0.345549
-2.24477e-06
-0.00136249
0.0400019
-0.142422
-0.0303109
0.00148024
0.571937
-0.0659704
0.241947
-0.0154291
0.218675
0.00902082
-0.00100268
-0.0938701
0.000999528
0.711749
-0.034919
-0.000166859
0.00296241
0.199988
-0.0145604
-0.000938514
-0.000182392
-0.101006
-0.00342004
-0.0126692
-0.0904729
2.72131e-06
-0.086245
0.00052293
0.499255
-0.0132454
0.209861
0.00588056
-0.00482237
0.381523
-0.0715635
-0.151165
-0.00565674
-0.104132
0.394432
0.418056
-0.0181589
-3.28025e-05
-0.0200414
0.00607529
7.99386e-06
0.0649595
0.541248
0.0165629
0.00207298
0.0112266
-0.0876364
-0.00023082
0.106073
0.0640161
0.098224
0.0174256
0.0364766
-0.000521511
0.249744
-0.100475
-0.146203
-0.00133693
0.0255576
0.202828
0.00104208
-0.090152
0.309469
-0.0512256
-0.0911837
-0.0946307
-0.111378
-0.11143
0.0707695
0.312381
-0.116208
-7.07072e-06
0.0010902
-0.0487664
-0.00236896
0.00900498
-1.20939e-05
-0.00749517
0.00521334
-9.82321e-05
0.0774492
-0.000695775
0.16927
-0.0424781
-0.0078491
-0.00899827
-0.0111808
-0.0844195
-0.0076891
-0.001379
0.0281528
0.106692
0.00596892
-0.0425232
-0.00389821
0.0387422
-0.0123376
-0.024947
-0.0934221
-0.0206037
-5.21834e-05
-0.0197803
0.629281
3.50556e-05
0.109884
-0.0585756
0.75577
0.0653287
-0.059732
-1.09564e-06
0.00219859
-0.104292
-2.76241e-05
-0.00357904
-6.25476e-06
-0.0904675
0.00593577
-0.0968414
-0.0297528
-0.000173773
0.38983
0.376315
-0.0457507
0.000581446
-0.000238835
-7.55469e-06
-8.14798e-05
0.683279
-0.00176566
0.00299354
0.0288727
0.0012347
-0.000800694
-0.0951146
-0.000369572
0.0609715
0.00291602
-0.00277652
-0.00100056
-0.0332552
-0.0527992
0.252185
0.118236
-0.000225063
-0.0171916
0.000700717
-0.082115
-0.000806135
0.183301
-0.0119838
0.883848
-0.0200519
-0.00194638
0.101931
-0.0247314
0.492744
-0.0535997
-0.0148006
-0.0169851
0.0243727
-0.00478689
5.70791e-06
-0.0109394
0.435715
-0.0564741
-0.00432224
-0.0538273
-0.035113
0.213339
-0.000690399
0.394777
-0.00356513
-0.0824314
-0.000722226
0.0175734
0.0613014
-0.00753556
0.472909
-0.000645473
0.0442787
0.12115
0.00062633
-0.000193425
0.7379
0.0850345
-0.00129022
0.0397653
0.0248573
0.000157533
-0.0851583
-0.0290042
-0.132495
-0.0137398
0.474512
0.00561554
0.191293
-0.000543913
0.563346
-0.0890871
-0.00706233
0.00825844
0.0420643
-0.0839148
-0.125007
-0.011366
5.72611e-05
0.808813
-0.0295144
0.00106608
-0.0430157
-0.0512829
0.48409
0.0039652
-0.0214366
-7.85827e-05
0.0885472
0.0106845
-0.0497738
0.00106011
-0.00466916
-0.0365926
4.60679e-05
-0.06703
-0.00211396
-0.0195435
-0.0825318
0.410914
-0.0135804
0.032212
-0.0548725
-0.0412371
-5.48587e-05
0.0001802
-0.00505445
4.80524e-05
-0.0149067
-0.0533918
-0.00279154
-6.44387e-06
0.718285
0.00667378
0.000421965
-6.15533e-05
-0.00288357
0.46498
-0.0681544
0.810062
0.26611
0.0298203
0.403332
-1.3974e-05
-0.0190882
-0.00115687
-0.00335814
0.278688
-0.0133761
0.81522
0.366351
-0.0729422
0.383931
0.0117131
-0.0188615
0.00297186
-0.0570084
-0.00536389
-0.0671055
-0.0724832
-0.0040875
0.378441
-0.0132351
0.000178869
-0.00580994
-0.000920343
-0.0450921
-0.000235142
-0.00172469
-3.87445e-05
0.227722
-0.124465
0.390672
0.0374755
-0.00372879
-0.0432756
-0.0266496
0.10095
-0.00416415
-0.0014634
-0.0838424
-0.059016
0.0124932
-0.0558063
-0.00608727
0.0108957
0.00315635
3.72925e-05
0.19466
-6.35422e-05
0.078096
-0.00111839
4.1072e-06
0.00264521
-0.000935448
-0.0016835
-0.021293
0.243028
0.211791
-0.0267658
-0.0168967
0.003866
-0.00696478
-0.0137173
-0.000102461
-0.000689247
0.000903586
0.16108
-0.0116279
-0.0734705
-0.0641985
-0.003133
-0.0302665
-0.0185477
-0.0023599
0.00711323
-0.0167097
0.347949
-0.0872118
0.00777086
0.00225957
-0.0500619
0.796134
-0.01344
-0.0068675
0.0104297
0.114277
0.00538
-0.00569235
0.380246
-0.00051428
0.0604366
-0.0311106
-0.0697467
0.00853579
-0.0050743
-0.00750667
0.056348
-0.00494032
-0.000874438
-0.00123884
0.00338613
-0.00033528
0.041413
-0.0126293
-0.00280222
-1.33272e-05
0.230374
-6.19825e-05
-0.0415115
0.110294
-0.0321302
0.000164695
0.159395
-0.0525807
0.249567
-8.74013e-05
-0.00535819
0.100673
0.000225466
0.00663501
-0.00615223
0.0141338
-0.0277779
-0.0427439
-0.0119992
-0.00367937
0.0133551
0.0281071
0.0206636
-0.000264678
0.166317
-0.0526787
-0.00450745
-0.00942317
0.000526623
-0.0749578
9.48801e-05
0.634847
0.308987
-0.000686562
-0.0284549
0.000111411
-0.00297794
-0.0075044
-0.0216026
0.229733
0.19559
0.0171862
0.0137396
-0.0933578
0.0490755
0.0350392
0.041154
-0.0663432
0.0210653
0.30259
-0.0128715
0.54437
-0.00128044
-0.0146967
-0.0637844
-0.00013887
-0.00104589
-5.72099e-05
0.540241
-0.0138885
0.000339881
-0.0207587
-0.00694872
-0.000455289
-0.0176014
0.401614
0.00130267
0.014713
-0.0391844
-0.000683454
-0.00621686
-0.00111071
0.82591
0.000271044
3.44358e-05
-0.00264759
-0.019125
0.0680677
0.000698212
0.0149056
0.107503
-0.000232181
0.00274524
-0.0923132
0.0129889
-0.0568543
1.26749e-06
0.000433909
-0.00963199
0.0430862
0.446427
0.130661
-0.04522
1.50337e-06
-0.068006
-0.00356414
-0.0166533
-0.0161111
0.254692
0.60916
-0.000150957
0.212756
0.341547
-0.012941
-0.0267991
-0.0304511
-0.0183182
0.000137492
-0.0520331
-0.0114457
-0.000182313
-0.000753429
-0.00213524
-0.00257203
-0.000923372
0.436233
0.46706
0.263559
-5.97775e-06
-0.0304198
0.0113161
0.148878
0.642969
-0.000670731
-0.0266628
-0.0241733
0.429767
-0.0250268
-0.0125866
-0.0127868
0.218582
0.000380037
-0.00068514
-0.0329151
-0.0544395
0.186812
0.0472576
-0.0531779
-0.031287
0.0421899
0.0268461
-0.0627728
0.00929017
-0.0408426
0.169255
-0.000483553
-0.000854114
0.124821
0.000262216
0.0284759
0.0426267
-1.48528e-05
0.387225
-0.0139382
-0.00592443
0.844978
-0.0474035
-0.0128299
-0.0496552
-0.00353115
0.603352
0.00151239
0.798132
-0.00019115
-0.024714
0.81622
0.00912428
0.600212
-0.00762822
-1.16712e-05
-0.0322934
0.614938
-0.00212263
-0.00879761
-0.0107189
-0.00135406
-0.0277687
0.615639
0.149435
4.39381e-06
0.0266524
-0.00497605
0.0399895
-0.00120133
0.0310039
-0.00351342
-0.000644188
0.584122
0.630832
0.590521
-0.0652321
-0.0241817
0.000179975
-0.0718442
0.401144
0.0210173
0.00030176
-0.0794435
0.000766879
-0.00014501
0.625934
0.000157785
0.00558657
-0.00257239
-0.0119292
0.596806
0.61744
0.634719
0.0157524
0.000613538
0.298961
0.0100656
0.0316334
-0.0119693
8.85721e-05
-0.00392255
-3.04554e-05
-0.0060204
-0.00100522
-0.00759075
-0.000101229
0.207677
0.0027909
-0.0873732
-0.0120198
-0.0883217
-0.0211635
-0.00104069
0.491914
-0.0140947
-2.17051e-05
-4.25483e-05
0.78652
3.64786e-05
0.0151329
0.0744897
-0.0232806
0.422663
-0.00690402
-0.0548226
-0.0468863
-0.000689252
0.000157749
0.361072
0.630864
-0.00205967
-0.0281562
-0.000317375
0.624543
0.758184
-0.00191999
-0.00851962
0.0257198
0.0040241
-0.0314285
7.33748e-05
0.0134456
-0.0477599
0.0751731
0.495438
-0.00200037
0.0382402
0.117541
0.0226769
-0.0561556
0.0376983
0.735484
0.253303
-0.0673892
0.634328
-0.00079318
0.641709
-0.00958881
0.527691
0.101025
-0.0066675
0.0462722
0.00317981
0.0234562
-0.0907701
-0.000897175
-0.0298765
0.525385
-0.0335673
0.0317245
-0.00196273
-0.0384848
0.243085
-0.0119792
-0.127015
0.000920472
-0.00476303
-0.0305413
-0.00285353
0.00259661
-0.0115076
-0.000670779
0.00319511
0.521487
0.00287093
-0.0205543
-0.072857
-0.0368653
-0.0788708
-0.0991786
0.00551732
-3.13075e-06
-2.0573e-05
0.357464
-0.0698244
7.60995e-05
-0.0732445
0.24189
-0.0740423
-0.0192231
0.000146771
-0.00250017
-0.0578108
0.187695
-0.0111824
-0.000640568
-0.0576923
-0.0250031
0.817684
0.148698
0.0901402
-0.0625436
-2.55723e-06
-0.0087238
0.0859339
-0.000496367
2.37975e-05
0.226289
0.131734
0.000794372
-0.00113611
0.010018
-0.047224
0.0134917
0.010606
-0.0192619
6.74009e-05
0.387987
0.000749437
-0.000838537
-0.000316581
-0.000291978
-0.00020993
0.108132
0.00122318
-0.00364588
-0.0122385
-0.00610789
0.0375527
-0.00696107
-0.0517533
-0.0132711
0.569967
0.466822
-0.000649561
-0.0019074
0.127364
-0.00107709
-0.0263169
0.0695126
0.0485108
-0.00126746
0.0268204
0.0524919
0.00166487
0.115823
-0.000139935
0.00960777
-0.0195152
0.0179508
-0.0183184
0.0638065
9.07722e-05
0.00032939
0.00033952
-6.70662e-05
-0.00197862
-0.0122762
-0.0161538
-0.0363146
0.0615494
0.0490363
0.0117676
-0.0775232
0.0143995
0.0087227
0.0167499
7.34547e-05
0.615882
-0.0104053
-0.00416633
-0.0331236
0.828821
7.90412e-06
0.0606583
-3.28234e-06
-0.0496986
-0.00809264
-0.0270049
0.225229
-0.00503816
-5.88203e-05
0.198087
0.0932292
-0.000717201
0.0663871
-1.37724e-05
0.212306
0.00855166
-0.0346193
-0.000190285
0.315928
0.0365538
-0.0251384
4.45096e-05
0.220259
0.421163
-0.00142817
-5.11723e-05
-0.0440148
-0.0111998
0.00746617
0.0283632
0.645577
0.361384
0.000591904
0.458277
0.323011
-0.0035598
-0.0671273
-0.0433673
-0.0194549
-0.0659561
0.118107
0.00101139
0.672539
0.18946
0.0156537
0.00010563
0.000777476
1.1147e-05
-0.000715512
-0.00346803
0.724736
5.7014e-06
0.100965
0.0341958
-0.000290867
0.671405
0.759714
0.25625
0.301461
-0.0642147
0.00306398
-0.000365543
-0.0134918
-1.52418e-05
-0.00137642
-0.139601
-4.06832e-05
-0.00226323
0.687309
-0.0141616
-2.42101e-05
0.713757
0.000560855
-0.0425674
-0.0825074
-0.0016367
-0.0937851
-0.000295469
0.161032
0.0041135
-0.0208183
0.00237729
-0.000821408
-0.000493541
-0.000280924
-0.138747
-0.0714766
0.197581
0.00343689
-0.00677113
0.304136
8.85989e-05
0.796313
-0.000680274
-0.0997556
0.00276207
0.00199599
0.0639852
0.0673073
-6.07653e-07
-0.0050594
0.000125489
-0.000837999
0.0010249
0.105512
0.0611695
0.429
-0.0520825
-0.000124805
0.000201518
0.124358
0.471531
-0.0054443
-0.00765172
0.793537
-0.0034083
-0.0247383
0.0010455
0.0756342
-0.0504865
-0.0103315
0.202138
0.00161899
-0.00031463
0.00201619
-0.0371768
0.785887
0.613699
-0.0288513
-0.0458084
-0.00776819
0.0019029
2.99405e-05
0.0943125
0.253096
3.96274e-06
-0.00882828
-2.26037e-05
0.000156407
0.57734
-3.01703e-07
-0.0895391
-0.067952
-0.105276
0.0869063
4.77572e-06
0.0121738
-0.00739356
0.531392
-0.00422448
0.00610476
-0.0361003
0.000759694
0.47288
0.270255
0.0132508
0.0648552
0.696404
-0.0750377
-0.068469
-0.00233415
-0.00848953
-0.000478794
0.0276925
-9.04312e-05
0.212248
0.00354009
0.240577
-0.0411349
-1.5437e-06
0.0686881
-0.000209954
-7.41808e-06
-0.000932948
0.775528
0.743425
0.411991
6.93697e-05
0.20488
0.64097
-0.00119617
0.00192687
-0.0101925
0.0816874
0.620727
-0.0327661
0.153279
-0.00306936
-0.0759009
-0.0851674
0.857577
-0.000738047
0.612302
0.109777
0.244844
0.000125929
0.000250445
0.00654311
-0.0107646
0.102905
-6.82351e-05
7.87472e-05
0.600495
-0.110851
0.000343054
0.63015
-0.00281167
0.00017912
0.506837
-0.00826474
-0.00187509
-0.0476934
0.163665
0.00037817
-0.000163659
0.0041692
-0.00490117
0.595959
0.771357
0.36666
0.83515
0.0915829
-0.0543224
0.703237
-9.89488e-05
-0.00390051
0.125503
-0.00416208
-0.000797822
-0.000122769
0.62856
0.0261311
-0.000794813
0.749576
0.0933303
0.288794
0.0532436
-0.00329481
-0.02454
0.183963
0.0885772
0.628413
-0.0284048
-0.000956709
0.57424
0.531523
0.0159199
0.439238
-0.0456473
-0.00936123
-0.0111612
-0.000780629
-0.000172115
0.58088
-0.0725753
-0.00235946
0.00102732
0.196169
-0.0371911
-0.0207576
-0.0012056
-0.00455647
0.652484
-0.000975554
-0.0206623
-0.00361629
0.643768
-0.0228991
0.0241835
-0.00896945
0.00166229
0.191603
-0.0260525
0.666696
0.0766888
0.833085
0.320959
-0.0702359
0.0377818
-0.00215254
0.00897416
-0.075943
0.60498
0.647327
0.726507
0.412559
0.587319
-0.000457461
0.686635
-3.86018e-05
8.06234e-05
-0.0557976
0.745708
0.0611534
0.306987
-1.23257e-05
-0.00261267
-0.0962896
-0.0410939
0.593975
-0.000827545
-0.00918345
0.410767
0.00122834
-0.00509161
0.807029
0.0570864
-0.0475123
-0.165391
-0.000659825
0.0492235
0.0521452
0.844103
0.0511048
0.0286117
0.00510591
-0.000288098
-0.0081084
0.238888
0.00695176
0.000152732
-0.102946
0.306665
-0.00178464
0.6148
-0.0811211
0.621628
-0.0294015
-0.0267806
0.699069
-0.00636358
0.00728367
-0.000496742
-0.00158744
-0.0744493
-0.0263907
-0.042454
-0.0115403
0.00401885
-0.107229
-0.0814524
0.620518
0.000300181
0.000889224
-0.0238932
0.141847
-0.111671
-0.0679061
2.39219e-06
-0.107782
0.0557709
-0.000129105
-0.0907436
-0.118436
0.626498
-0.104392
0.613927
-0.0160974
0.12195
0.313262
-0.0406278
0.39299
-0.00211105
0.103092
0.00114862
0.102325
0.238619
0.212701
-0.0329127
0.00722169
-0.000814307
0.218182
-9.97403e-05
-0.000158106
-0.00125047
-0.00422798
0.0187372
0.0176007
0.518502
0.180572
0.786076
0.477823
-0.00182794
-0.0380004
-0.000205895
-0.0550384
-0.00145669
0.00679635
0.000740482
-0.0376932
0.419305
0.61097
-0.00035105
2.56742e-05
0.0183144
-1.62699e-05
-0.0107279
-0.000222395
0.152217
-0.0409117
0.227479
-0.0965637
4.25354e-05
-0.0161827
-0.0453931
-0.0289434
-0.0189847
-0.0601314
0.052999
-0.000196834
-4.14331e-05
0.00241427
-0.000169438
0.08593
0.051567
0.0457868
0.729219
0.052298
-0.130787
-0.0975112
-0.000529718
0.0600045
-0.000151694
0.576372
0.116722
0.680406
0.000158436
-0.0373971
-0.00793927
0.0573803
0.184487
0.526079
-0.00880669
0.0347304
-0.00227576
-0.0218485
-0.00930642
-0.00710389
0.125501
0.00183019
-0.00947548
-0.0233332
0.274922
0.0710368
4.23986e-06
-0.00105213
-0.00722593
-0.000721757
0.127784
-0.000792775
-0.0335281
0.166916
8.92657e-05
0.309491
0.000100645
-3.72277e-06
-0.0988936
-0.0208681
0.000187229
-0.0258691
0.000184998
0.712481
0.0144349
-0.0279216
0.657144
0.149359
-0.0359173
0.509345
-0.00323215
-0.00219462
-0.00244561
0.0953021
0.888501
-0.00176159
-0.00072308
-3.53646e-06
0.00906774
-0.00147533
0.0294795
0.00709806
-0.0240393
-0.0668135
0.0213793
0.012259
-0.0214801
-0.000642099
-0.0346061
0.504684
-0.00212042
-0.0158468
-0.000276518
0.520586
0.0620011
0.498268
0.000491244
-0.00100667
-0.0271776
0.730321
0.170757
-0.0322955
-0.000157441
0.0363313
0.0912909
-0.0268989
0.236443
-0.0540119
0.0225524
-0.134384
0.526022
-0.0184682
0.297324
-0.00369374
0.843182
-0.0467533
-0.0126711
0.666096
-0.048653
0.193856
-0.143708
0.21707
0.00744064
0.057295
0.398973
0.0575057
-0.0544748
-0.0111555
-0.0087308
-0.0156785
-0.00841426
-0.00176233
-0.0635139
-0.0323424
0.00224884
-0.0738788
-0.0913663
-4.56485e-05
0.0977808
-0.0104991
0.0863402
0.676011
0.459747
-0.0604716
-0.0791563
0.000512814
-0.0823135
-0.0050033
0.814646
-0.0399878
-0.0345056
0.453118
0.0552502
-0.0449049
0.251858
-0.0417793
-0.000768128
-0.013465
0.0115763
0.000750101
0.479584
-0.00315667
0.165601
0.404465
-0.00662637
0.287165
-0.106721
-0.000442166
0.0076886
0.0796794
0.427105
-0.00294915
0.0892725
-0.0776919
0.0752911
-0.0262015
0.46564
0.00294742
-0.0790818
-0.00360668
0.000207867
0.610203
-0.00285058
-0.0342812
-0.000130418
0.248353
-7.61678e-05
-0.0519387
-0.00268218
-0.149603
0.000740575
-0.0117148
0.206115
-0.00453195
0.00105413
0.0007144
-0.00477544
0.044751
-9.60696e-05
-2.9375e-05
-0.00979562
-0.0121311
-0.0259082
0.00938148
-0.00223342
0.0857411
0.0915486
-0.0014992
0.00115965
-0.000241402
0.601665
-0.00488453
-0.00797347
0.517241
-0.0210501
0.473202
0.0538017
0.621105
0.272473
0.128072
-0.00174877
-0.00671084
0.0923459
0.025458
-0.00506655