/*--------------------------------*- C++ -*----------------------------------*\
  =========                 |
  \\      /  F ield         | OpenFOAM: The Open Source CFD Toolbox
   \\    /   O peration     | Website:  https://openfoam.org
    \\  /    A nd           | Version:  7
     \\/     M anipulation  |
\*---------------------------------------------------------------------------*/
FoamFile
{
    version     2.0;
    format      ascii;
    class       surfaceScalarField;
    location    "33";
    object      phi;
}
// * * * * * * * * * * * * * * * * * * * * * * * * * * * * * * * * * * * * * //

dimensions      [0 3 -1 0 0 0 0];

internalField   nonuniform List<scalar> 
172499
(
201.235
58.491
-259.725
-473.773
101.999
371.773
-111.464
-76.7294
188.194
112.599
-278.112
165.512
-436.121
323.562
112.559
138.358
-337.087
198.729
-143.669
287.176
-143.507
-81.0105
196.396
-115.386
-363.389
351.889
11.4999
-465.117
-8.65601
-229.96
354.46
-124.5
495.017
-360.236
-134.781
-169.287
341.044
-171.757
87.7902
-88.5709
0.780688
-44.0447
-319.344
-104.632
59.3494
45.2822
-456.099
86.52
369.579
-411.551
77.0324
334.518
-114.234
286.118
-171.884
-331.891
-104.23
-72.6848
184.445
-111.76
198.887
-196.832
-2.0551
392.779
-290.212
-102.567
159.437
-312.893
153.455
-227.571
200.827
26.7434
-117.551
228.684
-111.133
69.1426
73.0794
-142.222
-207.808
463.309
-255.501
-263.245
-175.9
439.144
-48.3703
100.769
-52.3989
427.807
-342.012
-85.795
-248.784
-67.1573
315.941
-267.009
406.302
-139.293
-101.091
-75.6424
176.734
-70.3104
-100.092
170.403
182.211
95.3054
-277.517
-225.854
97.8104
128.044
-99.7099
-356.389
115.668
-147.982
32.3135
124.571
197.793
-322.365
157.49
-406.275
-57.6141
-353.937
-131.39
-34.8013
166.191
-118.88
301.092
-36.8641
101.259
-64.3945
-2.15915
89.9493
263.742
66.3884
-330.13
544.137
-303.855
-240.282
397.942
-148.686
-249.257
414.145
-534.096
119.951
-390.722
478.202
-87.4802
279.642
-101.656
-177.985
-473.505
331.768
141.737
-504.397
451.001
53.3961
-119.438
-165.802
285.24
-318.688
-154.818
556.386
-366.67
-189.716
-131.727
82.3031
49.424
86.7614
77.6644
-164.426
127.138
-229.365
102.227
-515.338
327.481
187.857
-186.325
330.618
-144.293
345.936
-129.377
-216.559
-104.038
185.081
-81.0428
295.876
87.1841
-383.06
9.43827
-401.325
391.887
-351.583
197.431
154.152
-220.049
400.831
-180.782
80.7168
-146.794
66.077
-537.659
255.626
282.033
-105.855
202.883
-97.0289
204.013
-155.629
-48.384
372.75
-248.178
-133.549
67.4608
66.0887
-98.1795
-90.5672
188.747
79.79
-163.547
83.7568
-209.812
50.104
159.708
202.641
-402.96
200.319
-248.534
-140.672
389.206
-297.557
220.944
76.6128
-79.3454
-218.212
429.779
-432.778
2.99877
36.7097
-84.6558
47.9461
-306.865
558.914
-252.049
-137.149
240.662
-103.513
342.478
152.539
-108.019
177.19
-69.1707
-324.469
472.876
-148.407
105.28
-117.122
11.8411
-86.701
441.524
-354.823
136.084
-5.20221
-130.882
202.315
-20.5788
-181.736
206.543
-469.787
221.163
50.2497
-271.413
-420.527
315.142
105.385
-575.005
416.907
158.098
261.944
-321.78
59.8357
93.7739
-57.0642
88.2151
-165.399
77.1834
0.708275
104.572
-314.494
-200.843
200.824
-435.928
235.105
328.074
-177.504
-150.569
-485.639
499.559
-13.9192
110.014
-215.869
170.944
-96.3683
-74.5755
-502.325
319.407
182.918
-41.3431
102.993
-61.6496
-140.99
225.134
-84.144
-311.345
-71.124
382.469
-124.008
236.225
-112.217
-54.6573
316.601
-178.191
-31.621
133.274
107.702
-240.975
-104.194
46.3756
57.8187
203.798
-345.339
141.541
-307.56
77.6001
-98.1843
223.563
-125.379
363.999
-541.571
177.571
51.4867
152.527
-216.124
117.94
-64.7393
-39.8923
-222.453
115.304
107.149
47.4085
-173.729
126.32
-230.663
532.609
-301.946
-112.839
64.469
-264.585
78.2599
-113.562
77.2273
36.335
-181.001
-41.6873
222.688
-508.561
511.329
-2.76748
-110.081
237.759
-127.678
567.199
-287.779
-279.42
-172.769
189.562
-16.7928
538.977
-196.499
-329.44
480.849
-151.41
-112.966
227.001
-114.035
-258.694
173.759
84.9354
63.464
-330.473
147.817
-267.255
182.746
147.872
83.7944
56.2494
-140.044
-191.905
341.158
-149.253
502.989
-504.548
1.55824
382.495
-197.005
-185.49
-269.158
159.078
141.961
-532.683
438.65
-332.86
-105.79
-115.166
-149.419
-454.307
234.259
-226.596
-167.743
394.34
106.713
64.231
55.9728
-92.8369
8.02022
194.295
-567.957
273.279
294.678
133.047
146.595
-361.167
427.873
-66.7062
-412.189
100.844
-68.0647
223.231
-155.167
132.196
-132.381
0.185098
-153.524
114.822
38.7023
149.663
-69.873
137.321
301.329
158.329
187.607
-190.435
146.89
43.5459
263.411
-142.815
-120.596
139.939
173.334
-313.274
446.912
-261.014
-185.898
-62.0361
-104.558
166.594
-192.37
124.306
-240.862
122.926
117.935
-241.341
155.48
85.861
-102.729
366.471
-98.2912
-28.3314
126.623
26.7099
59.2485
-85.9584
-74.0429
-81.3405
155.383
220.466
-438.3
217.834
-69.9799
96.6898
193.507
85.9112
-279.418
113.376
-333.406
220.03
276.965
120.978
-289.95
-131.129
421.079
-194.185
96.0059
154.309
-262.706
108.397
-210.256
417.558
-207.303
-275.637
-226.688
-162.602
384.865
-222.264
95.5121
-261.709
166.196
311.153
188.847
-138.675
327.266
-188.591
128.073
8.01089
-106.171
299.678
-338.858
188.599
150.259
453.319
-164.665
-288.654
-201.827
116.504
85.323
-235.482
117.93
68.2879
-131.771
63.4836
21.4636
-91.4435
-172.488
163.368
9.11996
55.1082
-145.96
90.8516
84.7846
137.037
-221.821
-569.694
391.097
178.598
-183.426
360.868
-177.443
364.698
56.2808
-420.979
481.283
-479.308
-1.97427
-338.212
169.036
169.176
134.835
-89.6093
-45.2254
369.941
-271.294
-98.6468
-87.3054
383.181
-214.258
-196.853
411.11
96.5815
-210.119
113.538
-66.6706
88.1342
54.8046
264.602
18.5493
-246.12
-384.206
297.505
-164.178
-62.9241
227.102
-84.2486
-117.579
-100.558
255.579
-155.022
-183.032
-137.845
320.877
78.0242
-80.1833
-123.622
-261.397
385.019
129.085
10.0656
-139.151
133.944
0.158967
-134.103
134.63
-329.331
194.701
-75.0964
138.285
-63.1887
-73.5436
-430.853
-174.991
12.3227
162.668
-201.017
-80.3175
281.335
183.955
-68.552
-115.403
138.419
-70.1314
-350.899
102.961
247.937
0.517356
-414.213
413.696
69.5786
-117.509
47.9303
53.4544
-135.093
81.6383
82.9454
-175.932
92.9864
-239.207
121.982
117.225
-224.847
-344.848
-641.917
285.522
356.395
392.874
-204.51
-188.364
-56.8286
160.67
-103.842
239.597
-166.189
-73.4089
-44.9865
151.92
-106.934
-293.831
167.758
126.073
-120.491
-33.0336
155.992
-67.7765
278.126
-217.164
-60.9628
-234.486
407.647
-173.16
449.601
-222.644
-226.957
133.906
-85.8108
-48.0955
-163.21
101.174
-64.1587
-31.1367
95.2954
205.889
279.55
-485.439
-370.444
240.809
129.635
227.456
-531.671
304.215
387.318
-236.433
-150.885
117.794
-70.4159
-47.3782
-6.71325
-283.236
-75.0724
180.369
-105.296
-563.089
299.952
263.137
503.721
-503.721
-189.047
108.036
370.43
-377.143
-3.66735
81.6915
-482.562
272.307
-129.122
125.537
3.5856
41.75
-182.74
257.726
-145.126
-106.419
153.828
179.488
-279.843
100.354
105.365
98.3984
-203.763
-102.249
210.809
-108.56
415.209
-131.53
-283.679
-329.191
190.516
428.14
-151.175
-224.355
-69.4755
141.977
177.232
-319.209
-187.408
104.3
83.1088
45.8295
-99.366
53.5364
-171.393
97.35
-247.857
297.841
-49.9834
74.1444
-115.487
-120.404
-70.031
97.1257
184.343
-404.755
220.412
69.5664
65.2683
456.597
-254.259
-202.338
172.154
207.136
-379.29
69.4246
-244.416
498.651
-508.776
10.1248
116.97
-73.0738
-43.8964
101.038
-151.778
50.7403
108.767
-62.9373
-500.322
66.1305
434.192
-170.985
30.0535
140.931
370.282
-315.477
-258.567
409.608
-151.041
-481.798
303.059
178.739
364.149
-244.481
-119.668
-141.924
-213.804
355.729
-161.273
345.13
-183.858
-234.519
132.27
-67.1643
-22.9025
90.0668
111.634
-192.804
81.1694
-60.8488
133.571
-72.7225
308.58
-193.36
-115.22
86.2379
37.1785
-123.416
-130.997
285.065
-154.068
-253.584
167.959
85.6249
111.15
72.8047
102.196
-130.677
28.4809
-173.647
287.023
-92.0171
-187.305
279.322
129.473
13.4643
-142.937
-95.489
165.016
-69.5271
-152.606
95.7779
-330.243
160.956
-179.511
346.532
-167.021
339.875
113.444
177.976
-412.462
272.556
-113.119
-182.282
125.021
57.2609
-3.74717
-181.84
185.587
262.73
-386.352
-57.3738
422.072
-34.9636
-69.2306
185.964
71.7496
-257.714
-142.104
59.1294
82.9743
-368.429
7.26274
198.125
-415.06
216.935
29.2263
-96.3905
-154.593
-16.3916
193.899
-285.916
-432.871
-67.4509
141.731
229.374
-371.105
219.146
145.003
121.122
-57.1664
-63.9559
171.916
102.239
-274.155
-259.983
169.742
90.2412
80.3327
-357.602
277.269
352.976
-214.618
243.222
-147.71
82.912
108.098
-191.01
-132.808
270.631
-137.823
130.06
-60.917
90.893
-181.152
90.259
265.712
-89.4749
-176.237
-170.648
-212.727
383.375
-175.17
-72.6867
-66.2005
-37.0852
103.286
77.305
50.0016
-127.307
320.498
-172.68
-147.818
-218.024
45.2546
-510.119
344.431
165.688
365.79
4.63926
170.026
-290.188
120.162
186.16
-101.375
180.878
91.4382
-272.316
-52.6813
253.916
-105.321
-299.56
404.881
-171.35
388.643
-217.293
-112.593
263.648
-151.055
-172.385
285.665
-113.281
144.61
-99.0809
-45.5289
-143.258
-82.5963
-134.017
81.0332
52.9834
278.12
-159.418
-118.702
-438.081
332.76
-160.445
163.17
-2.72464
-185.27
112.062
73.2085
303.676
-169.045
-168.962
473.041
-304.079
203.223
-89.2232
-113.999
67.7353
88.0475
-155.783
72.3082
61.598
25.6668
229.866
-255.533
96.6567
106.673
-203.329
63.8178
305.896
-369.714
148.562
510.447
-96.302
225.655
95.8884
-321.543
-143.535
301.108
-157.573
135.671
-66.0924
213.416
-117.205
-96.2114
-81.6156
203.261
-121.646
140.786
-253.379
396.475
-224.321
-371.32
369.328
1.9915
144.752
-91.2975
-58.3398
-35.8982
94.2381
489.272
-165.71
-61.8589
186.362
-124.503
-231.936
429.85
-197.914
280.575
170.842
-451.417
68.6644
-176.683
-455.569
247.761
-22.7849
156.729
-324.677
187.242
137.435
3.04747
99.1486
-316.45
-132.177
448.627
267.323
160.816
-74.523
-84.4822
159.005
95.7911
3.0341
-98.8252
-241.949
354.525
-112.576
127.403
-117.798
-9.60469
-171.94
393.941
-222.001
-128.218
133.677
-5.45851
55.5828
125.028
-180.611
142.05
-471.49
-168.945
261.153
-92.208
-98.1107
251.692
-153.582
-133.224
197.485
-64.2611
254.536
-163.144
-91.3916
-274.469
87.1642
237.198
-407.845
-39.6486
214.051
-174.402
-225.648
88.4987
195.697
102.144
381.95
-114.627
85.8426
-138.702
52.8594
353.324
69.9364
-423.26
-196.283
407.182
-210.899
-232.838
-267.158
22.8139
-89.4845
601.532
-379.336
-222.195
-34.1972
129.031
-94.8333
-163.386
67.8967
307.967
-392.599
84.6321
-139.607
195.19
-390.806
381.528
9.27832
331.265
225.12
148.107
156.741
-304.848
-504.936
382.609
122.328
-352.478
426.17
-73.6918
-99.4495
252.558
-153.109
179.063
-67.9121
128.375
180.205
126.137
-295.082
-123.942
271.239
-147.297
382.85
218.682
336.275
-330.39
-5.88567
325.158
-529.572
204.414
341.425
-138.784
-103.091
-405.47
66.5931
-217.963
151.37
80.5587
-155.082
357.361
99.2363
185.09
-82.2121
-102.878
237.826
169.821
134.62
233.645
-368.265
-97.754
378.329
415.357
-194.891
-401.473
10.03
391.443
-291.196
-180.986
472.182
421.618
-291.782
-129.836
489.926
-249.764
-240.162
-71.8207
-91.3891
-59.3998
271.956
-212.557
56.5709
86.7262
-143.297
83.3626
-140.3
56.9379
157.586
160.157
-317.744
-184.734
31.2739
153.46
39.4212
87.9817
412.099
-174.273
374.927
114.344
-268.269
-146.63
414.899
-28.3169
157.79
-176.394
103.709
-161.423
-219.932
381.354
-25.4675
84.716
-37.9223
-146.812
166.349
-457.545
200.192
-31.6242
-57.1927
88.8169
216.642
-55.9719
-89.6719
-43.8775
-262.119
138.177
-103.84
289.804
-324.718
499.957
-175.239
261.308
-422.731
398.943
-198.119
104.092
197.542
-301.634
-143.552
62.5434
81.0089
-367.32
488.64
-121.319
307.402
-227.07
554.823
-227.566
-327.257
115.953
100.689
358.77
-116.984
-241.785
-271.702
434.515
-162.813
141.59
-249.263
107.673
-159.003
33.0289
125.974
-155.785
-78.7336
148.571
-392.086
243.516
10.6692
-118.844
108.175
454.525
-196.768
-257.757
303.199
-478.323
175.124
-227.604
187.955
90.7465
112.476
100.908
-6.53127
-94.3763
253.705
-120.432
249.58
143.294
322.436
-180.962
-141.474
-326.756
217.195
109.561
-488.737
397.124
91.6128
183.698
-100.752
-105.519
188.849
-83.3295
-183.784
-69.8003
350.038
-42.0711
118.043
11.2159
-129.258
-117.915
200.827
-132.583
87.5961
-531.011
359.983
171.029
311.309
-141.283
226.183
161.135
161.508
-397.941
-474.616
238.098
236.518
-249.2
166.295
82.9055
112.701
-44.1719
-68.5289
-219.114
-203.066
422.18
101.843
149.582
-251.424
-407.087
282.472
124.615
-272.113
-134.974
-561.836
373.606
188.23
-285.051
101.268
586.041
-299.835
-286.205
-149.299
-176.331
325.63
-132.013
136.87
-4.85663
-164.999
274.577
-109.578
-254.252
154.803
-415.855
298.972
116.883
108.303
93.0502
-201.353
-370.961
193.772
177.189
-112.886
-128.455
141.297
-105.092
-36.2049
276.112
105.838
573.971
-316.418
-257.553
253.319
-519.759
266.441
55.1641
-116.405
61.241
93.8185
7.08906
-62.8111
144.815
-82.0034
272.977
300.993
71.8958
-172.987
-291.803
158.995
120.344
-39.627
117.533
160.587
347.269
82.5107
107.225
71.8378
37.3969
-186.945
149.548
365.276
-514.259
148.983
-60.9633
326.114
-265.15
-33.7494
117.112
174.779
380.045
-146.587
359.062
-212.475
69.7362
-166.95
97.2141
-341.029
-300.889
-61.5586
-36.8304
98.389
6.4432
-138.456
-107.027
117.696
176.341
-85.448
178.803
-328.102
-137.28
77.2928
59.9868
-351.939
-87.6692
439.609
-338.28
521.849
-183.569
108.239
-370.754
262.516
59.3353
-146.104
86.7684
-115.767
-235.132
294.954
106.288
-401.242
179.123
-112.53
249.764
-142.125
-107.639
555.156
-194.279
-360.877
-371.271
53.2605
318.011
331.636
90.7923
-422.428
-480.539
500.751
-20.2123
-146.218
-76.2346
-95.9483
201.313
142.928
179.508
250.596
-537.824
287.228
377.038
-367.6
461.805
-166.851
553.035
-298.858
-254.177
-224.085
244.796
-20.7105
-52.1524
170.195
-101.75
-253.129
354.879
56.7876
446.934
-68.4153
-84.1911
143.907
-87.3364
324.189
-166.603
128.625
60.2
-188.825
167.079
-226.478
-69.2925
-102.292
171.585
552.678
-552.678
-3.1977
-125.021
280.872
-168.082
-112.789
-310.687
-171.111
-162.964
91.1432
-366.591
-119.048
-77.6512
145.387
200.81
-293.895
188.706
105.189
14.9789
-405.785
129.006
109.92
-238.926
90.1544
120.655
137.021
-53.2261
-67.6935
-303.578
81.7331
-254.162
172.429
-8.26721
-393.206
-298.202
151.615
-132.491
-183.614
316.106
115.192
234.7
-349.892
-328.357
500.853
-172.496
-92.1783
-36.9439
-73.66
105.412
-31.7523
-98.6531
180.87
-82.2169
227.75
169.696
-397.447
318.735
-214.642
405.705
-186.559
-304.332
-200.605
159.933
-274.166
-160.961
90.651
-412.902
308.08
104.822
83.9171
-435.856
91.1905
152.674
-243.864
-221.806
-153.497
375.303
41.0453
-101.894
137.94
-166.257
-119.35
-224.971
344.321
-301.848
240.885
-102.321
-51.2063
153.528
-188.344
110.96
77.3835
358.262
-517.326
159.064
319.978
-214.185
-105.793
157.025
292.575
75.424
86.5104
-161.934
387.189
-161.006
146.879
-514.2
261.12
-179.387
158.901
161.077
-64.6907
-348.211
219.288
-379.096
159.808
408.96
-238.273
-170.687
75.6226
-260.332
184.71
-228.736
-10.1041
238.84
66.5979
-158.78
92.1824
83.3619
-160.859
77.4974
193.586
212.119
-49.0593
144.85
-334.359
418.276
135.782
234.086
-369.868
-105.823
309.62
79.2049
108.131
-187.336
41.7869
-314.661
272.874
-138.891
145.334
278.616
-458.133
179.517
-94.4388
223.064
268.531
-455.229
196.662
-92.9925
1.27541
91.717
39.9925
121.899
-161.891
221.594
232.931
-115.91
195.115
339.831
-28.4215
-311.41
-124.039
444.717
-320.678
101.959
290.82
44.3173
227.639
317.084
134.977
-452.062
327.778
-268.553
-59.2251
-32.2821
-128.163
-208.652
95.6856
-75.0873
-30.9833
106.071
14.058
-89.1452
-317.027
173.492
-75.1961
-179.06
254.256
186.529
133.671
-320.2
-222.592
-47.5415
270.133
-153.625
85.2098
82.0232
-180.676
-84.0495
-318.655
402.704
-81.9827
-142.373
517.706
-239.089
-70.0774
76.3119
51.2798
-127.592
-167.327
83.1811
84.1459
70.0162
-91.004
20.9878
106.137
172.688
-278.825
-186.192
105.14
81.0518
-138.439
319.317
-100.241
-127.654
227.895
-328.251
-209.408
-244.595
126.965
117.63
-229.283
527.005
-297.723
441.219
-292.648
-72.6098
-93.897
166.507
-72.5382
101.764
-183.255
323.632
-140.377
-118.011
270.976
-152.965
163.189
-70.284
-92.905
-251.564
359.803
145.266
-87.4042
-57.8615
-274.057
279.964
-5.90701
-279.203
135.534
195.479
11.2679
-206.746
-198.291
390.471
-192.18
124.005
-60.1181
-63.8867
227.849
-470.04
242.19
-497.834
173.365
164.067
-34.9823
-139.504
0.612922
-189.4
87.0014
102.399
-149.659
368.947
148.319
-78.5825
80.8506
-415.21
-41.0393
-73.0813
114.121
-105.593
-509.239
357.36
151.88
249.324
78.4543
-305.799
-160.737
466.535
-85.5374
298.8
106.124
-140.321
-54.0506
-133.358
-233.426
-244.315
477.741
-198.566
-242.904
441.47
-287.878
277.059
10.819
314.093
-250.275
-295.672
-214.447
340.839
-509.801
102.517
95.0993
-197.617
-383.212
212.517
170.695
157.02
217.907
-76.7797
142.066
-65.2865
-330.359
526.171
-195.813
-190.375
136.728
53.647
-129.852
40.5169
89.3348
53.1873
-126.847
-63.9469
395.583
96.3214
64.7431
-161.064
504.32
-187.236
-111.33
265.639
-318.528
157.255
-287.011
287.011
-152.213
243.403
-548.855
281.607
267.248
-237.38
-98.2228
335.603
186.681
-149.284
-126.934
135.654
-8.72028
-254.321
81.9361
123.378
-483.614
37.3542
79.6161
-138.436
-310.282
448.718
-232.448
368.23
-251.65
151.092
500.854
-245.122
-255.732
-191.241
-37.4953
150.635
-328.139
-568.509
398.518
169.991
-285.762
-156.191
-203.282
37.788
165.494
-55.9863
-111.317
167.303
132.726
120.979
-63.2481
110.348
-47.1001
-0.143594
59.6354
-59.4918
222.847
-221.899
-0.948019
212.82
-337.858
125.038
73.3409
-178.86
-73.0922
-154.512
104.608
-198.708
94.0993
-393.468
-264.802
338.975
-74.1728
83.3368
40.668
-21.9232
-113.724
135.648
-150.638
-200.945
155.946
-386.711
230.764
-173.405
100.795
89.5306
47.7203
-137.251
36.2748
-138.596
-159.214
242.943
-83.7288
157.187
107.758
-264.945
-157.352
-287.19
444.542
171.144
-421.679
250.535
108.92
-159.736
50.8159
-540.73
308.913
231.817
465.411
-323.442
-141.968
-501.517
176.799
-127.722
124.525
-67.3317
-109.062
315.503
-413.257
-344.521
-130.095
-155.428
-138.467
-380.674
155.933
224.74
-215.436
133.453
-46.2589
307.206
-260.947
-89.9641
-240.923
128.037
175.346
105.466
-280.812
258.8
-454.458
195.658
197.644
-101.062
-317.12
102.935
223.381
-96.2426
-327.56
-112.157
439.717
383.609
-227.663
-331.836
336.456
-4.62084
-72.0965
122.449
-50.3526
-380.542
167.814
-312.365
126.506
185.859
131.93
-131.93
-194.961
-256.066
451.027
471.562
-390.712
63.7812
-264.798
3.94702
335.884
332.033
223.123
-242.531
-48.4262
290.957
127.483
6.69039
-134.173
-72.8295
138.712
-65.8821
-183.538
116.281
67.2576
-323.01
-244.947
-167.481
98.1883
116.904
-40.5925
-272.65
-302.356
-144.214
81.4031
132.887
208.157
72.4472
34.5838
-107.031
-45.7371
140.445
-94.7077
379.814
173.22
-172.439
-112.612
-336.283
-172.957
-156.605
-99.9059
256.51
-69.3825
-272.628
342.01
-353.728
195.47
158.259
-91.6108
-103.694
195.305
337.795
-505.077
167.282
209.149
-354.604
145.455
236.312
-415.347
179.035
-78.0989
-53.6282
-237.92
164.828
166.976
-395.17
228.194
-154.252
98.2657
-380.292
196.867
-206.093
363.113
-76.6335
146.308
-69.674
91.6302
-145.398
53.7674
25.7168
-89.8755
-154.053
366.873
483.497
-465.545
-17.9518
-94.6485
153.984
-78.2201
134.577
-56.3571
260.874
-455.835
-59.2325
167.983
-108.75
-149.219
289.159
390.876
-507.237
116.361
234.219
76.7401
-310.959
46.6625
-101.062
54.3993
-36.7062
106.722
59.2161
31.2894
-90.5056
-42.7324
142.526
-99.7934
-10.7891
160.639
-149.85
176.148
-71.5398
387.634
-138.054
-75.8816
280.1
-204.218
-303.722
-48.7565
182.521
-105.052
-77.469
199.361
-307.612
108.25
-239.767
-147.25
387.017
-87.459
179.089
-275.228
163.959
111.269
229.753
-359.307
129.554
-324.155
204.524
119.631
252.017
-132.842
-119.176
-134.777
70.7282
64.0492
184.22
-398.478
-111.547
-72.3864
183.934
-43.8892
-135.78
179.669
103.014
-249.148
146.134
-113.955
210.611
185.632
-98.5133
-87.1188
-55.7108
-112.454
168.165
-36.9997
174.94
-163.721
-117.504
281.225
-304.764
-8.64887
313.412
47.331
-111.439
64.1078
168.527
97.185
116.012
107.369
-82.4716
95.9392
-13.4676
-203.282
-55.642
446.518
-2.9593
118.627
377.229
13.6493
-390.878
389.855
-326.391
-477.311
181.638
62.8086
47.4292
-110.238
-148.388
-33.8945
83.2243
-259.823
176.599
122.066
-386.868
-175.279
-34.6898
268.908
-69.6239
265.102
257.473
160.086
-413.631
215.34
-142.865
66.0855
390.458
-163.002
245.868
-109.881
-135.987
259.005
-328.387
308.599
-186.253
-122.346
179.165
-168.939
-10.2262
118.251
-70.9202
-215.437
-235.485
450.921
-196.164
31.5501
164.614
491.86
-485.217
-6.64317
242.974
-70.9508
-172.023
244.967
247.617
-492.583
274.59
-171.575
-164.159
300.765
-136.606
-159.24
307.347
-134.704
220.042
-85.3371
-189.677
-148.535
72.4529
-155.413
82.9601
106.69
-206.931
352.158
119.405
-239.039
-176.816
-64.5107
-102.816
115.862
-43.4145
-172.342
275.455
-103.113
-67.018
153.779
115.951
-43.4386
-72.5119
-136.361
80.6506
-581.746
368.253
213.493
55.5615
-139.19
83.6287
-178.565
261.79
-65.635
130.713
-65.0782
71.3055
44.645
-143.003
363.74
-220.736
-124.469
-104.004
228.473
-57.8787
-35.985
93.8637
337.609
-145.017
-192.592
246.286
-86.2164
-160.07
-379.851
-308.806
-168.504
-56.4173
-98.4199
154.837
124.55
-314.914
190.364
145.644
-73.1912
-124.293
-3.42902
172.201
-420.735
312.208
-95.0126
-164.304
102.445
-174.407
83.3486
91.0579
338.849
-129.7
159.181
-127.479
-31.7021
-80.4196
-93.9869
68.3463
-134.895
66.5492
103.332
-170.663
115.873
-63.9949
-103.917
167.912
-91.4789
227.642
-136.163
125.355
-42.9191
-82.436
-269.295
-35.4685
120.824
92.5919
-83.4656
10.9274
-97.0864
214.639
-117.552
-97.8782
98.7141
-0.835952
-98.2648
-77.8928
-95.7713
173.664
484.009
-385.949
-98.0604
424.02
-108.518
142.048
-102.056
-425.693
463.886
-38.1925
-178.393
305.262
-126.869
-238.035
301.816
99.3882
86.2439
-69.641
-115.629
-93.0044
272.493
-149.704
301.248
-151.543
41.109
58.8416
-99.9506
-299.629
158.411
141.218
115.9
-60.7363
-83.8215
-71.8079
-221.198
-187.773
408.971
139.685
344.324
-456.584
258.018
239.602
-239.602
-65.0337
79.1908
-14.157
185.361
-108.163
-77.1979
246.001
-540.003
294.002
182.794
154.815
-252.664
356.438
-103.774
123.529
-67.9676
-203.151
129.935
73.2159
156.959
330.238
-487.197
253.886
-121.16
-317.618
162.54
155.078
95.6216
-186.796
91.1749
281.553
158.287
-439.839
-231.671
107.202
93.1657
-164.841
71.6755
136.713
-179.446
-170.253
398.003
-180.041
110.667
69.374
172.863
-105.851
-67.0123
-96.0406
372.702
-276.662
332.257
-165.179
-32.5332
107.418
-74.885
179.921
180.098
-360.019
-207.762
-248.822
-90.7704
349.57
97.8436
-183.801
85.9571
-204.819
399.36
-194.541
160.283
-64.6612
318.655
-219.262
-99.3932
143.541
-57.6981
-219.734
-163.02
86.3868
-620.25
303.832
132.916
493.641
-501.557
7.91582
212.304
188.771
-401.075
113.811
45.37
-370.207
-118.53
151.636
-155.383
16.0627
-303.941
-25.013
-124.011
149.024
158.387
-296.623
138.236
121.695
275.429
-130.851
88.4356
42.4152
46.7086
-182.489
33.7086
-66.9286
33.22
263.329
95.441
262.201
-173.053
-89.1479
147.091
-80.4936
-397.061
275.727
121.334
-260.071
-360.178
186.867
56.1068
145.302
-456.367
311.065
-67.0294
-77.4252
144.455
32.6314
-124.099
91.4673
289.891
210.963
-3.11667
380.346
-78.4655
-69.5162
430.188
-148.635
81.7518
-134.659
52.9072
-464.257
260.822
203.435
-201.748
-245.711
447.458
-366.486
566.485
-199.999
280.959
146.848
-173.84
249.672
-75.8314
-164.615
266.458
351.941
-277.044
-74.8966
-179.28
290.582
-111.302
-184.498
-154.361
-115.35
-166.967
282.316
90.0122
28.938
-118.95
191.736
-83.433
440.473
-378.694
-61.7785
-187.305
116.911
70.3945
85.0621
268.92
-353.982
122.655
-33.1249
347.431
93.041
-68.0364
161.202
-101.322
-29.5285
-225.97
514.179
-288.209
3.67895
191.695
-195.374
226.676
-395.162
168.487
-80.4927
-41.194
121.687
288.777
98.8574
-82.7225
-20.182
102.905
-127.517
108.937
18.5804
-189.853
129.536
60.3178
182.87
384.329
96.2596
-37.0435
-270.715
-126.346
228.479
-443.916
413.734
-509.869
96.1352
68.6259
223.035
-31.8222
-191.213
133.774
-65.428
80.915
-408.475
-77.4939
-88.4705
165.964
99.0856
-7.43139
-91.6542
-111.914
45.714
119.764
134.772
151.738
-329.398
177.661
-91.2281
161.149
-69.9214
152.475
-357.294
361.234
-236.684
341.832
-82.8266
-362.124
-200.965
-287.597
473.925
-186.327
429.26
-324.286
-104.974
-9.31882
-343.07
352.389
-336.656
-176.314
512.97
-149.958
-9.04506
62.9919
-29.2833
-506.13
263.018
243.111
-158.421
-100.273
-69.4977
-65.2797
-48.6555
157.576
-96.7088
174.373
-554.708
382.758
171.951
97.2773
-161.272
-23.7946
88.3966
-64.6019
181.348
-146.378
199.129
-319.541
120.413
322.405
-255.439
-66.9666
87.411
-397.45
310.039
214.93
-98.918
114.607
255.333
-88.8704
-99.4735
108.791
-62.1283
474.775
-299.402
-175.373
-267.287
363.984
-96.6965
-123.304
191.877
282.899
-417.832
31.8674
385.965
-289.952
-192.61
144.816
-224.691
79.875
-129.355
-83.3997
212.755
107.655
210.82
-318.474
38.3809
-266.323
-239.806
-93.9046
-34.7681
128.673
-203.138
326.153
-123.015
481.801
-175.905
413.893
-69.462
-305.553
174.556
94.1569
4.9287
-274.51
-32.4193
306.93
57.3846
-373.834
-408.88
137.177
128.392
-16.7797
-111.613
166.553
-279.902
113.349
-108.882
266.069
-458.716
334.677
-77.7114
-81.0689
497.295
-149.863
-240.445
406.746
-166.301
218.9
-348.82
129.92
470.155
-111.893
59.4255
58.3686
-309.081
135.241
356.706
-206.901
-149.806
-171.08
297.214
-126.134
134.192
347.609
170.373
-270.142
99.769
389.879
-107.407
360.626
129.453
-490.079
329.05
-226.073
-102.977
473.904
-502.831
28.9279
122.604
-73.1156
-49.4886
340.016
-224.824
-11.5807
-81.4117
-80.7981
-182.06
262.858
41.1502
-125.616
84.4657
-151.956
68.1349
-307.186
474.404
-167.218
-87.2816
-49.9979
-194.646
198.325
102.544
51.859
-133.612
81.7528
288.298
4.27592
-292.574
-146.79
93.0382
53.7522
-100.816
454.139
184.005
124.594
-146.351
304.738
-236.84
155.225
335.828
54.0271
-158.089
-159.529
17.0127
226.21
-251.522
79.0829
-141.04
240.888
-99.8482
61.339
-138.99
416.367
-204.064
-371.424
376.96
-5.53536
-133.411
494.037
66.8839
-137.618
70.7336
133.352
-68.3635
-141.594
209.958
-152.421
185.019
-71.2086
64.6045
25.002
-89.6065
59.4766
-129.247
69.7703
-257.953
159.842
-97.712
-69.424
167.136
-267.753
-293.653
126.542
167.111
117.068
-84.4364
55.3898
-113.722
58.3321
59.0911
-188.447
145.248
139.817
-122.16
272.426
-150.266
-142.778
89.293
53.4853
-83.1703
205.568
-122.398
-375.351
212.749
-183.499
363.42
151.633
-270.904
119.271
256.514
163.445
-419.959
-51.8773
-32.3343
84.2116
331.447
97.8129
339.671
-146.986
-192.685
-157.712
406.184
-248.472
165.383
-70.9644
325.725
-254.76
327.681
121.679
-449.36
474.56
339.963
131.094
-471.056
249.325
-457.087
189.417
-25.8387
-163.579
-338.492
183.153
155.339
-129.48
16.7882
112.692
88.803
19.2591
-108.062
-58.2972
-85.2551
12.2951
-383.719
-356.297
213.294
61.428
192.465
-253.893
-377.991
307.027
222.198
123.419
-345.617
-52.834
108.278
-55.4437
-100.546
-152.017
252.564
568.607
-257.454
63.1076
135.78
-141.642
-280.009
421.651
-123.147
169.856
-221.677
385.283
-163.607
-360.965
44.9746
315.991
-178.132
-279.148
457.28
-69.67
-60.1818
-564.255
366.718
197.537
300.477
-181.778
-118.699
-124.185
346.383
-166.941
69.229
111.036
-188.53
157.488
88.3803
-162.297
-490.528
250.992
239.536
-173.872
93.452
-265.989
97.9062
-291.199
-290.547
-58.2372
-243.611
96.0675
-332.306
236.239
-203.335
-172.199
63.0216
109.178
-248.21
-68.91
-114.595
-37.6589
152.254
-49.18
-42.8667
92.0467
-321.031
224.99
27.2098
-93.7209
66.5111
158.126
-189.948
154.012
-365.616
211.604
3.10628
-277.617
-191.54
316.374
-124.834
-241.758
257.821
106.67
-132.829
-89.4313
222.26
403.375
-412.694
114.286
-73.1774
285.326
189.789
-475.115
-81.5511
-92.3205
-78.529
272.428
364.636
-367.752
94.3386
-5.53558
410.115
-126.217
-283.898
106.482
168.564
-275.046
138.96
-56.2849
-118.505
174.79
279.338
-121.521
-157.816
347.733
42.1457
131.4
-90.2494
-501.733
173.376
67.5951
-133.23
-130.395
68.2421
62.1529
-52.2503
168.378
-116.127
-141.941
-76.3207
218.262
23.365
-98.1938
74.8288
-123.395
42.9022
178.38
-185.991
7.61138
232.078
-281.613
49.5348
-218.341
76.3996
-87.4249
-76.1219
-50.924
-71.6987
122.623
142.569
189.053
201.418
-225.475
179.216
178.075
-139.911
-38.1636
-379.776
271.596
108.18
237.359
-84.6854
336.125
161.17
335.049
103.195
-438.244
-130.133
-139.025
-537.846
251.054
286.792
225.635
-312.803
87.1679
141.756
120.445
-95.0322
62.499
-42.7678
99.377
-56.6092
-272.852
-220.849
493.7
-417.764
441.439
-23.675
-267.358
103.18
-127.005
-457.967
-21.0657
479.033
210.162
244.681
-454.843
-123.848
-188.517
-150.053
-149.576
92.7849
-28.1804
-337.431
135.684
-32.7205
174.311
-129.213
-275.48
175.808
99.6721
83.2719
66.3912
-131.622
-143.624
275.246
142.855
-90.9955
416.416
-294.446
-121.97
-139.969
358.869
-209.234
-53.4722
457.151
24.1319
-114.33
-75.0578
189.388
454.658
-0.194388
-454.463
-93.3806
329.576
-236.195
116.357
82.5095
-198.866
-375.165
223.82
151.345
-130.146
-106.739
-168.74
140.372
-73.4884
-108.362
290.431
-182.069
137.537
143.2
-280.737
-150.225
-52.9265
-246.177
-178.193
424.369
117.36
476.438
-332.68
-143.758
-153.686
146.729
-93.0771
-53.652
32.5564
-89.7491
202.148
-271.772
294.378
-352.615
-405.185
347.811
193.495
-317.343
230.602
181.497
441.293
-204.981
-240.142
164.26
93.9012
82.4399
-91.6682
114.683
-166.933
-270.826
290.348
-19.522
-277.365
-20.8369
77.9284
-139.949
62.0202
116.462
286.163
-159.621
248.564
-140.716
-107.848
-81.3015
142.64
-270.454
120.332
-188.696
311.023
-62.5735
-248.449
-260.896
471.058
484.817
-148.692
-370.068
267.16
102.908
-22.2851
476.943
-222.516
420.641
-86.0437
-203.111
289.155
105.093
-263.042
157.949
11.1991
291.86
-334.611
-247.386
581.997
147.952
-348.211
200.259
-292.773
392.808
-100.034
-111.681
451.644
352.251
-126.597
175.653
-89.5811
369.582
-280.001
-80.4428
-66.3476
-248.424
155.555
92.8686
176.011
150.142
67.3272
-59.7483
-279.794
339.542
-386.129
-78.9873
-135.402
-197.458
-338.102
229.74
-412.872
412.872
177.832
-339.028
161.196
179.052
-340.808
161.756
231.568
79.4543
53.7416
36.4505
-90.1921
218.005
-371.502
287.698
-465.83
240.993
-37.7318
144.273
159.402
72.7438
197.879
-270.623
124.474
-69.6565
-54.8174
-71.8672
-293.422
365.289
117.463
-187.874
70.4115
-78.0566
190.723
-112.666
331.904
4.37108
-77.3006
80.3347
-276.248
321.588
-45.3397
41.0491
148.368
91.0277
18.5268
-109.554
-317.668
-43.2971
36.0564
-169.28
-193.056
-130.185
323.241