/*--------------------------------*- C++ -*----------------------------------*\
  =========                 |
  \\      /  F ield         | OpenFOAM: The Open Source CFD Toolbox
   \\    /   O peration     | Website:  https://openfoam.org
    \\  /    A nd           | Version:  7
     \\/     M anipulation  |
\*---------------------------------------------------------------------------*/
FoamFile
{
    version     2.0;
    format      ascii;
    class       surfaceScalarField;
    location    "29";
    object      phi;
}
// * * * * * * * * * * * * * * * * * * * * * * * * * * * * * * * * * * * * * //

dimensions      [0 3 -1 0 0 0 0];

internalField   nonuniform List<scalar> 
172499
(
201.214
58.0525
-259.267
-473.773
102
371.774
-111.435
-76.8788
188.314
112.661
-278.162
165.501
-436.065
323.571
112.494
138.343
-337.094
198.752
-144.705
287.067
-142.362
-81.1433
195.883
-114.739
-363.39
351.896
11.4942
-465.117
-8.65604
-229.963
354.465
-124.502
495.013
-360.235
-134.778
-169.346
341.059
-171.713
88.1609
-88.9877
0.826798
-44.0382
-319.352
-105.018
59.73
45.2882
-456.099
86.5147
369.584
-411.555
77.0301
334.525
-115.393
286.096
-170.703
-331.896
-104.169
-72.8207
183.931
-111.11
198.934
-196.878
-2.05656
392.785
-290.221
-102.564
159.522
-312.967
153.446
-228.085
201.014
27.0711
-117.533
228.012
-110.479
68.8757
72.8587
-141.734
-207.741
463.016
-255.275
-263.246
-175.899
439.145
-49.123
100.79
-51.6667
427.81
-342.015
-85.7947
-248.159
-67.3114
315.47
-267.083
406.187
-139.105
-101.102
-75.7369
176.839
-71.2619
-99.6565
170.918
182.211
95.3268
-277.538
-225.429
96.6666
128.763
-99.705
-356.394
115.573
-147.821
32.2477
123.045
198.543
-321.587
157.504
-405.663
-57.6111
-353.944
-131.322
-35.0053
166.327
-118.904
301.115
-37.3189
101.489
-64.1706
-2.19904
90.3599
263.837
66.2023
-330.04
544.016
-303.776
-240.241
397.915
-148.605
-249.309
414.142
-534.092
119.95
-390.722
478.202
-87.4803
279.683
-101.67
-178.013
-473.185
331.32
141.865
-504.397
451.001
53.3961
-119.358
-165.879
285.237
-318.229
-154.956
555.93
-366.397
-189.533
-131.935
82.2155
49.719
86.4194
77.1994
-163.619
127.319
-229.482
102.163
-515.34
327.48
187.86
-186.323
330.7
-144.377
345.948
-129.381
-216.567
-104.196
185.232
-81.036
295.878
87.1832
-383.061
9.43574
-401.308
391.872
-351.603
197.395
154.208
-219.816
400.336
-180.52
80.5216
-146.505
65.983
-537.187
255.384
281.804
-106.515
202.603
-96.0878
202.796
-154.885
-47.9107
372.046
-249.002
-133.84
67.5874
66.2529
-97.5271
-90.749
188.276
79.9568
-163.769
83.8117
-208.943
49.8457
159.097
202.615
-402.969
200.353
-247.891
-141.38
389.271
-296.493
220.276
76.2175
-78.9394
-217.554
429.781
-432.779
2.99861
37.4005
-84.6178
47.2172
-306.658
558.563
-251.905
-137.178
240.697
-103.519
342.478
152.535
-108.232
177.333
-69.101
-324.469
472.877
-148.407
105.379
-117.307
11.9278
-86.7001
441.524
-354.824
135.68
-5.19958
-130.481
202.372
-20.5328
-181.839
206.542
-469.788
221.189
50.2379
-271.427
-420.535
315.152
105.383
-574.996
416.901
158.095
261.949
-321.786
59.8367
93.9255
-56.525
87.8157
-164.693
76.8773
0.643672
104.736
-314.493
-200.847
200.566
-435.565
234.999
328.044
-177.631
-150.413
-485.59
499.505
-13.9153
108.826
-215.341
170.58
-95.6855
-74.8942
-502.518
318.888
183.629
-40.7701
102.779
-62.0089
-141.247
225.154
-83.9063
-311.344
-71.1253
382.47
-123.725
235.374
-111.649
-54.6579
316.607
-177.503
-31.4396
133.476
107.523
-240.999
-104.837
46.4018
58.4352
203.952
-345.368
141.415
-307.564
77.6008
-97.0238
222.648
-125.624
363.999
-541.57
177.571
51.0018
151.794
-215.139
118.115
-65.1166
-39.9015
-222.578
115.273
107.305
47.04
-172.881
125.841
-230.663
532.609
-301.946
-112.776
63.6526
-264.65
78.3269
-113.876
76.8594
37.0167
-181.016
-41.6892
222.705
-508.108
510.869
-2.76115
-109.523
237.184
-127.661
567.193
-287.776
-279.418
-172.792
188.679
-15.8876
538.973
-196.495
-329.44
480.849
-151.409
-114.085
227.072
-112.986
-258.713
174.456
84.2569
63.2901
-330.373
147.886
-267.243
182.748
147.952
84.2089
55.3663
-139.575
-191.77
341.145
-149.376
502.988
-504.546
1.55831
381.992
-197.055
-184.937
-268.539
159.016
141.961
-532.683
438.516
-332.597
-105.92
-115.24
-149.411
-453.753
233.937
-226.622
-167.703
394.325
106.91
63.6699
55.7757
-93.0946
7.97099
194.401
-567.957
273.279
294.678
133.065
146.617
-360.925
427.742
-66.8178
-412.189
100.845
-67.8048
222.472
-154.668
132.362
-132.544
0.182104
-153.263
114.149
39.1139
149.861
-69.9044
137.42
301.096
158.335
187.614
-190.147
146.986
43.1606
263.479
-143.01
-120.47
139.938
173.347
-313.285
446.41
-260.605
-185.805
-61.6883
-104.854
166.542
-191.697
123.892
-240.971
123.145
117.826
-241.405
155.64
85.7652
-102.531
366.368
-98.0406
-28.2918
126.332
26.6945
59.6427
-86.3372
-73.6029
-81.6409
155.244
220.236
-437.837
217.601
-70.428
97.1224
193.555
85.8808
-279.435
113.59
-333.374
219.784
277.019
120.896
-289.678
-131.197
420.875
-193.791
96.2643
152.966
-262.059
109.093
-209.655
417.031
-207.376
-275.273
-227.245
-162.59
384.867
-222.277
95.4881
-261.741
166.253
311.191
188.809
-138.247
326.795
-188.549
127.682
7.99851
-106.147
299.701
-338.849
188.704
150.145
453.299
-165.308
-287.99
-202.055
116.498
85.5571
-234.796
117.263
68.7378
-131.578
62.8401
21.4277
-91.8557
-172.561
163.439
9.12256
55.3028
-146.173
90.8703
84.4017
137.219
-221.621
-569.426
390.63
178.796
-184.106
360.888
-176.782
364.339
56.3882
-420.727
481.283
-479.309
-1.97363
-338.269
169.039
169.23
135.018
-89.841
-45.1771
369.947
-271.309
-98.6377
-87.3045
383.182
-213.987
-196.712
410.7
96.8543
-209.872
113.018
-67.0892
88.5169
53.67
265.218
18.1776
-246.263
-384.205
297.505
-163.892
-63.2044
227.096
-84.4758
-117.579
-100.323
254.907
-154.584
-183.133
-137.649
320.782
78.3643
-80.5634
-123.618
-261.403
385.021
129.46
9.73403
-139.195
134.187
0.00596762
-134.193
134.765
-329.371
194.606
-75.1995
138.465
-63.2657
-73.5437
-430.854
-175.767
13.3015
162.465
-200.745
-80.519
281.264
184.149
-68.5482
-115.601
138.282
-69.5447
-350.472
102.422
248.05
0.437485
-413.873
413.435
69.351
-117.599
48.2477
52.4836
-134.295
81.811
83.215
-176.04
92.8245
-238.656
121.972
116.684
-225.006
-344.421
-641.906
285.517
356.389
392.82
-204.59
-188.231
-56.4637
160.565
-104.101
239.633
-166.215
-73.4177
-44.8164
151.327
-106.511
-293.617
167.344
126.273
-119.839
-33.4244
155.319
-67.5037
278.148
-217.182
-60.9665
-234.526
407.643
-173.117
448.973
-222.201
-226.772
134.095
-85.9476
-48.1477
-163.125
101.437
-64.0848
-31.505
95.5898
205.299
280.129
-485.428
-370.464
240.838
129.626
227.279
-531.355
304.075
387.323
-236.481
-150.842
118.018
-71.1669
-46.8507
-6.57935
-283.099
-74.8193
179.626
-104.806
-562.719
299.769
262.95
503.715
-503.715
-188.522
107.379
370.323
-376.902
-3.70213
82.0665
-481.907
272.252
-129.002
125.38
3.62239
41.5014
-182.749
257.774
-145.113
-106.042
153.082
179.504
-279.864
100.36
105.056
97.9061
-202.962
-101.802
209.954
-108.152
415.21
-131.53
-283.68
-328.731
190.484
428.115
-151.096
-223.914
-69.7029
141.937
177.284
-319.221
-187.595
104.288
83.3072
45.531
-99.4068
53.8758
-171.225
97.6223
-247.947
297.842
-49.8947
74.5417
-115.312
-120.616
-69.5311
97.1329
184.368
-404.759
220.391
69.5507
65.4674
456.593
-254.269
-202.324
172.222
206.947
-379.169
68.4461
-244.213
498.324
-508.427
10.1024
116.923
-72.5452
-44.3775
100.898
-151.523
50.6259
108.811
-63.2804
-500.322
66.13
434.193
-170.14
29.8464
140.294
369.758
-316.088
-258.574
409.609
-151.035
-481.48
302.966
178.514
364.172
-244.483
-119.689
-141.402
-213.727
355.128
-161.334
345.135
-183.801
-233.554
131.752
-67.5633
-22.9017
90.4649
111.264
-192.757
81.4939
-60.8755
133.464
-72.5881
308.659
-193.341
-115.318
85.9762
37.5588
-123.535
-130.47
284.192
-153.722
-253.29
167.471
85.8193
111.34
72.8095
101.879
-130.377
28.4989
-173.41
287
-92.0078
-187.345
279.353
128.204
14.2474
-142.451
-95.9755
164.471
-68.4951
-152.537
96.0736
-330.262
160.916
-179.633
346.504
-166.871
339.445
113.853
177.933
-412.459
272.613
-113.092
-181.423
124.481
56.9419
-3.87426
-181.216
185.09
262.735
-386.354
-57.4745
421.814
-34.8963
-69.9407
185.179
71.7191
-256.898
-142.29
59.2413
83.0488
-368.306
7.38141
197.636
-414.412
216.775
29.2716
-96.8349
-153.884
-16.256
193.941
-285.949
-432.872
-67.4504
141.719
229.389
-371.108
219.143
145.029
121.741
-57.3481
-64.393
171.988
102.195
-274.184
-259.076
169.198
89.8778
80.3335
-357.603
277.27
352.981
-214.638
243.248
-147.76
83.0858
108.059
-191.145
-132.666
270.063
-137.398
129.637
-60.7612
91.0302
-181.297
90.267
265.778
-89.4204
-176.358
-170.586
-212.758
383.345
-175.124
-72.823
-66.8847
-36.5235
103.408
77.5945
49.8802
-127.475
320.506
-172.788
-147.719
-217.128
44.3368
-509.906
344.772
165.134
365.549
4.77374
170.079
-290.225
120.146
185.96
-101.559
181.065
91.1535
-272.219
-52.2227
253.437
-105.321
-299.56
404.881
-171.331
388.645
-217.314
-112.692
263.297
-150.604
-172.415
284.918
-112.503
144.718
-98.8307
-45.8871
-143.937
-81.4925
-134.686
81.235
53.4512
277.058
-158.841
-118.217
-438.081
332.76
-160.537
163.265
-2.72799
-185.388
111.968
73.4197
303.708
-168.943
-168.961
473.041
-304.079
202.362
-89.0332
-113.329
67.0851
88.1416
-155.227
72.4238
61.6715
25.668
229.872
-255.54
96.1522
106.364
-202.516
63.6987
305.898
-369.596
148.411
510.443
-96.3012
225.686
95.8701
-321.557
-143.069
300.574
-157.505
135.763
-66.412
213.421
-117.445
-95.9757
-81.4077
203.191
-121.783
140.38
-253.072
396.338
-224.116
-371.322
369.33
1.99146
144.054
-91.5703
-58.2851
-36.26
94.5451
489.21
-165.638
-62.1362
185.995
-123.859
-231.388
429.23
-197.842
279.464
171.623
-451.087
68.6054
-176.837
-455.288
247.547
-22.646
156.833
-324.701
187.28
137.421
2.97038
98.9081
-316.458
-132.155
448.613
267.372
160.742
-74.6871
-84.4485
159.136
96.0328
2.89018
-98.923
-241.989
354.548
-112.559
126.747
-117.801
-8.94599
-170.39
393.295
-222.905
-128.001
133.382
-5.38091
55.5552
124.498
-180.053
142.05
-471.489
-169.102
261.205
-92.1025
-97.913
251.046
-153.133
-133.263
197.54
-64.2772
254.535
-162.96
-91.5752
-274.499
87.1541
237.229
-407.815
-39.6022
214.056
-174.453
-225.683
88.5048
195.804
102.037
381.918
-114.546
85.0973
-137.949
52.8518
353.323
69.9357
-423.259
-196.327
407.031
-210.704
-232.838
-267.158
22.8075
-89.8967
601.527
-379.33
-222.196
-35.2148
129.223
-94.0079
-162.787
66.8112
307.046
-392.219
85.1732
-139.006
194.561
-391.22
381.118
10.1021
330.974
224.956
148.07
156.798
-304.868
-504.893
382.597
122.297
-352.487
426.171
-73.6837
-99.4405
252.596
-153.156
179.246
-67.9056
128.477
180.181
126.058
-295.16
-124.091
270.91
-146.819
382.844
218.683
336.277
-330.393
-5.88399
325.157
-529.568
204.411
341.437
-138.821
-103.006
-405.102
66.1297
-217.557
151.427
80.5555
-155.243
357.368
99.2249
184.323
-82.0298
-102.293
237.859
169.783
134.619
233.648
-368.267
-98.585
378.049
414.915
-194.679
-402.373
11.0167
391.357
-291.196
-180.985
472.181
421.613
-291.786
-129.826
489.887
-249.717
-240.17
-71.4684
-91.6567
-59.478
272.042
-212.564
56.8436
86.0385
-142.882
83.4728
-140.498
57.0254
157.719
159.276
-316.996
-184.796
31.2834
153.512
38.5048
88.242
412.094
-174.235
374.93
114.28
-267.07
-148.081
415.151
-29.0346
157.239
-175.925
103.104
-161.366
-219.934
381.301
-25.4418
85.0845
-37.9326
-146.863
166.348
-457.544
200.011
-31.9912
-57.1268
89.118
216.803
-56.2379
-89.8486
-43.9917
-261.712
137.62
-103.714
288.893
-324.718
499.957
-175.239
261.312
-422.678
398.593
-198.027
104.088
197.121
-301.209
-143.384
63.2263
80.1572
-367.32
488.64
-121.32
307.403
-227.07
554.784
-227.552
-327.232
115.812
100.991
358.773
-116.973
-241.8
-271.711
434.517
-162.806
141.072
-248.382
107.31
-159.3
32.9259
126.374
-155.177
-78.3768
149.88
-392.775
242.895
10.7125
-118.961
108.249
454.463
-196.379
-258.084
303.246
-478.036
174.79
-227.611
188.009
90.6135
111.749
101.118
-6.38329
-94.7348
253.729
-120.253
249.633
143.187
322.485
-180.933
-141.552
-326.776
217.22
109.556
-488.47
397.801
90.6694
183.799
-100.584
-106.262
188.779
-82.5165
-183.231
-70.0585
349.681
-42.6347
118.204
11.1481
-129.352
-117.874
200.959
-132.077
87.2607
-530.687
360.087
170.599
311.342
-141.263
226.223
161.1
161.47
-397.952
-474.617
238.098
236.518
-248.931
165.813
83.1186
112.657
-43.7996
-68.8574
-219.104
-203.071
422.176
101.682
149.115
-250.797
-407.088
282.482
124.606
-272.123
-134.965
-561.789
373.58
188.209
-284.677
101.446
586.024
-299.826
-286.198
-149.185
-176.434
325.619
-132.119
137.006
-4.88734
-165.083
274.618
-109.535
-254.293
154.852
-415.578
299.501
116.077
107.798
92.7711
-200.569
-370.82
193.855
176.965
-112.779
-128.627
141.467
-104.99
-36.4778
276.145
105.774
573.97
-316.417
-257.553
253.319
-519.759
266.441
55.3313
-116.644
61.3129
94.1526
6.96551
-62.7054
144.975
-82.2699
272.977
300.994
71.9937
-173.096
-291.172
158.506
120.148
-39.6261
117.097
159.961
347.269
82.5113
107.407
71.8382
37.7655
-187.005
149.239
365.274
-514.256
148.982
-60.958
326.113
-265.155
-33.8001
117.273
174.764
380.021
-146.654
359.058
-212.403
69.0175
-166.436
97.4185
-341.022
-300.884
-62.0076
-36.5696
98.5772
6.48154
-138.601
-107.099
117.812
176.477
-85.4463
178.893
-328.078
-137.52
77.5976
59.9226
-351.927
-87.676
439.603
-338.28
521.849
-183.568
108.303
-370.725
262.422
58.2569
-145.431
87.1737
-115.234
-235.238
294.516
106.795
-401.311
178.72
-112.591
249.845
-142.056
-107.789
555.214
-194.198
-361.017
-370.982
53.0995
317.883
331.638
90.7848
-422.423
-480.147
500.329
-20.1818
-146.208
-76.3692
-95.4853
200.542
142.882
179.603
250.365
-537.325
286.96
377.022
-367.587
461.803
-167.287
553.023
-298.851
-254.172
-224.077
244.871
-20.7946
-52.1172
170.321
-100.466
-253.734
354.2
56.7865
446.929
-68.0677
-84.4696
143.549
-86.7057
323.496
-165.776
128.95
59.81
-188.76
167.048
-226.526
-69.0186
-101.845
170.863
552.676
-552.676
-3.2466
-124.754
280.921
-168.169
-112.752
-310.374
-171.106
-162.872
91.4034
-366.55
-119.04
-77.66
144.745
201.656
-293.83
187.902
105.928
14.1847
-405.405
129.28
108.869
-238.149
89.7702
120.184
136.559
-52.3501
-67.5362
-303.446
80.3193
-253.073
172.754
-9.31555
-393.058
-298.219
151.564
-132.453
-183.665
316.118
114.889
234.683
-349.572
-328.357
500.852
-172.495
-92.0727
-36.9298
-73.4971
105.228
-31.7308
-98.8467
181.002
-82.1551
227.77
169.655
-397.424
318.286
-214.198
405.728
-186.585
-304.332
-200.561
158.498
-273.891
-161.381
90.1194
-412.905
308.082
104.823
83.9237
-435.851
91.0201
152.14
-243.16
-221.844
-153.458
375.302
40.9665
-101.842
136.507
-165.541
-118.593
-225.062
343.655
-301.847
240.889
-101.918
-51.509
153.427
-188.316
110.591
77.7246
358.254
-517.313
159.059
319.786
-213.831
-105.955
156.902
292.07
76.2664
85.9152
-162.182
387.193
-160.97
146.879
-514.2
260.207
-179.888
158.546
161.24
-64.691
-348.214
218.892
-378.621
159.728
408.832
-238.057
-170.775
75.5719
-260.347
184.776
-228.758
-10.1056
238.863
66.5099
-158.626
92.1162
83.4651
-160.975
77.5094
193.581
212.147
-48.9798
145.013
-334.347
418.271
135.781
234.088
-369.87
-105.663
309.616
78.787
107.758
-186.545
41.7862
-314.664
272.878
-138.998
145.479
278.622
-458.117
179.495
-94.0785
223.028
269.291
-455.231
196.656
-93.4934
1.11576
92.3776
39.601
121.739
-161.34
221.081
233.382
-115.511
194.298
339.842
-28.426
-311.416
-124.037
444.717
-320.68
101.956
290.829
44.3799
227.662
317
134.86
-451.86
327.825
-268.493
-59.3329
-32.2969
-128.24
-208.616
94.5307
-75.503
-30.9261
106.429
13.9481
-89.4511
-316.502
173.432
-75.1458
-178.491
253.637
187.528
132.311
-319.839
-222.592
-47.5473
270.139
-153.557
85.4894
81.9681
-180.815
-84.044
-318.655
402.699
-81.4473
-142.467
517.689
-239.067
-70.2106
75.8143
51.6818
-127.496
-167.763
82.9411
84.8217
70.4455
-91.1739
20.7283
106.116
172.724
-278.84
-186.354
105.339
81.015
-138.149
319.214
-99.8161
-127.321
227.137
-327.984
-209.203
-244.408
127.164
117.245
-229.282
527.005
-297.723
441.638
-291.759
-72.5877
-93.9956
166.583
-72.9405
102.212
-183.343
323.607
-140.264
-118.084
270.627
-152.543
163.16
-69.9555
-93.2048
-251.462
359.765
144.804
-87.0765
-57.7278
-274.068
279.975
-5.90755
-278.842
134.137
195.637
11.0659
-206.703
-198.136
389.882
-191.746
124.273
-60.2879
-63.9852
227.727
-469.698
241.971
-497.835
173.365
164.182
-34.7213
-139.646
0.64813
-189.511
87.2739
102.237
-149.582
368.475
147.767
-78.7495
80.8567
-415.204
-41.2759
-72.2503
113.526
-105.587
-509.239
357.361
151.878
249.26
78.5659
-305.787
-160.743
466.53
-85.1149
298.8
105.216
-140.431
-54.2177
-133.378
-233.302
-244.102
477.403
-198.504
-242.91
441.414
-287.41
276.264
11.1459
313.992
-250.293
-296.083
-213.822
340.839
-509.801
101.957
95.3018
-197.259
-383.223
212.468
170.755
157.085
217.845
-76.991
142.235
-65.244
-330.359
526.171
-195.812
-189.504
136.14
53.3642
-130.118
41.162
88.9564
53.0845
-126.582
-63.9395
395.578
95.8253
64.5418
-160.367
504.081
-187.081
-112.36
265.326
-318.546
157.212
-287.015
287.015
-151.692
242.712
-548.851
281.603
267.249
-237.578
-97.7518
335.33
186.737
-148.971
-126.765
135.109
-8.34475
-253.655
81.24
123.375
-483.61
38.0029
78.9198
-138.333
-310.464
448.797
-232.451
368.232
-250.976
150.653
500.776
-244.918
-255.858
-191.26
-37.4976
150.485
-328.116
-568.5
398.512
169.988
-285.664
-156.313
-203.335
37.7992
165.536
-54.8414
-111.84
166.682
132.943
120.786
-63.968
110.658
-46.6905
-0.23193
60.2007
-59.9688
222.874
-221.926
-0.94875
212.826
-337.857
125.031
72.2854
-178.548
-73.0444
-154.567
104.71
-198.852
94.1417
-393.463
-264.777
338.178
-73.4012
83.4828
40.7903
-21.3619
-114.466
135.828
-150.596
-201.007
155.926
-386.706
230.779
-173.493
100.905
89.3241
47.702
-137.026
36.6039
-138.522
-158.691
242.074
-83.3833
156.713
107.743
-264.455
-156.972
-287.232
444.205
171.143
-421.682
250.539
108.496
-159.105
50.6089
-540.73
308.914
231.816
465.379
-323.44
-141.94
-501.517
176.799
-127.446
124.199
-67.4879
-108.437
314.488
-413.073
-344.521
-130.095
-156.133
-137.697
-380.681
155.935
224.746
-215.041
133.593
-46.2648
307.217
-260.952
-90.2763
-241.011
128.232
175.022
104.864
-279.886
258.802
-454.461
195.659
197.387
-100.532
-316.992
103.161
223.481
-96.1621
-327.561
-112.155
439.717
383.605
-227.679
-331.839
336.46
-4.62102
-71.9062
122.587
-50.6808
-380.51
167.751
-312.378
126.503
185.876
132.116
-132.116
-194.955
-256.069
451.024
471.561
-390.704
63.972
-264.717
3.95129
335.891
332.323
222.891
-242.156
-48.2423
290.398
127.386
6.60129
-133.987
-72.9147
138.865
-65.9504
-183.22
115.631
67.5898
-323.01
-244.947
-166.776
97.7571
116.879
-41.065
-272.646
-302.35
-144.375
81.6692
132.842
208.217
72.6723
34.5216
-107.194
-45.5562
139.81
-94.2538
379.807
173.216
-171.922
-112.756
-336.284
-172.955
-156.565
-99.9935
256.559
-69.3817
-272.634
342.016
-352.938
194.155
158.783
-91.6235
-103.742
195.365
337.798
-505.074
167.277
209.152
-354.607
145.455
235.978
-414.972
178.993
-78.4263
-53.5082
-237.93
164.886
166.954
-395.164
228.21
-153.461
98.62
-380.228
196.122
-206.019
363.104
-76.5648
145.592
-69.0272
91.3476
-144.726
53.3782
26.0607
-90.1455
-154.046
366.872
483.497
-465.545
-17.9518
-95.1228
153.38
-78.2395
134.781
-56.5415
260.876
-455.832
-58.759
167.083
-108.324
-149.232
289.169
390.876
-507.237
116.361
233.512
76.658
-310.17
47.2616
-101.163
53.901
-36.4894
106.935
59.172
31.6639
-90.836
-42.4764
142.446
-99.9693
-10.7898
160.681
-149.891
176.27
-71.5598
387.562
-137.928
-74.9401
279.227
-204.286
-303.722
-48.7656
182.497
-104.701
-77.7962
198.868
-306.732
107.864
-239.777
-147.242
387.019
-86.9371
178.285
-274.968
163.517
111.451
229.891
-358.694
128.804
-324.165
204.385
119.78
252.054
-133.015
-119.039
-134.718
70.3347
64.3835
184.089
-398.077
-110.95
-72.6207
183.57
-44.0977
-135.686
179.784
101.777
-248.246
146.47
-113.631
209.783
185.727
-98.5455
-87.1814
-56.1485
-112.063
168.211
-37.6513
174.158
-163.733
-117.506
281.239
-304.768
-8.64915
313.418
47.7445
-111.071
63.3268
168.646
97.1322
116.186
107.295
-83.1428
96.2635
-13.1207
-203.335
-55.6419
446.518
-2.93055
118.504
377.249
13.5833
-390.832
389.642
-326.352
-477.198
181.115
62.0007
47.6324
-109.633
-147.724
-33.6994
83.2006
-259.837
176.636
121.269
-386.046
-175.42
-34.7045
268.217
-69.4247
265.061
257.442
159.59
-413.018
214.882
-143.053
66.0617
390.216
-162.937
244.935
-108.808
-136.127
259.011
-328.393
307.631
-185.827
-121.804
179.426
-169.029
-10.3971
117.834
-70.0892
-215.416
-235.494
450.911
-195.69
31.8333
163.856
491.985
-485.342
-6.64313
242.349
-70.5255
-171.823
244.815
247.401
-492.216
273.826
-172.049
-164.247
300.805
-136.558
-159.293
307.363
-134.749
220.09
-85.3407
-189.684
-148.585
72.2256
-154.681
82.4553
106.41
-206.226
352.151
119.409
-239.236
-176.342
-64.1895
-103.573
116.032
-43.3594
-172.36
275.476
-103.116
-66.6201
153.04
116.198
-43.5433
-72.6548
-136.477
80.3284
-581.699
369.056
212.644
56.3252
-138.906
82.5808
-178.602
261.803
-65.8141
130.91
-65.0958
71.4456
44.7525
-142.974
363.744
-220.77
-124.35
-103.338
227.688
-57.8411
-36.3517
94.1928
337.651
-145.047
-192.603
245.395
-85.7148
-159.68
-379.847
-309.246
-167.952
-56.1983
-98.0318
154.23
123.884
-314.18
190.296
145.001
-72.7751
-123.977
-3.46892
173.1
-420.991
312.226
-95.0058
-164.04
101.904
-173.661
83.1529
90.5081
338.851
-129.699
159.325
-127.612
-31.7134
-80.2201
-93.4408
67.73
-134.131
66.4007
102.685
-170.173
115.838
-64.0242
-103.977
168.001
-91.1609
226.883
-135.722
124.498
-42.3582
-82.14
-269.3
-35.4687
121.07
92.3515
-83.8479
10.9074
-97.5061
214.22
-116.714
-97.7385
98.8908
-1.15234
-98.4969
-77.9197
-95.809
173.729
483.97
-385.936
-98.034
423.754
-109.266
141.495
-101.894
-425.693
463.886
-38.1926
-178.441
305.291
-126.85
-237.765
301.737
99.4188
86.3081
-69.8474
-115.54
-93.0083
272.513
-149.053
300.315
-151.262
41.1079
58.6972
-99.8051
-298.887
158.153
140.734
116.129
-60.7975
-83.684
-71.2011
-220.897
-187.671
408.568
139.65
344.32
-456.521
258.017
239.641
-239.641
-65.7501
79.5184
-13.7683
185.323
-107.794
-77.5289
246.001
-540.003
294.002
182.831
154.82
-252.67
356.444
-103.774
123.505
-67.1798
-203.28
129.971
73.3094
156.959
330.238
-487.197
253.932
-120.99
-317.599
162.408
155.191
94.9482
-186.116
91.1678
281.614
157.901
-439.515
-230.863
106.513
92.7595
-164.146
71.3864
136.941
-179.418
-170.212
397.982
-180.269
110.209
70.0597
173.05
-105.852
-67.198
-95.6966
372.177
-276.48
332.32
-165.272
-33.1116
107.196
-74.0846
179.991
179.861
-359.851
-207.698
-248.823
-90.7711
349.573
97.9095
-183.89
85.9805
-204.833
399.366
-194.534
159.66
-64.7118
318.667
-219.277
-99.3897
142.718
-57.6206
-219.752
-162.175
85.6098
-620.249
303.832
132.901
493.64
-501.556
7.91595
211.795
188.932
-400.727
113.933
45.3924
-370.902
-117.568
151.115
-154.989
15.6951
-303.105
-24.9659
-123.657
148.623
158.521
-296.562
138.041
122.912
274.889
-131.11
88.3964
42.7133
46.9117
-182.598
34.1648
-67.5616
33.3969
263.339
95.4346
262.259
-173.165
-89.094
146.893
-80.3828
-396.594
275.504
121.091
-260.071
-360.178
186.641
55.7079
145.211
-456.252
311.041
-66.4096
-77.7098
144.119
32.7949
-124.297
91.5021
289.617
211.158
-3.0524
380.301
-78.3842
-69.4367
429.837
-148.223
81.1282
-133.925
52.797
-464.194
260.742
203.453
-201.753
-245.677
447.43
-366.486
566.485
-199.999
280.961
146.848
-173.838
249.689
-75.8512
-164.129
265.811
351.948
-277.05
-74.8977
-179.345
290.612
-111.266
-184.604
-154.245
-113.943
-168.054
281.997
89.2865
29.6602
-118.947
190.965
-83.1672
440.469
-378.7
-61.7689
-186.52
116.239
70.2816
84.916
268.691
-353.607
122.494
-33.1702
347.438
93.0307
-67.7605
160.52
-101.345
-29.7645
-225.969
514.178
-288.209
3.76076
191.691
-195.451
226.292
-394.659
168.367
-80.6177
-41.2402
121.858
288.819
98.743
-82.9058
-20.3641
103.27
-128.003
109.61
18.3933
-189.107
128.8
60.3071
182.868
384.326
96.5862
-37.4142
-270.5
-126.094
228.489
-443.905
413.734
-509.868
96.1345
68.5084
223.052
-31.8226
-191.229
132.964
-65.2343
80.9137
-408.475
-77.518
-88.5064
166.024
99.3824
-7.64017
-91.7422
-112.133
45.2478
119.946
134.589
151.888
-329.336
177.448
-91.337
161.293
-69.9561
152.468
-357.3
360.572
-236.688
341.837
-82.8258
-361.87
-200.849
-287.81
473.661
-185.851
429.26
-324.287
-104.973
-9.30407
-342.803
352.107
-336.606
-176.328
512.934
-150.34
-8.96018
63.5865
-29.4217
-505.909
262.921
242.988
-159.152
-99.5602
-70.1309
-64.5874
-48.4554
156.951
-96.3395
173.539
-554.704
382.757
171.947
97.335
-161.359
-23.8401
88.6184
-64.7783
181.363
-146.379
198.622
-319.176
120.554
322.415
-255.447
-66.9682
87.4111
-397.451
310.039
215.027
-98.8407
114.598
255.349
-89.1995
-99.1165
108.818
-61.5567
474.782
-299.387
-175.396
-267.29
363.988
-96.6972
-123.007
191.898
282.884
-417.833
31.8675
385.965
-289.773
-192.134
144.307
-223.832
79.5253
-129.527
-82.7939
212.321
107.65
210.837
-318.487
38.7451
-266.225
-239.684
-93.7215
-34.3961
128.118
-203.24
326.159
-122.919
481.682
-175.784
413.685
-68.9131
-304.59
174.12
94.2561
5.12629
-274.228
-32.6109
306.839
57.3623
-373.82
-408.881
137.17
128.546
-16.7961
-111.75
167.203
-279.395
112.192
-108.848
265.561
-458.716
334.679
-77.6251
-81.001
497.292
-149.854
-240.454
406.748
-166.294
218.943
-348.174
129.23
470.144
-111.89
58.9621
59.0556
-309.104
135.266
356.278
-205.844
-150.434
-171.29
297.127
-125.837
134.094
347.588
169.999
-270
100.001
389.878
-107.396
360.815
129.278
-490.093
329.062
-226.082
-102.98
473.874
-502.801
28.9275
122.775
-73.8654
-48.9096
339.682
-224.793
-11.5098
-81.9836
-80.77
-182.1
262.87
40.9669
-125.099
84.1326
-151.213
67.5288
-307.186
474.404
-167.217
-87.2755
-50.2447
-194.644
198.405
103.204
50.7933
-132.727
81.9337
288.341
4.16373
-292.505
-146.572
92.84
53.7323
-100.815
454.138
183.558
124.073
-146.162
304.683
-236.837
155.43
335.778
53.8639
-158.211
-159.389
16.9816
226.266
-251.178
79.2561
-141.067
240.921
-99.8542
60.7176
-138.378
416.006
-204.211
-371.321
376.929
-5.60826
-133.264
494.079
66.9869
-137.8
70.8133
133.145
-68.3788
-141.635
210.013
-152.329
185.185
-71.2522
65.4113
24.6046
-90.0159
60.1065
-128.998
68.8911
-257.278
159.365
-97.8774
-69.3809
167.258
-267.753
-293.684
126.633
167.051
117.233
-84.4385
54.9382
-113.648
58.7099
58.5744
-188.101
144.904
139.288
-120.73
271.523
-150.793
-142.601
89.1321
53.4684
-82.3255
204.56
-122.235
-375.352
212.762
-183.258
363.248
151.71
-270.96
119.25
255.346
164.284
-419.629
-52.2501
-32.3109
84.5611
331.448
97.8124
339.014
-147.213
-191.801
-157.706
406.184
-248.479
165.349
-70.9643
325.725
-254.761
327.681
121.679
-449.36
474.56
339.352
131.785
-471.137
249.324
-457.022
189.586
-26.156
-163.43
-338.472
183.283
155.189
-129.11
16.8024
112.308
89.1205
19.1651
-108.286
-58.9358
-84.4477
12.3692
-383.69
-356.303
213.329
61.412
192.507
-253.919
-377.992
307.027
222.229
123.395
-345.624
-53.3821
108.189
-54.8067
-100.526
-151.557
252.084
568.614
-257.423
63.1241
135.81
-141.19
-280.1
421.29
-123.058
169.97
-221.744
385.127
-163.383
-360.479
44.7623
315.717
-178.12
-279.149
457.269
-69.189
-60.9294
-564.254
366.718
197.537
300.514
-181.845
-118.669
-124.159
346.388
-167.068
69.1908
111.082
-188.6
156.261
88.674
-162.358
-490.527
250.992
239.535
-173.122
92.9022
-266.038
97.8692
-291.775
-289.924
-58.232
-243.615
96.032
-332.294
236.262
-203.355
-172.412
63.3453
109.067
-247.865
-69.1276
-114.498
-37.8779
152.376
-49.3928
-43.0278
92.4207
-320.517
224.82
26.1705
-93.1958
67.0253
158.139
-189.962
153.976
-365.603
211.628
3.32708
-277.556
-191.561
316.391
-124.829
-241.447
257.142
106.62
-132.848
-89.4428
222.291
403.06
-412.364
114.179
-73.0711
285.329
189.775
-475.104
-81.3354
-91.7869
-78.5161
272.457
364.652
-367.705
94.5172
-5.39673
410.073
-126.146
-283.928
106.345
168.081
-274.426
139.477
-55.2316
-119.134
174.366
278.662
-121.831
-156.831
347.741
42.1372
130.835
-89.8679
-501.732
173.375
67.6245
-133.439
-130.585
68.4321
62.153
-52.4728
167.769
-115.296
-141.853
-76.456
218.308
23.8329
-97.979
74.1461
-123.573
42.9556
178.078
-186.048
7.96947
231.73
-281.51
49.7794
-218.393
76.54
-87.4901
-76.2784
-51.3066
-70.905
122.212
142.569
188.646
201.235
-225.483
179.218
177.817
-139.004
-38.8134
-379.302
271.209
108.093
236.69
-84.5496
336.131
161.161
335.057
103.173
-438.23
-130.102
-138.437
-537.846
251.054
286.792
225.38
-312.032
86.6519
141.865
120.394
-94.9834
61.8718
-42.0491
99.0695
-57.0204
-272.596
-220.652
493.248
-417.308
441.529
-24.2209
-267.318
103.426
-127.188
-457.925
-21.1158
479.041
210.098
244.474
-454.572
-123.846
-188.533
-149.787
-149.1
93.3435
-27.9322
-337.415
135.662
-32.6283
173.7
-128.856
-275.18
175.349
99.8307
83.3232
66.538
-131.527
-143.723
275.25
142.171
-91.3781
416.412
-294.452
-121.96
-139.271
358.214
-209.447
-52.6128
457.151
24.1313
-114.349
-75.136
189.485
454.657
-0.194638
-454.462
-92.9435
328.894
-235.951
116.47
82.4872
-198.957
-375.043
223.59
151.454
-130.219
-106.912
-168.268
140.555
-73.5682
-108.301
290.407
-182.105
137.71
142.924
-280.633
-150.28
-53.0002
-246.189
-178.035
424.224
117.267
476.438
-332.681
-143.757
-153.721
146.956
-93.1329
-53.8226
32.9173
-90.0441
202.33
-271.755
294.382
-352.614
-405.003
347.528
193.511
-317.357
230.634
181.46
440.872
-204.894
-239.164
164.224
94.0399
82.4367
-91.8341
113.861
-166.334
-270.852
290.276
-19.4233
-277.331
-20.888
77.8328
-140.115
62.2826
116.389
286.182
-159.549
248.363
-140.288
-108.075
-81.2696
141.987
-270.376
120.368
-188.747
311.043
-62.5666
-248.477
-260.687
470.785
484.814
-148.683
-370.074
267.168
102.906
-22.2848
476.942
-222.362
419.999
-86.0436
-203.124
289.168
105.068
-263.069
158.001
11.2899
291.676
-334.611
-247.387
581.997
147.899
-348.195
200.297
-292.775
392.81
-100.035
-112.265
451.617
352.271
-126.584
175.755
-89.5804
369.583
-280.003
-80.4052
-66.1672
-247.577
155.581
91.9962
176.112
150.047
66.5271
-59.7434
-279.798
339.541
-386.13
-78.9873
-135.091
-197.506
-338.084
229.783
-412.875
412.875
176.515
-338.689
162.174
179.187
-340.734
161.548
231.596
79.4478
53.7149
36.8217
-90.5366
218.039
-371.497
287.698
-465.818
241.078
-37.8865
144.396
159.312
72.7458
197.888
-270.634
124.582
-70.3883
-54.1938
-71.8666
-293.426
365.292
116.801
-187.221
70.42
-76.7083
189.701
-112.993
331.907
4.36964
-77.4514
80.3415
-276.257
321.594
-45.3365
41.3629
148.223
91.3348
18.4249
-109.76
-317.376
-43.1034
36.0654
-169.329
-193.076