/*--------------------------------*- C++ -*----------------------------------*\
  =========                 |
  \\      /  F ield         | OpenFOAM: The Open Source CFD Toolbox
   \\    /   O peration     | Website:  https://openfoam.org
    \\  /    A nd           | Version:  7
     \\/     M anipulation  |
\*---------------------------------------------------------------------------*/
FoamFile
{
    version     2.0;
    format      ascii;
    class       volVectorField;
    location    "22";
    object      U;
}
// * * * * * * * * * * * * * * * * * * * * * * * * * * * * * * * * * * * * * //

dimensions      [0 1 -1 0 0 0 0];

internalField   nonuniform List<vector> 
7639
(
(1.13144 0.161418 5.27477e-21)
(1.04007 -0.0451274 3.60784e-22)
(1.00011 0.135272 -1.39321e-20)
(1.05071 0.0742973 1.78587e-20)
(0.999325 -0.000823721 -2.88303e-23)
(0.999969 -7.52343e-06 -2.50879e-24)
(0.992321 0.110211 -2.80306e-20)
(0.995703 -0.00153684 -6.06717e-24)
(0.999902 -0.000152108 -4.65139e-24)
(1.02339 0.00035516 -8.07321e-22)
(0.999971 -8.93794e-06 2.7667e-24)
(1.00184 -0.0010678 -1.23153e-22)
(0.993453 -0.0019321 3.00927e-22)
(1.01769 -0.00192162 -4.99204e-21)
(1.02281 0.000946846 3.4225e-21)
(0.992637 -0.0121997 -6.09021e-22)
(1.13787 0.171564 -1.10454e-20)
(0.991226 -0.00245634 -1.04771e-22)
(1.00178 -0.00802873 -3.67271e-23)
(0.976229 -0.0710317 -4.92898e-22)
(1.03256 -0.00717776 -1.66395e-21)
(1.00122 -0.00061724 2.33395e-22)
(1.01604 -0.00324469 4.24179e-22)
(1.01274 0.0323998 -9.35795e-21)
(0.988371 -0.00304571 -4.75745e-22)
(1.12285 0.160426 -5.42532e-21)
(0.999355 -0.000781236 -2.03117e-23)
(1.0217 -0.00215639 1.9857e-21)
(1.00565 0.0157327 -1.17615e-21)
(1.00292 -0.00861511 2.95439e-23)
(0.988885 -0.0126924 -1.09046e-21)
(0.84463 0.0470228 4.42865e-21)
(1.01574 -0.00390817 2.6162e-21)
(0.999615 -0.000330119 3.5404e-23)
(0.999917 -5.06159e-06 6.57276e-26)
(1.02238 -6.86768e-05 1.18941e-21)
(1.00338 -0.00947299 3.62556e-23)
(0.99819 0.106493 -4.43464e-21)
(0.996913 -0.00657277 4.99272e-22)
(0.999733 -4.81221e-05 3.3405e-23)
(0.997229 -0.00677316 -5.67613e-23)
(0.992776 -0.0114298 -2.23474e-22)
(0.99212 -0.0817253 2.27484e-21)
(1.111 -0.0948176 6.64263e-22)
(0.99984 -9.50452e-06 1.05115e-23)
(0.999938 -1.31516e-05 -2.79385e-24)
(1.00114 -0.000505155 -1.42554e-22)
(0.996747 -0.0059928 -2.95513e-22)
(0.999947 -2.44077e-05 -2.19914e-24)
(0.978827 -0.0721344 7.17914e-22)
(1.0027 -0.000945058 1.3284e-22)
(1.02144 -0.00113286 -2.05954e-21)
(0.98492 -0.00360883 -1.59729e-21)
(1.00744 -0.0265752 4.98187e-23)
(1.02276 -0.00106411 -6.89293e-22)
(0.996217 -0.00212446 -5.52588e-23)
(1.00171 -0.00748979 8.07667e-23)
(0.995678 -0.00132944 4.10934e-22)
(0.981404 -0.0148674 -1.915e-21)
(0.999601 -0.000293526 -4.55029e-23)
(1.00003 -1.9014e-05 -6.23953e-24)
(1.00355 -0.000995411 1.48307e-22)
(1.01796 -0.00121554 -1.18002e-21)
(1.00198 -0.000926336 1.2469e-22)
(0.99923 -0.000160497 6.60272e-23)
(0.989313 -0.0131964 1.88636e-22)
(0.999923 -0.000152109 3.44637e-24)
(1.00001 -1.93801e-06 4.55519e-25)
(1.2044 0.0117521 8.40641e-22)
(0.996894 -0.00568303 -8.92102e-23)
(0.999942 -1.61753e-05 2.47546e-24)
(0.973558 -0.0427342 -3.55474e-21)
(0.988856 -0.00338401 2.31978e-22)
(0.979331 -0.00439853 3.12559e-22)
(0.991605 -0.00271465 3.28337e-22)
(0.971674 -0.0207297 -4.13002e-22)
(1.00543 0.13698 2.2427e-20)
(1.03069 -0.00675422 2.12648e-21)
(1.08268 -0.0195272 -2.83304e-21)
(0.962969 -0.0341137 -4.39146e-21)
(0.993757 -0.0021394 -4.61963e-22)
(1.00042 0.0655532 2.74797e-20)
(1.03993 0.0020535 5.02319e-21)
(0.978879 -0.00778353 1.4385e-21)
(0.998889 -0.00208052 -4.70489e-23)
(0.998188 -0.000262567 4.9381e-23)
(0.995413 -0.00202392 5.66357e-22)
(0.985488 -0.00404219 1.02748e-21)
(0.999479 -0.000974162 3.08743e-23)
(0.996397 -0.000549743 1.76422e-22)
(1.00601 0.0179387 8.77075e-21)
(1.14497 -0.109023 -1.27044e-21)
(0.999894 -4.45541e-05 -6.1732e-24)
(1.00142 -0.00634923 3.39279e-23)
(0.997143 -0.000845293 1.59853e-22)
(0.979099 -0.00244732 -2.49981e-21)
(0.975338 -0.0426464 2.34947e-22)
(1.00901 -0.025849 9.39754e-23)
(0.998777 -0.00200548 1.586e-23)
(0.999083 -0.000157843 2.21084e-23)
(0.961051 -0.0122365 1.05698e-21)
(1.08569 -0.015011 2.42917e-21)
(0.997303 -0.000961641 -3.98558e-22)
(0.999979 -1.00679e-06 -2.05285e-25)
(1.15741 -0.10362 -1.07673e-21)
(1.03475 0.0298672 -8.2304e-21)
(0.921436 0.0341501 4.998e-21)
(0.995967 -0.0020054 -2.29913e-22)
(0.999993 -1.62012e-06 9.15666e-27)
(1.02149 -0.013889 -8.59348e-22)
(1.05394 0.0692578 -2.07431e-20)
(1.0092 -0.0667429 -2.82876e-21)
(0.999992 -2.21101e-06 -3.3983e-26)
(1.02306 -0.0146701 -1.85506e-22)
(1.03072 0.0287872 8.66332e-21)
(1.00034 -0.000474612 -1.14e-23)
(1.0366 -0.0902602 -1.91521e-22)
(1.03236 0.0154226 -1.96144e-21)
(0.983679 -0.0351953 1.57032e-21)
(0.979072 -0.00534637 -3.27228e-22)
(0.958737 -0.00796987 -2.54425e-21)
(1.00147 0.0367084 -1.78858e-20)
(0.996326 -0.0820929 -3.12804e-21)
(1.00806 -0.00699014 7.40332e-23)
(0.960029 -0.00914322 1.00224e-21)
(0.999243 -0.00112906 6.89163e-23)
(0.989942 -0.00966245 3.63688e-22)
(1.00225 -0.00716897 -5.5472e-23)
(0.999188 -0.00011833 -1.4723e-22)
(0.988979 -0.0117016 1.93012e-23)
(1.14962 -0.14965 -8.20363e-22)
(1.07602 -0.0190921 4.97378e-22)
(0.999522 -0.000446997 3.87476e-24)
(0.999393 -0.000997742 -5.96946e-23)
(0.977938 -0.00709694 4.27153e-22)
(1.04945 0.0612982 7.53171e-21)
(0.995262 0.0314284 3.2821e-20)
(0.999981 -2.23013e-06 -2.362e-25)
(1.0062 -0.0027027 6.2206e-23)
(0.944971 -0.00963199 -3.14554e-21)
(0.980617 -0.00319188 -1.27977e-21)
(0.985243 -0.0486772 -2.34097e-21)
(0.971928 -0.0223264 5.59523e-22)
(0.980463 -0.00397875 -2.78701e-23)
(0.913332 0.0267246 1.95937e-20)
(1.00603 -0.0398118 -8.81165e-23)
(1.01227 0.0187983 -4.43904e-21)
(0.983003 -0.0178617 -9.9765e-22)
(0.97155 -0.00412815 3.50244e-22)
(1.00143 0.0529664 -8.86187e-21)
(1.02277 0.000635354 2.9666e-21)
(1.133 -0.0998775 -3.65903e-23)
(0.998811 -0.00165174 -1.64362e-22)
(1.20327 -0.00337043 -2.46346e-22)
(1.03781 0.00206485 -5.25541e-21)
(1.01394 0.109589 -2.20398e-20)
(0.967503 -0.0239758 1.71152e-21)
(0.993455 -0.00148711 1.0217e-22)
(0.933374 0.0911433 4.3317e-20)
(0.999951 -2.06088e-05 -2.01733e-24)
(1.00102 -0.00667955 -2.0178e-23)
(1.01325 0.0360938 6.78566e-21)
(0.999983 -1.60399e-05 9.48076e-25)
(0.998557 -0.00422381 -2.33386e-22)
(0.996774 -0.000815882 -7.65821e-23)
(1.00453 0.0420576 -2.25548e-21)
(1.00236 0.0321452 8.43945e-21)
(0.923187 0.10025 1.44262e-20)
(0.998333 -0.00408375 -1.45928e-22)
(0.997508 -0.000308714 -8.69521e-23)
(1.00001 -2.48184e-06 -4.33299e-25)
(0.956452 -0.00482551 -4.3594e-21)
(1.00033 -0.000421379 1.57027e-23)
(1.04268 -0.0422909 -4.33226e-22)
(1.00642 -0.00296627 4.14347e-22)
(0.972188 -0.00489724 7.25457e-22)
(1.15889 -0.0870993 -1.3353e-21)
(1.14637 0.051563 6.8733e-23)
(0.999894 -5.41698e-05 3.34493e-24)
(0.999597 -0.0005172 -4.03319e-23)
(1.05366 0.0790248 -3.15311e-21)
(0.999951 -1.49334e-05 -9.95632e-25)
(0.999912 -1.0116e-05 1.58247e-24)
(0.992972 0.117645 -2.30742e-20)
(1.04057 -0.0485923 -1.93871e-22)
(1.00187 -0.0547787 -1.53812e-21)
(0.985303 -0.0343423 -2.23004e-21)
(0.981096 -0.00575214 9.40859e-22)
(1.00347 -0.040366 1.64086e-22)
(0.946223 -0.00815369 1.65415e-21)
(0.999982 -1.46404e-05 -3.67861e-25)
(0.976165 -0.0401477 -8.55853e-22)
(1.15522 0.060093 -3.69888e-21)
(0.997287 -0.00117136 5.72663e-23)
(1.00006 -5.5457e-06 -4.2919e-24)
(1.10937 0.0731634 5.0637e-22)
(0.999003 -0.000321608 1.56602e-22)
(0.989669 -0.0112877 5.8103e-22)
(1.00164 -0.0379208 5.34764e-22)
(1.00001 -1.48466e-06 -1.85258e-25)
(1.00071 -0.00164243 -6.25171e-23)
(1.04471 0.0614555 9.57212e-21)
(1.14061 0.077951 -5.84186e-21)
(1.00707 0.0963588 -2.97298e-21)
(1.03632 -0.0847115 1.37329e-21)
(1.01282 -0.0649475 6.33337e-22)
(1.05278 -0.127955 -5.41451e-22)
(1.0222 -0.00254245 5.91743e-21)
(1.04037 0.0573923 -3.10377e-21)
(0.99983 -1.78591e-05 -1.24185e-23)
(1.00003 -1.66905e-05 1.67784e-24)
(0.941038 0.0140214 -1.91635e-20)
(0.993762 -0.0110026 -2.12144e-22)
(0.999502 -0.000398982 -3.86985e-23)
(0.977923 -0.0397431 1.78589e-21)
(0.989465 -0.0101708 -4.24781e-22)
(1.026 0.0995225 -2.41981e-20)
(1.02079 0.0966491 -5.10185e-21)
(0.982973 -0.0494645 6.34086e-22)
(0.874655 0.0662322 -1.67163e-20)
(0.999074 -0.000364767 -1.15081e-22)
(0.991267 -0.00211842 3.74878e-22)
(0.959673 -0.011125 1.38792e-21)
(1.03187 -0.00233246 -1.21832e-21)
(0.988989 -0.0991014 -2.77267e-22)
(1.16996 0.146161 -9.46091e-21)
(0.933646 0.0798969 -3.70461e-20)
(1.00005 -8.95173e-05 5.0111e-24)
(1.00806 -0.00647584 2.0522e-22)
(1.03059 0.0184044 1.06533e-20)
(0.996863 -0.00493489 -3.76624e-22)
(1.03514 0.0152153 -1.33238e-21)
(0.999568 -0.00105897 -9.49638e-24)
(0.894071 0.112489 2.93631e-20)
(1.01393 0.100727 4.92752e-21)
(0.995414 -0.00174632 3.5967e-22)
(1.00292 -0.00721452 -9.01076e-24)
(0.99975 -5.54895e-05 -6.19991e-23)
(1.20914 0.0728688 1.39788e-21)
(0.999923 -9.0053e-06 4.64491e-24)
(0.995596 -0.00902623 1.78433e-22)
(0.95135 -0.0215441 1.88826e-21)
(0.999941 -2.14345e-05 -1.0232e-24)
(0.998975 -0.00242672 -4.00349e-23)
(0.999662 -0.00102894 1.79081e-23)
(1.08572 0.0375803 6.96249e-21)
(0.999983 -2.06928e-05 1.08648e-24)
(0.996246 -0.000422879 2.0474e-25)
(0.964717 -0.0340359 5.09692e-21)
(0.846421 0.0352266 -9.77926e-21)
(1.07319 -0.0231587 -6.99222e-22)
(0.909829 0.0759333 2.24421e-20)
(0.999964 -6.79818e-06 -2.39155e-24)
(0.999664 -0.038228 -3.67186e-23)
(0.999848 -0.000262463 -1.32455e-23)
(1.00731 0.112962 -2.24024e-20)
(1.00326 -0.000670181 -1.91219e-22)
(0.992999 0.0414666 1.06439e-20)
(1.00218 -0.00864386 -1.51507e-22)
(1.00063 -0.00175007 6.71656e-23)
(1.02249 -0.0332337 -2.1062e-22)
(1.02221 -0.0013828 -5.48065e-21)
(1.00047 -0.000282957 3.21713e-23)
(0.999815 -4.54671e-05 2.92086e-25)
(1.00041 -0.000381492 7.26454e-23)
(0.996696 -0.00523076 -3.36548e-22)
(1.00651 -0.0582925 1.8107e-21)
(0.999965 -9.23597e-06 1.62159e-24)
(0.968768 -0.0230825 1.20483e-21)
(0.996936 -0.000939047 -1.43999e-23)
(0.999885 -3.83125e-05 6.56519e-24)
(0.999489 -0.000495638 1.26069e-23)
(0.987323 0.0684209 2.56462e-20)
(0.993429 -0.000694909 1.47886e-22)
(0.999375 -9.0311e-05 -1.32135e-23)
(0.883267 0.0158902 3.72765e-20)
(0.99885 -0.00233295 -9.10172e-23)
(1.09696 0.113594 -6.73784e-21)
(0.999831 -0.000242472 2.46148e-23)
(1.00574 -0.0199109 9.21718e-24)
(1.00001 -1.2692e-06 -1.55873e-25)
(0.984067 -0.0286267 -8.88199e-22)
(1.03106 -0.002324 1.89874e-21)
(1.1686 -0.0826226 2.64842e-21)
(0.981539 -0.0160041 1.6242e-21)
(0.999663 -0.000522981 4.64473e-23)
(0.977359 -0.0613866 1.11986e-21)
(0.986423 -0.000391664 6.75598e-22)
(0.999852 -1.65437e-05 6.15385e-25)
(1.0004 -0.000332578 -6.42959e-23)
(0.998279 -0.00302013 1.25781e-22)
(0.993729 -0.00124428 -4.42468e-22)
(1.00255 -0.000822429 -2.27014e-22)
(0.998984 -0.00166994 5.94838e-23)
(0.979928 -0.00729616 2.26532e-22)
(1.01039 -0.0574527 -1.31251e-21)
(0.980054 -0.00613197 1.00343e-21)
(1.11224 -0.0840872 -1.74247e-22)
(0.973787 -0.00666644 -1.2699e-21)
(1.03247 0.131696 2.46971e-21)
(1.02676 0.135875 -1.80579e-20)
(0.998759 -0.000663846 -1.00749e-22)
(1.18387 -0.105613 -6.14024e-21)
(0.999987 -2.90824e-06 -1.20049e-25)
(0.998236 -0.00374102 -1.53889e-22)
(0.978583 -0.00170572 2.55978e-21)
(1.00954 0.0289501 5.60879e-21)
(1.04245 0.00668961 -4.98377e-21)
(1.00008 -2.95738e-05 9.62783e-24)
(0.998341 -0.00352986 -1.00371e-23)
(0.974661 -0.0073992 9.5724e-22)
(1.06457 0.0361254 -3.00125e-21)
(0.999182 -0.00104063 5.19506e-23)
(1.00284 -0.000692215 1.28092e-22)
(1.00104 -0.000863093 -1.15471e-23)
(1.13976 -0.0235473 9.76322e-22)
(1.14134 -0.154552 -4.41242e-21)
(1.06588 0.161197 1.10268e-20)
(0.998683 -0.000212377 -9.81846e-23)
(1.0487 -0.0501401 1.11884e-22)
(0.999906 -5.8232e-05 -5.25808e-24)
(1.00399 -0.00644087 -4.32492e-22)
(0.999956 -1.17475e-05 -6.94821e-25)
(0.987348 -0.0175415 2.83846e-22)
(0.999716 -6.50399e-05 -1.19726e-23)
(1.00959 -0.0200334 9.75048e-23)
(1.19991 -0.13108 6.66625e-21)
(0.977437 -0.0223499 1.93984e-21)
(1.00682 -0.0195078 -3.58357e-23)
(1.00723 -0.00577587 -2.66685e-22)
(0.999397 -0.000117562 5.9244e-23)
(1.02296 -0.0184062 5.99086e-22)
(0.996633 -0.0162272 2.83505e-22)
(1.08179 -0.00717692 -1.58628e-21)
(1.0785 0.0368022 3.26142e-21)
(1.0718 -0.159889 6.00366e-23)
(1.10339 -0.0991692 -2.14091e-21)
(0.985846 -0.000794385 -7.22284e-22)
(1.00431 -0.00322545 4.07902e-22)
(0.953103 -0.0205108 -7.32695e-22)
(0.912374 0.0990536 -4.50186e-20)
(1.08954 -0.0881737 2.3705e-21)
(1.0244 -0.0120024 -2.43058e-21)
(0.885473 0.0718566 -2.26392e-20)
(0.998728 -0.000159791 4.85166e-23)
(0.998546 -0.000819829 -3.11408e-23)
(1.12304 -0.103791 -2.30037e-21)
(0.999106 -0.00180782 -3.14985e-23)
(1.00682 -0.0373497 1.45713e-22)
(1.00499 -0.00161593 1.43831e-22)
(0.997631 -0.000363062 -7.73036e-23)
(0.998263 -0.000305915 -1.2168e-22)
(1.0374 0.023723 6.22549e-21)
(0.999944 -0.000129878 -9.05441e-26)
(1.00045 -0.000227385 -2.86244e-23)
(1.00007 -1.21046e-05 7.3516e-24)
(0.997093 -0.000573696 4.12181e-22)
(0.994633 -0.0078759 4.69526e-22)
(0.999986 -2.42257e-06 8.51437e-26)
(0.99909 -0.000216465 1.25123e-23)
(0.982286 -0.0141412 5.70664e-22)
(0.939528 0.0208808 1.20017e-20)
(1.00828 -0.0206366 -2.43515e-25)
(0.993837 -0.0103071 7.607e-22)
(0.95553 0.0779588 5.10341e-21)
(1.0014 0.0348359 1.56186e-20)
(1.06641 -0.0134835 -1.35676e-21)
(1.18331 -0.0925353 2.05451e-21)
(0.955451 -0.00355305 2.37809e-21)
(1.00426 -0.00371374 -2.01324e-22)
(1.01208 0.0499814 -8.74107e-22)
(0.990523 -0.00187524 -8.94642e-22)
(1.06738 0.118437 2.3912e-22)
(1.00259 -0.04302 2.2023e-23)
(1.00669 -0.0963685 -1.12195e-21)
(1.13138 0.0749208 3.73922e-21)
(1.07264 0.126285 -9.47688e-21)
(0.970064 -0.0200145 2.68251e-21)
(1.04307 0.00442541 -3.17356e-21)
(1.18216 0.152798 8.63862e-21)
(1.0879 0.116566 1.32321e-20)
(1.02301 -0.00281502 1.85881e-21)
(0.997457 -0.00126533 8.99673e-23)
(0.996462 -0.00194706 7.86561e-23)
(0.999927 -2.03382e-05 -2.46579e-24)
(1.01264 -0.0262038 6.75451e-23)
(0.990262 -0.00157222 2.10557e-22)
(1.00086 -0.00207154 -5.45134e-23)
(0.999912 -2.09791e-05 -4.69286e-24)
(0.998651 -0.000607891 3.93462e-23)
(0.975714 -0.0600973 -1.84938e-21)
(1.13079 0.00167341 1.11381e-21)
(0.985374 -0.00497446 -1.15446e-21)
(0.999164 -0.0108424 3.08753e-22)
(0.996796 -0.000622662 -2.20872e-22)
(1.04549 -0.0511201 -4.0732e-23)
(0.99401 -0.00130923 -7.10136e-22)
(1.00199 -0.00648614 1.62242e-22)
(1.20302 0.131224 1.51663e-21)
(0.998449 -0.000290822 -2.82506e-22)
(0.999982 -3.95774e-05 -6.38428e-25)
(0.999954 -0.000156259 -4.9828e-25)
(1.00004 -9.16354e-05 7.08424e-24)
(0.981908 -0.00642466 5.28383e-22)
(1.035 0.0215503 -7.33607e-21)
(0.9966 -0.000474495 8.65232e-24)
(1.02074 -0.00988091 1.58373e-21)
(0.992577 -0.104453 2.12102e-21)
(0.999285 0.0991051 -5.12168e-22)
(1.00336 -0.00657933 1.42646e-22)
(1.00574 -0.00419416 -6.64772e-23)
(0.995695 -0.00218217 -2.86031e-22)
(0.992605 0.0679275 -2.50561e-20)
(0.999119 -0.000111522 4.00425e-23)
(1.07228 0.167274 -5.50173e-21)
(1.00975 0.0197851 -8.61854e-21)
(0.999904 -2.58016e-05 5.50785e-24)
(1.00082 -0.0434486 -9.33372e-22)
(0.997196 -0.000662923 -2.03477e-22)
(0.987633 -0.049824 2.87511e-21)
(1.00047 -0.000121222 2.85561e-23)
(1.06284 -0.00903907 1.95038e-21)
(1.00568 -0.0145614 -4.91877e-24)
(1.00537 -0.00375201 3.38889e-23)
(0.99929 -0.000140035 -7.92117e-23)
(1.0904 0.0323058 3.2462e-21)
(1.05859 0.0355887 1.14377e-21)
(0.999553 -0.0564938 1.51277e-21)
(0.98282 -0.0165323 -1.09386e-22)
(0.998181 -0.00322262 -1.08869e-22)
(0.997688 -0.034506 -1.70948e-21)
(1.18727 -0.00922249 -6.18596e-22)
(0.853384 0.0546782 -2.14448e-20)
(1.05195 -0.0877092 -1.44183e-21)
(1.00439 -0.00697434 -6.58392e-23)
(0.999994 -2.14234e-06 2.57794e-27)
(0.988791 -0.00411374 -9.27323e-22)
(0.998098 -0.000331296 2.63531e-22)
(1.02176 -0.0181932 8.68561e-22)
(0.988694 -0.084306 -9.14612e-22)
(1.17035 -0.113132 2.3048e-21)
(0.985466 0.0939522 -3.08404e-20)
(1.06812 0.0308739 4.81355e-21)
(1.0593 -0.122496 2.23107e-21)
(1.11265 0.0825028 1.69523e-21)
(0.999491 0.0376858 2.95669e-20)
(1.01783 -0.00260282 1.34028e-21)
(1.00103 -0.00200242 1.2504e-22)
(1.03552 0.0678019 4.88773e-21)
(0.999276 -0.00176313 7.02674e-23)
(0.999847 -0.000144562 5.24699e-24)
(0.984726 -0.00166199 3.23121e-22)
(1.00008 -2.87677e-05 1.83838e-24)
(1.05357 -0.136794 1.03959e-21)
(1.00284 -0.0158284 -6.57402e-23)
(0.985809 -0.0283721 1.50374e-21)
(1.0016 -0.00137551 6.33529e-23)
(1.09974 0.0714912 9.73084e-21)
(0.998516 -0.000275799 -2.328e-23)
(0.99998 -3.16688e-05 -1.31459e-25)
(1.001 -0.0974476 1.21315e-21)
(1.00142 -0.00117956 -3.71228e-23)
(1.1028 -0.0395472 -3.54058e-22)
(0.962945 -0.0115415 4.94522e-22)
(0.94737 -0.013334 2.40734e-22)
(1.24263 -0.0797611 4.11171e-22)
(1.02776 0.0179135 -2.77954e-21)
(1.02188 0.00483472 1.71543e-21)
(1.02062 0.00468125 -6.76711e-22)
(0.99983 -3.73971e-05 1.8907e-24)
(1.1391 -0.00494961 7.14259e-22)
(1.08424 -0.00330906 1.84856e-21)
(0.999568 -0.000561405 1.8135e-23)
(0.98601 -0.00541587 1.34099e-21)
(1.00052 -0.000179612 -3.17765e-23)
(1.00973 -0.018468 -6.02524e-22)
(1.00603 -0.0255091 -5.22987e-23)
(1.00386 -0.00121874 1.16769e-24)
(0.99936 -0.00111543 -8.35534e-23)
(1.19793 0.0616878 -4.26396e-21)
(0.999982 -1.90057e-05 -1.37625e-24)
(1.00018 -9.42467e-05 -8.83298e-24)
(1.00171 -0.000928509 -2.62996e-24)
(0.981234 -0.00276697 8.90997e-22)
(1.01695 -0.011139 1.1033e-21)
(0.985539 -0.023929 -2.12605e-21)
(0.976981 -0.00423197 -5.1645e-22)
(1.00443 -0.0549118 8.62708e-22)
(1.00105 -0.114832 -2.27011e-21)
(1.02142 -0.0304381 1.74985e-22)
(1.04118 0.0678253 -2.76229e-20)
(1.20233 -0.114703 -4.50334e-21)
(0.994449 -0.00220944 -3.70944e-23)
(0.88845 0.104946 3.51094e-20)
(0.976979 -0.0444393 3.10269e-21)
(0.994365 -0.00835425 1.47979e-22)
(0.977557 -0.0035133 8.51506e-22)
(0.997649 -0.015745 -8.134e-23)
(0.982389 -0.00202859 1.36445e-21)
(0.991548 -0.00330791 -2.70599e-22)
(1.02449 -0.0138575 -1.65599e-21)
(1.0929 -0.0953746 -5.94309e-22)
(0.999978 -3.70358e-05 -1.20994e-25)
(1.02079 -0.0127758 -1.89899e-22)
(0.99992 -2.54932e-05 -2.63381e-24)
(1.02059 0.112801 5.89668e-21)
(1.21509 0.0168803 1.04278e-21)
(0.995952 -0.00166771 9.02542e-23)
(0.988117 -0.00146968 -1.23151e-21)
(0.999844 -4.62207e-05 -1.40788e-23)
(0.99892 0.0608337 1.84639e-20)
(1.05316 0.127235 1.29709e-20)
(1.13589 -0.0162729 -4.46014e-22)
(1.23607 0.0999292 -2.76053e-21)
(0.976592 -0.0470371 -1.34073e-21)
(0.998267 0.0116732 -2.85717e-20)
(0.999947 -0.000114456 2.10055e-24)
(1.04068 -0.0319007 1.57664e-21)
(0.984425 -0.0012662 -5.02867e-23)
(1.13392 0.0533797 -1.67737e-21)
(0.922147 0.0723883 -2.72711e-20)
(1.18457 -0.0213165 -5.02356e-22)
(1.05919 0.0251737 7.93277e-22)
(0.99976 -0.0107631 -5.10456e-23)
(0.999832 -7.1991e-05 -1.29703e-23)
(1.22428 0.0706916 1.05128e-21)
(1.15243 -0.134269 9.72221e-22)
(0.99643 0.0704792 -5.48354e-22)
(1.09523 -0.036531 1.43425e-21)
(1.04169 0.0522453 8.12407e-21)
(0.99412 -0.00197201 -1.26426e-22)
(0.994079 0.0936576 8.31329e-21)
(1.05819 0.118906 4.4627e-21)
(0.992498 -0.00280185 -7.58835e-22)
(0.993724 -0.00262548 -2.81878e-22)
(1.22921 0.0419706 -9.20454e-23)
(0.945537 -0.0123114 -3.32017e-21)
(0.999929 -0.000133284 -3.4465e-24)
(0.989316 -0.00445301 1.19357e-21)
(0.949345 -0.0174114 2.44487e-21)
(0.98344 -0.0605278 -3.91798e-22)
(1.00842 -0.00226032 -1.15117e-21)
(1.00725 -0.00524112 7.35553e-23)
(0.999897 -0.00016622 -7.03447e-24)
(1.05732 0.135348 -1.9515e-20)
(1.00012 -0.00976382 8.71361e-24)
(0.999914 -5.04043e-05 2.3317e-24)
(1.01141 -0.0532261 1.04865e-21)
(0.999586 -0.00036877 1.62123e-23)
(0.999815 -6.50057e-05 9.54227e-25)
(1.0043 -0.0106717 -7.54625e-23)
(1.08382 0.076424 1.39085e-20)
(0.999034 -0.0869524 1.67224e-21)
(0.944378 0.0730613 1.59198e-20)
(1.00005 -8.67303e-06 -5.2383e-24)
(1.09272 0.0792824 -1.433e-20)
(1.0074 -0.0449405 7.69006e-22)
(0.999935 -0.000162439 -9.96576e-25)
(1.00002 -5.2773e-06 -1.78321e-24)
(1.00323 0.0119796 -1.41513e-21)
(1.07389 0.0644603 5.28811e-21)
(0.99671 -0.00205691 7.82596e-23)
(1.06328 0.0478652 -6.97411e-21)
(1.00002 -1.6773e-05 1.2941e-24)
(1.06529 0.054683 -9.51969e-21)
(1.06375 -0.152242 2.93004e-21)
(0.992102 -0.00250664 8.34927e-22)
(0.999092 0.0185527 -3.84852e-20)
(0.978453 -0.0375153 2.07213e-21)
(1.23712 0.0840711 2.1591e-21)
(0.97856 -0.00352616 5.17494e-22)
(1.07225 0.0569249 1.24374e-20)
(1.08189 0.0670237 -3.84515e-21)
(0.986661 -0.00669777 1.93737e-21)
(0.982638 -0.00807012 -1.42135e-21)
(0.995743 -0.00838776 4.39464e-22)
(0.997667 -0.00061758 -6.66082e-23)
(0.999835 -0.000161069 1.47306e-23)
(0.999945 -0.00932046 -1.55883e-23)
(1.07159 0.109078 -2.2709e-21)
(0.999977 -2.91078e-05 3.85169e-25)
(1.05676 0.046386 9.21773e-21)
(1.00837 -0.0904974 2.71354e-21)
(1.01059 0.0713878 7.11715e-21)
(1.05494 0.0407906 -1.05835e-20)
(0.947479 -0.0162557 -3.0337e-22)
(0.953022 0.0939961 -3.30944e-20)
(0.998701 -0.000977895 5.73519e-24)
(1.01271 -0.0241692 2.42247e-22)
(1.03009 -0.0756533 7.62604e-22)
(0.983134 -0.00191377 -8.25109e-23)
(0.994766 -0.00278381 3.75655e-22)
(1.00503 -0.045539 -6.73441e-22)
(1.0494 -0.0263757 -1.59058e-22)
(0.898619 0.0651864 4.29484e-20)
(1.00004 -1.60379e-05 5.93472e-24)
(0.998467 -0.00104186 7.56568e-23)
(1.00606 -0.0651029 3.30142e-23)
(1.00001 -4.21402e-06 2.31304e-25)
(1.02226 0.121238 2.90247e-21)
(1.00144 -0.00101468 0)
(1.00001 -5.69131e-06 1.84575e-25)
(1.00016 -7.35785e-05 2.08324e-23)
(1.00033 -0.000101189 4.04322e-25)
(0.987664 -0.0164315 1.44328e-21)
(1.01961 -0.0169032 -6.19886e-22)
(0.998762 -0.000760921 1.18599e-22)
(0.999931 -1.43133e-05 4.85776e-24)
(0.994426 -0.00260448 2.08674e-22)
(1.00369 -0.0110866 -5.26628e-23)
(0.980189 -0.0863918 -2.47014e-21)
(0.951897 -0.00556016 2.39836e-22)
(1.0164 -0.00990143 1.95547e-21)
(0.999978 -2.28569e-06 1.25378e-24)
(1.03155 -0.140895 3.18405e-21)
(0.989508 -0.00310454 -4.78451e-22)
(1.20074 0.0444212 -4.37752e-23)
(1.00042 0.0149605 -5.11778e-21)
(1.00104 -0.00301567 2.90867e-23)
(1.17348 0.0411602 -4.50888e-21)
(1.00013 -8.00203e-05 -3.85997e-26)
(0.989998 -0.00349071 1.38444e-23)
(1.02318 0.000439036 -3.42022e-21)
(0.994786 -0.00316742 -1.53849e-22)
(1.09139 0.0952193 -8.48141e-22)
(0.98989 -0.00544797 -9.01598e-22)
(1.04279 -0.0300534 -1.42222e-21)
(1.0238 0.000992537 -3.68824e-21)
(1.07508 0.0311404 -1.96086e-21)
(1.00604 -0.0134215 -2.89828e-22)
(0.991971 -0.00356997 2.24685e-23)
(1.1163 0.0641222 5.45606e-21)
(0.977596 -0.0647687 -2.15988e-21)
(1.00633 0.120553 2.45489e-20)
(0.992887 -0.00405248 -8.78784e-22)
(1.10547 0.131855 -2.84217e-22)
(0.992878 -0.0035536 2.34756e-22)
(0.999077 -0.000439116 -7.66218e-24)
(1.05738 0.0215774 2.28453e-21)
(1.01093 -0.027137 -1.67059e-23)
(1.03605 -0.000620947 4.93675e-21)
(1.00148 -0.000720732 4.12424e-23)
(1.00001 -4.45446e-06 8.45392e-26)
(0.984658 -0.099221 8.95209e-22)
(1.19452 0.120372 -6.77637e-21)
(1.00125 -0.00292808 -3.935e-23)
(1.18736 0.0350297 3.03982e-22)
(0.990442 -0.0050914 -5.9034e-22)
(1.02493 -0.141071 -1.15525e-21)
(1.03554 -0.0439344 -6.43224e-23)
(0.985135 -0.0253843 1.19663e-21)
(0.998668 -0.000853246 -5.01422e-23)
(0.99311 -0.000896906 -1.77678e-22)
(0.975032 -0.0551179 -1.28947e-21)
(0.976824 -0.00756503 1.95136e-21)
(0.992451 -0.00330677 6.20899e-22)
(0.999882 -0.000376228 5.98836e-24)
(0.997281 0.128426 -3.08725e-21)
(1.16225 0.0327386 2.58798e-21)
(1.02183 -0.0110104 -6.11201e-22)
(0.999841 -0.000125253 9.80428e-24)
(1.05354 0.111334 -8.72492e-21)
(1 -2.01899e-05 5.86673e-25)
(0.999853 -0.000111697 1.92944e-23)
(1.14974 0.0377442 2.72609e-21)
(1.00785 -0.0223269 1.36948e-22)
(1.20062 0.0926974 4.91835e-21)
(1.02195 -0.00328437 1.40102e-21)
(1.01459 -0.0120406 -1.29083e-22)
(1.06457 -0.0819446 9.58822e-22)
(1.01477 -0.113263 2.64709e-21)
(1.23254 -0.0841459 1.77257e-21)
(1.00104 -0.00072657 -9.07265e-23)
(0.964303 -0.0126342 -1.91907e-22)
(0.999985 -4.86603e-05 -1.62642e-25)
(1.00409 -0.00972691 5.38008e-23)
(1.0955 0.0877872 5.09955e-21)
(0.987364 -0.00628834 1.35334e-21)
(0.997788 -0.00123865 1.05347e-22)
(1.00944 -0.0366815 -4.35427e-22)
(0.998443 -0.000919391 7.25495e-24)
(0.999684 -0.000924328 2.06278e-23)
(0.890416 0.0150864 7.65693e-21)
(0.992461 -0.00435411 -4.97319e-22)
(0.999569 -0.000613714 -6.29596e-23)
(0.999986 -6.19857e-07 -2.10984e-25)
(1.0177 0.00624885 7.50171e-21)
(0.978112 -0.0209515 -2.95458e-22)
(0.99974 -0.000463748 1.82071e-23)
(0.997799 -0.000718258 1.35806e-22)
(1.0258 0.0205635 3.07819e-21)
(1.07114 -0.00280775 4.83658e-22)
(0.97001 -0.0182714 -1.66707e-21)
(1 -1.26227e-05 4.81207e-25)
(1.0015 0.013239 2.06115e-20)
(0.988799 -0.0143598 -9.84312e-22)
(1.09657 0.0627451 -9.76316e-21)
(1.01106 -0.00117286 -1.75164e-21)
(1.01287 -0.00117852 4.00617e-21)
(0.97549 -0.00937755 2.65465e-21)
(0.999924 -5.38631e-05 -1.50417e-24)
(1.023 6.10958e-05 -6.85316e-22)
(1.07488 -0.00758889 -5.73412e-22)
(1.22 -0.0500399 -2.00934e-21)
(1.01398 -0.0888456 6.19549e-22)
(1.06561 0.102097 6.6553e-21)
(1.00482 -0.00146124 -2.81181e-23)
(1.12744 0.065394 -7.46541e-21)
(0.999754 -0.01256 -8.88107e-23)
(1.0088 -0.050513 -1.82056e-21)
(0.999691 -0.00013862 -2.01796e-23)
(1.00221 -0.0167936 1.27421e-22)
(0.999917 -0.000361296 1.575e-24)
(1.0555 0.0297723 -6.91764e-21)
(1.13986 0.138743 -1.67686e-20)
(0.998824 -0.00100797 3.99436e-23)
(1.01584 -0.012354 2.42692e-23)
(0.98627 -0.00377519 4.6474e-22)
(1.0203 -0.0810233 2.81669e-22)
(1.01497 -0.0832171 -1.36661e-21)
(0.998523 -0.000726395 7.94471e-23)
(1.03743 -0.0314682 -5.26011e-22)
(0.900093 0.00439924 -1.29297e-20)
(1.19571 -0.0607097 -1.775e-21)
(0.999957 -0.00013887 4.20428e-24)
(1.0652 -0.00387359 -1.702e-21)
(0.997604 -0.00769721 -2.13896e-22)
(0.993712 0.0030233 2.72141e-20)
(0.99045 -0.0044549 8.20871e-22)
(0.995765 -0.0225934 -2.67396e-22)
(1.01224 -0.0332146 -2.72794e-23)
(0.994548 -0.0232346 -3.80057e-23)
(0.998245 -0.0182459 -6.01125e-22)
(0.994058 -0.00281983 1.4374e-22)
(0.999037 -0.0124063 3.22729e-22)
(1.00159 -0.00546763 -4.40501e-23)
(1.04944 -0.0302227 3.82013e-22)
(1.00009 -2.196e-05 -1.40046e-23)
(1.10311 -0.159566 -1.66404e-21)
(1.14541 -0.0787729 -8.21814e-22)
(1.03912 0.133467 1.63528e-20)
(0.971468 -0.0173653 2.53328e-21)
(1.18234 0.0925224 -2.62831e-21)
(1.00159 -0.000564892 1.45648e-22)
(1.04216 -0.0802064 -1.29737e-23)
(1.00147 -0.0333549 -6.46741e-22)
(1.02459 0.0387501 9.09539e-21)
(0.994459 -0.00341767 3.56747e-22)
(1.00009 -0.000154306 9.36048e-24)
(0.989314 -0.0149764 1.28635e-21)
(0.996443 -0.00818389 -1.66612e-22)
(1.0355 -0.0285461 1.25579e-21)
(0.978041 -0.00581651 -1.65114e-21)
(0.981777 -0.00750869 4.6913e-22)
(1.10285 -0.0771573 -3.05372e-22)
(0.988393 -0.00247036 -8.07456e-22)
(1.00989 -0.0341687 2.85487e-22)
(0.983966 -0.0640077 1.57959e-21)
(1.00001 -6.67053e-06 1.62922e-25)
(1.0534 -0.0237616 2.25933e-21)
(0.98639 -0.0582349 -4.25239e-21)
(1.18031 0.0657494 2.1227e-21)
(1.06139 -0.0872564 -1.78277e-21)
(1.03442 -0.000761507 4.11943e-22)
(1.00444 -0.0862308 -3.4727e-21)
(1.07272 0.144779 4.09013e-21)
(1.02668 -0.0364555 2.95847e-22)
(0.97448 -0.00863789 -1.57097e-21)
(1.00815 -0.0421132 -8.99004e-22)
(0.953386 0.00632307 1.22075e-20)
(1.08214 -0.138691 8.61359e-22)
(0.989931 -0.00413282 -2.49515e-22)
(0.998902 -0.103416 -2.59581e-22)
(1.01321 -0.0602549 1.26927e-21)
(1.01116 -0.101153 -4.22037e-22)
(1.02061 -0.0754975 -1.47418e-21)
(1.11177 0.0555037 7.13303e-21)
(0.997808 -0.00142281 6.98046e-24)
(1.01043 0.0474388 3.44872e-21)
(1.00647 -0.00139834 2.06326e-22)
(0.999689 -0.000468766 -2.63959e-23)
(0.999052 -0.00201188 1.94591e-22)
(1.05801 -0.00900184 -5.60196e-22)
(0.844412 0.0052482 3.74547e-22)
(1.00128 -0.00583238 2.32692e-23)
(1.00974 -0.047317 2.60479e-22)
(1.02649 0.0238 -5.1079e-21)
(1.00002 -6.20665e-06 -3.01205e-25)
(0.983504 -0.00761182 1.13515e-21)
(1.01945 -0.00990228 1.40413e-21)
(1.05836 -0.0542711 -8.2484e-23)
(1.00658 -0.000745498 1.15758e-21)
(0.998738 -0.00178062 3.59395e-23)
(0.985333 -0.032144 2.633e-23)
(0.998164 -0.00742403 -6.25072e-23)
(1.00003 -4.76694e-06 3.31003e-24)
(0.980165 -0.0369974 -3.4976e-21)
(1.07651 0.0904036 -2.30677e-21)
(1.01457 -0.0296836 1.38888e-22)
(0.986864 -0.00428113 -8.70751e-22)
(1.00145 -0.000364755 -5.24024e-23)
(1.03005 0.0253731 6.71904e-21)
(0.999695 -0.000564218 -1.22864e-23)
(0.999014 -0.000575319 -3.91217e-24)
(0.999717 -0.000151474 -1.83067e-23)
(0.999408 -0.00189175 -4.79901e-23)
(1.20969 -0.033215 -3.07537e-22)
(1.02112 -0.0350921 1.59296e-22)
(1.00612 -0.0168613 8.096e-23)
(0.985951 -0.00627989 -3.97848e-22)
(1.00004 -4.51637e-05 3.22315e-24)
(1.02815 -0.115814 3.64717e-21)
(1.16858 -0.128049 3.83328e-23)
(1.02773 -0.123616 -1.72874e-21)
(0.995915 -0.0286635 -5.02422e-22)
(1.01157 -0.0087286 1.30651e-21)
(0.999833 -8.7948e-05 8.17781e-24)
(0.990848 -0.00986149 -5.1235e-22)
(0.966241 -0.0361269 -2.00698e-21)
(1.18883 -0.0470171 5.01844e-22)
(1.00836 0.0693332 -2.50839e-22)
(0.999074 -0.00284407 3.9397e-23)
(0.957234 -0.0249014 1.12066e-21)
(0.996256 -0.00243334 -3.41033e-22)
(1.02563 -0.0335784 6.61908e-24)
(1.12664 0.0444629 5.30225e-22)
(1.00035 -0.00011986 -4.51347e-23)
(0.999876 -0.000189985 -2.78413e-24)
(1.23331 0.0536032 1.156e-22)
(1.16643 -0.059427 5.78998e-22)
(1.01499 -0.0149276 4.639e-22)
(0.997658 -0.00155084 1.79513e-22)
(0.998341 -0.000410583 -1.77259e-23)
(0.971251 -0.0372824 4.91257e-22)
(0.999862 -0.000314684 -9.45836e-24)
(1.01241 -0.0307767 -1.2894e-23)
(0.989448 -0.00122627 1.67311e-21)
(1.00067 0.0171492 -4.26907e-21)
(1.08416 0.0969792 -1.21922e-21)
(1.04052 -0.0741061 6.9125e-22)
(0.989236 -0.0592303 1.56558e-21)
(1.00532 -0.00133508 5.76082e-22)
(1.01095 -0.0229839 -3.39861e-22)
(1.14467 -0.0652808 -1.18556e-21)
(0.987569 -0.0651389 -9.70025e-22)
(1.01086 -0.041297 5.11009e-22)
(0.999999 -5.96962e-06 -3.6807e-26)
(1.12232 -0.0675031 -1.26157e-21)
(0.979775 -0.002388 1.55604e-22)
(0.985279 -0.0714512 1.91566e-21)
(1.01453 -0.0273847 -4.25734e-22)
(0.965914 -0.0120292 -3.4854e-22)
(0.999681 -0.00026756 -8.96117e-24)
(0.997622 -0.00115992 -8.0031e-23)
(1.04935 0.0395202 8.18313e-21)
(0.97671 -0.00881906 -5.97647e-22)
(0.999988 -1.75024e-06 2.40272e-25)
(0.997722 -0.000478303 -1.87748e-22)
(1.08973 -0.129016 -5.22083e-21)
(0.999869 -4.49109e-05 2.03452e-23)