/*--------------------------------*- C++ -*----------------------------------*\
  =========                 |
  \\      /  F ield         | OpenFOAM: The Open Source CFD Toolbox
   \\    /   O peration     | Website:  https://openfoam.org
    \\  /    A nd           | Version:  7
     \\/     M anipulation  |
\*---------------------------------------------------------------------------*/
FoamFile
{
    version     2.0;
    format      ascii;
    class       surfaceScalarField;
    location    "16";
    object      phi;
}
// * * * * * * * * * * * * * * * * * * * * * * * * * * * * * * * * * * * * * //

dimensions      [0 3 -1 0 0 0 0];

internalField   nonuniform List<scalar> 
43924
(
-594.901
665.655
-70.7539
1063.12
-1072.38
9.25988
-335.163
382.648
-47.4848
228.745
-259.417
30.6713
-498.614
498.614
222.897
-265.081
42.1839
-366.347
364.108
2.23939
24.8478
-561.703
536.855
663.426
-833.402
169.977
-1009.27
1102.25
-92.9733
553.048
-142.443
-410.606
-530.888
536.741
-5.85286
-687.883
582.688
105.195
-859.817
868.878
-9.06169
264.241
58.4674
-322.708
386.075
-10.5271
-375.548
814.637
-666.85
-147.788
-403.085
399.815
3.26975
161.338
314.774
-476.112
290.948
-357.651
66.7032
-594.09
81.6533
512.437
724.352
-60.9259
50.1616
-385.325
136.584
-489.597
353.012
236.039
-127.425
-108.614
1067.57
-4.44661
659.883
-681.033
21.1506
-278.254
-3.00495
281.259
300.916
-36.6753
-441.315
543.843
-102.528
951.097
-249.139
-701.959
-670.198
758.11
-87.9122
241.041
-225.292
-15.7491
477.94
-68.5418
-409.398
132.812
-411.066
268.564
-431.23
162.667
432.627
-582.657
150.029
291.823
-36.9178
-254.906
824.089
-978.428
154.339
1061.32
-237.229
-1018.08
1035.64
-17.5598
404.06
-94.0859
-309.975
704.012
110.625
192.047
-307.754
115.707
1228.47
-777.702
-450.767
-591.279
149.964
539.289
-538.686
-0.602317
230.51
645.517
-876.027
224.118
537.291
-761.409
-110.13
542.758
-368.655
167.036
201.619
-15.8248
-224.578
240.403
-663.954
-6.24411
240.381
-17.4838
424.443
-38.3681
-272.071
-56.5924
328.664
524.976
-499.979
-24.9974
-34.2481
-559.842
-462.673
40.7624
421.911
-298.867
-25.0317
323.898
799.512
17.5778
-817.09
-409.163
570.501
-17.2513
-236.308
253.559
-214.42
482.984
-321.268
435.937
-114.668
261.933
240.543
-502.476
497.001
-127.364
-369.637
428.366
-46.8567
-381.509
-450.155
-29.6423
479.797
-986.622
-31.4629
1060.37
7.19308
297.951
284.815
-582.766
-242.048
546.337
-304.289
169.689
83.0838
-252.773
-432.389
382.075
50.3146
-370.587
375.217
-4.62956
292.927
-162.234
-130.694
-251.278
-61.9383
313.217
-699.302
16.5439
682.758
407.869
-94.314
-313.555
-255.917
255.917
87.3259
-763.106
675.78
-661.836
66.9344
-947.223
848.222
99.0009
-311.87
-54.4774
-43.7459
212.793
-169.047
522.397
-138.945
-383.452
-644.575
-43.3085
652.511
-69.8227
102.681
80.1259
-182.807
-353.867
87.8273
266.039
-311.032
59.7537
845.584
-621.466
563.117
-591.324
28.207
229.065
-97.6816
-131.383
-359.789
132.442
227.348
-18.2317
249.542
-231.31
-846.691
847.368
-0.677679
-27.8973
-162.611
190.509
268.754
6.79575
-275.55
-711.454
12.1517
-267.597
284.278
-16.6812
778.743
20.769
426.479
-629.448
202.969
202.557
-218.382
-755.105
815.673
-60.5677
643.167
-717.617
74.4493
74.6982
577.812
943.85
-846.972
-96.8779
-219.69
237.402
-17.7122
200.248
40.7929
351.636
118.243
-469.879
1009.09
-256.884
-752.208
19.0854
563.398
-582.483
-13.1304
-587.189
600.319
539.019
-241.068
104.479
427.331
-531.81
-303.377
408.441
-105.064
76.753
-814.829
738.076
-697.9
455.852
-23.369
-189.231
212.6
19.1927
-855.059
835.866
-302.057
317.7
-15.6437
-37.1589
299.092
24.1298
-890.681
866.551
-354.327
334.704
19.6231
-87.9651
-315.12
8.17969
-282.951
274.771
703.213
-786.351
83.1381
726.193
-860.272
134.079
-145.453
337.5
180.34
112.587
196.19
-205.836
9.64594
279.689
-304.611
24.9219
-127.236
553.715
624.079
327.019
149.862
74.7572
-224.619
277.879
-317.516
39.6378
197.622
-228.666
31.0442
-27.4721
296.226
-341.678
-12.6495
1.39306
-189.285
187.892
226.005
-64.1982
-161.807
181.123
827.969
-198.076
-739.276
937.352
-101.178
-397.436
522.728
16.5612
224.611
-225.688
1.07754
252.761
-201.784
-50.977
13.0121
-226.899
213.887
-394.802
630.656
-235.854
53.3545
506.097
-559.451
984.063
-886.381
-97.6818
790.941
-787.095
-3.84573
-571.221
-239.472
810.693
-146.137
722.136
-575.999
456.277
-443.898
-12.3787
-218.595
0.386655
218.208
31.8974
-762.376
730.479
-168.009
-200.647
-249.216
235.143
14.0734
241.329
-12.5837
28.8446
1020.88
-572.444
-448.438
735.195
-933.271
-400.37
96.9931
17.0617
208.944
16.446
-778.217
761.771
-90.3936
-856.83
418.079
-452.636
34.5567
-106.621
832.814
54.8395
-736.219
681.379
-211.046
-7.54951
277.879
-0.327475
242.586
-242.258
-432.97
432.97
83.0579
679.158
-762.216
-316.007
48.4099
-579.143
598.228
322.779
-292.214
-30.5648
-777.833
-63.2719
841.105
-142.708
445.019
-302.311
434.757
87.6399
428.423
-443.427
15.0047
239.482
-41.8606
-211.144
-325.487
536.631
501.755
-381.609
-120.146
-328.664
16.8964
311.767
785.048
-81.8352
-521.178
-78.743
599.921
-661.104
661.104
-125.214
501.25
-376.035
94.8418
-344.523
249.681
-919.756
348.535
307.139
-359.183
52.0441
436.9
19.3771
810.457
-492.981
-317.476
914.903
-64.4357
-850.467
78.839
150.226
-847.111
614.108
233.003
-21.6991
260.024
-238.325
-213.118
221.044
-7.92589
-41.7203
-489.168
874.817
-890.093
15.2763
-61.1836
429.975
-11.8959
787.842
-790.859
3.01708
245.02
-20.4097
16.1756
-235.865
822.133
-963.822
141.689
246.132
-342.459
96.3276
570.741
-570.741
899.945
-93.2454
-806.7
594.304
73.0679
-667.372
53.9228
-326
272.077
-202.753
273.227
-70.4742
-470.437
327.729
54.053
733.789
-393.128
529.713
259.196
-180.357
-683.951
-176.321
484.374
-630.511
453.703
-501.32
47.6174
-895.346
1029.27
-133.922
-580.862
555.794
25.0683
505.649
-582.487
76.8382
128.713
730.906
-859.62
211.339
530.669
-742.008
723.34
505.13
321.919
739.399
326.841
-232.467
-94.3736
-296.554
296.554
371.307
-402.354
31.047
-28.3122
1088.68
270.46
-324.355
53.8945
529.849
-476.494
-297.429
-562.388
551.782
-565.926
14.1438
-29.4801
904.297
252.607
-274.306
-207.869
191.116
16.7529
499.075
-587.866
88.7909
-197.742
959.022
-761.28
588.838
-83.1893
771.453
-384.047
-387.406
339.597
-48.6485
472.004
548.878
-201.916
158.17
-743.854
59.9033
-931.471
36.1244
477.81
47.1655
-679.824
891.163
-691.561
-63.5437
190.648
-200.873
10.2244
-74.0136
915.18
-841.167
-38.0505
-817.794
855.845
185.71
-184.317
34.5245
167.411
-201.936
-9.65183
-366.011
375.663
319.88
-311.7
-603.494
208.692
-239.953
442.921
-202.968
908.548
-678.037
303.58
23.2602
274.482
16.0513
-290.533
-566.981
164.503
402.478
461.104
-32.6811
519.821
-730.964
-359.896
-10.6915
647.17
-746.154
98.9839
-225.756
154.905
70.8514
-656.295
638.991
17.3042
212.949
-213.276
75.9552
183.24
-742.678
825.736
-324.363
317.525
6.83817
68.0745
-363.773
295.698
235.133
-207.442
-27.6911
526.761
-328.792
-197.969
7.36224
-347.007
339.645
-497.499
484.369
-74.7808
283.551
-208.77
-660.194
156.609
503.585
-347.751
-12.0385
653.845
6.03772
445.976
-21.5336
-164.354
13.0732
151.281
-21.6128
722.558
-700.945
-851.313
980.027
321.564
-148.818
-172.746
677.336
-775.131
97.7949
423.322
348.131
706.452
59.5176
-765.97
818.097
81.8483
547.438
-524.959
-22.4788
1093.71
-1012.31
-81.405
5.57399
-297.327
291.753
284.741
-10.2598
95.247
140.792
210.997
-14.8066
194.335
-201.579
7.2434
145.974
147.784
-293.757
-305.801
285.34
20.4607
-160.012
-296.405
456.418
420.895
-546.11
-321.302
195.543
-195.904
0.361035
194.804
1009.62
-565.1
-444.521
525.982
-109.158
-416.824
132.894
510.273
77.1261
470.312
20.7225
-690.274
711.659
-21.3853
47.515
-548.322
500.807
-84.853
-248.108
332.961
-449.3
39.3168
409.983
-140.6
-336.121
476.72
780.008
-1.26528
22.6653
183.602
-370.268
186.666
161.214
-235.995
-920.672
849.044
71.6272
-297.961
306.049
-8.08851
667.741
-82.925
-584.816
1047.02
-603.807
-443.211
193.769
-194.534
0.765218
260.547
-111.521
-149.026
-422.144
418.442
3.70118
663.637
-31.9755
-631.661
-693.023
2.74941
372.405
35.4642
-565.293
445.357
119.936
582.597
-578.389
-4.20778
-855.761
44.3905
811.37
856.37
33.1986
-889.568
-424.792
284.192
-202.725
38.3716
-321.893
527.232
-205.338
-171.466
-36.4032
754.995
-793.046
-145.684
180.209
535.699
-173.736
-361.963
-123.637
-309.332
222.88
-224.253
1.3726
619.525
44.1116
683.493
-608.795
19.5994
-301.875
282.275
837.331
-876.327
38.9963
-305.451
13.2368
954.152
-957.449
3.29704
50.2475
212.58
-262.827
680.271
-33.1009
567.671
-592.877
25.2067
-829.505
848.698
182.286
-205.655
786.321
212.182
746.84
155.198
192.926
-348.125
-299.944
-8.68253
821.746
-67.4348
-754.311
595.807
-130.745
-465.062
239.487
-72.4507
85.7887
411.212
70.371
-273.124
473.879
-503.947
30.0683
142.95
-349.37
206.42
137.763
388.998
53.1602
861.742
653.017
-773.306
120.289
-22.8662
977.018
-248.845
-29.4057
278.251
-219.386
208.213
11.1727
-2.02549
171.714
48.6982
453.057
335.259
-344.911
-356.596
35.328
-336.701
37.8341
838.351
-58.3431
70.9407
-241.721
170.78
-954.227
22.7566
-917.565
-36.6622
-486.078
55.7299
430.348
-730.89
899.427
-168.537
-201.752
-59.1002
260.852
-113.165
-76.6097
189.775
-154.448
-46.224
200.672
-134.434
229.433
-94.9981
853.456
407.433
-223.831
139.596
-12.8114
-568.051
-879.036
-41.6353
445.36
150.447
190.053
-511.946
200.737
-1107
906.264
30.1217
200.75
-230.872
-13.625
-199.494
419.026
26.9502
89.1808
701.76
282.447
12.0114
-294.458
-473.252
577.731
728.73
72.8954
-801.625
-777.901
-8.44999
800.257
-854.876
54.6187
294.517
-256.771
-37.7457
81.6849
239.879
850.734
-864.981
14.2467
978.83
-862.15
-116.68
939.054
-943.629
4.57495
-393.22
-172.072
-6.13738
-872.869
549.018
323.851
-186.774
162.389
24.3845
-243.492
389.466
141.223
92.0588
-233.281
757.31
256.699
-273.95
431.73
94.2515
782.305
-695.394
-86.9114
-52.7621
-105.384
-90.5161
195.9
-309.601
260.618
48.9836
862.431
-838.301
-21.9643
380.159
-358.195
-333.578
-8.10003
569.928
-583.894
13.9656
369.337
-327.39
-41.9474
-828.473
731.199
97.2742
-905.772
831.758
142.266
118.281
-406.806
277.302
129.504
468.748
-454.224
-14.5249
621.453
-622.669
1.21605
518.159
-44.2797
-316.142
-136.631
452.773
20.4847
-269.33
-74.6195
-245.591
320.21
544.286
563.928
-1108.21
-900.868
849.214
51.6547
-3.55177
-405.357
419.405
-14.0484
432.348
-399.981
-32.3675
671.43
-844.065
172.634
710.998
-881.118
170.12
-503.688
-156.506
-437.644
76.197
361.447
306.256
-6.66579
-299.59
-326.593
172.146
474.346
78.7021
-719.685
-108.788
4.64776
189.688
-304.037
300.457
3.58006
52.5148
-348.589
296.074
490.775
39.1138
-529.889
-229.646
301.036
-71.3899
-896.197
-19.6399
915.836
-196.148
-38.0296
234.178
6.70986
-844.683
837.973
804.71
-118.451
-686.259
335.385
140.318
-214.938
-874.88
-21.3169
808.495
40.5489
-7.81005
539.273
-187.638
-506.367
-14.0827
520.45
-801.993
913.795
-111.802
314.144
-246.07
-394.509
309.656
-30.2737
590.741
63.1038
384.45
-241.501
301.668
508.789
-15.0617
27.2458
342.091
-775.755
83.7809
691.974
456.962
94.8204
-129.546
-30.9092
160.455
-851.808
-23.0713
72.3574
331.703
-200.328
227.764
-27.4363
50.7526
-280.398
-255.853
274.204
-18.3505
-19.0894
30.2015
-513.461
483.259
-610.951
-135.202
-24.1019
303.547
-279.445
-330.191
448.434
599.388
447.631
-1102.78
430.487
672.288
329.704
0.368151
-330.072
-234.366
-166.594
400.959
-524.811
549.659
-661.196
-18.1043
679.3
99.1052
90.8855
-189.991
-44.2492
799.245
838.75
-862.491
23.7416
807.523
-154.506
40.0156
-601.718
-326.655
-20.3521
556.818
57.8279
-614.646
440.746
20.3575
-349.703
393.714
-44.0104
-853.514
-3.807
857.321
-27.8173
-823.991
297.964
-273.297
-24.6671
625.208
-3.75443
567.251
-406.16
-161.091
-218.609
276.105
-57.4959
-90.1884
-266.408
-421.421
-41.2521
894.066
-183.069
-819.821
88.9307
-629.352
18.4009
-540.456
51.3998
489.056
820.552
-39.6297
-780.922
-259.594
125.159
-0.942175
-356.053
356.995
857.881
-186.451
308.437
-2.18058
636.598
-68.9274
494.178
-3.40235
801.406
-712.225
-1045.13
-57.6414
445.138
23.6106
527.105
36.0118
730.556
-698.658
795.911
-38.4349
-757.476
196.04
-223.937
276.361
-15.7439
-118.245
208.401
-195.389
474.977
15.6565
-490.634
576.6
-99.0935
-477.507
-459.847
422.152
37.6944
128.91
672.496
1.00855
-92.2301
-764.036
856.266
81.976
-669.334
587.358
228.362
-305.184
76.8222
-739.67
647.44
91.7801
712.93
-504.407
1048.69
236.847
-165.906
-271.848
-176.94
250.899
-73.9594
211.811
-261.759
49.9484
-180.64
321.862
-8.92748
-324.65
-51.2005
5.74067
-411.281
405.54
-47.5679
-162.249
-195.402
-31.0308
368.779
-337.748
-870.851
944.468
-73.6168
45.5084
-528.178
482.669
30.0333
-249.419
-755.895
106.258
649.637
356.783
-223.971
819.405
1.14706
-3.07414
216.197
-213.123
431.828
135.423
-116.891
-320.753
815.837
-201.728
-95.2015
-914.071
614.542
-329.727
129.539
44.6929
654.58
-567.255
495.677
-17.7373
343.13
-35.9907
339.241
-421.691
82.4508
200.12
-245.351
45.231
46.212
251.44
-297.652
336.043
-496.055
-3.15228
761.958
-806.207
537.807
-62.8298
-105.109
736.691
-631.582
-269.788
304.988
-35.2004
-68.1199
296.482
207.43
-190.369
-282.678
12.8901
-1057.99
586.514
471.477
-35.8935
-76.046
178.727
-310.318
295.661
14.657
-676.04
692.486
268.88
-273.807
4.92672
-473.503
177.098
-502.154
-555.837
241.943
-278.861
847.165
-946.596
99.4311
-344.089
17.4346
485.11
-627.133
142.023
-2.30898
810.804
230.624
-257.677
27.0532
-317.827
-555.042
-37.5777
294.226
-25.3459
340.827
-115.349
-225.478
-20.2548
-839.069
859.324
-875.592
484.431
391.161
-56.3791
735.537
-456.863
35.4415
-146.771
-124.58
271.352
875.672
-818.29
-57.3825
394.32
-321.963
796.59
3.66759
104.906
88.1338
-193.04
-580.555
1024.4
-443.843
147.09
-196.039
48.9493
-758.963
-144.996
903.959
130.604
210.223
853.515
-31.3813
813.473
-736.72
504.053
-418.265
8.70267
-245.011
44.3653
150.676
-195.041
307.322
231.952
-25.2821
-1098.2
619.198
479.002
7.83146
891.689
-60.5471
-831.142
-430.635
623.196
-192.562
57.1557
756.318
23.5846
-529.952
-590.537
-18.3468
608.884
410.749
147.58
-558.329
-264.708
-522.387
279.169
63.9611
-179.537
-76.3806
-406.605
352.979
53.6265
-790.563
297.582
201.61
-262.915
61.3047
222.712
-249.006
26.2939
430.558
-424.817
724.988
51.7343
-776.722
-203.665
41.0537
819.277
20.8085
-840.085
-352.889
14.6472
338.242
118.64
860.191
-410.546
451.308
411.687
-72.4467
-954.454
99.6873
854.766
789.095
102.594
-36.0221
236.142
50.745
381.603
895.785
133.484
28.8672
-485.73
28.6576
-826.768
798.11
696.148
-763.796
67.6486
636.296
465.95
769.013
-56.0328
-712.981
197.112
-50.0223
76.5194
339.528
-416.047
-735.24
792.395
261.893
174.043
-275.151
168.023
107.128
-111.164
-426.867
538.031
-32.3898
-216.826
1004.41
-573.926
86.9404
-288.693
206.535
-209.609
-102.188
-157.229
30.5825
820.151
-162.068
498.111
-598.87
752.787
-153.917
681.637
-703.25
-390.753
376.67
-442.522
-180.147
39.6022
348.82
-11.1112
-337.709
-46.2877
808.245
-505.247
-623.366
1128.61
288.155
-234.622
216.39
9.85844
197.572
-250.281
122.857
-885.283
908.941
-23.658
-268.42
255.334
13.0855
74.5165
707.789
3.36459
765.649
636.067
-16.5416
-15.1243
-512.958
470.737
42.2214
933.075
17.154
-950.229
-310.894
-41.9951
-0.544245
-234.93
794.105
-69.1172
529.02
-623.157
94.1364
-761.896
-84.7943
34.7892
259.728
885.518
10.2673
-491.013
441.036
49.9771
-950.454
-94.6798
47.4361
-384.772
337.335
-193.461
214.577
-21.1156
245.849
-34.0387
-39.8583
1050.3
-313.223
-737.078
579.622
-50.6016
46.021
-265.269
-60.7312
-691.663
772.912
-81.2488
-80.4615
-5.61529
228.327
504.865
-5.78983
92.7914
-870.625
-94.367
214.658
-120.291
-192.312
216.797
-24.4847
-681.801
570.637
-448.957
479.158
342.233
52.087
-460.973
425.033
35.9392
576.753
432.868
498.57
-460.028
-38.5415
475.846
-308.652
-167.194
-198.14
35.9058
351.046
-21.6939
-329.352
-253.559
76.6198
-326.584
289.425
-219.032
-636.729
-691.521
-81.7843
260.445
-58.8348
660.525
197.356
6.95162
228.191
815.963
-85.2904
-730.673
329.082
-142.165
647.095
-504.93
238.327
-297.428
-100.434
511.183
-750.729
8.05099
-120.305
-105.451
500.006
-94.2686
781.566
-687.297
-200.629
218.539
-17.9105
-26.312
-242.108
829.591
-737.811
223.528
-428.01
-405.579
833.589
860.869
-200.344
-43.8164
786.166
-742.35
597.419
-6.67736
17.788
-608.325
281.347
135.133
-416.48
-404.256
480.776
-21.3531
-318.813
340.166
-617.313
66.2089
551.104
-144.584
512.409
-367.824
-479.088
410.185
-483.505
73.3198
105.497
-180.466
74.9698
-183.396
338.595
-174.715
-185.18
727.24
-31.0922
102.311
581.182
-611.065
648.936
-37.8714
269.214
-293.316
-810.242
-52.249
97.1925
-433.313
590.119
460.182
-615.809
173.287
416.386
-844.396
380.177
-681.899
28.6546
653.244
-199.096
245.81
-46.7142
-816.294
886.705
-70.4114
-48.5898
-432.262
480.852
1005.36
-405.608
-599.752
-69.2599
-785.616
10.4422
287.522
-950.466
207.42
743.046
-857.716
-92.7495
-173.935
-12.8391
-777.767
731.479
-130.774
-294.758
425.532
-18.1285
-265.333
283.461
160.424
647.1
232.133
154.735
-386.868
-902.87
154.58
748.291
541.204
-580.982
39.7779
604.543
58.6009
-663.144
-44.0387
673.984
-639.861
-34.1233
353.462
-23.7582
-19.1849
220.533
-201.348
608.346
65.6385
14.3296
-792.231
721.54
-777.573
-177.78
222.145
322.957
152.889
139.599
-314.314
204.62
-208.907
4.28683
342.853
-200.056
-142.797
592.083
43.9833
-747.132
800.853
-53.7203
-399.654
-103.901
503.555
-15.2415
-288.796
251.075
54.4714
-305.546
251.86
-101.333
-150.527
418.394
-466.984
-61.7164
-740.277
-411.149
89.3348
145.798
503.56
-441.412
-62.1477
-228.117
258.238
-205.092
196.932
8.16021
17.5462
-222.098
204.552
-322.973
379.789
-56.8158
210.644
-6.82007
-203.824
450.439
554.921
-263.719
555.58
-473.927
141.112
-233.63
92.5174
-203.631
-9.00598
212.637
701.287
-96.7442
246.331
-170.375
-357.771
278.299
79.4722
-428.468
-14.1787
442.647
-352.127
449.319
313.515
-323.46
9.94485
-17.7286
34.2869
469.767
462.854
35.7154
32.0227
-460.491
183.255
7.86133
-339.727
-4.36198
-371.154
297.307
73.8465
342.801
-63.632
672.823
221.244
-232.459
250.006
-290.215
307.112
97.0266
658.628
-755.654
-736.171
-26.022
762.193
28.8883
160.635
16.779
-339.752
-690.71
621.123
69.5876
126.779
-173.063
170.31
2.75355
425.754
-144.407
-239.169
-174.023
413.192
-166.585
-346.373
222.092
-17.4712
-260.147
113.375
91.1723
-185.539
-1009.54
696.318
-348.235
348.235
851.462
242.251
-35.2981
-509.1
-500.441
210.725
326.016
528.178
42.563
546.172
-51.9949
265.315
-241.642
-23.6724
-629.433
662.361
-32.9281
-50.2702
-532.81
-46.3326
-638.207
713.411
-75.2046
84.4473
-493.61
-353.25
539.475
6.69703
528.112
17.9592
-546.071
746.703
-647.493
7.63255
-114.301
-64.8671
179.169
-414.931
88.3473
313.458
-34.1259
-279.332
-155.637
-47.0887
-303.02
290.014
13.0056
-291.365
72.7564
868.715
-195.892
-333.464
50.5127
767.615
-1.09865
-766.516
584.194
-659.072
74.8777
-922.855
830.374
92.4804
-23.9353
-637.26
110.001
298.44
-24.0065
-261.68
285.687
-783.2
20.0935
-204.495
-291.925
267.919
-466.185
511.693
-236.915
262.068
-25.1532
-304.813
299.603
5.21006
-809.647
704.538
995.98
-148.815
-166.181
300.101
-249.853
362.179
-169.253
411.699
-308.235
-103.463
288.347
54.4535
812.257
-93.0942
-719.163
184.137
-681.637
-752.26
668.539
83.7208
5.41719
-617.479
623.937
-6.45807
66.0498
180.281
-96.7986
517.694
-270.915
291.307
-20.3918
379.264
-458.432
79.1678
-608.674
649.27
-40.5959
585.49
44.6009
-630.091
241.888
-222.83
-19.0574
556.072
-23.6032
-532.468
234.837
-123.782
-111.055
-128.313
-49.3346
177.648
954.09
-945.115
-8.97591
-575.499
-388.323
-46.6016
-755.618
802.22
-897.642
834.37
-581.228
358.316
222.912
605.106
-623.453
-15.714
672.139
-656.425
21.3276
146.12
-167.447
-70.3997
-278.189
-855.976
-66.8789
15.4584
366.616
334.091
-739.699
198.001
-14.7462
-230.479
230.479
409.951
-144.126
-265.825
-911.237
25.954
-3.35846
-28.2908
-475.593
503.884
-753.716
-80.7021
487.221
-406.518
-252.409
-408.695
432.811
-10.6584
-58.9434
259.693
156.304
186.549
-540.723
398.28
-169.991
402.124
340.158
-51.8108
762.395
-707.555
-284.641
-8.46044
271.04
-946.893
-3.56079
5.60948
927.466
533.204
-448.757
-834.655
572.773
261.882
-0.561359
261.577
-261.016
350.205
-5.80682
-344.398
-462.295
31.6609
-834.736
748.46
86.276
-131.374
-179.52
195.748
39.2489
-234.997
213.106
127.052
-800.992
17.7881
-590.722
324.175
266.546
39.1606
240.528
362.89
-325.747
-37.1426
-381.985
392.427
-10.4418
847.419
-513.329
-455.058
312.893
-324.297
192.591
131.706
423.383
-720.811
568.433
-27.2291
811.249
-807.884
79.3235
155.514
-828.263
810.537
17.7259
-794.443
47.3105
-472.163
-527.845
1042.65
-186.28
931.101
-835.177
-95.924
-521.12
-463.315
984.436
-48.8471
-256.954
56.3695
226.768
-234.903
8.13567
-22.2858
-56.0726
733.409
467.936
-32.2598
-435.676
-369.875
-197.107
16.1994
-92.3887
-250.071
-153.751
417.495
-263.744
-926.107
926.107
93.082
-804.956
487.48
-511.015
69.235
441.78
-212
-194.806
168.265
-162.136
-378.587
-551.401
389.265
601.797
58.9862
192.874
422.392
-929.392
507.001
-23.3408
305.788
-222.284
-263.794
-217.453
413.745
-90.7884
-182.404
-141.893
-65.4926
-835.376
452.544
-518.159
65.6151
16.8864
-692.233
773.481
-81.2487
415.796
-421.414
5.61714
247.707
-568.403
529.738
38.6649
106.611
115.3
-221.911
197.133
-216.318
378.934
-708.788
329.854
110.542
758.336
170.967
238.984
-68.7128
-492.482
464.191
293.221
-307.903
14.6819
416.637
-37.3724
354.102
-385.133
-23.2077
-367.667
390.875
-36.9795
-267.631
317.065
11.4887
-328.553
-420.198
266.447
-389.218
41.3894
631.086
-749.537
-410.228
532.625
-313.718
-91.6391
976.652
-866.11
-492.723
-312.314
805.037
294.848
40.2909
290.201
-330.492
-453.2
138.739
-270.113
-51.883
451.335
-564.018
112.683
47.4287
613.675
-185.523
71.2213
321.582
-282.421
708.748
-329.814
268.489
-180.661
24.2038
364.95
-389.154
-28.9276
-298.027
-3.84829
-258.221
252.194
6.02661
0.47271
551.845
-528.261
36.7733
-891.591
113.374
798.333
-1.74362
330.265
-117.158
525.488
328.708
-854.196
598.401
239.95
669.576
-763.845
-744.675
103.702
640.973
273.856
61.3653
-335.221
188.813
-181.777
-7.03591
24.1329
274.466
572.902
-195.831
33.1495
162.682
-156.953
-606.865
763.818
-340.897
359.673
-18.7757
-250.571
294.158
-43.5873
-148.856
-175.499
-255.973
213.854
42.1191
920.092
-920.092
-87.4172
727.068
-639.651
294.765
-213.08
345.441
-68.1396
-657.678
191.019
28.3155
-219.334
47.7459
-586.797
539.051
32.5683
-234.528
201.96
908.196
-913.921
5.72526
300.879
-674.46
373.582
344.092
-296.656
52.1389
310.751
-350.748
876.236
557.15
-105.814
-73.1355
-244.381
-400.544
324.615
75.9282
218.676
-346.04
334.113
-500.127
166.015
-244.004
44.9083
-873.294
-73.5994
33.1811
-725.414
316.294
-183.852
796.385
-773.235
-23.1503
431.095
48.6087
-479.703
-685.626
610.691
74.9356
-242.844
208.787
34.0578
321.405
-28.1832
-426.146
-254.888
875.749
-832.337
-43.4124
-357.775
658.653
132.917
-532.571
-864.603
11.0892
-56.969
-598.627
655.596
41.4305
-136.734
-138.417
-917.706
410.713
506.993
194.352
2.58043
450.525
-34.7286
543.446
270.145
-260.178
-9.96733
-335.094
-6.17049
341.264
-548.205
438.074
-6.93596
-198.148
205.084
232.978
-41.959
-91.2637
351.808
-260.544
-356.524
6.82076
435.266
-10.2325
62.7299
-809.174
746.444
-664.304
664.304
48.9474
189.38
-87.7394
-505.237
592.977
-854.472
938.103
-83.631
741.117
55.268
-14.1494
-834.519
848.668
324.711
-342.179
17.4674
325.51
14.9795
-340.489
584.062
-636.965
52.903
45.9093
305.783
-351.692
-213.677
-115.235
328.913
198.089
-9.27639
105.864
-710.247
604.383
-760.005
267.282
352.042
-311.751
793.739
59.7754
-77.4256
-433.59
343.27
-390.127
-680.898
100.942
579.956
311.67
-276.379
-35.2908
-531.655
614.152
-82.4972
-82.0388
-363.02
445.059
409.766
-382.521
-596.706
-321.001
599.469
-724.645
125.176
-406.703
-427.952
837.855
-39.7593
-645.867
127.582
453.748
-581.329
563.569
-644.825
81.256
33.4949
-235.279
11.1086
-693.007
-322.395
321.453
7.93524
570.588
-692.733
122.146
-344.513
-430.618
-4.35626
-684.478
698.229
-13.751
763.077
-164.676
645.694
-103.004
-542.69
210.844
292.716
291.596
-298.247
6.65075
807.723
-935.886
128.163
-648.302
-96.3731
-289.373
18.4576
-327.666
86.3459
241.321
-56.6841
640.746
82.0423
-248.505
166.462
358.179
-336.077
-22.1014
-336.639
-254.083
-12.4165
203.065
-25.1176
-175.755
230.575
134.521
-365.096
-272.206
320.082
-47.8755
587.692
-675.432
24.5595
288.899
-263.525
-64.1417
-288.914
-292.314
-711.344
540.684
170.66
-111.085
-153.997
-164.559
66.877
-578.751
536.465
42.2862
576.956
-1098.08
-25.2299
-1015.23
-140.756
365.603
48.1426
-22.9571
-51.403
-757.977
126.394
850.239
-843.529
617.406
-76.7221
1.86092
589.247
-591.108
-280.679
-166.519
447.198
-38.7348
-204.11
5.55389
200.079
-211.273
11.1941
-994.992
232.616
448.403
-114.29
19.7014
-628.006
608.305
298.273
-365.012
25.648
339.364
59.3334
573.431
-632.764
-103.708
770.873
-667.165
-669.413
-195.568
-725.033
38.6263
686.407
-36.0335
567.544
-531.51
922.076
-913.751
-8.32485
561.018
-617.987
-611.189
-23.7095
634.898
-396.514
124.308
269.528
-265.04
-4.48876
801.202
-772.544
-96.1377
730.92
-634.783
460.296
10.4407
-434.166
-669.943
604.142
65.8012
399
-92.2546
-564.041
-49.6034
-11.4934
-399.787
-21.6313
208.307
-186.676
24.5946
327.447
-360.937
364.751
-3.81346
745.168
-791.77
126.416
134.437
215.145
-227.184
12.0395
684.146
-775.304
91.1578
-320.525
-675.236
-16.4265
794.664
74.0503
291.171
120.516
810.858
-16.1932
-31.5956
-1030.23
175.169
3.94383
18.6129
-566.935
159.095
-137.768
-1081.86
-243.001
236.065
69.8473
224.918
-107.771
-467.137
574.907
-2.51348
-477.539
480.052
838.932
-31.2086
570.101
75.5927
-36.0429
-205.324
241.366
739.789
-783.605
-148.312
378.887
-401.831
443.702
-41.8712
-679.251
723.25
-43.9986
280.721
-361.827
17.3037
394.886
-148.266
-246.62
174.612
-511.736
466.218
45.5181
5.06646
-461.95
460.412
1.53831
613.832
-596.044
31.5078
-159.599
590.694
-295.806
57.5172
441.097
41.6923
607.155
-648.848
-83.6822
-141.609
190.529
18.2578
31.0664
-392.772
27.7598
-412.797
10.9656
251.738
-253.874
2.13562
711.261
-682.607
-485.56
84.4729
401.087
-42.3098
626.504
-15.288
-206.81
914.267
-141.783
-772.484
518.882
537.485
-1056.37
-288.015
-19.7389
291.498
4.16395
10.2634
275.077
-689.546
-2.11761
691.664
592.079
-749.032
-210.221
195.483
14.7379
-521.526
-28.8165
-640.518
2.72912
138.383
-137.606
-428.32
-108.342
190.384
15.5796
-632.764
617.184
-39.0075
-497.741
536.748
-254.214
300.123
-69.3336
626.152
-727.146
753.288
-26.142
217.734
-482.442
240.55
-258.419
17.8685
8.54346
-837.952
28.3052
237.735
-451.412
907.845
-917.518
9.67308
636.5
14.1028
-650.603
-54.6877
-538.19
-807.25
840.448
116.533
-207.05
897.674
-78.2691
242.791
-16.0236
-60.3652
-715.978
776.343
-87.3372
-597.14
-16.814
544.926
-668.849
20.5472
209.761
-232.056
22.2954
-238.29
2.95629
235.334
-559.035
533.523
25.5118
-215.739
87.4258
63.7298
86.1458
-149.876
-880.25
314.716
20.7004
-335.416
54.9829
637.879
-692.862
-342.097
365.603
-23.506
-647.832
-21.0171
-667.945
764.972
-896.555
127.469
769.085
-146.901
-169.106
-445.837
64.2272
-457.134
-615.246
261.225
-4.52644
-291.505
291.718
-0.21276
176.881
-70.2705
-423.251
394.043
29.2077
-954.876
972.03
-281.783
99.2122
182.57
138.223
20.8723
521.912
854.59
-874.845
277.041
-37.1612
363.415
-507.999
-789.233
811.225
-21.9917
-346.576
-182.736
529.313
133.687
-176.318
42.6303
426.847
-523.645
743.586
-680.519
-63.0673
-260.205
-27.8095
327.235
-76.1602
316.962
-292.403
332.749
-652.046
-17.8972
5.49786
633.493
-372.693
148.723
20.6557
-891.507
547.491
-390.881
608.145
368.507
423.856
8.95445
744.631
-804.996
-40.422
-19.5964
827.283
70.3909
421.158
-499.886
78.728
231.937
-190.566
-41.3704
-185.975
204.827
-18.8522
-12.6311
343.895
-331.264
-617.227
658.92
434.9
248.893
-220.528
-28.3648
367.149
508.523
313.27
-334.964
706.314
105.943
76.3618
-599.827
523.465
639.855
-35.7128
37.2889
-930.348
113.872
816.477
217.96
-255.99
-252.76
-793.31
732.26
61.0498
5.28336
814.153
-819.436
927.817
-927.817
-378.486
17.5486
602.827
37.0284
-109.164
-20.3547
-192.584
212.939
437.644
27.885
-465.529
-435.931
22.0074
413.923
186.454
972.167
-453.286
-231.801
40.9143
190.886
-627.084
630.855
-3.77168
424.733
-470.417
45.6843
-430.876
-5.05528
48.4337
-764.209
715.775
-636.892
-61.0081
-549.759
518.529
31.2301
-371.916
281.728
21.0613
-236.277
215.216
-153.422
-128.361
-29.297
222.351
-31.8221
49.8857
291.526
-279.514
-71.8029
791.609
367.583
-52.8674
-769.152
32.9812
-890.028
814.424
75.6041
120.117
279.697
380.893
158.126
-753.746
858.624
331.197
186.159
-517.356
-165.751
594.455
-644.047
49.5925
478.638
54.7824
-533.42
634.948
-341.128
-293.821
-475.631
-115.693
-780.93
677.222
28.2365
-684.632
656.396
-711.339
108.516
602.823
-765.129
20.4256
28.602
508.632
-87.4746
-516.277
354.209
550.65
-586.684
-35.433
-68.0678
233.181
-165.113
43.5788
-681.785
-235.183
-236.899
168.831
-30.8712
264.573
-108.716
-155.857
156.231
-8.67355
-636.988
720.769
-26.87
193.385
-166.515
869.869
-629.073
11.5934
135.464
186.118
1.00964
397.613
-398.623
-223.28
-194.879
418.159
180.938
763.53
379.869
-355.665
-842.26
7.52367
626.411
-609.867
-0.436072
-809.423
809.859
589.555
16.1007
-605.656
843.581
45.6087
-889.19
311.937
-12.3339
125.949
-406.628
426.125
9.14108
-255.489
335.304
-79.8152
195.927
381.768
-90.5965
611.429
-55.6351
-555.794
-755.533
780.74
-25.2076
12.9049
645.451
-658.356
-645.416
113.761
-7.22682
-442.501
603.272
34.5726
323.606
-31.0146
191.079
-91.9736
-337.073
1.97913
95.9673
742.964
4.03662
-278.316
274.28
-423.85
-505.542
-57.4504
-757.749
815.2
259.275
-46.6949
192.254
-260.93
68.6756
198.384
-95.2573
-223.528
-516.877
-581.322
-791.934
-18.3084
-169.428
-815.758
776.446
39.3125
-34.5379
469.875
-435.337
59.7821
821.339
-881.121
199.786
-136.056
774.4
26.4523
-219.469
199.114
20.6482
-307.709
287.061
575.729
-573.868
-646.762
136.979
509.783
-556.13
588.832
-32.7013
32.7385
258.858
-665.192
-441.81
608.543
45.8236
-654.367
-721.932
606.76
-679.215
72.455
-154.474
-41.3568
450.113
-484.361
-846.353
851.636
105.336
-307.718
-588.837
-642.456
593.295
49.1612
183.662
-78.1658
-43.8621
457.878
177.07
-569.201
55.7407
514.223
-527.367
13.1445
73.1058
-717.673
644.568
268.29
-16.5517
-314.709
166.89
147.819
-568.505
586.464
-131.218
468.226
-337.008
681.43
-86.9756
1.41842
-318.634
317.215
-446.846
-442.777
889.623
-145.373
244.265
-98.8918
-101.213
-579.685
-567.737
414.645
153.092