/*--------------------------------*- C++ -*----------------------------------*\
  =========                 |
  \\      /  F ield         | OpenFOAM: The Open Source CFD Toolbox
   \\    /   O peration     | Website:  https://openfoam.org
    \\  /    A nd           | Version:  7
     \\/     M anipulation  |
\*---------------------------------------------------------------------------*/
FoamFile
{
    version     2.0;
    format      ascii;
    class       surfaceScalarField;
    location    "18";
    object      phi;
}
// * * * * * * * * * * * * * * * * * * * * * * * * * * * * * * * * * * * * * //

dimensions      [0 3 -1 0 0 0 0];

internalField   nonuniform List<scalar> 
43924
(
-594.9
665.884
-70.9838
1063.3
-1072.42
9.12123
-335.122
382.569
-47.4468
228.41
-259.321
30.9107
-498.586
498.586
222.559
-264.869
42.3103
-367.289
364.398
2.89106
25.1911
-562.073
536.881
663.478
-833.429
169.952
-1009.28
1102.25
-92.9725
553.452
-142.909
-410.543
-531.011
536.678
-5.66767
-687.874
582.683
105.191
-859.816
868.878
-9.06147
264.551
59.441
-323.992
386.01
-10.5074
-375.502
814.626
-666.853
-147.773
-404.265
401.016
3.24952
161.304
314.776
-476.079
290.88
-357.56
66.6797
-594.081
81.6558
512.425
724.374
-60.8965
50.1198
-385.242
136.575
-489.572
352.997
235.3
-126.263
-109.037
1067.68
-4.37874
659.876
-681.025
21.1493
-278.826
-1.97241
280.799
301.943
-37.3916
-441.429
543.841
-102.413
951.356
-249.027
-702.328
-670.803
758.719
-87.9163
241.342
-225.009
-16.3329
478.109
-68.8473
-409.261
131.805
-410.631
268.229
-431.202
162.973
433.842
-583.539
149.697
291.763
-37.1203
-254.643
824.172
-978.549
154.377
1061.44
-237.265
-1018.1
1035.65
-17.5558
403.814
-93.7726
-310.042
704.015
110.61
191.593
-307.89
116.297
1228.47
-777.703
-450.768
-591.266
149.837
539.143
-538.683
-0.459623
230.509
645.519
-876.028
224.211
537.284
-761.495
-109.686
543.527
-369.816
168.001
201.815
-15.5299
-224.619
240.149
-664.484
-6.31814
240.234
-17.6751
424.391
-38.3812
-273.583
-56.0684
329.651
524.92
-499.948
-24.9712
-34.2523
-559.829
-462.816
41.0249
421.791
-298.623
-25.5525
324.175
799.511
17.5779
-817.089
-409.162
570.465
-17.1143
-237.689
254.804
-214.778
483.006
-322.605
436.534
-113.928
261.822
239.791
-501.613
496.876
-127.071
-369.806
428.403
-47.0236
-381.38
-449.789
-29.2609
479.05
-986.632
-31.4663
1060.61
7.06472
299.158
283.508
-582.666
-242.225
546.427
-304.202
170.129
82.1636
-252.293
-432.307
382.009
50.2982
-371.805
376.096
-4.29089
294.345
-163.629
-130.716
-251.222
-61.7887
313.01
-699.301
16.5434
682.757
407.698
-93.924
-313.774
-255.664
255.664
86.356
-762.881
676.525
-662.039
67.1385
-947.223
848.223
98.9997
-312.14
-55.1491
-44.7218
214.301
-169.579
522.404
-137.905
-384.499
-644.568
-43.3056
652.503
-69.8196
102.321
80.2005
-182.521
-354.051
88.269
265.782
-310.823
59.6011
845.666
-621.455
563.946
-592.092
28.1456
228.655
-97.4349
-131.22
-360.735
133.603
227.132
-18.767
249.86
-231.093
-846.695
847.38
-0.685276
-28.249
-162.259
190.508
270.065
6.08217
-276.147
-711.453
12.152
-267.384
284.14
-16.7562
778.742
20.7688
426.717
-630.105
203.387
202.592
-218.122
-755.519
816.386
-60.8666
644.161
-717.367
73.2054
74.6947
577.808
943.849
-846.972
-96.8765
-219.141
237.547
-18.4063
199.96
41.3816
351.623
118.82
-470.443
1009.09
-256.884
-752.208
19.0019
563.44
-582.442
-13.0892
-587.215
600.304
539.079
-239.921
105.653
427.088
-532.741
-303.346
408.336
-104.99
76.7515
-814.829
738.077
-698.015
455.789
-23.704
-190.25
213.954
19.5215
-855.261
835.739
-303.027
319.086
-16.0587
-36.6634
298.485
24.1222
-890.699
866.577
-355.765
335.852
19.9133
-88.15
-316.115
8.73312
-283.45
274.717
703.321
-786.395
83.0743
726.186
-860.273
134.086
-146.124
337.717
181.775
112.57
196.738
-205.72
8.98221
280.552
-306.017
25.4657
-127.592
554.309
624.379
326.976
149.248
75.9868
-225.235
277.71
-317.317
39.6069
197.426
-229.435
32.0091
-26.8732
296.938
-342.864
-12.9004
1.41526
-189.04
187.625
225.655
-63.9026
-161.752
181.123
827.969
-198.075
-739.276
937.351
-101.174
-397.413
522.737
16.4061
224.984
-225.506
0.52168
253.774
-201.82
-51.9536
13.6642
-228.481
214.817
-394.88
631.095
-236.214
53.0407
506.456
-559.496
984.067
-886.396
-97.6703
790.936
-787.094
-3.84204
-571.635
-239.046
810.681
-146.107
722.131
-576.024
456.119
-443.857
-12.2621
-219.84
1.509
218.331
31.1584
-762.043
730.885
-168.991
-200.825
-248.972
234.931
14.041
241.3
-12.8898
28.3599
1020.88
-572.444
-448.437
735.195
-933.271
-400.242
96.896
16.8011
208.853
16.4514
-778.221
761.77
-90.3921
-856.831
417.978
-452.57
34.5923
-106.63
832.816
54.7318
-736.244
681.512
-211.397
-8.44323
277.71
0.497018
242.419
-242.916
-432.921
432.921
83.0168
679.217
-762.234
-315.822
48.438
-579.186
598.187
324.165
-293.219
-30.9458
-777.833
-63.2716
841.105
-143.246
445.365
-302.119
435.609
86.7946
428.491
-443.336
14.8454
240.37
-42.9436
-210.205
-326.524
536.729
501.672
-381.571
-120.101
-328.612
17.0343
311.578
785.104
-81.7839
-521.077
-78.8724
599.949
-661.1
661.1
-125.537
501.433
-375.897
94.9254
-343.968
249.042
-919.68
348.045
307.077
-359.052
51.9752
436.877
19.2422
810.217
-492.138
-318.079
915.526
-65.2689
-850.257
78.6242
150.03
-847.131
614.133
232.998
-22.4011
260.813
-238.412
-212.715
221.071
-8.35618
-41.9184
-489.092
874.85
-890.106
15.2556
-62.149
429.929
-11.9517
787.907
-791.031
3.12375
244.925
-19.9405
16.777
-235.918
822.133
-963.821
141.689
246.923
-342.208
95.2844
570.728
-570.728
899.945
-93.2443
-806.701
594.295
73.0696
-667.365
54.3435
-326.192
271.848
-203.414
274.547
-71.1333
-470.787
327.541
53.9691
733.938
-393.111
529.686
258.735
-180.111
-683.96
-176.313
484.401
-630.508
453.681
-501.294
47.6121
-895.806
1029.85
-134.047
-580.786
555.776
25.0106
505.699
-582.451
76.7519
128.773
731.346
-860.119
211.332
530.676
-742.009
723.341
505.13
321.946
739.491
326.573
-232.397
-94.1755
-296.391
296.391
371.27
-402.31
31.0392
-28.2597
1088.87
270.371
-324.237
53.8657
529.902
-476.861
-297.429
-562.387
551.764
-565.873
14.1096
-29.4592
904.309
252.717
-275.118
-208.741
191.174
17.5666
499.061
-587.847
88.7865
-197.732
959.027
-761.294
588.824
-83.1246
771.492
-383.973
-387.519
339.513
-48.6327
472.003
548.878
-203.24
158.518
-743.854
59.8939
-931.992
36.1867
477.784
47.1359
-679.832
891.164
-692.174
-63.3454
190.31
-200.902
10.592
-74.0128
915.185
-841.172
-38.0509
-817.794
855.845
185.466
-184.05
35.5246
167.066
-202.591
-9.55168
-366
375.552
320.232
-311.499
-603.948
209.068
-241.358
443.526
-202.168
908.548
-678.04
303.568
23.005
275.605
16.3977
-292.003
-567.033
165.357
401.676
461.038
-32.5467
520.825
-731.03
-360.788
-11.0162
647.128
-746.154
99.0255
-224.717
154.469
70.2474
-656.284
638.987
17.2973
213.701
-213.204
75.7379
182.997
-742.744
825.761
-325.721
318.924
6.7974
68.0686
-363.703
295.635
235.476
-207.034
-28.4418
526.72
-328.768
-197.952
7.50489
-346.958
339.453
-497.469
484.38
-75.9601
284.724
-208.764
-660.311
156.824
503.487
-347.74
-12.9954
653.838
6.03815
445.904
-21.5132
-164.898
13.8223
151.076
-21.6623
723.065
-701.403
-851.815
980.589
321.44
-148.96
-172.48
677.334
-775.128
97.794
423.427
348.065
706.438
59.5317
-765.97
818.098
81.8472
548.211
-525.591
-22.6196
1093.71
-1012.31
-81.4051
5.43726
-297.116
291.678
286.223
-10.6174
94.5631
140.737
210.819
-14.0817
194.413
-201.321
6.90844
145.679
147.928
-293.607
-305.636
285.199
20.4373
-160.537
-296.307
456.845
420.781
-546.317
-321.107
195.606
-195.584
-0.0213285
194.251
1009.55
-564.37
-445.177
525.967
-109.153
-416.813
134.112
510.05
77.3308
470.88
21.1378
-690.67
711.835
-21.1646
47.2812
-548.193
500.912
-85.5142
-247.908
333.422
-449.231
39.2909
409.94
-140.583
-336.106
476.689
780.007
-1.2652
22.7645
183.609
-370.978
187.369
160.964
-236.924
-920.685
849.085
71.5996
-297.714
306.003
-8.28941
668.12
-83.2095
-584.911
1047.02
-603.807
-443.211
193.839
-194.239
0.39936
259.743
-111.764
-147.979
-422.056
418.405
3.65081
663.57
-31.914
-631.656
-693.181
2.5111
372.649
35.0493
-566.157
446.333
119.824
582.707
-578.363
-4.34419
-855.761
44.3915
811.369
856.37
33.1985
-889.569
-424.763
284.18
-202.704
37.8061
-321.968
527.858
-205.89
-171.33
-37.4101
754.995
-793.046
-145.111
180.636
536.705
-174.028
-362.677
-123.625
-309.296
222.562
-223.891
1.32927
619.527
44.0431
683.485
-608.791
19.817
-301.843
282.026
837.364
-876.34
38.9758
-306.756
13.5368
954.368
-957.649
3.28113
51.2053
213.02
-264.225
680.266
-33.1375
567.846
-592.837
24.9911
-829.321
848.843
183.218
-206.922
786.334
212.174
746.852
156.34
192.041
-348.381
-299.708
-8.55901
822.346
-68.3727
-753.973
595.822
-131.079
-464.743
240.152
-72.1509
85.4879
411.388
71.012
-274.426
473.871
-503.938
30.0666
142.871
-349.284
206.413
137.75
388.971
54.0211
861.505
653.024
-773.299
120.275
-22.8337
977.202
-249.069
-30.3451
279.414
-218.952
208.388
10.5637
-1.14867
171.278
48.6611
453.011
335.231
-344.783
-356.977
34.3713
-336.945
38.3218
838.35
-58.3432
72.1142
-243.21
171.096
-954.701
22.7082
-918.067
-36.6333
-486.072
55.8845
430.188
-731.224
899.793
-168.569
-202.469
-58.1991
260.668
-114.222
-76.0905
190.312
-153.666
-46.9703
200.636
-135.437
229.516
-94.0797
853.457
408.253
-224.643
139.552
-12.7635
-568.023
-879.077
-41.6075
444.96
150.863
190.545
-512.513
200.741
-1107.01
906.269
29.6651
200.962
-230.627
-13.1174
-199.597
418.977
26.927
89.1762
701.76
282.091
13.136
-295.227
-473.112
578.765
728.737
72.887
-801.624
-778.016
-8.37916
800.387
-854.944
54.5567
296.215
-257.684
-38.5312
81.868
239.572
850.742
-864.977
14.2353
978.83
-862.15
-116.68
939.067
-943.639
4.57164
-394.232
-171.926
-5.95084
-872.893
549.195
323.698
-186.406
162.291
24.1143
-243.579
389.259
141.135
92.0122
-233.147
757.077
258.107
-275.221
431.72
94.2468
782.392
-695.581
-86.8111
-52.7418
-106.037
-89.8057
195.843
-309.374
260.616
48.7573
862.448
-838.326
-21.9203
380.075
-358.155
-334.873
-7.99127
570.035
-583.844
13.8097
369.176
-327.376
-41.8007
-828.479
731.201
97.2779
-905.776
831.763
142.298
117.445
-406.727
277.238
129.489
468.653
-454.182
-14.4717
621.424
-622.666
1.2424
518.15
-44.2784
-317.561
-135.76
453.321
21.3692
-270.438
-74.2275
-245.717
319.945
544.286
563.929
-1108.21
-900.868
849.214
51.6539
-3.37025
-405.301
419.329
-14.0288
432.285
-399.945
-32.3402
671.54
-844.338
172.798
711.04
-881.234
170.195
-503.58
-156.731
-439.002
76.5379
362.464
306.099
-6.63214
-299.467
-326.443
172.777
474.419
79.0331
-719.688
-108.791
4.97497
189.438
-303.766
300.501
3.26484
52.625
-349.968
297.343
490.687
39.1746
-529.862
-229.916
300.99
-71.0741
-896.196
-19.6398
915.836
-195.116
-38.828
233.944
6.6682
-844.949
838.281
804.709
-118.446
-686.263
334.717
140.496
-214.723
-874.879
-21.317
808.509
40.5758
-7.48213
539.828
-188.205
-507.033
-13.9238
520.957
-801.993
913.795
-111.802
314.087
-246.019
-394.931
309.417
-30.2544
590.735
63.1022
384.358
-241.487
301.007
509.21
-14.9333
27.1105
342.066
-776.01
84.0964
691.913
456.918
94.8458
-128.821
-31.6811
160.502
-851.808
-23.0711
72.0803
331.734
-199.816
227.766
-27.9506
50.3924
-280.308
-256.866
275.662
-18.7962
-19.011
29.862
-513.377
483.515
-610.989
-135.165
-23.9027
303.355
-279.452
-330.239
449.058
599.388
447.63
-1102.78
430.487
672.289
329.658
0.362678
-330.021
-233.143
-167.657
400.8
-524.766
549.957
-661.198
-18.1716
679.37
99.1065
90.5647
-189.671
-44.2495
799.245
838.785
-862.504
23.7193
807.517
-154.493
39.7585
-601.831
-326.455
-20.5026
556.817
57.8223
-614.639
440.565
20.4727
-349.645
393.58
-43.9346
-853.537
-3.80199
857.339
-27.8175
-823.991
299.568
-274.673
-24.8944
625.208
-3.78389
568.316
-406.906
-161.41
-218.009
276.283
-58.2744
-89.3659
-267.611
-421.292
-41.5242
894.18
-183.14
-820.169
88.9446
-629.343
18.3548
-540.33
51.2431
489.087
820.551
-39.6293
-780.922
-259.97
124.533
-0.760548
-356.056
356.817
858.153
-186.613
308.321
-2.22169
636.602
-68.7553
494.181
-3.49324
801.403
-712.226
-1045.13
-57.6415
445.104
23.5498
527.774
36.1726
730.113
-698.955
795.941
-38.4479
-757.493
195.745
-223.994
276.195
-15.5781
-118.22
209.774
-196.11
474.972
15.6403
-490.613
576.545
-98.8803
-477.665
-459.771
422.114
37.6569
128.906
672.496
1.36713
-92.5798
-763.581
856.161
81.0776
-669.363
588.285
228.133
-305.008
76.8743
-740.01
647.43
91.7756
712.934
-504.407
1048.69
238.3
-166.186
-273.096
-177.279
250.313
-73.0338
211.307
-261.74
50.4336
-180.547
321.682
-9.06216
-325.811
-51.1901
5.69698
-411.203
405.506
-47.5643
-162.203
-195.356
-30.8799
368.612
-337.732
-870.851
944.467
-73.616
45.5068
-528.166
482.66
30.9152
-249.867
-755.886
106.244
649.641
356.404
-224.599
819.405
1.1466
-3.22432
217.495
-214.271
432.583
135.733
-117.304
-321.698
815.857
-201.724
-95.2029
-914.075
614.198
-330.69
129.799
45.1088
654.514
-568.158
495.617
-17.5082
343.014
-35.9368
339.206
-421.65
82.4445
200.004
-246.224
46.2198
46.4294
251.172
-297.601
335.998
-496.535
-3.29197
761.957
-806.207
537.788
-62.8153
-105.243
736.82
-631.576
-269.718
304.84
-35.1216
-68.1997
296.333
207.093
-190.292
-282.521
12.8031
-1058.35
586.767
471.579
-35.8904
-76.1043
178.425
-310.21
295.567
14.6432
-676.037
692.489
268.806
-273.724
4.9175
-473.962
177.654
-502.386
-555.961
241.673
-278.793
847.165
-946.596
99.431
-344.032
17.5774
485.268
-627.08
141.812
-2.33286
810.842
230.925
-258.885
27.9605
-318.474
-554.419
-37.5553
294.141
-25.3353
341.562
-115.144
-226.418
-20.251
-839.581
859.832
-875.778
484.199
391.578
-56.3339
735.551
-457.022
35.73
-146.143
-125.699
271.842
875.712
-818.954
-56.7576
394.117
-322.037
796.647
3.7405
105.022
87.7839
-192.806
-580.555
1024.4
-443.843
146.9
-195.799
48.8988
-758.965
-144.994
903.96
130.473
211.089
853.514
-31.3812
813.473
-736.722
503.913
-418.425
8.48384
-246.173
45.4221
150.219
-195.641
307.222
232.606
-25.0608
-1098.2
619.198
479.002
7.87323
891.69
-60.5466
-831.144
-430.627
623.143
-192.517
57.1542
756.319
23.4931
-530.526
-590.535
-18.3387
608.874
411.991
147.087
-559.078
-264.711
-522.383
279.127
63.887
-179.351
-76.3133
-406.563
352.946
53.6169
-790.6
298.463
201.52
-262.803
61.2831
222.363
-249.321
26.958
430.48
-424.783
725.367
51.8094
-777.176
-203.541
41.2821
819.658
20.7996
-840.457
-353.777
15.2898
338.487
118.64
860.19
-410.389
451.414
411.649
-72.4436
-954.461
99.6901
854.77
789.096
102.594
-37.0544
237.058
50.7136
381.572
896.333
133.52
28.593
-485.615
28.6658
-826.789
798.123
696.393
-764.214
67.8212
636.299
465.951
769.013
-56.0327
-712.98
196.881
-49.9809
76.4964
339.511
-416.007
-735.241
792.395
263.046
173.487
-274.294
168.027
106.267
-111.168
-426.861
538.03
-32.3473
-216.625
1004.41
-573.926
85.8969
-288.366
207.703
-210.927
-102.328
-156.993
30.5935
820.149
-162.582
498.579
-599.267
753.323
-154.056
682.108
-703.771
-391.16
377.236
-442.548
-180.118
39.5854
348.806
-11.2833
-337.522
-46.288
808.246
-505.247
-623.366
1128.61
288.102
-234.9
216.133
9.60604
197.487
-249.607
123.344
-885.287
908.945
-23.6585
-268.918
255.238
13.6798
74.4291
707.963
3.36447
765.648
636.011
-16.4841
-15.1168
-512.853
470.795
42.058
933.076
17.1538
-950.23
-311.129
-42.6474
-0.510967
-234.857
794.568
-69.2009
529.02
-623.152
94.1318
-761.909
-84.7852
35.5569
260.658
886.036
10.2973
-490.975
441.006
49.9691
-950.454
-94.6798
46.6228
-385.084
338.462
-193.393
215.451
-22.0574
245.983
-34.676
-39.8392
1050.3
-313.222
-737.078
579.618
-50.5978
46.9764
-265.048
-61.1436
-691.876
773.763
-81.8872
-79.52
-6.3778
228.741
504.85
-5.78887
92.7911
-870.624
-94.0233
214.386
-120.363
-192.603
216.584
-23.9814
-681.8
570.632
-449.268
479.13
342.288
51.8294
-460.909
425.001
35.908
577.1
432.447
498.549
-460.015
-38.5344
476.658
-308.777
-167.881
-199.017
35.3877
350.963
-21.6549
-329.308
-253.004
75.7252
-325.673
289.01
-219.033
-636.728
-691.528
-81.771
260.34
-58.8192
660.826
197.326
6.95443
227.977
816.02
-85.211
-730.809
329.043
-142.155
647.083
-504.928
238.847
-297.046
-99.7914
511.783
-750.747
8.0028
-119.465
-105.252
500.006
-94.4794
782.033
-687.554
-200.246
218.758
-18.5115
-26.9517
-241.966
829.591
-737.815
223.317
-428.04
-405.907
833.948
861.128
-200.302
-43.8568
786.715
-742.858
597.412
-6.67688
17.7786
-608.314
281.174
135.694
-416.868
-404.233
480.729
-21.492
-318.626
340.118
-617.265
66.1485
551.117
-144.37
513.237
-368.867
-479.237
410.086
-483.446
73.3604
105.446
-180.144
74.6974
-182.612
338.951
-174.88
-185.908
727.663
-31.2694
102.307
581.178
-611.06
648.926
-37.8661
269.207
-293.11
-810.279
-52.2251
97.1761
-433.283
590.119
460.181
-615.805
173.257
416.678
-844.718
381.055
-681.896
28.6542
653.242
-199.034
246.616
-47.5822
-816.294
886.705
-70.4105
-48.5492
-432.251
480.801
1005.36
-405.61
-599.75
-69.1892
-785.755
10.6094
288.958
-950.465
207.42
743.045
-857.715
-92.7505
-173.766
-12.6394
-777.767
731.479
-131.069
-295.008
426.077
-17.7085
-265.5
283.208
160.412
647.106
233.393
154.45
-387.843
-902.87
154.579
748.291
541.199
-580.976
39.7768
604.542
58.6001
-663.143
-44.096
673.962
-639.863
-34.099
353.411
-23.7525
-19.9529
221.068
-201.115
608.351
65.6101
14.2632
-792.279
721.54
-777.572
-177.39
222.812
323.126
153.532
140.266
-315.146
204.471
-208.711
4.24047
342.664
-199.968
-142.696
592.089
43.9221
-747.212
800.883
-53.6713
-401.031
-103.014
504.046
-14.9179
-288.848
251.202
55.51
-306.712
251.563
-101.141
-150.422
418.383
-466.932
-61.7162
-740.277
-411.11
90.1634
145.313
504.628
-441.659
-62.9694
-228.255
257.92
-204.776
196.666
8.11028
18.5884
-222.812
204.224
-322.904
379.715
-56.8109
210.88
-7.36066
-203.519
450.44
554.92
-263.426
555.571
-473.915
141.03
-232.682
91.6511
-203.252
-9.46884
212.72
701.286
-96.7434
245.903
-170.165
-357.72
278.005
79.7148
-427.936
-15.1692
443.105
-352.113
449.289
313.206
-323.438
10.2324
-17.5929
34.0058
469.907
462.843
35.7065
33.0335
-460.969
184.204
6.96947
-339.525
-4.50735
-370.995
297.334
73.661
342.7
-63.5732
672.95
221.23
-232.218
250.807
-290.019
307.053
98.0354
658.268
-756.303
-736.243
-25.9771
762.22
29.3569
161.288
16.7787
-339.683
-690.706
621.12
69.5864
125.965
-173.669
170.034
3.63494
426.114
-144.94
-239.282
-174.725
414.007
-166.403
-346.45
221.895
-17.4241
-260.655
114.512
91.3484
-185.372
-1009.54
696.318
-348.175
348.175
851.462
242.251
-35.2925
-509.099
-500.441
210.61
326.069
528.166
42.5613
546.091
-51.9104
266.773
-242.499
-24.2738
-629.428
662.35
-32.9219
-50.2729
-532.764
-46.4218
-637.89
714.125
-76.2353
84.4154
-493.577
-353.225
539.468
6.62263
528.327
18.7139
-547.041
746.83
-647.465
7.60271
-113.632
-65.5496
179.182
-414.437
88.7639
313.272
-34.0129
-279.26
-155.172
-47.5328
-302.877
289.912
12.9649
-291.531
73.5222
868.817
-195.867
-333.628
50.1787
767.689
-1.15131
-766.537
584.192
-659.063
74.8712
-922.855
830.375
92.4804
-23.8711
-637.327
110.015
298.322
-23.9104
-261.617
285.527
-783.924
21.0431
-204.379
-291.752
267.842
-466.175
511.682
-237.799
263.489
-25.6902
-304.563
299.649
4.9139
-809.829
704.585
995.979
-148.815
-166.74
301.681
-250.476
361.984
-169.943
412.792
-308.768
-104.024
288.222
54.4778
812.364
-92.6407
-719.723
184.16
-681.629
-752.666
669.033
83.6332
5.44351
-617.456
623.981
-6.52515
65.8436
180.06
-97.0845
517.865
-270.481
291.654
-21.1735
379.246
-458.411
79.165
-608.668
649.261
-40.5933
585.518
44.5601
-630.078
242.174
-222.576
-19.5985
556.12
-23.7037
-532.417
233.902
-122.883
-111.019
-127.602
-49.1953
176.798
954.322
-945.328
-8.99418
-575.498
-388.323
-46.557
-755.775
802.332
-897.642
834.37
-582.436
359.082
223.354
605.103
-623.442
-15.5295
672.338
-656.809
22.1169
145.378
-167.495
-70.5561
-279.412
-855.976
-66.8789
15.4588
366.55
334.088
-739.698
198.193
-13.9887
-230.271
230.271
409.478
-143.048
-266.43
-911.242
25.9551
-3.32692
-28.015
-475.855
503.87
-753.72
-80.6938
487.195
-406.501
-252.407
-408.692
432.743
-10.6287
-58.5617
259.524
156.195
186.469
-541.081
398.171
-169.499
402.892
340.066
-51.8434
762.441
-707.709
-284.581
-8.32818
270.989
-946.893
-3.56082
5.6098
927.467
533.168
-448.753
-835.184
572.953
262.232
-0.023269
261.287
-261.264
350.206
-5.99452
-344.211
-462.248
31.6215
-834.779
748.502
86.2763
-130.943
-180.187
195.677
40.2164
-235.893
213.091
126.975
-800.992
17.7859
-590.492
324.584
265.909
38.8735
241.678
362.774
-325.676
-37.0973
-382.975
393.678
-10.7026
847.419
-513.33
-455.05
312.895
-324.074
192.462
131.612
423.382
-720.811
568.428
-27.2285
811.248
-807.884
79.4147
154.487
-828.36
810.719
17.6415
-794.475
47.2631
-472.163
-527.846
1042.65
-186.28
931.1
-835.177
-95.9228
-521.121
-463.315
984.436
-48.8136
-256.822
55.8472
226.648
-234.652
8.00391
-22.2576
-56.0719
733.406
468.049
-32.4911
-435.558
-369.344
-197.69
16.6683
-91.4308
-250.777
-154.377
418.585
-264.207
-926.042
926.042
93.0512
-805.044
486.965
-510.99
69.2273
441.763
-211.951
-194.776
168.971
-162.577
-378.504
-551.766
389.189
601.902
58.8368
192.726
422.237
-929.503
507.266
-24.2636
306.355
-222.405
-263.667
-217.224
414.514
-91.3882
-182.275
-141.798
-65.4917
-835.376
452.537
-518.15
65.6128
16.9413
-692.727
774.03
-81.3022
415.791
-421.333
5.54193
247.578
-568.325
529.736
38.5894
105.647
115.755
-221.401
196.801
-216.754
378.934
-708.788
329.854
110.542
758.336
170.304
239.174
-68.7044
-492.448
464.433
293.154
-307.808
14.6539
416.619
-37.3731
354.078
-384.958
-23.1089
-367.654
390.763
-37.5197
-268.498
317.938
11.9504
-329.889
-421.242
266.865
-389.109
41.2361
631.09
-749.536
-410.195
532.549
-313.654
-91.6462
976.652
-866.11
-492.726
-312.312
805.038
294.68
40.0873
290.211
-330.298
-453.54
139.422
-270.365
-51.8703
451.297
-564.002
112.705
47.4281
613.672
-185.724
72.0917
322.609
-283.735
708.748
-329.813
268.607
-180.338
24.1753
364.932
-389.107
-28.8566
-297.776
-4.06775
-257.963
252.059
5.9036
0.57615
552.395
-528.902
37.3007
-891.591
113.37
798.454
-1.8074
330.179
-117.089
525.488
328.708
-854.196
598.4
239.95
669.837
-764.316
-745.36
103.862
641.498
274.824
61.7968
-336.621
188.577
-181.526
-7.05086
24.5149
274.476
572.904
-196.049
33.8002
162.249
-156.938
-606.875
763.813
-340.694
359.865
-19.1705
-251.217
293.795
-42.5772
-148.796
-175.44
-255.9
213.594
42.3055
920.092
-920.092
-87.4037
727.065
-639.662
294.685
-212.817
345.379
-68.1405
-657.7
190.898
28.2515
-219.15
46.6156
-586.629
540.013
33.6077
-235.537
201.929
908.21
-913.932
5.7216
300.899
-674.469
373.57
344.472
-297.85
52.0842
310.689
-350.748
876.236
557.137
-105.839
-73.0944
-244.222
-400.486
324.352
76.1333
218.914
-345.985
333.921
-500.121
166.201
-244.944
45.9102
-873.294
-73.5993
33.2101
-725.937
316.795
-183.193
796.385
-773.236
-23.1487
431.068
49.0531
-480.122
-685.619
610.687
74.9323
-243.726
208.879
34.8467
321.312
-28.1578
-426.141
-254.884
876.085
-832.607
-43.4781
-357.761
658.66
132.196
-533.227
-864.624
11.0869
-56.7969
-598.981
655.778
41.8139
-136.87
-137.424
-917.771
410.506
507.265
194.064
2.60123
450.454
-34.6635
543.446
271.537
-261.519
-10.018
-335.022
-6.15365
341.175
-548.751
439.065
-5.96332
-199.088
205.051
232.802
-41.9036
-92.0366
352.832
-260.795
-356.392
6.74644
435.208
-10.2078
62.3185
-809.267
746.949
-664.302
664.302
49.7632
189.083
-88.0352
-505.273
593.309
-854.473
938.104
-83.6307
741.118
55.2663
-14.1477
-834.522
848.669
324.644
-342.097
17.4525
325.454
14.8984
-340.353
584.099
-636.955
52.8564
45.9231
306.93
-352.853
-213.765
-115.918
329.683
197.831
-9.25406
105.964
-710.29
604.326
-760.006
267.28
351.832
-311.745
793.739
59.7752
-77.4186
-433.572
343.14
-390.163
-680.949
101.039
579.909
312.868
-277.465
-35.403
-531.591
614.254
-82.6635
-82.0213
-363.006
445.027
409.604
-382.494
-596.127
-321.644
600.156
-724.677
124.521
-406.802
-428.382
837.856
-39.7566
-645.863
126.536
454.739
-581.275
563.568
-644.819
81.2514
34.5004
-236.32
11.1088
-693.005
-322.21
321.45
7.35732
570.581
-692.731
122.15
-344.511
-430.617
-4.06231
-684.532
698.211
-13.6791
763.076
-164.675
645.675
-102.989
-542.686
211.807
292.821
291.348
-298.126
6.77825
807.723
-935.884
128.161
-648.82
-96.54
-289.993
19.5126
-327.383
85.5432
241.84
-56.6394
640.738
83.1835
-249.461
166.277
358.121
-336.031
-22.0902
-337.536
-252.956
-12.7846
203.095
-25.4906
-175.411
230.387
135.118
-365.504
-272.137
320.015
-47.8786
587.84
-675.875
24.4512
288.821
-264.109
-63.2743
-289.446
-292.989
-711.342
540.687
170.656
-111.118
-153.751
-164.262
66.8268
-578.687
536.453
42.2344
576.956
-1098.08
-25.1767
-1015.06
-140.761
365.883
48.6309
-22.9115
-51.4013
-758.087
126.511
850.512
-843.844
617.404
-76.717
1.86082
589.246
-591.106
-281.012
-166.292
447.304
-39.6161
-204.11
5.79209
199.613
-211.21
11.5972
-994.874
232.831
448.425
-114.504
19.6969
-628.001
608.305
298.288
-364.995
25.83
339.165
59.5462
573.432
-632.979
-103.605
770.964
-667.359
-669.421
-195.556
-725.502
38.602
686.9
-35.5792
567.908
-532.328
922.318
-913.972
-8.3459
561.351
-618.148
-611.189
-23.7001
634.889
-396.425
124.288
270.87
-266.446
-4.42383
801.221
-772.555
-96.1214
730.913
-634.791
460.172
10.6224
-434.134
-669.931
604.142
65.7897
399.024
-92.2474
-564.037
-50.547
-11.4506
-399.752
-22.5445
209.18
-186.635
24.3933
327.439
-360.868
364.693
-3.82595
745.32
-791.877
125.604
135.064
214.968
-226.98
12.0125
684.147
-775.301
91.1538
-320.845
-676.063
-15.8132
794.716
74.1008
291.147
120.502
810.956
-16.2394
-31.9321
-1030.13
174.866
3.94332
18.8046
-566.997
158.906
-136.789
-1082.06
-242.856
236.893
70.0215
224.664
-107.755
-467.135
574.89
-2.50811
-477.533
480.041
838.931
-31.2076
570.097
75.5782
-37.1255
-205.178
242.304
740.265
-784.122
-148.898
379.285
-402.257
443.786
-41.5294
-679.256
723.24
-43.9844
281.566
-361.145
17.1771
394.623
-147.227
-247.396
174.762
-511.711
466.201
45.5105
5.02406
-461.85
460.591
1.25942
613.821
-596.043
31.9549
-160.066
591.135
-295.629
57.5125
441.074
41.6402
607.199
-648.839
-83.0651
-141.944
191.439
17.4402
31.1355
-392.56
27.5649
-412.879
10.622
251.63
-253.754
2.12388
711.259
-682.605
-485.476
84.4076
401.068
-42.3044
626.496
-16.2864
-206.526
914.267
-141.781
-772.485
518.882
537.486
-1056.37
-288.63
-19.2601
291.4
4.16692
10.264
274.935
-689.791
-2.26672
692.058
592.088
-749.027
-210.413
195.144
15.2698
-522.23
-27.9564
-641.406
3.34717
137.683
-137.565
-428.309
-107.907
191.09
15.8169
-633.17
617.353
-38.9717
-497.748
536.719
-255.271
301.194
-69.3289
626.145
-727.345
753.359
-26.014
217.731
-482.442
241.865
-258.734
16.8699
9.08879
-838.027
28.1984
238.604
-452.369
908.268
-918.001
9.73271
636.551
14.0408
-650.592
-54.4855
-538.352
-807.25
840.448
117.133
-206.939
897.674
-78.2688
242.552
-15.9038
-60.3693
-715.98
776.349
-87.4157
-597.116
-17.5513
545.878
-669.491
20.6709
209.408
-232.235
22.8267
-238.074
2.86568
235.208
-558.966
533.521
25.4444
-214.788
87.186
63.2179
86.4426
-149.661
-880.251
314.699
20.599
-335.298
54.9798
637.88
-692.86
-341.876
365.871
-23.9944
-648.355
-21.1364
-667.544
765.579
-896.571
127.482
769.089
-146.76
-169.062
-445.756
64.1853
-457.113
-615.308
262.47
-4.36342
-291.297
291.584
-0.28675
176.495
-70.8488
-423.169
393.999
29.1703
-954.877
972.031
-282.689
98.8949
183.794
137.353
21.5533
522.06
855.095
-875.346
276.997
-37.4251
364.396
-508.766
-789.26
811.243
-21.9834
-346.682
-183.235
529.917
133.518
-175.997
42.4794
426.767
-523.852
744.11
-680.882
-63.2281
-260.192
-28.4385
328.193
-76.991
316.781
-292.33
332.586
-652.045
-17.8862
5.50352
633.483
-372.195
147.596
20.6549
-891.506
547.578
-390.754
608.144
368.507
423.82
8.92288
744.633
-805.002
-40.372
-18.7907
827.283
70.3906
421.152
-499.878
78.7258
232.965
-192.058
-40.9073
-185.874
205.661
-19.7871
-12.2861
343.708
-331.421
-617.273
658.914
435.63
249.034
-220.158
-28.8767
366.691
509.021
313.23
-334.885
706.907
105.456
76.6269
-600.064
523.437
639.844
-35.7024
37.8629
-930.365
113.884
816.48
217.391
-256.219
-252.558
-793.307
732.261
61.0463
5.27699
814.183
-819.46
928.008
-928.008
-378.421
17.5536
602.826
37.0178
-109.16
-21.1052
-192.281
213.386
437.632
27.8744
-465.507
-435.81
21.8925
413.917
186.495
972.168
-453.286
-231.407
40.7382
190.669
-627.104
630.847
-3.74253
425.602
-470.356
44.7541
-430.856
-4.95351
47.9986
-764.376
716.378
-636.852
-61.1625
-549.705
518.522
31.1831
-372.304
282.938
21.7284
-236.691
214.963
-154.536
-128.153
-29.2302
222.61
-31.1708
49.1847
292.481
-279.345
-71.7805
791.609
367.472
-52.7729
-769.183
32.9401
-890.028
814.425
75.6029
120.462
280.553
380.1
158.979
-753.931
858.646
330.999
186.621
-517.62
-165.564
594.454
-644.045
49.5915
479.339
54.8474
-534.186
635.556
-341.607
-293.949
-476.304
-115.788
-781.038
677.433
28.0621
-684.814
656.752
-711.335
108.515
602.82
-764.933
20.9904
29.5773
508.625
-87.4729
-516.78
354.198
551.432
-587.012
-35.429
-67.9428
232.799
-164.856
44.7441
-682.634
-234.923
-236.504
168.561
-30.7437
265.068
-108.333
-156.735
157.161
-8.55589
-636.598
720.694
-27.7557
194.113
-166.357
869.869
-629.122
11.6662
135.556
187.053
1.00897
397.603
-398.612
-223.117
-195.419
418.536
180.937
763.53
379.826
-355.651
-842.312
7.53306
626.41
-609.866
-0.48477
-809.836
810.321
589.554
16.0962
-605.65
843.946
45.6876
-889.633
311.714
-12.0647
125.689
-406.701
426.094
9.11453
-255.452
335.261
-79.8086
195.58
381.734
-90.5869
611.397
-55.5744
-555.822
-755.668
780.983
-25.3152
12.8842
646.015
-658.9
-645.479
113.888
-7.1571
-442.484
603.657
34.5575
323.564
-30.9374
190.807
-91.7006
-336.981
1.95916
95.9662
742.964
3.9773
-278.222
274.245
-423.591
-505.912
-57.4494
-757.75
815.2
260.422
-47.4025
191.93
-261.25
69.3207
197.918
-95.1813
-223.317
-516.877
-581.322
-791.945
-18.3337
-169.032
-815.758
776.446
39.3123
-34.5269
469.853
-435.326
59.782
821.339
-881.121
199.446
-136.228
774.477
26.4059
-219.941
198.835
20.6051
-307.571
286.966
575.728
-573.867
-646.645
135.932
510.712
-557.304
588.696
-31.3916
32.5793
258.769
-665.195
-441.814
608.543
45.8218
-654.365
-721.933
606.76
-679.215
72.455
-153.936
-42.1134
450.102
-484.354
-846.385
851.662
105.46
-307.732
-588.839
-642.449
593.291
49.1574
183.376
-77.9302
-43.8257
458.115
177.44
-569.459
56.082
514.229
-527.338
13.1093
73.117
-717.672
644.555
268.17
-16.5396
-314.466
166.804
147.662
-568.705
587.418
-131.348
469.505
-338.157
681.428
-86.9747
1.34123
-318.526
317.185
-446.856
-442.775
889.631
-144.961
244.795
-99.8339
-101.307
-579.642
-568.572
415.592
152.98
401.833
-35.4386
-366.395
3.11786