/*--------------------------------*- C++ -*----------------------------------*\
  =========                 |
  \\      /  F ield         | OpenFOAM: The Open Source CFD Toolbox
   \\    /   O peration     | Website:  https://openfoam.org
    \\  /    A nd           | Version:  7
     \\/     M anipulation  |
\*---------------------------------------------------------------------------*/
FoamFile
{
    version     2.0;
    format      ascii;
    class       surfaceScalarField;
    location    "1";
    object      phi;
}
// * * * * * * * * * * * * * * * * * * * * * * * * * * * * * * * * * * * * * //

dimensions      [0 3 -1 0 0 0 0];

internalField   nonuniform List<scalar> 
43924
(
-594.996
662.432
-67.4363
1058.61
-1069.91
11.305
-335.76
383.777
-48.0171
233.463
-260.883
27.4195
-499.018
499.018
227.584
-268.087
40.5022
-353.324
360.905
-7.58084
19.7869
-556.451
536.664
662.652
-832.982
170.33
-1009.19
1102.18
-92.9866
547.216
-135.452
-411.763
-529.17
537.634
-8.46437
-688.03
582.765
105.265
-859.828
868.892
-9.06365
256.177
46.2785
-302.455
387.014
-10.8134
-376.201
814.819
-666.824
-147.995
-384.812
383.347
1.46451
161.838
314.752
-476.59
291.924
-358.964
67.0395
-594.22
81.6164
512.604
724.002
-61.3499
50.7435
-386.504
136.728
-489.966
353.238
249.401
-148.416
-100.985
1064.02
-5.41573
659.993
-681.161
21.1673
-269.49
-20.1643
289.655
284.14
-27.9633
-439.607
543.856
-104.249
947.52
-250.842
-696.678
-660.675
749.143
-88.4679
237.468
-229.597
-7.87066
475.58
-64.1855
-411.394
150.18
-419.671
273.415
-431.798
158.383
414.761
-568.439
153.678
292.744
-34.1637
-258.58
822.856
-976.651
153.795
1059.57
-236.716
-1017.87
1035.5
-17.6246
407.66
-98.5208
-309.139
703.984
110.835
198.918
-306.326
107.408
1228.45
-777.687
-450.764
-591.313
151.706
541.448
-538.817
-2.63072
230.531
645.479
-876.01
222.805
537.356
-760.161
-115.207
529.967
-353.124
152.986
200.138
-19.8535
-224.139
243.993
-656.194
-4.48113
242.497
-14.913
425.212
-38.1976
-250.537
-61.1377
311.675
525.796
-500.42
-25.3765
-34.1892
-560.031
-460.664
36.983
423.681
-302.662
-17.6334
320.295
799.54
17.5765
-817.116
-409.167
571.005
-15.3184
-218.511
233.829
-209.362
482.777
-300.127
424.951
-124.824
265.589
255.112
-520.701
498.809
-131.476
-367.334
427.806
-44.4697
-383.336
-459.748
-36.1666
495.915
-986.462
-31.4124
1055.15
8.86937
280.504
305.084
-585.588
-239.391
544.937
-305.546
161.867
99.47
-261.337
-433.577
383.036
50.5412
-352.645
363.641
-10.9956
269.2
-142.114
-127.085
-252.105
-64.0103
316.116
-699.323
16.5565
682.766
410.523
-99.8115
-310.711
-259.45
259.45
100.407
-764.713
664.306
-658.998
64.002
-947.23
848.209
99.0203
-308.723
-44.6014
-28.4218
192.161
-163.74
520.693
-153.704
-366.989
-644.677
-43.3523
652.635
-69.8705
107.541
79.2161
-186.757
-351.51
81.7501
269.76
-313.969
61.864
844.426
-621.621
550.212
-580.525
30.3132
234.669
-101.021
-133.648
-344.16
114.476
229.684
-10.8073
245.352
-234.545
-846.626
847.199
-0.573303
-23.1452
-167.527
190.672
248.639
15.58
-264.219
-711.466
12.1434
-270.573
286.237
-15.6632
778.763
20.7765
423.75
-620.306
196.556
202.187
-222.041
-747.261
804.227
-56.9655
628.81
-721.184
92.3734
74.7521
577.883
943.866
-846.968
-96.8975
-227.718
235.925
-8.20681
204.534
32.9337
352.439
109.712
-462.151
1009.09
-256.883
-752.204
20.2502
562.774
-583.024
-13.7128
-586.827
600.539
538.992
-258.487
87.7191
429.587
-517.306
-303.832
409.935
-106.104
76.7775
-814.834
738.057
-696.233
456.842
-14.7272
-178.259
192.987
14.1935
-850.522
836.328
-290.414
298.116
-7.70227
-45.6689
311.258
24.2369
-890.429
866.192
-332.779
319.493
13.286
-83.1114
-301.7
0.355294
-276.074
275.719
701.654
-785.718
84.0642
726.291
-860.253
133.963
-135.954
334.872
159.747
109.453
186.875
-207.188
20.3132
269.497
-284.871
15.3747
-121.443
545.193
619.777
327.743
157.697
55.4548
-213.152
280.275
-320.346
40.0716
202.147
-219.45
17.3034
-34.3172
282.956
-326.092
-6.68792
1.09993
-192.663
191.563
230.87
-68.1971
-162.673
181.123
827.964
-198.079
-739.277
937.356
-101.244
-397.775
522.74
18.7074
219.826
-228.492
8.66573
239.754
-203.047
-36.7071
8.26947
-205.071
196.801
-393.929
624.419
-230.49
58.183
500.923
-559.106
984.002
-886.158
-97.8439
791.008
-787.109
-3.8988
-577.835
-234.306
812.141
-146.585
722.207
-575.622
458.591
-444.56
-14.0307
-197.63
-16.326
213.956
51.6189
-772.46
720.842
-153.475
-199.65
-252.612
238.092
14.5202
241.867
-8.40372
33.6024
1020.9
-572.443
-448.462
735.195
-933.274
-402.2
98.3682
20.5704
210.299
16.3632
-778.144
761.781
-90.4177
-856.812
419.538
-453.599
34.0604
-106.495
832.786
56.388
-735.904
679.516
-203.597
5.96677
280.275
-12.1002
245.701
-233.601
-433.678
433.678
83.6339
678.301
-761.935
-318.609
48.0354
-578.514
598.764
303.156
-280.075
-23.0809
-777.839
-63.2751
841.114
-134.828
440.212
-305.383
420.905
99.7886
427.417
-444.649
17.2321
228.544
-26.3976
-223.753
-310.607
534.36
502.955
-382.167
-120.788
-329.413
14.9804
314.433
784.233
-82.5785
-522.644
-76.9041
599.548
-661.17
661.17
-120.397
498.585
-378.187
93.8748
-356.141
262.266
-920.292
342.457
308.046
-361.045
52.9987
437.291
21.3
820.198
-511.112
-309.086
904.102
-52.8743
-851.227
81.7537
152.915
-846.809
613.747
233.061
-11.3001
249.383
-238.083
-218.885
220.983
-2.09794
-39.0198
-490.15
874.301
-889.874
15.5731
-45.8994
430.66
-11.1215
786.894
-788.366
1.472
246.647
-26.8209
7.98215
-235.7
822.144
-963.838
141.694
233.352
-346.764
113.411
570.943
-570.943
899.952
-93.2634
-806.688
594.443
73.0477
-667.491
48.0989
-323.518
275.419
-189.302
253.228
-63.9257
-465.464
330.636
55.2657
731.628
-393.371
530.099
265.506
-183.752
-683.815
-176.438
483.971
-630.556
454.031
-501.722
47.6912
-887.158
1019.66
-132.507
-581.994
556.103
25.8901
504.919
-582.966
78.0465
127.965
724.149
-852.114
211.439
530.561
-742
723.327
505.125
321.521
738.051
330.602
-233.487
-97.1149
-298.858
298.858
371.84
-402.995
31.1552
-29.1361
1084.29
271.726
-326.029
54.3026
529.518
-471.335
-297.43
-562.398
552.049
-566.672
14.6229
-29.796
904.097
251.955
-263.255
-196.784
191.294
5.49003
499.292
-588.152
88.8594
-197.869
958.942
-761.073
589.033
-84.1137
770.966
-385.15
-385.817
340.809
-48.8845
472.026
548.879
-183.845
155.423
-743.858
60.0427
-922.934
35.7765
478.226
47.5707
-679.714
891.153
-682.156
-65.1054
195.437
-200.737
5.29982
-74.0235
915.109
-841.085
-38.0433
-817.798
855.841
189.079
-187.979
20.752
172.942
-193.694
-11.0916
-366.138
377.229
315.178
-314.823
-597.018
203.089
-218.463
432.43
-213.966
908.527
-677.996
303.815
26.787
262.188
8.45007
-270.638
-569.422
152.009
417.413
462.016
-34.5982
504.786
-728.538
-347.946
-4.69876
647.781
-746.144
98.3631
-245.537
163.16
82.3766
-656.461
639.058
17.4034
202.947
-215.047
78.906
186.6
-741.694
825.327
-302.681
298.404
4.27752
68.1553
-364.78
296.625
228.711
-213.339
-15.3718
527.364
-329.144
-198.22
5.3915
-347.73
342.338
-497.941
484.228
-57.7415
264.081
-206.34
-658.506
153.608
504.898
-346.629
2.46857
653.961
6.03246
447.044
-21.8323
-155.061
0.461716
154.6
-21.3793
715.075
-693.696
-843.635
971.6
323.413
-146.96
-176.453
677.368
-775.18
97.8116
421.855
349.111
706.663
59.3193
-765.982
818.087
81.8643
536.413
-515.163
-21.2504
1093.69
-1012.29
-81.4032
7.47688
-300.296
292.819
264.325
-2.13733
107.619
141.782
213.208
-26.3328
193.485
-205.26
11.7747
150.085
145.84
-295.925
-308.154
287.357
20.7961
-152.212
-298.359
450.571
422.834
-543.231
-324.021
194.909
-200.449
5.54055
202.441
1008.52
-569.379
-439.138
526.215
-109.231
-416.984
115.665
513.145
74.8318
461.581
12.7428
-684.315
709.079
-24.7647
50.8323
-550.215
499.383
-75.1972
-251.441
326.638
-450.311
39.6992
410.612
-140.857
-336.309
477.166
780.031
-1.26784
21.2123
185.134
-361.087
175.953
162.448
-220.19
-920.464
848.466
71.9975
-301.429
306.78
-5.35117
662.065
-78.4897
-583.575
1047.04
-603.814
-443.222
193.021
-198.731
5.70973
275.46
-107.12
-168.341
-423.402
418.997
4.40511
664.652
-32.8838
-631.768
-690.594
6.27878
369.176
41.3468
-550.396
430.81
119.586
580.877
-578.614
-2.26332
-855.761
44.3776
811.384
856.362
33.2
-889.562
-425.216
284.359
-202.982
47.9205
-321.536
518.519
-196.982
-174.337
-22.4468
754.997
-793.041
-154.31
175.062
520.55
-168.207
-352.343
-123.814
-309.864
227.264
-229.214
1.95049
619.564
45.0872
683.619
-608.867
16.6303
-302.387
285.757
836.821
-876.112
39.2916
-286.895
6.81979
950.84
-954.433
3.59281
39.1164
202.082
-241.198
680.353
-32.5718
565.185
-593.502
28.3168
-831.06
845.253
172.003
-186.73
786.132
212.289
746.653
137.926
206.751
-344.677
-303.411
-10.4363
811.527
-54.142
-757.385
600.072
-126.298
-473.774
230.879
-77.8923
90.0652
408.744
64.1029
-253.405
473.995
-504.085
30.0903
144.08
-350.588
206.508
137.964
389.4
41.0898
863.012
652.917
-773.408
120.491
-23.5062
974.346
-248.19
-15.0395
263.229
-225.87
204.937
20.9334
-17.4577
179.325
49.2282
453.727
335.655
-346.746
-349.373
49.2463
-333.635
30.9726
838.371
-58.3394
57.9942
-219.085
161.091
-945.854
22.9194
-909.285
-36.5685
-486.183
53.5383
432.644
-725.855
894.091
-168.236
-189.64
-74.4544
264.095
-98.3967
-84.9405
183.337
-167.151
-34.0546
201.206
-118.266
227.831
-109.566
853.448
396.462
-211.328
141.358
-13.5068
-568.487
-878.448
-42.0155
455.121
144.951
182.795
-504.331
200.69
-1106.88
906.191
36.4319
197.973
-234.405
-20.5218
-198.363
419.756
27.2876
89.2472
701.761
286.266
-4.95973
-281.306
-474.367
562.086
728.629
73.0149
-801.644
-776.215
-9.50333
798.333
-853.847
55.5144
270.821
-246.074
-24.7473
79.2275
244.185
850.607
-865.017
14.4104
978.838
-862.156
-116.682
938.843
-943.468
4.62498
-378.46
-171.936
-8.68523
-873.57
538.536
335.034
-191.838
163.831
28.0066
-242.328
392.412
142.462
92.7195
-235.182
758.652
238.421
-253.739
431.894
94.3212
781.088
-692.793
-88.2952
-53.0533
-94.4883
-102.101
196.589
-312.808
260.706
52.1022
862.177
-837.941
-22.5904
381.343
-358.752
-314.276
-11.8156
568.298
-584.54
16.2413
371.627
-327.586
-44.0405
-828.378
731.16
97.2179
-905.704
831.68
141.723
133.737
-407.947
278.231
129.716
470.146
-454.854
-15.2923
621.894
-622.723
0.828828
518.293
-44.2978
-294.017
-148.995
443.013
6.96812
-255.158
-80.0771
-243.953
324.03
544.281
563.924
-1108.2
-900.874
849.206
51.6674
-6.02803
-406.165
420.501
-14.3361
433.252
-400.489
-32.7632
669.781
-840.137
170.356
710.348
-879.451
169.102
-505.222
-153.284
-417.054
69.2793
347.775
308.504
-7.15641
-301.347
-329.021
161.87
473.459
73.7565
-719.642
-108.735
0.237772
193.247
-307.902
299.974
7.92801
47.4178
-326.951
279.534
492.036
38.2451
-530.281
-226.073
301.882
-75.8082
-896.204
-19.6403
915.845
-214.29
-24.4154
238.706
7.25137
-840.684
833.432
804.71
-118.52
-686.19
348.986
137.961
-218.038
-874.889
-21.3156
808.288
40.178
-12.2383
531.702
-179.263
-496.275
-17.589
513.864
-801.997
913.799
-111.802
314.961
-246.806
-388.725
313.527
-30.5549
590.833
63.1278
385.75
-241.67
314.065
506.133
-16.8434
29.1557
342.471
-781.441
93.8235
687.617
457.59
94.4591
-141.436
-18.0525
159.489
-851.816
-23.0726
76.2522
331.408
-207.568
228.008
-20.4401
55.7622
-281.836
-244.367
254.004
-9.63745
-20.1917
35.0704
-514.778
479.708
-610.392
-135.752
-26.8622
306.241
-279.379
-330.065
439.777
599.392
447.645
-1102.76
430.478
672.284
330.367
0.440094
-330.807
-253.829
-150.75
404.579
-525.697
545.484
-661.145
-17.1615
678.307
99.1832
95.1947
-194.378
-44.2435
799.241
838.215
-862.276
24.0617
807.619
-154.702
43.8331
-600.284
-329.441
-18.2883
556.848
57.9089
-614.757
443.352
18.6634
-350.563
395.625
-45.0626
-853.182
-3.87863
857.06
-27.8168
-823.999
273.414
-255.487
-17.9269
625.239
-3.34559
550.896
-395.807
-155.089
-227.412
272.466
-45.0539
-101.883
-247.49
-423.336
-37.3279
892.456
-182.108
-814.735
88.8802
-629.455
19.0636
-542.341
53.6306
488.711
820.56
-39.6376
-780.922
-253.411
135.145
-3.47497
-356.038
359.513
854.003
-184.222
310.098
-1.59467
636.536
-71.3508
494.142
-2.1064
801.462
-712.214
-1045.12
-57.6386
445.662
24.4841
517.635
32.5767
737.346
-685.728
795.454
-38.2295
-757.225
200.215
-223.361
278.716
-18.0101
-118.616
189.641
-181.372
475.042
15.8873
-490.929
577.446
-102.156
-475.29
-460.938
422.709
38.2296
128.973
672.489
-3.82213
-106.998
-755.798
862.796
94.1926
-667.478
573.285
231.533
-307.677
76.1442
-747.009
640.011
91.8458
712.864
-504.4
1048.68
215.412
-157.418
-255.264
-171.48
261.677
-90.1972
219.12
-262.429
43.3095
-181.96
324.422
-4.71503
-309.561
-51.3545
6.3568
-412.393
406.036
-47.6192
-162.901
-196.063
-33.17
371.156
-337.986
-870.845
944.474
-73.6292
45.5395
-528.349
482.81
15.9311
-241.801
-756.045
106.455
649.59
364.1
-213.92
819.402
1.15845
-5.33408
199.545
-194.211
421.406
129.49
-109.056
-307.998
815.547
-201.8
-95.1791
-914.014
621.616
-316.532
124.743
39.0791
654.213
-553.806
496.537
-20.9571
344.778
-36.7316
339.751
-422.289
82.5387
198.607
-229.527
30.9202
43.2557
255.185
-298.441
337.217
-489.43
-1.20818
761.958
-806.202
538.078
-63.0362
-103.24
734.928
-631.688
-270.785
307.086
-36.3012
-67.0493
298.582
212.098
-191.527
-284.882
14.0967
-1051.54
582.082
469.456
-35.935
-75.3392
182.88
-311.862
297.011
14.8508
-676.078
692.442
269.949
-274.997
5.04806
-467.282
168.923
-498.156
-553.382
245.706
-279.87
847.176
-946.608
99.4325
-344.902
15.4604
482.896
-627.959
145.062
-1.96933
810.258
228.263
-241.936
13.6728
-326.419
-547.151
-37.8977
295.446
-25.4968
331.71
-119.485
-212.225
-20.3654
-830.914
851.28
-877.074
495.875
381.199
-57.0289
735.33
-454.659
31.3226
-154.175
-107.662
261.837
873.361
-807.506
-65.8549
397.266
-321.014
795.744
2.58933
103.447
92.8906
-196.337
-580.559
1024.4
-443.838
149.704
-199.362
49.6572
-758.918
-145.016
903.934
133.595
198.115
853.527
-31.3827
813.476
-736.699
506.161
-416.096
7.92486
-226.436
27.4274
157.036
-184.464
309.396
222.306
-28.529
-1098.2
619.2
479
7.25814
891.663
-60.5509
-831.112
-430.753
623.955
-193.202
57.1789
756.297
25.843
-522.118
-590.567
-18.4641
609.031
392.198
153.792
-545.991
-264.658
-522.451
279.786
64.9923
-182.122
-77.3288
-407.219
353.457
53.7615
-795.234
284.122
202.875
-264.492
61.6169
228.213
-245.26
17.0476
431.68
-425.323
719.213
50.5212
-769.734
-205.53
38.0032
813.627
21.0087
-834.636
-340.572
5.20752
335.365
118.642
860.197
-412.828
449.811
412.241
-72.4907
-954.346
99.6452
854.7
789.067
102.596
-21.1936
219.8
51.2019
382.05
886.739
132.925
32.7795
-487.438
28.5444
-826.473
797.929
692.577
-757.737
65.1602
636.247
465.932
769.022
-56.0334
-712.988
200.318
-50.6136
76.8468
339.776
-416.623
-735.218
792.397
243.872
181.08
-291.336
168.249
123.087
-111.106
-426.95
538.056
-32.9827
-219.629
1004.4
-573.922
104.905
-294.545
187.109
-192.443
-100.351
-160.532
30.4235
820.184
-154.335
491.552
-593.305
744.72
-151.415
674.119
-695.498
-385.593
368.004
-442.162
-180.56
39.8392
349.071
-8.73473
-340.336
-46.2833
808.241
-505.24
-623.36
1128.6
288.962
-230.969
220.162
13.2638
198.834
-262.61
114.194
-885.22
908.869
-23.649
-261.828
257.116
4.71126
75.7364
705.352
3.36487
765.657
636.912
-17.3479
-15.229
-514.449
469.903
44.5467
933.055
17.157
-950.212
-308.114
-32.4587
-1.10811
-235.925
787.125
-67.9124
529.031
-623.237
94.2057
-761.705
-84.9213
22.2464
248.575
877.245
9.49405
-491.577
441.482
50.095
-950.444
-94.6793
58.1672
-377.828
319.661
-195.905
203.604
-7.69895
244.334
-25.2143
-40.1359
1050.32
-313.238
-737.08
579.691
-50.66
32.6398
-268.502
-55.0155
-686.681
759.474
-72.7936
-95.6686
5.11676
223.096
505.094
-5.80122
92.7976
-870.636
-99.0812
218.497
-119.416
-188.755
220.07
-31.3146
-681.819
570.714
-444.606
479.676
341.57
55.6966
-461.904
425.518
36.386
585.891
422.626
498.883
-460.232
-38.6503
464.537
-307.502
-157.036
-182.821
40.7066
352.219
-22.2473
-329.972
-263.918
92.4382
-343.853
298.184
-219.018
-636.743
-691.435
-81.973
261.941
-59.0656
656.004
197.999
6.91761
231.174
815.127
-86.4221
-728.705
329.629
-142.31
647.275
-504.965
229.658
-304.113
-108.637
500.835
-750.456
8.76238
-136.24
-109.296
500
-91.3283
774.046
-682.718
-206.261
215.982
-9.7212
-17.2724
-244.555
829.593
-737.747
226.468
-426.943
-400.62
827.563
857.14
-201.137
-42.6878
777.984
-735.296
597.517
-6.68361
17.9244
-608.492
284.174
127.075
-411.249
-404.598
481.445
-19.3803
-321.481
340.861
-618.033
67.0839
550.949
-145.887
498.6
-352.713
-477.014
411.616
-484.348
72.7328
106.258
-184.88
78.6215
-195.349
333.276
-174.417
-173.53
721.179
-28.6021
102.376
581.244
-611.134
649.082
-37.948
269.35
-296.212
-809.69
-52.5868
97.4414
-433.751
590.122
460.196
-615.858
173.695
411.835
-838.778
367.787
-681.936
28.6612
653.275
-196.256
230.83
-34.5734
-816.286
886.712
-70.4264
-49.1651
-432.414
481.579
1005.36
-405.587
-599.777
-70.2725
-783.575
4.88756
268.526
-950.476
207.411
743.065
-857.739
-92.7365
-176.33
-15.5079
-777.763
731.48
-125.552
-292.136
417.688
-24.0001
-263.091
287.092
160.598
647.021
214.07
157.667
-371.738
-902.875
154.59
748.286
541.277
-581.071
39.7936
604.558
58.614
-663.172
-43.238
674.337
-639.868
-34.4687
354.207
-23.8402
-8.65287
213.764
-205.111
608.274
66.0627
15.3072
-791.522
721.549
-777.582
-182.918
210.345
321.045
143.492
128.84
-303.257
206.718
-211.634
4.91601
345.516
-201.309
-144.207
592.062
44.8503
-745.969
800.387
-54.4176
-378.528
-116.138
494.667
-19.7181
-288.184
246.351
40.3406
-286.692
255.977
-103.964
-152.013
418.564
-467.729
-61.7192
-740.277
-411.71
75.6411
153.07
486.337
-435.772
-50.5654
-226.391
262.823
-209.434
200.6
8.83354
1.31042
-209.785
208.475
-323.977
380.853
-56.8756
207.787
0.539447
-208.326
450.422
554.941
-267.953
555.721
-474.104
142.649
-251.399
108.75
-209.032
-2.71105
211.743
701.315
-96.7568
252.187
-173.281
-358.666
282.49
76.1758
-435.29
0.229471
435.061
-352.316
449.758
317.918
-323.906
5.98769
-19.6009
38.2656
467.895
463.03
35.8524
17.4144
-452.705
170.929
20.3645
-342.567
-2.33514
-373.396
296.942
76.4542
344.232
-64.446
670.959
221.497
-234.969
236.279
-292.977
307.957
82.7006
662.374
-745.075
-735.127
-26.6813
761.809
19.9584
149.81
16.778
-340.755
-690.776
621.171
69.6058
138.412
-163.22
174.406
-11.1853
420.899
-136.725
-238.955
-163.264
402.22
-169.165
-345.285
224.834
-18.1162
-250.681
96.5064
88.8784
-187.96
-1009.56
696.32
-349.103
349.103
851.447
242.245
-35.3788
-509.115
-500.442
212.275
325.36
528.349
42.5944
547.383
-53.241
245.164
-231.891
-13.2731
-629.519
662.536
-33.0169
-50.2342
-533.438
-45.0755
-641.278
702.242
-60.964
84.9132
-494.08
-353.613
539.64
7.74326
523.459
8.06176
-531.521
744.855
-647.937
8.06938
-124.486
-53.6252
178.111
-425.486
81.6328
316.083
-35.7161
-280.367
-163.395
-39.587
-305.048
291.465
13.5834
-288.09
60.6776
867.271
-196.311
-331.422
55.3474
766.526
-0.318229
-766.208
584.237
-659.21
74.9732
-922.845
830.365
92.4802
-24.837
-636.308
109.823
300.112
-25.3506
-262.577
287.928
-771.701
6.98819
-206.139
-294.363
269.013
-466.327
511.866
-226.88
242.37
-15.49
-308.375
299.072
9.30299
-807.115
703.876
995.992
-148.816
-157.886
276.077
-236.961
365.505
-158.754
396.111
-301.862
-94.249
290.111
54.1208
808.982
-98.8188
-710.164
183.81
-681.751
-746.187
660.879
85.3072
5.05013
-617.802
623.34
-5.53737
68.8475
183.339
-92.5154
515.35
-277.13
285.245
-8.11512
379.537
-458.747
79.2094
-608.771
649.405
-40.6342
585.091
45.1727
-630.264
238.358
-226.646
-11.7118
555.344
-22.1576
-533.187
252.531
-140.681
-111.85
-141.853
-52.0477
193.9
950.547
-941.912
-8.63581
-575.507
-388.332
-47.2742
-753.334
800.608
-897.652
834.376
-563.239
348.016
215.223
605.152
-623.616
-18.547
669.35
-650.803
6.92887
159.794
-166.723
-65.3719
-261.579
-855.966
-66.8794
15.4625
367.573
334.125
-739.712
196.283
-25.3537
-233.385
233.385
418.96
-162.117
-256.844
-911.158
25.9374
-3.88553
-32.2718
-471.871
504.143
-753.655
-80.8294
487.599
-406.77
-252.432
-408.738
433.786
-11.0775
-64.2289
262.202
157.829
187.687
-535.575
400.123
-175.639
389.709
341.479
-51.3678
761.736
-705.348
-285.5
-10.3156
271.815
-946.884
-3.55995
5.60464
927.45
533.726
-448.813
-826.873
570.293
256.58
-8.07195
265.89
-257.818
350.237
-3.19235
-347.044
-462.964
32.2104
-834.095
747.858
86.2373
-137.996
-170.117
193.922
25.1254
-219.048
213.346
128.133
-800.996
17.8296
-595.993
318.933
277.06
45.0904
224.406
364.565
-326.771
-37.794
-366.017
374.697
-8.67953
847.428
-513.303
-455.183
312.873
-327.447
194.414
133.032
423.393
-720.823
568.515
-27.2377
811.257
-807.892
77.6143
174.917
-826.842
807.879
18.9623
-793.94
47.9714
-472.16
-527.844
1042.64
-186.28
931.11
-835.167
-95.9426
-521.119
-463.317
984.437
-49.3296
-258.824
64.6112
228.478
-238.401
9.92264
-22.6978
-56.0832
733.451
466.319
-28.977
-437.342
-379.902
-189.52
9.8664
-107.797
-238.966
-143.379
401.885
-258.507
-926.158
926.158
93.5259
-809.35
500.264
-511.389
69.3516
442.038
-212.715
-195.232
157.507
-155.529
-380.046
-546.159
390.631
598.978
61.032
194.945
416.762
-928.231
511.47
-9.26526
295.531
-220.6
-265.583
-220.704
403.043
-81.9976
-184.22
-143.226
-65.5069
-835.367
452.66
-518.307
65.6469
16.0699
-684.049
765.236
-81.1868
415.884
-422.553
6.66904
249.529
-569.581
529.828
39.7538
123.935
107.14
-231.075
202.237
-210.89
378.93
-708.797
329.867
110.549
758.343
182.394
236.566
-68.8321
-493.043
460.771
294.194
-309.263
15.0689
416.897
-37.3595
354.425
-387.595
-24.6069
-367.84
392.447
-27.4717
-257.4
301.792
7.48031
-309.272
-405.279
261.9
-390.744
43.5696
631.024
-749.544
-410.702
533.729
-314.631
-91.5339
976.665
-866.116
-492.684
-312.334
805.018
297.545
43.1117
290.114
-333.226
-460.312
129.091
-267.088
-52.0615
451.885
-564.248
112.363
47.4397
613.731
-181.513
57.0276
308.745
-263.655
708.757
-329.828
266.992
-185.242
24.6077
365.213
-389.82
-29.9413
-301.541
-0.846469
-261.831
254.114
7.7166
-0.975972
544.309
-518.466
29.6641
-891.588
113.444
796.543
-0.799029
331.494
-118.148
525.486
328.713
-854.199
598.414
239.957
664.878
-756.207
-734.094
101.5
632.594
262.641
53.0672
-315.708
192.074
-185.227
-6.84707
18.9759
274.326
572.873
-192.046
21.9646
170.082
-157.167
-606.717
763.884
-343.962
357.207
-13.2451
-240.21
299.883
-59.6726
-149.701
-176.328
-257.08
217.462
39.618
920.086
-920.086
-87.6143
727.107
-639.492
295.982
-216.755
346.352
-68.121
-657.368
192.718
29.1923
-221.91
63.7391
-587.914
524.175
17.0527
-217.017
199.964
907.979
-913.757
5.77867
300.588
-674.337
373.748
336.45
-278.283
52.9342
311.631
-350.754
876.24
557.338
-105.453
-73.7161
-246.63
-401.446
328.358
73.0879
215.339
-346.815
336.931
-500.284
163.353
-227.395
31.1391
-873.284
-73.5994
33.5901
-717.639
307.399
-192.923
796.393
-773.22
-23.1729
431.859
42.0649
-473.924
-685.737
610.749
74.9873
-231.383
208.322
23.0607
322.732
-28.5386
-426.214
-254.946
870.758
-828.175
-42.5831
-357.966
658.555
142.988
-521.516
-864.303
11.1215
-59.6521
-593.407
653.059
35.0235
-134.65
-156.686
-914.575
423.864
490.71
198.296
2.30433
451.516
-35.6317
543.441
248.917
-242.967
-5.94994
-336.141
-6.39296
342.534
-538.614
423.408
-21.8418
-182.251
204.093
235.436
-42.7189
-79.4251
337.373
-257.948
-358.403
7.8401
436.098
-10.5799
68.0173
-806.241
738.224
-664.34
664.34
35.2874
194.371
-83.3508
-504.937
588.288
-854.454
938.09
-83.636
741.099
55.2935
-14.1748
-834.475
848.65
325.688
-343.365
17.6771
326.317
16.1011
-342.418
583.529
-637.097
53.5673
42.8822
290.431
-333.313
-210.165
-106.758
316.923
201.656
-9.58184
104.45
-709.645
605.195
-759.983
267.299
355.011
-311.899
793.749
59.7774
-77.5328
-433.857
345.113
-389.583
-680.16
99.5522
580.608
296.026
-259.602
-36.424
-532.598
612.78
-80.1819
-82.3052
-363.205
445.51
412.101
-382.945
-586.53
-328.044
587.178
-726.526
139.347
-405.312
-421.562
837.846
-39.7993
-645.937
141.917
438.756
-580.673
563.586
-644.909
81.323
18.6479
-221.695
11.1063
-693.042
-324.992
321.518
15.779
570.693
-692.765
122.072
-344.542
-430.638
-8.40087
-683.7
698.442
-14.7419
763.092
-164.678
645.974
-103.232
-542.742
196.73
289.608
295.086
-299.988
4.90184
807.724
-935.909
128.185
-640.035
-94.0585
-279.169
2.03897
-331.391
98.9185
232.472
-57.318
640.847
65.7914
-236.066
170.274
359.004
-336.742
-22.2616
-324.442
-271.551
-7.47358
202.91
-20.1216
-180.615
233.888
125.901
-359.789
-273.207
321.038
-47.8306
585.681
-669.032
26.076
290.007
-253.721
-77.6698
-280.409
-282.83
-711.371
540.645
170.726
-110.709
-157.378
-168.612
67.5907
-579.697
536.673
43.0238
576.959
-1098.08
-25.9709
-1015.75
-140.678
362.209
40.8335
-23.5936
-51.425
-756.415
124.727
846.18
-838.929
617.442
-76.7961
1.86265
589.265
-591.128
-276.076
-169.779
445.855
-26.3745
-205.009
2.27433
206.666
-212.441
5.77473
-992.412
219.951
448.17
-111.24
19.7715
-628.082
608.311
298.2
-365.292
23.1237
342.169
56.2646
573.469
-629.734
-105.149
769.632
-664.483
-669.295
-195.722
-718.083
39.0502
679.033
-41.9023
560.987
-519.085
918.405
-910.442
-7.96369
556.066
-615.718
-611.195
-23.8442
635.039
-397.813
124.606
248.781
-246.841
-1.93965
800.926
-772.381
-96.3735
731.035
-634.661
462.055
7.84793
-434.622
-670.118
604.151
65.9675
398.651
-92.3631
-564.098
-35.6046
-12.0936
-400.3
-8.87729
197.25
-188.372
27.3969
327.614
-361.944
365.582
-3.63774
742.946
-790.22
140.27
123.825
217.618
-230.03
12.4118
684.134
-775.35
91.2164
-313.475
-662.583
-24.0979
793.912
73.3585
291.518
120.723
809.5
-15.5884
-24.2546
-1030.39
179.873
3.95107
15.9808
-566.196
162.563
-155.634
-1082.22
-243.604
221.762
67.5188
228.463
-107.993
-467.159
575.152
-2.59029
-477.622
480.213
838.947
-31.2228
570.17
75.8038
-19.561
-205.665
225.226
732.76
-775.448
-139.878
373.766
-395.837
442.696
-46.8585
-679.19
723.391
-44.2003
270.644
-375.657
19.5166
399.399
-164.609
-234.79
171.93
-512.103
466.475
45.628
5.63337
-463.446
457.906
5.53986
613.985
-596.061
25.2135
-152.721
584.58
-298.294
57.5855
441.433
42.4399
606.504
-648.944
-92.1914
-137.406
178.444
29.8781
30.0743
-395.761
30.4683
-411.67
15.8325
253.281
-255.577
2.29588
711.299
-682.638
-486.796
85.4326
401.363
-42.3886
626.625
0.448367
-210.234
914.275
-141.811
-772.464
518.879
537.481
-1056.36
-279.664
-26.662
292.886
4.12549
10.2627
277.095
-686.114
0.207369
685.907
591.944
-749.111
-208.064
200.44
7.62373
-511.145
-40.5409
-626.937
-8.7491
151.398
-138.186
-428.486
-115.511
181.302
11.9885
-626.86
614.872
-39.5163
-497.636
537.153
-240.689
283.571
-69.4028
626.251
-724.199
752.153
-27.954
217.785
-482.443
219.917
-251.863
31.9465
-0.90976
-836.923
29.8079
225.995
-436.16
900.42
-909.418
8.99735
635.749
15.0103
-650.759
-57.5612
-535.941
-807.242
840.442
106.595
-208.696
897.679
-78.2777
246.133
-17.6544
-60.3045
-715.949
776.254
-86.2309
-597.469
-7.10754
530.567
-659.171
19.1356
214.941
-230.073
15.1321
-241.301
4.19395
237.107
-560.076
533.601
26.4748
-233.883
92.0308
70.7214
82.2785
-153
-880.243
314.957
22.1184
-337.075
55.029
637.861
-692.89
-345.521
362.043
-16.5227
-639.499
-19.6717
-672.374
755.074
-896.311
127.291
769.02
-148.857
-169.752
-446.992
64.8243
-456.695
-613.218
241.498
-3.07718
-294.417
293.622
0.795104
183.763
-59.8285
-424.429
394.7
29.7289
-954.855
972.012
-271.524
105.221
166.303
154.055
8.50797
519.885
846.679
-867.044
277.752
-33.5666
349.42
-495.307
-788.85
810.965
-22.1148
-345.579
-175.29
520.869
136.036
-180.689
44.653
428.23
-520.746
735.441
-675.324
-60.1177
-260.884
-18.7803
310.824
-64.4722
319.516
-293.44
335.044
-652.064
-18.0541
5.41879
633.639
-382.497
168.577
20.668
-891.513
546.321
-392.714
608.149
368.516
424.389
9.39747
744.595
-804.9
-41.1343
-30.7644
827.281
70.3981
421.246
-500.006
78.7599
213.507
-170.515
-42.9917
-188.729
194.344
-5.61533
-17.4384
346.619
-329.181
-616.554
658.994
430.621
247.261
-225.934
-21.3272
372.507
500.854
313.837
-336.084
696.876
112.106
72.3796
-596.341
523.961
640.014
-35.8638
27.1247
-930.1
113.689
816.412
228.353
-252.768
-255.606
-793.354
732.251
61.1023
5.38066
813.707
-819.087
923.713
-923.713
-379.419
17.4747
602.833
37.1812
-109.22
-9.96835
-197.425
207.394
437.812
28.0331
-465.845
-437.679
23.6403
414.039
186.144
972.161
-453.282
-237.198
43.2908
193.907
-626.788
630.969
-4.18117
411.373
-470.926
59.553
-431.207
-6.472
53.9554
-760.205
706.249
-637.458
-58.7752
-550.554
518.656
31.8977
-364.736
262.852
11.7682
-231.036
219.268
-138.342
-133.182
-30.2486
219.551
-41.1069
59.9092
275.699
-280.658
-72.1258
791.617
369.158
-54.2017
-768.701
33.5739
-890.033
814.411
75.6221
116.948
266.399
393.259
145.733
-751.105
858.299
334.482
179.476
-513.958
-168.35
594.471
-644.079
49.6079
467.822
54.8219
-522.644
626.128
-333.739
-292.389
-465.115
-115.41
-779.459
674.31
30.9728
-682.185
651.212
-711.409
108.536
602.873
-766.416
10.4787
14.8749
508.746
-87.4994
-509.177
354.842
538.869
-580.771
-35.4891
-69.7793
238.423
-168.644
27.4055
-668.684
-239.041
-242.309
172.529
-32.5757
259.231
-115.161
-144.07
143.72
-10.7454
-632.333
726.156
-14.3553
184.013
-169.658
869.874
-628.378
10.5761
136.03
172.716
1.0186
397.763
-398.782
-226.088
-187.025
413.113
180.95
763.524
380.481
-355.873
-841.515
7.42015
626.43
-609.874
0.336811
-803.192
802.855
589.579
16.1623
-605.742
837.124
44.5511
-881.676
315.111
-16.0385
129.623
-405.698
426.585
9.51323
-256.018
335.932
-79.9141
200.861
382.254
-90.7361
611.881
-56.4997
-555.381
-753.603
777.321
-23.7178
13.9001
636.474
-650.374
-644.585
111.987
-8.18064
-442.751
597.67
34.7912
324.213
-32.0858
194.834
-95.6505
-338.391
2.25001
95.9843
742.962
4.88921
-279.646
274.757
-425.841
-502.39
-57.4653
-757.734
815.199
240.43
-38.3482
197.685
-257.18
59.4946
206.61
-96.8575
-226.468
-516.881
-581.32
-791.745
-17.9441
-175.13
-815.766
776.453
39.3134
-34.6939
470.199
-435.505
59.7832
821.343
-881.126
204.652
-133.931
773.269
27.1177
-213.595
203.626
21.2638
-309.674
288.41
575.75
-573.887
-647.126
151.257
495.869
-537.957
589.158
-51.2008
34.9326
260.154
-665.131
-441.75
608.553
45.851
-654.404
-721.925
606.773
-679.228
72.4541
-163.762
-28.2842
450.271
-484.46
-845.883
851.264
103.537
-307.523
-588.789
-642.567
593.349
49.2176
187.594
-81.3362
-44.3637
454.914
171.214
-565.627
50.8486
514.138
-527.787
13.649
72.9513
-717.701
644.749
270.005
-16.7243
-318.091
168.11
149.981
-564.016
572.077
-127.499
448.764
-321.265
681.461
-86.9901
2.51319
-320.153
317.64
-446.695
-442.801
889.496
-152.759
237.874
-85.1151
-99.8901
-580.27
-554.664
401.221
153.443
397.962
-29.388
-368.574
-3.84822
167.008