/*--------------------------------*- C++ -*----------------------------------*\
  =========                 |
  \\      /  F ield         | OpenFOAM: The Open Source CFD Toolbox
   \\    /   O peration     | Website:  https://openfoam.org
    \\  /    A nd           | Version:  7
     \\/     M anipulation  |
\*---------------------------------------------------------------------------*/
FoamFile
{
    version     2.0;
    format      ascii;
    class       surfaceScalarField;
    location    "9.5";
    object      phi;
}
// * * * * * * * * * * * * * * * * * * * * * * * * * * * * * * * * * * * * * //

dimensions      [0 3 -1 0 0 0 0];

internalField   nonuniform List<scalar> 
11512
(
152.261
-498.158
345.897
-748.524
-7.3919
755.916
403.836
-373.97
-29.866
622.238
277.309
-899.547
1511.09
-1069.42
-441.665
1216.29
-1527.13
310.841
-69.6081
478.168
-408.56
168.535
-842.62
674.084
962.147
-1610.84
648.693
-1755.39
1662.44
92.949
-542.946
1759.24
-1140.04
1933.9
-793.864
608.906
180.913
-789.819
-24.2029
-1310.65
1334.86
219.623
-1975.01
1023.97
-381.412
-642.556
-171.492
323.753
486.476
190.372
-676.848
1155.91
-1312.69
156.782
-308.583
377.425
-68.8423
998.95
-1307.59
308.636
1221.48
798.993
-2020.48
71.4948
-1635.17
1563.67
-461.873
-1177.51
1639.39
477.711
181.668
-659.379
-195.029
-303.128
498.279
1012.81
1642.06
-1798.39
156.324
-83.7405
-1693.68
1777.42
-1558.52
650.03
908.493
-306.369
653.654
-347.285
-192.8
-153.914
346.715
1280.52
-1209.03
355.144
-1407.46
1052.32
-1754.36
1754.36
100.239
1525.87
-1626.11
-1077.23
-481.288
635.24
-704.848
-383.412
941.429
-558.017
1331.97
-1317.34
-14.6339
-1100.39
716.977
628.135
395.834
-385.842
-40.9451
426.788
-437.517
761.726
-324.21
-1618.56
1618.56
1253.6
-1437.9
184.306
-488.387
1709.87
1256.05
-314.616
1660.76
-1161.27
-499.49
80.07
-388.653
2064.5
-1134.35
-930.156
1806.92
-164.857
456.935
155.726
-612.661
-453.655
968.969
-515.313
-1165.66
1265.9
-568.905
971.306
-402.401
402.436
753.473
661.562
-493.027
-437.599
595.785
-158.186
1190.71
-835.561
2308.18
-1080.65
-1227.53
1163.28
-2007.66
844.377
-1596.81
1572.6
440.754
-1580.79
-759.241
1250.85
-491.61
-673.007
366.638
1661.47
-699.328
-1106.93
-870.892
1977.82
667.066
-357.669
-309.397
689.461
566.585
-258.203
1511.8
115.536
-319.398
203.862
-284.534
762.245
-334.498
566.536
-232.037
-324.331
810.807
-317.92
-149.941
467.861
325.814
78.0219
1450.94
-451.992
-968.967
479.034
489.933
279.262
89.6729
-368.935
950.139
-341.233
-1699.61
659.983
1039.62
15.6441
-848.939
833.295
-282.118
596.666
-314.548
156.657
-1093.78
937.12
1051.89
-1067.37
15.4838
372.843
519.378
-892.221
-245.046
701.981
-1103.97
-481.974
1585.94
-678.742
951.54
-272.798
1359.23
-1442.97
-622.415
273.712
348.703
-470.184
-1011.58
1481.77
-539.874
-792.436
1332.31
576.619
-996.722
420.104
-268.051
-317.607
585.658
407.926
-292.39
-1035.7
582.045
955.327
-798.67
-110.27
944.081
-833.811
-211.65
419.327
-207.678
-621.297
-347.67
-386.628
963.246
1856.38
-1856.38
-459.694
-162.721
-953.69
1551.34
-597.649
497.24
-930.655
433.416
-924.163
355.258
-941.911
-1058.08
-1486.26
346.833
1139.43
-285.383
907.621
-306.892
612.337
-305.445
-1941.91
999.994
-1134.54
-351.721
543.305
-1496.99
1728.51
-1725.51
-3.00123
210.937
-598.781
387.844
-1452.4
973.251
479.145
289.155
212.71
-501.865
311.461
-645.96
244.503
-420.721
176.217
2014.49
-866.822
-1147.67
-544.381
158.538
618.267
832.813
-1451.08
-183.394
427.898
431.088
877.061
-1308.15
-908.907
394.697
514.21
-1044.68
1447.11
-1068.89
309.649
753.056
-99.4012
539.364
-281.787
-257.577
995.257
-516.223
593.273
-1403.95
810.674
-1342.35
238.375
-547.749
265.63
-1179.37
893.99
1944.64
-985.147
-959.49
276.805
1579.58
-2092.57
893.697
1198.88
368.165
-30.0171
-338.148
-223.661
483.812
-260.151
-112.463
-377.718
490.181
-467.395
149.475
342.874
-128.751
625.99
411.612
387.07
-798.682
-2034.79
1109.1
925.684
461.006
-533.181
72.1751
224.13
-366.125
141.995
1023.83
990.663
1777.43
-251.552
711.514
-437.802
797.229
-1390.04
592.807
338.83
328.236
1046.5
-1030.86
-505.513
-221.725
727.238
478.778
-137.282
-341.496
797.853
-616.94
568.547
-728.423
159.876
503.328
1157.43
-1239.93
700.056
1048.13
-1510
-3.13747
-1439.43
1442.57
324.875
825.308
-1150.18
623.627
269.839
-893.466
-2270.29
1135.92
1134.36
-1104.55
-1165.73
208.225
360.322
958.514
-633.639
879.538
-899.179
19.6402
-2099.38
992.451
-230.747
-190.71
421.457
-41.6748
1770.19
-822.766
74.2412
-1026.71
-1065.87
-229.492
453.622
-657.706
198.011
-260.034
-424.831
684.866
1104.06
-1574.24
783.148
-1374.54
591.394
693.547
-416.238
1947.88
-1444.55
-378.283
-1376.08
81.8084
396.359
-528.299
520.907
8.59811
-564.835
556.237
570.716
-281.561
-605.648
280.866
324.782
779.651
-368.039
32.9194
335.246
1188.47
-1191.61
178.935
228.991
392.453
-652.487
620.02
-1006.65
-2026.7
2026.7
-246.266
-448.78
695.047
699.364
405.839
-1105.2
579.417
173.638
397.71
381.94
-2199.75
1328.85
-926.85
-678.568
1605.42
-492.991
-686.382
-263.024
544.801
-281.777
824.263
-183.294
-640.969
-431.262
642.199
372.408
-679.3
-349.781
-134.386
484.167
-1324.16
-474.225
615.272
-1108.26
-374.144
-1244.41
844.322
1463.86
297.838
-939.788
641.95
966.627
-338.493
1391.47
-798.197
445.624
-266.69
-329.49
-869.339
558.613
310.725
-318.751
-550.588
307.296
-419.759
-217.176
-148.731
365.907
-392.707
1092.07
435.306
-244.933
-395.044
1345.5
-168.816
-1176.69
-466.866
272.885
193.981
231.295
242.93
-474.225
28.3872
-756.81
592.071
-1728.99
1136.92
1481.2
-862.935
-1049.21
-403.187
-1057.51
573.132
484.377
1372.02
-398.767
929.494
-1411.47
-158.608
-206.414
365.022
-469.777
581.697
-1626.37
427.98
903.992
270.944
299.736
-570.68
568.077
1186.28
1104.4
-715.769
-388.63
405.915
-219.614
-186.3
-1419.47
444.817
738.694
-1183.51
1473.39
-543.901
-492.065
920.694
-428.629
426.142
1186.16
-1612.31
47.2816
-726.023
-144.9
424.163
224.816
-417.616
524.971
470.286
-623.395
64.4581
558.937
1024.54
-1307.67
283.132
662.517
-264.807
468.223
-1447.25
979.03
413.515
1685.85
-522.573
910.513
1034.12
-662.661
-1684.47
757.617
565.782
392.314
-958.096
453.263
78.7369
1749.89
-1828.63
1443.77
-379.481
-1064.28
1699.09
-1740.76
-368.048
-514.719
718.494
-203.775
-502.591
185.3
293.479
-373.095
-1226.01
214.43
-764.547
-639.401
-662.157
1001.66
-339.508
-654.029
644.213
9.81626
655.124
-923.783
268.659
-763.979
388.115
375.864
-648.959
-681.905
353.887
328.018
-932.371
1400.59
-411.952
883.87
-471.918
-2205.3
5.5581
182.075
-537.574
355.499
141.52
1203.98
-95.3985
-562.307
160.542
-598.141
1487.22
-704.074
375.598
-465.113
89.5152
-569.966
569.966
1223.1
395.458
1777.83
-1229.02
588.999
640.019
850.293
-52.4399
1291.31
773.196
-539.884
1337.11
294.187
302.48
278.94
-793.659
237.133
-674.649
232.295
-445.24
212.945
-229.994
574.18
-344.185
128.715
-358.709
-592.117
-564.509
1156.63
-363.855
526.374
-162.519
-1192.16
2032.05
-839.886
1290.11
-331.594
-405.511
137.46
-1980.83
803.317
1522.43
-844.954
-677.48
1986.94
-877.416
-1109.52
713.392
576.717
-240.241
472.536
-676.41
1132.79
-456.381
-770.278
1201.37
551.508
924.68
-1724.82
800.144
-538.815
-71.411
610.226
291.281
248.082
412.059
-104.566
-307.493
896.92
-83.4102
-813.51
907.532
-552.287
-355.246
1576.22
-472.159
887.717
-1625.56
737.842
1068.49
879.392
749.899
-444.728
-305.171
-1059.07
-258.269
557.616
580.709
-1138.32
-451.38
497.329
-45.9484
577.958
-346.264
-231.694
-982.179
570.227
596.435
884.767
-441.819
1096.94
1407.21
-772.192
-635.015
398.254
-925.787
527.533
-1012.26
390.968
542.113
-1034.18
448.763
-515.216
66.4524
466.016
295.711
-521.469
-48.4975
-794.54
-877.203
1671.74
195.307
210.608
-214.349
422.574
-31.4923
-543.512
575.004
489.102
866.493
-1355.6
-526.647
309.472
985.964
-89.0431
836.552
-1065
228.451
387.304
846.604
-1386.49
-443.903
830.973
1976.6
-1283.09
-693.515
270.208
609.33
256.006
795.882
76.8483
-957.963
881.114
1673.75
-1089.08
-584.666
-137.81
1887.7
-1866.04
-160.66
483.722
-621.842
138.12
-1014.74
526.178
488.56
-1730.48
538.319
-955.915
845.645
391.956
203.829
586.747
-288.909
-424.563
711.835
254.792
79.1075
708.91
-788.018
-1133.18
-895.449
2028.63
-534.631
1092.48
-557.849
-459.253
-341.29
110.543
-1653.85
859.309
-874.587
-587.018
1461.61
-332.246
-295.016
627.262
362.52
-642.182
279.663
236.954
-604.993
309.085
209.399
-518.484
336.367
-599.391
614.358
-251.838
314.575
-464.516
673.494
403.961
-172.667
-377.137
-304.768
1215.97
-3.34221
-1212.63
1040.01
-419.993
560.736
410.571
-1782.38
869.826
912.555
494.236
544.272
-1038.51
-535.861
203.616
-262.542
1180.53
-917.991
-1590.9
1212.62
504.633
-1096.75
387.412
-11.814
424.644
296.998
-721.642
373.584
-618.631
-30.2756
755.242
-724.966
-526.266
796.105
379.234
322.876
527.417
654.676
83.871
-393.201
309.33
1059.06
-645.354
-413.709
494.006
-1664.27
1170.26
-1140.46
1753.24
-612.786
1715.81
-1123.74
-334.517
615.383
-1182.18
1259.03
425.273
-797.004
1598.4
-801.398
-249.125
-217.741
-888.142
1469.41
1811.52
-611.431
-1200.09
-404.785
638.91
-1301.07
-124.81
-39.1734
451.232
-675.555
-354.169
-1236.73
-223.909
460.864
903.826
-561.081
183.363
-1674.51
-71.1789
1745.69
-1056.12
521.493
570.438
-1181.18
610.745
901.152
910.367
630.834
620.016
677.187
243.508
-1127.01
450.597
-402.928
411.526
621.549
-515.626
249.596
-734.086
484.49
679.878
-341.049
-335.083
181.169
-592.646
229.226
363.42
-888.346
-737.212
1087.67
-2145.75
400.231
-684.766
-342.871
-724.501
833.026
574.181
-347.447
306.502
363.653
205.474
658.061
-863.535
528.229
604.562
-526.06
176.279
361.16
-607.426
-1040.51
-852.328
1892.84
-1792.29
157.126
1107.24
-1369.78
1153.91
-729.698
-424.215
-503.372
1349.98
-1495.55
627.864
867.686
-288.687
-210.567
499.254
1428.39
558.548
330.893
-465.279
-486.06
-564.777
1050.84
-417.723
599.798
1582.11
-1128.77
-453.341
-766.928
318.147
654.922
404.141
-1623.43
416.155
1207.27
-197.688
506.773
797.889
784.219
195.373
-676.39
481.016
208.54
210.788
-294.031
-108.26
402.291
475.774
2.62841
-478.402
-1630.88
581.674
-1602.49
1666.7
-64.2084
9.56011
-1612.05
1069.62
752.306
-327.663
-802.225
-210.04
-1134.55
-239.995
-311.825
685.41
-1812.32
-625.333
1206.04
209.618
759.351
-1329.24
-678.415
-465.284
600.272
-329.328
-1013.29
1350.75
-1932.81
582.056
645.946
1287.96
487.215
-3.40341
717.668
700.701
-1418.37
-640.037
338.278
301.759
440.908
-99.5429
-341.365
153.659
289.641
165.78
-455.421
-578.737
1144.52
467.532
-613.899
-462.404
-401.748
864.152
-332.281
173.673
-459.232
166.842
-305.957
-708.781
549.644
-108.736
-569.532
967.786
580.771
-269.993
-310.777
456.573
-780.904
-645.441
434.524
-1129.42
-832.506
1179.34
-569.766
457.287
269.951
-444.985
87.3156
1029.34
-317.448
594.345
-276.897
-509.034
1578.66
-675.774
229.314
377.848
-607.161
213.492
473.187
-21.5301
-451.657
-254.511
-204.721
1014.85
1108.96
564.787
-867.465
936.646
-69.1806
-458.336
169.649
-722.549
297.717
-595.007
319.8
360.079
816.387
-1227.14
410.752
778.007
-808.282
-948.988
-550.369
1499.36
-157.624
457.36
-533.07
251.283
1298.89
765.904
-570.531
1306.1
-690.823
487.735
-682.668
-412.869
-424.17
-378.472
802.642
503.469
-844.702
-443.758
85.6512
358.107
-324.049
572.394
729.94
-329.708
-245.959
-174.382
420.34
-491.505
145.361
346.145
1456.77
80.2176
-1536.99
-749.592
1346.03
-1144.75
-466.093
535.81
-157.962
1149.94
-371.93
1083.52
492.698
693.709
-414.769
-885.17
-522.294
-1328.47
-28.1778
985.015
-956.837
596.176
320.675
-916.851
-321.98
-222.4
-677.703
405.515
1621.18
-170.751
364.967
351.154
-716.121
-1839.78
-2106.68
1519.14
587.538
-2037.54
343.855
353.814
536.651
-890.465
-460.111
1020.85
-386.185
-673.305
1059.49
-2030.52
1391.21
639.316
599.508
-985.693
48.4945
400.269
386.637
199.614
246.01
315.563
953.322
857.326
681.077
-326.89
-354.187
-295.076
622.818
-327.742
574.575
529.823
565.629
514.88
-1080.51
-796.263
-699.288
753.018
396.919
-418.066
697.729
-1193.43
1609.58
411.234
-1084.54
-325.037
534.436
-1382.73
863.858
518.868
-715.773
-354.218
-789.059
367.086
421.972
446.972
718.564
-1165.54
1068.95
-574.716
-399.092
656.533
-257.441
255.098
325.673
-468.874
-431.949
900.823
-240.026
553.872
-945.933
392.062
-462.189
600.599
-1681.25
423.663
671.291
-1094.95
522.094
90.2434
113.406
-2212.78
534.652
-77.3656
1443.84
1777.09
-217.554
-1559.54
-438.408
1789.16
-1986.89
1194.44
792.443
404.531
345.368
-33.7763
866.802
-1283.52
719.014
-870.622
-823.344
795.166
309.341
56.0486
-365.39
231.572
186.475
-418.047
1550.16
-832.494
-1530.95
-325.431
474.275
-201.32
-272.956
395.685
366.56
240.939
359.334
-8.46594
1001.23
-992.763
375.308
272.078
-647.385
-734.025
1817.27
-1083.25
-342.707
738.392
-1214.35
-411.767
-916.194
484.245
565.293
-775.285
209.992
762.573
-381.591
-380.982
-423
-444.466
448.095
1070.34
1236.38
-665.937
801.984
-345.411
386.182
308.865
-251.145
-213.968
-198.314
611.828
407.867
-848.527
440.66
208.36
354.923
-563.283
-423.512
831.379
754.728
-1147.44
880.659
-64.2722
-491.428
274.279
772.22
-95.6215
1383.58
1890.5
-68.2965
341.181
-318.856
402.727
-1085.5
1077.04
616.246
376.228
386.345
64.6302
409.645
265.096
490.82
-370.833
-269.204
-564.657
-89.3721
-357.62
367.642
-10.0225
-257.636
-290.112
1011.11
-1540.72
529.61
-198.046
-175.925
-385.184
657.262
-1629.51
1591.06
-963.2
251.758
-664.627
584.309
1224.42
-1808.73
607.399
983.666
299.681
-1119.26
694.696
-287.622
-283.058
1372.29
-1442.95
823.197
619.753
413.741
-620.542
206.802
-361.399
473.823
-112.423
369.56
106.213
1723.67
460.763
-252.223
557.616
-1704.79
1147.18
-92.2197
394.542
342.923
338.154
-448.44
-616.028
1064.47
419.916
-863.819
-641.34
903.096
570.299
-513.199
-250.78
-439.734
-408.793
-307.158
-827.389
1821.11
-1821.11
-105.553
-1586.53
1692.08
292.676
285.281
-917.361
-555.271
1472.63
-408.162
973.791
-589.685
-1041.2
683.104
386.501
-1069.61
478.18
-163.605
573.058
1220.35
-1793.41
-1043.62
2115.55
-1071.93
-374.159
-298.848
-490.42
808.567
-1749.08
1599.04
150.043
1749.08
-1602.5
-146.579
-247.076
525.534
-278.458
-537.276
1620.79
1559.95
-1971.72
1074.07
-287.504
-250.433
537.938
239.594
-564.631
-694.405
276.338
1340.94
635.662
578.317
485.177
-1063.49
281.426
412.283
875.481
500.096
-1375.58
531.693
-1017.75
1574.95
-563.849
-776.543
-365.898
-115.407
481.304
-489.896
1208.46
-742.249
334.203
367.778
359.677
254.861
-614.538
599.271
831.988
-603.537
265.356
671.29
-513.199
-322.379
-226.917
549.296
1168.58
-669.623
610.98
465.065
-1076.04
-1291.05
1291.05
-387.233
763.461
-286.193
-474.888
761.081
485.316
447.569
-932.885
388.684
-674.877
612.614
-868.803
256.189
-367.152
-495.617
1073.93
-662.252
-709.175
1371.43
-375.064
928.936
-1552.68
675.266
34.6547
-407.725
373.07
-503.17
701.181
245.887
328.292
171.6
306.58
-512.934
225.312
1869.24
-1964.86
267.665
-698.927
446.563
-821.439
374.876
-919.158
1408.99
-489.829
-429.672
-486.522
600.686
1124.21
-1724.89
-715.967
341.808
-460.088
1034.66
-773.772
1039.13
-380.329
-629.593
-481.241
718.374
540.699
-359.031
905.232
-302.078
-189.427
1599.02
-1816.57
-344.759
-601.175
-333.592
478.953
254.932
-584.261
-178.905
1058.29
-784.012
212.456
-282.004
-283.972
565.976
394.744
-875.772
481.027
-487.318
-447.528
-939.788
-340.503
567.584
-227.081
-446.814
-421.251
-325.695
-192.789
-383.933
638.794
-447.282
756.147
-1073.03
624.588
-1409.02
534.433
-27.7127
-1834.18
1861.89
569.86
-449.368
1208.57
-687.08
334.991
-334.991
670.058
-434.695
1042.06
-1631.75
-1158.73
-947.945
293.688
329.13
883.125
715.277
-489.459
-301.864
791.323
1656.41
-1684.12
-434.709
349.288
221.428
1135.13
-524.15
-943.331
1550.47
-607.139
445.24
-245.626
382.324
374.195
-756.519
527.796
473.51
-1001.31
-331.62
665.823
-37.8189
1907.06
1585.37
992.953
-1697.03
727.276
-1177.23
449.952
-492.448
1367.93
837.995
-1341.37
-550.362
262.858
794.763
-402.449
553.714
-1187.63
633.919
-638.716
-1215.54
-695.64
1911.18
-199.011
543.57
-344.559
-169.417
293.243
-492.254
326.841
372.501
-699.342
-1481.12
757.323
723.801
884.123
-1434.49
825.943
-431.247
219.342
-364.242
-582.658
260.279
-636.242
-746.484
699.152
505.807
-1204.96
392.912
-203.946
-188.967
556.567
-958.968
-563.351
-426.146
723.863
-831.275
-1155.61
-1437.97
499.618
938.355
13.6017
-626.923
334.203
292.721
-1310.68
1045.38
265.298
-616.998
-456.03
-665.893
921.899
401.911
-203.503
-198.407
508.151
980.719
-1488.87
975.365
-564.534
167.411
397.123
-392.961
669.48
-401.815
-507.804
174.212
234.433
-1517.52
531.738
537.214
-743.346
240.176
155.882
-457.96
371.085
-818.613
1954.16
-1195.39
-758.768
411.27
-665.794
254.524
325.507
323.325
122.855
-446.18
-564.998
195.774
264.989
-691.687
1374.4
-682.713
423.985
456.577
-1172.35
267.898
1866.78
-1013.59
-853.189
785.088
-522.432
181.929
1402.39
-975.212
-427.177
335.853
-770.548
-616.487
1725.45
612.73
623.646
321.539
-12.1981
270.388
-1138.45
1725.72
-587.263
-1763.52
820.187
1752.1
-1683.34
-68.7596
-658.293
255.365
562.247
-705.719
224.478
1402.73
-564.737
391.475
439.498
-1858.52
1420.11
541.242
-423.451
-117.792
209.888
-535.582
-279.71
-179.544
-353.789
696.712
-572.724
206.826
606.587
552.627
-1159.21
1113.68
-1947.4
833.727
161.579
322.588
-1698.67
1660.85
317.235
-732.004
-164.571
383.912
751.922
679.963
-1431.89
1072.91
-1076.25
527.755
-1102.47
-631.498
254.348
377.151
517.452
-288.226
-598.154
-1033.59
297.134
-718.385
-912.32
182.171
165.775
227.138
384.376
295.235
-679.611
-627.47
-833.914
-978.403
492.195
-1057.19
-284.373
478.354
535.243
644.096
-281.196
-124.315
-410.124
709.805
272.6
-1197.8
570.328
1306.85
-554.929
444.67
-1008.02
-389.932
155.802
385.44
1023.42
551.534
-1713.37
1607.81
1625.95
-557.258
-1068.69
1902.54
-1890.84
-11.6991
201.461
-520.317
-339.806
552.262
-763.017
-318.319
-339.974
1027.79
697.212
-1498.11
800.897
344.588
-26.1916
1625.21
-1076.9
407.273
-1231.64
455.096
-60.0805
1516.85
1197.52
-470.248
-489.543
-74.9912
-263.379
736.006
-1951.55
-711.3
349.051
-534.186
185.135
192.132
-509.58
1139.9
671.542
-1811.44
-599.986
176.536
942.117
-1497.39
-210.473
678.919
-468.446
878.513
1121.49
-735.893
1348.62
597.882
-479.749
-118.133
-347.877
1171.07
1038.18
-1980.6
942.42
-1170.49
545.154
1488.81
-585.711
-375.261
-150.8
-1240.28
574.345
1160.19
-120.569
946.045
775.439
-1721.48
-212.03
578.418
-1541.75
963.33
486.973
916.722
-1403.69
617.406
588.636
384.759
-1106.65
591.773
1105.65
1216.37
-452.391
-763.98
-1186.2
-1754.94
-8.04799
-1705.32
-203.866
-416.677
1606.23
-626.998
-979.229
-490.844
1121.68
-1316.69
637.03
679.663
-1360.78
1441
-1329.22
593.33
1520.54
-386.57
-562.962
187.702
-1476.42
237.221
176.375
222.126
375.755
436.672
393.524
-830.196
506.301
-939.102
900.951
-1444.85
-690.268
232.326
457.942
-1039.74
460.999
-471.353
862.828
696.159
29.7923
-520.215
175.656
-886.565
-1318.74
-716.397
350.868
365.528
405.226
-723.724
318.499
-479.872
-189.299
-709.88
717.881
1539.5
-593.456
812.132
738.029
1344.84
-844.745
-971.412
-570.336
-798.074
427.755
370.319
-1036.99
-643.73
305.363
338.367
-1433.7
-296.783
-791.507
399.058
392.449
-644.373
396.544
247.828
-672.471
270.656
412.596
488.227
389.727
441.653
479.625
384.527
597.094
-970.189
674.735
469.784
454.156
356.455
-810.611
1630.77
-1079.92
-550.856
-504.435
-283.035
-1027.65
454.975
347.667
409.554
594.57
-1004.12
-1379.7
752.7
-534.634
1145.38
353.792
-64.1518
412.022
-866.192
454.169
-1892.95
306.419
442.152
-726.987
284.835
-186.25
405.467
-219.217
-662.726
309.018
353.709
-675.367
321.18
370.765
392.696
613.088
-1021.25
753.596
661.102
-1414.7
438.702
625.766
340.351
392.962
-733.313
410.139
328.253
603.109
670.616
399.726
590.379
-1015.67
425.29
-1667.75
1198.74
469.012
1696.6
-539.171
621.622
-1147.45
525.823
-643.612
348.595
437.173
-935.739
498.566
744.19
-447.192
350.941
345.771
565.016
-909.775
650.783
-1253.36
602.573
366.906
735.022
-1224.92
769.819
509.429
-1279.25
480.092
406.984
-887.076
-501.617
-936.355
-303.353
630.194
352.528
542.312
-894.84
333.825
331.998
-502.177
1944.74
437.527
-847.648
410.121
-917.887
-806.937
-749.629
368.647
-1211.87
438.098
-1729.73
1602.5
127.227
1744.2
-1599.04
-145.164
-785.145
-594.319
267.206
327.113
-1752.1
1971.72
538.33
791.836
-1330.17
440.056
716.57
690.523
385.592
-1076.12
-80.1484
1617.14
-593.721
382.765
825.808
-650.606
327.381
323.225
-378.242
-297.752
552.849
-223.119
435.829
281.906
-667.656
385.75
266.174
-580.722
-283.864
442.421
-1033.88
591.458
538.036
1092.74
365.982
597.264
312.704
353.234
-665.938
1617.4
-920.187
1691.71
-1520.32
-171.39
-328.146
-824.105
415.312
857.61
-1068.08
-608.384
280.642
-1090.62
1628.65
-1579.77
-80.0342
1659.81
-341.178
-350.043
-370.004
536.379
598.75
-503.386
-29.7954
-550.075
507.936
-283.39
-224.546
1742.42
-1294.33
-626.352
300.348
326.004
403.395
357.248
734.823
-297.222
-398.76
-1744.2
1684.12
459.448
-1101.24
641.796
-43.8837
1651.7
571.482
476.402
-1047.88
104.802
1145
-1452.16
-16.6723
-1876.28
229.478
-600.067
307.441
292.627
-955.665
612.793
-898.976
469.304
-1128.82
673.844
454.973
361.285
268.03
-757.489
-311.473
1217.37
886.984
698.959
-1183.08
456.128
726.953
494.245
701.127
-1195.37
-358.949
-247.521
413.296
-961.198
438.353
522.845
21.2597
-1879.78
1080.17
-467.56
-492.734
557.958
-1378.28
820.322
-423.031
797.907
-405.162
496.27
-708.955
1723.81
413.57
-186.432
217.222
-172.115
-245.623
417.738
1895.31
-504.108
-1686.85
1051.79
-602.972
305.221
-1014.28
554.168
-312.824
544.243
905.392
-1449.63
-1104.06
438.172
-20.6908
-1944.17
1710.76
-672.579
-540.937
460.659
-1190.69
730.03
190.746
211.164
-282.827
768.369
701.045
838.683
818.825
-462.37
1085.21
-469.203
480.022
-195.123
-284.899
-1922.63
-714.527
-318.161
-644.398
-6.94184
651.34
468.382
-272.608
562.691
1054.71
-801.161
925.4
1244.45
-425.047
-199.04
-223.46
422.499
956.377
-888.604
-326.571
-1068.23
612.199
1554.78
-797.462
537.594
935.039
-389.648
735.658
-346.011
1130.58
-277.051
327.912
1349.79
-704.55
-221.237
448.258
-1198.78
750.524
-999.878
-99.3257
1099.2
442.505
-956.18
513.675
174.862
732.914
483.457
741.675
-83.6141
853.675
-425.532
1182.72
-797.132
552.026
-1465.52
913.49
-1216.66
1800.97
-431.713
-1510.19
879.775
-1402.07
-304.198
-417.444
1457.28
-1522.49
785.273
1491.52
203.548
276.475
-351.922
-1729.73
-294.925
-1006.4
1569.1
-1761.66
1761.66
1559.95
-1004.54
-635.324
-335.105
368.383
605.409
-366.645
-359.974
-1389.9
897.448
1125.17
600.552
1202.89
1789.48
-1216.42
-609.163
273.259
1658.93
-1916.37
257.44
814.11
-1267.45
1545.26
-561.599
776.751
315.729
-335.507
554.61
795.366
677.091
1351.54
-217.801
-444.806
-354.744
498.008
-342.282
471.675
736.786
-294.489
-151.691
-325.915
567.143
-241.227
26.6073
-372.871
1107.49
-1720.27
-431.07
-482.76
-565.942
864.002
690.782
-1596.56
904.876
-451.494
-617.86
-513.513
1252.21
330.001
1723.65
-1702.39
-1656.41
1890.84
-1560.88
840.325
720.554
-366.629
-1794.85
917.646
582.915
819.818
-395.679
1794.24
-680.564
-409.143
676.081
424.771
-1100.85
-1099.41
444.054
753.471
-1617.19
473.173
901.227
178.578
-403.519
224.941
-1592.5
-382.517
-425.618
990.323
-669.954
1442.99
-975.779
1854.29
241.455
-542.656
498.636
-295.088
474.306
893.622
543.037
977.498
-462.632
-427.877
573.848
883.435
-1392.71
-40.9878
1569.91
-831.884
519.942
971.579
-1475.85
-1115.9
1768.19
-1242.94
-525.252
1206.17
-318.927
-887.242
-193.739
456.252
-262.513
-457.313
-250.163
432.78
-182.617
147.586
-395.107
1727.22
-1735.27
-453.313
-530.836
-903.656
445.962
-208.547
-237.415
635.928
-451.195
-357.448
-306.85
664.297
-924.35
373.761
-1167.41
676.567
420.032
-631.458
-442.647
1571.7
-856.419
530.178
-457.711
-571.445
-462.434
372.893
-363.103
-9.79034
-1095.24
408.156
-664.672
-1033.71
1698.38
-595.066
-1423.04
713.87
562.153
-1596.27
1034.12
-381.034
-480.181
145.419
531.768
-1258.49
744.975
539.212
1006.05
-2133.18
999.991
1133.19
-353.411
420.17
-395.286
-24.8842
1478.08
-365.553
449.401
1217.06
582.081
906.725
568.241
527.296
-1095.54
167.673
-434.87
-1683.34
259.465
1127.6
-610.276
518.433
1013.82
-1532.25
1092.88
-1643.74
192.583
688.077
542.478
-869.049
-1086.57
-173.583
430.591
-257.008
-587.282
-423.15
-636.898
-629.833
347.005
-1618.48
939.913
-476.656
214.918
-401.35
536.564
-307.086
-601.038
1197.24
-1267.3
921.05
346.249
-1024.22
-358.636
-754.879
-822.354
1686.36
-476.771
1793.3
-1581.1
-212.194
-1556.65
1018.76
537.896
-723.363
-263.401
445.74
-182.338
-587.41
383.483
275.835
-659.318
-523.791
982.44
631.671
-351.028
-1620.3
1050.53
571.753
1103.57
-1675.32
-407.011
-294.651
-368.075
-742.669
-465.79
-330.559
502.158
1558
-995.846
-775.556
1497.46
661.739
-312.451
725.88
1152.37
-1878.25
281.033
299.814
-487.02
-1931.48
1719.36
212.113
739.824
-474.376
-265.448
531.817
1060.86
-1592.68
372.893
-1721.99
-233.208
1752.35
-1580.71
1073.79
506.914
-1721.29
-0.702185
-521.529
420.17
1698.67
-1719.36
939.812
624.318
-1564.13
385.436
-218.791
-166.645
-404.632
-267.839
72.009
94.9616
-358.363
-432.665
-436.138
-408.322
222.072
1510.27
378.78
-216.127
-428.245
464.329
-199.339
313.739
1510.79
999.272
-152.557
-846.715
-1104.12
1704.81
-1728.74
1064.06
-707.079
-1021.66
-1265.09
1844.99
-579.899
1155.08
-1771.12
616.043
272.156
-878.311
1675.64
43.4573
-1719.1
-491.153
-1083.09
-1727.22
-982.601
554.723
1019.64
590.208
1133.05
-1723.26
287.928
-445.89
705.134
-383.955
371.138
925.04
680.378
-379.405
-636.264
582.876
1072.58
-1655.46
-398.622
-370.973
769.596
420.095
-1660.85
1520.32
140.535
584.418
-1044.51
544.74
1083.91
-1555.7
994.104
-239.542
234.612
317.65
1902.54
416.784
-81.3291
995.865
722.752
-1718.62
-697.483
1085.38
-1557.53
167.575
-572.03
199.152
265.176
-652.429
-559.441
582.451
1034.69
-711.283
-269.586
-1368.66
676.274
692.381
-416.225
770.327
57.4277
-827.754
561.556
-137.143
1557.25
-217.575
266.923
-769.785
-1931.48
1664.63
1035.2
388.115
296.447
447.742
-930.196
-992.435
-1767.27
637.83
1693.77
510.641
-474.173
1210.96
1087.16
-424.883
1030.29
-979.101
494.242
484.859
700.065
1047.96
-1748.03
486.627
481.159
-1494.04
-747.339
31.5698
781.294
-412.647
-883.141
390.407
-538.528
-802.839
641.95
-577.063
1397.39
1055.14
196.104
234.487
-550.6
1618.54
-771.87
1525.47
-1727.83
575.237
1152.6
545.245
-883.737
-1732.66
1916.37
-183.713
1721.75
183.644
-543.347
372.939
-277.977
-481.321
1211.35
568.269
1128.33
-491.271
433.879
859.057
-463.223
-773.764
424.571
349.194
1418.67
1089.62
-518.147
1423.02
-510.617
-533.573
1044.19
-602.736
466.313
-1196.01
1691.71
1839.58
-687.209
1585.57
-645.753
-1241.48
717.692
-562.357
205.401
-396.11
456.347
-245.559
-520.616
-1246.71
1870.94
-624.228
1173.43
-551.805
1120.3
-1659.47
1690.9
-573.92
-544.872
-549.807
1720.07
-317.328
-688.016
-473.261
1223.78
-1682.15
-1860.1
613.389
290.908
-931.877
170.267
215.246
-1719.03
1204.16
514.868
1162.86
558.887
-511.243
-465.342
1192.3
178.121
227.346
588.443
1251.14
-539.173
-1238.59
1777.76
-1025.45
999.991
866.791
-204.135
-1658.93
1702.39
-510.039
1411.27
-1732.66
-362.621
21.7864
340.835
-265.694
586.19
-320.496
68.0939
490.519
782.101
-376.875
1257.53
1270.94
-413.334
852.963
-437.651
1817.43
-662.348
1586.51
-1723.65
-412.779
-737.925
304.254
433.672
-559.336
-563.217
79.7184
-1138.79
-985.57
-669.543
1655.11
-943.709
-1189.47
158.757
-409.19
-648.677
705.586
1167.45
649.973
1410.32
-590.502
1636.76
1318.11
-573.134
-493.977
198.889
-503.259
1396.88
1240.16
-563.886
-999.99
894.043
53.5808
-947.623
603.444
-506.104
1403.55
1495.07
-588.344
-381.008
381.008
-589.381
1623.5
1239.62
-486.153
1134.16
-73.4713
1850.89
-393.996
1489.47
-588.518
-507.662
1347.99
-653.235
1218.64
-565.406
1554.8
-591.473
746.294
573.083
-1319.38
-652.125
277.068
488.836
599.995
-1957.3
-980.58
1586.51
381.833
-381.833
-71.5684
389.489
436.455
376.209
-6.64834
-343.909
889.158
-522.252
-425.618
815.106
-244.842
621.993
-435.338
1544.44
-444.33
-884.139
188.601
225.633
-414.234
601.167
1250.78
-1851.95
927.723
-458.419
-363.103
126.153
-1943.01
1816.86
-452.093
185.404
1181.33
-440.424
-740.91
-305.695
-577.445
-491.627
-395.286
-481.738
257.192
1158.43
-559.682
230.159
-382.554
152.394
-22.3931
-107.671
1376.08
-1268.4
34.4456
-599.103
-586.365
-460.011
460.011
-1262.36
1985.11
-1344.4
-215.786
-1823.85
242.753
-1025.76
-974.241
-187.396
-1637.26
707.063
1229.32
-1924.96
370.911
311.436
-682.347
-1850.01
1234.27
615.738
-564.481
564.481
-959.261
-39.8409
-1866.04
-558.132
1650.87
-677.704
1636.17
-601.479
-172.615
-1703.66
-586.021
-441.478
-594.78
-473.156
473.156
-1537.81
194.524
1343.28
174.978
225.236
-400.213
486.831
512.44
997.555
-474.71
1751.3
768.753
-426.903
402.019
520.192
1702.05
-594.563
-552.956
1636.87
472.411
1812.72
-645.269
-1803.84
-1938.08
-646.913
-484.483
484.483
-584.522
229.779
-687.962
1019.87
-465.706
-1071.45
-285.252
1579.58
1852.3
1635.33
-1635.33
-277.387
739.202
1761.48
595.783
1275.15
175.8
209.636
570.698
593.376
1603.53
-1603.53
223.74
-352.813
-433.856
461.28
951.959
-457.718
-639.981
-1131.03
1706.26
281.628
-1646.85
605.654
-288.652
472.296
1744.64
-592.046
-215.32
-412.831
381.188
724.467
1738.57
-613.403
-511.757
-775.062
1960.53
-870.451
-1090.08
1642.8
-706.312
1223.98
-1824.94
600.964
323.954
-866.609
-186.086
-109.718
1098.58
-486.383
126.28
611.549
-1645.14
439.797
603.346
-1803.84
-583.27
1787.43
884.51
-1162.93
1760.49
-597.554
1783.83
-575.52
-1208.31
438.091
928.071
-1735.27
924.839
-1499.79
273.098
1226.69
-831.287
-1254.23
-384.68
77.379
307.301
581.71
270.964
1025.28
-445.657
847.176
-401.519
821.361
737.88
-1559.24
643.634
1066.24
-24.4667
-663.807
688.274
-1744.27
722.613
697.505
150.529
-1122.71
1936.75
-674.545
-1262.21
-537.172
1665.5
827.635
963.193
-1790.83
1227.87
683.311
-402.536
711.554
834.265
1028.77
-586.268
1761.48
626.907
1773.56
-1185.63
-587.931
-377.759
-323.249
701.008
121.437
-1185.72
1660.56
-540.262
-1437.84
1437.84
1250.58
594.413
1351.61
206.393
-566.511
282.167
-192.494
699.053
1113.67
482.985
-304.865
-870.428
-574.424
1735.97
-1735.97
1009.16
-1009.16
987.329
1025.17
-2012.5
1837.94
-613.963
-581.103
816.035
-947.848
-1052.16
998.403
690.375
-1688.78
-521.469
-341.109
-644.584
-808.42
2042.69
-1246.42
-613.675
1002.97
974.85
1289.77
646.982
326.892
1012.69
230.49
336.444
1186.28
1756.87
-1756.87
672.107
80.1055
-390.883
-997.051
-539.988
1674.15
989.675
1010.33
-1833.28