/*--------------------------------*- C++ -*----------------------------------*\
  =========                 |
  \\      /  F ield         | OpenFOAM: The Open Source CFD Toolbox
   \\    /   O peration     | Website:  https://openfoam.org
    \\  /    A nd           | Version:  7
     \\/     M anipulation  |
\*---------------------------------------------------------------------------*/
FoamFile
{
    version     2.0;
    format      ascii;
    class       volScalarField;
    location    "9";
    object      p;
}
// * * * * * * * * * * * * * * * * * * * * * * * * * * * * * * * * * * * * * //

dimensions      [0 2 -2 0 0 0 0];

internalField   nonuniform List<scalar> 
7807
(
2.75973
2.26282
2.96568
2.76384
1.27379
0.356711
3.01036
1.65689
0.799407
2.38193
0.328715
1.45676
1.75389
2.15526
2.39508
1.91536
2.76659
1.83102
1.80793
2.16766
2.31296
1.34558
2.07535
2.66119
1.89044
2.77035
1.25521
2.22148
2.57244
1.83736
1.9502
3.07876
2.07663
1.0727
0.609322
2.31073
1.85964
2.9942
1.76744
0.896775
1.7702
1.90548
2.18383
2.34643
0.7552
0.531094
1.33154
1.75215
0.507955
2.17021
1.54323
2.20324
1.94444
2.087
2.31051
1.64275
1.79223
1.65499
2.01205
1.06733
0.415417
1.60681
2.15439
1.47104
1.14019
1.95182
0.786634
0.06714
2.54898
1.73753
0.514731
2.12064
1.8787
1.99951
1.81863
2.07061
2.95247
2.30138
2.42347
2.11682
1.7435
3.07191
2.41792
2.00786
1.48883
1.43896
1.67854
1.93324
1.28264
1.54712
2.58477
2.36681
0.682131
1.74925
1.56211
1.93326
2.12011
2.09102
1.48839
1.21945
2.08478
2.43883
1.55202
0.218352
2.38372
2.60837
3.3586
1.65154
0.0192468
2.16369
2.73882
2.19295
0.0308478
2.18202
2.60638
1.12294
2.24468
2.51438
2.09353
2.01253
2.104
3.05642
2.19008
1.90496
2.07533
1.34248
1.91065
1.78594
1.18565
1.93983
2.33302
2.41411
1.14346
1.29923
2.01666
2.72663
3.43993
0.242384
1.76921
2.19344
1.9853
2.13277
2.07356
2.00395
3.34116
2.1361
2.57824
2.01652
2.04315
3.04304
2.2932
2.36672
1.44868
2.52625
2.41219
2.94093
2.08823
1.74823
3.14302
0.478028
1.7585
2.68029
0.28754
1.64848
1.59058
2.81616
2.82061
3.12057
1.64566
1.54649
0.0798953
2.01285
1.10366
2.27341
1.78964
2.0098
2.40342
2.60819
0.691247
1.13925
2.77049
0.459215
0.574224
2.99763
2.2637
2.16431
2.08944
1.98675
2.13067
2.21744
0.286428
2.11301
2.61986
1.55612
0.532953
2.66976
1.2759
1.92878
2.11814
0.0795437
1.41696
2.73928
2.65768
2.97086
2.24444
2.19771
2.24643
2.24859
2.73232
0.725546
0.387615
3.34353
1.89311
1.13466
2.11097
1.92089
2.89398
2.91327
2.13284
3.10697
1.25536
1.82951
2.09334
2.34656
2.19124
2.72013
3.17298
0.668468
1.90001
2.53778
1.71404
2.50919
1.2935
3.09369
2.94216
1.6739
1.79982
0.882282
2.62448
0.659448
1.83991
2.12038
0.524946
1.51833
1.27905
2.60011
0.322037
1.58341
2.1135
3.06076
2.39754
3.15494
0.38558
2.11447
0.938873
2.96302
1.59271
3.40005
1.82736
1.42945
2.18869
2.25969
1.11034
0.807648
1.1168
1.7272
2.17796
0.372069
2.08294
1.57801
0.694336
1.16684
3.19521
1.72882
1.12142
3.32458
1.51445
2.75042
0.931265
2.02786
0.109459
2.06564
2.33148
2.41895
2.01594
1.12759
2.15681
1.96471
0.783971
1.09816
1.5868
1.73347
1.51469
1.43694
1.99988
2.18557
1.99531
2.35744
2.05237
2.89165
2.90647
1.35861
2.39961
0.0986815
1.63088
1.97917
2.64701
2.45364
0.625772
1.61402
2.03704
2.60455
1.3355
1.5587
1.34196
2.47264
2.3146
2.84487
1.36596
2.28754
0.674751
1.79703
0.449656
1.99565
0.921701
2.05842
2.38296
2.05624
2.03141
1.86965
1.08306
2.17828
1.95528
2.45338
2.60153
2.24612
2.3325
1.9607
1.71419
2.11751
3.11573
2.32482
2.20822
3.14442
1.37233
1.40614
2.35043
1.44601
2.13017
1.71095
1.52642
1.4329
2.56608
0.740109
1.09156
0.566932
1.56701
1.82814
0.126898
1.23756
2.00359
3.23127
2.05146
1.8825
3.18502
2.92348
2.41072
2.41042
2.05092
1.72578
2.78856
1.82151
2.80582
2.1368
2.20495
2.65918
2.80461
2.07374
2.43718
2.7184
2.76722
2.24915
1.54571
1.62561
0.588882
2.1145
1.84438
1.47097
0.644543
1.37137
2.15508
2.51364
1.94045
1.86649
1.59232
2.27688
1.73758
1.76215
2.68642
1.38
0.448365
0.780802
0.6602
1.97954
2.55296
1.64819
2.16266
2.19114
3.00068
1.78652
1.78519
1.66914
3.17196
1.19502
2.83731
2.58808
0.64933
2.13454
1.55077
2.13776
1.08126
2.41883
1.9723
1.76495
1.17965
2.5787
2.60792
2.16268
2.01123
1.60218
2.09601
2.51598
3.14106
2.26916
1.82022
0.0334003
1.88451
1.45078
2.16256
2.18151
2.3812
3.06745
2.58145
2.25891
2.68497
3.21843
2.09703
1.4741
2.79186
1.4319
0.841867
1.84944
0.600474
2.24216
1.96789
2.06312
1.45876
2.6757
1.4178
0.409757
2.19844
1.42721
2.41217
2.08537
2.0951
2.46366
2.53944
2.45024
2.46036
0.811848
2.50613
2.46976
1.16391
1.9333
1.10294
2.04882
2.07278
1.63573
1.32668
2.61256
0.316267
0.832608
1.42729
1.97464
2.10246
2.04145
2.02835
2.17042
2.20271
2.18009
2.77233
2.39587
1.71975
3.1002
2.1241
1.84112
2.01601
1.94887
1.92365
1.82334
2.20126
2.32396
0.440707
2.15905
0.603312
2.91823
2.56275
1.64493
1.80737
0.769562
3.09494
2.84345
2.48181
2.63906
2.129
3.63837
0.711063
2.27756
1.92316
2.61477
3.18421
2.49895
2.56029
1.8646
0.800237
2.61647
2.34791
3.11137
2.4069
2.70732
1.72765
3.03409
2.82471
1.79459
1.75189
2.58551
2.11962
0.756179
1.87693
2.11752
2.15644
1.85746
1.86308
0.824621
2.84146
1.84541
0.646793
2.18067
1.09576
0.81521
1.89612
2.70424
2.19288
3.2012
0.505138
2.69882
2.15403
0.798968
0.23834
2.56714
2.68943
1.6166
2.65087
0.347389
2.67255
2.24318
1.80495
3.33098
2.10435
2.62602
2.01848
2.66938
2.68498
1.9295
1.97742
1.82544
1.5193
0.866071
1.83357
2.78518
0.40233
2.65442
2.20469
2.9468
2.63342
2.12513
3.12914
1.3949
2.10535
2.23579
2.02163
1.71839
2.14926
2.32402
3.14979
0.429733
1.43187
2.18702
0.105155
2.91491
1.41623
0.121142
0.812915
0.974639
1.98662
2.1458
1.36604
0.550875
1.72693
1.89867
2.17787
2.167
2.09133
0.200947
2.22008
1.86544
2.58777
2.98729
1.56688
2.58686
0.770111
1.85722
2.34401
1.72504
2.72928
1.87323
2.28846
2.35867
2.57969
1.9608
1.8148
2.64641
2.15812
2.96113
1.7961
2.76211
1.79064
1.26344
2.54173
2.10819
2.38587
1.40207
0.101738
2.18587
2.67936
1.56458
2.57708
1.85991
2.21474
2.25002
2.04994
1.38875
1.74382
2.14657
2.0216
1.79971
1.00992
2.97928
2.57499
2.17322
0.83045
2.82686
0.282852
0.805589
2.58376
2.06147
2.64754
2.22151
2.06635
2.29388
2.20874
2.45542
1.32839
2.07889
0.486663
1.87434
2.71347
1.9182
1.51646
2.13747
1.42728
1.2523
3.17594
1.81059
1.17938
0.0459091
2.48861
2.04989
1.08603
1.50312
2.55922
2.45301
2.07078
0.192275
2.59893
1.965
2.6585
1.93774
1.99275
2.03323
0.630096
2.34738
2.44325
2.48413
2.2122
2.7877
1.68441
2.64139
1.904
2.17038
0.965381
1.97687
0.993336
2.58499
2.73497
1.37992
2.09028
1.9317
2.21989
2.21145
1.40483
2.2636
3.14395
2.4558
0.751975
2.44146
1.79299
4.33719
1.85494
2.02018
2.13877
2.02497
1.98058
1.74379
1.89928
1.7157
2.31536
0.636732
2.27896
2.39993
2.87705
2.06403
2.65327
1.40261
2.25758
2.09916
2.6765
1.7409
0.806879
1.96746
1.81489
2.25787
2.00451
1.98346
2.35788
1.88674
2.13106
2.16014
0.124305
2.34715
2.15398
2.62042
2.28373
2.37902
2.19974
2.82127
2.21234
2.04007
2.14872
3.48548
2.27811
1.86249
2.19776
2.19435
2.20883
2.21839
2.63047
1.52197
2.77239
1.77602
1.10041
1.47002
2.4072
3.06023
1.72727
2.16558
2.5813
0.271406
1.96766
2.13937
2.30843
1.77486
1.47043
2.08092
1.78072
0.321908
2.10168
2.74628
2.13909
1.91916
1.37216
2.58253
1.13974
1.2952
0.950548
1.441
2.49721
2.18368
2.00203
1.93668
0.523895
2.22574
2.36719
2.22014
2.06398
1.99427
0.809897
1.90374
2.11575
2.46878
2.96307
1.54823
2.11346
1.64981
2.20493
2.60079
0.999784
0.865839
2.59832
2.44141
2.07871
1.53987
1.4154
2.11154
0.973441
2.13145
1.84841
2.87472
2.74492
2.25604
2.15787
1.72562
2.0871
2.41383
2.16416
2.15552
0.0932881
2.39132
2.02069
2.1717
2.13091
2.07965
1.01973
1.52831
2.63625
2.02496
0.0494331
1.5077
2.29095
0.732421
2.17235
0.694167
1.93932
2.17545
2.24581
0.688428
0.333916
2.43016
2.17181
3.13469
2.74888
2.3701
1.42717
2.11763
0.818779
2.31241
2.2177
2.43249
1.91445
2.73826
2.08634
1.0741
2.07772
2.2381
1.37397
2.18748
2.11281
2.07998
2.03137
2.25119
2.11358
1.99122
2.26113
2.60012
2.20172
0.0154215
2.22162
2.10866
2.21467
1.99167
1.13829
2.13927
2.18993
2.13461
2.07368
2.5707
2.22666
1.99984
2.02064
2.21358
2.13615
2.29523
0.965517
2.48342
2.6442
1.65946
2.68448
2.19852
2.19685
2.17738
2.6255
2.37599
3.12889
0.106216
2.45125
2.58883
1.82956
1.28053
1.85001
2.37878
0.542608
1.88116
2.14883
1.9015
1.92271
0.68695
2.32882
1.0965
1.09618
2.71725
1.92781
2.53509
2.05506
2.63637
2.0582
1.23734
2.26812
1.96904
3.0257
1.20279
2.14422
1.09098
0.998849
2.02962
2.23694
0.477713
1.7138
2.14496
1.16139
0.375795
0.705938
2.49457
2.31139
1.85857
1.14741
1.90392
1.85629
1.9377
1.08061
2.84099
2.28127
2.66979
2.788
0.718955
2.52068
2.48919
1.11305
0.965434
1.28923
2.35002
2.18915
2.1116
2.09272
2.1493
2.55768
2.23606
0.134387
1.8985
1.96117
2.02596
1.54516
1.83566
1.19103
2.06721
0.955894
1.11741
1.89263
1.55119
1.9511
0.143904
1.83835
2.12619
2.30456
2.26618
1.70187
1.77509
1.704
1.58276
2.16405
1.70436
0.623614
1.12335
2.09416
1.77794
1.57852
1.86776
1.96494
2.19335
1.77183
2.50615
1.7838
2.0965
2.02585
1.93327
1.84162
1.50663
1.6172
1.49843
1.81534
1.84403
2.62774
2.55497
2.32507
2.96166
0.462081
1.70599
1.84642
1.6998
2.50136
1.90264
2.35442
1.73627
2.66301
1.38747
1.38126
2.23686
2.11122
0.887883
2.05998
1.60255
1.90877
0.263996
1.62704
1.37107
1.8779
2.26893
2.04729
1.8831
1.81955
1.99626
2.39062
1.37497
1.33372
1.33986
3.14959
0.948871
2.38604
1.92332
1.91054
1.96035
2.09139
1.97894
2.01096
1.90426
1.57414
0.59597
1.53571
1.98356
2.36338
1.2568
2.60857
2.00509
1.81593
1.09896
1.98079
0.585727
2.48586
1.99033
1.96123
1.94415
1.76234
2.02459
1.27523
2.0427
2.35242
1.95491
2.16837
1.22529
1.96403
1.89056
1.8289
1.49107
2.46603
1.38187
1.89817
1.18332
2.51495
2.03557
1.9613
1.46663
1.74726
1.45803
2.63585
2.31696
2.673
1.72798
1.25676
1.18675
1.42335
2.6406
2.10566
1.67398
0.84826
1.97087
2.14994
1.37007
2.09298
1.8518
2.17763
1.57307
2.02077
3.78815
2.10606
1.96642
2.09743
0.327533
2.26351
1.49353
1.97458
1.62377
2.01899
1.8249
1.06485
1.43165
1.43322
2.61583
1.59424
1.32649
1.56817
2.10615
1.69528
1.91737
1.76175
1.6976
1.67004
1.48534
2.62971
2.06306
1.47492
1.52938
1.96562
1.81804
2.07311
1.36645
2.34003
2.01924
1.69299
1.37322
1.82983
3.08684
2.62
1.76901
0.989378
1.41668
2.15488
1.54575
1.98118
1.05927
2.07498
1.32645
1.85181
2.36532
1.36076
1.96752
1.22278
2.87565
1.69427
1.7719
2.34004
1.51655
1.97207
2.51589
3.06337
1.76602
1.78692
1.32841
1.17551
0.273125
0.0597788
1.75006
1.10471
2.53542
1.24155
1.31866
1.83086
0.794697
2.05693
2.16279
1.85618
2.07285
1.96502
2.48935
2.20785
2.32915
2.22811
2.32643
2.41049
1.79858
1.17501
1.788
2.17002
1.48389
1.83625
2.46097
2.82297
2.15541
0.960202
0.659766
1.21488
0.183508
2.01968
1.16469
1.7555
2.0677
0.962416
1.46615
0.789975
2.3936
1.83813
2.26987
1.4081
2.92376
2.75634
1.76268
2.218
1.97113
1.95031
1.83341
1.3571
2.17424
2.15115
2.062
2.35071
0.792331
2.62523
2.16749
1.71621
2.15464
1.95523
1.03064
1.71577
1.21265
2.07709
1.50349
2.60736
0.848877
1.71967
0.888141
2.30306
1.73041
1.40325
2.22712
1.05895
2.43517
2.48675
1.97526
1.25687
0.64034
1.05518
0.993926
2.10051
2.41907
2.41079
0.775876
1.98913
1.04926
2.68488
2.10026
2.72598
2.05225
0.925076
1.05359
1.69036
1.59561
1.21654
0.165309
2.05533
2.05536
0.769289
1.13331
1.89886
0.197571
2.53783
1.21875
2.08024
1.89451
1.62081
2.08876
2.10823
2.49182
2.18326
1.90275
0.835374
2.08805
1.89929
2.38848
2.54472
2.91111
1.15678
2.09732
2.1047
2.80808
2.12784
0.602988
1.64065
1.52371
1.59062
2.07279
2.41713
0.976288
2.20608
1.72632
2.42402
0.984299
0.883337
2.29305
2.76794
2.08402
2.55939
1.51123
0.763931
0.0249982
2.22247
2.04395
1.04359
2.48593
1.74594
1.60038
3.18933
1.21152
1.56504
2.10002
2.19795
1.36286
2.44676
2.2056
0.654358
2.13088
0.927636
0.633966
2.52039
2.16036
0.913536
2.08056
1.94778
1.47553
2.21175
1.37581
1.94775
1.42842
1.50964
2.10902
2.03025
2.23049
1.24603
2.54344
2.63764
2.24241
1.9578
1.94171
1.56318
2.53287
2.4756
1.95576
0.721536
1.92623
2.04469
2.15567
1.9894
1.40923
2.31553
1.97469
0.610494
0.627167
2.22442
2.03525
1.95139
1.89121
2.36753
2.06033
0.874057
1.39878
0.91937
2.076
0.240055
1.34972
2.17941
2.20727
2.55356
1.47797
1.49204
1.93886
1.95148
0.678111
2.07186
2.55712
2.50877
0.218036
0.567568
2.51683
1.44413
2.19361
2.02391
1.43226
1.27165
2.09488
2.2786
2.52764
2.06981
1.24823
1.99571
2.09847
1.08921
0.759478
1.20151
2.32045
2.07489
2.5782
0.753716
3.38262
2.38204
0.797179
1.39377
0.988351
1.01669
0.252939
0.758077
2.12914
1.20701
0.905749
0.718409
2.46351
1.60262
0.727849
0.620285
2.85818
1.92609
2.31224
1.38848
1.1282
2.34625
0.672014
2.00012
2.27785
1.31627
1.82097
0.558431
0.800693
1.99975
2.19377
1.63041
2.2633
2.25439
0.243697
1.9103
2.02021
2.36987
1.287
0.684153
2.09153
1.61886
1.20097
2.07229
0.667866
2.28686
0.921285
1.17485
2.4284
1.6127
2.09219
3.13842
1.41248
0.790453
2.1041
2.14734
1.85456
1.51943
0.637264
1.99302
0.616621
2.60916
3.2915
2.47998
1.40273
1.5048
0.272796
1.9854
0.609509
1.95608
1.34247
1.0297
1.4706
1.87148
0.593217
1.16729
1.93389
0.845685
1.84879
1.86993
2.15776
1.4652
3.33619
1.35511
1.34472
0.779616
1.80059
2.07772
1.75443
0.748082
0.548369
1.6028
0.661251
0.573759
1.89623
1.02215
0.228444
2.07569
1.63318
2.12055
1.31174
0.435633
1.44695
2.11843
1.90148
2.08026
1.34054
1.07125
1.01422
1.28268
0.654847
2.7865
1.2281
0.224251
1.25448
1.41713
1.15987
2.10145
2.07239
0.910619
1.66718
0.253571
1.69333
0.473617
2.04691
0.705144
0.955717
1.72401
0.428018
1.80387
0.826429
1.20967
1.8836
0.273126
2.97178
2.08314
2.04501
0.35953
0.203362
1.45624
1.17597
2.0905
0.193113
0.144197
1.15606
0.00322047
0.877282
0.906057
0.979535
1.05345
2.09307
3.05507
2.08896
2.87357
1.68937
1.95341
0.234366
1.08529
1.80716
0.737051
0.791959
0.671388
2.44834
1.53431
1.03741
4.64146
0.953955
1.20982
0.935196
0.0525991
2.49265
1.43817
1.15198
0.707877
1.38859
0.425684
1.49754
2.05458
0.910488
1.59885
-0.0283541
1.81598
0.763588
2.59899
0.945323
1.19598
2.13461
1.46023
0.866141
1.24262
0.389241
2.55701
2.1259
1.27382
0.874799
1.66094
1.0746
2.27394
2.47529
2.38818
1.22775
0.0665694
0.0134924
2.3557
0.763281
2.08276
2.10558
1.89103
2.43531
3.28395
1.28721
2.64433
1.8834
1.98764
2.56471
0.83859
2.11053
0.184205
1.73803
2.07282
0.388715
2.11471
1.1117
2.17005
1.80986
2.04247
2.04776
1.75065
2.1073
2.07432
0.63232
1.76603
0.73475
2.05074
0.233096
0.667807
2.25198
2.54041
0.011936
2.06137
1.52204
0.536146
1.98112
0.181147
1.80732
1.00054
2.05296
0.593232
0.578604
1.5421
0.904422
2.52923
1.99352
2.46892
0.602359
0.993358
1.9761
0.0332753
2.09169
2.11722
2.08869
3.32466
1.66422
0.18338
2.03078
2.03144
1.67431
0.77461
0.540664
2.06447
0.687338
1.08379
0.0292643
0.786815
1.98496
2.57835
2.22728
2.43919
1.61395
0.00609314
1.8743
2.12111
0.216013
0.173864
0.820378
0.418403
0.878105
2.70626
2.10408
0.387678
0.222876
2.12956
2.6382
2.59055
0.27157
2.02194
1.97343
1.88687
2.06174
1.86255
1.45231
2.47776
0.563328
1.96479
2.55859
2.07156
0.55507
2.07676
0.711556
2.77322
2.12603
0.64179
0.388995
2.61537
0.0615189
0.785461
1.76197
0.372991
2.73304
1.75125
1.64397
2.13952
1.53388
2.16018
2.59663
2.09916
2.29382
1.1124
0.33971
1.33498
0.507351
0.379302
2.24065
2.58707
2.50313
1.02371
2.74582
2.00441
0.212498
2.05066
0.52638
1.97826
2.12129
1.93233
1.64984
1.29564
1.74476
1.03289
1.35005
2.06111
1.44785
0.648583
0.277557
0.417825
2.03109
0.495324
2.02025
2.78504
1.68457
0.360967
1.47527
0.419418
2.50951
0.82653
0.456555
0.470228
0.223824
2.66306
0.847338
2.71558
2.11772
0.658803
2.08799
1.31508
2.52209
3.74364
1.18164
0.030874
0.353561
0.301648
2.54829
0.0153185
1.2601
1.91894
2.69514
0.159842
0.303774
0.0314578
0.246298
1.91464
0.0304455
2.7464
1.94058
0.580535
0.250168
1.30436
2.01342
0.0151349
0.375817
2.54781
0.289522
2.00255
2.20384
0.634691
0.0142081
2.22864
0.0155687
2.56958
0.138718
0.989207
0.203319
0.602593
2.3327
0.120359
1.31978
0.26302
2.04847
1.55362
1.6052
1.77726
2.5139
1.17
0.588947
1.68881
1.68575
0.745925
0.820604
1.224
0.434976
2.63872
1.86504
3.08554
0.15244
1.67594
1.04766
2.52186
0.476406
1.9837
0.227151
1.28916
2.00812
0.736618
1.85685
2.07418
1.74798
0.478156
2.13888
0.749294
1.24784
1.59369
2.08082
1.37344
0.876795
0.954803
1.47418
1.21958
0.323374
1.18629
3.70043
0.555034
1.45284
2.01681
2.12579
2.10551
2.06859
1.93024
1.36447
2.06259
0.51706
0.550933
3.21104
0.519134
2.62229
0.868566
1.01215
1.15447
2.23322
0.920395
1.71667
0.349949
0.885139
0.613062
0.512579
1.82842
0.699824
0.745996
0.501915
0.993038
0.389783
2.05943
2.71225
0.165136
0.952108
0.99831
0.296642
1.06516
0.171164
1.09199
0.971032
0.849591
2.10323
1.04994
1.40308
0.128153
1.57744
0.862731
0.144572
0.204537
0.155959
1.04668
1.05353
2.06323
2.00313
2.09961
1.55568
1.64065
2.322
2.09787
0.485359
2.0278
1.783
1.05643
1.79269
2.09174
3.03801
0.872681
0.214013
1.33492
0.446163
0.20514
2.25319
1.71342
2.30149
2.09311
3.11737
0.914651
0.0895636
0.698277
0.311045
1.15153
2.56082
2.68248
0.253897
0.759377
0.437776
2.655
2.18133
1.94674
0.132629
0.195557
1.67544
0.992156
2.12802
1.87494
0.462099
1.55794
2.02614
0.428582
1.41281
0.666067
2.06124
1.2346
2.53425
0.185301
1.28251
1.72725
0.21436
0.747666
1.94137
0.194365
1.0797
0.364054
1.85679
2.061
1.73145
1.92559
1.67818
1.71636
1.72238
1.40475
0.487646
0.698659
0.314259
0.264134
0.388267
1.81742
2.11463
0.970009
2.13453
1.39586
2.12438
0.528016
0.42991
1.23899
2.33323
0.244297
2.12298
1.88877
2.46124
2.14607
0.305482
1.45103
0.797202
2.28456
2.45326
0.421773
2.10521
1.97837
1.51847
0.454085
0.175292
2.23291
1.84046
0.413434
1.62764
0.56562
0.846381
2.44953
0.136965
0.517933
0.838118
0.404937
1.14954
0.500004
1.56437
0.894535
1.81283
1.2434
0.894293
2.06761
2.05293
1.64757
0.154631
0.294584
2.15388
1.63492
2.06539
0.491251
1.59715
0.249246
0.344558
2.37582
1.5974
1.41193
0.459357
1.92344
0.426586
2.11361
0.394146
2.13437
0.557771
0.117342
0.508858
1.16125
2.26256
1.87164
2.12784
0.402744
0.647772
2.13579
2.08913
1.67421
0.19528
2.24352
2.09505
2.15065
0.411117
0.214665
0.652756
2.23821
2.12584
1.1747
1.70393
0.581639
2.69947
0.520824
0.451166
0.679359
0.699436
0.24412
1.51578
0.748622
1.45127
2.12435
1.78237
2.05961
0.549813
0.345398
2.31611
2.19725
1.56776
2.41371
0.785382
0.292022
0.26292
2.54825
0.728398
0.915279
0.371234
2.14051
1.83103
0.547195
0.981638
1.74442
1.60564
1.09672
2.68921
2.12163
1.56894
3.09227
0.831433
1.33031
1.84669
2.23073
0.362606
0.594772
0.235353
1.63609
2.08036
1.01761
2.08047
1.63804
0.539085
0.0864138
1.70821
2.15187
2.30238
2.28563
2.05605
2.03282
2.34754
1.98845
0.467181
0.982571
2.24631
0.957932
1.0851
1.22081
0.692316
1.00387
1.74063
0.146556
0.516419
2.2603
2.26413
1.2062
0.959851
0.283403
2.74256
1.67111
1.265
1.99824
0.734537
0.77854
0.69162
0.459868
1.02391
2.03954
2.11392
0.127055
1.12781
2.0654
2.05418
2.12737
0.894721
1.28039
1.90329
0.381723
0.587301
2.12189
0.255081
2.53365
0.68147
1.51845
0.673588
0.827354
2.12806
1.71008
1.88738
1.35591
0.285724
1.90759
2.20324
1.82408
0.716224
2.33945
2.52562
0.17157
2.07993
0.571258
0.331512
0.344599
0.932156
1.91546
0.728163
0.875696
1.9214
1.95842
1.86283
2.88775
0.634523
0.495078
2.54599
2.11125
1.54039
0.974259
2.53987
0.673832
1.32462
0.82459
0.76768
0.335779
0.38531
0.446573
1.84066
0.470033
1.5613
2.05485
2.71656
1.28377
0.372573
1.56431
2.30179
2.12566
1.01833
2.07277
2.87087
0.396366
3.03846
0.164734
1.57366
1.993
0.95553
3.16359
0.859456
0.156126
1.34677
0.35548
1.06604
0.838477
0.499287
1.30214
0.813824
0.744001
1.46136
2.72425
2.26201
1.95436
2.05481
0.126294
0.467945
1.61373
2.13242
0.302315
2.07173
0.44969
2.37376
2.21262
2.03246
1.25127
1.86969
1.0717
1.81392
1.93302
1.80089
2.26504
0.0684458
2.72415
2.38333
1.43657
2.65985
1.82691
0.135788
0.586503
0.468076
0.658955
0.827548
2.73287
1.1199
2.74446
1.54231
2.53441
2.68217
2.54282
1.68733
0.341864
0.953944
1.66475
2.21019
2.08698
1.25164
0.738891
2.03019
1.39815
0.943034
1.14321
1.12226
1.50625
2.06817
0.478904
2.0327
2.26501
0.437647
0.92355
1.91959
2.12768
1.03369
0.929507
0.605171
0.94181
2.51834
1.90973
2.08913
1.25587
2.50908
2.04763
0.643837
0.510163
2.32047
1.03123
2.47723
1.99364
1.80409
1.00816
1.38582
2.04619
0.987395
1.00544
2.17385
2.12857
2.58129
2.10668
1.97615
1.15407
0.333278
1.60167
0.530618
2.12918
2.12463
1.01739
1.65242
1.46291
2.20174
1.06521
0.930604
0.720898
2.05164
0.442958
0.999989
2.42438
2.57604
2.20435
2.13658
2.17495
2.29866
1.23222
2.02805
0.60989
0.0839152
1.11164
0.0682011
1.12207
0.870412
1.69696
2.22699
1.75986
2.03625
2.20957
2.14017
1.56854
2.12284
0.948148
1.7238
1.8655
0.939538
2.33812
1.60668
1.82147
1.9356
1.54919
1.66108
1.55805
2.21467
1.20336
1.90707
1.88515
3.125
1.983
2.3479
2.34315
2.07228
1.42487
0.936868
1.36415
0.852645
1.39947
1.9742
0.533283
1.19037
2.76713
1.42329
2.05033
1.83988
1.11619
1.66881
0.397943
0.313353
2.20584
0.502359
1.40892
2.35019
1.75862
1.15582
1.99742
1.63749
1.49105
2.22722
1.24838
1.56942
2.09699
1.32075
1.713
1.35016
1.84015
1.21484
2.21545
1.34934
1.64887
2.10277
1.92794
1.26171
2.09878
1.84881
1.85357
1.10572
1.64847
2.15064
1.07847
1.6406
2.10635
1.87049
1.20563
2.68326
2.0254
0.277528
1.68866
2.10287
1.14183
2.61468
1.70063
1.1974
2.18005
1.27361
1.79409
2.43345
1.3191
1.2093
0.836034
0.897997
1.54449
1.83695
1.30913
1.94801
2.40458
2.01855
2.15826
1.19169
1.46635
1.46024
2.21111
0.870198
2.08624
1.02538
1.85254
1.2941
1.56615
2.42091
2.48169
2.16395
0.487816
2.64786
1.57002
1.75857
2.09568
2.1701
1.87253
0.351412
1.56409
1.68859
1.44274
1.58654
1.31403
2.35034
2.09475
1.78386
1.60451
2.21546
1.92744
1.90026
1.29782
1.43174
1.43856
2.46913
1.30868
2.22249
1.1642
1.62975
1.78773
2.17439
1.81013
2.18814
0.505545
0.543601
1.95351
1.82873
1.60969
2.19209
2.40592
2.08295
0.883756
2.1905
1.26802
2.19382
1.96224
2.21379
2.22575
2.2454
2.30195
2.40322
2.44088
2.47514
2.50964
2.54321
2.63652
2.66625
2.69443
2.74352
1.66017
1.75896
2.37509
2.05778
1.29259
2.16445
2.04865
1.42769
1.52874
0.0657566
1.87022
1.91578
0.483437
1.42217
1.69132
2.09735
2.20096
2.04324
2.09987
1.06869
1.29802
0.267747
2.16741
1.78338
2.04406
2.02289
1.37017
1.30369
1.54806
0.2556
2.1751
1.04191
0.964214
1.97767
1.72914
1.53783
0.934587
2.12467
1.80775
2.35562
2.19663
2.00082
2.60671
1.89514
1.59929
1.94397
1.53558
1.76908
1.9107
2.98005
1.62783
0.80683
1.66809
1.80471
0.0748851
2.29268
1.69933
2.90174
2.36428
2.09085
1.97236
2.29722
1.81656
0.420854
0.0766733
1.58224
2.14662
0.777879
2.85977
1.47171
1.6652
1.3833
0.905609
1.84313
2.57514
2.3181
2.43523
1.04699
1.83518
0.0809365
2.01822
1.86898
1.90094
2.20571
1.62053
1.69753
1.52915
1.85281
0.110064
1.89278
1.53333
0.973424
0.931068
2.2329
1.41716
2.49731
1.7688
1.63842
2.25416
2.40057
2.23189
1.91577
2.29559
1.85748
2.57214
2.28894
1.52858
2.07982
1.59391
0.382449
0.975705
0.602334
1.72017
1.61043
0.908898
1.93734
1.94104
1.48452
1.14808
1.50325
2.06374
2.50124
2.05442
2.09723
1.65985
2.38497
1.29484
2.44739
1.80429
1.56169
2.09222
2.12303
2.40008
0.411351
2.00281
1.14231
1.47814
1.24207
1.66115
2.44776
1.51962
2.71595
1.92331
2.33147
1.86715
1.52429
1.78644
2.2755
2.2449
2.70236
2.2425
1.98007
2.55271
2.07008
1.62972
2.10122
1.69515
2.01406
2.52073
1.52361
2.77443
1.68893
2.32786
0.719712
2.36096
2.51863
2.118
1.91158
0.784476
0.0687245
1.60781
1.69276
2.04133
2.02893
1.64415
2.04048
2.52987
2.27065
2.19151
1.95789
1.45523
1.55255
2.69986
1.59573
2.54068
2.12144
1.59271
1.0793
1.37813
1.99558
1.17297
1.60412
2.13898
0.971262
1.68979
2.15112
2.07724
2.67994
0.00711753
1.97733
1.27788
1.97025
0.88088
2.11969
2.43573
2.12739
2.01213
1.74754
1.85405
1.57264
1.65783
2.29048
2.06275
0.20475
1.88982
1.84013
0.982272
1.77725
1.90095
1.80143
2.0241
0.328854
2.50649
2.06696
1.74622
0.948211
1.77489
0.914915
2.25286
1.05854
1.96818
1.35889
2.03681
1.64274
1.68575
1.93518
0.867923
1.79854
1.68304
2.54377
1.28763
1.70688
1.68883
1.67634
2.432
1.86462
2.27498
1.97496
1.35419
2.41959
2.16353
1.33087
0.570513
2.19876
2.08517
1.67992
2.01483
2.00091
1.21838
2.31106
1.98754
1.86232
1.78976
2.79339
1.99286
2.2984
2.05577
0.845675
0.222115
1.85941
1.8686
2.56503
1.80622
2.10365
0.863429
3.0863
3.00453
1.15314
2.6204
3.11691
2.02948
0.165689
2.54014
2.50024
1.48502
1.97234
1.3931
0.232323
2.47853
2.35908
0.234104
2.11883
1.34371
2.12413
2.39477
2.04325
2.073
2.01034
1.46951
1.30405
1.76862
2.33845
2.0789
2.61821
1.71672
2.26975
1.89302
0.695716
1.88956
1.54947
2.47136
1.83322
2.49074
1.49228
2.17278
2.04429
2.48076
1.85971
1.65232
2.05605
0.926942
1.88883
2.40795
1.88401
2.52833
1.90724
1.9215
2.17898
2.31468
2.17369
1.92634
1.07704
2.04008
1.19957
1.81858
1.64757
2.09297
1.9293
2.12785
1.49424
2.17639
2.0678
2.03039
2.33724
2.40478
1.50301
0.111568
1.70672
2.60685
0.472403
1.57492
1.80411
0.859912
2.02931
1.91705
1.51334
1.18182
1.19038
0.916125
2.02799
1.94424
2.03805
2.09189
1.51007
2.82046
2.17542
2.04073
2.05638
1.34299
0.891236
1.92351
1.15067
1.74824
2.84232
2.53022
2.49762
1.55954
1.84547
1.31249
2.20719
2.46629
2.39572
2.50104
2.52278
1.9502
1.1055
1.39091
2.18772
1.96944
2.54053
0.293009
1.72837
-0.299962
2.02072
2.10519
1.2296
2.02571
2.04958
2.10724
2.51251
2.47651
2.33324
2.48685
2.34217
2.34515
0.322742
2.01491
2.03598
2.27091
1.99269
2.04305
2.32562
2.25766
1.12031
2.09029
2.41353
2.47709
2.17822
2.48037
1.96816
1.97014
2.19038
1.63366
3.00937
0.580058
2.15327
2.24419
1.87472
1.63597
2.0836
3.05902
1.98872
2.24309
1.65661
2.14468
0.886774
2.70432
2.08092
2.00604
2.16376
2.131
2.23261
2.92645
2.77584
1.57856
0.956775
1.53037
0.902139
2.03131
1.59411
2.23254
0.332633
1.32384
2.37406
2.89574
2.00849
0.0309635
3.12629
2.1621
2.33674
1.48603
2.52465
2.11728
2.28826
2.50653
0.140894
2.45873
2.02395
0.739469
2.23368
2.20649
2.24302
2.94081
2.94622
1.71072
2.16756
1.16511
2.01957
2.03787
0.502377
2.49625
2.1653
2.03753
2.34694
1.71722
0.286386
1.67418
1.98784
2.77815
2.05104
1.39115
0.624374
1.5782
0.475025
2.01966
2.06333
1.73533
2.07563
2.09929
2.07466
0.114718
2.10161
1.57505
2.17249
2.2333
0.535219
0.013316
2.99466
2.86412
3.1048
2.72889
2.13977
1.50164
2.14011
2.10577
0.855132
2.83035
2.31279
1.0197
2.44765
2.38287
2.34736
2.19564
2.11367
2.65501
2.1976
2.24305
1.63405
2.23158
2.24491
2.42375
2.45499
2.49034
2.5233
2.64627
2.67822
2.38239
2.10488
3.22615
1.68173
2.35494
2.08287
1.59095
2.36959
2.2496
1.77735
2.12969
2.21907
2.10391
0.652864
2.0789
2.9056
2.32801
2.86195
2.7576
3.10263
2.24358
2.20426
2.94433
2.13289
2.61971
1.0556
1.54667
1.1513
2.1154
2.37255
2.27594
2.12988
2.25783
2.10516
2.37627
2.05422
2.38159
2.11605
1.18753
1.95076
2.20626
1.68731
2.19069
1.94561
3.42461
0.148816
2.3844
1.65682
1.83011
1.60595
2.366
1.45215
2.1159
0.398021
1.65584
2.37149
2.07031
1.93774
1.91028
0.331568
2.38023
2.55658
2.07686
2.06171
2.3604
1.66861
1.37725
2.53929
0.24322
2.23382
2.01796
2.14367
0.10613
1.14939
0.21985
2.13585
2.52383
0.167672
1.71936
0.573805
2.25557
1.99203
0.705256
2.03861
2.1484
3.00042
0.525269
2.27523
1.23565
1.02159
1.05896
2.58744
2.21979
2.11188
2.10123
2.73618
2.00856
2.50521
0.0749386
2.75172
2.42232
0.154612
2.17087
2.32808
0.812894
0.497885
2.045
2.05359
3.06392
0.576923
2.06152
2.05074
0.266602
2.15632
1.33864
1.99883
2.61679
2.01727
1.99519
1.72296
1.66502
2.78874
2.88573
1.32703
2.18627
2.06479
2.75316
2.21629
0.843582
2.30662
2.17671
2.18758
1.14539
2.0592
2.42782
2.11418
2.31041
2.09147
2.12363
2.10135
2.13964
0.278487
1.95998
3.08167
1.093
1.80454
1.6379
3.49359
2.38868
0.013282
0.0308654
2.54041
2.53855
1.90203
2.13124
2.11067
0.316915
1.93621
1.95647
2.50432
1.50731
2.68037
1.95839
2.21616
2.92732
0.789544
1.97828
2.26782
2.29777
1.94269
1.74714
2.8472
2.20577
2.41795
2.10203
2.14588
0.610714
2.57324
1.45135
0.844961
2.10492
2.35391
1.30041
1.78714
2.1582
2.44154
1.55676
2.05852
1.41447
1.95941
0.880898
2.20164
1.46515
2.39793
2.05366
2.55603
1.76223
0.480113
1.14167
3.07589
0.304386
2.11268
2.09352
2.81207
2.26094
1.22591
1.88066
2.08018
2.10366
2.26487
2.10182
2.43604
1.83246
2.47043
2.03629
1.90437
2.83235
1.53947
1.9478
2.59268
2.46145
3.17984
2.11235
2.01423
1.08543
2.13775
2.17901
2.41498
1.81644
2.01848
1.06296
2.01963
1.47981
2.29417
2.02158
2.23009
1.30576
2.03536
1.03626
2.4421
2.04424
1.14179
0.419525
2.33881
3.10837
2.23375
1.98631
1.83023
1.62321
2.87873
2.05684
0.144259
2.20538
2.16819
0.0813055
1.77734
2.03073
1.76592
1.57509
2.42819
2.81101
2.7758
2.07325
1.48769
2.08753
0.816603
2.64851
3.04094
0.550936
1.75676
2.33827
3.05395
0.223052
2.80603
3.0659
2.06763
1.60291
1.81346
2.82732
1.69172
2.12902
3.25991
1.61001
2.84882
1.93906
1.92722
3.02632
2.58469
2.84369
2.77721
1.41161
0.124931
2.58715
2.27523
1.8082
2.25698
2.29516
2.12943
1.96785
2.82183
1.58972
1.62824
2.1876
2.31903
1.96841
2.13887
2.24816
2.79279
2.19919
1.95312
3.01103
1.37598
0.364231
2.2103
2.09496
2.23315
0.700412
1.71135
0.203906
2.30294
2.07563
0.267276
1.23727
1.38998
0.759279
2.3077
1.79529
1.63164
1.91318
2.09714
1.75652
1.49901
2.78969
2.00407
2.00735
1.20351
1.79812
0.632839
2.12419
2.42839
2.28571
2.57096
1.67393
2.40356
2.59679
2.65756
1.96789
3.00455
1.95516
2.80186
2.189
0.0944358
2.01789
2.00887
1.97972
2.48953
2.08855
1.2355
2.95311
1.64855
2.50665
2.03462
2.4919
2.29702
1.49751
2.01812
2.12331
1.31476
1.00556
1.7867
2.06602
1.59312
1.6147
2.12463
2.56367
1.68898
2.00563
0.00962131
3.24384
3.09749
1.68705
1.19998
2.00447
2.0157
2.1134
0.768834
2.36363
2.07984
1.02003
0.963588
2.16455
1.05279
1.99309
2.08863
2.82595
2.11036
2.90764
1.02984
1.78078
1.84597
2.48864
2.38719
2.17396
1.51945
1.85146
2.75462
2.03697
1.1929
0.364474
1.50507
0.107378
2.23878
1.87464
1.96697
1.53758
2.53134
0.624185
1.55218
2.70351
2.72798
1.95598
1.22318
2.66146
0.763291
1.1004
2.3707
1.11462
3.27629
2.02585
2.81132
2.27167
0.372126
1.66339
2.97803
2.84853
1.87901
1.91618
1.60253
2.47154
2.41201
1.80796
1.23481
2.28016
2.10173
0.132029
2.06584
2.0959
2.11683
1.61671
3.28426
1.85639
1.96013
2.10127
1.11872
0.194074
1.28456
1.93217
2.8485
2.23267
0.446501
1.04919
2.16132
2.99532
0.719179
1.01448
2.32442
2.12864
2.93242
1.99827
2.88305
2.84417
0.677473
2.77186
2.83317
2.02719
2.34141
0.682544
2.85635
1.14132
0.482219
1.68249
2.65985
1.75233
2.67004
1.28624
3.31282
1.46497
0.103165
2.98286
2.09122
3.10017
2.45467
2.22515
1.98556
2.1084
2.91154
1.07373
0.560859
2.41892
1.03027
3.56723
2.19021
2.19101
1.38399
2.30862
2.40183
2.11212
2.01842
2.075
1.8835