/*--------------------------------*- C++ -*----------------------------------*\
  =========                 |
  \\      /  F ield         | OpenFOAM: The Open Source CFD Toolbox
   \\    /   O peration     | Website:  https://openfoam.org
    \\  /    A nd           | Version:  7
     \\/     M anipulation  |
\*---------------------------------------------------------------------------*/
FoamFile
{
    version     2.0;
    format      ascii;
    class       surfaceScalarField;
    location    "30";
    object      phi;
}
// * * * * * * * * * * * * * * * * * * * * * * * * * * * * * * * * * * * * * //

dimensions      [0 3 -1 0 0 0 0];

internalField   nonuniform List<scalar> 
176195
(
191.137
68.0526
-259.19
-472.872
101.822
371.05
-66.0201
-65.7171
131.737
65.5178
-224.044
158.526
-502.043
350.902
151.141
173.358
-315.423
142.065
-111.602
184.876
-73.274
-90.1974
220.3
-130.102
-360.33
330.31
30.0205
-464.19
-8.68245
-219.856
340.656
-120.799
507.629
-359.979
-147.65
-138.917
340.689
-201.772
5.93507
-1.12186
-4.81321
-64.9141
-295.416
-28.6439
-1.50758
30.1515
-457.334
103.879
353.455
-395.745
84.3339
311.411
-226.323
298.278
-71.9551
-362.575
-139.468
-85.543
206.95
-121.407
90.5038
-90.818
0.314218
371.757
-260.764
-110.993
111.134
-245.181
134.047
-402.548
327.605
74.9429
30.0894
125.72
-155.809
-53.8692
30.5545
23.3147
-269.713
589.86
-320.147
-258.616
-178.539
437.156
-38.0081
105.83
-67.8223
419.406
-332.421
-86.9847
-327.172
-9.69936
336.871
-306.359
474.697
-168.339
-51.0046
-43.0151
94.0197
-185.411
-120.357
305.767
176.354
42.2886
-218.643
-155.36
84.6125
70.7476
-115.936
-341.398
-225.892
-25.1307
251.023
103.054
143.42
-246.474
106.595
-433.766
-67.2744
-328.47
-83.363
-39.8661
123.229
-59.0842
235.438
-12.5313
92.9511
-80.4198
3.59325
2.34183
294.116
71.2748
-365.391
689.022
-389.516
-299.506
433.347
-181.166
-252.181
423.083
-547.267
124.184
-391.197
478.701
-87.5041
168.888
-64.294
-104.594
-483.218
377.172
106.046
-503.653
450.307
53.3463
-137.036
-153.325
290.361
-364.139
-119.079
649.167
-418.649
-230.518
-106.503
88.543
17.9596
-67.1618
34.2374
32.9244
110.129
-179.994
69.8651
-507.399
331.804
175.595
-158.417
259.49
-101.073
307.355
-116.666
-190.689
-75.9775
111.102
-35.1246
290.055
89.9582
-380.013
13.5559
-456.105
442.549
-350.653
225.54
125.113
-206.684
450.502
-243.818
-32.3783
-4.39405
36.7724
-638.521
311.006
327.515
4.12011
102.581
-106.701
-10.0505
22.7116
-12.6611
291.424
-188.369
-58.9391
33.4805
25.4586
-113.958
-80.378
194.336
46.3542
-90.1335
43.7792
-111.296
101.006
10.2893
238.351
-400.83
162.478
-401.789
73.8481
327.941
-272.852
139.094
133.759
-129.572
-143.281
426.371
-429.421
3.05005
2.96804
-94.0374
91.0694
-398.449
727.542
-329.092
-67.3413
149.659
-82.318
342.502
165.127
-89.23
120.426
-31.1964
-322.592
472.146
-149.554
62.1469
-63.6195
1.47263
-89.7627
442.046
-352.284
62.7989
-126.338
63.5394
122.824
-13.8492
-108.975
209.507
-468.123
149.228
79.3315
-228.559
-393.744
282.305
111.439
-607.313
436.516
170.797
245.613
-302.528
56.9149
94.585
-91.617
-114.418
-54.3791
168.798
5.01793
57.1289
-320.38
-187.018
232.962
-534.78
301.818
356.987
-186.807
-170.18
-582.745
602.32
-19.5745
131.623
-127.503
203.587
-132.61
-70.9773
-424.75
231.482
193.268
-78.6699
125.692
-47.0218
-145.807
197.587
-51.7793
-314.705
-66.4021
381.107
-1.64402
133.437
-131.793
-52.6937
298.307
-27.2738
-84.0217
145.057
79.4323
-224.489
-210.715
83.1771
127.538
209.573
-356.163
146.59
-295.27
75.4133
-118.204
144.354
-26.1493
364.087
-543.482
179.395
18.2177
-28.2681
-148.547
30.3425
-2.74724
-25.8967
-157.351
69.8967
87.4538
94.2417
-31.0866
-63.155
-230.426
531.755
-301.329
-119.644
81.6362
-208.399
49.9818
-185.377
113.335
72.0422
-136.889
-35.6098
172.499
-641.984
644.168
-2.1838
-123.82
241.208
-117.389
588.664
-301.106
-287.558
-46.2623
101.494
-55.2319
551.766
-209.265
-329.591
482.593
-153.002
-164.779
242.302
-77.5224
-391.857
329.951
61.9059
78.6405
-384.999
137.546
-274.582
155.168
104.323
77.4382
-4.8802
-72.558
-206.684
359.84
-153.157
507.528
-508.892
1.3649
400.135
-156.093
-244.041
-271.711
147.891
141.993
-533.189
505.93
-369.438
-136.492
-80.6191
-127.78
-515.972
309.288
-215.08
-222.677
437.758
110.293
93.2945
69.4901
-82.0214
6.34395
116.48
-566.835
272.831
294.004
82.8296
86.0588
-435.01
509.783
-74.773
-410.789
96.0843
-137.708
213.993
-76.2855
68.8562
-68.1382
-0.717985
-201.112
166.55
34.5616
82.5328
-36.1786
172.424
333.506
141.954
165.401
-203.43
142.815
60.6152
240.769
-143.618
-97.1517
143.654
134.51
-278.163
519.088
-294.703
-224.386
-38.3221
-102.494
140.816
-192.021
54.3132
-216.894
126.03
90.8638
-194.323
134.579
59.7438
-114.344
408.46
150.044
-137.74
-12.3043
18.2653
-5.45291
-12.8124
-88.5665
-64.6315
153.198
231.777
-519.006
287.229
5.66455
12.6007
135.716
118.057
-253.773
142.793
-372.897
230.105
280.719
152.628
-338.176
-168.593
506.769
-196.014
82.0566
69.1281
-253.679
184.551
-274.82
446.123
-171.303
-181.095
-243.655
-197.026
378.206
-181.179
98.7726
-208.004
109.231
313.209
186.791
-148.268
356.587
-208.318
-73.2287
136.028
-131.346
267.062
-359.699
195.171
164.528
423.788
22
-445.787
-140.505
76.7441
63.7607
-135.87
165.96
60.0777
-163.657
103.579
17.2529
-11.5884
-60.3094
56.9956
3.31383
34.9281
-89.2659
54.3378
77.4162
129.606
-207.022
-579.951
435.789
144.163
-335.342
317.733
17.6086
424.44
84.8593
-509.299
481.607
-477.681
-3.92547
-251.446
145.431
106.015
82.6132
-42.0917
-40.5215
349.193
-225.185
-124.008
-90.229
380.284
-245.563
-251.493
497.056
88.5517
-220.593
132.041
5.49578
11.7572
-6.2796
237.762
-11.0718
-391.476
-384.928
295.165
-129.272
-77.0475
206.319
-60.8138
-79.691
-162.3
269.786
-107.486
-204.443
-155.972
360.415
3.71728
-0.124015
-134.877
-242.443
377.32
110.474
26.9593
-137.433
102.608
-10.4923
-92.1154
122.532
-346.469
223.937
-40.4893
73.2906
-32.8013
-73.5062
-430.147
-315.499
103.267
212.232
-189.485
-102.986
292.471
105.189
-39.4904
-65.699
167.999
-107.921
-427.396
37.4388
389.957
-11.5765
-511.281
522.857
93.335
-118.191
24.8564
0.226146
-62.2831
62.057
79.2922
-153.525
74.2329
-241.18
112.788
128.392
-196.353
-383.598
-683.223
306.435
376.788
431.229
-214.849
-216.38
-42.1265
138.839
-96.7123
143.662
-95.3138
-48.3483
-137.623
4.51226
133.111
-284.321
167.068
117.253
-172.799
-28.3125
39.2216
-153.64
212.612
-163.22
-49.3923
-216.727
440.522
-223.796
491.988
-286.87
-205.118
72.7327
-46.6907
-26.042
-137.532
99.2097
-54.7219
5.39974
49.3222
336.331
151.921
-488.252
-317.977
170.683
147.293
261.065
-592.483
331.418
403.2
-203.519
-199.681
192.351
-129.094
-63.2566
2.97028
-341.146
87.1924
-8.36111
-78.8313
-731.319
391.699
339.62
525.539
-525.539
-214.593
124.396
454.779
-451.809
2.04787
1.66941
-517.469
242.649
125.01
161.994
-287.004
13.3306
-159.138
207.897
-142.38
56.0428
38.1989
131.561
-214.578
83.0166
-44.7781
121.833
-77.0547
-128.522
88.2645
40.2579
412.057
-132.538
-279.518
-361.062
212.794
466.946
-186.227
-222.471
-61.8504
178.694
136.505
-315.199
-128.55
56.9563
71.5938
66.8413
-102.711
35.8694
-169.03
80.4632
-245.06
299.356
-54.296
58.9851
-137.655
-112.325
-91.1051
75.7236
144.942
-406.149
261.208
54.1201
28.4931
464.732
-223.578
-241.154
215.594
247.437
-463.031
5.75507
-321.254
562.973
-578.245
15.2718
130.997
-108.485
-22.5124
-214.054
-13.0788
227.133
111.538
-44.6966
-500.647
67.705
432.942
8.74547
48.527
-57.2725
283.511
-289.79
-232.995
405.335
-172.34
-580.769
378.305
202.463
307.911
-233.757
-74.154
-226.56
-162.519
389.08
-138.485
364.946
-226.46
-94.7618
-33.7607
4.79707
-13.9078
9.11076
122.257
-184.503
62.2461
-54.9533
5.46551
49.4878
249.125
-163.005
-86.12
108.545
16.799
-125.344
-181.717
278.65
-96.9323
-242.407
170.009
72.3975
64.6371
40.5523
345.352
-133.9
-211.452
-180.323
323.116
-103.287
-109.001
212.289
101.802
-14.0594
-87.7422
-56.6982
92.7164
-36.0183
-133.534
91.4075
-323.589
184.672
-188.812
379.225
-190.412
484.908
-61.1208
228.348
-445.075
217.741
-106.606
21.3032
-76.0492
54.746
-47.0342
-150.538
197.572
245.253
-380.13
-83.7238
508.164
-58.7689
-151.946
240.79
-6.26741
-234.523
-75.7528
35.9981
39.7547
-439.81
4.79973
269.212
-458.263
189.051
12.1141
-7.31706
55.4586
-46.7131
115.924
-219.212
-431.556
-69.0917
176.836
184.64
-361.476
220.265
87.6464
238.062
-105.823
-132.24
127.136
119.721
-246.857
-215.395
81.9646
133.431
77.1763
-353.215
276.039
336.195
-162.837
195.122
-96.3494
73.9607
68.427
-142.388
-69.3718
254.256
-184.885
-32.0427
-21.8265
66.8202
-107.313
40.4931
206.933
-71.9344
-134.999
-225.194
-215.313
440.506
-176.962
-68.0979
-122.93
-44.2241
167.154
40.5043
54.0872
-94.5915
327.664
-169.245
-158.419
-116.305
70.0424
-512.476
310.819
201.657
437.879
16.8998
112.67
-242.368
129.698
172.61
-95.1942
205.588
67.9771
-273.565
-62.9587
254.096
-105.618
-299.633
405.251
-211.878
382.023
-170.145
-116.532
276.655
-160.123
-15.5534
179.532
-163.978
150.639
-122.347
-28.2919
-87.0483
-68.3118
-264.999
150.142
114.857
155.686
-25.6159
-130.07
-438.379
332.761
-58.5901
59.8976
-1.30747
-142.359
70.4102
71.9489
321.541
-199.01
-169.327
473.305
-303.978
247.121
-157.746
-89.3753
-31.8059
47.981
-16.1751
40.1227
32.61
21.9865
211.556
-233.543
108.418
-29.4254
-78.9924
99.6209
343.457
-443.078
168.175
522.349
-99.2662
152.003
135.298
-287.301
-153.197
317.203
-164.006
136.53
-43.195
187.914
-122.959
-64.9549
-51.8325
177.634
-125.802
148.882
-265.414
489.552
-273.958
-365.109
362.869
2.23944
69.5774
-69.3512
-47.7969
4.81292
42.984
564.647
-213.745
-56.3483
196.922
-140.574
-303.424
463.813
-160.389
267.26
123.572
-390.833
30.9329
-120.163
-576.83
307.117
-4.61186
107.22
-280.49
121.779
158.712
252.648
92.7035
-312.718
-174.647
487.365
271.767
195.179
-64.053
-35.0199
99.0729
56.6799
10.3457
-67.0256
-179.999
314.47
-134.47
122.581
-115.994
-6.58713
-151.823
313.029
-161.206
163.257
172.872
-336.129
110.26
81.4952
-191.755
143.697
-473.288
-158.451
246.893
-88.4417
-145.806
261.99
-116.184
-52.2594
80.5805
-28.321
232.704
-129.488
-103.216
-208.624
99.6223
243.674
-468.867
-64.7078
196.412
-131.704
-134.475
67.1342
190.944
108.412
420.618
-148.851
112.506
-230.359
117.853
354.092
72.3057
-426.398
-245.608
506.609
-261.001
-232.5
-266.694
14.6974
-9.20164
617.859
-401.113
-216.746
8.91467
105.412
-114.327
-95.0881
38.39
341.975
-357.958
15.9821
-84.7649
195.025
-296.384
344.463
-48.0792
394.243
254.924
173.45
113.77
-287.22
-586.312
425.753
160.559
-322.928
421.421
-98.4934
-91.6985
177.23
-85.5311
102.353
-37.7156
96.2125
152.913
118.571
-277.022
-113.123
268.884
-155.761
403.837
214.022
332.275
-320.918
-11.357
325.184
-541.698
216.514
331.804
-93.453
-131.427
-510.557
75.1683
-218.728
143.56
36.2947
-100.348
331.336
133.397
214.304
-159.963
-54.3404
223.089
217.433
136.819
224.156
-360.975
-61.1117
328.372
482.232
-250.455
-319.591
-60.6097
380.201
-290.929
-184.736
475.665
439.315
-276.056
-163.259
567.429
-311.2
-256.229
-48.6707
-88.8611
-34.5651
222.521
-187.956
73.8867
114.618
-188.505
44.7056
-76.4732
31.7676
38.3911
247.738
-286.129
-67.6681
12.0123
55.6558
35.7437
86.8371
445.705
-222.616
410.014
154.633
-398.846
54.9172
343.928
9.44759
92.354
-200.717
115.174
-214.181
-241.663
455.843
-18.6446
13.1917
-15.3377
-52.3305
170.464
-461.393
243.944
7.32658
-48.1902
40.8636
193.714
-54.8752
-43.0554
-15.8837
-261.654
148.531
-30.457
271.247
-324.158
499.096
-174.938
289.615
-503.795
483.745
-250.784
138.387
204.788
-343.176
-156.216
45.7624
110.454
-367.385
488.588
-121.202
303.617
-226.441
649.787
-265.044
-384.743
97.0138
96.7003
345.02
-147.907
-197.113
-243.783
428.79
-185.007
174.154
-209.992
35.8387
-273.618
42.7514
230.867
13.756
-108.518
70.0834
-336.997
266.913
13.2688
-58.2015
44.9327
469.042
-286.863
-182.18
293.961
-513.832
219.871
-209.377
144.67
160.727
86.3939
47.8705
-22.7616
-25.1089
238.678
-93.6208
266.186
165.043
304.421
-183.477
-120.944
-268.092
147.509
120.584
-525.739
258.63
267.109
159.037
-79.7451
-43.1396
140.943
-97.8034
-188.032
-54.3744
322.396
19.5793
81.4718
-10.2121
-71.2597
-76.6467
150.607
-27.7288
-109.894
-556.218
337.431
218.787
268.158
-155.488
198.96
204.241
204.661
-408.18
-473.459
237.643
235.816
-243.367
170.673
72.6931
122.833
-68.5695
-54.2634
-253.19
-182.746
435.937
140.595
118.763
-259.358
-402.391
253.131
149.26
-239.075
-163.316
-664.511
436.968
227.543
-274.645
86.6126
644.834
-333.534
-311.3
-183.19
-178.135
361.326
-57.583
67.3816
-9.79857
-120.622
240.775
-120.152
-179.52
87.8218
-406.412
499.025
-92.6129
4.75355
151.026
-155.78
-424.437
231.318
193.119
-80.4897
-113.833
132.785
-116.975
-15.8092
286.249
134.369
575.833
-319.122
-256.711
253.083
-519.697
266.614
17.0805
-54.8499
37.7694
27.285
20.5856
-60.2356
112.844
-52.6083
275.591
300.243
42.7273
-93.7319
-290.127
220.755
3.81438
-36.1927
8.63448
147.051
344.721
81.6498
63.5936
38.7591
42.5458
-177.05
134.504
370.415
-522.632
152.217
-79.5746
329.477
-249.902
-18.733
63.4386
206.563
443.224
-134.076
393.197
-259.121
100.041
-210.754
110.712
-365.591
-317.632
-29.7046
-48.4991
78.2037
12.9044
-70.4874
-44.8294
58.0982
105.547
-38.7268
184.056
-367.246
-95.9762
32.4796
63.4966
-394.264
-63.4686
457.732
-338.496
523.604
-185.108
103.905
-427.793
323.887
71.4398
-112.353
40.9136
-34.0637
-393.332
279.774
96.2745
-376.049
180.587
-105.418
192.968
-101.278
-91.6902
496.213
-152.174
-344.04
-442.701
53.2044
389.496
320.952
117.334
-438.286
-610.136
633.714
-23.5779
-91.9136
-65.4369
-94.6775
49.8994
150.604
153.817
313.31
-664.012
350.702
426.92
-413.364
431.605
-151.831
598.87
-326.7
-272.17
-202.283
205.615
-3.33169
-15.1051
96.5768
-48.2798
-226.157
274.436
60.4915
465.048
-54.482
-79.052
186.563
-112.676
271.639
-233.248
109.699
61.1367
-170.836
154.11
-188.675
-167.103
79.5357
87.5669
558.239
-558.239
291.706
-128.449
242.076
-123.055
-119.021
-361.093
-219.675
-138.081
89.4106
-443.657
-139.088
-34.7725
2.96657
139.601
-404.082
167.349
236.733
65.9442
-362.328
-11.5102
150.442
-138.931
119.209
-30.9442
64.934
12.5042
-71.4514
-371.249
139.451
-189.563
50.1123
77.4859
-397.077
-316.589
182.512
-169.621
-138.962
308.582
35.39
386.971
-422.361
-328.182
503.015
-174.833
-113.398
238.408
21.9179
4.8644
-26.7823
-83.3711
124.415
-41.0435
224.144
224.456
-448.6
362.397
-224.01
346.386
-126.121
-331.237
-255.075
29.1805
-255.504
-284.074
98.6633
-403.869
301
102.869
60.6497
-454.913
128.065
115.566
-243.63
-194.849
-202.047
396.897
-45.3917
-9.56163
114.975
-105.527
-198.408
-142.058
340.466
-306.893
227.318
-123.156
-37.0432
160.199
-179.474
122.15
57.3241
386.701
-563.445
176.744
317.724
-211.68
-106.045
134.151
357.836
189.496
80.6461
-270.142
404.375
-205.415
146.684
-514.069
184.691
-45.2409
155.323
162.402
-63.8323
-340.037
243.265
-437.702
194.437
468.206
-278.465
-189.742
98.8915
-239.125
140.234
-165.894
-5.94731
171.842
192.817
15.2668
-208.084
47.5321
-80.2934
32.7613
199.478
146.908
-39.4431
96.1229
-374.794
435.444
138.257
224.71
-362.966
-113.404
322.977
97.3315
-64.0943
-33.2372
44.2763
-304.924
260.648
-60.1721
73.0765
282.594
-511.452
228.858
-89.7423
199.441
235.231
-448.81
215.815
-184.444
-5.28832
189.732
17.3238
140.647
-157.971
328.925
140.117
49.0823
48.2492
303.617
-14.0784
-289.539
-128.942
444.161
-315.219
109.628
262.13
24.7332
197.788
335.433
156.236
-491.669
339.166
-287.386
-51.7796
-11.3197
-47.2704
-214.891
50.1116
-5.73103
-30.0821
35.8131
23.7544
-29.4854
-335.503
182.306
-114.708
-151.607
266.315
352.318
-46.0097
-306.308
-220.126
-29.002
249.128
-135.562
81.0802
40.3944
-123.766
-104.818
-315.725
420.543
-88.8749
-133.596
575.438
-292.844
-62.7799
112.385
32.8099
-145.195
-297.466
126.823
170.643
37.2711
-70.6416
33.3705
128.928
122.872
-251.801
-124.314
85.0199
39.2944
-118.63
324.218
-147.796
-59.1641
206.96
-382.41
-256.111
-231.344
116.956
114.388
-229.774
528.062
-298.288
393.41
-323.326
-40.2519
-57.566
97.8179
3.0361
9.07805
-180.504
339.907
-159.403
-120.777
283.367
-162.589
169.992
-90.2976
-79.694
-315.391
419.297
-29.2588
70.5136
-41.2549
-240.164
244.444
-4.27927
-172.965
61.3624
202.905
-1.86551
-201.04
-174.863
431.482
-256.619
55.5583
-19.7137
-35.8445
296.988
-597.356
300.367
-496.805
174.213
156.781
-46.3075
-69.9604
9.78834
-167.426
84.403
83.0227
-180.268
423.534
190.835
-90.7939
59.0701
-433.864
-46.2214
-131.52
177.741
-118.865
-509.096
351.984
157.112
268.387
70.7782
-345.271
-139.4
484.672
-94.5781
299.019
123.376
-114.461
-49.8054
-78.7447
-304.772
-310.023
614.795
-259.297
-269.268
528.565
-209.06
281.025
-71.9652
376.27
-276.649
-263.702
-248.774
340.637
-509.964
115.428
81.7233
-197.151
-392.404
244.918
147.487
141.184
268.83
-50.3618
88.58
-38.2181
-330.352
528.182
-197.83
37.7007
-90.7409
53.0402
-197.2
66.9279
130.272
23.3293
-1.41144
-90.0151
410.967
-41.8108
186.334
-144.523
549.277
-213.844
-209.766
278.894
-326.48
187.994
-274.77
274.77
-114.174
242.239
-561.046
297.538
263.508
-414.475
-37.2125
451.688
177.545
-134.999
-36.8026
-3.05859
39.8612
-165.127
149.574
135.785
-495.764
6.99254
124.005
-148.848
-291.131
439.979
-223.382
361.639
-275.74
113.44
520.942
-294.447
-226.495
-135.767
-30.1278
167.428
-354.235
-603.697
419.35
184.347
-318.787
-91.0826
-86.3771
14.6956
71.6814
-91.0408
-53.5494
144.59
145.821
92.8569
-127.228
191.844
-64.6165
-4.28771
129.554
-125.266
146.613
-147.445
0.831441
192.507
-339.054
146.547
99.7403
-142.88
-95.8101
-113.567
51.0968
-89.586
38.4893
-408.74
-173.37
341.109
-167.739
43.4018
12.1565
1.04451
-232.375
231.33
-183.408
-167.245
209.019
-402.685
193.665
-104.227
63.9755
-31.7896
41.1712
-9.38168
20.6993
-143.855
-68.4493
192.872
-124.422
163.107
126.865
-289.972
-208.837
-276.821
485.658
173.493
-411.285
237.792
74.7604
37.3928
-112.153
-542.461
308.135
234.327
533.087
-351.549
-181.538
-500.673
176.515
143.419
148.287
-83.5199
-117.197
301.454
-362.566
-343.488
-129.971
-307.334
-96.7477
-357.062
151.261
205.8
-213.99
125.115
-27.685
272.854
-245.169
-40.4703
-196.715
116.225
84.8258
168.466
-253.292
253.825
-444.858
191.033
206.657
-118.105
-317.109
105.429
176.881
-66.7521
-322.312
-116.969
439.281
397.053
-188.034
-320.318
324.351
-4.03325
-91.2554
123.484
-32.2287
-437.101
221.789
-270.909
134.084
136.825
71.9188
-71.9188
-214.079
-244.959
459.038
475.935
-416.865
85.3568
-274.842
-9.63834
313.255
305.571
190.642
-215.423
-114.623
330.046
33.1754
-39.3814
6.20605
-35.9905
66.6277
-30.6372
-212.163
151.054
61.1082
-322.249
-244.586
-63.9787
-103.124
129.022
-16.6373
-284.751
-322.562
-114.323
54.0877
164.099
176.59
30.2796
36.0851
-66.3646
-274.789
224.714
50.0746
407.865
191.005
-176.477
-98.1682
-331.368
-177.728
-148.324
-64.1161
212.441
-71.8363
-251.178
323.015
-232.422
191.993
40.4294
-53.4695
-43.0818
96.5512
327.426
-513.778
186.352
197.951
-343.489
145.539
269.775
-495.812
226.038
-42.9283
-63.5743
-218.996
123.186
223.7
-413.777
190.077
-147.081
56.0397
-320.921
-14.4214
-262.362
403.546
-1.88987
-3.0624
4.95228
202.414
-149.854
-52.5598
-6.35529
-48.3666
-177.255
369.762
482.878
-464.967
-17.9104
-39.0249
110.465
-57.0544
78.3769
-21.3226
250.606
-464.685
-32.0132
-18.203
50.2161
-111.091
254.745
389.992
-506.526
116.534
290.98
16.1505
-307.13
21.8341
-110.074
88.2396
-45.3001
82.5712
46.3233
-9.00886
-37.3145
-21.5866
116.55
-94.9638
-6.67654
67.9263
-61.2497
79.9222
-28.8255
429.146
-162.961
-175.857
234.16
-58.3032
-302.639
-20.2885
176.784
-117.451
-59.3332
145.264
-309.911
164.647
-207.389
-171.993
379.382
-7.17082
209.585
-266.799
162.159
104.641
143.358
-343.903
200.545
-345.23
220.741
124.488
235.555
-133.877
-101.678
-173.243
96.9683
76.2746
236.456
-482.019
-128.302
-67.0211
195.323
-47.6006
-85.1359
132.736
137.115
-170.107
32.992
20.6668
87.751
86.7225
-46.1266
-40.5958
-33.3548
-128.668
162.023
8.05594
106.919
-126.605
-110.597
237.202
-289.83
-7.70993
297.54
47.6481
-163.082
115.434
128.618
78.3149
101.634
75.2471
-170.069
178.56
-8.49155
-86.3771
-55.9607
445.953
-288.951
63.0588
413.451
38.0739
-451.524
454.088
-375.448
-476.536
212.834
119.142
57.9449
-177.086
61.7459
-40.4428
111.285
-232.654
121.37
201.515
-374.885
-130.964
18.5676
272.412
-58.2583
261.163
228.029
218.094
-455.932
281.069
-88.6242
38.2623
437.576
-176.511
139.865
-112.709
-27.1556
238.228
-310.064
302.25
-126.838
-175.412
302.188
-267.71
-34.4781
172.843
-125.195
-263.578
-216.142
479.72
-222.025
31.6094
190.416
499.059
-494.136
-4.92252
246.975
-80.1907
-166.785
319.192
314.475
-633.667
169.976
-32.8611
-137.25
285.534
-148.285
-117.961
291.411
-58.5763
121.359
-62.7828
-160.109
-91.338
-30.452
27.8315
2.62052
38.9424
-186.738
374.434
101.501
-425.087
18.6751
-90.2449
-207.221
72.0778
-41.7983
-119.321
210.767
-91.446
-30.3473
-36.8145
51.6116
-17.0442
-34.5674
-128.911
95.556
-575.649
335.813
239.836
42.9365
-119.237
76.301
-120.859
232.144
-29.1239
73.0591
-43.9352
33.9821
17.6295
-180.218
364.914
-184.696
41.4158
-135.964
94.548
-45.1245
7.38412
37.7403
239.046
-80.0859
-158.96
190.071
-131.722
-58.3491
-392.591
-278.885
-197.651
-139.219
137.618
1.60113
201.59
-352.218
150.629
-29.6613
-0.7907
-129.301
272.72
-55.1158
-346.673
258.285
-110.776
-173.243
116.894
-208.288
169.648
38.6395
329.724
-131.773
72.7405
-62.9264
-9.8141
-174.092
-34.1962
72.8615
-231.97
159.108
112.653
-196.172
121.453
-22.9381
-38.4998
61.438
-145.211
216.877
-71.6661
210.644
-74.5674
-136.076
-254.935
-34.8951
128.029
59.8849
-5.34749
8.38359
41.2711
77.5685
-118.84
-109.94
91.7996
18.1403
-75.0047
-28.1985
-33.3245
61.523
559.901
-429.21
-130.691
373.747
-72.2927
134.896
-117.572
-424.937
463.025
-38.0886
-125.02
266.522
-141.502
-231.681
317.038
46.0452
40.6773
-67.9875
-74.3716
-80.2921
211.853
-205.934
294.091
-88.1567
-277.614
324.483
-46.8686
-309.879
181.351
128.529
56.2035
-39.123
33.5997
-10.8881
-253.278
-237.261
490.539
184.408
375.493
-550.337
291.039
138.46
-138.46
-139.348
149.419
-10.0708
179.145
-121.478
-57.6669
246.285
-540.776
294.491
104.013
135.033
-233.081
337.854
-104.773
104.563
-61.6264
-121.18
76.2879
44.892
156.823
329.637
-486.46
243.068
-97.2475
-339.109
178.259
160.85
85.59
-199.449
113.859
267.01
208.534
-475.544
-108.52
149.936
-106.805
-48.6189
155.424
130.099
-151.686
-224.043
448.187
-222.898
139.123
83.775
115.267
-68.028
-47.2392
-164.073
426.332
-262.26
277.255
-123.146
-10.4763
137.761
-127.284
222.301
205.015
-427.316
-270.437
-279.9
-88.5201
342.345
44.7173
-83.7396
39.0223
-161.867
377.632
-215.765
173.015
-87.4248
281.071
-172.921
-108.15
236.091
-123.585
-178.985
-2.57142
0.681557
-622.023
302.901
143.138
499.78
-507.194
7.41427
262.572
143.503
-406.075
57.5418
15.1987
-240.301
-285.438
129.244
-176.278
89.5046
-298.565
-123.623
150.685
-27.0621
170.664
-312.372
141.708
-119.786
378.416
-106.347
93.5099
12.8372
50.2545
-135.39
78.5724
-144.475
65.9021
231.584
113.436
206.974
-132.49
-74.4843
-1.70641
194.523
-459.144
326.736
132.408
-259.002
-363.022
181.238
65.7375
198.005
-572.24
374.235
-95.8529
-70.4028
166.256
25.3492
-74.2962
48.947
349.708
171.234
-26.5232
439.974
206.501
-231.631
468.834
-201.824
97.2103
-235.554
138.344
-551.965
331.016
220.949
-214.214
-300.455
514.669
-366.034
565.858
-199.824
272.863
146.542
-173.489
201.819
-28.33
-138.461
279.056
329.642
-258.245
-71.3969
-136.457
264.154
-127.697
-190.692
-169.008
48.0573
-328.394
280.337
110.538
15.6784
-126.216
135.226
-130.472
449.382
-357.958
-91.4244
-224.533
87.4459
137.087
82.4299
337.812
-420.242
12.0566
-43.8462
324.345
125.037
-162.446
55.6403
-101.379
-4.96817
-227.612
517.381
-289.769
-20.9195
174.987
-154.067
250.817
-456.779
205.962
-43.7052
-22.3294
66.0346
310.324
118.822
-36.6528
10.0618
26.591
-243.222
220.887
22.3345
-238.407
125.849
112.559
192.264
396.401
40.7957
5.52759
-320.836
-138.308
208.529
-472.107
416.175
-514.43
98.2543
204.794
172.544
-30.0757
-142.468
224.293
-151.431
85.49
-407.802
-29.5434
-32.0826
61.626
57.8203
18.8365
-76.6568
-184.277
61.3471
129.345
103.359
174.106
-377.012
202.906
-50.1177
76.1057
-25.988
175.404
-337.271
380.094
-178.504
323.452
-85.2245
-468.079
-263.24
-260.082
490.861
-230.779
426.027
-319.476
-106.551
-10.9721
-440.263
451.235
-407.282
-182.283
589.564
-267.065
-6.55276
135.91
-57.3371
-660.001
345.163
314.838
-314.133
-77.7234
-77.8633
-95.3797
108.846
-34.086
73.0422
-38.8048
-568.533
382.708
185.826
37.516
-60.4541
-11.6593
33.2394
-21.5801
136.934
-143.858
201.332
-321.294
119.962
290.793
-228.816
-61.977
86.3736
-395.26
308.887
171.88
-70.2458
140.162
209.031
-68.979
-110.495
122.011
-100.176
474.051
-329.093
-144.958
-258.424
353.01
-94.586
26.4216
163.979
310.072
-416.654
31.7553
384.899
-278.721
-238.748
23.9192
-142.784
118.865
-123.214
-100.397
223.611
118.298
158.094
-276.393
-4.32878
-348.738
-311.263
-16.7216
22.4791
-5.75749
-200.194
335.633
-135.438
573.156
-229.699
416.963
-106.144
-297.229
115.511
76.8721
-19.0518
-272.119
-52.2008
324.32
93.1683
-405.886
-403.603
159.821
65.3013
-7.30228
-57.999
99.6951
-178.334
78.6392
-124.92
288.027
-457.991
329.049
173.851
-158.584
504.615
-180.27
-211.451
400.009
-188.558
128.332
-339.322
210.99
510.83
-124.128
83.8566
108.494
-249.206
75.7167
189.202
-159.914
-29.2884
-181.68
285.974
-104.294
176.809
396.348
155.922
-257.204
101.282
392.25
-139.119
369.015
121.708
-490.723
291.799
-197.984
-93.8145
552.768
-584.825
32.0569
188.467
-119.607
-68.8601
414.428
-379.038
-16.6635
-167.78
-111.707
-127.662
239.369
308.645
-278.703
-29.9416
15.1812
18.4185
-305.089
474.893
-169.804
-82.1057
-13.8705
-178.474
157.555
-0.360597
32.2071
-100.649
68.442
315.271
22.9648
-338.236
-14.1321
-26.9234
41.0555
-103.106
457.198
126.374
175.877
-152.172
322.836
-217.085
165.253
385.516
68.5726
-164.052
-175.057
35.4462
159.676
-243.735
67.2588
-73.5881
152.371
-78.7832
-24.0168
-10.7557
424.784
-162.212
-446.574
428.508
18.0659
-126.715
495.73
38.3267
-74.2484
35.9217
36.9693
-32.6257
-57.3378
89.9635
-186.885
84.6258
-27.084
144.118
28.6156
-172.733
42.4378
-135.413
92.9752
-272.662
126.857
-77.0445
-28.1237
105.168
-266.871
-304.121
103.088
201.034
70.1272
-44.778
86.6721
-128.804
42.1315
74.2562
-197.47
89.1732
189.476
-167.574
192.75
-25.1763
0.98222
-35.8432
34.861
-127.544
86.4099
41.1336
-369.572
172.545
-210.366
432.667
103.802
-215.031
111.229
241.367
113.793
-355.161
6.97811
-22.8171
15.839
326.737
99.2898
295.53
-51.3228
-244.207
-177.997
403.452
-225.456
209.526
-71.0995
324.911
-253.811
327.868
121.506
-449.373
474.552
307.163
122.857
-430.02
282.473
-552.909
168.239
-14.1637
-154.075
-361.349
192.308
169.041
-123.701
-162.225
285.926
30.4898
31.2311
-61.7209
-40.6045
-115.612
-10.6655
-435.909
-358.056
177.838
82.6284
113.113
-195.741
-376.888
305.789
172.085
166.009
-338.094
-27.3288
122.733
-95.4044
-124.025
-152.186
276.212
569.01
-255.8
26.8231
63.6808
-199.199
-258.978
458.177
-77.7131
127.968
-267.437
451.354
-183.917
-402.949
42.1914
360.757
-216.231
-276.902
493.133
-100.634
-96.5662
-566.888
366.745
200.143
269.304
-138.371
-130.934
-169.517
341.602
-104.343
27.2982
41.5761
-71.1195
141.381
-1.51595
-120.105
-491.817
249.905
241.912
-206.338
32.246
-227.198
104.143
-263.976
-311.673
-76.036
-230.857
148.672
-360.537
211.865
-180.421
-160.978
47.0777
113.9
-246.52
-70.5888
-82.9299
-34.0668
116.997
-2.28181
-5.78967
8.07148
-377.596
213.523
56.8912
-102.148
45.2566
117.5
-147.576
208.195
-396.314
188.119
22.9243
-295.044
-130.943
266.43
-135.487
-166.875
256.38
119.482
-79.5632
-57.4953
137.059
519.062
-530.034
-94.9326
-182.682
280.706
225.907
-506.613
-187.104
-19.2332
-96.1462
212.07
400.921
-427.444
56.0591
-25.5693
454.579
-160.051
-294.528
140.699
155.686
-296.384
17.1173
-85.6308
-67.947
153.578
181.835
8.2083
-190.044
324.03
68.2195
269.407
39.2383
-503.913
175.73
44.4371
-73.561
-76.6256
31.0252
45.6005
81.9626
1.97504
-83.9377
-121.559
-73.179
194.738
13.6748
-139.984
126.31
-66.9587
23.2534
192.651
-183.438
-9.21265
220.008
-276.443
56.435
-196.29
74.7317
-47.0455
-43.088
-52.9651
-124.29
177.255
144.097
251.556
179.926
-199.169
171.484
127.134
-122.875
-4.25842
-452.519
295.361
157.157
243.737
-128.171
314.277
190.338
337.151
143.143
-480.293
-121.153
-150.557
-538.789
253.178
285.61
156.546
-310.087
153.541
107.288
99.6865
-114.367
103.891
-89.3012
125.191
-35.8897
-338.063
-277.743
615.806
-512.884
421.393
91.4909
-241.425
112.153
-69.0201
-479.558
-17.868
497.426
272.852
305.74
-578.592
-129.801
-141.108
-172.088
-137.792
184.138
-40.0207
-382.464
168.25
23.5736
150.58
24.3464
-265.6
177.129
88.471
42.3827
40.1501
-147.042
-130.203
277.245
106.301
-74.0938
425.096
-272.79
-152.306
-215.822
344.154
-266.185
12.5058
455.77
25.8364
-62.6773
-41.2969
103.974
457.637
0.483796
-458.12
-171.253
365.796
-194.542
75.6659
55.2056
-130.871
-433.448
246.552
186.896
-90.0136
-93.9339
-171.666
75.521
-37.1943
-159.901
327.505
-167.604
162.01
125.717
-287.727
-88.744
-32.4359
-299.367
-225.007
524.373
127.47
476.113
-327.416
-148.697
-103.726
91.5122
-64.229
-27.2832
-4.9651
-43.2251
211.889
-270.147
277.777
-353.813
-491.211
407.488
144.138
-273.939
214.95
230.755
521.689
-251.914
-229.093
53.236
69.0985
36.4484
-80.5864
92.8414
-10.8788
-286.709
325.499
-38.79
-312.585
-4.00345
76.0922
-112.825
36.7323
150.458
300.798
-197.71
235.944
-138.618
-97.3254
-31.3772
7.36049
-283.882
47.9798
-80.6056
250.134
-76.3157
-173.818
-329.267
602.118
492.848
-178.571
-349.996
240.531
109.466
-22.9189
480.556
-195.509
464.721
-85.1109
-161.015
246.126
115.351
-224.702
109.351
25.865
352.44
-334.185
-246.853
581.038
196.585
-386.464
189.879
-288.138
387.264
-99.1262
-102.884
410.047
304.232
-152.229
128.931
-92.0273
366.877
-274.85
-45.2405
31.1085
-132.65
-13.8202
146.47
171.822
163.81
119.878
-76.7163
-264.887
341.603
-385.434
-78.7563
-130.395
-239.044
-375.197
215.296
-403.891
403.891
-4.13977
-299.396
303.536
207.286
-378.328
171.042
158.545
91.5895
39.8215
-7.11021
-32.7113
196.556
-398.603
288.107
-504.338
229.016
-51.3814
133.342
188.199
66.1655
169.317
-235.482
181.035
-102.958
-78.0771
-73.8226
-279.695
353.517
108.377
-199.694
91.3165
-94.7373
129.824
-35.0869
323.183
9.09274
-47.2472
57.5928
-246.384
301.568
-55.1842
29.3684
138.871
37.2016
31.3619
-68.5636
-362.348
-40.6009