/*--------------------------------*- C++ -*----------------------------------*\
  =========                 |
  \\      /  F ield         | OpenFOAM: The Open Source CFD Toolbox
   \\    /   O peration     | Website:  https://openfoam.org
    \\  /    A nd           | Version:  7
     \\/     M anipulation  |
\*---------------------------------------------------------------------------*/
FoamFile
{
    version     2.0;
    format      ascii;
    class       volVectorField;
    location    "10";
    object      U;
}
// * * * * * * * * * * * * * * * * * * * * * * * * * * * * * * * * * * * * * //

dimensions      [0 1 -1 0 0 0 0];

internalField   nonuniform List<vector> 
117990
(
(1.02483 -0.0406259 -7.06805e-19)
(0.99954 -5.93396e-06 -3.52409e-21)
(0.92656 0.00454558 -2.26214e-19)
(0.959163 -0.0268157 5.27382e-20)
(1.02933 -0.019197 6.5155e-20)
(0.977706 -0.0319558 -2.27974e-21)
(0.904461 0.0299498 -1.70152e-18)
(1.09148 -0.0662267 -1.68797e-19)
(0.989762 -0.0137225 -8.78559e-22)
(0.999475 5.61209e-05 7.45173e-22)
(0.991373 -0.000876237 1.14579e-20)
(1.00535 -0.00455144 6.43713e-21)
(0.999958 -0.0321815 7.16375e-20)
(0.71858 -0.0100598 1.69749e-18)
(0.989612 -0.0141176 8.64203e-21)
(0.783267 -0.0650053 3.84489e-18)
(0.995647 -0.011178 2.69191e-21)
(0.987525 -0.00768194 -1.45425e-20)
(0.998735 -0.0530579 1.69981e-18)
(1.02909 -0.0180722 2.33364e-19)
(1.09493 -0.0580529 -1.62352e-18)
(0.874259 -0.000338223 -2.65941e-20)
(0.985662 -0.0102207 -1.29611e-20)
(0.951968 -0.0202742 2.97429e-20)
(1.10928 -0.0130558 1.21792e-18)
(0.988465 0.123928 1.98859e-18)
(0.661153 0.189308 -3.26392e-19)
(1.07305 -0.00196739 1.22355e-18)
(0.999403 -0.00197025 3.93904e-21)
(1.00777 0.0897061 -1.61178e-18)
(0.994996 -0.00178627 9.41342e-21)
(1.04504 0.0537876 4.51967e-19)
(1.04425 -0.0109424 -8.9655e-20)
(0.887591 -0.00388763 1.23717e-19)
(1.12175 -0.0155215 5.24341e-19)
(0.950546 -0.0261208 1.00414e-19)
(0.915715 0.0803503 2.85566e-19)
(0.995719 -0.0113923 -1.34764e-21)
(0.939309 0.716489 2.56162e-20)
(0.949875 0.0376469 3.9186e-18)
(1.04902 0.0521248 -8.78699e-19)
(0.987319 -0.00795036 -2.71279e-21)
(0.929142 0.00377697 5.15303e-19)
(0.950159 -0.025605 -7.02943e-20)
(0.98443 -0.0872373 6.56434e-20)
(0.720826 -0.0106683 -1.76838e-18)
(1.0295 -0.0061653 8.58181e-19)
(1.06299 -0.00359847 2.09001e-19)
(1.01699 -0.0221476 9.21956e-20)
(1.00541 -0.00042399 -2.94361e-20)
(1.00016 4.57975e-06 5.64751e-24)
(0.908974 -0.00335115 9.53011e-20)
(1.03966 0.0330425 1.36429e-18)
(0.999645 3.29384e-05 -5.69808e-22)
(0.998097 -0.0209275 -3.27839e-19)
(1.03882 0.0328809 -3.39386e-19)
(1.05713 0.00344733 1.12002e-18)
(0.921403 -0.0965365 3.64051e-19)
(0.715206 0.179308 1.02618e-18)
(0.9465 -0.00157246 -6.6679e-19)
(0.997184 -0.00673558 -3.02155e-21)
(0.951336 -0.0167769 -2.78416e-20)
(0.974613 -0.00141178 -2.36118e-20)
(0.903131 0.0126415 -5.93771e-20)
(0.997694 -0.00189983 -1.03123e-20)
(1.02845 0.000226409 -1.7849e-20)
(1.00095 -0.025128 -3.80211e-19)
(1.05807 0.0221978 1.17283e-18)
(0.724517 0.145147 7.44083e-19)
(1.06255 0.00492928 4.8908e-19)
(0.905517 0.125003 9.86044e-19)
(0.708667 0.126784 -1.2928e-18)
(0.953432 0.0377701 1.76576e-18)
(0.854155 -0.0108876 4.12016e-19)
(1.02762 -0.0590999 3.41741e-19)
(0.887067 0.00312358 1.34688e-19)
(0.952243 0.145692 -4.8707e-19)
(1.00038 -0.0283434 1.45468e-19)
(0.998129 -0.0942977 -6.08476e-19)
(1.02931 0.0907285 1.18387e-19)
(1.0261 0.0980734 4.18046e-19)
(0.998117 -1.51237e-05 3.54267e-22)
(1.04714 -0.207742 -5.37468e-19)
(1.08108 -0.00217129 -5.52848e-19)
(0.913376 -0.0196416 5.05872e-20)
(1.0052 -0.0044162 6.33226e-21)
(0.918704 0.0150007 3.06648e-19)
(0.999585 -0.000735614 -4.56017e-22)
(0.880292 -0.0226026 2.33462e-21)
(0.999584 -0.0011661 1.94564e-21)
(0.753656 0.450496 -1.26618e-20)
(0.906444 -0.00620938 -7.48686e-20)
(0.999238 -0.00186361 -5.01205e-21)
(0.958978 -0.0252928 7.72825e-20)
(0.98461 -0.00954905 -2.23162e-20)
(1.01247 -0.00160394 1.25469e-20)
(0.986912 -0.000676354 -5.13843e-21)
(1.05112 -0.207057 -4.39028e-20)
(1.04292 0.220621 -5.2368e-20)
(0.878067 -0.0218183 2.67308e-19)
(0.997156 -0.00692814 3.01607e-21)
(1.06691 0.00328663 -1.13753e-18)
(1.0251 -0.0151679 -6.80875e-19)
(1.04799 -0.00193631 -2.18172e-21)
(0.903784 0.124099 6.60617e-19)
(1.07099 -0.108154 -6.02704e-19)
(0.957427 0.00533859 -1.08182e-18)
(1.01874 -0.123905 -4.68322e-19)
(0.971971 0.00439544 -1.60645e-19)
(0.999438 -0.00219821 -2.33056e-21)
(0.989328 0.10764 -9.50264e-19)
(0.987003 -0.000880476 2.05944e-21)
(0.940658 0.158404 3.0583e-19)
(0.985877 0.00570551 9.60981e-19)
(1.1167 0.0112448 -1.7001e-19)
(1.00692 -0.00950128 1.22442e-18)
(0.991287 -0.000738438 -2.11516e-20)
(0.903904 0.122326 -1.29129e-18)
(1.00066 -0.000618186 2.50414e-22)
(0.709944 0.131631 8.91213e-19)
(0.901224 0.123541 1.85138e-18)
(0.781275 -0.0668284 -1.53907e-18)
(0.931234 0.00534595 -2.04666e-19)
(0.806147 0.170788 7.32463e-19)
(0.999569 -5.49856e-05 -7.03317e-22)
(1.00297 0.0936133 1.86171e-18)
(0.951062 -0.0176281 2.37107e-20)
(1.06285 0.0545509 -5.30252e-19)
(0.947428 -0.00219074 1.79326e-21)
(1.07984 0.000949319 -1.02553e-18)
(1.0427 -0.0570522 -8.09267e-20)
(1.0084 -0.0013359 9.91413e-21)
(0.885227 0.119831 -8.48617e-19)
(1.00521 -0.00415697 -1.93275e-20)
(1.00075 -0.000552666 1.18204e-22)
(0.997916 0.0145756 2.66123e-18)
(1.11784 -0.0325887 -3.36203e-19)
(1.04058 -0.00786586 -1.14156e-19)
(0.999249 -0.0209866 4.50811e-19)
(0.95231 -0.0185207 -2.51322e-19)
(0.861426 0.0242013 6.35347e-19)
(1.01526 -0.0134463 6.20716e-19)
(1.00194 -9.59659e-05 -7.97914e-21)
(1.03437 0.0446781 1.70405e-19)
(1.03946 -0.0570727 1.18863e-18)
(1.00002 -2.80825e-05 -5.33055e-24)
(1.03964 -0.000895062 9.22444e-23)
(0.949459 -0.0141485 8.56761e-20)
(1.06018 0.0232706 -1.81064e-18)
(1.02469 -0.0217548 -2.26508e-19)
(1.06812 -0.105445 4.58843e-19)
(0.980247 -0.0842228 -4.76045e-19)
(0.904874 -0.00619721 -4.67597e-20)
(0.999339 -5.23443e-05 3.17684e-22)
(0.910013 -0.00282828 5.62413e-20)
(1.05294 -0.0123072 5.42296e-19)
(0.999438 -0.00223918 2.96749e-21)
(1.04535 0.0739998 1.46397e-18)
(0.873973 0.00260447 1.233e-20)
(1.12811 -0.13916 2.51042e-19)
(0.886467 0.00820159 -7.34105e-19)
(1.03985 0.00125614 6.4648e-19)
(0.975017 -0.00114474 -1.74295e-20)
(1.01577 -0.0770038 -6.37753e-20)
(0.981173 -0.00367831 3.59226e-19)
(0.971927 -0.0149216 -6.12824e-20)
(1.05839 -0.00414187 5.59969e-19)
(0.966521 -0.00923652 5.62467e-20)
(1.03243 0.0768719 -2.14326e-18)
(0.972326 -0.00244185 -4.14522e-19)
(0.957117 -0.00667141 -5.52569e-19)
(1.03296 -0.00972988 -4.84655e-19)
(0.745333 0.496383 -1.12156e-20)
(0.758367 -0.0508915 2.69893e-18)
(0.995313 -0.0680248 -5.37445e-20)
(1.06393 0.015257 -5.14791e-20)
(0.759648 -0.0502963 -5.96155e-19)
(0.971501 -0.0318183 -6.16243e-20)
(1.02995 -0.00517715 1.79196e-18)
(1.01669 -0.0239959 1.50562e-19)
(1.05508 -0.00289386 1.08054e-19)
(1.02429 -0.0593747 3.91242e-19)
(1.02613 -0.0302993 -7.346e-19)
(1.03445 0.0393078 7.33676e-19)
(0.958347 0.000949498 2.54183e-18)
(0.989221 -0.0241171 -2.83457e-22)
(0.947821 -0.0223739 -2.57048e-20)
(1.0002 0.00358305 -7.58662e-19)
(1.04227 -0.0151949 1.64154e-18)
(0.767236 0.447438 7.00442e-20)
(0.973369 -0.0309246 -2.04582e-20)
(1.01627 -0.0125713 -4.15835e-19)
(1.01794 -0.095277 -1.07055e-18)
(0.918404 -0.00515285 -9.6156e-19)
(0.994027 0.122397 -2.6328e-18)
(1.0812 -0.142997 2.95694e-19)
(0.756337 -0.0479229 1.77521e-19)
(0.841012 -0.000702874 -3.61831e-20)
(0.893017 -0.00591762 7.00441e-19)
(0.994935 -0.0232158 5.31877e-19)
(1.02921 0.0346147 9.58521e-19)
(0.950508 -0.0739149 1.09904e-18)
(1.06094 -0.000359228 3.21273e-19)
(0.999542 -0.000744908 -3.10935e-21)
(0.945151 -0.0226061 -2.71677e-21)
(0.887733 -0.0397503 4.86085e-19)
(0.979448 -0.0253262 -1.72936e-20)
(0.997718 -0.00190879 7.94234e-21)
(1.06692 0.00224867 -2.72028e-19)
(1.04398 -0.0691282 -1.66624e-18)
(0.755907 -0.0469403 -1.50347e-18)
(0.95774 0.00950269 -6.73462e-19)
(1.10857 -0.0129937 -9.02917e-19)
(0.999618 -0.0011618 2.55042e-22)
(0.980815 -0.00310283 1.19755e-18)
(0.918831 -0.00713304 4.77355e-19)
(1.04832 0.0452157 8.23016e-19)
(1.03149 -0.0129707 9.70469e-19)
(0.715918 -0.00945338 -1.02351e-18)
(0.994866 -0.00785913 1.56353e-21)
(0.975819 -0.0593632 1.97383e-20)
(0.918331 0.00295317 -3.38375e-20)
(1.01734 -0.0195678 -4.33081e-20)
(0.876986 0.00462651 -5.97918e-19)
(0.999656 -1.18754e-05 8.18468e-22)
(1.08623 -0.0276027 9.51699e-19)
(1.0159 -0.000740716 -8.25964e-19)
(0.882917 -0.0096007 7.58611e-19)
(1.08127 -0.141496 1.71464e-19)
(1.07884 -0.0444517 5.2967e-19)
(1.06905 0.00277738 -1.11639e-19)
(0.976535 -0.0913775 -8.29871e-20)
(0.863969 0.0328636 -5.34053e-19)
(0.958517 -0.0134649 4.78201e-19)
(1.04738 -0.0573419 -5.43622e-19)
(1.02901 0.0350602 1.43716e-18)
(1.01466 -0.00100328 1.42125e-20)
(1.02262 -0.0151757 7.41762e-19)
(0.968339 -0.0175385 -1.72948e-19)
(0.908008 -0.00468475 -1.23784e-19)
(0.828719 0.340345 -5.61344e-19)
(1.01326 -0.0325255 1.0736e-20)
(1.13133 -0.139149 -3.20704e-19)
(1.05301 0.229815 3.65479e-19)
(0.945719 -0.00224798 -9.17612e-20)
(1.0226 -0.0198464 -4.48742e-20)
(1.05045 0.0341387 1.30264e-18)
(0.883222 0.00365083 1.29387e-18)
(0.966125 -0.00884328 2.0138e-20)
(0.84676 -0.0804167 7.03813e-19)
(1.00502 -0.0898659 -5.53984e-19)
(0.96708 -0.0330668 -2.95613e-21)
(1.04211 0.00504989 -4.90829e-18)
(1.0119 -0.0268938 2.39442e-20)
(1.07265 0.0529076 -9.9035e-19)
(1.05417 -0.00495087 -7.42806e-19)
(0.886294 0.173343 -1.13899e-18)
(1.08136 0.00122951 5.05135e-19)
(1.00993 -0.000240328 6.74102e-20)
(1.09589 -0.0665314 -1.80619e-20)
(1.05682 -0.000219498 -1.73428e-18)
(0.720728 -0.00408827 6.28691e-19)
(1.03322 0.0429509 -1.05254e-18)
(1.04453 0.74825 -3.86926e-20)
(0.970501 0.00516473 -1.23831e-19)
(0.960003 -0.0274905 -1.67518e-19)
(0.80231 0.16836 1.17624e-18)
(0.947905 -0.00624383 9.97425e-20)
(0.954722 0.139428 -5.64214e-19)
(0.966664 0.132017 1.09106e-19)
(0.997805 -0.001031 -7.21605e-23)
(1.04357 -0.0144001 -4.00914e-19)
(1.01832 -0.023812 3.90255e-19)
(1.0131 -0.0314281 -6.31084e-19)
(0.994716 -0.0327396 2.79563e-19)
(0.916624 0.0140748 1.52642e-19)
(0.979349 -0.0906646 -4.90575e-19)
(0.993701 -0.0673518 -2.62292e-20)
(0.999951 -0.0117629 -4.96359e-19)
(1.02044 -0.123564 3.79417e-19)
(1.01508 -0.0811657 1.66908e-19)
(0.946324 -0.00167092 -6.9399e-20)
(1.00397 -0.0274349 3.81268e-20)
(0.882519 -0.0338468 -2.55519e-19)
(0.999038 -0.0211104 1.67361e-20)
(1.05275 -0.0031686 1.22564e-18)
(1.08375 -0.0362544 5.55046e-19)
(1.04827 0.00272699 -2.53685e-18)
(1.05645 -0.216365 3.17631e-19)
(0.938793 0.668355 1.19344e-20)
(0.978749 -0.089277 -1.1983e-19)
(0.999666 -0.000817042 -2.34291e-21)
(0.718466 0.199313 6.82564e-19)
(0.960249 0.0111699 -6.56936e-19)
(0.99638 -0.0143672 -3.74118e-22)
(1.05809 0.00320412 -8.43406e-19)
(0.964238 -0.0267917 3.68589e-21)
(1.04956 0.0484539 7.05931e-19)
(1.01478 -0.0269259 -2.96976e-19)
(0.957135 0.147693 2.79333e-19)
(0.746943 -0.0388315 8.03027e-19)
(0.98519 -0.0633361 -1.76414e-19)
(0.638085 0.335427 9.95415e-21)
(0.950625 -0.00829134 2.19755e-19)
(1.00136 -0.0842581 6.56707e-20)
(1.06046 0.0675219 4.14368e-19)
(1.01136 -0.0473663 -8.42e-20)
(0.881741 -0.00539561 -5.25672e-19)
(1.49687 0.400138 3.46167e-20)
(1.03071 -0.00509761 6.69867e-21)
(0.946697 -0.0309564 -1.22137e-20)
(0.891016 0.0969721 1.3221e-18)
(0.875464 0.0644086 9.03946e-19)
(0.967208 -0.0168786 5.19187e-19)
(0.993994 -0.0285969 -3.69096e-19)
(1.02654 -0.0147869 1.85707e-19)
(1.01851 -0.0915923 -1.68016e-18)
(1.0214 -0.0192087 1.91255e-19)
(0.953711 -0.0222719 -1.31881e-19)
(0.733662 0.197187 -1.72627e-19)
(1.07027 0.0194207 2.8928e-19)
(0.994983 -0.00796492 -1.18602e-20)
(1.06009 -0.00185279 -2.52133e-19)
(1.1171 0.0085478 3.09639e-19)
(1.03943 0.0859399 -1.60855e-18)
(0.875711 0.0072286 1.23278e-18)
(1.05299 -0.0136614 -7.97341e-19)
(1.04833 0.0408733 9.02599e-19)
(0.743482 -0.0348723 -1.56494e-18)
(0.713454 0.193388 -1.06808e-18)
(0.948181 -0.0309778 8.62399e-21)
(0.999625 -0.000868191 4.41965e-21)
(0.9904 -0.0250418 -6.01078e-21)
(0.965888 -0.0324603 1.27531e-21)
(1.11473 7.807e-05 2.35668e-19)
(0.975695 -0.0240935 1.79494e-19)
(1.03492 0.0743019 8.48876e-19)
(0.998125 -0.00114094 7.94572e-22)
(0.975554 -0.0319168 -2.56627e-22)
(0.945908 -0.0220737 3.61414e-20)
(0.929923 0.00282676 2.00678e-19)
(1.04549 0.0578006 -3.06214e-18)
(0.665108 0.184288 1.2815e-19)
(0.90226 0.0127726 -5.50283e-19)
(0.94835 -0.0115002 -8.5956e-20)
(1.03338 -0.0196159 -7.04419e-20)
(0.996978 -0.0109647 3.08568e-19)
(1.06874 0.0411492 -1.162e-20)
(0.922938 -0.0461166 -1.34031e-18)
(1.00579 -0.0152454 -1.55853e-19)
(0.886468 0.118855 4.48251e-19)
(1.01115 0.0349469 -1.14795e-18)
(1.0571 -0.0010844 1.58115e-18)
(0.963226 -0.0294565 -9.2006e-20)
(0.994951 -0.0229412 5.85653e-20)
(1.00853 0.0019417 1.11983e-19)
(1.025 -0.0387403 1.12474e-18)
(1.00026 -7.7039e-05 -1.35966e-24)
(0.986627 -0.0324114 -1.03164e-19)
(1.03995 -0.0192991 -7.06804e-19)
(0.957584 0.142174 1.55979e-18)
(1.01015 -0.0954114 -1.18171e-19)
(0.914236 0.0749925 5.43035e-19)
(1.12782 0.00649938 -2.45462e-19)
(1.02511 0.0894544 -1.11794e-18)
(1.00009 -0.000110659 -1.00879e-23)
(0.845057 -0.000161837 1.58323e-19)
(0.936076 0.00591546 -3.04571e-19)
(1.01901 -0.0200638 -3.87432e-19)
(1.0001 -0.000133618 7.58408e-23)
(1.15883 0.00434188 3.04231e-19)
(0.746663 0.013493 -7.04573e-19)
(0.883625 0.00443918 1.27027e-18)
(0.981449 -0.000798793 -2.68049e-20)
(0.946694 0.131043 -8.51975e-19)
(1.03825 -0.0156911 1.00324e-19)
(1.0253 -0.0147283 -3.79611e-19)
(1.00519 -0.000249705 2.61128e-20)
(0.970826 -0.038758 1.66206e-21)
(1.04149 -0.0227836 -1.03411e-19)
(0.977305 -0.0902639 -6.34827e-19)
(0.972822 0.00205919 3.0689e-19)
(0.981385 0.00485399 1.33841e-18)
(1.03866 -0.017842 -8.59829e-19)
(1.05921 -0.00606152 -6.54674e-19)
(0.996241 -0.000208871 -1.3911e-20)
(0.862844 0.0375935 1.12512e-18)
(0.828184 -0.0828172 -1.60152e-19)
(1.03104 -0.0202439 -2.51756e-19)
(1.06356 -0.0642752 2.46126e-19)
(1.04557 0.0483848 -3.1271e-18)
(0.976254 0.0415123 -2.32438e-18)
(0.917869 0.0148973 -2.28032e-19)
(1.07013 0.00068557 6.56962e-19)
(0.919447 0.00266393 -3.10627e-20)
(0.96934 -0.0380986 6.53151e-20)
(1.49599 0.37428 -2.36915e-20)
(1.01999 -0.0196856 1.96705e-19)
(1.0181 -0.0237642 -7.06533e-19)
(0.904712 0.0109773 -6.59377e-19)
(0.904713 -0.0258344 -3.35967e-19)
(0.9758 -0.0283618 -9.1478e-20)
(0.973791 0.06346 -4.34771e-19)
(0.957365 0.041031 1.64582e-19)
(1.29035 0.606782 1.1398e-20)
(1.06311 0.0189098 -9.74336e-19)
(1.00075 -0.000585088 -2.54146e-22)
(0.990302 -0.0130568 -1.29732e-19)
(1.04842 0.0287601 3.50811e-19)
(0.859971 -0.00401459 5.79989e-20)
(0.981562 0.00606433 7.54387e-19)
(0.944558 -0.0306723 3.67938e-21)
(1.03519 -0.0183946 -1.96629e-19)
(0.964309 -0.0261002 1.35166e-19)
(0.910039 -0.0174598 -4.02257e-20)
(1.00032 -0.0142271 1.75587e-19)
(1.01858 -0.0231957 4.2765e-19)
(1.30658 -0.0723951 -5.35202e-20)
(1.00132 -0.000901332 3.63859e-21)
(1.06275 -0.00491021 -1.10136e-19)
(0.999574 7.90346e-05 -5.95964e-23)
(0.752745 -0.0443512 2.05795e-18)
(1.00767 -0.00673363 1.76141e-20)
(0.966483 0.126334 1.15898e-18)
(0.876594 0.0668856 -4.78895e-19)
(1.00215 0.067175 -9.60909e-19)
(1.07413 0.0129158 6.67471e-19)
(0.987426 0.0594035 -9.15767e-20)
(1.05945 0.00493511 1.60631e-18)
(0.984725 -0.0254372 -3.82859e-20)
(1.03438 -0.0144611 -2.01916e-19)
(0.992986 -0.0182118 9.10602e-23)
(0.925039 -0.0253316 -2.39514e-21)
(0.885755 -0.0034566 -3.04617e-19)
(0.951283 -0.0129133 8.31729e-20)
(0.988931 -0.0112745 -3.11628e-19)
(1.02844 -0.0413673 -4.21599e-19)
(1.00756 -0.00644947 -2.13504e-20)
(0.994637 -0.00292031 -3.49978e-21)
(1.00472 -0.00403294 -1.3976e-20)
(0.996385 -0.0285564 -1.36891e-19)
(1.07794 0.00130129 9.67911e-19)
(1.02255 -0.0342541 8.90968e-19)
(0.900549 0.0136204 7.01458e-19)
(0.998879 -0.0202451 -3.45908e-20)
(1.14664 0.0325606 -6.87591e-19)
(1.02274 -0.0201478 5.67631e-19)
(0.995092 -0.00298041 -1.45229e-20)
(0.977474 0.0433064 3.3328e-18)
(1.06023 0.0121517 1.56627e-19)
(0.982501 -0.0324581 4.24731e-18)
(1.00149 -0.00114913 -3.60856e-21)
(1.00093 -0.0169757 0)
(1.0355 -0.0136312 3.0101e-19)
(0.967519 -0.0108405 -2.89344e-19)
(0.965338 -0.0194589 8.65003e-20)
(1.14799 -0.0821521 2.55084e-19)
(0.884027 0.00237606 -8.69712e-19)
(1.01856 0.104695 2.1358e-18)
(0.846922 -0.00217307 3.73874e-19)
(0.970496 0.0612266 -2.27396e-19)
(1.02335 -0.0197695 -4.12767e-19)
(1.03104 -0.0192822 2.96872e-19)
(0.976284 -0.0646901 -9.64682e-19)
(0.891653 0.097989 -5.51609e-19)
(1.0982 -0.0572674 9.41548e-19)
(1.03694 -0.0152203 4.61026e-20)
(0.762304 -0.0527403 -2.95189e-18)
(0.846939 -0.00390689 -2.14692e-19)
(1.00151 -0.0012126 1.53482e-21)
(1.05993 -0.00472088 1.31881e-19)
(0.834066 -0.0825191 3.99056e-19)
(0.965002 -0.0152623 4.58356e-20)
(0.852581 -0.0123732 -7.30472e-19)
(1.02872 -0.044097 -1.5436e-19)
(1.04596 0.0818179 2.65726e-18)
(0.999532 7.67127e-06 -1.80146e-22)
(1.04012 -0.0125142 -9.08071e-20)
(1.06368 0.000836099 8.33607e-19)
(1.05409 -0.000555651 -1.03137e-18)
(1.00825 0.124131 -5.35121e-19)
(0.999899 -5.07131e-06 1.5798e-24)
(0.99819 -0.0012859 2.67784e-22)
(1.0401 -0.000233273 -4.48097e-19)
(0.964621 -0.0149161 5.01149e-19)
(0.981861 -0.0253345 1.34444e-20)
(0.99632 -0.0153655 -6.79907e-21)
(1.03108 0.0842666 -1.06577e-18)
(1.09986 -0.00246531 -1.13791e-18)
(0.950022 0.16444 -1.21888e-19)
(0.982889 -0.012363 -1.16765e-18)
(0.865752 0.00823608 -1.51576e-19)
(1.01114 -0.0777834 3.46696e-19)
(1.03356 0.0240093 1.54974e-18)
(0.967826 -0.0258996 -5.7216e-20)
(1.15997 -0.0060363 -4.11158e-19)
(0.7962 -0.0659998 -2.7472e-18)
(0.988395 0.00405946 -6.94422e-19)
(1.02291 -0.0152793 -3.98092e-19)
(0.987715 -0.0185603 -2.35001e-19)
(0.960802 -0.0256769 2.26847e-20)
(0.998764 -0.101745 -3.41327e-18)
(0.95956 -0.0111042 7.28894e-19)
(0.94597 0.121296 6.33893e-19)
(1.01338 -0.0543062 -6.10699e-19)
(1.00417 0.0674095 5.3442e-19)
(0.892789 0.0175287 -2.51365e-19)
(0.933745 0.0018419 5.46298e-19)
(0.812139 0.353394 -2.88832e-20)
(1.02724 0.0331467 1.53154e-18)
(0.969411 -0.0325683 1.12994e-19)
(1.01249 -0.0270573 4.6719e-19)
(1.00944 -0.0251028 -3.61737e-19)
(0.999445 -0.000185651 -5.07112e-21)
(1.02076 -0.036894 -1.54955e-18)
(0.990405 -0.101777 5.00054e-19)
(1.00556 -0.0154249 -3.26881e-20)
(1.06085 0.0165772 -9.82175e-20)
(0.990824 -0.020977 9.09336e-22)
(0.990826 -0.021485 -1.59426e-22)
(1.04244 -0.0015973 -3.41445e-20)
(1.01436 -0.0502751 3.74496e-19)
(1.02306 -0.0030578 -7.80085e-20)
(1.02629 -0.0158987 5.55625e-21)
(0.870827 0.00571258 -4.44652e-19)
(0.97045 -0.0264573 -8.31078e-20)
(0.927042 -0.024648 -1.69318e-21)
(1.01082 -0.0968858 -4.29752e-18)
(1.06656 0.0771897 1.70937e-18)
(1.03846 -0.00683055 8.4936e-19)
(0.956987 -0.0086135 -4.24799e-19)
(0.974881 -0.0771796 8.4703e-20)
(1.01841 -0.0219379 -2.53642e-19)
(1.00072 -0.00111893 -4.96057e-22)
(0.999925 -0.000116426 4.99109e-23)
(0.867573 -0.0157768 -1.42659e-19)
(0.794611 -0.0661579 2.80241e-18)
(0.932014 -0.0390309 2.2357e-20)
(1.0007 -0.00104823 -1.3131e-21)
(0.890109 -0.00326154 -2.34874e-19)
(1.04813 0.0577137 2.8293e-18)
(0.734603 0.141743 -8.93834e-19)
(1.03017 0.0999004 -7.8377e-19)
(0.998247 -8.97586e-05 -3.59304e-21)
(0.883466 -0.00208513 -9.96058e-19)
(0.995851 -0.0152159 -8.81745e-19)
(1.00361 -0.000371662 -1.28965e-21)
(0.997302 -0.00829369 1.46981e-21)
(0.877476 -0.00611177 1.58752e-19)
(1.03952 0.000266989 -1.49097e-19)
(1.02433 -0.0206298 -3.24536e-20)
(1.10588 -0.098262 1.3668e-19)
(1.015 -0.00136454 -4.34662e-20)
(0.922221 -0.0732433 -1.23631e-18)
(0.878366 0.0134842 4.50254e-19)
(0.865872 0.00847139 -2.58131e-19)
(0.90439 0.0130626 -9.06037e-20)
(1.02826 -0.0165923 -2.96577e-19)
(0.917549 -0.0697808 -1.52014e-18)
(1.00827 -0.015212 4.03949e-20)
(1.0007 -0.000498766 -9.26746e-23)
(1.04323 -0.0163306 2.52602e-19)
(0.91781 0.098054 -5.20405e-19)
(1.07645 -0.0487158 2.6699e-18)
(0.988097 0.0251372 1.18261e-18)
(1.02423 -0.0357283 -2.88272e-19)
(0.950529 -0.00277186 1.27371e-19)
(0.978324 0.0141835 5.89972e-18)
(1.05548 -0.00165507 -2.18784e-18)
(1.0063 -0.0129204 -2.66881e-20)
(1.07823 0.00140374 -8.48934e-19)
(0.931041 0.00644993 -1.17579e-19)
(0.944641 0.139336 -1.07976e-18)
(0.988026 -0.0217923 -2.83589e-19)
(1.07186 0.00272648 -2.13063e-18)
(1.02786 -1.33116e-05 1.62581e-19)
(0.988766 0.0255901 8.15238e-19)
(1.01906 -0.00206876 -7.95606e-20)
(0.968996 -0.0167633 -5.66275e-20)
(0.898501 0.0139535 6.84539e-20)
(0.960086 0.0187076 6.8728e-19)
(1.00946 -0.000538377 -5.98556e-20)
(0.969422 -0.0187071 -6.75524e-19)
(1.14363 -0.0812974 -5.0302e-19)
(1.01616 0.104275 -1.68197e-18)
(0.973569 -0.0375003 5.20198e-19)
(0.964175 -0.0217345 -1.28594e-19)
(1.00552 0.202154 -2.18753e-19)
(1.00207 -5.7689e-05 -3.40493e-21)
(1.27355 0.603152 -5.5061e-21)
(0.968457 -0.0261409 -8.90794e-20)
(1.05889 0.00270661 -1.30801e-18)
(0.967262 -0.0102517 -2.76644e-19)
(1.04691 -0.000670056 -4.76829e-19)
(0.75042 0.0205518 -1.76198e-18)
(0.954819 0.0405195 -1.62714e-18)
(1.08504 -0.0543797 1.24045e-18)
(0.987533 0.0579497 2.68191e-19)
(0.90911 0.145443 8.99187e-19)
(0.976661 0.13012 -8.48309e-19)
(0.859697 0.018856 -1.51307e-20)
(1.05594 -0.00248417 2.423e-18)
(0.91268 0.10534 8.49993e-19)
(0.985878 -0.0375394 -3.30024e-18)
(1.01765 -0.0182696 -1.41293e-20)
(0.991022 -0.0335349 1.30129e-19)
(1.06935 -0.0488353 -2.88861e-18)
(1.0009 -0.000759928 -4.98916e-22)
(1.03176 0.740079 4.856e-20)
(0.746995 0.120402 -3.58522e-19)
(0.920929 0.013597 -4.84206e-19)
(1.02595 -0.0227037 -2.62405e-20)
(1.05784 -0.0040865 -3.48007e-19)
(0.965455 -0.0322858 -1.43154e-21)
(1.03453 -0.0142233 -6.06111e-21)
(0.988558 -0.0609545 -7.77883e-19)
(1.11926 -0.0156805 9.48018e-19)
(0.99503 -0.000189412 -8.3725e-22)
(1.00876 -0.0150805 -4.03286e-20)
(1.066 0.0177214 -3.37878e-19)
(1.01374 -0.0264473 3.166e-20)
(0.627571 0.331175 -1.88166e-20)
(0.892009 0.0998401 -9.27847e-19)
(1.02301 0.0803932 3.28012e-19)
(0.997445 -0.00837291 -3.90202e-21)
(1.01035 -0.0804882 -1.22423e-19)
(0.988829 -0.0683881 -9.42133e-19)
(1.01966 -0.00112504 5.31993e-20)
(1.01274 -0.0209087 7.92792e-19)
(1.05112 0.0374415 7.03133e-19)
(1.11706 -0.0238981 -6.1411e-19)
(1.01329 -0.0261962 -1.17945e-19)
(0.999781 -3.15895e-05 2.34509e-23)
(0.915585 0.105085 6.40028e-19)
(1.01184 -0.0219503 1.4057e-18)
(0.994981 -0.000164448 -1.86076e-20)
(1.05932 -0.00687011 -2.17977e-19)
(1.04006 -0.01744 -1.66038e-19)
(0.973558 -0.0252154 1.5763e-20)
(0.936486 -0.00106254 3.9868e-20)
(0.853068 0.690876 3.14721e-20)
(0.87512 0.00309194 -9.81667e-20)
(0.966551 -0.034043 -1.35435e-21)
(0.906044 -0.0243341 -6.27441e-21)
(1.00901 -0.0147809 5.79798e-20)
(0.9955 -0.00318713 1.01678e-20)
(1.0101 -0.0122872 -6.90056e-19)
(0.900359 0.152931 -1.62842e-19)
(0.991997 -0.00226204 7.1801e-21)
(0.877565 0.0127846 5.36114e-19)
(1.02617 -0.0183291 2.34428e-20)
(0.972321 -0.0352718 2.44915e-19)
(0.958856 0.0170574 -9.08988e-19)
(0.99615 -0.0143784 2.61588e-21)
(1.11321 0.00572865 -5.19719e-19)
(1.06177 -0.0116805 -6.65203e-19)
(1.01605 -0.0763244 3.96753e-19)
(0.913543 0.150855 4.49733e-19)
(0.982479 -0.00894544 1.03728e-20)
(0.998865 -0.00281053 -2.61704e-21)
(0.985892 -0.00999194 -2.07288e-20)
(0.963371 -0.0179206 -2.46328e-21)
(1.03441 0.00557346 0)
(1.01019 -0.0173015 -4.78715e-19)
(0.845257 0.000195105 -3.68585e-20)
(0.991484 0.00845332 -2.56166e-18)
(0.810579 -0.0728215 2.35856e-18)
(0.810185 -0.0709417 -2.04086e-18)
(1.04098 -0.0226081 5.53229e-19)
(1.0622 0.00364164 1.55924e-18)
(1.0067 -0.0886803 2.66916e-18)
(0.983749 -0.0102018 1.00875e-20)
(0.969025 -0.0181015 -1.40288e-19)
(0.91998 0.013816 4.60916e-19)
(1.00674 -0.00708928 2.49881e-20)
(1.01647 -0.0360962 3.70235e-19)
(1.02748 -0.0173472 -1.13747e-20)
(1.01951 -0.0297765 -8.22547e-19)
(1.01231 -0.116598 -9.24755e-20)
(1.11524 0.0251807 -1.05222e-18)
(0.915412 -0.0695014 1.20096e-18)
(0.966759 -0.0292121 -1.86186e-20)
(0.915714 0.0153652 8.03757e-19)
(1.01299 0.000289603 -5.93913e-20)
(1.04777 0.0803443 -1.79832e-18)
(1.06257 0.00494666 -2.85283e-19)
(0.997034 -0.0333488 -1.09101e-19)
(1.00044 -1.32862e-05 -5.80745e-23)
(0.983243 -0.0100152 1.4563e-18)
(0.899913 -0.00157186 2.89511e-20)
(0.738296 -0.0340826 -1.45064e-18)
(1.00964 -0.0171068 -2.47516e-19)
(1.03874 -0.0216421 -2.72807e-18)
(0.992282 -0.0715208 -7.22142e-19)
(1.04498 -0.0168028 1.10245e-19)
(0.650979 0.262762 -5.68269e-19)
(0.971705 -0.00105827 6.68359e-20)
(0.901358 0.0231685 1.72881e-18)
(0.995998 -0.00303768 4.86092e-19)
(1.05116 0.0378091 -3.40622e-19)
(0.857301 -0.0219875 -1.65839e-18)
(1.07526 0.00143009 1.63936e-19)
(0.999573 -0.000792892 -1.3139e-21)
(0.975108 -0.0577202 4.88747e-20)
(0.872978 0.00616062 -5.07713e-19)
(0.963182 -0.012477 -6.73126e-19)
(1.05927 -0.00825779 -1.61156e-19)
(1.10956 -0.100107 1.32356e-19)
(1.00894 -0.0148934 -6.6119e-20)
(1.24728 -0.206241 1.09681e-19)
(0.960093 -0.0261006 -9.38543e-20)
(0.999291 -0.00263199 -1.09416e-21)
(1.01087 -0.0179398 5.32327e-19)
(1.00698 -0.0154175 1.66409e-20)
(1.12059 -0.0232181 8.42886e-19)
(1.00699 -0.00699216 -2.20221e-20)
(0.961179 0.126016 -3.68464e-19)
(0.915984 0.0117898 1.27944e-19)
(1.07861 -0.00082182 -3.11714e-19)
(1.04431 -0.0126122 -4.63165e-19)
(1.04176 0.0845963 2.55045e-18)
(1.03589 -0.0145575 -5.78446e-19)
(1.00994 0.0342279 -9.86013e-19)
(0.999968 -0.000199439 3.46274e-23)
(1.02327 -0.0585565 5.3265e-19)
(1.01091 -0.0270056 -1.73653e-19)
(1.02714 -0.0193948 5.06784e-20)
(0.898658 -0.00209053 2.04706e-19)
(1.00079 -0.000638246 1.1204e-21)
(0.734392 0.208619 -5.52593e-19)
(1.05802 0.0861375 2.48399e-19)
(0.735851 0.121359 8.03172e-19)
(1.00614 -0.0125819 5.17855e-20)
(1.12938 0.147095 1.87299e-19)
(1.03489 0.00593721 -3.86082e-19)
(1.02282 -0.0303765 1.79911e-18)
(1.00816 -0.0237762 7.9114e-20)
(0.990528 -8.28123e-05 -5.6088e-21)
(1.06275 0.0161393 -3.94071e-19)
(1.0057 -0.00501561 -1.43132e-20)
(1.08518 -0.0416591 -5.85741e-19)
(0.995115 -0.0144566 -9.31817e-20)
(0.748691 0.00382277 -1.36408e-20)
(0.958767 0.141593 -2.07573e-18)
(1.00537 -0.00474326 1.13493e-20)
(1.05474 -0.208864 3.0439e-19)
(0.997867 0.0252725 -1.96777e-18)
(0.995505 -0.00302438 4.97521e-22)
(1.04745 0.0495013 2.23609e-18)
(1.01524 -0.0371634 1.78862e-18)
(0.935976 -0.00221986 3.22453e-20)
(1.02356 -0.0146032 4.77478e-19)
(1.01361 -0.00169204 3.17075e-20)
(1.03095 -0.0108785 -5.77557e-19)
(0.900411 0.0128855 -3.23973e-20)
(0.867164 -0.00216774 4.07272e-20)
(0.942942 0.11948 -8.69873e-19)
(0.989339 0.00252425 -4.78143e-19)
(1.08423 0.0320981 1.58039e-18)
(1.11057 -0.000271893 1.34646e-18)
(0.922852 -0.00210058 -9.23433e-20)
(1.00074 -0.0135416 -2.72857e-21)
(0.943991 0.119939 -3.54897e-19)
(0.968933 -0.0259513 -5.57471e-20)
(0.866553 0.00278835 -4.70208e-20)
(1.00775 -0.0155648 -9.32455e-21)
(1.01392 0.0913477 8.2298e-20)
(0.859769 -0.0209061 2.36134e-18)
(1.12626 0.00198269 1.39911e-18)
(1.00015 -0.0298288 2.35915e-19)
(1.00137 -0.0317166 -4.63149e-20)
(0.903525 -0.000442798 -1.01248e-19)
(0.708592 0.180843 -5.91203e-19)
(1.01232 -0.0795361 -2.4512e-20)
(1.03468 0.0754699 -3.34905e-19)
(1.06121 -0.0108724 -1.08589e-18)
(1.03563 0.0254054 -1.30109e-18)
(0.993142 -0.00410294 -4.79485e-21)
(0.737636 0.31373 2.37846e-19)
(1.00061 -0.00100064 -6.85413e-22)
(1.03263 -0.0132164 3.79328e-19)
(0.999476 -2.26304e-06 3.85482e-22)
(1.26691 0.56946 -2.22852e-20)
(1.09996 -0.0548214 -7.74652e-19)
(0.979846 0.0420025 1.57874e-19)
(0.999404 -0.00026953 5.09829e-22)
(1.08581 -0.0592657 -3.34657e-18)
(0.986042 -0.00411322 1.44192e-20)
(1.01667 -0.0363238 3.70896e-19)
(0.979898 -0.0098095 3.41714e-20)
(0.830014 -0.0824514 -7.95485e-20)
(0.954932 -0.0101079 6.95779e-19)
(1.02962 0.0977402 1.2932e-18)
(0.995254 -0.000359085 2.53895e-20)
(1.04208 -0.0677135 5.29385e-19)
(1.01428 -0.0203641 1.42625e-19)
(0.950869 -0.00451396 4.92028e-19)
(0.999226 -0.00283852 5.1375e-21)
(1.00018 -0.0320384 -4.9298e-20)
(0.992081 -0.000411559 2.77112e-21)
(1.00021 -0.0908188 4.49137e-19)
(1.03199 -0.0203497 2.16428e-19)
(0.966555 -0.0177621 -2.56215e-21)
(0.88998 -0.00273085 -1.32312e-18)
(1.00294 -0.00736845 -1.51609e-22)
(1.0091 -0.0130436 5.39332e-20)
(1.01789 -5.29903e-05 6.23656e-19)
(0.982741 -0.00895534 6.19648e-21)
(0.977131 0.0179593 -2.62461e-18)
(1.05776 0.0426716 2.51731e-18)
(0.677539 0.226945 -1.44001e-20)
(0.861335 0.00236667 1.1968e-19)
(1.06472 -0.100199 -4.66321e-19)
(0.999337 -5.65918e-05 -3.24473e-22)
(1.0015 0.213785 2.43445e-19)
(1.01184 -0.115413 3.44537e-19)
(1.01289 -0.00181815 4.66368e-20)
(0.933436 -0.039471 2.85001e-19)
(0.999474 -0.0331134 1.71395e-19)
(0.891481 -0.0473535 -4.13949e-19)
(1.30582 0.22056 4.43348e-20)
(1.01901 -0.00164801 -5.73552e-20)
(1.01606 -0.0488614 -1.16783e-18)
(0.999297 -0.00265327 4.36548e-21)
(0.961841 -0.0246489 7.47583e-20)
(0.986784 -0.00432472 1.4167e-21)
(0.926353 0.0935552 -1.21407e-19)
(0.884317 -0.0160009 -4.08545e-20)
(1.00429 -0.00865994 -3.94643e-22)
(0.994121 -0.00318543 8.36559e-21)
(1.06097 0.000732564 1.04332e-18)
(0.925099 -0.0971477 -1.38614e-19)
(0.97093 -0.0257702 8.78872e-20)
(1.00317 -0.0312334 -1.15947e-19)
(0.94316 0.118577 -9.99759e-20)
(0.949258 -0.0732491 6.94832e-19)
(1.02981 -0.0191097 1.39557e-19)
(0.735407 0.0761461 -2.67953e-20)
(1.1838 0.080119 -4.81523e-19)
(0.848901 -0.0785945 -6.44363e-19)
(1.00104 -0.0133686 1.07899e-20)
(0.999764 -2.35641e-05 1.16586e-21)
(0.916142 0.100486 6.82354e-19)
(0.884957 -0.0324138 -1.51789e-19)
(1.00318 -0.00734632 -6.74154e-21)
(0.710178 0.154699 1.09272e-18)
(0.971935 -0.014589 3.75903e-20)
(0.999603 -0.000203782 2.73508e-21)
(1.0519 0.0596503 2.70594e-19)
(1.05422 -0.143451 1.16569e-19)
(0.91531 -0.0720644 -1.59768e-18)
(0.820396 -0.0800063 -2.93802e-19)
(0.966099 -0.00264599 5.82711e-19)
(0.862808 -0.00248074 6.52313e-20)
(0.868922 0.00143003 3.88535e-19)
(1.02365 -0.0154783 -5.84988e-19)
(0.96397 0.134204 -9.42888e-19)
(0.992457 -0.0184555 1.51858e-21)
(0.988983 -0.0659862 -1.77168e-19)
(1.06544 0.0670236 1.89565e-19)
(0.995697 -0.0180158 4.79923e-21)
(1.18029 0.070915 6.62943e-19)
(1.01226 -0.0283099 1.13712e-18)
(1.01733 0.0758643 -2.52405e-18)
(1.01853 -0.0123436 4.11164e-19)
(0.98476 -0.00510612 -1.24217e-19)
(1.03706 0.139965 -8.73012e-19)
(1.06791 0.00288229 7.82692e-19)
(1.06134 -0.0662837 -6.573e-20)