/*--------------------------------*- C++ -*----------------------------------*\
  =========                 |
  \\      /  F ield         | OpenFOAM: The Open Source CFD Toolbox
   \\    /   O peration     | Website:  https://openfoam.org
    \\  /    A nd           | Version:  7
     \\/     M anipulation  |
\*---------------------------------------------------------------------------*/
FoamFile
{
    version     2.0;
    format      ascii;
    class       volScalarField;
    location    "18";
    object      p;
}
// * * * * * * * * * * * * * * * * * * * * * * * * * * * * * * * * * * * * * //

dimensions      [0 2 -2 0 0 0 0];

internalField   nonuniform List<scalar> 
29659
(
0.0190536
0.238283
-0.0193974
-0.0756537
-0.00545241
-0.0805951
-0.0384046
0.0179425
0.0044066
0.000361654
0.0110307
-0.0104881
-0.001142
-7.63391e-05
0.161683
-0.0131882
-0.000461106
0.0636322
-0.00485643
-0.0228194
-0.00198172
0.00413536
-0.0196598
-0.0047609
1.02388
0.236746
-0.00122392
0.835585
0.146936
-0.00379418
0.0345795
0.107011
-0.119454
-0.014868
0.849596
-0.0165428
0.250163
-0.0585078
0.0125247
0.0120461
0.000907031
-0.0365974
-0.000417152
-0.0454255
4.83827e-05
-0.00342394
-0.00928414
0.000123303
0.00725978
0.243889
-0.0556528
-0.0667003
0.110626
-0.0778816
-0.0129081
0.143888
-0.00767929
-0.00203998
-0.0105736
-0.0387072
-0.000172768
-0.00471878
-0.0163133
-0.0146123
0.384324
0.965672
-0.0175903
-0.0186772
0.91685
0.000950019
0.234391
0.682984
0.00494283
0.941507
-0.0170681
0.00365561
0.0948202
-0.0519566
-0.000132895
-0.0338225
-0.0719028
0.321858
0.0190025
-2.67928e-05
-0.0345313
-0.180284
0.449227
-0.00118515
-0.00110479
-0.105087
-0.0489781
-0.0525475
0.00667134
0.101329
-0.108138
0.442258
-0.0636571
0.000985658
-0.0848769
0.194154
-0.000139582
-0.0490403
-0.000167488
0.0728402
-0.0681942
0.197744
0.573323
-0.00106402
-4.72258e-05
-0.114421
-0.118819
0.0188789
3.50343e-06
-0.00351167
-0.000446281
0.662412
0.340523
-0.0247956
1.83994e-05
0.00580007
-0.102335
0.254736
-0.041851
0.959242
0.00237181
-0.0116951
0.070754
-0.0318583
0.00887908
-2.18132e-05
-0.0423432
0.085897
0.605272
-0.0684261
0.0721686
0.0335867
0.386334
-0.0500255
-0.188187
0.187906
-0.00297011
-0.091096
-0.0917424
2.53255e-06
-7.34908e-06
-0.00557614
-0.00869791
-0.0927179
-0.14004
0.00171419
0.0552368
0.0271143
0.000883954
-0.000353548
0.342153
0.00104188
-0.0168804
0.355036
0.416232
-0.0524302
-0.0690424
-0.0736719
0.150607
-0.000141326
-7.96139e-06
-0.0249659
-0.0887552
6.36543e-05
-3.03621e-05
-0.0151217
7.4292e-06
0.0124043
0.366572
-0.0491116
-0.0956078
-0.0109441
0.00450755
-0.0508054
-0.00287054
-0.0320774
-4.78081e-05
-0.00978867
0.441999
-0.0174406
-0.187274
0.336653
-0.0136586
-0.0378466
0.00833787
-0.00364098
-0.000677002
0.00397961
0.978603
0.336268
-0.0290889
-0.0161861
0.799073
0.300774
-0.106918
0.00248444
-0.0673689
-0.101781
-0.0100853
0.00178277
0.370042
-0.0145567
0.0150373
-0.0923065
-0.117139
-9.1538e-05
0.714819
-0.00234175
-2.99287e-05
-0.00127376
-0.0464968
0.00284407
-0.00738408
0.0146499
-0.00472319
-0.107345
3.9955e-06
0.000911939
-0.00508879
0.163272
-0.00626963
-0.00333872
0.109702
0.000215237
4.46668e-05
0.0115196
-0.0580581
-0.0450214
-0.0102484
0.231871
-0.0309899
0.0287281
-7.97615e-05
-0.00660524
0.00165917
-0.06244
-0.174107
-0.00308787
0.000950996
-0.00349287
0.00609652
-0.0221722
-0.000135159
-0.170392
3.55831e-05
0.165883
-0.00742014
0.000255275
0.201
-0.102024
0.000502613
-9.33762e-06
-0.0912284
-0.166187
-0.0190106
-0.034661
0.0549205
0.423008
0.00013113
-0.0553149
-0.0655382
0.818664
-0.0175083
0.331812
0.0105666
-0.000610733
1.1825
-0.00126727
-0.100461
-0.106056
0.00484781
0.000774425
-0.0177528
0.59904
-0.00758663
-0.0374993
-0.000692197
0.252867
-0.00672176
0.453506
-0.00118999
-0.0126026
0.760725
0.141217
0.109546
-0.0664635
-0.000383871
0.00593025
-0.000485411
-2.65493e-05
0.148889
5.86987e-05
-0.0406755
-0.0689686
1.03667
0.595859
-0.0902666
-0.0400101
-0.0429281
0.0179237
0.00562317
-0.0384117
-0.0955592
0.433417
0.697833
-0.00287814
0.561905
0.14484
-0.0409989
0.02416
-0.00407243
-0.0205583
-0.0116975
-0.00584249
-0.000157642
-0.00421472
0.0176354
0.249792
0.00351945
-0.0560578
0.028091
-0.000102405
-0.092805
1.09969
-0.0137911
-0.00323446
0.0258037
-0.03184
0.177929
-0.00338019
-0.00010103
2.78351e-06
-0.00589126
0.766964
0.0480282
-0.175662
-7.89653e-06
-0.174599
0.108941
-0.0111526
-0.0994395
-0.00296668
-0.00104205
-0.0518312
0.00197829
-0.0303448
0.0232401
0.0823959
-0.000487888
0.00434538
0.252339
-0.097738
0.000867365
0.000926434
0.647178
-0.0489535
-0.00366053
0.315571
0.840777
-0.0675312
-0.0163679
0.0111259
-0.00177891
-0.0184406
-0.00742126
0.294019
-0.000118822
0.0223728
-0.134151
0.620879
0.923391
-0.0132626
-0.019486
0.39919
-0.0403011
-0.000153075
0.0319033
0.172517
0.175525
-0.0162028
0.0562837
0.807997
-0.159696
0.711534
0.648577
-4.22293e-05
0.0191586
-0.147953
-0.00660481
0.00359156
0.849261
0.0477575
0.000584454
-0.0717877
-0.103921
-0.0123551
-0.000329647
0.435875
0.334124
4.34247e-05
0.00918726
0.0121807
-0.118431
-0.0662782
7.55252e-05
-7.85549e-06
0.00106486
0.186104
-0.0580392
0.513005
-0.1016
-0.0387514
-0.0451401
0.308551
-0.00760954
-0.0027947
0.0182146
0.00183938
0.710402
-0.0537674
0.00240956
-0.0165214
0.00237662
-0.00361952
-0.0268453
0.00048136
0.000495333
1.1165
-0.0178501
-0.0113267
-0.00113832
-0.00173806
0.396073
-0.135466
-0.0537277
6.50454e-06
-2.46968e-05
-0.0554917
-0.0149748
-0.0116321
0.0385757
0.0139882
-0.00640333
0.0382158
-0.0376162
0.696758
0.00992905
0.000513295
-0.0897362
-0.0511176
0.0186622
-0.00776727
-0.05333
-4.46026e-05
0.907099
0.0438653
0.000137136
0.978769
-0.0554098
-4.75853e-05
0.00326077
-0.0921467
0.0209979
0.0925752
-6.20478e-06
-0.0176702
-0.0175688
-0.0119973
-0.0011446
-0.0182345
0.808237
-0.0186169
-0.025973
0.360067
-0.00641513
0.741418
-5.23429e-05
-0.0355052
-0.0963097
-0.0523237
-0.0848531
-0.00366712
0.0029095
-0.000463252
-0.0410814
0.0146778
-9.67108e-05
9.02256e-06
-0.0140743
0.715036
0.0157421
0.00567429
-0.107522
-6.36038e-06
0.00218933
-0.000171057
0.0205399
-0.0378633
-0.00095897
-0.0180066
-0.0271336
0.00231104
-5.54623e-05
-0.0556238
-0.00102511
0.0984903
0.559728
0.41182
-0.0100181
0.0137572
0.057858
-0.000329884
-0.00820744
-1.53801e-05
0.657536
-0.0301131
0.0380458
-0.0365605
0.00347145
-0.00723413
-0.000299648
1.10023e-05
-0.0109672
0.0952978
0.423561
0.0028112
-0.0812716
-0.0530919
-0.0175316
0.00472678
-0.00310747
0.00208399
-0.0125749
-0.000279541
-0.0947258
0.476092
0.314797
-0.0478489
0.466432
0.000139678
5.40762e-06
0.0344465
0.00940346
0.947774
-0.0868885
-0.045304
0.0113745
0.00267313
-0.013132
0.00101452
-0.023314
-0.0281753
-3.36284e-05
-0.00212926
0.61759
-0.00039911
0.872539
-1.33181e-05
-0.0599848
0.0927807
0.0442091
0.00237323
0.000385508
0.698916
0.102852
-0.0982077
0.328567
-0.0151456
-0.0286674
-0.00928171
0.222521
-0.0546246
0.0218099
-0.0172479
-5.12937e-06
-0.00307415
0.0134808
-0.0380589
-0.0468002
-0.0872513
-0.0384573
0.213558
-0.0049681
-0.105219
-0.0296526
3.44187e-05
-0.0261562
0.0165482
0.217254
-0.0575001
-1.31861e-05
-0.039341
-0.00145288
0.00318972
-0.159518
0.511203
0.00203511
-0.0258224
-0.0546656
0.144605
0.791394
0.00415279
-0.0111569
0.293443
0.280946
-0.033422
0.0113771
-0.0955188
-5.35062e-06
-0.082004
0.000156046
-0.0548524
-8.68284e-05
2.66519e-05
-0.0144813
-0.0134837
0.517364
0.0176531
0.026293
-3.03317e-06
-0.014259
0.000166928
-0.0074782
2.77595e-05
0.0990309
-0.00117772
0.301162
-0.000352087
-0.0276175
-0.072531
-0.00971914
0.783534
-0.0352631
-0.0978276
-0.0128471
0.0970989
-0.0876445
0.063176
-0.0407138
-5.60157e-06
-0.012181
-0.00909347
0.000530026
0.000159035
0.211678
-0.0112768
0.157622
-0.0104614
0.00195766
0.0698043
0.000340078
-5.54234e-05
-0.0808661
-0.00806186
3.50685e-05
0.368899
1.05243
-0.000552038
-0.0699338
7.88677e-06
0.828012
-0.0661781
-0.0747443
4.13199e-05
0.0230328
0.120381
0.140891
0.0904643
-0.00103082
-0.00042197
-0.0332257
-3.90059e-06
2.95234e-06
-0.0555596
-0.0621531
-0.0857248
0.997508
0.000421319
-0.0658907
0.0177404
-5.04344e-05
-0.00299251
1.87332e-05
-0.0139449
7.16932e-05
-0.0376217
0.0611576
0.730034
0.0943149
-0.000713944
0.00100829
-0.125913
0.154321
-0.00717845
1.21289e-05
0.307144
-0.184885
-0.0845836
-0.0302124
-6.42664e-05
-0.000706735
-0.190847
-0.0461141
0.258008
0.695735
-0.0957139
-0.00300155
-5.02821e-05
-0.0880722
-0.118229
-0.000532715
0.0052
-0.0323236
-0.010747
0.697621
-0.00308438
-0.00128956
0.0940596
-0.0172916
0.953886
0.959111
-0.000101429
-0.00015382
-0.0347399
0.0357671
-0.0679085
0.0122216
-0.0167398
-0.00140784
0.793472
0.293887
0.00521381
1.16734
6.10978e-06
0.197051
-0.107652
-0.0646686
0.00016834
-0.0703098
0.204425
0.0342164
0.127347
-0.00111565
-0.00119625
-0.0112928
-0.00797699
-0.0292339
-0.00260552
0.205732
-0.0134646
-0.0120441
-0.10866
0.633178
0.0183897
0.0685814
-0.00100165
-0.00126352
-0.0422665
0.00224348
-0.00599474
-6.15614e-05
-0.000904393
0.205142
0.700838
-0.000342831
0.156601
-3.83961e-05
-0.00772675
-6.02688e-05
0.0125346
-0.0643439
-0.000120898
-0.000124959
-0.104091
-2.88109e-06
0.0919238
-0.0509261
-0.000142605
0.28273
-2.32684e-05
-0.000995505
-0.000244258
-0.0115695
-0.000973752
-0.0138593
-0.123283
-0.000872822
0.00983741
-5.60845e-05
0.508758
-0.00366792
0.0157194
-0.0638716
-0.0458777
-0.0027681
0.00673663
0.361541
-0.0529174
0.233516
-0.0776951
-0.00797839
-9.01124e-06
-0.0129671
0.587335
0.313338
-0.0703523
-0.0959183
0.488347
-0.0186442
-0.101265
-5.95426e-05
-0.0529515
-0.001994
1.13149
-0.0907471
-0.000238719
-0.103951
-0.0543551
0.422258
-0.0059238
-0.0565257
-0.00877252
-0.0135188
-0.00300333
0.42202
-0.170839
-0.0399389
-0.031663
-0.027365
0.0129242
0.48176
-0.0385454
0.331872
0.00626837
-0.0834752
0.890021
-0.0189419
-0.000587261
0.407705
0.633257
-0.00913555
0.0173612
-0.0149471
-0.0631611
0.298504
-0.0882674
-6.91069e-05
-0.0163009
5.51041e-05
-0.0100743
-7.29152e-05
-0.0106215
-0.00227248
-0.00722748
-0.105845
-0.00144428
-0.00122043
-0.00267477
0.354702
-0.00475544
-0.00733855
-0.0068646
0.286959
0.0119189
-0.000933901
0.570354
0.944038
-0.0398551
0.783661
-0.0351765
0.558021
0.0123035
-0.0280615
0.0057586
-0.00110367
2.19976e-05
0.00569592
-0.0246403
-0.0397191
0.322865
-0.0456863
-0.0403226
-0.00212607
-0.0964137
-0.0491646
0.0146134
-1.07084e-05
0.0191801
0.0909611
0.656477
0.0249033
-0.0270853
0.253244
-0.000862079
0.0759928
-0.0359072
0.00128265
-0.102751
0.00638872
0.56844
-0.00454382
-0.00124699
-0.00036167
-0.0964252
-0.00289502
1.14092
1.17898
0.025761
-9.68147e-05
0.0178586
-4.95712e-05
0.108727
-0.00123182
0.0458867
1.02538
0.0261998
2.36281e-05
-0.016648
-5.04833e-05
-0.171428
-0.0668826
0.812152
0.000444092
0.0248139
0.00568819
0.000561111
-0.00481904
-0.00069957
-0.0122992
-0.0712412
-0.0451151
0.0131532
0.275884
-0.0264279
0.0131893
-0.039906
-0.00391415
-0.0531047
1.41862e-05
6.65533e-05
-0.00459634
0.0570513
-0.0590384
-0.0318675
-0.0074915
0.0055146
-0.0415371
0.25076
-0.0251818
-9.56034e-06
-0.0977746
0.740151
-0.0666874
-0.0237723
0.103305
-3.93914e-05
-0.001449
-0.0550072
-7.98725e-05
-0.000969638
-4.98289e-05
1.16849
0.0180035
0.00727383
1.88146e-07
2.05021e-06
-4.25871e-05
-4.18901e-06
-0.0436025
0.636297
-0.066796
-0.00104352
-0.000368168
-0.0108613
0.816471
-0.0954233
0.713387
0.0315931
0.2448
-0.00032213
0.810313
-0.00443726
-0.0183716
0.0151891
0.0153784
0.017785
0.319719
-0.0764442
0.798689
0.4251
-0.0161266
-0.0540984
-0.00295404
-0.0556974
-2.78905e-05
-0.00189611
0.00534198
0.127328
-0.0128141
-0.0438144
-0.00649606
0.984506
-0.121623
-8.65205e-05
-7.10856e-05
0.822137
-0.00958223
0.00387383
-0.0252033
-0.00440993
-0.0291721
-0.0187311
-0.0615199
0.0995127
0.0386668
-0.0192691
-0.027204
0.000107185
-0.0110911
-0.00250009
-0.0151928
-6.84252e-05
6.59922e-05
-0.0356376
-0.0382821
0.788767
-0.0455297
-0.000443638
-0.00298125
-0.000648845
0.571687
-0.0592773
-8.75098e-05
-0.0522605
-0.00863337
-0.00685187
-0.0523956
-0.0600231
0.0125459
0.101109
-0.110163
8.57348e-05
0.0110509
-0.0250004
-3.14198e-05
-0.000143185
0.198419
0.147289
-0.0187418
-0.0878193
-0.0930814
0.000920535
0.83604
7.92675e-05
-0.0311462
0.669548
-0.0316936
-0.0672217
3.8082e-06
0.000225753
-0.0669874
-0.0174239
0.00249448
-0.0589134
0.39011
0.313358
0.00119574
0.000393507
0.310373
-0.0232061
-3.20685e-05
-0.0028058
-0.0511504
-0.0400157
-0.0192553
-0.0041151
0.170275
1.53289e-05
0.131166
0.436116
2.71715e-05
0.0171642
-0.000870037
-0.132916
-0.0248776
-0.00127385
0.0481819
0.000288669
0.37071
0.00247659
0.0380975
0.0193243
1.04097
0.639668
-0.0944538
-0.0127321
3.86932e-06
-0.0387489
-0.0230639
0.242945
0.457494
-0.0587357
-0.0250765
-0.0273907
-0.010523
0.24087
-0.000372436
0.775699
0.0413611
5.95674e-05
2.97387e-05
0.00013495
-0.0208448
-0.028627
0.00108885
0.0560944
0.164095
-0.0870929
0.000732915
7.78236e-05
-0.0372286
-8.15381e-05
-0.00456579
-0.0179297
-0.00122909
0.0123235
0.0067976
-0.00219603
-0.00598372
-0.0251807
0.640716
0.66012
0.0594364
-3.84658e-05
-0.000907268
0.413231
-0.00076437
-0.148782
-0.000357093
-0.0310742
-0.119081
-0.000375161
-0.00040067
-0.0507627
0.00204865
-0.000139037
-0.00210173
0.304539
-0.0533082
-8.81292e-05
0.150843
0.571639
0.582658
0.000890084
-0.142375
-0.0143003
0.736078
-0.100001
-0.102402
-0.0129889
-0.0196767
0.0437802
-0.0388368
0.585751
0.114334
-0.000316129
-0.0810473
-0.106652
-0.00586978
-4.68551e-06
-0.0028355
0.352334
-0.000344675
-0.00542294
-0.00614661
-0.00184574
0.013472
0.0443273
-0.000325329
-0.000220268
-0.0111062
-0.131526
-0.0539273
-0.11042
0.407735
-0.0033015
-0.000466855
-0.0550684
-0.0362184
0.0144374
0.0201769
4.73928e-05
0.112088
0.229396
0.0284937
0.036752
-0.00100757
-0.0200699
-0.0249828
0.00190595
-0.000149181
-0.0140753
-0.0060648
-0.00116418
-0.0168958
-0.00133026
0.237618
-0.013582
-0.178155
-0.0359076
-0.0160787
0.017578
0.818839
-0.0643974
-0.000232063
0.805375
0.262205
0.0115202
-0.00877146
0.0111887
-0.0202523
0.25746
0.000476536
-0.00468907
1.0253
0.492706
0.448384
-0.0662411
-0.00214675
-0.00188936
-8.66807e-05
-0.00200131
0.362551
0.128065
-0.0108945
-0.00837489
-0.00060254
-0.0520548
0.974592
0.684602
0.122726
-0.0042569
-0.0926232
-0.00754131
-0.00113851
-0.0326571
0.0188304
-0.040318
-0.00528311
0.00124777
-0.129784
-0.132599
0.0454531
-0.0367711
-0.00690779
-0.0381434
-0.000340301
-0.0103675
-0.00108466
0.507717
3.46298e-05
1.08301e-06
-0.0425982
-0.0291298
-0.0421668
0.0581629
3.1694e-06
-0.125786
0.0943321
0.318574
1.11146
-0.0069129
-0.150644
0.044867
-0.00316395
0.0514352
-0.000945505
0.0153628
-0.000332187
0.335908
-0.113749
0.0157346
0.16874
0.184827
0.0020807
0.00397864
2.77886e-06
0.703634
-1.31647e-05
-0.0659914
0.000450873
0.00237225
0.281072
0.157233
-0.109458
-0.0569434
-0.00613339
1.17841
-0.111402
3.77562e-06
-0.0229007
-0.000107517
-0.0240573
0.160507
0.324227
0.00125819
-0.0512333
-0.0138828
0.239371
-0.010616
-0.0473085
0.992613
-0.0145927
7.27736e-05
-0.184358
1.04161
0.00249212
0.145067
-0.0642264
0.208849
0.0027269
0.0448773
-0.109359
0.007689
0.0825368
-0.0416852
0.219135
-0.0382261
-0.0284918
-0.00123581
-0.0012417
0.887228
-3.24153e-05
-0.00844698
-6.44008e-05
-0.0119088
0.00047532
-0.0107471
0.327781
-1.17168e-05
-0.00155579
0.014258
-0.185038
-0.035448
0.00159156
0.716929
-0.0794568
0.278263
-0.0174374
0.250362
0.00975197
-0.00115741
-0.095549
0.00107968
0.91026
-0.0399563
-0.000219523
0.00327206
0.229299
-0.0165072
-0.00108605
-0.000237137
-0.126371
-0.0038544
-0.0144753
-0.108533
1.17736e-06
-0.0994044
0.000522893
0.595388
-0.0151351
0.239795
0.00639605
-0.00549514
0.409819
-0.0885168
-0.18347
-0.00647147
-0.133282
0.423365
0.433444
-0.0206285
-4.54942e-05
-0.0227242
0.00674258
-1.41205e-05
0.0626106
0.661161
0.0184994
0.00228059
0.0110662
-0.101092
-0.000287145
0.115431
0.0704873
0.107216
0.0194581
0.0407152
-0.000619568
0.288072
-0.105054
-0.191562
-0.00152908
0.0267642
0.228264
0.00113319
-0.103899
0.356481
-0.0616018
-0.105533
-0.107555
-0.136374
-0.138697
0.079367
0.365488
-0.149516
-2.63138e-05
0.00113138
-0.0575477
-0.00267762
0.00755338
-3.08179e-05
-0.00846867
0.00578956
-0.000130533
0.0872586
-0.000813401
0.193045
-0.0489427
-0.00969132
-0.0101687
-0.0125986
-0.0996315
-0.00863121
-0.00163136
0.0314998
0.119505
0.00643421
-0.0482976
-0.00439037
0.0430312
-0.0139445
-0.0282847
-0.106761
-0.0233421
-8.0621e-05
-0.0223953
0.802928
1.79745e-05
0.0678414
-0.0728459
0.967458
0.0731747
-0.0679144
-3.93002e-06
0.00241455
-0.126672
-3.84723e-05
-0.00403462
-8.96664e-06
-0.109166
0.00658853
-0.121278
-0.033704
-0.000219546
0.45389
0.443473
-0.0523154
0.000622522
-0.000297842
-2.56547e-05
-0.000108694
0.844228
-0.00200453
0.00330792
0.0323349
0.00134533
-0.000932025
-0.108499
-0.00047151
0.0671297
0.00240949
-0.00316636
-0.00115591
-0.037635
-0.0605892
0.282611
0.11676
-0.000280368
-0.0194933
0.000748444
-0.0981937
-0.00101497
0.199139
-0.0146212
1.17109
-0.0249666
-0.00220836
0.114743
-0.0280384
0.585489
-0.0615131
-0.0167064
-0.0192452
0.0273123
-0.00546054
-1.0129e-05
-0.0123946
0.501926
-0.0640488
-0.00485634
-0.061122
-0.0397551
0.245159
-0.00080894
0.444289
-0.00557142
-0.0972028
-0.000844542
0.01962
0.0684837
-0.0109835
0.512411
-0.000756881
0.0496991
0.136786
0.000638268
-0.000250102
0.942115
0.0906628
-0.00189045
0.0443507
0.0254392
0.000144614
-0.101637
-0.032949
-0.173285
-0.0157907
0.572837
0.00606268
0.141256
-0.00064448
0.683124
-0.102683
-0.00792942
0.00918575
0.0471534
-0.100725
-0.157001
-0.0128257
3.59638e-05
1.06811
-0.0334142
0.0011534
-0.0562891
-0.0582237
0.534451
0.00438788
-0.0242879
-0.000105028
0.0839442
0.0118951
-0.0565123
0.00114602
-0.00524917
-0.0414416
3.66577e-05
-0.0766261
-0.00240505
-0.022136
-0.0947403
0.491765
-0.0153751
0.0277736
-0.0686757
-0.0475535
-9.4698e-05
0.000170302
-0.00578399
3.85534e-05
-0.0168165
-0.0478207
-0.00318049
-3.01463e-05
0.9377
0.00740928
0.000431054
-9.39507e-05
-0.00326355
0.504659
-0.077471
1.07108
0.307848
0.0331921
0.474521
-3.65486e-05
-0.0219087
-0.00133009
-0.00378552
0.323078
-0.015317
1.06558
0.421247
-0.0841421
0.453694
0.012824
-0.021426
0.00327459
-0.0720689
-0.00604033
-0.0767211
-0.0824595
-0.0046054
0.442288
-0.0149964
0.00017138
-0.00657065
-0.00106588
-0.0506255
-0.000293358
-0.00196653
-5.43204e-05
0.261019
-0.155253
0.456468
0.0415565
-0.00423768
-0.0506539
-0.0303919
0.114055
-0.00468096
-0.00167055
-0.0963897
-0.0676255
0.0124174
-0.0633477
-0.00684544
0.00912196
0.00292738
1.62516e-05
0.219242
-9.57698e-05
0.0879716
-0.00128618
2.74919e-06
0.00291925
-0.00108167
-0.00191292
-0.0242817
0.252731
0.243256
-0.0301687
-0.0191647
0.00427529
-0.00780868
-0.0155198
-0.000213366
-0.000805896
0.000971966
0.18322
-0.0133672
-0.0851526
-0.0771441
-0.00374652
-0.0365436
-0.0232948
-0.00266608
0.00788921
-0.0189143
0.39833
-0.103813
0.00827581
0.00203379
-0.057198
1.04872
-0.0152445
-0.00843905
0.0116054
0.129136
0.00596341
-0.00871026
0.443852
-0.000611198
0.0674034
-0.036133
-0.084928
0.00950286
-0.00577971
-0.00846772
0.0631485
-0.00555622
-0.00101393
-0.00297626
0.00370285
-0.000409312
0.0439198
-0.0143067
-0.00316646
-3.46506e-05
0.264133
-9.43043e-05
-0.0485967
0.124548
-0.0375034
0.000145242
0.181444
-0.0647024
0.287362
-0.000131677
-0.00612733
0.0886286
0.0002227
0.00736661
-0.0069595
0.015758
-0.0314314
-0.0484413
-0.013949
-0.0041433
0.0148908
0.0315076
0.00408936
-0.000326126
0.189555
-0.0600342
-0.00514925
-0.0106302
0.000558577
-0.0923606
8.42319e-05
0.811678
0.316946
-0.000803861
-0.0324008
1.27543e-05
-0.00339888
-0.00880683
-0.0267769
0.264692
0.169051
0.0145279
0.0153177
-0.10778
0.0538993
0.0308434
0.0349833
-0.0758997
0.0221846
0.323097
-0.0145758
0.66094
-0.00146826
-0.0166227
-0.075481
-0.000184689
-0.00120622
-7.74891e-05
0.656825
-0.0157298
0.000346185
-0.0235439
-0.00846367
-0.000544047
-0.0199662
0.405261
0.00137671
0.0163944
-0.045995
-0.000844386
-0.0069966
-0.00127985
1.08388
0.000273262
2.65601e-05
-0.00308409
-0.0219022
0.0502948
0.00073946
0.0137516
0.120579
-0.000297683
0.0029793
-0.106929
0.00831269
-0.0713006
4.95614e-07
0.000444787
-0.0158029
0.0479709
0.520995
0.1482
-0.0508846
7.5081e-07
-0.0822453
-0.00400312
-0.0189261
-0.0183097
0.29359
0.772323
-0.000194199
0.243656
0.392332
-0.0146365
-0.0358039
-0.0356239
-0.0226988
0.000126161
-0.0592041
-0.0130574
-0.000245021
-0.00088224
-0.00242635
-0.0029093
-0.00106821
0.500357
0.486587
0.236899
-8.61502e-06
-0.0344683
0.00722764
0.168707
0.823531
-0.000785051
-0.0300641
-0.0273654
0.38456
-0.0283892
-0.0144052
-0.0198688
0.250863
0.000390494
-0.000822919
-0.0381422
-0.0664479
0.189308
0.0462979
-0.062844
-0.0359958
0.0215672
0.0296698
-0.0726748
0.0103509
-0.0355541
0.144641
-0.00057523
-0.000993898
0.124698
0.000262872
0.02584
0.0477964
-3.97738e-05
0.277235
-0.0159467
-0.00666114
1.11825
-0.0538397
-0.0153932
-0.0564658
-0.00417359
0.763234
0.00164098
1.05381
-0.000245538
-0.0335541
1.07076
0.0101606
0.752208
-0.00860298
-4.57806e-05
-0.0395371
0.743893
-0.00240948
-0.00993415
-0.0121326
-0.00154804
-0.0316485
0.77299
0.162234
-1.59666e-05
0.0294842
-0.00560066
0.0446531
-0.00138062
0.0347726
-0.00394198
-0.000773239
0.729964
0.778346
0.741572
-0.0746557
-0.0214377
0.000169184
-0.0817658
0.470564
0.0225795
0.000303347
-0.0994232
0.000821476
-0.000187045
0.779334
0.0001478
0.00618232
-0.0029161
-0.013669
0.752407
0.761547
0.80026
0.0175876
0.000643779
0.335697
0.0112341
0.0336106
-0.013536
7.76975e-05
-0.00445395
-4.22901e-05
-0.00680875
-0.00116012
-0.00868318
-0.000146758
0.235216
0.00308232
-0.107224
-0.0137146
-0.101559
-0.0239799
-0.00120185
0.54569
-0.0159519
-6.02296e-05
-6.85295e-05
1.03058
2.82484e-05
0.016898
0.0816833
-0.0263589
0.462658
-0.00781816
-0.0622222
-0.053297
-0.000855601
0.000148702
0.426485
0.79059
-0.00233792
-0.0328001
-0.000387353
0.763187
0.986251
-0.00218501
-0.00975668
0.028798
0.0044249
-0.0356831
5.01902e-05
0.0150151
-0.0545603
0.08233
0.515556
-0.00229349
0.0428162
0.106266
0.0187106
-0.0636865
0.0421064
0.952657
0.267062
-0.0761291
0.767468
-0.00092613
0.821178
-0.0111411
0.649492
0.10954
-0.00755055
0.0496255
0.00351556
0.0262454
-0.103603
-0.00103954
-0.0338818
0.613197
-0.0383861
0.0332035
-0.00223674
-0.0408697
0.254389
-0.0135904
-0.100032
0.000989504
-0.00544196
-0.0346538
-0.00323083
0.002837
-0.0129997
-0.000786687
0.00353408
0.633216
0.00310375
-0.0232064
-0.0842717
-0.0420098
-0.0898199
-0.12139
0.00612181
-6.89689e-06
-5.59023e-05
0.392954
-0.0844873
6.4599e-05
-0.0897034
0.275413
-0.0857396
-0.0217713
0.000138261
-0.00283332
-0.0656924
0.19688
-0.0130509
-0.000752959
-0.0655363
-0.0285711
1.07794
0.168423
0.0996015
-0.0740929
-4.3349e-06
-0.00983016
0.0965728
-0.000593423
1.77013e-05
0.251976
0.145663
0.000854753
-0.00130979
0.0101574
-0.0566427
0.0149975
0.011573
-0.0218299
5.61095e-05
0.315748
0.000801434
-0.0010156
-0.000387787
-0.000357718
-0.000266539
0.121827
0.00128728
-0.00411019
-0.0138312
-0.00709775
0.0418896
-0.00787097
-0.0588499
-0.0150201
0.684258
0.548816
-0.000762285
-0.00217971
0.140882
-0.00124066
-0.0307611
0.0684198
0.0346581
-0.00145209
0.0300667
0.058864
0.00179386
0.112191
-0.000185371
0.010732
-0.0277632
0.0199936
-0.0208676
0.0717942
7.72e-05
-0.000144302
0.00033795
-0.0001007
-0.0023536
-0.0138823
-0.018258
-0.0412887
0.0604244
0.0538118
0.0131982
-0.0930902
0.0154697
0.00867114
0.0187277
6.25407e-05
0.777561
-0.0117897
-0.00469045
-0.0400165
1.09305
5.40281e-06
0.0537805
-2.91652e-05
-0.0640306
-0.00914064
-0.0308299
0.251141
-0.00567152
-0.000107504
0.149534
0.105249
-0.00083702
0.0745281
-2.86886e-05
0.2425
0.0089682
-0.0394873
-0.000245031
0.33127
0.0409595
-0.0284511
2.37311e-05
0.250518
0.474372
-0.00163057
-8.84133e-05
-0.0503808
-0.0126414
0.00576431
0.029907
0.827284
0.427365
0.000626435
0.455253
0.33306
-0.004011
-0.0761232
-0.0518142
-0.0226961
-0.0791785
0.0830049
0.00108997
0.856967
0.206019
0.0174544
8.66604e-05
0.000831857
7.83581e-06
-0.000838092
-0.0039388
0.92192
-1.71274e-05
0.114088
0.0383723
-0.000357795
0.832239
0.98502
0.288215
0.345271
-0.0574896
0.00338034
-0.000443349
-0.0152811
-3.0106e-05
-0.00157357
-0.181727
-8.29623e-05
-0.00275758
0.864211
-0.0160286
-3.91042e-05
0.920659
0.000590477
-0.0480812
-0.096051
-0.00186914
-0.115314
-0.000362024
0.140083
0.00455446
-0.0240707
0.00262028
-0.000962339
-0.000587181
-0.000346322
-0.184252
-0.0824881
0.226419
0.00375675
-0.00980743
0.32182
7.50801e-05
1.04177
-0.000838571
-0.114453
0.00304137
0.00219553
0.0720363
0.0755888
-2.5355e-05
-0.00577369
0.000112635
-0.000973286
0.0011077
0.118984
0.0688552
0.485481
-0.0639797
-0.000162553
0.000196254
0.140967
0.46729
-0.00612564
-0.00863593
1.04299
-0.00384018
-0.0280048
0.00106953
0.0753964
-0.0628053
-0.011681
0.231844
0.0017657
-0.000385961
0.00221841
-0.0413001
1.01598
0.779031
-0.0326756
-0.0546475
-0.00886324
0.00208975
1.21281e-05
0.106443
0.268529
-1.80202e-05
-0.00997127
-3.68504e-05
0.000143366
0.717471
-7.43896e-07
-0.108457
-0.082013
-0.133416
0.0977125
-1.17751e-05
0.0135598
-0.0084843
0.649724
-0.0109645
0.00678835
-0.0410991
0.000811757
0.48052
0.31304
0.014579
0.0688028
0.873157
-0.0873133
-0.0802827
-0.00264508
-0.00956891
-0.000575471
0.0286105
-0.000135009
0.243237
0.00390605
0.24359
-0.04732
-3.79071e-06
0.0753186
-0.000266876
-2.91386e-05
-0.00108418
1.01326
0.967529
0.358133
5.56704e-05
0.180117
0.820581
-0.00137228
0.00177614
-0.0115019
0.0800654
0.747432
-0.0371942
0.17395
-0.00357693
-0.0868248
-0.0979089
1.13571
-0.000860731
0.769977
0.123907
0.281906
0.000102666
0.000249805
0.00724734
-0.0121883
0.115135
-0.000101609
6.50427e-05
0.759375
-0.142869
0.000350485
0.8007
-0.00318188
0.00016911
0.585534
-0.00975816
-0.00218664
-0.04373
0.144411
0.000392423
-0.000214213
0.00458045
-0.00551083
0.747073
1.00583
0.351428
1.10731
0.0676447
-0.0617703
0.885667
-0.000138459
-0.00446554
0.0897279
-0.00475727
-0.000928792
-0.000159948
0.79215
0.0241836
-0.000923664
0.975184
0.105373
0.196962
0.0596272
-0.00371184
-0.0279338
0.184786
0.0976864
0.776942
-0.0329877
-0.00110528
0.71413
0.592655
0.0175524
0.51015
-0.0529883
-0.0105503
-0.0127951
-0.000908938
-0.000221182
0.726287
-0.0841118
-0.00757576
0.000999037
0.220666
-0.0421094
-0.025808
-0.00143966
-0.0053937
0.825018
-0.00112694
-0.0234988
-0.00410388
0.797025
-0.02619
0.0270671
-0.01013
0.00181848
0.217618
-0.0294868
0.85931
0.0463767
1.10219
0.376096
-0.0799125
0.0423919
-0.00246768
0.00560885
-0.076839
0.761708
0.818934
0.940475
0.374237
0.7375
-0.000553367
0.878725
-6.35836e-05
6.68313e-05
-0.0638144
0.957024
0.0688157
0.32066
-4.97607e-05
-0.00297993
-0.105822
-0.0481586
0.74901
-0.000962346
-0.0103573
0.347906
0.0013395
-0.00578672
1.0638
0.064042
-0.0577333
-0.188082
-0.000776451
0.0419698
0.0209792
1.11765
0.0365944
0.0238825
0.00555468
-0.000353455
-0.0122578
0.271396
0.00714545
0.00014439
-0.124784
0.356691
-0.00203387
0.759879
-0.0978683
0.774067
-0.0382349
-0.0306054
0.881804
-0.00720015
0.00310405
-0.000590399
-0.00181735
-0.0844716
-0.0299411
-0.0480542
-0.013094
8.69361e-05
-0.131811
-0.0933736
0.759254
0.000301046
0.00095638
-0.0273223
0.156836
-0.139802
-0.0777086
-1.87255e-05
-0.130577
0.0622471
-0.000173205
-0.11204
-0.0920853
0.786046
-0.133582
0.744629
-0.0182683
0.122398
0.364956
-0.0460223
0.292731
-0.00247123
0.100121
0.000859371
0.115397
0.265727
0.243318
-0.0375212
0.00800559
-0.000984288
0.25007
-0.000131236
-0.000204977
-0.00143208
-0.0099968
0.0199877
0.0195671
0.624063
0.191237
1.02559
0.567314
-0.00208252
-0.0428069
-0.000263823
-0.0631543
-0.00175966
0.00754384
0.000794116
-0.0442354
0.476974
0.775135
-0.000425164
1.91449e-05
0.014366
-4.3216e-05
-0.0121364
-0.000282429
0.161565
-0.0464344
0.261881
-0.119797
2.12241e-05
-0.0183017
-0.0518173
-0.0338397
-0.0215643
-0.068292
0.0527305
-0.000246731
-6.80013e-05
0.00265185
-0.000221528
0.0916166
0.0392738
0.0507939
0.94085
0.0581873
-0.169374
-0.112222
-0.000627656
0.0673578
-0.000199886
0.698492
0.131679
0.851666
0.000146523
-0.0425608
-0.00896095
0.0634669
0.10992
0.602678
-0.00998317
0.0365917
-0.00258326
-0.0253253
-0.0105129
-0.00801431
0.141916
0.00200161
-0.0113659
-0.026523
0.195928
0.0755871
1.62975e-07
-0.0012122
-0.00815144
-0.000843507
0.135784
-0.000923518
-0.0415637
0.175836
7.84981e-05
0.332988
9.00528e-05
-5.84082e-06
-0.118667
-0.0257022
0.000180399
-0.0293464
0.000170485
0.897218
0.016103
-0.0314844
0.844778
0.169454
-0.0406773
0.612703
-0.00365968
-0.00249222
-0.00277411
0.104338
1.18254
-0.00202269
-0.000861542
-2.6537e-05
0.0101032
-0.00168851
0.0330554
0.00789589
-0.027193
-0.076359
0.0238168
0.0135134
-0.0244172
-0.000753419
-0.0418359
0.53562
-0.00242892
-0.0179239
-0.000341043
0.633288
0.0682914
0.536489
0.00051854
-0.00116358
-0.0309908
0.947151
0.193114
-0.0366404
-0.000203851
0.0404849
0.0878249
-0.0358274
0.257507
-0.061289
0.0246223
-0.175637
0.606467
-0.0215583
0.337311
-0.00419324
1.10955
-0.053026
-0.0143253
0.845401
-0.0552541
0.219999
-0.189236
0.248974
0.00827636
0.0639526
0.451943
0.0644416
-0.0617732
-0.012601
-0.00996802
-0.0199561
-0.0156028
-0.00209242
-0.0732165
-0.0365098
0.00244506
-0.0845066
-0.105798
-7.31458e-05
0.0741055
-0.0118682
0.054347
0.837923
0.486791
-0.0687161
-0.0913221
0.00053386
-0.102329
-0.00589262
1.07229
-0.0453818
-0.0390344
0.486356
0.061996
-0.0516534
0.218211
-0.0474275
-0.00091514
-0.0152342
0.0128829
0.000770844
0.511453
-0.00357977
0.18852
0.326651
-0.00743885
0.332773
-0.133625
-0.000529244
0.0085366
0.0782677
0.393415
-0.00333806
0.0952877
-0.0904084
0.0805025
-0.029748
0.508983
-0.000879259
-0.0979152
-0.00431597
0.000203787
0.745722
-0.00322922
-0.0420441
-0.000174181
0.286763
-0.000108197
-0.0615133
-0.0039322
-0.181662
0.000770785
-0.0134402
0.183906
-0.0051592
0.00114527
0.00074385
-0.00543149
0.0423088
-0.000126657
-5.26163e-05
-0.0110712
-0.0137234
-0.0296068
0.0104508
-0.00253946
0.0959268
0.103085
-0.00172989
0.00126334
-0.000302733
0.730642
-0.00550676
-0.00910045
0.595622
-0.0239504
0.524029
0.0575717
0.786175
0.312493
0.141928
-0.00199379
-0.0109276
0.103318
0.0275928
-0.00571134
0.000205855
0.010804
-0.0671598
-0.00129177
-0.0108095
-0.0104241
-0.0121221
-5.8756e-05
-0.00431651
5.72615e-05
-0.000118064
0.00107165