/*--------------------------------*- C++ -*----------------------------------*\
  =========                 |
  \\      /  F ield         | OpenFOAM: The Open Source CFD Toolbox
   \\    /   O peration     | Website:  https://openfoam.org
    \\  /    A nd           | Version:  7
     \\/     M anipulation  |
\*---------------------------------------------------------------------------*/
FoamFile
{
    version     2.0;
    format      ascii;
    class       volVectorField;
    location    "18";
    object      U;
}
// * * * * * * * * * * * * * * * * * * * * * * * * * * * * * * * * * * * * * //

dimensions      [0 1 -1 0 0 0 0];

internalField   nonuniform List<vector> 
29659
(
(1.01207 -0.0156459 2.37548e-22)
(1.01237 0.00516722 1.07886e-21)
(0.989396 -0.00386455 -1.425e-21)
(0.965213 -0.0577922 4.37188e-22)
(0.997199 -6.01232e-05 2.05865e-22)
(0.9499 -0.0356167 -6.49582e-22)
(1.0652 -0.0892821 8.2205e-22)
(1.01581 -0.0236657 -2.38246e-23)
(1.0023 -0.00222752 3.31214e-23)
(1.00021 -5.65504e-05 8.11779e-24)
(1.01767 -0.0316116 -2.62896e-24)
(0.997591 -0.018976 -5.22885e-22)
(0.999451 -0.000223896 2.9441e-23)
(0.999965 -1.22859e-05 9.50295e-25)
(1.19916 0.0649937 1.72064e-21)
(0.993048 -0.00224392 2.18999e-22)
(0.999818 -0.000976545 -1.39737e-23)
(1.14999 -0.0185225 -1.6294e-22)
(0.997557 -0.00206775 -7.07529e-23)
(0.987436 -0.000931679 -3.13256e-22)
(0.999014 -0.000314887 -9.84591e-23)
(1.00217 -0.00222316 1.15717e-22)
(0.989294 -0.0040886 1.56646e-21)
(0.997545 -0.000196927 9.07421e-23)
(0.817053 0.200849 4.57192e-22)
(1.01347 0.00407619 5.80571e-21)
(0.999407 -6.74255e-05 6.6903e-23)
(0.917157 0.159929 -3.36436e-20)
(1.20313 0.0623525 -4.60952e-21)
(0.999088 -0.0103968 -1.02541e-22)
(1.01749 -0.0126917 1.69376e-22)
(1.04331 -0.00897144 -1.25126e-21)
(0.978088 -0.134228 4.36466e-21)
(0.997853 -0.0262799 2.60645e-22)
(0.912409 0.152478 2.76332e-20)
(1.00401 -0.0373518 7.13907e-22)
(1.09023 0.0488289 -1.69172e-21)
(0.967694 -0.0324187 1.83738e-21)
(1.00608 -0.000941248 -4.56781e-22)
(1.00586 -0.0006625 8.6816e-22)
(1.00049 -0.000188993 -2.61462e-23)
(0.987213 -0.0349445 -1.80666e-21)
(0.999839 -0.000948962 -1.47325e-25)
(1.02977 -0.0814276 -2.76548e-21)
(1.00004 -6.40404e-06 -1.32418e-24)
(0.999313 -0.0105453 7.69588e-23)
(0.997162 -0.0141058 -1.4815e-22)
(1.00009 -9.70943e-05 3.65746e-24)
(1.0038 -0.00416904 -4.74373e-22)
(1.08926 0.0456385 -6.978e-22)
(1.12779 -0.0993766 5.3355e-22)
(0.969075 -0.0508291 -2.06673e-21)
(1.04321 -0.00792592 4.4133e-22)
(0.951506 -0.0353074 -1.08684e-21)
(0.99322 -0.00230307 -1.93011e-22)
(1.20136 0.0518691 -2.96921e-21)
(0.99614 -0.00257992 6.96827e-23)
(0.998986 -0.000347108 1.24703e-22)
(0.999979 -0.0247808 -3.63107e-22)
(1.01206 -0.0665532 -1.26651e-21)
(0.999924 -8.19432e-06 2.09707e-24)
(0.997642 -0.00211811 -1.46466e-23)
(1.24105 -0.0190927 -1.07163e-22)
(1.00444 -0.036502 -3.94918e-22)
(1.11018 0.130734 1.33203e-20)
(0.857257 0.05297 7.17238e-20)
(0.998897 -0.0311872 -6.95088e-22)
(0.991703 -0.0158389 6.6688e-22)
(0.893671 0.0330803 2.88493e-20)
(1.00052 -0.000178752 1.68988e-23)
(1.01539 0.00490219 -7.91111e-21)
(0.985797 0.120953 1.9297e-20)
(1.00367 -0.0103349 -1.80771e-22)
(0.858412 0.234284 1.75116e-20)
(0.990786 -0.000728365 1.01477e-21)
(1.12698 -0.0589433 4.53158e-23)
(1.27028 0.0649513 3.24698e-21)
(0.968909 -0.0183961 4.38483e-22)
(0.999943 -2.56385e-05 -6.09367e-24)
(1.00429 -0.0550414 -1.25431e-21)
(0.9516 -0.00082968 -7.20583e-22)
(1.03031 0.0510635 4.62112e-21)
(1.01231 -0.016327 -7.13117e-22)
(1 -7.12285e-05 1.68675e-24)
(1.06777 -0.087055 -1.24621e-21)
(1.22882 -0.144843 -3.37617e-21)
(1.06717 0.125009 -2.72858e-20)
(0.999429 -0.000220603 -2.65388e-23)
(0.999468 -0.000199571 -7.77052e-24)
(0.925535 -0.045783 -2.64377e-21)
(0.992903 -0.0602631 2.38569e-21)
(0.968795 -0.0192726 4.89914e-22)
(1.00357 -0.00431078 8.12795e-23)
(1.06793 -0.0148274 -7.06877e-22)
(0.918509 -0.0195862 -2.21349e-21)
(1.0906 0.147911 1.25928e-20)
(0.995484 -0.077995 3.74753e-21)
(1.00054 -0.000440748 4.21816e-23)
(0.96632 -0.0725179 -3.80607e-21)
(1.20612 0.0900847 8.33887e-21)
(0.99994 -2.51034e-05 8.92056e-24)
(0.970378 -0.0119824 -2.63339e-21)
(0.999927 -1.00995e-05 -1.08277e-24)
(1.05298 -0.0239406 -3.54096e-21)
(0.967501 -0.0506615 1.35657e-21)
(1.04486 0.0142973 7.98373e-21)
(1.00977 0.108921 2.85204e-20)
(0.999489 -0.000201993 -6.6146e-23)
(0.999995 -7.91952e-05 -2.18326e-25)
(0.995927 -0.128158 -2.12271e-22)
(0.975553 -0.132753 -3.93294e-21)
(1.04769 -0.0476855 2.58917e-22)
(1.00002 -2.16383e-06 1.98899e-25)
(0.998708 -0.00703365 -2.67784e-22)
(0.999871 -0.00251339 1.22761e-23)
(0.991032 0.122933 1.60438e-22)
(1.06146 0.0708872 -9.71325e-21)
(0.986601 -0.00829825 -1.07133e-21)
(1.00003 -7.8005e-05 1.64214e-25)
(1.00404 -0.0102303 -1.39938e-22)
(1.25686 -0.0668513 6.99288e-21)
(1.00857 0.0161128 1.27335e-20)
(1.17838 -0.0741071 -2.76927e-21)
(0.854436 0.0649538 -6.63308e-20)
(1.00125 -0.000408663 -1.09294e-22)
(1.17123 -0.0543499 1.35498e-22)
(1.14904 -0.0143369 -9.22525e-22)
(1.0171 -0.0641971 9.30705e-22)
(1.00455 -0.00396003 -4.24542e-22)
(1.00003 -0.000502519 -1.85606e-25)
(1.02932 -0.0792205 9.84959e-22)
(1.26946 0.0595729 1.45954e-21)
(1.04302 0.217602 2.71704e-20)
(1.18297 -0.0900696 -9.55473e-22)
(1.05123 -0.0234824 2.98611e-21)
(1.01698 -0.012196 3.20247e-21)
(1.18597 0.220719 1.64339e-21)
(0.969031 -0.000885195 3.68373e-21)
(1.13882 -0.211001 1.11497e-20)
(1.20443 0.0844062 -6.43151e-21)
(1.17061 -0.049707 -5.19066e-23)
(0.933098 -0.00577618 -2.91921e-21)
(0.944869 -0.0495996 8.41561e-22)
(1.00002 -1.92855e-06 -8.64391e-26)
(0.999987 -3.78675e-06 5.7866e-25)
(0.997126 -9.96179e-05 -1.60891e-22)
(0.997378 -0.0138213 3.0447e-22)
(0.980913 -0.10199 -3.04452e-21)
(1.1386 -0.162842 4.96581e-21)
(1.26593 0.00771619 5.31602e-23)
(1.0349 -0.0225764 1.61168e-21)
(1.02022 -0.0228343 5.28754e-22)
(1.00049 -0.00071384 6.44962e-23)
(0.99985 -0.00025339 8.20124e-24)
(1.00277 0.038241 -2.81536e-20)
(1.00061 -0.00175269 7.60148e-24)
(0.992388 -0.0128871 5.16746e-25)
(1.20688 0.209324 -4.56616e-21)
(1.00813 0.0679242 -3.07212e-20)
(1.13068 -0.0957719 -1.04201e-21)
(0.953844 -0.00315064 1.23296e-21)
(0.966335 -0.0566236 3.1519e-21)
(1.20417 0.0556911 7.5538e-22)
(0.999943 -5.2362e-05 1.9573e-24)
(0.999986 -3.63166e-06 -2.16057e-25)
(0.986542 -0.0087223 3.86698e-22)
(0.946224 -0.0485935 -4.6716e-21)
(1.00006 -0.000257779 -3.01532e-24)
(1 -7.56473e-05 8.07702e-25)
(0.992297 -0.0058293 -1.28056e-22)
(1.00004 -0.000487486 1.66183e-25)
(1.00652 -0.00680081 -2.37328e-22)
(1.20481 0.217819 5.15511e-21)
(0.96948 -0.000464994 -3.11901e-21)
(1.04629 -0.128277 -1.23188e-21)
(0.994239 -0.000112428 6.57777e-22)
(1.0024 -0.0030819 2.46256e-23)
(0.96958 -0.0117803 4.35043e-21)
(0.999047 -0.00701915 -2.45419e-23)
(1.18318 -0.0653579 1.4259e-21)
(0.999975 -1.14503e-05 3.21687e-24)
(1.01422 -0.0441817 -4.87416e-22)
(1.07115 0.126752 9.61581e-21)
(0.992051 -0.0147112 -3.92733e-23)
(1.13207 -0.207394 -1.06955e-20)
(1.04628 0.0618346 -8.66296e-21)
(0.992844 -0.00321542 -9.57669e-22)
(0.97949 -0.0173991 1.18384e-21)
(1.00431 -0.00397754 6.44956e-22)
(0.999163 -0.00969212 -1.51366e-22)
(0.999684 -8.46474e-06 7.82609e-24)
(1.00676 -0.0204914 1.02869e-22)
(0.845516 0.0324796 2.78686e-20)
(1.00189 0.0320953 2.17184e-20)
(0.983761 -0.00701822 3.0406e-23)
(0.992728 -0.0126956 -4.18757e-22)
(0.965466 0.0686072 -2.6983e-20)
(1.01894 0.040309 3.98835e-21)
(0.920202 -0.019375 2.74561e-21)
(1.0013 -0.00055092 -8.55062e-23)
(1.0787 -0.110756 1.70755e-21)
(0.965347 -0.0960706 3.96887e-21)
(0.997898 -0.0193725 2.51121e-22)
(1.00095 -0.00120521 -1.3499e-22)
(1.19432 0.223923 2.13665e-21)
(0.992544 -0.005843 -8.7193e-23)
(1.00762 -0.00610215 -2.67202e-22)
(0.979 -0.101378 3.96184e-21)
(0.996229 -0.131187 5.2538e-22)
(0.999958 -5.97036e-06 7.38515e-25)
(0.981136 0.18309 -2.97216e-20)
(0.998833 -2.65054e-05 -1.60582e-24)
(1 -6.0835e-05 4.39232e-25)
(0.999385 -0.000234922 1.12677e-23)
(0.996155 -0.0606178 -8.76222e-22)
(1.23792 -0.00316931 -2.60723e-22)
(1.01534 -0.0433185 5.71548e-23)
(1.00738 -0.00569966 -1.8316e-22)
(0.997571 -0.000271497 2.25684e-22)
(0.921668 -0.0216039 -5.04977e-22)
(1.00004 -0.000534469 -7.0871e-25)
(1.00054 -0.00178765 8.47413e-25)
(0.997383 -0.000230202 -1.48484e-22)
(1.03311 0.00114418 7.4705e-21)
(0.997025 -0.00445717 -4.77991e-23)
(0.998736 -0.00653711 7.97434e-23)
(1.03195 -0.00178531 3.65886e-21)
(1.00014 -0.000436943 5.78828e-24)
(1.00004 -5.4646e-06 3.4503e-25)
(1.0056 -0.000673373 9.33312e-23)
(0.972265 -0.0369484 -1.55742e-21)
(0.972817 -0.000455707 -1.5224e-21)
(0.994591 -0.000427964 -6.97105e-22)
(1.01657 0.00384679 6.54363e-21)
(0.982281 -0.0012844 7.31734e-22)
(1.02051 -0.0220854 -5.14034e-22)
(0.999964 -1.37244e-05 2.6704e-24)
(0.996683 -0.00294346 -2.71676e-22)
(1.00089 -0.0011954 1.45793e-22)
(1.07814 -0.106796 1.69509e-21)
(1.05717 -0.207229 7.95271e-21)
(0.998444 -0.00014054 1.17974e-22)
(1.00052 -0.000634913 -4.99862e-23)
(0.998626 -0.00638025 -2.69744e-23)
(1.00393 -0.00913609 -3.45341e-22)
(0.987688 -0.000687805 -1.33959e-21)
(0.999945 -4.98951e-05 -1.0714e-25)
(1.22343 -0.141909 -7.27041e-21)
(1.00005 -0.000546605 4.10916e-25)
(1.03273 0.00107092 -5.26313e-21)
(0.996263 -0.00258417 -1.40839e-22)
(1.00016 -0.000423435 2.55003e-24)
(1.04368 0.014903 -5.0747e-21)
(0.959585 -0.0919392 -4.03843e-21)
(1.00028 -4.79631e-05 2.71638e-23)
(1 -1.40938e-05 2.27029e-25)
(0.932914 -0.00413434 -3.32418e-21)
(1.03971 -0.191892 -1.24074e-21)
(0.990284 -0.00927432 -1.03654e-22)
(1.01601 -0.0655816 -2.48118e-22)
(1.03584 -0.0234242 -2.63837e-22)
(1.07762 0.12006 1.18261e-21)
(1.00009 -9.16664e-05 1.02685e-24)
(0.972795 -0.0361846 1.58712e-21)
(1.2236 -0.0719833 3.30676e-21)
(0.938767 0.0990157 6.33978e-22)
(0.991956 -0.0143783 3.10769e-22)
(1.04441 0.0597868 1.06392e-20)
(1.12739 -0.0549152 7.55983e-23)
(0.999866 -0.00276682 -1.26521e-23)
(0.698399 0.0911631 3.7384e-20)
(0.999388 -0.000494621 -7.62658e-23)
(1.04538 -0.131956 -1.60186e-21)
(0.922966 -0.0215886 3.37635e-21)
(1.00255 -0.00291293 -1.35835e-22)
(1.20747 -0.0277244 2.21833e-22)
(0.990314 -0.00105629 -8.02031e-22)
(1.05475 0.235613 1.9198e-20)
(0.996073 -0.000299463 6.35524e-23)
(0.980075 -0.0187646 -6.20367e-23)
(0.999769 -0.00251262 -6.90246e-23)
(1.21131 0.133156 1.91844e-21)
(1.00003 -0.0196444 6.5015e-23)
(1.0862 0.151007 8.06239e-22)
(0.999424 -5.1892e-05 -2.92355e-23)
(0.993399 -0.00213257 -3.05339e-22)
(0.960188 0.235816 -1.2654e-20)
(1.03844 -0.000296148 -6.14774e-21)
(1.03171 -0.00124418 4.25683e-21)
(0.9668 -0.0469205 3.80591e-21)
(0.999828 -3.72059e-05 8.15092e-24)
(1.00382 -0.00881605 -3.92548e-23)
(0.999814 -0.00106765 -2.52577e-23)
(1 -5.76392e-05 3.17338e-25)
(1.06907 0.00276541 1.63874e-21)
(1.00005 -5.99377e-06 4.01026e-26)
(0.977404 -0.0166397 2.7696e-21)
(1.2203 -0.0738067 -3.16974e-21)
(0.812527 0.21092 -3.37542e-20)
(1.04905 0.21626 -4.32873e-20)
(0.963606 -0.0794578 1.24871e-21)
(0.98419 -0.0340013 9.78026e-22)
(0.974136 -0.0017547 7.27553e-22)
(1.03834 -0.0437704 8.7612e-22)
(1.00741 -0.0202148 -1.91885e-22)
(0.979354 -0.0182301 -1.63416e-21)
(0.964425 -0.0871987 5.53208e-22)
(1.0763 0.124274 -1.78963e-20)
(0.999314 0.0329459 4.33554e-20)
(0.998547 -0.000171159 6.49574e-23)
(1.01246 0.109449 -3.89732e-20)
(1.06777 0.0011841 5.5772e-22)
(1.18302 -0.0715037 7.9707e-22)
(1.01551 -0.0182247 2.47368e-22)
(1.00122 -0.0180972 -3.07549e-22)
(1.02495 -0.0602645 -6.04562e-22)
(0.993876 -0.00206298 -7.23899e-22)
(0.996969 -0.000750519 -4.74777e-23)
(0.999931 -8.00612e-06 1.11541e-23)
(0.998977 -0.00993013 2.21815e-22)
(1.10654 -0.055801 1.35597e-22)
(1.21707 0.137537 -3.05973e-21)
(1.00184 -0.00157586 6.39682e-23)
(0.968914 -0.0303718 -2.19884e-21)
(1.01769 -0.0186733 -7.82335e-22)
(0.999956 -1.89396e-05 -1.0009e-24)
(0.963974 -0.0831838 -1.98954e-21)
(0.764374 0.161831 -1.73041e-20)
(0.992932 -0.00549085 1.07535e-21)
(0.998752 -0.00522803 7.19309e-23)
(1.01618 -0.0180281 -1.53713e-22)
(1.00394 -0.0534491 1.59618e-21)
(1.11104 0.0274371 1.90917e-21)
(0.999421 -0.0112652 -3.76853e-23)
(0.999963 -6.05239e-05 6.95778e-24)
(1.00002 -3.04562e-06 8.73277e-26)
(0.996928 -0.000683597 -5.2437e-23)
(0.955482 0.234838 1.8287e-20)
(1.05692 -0.0358184 7.17961e-22)
(1.06268 -0.205085 -2.08913e-21)
(1 -1.41389e-05 3.6054e-26)
(1.03672 -0.196492 8.07989e-22)
(1.09628 -0.00968063 -2.20177e-21)
(0.994099 -0.000187787 -3.26783e-22)
(0.92582 -0.00786052 -4.11109e-21)
(0.998848 -0.0051368 -7.23873e-23)
(0.999502 -0.00022615 -4.84563e-24)
(0.973592 -0.0327101 -4.7764e-22)
(1.00106 -0.00132177 -6.53291e-23)
(1.18741 -0.0628981 -1.20571e-21)
(1.0106 -0.00126733 -1.93084e-21)
(1.24736 0.0473233 -1.74347e-21)
(0.999905 -0.00273024 1.63462e-23)
(1.00494 -0.0160795 6.25329e-23)
(1.00828 0.01424 -1.72185e-20)
(1.25212 -0.065871 -2.7613e-21)
(1.00048 -0.000671639 -3.79717e-23)
(1.00051 -0.000595392 3.72412e-24)
(1.00048 0.146189 1.85401e-21)
(0.994179 -0.0613968 -4.77633e-22)
(0.999226 -0.0110937 4.60067e-23)
(1.01768 0.0452611 2.10156e-21)
(0.950961 0.035132 5.30396e-20)
(1.12827 -0.103952 -1.77982e-21)
(0.998907 -0.0301012 -2.13187e-22)
(1.23532 -0.000961013 2.57443e-22)
(0.99912 -8.41841e-05 -4.94981e-23)
(0.990002 -0.00484989 2.84467e-22)
(0.996154 -0.000314388 -1.79002e-22)
(1.02086 0.0381336 7.63375e-24)
(0.999986 -0.000877433 2.34985e-24)
(1.01024 -0.0015339 1.97263e-21)
(1.16232 -0.151346 1.43279e-22)
(1.03443 0.20529 4.29388e-20)
(0.86581 0.242216 -7.71727e-21)
(0.993063 -0.0032077 3.79907e-23)
(0.989998 -0.00905801 3.10131e-22)
(1.1079 0.136124 -1.05513e-20)
(1.01253 -0.0686044 1.82017e-21)
(0.999933 -9.51798e-06 -1.08776e-23)
(1.26895 0.0287915 1.40348e-21)
(1.03243 0.001802 -2.2415e-21)
(1.03187 0.00182968 -1.52085e-21)
(0.993368 -0.0156497 -4.53387e-22)
(1.02181 -0.00236125 -3.02463e-21)
(0.933272 0.210722 7.37659e-21)
(1.13341 -0.173258 -1.42365e-21)
(0.988846 0.196787 7.25543e-21)
(1.0138 0.188203 -1.24918e-20)
(0.999996 -7.57557e-05 6.97221e-25)
(1.10324 -0.0544916 -2.44769e-22)
(1.13383 -0.167549 9.35174e-22)
(0.996886 -0.00449694 1.24779e-22)
(1.00189 -0.00169453 -1.05232e-22)
(0.942715 0.0408129 1.2679e-20)
(1.05884 -0.0368571 -9.17704e-22)
(1.00033 -8.79686e-05 6.20895e-24)
(0.97829 -0.0701654 -4.68133e-21)
(0.964436 -0.0985897 -1.87849e-21)
(0.993543 -0.00219215 4.2944e-22)
(0.999861 -0.000245955 -1.03075e-23)
(1.11593 0.17401 -1.51517e-21)
(1.06035 0.0681438 1.63346e-20)
(1.00006 -0.000598056 -4.27247e-25)
(1.00473 -0.00427165 8.34161e-23)
(1.0061 -0.00427667 4.53031e-22)
(1.19985 -0.114628 5.256e-21)
(0.966852 -0.0456584 -3.45109e-21)
(1.00008 -0.00070945 -1.80048e-24)
(0.999982 -2.36479e-06 -3.02313e-25)
(1.00058 -0.000195818 9.98003e-24)
(1.1096 0.0295242 -1.89481e-22)
(0.967681 -0.0312739 -1.75811e-21)
(1.00475 0.0769645 8.99124e-21)
(0.936894 -0.0547783 2.01456e-21)
(0.985123 -0.0338495 -1.03627e-21)
(0.972033 -0.00136499 -2.92141e-21)
(1.01971 0.0433272 -1.03519e-20)
(1.23586 -0.0178903 -6.59939e-23)
(0.998592 -0.00018193 1.19017e-22)
(1.00916 -0.00696669 -4.84499e-22)
(1.00098 -0.00130861 7.40255e-23)
(0.992222 0.219271 -1.81267e-20)
(0.97006 -0.0283609 9.45908e-22)
(1.00127 -0.000332204 -3.57221e-23)
(0.991201 -0.00431939 -3.88076e-22)
(1.17516 -0.0454731 2.32136e-22)
(0.999529 -0.012103 -9.82221e-23)
(0.986487 -0.0149283 -2.14086e-22)
(1.00028 -0.000168228 -1.86998e-23)
(1.00028 -6.36069e-05 -8.24374e-25)
(0.757261 0.173425 2.60665e-20)
(0.990384 -0.00157282 -4.98155e-22)
(0.994392 -0.00566563 4.41855e-22)
(0.99956 -0.00222549 -5.85428e-23)
(0.999142 -6.41115e-05 -6.78915e-24)
(1.08631 0.113961 -5.99909e-21)
(1.16832 -0.152118 3.4536e-22)
(0.982478 -0.0508122 6.12936e-22)
(1.00002 -2.46656e-06 -1.0328e-25)
(1 -4.6311e-05 2.86252e-25)
(0.968886 -0.0293685 2.48501e-21)
(0.992052 -0.00230274 1.02507e-22)
(0.993928 -0.00262939 -5.9145e-23)
(1.01703 -0.0063953 9.35979e-22)
(1.00683 -0.00289423 1.6297e-22)
(1.00034 -0.0201227 -1.16142e-22)
(1.1453 -0.0337721 1.53103e-21)
(0.978187 -0.00531066 -6.12878e-22)
(0.991194 0.191671 -6.16649e-21)
(1.01667 -0.0316079 -1.94828e-22)
(1.00029 -0.000168912 2.08196e-23)
(0.962605 -0.0779712 1.8507e-22)
(0.980446 -0.0450244 -2.15302e-21)
(1.20008 -0.0220161 4.69565e-22)
(0.99661 -0.00740591 -1.3245e-22)
(0.986841 -0.0596221 -7.21589e-22)
(0.999974 -6.66275e-06 1.73923e-24)
(0.885103 0.169451 -2.64737e-20)
(1.0182 -0.00266517 1.7046e-21)
(1.0001 -0.000287467 -5.66063e-24)
(0.845493 0.0444682 -3.61594e-20)
(0.981243 -0.0510572 1.37072e-21)
(0.999974 -7.78298e-06 2.74826e-25)
(1.00171 -0.00154132 3.10423e-23)
(0.962795 -0.0815327 -1.09669e-21)
(1.04594 -0.0460997 2.84813e-22)
(1.059 -0.0174233 2.03983e-21)
(0.999989 -4.03666e-06 4.84897e-25)
(0.990336 -0.00080253 3.9581e-22)
(1.026 -0.0589847 1.04229e-21)
(0.993722 -0.00201178 5.94078e-22)
(0.999447 -5.96103e-05 -1.58706e-22)
(0.990198 -0.00500822 8.22461e-24)
(0.959937 0.0712159 3.13398e-21)
(0.991551 -0.015383 -5.56656e-22)
(0.987057 -0.0146227 1.57138e-22)
(1.00347 0.0439613 -8.74422e-21)
(0.996745 -0.00278063 1.41768e-22)
(0.982514 0.225409 -2.25709e-21)
(0.999972 -7.84603e-06 -8.83329e-25)
(0.987606 -0.0340886 4.20533e-22)
(0.978521 -0.0964536 4.56473e-21)
(0.988021 -0.0600198 1.22835e-21)
(1.21642 -0.0842197 9.8867e-22)
(0.998594 -0.00683411 1.79474e-22)
(1.01104 -0.0295568 6.44186e-23)
(0.999899 -0.00293987 3.50527e-24)
(0.979774 -0.026511 -1.22157e-21)
(1.04747 -0.0499611 7.60018e-23)
(0.999957 -1.81482e-05 5.14037e-24)
(1.00002 -1.44385e-06 -1.76974e-25)
(0.992442 -0.000514642 2.70638e-22)
(0.975153 0.131917 1.9385e-20)
(1.01521 -0.0244937 8.9695e-22)
(1.00308 -0.00434719 -1.31191e-22)
(0.920621 -0.0404737 2.84739e-21)
(1 -1.26393e-05 1.04375e-25)
(1.00117 -0.00144264 -1.18793e-22)
(0.999958 -0.000836753 -1.81398e-24)
(1.01689 -0.023505 1.00753e-21)
(0.979985 -0.0195944 2.17662e-22)
(0.999542 -0.000351735 2.01265e-23)
(0.992101 -0.0137263 2.07942e-22)
(0.985252 -0.00865228 -2.27539e-22)
(1.00122 -0.000198946 -9.85531e-24)
(0.999972 -9.13986e-06 -5.49903e-25)
(1.22712 -0.0515271 -2.58449e-21)
(0.999605 -0.00218854 6.29707e-23)
(1.09282 -0.0148028 1.69665e-21)
(1.05826 0.19063 4.35263e-20)
(1.10029 0.137172 -9.8288e-21)
(1.00064 -0.0254026 -4.2894e-22)
(1.00668 -0.00261696 -5.40019e-23)
(1.02222 -0.00188669 1.85443e-21)
(0.999958 -0.00300537 -3.98785e-24)
(0.99735 -0.0128666 2.16851e-22)
(1 -2.12478e-05 4.48273e-25)
(1.00892 0.190035 -8.9692e-22)
(0.9854 -0.0196461 3.03768e-22)
(1.01667 -0.00588573 -6.69248e-22)
(0.97868 -0.00551278 1.27751e-21)
(1.00437 -0.0158084 6.93516e-24)
(0.996814 -0.00728584 2.89945e-22)
(0.999874 -0.000252032 2.45457e-24)
(1.00002 -1.30802e-06 -9.88736e-25)
(0.994583 -0.00564323 -3.21794e-22)
(1.068 -0.0168499 -1.11071e-21)
(1.0087 0.071091 1.41206e-21)
(1.00147 -0.000590821 -1.45539e-22)
(0.968327 -0.0726223 -1.01122e-21)
(0.969983 -0.027508 -4.17438e-22)
(0.990573 -0.000630383 -1.48635e-21)
(1.26172 0.00829943 -7.14154e-23)
(0.998443 -0.00119852 -7.13311e-23)
(1.00444 -0.0178801 -1.58585e-22)
(0.993453 -0.00345719 3.00626e-22)
(0.999885 -0.000242936 2.06124e-24)
(0.963081 -0.085342 1.24927e-21)
(1.00442 0.0676576 -1.40874e-20)
(1.04456 0.053886 -1.08951e-20)
(0.972909 -0.0184097 -2.00855e-22)
(1.00341 0.0644329 -5.94495e-22)
(1.0001 -0.000269852 1.07047e-23)
(1.00002 -1.86036e-06 2.9631e-25)
(1.26452 0.0287272 -6.46637e-22)
(1.2059 -0.0232675 5.94135e-23)
(0.855521 0.175098 -1.24798e-21)
(0.99922 -0.100999 3.3711e-21)
(0.972334 -0.00188382 -9.34152e-22)
(1.17418 -0.0401538 -2.66613e-22)
(1.00139 -0.000617023 1.64733e-22)
(0.993214 -0.00465604 1.72107e-22)
(1.00055 -0.000208208 -9.54963e-24)
(0.987173 -0.000881731 -3.17629e-22)
(0.985882 -0.0160677 -4.45402e-22)
(0.999995 -4.14943e-05 -1.83803e-24)
(0.998936 -4.12343e-05 2.81861e-23)
(1.03213 0.200008 -4.20876e-20)
(0.999845 -0.000868805 2.32324e-23)
(0.898707 0.154104 3.32481e-20)
(1 -2.02105e-05 -3.41062e-25)
(1.25712 -0.0354619 -2.21852e-21)
(1.09268 -0.0172095 -3.61073e-21)
(1.14533 -0.0302089 -1.69525e-21)
(1.00125 -0.000586394 9.82604e-24)
(1.00022 -5.19193e-05 1.65022e-23)
(0.980888 0.122892 -2.95209e-20)
(1.09624 -0.0124181 7.24353e-21)
(0.977842 -0.0983507 -4.14417e-21)
(1.03166 0.0536624 5.00668e-21)
(0.997283 -0.0257768 1.82533e-22)
(0.983919 -0.00661083 -3.30915e-22)
(0.995123 -0.000270034 -1.79544e-22)
(1.25188 0.156189 -1.19259e-20)
(0.97126 -0.0328979 1.53998e-21)
(1.03894 -0.0419591 -6.02323e-22)
(0.992418 -0.0136032 -1.19404e-22)
(1 -1.25682e-05 -1.65363e-27)
(0.998458 -0.00113142 -6.06258e-23)
(1.00717 -0.00734723 2.82977e-22)
(0.977911 -0.00981884 1.63752e-21)
(0.973616 -0.0185608 3.0098e-22)
(0.94808 -0.0495166 -4.52497e-22)
(0.977681 -0.0104121 -1.24213e-21)
(1.02409 0.00344579 8.83948e-22)
(0.997447 -0.0001736 3.72258e-24)
(0.92729 -0.0463629 1.46435e-21)
(0.98308 -0.00112581 -4.54395e-22)
(1.00005 -0.000260633 8.36708e-25)
(0.985233 -0.000900633 -3.14503e-22)
(1.03961 -0.0453355 -9.24119e-22)
(1.02316 0.00371908 -4.8881e-21)
(0.968821 -0.0330839 -3.82547e-22)
(0.999979 -8.7949e-07 -8.17202e-27)
(0.979053 -0.0200261 3.26509e-22)
(1.00258 -0.0182628 3.26213e-23)
(1.00167 -0.00143252 3.98307e-23)
(1.15702 -0.171832 -4.26754e-21)
(1.00348 0.0656388 -3.29082e-20)
(1.00109 -0.00142527 1.10202e-22)
(0.985485 -0.000678686 4.43573e-24)
(1.11895 -0.103989 5.04079e-23)
(1.03361 0.000264404 7.4829e-21)
(0.982139 0.0536361 -3.36603e-21)
(1.00223 -0.00303519 3.54839e-23)
(1.00043 -0.0264558 1.34034e-22)
(1.17766 0.13626 -2.57805e-21)
(1.02183 0.0336952 -2.55975e-20)
(0.988875 -0.0339795 1.1156e-21)
(1.00574 -0.00428302 -5.07267e-23)
(0.942498 -0.0586731 2.06714e-21)
(0.999997 -6.26016e-06 3.41684e-25)
(0.941319 -0.00249817 -1.50261e-21)
(1.0001 -8.55369e-05 2.12713e-24)
(1.11584 -0.105208 -4.31698e-21)
(0.99996 -4.34588e-06 -5.71048e-25)
(1.00003 -7.62837e-05 7.9002e-25)
(0.999966 -0.029574 -1.60502e-22)
(1.24425 -0.0154107 3.70384e-22)
(1.11071 0.237368 1.68208e-20)
(1.04357 -0.0466918 -1.41634e-21)
(1.01687 -0.0188492 5.20855e-22)
(0.999999 -4.77727e-06 -1.011e-25)
(0.992674 -0.00552979 -5.80583e-22)
(1.00011 -2.58632e-05 -1.6173e-24)
(0.996231 -0.00296005 2.02615e-22)
(1.00003 -7.10181e-05 -6.06783e-25)
(1.05928 -0.0151364 -6.36185e-21)
(0.999434 -0.00058219 -7.85046e-23)
(1.08255 0.0670973 1.03092e-20)
(0.999849 -0.000269046 -1.57489e-23)
(0.984507 -0.00645806 -5.61532e-22)
(0.950547 -0.00134206 3.48299e-21)
(0.994872 -0.000368116 -2.31816e-22)
(0.972078 0.0725841 3.22808e-20)
(0.979226 -0.000886561 8.56676e-22)
(1.03087 -0.127392 2.77747e-22)
(0.993391 -0.00488352 8.92125e-22)
(1.03115 -0.00335304 -1.5471e-21)
(0.965238 -0.0737088 4.36354e-21)
(1.02369 -0.00175519 -5.17492e-21)
(1.04789 -0.0871878 -1.12531e-22)
(0.999982 -1.83592e-06 8.10894e-26)
(0.999094 -0.0250005 1.48274e-22)
(0.995203 -0.000356273 2.82189e-23)
(1.0003 -0.000113816 1.26044e-23)
(1.0001 -2.16737e-05 2.66164e-24)
(1.25843 0.152821 1.29292e-20)
(0.994129 -0.00263811 4.99025e-22)
(1.03353 0.00118368 8.55111e-21)
(1.00119 -0.0270916 1.63287e-22)
(1.00104 -0.000374114 3.78431e-23)
(1.02878 -0.0104014 -5.65055e-21)
(1.0002 -4.84947e-05 -3.61114e-23)
(0.99997 -4.16379e-06 -7.7758e-26)
(0.94203 -0.00332708 1.16059e-21)
(0.995802 -0.00150491 2.25662e-22)
(1.00004 -6.91565e-05 1.04986e-24)
(1.11577 0.128547 7.03594e-21)
(0.787565 0.140313 -4.83287e-20)
(0.999747 -0.000284864 3.7963e-23)
(0.952744 -0.00270958 -9.61324e-22)
(1.00002 -1.83916e-06 2.15657e-25)
(0.925583 0.206696 -3.02085e-20)
(1.26161 -0.035695 -2.97779e-21)
(0.965344 -0.0591493 -3.56539e-21)
(1.00006 -0.000686201 -1.97537e-24)
(1.0376 -0.0405002 1.44687e-21)
(1.03787 -0.00379112 -2.1337e-21)
(1.03933 -0.000387103 6.31387e-22)
(1.06035 -0.0183188 -7.85425e-22)
(0.999568 -0.00234612 -9.76764e-24)
(0.999843 -0.00104067 2.00051e-23)
(0.983201 -0.0195355 -9.67775e-22)
(1 -1.10329e-05 2.60192e-25)
(1.00002 -1.43771e-06 -5.51448e-26)
(0.970229 -0.0323152 -9.06998e-22)
(0.997223 -0.0770025 -1.83765e-21)
(0.949584 -0.0485916 -1.16284e-22)
(0.829127 0.2015 -1.08808e-21)
(1.00024 -3.14278e-05 -1.52855e-23)
(1.02055 -0.0960672 -3.81162e-21)
(1.00887 -0.00654143 -4.97872e-22)
(0.999972 -4.39697e-06 8.93455e-25)
(0.998781 -0.00486629 -1.57252e-22)
(1.00004 -0.000582102 -9.00619e-25)
(0.994651 -0.0158725 3.43461e-22)
(1.00006 -1.27973e-05 1.48166e-24)
(1.05 -0.0856282 -2.56229e-22)
(1.02323 -0.00213931 5.01795e-21)
(0.984476 0.21988 6.33536e-21)
(1.03047 -0.00314299 5.81451e-21)
(0.999666 -0.000278754 2.96972e-23)
(1.00055 -0.000481632 -3.67509e-23)
(1.19944 -0.120448 -5.32114e-21)
(1.03341 0.000955331 -6.8795e-21)
(0.996282 -0.000487505 2.02479e-22)
(1.00002 -1.795e-06 4.64933e-25)
(1.12884 0.101991 -1.12658e-20)
(1.11757 -0.209454 -1.87262e-21)
(0.999326 -0.0987924 -1.49545e-21)
(0.982615 -0.000958583 -2.40701e-22)
(0.999974 -2.77171e-05 1.82154e-24)
(0.999669 -0.000262982 -1.73748e-23)
(1.12474 -0.212666 5.25042e-21)
(0.997566 -0.0616651 -5.10035e-22)
(1.05171 0.0367069 1.54519e-21)
(0.988479 0.184676 2.67928e-20)
(1.0293 -0.124158 2.09377e-21)
(0.998481 -0.000104312 -3.70608e-23)
(0.999975 -1.29018e-05 -2.09253e-24)
(0.955636 -0.0631222 3.49175e-21)
(0.972448 -0.126555 -4.61838e-21)
(0.999757 -0.000294834 2.04936e-23)
(1.01181 -0.0287548 3.82009e-22)
(0.989255 -0.0330714 -1.95467e-22)
(0.994434 -0.00282833 1.96989e-22)
(0.997174 0.0579943 -2.51081e-20)
(0.998456 -0.000678029 1.31956e-22)
(1.06308 -0.0647588 -2.84645e-23)
(1.27432 0.0663731 -3.33831e-21)
(0.990716 -0.0040755 -5.66184e-22)
(0.850688 0.164778 -4.70013e-21)
(0.861428 0.0756876 1.51135e-20)
(0.999963 -6.41973e-05 -7.00169e-24)
(0.999969 -0.000914277 -2.15133e-24)
(0.979477 -0.00117742 -5.49074e-22)
(1.01584 -0.00584561 -1.21098e-21)
(0.954727 -0.00249779 1.99986e-21)
(1.00624 -0.00531322 -5.2031e-22)
(0.99105 -0.00408856 5.30097e-22)
(0.999319 -0.000620377 -5.9427e-23)
(0.943697 0.204766 -5.31063e-21)
(1.08249 0.0636909 -1.60387e-20)
(1.00274 -0.00294256 9.15186e-23)
(0.711522 0.0866381 -9.54391e-21)
(1.00002 -1.62349e-06 -3.04716e-25)
(1.03192 0.00770644 -1.20096e-20)
(0.992098 -0.122218 3.27093e-21)
(1.02346 -0.0960327 1.48722e-21)
(1.00012 -0.000262018 -5.31462e-25)
(0.952551 -0.00137062 1.64565e-21)
(1.02882 0.00699022 6.77134e-21)
(1.01544 -0.00626979 1.00191e-21)
(1.03729 -0.00246041 2.97247e-21)
(0.999462 -4.66215e-05 1.11876e-22)
(0.999427 -0.000620406 7.11162e-23)
(1.02979 -0.0574883 2.67839e-22)
(0.995872 -0.00162197 -6.47276e-22)
(0.984835 -0.0146171 -1.04876e-21)
(0.998931 -0.00441101 9.3176e-24)
(1.10949 0.0379844 7.52887e-21)
(0.998781 -0.0260468 -1.02357e-22)
(0.994064 -0.00599469 1.05443e-23)
(0.916503 -0.0342882 -4.20557e-21)
(1.00464 0.14523 3.04911e-21)
(1.1314 -0.0515244 -8.38784e-22)
(1.02811 -0.00994835 4.54374e-21)
(0.999523 -0.000226997 2.14246e-23)
(0.999389 -0.000405713 9.62508e-24)
(0.97887 -0.0261955 2.45998e-21)
(1.0012 -0.00155231 -8.86203e-23)
(0.996889 -0.000859293 -3.66972e-23)
(0.999975 -2.65835e-05 -6.8745e-25)
(0.999612 -0.00239019 1.9617e-24)
(1.02807 0.00646357 -2.63428e-21)
(0.980492 0.128958 -2.82934e-20)
(0.999847 -1.93928e-05 4.85564e-24)
(1.25891 0.114898 -9.41109e-21)
(0.999995 -5.18281e-05 7.82117e-25)
(0.996114 -0.00350424 2.75587e-22)
(0.99999 -0.000118923 8.97885e-25)
(1.00629 -0.00459747 -2.30769e-22)
(1.2284 -0.0555541 1.98512e-21)
(0.999952 -5.38051e-05 5.46774e-25)
(0.999951 -5.77375e-05 3.95465e-24)
(0.935606 -0.0554248 -1.92379e-21)
(1.00001 -1.09182e-05 -1.47604e-27)
(1.06423 -0.01844 6.53314e-21)
(0.985296 -0.05202 1.96431e-21)
(0.999972 -0.000804151 2.03867e-24)
(1.11751 0.0764355 -8.86974e-21)
(1 -3.69666e-05 -6.17772e-25)
(0.999522 -4.8326e-05 9.82794e-23)
(0.999893 -4.44393e-05 1.64866e-25)
(0.994279 -0.00600826 -1.65693e-22)
(0.999598 -0.00190615 -3.04185e-23)
(0.992586 -0.000389565 -1.81913e-22)
(1.0059 -0.147012 -3.80308e-22)
(0.999643 -0.00185646 2.02969e-23)
(1.00503 -0.00428927 -1.79073e-22)
(0.99997 -3.01836e-06 -3.32228e-25)
(1.11119 0.230246 -3.277e-20)
(1.06109 -0.0660324 -1.19182e-22)
(1.13491 -0.0525281 6.00244e-23)
(0.957929 -0.00746609 2.16043e-21)
(0.972881 -0.00530333 -3.97379e-22)
(0.998889 -0.00475898 2.59473e-22)
(1.0035 -0.00327234 2.49165e-22)
(1.07233 0.0866065 4.43937e-21)
(0.979652 -0.046339 2.92766e-22)
(1.18609 0.101255 3.52871e-21)
(0.947601 -0.0169658 -3.89129e-21)
(0.995975 -0.0033836 -2.59765e-22)
(0.999988 -5.03863e-06 -8.69378e-25)
(0.993228 -0.00346915 -3.62457e-22)
(1.0621 0.236421 8.73647e-21)
(1.11083 0.0922633 -2.10588e-21)
(0.980171 -0.0696394 1.59172e-21)
(0.928931 -0.00732328 9.01461e-22)
(1.11177 0.213023 8.97323e-21)
(0.989849 -0.000719244 4.70252e-22)
(0.985765 -0.11195 2.58194e-22)
(0.99999 -0.000113531 1.98477e-24)
(0.983936 -0.0522792 2.44766e-21)
(0.999006 -0.000280237 -1.39936e-22)
(0.731496 0.150296 -2.73811e-20)
(0.977108 -0.0916991 -3.4734e-21)
(0.999896 -3.98278e-05 9.14129e-24)
(0.924478 -0.0238065 -2.36665e-22)
(0.979522 -0.0491603 1.37431e-22)
(1.05552 0.100625 1.61898e-20)
(0.996933 -0.000937746 -3.46908e-22)
(0.977183 -0.047442 -8.73067e-22)
(0.997126 -0.0131917 -3.01917e-22)
(1.00005 -0.0285776 -3.34142e-22)
(0.998497 -0.000689716 -9.01735e-23)
(1.05328 0.0986097 -1.96891e-20)
(1.05046 -0.202277 3.52399e-21)
(0.978982 -0.0208477 -7.24518e-22)
(0.983856 -0.0181607 1.54452e-23)
(0.984635 -0.00609866 -2.2572e-22)
(1.00627 -0.00251378 -2.11907e-22)
(1.11113 0.205119 3.5096e-20)
(0.978906 -0.0169135 3.29409e-22)
(1.02169 0.0516186 1.09968e-20)
(1.00323 -0.00263163 1.89676e-22)
(1.22078 -0.0814394 -1.05683e-22)
(0.894596 0.166288 5.00969e-21)
(0.989649 -0.000561489 -1.62408e-21)
(0.999728 -5.10228e-05 1.97007e-23)
(1.08474 0.118376 4.63988e-21)
(1.02392 0.192557 -3.45969e-20)
(1.02888 -0.0554592 -3.04119e-22)
(1.09631 -0.0563958 1.03322e-22)
(0.994383 -0.0164662 -3.8134e-22)
(0.958573 -0.00674841 -1.27984e-21)
(1.17222 0.13448 1.05053e-20)
(0.953981 -0.0633732 5.97521e-22)
(0.999971 -2.66169e-05 2.34616e-24)
(0.991197 -0.000138247 -8.37638e-22)
(1.00005 -7.03652e-06 1.46986e-24)
(0.994695 -0.000330637 6.29039e-22)
(0.99997 -2.79789e-05 -3.65514e-24)
(0.997612 -0.0184032 5.0063e-22)
(0.998865 -4.57157e-05 4.96789e-23)
(0.996764 -0.00690843 3.37857e-23)
(1.20619 -0.104005 -8.85417e-22)
(0.999298 -0.000473955 5.07965e-23)
(0.999409 -0.000243484 3.4772e-23)