/*--------------------------------*- C++ -*----------------------------------*\
  =========                 |
  \\      /  F ield         | OpenFOAM: The Open Source CFD Toolbox
   \\    /   O peration     | Website:  https://openfoam.org
    \\  /    A nd           | Version:  7
     \\/     M anipulation  |
\*---------------------------------------------------------------------------*/
FoamFile
{
    version     2.0;
    format      ascii;
    class       volVectorField;
    location    "17";
    object      U;
}
// * * * * * * * * * * * * * * * * * * * * * * * * * * * * * * * * * * * * * //

dimensions      [0 1 -1 0 0 0 0];

internalField   nonuniform List<vector> 
29540
(
(1.00741 -0.00995155 3.88244e-23)
(1.00817 0.00334313 1.72648e-22)
(0.993489 -0.00234731 -2.40401e-22)
(0.977583 -0.0335244 8.01573e-23)
(0.998271 -3.68489e-05 3.38716e-23)
(0.969744 -0.0202665 -1.17387e-22)
(1.0359 -0.0623652 1.36923e-22)
(1.00957 -0.0151631 -3.87557e-24)
(1.00143 -0.0013867 5.41879e-24)
(1.00013 -3.50134e-05 1.4085e-24)
(1.01043 -0.0203033 -4.711e-25)
(0.998293 -0.0117011 -8.49598e-23)
(0.99966 -0.000138767 4.64232e-24)
(0.999978 -7.57594e-06 1.26367e-25)
(1.14619 0.0710114 3.96287e-22)
(0.995721 -0.00137325 3.66354e-23)
(0.999886 -0.000604398 -2.08491e-24)
(1.111 -0.0181016 -2.97985e-23)
(0.998488 -0.00127405 -1.15569e-23)
(0.99231 -0.00056516 -5.35623e-23)
(0.99939 -0.000194292 -1.5842e-23)
(1.00134 -0.00138409 1.89992e-23)
(0.993425 -0.00248363 2.6564e-22)
(0.998484 -0.000120771 1.49256e-23)
(0.898278 0.102039 7.95419e-23)
(1.00887 0.00263773 9.26292e-22)
(0.999633 -4.16295e-05 1.05801e-23)
(0.948837 0.0856433 -5.35879e-21)
(1.15121 0.0703185 -1.09659e-21)
(0.99937 -0.00643667 -1.64537e-23)
(1.01093 -0.00817209 2.75515e-23)
(1.02812 -0.00635618 -2.04895e-22)
(0.978259 -0.0771593 7.90579e-22)
(0.998256 -0.0162099 4.20041e-23)
(0.94686 0.0815613 4.30142e-21)
(1.00161 -0.0232723 1.148e-22)
(1.05966 0.0353193 -2.92783e-22)
(0.980063 -0.0189516 3.16959e-22)
(1.0038 -0.000590546 -7.38686e-23)
(1.00366 -0.000411891 1.4025e-22)
(1.00031 -0.000117718 -4.35441e-24)
(0.991498 -0.0210985 -2.99843e-22)
(0.999899 -0.000587301 -2.69166e-26)
(1.01421 -0.0526596 -4.63928e-22)
(1.00003 -3.90021e-06 -2.84826e-25)
(0.999503 -0.00653255 1.24045e-23)
(0.99812 -0.00869593 -2.37635e-23)
(1.00005 -6.02343e-05 7.17289e-25)
(1.00235 -0.00260718 -7.73692e-23)
(1.05923 0.0329204 -1.19966e-22)
(1.07756 -0.0821668 1.00251e-22)
(0.980147 -0.0297021 -3.65204e-22)
(1.02805 -0.0056358 7.19651e-23)
(0.970668 -0.0201427 -1.92659e-22)
(0.995825 -0.00141051 -3.21905e-23)
(1.15378 0.0592479 -6.65633e-22)
(0.997613 -0.00158567 1.14211e-23)
(0.999373 -0.000214326 2.00674e-23)
(0.999605 -0.0153493 -5.80481e-23)
(1.00471 -0.0418075 -2.09355e-22)
(0.999953 -5.16024e-06 2.97594e-25)
(0.99854 -0.00130493 -2.3795e-24)
(1.22182 -0.0265407 -7.51701e-23)
(1.00192 -0.0227715 -6.2587e-23)
(1.05982 0.0941265 2.45472e-21)
(0.920941 0.0280108 1.06763e-20)
(0.99872 -0.019257 -1.12349e-22)
(0.994754 -0.00966749 1.09518e-22)
(0.940518 0.0178363 4.28051e-21)
(1.00032 -0.000111497 2.81713e-24)
(1.0101 0.00318766 -1.26269e-21)
(0.98831 0.0699533 2.95892e-21)
(1.00222 -0.00646473 -3.0312e-23)
(0.916821 0.118658 2.96981e-21)
(0.994347 -0.000444589 1.69435e-22)
(1.08586 -0.0506085 4.34425e-24)
(1.21953 0.119075 1.16841e-21)
(0.9811 -0.0107872 7.59048e-23)
(0.999965 -1.58595e-05 -8.44603e-25)
(1.0008 -0.0341557 -2.08912e-22)
(0.971231 -0.000475306 -1.28023e-22)
(1.0191 0.0331158 7.42034e-22)
(1.00755 -0.0103876 -1.17378e-22)
(1 -4.41791e-05 6.04709e-26)
(1.03787 -0.0612779 -2.08734e-22)
(1.1314 -0.162651 -7.4544e-22)
(1.03439 0.0823896 -4.65622e-21)
(0.999646 -0.000136733 -4.20144e-24)
(0.99967 -0.00012366 -1.23103e-24)
(0.955904 -0.0252134 -5.09651e-22)
(0.993609 -0.0365645 3.9986e-22)
(0.981016 -0.0113007 8.52901e-23)
(1.0022 -0.00269479 1.3266e-23)
(1.04499 -0.0111843 -1.17575e-22)
(0.952616 -0.0107152 -4.20836e-22)
(1.0442 0.100573 2.33086e-21)
(0.993792 -0.0473094 6.47515e-22)
(1.00033 -0.000273322 7.05439e-24)
(0.977375 -0.0419878 -7.03089e-22)
(1.14192 0.0964478 2.03591e-21)
(0.999963 -1.55631e-05 1.23547e-24)
(0.982055 -0.00705111 -4.53214e-22)
(0.999955 -6.34316e-06 -1.53659e-25)
(1.03413 -0.0168955 -5.87382e-22)
(0.979248 -0.0295343 2.44519e-22)
(1.02944 0.00932784 1.29981e-21)
(1.00324 0.0655724 4.46162e-21)
(0.999684 -0.000125188 -1.0423e-23)
(0.999997 -4.9094e-05 -1.6926e-26)
(0.988773 -0.0760686 -3.69049e-23)
(0.977115 -0.0760088 -7.11231e-22)
(1.02902 -0.032649 4.44733e-23)
(1.00001 -1.32282e-06 5.13769e-26)
(0.999167 -0.00435082 -4.26595e-23)
(0.999917 -0.00155697 1.72601e-24)
(0.991039 0.071536 1.84532e-23)
(1.03785 0.0478632 -1.60805e-21)
(0.991761 -0.0050186 -1.82589e-22)
(1.00002 -4.83892e-05 6.78396e-26)
(1.00244 -0.00640076 -2.31689e-23)
(1.2222 -0.112219 2.32754e-21)
(1.00568 0.01043 2.03184e-21)
(1.12704 -0.0763565 -6.41487e-22)
(0.919326 0.0342747 -1.01255e-20)
(1.00077 -0.000253715 -1.79218e-23)
(1.12603 -0.0555621 4.53379e-23)
(1.11033 -0.0141286 -1.67653e-22)
(1.00803 -0.0407792 1.54424e-22)
(1.00282 -0.00248143 -6.88748e-23)
(1.00002 -0.000311215 1.06548e-25)
(1.01417 -0.0512736 1.62658e-22)
(1.22323 0.111959 5.80548e-22)
(1.00576 0.128572 5.56169e-21)
(1.12552 -0.0929192 -2.1592e-22)
(1.03294 -0.0165055 4.9417e-22)
(1.01061 -0.00783249 5.20273e-22)
(1.07361 0.167499 3.93289e-22)
(0.981334 -0.000517749 6.67721e-22)
(1.04718 -0.155433 2.09658e-21)
(1.14309 0.0907217 -1.55284e-21)
(1.12651 -0.0507559 -3.06999e-23)
(0.960773 -0.00322312 -5.45659e-22)
(0.966434 -0.0279723 1.57606e-22)
(1.00001 -1.17152e-06 -2.18158e-26)
(0.999992 -2.30811e-06 6.61289e-26)
(0.998227 -6.08701e-05 -2.68101e-23)
(0.998258 -0.00852726 4.86179e-23)
(0.983272 -0.0597387 -5.4137e-22)
(1.06413 -0.128415 9.23786e-22)
(1.26453 0.0277888 -7.73816e-23)
(1.022 -0.0151654 2.65705e-22)
(1.0124 -0.0147822 8.71559e-23)
(1.00031 -0.000442197 1.08639e-23)
(0.999907 -0.00015694 1.1999e-24)
(1.00179 0.0253722 -4.47027e-21)
(1.00038 -0.00108764 1.2674e-24)
(0.995213 -0.00787836 1.10523e-25)
(1.08808 0.169691 -1.13616e-21)
(1.00485 0.0432348 -4.82904e-21)
(1.08045 -0.0802911 -1.98521e-22)
(0.972514 -0.00180798 2.22261e-22)
(0.978287 -0.0329181 5.58168e-22)
(1.15495 0.0643593 1.77189e-22)
(0.999965 -3.25049e-05 2.67373e-25)
(0.999991 -2.21797e-06 -2.48421e-26)
(0.991722 -0.0052757 6.47528e-23)
(0.967235 -0.0274636 -8.49026e-22)
(1.00004 -0.000159749 -6.83805e-25)
(1 -4.68869e-05 1.85104e-26)
(0.995239 -0.00356237 -2.13612e-23)
(1.00002 -0.00030193 -8.68519e-26)
(1.00403 -0.0042767 -3.86419e-23)
(1.08379 0.173301 1.3356e-21)
(0.981598 -0.000269899 -5.50034e-22)
(1.01758 -0.0835627 -2.09066e-22)
(0.996458 -6.86808e-05 1.09058e-22)
(1.00148 -0.00192 4.03319e-24)
(0.981585 -0.00692262 7.66735e-22)
(0.999377 -0.00434521 -3.87015e-24)
(1.13461 -0.069715 3.61855e-22)
(0.999985 -7.05377e-06 4.1116e-25)
(1.00761 -0.0280742 -7.5796e-23)
(1.0366 0.0841758 1.66507e-21)
(0.994985 -0.00898199 -6.52907e-24)
(1.04463 -0.151151 -1.93563e-21)
(1.02873 0.0408125 -1.41423e-21)
(0.995591 -0.00196708 -1.57889e-22)
(0.987369 -0.0103874 1.98959e-22)
(1.00267 -0.00249079 1.05e-22)
(0.999418 -0.00600282 -2.35933e-23)
(0.999804 -5.28119e-06 1.20319e-24)
(1.00394 -0.0128877 1.85093e-23)
(0.914916 0.0171198 4.22273e-21)
(1.00126 0.0214993 3.44011e-21)
(0.990061 -0.00422281 5.22458e-24)
(0.995425 -0.00776638 -6.82692e-23)
(0.97938 0.038698 -3.9903e-21)
(1.01217 0.0260033 6.36095e-22)
(0.953541 -0.0106234 5.1292e-22)
(1.00081 -0.000343388 -1.40365e-23)
(1.04088 -0.0788151 2.99181e-22)
(0.975179 -0.0551268 7.16967e-22)
(0.998473 -0.0119564 4.08017e-23)
(1.00059 -0.000748383 -2.23013e-23)
(1.07665 0.171798 5.62298e-22)
(0.995391 -0.00357291 -1.44069e-23)
(1.00474 -0.00384767 -4.32885e-23)
(0.982312 -0.0591944 7.17146e-22)
(0.988564 -0.0776712 9.48055e-23)
(0.999974 -3.63463e-06 1.00405e-25)
(0.979483 0.102739 -4.9242e-21)
(0.999277 -1.64881e-05 -2.60255e-25)
(1 -3.77672e-05 1.77181e-26)
(0.999619 -0.000145454 1.79096e-24)
(0.995518 -0.0370034 -1.47367e-22)
(1.21663 -0.000248908 8.67087e-23)
(1.00836 -0.0275851 9.1584e-24)
(1.00459 -0.00359115 -2.969e-23)
(0.9985 -0.000166876 3.70167e-23)
(0.954315 -0.0118618 -9.2556e-23)
(1.00002 -0.000331138 -1.58777e-25)
(1.00033 -0.00110952 1.36257e-25)
(0.998385 -0.000141206 -2.44347e-23)
(1.02153 0.000667548 1.2008e-21)
(0.998148 -0.00274662 -7.66942e-24)
(0.99919 -0.00404417 1.26781e-23)
(1.0206 -0.00123693 5.89202e-22)
(1.00009 -0.000271073 1.07603e-24)
(1.00002 -3.30348e-06 7.42313e-26)
(1.00349 -0.000422686 1.51688e-23)
(0.982569 -0.021737 -2.85736e-22)
(0.983565 -0.000270332 -2.65028e-22)
(0.996674 -0.000261362 -1.1623e-22)
(1.01087 0.00249166 1.04464e-21)
(0.9892 -0.000770976 1.26161e-22)
(1.01263 -0.0143137 -8.4638e-23)
(0.999978 -8.46099e-06 3.56538e-25)
(0.997945 -0.00181092 -4.40858e-23)
(1.00055 -0.000741967 2.41156e-23)
(1.04132 -0.0761297 2.93755e-22)
(1.00689 -0.129016 1.4134e-21)
(0.999037 -8.66373e-05 1.92833e-23)
(1.00032 -0.000393582 -8.38208e-24)
(0.999124 -0.00394478 -4.33727e-24)
(1.00239 -0.00571254 -5.73394e-23)
(0.992464 -0.000417293 -2.27113e-22)
(0.999966 -3.08885e-05 -1.72175e-26)
(1.13011 -0.157212 -1.66806e-21)
(1.00003 -0.000338842 1.73686e-25)
(1.02128 0.000631377 -8.4546e-22)
(0.997688 -0.00158936 -2.30174e-23)
(1.0001 -0.000262508 4.56332e-25)
(1.02865 0.00973285 -8.26209e-22)
(0.97232 -0.0523762 -7.58684e-22)
(1.00018 -2.979e-05 4.62855e-24)
(1 -8.61773e-06 1.12005e-26)
(0.960675 -0.00230697 -6.22034e-22)
(1.00166 -0.117412 -2.18088e-22)
(0.993983 -0.00564749 -1.70972e-23)
(1.00722 -0.0415458 -4.05268e-23)
(1.0226 -0.0157677 -4.36093e-23)
(1.04178 0.0812538 2.06617e-22)
(1.00006 -5.68737e-05 1.98393e-25)
(0.982906 -0.0213192 2.70991e-22)
(1.17573 -0.0953939 8.98747e-22)
(0.963437 0.0546372 9.8044e-23)
(0.994936 -0.0087744 5.13899e-23)
(1.02765 0.0393937 1.71961e-21)
(1.0868 -0.0472956 1.08309e-23)
(0.999909 -0.00171358 -1.72216e-24)
(0.838485 0.0483086 6.31785e-21)
(0.999621 -0.00030592 -1.20818e-23)
(1.01635 -0.0855791 -2.75336e-22)
(0.955028 -0.0118771 6.24726e-22)
(1.00158 -0.00181547 -2.21925e-23)
(1.17191 -0.0339178 -4.55617e-23)
(0.994059 -0.000643909 -1.35136e-22)
(1.00817 0.139429 3.855e-21)
(0.99758 -0.000183996 1.059e-23)
(0.987691 -0.0112117 -1.04055e-23)
(0.999852 -0.00155629 -1.03299e-23)
(1.12455 0.130692 4.93788e-22)
(0.999778 -0.0121706 1.04104e-23)
(1.04105 0.101413 1.44655e-22)
(0.999643 -3.18941e-05 -4.63566e-24)
(0.995936 -0.00130673 -5.06993e-23)
(0.963576 0.126552 -2.53174e-21)
(1.02502 -0.000391154 -9.95222e-22)
(1.02045 -0.000852204 6.84414e-22)
(0.979022 -0.0273374 6.82823e-22)
(0.999893 -2.30651e-05 1.21556e-24)
(1.00233 -0.00550743 -6.58627e-24)
(0.999884 -0.000660832 -3.73619e-24)
(1 -3.57683e-05 1.50977e-26)
(1.04619 0.00132487 2.73844e-22)
(1.00003 -3.72741e-06 7.15445e-27)
(0.986141 -0.00990359 4.70067e-22)
(1.17051 -0.0950532 -8.2868e-22)
(0.896024 0.106673 -6.23408e-21)
(1.00889 0.128961 -8.56126e-21)
(0.975396 -0.0457207 2.34191e-22)
(0.989719 -0.0204325 1.6671e-22)
(0.984345 -0.00103929 1.26358e-22)
(1.02312 -0.0293522 1.49868e-22)
(1.00436 -0.012726 -3.28985e-23)
(0.987271 -0.0108798 -2.74801e-22)
(0.975318 -0.0501189 1.02448e-22)
(1.04022 0.0836658 -3.12733e-21)
(0.999453 0.0203533 6.45106e-21)
(0.999101 -0.000105593 1.06379e-23)
(1.00469 0.0661973 -6.1485e-21)
(1.04524 0.00021222 9.28771e-23)
(1.13243 -0.0756268 1.85068e-22)
(1.00955 -0.0116793 4.0492e-23)
(1.00054 -0.0112483 -4.71502e-23)
(1.01321 -0.0389598 -9.71234e-23)
(0.996228 -0.00126454 -1.19636e-22)
(0.99813 -0.000460926 -7.81648e-24)
(0.999958 -5.04321e-06 1.5714e-24)
(0.999299 -0.00614634 3.48978e-23)
(1.07023 -0.0447777 2.25206e-23)
(1.12568 0.13605 -8.38887e-22)
(1.00114 -0.000978337 1.04624e-23)
(0.980832 -0.0177917 -3.78193e-22)
(1.01092 -0.0120338 -1.27938e-22)
(0.999973 -1.17046e-05 -1.36696e-25)
(0.975357 -0.0478439 -3.70319e-22)
(0.872968 0.0830127 -2.80531e-21)
(0.99563 -0.0033594 1.77564e-22)
(0.999207 -0.00323191 1.1393e-23)
(1.00998 -0.0115762 -2.50288e-23)
(1.00068 -0.0331671 2.61533e-22)
(1.07696 0.0208542 3.42017e-22)
(0.999562 -0.0069785 -6.03307e-24)
(0.999977 -3.75761e-05 8.82637e-25)
(1.00001 -1.85091e-06 2.55677e-26)
(0.998105 -0.000419702 -8.68609e-24)
(0.961623 0.125564 3.66262e-21)
(1.03613 -0.0253041 1.19975e-22)
(1.01007 -0.129158 -3.66757e-22)
(1 -8.64363e-06 4.18769e-28)
(0.999087 -0.119202 1.43139e-22)
(1.0661 -0.0083466 -3.7986e-22)
(0.996373 -0.000114694 -5.48925e-23)
(0.956723 -0.0043488 -7.63301e-22)
(0.999267 -0.00317668 -1.13591e-23)
(0.999692 -0.000140094 -7.6108e-25)
(0.983493 -0.0193026 -8.15159e-23)
(1.00065 -0.000820613 -1.07871e-23)
(1.13977 -0.068734 -3.14947e-22)
(1.00664 -0.000808337 -3.1087e-22)
(1.20767 0.0780754 -5.18157e-22)
(0.999932 -0.00169137 2.23577e-24)
(1.00291 -0.0100721 1.06354e-23)
(1.00548 0.00922006 -2.74905e-21)
(1.21625 -0.107027 -9.26323e-22)
(1.0003 -0.000415981 -6.38987e-24)
(1.00032 -0.000368976 6.27932e-25)
(0.993933 0.085487 3.0526e-22)
(0.994286 -0.0373349 -8.02903e-23)
(0.999446 -0.0068694 7.37465e-24)
(1.01128 0.0291264 3.35189e-22)
(0.971809 0.019544 7.82934e-21)
(1.07668 -0.0858001 -3.45969e-22)
(0.998765 -0.0185885 -3.44766e-23)
(1.21211 0.00284353 -8.58248e-23)
(0.999455 -5.18889e-05 -7.99901e-24)
(0.993852 -0.00295258 4.79782e-23)
(0.99763 -0.000192886 -2.98708e-23)
(1.01341 0.0246203 2.07708e-24)
(0.999991 -0.000543351 2.35482e-25)
(1.00642 -0.000977908 3.17651e-22)
(1.08345 -0.130808 2.28715e-23)
(1.00342 0.121019 8.61822e-21)
(0.919854 0.122549 -1.37353e-21)
(0.995724 -0.00196254 6.14946e-24)
(0.993812 -0.00551454 5.13104e-23)
(1.0572 0.0971591 -1.96608e-21)
(1.00482 -0.0430938 3.02201e-22)
(0.999959 -5.95982e-06 -1.53295e-24)
(1.25312 0.0688345 4.81373e-22)
(1.02112 0.00111848 -3.60173e-22)
(1.02075 0.00114903 -2.43944e-22)
(0.995769 -0.00957987 -7.36423e-23)
(1.01386 -0.00156215 -4.88773e-22)
(0.953322 0.111892 1.24131e-21)
(1.0575 -0.132922 -2.74709e-22)
(0.98183 0.110608 1.32067e-21)
(0.995589 0.109308 -2.24132e-21)
(0.999998 -4.69716e-05 5.29779e-26)
(1.06786 -0.0433859 -3.90732e-23)
(1.05979 -0.129475 1.75588e-22)
(0.998061 -0.00276989 2.01931e-23)
(1.00117 -0.00105294 -1.7249e-23)
(0.967155 0.0225842 1.87507e-21)
(1.03739 -0.0261361 -1.5491e-22)
(1.00021 -5.44807e-05 1.05083e-24)
(0.984371 -0.0414159 -8.19109e-22)
(0.974477 -0.0564409 -3.37773e-22)
(0.996024 -0.00134378 7.12653e-23)
(0.999914 -0.000152365 -1.50762e-24)
(1.05237 0.12129 -3.32671e-22)
(1.03743 0.0459723 2.69636e-21)
(1.00004 -0.000370497 -6.11168e-26)
(1.00294 -0.0026761 1.3542e-23)
(1.00379 -0.00268538 7.33811e-23)
(1.12845 -0.121791 1.10362e-21)
(0.979097 -0.0266089 -6.05526e-22)
(1.00005 -0.000439296 -4.53453e-25)
(0.999989 -1.43603e-06 -3.77544e-26)
(1.00036 -0.000121914 1.66089e-24)
(1.07569 0.0223431 -3.29492e-23)
(0.980088 -0.0182817 -3.03934e-22)
(1.00245 0.0481957 1.40195e-21)
(0.961799 -0.0305283 3.88877e-22)
(0.990283 -0.0203716 -1.74156e-22)
(0.983103 -0.000807753 -5.31332e-22)
(1.01261 0.0279344 -1.65037e-21)
(1.21345 -0.024005 -2.85897e-23)
(0.999129 -0.0001123 1.94897e-23)
(1.0057 -0.00440769 -7.85414e-23)
(1.00061 -0.000812571 1.22299e-23)
(0.980787 0.122036 -3.42743e-21)
(0.98155 -0.0166469 1.62439e-22)
(1.00078 -0.000206375 -5.86012e-24)
(0.994584 -0.0026342 -6.44463e-23)
(1.13191 -0.0476392 1.04384e-23)
(0.999615 -0.00749908 -1.54817e-23)
(0.991604 -0.00902574 -3.55466e-23)
(1.00017 -0.00010431 -3.20661e-24)
(1.00017 -3.92914e-05 -1.41749e-25)
(0.869545 0.0887863 4.40703e-21)
(0.994099 -0.000959032 -8.41775e-23)
(0.996522 -0.00347647 7.24331e-23)
(0.999723 -0.00137665 -8.97551e-24)
(0.999469 -3.94586e-05 -1.0961e-24)
(1.04821 0.078817 -1.04476e-21)
(1.08749 -0.134104 6.90388e-23)
(0.987977 -0.0303529 1.0386e-22)
(1.00001 -1.50533e-06 -2.59379e-26)
(1 -2.8701e-05 1.37108e-26)
(0.980843 -0.0172008 4.28346e-22)
(0.995112 -0.00140649 1.71039e-23)
(0.996256 -0.00161051 -9.78409e-24)
(1.01071 -0.00410828 1.5152e-22)
(1.00425 -0.00181532 2.6408e-23)
(0.999962 -0.0124778 -1.84992e-23)
(1.10536 -0.0316595 2.65987e-22)
(0.986735 -0.00316661 -1.06563e-22)
(0.983651 0.108335 -1.07321e-21)
(1.0098 -0.0202453 -3.32802e-23)
(1.00018 -0.000104732 3.56536e-24)
(0.974938 -0.044808 3.53147e-23)
(0.987054 -0.0268258 -3.64095e-22)
(1.16359 -0.0258369 5.54914e-23)
(0.997868 -0.00456343 -2.15251e-23)
(0.990065 -0.035805 -1.26652e-22)
(0.999984 -4.14778e-06 2.26451e-25)
(0.932212 0.08879 -4.28242e-21)
(1.01151 -0.0017199 2.74669e-22)
(1.00006 -0.000178099 -1.1007e-24)
(0.91484 0.02344 -5.44171e-21)
(0.987232 -0.0304456 2.41563e-22)
(0.999984 -4.83219e-06 3.61023e-26)
(1.00106 -0.00095731 5.08857e-24)
(0.974809 -0.0468359 -2.07222e-22)
(1.02797 -0.0314516 4.83021e-23)
(1.03859 -0.0126769 3.38365e-22)
(0.999993 -2.43918e-06 5.31343e-26)
(0.994074 -0.000488259 6.71436e-23)
(1.014 -0.0382104 1.63796e-22)
(0.996134 -0.00123338 9.87435e-23)
(0.999658 -3.67352e-05 -2.51135e-23)
(0.993969 -0.00304979 1.41787e-24)
(0.976171 0.0399139 4.66707e-22)
(0.994669 -0.00938449 -9.18763e-23)
(0.991952 -0.00885028 2.60895e-23)
(1.00224 0.028885 -1.3849e-21)
(0.997985 -0.00171045 2.3108e-23)
(0.975322 0.123831 -4.42405e-22)
(0.999983 -4.85869e-06 -1.15375e-25)
(0.991766 -0.0206018 6.98687e-23)
(0.982472 -0.0564335 8.02553e-22)
(0.990719 -0.036118 2.14265e-22)
(1.16041 -0.10375 2.4933e-22)
(0.9991 -0.00422596 2.86206e-23)
(1.00632 -0.0187146 1.22035e-23)
(0.999933 -0.00182055 4.97494e-25)
(0.987329 -0.0158215 -2.07582e-22)
(1.02868 -0.0341537 1.34846e-23)
(0.999974 -1.11956e-05 6.91554e-25)
(1.00001 -8.58836e-07 -4.51101e-26)
(0.995359 -0.000314243 4.55415e-23)
(0.981366 0.0750462 3.04098e-21)
(1.00915 -0.015669 1.48905e-22)
(1.0019 -0.0027127 -2.14743e-23)
(0.953377 -0.022166 5.47359e-22)
(1 -7.73261e-06 7.4211e-28)
(1.00072 -0.000895722 -1.95907e-23)
(0.999973 -0.000518115 -2.83728e-25)
(1.01025 -0.0150942 1.6641e-22)
(0.987621 -0.0117057 3.65028e-23)
(0.999717 -0.00021773 3.16582e-24)
(0.995024 -0.00838278 3.40008e-23)
(0.990943 -0.00521966 -3.82483e-23)
(1.00075 -0.000123448 -1.61411e-24)
(0.999982 -5.63824e-06 -7.21626e-26)
(1.19046 -0.0708289 -7.65871e-22)
(0.999751 -0.00135442 9.60937e-24)
(1.06329 -0.0121285 2.91107e-22)
(1.01823 0.11775 8.30492e-21)
(1.05234 0.0960671 -1.81168e-21)
(0.999996 -0.0157549 -6.85001e-23)
(1.00416 -0.00163951 -8.74558e-24)
(1.01412 -0.00124531 2.9909e-22)
(0.999969 -0.00186197 -5.64535e-25)
(0.998257 -0.00793846 3.46571e-23)
(1 -1.3022e-05 2.01362e-26)
(0.992902 0.10971 -1.66553e-22)
(0.990862 -0.0118483 5.03831e-23)
(1.01048 -0.00377651 -1.08175e-22)
(0.98703 -0.00329021 2.18129e-22)
(1.00256 -0.00988883 1.14429e-24)
(0.997996 -0.00449219 4.66604e-23)
(0.999922 -0.000156095 3.5236e-25)
(1.00001 -7.81852e-07 -2.39305e-25)
(0.99664 -0.00346383 -5.26941e-23)
(1.04497 -0.0126378 -1.86285e-22)
(1.00517 0.0451037 2.21146e-22)
(1.00091 -0.000367415 -2.38564e-23)
(0.978505 -0.0421654 -1.8344e-22)
(0.981531 -0.0161414 -7.35358e-23)
(0.994217 -0.000384754 -2.51617e-22)
(1.25569 0.0268824 4.93475e-23)
(0.999037 -0.000739151 -1.15878e-23)
(1.00256 -0.0111855 -2.81875e-23)
(0.995961 -0.00211646 4.95418e-23)
(0.999929 -0.000150466 2.97855e-25)
(0.974708 -0.0489814 2.32866e-22)
(1.00253 0.0430304 -2.18748e-21)
(1.02811 0.0355707 -1.7658e-21)
(0.983446 -0.0108761 -3.52723e-23)
(1.00192 0.0412245 -9.54387e-23)
(1.00006 -0.000167174 2.12394e-24)
(1.00001 -1.12162e-06 7.45351e-26)
(1.2461 0.0656367 -2.24113e-22)
(1.17058 -0.0279902 8.14087e-23)
(0.917446 0.0905008 -2.09866e-22)
(0.993791 -0.0610298 5.90554e-22)
(0.983279 -0.00111458 -1.64137e-22)
(1.13201 -0.0420463 -2.20078e-24)
(1.00087 -0.000384369 2.70124e-23)
(0.995809 -0.00285 2.84342e-23)
(1.00034 -0.000129856 -1.58654e-24)
(0.992151 -0.000535304 -5.52822e-23)
(0.99122 -0.00970322 -7.38928e-23)
(0.999997 -2.56908e-05 -1.43582e-25)
(0.999341 -2.55744e-05 4.56633e-24)
(1.00296 0.118097 -7.84226e-21)
(0.999903 -0.000537896 3.41286e-24)
(0.939792 0.0817095 5.14776e-21)
(1 -1.23669e-05 -1.5202e-26)
(1.2462 -0.0603717 -8.70804e-22)
(1.06311 -0.0139672 -6.27115e-22)
(1.10573 -0.0283454 -2.95468e-22)
(1.00077 -0.000366042 1.6188e-24)
(1.00014 -3.2166e-05 2.84466e-24)
(0.985294 0.070594 -4.53287e-21)
(1.06598 -0.0104501 1.25278e-21)
(0.98191 -0.0573912 -7.40326e-22)
(1.01988 0.0348334 8.05048e-22)
(0.997923 -0.0158798 2.96797e-23)
(0.99016 -0.00397813 -5.6271e-23)
(0.996999 -0.000165963 -3.01073e-23)
(1.13556 0.166589 -3.86094e-21)
(0.982122 -0.0193399 2.62424e-22)
(1.02364 -0.0282023 -1.02378e-22)
(0.995221 -0.0083157 -1.94072e-23)
(1 -7.68776e-06 -5.63321e-28)
(0.999046 -0.000697518 -9.84763e-24)
(1.00444 -0.00462649 4.60895e-23)
(0.986535 -0.00585076 2.81485e-22)
(0.983863 -0.0109766 5.24436e-23)
(0.968242 -0.0280551 -8.28165e-23)
(0.986392 -0.0062029 -2.12992e-22)
(1.01576 0.00223252 1.41981e-22)
(0.998424 -0.000106332 6.12768e-25)
(0.956847 -0.0255733 2.85126e-22)
(0.98968 -0.000676562 -7.81473e-23)
(1.00003 -0.000161532 2.9272e-25)
(0.990979 -0.000543259 -5.43681e-23)
(1.02384 -0.0304691 -1.59009e-22)
(1.01515 0.00241165 -7.84594e-22)
(0.980697 -0.0193746 -6.58213e-23)
(0.999987 -5.52409e-07 -1.0408e-27)
(0.987057 -0.0119434 5.49006e-23)
(1.00139 -0.0113798 4.62463e-24)
(1.00103 -0.000890253 6.52773e-24)
(1.072 -0.141396 -7.92424e-22)
(1.00186 0.0416864 -5.09616e-21)
(1.00067 -0.000884979 1.81851e-23)
(0.991131 -0.000408969 7.89687e-25)
(1.0698 -0.0834422 1.20495e-23)
(1.02181 0.000121022 1.2034e-21)
(0.989238 0.0308258 -4.9571e-22)
(1.00138 -0.00189025 5.82196e-24)
(0.999828 -0.0163995 2.14192e-23)
(1.10143 0.117703 -5.98341e-22)
(1.01413 0.0218089 -4.09009e-21)
(0.992534 -0.020584 1.85243e-22)
(1.00357 -0.00268904 -8.21814e-24)
(0.964705 -0.0329371 3.92794e-22)
(0.999998 -3.74201e-06 2.63713e-26)
(0.965393 -0.00141146 -2.87569e-22)
(1.00006 -5.30503e-05 4.01272e-25)
(1.06727 -0.0833158 -8.1453e-22)
(0.999975 -2.62511e-06 -7.67724e-26)
(1.00002 -4.73365e-05 2.34749e-25)
(0.999436 -0.0183027 -2.56979e-23)
(1.22762 -0.0205794 2.11525e-22)
(1.03354 0.151943 3.64086e-21)
(1.02636 -0.0316566 -2.4281e-22)
(1.01039 -0.0121236 8.52386e-23)
(0.999999 -2.80136e-06 -6.6888e-27)
(0.995472 -0.00338165 -9.61121e-23)
(1.00007 -1.60204e-05 -2.9881e-25)
(0.997667 -0.00182039 3.29977e-23)
(1.00002 -4.40763e-05 -1.82468e-25)
(1.03888 -0.0110849 -1.05445e-21)
(0.99965 -0.000360168 -1.24124e-23)
(1.05244 0.0474319 1.76403e-21)
(0.999907 -0.000166742 -2.34173e-24)
(0.990515 -0.00389069 -9.48953e-23)
(0.970631 -0.000765991 6.3638e-22)
(0.996846 -0.000224281 -3.86678e-23)
(0.983125 0.0411983 4.77025e-21)
(0.987373 -0.000530898 1.53071e-22)
(1.00865 -0.0805495 4.81173e-23)
(0.995916 -0.00298994 1.47132e-22)
(1.02005 -0.00227316 -2.50259e-22)
(0.976677 -0.0425848 8.41405e-22)
(1.01509 -0.00115687 -8.34722e-22)
(1.02494 -0.0585677 -1.90141e-23)
(0.999989 -1.09977e-06 9.98894e-27)
(0.999051 -0.0154599 2.37438e-23)
(0.997048 -0.000218932 4.71647e-24)
(1.00019 -7.06492e-05 2.14379e-24)
(1.00006 -1.34249e-05 5.02249e-25)
(1.14134 0.169313 4.21921e-21)
(0.996379 -0.00161638 8.24438e-23)
(1.02181 0.000739768 1.3744e-21)
(1.00028 -0.0168165 2.604e-23)
(1.00064 -0.000232673 6.23806e-24)
(1.01833 -0.00690963 -9.18395e-22)
(1.00012 -2.98738e-05 -6.30964e-24)
(0.999982 -2.61487e-06 -1.03304e-26)
(0.965793 -0.00188052 2.21234e-22)
(0.997411 -0.000923254 3.73508e-23)
(1.00002 -4.29299e-05 2.73805e-25)
(1.0638 0.0941838 1.32242e-21)
(0.884433 0.0722759 -7.75403e-21)
(0.999843 -0.000176597 5.8269e-24)
(0.971885 -0.00155201 -1.72246e-22)
(1.00001 -1.097e-06 5.32515e-26)
(0.94996 0.109374 -4.98002e-21)
(1.25501 -0.0631336 -1.20454e-21)
(0.977597 -0.0343156 -6.87424e-22)
(1.00004 -0.000425035 -5.17624e-25)
(1.02285 -0.0271542 2.44648e-22)
(1.02454 -0.00270513 -3.4548e-22)
(1.02561 -0.000469963 1.02301e-22)
(1.03948 -0.0133546 -1.31549e-22)
(0.99973 -0.00145169 -1.53235e-24)
(0.999902 -0.000644413 2.93898e-24)
(0.989545 -0.011738 -1.61511e-22)
(1 -6.75303e-06 -1.42624e-26)
(1.00001 -8.48124e-07 -1.35908e-26)
(0.981542 -0.0189689 -1.55168e-22)
(0.994907 -0.046853 -3.14733e-22)
(0.969126 -0.0275934 -2.13956e-23)
(0.904049 0.102553 -1.6083e-22)
(1.00015 -1.93951e-05 -2.62895e-24)
(1.00688 -0.0605747 -6.47551e-22)
(1.00552 -0.00413566 -8.07109e-23)
(0.999983 -2.75883e-06 1.18065e-25)
(0.999229 -0.00300841 -2.4787e-23)
(1.00003 -0.000360715 -3.0717e-25)
(0.996549 -0.00973961 5.57271e-23)
(1.00003 -7.95661e-06 3.03278e-25)
(1.02641 -0.0578139 -4.27283e-23)
(1.01479 -0.00141218 8.10651e-22)
(0.976911 0.121439 1.17036e-21)
(1.01959 -0.00212252 9.38531e-22)
(0.999793 -0.000172568 4.61128e-24)
(1.00034 -0.000298938 -6.14148e-24)
(1.12516 -0.126726 -1.12986e-21)
(1.0217 0.000585635 -1.10449e-21)
(0.997708 -0.000299142 3.37818e-23)
(1.00001 -1.09479e-06 1.12496e-25)
(1.07884 0.0797321 -2.13849e-21)
(1.03666 -0.147033 -3.3767e-22)
(0.994101 -0.0598185 -2.55324e-22)
(0.989402 -0.000575361 -4.13075e-23)
(0.999984 -1.69896e-05 2.27508e-25)
(0.999795 -0.000162788 -2.70301e-24)
(1.03923 -0.151111 9.44618e-22)
(0.996291 -0.0377322 -8.62246e-23)
(1.03361 0.024521 2.5091e-22)
(0.983016 0.104376 4.47303e-21)
(1.00823 -0.0784449 3.60661e-22)
(0.999061 -6.42264e-05 -6.06127e-24)
(0.999984 -7.92687e-06 -2.68135e-25)
(0.971886 -0.0360806 6.73346e-22)
(0.976168 -0.072313 -8.63125e-22)
(0.99985 -0.000182674 3.12074e-24)
(1.00685 -0.0182427 6.60496e-23)
(0.992796 -0.0200514 -3.23513e-23)
(0.996565 -0.00173365 3.24742e-23)
(0.997976 0.0350385 -3.75689e-21)
(0.999045 -0.000418979 2.17039e-23)
(1.03768 -0.0456779 -3.81168e-24)
(1.22136 0.125114 -1.32604e-21)
(0.99429 -0.00248407 -9.46938e-23)
(0.915397 0.0852784 -7.63078e-22)
(0.922818 0.0400393 2.31885e-21)
(0.999977 -3.98749e-05 -8.86581e-25)
(0.99998 -0.000566131 -2.46611e-25)
(0.987523 -0.000704898 -9.74952e-23)
(1.00997 -0.00376767 -1.95611e-22)
(0.973023 -0.00143491 3.61471e-22)
(1.00388 -0.00333899 -8.44363e-23)
(0.994493 -0.00249345 8.83233e-23)
(0.999578 -0.000384074 -9.45323e-24)
(0.958787 0.109812 -8.89842e-22)
(1.05276 0.0450524 -2.73612e-21)
(1.00169 -0.0018345 1.49349e-23)
(0.84529 0.0456334 -1.57161e-21)
(1.00001 -9.66124e-07 -7.65665e-26)
(1.02084 0.00497806 -1.93717e-21)
(0.987334 -0.07231 5.81606e-22)
(1.00863 -0.0609086 2.52257e-22)
(1.00007 -0.000162312 -1.09341e-25)
(0.971776 -0.000786131 2.94415e-22)
(1.01878 0.00450081 1.08916e-21)
(1.00971 -0.00404223 1.62049e-22)
(1.02419 -0.00180554 4.79816e-22)
(0.999667 -2.86684e-05 1.77236e-23)
(0.999645 -0.000383911 1.12408e-23)
(1.01652 -0.0375788 4.17931e-23)
(0.997453 -0.000995667 -1.06416e-22)
(0.990614 -0.0088143 -1.74415e-22)
(0.999324 -0.00272782 1.46631e-24)
(1.07498 0.0289028 1.33413e-21)
(0.99883 -0.0160953 -1.63877e-23)
(0.996318 -0.00367556 1.69598e-24)
(0.951255 -0.0187011 -8.23286e-22)
(0.996282 0.0853548 5.00599e-22)
(1.09068 -0.0452248 -1.23579e-22)
(1.01789 -0.00659886 7.35887e-22)
(0.999704 -0.000140643 3.3657e-24)
(0.999622 -0.000250927 1.52027e-24)
(0.986801 -0.0156106 4.19713e-22)
(1.00074 -0.000964102 -1.46015e-23)
(0.998081 -0.000527585 -6.0484e-24)
(0.999985 -1.62772e-05 -8.54619e-26)
(0.999757 -0.00147918 3.21773e-25)
(1.0183 0.00416578 -4.23456e-22)
(0.984567 0.0738601 -4.36658e-21)
(0.999905 -1.20552e-05 7.21012e-25)
(1.16692 0.148058 -3.31441e-21)
(0.999997 -3.21466e-05 6.22849e-26)
(0.997593 -0.00215508 4.50047e-23)
(0.999994 -7.36873e-05 9.47897e-26)
(1.00391 -0.00288902 -3.73885e-23)
(1.19015 -0.0773908 6.07845e-22)
(0.99997 -3.32932e-05 7.52919e-26)
(0.99997 -3.58039e-05 5.29443e-25)
(0.961057 -0.0308209 -3.84539e-22)
(1 -6.68736e-06 -2.32e-27)
(1.0422 -0.0135931 1.10071e-21)
(0.989575 -0.0312072 3.30594e-22)
(0.999982 -0.00049788 2.85237e-25)
(1.07582 0.0589779 -1.64163e-21)
(1 -2.29264e-05 -3.4362e-26)
(0.999704 -2.98084e-05 1.55058e-23)
(0.999934 -2.75728e-05 2.58429e-26)
(0.996451 -0.00368636 -2.71161e-23)
(0.999748 -0.00117933 -4.64752e-24)
(0.995446 -0.000237392 -3.06892e-23)
(0.991632 -0.0877123 -6.7704e-23)
(0.999776 -0.00114878 3.08652e-24)
(1.00312 -0.00268852 -2.90629e-23)
(0.999982 -1.90287e-06 -4.42775e-26)
(1.03571 0.148778 -6.88352e-21)
(1.03623 -0.0462984 -1.48439e-23)
(1.09362 -0.0465252 1.30827e-23)
(0.974847 -0.00430968 3.93346e-22)
(0.983585 -0.00313471 -7.14934e-23)
(0.999296 -0.00294282 4.08637e-23)
(1.00217 -0.0020434 4.05903e-23)
(1.04335 0.059228 7.49163e-22)
(0.986524 -0.027566 4.95929e-23)
(1.12114 0.0966238 7.90984e-22)
(0.968838 -0.00964201 -7.18262e-22)
(0.997508 -0.00208025 -4.25102e-23)
(0.999993 -3.05662e-06 -9.56713e-26)
(0.995824 -0.00212304 -5.96941e-23)
(1.01153 0.141198 1.79001e-21)
(1.06831 0.0688919 -3.84556e-22)
(0.985497 -0.0412308 2.75331e-22)
(0.958447 -0.00406592 1.68218e-22)
(1.04066 0.140695 1.83236e-21)
(0.993777 -0.000437842 7.93856e-23)
(0.984979 -0.0658658 4.57902e-23)
(0.999994 -7.02745e-05 1.6479e-25)
(0.988755 -0.0312919 4.14376e-22)
(0.999385 -0.00017327 -2.25577e-23)
(0.856545 0.0777094 -4.56321e-21)
(0.98207 -0.0536531 -6.22732e-22)
(0.999936 -2.46879e-05 1.32753e-24)
(0.955828 -0.0131149 -4.46068e-23)
(0.986311 -0.0292207 2.46955e-23)
(1.03087 0.066054 2.72627e-21)
(0.998108 -0.000575821 -5.71649e-23)
(0.985022 -0.0280906 -1.48958e-22)
(0.998114 -0.00813452 -4.83129e-23)
(0.999526 -0.0176924 -5.3477e-23)
(0.99907 -0.000426079 -1.47641e-23)
(1.02966 0.0645889 -3.30142e-21)
(1.00475 -0.124852 6.19183e-22)
(0.986996 -0.0124302 -1.22387e-22)
(0.989964 -0.0109249 2.57229e-24)
(0.990595 -0.00367407 -3.84998e-23)
(1.00391 -0.00158534 -3.42651e-23)
(1.04236 0.136601 7.1269e-21)
(0.98703 -0.0100898 5.56008e-23)
(1.01366 0.0331993 1.75343e-21)
(1.002 -0.00164293 3.08852e-23)
(1.16681 -0.103516 -2.0608e-23)
(0.937098 0.0876707 7.71215e-22)
(0.993655 -0.00034207 -2.74939e-22)
(0.999831 -3.16118e-05 3.02096e-24)
(1.04643 0.0813963 8.18994e-22)
(1.00002 0.112974 -6.55251e-21)
(1.01611 -0.0362102 -4.65495e-23)
(1.06234 -0.043896 1.64314e-23)
(0.996373 -0.0101014 -6.19948e-23)
(0.975223 -0.00389869 -2.33209e-22)
(1.09824 0.114751 2.40937e-21)
(0.970944 -0.0361497 1.16053e-22)
(0.999982 -1.63166e-05 2.98682e-25)
(0.994598 -8.41682e-05 -1.40449e-22)
(1.00003 -4.39131e-06 3.09031e-25)
(0.996737 -0.000201303 1.05317e-22)
(0.999982 -1.72179e-05 -4.67168e-25)
(0.99831 -0.0113521 8.26468e-23)
(0.999297 -2.84288e-05 8.04495e-24)
(0.997969 -0.00425773 5.43707e-24)