/*--------------------------------*- C++ -*----------------------------------*\
  =========                 |
  \\      /  F ield         | OpenFOAM: The Open Source CFD Toolbox
   \\    /   O peration     | Website:  https://openfoam.org
    \\  /    A nd           | Version:  7
     \\/     M anipulation  |
\*---------------------------------------------------------------------------*/
FoamFile
{
    version     2.0;
    format      ascii;
    class       volScalarField;
    location    "22.5";
    object      p;
}
// * * * * * * * * * * * * * * * * * * * * * * * * * * * * * * * * * * * * * //

dimensions      [0 2 -2 0 0 0 0];

internalField   nonuniform List<scalar> 
20933
(
0.000157524
-0.0056757
0.0083606
-5.1537e-05
-0.00270374
-0.00305814
-0.0842414
0.407617
-0.0374372
0.397282
-0.0770976
0.26365
-0.0269437
7.43129e-05
-0.0016078
-5.4497e-05
-0.00907004
0.241539
-0.0555111
-0.00496373
-0.033745
0.274992
0.399395
-0.0896915
0.00642131
0.657603
0.000690196
-0.0239903
-0.112441
-0.0568302
-0.000557654
0.751514
0.383201
-0.0130586
-0.000552737
-0.000671788
0.45069
5.69057e-05
-0.000795023
0.205732
0.0159701
0.474587
0.539732
0.00045189
0.657752
-0.0135802
0.3511
0.123151
4.62841e-05
-0.0257445
-0.000596236
0.0488951
-0.0547113
-0.00114705
-0.0719312
-0.0214791
-0.0182751
-0.000847199
-0.0148491
0.000503897
0.691149
-0.0118604
-0.00336164
0.369354
0.000137711
-0.00351594
0.640888
-0.00373265
0.0143385
0.652478
0.00209338
-0.0347795
-0.00146116
-0.0193162
0.642974
-0.00923319
0.643633
-0.0225259
0.203087
0.601463
-0.00303953
-0.00107628
-0.113652
-0.0347954
-0.0111176
0.54399
-0.022499
0.816764
0.36835
0.686374
0.3261
-9.9732e-05
-0.000105356
0.789592
0.103977
-0.00287188
0.796474
-0.00133266
-0.0657498
0.437023
0.692936
-0.0104461
0.703732
-0.0236621
0.100446
0.00227646
0.606889
0.00208624
-0.00569647
0.579373
-0.119783
-0.0850672
-0.0150356
0.00692211
-0.00220806
-1.6891e-05
0.529432
-0.00286994
-0.0452536
0.593303
-9.83074e-05
-0.0358322
0.232863
-0.0193074
-0.0130328
0.243242
0.343138
-0.0231921
0.760509
0.541337
-0.0300487
-0.0243901
0.0161863
-0.00015538
0.611122
0.0889693
0.17193
-0.0359793
-0.00830214
-0.0476433
-0.0394897
-0.0210988
-0.0585564
0.713375
0.0942014
0.617938
0.403637
-0.0118475
0.318856
0.000783832
-0.0110915
0.644933
-9.13791e-05
-0.0300432
-0.00101648
0.410731
0.553673
-0.0942314
-0.0229075
-0.0285396
-0.0785351
-0.0762753
-0.000697827
0.107213
0.163327
0.810151
-0.00953837
-0.104132
-0.010638
0.442596
0.158153
0.660899
0.561357
-0.0125818
0.839501
0.37188
-0.000197373
0.676658
0.00253092
0.600333
0.627687
6.03503e-05
0.709581
0.555018
-0.00465582
-0.0249057
0.00334792
0.418381
-0.0297429
0.763468
0.340497
0.0242892
0.44686
0.0222058
-0.0238227
0.238218
0.706147
0.0790232
-0.00511139
0.771385
0.159547
-0.0481296
-0.0432966
0.750425
0.722115
-0.0202405
-0.0140297
0.0504944
-0.0213479
0.000170891
0.635839
0.673241
-0.0135911
-0.027733
0.590843
0.642547
3.96499e-05
0.593169
0.0113277
0.00102423
-0.0211832
0.568726
0.734166
0.329246
0.575033
-0.00939298
-0.012677
-1.72066e-05
9.07211e-05
-0.00208647
0.228079
-0.029927
0.598633
-0.0456251
0.557661
-0.0211734
0.00647665
0.656558
0.803445
0.560796
0.638099
-0.027135
0.468851
-0.0177753
0.111462
-0.00251977
-0.0871034
0.0487073
0.0509004
4.93918e-05
-0.00551373
0.740434
0.237222
-0.0018926
-0.0314849
-0.0287425
-0.0974743
0.481532
-0.0446164
-0.0121952
-0.0275502
-0.0112795
0.000146624
-0.0205141
-0.0719431
0.711372
0.0661801
-0.0137683
0.563477
0.718875
-0.0221765
-0.00025181
-0.0316156
0.640702
-0.112369
0.687226
-2.78325e-05
-0.0292728
0.577967
0.627718
-0.0191444
-0.0166248
0.761776
-0.0220771
0.0204952
0.699482
0.758969
-0.0244719
0.587552
0.148703
0.596118
0.504256
-0.000246295
0.0563067
0.454046
-0.000214912
-0.0561298
0.103343
-0.133148
0.152625
0.0789921
-6.19823e-05
-0.000943625
0.686987
-0.00352756
-0.0684176
-0.0320905
0.280949
-0.0114045
0.598372
0.1428
-0.0296179
-0.024258
0.424081
0.254068
-6.05957e-05
0.681354
0.546574
0.670957
-0.0573867
0.000140284
0.755998
-0.00175694
-0.0200228
0.239944
0.0872522
-0.0244688
-0.0362243
0.556868
0.788642
0.627943
0.187486
0.848307
-3.21202e-05
-0.0118186
0.628087
-0.090795
0.449399
-0.0178593
0.651336
0.131105
-0.000910386
0.127209
0.525496
-0.0887849
0.701915
0.533578
1.16337e-05
0.00972406
0.381911
0.256661
0.000747666
0.554681
-0.0124604
0.834869
-0.0393265
-0.0128843
-0.00574407
0.624338
0.54632
-0.0134114
0.422352
0.684594
-0.00368465
0.494108
0.540067
0.840247
-0.00136062
0.300368
0.0440627
-0.0246857
7.24259e-05
0.649126
0.480032
0.0578977
0.666595
0.203348
-0.0181154
0.461344
0.166815
0.243013
0.835917
-0.0307059
0.210964
0.670202
-0.0320066
0.122063
-0.0655885
0.369707
-0.00728518
0.334674
0.0613772
0.20301
-0.00125578
0.356842
0.665367
0.507096
-0.118008
-0.0103314
0.742726
0.745728
-0.00236387
-0.0276053
0.597283
-0.0643837
-0.00162891
0.481737
-0.00652794
0.868314
-0.0133769
0.324382
-0.0046528
0.669813
0.527418
0.0556008
-0.00735745
0.0245903
0.161779
-0.00139675
0.595483
-0.0333632
0.379713
0.826279
-0.0581369
-0.00343498
-0.00228372
0.133632
0.0648874
-0.0148332
0.500008
-0.000444289
-0.0231155
0.000820961
-0.00948676
-0.0191909
2.97977e-05
-0.0283946
0.225878
-0.101278
-0.0106275
-0.0215967
0.11372
0.0896196
-0.0276934
-0.0196221
-0.00138703
0.0149674
-0.0695298
0.00121261
-0.0148266
0.258562
0.498826
0.117904
3.97567e-05
0.776623
0.00135704
-0.000462752
0.0144014
-0.0259162
-0.0305173
0.716569
-0.0108193
0.154893
-0.0583898
-0.0637318
0.470075
-0.0198428
-0.033061
-0.0525247
4.99136e-05
-0.0164398
0.788551
-0.0926213
-0.0327046
0.49737
-0.0264116
0.500554
0.324667
-0.00194503
0.000190211
0.549229
0.816776
-0.0977079
0.388481
0.214628
-0.0262054
-0.0272161
0.59606
0.085478
-0.10981
-0.0613923
-0.010346
0.0317578
0.741216
0.201304
-6.40089e-05
0.706121
-0.0105433
-0.0337628
0.568855
0.000248965
-0.0046833
-4.44673e-05
0.0233653
-0.0171764
-2.26147e-05
0.382581
-0.108008
0.59957
0.000155949
-0.00121791
-0.0272055
-9.24674e-06
-0.100976
-0.103989
-0.00130956
-0.0273524
-0.0260569
0.558625
0.672761
-0.00153981
-0.000304321
-0.0446675
0.679082
-0.00906592
0.679017
-0.00792452
0.828392
0.509066
0.321658
0.800199
-0.0215096
-0.00241475
0.0439416
-0.00742806
0.665837
0.591887
-0.0112275
-0.0776911
0.10385
-0.0125303
-0.00117029
-0.0910332
-3.16227e-05
0.565348
-0.0231359
-0.0285548
-0.0108694
-0.0208651
0.326584
0.129313
-0.000124624
-0.00796125
-1.86808e-05
0.827912
0.734209
-0.000570354
-0.0120572
0.00376867
0.589869
-0.0271426
0.217144
-0.0301695
0.635255
0.320431
-0.0184756
0.860715
0.0260604
0.620187
-0.00579217
-0.0738114
0.699399
-0.00893412
0.825943
0.574962
0.839786
-0.00238455
-0.00272286
-0.0331657
0.0592479
0.000337556
-0.0278596
0.621533
0.643913
0.503222
0.672804
0.818814
0.388807
0.666221
0.50694
-0.00360048
0.556758
-0.0318082
-0.0297657
-0.000346343
-0.0146223
-0.0719291
0.419477
0.0644248
0.600772
-0.0167176
0.131795
0.579942
-0.00687889
-0.00792745
-3.04632e-05
-0.000178265
0.417992
-0.0315167
-0.0263628
-0.000206034
-0.000765094
0.0933543
6.92009e-05
0.100774
0.831138
0.402141
0.379
-0.0123723
0.592649
0.145577
-0.00819217
-0.0121195
-0.00112401
-2.66728e-05
-0.00127326
-0.0108187
-0.0721005
0.431291
0.0402461
-0.0168741
-5.61388e-06
0.625994
0.0204367
-0.0514112
-0.00846747
0.184001
-0.0197407
-0.0148472
0.580443
0.766698
0.536752
-0.00859399
0.543756
-0.0120549
-0.0220704
0.423333
-6.98314e-05
-0.0130136
0.309169
0.381629
-0.0179774
0.5821
0.727939
0.566986
-0.0267958
-0.0221046
-0.00352676
0.172816
0.540758
-0.000667098
0.696911
-0.0206407
-0.0742846
0.0541108
0.785762
0.435378
0.598148
-0.105667
0.809487
-0.0165253
-0.0212819
0.847324
0.0455233
-0.0596981
0.611766
0.635237
-0.0220221
0.53433
0.679409
0.629951
0.583366
0.620908
0.51545
-0.00455415
-0.0166269
-0.00153292
-0.0657225
0.664623
-0.0612294
0.265026
0.264766
-0.0283132
0.109294
0.3054
0.675624
0.111732
-0.00102097
0.0363952
-0.0251898
-0.0230297
-0.0381569
-0.0682892
0.577085
0.69999
0.0827306
0.671087
0.821635
0.000367641
-0.000307692
-0.00218634
-0.0100245
0.467712
0.830407
0.208768
0.593714
-0.0133951
0.520848
0.534835
-0.078657
-0.0183521
-0.0286268
0.261702
-0.0110681
0.0519577
-0.025064
-0.0305651
0.602397
-0.00186877
-0.0135315
0.636655
0.102188
0.760148
-0.0365079
0.498697
-0.0369079
-0.0310722
0.693894
0.761734
0.664137
-0.0132886
0.766417
-0.0246518
0.692136
0.033882
0.661126
-0.0244028
-6.17724e-05
0.663006
0.697171
0.692499
0.663325
0.416703
0.129316
0.481543
-0.0590326
0.662784
0.577339
0.0249259
0.0677489
-0.00472495
-0.0167962
0.588981
-0.026791
-0.0131213
0.676096
0.671594
-0.0279018
0.654432
-0.0776781
0.168157
-0.00197483
0.683279
0.694806
0.821429
0.686351
-0.000249123
-0.0143274
-0.000346868
-0.0341274
0.754803
0.358178
0.578437
-0.0290696
0.509528
0.00584363
0.757787
-0.0212502
0.674061
-0.00201255
0.738368
0.773057
-0.0149813
0.195908
0.733385
-9.02285e-05
0.78528
-0.01243
-8.39368e-05
-0.018504
0.625679
0.295086
-0.0480295
0.663068
0.78794
0.530691
0.0280558
-0.0281244
0.033607
0.670335
0.768693
0.849486
0.346673
-0.00264059
-0.00901078
0.586678
-0.00190055
-0.00472211
-0.00236828
-0.0121576
-0.0646886
-0.0829476
0.711129
-0.00988996
-0.000273042
0.564094
0.340015
-0.00327924
0.227135
-0.000498433
0.288975
0.571602
0.659324
-0.0771051
0.222435
-0.0056332
-0.0140577
-0.000887975
0.675957
0.715875
-0.10364
-0.100905
-0.0923372
-0.0284686
0.666858
-0.0200752
-0.0573551
-0.0797735
-0.00129445
0.80191
-0.087969
0.0771114
0.678543
-0.00140418
0.151918
-0.0140781
-0.07171
-0.000507294
-0.000955894
0.79807
0.489894
-0.107029
0.028389
0.509837
0.646188
0.574093
-0.0353528
-0.0245081
-0.0194467
-0.0231951
0.548811
-0.0118275
-0.027528
6.0333e-05
-0.0159281
-0.000100408
-0.0733208
0.630028
-0.0629078
0.677977
0.664145
-0.0286438
-0.0145059
0.816045
0.521607
0.0656546
-0.0161949
0.516794
-0.0258539
0.459439
0.798758
0.464233
-0.0115023
-0.0181565
0.612416
-0.0297277
-0.0579445
-0.0292086
0.725843
-0.021772
0.00970071
0.50533
0.402773
0.559843
-0.0149009
0.442048
-0.0253537
0.676612
-0.0841634
0.292042
-0.0283216
-0.0307999
-0.000274679
-0.000113493
-0.000343811
0.729304
-0.0383953
0.4969
0.155181
-0.0276214
-0.0593417
0.370836
0.82337
0.747001
-0.0405115
0.344082
-0.00868325
0.122825
-0.0119032
0.259571
-0.0279359
-0.00172075
0.540481
-0.0332208
0.00200359
0.718541
0.603809
0.693279
0.0300524
-0.0235713
-0.0111804
0.359018
0.00953317
-8.90563e-05
0.730275
0.1958
0.328568
0.0300386
6.61611e-05
-0.00930275
-0.000517941
0.312161
-0.000462587
-0.0181352
-0.00641442
-0.0253072
0.750323
7.28017e-06
-0.0325505
-0.0226501
0.775384
0.00547253
-1.27015e-05
-0.0748861
0.229352
0.563962
-0.0139147
-0.0126035
-0.0176155
0.576832
-0.0171988
0.336733
-0.0771683
-0.080787
0.170843
0.556258
0.147113
0.340765
-0.000438581
0.602145
0.778882
-0.00880058
0.486528
-0.0406292
0.793838
0.76539
-0.0621054
0.131247
0.0984123
0.488142
-0.000283241
0.661446
0.838365
-0.00202564
0.265867
0.410634
-0.000934991
-0.000306004
-0.0109577
0.823632
-0.0107093
-0.0339955
0.671158
-0.00283765
0.478735
0.687334
-0.0198414
0.738238
-0.0245828
-0.0151373
0.690675
0.34988
0.55892
-0.000416571
0.69451
0.311192
0.658442
-0.0557147
-0.0083978
0.271047
0.731002
0.690395
0.743527
0.669745
-0.0251081
-0.0202062
0.0560191
0.513648
0.659581
0.776197
-0.0248776
0.406575
0.790628
0.62945
-0.000894334
-0.0261237
-0.0108618
0.247606
-0.0200127
0.712893
0.358879
0.656837
0.179004
-0.00469476
0.660704
0.00602917
0.524496
-0.0617354
0.106726
-0.0116142
-0.0575548
-0.0512985
0.771546
-0.0476789
-0.0222627
-0.0077673
0.30625
0.136526
-0.0208673
0.0862762
-0.000726395
-0.0554522
0.543876
0.310618
0.589253
-0.086357
0.682819
-0.0563068
-0.000653391
-0.0100526
-0.00795181
-0.0814163
-0.0898085
-0.00243569
0.419006
0.748006
0.28278
0.109326
-0.0235936
-0.0541413
0.480541
-0.015335
0.793205
0.42825
0.000453851
-0.0173041
0.0325197
-0.0477432
-0.0173243
-0.0189633
0.0074856
-0.0746874
0.408057
0.759785
0.704915
0.369377
-0.000510517
-0.0237403
-9.83925e-05
-0.00964444
0.552666
-0.00178021
0.532067
-0.05239
-0.013357
0.75441
0.769274
-0.00076376
0.668163
0.702409
0.233731
-0.00743004
0.290808
0.549282
0.766818
0.465946
-0.0512953
0.751082
0.146947
-0.0300504
-0.0347685
-0.0591057
0.783068
-0.0107768
0.679431
0.438191
0.745443
-0.0169426
0.485341
0.508833
-0.0648262
0.691339
0.0219798
0.727078
-0.000273592
0.464357
0.528435
0.531085
-0.00197297
0.0386936
-0.00209371
-0.0267819
0.434238
-0.0183275
0.495104
0.475935
0.826494
0.0010619
0.731645
-0.00161079
-0.00238198
0.091974
0.667149
0.179048
0.00506311
0.105561
0.588149
-0.00420928
0.81171
-0.00210903
-0.018693
0.155777
-0.0134102
0.672275
-0.0344842
0.70766
0.575051
0.231062
0.069829
0.272335
-0.000849837
0.0551498
0.722909
-0.0329611
-0.00653444
0.450219
0.128415
0.0256211
0.0724506
-0.00885699
0.749899
-0.021281
0.0857834
-0.0217177
-0.0278976
0.656599
0.83168
-0.0202309
-0.05769
0.000398698
0.153122
-0.000698536
0.222744
0.770343
0.74131
-0.00481331
0.278859
-0.000276574
-0.0279988
0.610175
-0.00666394
0.353127
-0.0158387
0.812923
0.592895
-0.0671333
-0.00846525
-0.025726
0.812275
-0.023881
-0.00105323
-0.00676568
0.231546
-0.0587897
-0.0123293
0.201234
0.751206
-0.0775455
0.788527
0.850627
-0.0191754
-0.00985164
-0.000519803
-0.000615614
-0.0259008
-0.0298567
0.805166
-0.0142553
-0.000700759
0.531334
-0.0497359
0.580549
-0.00187729
0.028028
0.579458
0.538401
-0.0662911
-0.0191534
-0.0539698
0.63299
-0.0228754
0.376522
-0.0268814
-0.0103215
-0.0267684
-0.00786052
-0.00380911
-0.0793926
-0.0750459
-0.0507025
0.00331511
0.200605
-0.00111515
-0.0241458
-0.0547971
-0.0157303
-0.0207534
0.751508
0.0669122
-0.0235958
-0.0111206
0.61916
-0.00030568
0.54711
-0.0246081
0.0872905
-0.00163527
0.57596
0.382269
-0.0298828
-0.0250386
-0.0275782
0.47366
-0.000355191
0.534858
0.628783
-0.00606399
-0.0208018
0.215883
0.201828
-0.0515969
0.249063
0.598646
-0.0142076
0.512794
-0.030543
0.0179375
0.494216
0.771363
0.0437143
-0.00334493
0.656345
0.514913
-0.0169519
-0.0356709
-0.0928752
0.022564
-0.014748
-0.00356225
0.613355
-0.0968275
-0.0299168
0.615881
-0.0448292
-0.0246748
0.393532
-0.00142534
0.270706
0.530601
0.0217656
0.539532
-0.0118213
0.73975
-0.053607
-0.000366171
6.13648e-05
0.0584935
-0.000568792
-0.0131088
0.275291
-0.0254985
-0.00331347
-0.0265146
-0.0150292
0.345323
0.672747
2.69059e-05
-0.012213
-0.00426198
0.502713
-0.0547054
-0.0160995
-0.0152776
0.124674
0.398102
-0.0116684
-0.00616626
-0.0305687
0.574183
0.617585
0.235423
0.542123
0.699658
-0.00902918
0.506159
0.202732
0.0433405
-0.0149805
0.0173297
0.841158
-0.00733731
-0.0576929
-0.0256299
0.573281
-0.00743171
-0.00174719
-0.0256767
-0.0293189
-0.00155993
0.674323
0.428445
0.519519
0.623983
0.545157
-0.0067599
0.251163
0.444831
0.0651506
0.660409
0.330479
0.446952
2.42143e-06
0.456446
-0.0356747
0.315567
0.457017
-0.0748572
0.154525
0.135007
-0.0186265
-0.0042717
0.0803645
0.299595
0.760837
0.326867
-9.80213e-05
0.404029
-0.0127654
0.461546
0.355786
-0.00734532
-0.0202356
0.501811
0.673654
0.204675
-0.027766
-0.0157482
0.317627
0.514107
-0.0232198
0.605552
-0.0176425
0.263399
0.0184552
0.71471
-0.000669736
-0.000459787
-0.00344449
-0.0158131
-0.0465542
-0.00786637
0.523828
0.619494
0.00178708
0.39506
0.0019646
-0.00728533
1.33703e-05
0.338267
-0.00880528
0.409493
1.54075e-05
0.5252
-0.0209486
0.593376
-0.0642682
0.635915
-0.0262589
-0.00730005
0.000179561
0.680857
-0.0274079
0.129496
0.242953
0.0037751
0.586669
-0.00692305
-0.00609504
-0.0161457
-0.00201977
0.677987
-0.00364188
-0.0167603
-0.0136513
-4.55602e-05
-0.00807501
0.600711
-0.000365762
-0.0264864
-0.00240511
-0.00173437
0.558723
-0.0739641
0.101011
-0.0327158
-0.00080774
-0.0101735
-0.00435439
-0.0156943
-0.000617596
-0.00704655
0.36038
-0.000328074
-0.0126933
-0.0114207
0.250157
0.66013
-0.00658055
0.00068286
-0.0217759
-0.0250345
0.54839
0.610073
0.681714
1.98182e-05
0.306003
-0.0234376
-0.0206417
0.430946
-0.0202011
-0.00700384
-0.00766618
-0.00752273
-0.0147964
-0.0140996
-0.00834306
-0.00159419
0.0139912
0.519736
0.00467853
0.399885
0.125032
0.0790711
0.329367
0.220717
0.458467
0.0354217
0.519831
-0.000799225
-0.013171
0.488122
-0.0349666
0.550363
0.526942
-0.0181018
-0.0242443
-0.00031189
-0.0157414
0.0423966
-0.00986476
-0.0097398
-0.0127778
-0.00846112
-0.0186736
-0.0218089
-0.00777473
-0.00438867
-0.030555
0.459572
-0.0171256
-0.000739161
-0.023016
-0.00301857
-0.0202977
0.606754
0.585977
0.332174
0.721131
-0.00531487
-0.0195564
-0.0166809
-0.00188421
-0.00397229
-8.60859e-05
1.61913e-05
0.319457
0.202388
-8.04417e-05
-0.0661145
0.179091
0.320664
-0.0376903
-0.00832856
-0.00544349
-0.00361063
-0.000447811
-0.00188278
-0.0200713
-0.0297295
0.737791
-0.00191364
-0.0285898
-0.0150734
-0.0232387
-0.00621902
-0.00815775
-0.000666004
-0.00749516
-0.017643
-0.0181534
-0.0345271
0.155458
-0.0103542
0.393498
-0.0150805
-0.0010748
-0.0164565
0.547782
0.571756
0.442492
0.0190323
-0.0691863
-0.023358
-0.0703723
-0.0270382
-0.0736064
-0.0243606
-0.0715852
-0.00243299
-0.00800571
-2.79468e-05
0.110608
-0.00202679
0.000151218
-0.0100465
0.76497
-0.0191258
-0.0825983
0.725624
0.74466
-0.0100819
0.73191
0.696003
0.560295
-0.0030675
-0.0953351
0.746597
4.45444e-05
-0.000459892
-0.00695363
-0.0153428
-0.00516043
-0.0110531
-0.0150105
-0.0162933
-0.0137191
-0.0162094
0.000221187
-0.0368987
-0.00610328
0.815118
-0.0106499
-0.00747422
0.812832
-0.00293145
0.777976
0.736603
0.519104
-0.00887722
0.814636
0.13752
0.641217
0.0069862
-0.000535841
-0.00718076
-0.0125229
0.0745134
0.668558
-0.000895564
-0.000499223
-0.0155984
-0.000114376
-0.10589
0.315772
-5.90743e-05
0.544895
-0.0381962
-0.00395383
-0.0252845
-0.00907384
0.24571
-0.0035227
0.743521
-0.000405043
0.695592
0.00267841
-0.0190622
6.2298e-05
-0.0194752
-0.00868019
-0.0190541
0.627148
0.66483
1.07489e-05
0.745658
-0.0246894
-0.00162028
-0.0204148
0.703003
-0.108723
-5.34865e-05
-0.00048378
-0.00087776
-0.000646636
4.80337e-05
-0.00109788
0.753517
4.98125e-05
-0.00121262
-0.0126041
0.794509
0.852083
-0.00150924
-0.0278568
0.559145
0.807561
-0.0300078
-0.0148999
-3.57747e-05
0.0225135
0.680019
0.546644
-0.000771733
-0.0106402
-0.0240097
0.712954
-0.0720185
-0.0127653
-0.0102933
-0.00835372
-0.0185106
0.583329
3.42276e-05
0.729122
-0.00150524
0.780833
-0.00141426
0.741923
-0.00930687
0.10829
-0.017835
3.0639e-05
-0.000382709
-0.00581845
-0.0119732
-0.0089128
-0.000568733
-0.00167771
-0.000930547
-0.0233698
-0.000596984
-0.00948813
-0.00913663
-0.00141999
0.153604
-0.000698267
0.54445
-0.0149974
-0.010739
-0.00195261
-0.0906062
0.803814
-0.007957
-0.00697944
-0.00768894
-0.0263364
-0.00970355
0.525964
0.575871
0.0015698
-0.00836581
-0.0329313
0.185235
0.729724
-0.0224417
0.513518
0.600215
8.79082e-06
-0.030783
-0.00957406
-0.000506093
0.000104981
-0.000164905
-0.000427026
-0.00311271
-0.00501199
0.00259063
-0.0173276
0.0118012
0.350257
-0.0556835
0.544434
0.193827
-0.0744317
2.25925e-05
-0.000374746
0.675294
-0.00161896
-0.0253217
-9.69852e-05
-0.0202232
-0.0110186
0.431266
0.0924492
0.756573
-0.000422383
-0.00100905
-0.0163121
0.384076
0.000356327
0.724618
0.200087
-0.0117387
-0.00458941
-0.0504617
0.00967569
0.519103
0.0544428
0.680781
-0.0253305
-0.000231335
-0.00168221
-0.00854414
-0.000168474
-0.00048655
-0.00150831
-0.0119722
0.00155073
-0.022778
-1.09342e-05
-0.0241395
-0.0612587
-2.41745e-05
5.218e-05
0.000203567
-0.000385269
-0.000289466
-0.00560823
0.0327957
-0.000462528
0.0847925
-0.0063433
0.555842
-0.019812
-0.0466494
1.72572e-06
-0.0442676
-0.0316225
-0.0136767
-0.00493686
2.38643e-05
-0.00412801
-5.41145e-06
-0.0489485
0.0572479
0.194787
-0.0928002
-0.000436329
0.0784105
-0.0778209
0.597232
0.465656
0.565995
-0.000233557
-0.00292499
-3.90434e-05
-0.00255136
0.700504
0.528288
-0.0023417
-0.0034885
0.389126
0.528358
0.763552
-0.000394992
-0.00191046
-0.00840704
-2.79001e-05
-0.000403063
7.81881e-06
-0.00256762
-0.00270335
0.554375
-0.0180636
-0.000726793
0.00299304
-0.000669569
0.0422904
0.00105467
0.396987
-0.000714191
0.232876
-0.0289593
-0.0194325
0.277356
0.213489
-0.000357321
0.282942
0.725559
-0.0260711
0.570558
-0.0182148
-0.00211662
0.614005
-0.00195224
0.539439
-0.00117885
-0.0112066
-0.0502901
-0.0030738
-0.00906121
-0.000587774
-0.000300115
0.0269469
3.99392e-05
-0.00827474
-0.0164605
0.734715
-0.0115478
-8.00822e-05
0.542799
1.00025e-05
-0.000457791
-0.00437097
-0.0013464
0.721528
-0.000682884
-0.000523555
-0.00990102
0.173514
-0.0227448
-0.000399977
0.000238657
0.124531
0.00144461
-0.000395107
0.662682
0.790197
-0.00134196
0.0282159
-0.00155195
0.581097
-0.000383217
-0.0011103
-5.43865e-05
1.95504e-05
-0.046894
-0.000177281
-0.000417865
-0.097293
-0.00109163
-0.043985
0.000213068
-0.000381287
0.00387915
0.620182
0.651436
-0.00451964
0.513401
0.098696
4.18392e-05
0.532856
-0.00764662
-0.000334953
-0.000232245
-0.00966527
-0.000470629
0.0128619
-0.000324665
-0.0256573
0.292473
-0.0115526
-0.00904655
0.22521
0.435334
0.219724
-4.81606e-05
-2.79959e-07
-0.00690081
0.369253
-0.00448526
-0.0608342
3.34164e-05
0.527811
-0.0819027
0.620531
0.451542
-0.00541065
0.259896
-0.000195461
0.54892
0.0536118
-0.0259508
-9.2578e-05
-0.000399974
-0.00403151
-0.00503445
-0.00355512
-0.0071939
0.206081
-0.00180021
0.383654
-0.000618183
0.000524103
-0.000101349
0.150277
0.00886882
-0.00209271
-4.46983e-05
0.00611747
0.354431
-0.00850389
0.00395048
0.00283296
0.114125
0.00161728
-0.000596891
-0.000412786
0.599876
0.642175
0.668269
-0.000371788
0.644396
0.587337
0.649212
-0.0005691
8.51737e-05
-0.000339801
0.408119
0.485104
-0.0696682
-0.0273133
-0.0108783
-0.0102226
0.122717
-0.003904
-0.00133187
0.510318
-0.000459474
-0.0040465
9.8808e-05
-0.00462453
0.647972
-0.0285493
-0.000661619
2.5868e-05
0.704801
0.584761
0.029117
0.349749
-0.00367427
0.0160543
-0.00498457
0.0033102
-0.00868658
-0.0161932
0.328387
-0.00711178
0.185432
-0.000293287
0.629651
-0.0165399
-0.00666111
0.566034
0.0115436
-0.0096972
-0.011213
-0.00741633
0.236295
-0.00410521
0.000188178
0.515577
-0.000323481
-0.0111751
0.0949774
-0.000370924
-0.00112239
-0.000413934
-0.0185096
-0.00911382
0.0787342
3.64799e-07
0.0638061
-0.0174401
0.0519842
0.0414996
-0.00642502
-0.0105048
0.0334883
-0.0157405
-0.00453832
-0.00329563
0.432305
-0.00516418
-0.00124986
-3.84893e-05
-0.0177035
-0.0338096
-0.000121938
0.43615
0.616597
-0.0168357
-0.0104299
-0.00683217
-0.00154601
4.23082e-05
-0.00694472
-0.000406803
0.0638196
-0.000294231
0.00724051
-0.0188578
-0.00971564
-0.000391941
-0.00022942
0.419149
-0.000893945
0.157185
0.463467
-0.0161328
-0.0291661
-0.00917927
8.58206e-05
0.136592
-0.0175209
-0.0115911
0.115249
0.275411
-3.34999e-05
0.0949446
0.310177
-0.000217242
0.210139
-0.00818746
-0.00981564
0.51244
-0.00251778
-0.000165153
-0.000336938
0.483399
-0.0843345
-0.0214259
-0.0115255
-0.00698142
-0.00124277
-0.0101741
-0.0138293
0.181184
0.677551
0.749336
0.562733
-0.000177036
0.416012
0.160114
-0.0101747
-0.011735
0.407414
-0.0210076
-0.105269
-0.000296283
-0.0106901
0.534471
-1.85484e-05
-0.0564447
-0.00691782
-0.0120186
-0.000359534
0.572049
-0.0247254
0.559087
-0.0127905
-0.00691045
-0.00406758
3.20996e-05
0.49405
-0.0116871
-0.00169293
-2.04935e-05
-0.0585628
0.0349797
0.251766
-0.00888825
-0.000810275
0.282991
-6.29686e-06
0.381037
0.228159
-0.0004418
0.388165
-0.0440306
-0.000177986
-0.00903726
0.000256303
-0.000618091
-0.00675054
0.463017
-0.0218072
-0.000778436
-0.0444081
-0.00618161
0.474697
0.649882
-0.000381557
-0.0122058
-0.000851024
-0.00535118
0.505412
0.0103813
-0.000500226
0.354752
0.238073
0.557055
-0.00954403
-0.000397432
0.410616
-0.00438735
-0.0154682
0.0146536
0.686317
-0.0324429
-0.0105612
-0.000575427
-0.00455803
0.681741
-0.0219009
0.772598
0.255684
-0.00763586
0.000296804
-0.0231949
-0.0236652
-0.000170712
-0.0110091
0.672365
-1.9129e-05
-0.0195905
0.68154
0.000257141
-0.0116656
-0.000194096
-0.000197744
-0.000201241
0.051389
-0.00625484
-8.11054e-05
-0.0723578
-0.000549307
-0.000182895
-0.000136065
-5.89961e-05
-0.0247608
-0.000154658
0.000358344
-0.0144597
-0.0171456
0.769146
0.0682238
-0.00763701
-0.000429871
-3.13362e-05
-0.011696
-0.000107886
0.186391
0.54399
-0.000478343
-0.0205976
-0.00807466
0.125804
-0.00173298
0.805245
-0.000580569
0.000301189
0.37849
0.00391844
-0.000180802
-0.0225493
0.540146
0.000276412
0.527561
0.549174
-0.0129401
-0.0236903
0.631889
-0.0109022
0.000274029
-0.0235684
0.434449
0.18781
-0.0289971
-0.000160928
0.656516
0.000325359
0.00973903
-0.000358308
0.000192837
0.741909
-0.0012107
-0.000103171
-0.0137337
0.333154
0.775619
0.534088
0.819027
-0.00239505
0.727744
-0.00020209
0.433402
0.000149537
-1.27418e-05
0.263787
-0.0163135
0.170751
-0.00026635
-0.0314198
0.781725
-0.0165846
-0.0106761
-0.00109428
0.000333382
0.282422
-0.000603113
-0.0204697
-0.000171104
-0.0206951
6.27138e-05
0.792183
-0.00870535
-0.0137989
0.125141
-0.0614955
0.247608
0.523721
-0.000220167
-0.0510801
0.313493
0.574407
0.807401
7.30473e-06
-0.0648103
-0.0621232
0.000295867
0.349469
0.385001
-0.0653063
0.687346
0.196009
0.298161
-0.00794588
0.514436
-0.0168887
-0.000464993
-0.000100814
-0.000195163
0.000273008
-0.000887108
-0.0109134
-8.8375e-05
-0.000409661
0.00228788
1.57357e-05
0.385056
-0.0311338
-6.01056e-06
0.78563
-0.000325336
-0.000134514
0.650307
0.807059
-0.0222826
-0.0117662
0.625567
-0.00408252
0.719742
0.105072
-0.000141221
-0.0524351
-0.0231931
-0.0012179
-0.000388679
0.549694
-3.87353e-05
-0.000238549
0.694796
0.000266651
-0.00118022
-0.0365228
-0.0110353
-0.0154645
-0.000299223
0.118598
-0.0156419
-0.000170892
-0.0166824
6.01605e-05
0.405726
1.90715e-06
-3.23683e-05
5.03443e-05
0.674914
-0.00413485
-0.00131583
-0.000639474
-0.000767836
0.655053
0.00465094
0.210908
0.628865
9.96918e-05
0.745198
0.608056
-0.00190149
-0.0525811
-0.000315684
-0.00994213
0.719836
-0.00128841
0.000318455
-0.000117898
-0.0176662
-0.000421583
0.000317656
-0.000325643
0.735844
-0.000116919
0.562437
-0.0164315
-0.0580622
-0.000121124
-0.035518
-0.00135577
0.642222
0.653188
0.256397
-0.00107525
-0.0341592
-0.0506838
0.243808
0.17279
0.370587
-0.0691872
-0.0421393
-0.0185842
-0.000219094
-0.000869586
0.000367316
-0.00182907
-0.0012753
-0.00153914
-0.0013728
-0.000545339
-0.0129189
-0.00363386
-0.00180897
-0.0177578
-0.000375203
-0.00220748
-0.000178544
0.858875
0.153354
-0.00324181
-0.00125517
-0.00267205
-0.000140221
-0.000466161
-0.00252383
-0.00210718
-0.0299006
-8.73978e-05
-0.0189348
-0.000735283
0.000349807
-0.000258367
-0.0179781
-0.0292624
-0.0030699
0.680873
-0.0114559
0.549048
-0.0321152
0.705358
-0.0270244
-0.0285275
-0.0299614
-0.0311335
-0.03123
-0.0326952
-0.0329688
-0.00030195
-0.0334283
-0.0329286
0.649251
-0.0345491
-0.0134972
-0.0333194
-0.000546051
-0.0494389
-0.00938783
-0.000123453
-0.00421801
-0.000110176
-0.00114345
0.0451587
0.000364175
0.328851
0.577239
-0.00676569
-0.000466328
-0.0157348
-0.0012729
-0.00431952
-0.00779598
-0.0138582
6.00483e-05
0.795668
-0.00669818
-0.0142056
-0.00521078
0.000326395
-0.00376842
-0.00128789
-0.0275744
-0.00510494
-0.000546264
-0.00348341
0.0689608
-0.000167704
-0.000239594
-0.00593727
0.0191443
-0.00072728
-0.00161476
-0.00100185
-0.000142441
-0.000310759
-0.0014606
-0.00026342
-0.000408073
-0.00199962
-0.000915438
0.638282
-0.000159669
-0.000743843
0.000390371
-0.00128619
-0.000287794
-0.000297335
0.45537
-0.00690239
0.610947
-0.00297259
-0.000245749
-0.000155229
0.53344
-0.0482655
-0.000271638
-0.00018725
-9.88271e-05
-0.0062315
-0.00245516
0.0299403
2.43834e-05
-0.0258954
-9.21714e-05
-0.000495603
-0.000349751
-0.00355017
-0.000503319
-0.0367978
0.625619
-0.0337124
-0.00556475
-0.000200835
-7.03116e-05
-0.0206634
-0.000169119
-0.00260088
-0.00137525
-0.00129256
-0.000414357
-0.00833735
-0.00592369
-0.0832015
-4.49712e-05
-0.000143126
-0.0123365
-9.49263e-06
-0.00421387
-0.00244699
-0.00213706
-4.03083e-05
0.724959
1.39983e-05
0.823979
-0.00839877
-0.00304612
0.00235375
-0.000157133
-0.000223899
0.0237751
-0.000287176
-0.0415767
-0.000447847
-0.028626
-0.00505041
0.000102962
-0.000239639
-0.00224478
0.732594
-0.000366285
-0.0192007
0.00124483
0.623829
-0.0313256
-0.0473083
-0.000214733
-0.0550872
-0.00431338
-0.0889203
-0.0152932
-0.000220647
0.00132723
0.768501
-0.0443499
-0.00222207
-0.00367407
-0.000135193
0.552974
0.61905
-0.000113209
3.04796e-05
0.488841
-0.000295105
-0.0060773
-0.000100567
-0.000570845
-0.0249485
-0.0225389
-0.0882406
0.0199213
-0.000989062
-0.000236397
-0.000235582
-0.0361868
-0.0129291
0.396731
-0.00960122
-0.0001422
0.598568
-0.00450281
-0.00070593
-0.0338806
-0.00326365
-0.00121894
-0.000293235
-0.0036386
-0.0013789
-0.0145066
-0.000227595
-0.000841281
0.390174
-0.00619573
0.493417
0.705916
-0.00144235
-0.00354794
-0.0618352
-0.00659989
0.78028
0.00281515
-0.000405956
-0.000115864
0.570977
0.733969
0.378913
0.0643271
-0.0238606
-0.000234191
-0.01557
-0.000641951
-0.000545795
-0.00541695
0.519751
-0.0206422
-0.000427315
-0.00109411
-0.00144986
0.130019
0.540967
-0.0161608
-0.0126642
-0.00169262
-0.000881814
-0.00060193
0.714286
-0.000447484
4.36792e-05
-5.73041e-05
-0.000158939
-0.0131892
0.133989
-0.0066209
-0.00586917
-0.0173625
4.14977e-05
0.00360186
0.530225
-0.0194761
-0.000282183
0.00268365
0.536899
-0.00207225
0.185476
0.637524
-0.000442519
-0.000131444
0.197886
0.493422
0.251586
0.417479
-0.033737
-0.000215097
-0.000343622
0.51737
-0.00744419
-0.0010493
-0.0299249
-0.0095674
-0.0453561
-0.0221419
-0.00250733
-0.000362355
0.493673
-0.00112624
-0.0185863
0.650838
-0.0168518
0.618681
4.20157e-05
-0.0170174
0.590772
0.779177
-0.00343226
-0.00601274
-0.0083188
-0.000170685
-0.0035431
0.61058
0.00101788
-0.0233056
-0.00293771
-0.000250769
-0.00111447
-0.00114681
-6.05843e-05
0.442477
-2.78812e-05
-0.00287197
-0.00168648
-0.00142436
-0.000210945
0.318647
0.566934
-0.0254766
-0.028158
-0.0299282
-0.000108182
4.44038e-05
5.42011e-06
-0.0294391
-0.0307598
0.34556
0.568696
-0.0317325
0.324915
-0.00627851
-0.0339372
-0.00608621
-0.0316419
0.420428
0.28896
-0.0329064
-0.000713488
0.579016
0.444824
-0.0037202
-0.000247679
-2.22269e-05
0.721292
-0.000831091
-0.00019921
-0.00202105
-0.000557736
-0.000353341
-0.000450737
-0.000681095
0.00230846
0.201914
-0.0315904
-0.000211364
-0.0188482
-0.0217545
-0.00718193