/*--------------------------------*- C++ -*----------------------------------*\
  =========                 |
  \\      /  F ield         | OpenFOAM: The Open Source CFD Toolbox
   \\    /   O peration     | Website:  https://openfoam.org
    \\  /    A nd           | Version:  7
     \\/     M anipulation  |
\*---------------------------------------------------------------------------*/
FoamFile
{
    version     2.0;
    format      ascii;
    class       surfaceScalarField;
    location    "9";
    object      phi;
}
// * * * * * * * * * * * * * * * * * * * * * * * * * * * * * * * * * * * * * //

dimensions      [0 3 -1 0 0 0 0];

internalField   nonuniform List<scalar> 
31093
(
587.878
-435.348
-152.53
270.503
43.0554
-313.559
937.949
-1125.15
187.2
-395.225
994.338
-599.113
-634.147
670.354
-36.2065
-687.337
53.1894
208.438
-27.4255
-181.013
573.91
-433.83
-140.08
216.996
-289.202
72.2061
86.4665
487.444
-68.7136
249.009
-180.296
-238.399
259.097
-20.6976
-238.114
-15.1124
253.226
34.6128
553.265
622.349
-650.904
28.5556
-965.12
569.895
-276.108
331.766
-55.6589
-88.328
-953.611
1041.94
-253.396
234.672
18.7244
304.934
-34.4304
-295.517
294.045
1.47161
-6.79312
-231.606
-434.557
521.023
267.446
-309.17
41.7244
937.949
-362.598
99.4269
263.171
888.627
-973.187
84.5593
341.578
-152.241
-189.338
-166.739
-87.2895
254.028
-102.422
-150.974
-592.196
741.134
-148.939
364.421
-312.542
-51.8789
339.4
-68.266
-271.134
556.881
-290.481
-266.4
-717.482
780.406
-62.9238
-731.544
139.348
126.862
-339.201
212.339
932.273
-932.273
782.652
-348.326
-434.326
267.687
409.456
-677.144
4.54414
786.447
-790.991
-264.615
87.4529
177.163
-856.978
677.133
179.844
971.28
-82.6532
-143.894
-218.703
116.117
72.3215
-188.439
1057.69
-454.491
-603.202
304.122
-241.748
-62.3741
842.899
-30.4174
-812.481
239.272
-233.055
-6.21675
-787.839
70.357
48.7815
-735.792
687.01
-256.791
-143.674
400.465
762.608
-836.217
73.6084
143.568
-364.612
221.044
16.6155
-213.44
196.824
384.867
-114.483
-270.385
694.676
-751.868
57.1919
-50.2513
-300.223
350.474
-54.9374
-221.17
-666.396
436.798
229.598
-50.3471
244.932
-194.585
481.422
-483.87
2.44845
-184.982
-327.209
512.192
-697.589
828.06
-130.471
-717.405
109.227
608.178
508.169
-577.111
68.9422
-651.41
-65.9954
-144.039
-363.275
507.313
-150.676
-64.5688
215.244
365.848
-547.041
181.193
309.474
-232.857
-76.6162
675.946
-53.5975
-276.707
-31.5571
308.264
1062.42
-559.487
-502.929
-59.2888
453.58
-394.291
333.737
-148.886
-184.851
-227.179
15.389
211.79
871.114
-603.427
562.224
-833.535
271.311
634.491
-525.264
816.996
-195.627
-621.369
280.066
-80.0981
-199.968
295.681
-78.6846
133.841
-184.188
-580.601
-276.377
242.939
-282.263
39.3234
-66.574
171.245
-104.671
-606.288
421.305
157.255
-309.037
151.781
-399.373
661.48
-262.107
738.987
148.749
-887.735
904.539
-130.265
-774.274
183.796
-300.243
116.448
200.787
103.335
425.239
56.1827
261.972
-78.1765
-779.064
790.402
-11.3381
-312.183
243.47
957.429
-870.862
-86.5669
283.293
-126.037
409.548
-420.05
10.5019
188.569
96.9509
-285.52
439.365
-193.773
-245.592
1177.86
-1177.86
469.161
17.0759
-486.237
-52.7279
256.249
-203.521
-456.213
214.278
241.936
264.671
8.93181
-273.603
-240.081
-91.1237
331.205
29.6476
-196.386
183.499
24.9392
400.04
-113.974
-286.066
-254.419
-402.187
656.607
-549.073
489.784
-568.604
-431.481
-351.024
-180.637
531.661
576.723
57.7679
-285.833
-16.4926
302.325
-1030.44
261.944
768.5
-170.764
909.751
41.8398
262.724
-304.564
363.557
-578.913
215.356
241.552
-362.467
120.915
127.12
429.761
732.484
-820.812
29.0818
180.691
-209.773
179.039
162.54
272.613
91.8078
145.338
-496.362
-22.9207
-155.929
178.849
17.5109
221.761
845.027
-840.483
293.937
488.714
148.334
-347.498
199.164
249.382
928.476
253.444
-41.8579
-211.587
-281.248
-14.2683
-409.791
37.1753
372.616
109.744
59.2474
-168.992
285.398
-243.558
27.0126
-303.719
187.812
121.661
-297.515
223.949
73.5661
-521.75
65.4864
456.263
-87.4334
235.767
-256.268
81.2357
175.032
-96.0009
-224.988
320.989
-13.4196
279.057
-265.638
-761.099
-212.088
128.191
-224.192
183.061
971.726
-67.1869
-235.686
-43.0778
278.763
152.096
664.9
-232.454
-23.814
-731.018
150.417
90.4052
177.041
71.201
-163.037
91.8359
-15.3087
-222.805
-184.367
327.935
-228.758
201.332
-36.8678
-389.239
-132.511
-183.95
-639.312
823.262
-176.68
110.106
348.172
61.3764
269.447
10.619
432.568
21.0119
-324.559
451.421
320.256
-66.8118
-209.33
-110.115
319.445
-17.4791
-177.72
195.199
403.468
-442.942
39.4748
105.095
110.686
-215.781
29.8843
309.515
-571.899
509.33
62.5689
-544.551
-27.0807
571.631
-438.752
-110.322
-39.6092
220.531
-180.922
20.2063
-193.812
173.605
735.507
196.766
331.005
77.9327
-408.938
-93.4789
202.95
-109.471
266.762
38.1722
230.666
-126.067
-104.598
578.438
-212.589
23.5646
933.864
153.532
259.472
102.813
-362.285
261.216
-232.134
250.976
-373.721
122.745
62.8518
-933.714
-564.975
420.936
221.996
-150.795
-17.255
262.843
-245.588
59.623
271.382
-24.6427
284.818
-260.176
324.794
-58.0327
18.089
241.383
255.369
-364.069
108.7
-67.4134
305.148
-237.735
-450.564
193.874
-369.429
175.555
254.309
-407.643
153.334
-318.188
287.94
30.2485
-2.5015
-331.417
333.918
753.031
-704.249
201.645
-185.03
619.501
-634.791
15.2905
418.578
89.5908
-863.514
538.372
325.142
-40.5049
307.889
-267.385
-90.2764
-151.494
241.77
-279.69
572.311
490.105
513.497
-513.497
-520.173
-510.271
-236.398
-219.815
895.72
-601.782
7.60084
260.208
-267.809
-192.916
-234.636
427.552
111.993
133.432
-245.425
486.022
-885.395
-325.24
234.117
-13.681
-396.11
355.43
-357.931
-1068.63
500.026
-484.924
484.924
-642.608
-4.54431
647.153
606.473
-242.916
301.592
111.107
-412.699
-316.126
263.398
-221.484
201.221
20.2633
-507.089
813.236
-306.147
306.517
-63.5777
544.208
-75.0466
-422.905
213.575
191.441
70.5314
-631.874
438.958
208.578
-357.463
87.5314
-177.808
222.082
100.598
-322.679
351.477
-109.926
-938.952
-238.905
623.677
-46.9532
-57.6383
260.513
-202.874
525.543
-431.839
-93.7043
-65.5646
741.543
-675.978
-53.2199
896.118
262.998
1.67305
-80.0931
192.086
-65.8432
506.344
-440.501
-540.612
192.286
-171.014
15.5309
155.484
-107.058
408.651
-31.1316
214.679
-183.547
-66.9359
-197.68
194.697
-84.9524
-77.2522
193.369
12.8734
-246.404
233.531
30.0254
460.509
-490.534
710.347
49.3876
-759.735
291.307
15.2104
-67.5114
-161.246
-108.946
15.3783
238.434
-253.813
38.0024
362.038
231.265
-738.354
332.242
-198.404
-83.8588
122.593
-820.575
697.982
59.9953
-370.092
-207.02
-273.673
212.013
61.6602
-359.305
-307.091
567.713
-999.195
242.699
-53.5673
-189.132
-22.1127
205.127
-183.015
-1038.5
334.129
704.371
-34.9552
370.483
-335.527
325.061
59.8062
-263.233
121.671
141.561
332.375
-77.1933
-255.182
359.463
-108.486
-201.946
298.897
296.687
-213.516
142.247
-164.36
-80.4013
565.916
-485.514
751.777
-189.553
-133.422
-318.151
451.572
853.936
-731.343
228.763
-213.385
-43.5763
-280.983
-537.286
82.9772
81.1733
-164.15
326.735
-55.2796
-271.455
-66.3502
171.205
-104.855
355.974
-100.605
-87.581
-346.123
433.704
7.56192
843.988
-851.55
-776.435
804.476
-28.0408
-245.264
84.3883
160.875
-754.484
442.629
311.855
62.9259
-165.348
7.10365
172.232
-179.336
-251.156
244.363
6.24976
-231.087
224.838
219.481
1.05034
144.5
-501.407
356.907
228.425
-215.552
-40.325
-186.854
-66.8651
518.286
311.17
-48.5163
-262.653
-733.922
741.484
-479.878
338.018
141.86
440.729
-295.391
471.547
-860.744
389.197
-291.357
-73.2553
-726.519
28.9301
-164.708
-98.5246
-646.916
631.749
15.1663
-176.438
351.681
-175.243
293.915
302.092
264.626
-167.14
-97.4858
264.961
-276.266
-454.752
-207.793
-92.4497
272.606
-171.198
-101.408
-505.078
-3.37748
508.455
201.584
-96.4893
1006.22
-1006.22
433.493
-497.071
-541.43
132.216
199.276
-331.493
-446.038
402.462
-331.324
299.767
-328.746
407.241
134.84
-542.081
49.8615
712.747
518.043
-110.803
384.279
-564.916
79.2578
218.461
-297.719
-210.316
-228.102
438.418
251.476
88.687
-340.163
-297.423
-544.732
842.155
489.447
-743.866
334.914
19.7079
-354.622
-953.611
417.47
96.0269
231.047
-248.526
305.05
-355.301
-41.5212
162.031
-120.51
4.14994
-265.493
-253.888
11.7597
242.128
222.944
49.6628
261.164
-354.643
226.766
-92.9248
-500.695
-164.697
-144.339
-388.935
-365.55
-932.876
-166.986
1099.86
-499.248
938.675
-439.427
-143.911
-20.8343
164.745
-669.539
636.839
32.7006
-230.479
328.018
-97.5383
254.303
271.241
1.6981
-215.138
873.917
-912.463
38.5461
440.513
-95.2312
182.684
-360.372
175.44
184.932
-227.386
37.3009
190.086
-465.133
-39.9441
133.55
-248.032
302.935
-80.8533
-1047.49
863.535
-501.217
435.374
-131.255
252.47
-121.215
-60.142
377.542
-317.4
349.835
-306.35
-43.4852
-391.967
42.9993
-214.014
-274.548
648.097
-373.549
-50.5498
-261.633
-75.2749
410.189
4.40898
192.002
-196.411
869.29
188.403
-321.607
-38.7653
172.618
177.218
-373.919
-455.35
829.268
-804.377
349.886
446.444
-950.915
504.472
74.2997
-406.631
332.331
-263.06
196.709
-7.01728
467.526
-177.265
-192.164
-462.683
150.141
616.142
7.53475
27.9609
214.738
429.856
-110.127
-319.729
-96.9038
-93.9892
190.893
105.456
188.25
-255.186
9.11045
-118.765
-60.9544
179.72
-387.067
-5.40528
392.472
-8.6952
275.695
-267
-105.301
496.253
-390.952
-414.3
341.146
-89.6696
-868.149
802.585
334.584
-317.508
-82.1733
-291.548
-82.5612
-281.508
-656.245
-122.818
-507.86
256.485
251.375
-271.1
38.2422
-118.844
129.724
13.7916
170.682
413.006
-583.688
27.7453
-259.406
17.6582
-0.196737
285.015
150.154
-264.128
-60.6557
-232.799
293.454
-810.977
796.209
14.7687
236.388
-253.386
16.9985
363.902
531.817
274.886
-352.079
-14.018
305.325
-724.639
694.221
293.58
-210.492
-83.0872
274.874
-12.0304
-183.802
-149.382
-319.01
468.392
-216.535
-101.654
295.777
-351.056
429.646
-517.227
116.314
81.8564
-198.17
207.591
-129.337
-78.2547
277.094
-651.013
133.569
-496.844
241.744
-102.693
-139.051
48.3064
-809.405
-422.022
288.909
-337.426
-564.103
638.403
-456.971
67.7316
368.349
-665.771
165.175
-260.096
94.9211
-846.114
894.421
-30.5714
-10.4688
796.916
-223.836
218.465
5.37107
-309.108
201.052
108.056
-227.964
-179.678
-46.9615
419.168
-372.207
530.049
-610.45
33.1446
-222.225
189.08
167.475
-134.33
288.848
88.7993
-265.237
168.13
26.5668
-138.507
766.804
107.113
-424.997
179.406
-248.712
176.044
72.6683
199.674
-230.806
0.941015
193.494
-194.435
-305.703
245.048
-227.776
-10.1796
237.956
-504.531
371.11
168.244
-181.664
-581.11
-65.8051
614.802
4.69896
-259.998
-236.364
199.299
-75.7162
-123.583
-128.614
-83.3456
211.959
137.244
-200.557
63.3124
-65.0991
271.203
-206.104
-227.374
218.522
8.85197
-200.628
-26.746
316.341
113.515
941.838
-692.456
-263.9
-298.725
248.175
190.713
32.9525
-223.665
-957.545
789.017
168.528
-400.113
169.57
230.543
-479.615
-121.216
600.831
-158.972
-806.149
19.7166
-305.237
-458.659
453.254
-89.5123
-219.596
231.007
-25.8796
651.599
-95.3177
-556.282
347.691
-452.992
-159.326
756.443
-597.117
-198.678
-215.832
414.51
-289.196
274.313
14.8832
5.93161
-66.8715
204.116
-91.5534
-182.12
-528.756
20.896
-16.1722
-91.653
-744.564
36.8498
-432.305
-212.865
84.2518
-267.675
180.385
698.749
260.923
-304.001
165.622
65.0432
-310.153
25.5147
284.639
-270.002
42.6159
-37.7902
-995.87
778.086
217.784
-29.3639
230.585
-125.464
277.245
496.795
-520.777
23.9821
-277.614
-202.264
-362.884
400.06
-35.841
160.243
-124.402
949.764
-794.882
-154.881
30.0648
-514.825
484.76
-3.58933
-171.002
174.591
-164.874
-106.226
488.912
-63.6732
-220.211
474.514
-556.118
114.847
441.271
-177.28
276.707
507.903
-344.798
-163.105
297.234
8.18134
-305.415
-256.698
199.06
628.753
-79.5602
-549.193
418.35
-247.668
-432.99
389.311
43.6793
265.366
-4.85321
-238.67
-71.4832
-182.736
56.6689
205.504
-499.888
60.773
439.115
-257.994
265.595
-336.938
328.243
-312.471
-67.4542
-417.47
-449.394
402.433
-530.573
1001.83
-471.259
-134.127
98.2857
-177.52
-222.593
488.708
-50.2421
-438.466
-16.4962
-302.646
319.143
-490.275
555.663
-65.3882
397.776
207.027
-101.217
-105.81
159.797
-224.896
203.725
-202.784
-307.056
135.858
410.593
-380.529
-9.38056
-279.816
82.8185
-885.487
885.487
135.51
6.21968
420.498
-426.718
-155.992
182.826
-26.8343
-522.62
312.304
-418.467
59.997
358.47
41.5338
157.765
-484.543
358.06
126.483
-240.4
437.524
51.388
307.939
41.931
-349.87
331.668
-68.9443
-411.06
-20.7794
110.987
-351.704
291.562
331.556
-214.044
-117.512
-61.5665
148.076
-86.5097
-932.876
-302.744
-223.673
127.346
96.3271
-287.487
219.221
-429.028
-521.887
259.344
511.168
-770.512
-149.53
-527.896
677.426
-440.095
180.097
-25.9906
194.12
216.371
-12.6463
-657.775
640.742
17.0332
62.3043
356.046
275.953
-52.7526
-223.2
-105.911
-506.81
612.722
-562.36
786.586
-224.226
-571.591
51.2548
-753.77
176.774
576.995
-982.039
411.957
570.081
-281.299
-274.819
-127.491
462.076
-968.616
438.043
-675.422
814.314
-138.892
593.334
-699.245
-208.448
252.6
-235.09
124.368
-799.79
-164.899
-693.883
858.783
644.58
-15.8265
501.258
326.803
-60.5901
261.377
-118.343
97.5091
-119.321
193.338
-520.547
255.838
-228.712
-27.1263
-146.739
319.758
-173.019
-172.576
-86.8295
519.943
-23.1478
-293.701
277.205
12.6588
624.18
-704.058
-650.977
-250.478
-249.409
26.2132
222.796
30.7278
415.303
-446.031
-347.075
330.282
16.7932
-141.069
156.458
561.593
440.239
-344.192
-202.294
546.486
178.161
-233.098
-78.4801
266.293
-62.7707
-355.696
180.626
-222.484
-239.767
302.071
202.048
-129.727
-458.546
-523.493
-295.001
-12.241
307.242
-279.948
151.918
128.03
-173.492
177.901
-186.715
-93.2325
226.472
-220.222
254.738
-282.37
27.6322
263.024
-69.8013
-193.223
-805.211
646.24
-315.823
-287.474
56.9943
-278.459
298.167
278.559
-114.645
512.421
195.658
-62.2257
294.058
521.36
-815.418
-195.875
166.837
40.7548
-559.21
409.827
-917.687
278.375
298.551
-797.8
-473.676
-73.1659
546.842
-540.31
469.116
71.1941
288.104
-210.136
54.144
-603.572
383.361
-7.98075
173.155
-303.936
334.664
163.106
-507.905
-135.458
-37.5138
228.955
-5.88641
280.199
269.948
-86.0603
196.746
749.609
-8.06629
297.985
-269.495
-28.4902
-230.148
-117.349
-123.995
-30.2084
266.596
679.806
258.869
88.2989
188.947
338.039
-129.461
-92.5345
287.986
-195.451
-420.057
101.906
496.431
-231.208
-265.223
292.778
-298.665
-18.7307
-672.501
691.232
230.401
-834.279
442.312
-231.234
46.1038
-308.757
-96.8018
-364.291
461.093
-124.252
139.783
241.954
-302.544
278.048
1.009
-874.32
329.769
56.0043
-327.46
-726.574
-512.773
-444.772
243.047
74.7998
-329.981
232.023
-310.504
167.87
73.8738
120.851
-224.992
104.141
-471.47
125.347
509.66
-923.961
-176.006
100.289
458.142
26.7817
-574.425
-421.445
19.2043
-600.315
-3.04647
300.28
-107.994
370.229
-262.236
-125.494
-90.2863
126.858
-186.227
-93.4635
-344.46
382.462
-209.341
-66.0106
275.352
-72.7691
224.687
-275.92
-263.01
245.221
17.7887
43.99
-231.785
277.889
365.047
-37.5904
-309.485
-18.2391
236.761
207.575
-26.7372
-180.838
-116.962
-467.839
54.197
413.642
-297.237
-122.131
419.367
150.487
-212.054
297.958
-269.836
105.128
-204.533
-109.781
314.314
782.778
306.823
-31.8912
-215.927
247.818
-19.0208
-521.289
-295.001
-743.431
373.544
369.887
9.2143
-299.696
-4.21522
276.828
-15.6307
234.095
249.764
-343.999
94.2353
-456.822
-108.153
-554.182
218.268
335.914
215.054
22.9017
237.804
317.542
-624.43
306.887
213.386
-424.988
211.602
-366.643
382.225
-677.803
295.577
919.069
-895.504
-718.083
443.536
-388.906
-125.366
514.272
163.587
134.398
-329.808
561.285
-366.488
-194.797
365.095
-186.935
-798.514
236.154
251.585
244.846
-224.431
59.5575
377.347
-113.948
181.969
-186.01
4.04129
233.278
11.6546
585.893
-612.973
-515.532
212.42
303.113
80.0632
-333.759
-163.853
497.612
80.1336
356.8
-176.174
264.894
59.9007
-472.339
194.726
283.128
156.347
-439.475
123.913
-255.168
-156.965
-229.255
-206.093
-366.019
21.5598
-28.7215
-629.053
-28.4967
228.809
-200.313
-333.566
171.729
161.837
-343.205
-101.831
445.037
-226.295
-98.9455
193.228
14.3469
-304.759
88.1624
167.141
122.089
-289.23
-275.139
-119.803
394.942
-364.66
-291.264
271.472
19.7921
158.01
-373.972
215.961
149.707
-262.785
113.078
-40.9585
-87.4899
-274.57
362.059
-397.903
220.638
211.642
-440.897
-286.785
140.699
146.086
-459.096
140.086
35.0537
-440.065
405.012
-199.689
-63.3214
155.717
373.53
-319.163
-54.367
-204.855
207.836
-2.98167
-260.552
147.132
113.42
-116.411
-132.301
-282.11
-110.667
899.684
-220.71
-25.6943
275.836
-490.446
288.181
141.905
-349.707
207.802
-357.586
-122.881
480.467
-470.272
-217.064
219.825
-29.1116
230.608
688.93
-707.66
-48.911
-273.892
322.803
79.2248
-709.421
630.196
215.244
80.5863
-295.83
289.748
-90.4717
-215.688
235.404
-365.867
-38.729
404.596
-710.898
39.4715
671.427
-446.64
-185.234
-72.1025
-264.835
521.854
-12.4357
-774.324
-19.3833
793.707
-171.907
501.756
-329.849
-185.532
479.59
187.333
-521.092
309.292
-90.831
90.0353
416.308
-425.832
432.052
-325.366
-122.777
448.143
-524.478
50.8021
331.582
6.4361
60.4093
-276.097
245.731
-49.5527
-196.178
-83.5145
-90.0627
286.772
-70.9625
-280.741
81.0558
195.652
-304.235
-86.6369
390.872
-281.405
328.741
-47.3357
-66.6812
266.355
-335.56
-114.811
450.37
-270.938
136.626
134.312
-137.965
-19.5141
40.0717
-651.867
611.795
-181.048
-251.941
-262.607
-238.8
-339.107
-82.9149
-217.483
-61.979
279.462
415.542
639.577
180.269
-271.627
91.3581
136.711
501.692
222.109
23.6226
186.494
-239.436
52.9415
-345.044
-159.487
-533.945
-70.8138
335.775
-182.449
314.839
-26.7355
621.568
-182.609
-4.4764
230.949
-246.872
275.333
-28.4606
713.584
2.61643
290.162
-602.232
492.527
109.705
223.818
52.1351
200.15
-26.0253
188.376
-332.715
114.369
-333.072
15.7432
-355.271
362.867
-7.59635
120.999
-225.67
186.617
22.644
-320.605
323.882
-3.2766
236.634
-302.645
245.973
-12.4423
-319.869
-126.17
-56.6658
233.828
11.9133
243.925
306.921
1.3429
-356.693
-147.587
504.281
-81.9543
-151.101
-202.641
-19.5838
96.7379
235.504
264.283
-294.491
282.922
-69.0693
-220.232
237.989
-17.7564
-1061.26
709.068
352.194
-419.532
122.295
275.782
7.68596
-283.468
-55.3445
346.906
578.443
-183.01
-17.8286
200.838
-42.9568
-208.2
-267.761
-51.5279
319.289
-291.249
-50.4633
341.712
-70.1566
-510.344
-91.8887
-797.65
785.349
12.3014
81.1175
220.341
-301.458
62.6663
274.239
-162.846
455.209
-292.363
-239.149
-59.5757
-418.48
111.45
-236.944
170.4
-268.925
-321.456
-91.5177
412.973
-96.8502
406.445
-309.595
-385.477
-73.1823
-231.17
-71.3738
2.19034
-404.954
-96.2631
-205.061
684.385
7.9625
636.122
-644.085
-199.163
43.2347
224.804
-808.975
584.171
187.781
-415.746
274.142
-17.8928
126.328
-996.153
-225.857
-84.6461
442.797
-9.30385
-459.417
-392.503
-93.7347
-657.4
213.39
-422.846
209.456
17.3413
253.862
-304.792
-70.7201
375.512
8.31012
-273.714
265.404
829.998
-116.414
-490.289
483.272
-59.7609
-714.563
-66.9634
395.206
-846.517
783.594
300.821
-466.494
403.723
-88.6717
-121.821
204.711
169.489
-374.2
-438.297
-244.423
185.753
19.8537
-205.606
-220.034
908.69
29.2591
-992.019
559.714
-219.23
-80.8813
300.111
701.382
31.1022
331.393
-97.2764
377.215
-355.655
-402.342
411.329
-8.98695
322.391
-328.693
6.30216
339.679
-109.071
-13.6844
-389.311
-125.514
-229.942
-101.551
-206.234
-91.4856
-580.765
760.549
-179.784
-202.251
15.5355
-188.035
-376.895
-462.463
412.221
101.588
-287.815
-141.466
-111.395
252.861
-45.0886
392.176
-347.087
307.475
-62.4271
217.07
-61.853
-155.217
85.4094
-256.411
120.326
176.361
301.128
-85.8844
-293.544
-102.83
206.165
520.851
-149.741
26.4566
-773.7
747.243
-301.119
121.145
-207.205
-30.3143
-47.6781
292.041
42.7914
772.078
-698.469
856.185
-110.776
-745.409
380.772
-77.2414
-303.531
128.95
-250.165
-97.7079
510.574
-412.866
-224.117
-65.0854
26.2328
-735.654
395.485
-116.88
-291.295
290.231
1.06404
-195.198
-85.1586
280.357
207.004
22.2506
-229.255
-31.3892
-130.613
-450.584
-610.678
-427.409
205.239
-11.7786
-236.639
-9.10702
239.508
51.1745
-534.986
483.811
-279.463
249.293
-426.813
192.796
-384.96
698.686
-302.474
69.7827
-272.567
202.784
-108.919
284.359
554.914
-170.635
-242.204
-144.88
234.361
844.375
89.489
-307.242
229.066
47.2308
724.847
-13.6241
195.593
-326.835
-93.2153
347.314
-58.4046
-432.425
-527.006
156.016
370.99
-154.063
-487.875
641.938
-570.972
1011.48
-693.8
113.035
-458.337
-307.916
273.569
85.894
-910.653
69.5807
841.072
-334.158
359.656
-63.8797
-3.19682
358.626
327.162
1.57925
223.312
-202.221
-21.0906
-321.614
101.58
-198.396
-6.45861
242.687
346.624
-71.7382
598.24
-113.479
279.962
76.0117
526.438
-96.7914
500.872
-87.8663
248.626
-25.5299
-223.096
385.204
-459.695
-312.627
772.322
529.592
-273.107
-279.494
-555.083
80.2468
474.836
302.151
-53.9762
-710.888
677.666
33.2219
515.689
-62.4347
-33.8186
635.818
-602
-316.853
247.052
270.874
57.1437
415.056
102.988
-375.198
211.328
-22.2478
301.193
6.28168
-425.744
-130.24
-41.0708
588.706
327.025
-317.822
-9.20325
-495.534
38.7115
-368.791
-329.914
303.178
41.2491
329.234
-284.164
288.89
-41.8385
-144.996
-252.591
-229.839
-2.91889
232.758
-401.196
-112.3
-31.625
547.414
-38.0839
-9.76843
477.295
536.97
-26.3702
-179.712
-276.126
319.842
-43.7164
-102.696
254.836
32.8229
-743.71
-297.265
-211.001
334.878
-393.558
-55.8358
426.332
617.23
226.646
-843.875
-140.696
532.329
-136.844
314.264
-251.514
-62.7499
-117.501
-572.514
-181.255
23.0649
211.326
115.836
-129.456
242.534
-259.92
-251.649
295.829
-44.1807
251.518
290.668
-418.16
688.77
411.091
-249.258
327.557
-78.299
-244.749
-452.23
-210.122
837.314
18.8707
356.317
-55.1237
-934.674
24.0211
351.543
-90.3794
-743.867
12.2701
-303.818
635.346
207.85
-91.5354
-98.2335
6.05394
299.271
-361.075
13.9468
347.128
-210.285
-112.394
244.911
-93.9036
-476.425
-82.7845
486.019
-76.1914
340.142
18.6179
-300.126
-78.5102
-102.172
-519.594
370.064
-118.542
653.459
-627.226
-275.81
348.06
-72.2501
-213.791
41.2153
284.016
23.8734
-445.847
-478.113
-432.269
972.82
-467.228
-505.592
518.184
-82.8093
-505.658
-97.9138
-66.5518
18.8634
488.386
-105.025
-25.0845
47.4693
181.34
-230.368
-194.63
51.2863
-71.0939
530.647
-109.711
-407.973
-360.548
308.669
268.776
-2.17947
401.769
-61.6273
-55.7688
-149.292
-185.178
-310.449
30.6337
63.3643
-266.005
438.088
-650.176
559.425
-84.9002
-474.524
758.979
-726.156
380.107
-45.229
-282.162
-312.699
24.4473
529.604
-103.272
-758.18
784.636
220.997
-5.06078
-215.936
-111.174
212.763
455.616
-53.1839
552.661
-131.355
-282.836
285.453
-107.199
-116.474
-202.277
226.716
-24.4393
-109.399
272.986
296.022
-35.0983
-65.8995
251.36
-473.409
-278.459
271.558
-235.863
-35.695
-371.695
376.644
-4.94921
-18.6303
-100.218
272.836
308.291
-311.205
2.91412
-247.807
-125.541
-0.232916
162.264
-325.27
393.683
-43.467
787.242
-743.775
-507.52
339.329
-48.6608
27.1081
349.62
11.402
-361.022
7.09109
382.219
197.934
479.2
24.9156
466.068
46.3533
355.825
-47.8855
-44.2339
230.728
210.936
77.0495
-854.703
862.665
-300.79
287.642
13.148
-551.211
253.147
-1.78694
738.992
-540.949
-198.043
261.836
-188.306
-73.5292
433.029
229.849
24.4116
495.531
-200.498
619.472
-418.974
69.0882
-49.9675
840.173
-790.206
-378.437
290.947
477.123
198.823
238.694
-1.93259
229.042
-163.609
-474.893
638.503
35.4084
210.565
53.3008
-558.987
571.575
-509.006
790.752
-279.021
-511.731
-287.846
-162.718
37.7823
270.726
0.74542
-231.432
-253.112
-334.773
-469.604
6.69883
187.058
-193.757
295.378
268.826
194.403
-792.653
768.436
24.217
6.33844
409.595
-449.166
39.5715
285.298
53.0501
5.54616
729.339
-734.885
81.7168
238.125
32.3008
101.123
-293.688
309.051
-15.3634
-886.686
-46.1896
200.193
-116.289
-485.048
601.337
-295.706
806.874
-138.424
-391.375
-104.159
-561.715
143.649
353.963
42.5533
-258.317
-24.5194
197.564
-150.094
1.81347
840.483
45.0037
-16.4305
306.592
474.451
-357.857
-116.594
-626.333
267.331
359.002
113.199
173.573
363.691
-348.622
231.109
126.072
286.901
229.906
219.251
18.7379
69.9698
-484.526
414.556
802.017
-252.554
-549.463
180.99
187.814
-368.803
319.734
402.025
254.688
3.55534
-626.288
-305.985
238.238
-889.984
368.228
57.3948
-421.686
64.1904
-633.027
-102.627
249.638
-363.251
348.186
554.153
-568.391
645.252
-76.8608
-14.132
376.169
412.836
-298.409
-29.0986
166.897
-137.799
-303.445
299.343
-19.1435
620.31
-348.186
-23.4408
378.915
-355.475
60.214
-186.008
225.698
-39.6902
-243.453
218.135
25.3185
288.87
501.883
172.86
-405.93
395.427
-1041.94
1047.49
97.0107
-8.23549
436.912
179.394
-58.2496
416.888
337.398
216.622
25.1482
240.733
367.091
-26.5692
-340.522
-650.572
648.173
2.39891
235.22
200.936
-13.8773
502.788
-432.818
-211.625
765.778
254.758
91.8874
232.376
-361.838
-180.57
26.8458
244.712
715.215
-149.024
-566.191
-832.653
895.504
292.85
335.725
208.945
-201.259
554.114
-992.41
406.159
308.549
275.463
-46.9688
448.622
291.574
60.2424
-418.802
358.56
-216.03
297.668
-13.3229
-4.42182
-824.384
694.119
788.504
-195.17
335.488
232.182
100.594
341.855
-20.4956
-321.359
269.84
258.488
279.889
-192.183
90.966
-275.749
286.528
-10.7791
409.595
-512.701
-257.81
-5.78556
222.407
426.147
-573.734
-278.422
20.1054
433.341
-103.446
-241.37
344.816
-334.194
-192.811
635.101
106.034
426.571
-942.974
516.403
-461.858
418.847
43.0114
-3.81378
256.206
-252.392
322.734
-262.52
259.548
-236.799
-22.7499
261.873
6.21063
-192.219
-846.114
70.9783
311.17
-382.149
-30.5426
719.058
-688.515
324.361
-297.039
-27.3219
-445.718
427.147
267.11
-224.319
-400.028
978.697
-578.669
289.316
-14.2488
200.002
539.355
460.645
-187.61
212.683
10.783
-223.466
-28.8628
401.479
-593.409
33.5703
559.839
203.491
251.448
-322.822
-20.5928
-351.102
-908.69
858.723
-494.408
1033.76
338.228
-49.6065
241.537
-2.39
-239.147
490.126
-435.929
67.0994
-718.966
-460.839
-1.01933
-260.866
320.453
-469.551
-499.065
299.841
-18.9434
-280.898
-959.777
439.604
-797.65
158.614
34.6921
-193.306
32.9321
597.264
649.15
-633.984
-296.518
817.878
-86.8634
208.524
368.482
-502.435
133.953
-118.015
349.685
-231.671
-703.423
750.654
-388.884
225.54
-225.784
235.356
-9.57171
-274.727
701.298
315.285
584.928
27.9515
-786.131
-233.189
244.087
-328.733
-64.9003
-228.477
240.237
-894.421
978.98
177.043
39.984
-217.027
267.561
-259.91
-94.7325
32.2455
398.806
208.523
-607.33
502.754
-902.782
466.697
-56.1037
-224.256
-5.38055
229.636
-114.595
-195.854
-252.004
58.7819
-163.809
-139.91
303.865
292.17
-265.324
-114.205
-320.394
434.6
282.912
291.229
-17.8751
-294.901
312.776
-691.465
18.9643
845.027
-886.686
919.069
-938.952
928.476
934.182
-934.182
-832.653
-996.153
241.738
-199.184
-240.195
-204.003
-189.552
-4.883
734.499
-956.5
222.001
-862.665
15.1477
-285.532
195.58
-36.9659
-763.28
791.232
229.876
-7.1137
-222.762
-246.25
254.56
-11.9036
-250.537
262.441
248.702
-14.1866
-234.516
203.524
-230.651
-23.6857
-254.136
277.822
-189.15
202.143
-12.9934
250.967
281.966
-348.505
408.747
108.59
-185.647
77.0577
-358.265
-575.449
-195.285
208.776
-13.4907
-420.142
-84.1771
504.319
197.114
-177.26
44.3998
203.398
-26.3553
-349.811
232.462
448.125
-99.9383
198.864
455.487
-45.8926
314.599
-374.385
59.7858
19.4373
-634.363
667.295
262.155
-462.653
-783.855
730.336
53.5193
480.832
497.865
52.8158
395.309
-231.389
248.73
-73.1871
-710.668
242.412
-323.293
689.122
-868.906
315.088
-703.04
387.952
132.118
263.74
-205.733
-58.007
-45.4429
-389.255
-867.076
592.349
-3.41886
263.028
3.27383
-311.598
308.324
19.0957
-40.9737
236.907
281.741
-37.0291
185.025
-58.1255
-126.9
738.251
20.7285
273.227
306.722
6.85792
184.428
-226.056
41.6282
233.427
-302.358
299.312
-283.643
-204.191
218.626
-14.435
74.8978
-495.04
245.818
147.865
-90.1554
824.654
-593.376
398.578
543.15
-629.717
226.782
-317.613
316.019
-434.033
194.443
-295.994
218.782
-196.532
-312.038
221.566
-192.58
-9.09992
201.68
223.632
-315.118
368.401
-266.432
-101.969
-0.229609
484.041
-442.562
-560.342
1002.9
-707.712
628.152
-50.5063
-320.437
370.943
21.3926
48.8998
-311.583
307.368
-273.332
-5.08974
203.578
45.5958
-249.174
-188.951
-233.895
-307.931
223.087
-208.688
-14.399
-311.598
-412.249
412.249
188.95
-659.222
175.384
152.551
308.324
727.559
-235.032
-41.6144
-646.102
687.717
521.723
-80.4523
237.724
-366.222
317.311
380.493
245.427
4.58484
232.263
-172.308
-59.9546
-40.0759
-686.729
686.729
-173.746
-389.663
-98.1764
-138.768
206.497
20.2686
-156.499
227.03
-424.294
480.476
-186.278
-198.682
693.337
-487.25
-206.088
-137.665
-112.5
500.106
-143.199
-76.1962
-28.3147
-486.523
514.837
-500.27
-287.569
508.667
-13.1358
-27.0603
-703.136
539.527
-458.624
-65.8537
767.544
19.6979
232.966
-113.082
773.895
-660.814
86.6502
801.109
683.256
825.84
153.85
-215.703
-388.628
-72.2103
-239.887
249.554
-211.152
50.1572
-204.629
-896.915
41.1574
855.757
31.4845
405.314
809.631
-265.954
249.504
16.4499
1066.41
-542.395
-524.013
-169.662
8.74699
474.525
203.897
-37.0602
299.556
246.93
431.831
-772.069
956.366
-184.297
-368.514
7.96642
233.287
19.3188
665.067
-78.1844
-222.605
-206.346
-225.923
203.604
92.3935
635.165
690.296
-731.911
92.2759
-795.699
23.38
654.286
752.371
-849.703
97.3317
-627.625
536.448
91.1771
627.428
-563.714
-63.7134
-447.209
522.107
47.1608
-123.405
-113.607
237.012
160.01
305.319
-583.042
397.808
191.552
-191.552
-200.953
220.304
-879.286
436.724
-649.571
533.282
-555.083
854.703
-944.858
24.4977
-238.624
206.898
-205.122
-210.624
-248.45
24.3698
358.092
37.4026
343.37
-354.203
-357.834
29.1415
392.346
-665.453
-55.3475
-726.846
782.193
205.854
-291.013
55.5788
150.287
-261.682
-623.585
656.286
-177.661
-91.264
8.30451
527.322
120.774
-312.551
-17.3621
-455.13
957.883
863.837
-863.837
334.422
44.4929
14.9122
462.382
-761.631
17.8558
649.118
18.1773
80.4836
417.725
-498.208
217.027
304.432
-4.15202
9.53149
671.852
19.3801
-795.889
614.634
195.958
302.92
-498.879
-808.121
529.1
211.512
-409.126
22.8832
-650.109
-191.724
-38.6339
230.358
-122.09
230.782
-108.691
15.7369
46.0042
357.573
42.4866
-206.204
17.3534
-233.44
514.274
657.832
61.2258
12.498
116.287
-126.459
-174.999
198.812
388.578
-499.133
-707.901
-64.168
-203.009
-467.191
-475.783
-274.081
-360.711
625.032
-515.327
6.84909
797.966
-804.815
318.307
50.0942
394.654
-60.2319
613.661
-50.6496
-563.012
313.598
-13.8306
-569.221
-90.7866
660.007
-10.8017
-221.332
-582.296
399.687
-173.731
-42.2755
216.006
227.546
611.278
66.1866
-208.866
-123.849
25.5648
206.376
-546.389
638.782
195.846
4.15534
-200.371
399.337
-198.966
280.168