/*--------------------------------*- C++ -*----------------------------------*\
  =========                 |
  \\      /  F ield         | OpenFOAM: The Open Source CFD Toolbox
   \\    /   O peration     | Website:  https://openfoam.org
    \\  /    A nd           | Version:  7
     \\/     M anipulation  |
\*---------------------------------------------------------------------------*/
FoamFile
{
    version     2.0;
    format      ascii;
    class       volScalarField;
    location    "27";
    object      p;
}
// * * * * * * * * * * * * * * * * * * * * * * * * * * * * * * * * * * * * * //

dimensions      [0 2 -2 0 0 0 0];

internalField   nonuniform List<scalar> 
115546
(
-0.00802566
-3.65896e-06
-0.0122473
-0.00289256
0.00128423
-0.000617265
0.289888
-0.0421554
-0.000138395
-3.96051e-06
-0.000165862
0.000225953
-0.00134599
-0.0487473
-0.000139623
-0.0468823
-7.72737e-06
-0.000220206
0.344132
0.00133014
-0.0437725
-0.00421992
-0.000252974
-0.00463873
0.467969
0.0557984
-0.0910323
0.0193248
1.20005e-05
0.332173
-8.06713e-05
0.0799622
0.00439254
-0.0117357
0.474193
-0.00132372
0.28891
-5.34794e-06
-0.194912
0.196413
0.0804535
-0.000223074
-0.0166219
-0.00132533
-0.0403842
-0.0488636
0.00223305
0.00499347
-0.000539489
0.000214522
1.92188e-06
-0.00248038
0.0898457
-1.97336e-06
-0.00239277
0.0911051
0.0729384
-0.0351643
-0.0214099
-0.0106353
7.85977e-06
-0.00479302
-0.000523416
-0.0154043
-2.80254e-05
0.000903881
-0.00111102
0.0529523
-0.0942484
0.0666285
0.213843
0.0356035
0.193656
-0.0316843
-0.0209721
-0.0230393
-0.0179037
-0.000578292
0.323866
0.0267761
0.0278109
-3.06768e-05
-0.0751727
0.0189533
-0.00247355
0.000220326
-0.016469
2.67209e-06
-0.0240263
1.24583e-05
-0.129572
-0.00934791
1.12697e-05
-0.000983559
-0.000279117
0.000395437
-0.000256656
-0.0753572
-0.0912876
-0.0239576
7.15351e-06
0.0240173
-9.96936e-05
0.00228234
0.214308
-0.0420872
0.212549
-0.0446628
-0.0127787
2.19803e-05
0.0217537
-0.000254079
-0.0159852
-0.00808471
0.593658
-0.0024243
-0.000166574
0.193112
5.1921e-05
0.0335849
0.195588
-0.0485281
-0.0121243
-0.00745202
-5.59805e-07
0.330086
-0.00471663
0.480051
-0.00119453
0.0399488
-0.0135966
0.000297615
0.170186
0.000219973
5.18853e-05
0.349213
0.449118
0.00423402
-0.00229133
-0.00473984
0.175456
-0.00182461
0.000100417
0.0939393
-0.0122722
2.42404e-06
0.0067296
-0.00480805
0.0538806
0.000700052
-0.0417008
-0.0416146
-0.00927209
-6.389e-07
-0.00243073
0.00622226
2.33494e-05
0.00169032
-0.021849
-0.0614482
-0.0226423
0.0066793
-0.000512839
-0.028296
-0.00863433
-0.000581981
0.0265133
-0.0179292
0.00119217
-0.00936315
-0.0101379
0.00244979
-0.171679
-0.0489406
-0.0245242
0.0504565
-0.0489662
-0.00172345
0.00329556
-0.000532252
0.0116402
-0.0206834
0.357514
0.0963222
0.213371
-0.000169958
-0.0030924
0.119559
0.0141565
-0.127341
-0.00169662
-0.0016366
0.369833
-0.0208679
0.0578684
-0.055834
-0.0491155
-0.00834834
-0.0221609
-0.0119246
0.104255
0.291973
0.0141205
5.80871e-06
-0.00299523
-0.0268879
-0.000425072
-2.60985e-05
0.0374029
-0.0284923
-0.0487273
0.210463
0.465668
1.34081e-05
-0.00979074
-0.0211388
0.0167645
0.00295676
-0.049284
-4.68364e-05
-0.0275802
-0.0187885
-0.00117196
-0.0222837
-2.10477e-06
0.410784
-0.000855624
-0.023167
-0.0549514
0.418888
0.0223108
-0.0316248
0.187829
-0.0205695
-0.0151707
0.105094
0.00044778
-0.000658576
-0.0199922
-0.00250895
-0.112773
-0.00759508
-0.0618764
-0.0947567
-0.00125797
0.000639486
0.0666001
-0.0234428
-0.0176238
-0.0453636
0.379146
-0.000944338
0.0897261
-4.49177e-05
0.48642
0.011985
-0.0379853
0.0201041
0.000330367
-0.043766
0.0122054
-0.0489086
0.0971293
-0.189482
-0.0132732
-0.00282276
-0.00493006
-0.00119306
-0.00454871
-0.0333337
-3.30867e-05
0.0149069
-0.000425876
-0.00748011
-0.00109166
-0.0172457
-0.036351
-0.024201
-0.00319158
-0.0449579
-0.0289088
-0.00124051
8.07934e-05
-0.0261007
0.000135956
0.00938526
0.405862
0.0841196
-0.0717771
-0.183046
-0.0366508
6.48234e-06
-0.0264272
0.207392
2.96092e-05
0.0160245
-0.00100736
0.0761222
-0.000140126
-0.0344225
-0.0491357
-0.0238242
-0.164773
-0.0055609
-0.0310978
0.0351377
-0.012699
-0.0228814
-0.164699
0.00345165
-0.0020262
0.211357
0.195764
-0.019904
-0.00145053
0.00010431
0.369893
0.000603123
-0.00448525
-0.0419716
-0.00468866
-4.17472e-05
0.0137017
0.590138
0.0449873
-0.0219219
0.00649227
0.0731495
-0.0497083
-0.0267923
-0.00203254
6.77888e-06
-0.000156989
-0.000980704
0.552909
-0.00272449
0.00665738
-2.98887e-05
-0.000624681
-0.00308023
-0.0114297
0.0509133
-0.104984
-0.0149891
-0.0078979
0.00130752
-0.00335994
0.497117
-0.0265532
-0.00268167
0.169937
0.126328
0.0121253
-0.0021591
-0.0125066
-0.00226934
-0.00747822
1.92746e-06
-0.000407737
0.00528519
0.114461
-0.0342651
0.291542
0.556324
-0.0174382
2.05535e-06
-0.0113696
-0.0159688
-0.00105078
3.50784e-06
-0.0664144
0.0692892
-0.0233491
-0.000366284
0.005122
0.00303625
-8.4102e-05
0.000210616
-0.000884843
0.0065864
-0.0317968
-0.0119537
-0.00812293
0.00484581
0.00950502
-7.31016e-05
0.184137
-0.0463459
0.00134405
-0.0336952
0.078136
0.168727
-0.0166943
0.0194019
-0.0184897
-0.001354
-0.16487
0.000547085
-0.000418636
-0.0154965
-0.0241354
-0.00142197
0.292119
0.187709
-0.181415
-0.0251745
5.24803e-05
-0.00559963
0.0136761
-0.0052042
-0.00829369
-0.00205592
0.00137743
-0.00263076
-0.00252416
-0.00309626
-0.000320391
-0.0989181
8.10899e-05
0.00936321
-4.91082e-08
-0.0492172
0.000295892
0.316767
0.198138
0.1355
-0.0249302
0.148058
0.071764
-0.0014562
0.00144241
-4.75431e-05
-0.0034
-0.0225307
-0.00550974
-0.00578834
-0.00563512
0.00029194
-8.64886e-05
0.000204795
-0.000600346
0.0407368
-0.00673978
-0.0159397
0.000127961
-0.0669388
0.000626591
-7.34876e-05
0.166842
0.0497701
0.226894
8.64657e-05
0.000167787
0.0014883
-0.01765
-0.00459606
-0.0601898
-0.0231827
0.101439
-0.00632692
0.29242
0.000653562
0.00129143
0.268311
0.206487
-0.0450136
0.00214591
-0.0485681
-0.00632723
8.72067e-05
0.00928446
-0.0460732
-0.0206621
-0.0320297
-0.00675995
0.0447738
2.33651e-07
0.00218851
0.0236089
0.025195
0.334549
9.12801e-07
-2.88695e-05
0.00154758
-0.0207781
-0.000353043
2.90456e-05
0.000812879
0.49883
-0.0336044
0.211267
-0.0154901
0.392807
0.0993583
-0.00261203
-0.0677896
-0.043292
-0.00779357
-0.000652571
-0.00331991
-0.000956198
0.329943
-0.0201527
0.28478
-0.013459
0.133815
-0.0156803
-0.0111803
-0.109995
0.107812
-0.00207043
-3.30532e-05
-9.91483e-05
-9.54385e-06
-0.00703516
-0.0400945
0.000290861
0.0123602
-0.000112612
-0.000114307
0.00178086
-0.0123601
0.000663064
6.93639e-05
-0.0179556
-0.00349005
-0.00340804
0.347813
-0.0452039
0.00549237
-0.0101192
-0.0286669
-0.000320796
5.0858e-05
9.11406e-07
-0.0284368
-0.0430016
-0.0254903
4.97468e-05
-0.011801
0.0525463
-0.105789
-0.0162836
-2.91488e-05
-0.0223883
-0.0118558
0.000156033
2.11885e-05
-0.022787
0.00150331
0.000110115
-0.0514073
0.000457876
-0.04337
-0.0181305
-0.0154303
-0.014749
0.000250132
-0.0312855
0.000327867
4.95393e-05
0.00376922
0.239611
0.415512
0.165957
-0.0076633
-0.00994999
0.183273
0.0118566
0.000290845
0.0322199
-0.0121866
-0.00956626
-0.00325608
0.050354
0.000899792
0.163912
0.00054726
-0.0044945
-0.01557
0.201758
0.000320876
-0.0199592
-0.0593348
0.099256
-0.0198399
-0.00442709
-0.0788347
0.000113703
-0.180161
-0.00368192
0.0164285
-0.0174467
0.00232619
0.0707302
0.190355
0.407596
0.148102
0.15577
-0.0353241
0.177349
0.0121941
0.201617
0.230346
-3.96184e-05
-0.00113809
0.41312
6.18242e-05
-0.192514
-0.0847743
-0.0157161
0.000830888
0.0254294
-0.000982881
0.00146266
0.339278
0.468532
-9.16337e-05
0.000335862
0.000836104
5.59766e-05
-0.168308
0.208624
0.112409
2.58872e-05
-0.0295885
-0.0241676
0.00057903
-0.00163174
0.0656384
0.460105
4.5191e-06
1.1191e-06
0.199316
-0.00183997
-9.43879e-05
0.0290382
0.00365188
-0.00266502
-0.00153302
-0.193838
-0.0131432
-0.000961747
-0.0239556
0.000344771
-6.42917e-05
-0.00222499
-0.0211972
-0.000141653
-0.0179561
0.000694192
-0.0191535
0.204292
2.07644e-05
0.586961
-0.0304455
0.392513
-0.0179908
-0.000334909
1.64419e-05
-0.000248752
-0.00458037
0.0958645
-0.00195981
-0.0113589
0.346716
-0.0443249
-0.0445313
0.00759634
0.00734944
0.346393
-0.00029458
-0.0197883
-0.0159657
0.000270751
-0.00813373
0.000708988
-0.00647963
-0.0417862
0.513125
-0.0442804
-0.00160537
-0.0169767
-0.00187373
0.0209509
0.0676923
-0.0113458
7.12088e-06
0.209039
-0.0107905
-0.0498928
-0.00198825
0.00450997
-0.0279138
0.00387308
-0.115916
-0.000589516
0.28769
-0.00449181
0.0678357
-0.0314623
0.0238919
2.15704e-06
-0.0272951
-0.0180138
-0.0201982
0.0281532
-0.0514664
0.000353557
-0.101263
-0.00097867
2.82053e-05
-0.00187517
0.000310135
0.465392
0.000277061
0.314351
-0.0173655
0.0228546
0.00241079
0.0747013
0.00285801
0.127953
3.6512e-06
-0.0196119
-0.00126048
0.00115385
-0.0211952
5.67806e-05
-0.0562101
0.438669
-0.0826932
0.000291397
-0.0841252
0.095363
0.355055
-0.000252097
-0.000179907
0.00169981
0.000234439
0.422389
-0.0113462
0.0621996
0.115787
0.000226667
-0.0712347
0.147715
-6.52531e-05
0.0161458
0.410236
-0.00153032
-0.000263918
0.000426703
0.0027931
-0.015499
-0.00466888
0.274942
-0.00766361
0.522475
0.614181
-0.00196214
0.000144563
0.285177
-0.00263372
-0.0135473
0.000319147
0.117369
-0.031557
0.496441
-0.00117388
7.13046e-05
-0.0108424
-0.12594
-0.0294911
-0.00057259
0.0100116
0.0971306
-0.000105839
-0.0966797
4.66204e-05
0.00135117
2.63051e-07
-0.175816
-0.0459623
0.165109
-1.01087e-05
0.407519
-0.0002677
-0.00770741
-0.000389048
-0.0464469
-0.0100976
0.0588105
-8.90819e-05
-0.0280761
-0.00127361
-0.0103542
2.47033e-05
5.16494e-05
-0.000150776
-0.0320431
0.00127402
-0.000731602
-0.0239947
0.00017067
0.000352881
-0.000549797
-0.000326844
0.181583
0.0502596
-0.14534
-0.0196816
-0.0397524
-7.02371e-07
-0.0827655
-0.0423584
0.000405333
-0.0254651
-0.00133917
-0.0272817
-0.126001
0.000535325
-0.0123728
2.92309e-05
-0.0044023
-0.000246712
0.189781
-0.00587952
0.000217267
-9.97772e-05
0.023051
-0.0362681
-0.00261641
9.25037e-05
0.277828
0.288598
0.00122278
0.0510718
-0.0870895
-0.0452748
0.000150434
-1.03317e-06
0.235974
-0.0264626
0.000177223
0.00877164
-0.000577976
-8.00603e-07
0.0436585
-0.0544418
-0.0441348
-0.0472182
-0.0174143
-0.00494157
-0.0132183
-0.000453475
0.13517
-6.07791e-05
-0.0249839
0.0317815
1.6613e-05
-0.0805883
-0.00807265
0.116687
-0.000549544
-0.00746751
0.369951
0.0382519
-0.0323211
-0.0162887
0.206554
0.00581001
-0.00979426
-0.0278594
0.205563
-0.00079238
-0.000218948
-0.0933592
-0.00771774
-0.0101805
0.546724
-0.00480204
-6.03084e-07
-0.203374
0.00192638
0.00433861
0.12767
-0.11198
-0.0405288
-0.00158432
0.118389
-0.0167764
0.044183
-0.00421708
0.0943026
0.0690769
-0.0214658
0.0894578
0.173978
-0.000245654
0.0411315
0.464954
-0.0915452
0.000409752
-0.0406956
0.115201
-0.0122395
0.0244486
0.203264
-0.00310819
-0.0014718
-0.00399856
-0.00304528
-0.0114229
0.0207566
0.000349474
0.347718
0.512422
-0.0270546
-0.00128942
-0.0267409
-0.031117
-0.0288908
0.195165
0.275513
-0.00159736
-0.0251491
-0.0310323
-0.000655826
0.0481713
-0.0467336
-0.00212252
0.0362894
0.000300852
0.129027
-0.114164
0.102418
-0.0216666
-0.174288
0.31927
-0.000936403
-0.0349072
-0.0736274
-9.57253e-05
-0.0177311
-0.0741596
-0.113898
-0.0473541
-0.00360017
-0.0102857
0.00288401
-0.117521
-0.000219721
-0.0118001
-0.0495296
0.149747
-0.042514
-0.0442535
-0.00708377
0.00137446
0.163057
-0.0327144
-5.82583e-06
-0.00197866
-0.000181765
-0.00963089
-0.0161195
-0.00116843
0.0464787
-0.190061
0.00378931
-0.0281472
0.0326372
0.032881
0.00132299
0.0024945
-0.00268836
0.569912
-0.0251365
2.23962e-06
-0.00208624
-0.000229516
0.277006
-0.0105622
4.93459e-07
-0.00747404
-0.00132069
-0.0457586
0.100469
0.0511317
-0.0882741
-0.0174499
0.000853229
0.369474
-0.0207362
0.0753409
-0.0045279
-0.0787039
0.0072091
0.00257472
-8.59977e-05
-0.00922617
-9.26951e-05
-0.0475325
-0.00072303
-0.0991168
7.29551e-05
0.0574885
5.28303e-05
-0.00203662
0.000125082
0.102216
-0.0174066
0.329642
-0.00560169
0.0764527
-0.164695
-0.000579033
0.325076
-0.0314714
-0.0162651
0.623998
-0.000353123
-0.00726822
-0.186645
0.0254098
5.39664e-05
-0.0129216
0.00481407
-0.0349048
-0.0209553
0.409717
0.00193563
-0.188942
0.0999969
-0.111281
0.00319803
0.00140928
-4.41878e-07
-7.83184e-05
-0.00123005
0.0131282
-0.000284047
-0.00243189
-0.00165522
0.352134
0.32879
-0.0482182
0.000116655
-0.0679481
0.0386583
-0.130492
0.000116118
-0.0913147
-0.0319281
7.34454e-05
-0.00392057
0.0309797
-0.0233629
-0.000493716
-0.0432201
0.556687
-0.06313
0.000291818
-0.0472267
0.0259508
0.00043031
9.46379e-05
-0.183931
-0.00119323
-0.113885
2.34133e-05
-0.00685585
-0.0317605
0.495068
-0.00826153
0.00397757
-0.0163808
-0.000104741
0.101069
-0.000239772
0.020699
0.112357
-2.13021e-05
0.0285085
0.00156961
0.497048
0.622058
0.0108938
0.444973
0.374605
-0.0937279
-0.0222125
0.000222593
-0.0103581
-0.0346968
-0.00118575
-9.09537e-05
-0.000685417
-0.000454204
-1.90379e-05
-0.0100115
-0.000410894
-0.0246331
-0.053351
5.30339e-05
-0.000130139
-0.169613
5.39153e-05
-1.06235e-05
0.0982187
-0.0110649
-0.0280884
-0.000699163
-0.0469714
0.011173
0.0390381
-0.00251781
0.00316888
0.126564
0.0346922
-0.0314875
0.000622789
0.000530474
2.00559e-05
-0.0209203
0.281987
0.00875244
1.88642e-05
-0.185278
0.000125729
1.9529e-05
0.0931345
0.000567521
0.485689
-0.00126026
0.203254
-0.00577156
0.00311904
-0.0065498
-9.32787e-05
0.123648
-0.000535559
0.00134099
0.448392
0.4106
0.57838
-0.00170701
-0.145726
0.036316
2.93709e-05
-0.0312064
-0.0038717
0.201324
0.251633
0.00220347
-0.127677
8.01258e-05
0.0394193
-0.000372743
-0.008153
0.00418136
-0.00135677
-0.00310114
-0.0117714
-0.00235591
0.0730993
0.100753
0.00174402
0.123026
-0.0223946
-0.190958
-0.0049337
0.0299822
-0.0173589
0.574067
0.320739
0.0129949
-0.0156454
4.78401e-05
-0.000367899
-0.0205961
-0.0414885
-0.0295107
0.0331392
0.191857
-0.163296
0.0791357
-0.000158715
0.0073643
-0.00435503
0.172699
-0.0478766
-2.06935e-05
0.124021
-9.78691e-06
1.2064e-05
-9.83527e-06
1.15026e-06
9.11929e-07
0.174416
0.00265322
-0.021897
-0.000679231
-0.152555
-0.0346345
0.334401
0.00180768
-0.000622791
-0.00212218
-9.89523e-06
-0.000468781
-0.0673604
0.0103823
0.118995
-0.004144
0.100408
-0.0161328
0.00623997
0.0191707
0.000555133
0.441621
6.50423e-05
-0.00257063
-0.000434762
-0.0158689
-0.00692776
0.172026
-0.00268102
4.20742e-05
-0.0762719
-0.00376562
0.195543
2.66685e-05
0.000123579
0.00010268
-0.0270111
-0.00119962
-0.0198248
-0.0463366
0.0757884
0.325988
-0.00118571
0.00016309
0.000773789
-0.00089218
0.076489
-0.0417779
-0.00232659
0.0285795
-0.19264
0.000578492
-0.0770709
-0.00199115
0.00207455
-0.0342537
-0.00018839
0.0164927
0.194408
0.301997
0.143613
-9.59141e-05
-0.144081
6.22758e-05
-0.0254611
-0.0258329
0.0726793
-0.00716623
-0.0958934
-0.0235488
-0.0287519
-0.00312571
-0.00712692
-0.0233278
-0.0876669
5.00979e-05
0.0663754
-0.000386138
0.246665
0.0394566
-0.000752219
0.000123606
0.00061945
-0.0117816
3.52184e-05
0.0796255
-0.00712484
-0.081504
-0.0577247
0.0444091
0.346218
-0.00944037
-0.0235329
0.109899
0.0169658
-0.000755214
0.00454429
0.583512
0.00138652
0.00243459
-0.163567
-0.00887943
-0.0224291
-0.00270979
0.249217
0.000157603
0.0919232
0.358756
5.54133e-06
-0.0103153
9.01842e-05
0.0714796
-0.00923646
0.00600574
-0.00471693
-0.00917183
-0.0222458
7.7224e-05
-0.00106162
-0.010784
0.0074193
-0.00266495
2.86213e-05
-0.00161209
-0.0252489
-0.0461913
-0.00401674
2.9253e-05
0.0134636
-0.000755255
0.000644536
0.0225842
0.137244
-0.0145554
-0.0201922
0.0734505
-0.000455409
4.12045e-06
-0.0261467
-0.000224746
-0.000281707
-0.0120804
0.0709635
8.23723e-05
-0.004926
-0.00155851
0.0169323
0.000131991
-0.000248153
8.87806e-05
0.0726829
-0.000761056
-0.00256883
0.0157452
-7.97808e-07
0.000185922
-6.17134e-05
0.17218
-0.000875663
-0.00443386
-2.92491e-05
-0.112676
0.123854
-0.00246328
-0.0891229
1.46946e-05
-4.15147e-06
0.00686515
0.000113314
-9.07312e-05
0.328451
0.00320017
-0.0015234
-0.0480059
0.000115392
0.000572975
-0.00832356
-0.00101055
-0.000608345
0.428486
-0.000135874
-0.0430038
0.208713
-8.55337e-05
-0.0234732
-0.000307636
-0.0217085
-0.0331322
0.0198608
-0.00519639
-0.000311213
-0.00504625
-0.104154
-0.00226909
-0.012179
0.000766145
-0.00049419
-3.14353e-05
-0.000131266
-0.052392
-0.0199599
0.083068
0.00209262
-0.0103066
0.563007
0.0932244
-0.0429979
-0.000124509
-0.0204015
-0.0261343
0.0361466
-0.0398851
-0.0685475
0.0720436
0.0792741
-0.0140507
-0.0393224
0.322266
-0.0427952
0.000203309
-0.0473968
-0.0490241
-0.00469219
0.00535006
-0.0172286
-0.00110912
0.0173312
-0.0269615
0.281822
-0.0349341
0.287221
-0.0301265
-0.000410099
0.00229768
-1.38641e-05
5.72784e-05
1.89123e-05
0.151412
-1.64334e-05
-0.0222974
-0.000116728
0.00712573
-0.0326185
-0.000234869
-0.00992795
-0.0235935
-7.41073e-05
0.140536
0.00420384
-0.000622596
-0.0224058
0.0645416
-2.48611e-07
0.0379028
0.00059651
0.178027
-0.0339576
-0.0309755
-0.0232407
-0.000614715
-0.000442042
0.0975375
0.17169
0.169875
-0.00397456
-0.0247315
0.279009
0.0434767
0.00578636
-6.63909e-07
0.0920413
0.0155715
-0.000138204
-0.0847225
0.348993
-0.0162347
0.000555674
0.51286
-7.40094e-05
-0.00574753
0.0705187
0.181692
0.077985
0.0778234
0.381764
0.246419
-0.000134951
-0.00038427
-0.000698815
-0.000606046
0.0807085
-0.0220557
0.299509
-0.0127163
-0.00493711
-0.0139079
-0.0665677
0.000466237
0.000674901
-0.000377329
-0.0281841
-0.000889497
0.00640457
3.16432e-05
5.1236e-05
0.00013888
2.03135e-05
0.00053595
-0.117938
-0.00435517
-0.131343
-0.119358
0.541951
-0.030081
-0.000178156
-0.00130809
-0.126426
-0.000596481
-8.22159e-05
-0.0104897
-0.00165464
-0.000391636
-0.00521659
0.0261912
-7.44103e-06
0.00425134
0.00272037
-0.000239514
-0.000179494
0.00239127
0.00340858
-0.0311147
0.034023
-0.0493152
-0.00913029
-0.0103145
-0.0347986
-0.000764535
3.26078e-05
0.000164233
-0.00321756
0.125189
-0.139296
-0.00425196
-0.0075378
-0.0790981
-0.000282887
0.350845
-0.00833887
0.062479
0.000579221
-0.000362887
0.000129805
-0.0542845
-0.0485554
0.345523
0.370109
0.0941477
-0.0102778
-0.0250116
-1.63298e-05
3.7655e-05
-0.00584478
-0.117136
0.160276
-0.0791357
-0.026151
-0.0271412
0.128539
0.00973846
-0.103994
1.93918e-06
0.0415665
0.130157
0.00388056
2.01474e-06
-0.00591813
-0.00316751
0.168078
0.0701825
0.0023149
-0.0105267
0.562722
-0.00909746
3.01551e-06
2.76981e-05
0.00693089
-0.0102769
0.0686478
2.98472e-05
-0.057973
0.00175762
9.77521e-05
0.408111
-0.00576036
0.0697013
-0.00643066
0.000593862
0.0111863
-0.0570932
0.208795
-0.0156691
-0.00941841
0.424145
0.000532938
0.0194865
0.0782866
0.29758
-0.000759283
0.0668435
8.94275e-07
0.000436975
0.10014
-0.00851767
-0.00184091
0.0374448
0.000151927
0.161755
-0.0510462
1.40526e-05
-0.042716
-0.00137552
-0.00515713
-0.000141745
-2.58458e-05
-0.0282966
-0.102079
0.000591031
-0.00380047
0.00141114
0.078202
0.321055
0.000178797
-0.00138372
-0.000276279
-0.0291246
-0.000164227
9.75527e-05
-1.12231e-05
0.317185
-0.00811608
0.000666659
-0.0313166
-0.0224715
-0.0439374
0.323247
0.244637
0.176257
1.49448e-05
-0.179622
-0.0297644
-0.00637748
-0.0402097
-0.000775057
0.128314
-0.0125823
0.00599872
-0.000603955
0.0127131
-0.0436586
0.0100168
3.1452e-06
0.0303534
-2.59349e-05
-0.000165753
0.0137091
-0.000950751
-0.0264203
0.547983
-0.0081838
0.00106795
-0.00177956
0.111391
0.184404
0.342444
0.196656
-0.0452323
-0.00140754
-0.000479105
-0.0156052
-0.0232487
0.00177594
-4.14144e-05
-0.0503601
0.00126857
-0.0191391
-0.00747658
-3.02762e-06
-0.085162
0.010925
0.386262
0.0989859
-3.51377e-06
0.0259636
0.00060567
-0.0419819
-0.0451408
-0.00936151
0.328053
-0.000315503
-0.0276624
-0.0142763
-0.000267557
0.000138594
-0.0228753
0.0906993
-0.0289462
-0.0277222
0.0105074
-0.0882985
-9.57905e-07
3.61176e-05
0.00760172
0.00352355
-0.0218381
-0.000474742
0.201642
-6.08771e-05
-3.68696e-07
-0.000518554
0.00228002
-0.00851435
-5.94023e-06
-0.0192748
0.0355535
0.110564
-0.001682
0.275354
-0.0131153
0.112239
-0.00685235
0.00619632
9.26933e-05
0.0128935
0.00909442
0.0448322
0.478117
0.144087
-0.00750712
0.000635088
0.172491
-0.00637251
0.212543
2.49322e-06
0.0474408
0.122492
0.378521
0.000209789
1.43577e-05
0.229345
0.364824
0.0819388
5.36325e-05
-0.137278
0.0521056
-0.00251619
-0.000811451
0.00340539
0.0191638
0.00629227
0.28417
-0.00134529
-0.0308743
-0.00221649
0.00189187
-0.000959327
0.332901
0.0770278
-0.00341773
-0.000517231
0.0642707
-0.0575346
0.00370583
-0.0258134
0.000241
-0.0249326
0.0112133
-0.00969626
-0.00177235
-0.0437088
-0.00633349
-1.42485e-06
-0.0817783
-0.0021503
0.000201612
0.00747179
-0.0010992
-0.00264477
0.0193573
5.93322e-06
0.0125864
-0.0349683
0.245727
-0.00012827
0.516203
1.10841e-05
-0.0053329
0.00531321
-1.91544e-05
-0.00493809
-0.00132531
-0.0448821
0.144977
-0.0175841
-0.0545248
-0.0304532
0.235271
1.19838e-05
-0.0930561
0.0305799
-0.0182244
1.53964e-05
0.556979
0.00438664
0.00670855
-0.00282998
-0.00182835
-2.4927e-05
0.247894
-0.00402204
0.0977553
0.000215491
-0.0352659
-0.000750741
-9.64854e-07
0.266265
-3.21475e-05
0.127296
0.444693
0.211613
-0.00587838
0.116476
0.123154
0.218831
0.280606
0.170072
0.399906
5.45566e-06
-0.0206457
0.121502
-0.000339912
0.200135
-0.0301105
-3.3233e-06
-0.000141873
-0.0231735
0.51853
0.00350186
0.0040446
0.073434
-0.000145158
0.000122357
0.00624779
-0.0204087
0.00634621
0.204169
0.495901
-0.0197065
0.289329
-0.0287706
0.0266874
0.333992
-1.53758e-06
0.17825
-0.00477938
0.0188652
0.00131941
-0.0827103
-0.00881545
-0.0334635
6.32321e-06
-0.0153912
1.95941e-05
0.125851
0.519054
-0.194982
0.000694748
-0.0341359
-0.0264468
-3.15327e-05
0.00486107
-0.0218215
0.00505802
-0.022134
-0.0196642
-0.000409151
0.000352438
0.0337557
0.00019121
-0.0242607
2.26623e-05
0.0820738
-0.00108795
-0.0263139
0.000188471
-0.00408555
-0.0279821
-0.0102886
-0.0402709
0.000626059
0.0499787
-0.0258669
-0.0475807
-8.47828e-05
0.0327739
0.0336582
-0.0620079
0.280624
-0.00504037
-0.0480179
0.0073331
-0.00353011
0.00420909
8.93886e-05
-0.112316
-0.0154831
-0.00247489
-8.24974e-05
-0.000545514
0.0694826
-1.04872e-07
-0.000333458
0.000110659
-1.05537e-05
-0.00137041
0.325038
0.585927
-0.000251774
-0.00653587
-1.072e-05
-0.0409258
0.00246702
-0.00713066
0.0161906
-0.00109161
0.100114
0.00222034
-0.000970789
-0.0010909
-0.00403295
-0.000480108
-0.000179745
0.237684
-0.00148235
0.511246
-0.0178956
1.25117e-05
0.074969
-0.000526055
-0.0199141
0.124561
-0.00268501
-0.0177602
0.49015
-0.0274715
0.000790863
-0.059157
0.0391848
-0.00509319
-0.0171326
-2.11629e-05
-0.0201578
0.000650286
0.358271
-0.00963312
-0.021698
0.0166666
-0.00494328
-0.00689795
-0.0127266
-0.0151292
0.112514
0.000962392
-0.0836082
-0.00486644
-0.00146078
-0.000329919
0.00413372
-0.0297674
-0.000812506
-0.0575579
0.0045306
0.000710305
-0.029044
-0.000206194
-0.000318529
-0.00110849
-3.26472e-05
-0.0461188
0.000984964
0.101046
3.86721e-05
-0.000354287
9.27631e-05
0.449741
-3.28958e-05
-0.0417117
0.0299148
0.115037
0.000347964
-0.00360939
0.00249773
0.00162077
-0.0110191
-0.0299047
-0.0274431
-0.0176085
-0.00452243
-0.000273909
0.0765318
0.0241988
-0.0283924
-0.000721915
-0.154879
-0.0293445
-9.25465e-05
-0.00591871
0.0369335
0.489584
0.315539
-0.00232182
-0.152296
-0.00900286
-0.000351687
-0.000129215
-0.0200019
-2.25079e-07
-0.0743874
-0.0184156
-3.44677e-06
5.34895e-05
-0.03233
0.00856567
-0.0240818
0.0337835
7.66176e-05
-0.0296761
0.0135922
-0.0242535
0.000186231
-0.0286178
-0.000300223
0.146771
-0.000403921
-0.0373888
-1.11137e-06
-0.00191629
-0.0231918
-0.100848
-0.0092444
-0.0230373
0.000152885
-0.00315062
-0.00900943
-0.0195248
-0.0527507
0.00391234
0.0398386
0.522756
0.00301089
0.0206282
0.000358476
7.8244e-05
-0.000116458
-0.0298478
2.11871e-05
-0.00111824
0.0667227
0.451705
0.48244
-0.000487223
0.239696
-0.00520325
0.000662601
0.000201324
-0.0142771
-0.0273707
5.22909e-05
0.021008
-0.014115
-0.0779791
-0.0480966
-0.0489471
-0.0188649
2.91178e-05
0.000758573
-0.00558608
0.154371
-0.028394
-0.0359966
-0.0251642
0.476378
-0.00719357
0.110453
-2.63194e-05
-0.0260191
-0.00344385
4.31984e-05
0.000880713
0.0015464
-0.00271894
-0.048302
-0.00166313
0.0187629
0.317913
-0.00520395
2.31269e-06
3.02767e-05
-0.0208075
0.02763
-0.0201393
-0.00689384
0.00100062
0.000477933
0.0826707
-1.94538e-05
-0.0145452
-0.000491713
-0.00544468
-0.00260595
-0.00278053
0.064707
0.00688593
0.00469245
0.0219227
0.621251
-0.0537404
0.176526
0.0745173
-0.0345012
-0.045049
0.00401067
-0.0345349
-0.0143062
0.101296
-0.0137194
9.07994e-05
-0.00421343
-2.21309e-07
-0.0428821
-0.00179671
-0.00137803
-0.00458342
0.20899
-0.000126248
-9.18197e-06
0.0127545
-0.1002
1.10956e-05
2.93169e-05
0.00101303
-0.139981
1.08567e-05
-0.0312101
-0.000816938
-0.0215913
-0.0215945
-0.0659623
-0.0114967
0.121689
-0.031925
0.000218128
-0.000518845
0.211863
-0.00530818
0.0118923
8.83021e-05
-0.0178166
-0.0179783
0.000119396
-0.0119056
-0.0183326
0.00252001
0.335114
-2.26196e-05
-0.0988562
-0.000537551
-0.000739167
-0.000260687
-0.00262358
0.153733
0.00338617
1.86455e-07
0.0891424
-0.0086383
-0.000308538
-0.11282
-0.0010269
0.0269989
-0.0441389
-0.000106087
-0.00105875
-0.028706
-0.0209431
7.39072e-05
-0.110584
-0.020582
0.00823259
-0.0283856
0.00786896
0.326835
-0.00570281
0.0209321
0.0946967
-0.000312154
-7.54237e-05
0.199754
7.4949e-06
0.609077
-0.0104499
-1.95571e-07
0.112872
0.145995
-0.147268
0.0015192
-0.0260091
0.0279704
-0.00417952
0.00845621
4.33634e-08
-0.00545463
0.0358673
-0.0192417
-0.013223
-0.00170501
-0.0346742
-0.00318126
-0.00191098
-9.04666e-05
0.0367989
0.478146
-0.0255942
-2.72774e-08
7.93713e-06
0.00102632
-0.000951389
-0.111647
0.112915
-0.0353906
-0.018811
-0.0726246
-0.102291
0.453281
5.97777e-05
0.0071013
0.00472791
-0.0363258
0.00142581
0.0531058
-0.00169222
-0.0005362
-0.00559415
-4.00943e-06
1.84966e-05
0.028765
-0.00124375
0.199058
-2.28851e-05
0.0371906
-0.00670585
-0.0232961
-0.0181671
-0.0176819
-0.0482363
0.00819925
4.98769e-06
0.047755
-0.0724764
-0.00634128
0.0736996
-0.0346028
-0.0129831
-0.0267961
-0.180572
0.0766388
-0.126245
0.0460251
0.000447707
-0.017837
0.000172232
0.109428
0.00920348
-0.000121847
-2.25359e-06
0.0819846
-0.000576835
0.0340827
0.175185
-0.118267
-1.8569e-05
-0.0166896
0.345974
0.0734278
-0.00441454
0.111139
0.0599005
0.0346838
0.000298958
-0.00113046
0.0118925
0.145793
-0.0281082
4.46532e-05
-0.000533212
8.57346e-05
-0.0369431
-0.0322243
0.0372102
0.032709
-0.0152127
-0.114939
-0.0302667
-0.0558651
-0.029881
0.278605
0.0237487
-0.0581269
-0.00115264
1.38724e-05
-0.00566473
-0.0714302
0.00145019
-0.000139369
0.0940996
0.0822852
-0.0235594
0.082897
0.00326744
0.350301
-0.000911462
0.128777
-0.0753769
-0.00107114
4.16587e-06
0.0250448
-0.0224308
-0.000535325
-0.00924996
0.178993
0.195561
-0.0129331
0.330224
0.129421
-0.0223356
-0.0200443
-0.0401562
-0.00238191
0.108345
-0.0371463
-0.000185411
-9.13797e-07
-0.000503501
-0.0242921
-0.0036875
-0.0167525
-0.0567265
-0.119328
-0.000646428
0.36684
-0.010098
0.191512
0.523949
0.115803
-0.0482614
-2.30234e-06
-0.0215044
0.00129108
-0.00544067
0.338926
0.085852
0.0723514
0.454346
0.00485768
0.0289277
-0.0267819
3.81634e-05
0.2504
-0.00312711
-0.0413014
-0.0171608
0.00566565
2.9031e-05
-0.0604892
0.0437236
1.89483e-06
0.518496
0.0563112
-0.000221392
-0.000139071
-0.000720238
0.203771
0.0530373
-4.76619e-07
-0.000735641
8.24071e-05
-0.000113432
0.00114133
-0.000721556
-0.0052487
-0.00257596
-0.00138092
-0.00547885
-0.000260377
-0.000218239
0.0230393
-3.058e-06
-3.9727e-07
-0.045943
-0.0304048
-0.00170473
0.269259
-0.0273727
-0.000370524
-0.00557733
-1.16975e-08
0.00282679
-0.0392799
-0.081032
-0.0875917
-0.000193237
0.198739
0.00243471
0.10135
0.0111886
-0.0135374
-0.0158786
-0.00641881
4.93827e-05
0.0060723
-0.0855396
0.000222061
-0.0281938
-0.0312149
1.31227e-05
0.552419
0.0914714
-0.000750595
-0.0360219
0.0921585
-0.0167696
-0.00739927
1.57042e-05
-0.0218508
-0.0123509
-5.15649e-07
0.0542059
1.83784e-05
-0.000641092
-0.0260505
-0.0483278
-0.00366018
-0.00470242
-2.88837e-07
-0.0366007
0.00137764
0.11383
-0.0223623
9.67447e-06
-0.00375583
-0.000738763
-0.0494472
-0.138373
-0.0819112
-0.00592914
-0.0433081
0.0829292
0.000814774
4.78391e-06
-0.00183207
-0.0227224
-0.00696707
0.418442
-0.0284981
0.590759
0.000135841
-0.0264013
-0.0478257
0.24372
0.326384
-0.00721224
-0.0010078
-0.0398573
1.3487e-05
0.449563
0.204802
0.0661658
-0.0273237
0.0462666
0.0823353
0.422734
0.15904
0.161701
-0.0378981
-0.108085
0.192514
-0.0466159
-0.000793028
-0.0817398
0.0157259
0.000567856
-0.0177731
-0.000119988
0.00351039
-0.00233728
0.00153518
-0.0184884
9.06184e-05
-0.0215301
-0.0891144
-0.0382479
2.06298e-05
-0.00292097
-2.47733e-05
4.11555e-05
0.0986869
-0.0421405
-0.0100813
-0.000225213
0.00753112
6.7216e-06
-7.86404e-06
-0.000297575
-0.000163205
-0.118015
-0.0330079
-0.000658341
0.0740267
-0.00107286
-0.0336903
0.0328512
-0.00611159
-0.00121523
9.42704e-05
0.00549777
-0.0272568
-0.00121304
4.30643e-05
0.00283453
-0.0535417
-0.0198445
0.0286572
0.000205315
-0.0215222
0.515253
0.000670591
0.000843817
0.0290578
-0.000278023
-0.000563143
7.30323e-06
-4.68244e-07
-3.66755e-05
0.0116836
-0.0417999
0.375104
0.553418
-0.000181798
9.09122e-06
-0.000187236
-0.0416273
0.627828
-0.00882261
-0.046879
-0.0284409
-2.485e-05
0.000620826
-0.0333058
-0.00172722
-0.0442824
0.00832815
-0.0758678
-0.040616
0.00105079
0.472864
-0.106985
0.000386444
-0.00105126
0.00663117
-0.015122
-0.114756
-0.0456693
-0.00616052
0.246492
0.350051
0.0979526
0.217664
0.0557574
-0.0487887
-0.00582428
0.00330789
0.0436105
-0.0230613
0.000319069
-1.60695e-06
-0.0846679
-0.105189
-0.000415236
-0.0185091
-0.0439545
-0.045264
0.340749
-0.00118038
-0.0211453
-0.0105275
-0.0241697
0.0532827
0.0184459
0.00306376
-0.00170094
-0.0120285
-0.00974349
-0.0080405
-0.0232683
-0.00309062
-0.0451301
0.184251
-0.0255933
-0.0111827
-0.00296408
0.124958
-0.107146
-0.0408989
-0.0689334
7.04949e-06
0.208811
0.0366876
-0.0278553
0.00136727
-0.0169793
-0.0105789
-0.00131772
-0.0351349
-0.00936078
-0.0855624
-0.00457228
0.00141127
8.78426e-05
-0.00010103
0.0245318
-5.10598e-06
-0.0127731
-0.0275868
-0.0284767
-0.000114769
0.00011681
0.000185305
0.00131156
-0.00741442
0.0122776
-0.0374207
-0.0423925
-0.0478709
-0.00773371
-0.00169141
0.429037
-0.00793606
-0.00252297
0.275519
-0.0112083
0.25583
0.415482
-0.00685297
0.0887139
-0.00971587