/*--------------------------------*- C++ -*----------------------------------*\
  =========                 |
  \\      /  F ield         | OpenFOAM: The Open Source CFD Toolbox
   \\    /   O peration     | Website:  https://openfoam.org
    \\  /    A nd           | Version:  7
     \\/     M anipulation  |
\*---------------------------------------------------------------------------*/
FoamFile
{
    version     2.0;
    format      ascii;
    class       volVectorField;
    location    "39";
    object      U;
}
// * * * * * * * * * * * * * * * * * * * * * * * * * * * * * * * * * * * * * //

dimensions      [0 1 -1 0 0 0 0];

internalField   nonuniform List<vector> 
7639
(
(1.14516 0.191056 7.58428e-22)
(1.0503 -0.0528456 -8.63474e-23)
(0.999338 0.157238 -2.37451e-21)
(1.05795 0.0894435 2.78673e-21)
(0.999184 -0.00100552 -4.387e-24)
(0.999961 -8.81385e-06 -4.92139e-25)
(0.99154 0.128926 -4.66597e-21)
(0.994742 -0.00188304 -8.53713e-25)
(0.999882 -0.000185571 -8.28374e-25)
(1.02727 0.00138089 -1.22366e-22)
(0.999963 -1.07012e-05 5.42661e-25)
(1.00223 -0.00124295 -1.738e-23)
(0.991985 -0.00236296 4.36411e-23)
(1.02205 -0.00208496 -7.31786e-22)
(1.02649 0.00171318 5.19276e-22)
(0.991115 -0.0150238 -9.06937e-23)
(1.15161 0.202343 -1.60934e-21)
(0.989246 -0.00301057 -1.51766e-23)
(1.00222 -0.00980258 -4.26785e-24)
(0.973212 -0.0890011 -8.05769e-23)
(1.03918 -0.00775368 -2.40842e-22)
(1.00148 -0.000777991 3.24864e-23)
(1.01935 -0.00366455 6.16653e-23)
(1.01342 0.038821 -1.47244e-21)
(0.985726 -0.00374908 -6.85121e-23)
(1.13581 0.189451 -7.9842e-22)
(0.999228 -0.000958203 -3.06255e-24)
(1.02576 -0.00245739 2.95283e-22)
(1.00548 0.0171085 -1.83873e-22)
(1.00366 -0.0104633 3.2985e-24)
(0.986418 -0.0156607 -1.58756e-22)
(0.826151 0.0531778 7.8681e-22)
(1.01918 -0.00455085 3.81773e-22)
(0.999529 -0.000401155 5.42614e-24)
(0.999898 -7.05508e-06 1.03916e-26)
(1.02712 -0.000188118 1.78965e-22)
(1.00416 -0.0114449 4.32477e-24)
(0.998307 0.125074 -7.32063e-22)
(0.996215 -0.00801473 7.37971e-23)
(0.999671 -5.97895e-05 5.23529e-24)
(0.996626 -0.00826259 -8.21763e-24)
(0.991259 -0.0141093 -3.26049e-23)
(0.993941 -0.10129 3.9345e-22)
(1.14002 -0.106706 1.68956e-22)
(0.999804 -1.28168e-05 1.69191e-24)
(0.999921 -1.56481e-05 -4.88134e-25)
(1.00142 -0.000629118 -1.98142e-23)
(0.996067 -0.00734735 -4.38251e-23)
(0.999934 -2.98929e-05 -3.94292e-25)
(0.976585 -0.0901834 1.17511e-22)
(1.00328 -0.00108449 1.89381e-23)
(1.02516 -0.00173196 -3.05491e-22)
(0.981452 -0.00445415 -2.30641e-22)
(1.0096 -0.0321021 1.78333e-24)
(1.02767 -0.000693268 -1.02344e-22)
(0.995386 -0.00259463 -8.0492e-24)
(1.00217 -0.00909999 9.95421e-24)
(0.994705 -0.00163217 5.98929e-23)
(0.977226 -0.0185172 -2.8076e-22)
(0.99951 -0.000357173 -6.94606e-24)
(1.00004 -2.31264e-05 -7.0661e-25)
(1.00426 -0.00125307 2.12026e-23)
(1.0222 -0.00137854 -1.73372e-22)
(1.00242 -0.00109317 1.76013e-23)
(0.999054 -0.0001913 9.82834e-24)
(0.986973 -0.016271 2.63427e-23)
(0.999906 -0.000185164 6.35559e-25)
(1.00001 -2.73895e-06 4.48261e-26)
(1.23797 0.0275175 -5.78392e-23)
(0.996267 -0.00697428 -1.35848e-23)
(0.999927 -1.91574e-05 4.32064e-25)
(0.968283 -0.0535809 -5.63851e-22)
(0.986331 -0.00416824 3.34782e-23)
(0.974504 -0.00549888 4.50172e-23)
(0.989721 -0.0033301 4.74455e-23)
(0.965142 -0.0260417 -6.06545e-23)
(1.00524 0.159265 3.80368e-21)
(1.03713 -0.00743907 3.08326e-22)
(1.09961 -0.0193309 -2.82416e-22)
(0.954522 -0.0431337 -6.76552e-22)
(0.992363 -0.00261672 -6.68817e-23)
(1.00131 0.0749032 4.45267e-21)
(1.0475 0.00379457 7.37071e-22)
(0.974 -0.00970089 2.08229e-22)
(0.998639 -0.00252435 -7.20867e-24)
(0.997786 -0.000321889 7.30856e-24)
(0.99439 -0.00248088 8.20848e-23)
(0.98216 -0.00498931 1.47725e-22)
(0.999372 -0.00118299 4.68036e-24)
(0.995594 -0.000669028 2.57368e-23)
(1.00585 0.0195034 1.37055e-21)
(1.18115 -0.119747 -3.24722e-22)
(0.999868 -5.37749e-05 -1.02307e-24)
(1.00177 -0.00768988 4.34781e-24)
(0.996506 -0.00102976 2.33375e-23)
(0.974225 -0.00305006 -3.63492e-22)
(0.970504 -0.0534239 3.78811e-23)
(1.01153 -0.0311591 2.29123e-23)
(0.998495 -0.00243357 2.34976e-24)
(0.998872 -0.000194317 3.27562e-24)
(0.951618 -0.0154828 1.53731e-22)
(1.1028 -0.0137821 2.59365e-22)
(0.996702 -0.00117132 -5.81096e-23)
(0.999975 -1.40403e-06 -4.19671e-26)
(1.19499 -0.111844 -2.6924e-22)
(1.03997 0.0373119 -1.26804e-21)
(0.914742 0.0393685 8.40703e-22)
(0.995078 -0.00244896 -3.34991e-23)
(0.999992 -2.89695e-06 8.34267e-27)
(1.02618 -0.0164941 -1.18326e-22)
(1.06153 0.0836771 -3.23359e-21)
(1.01398 -0.081322 -5.15476e-22)
(0.99999 -3.34239e-06 -1.42547e-26)
(1.02796 -0.017183 -2.56114e-23)
(1.03533 0.0356815 1.33461e-21)
(1.00043 -0.000576847 -1.51289e-24)
(1.04968 -0.108246 -4.37385e-23)
(1.03741 0.0196743 -2.99972e-22)
(0.980663 -0.0437805 2.45639e-22)
(0.974201 -0.0066791 -4.72553e-23)
(0.948628 -0.0100947 -3.69787e-22)
(1.00149 0.0300708 -2.90146e-21)
(0.999263 -0.101442 -5.37548e-22)
(1.00992 -0.00850205 1.01968e-23)
(0.950277 -0.0115716 1.45078e-22)
(0.999077 -0.00137765 1.0406e-23)
(0.987756 -0.0119391 5.36497e-23)
(1.00277 -0.00866599 -6.71317e-24)
(0.999003 -0.000141342 -2.19602e-23)
(0.986571 -0.0144511 2.96148e-24)
(1.18836 -0.166414 -1.91384e-22)
(1.09177 -0.0192675 5.19204e-23)
(0.999414 -0.000549293 5.91354e-25)
(0.999263 -0.00120971 -9.10855e-24)
(0.972816 -0.00885377 6.1898e-23)
(1.05644 0.0748258 1.16398e-21)
(0.996213 0.0268034 5.40004e-21)
(0.999977 -2.38914e-06 -4.9479e-26)
(1.00734 -0.003329 8.96995e-24)
(0.931092 -0.0123873 -4.62561e-22)
(0.976108 -0.0039951 -1.86601e-22)
(0.983204 -0.0604689 -3.77076e-22)
(0.965497 -0.028042 8.24088e-23)
(0.975921 -0.00496707 -3.97743e-24)
(0.905073 0.0308644 3.35522e-21)
(1.00855 -0.0484369 -1.50619e-23)
(1.01243 0.0229069 -6.92074e-22)
(0.979271 -0.0221914 -1.48302e-22)
(0.964765 -0.00516881 5.14815e-23)
(1.00156 0.0510992 -1.43611e-21)
(1.02714 0.000159639 4.43068e-22)
(1.1665 -0.110324 -4.14167e-23)
(0.998569 -0.00202441 -2.47937e-23)
(1.23794 0.0101153 -1.01782e-22)
(1.04494 0.00371527 -7.72878e-22)
(1.0157 0.128942 -3.58667e-21)
(0.959985 -0.030215 2.5512e-22)
(0.991983 -0.00182839 1.49609e-23)
(0.926083 0.105562 7.32267e-21)
(0.999939 -2.55849e-05 -3.70785e-25)
(1.00129 -0.00812831 -1.52246e-24)
(1.0134 0.0424274 1.0688e-21)
(0.999979 -1.97574e-05 2.3742e-25)
(0.99825 -0.00512833 -3.51892e-23)
(0.996053 -0.000996415 -1.11695e-23)
(1.00397 0.041527 -3.55271e-22)
(1.00206 0.0260201 1.34434e-21)
(0.914433 0.115302 2.46439e-21)
(0.997962 -0.00495914 -2.16129e-23)
(0.996953 -0.000381287 -1.27846e-23)
(1.00001 -3.61188e-06 -4.20075e-26)
(0.945707 -0.00610692 -6.33066e-22)
(1.00042 -0.00051761 2.08933e-24)
(1.05324 -0.0492526 9.8154e-23)
(1.00772 -0.00356822 5.9976e-23)
(0.965582 -0.00613484 1.05617e-22)
(1.19554 -0.0921636 -3.77553e-22)
(1.16901 0.0680373 -3.37558e-24)
(0.99987 -6.71804e-05 5.57647e-25)
(0.999511 -0.000627491 -6.27299e-24)
(1.06139 0.0949661 -4.92517e-22)
(0.999939 -1.77398e-05 -1.80279e-25)
(0.99989 -1.28271e-05 2.67778e-25)
(0.992004 0.137366 -3.89744e-21)
(1.05124 -0.057019 -1.06847e-22)
(1.00414 -0.0671379 -2.66628e-22)
(0.982643 -0.0426551 -3.47222e-22)
(0.976731 -0.00716044 1.35921e-22)
(1.00542 -0.0492213 2.9419e-23)
(0.932687 -0.0104828 2.44168e-22)
(0.999977 -1.80513e-05 -8.46899e-26)
(0.971446 -0.0502516 -1.34678e-22)
(1.17833 0.0782993 -3.76293e-22)
(0.996688 -0.00142802 8.34391e-24)
(1.00007 -6.73759e-06 -5.23467e-25)
(1.12515 0.0904962 6.81602e-23)
(0.998778 -0.000393757 2.31608e-23)
(0.987418 -0.0139248 8.55951e-23)
(1.00303 -0.0463219 9.43592e-23)
(1.00002 -2.23272e-06 -1.77482e-26)
(1.00089 -0.00199941 -8.38196e-24)
(1.05099 0.0748531 1.49351e-21)
(1.16069 0.097758 -7.4256e-22)
(1.00842 0.114073 -4.82178e-22)
(1.04882 -0.101426 2.81396e-22)
(1.01835 -0.0788918 1.12681e-22)
(1.07273 -0.152748 -1.15689e-22)
(1.0265 -0.00215615 8.82544e-22)
(1.04613 0.0696727 -4.87076e-22)
(0.99979 -2.25754e-05 -1.9832e-24)
(1.00004 -2.09504e-05 1.85944e-25)
(0.937343 0.0168767 -3.21951e-21)
(0.992454 -0.0135581 -3.10779e-23)
(0.999391 -0.000488501 -5.84544e-24)
(0.973637 -0.049682 2.79851e-22)
(0.987171 -0.0125686 -6.30049e-23)
(1.02941 0.118086 -3.91013e-21)
(1.02373 0.114697 -8.18976e-22)
(0.980456 -0.0615438 1.02385e-22)
(0.860126 0.0753563 -2.94016e-21)
(0.998867 -0.000444833 -1.70559e-23)
(0.989288 -0.00260659 5.52422e-23)
(0.949857 -0.0140911 2.01518e-22)
(1.03779 -0.00216356 -1.79944e-22)
(0.991469 -0.123223 -4.67488e-23)
(1.18828 0.175904 -1.17101e-21)
(0.926943 0.0926198 -6.22767e-21)
(1.00006 -0.000109288 5.89781e-25)
(1.00997 -0.00779889 2.94591e-23)
(1.03527 0.0231827 1.63322e-21)
(0.996204 -0.00604936 -5.54922e-23)
(1.04092 0.0194475 -2.02977e-22)
(0.99948 -0.00128937 -1.51795e-24)
(0.881022 0.128263 5.20572e-21)
(1.01593 0.119116 8.07402e-22)
(0.994386 -0.00214447 5.21157e-23)
(1.00359 -0.00877587 -1.29612e-24)
(0.999692 -6.70717e-05 -9.7279e-24)
(1.23703 0.0967448 7.78554e-23)
(0.999905 -1.04802e-05 7.93504e-25)
(0.994698 -0.0110357 2.7082e-23)
(0.939454 -0.0274983 2.80561e-22)
(0.999927 -2.65402e-05 -1.7912e-25)
(0.998743 -0.00295299 -5.94747e-24)
(0.999593 -0.00125204 2.7578e-24)
(1.09996 0.0483068 9.96249e-22)
(0.999979 -2.56909e-05 2.86508e-25)
(0.995407 -0.000513793 3.01611e-26)
(0.956731 -0.0429872 7.78183e-22)
(0.82833 0.0399225 -1.73692e-21)
(1.08861 -0.0243441 -7.70344e-23)
(0.900091 0.0873491 3.8349e-21)
(0.999953 -7.98905e-06 -4.52735e-25)
(1.00056 -0.0467799 -5.82871e-24)
(0.999815 -0.000320833 -2.20273e-24)
(1.00821 0.132485 -3.67617e-21)
(1.00403 -0.000861333 -2.73255e-23)
(0.994664 0.0414235 1.73574e-21)
(1.0027 -0.0104846 -1.83732e-23)
(1.00079 -0.00215483 8.8624e-24)
(1.02832 -0.0394805 1.04811e-24)
(1.02655 -0.00125378 -8.16887e-22)
(1.00058 -0.000347134 4.38863e-24)
(0.999771 -5.5444e-05 5.14818e-26)
(1.00052 -0.000467448 9.83241e-24)
(0.996003 -0.00641325 -4.99522e-23)
(1.01012 -0.071099 3.27235e-22)
(0.999956 -1.05375e-05 3.05673e-25)
(0.961555 -0.0290511 1.79089e-22)
(0.996252 -0.00114249 -2.13865e-24)
(0.999857 -4.67083e-05 1.08883e-24)
(0.999371 -0.000607319 1.89697e-24)
(0.988151 0.0794064 4.23129e-21)
(0.991951 -0.000853002 2.15145e-23)
(0.999229 -0.000106038 -1.98748e-24)
(0.870731 0.0181367 6.47268e-21)
(0.998587 -0.00283553 -1.35151e-23)
(1.10907 0.135943 -1.00462e-21)
(0.999793 -0.000296106 3.97678e-24)
(1.00731 -0.0240026 -7.77597e-24)
(1.00002 -2.13763e-06 -1.6085e-26)
(0.980921 -0.0355781 -1.36093e-22)
(1.03683 -0.00254756 2.81573e-22)
(1.20599 -0.0856091 8.12103e-22)
(0.977418 -0.0199379 2.38648e-22)
(0.999588 -0.000634692 7.23072e-24)
(0.974029 -0.0767801 1.7618e-22)
(0.983311 -0.000488754 9.76741e-23)
(0.999817 -1.9771e-05 1.02302e-25)
(1.0005 -0.000410675 -8.6959e-24)
(0.997919 -0.00369734 1.87444e-23)
(0.992329 -0.00153158 -6.4508e-23)
(1.00304 -0.000997027 -3.23164e-23)
(0.998772 -0.00203692 8.99436e-24)
(0.975299 -0.00908676 3.2805e-23)
(1.01486 -0.0698985 -2.33763e-22)
(0.975436 -0.00764014 1.44312e-22)
(1.14053 -0.0937212 -4.6775e-23)
(0.967615 -0.00835426 -1.8505e-22)
(1.03578 0.154055 4.07784e-22)
(1.02925 0.158555 -3.04108e-21)
(0.99848 -0.00081101 -1.48535e-23)
(1.22444 -0.110526 -1.64654e-21)
(0.999983 -3.25755e-06 -2.74123e-26)
(0.99786 -0.00456981 -2.30726e-23)
(0.973566 -0.00212657 3.74219e-22)
(1.00964 0.0340996 8.84042e-22)
(1.04994 0.00967602 -7.39117e-22)
(1.0001 -3.34578e-05 1.20022e-24)
(0.998002 -0.00431558 -1.52186e-24)
(0.968716 -0.00926591 1.38789e-22)
(1.07515 0.0454913 -4.49077e-22)
(0.999001 -0.00126762 7.74147e-24)
(1.00351 -0.000803319 1.82714e-23)
(1.00127 -0.00105843 -1.60154e-24)
(1.16749 -0.0189612 -1.33515e-22)
(1.17926 -0.173846 -1.06807e-21)
(1.07239 0.188178 1.79939e-21)
(0.998387 -0.000265241 -1.44824e-23)
(1.06107 -0.0582795 1.87353e-22)
(0.999884 -7.19423e-05 -8.91157e-25)
(1.00486 -0.00780029 -6.09633e-23)
(0.999945 -1.4554e-05 -1.27978e-25)
(0.984669 -0.0217004 4.25263e-23)
(0.999649 -7.98284e-05 -1.85925e-24)
(1.01204 -0.0241335 1.30735e-23)
(1.2417 -0.137272 1.70784e-21)
(0.972446 -0.0279544 2.90246e-22)
(1.00863 -0.0234864 -2.24135e-24)
(1.00893 -0.00695912 -3.80518e-23)
(0.999259 -0.000138858 8.92647e-24)
(1.02797 -0.021471 8.1551e-23)
(0.996114 -0.0198869 4.49235e-23)
(1.09771 -0.00481574 -1.94272e-22)
(1.09158 0.0469936 4.75209e-22)
(1.09841 -0.18932 1.71791e-23)
(1.13124 -0.112951 -5.15299e-22)
(0.982593 -0.000986413 -1.04533e-22)
(1.00524 -0.00390929 5.80829e-23)
(0.941671 -0.0261374 -1.08522e-22)
(0.902125 0.113564 -7.75829e-21)
(1.11363 -0.100949 6.21722e-22)
(1.02966 -0.0137695 -3.45691e-22)
(0.872467 0.081989 -3.92879e-21)
(0.998443 -0.000203497 7.1738e-24)
(0.998223 -0.000998278 -4.58052e-24)
(1.15509 -0.11621 -5.60705e-22)
(0.998922 -0.00220933 -4.80685e-24)
(1.0094 -0.0453837 2.86367e-23)
(1.00606 -0.0018565 2.03567e-23)
(0.997102 -0.000442529 -1.14367e-23)
(0.997879 -0.000369842 -1.80169e-23)
(1.04365 0.0296666 9.54556e-22)
(0.999932 -0.00015837 -6.95379e-26)
(1.00056 -0.000287592 -3.90317e-24)
(1.00008 -1.34223e-05 8.97317e-25)
(0.996442 -0.000691517 6.05419e-23)
(0.993504 -0.00967056 6.92191e-23)
(0.999982 -2.46534e-06 2.08299e-26)
(0.998881 -0.000263391 1.82804e-24)
(0.978318 -0.0175936 8.35027e-23)
(0.93514 0.0244086 2.03653e-21)
(1.01044 -0.0248517 7.38588e-24)
(0.992534 -0.0127205 1.12728e-22)
(0.95173 0.0912428 8.55109e-22)
(1.00132 0.0279958 2.51245e-21)
(1.07995 -0.0130665 -1.7149e-22)
(1.2232 -0.0953544 5.70881e-22)
(0.944416 -0.00449743 3.47605e-22)
(1.00519 -0.00453342 -2.87109e-23)
(1.01322 0.0589214 -1.39288e-22)
(0.988378 -0.00229665 -1.30244e-22)
(1.07562 0.14021 2.95556e-23)
(1.00445 -0.0524927 4.63198e-24)
(1.01329 -0.118292 -2.03298e-22)
(1.15029 0.0937744 4.89565e-22)
(1.08127 0.149239 -1.48115e-21)
(0.963112 -0.0251664 3.93549e-22)
(1.05059 0.00689384 -4.65485e-22)
(1.20065 0.183593 1.05227e-21)
(1.09876 0.138851 2.01499e-21)
(1.02752 -0.00313519 2.7628e-22)
(0.996896 -0.00154246 1.31336e-23)
(0.995685 -0.00238166 1.14522e-23)
(0.999909 -2.6258e-05 -4.18669e-25)
(1.01598 -0.0314624 2.44461e-24)
(0.988049 -0.00192453 3.073e-23)
(1.00105 -0.00249325 -7.33944e-24)
(0.99989 -2.59393e-05 -7.89122e-25)
(0.998356 -0.000740535 5.81929e-24)
(0.971866 -0.0753068 -2.94795e-22)
(1.15475 0.00942851 9.85313e-23)
(0.982032 -0.00615244 -1.6666e-22)
(0.999079 -0.0131701 4.98283e-23)
(0.996079 -0.000766799 -3.23329e-23)
(1.05719 -0.059841 -1.43557e-23)
(0.99267 -0.00160576 -1.03231e-22)
(1.00248 -0.00785302 2.17656e-23)
(1.22463 0.160754 1.95633e-22)
(0.998105 -0.000353387 -4.18058e-23)
(0.999977 -4.91113e-05 -1.98884e-25)
(0.999945 -0.00019189 -1.11993e-25)
(1.00005 -0.000111733 7.68597e-25)
(0.977749 -0.00798337 7.65244e-23)
(1.04097 0.0271659 -1.11949e-21)
(0.995841 -0.000583444 1.28956e-24)
(1.02511 -0.0115712 2.26352e-22)
(0.996427 -0.129536 3.81664e-22)
(0.999607 0.116966 -8.68826e-23)
(1.00409 -0.00793388 1.99656e-23)
(1.00692 -0.00504032 -9.63474e-24)
(0.994739 -0.00266642 -4.13904e-23)
(0.993862 0.0773341 -4.11752e-21)
(0.998919 -0.000140607 5.95286e-24)
(1.07927 0.195181 -8.79446e-22)
(1.00961 0.023548 -1.34782e-21)
(0.99988 -3.17745e-05 9.23547e-25)
(1.00225 -0.0530744 -1.59576e-22)
(0.996565 -0.000801383 -2.96088e-23)
(0.986268 -0.0617838 4.62388e-22)
(1.00058 -0.000154865 3.91658e-24)
(1.07547 -0.00802991 2.52073e-22)
(1.00709 -0.0176068 -5.18602e-25)
(1.00648 -0.00460983 4.82406e-24)
(0.999128 -0.00017017 -1.1822e-23)
(1.10538 0.0424068 4.50377e-22)
(1.06825 0.0446092 1.67586e-22)
(1.00145 -0.0693325 2.62007e-22)
(0.979019 -0.0205576 -1.58986e-23)
(0.997801 -0.00394589 -1.61619e-23)
(0.998067 -0.0423681 -2.87767e-22)
(1.22076 0.00186723 1.76556e-22)
(0.836018 0.0618491 -3.82707e-21)
(1.0681 -0.103708 -3.14008e-22)
(1.00538 -0.0084544 -8.90874e-24)
(0.999993 -3.81674e-06 -6.11349e-27)
(0.986262 -0.00507233 -1.33955e-22)
(0.997673 -0.00040698 3.87851e-23)
(1.02646 -0.0214878 1.18364e-22)
(0.989914 -0.104731 -1.57353e-22)
(1.21007 -0.121165 5.96379e-22)
(0.984396 0.110644 -5.08895e-21)
(1.07947 0.0394968 7.07049e-22)
(1.08016 -0.145488 4.66587e-22)
(1.12834 0.10131 2.31426e-22)
(0.999477 0.0317022 4.83287e-21)
(1.02093 -0.00285639 1.97699e-22)
(1.00127 -0.00241957 1.69042e-23)
(1.04056 0.0821733 7.71051e-22)
(0.999123 -0.00215526 1.06885e-23)
(0.999812 -0.000178089 8.75306e-25)
(0.98121 -0.00203885 4.71611e-23)
(1.00009 -3.31906e-05 2.25114e-25)
(1.07455 -0.163412 2.07001e-22)
(1.00371 -0.0192339 -1.42183e-23)
(0.983046 -0.0352177 2.29626e-22)
(1.00196 -0.00165846 8.77213e-24)
(1.1143 0.0881692 1.40208e-21)
(0.998188 -0.000336686 -3.44454e-24)
(0.999975 -3.93342e-05 -1.86479e-26)
(1.00633 -0.120117 2.17701e-22)
(1.00174 -0.00144111 -5.15081e-24)
(1.12519 -0.0414331 -4.01928e-23)
(0.954009 -0.0145835 7.20422e-23)
(0.934224 -0.0170659 3.48479e-23)
(1.28219 -0.0722831 1.23975e-22)
(1.03177 0.0226139 -4.25453e-22)
(1.02524 0.00639299 2.63216e-22)
(1.0236 0.00616294 -1.02135e-22)
(0.999789 -4.57234e-05 3.0978e-25)
(1.16504 0.00238281 4.05749e-23)
(1.10028 1.7734e-05 2.27657e-22)
(0.999469 -0.000682136 2.77997e-24)
(0.982826 -0.00669577 1.93291e-22)
(1.00063 -0.000218325 -4.36088e-24)
(1.01218 -0.0222336 -7.08478e-23)
(1.00783 -0.0309657 -1.20092e-23)
(1.00466 -0.00146155 1.02629e-25)
(0.99922 -0.00135669 -1.26226e-23)
(1.22609 0.0834636 -2.25899e-22)
(0.999977 -2.35105e-05 -3.30974e-25)
(1.00021 -0.000117426 -1.15674e-24)
(1.00204 -0.00112763 -3.91618e-25)
(0.976894 -0.0034541 1.30584e-22)
(1.02061 -0.0131611 1.55225e-22)
(0.982596 -0.029707 -3.21246e-22)
(0.971578 -0.00530374 -7.58033e-23)
(1.00733 -0.0671071 1.48828e-22)
(1.00794 -0.141672 -4.11646e-22)
(1.0269 -0.0362144 9.66267e-24)
(1.0469 0.0822821 -4.33123e-21)
(1.24431 -0.118488 -1.1343e-21)
(0.993214 -0.00271336 -5.35064e-24)
(0.874879 0.119568 6.27967e-21)
(0.972673 -0.055613 4.83185e-22)
(0.993169 -0.0102492 2.16566e-23)
(0.972311 -0.00440398 1.24117e-22)
(0.997325 -0.0192701 -1.27359e-23)
(0.978328 -0.00251532 1.98697e-22)
(0.98966 -0.00406199 -3.91385e-23)
(1.0297 -0.0158079 -2.31614e-22)
(1.11848 -0.109375 -1.55551e-22)
(0.999973 -4.57098e-05 -2.7658e-26)
(1.02533 -0.0149471 -2.75792e-23)
(0.9999 -3.17622e-05 -4.48667e-25)
(1.02302 0.132715 9.62954e-22)
(1.24871 0.0342244 -3.07049e-22)
(0.995057 -0.00203813 1.31642e-23)
(0.985408 -0.00180466 -1.80235e-22)
(0.999807 -5.67692e-05 -2.26847e-24)
(1.0001 0.0647911 3.00788e-21)
(1.05929 0.149702 2.06204e-21)
(1.16219 -0.0110382 9.20955e-23)
(1.26122 0.128009 2.86947e-23)
(0.972313 -0.0588682 -2.13667e-22)
(0.998259 0.00958084 -4.73075e-21)
(0.999936 -0.000140447 4.21452e-25)
(1.05015 -0.0369063 1.56656e-22)
(0.980832 -0.00155468 -7.21685e-24)
(1.15453 0.0692562 -2.09238e-22)
(0.914144 0.0834974 -4.62458e-21)
(1.21881 -0.0123499 -5.29444e-22)
(1.06912 0.0323037 1.14039e-22)
(0.999803 -0.0130667 -8.9024e-24)
(0.999792 -8.84384e-05 -2.07205e-24)
(1.25294 0.0953299 -2.26972e-23)
(1.19122 -0.148363 2.37425e-22)
(0.997074 0.082267 -8.48606e-23)
(1.11595 -0.0383938 -2.47807e-23)
(1.04756 0.0637885 1.2737e-21)
(0.99281 -0.0024217 -1.83652e-23)
(0.993897 0.110558 1.36279e-21)
(1.0652 0.140444 6.98691e-22)
(0.990817 -0.00344295 -1.0966e-22)
(0.992331 -0.00321737 -4.08234e-23)
(1.26106 0.0635076 -3.43011e-23)
(0.931852 -0.0157777 -4.90372e-22)
(0.999913 -0.000162826 -6.56742e-25)
(0.986915 -0.00548815 1.72342e-22)
(0.936811 -0.0222536 3.60323e-22)
(0.981634 -0.075341 -6.13666e-23)
(1.01021 -0.00261838 -1.67005e-22)
(1.00895 -0.00633003 1.0098e-23)
(0.999873 -0.000202761 -1.2408e-24)
(1.06375 0.158923 -3.1169e-21)
(1.0002 -0.0119192 1.40682e-24)
(0.999894 -6.26301e-05 3.9752e-25)
(1.0159 -0.064599 2.04444e-22)
(0.999495 -0.000449304 2.46681e-24)
(0.999771 -7.86478e-05 1.57144e-25)
(1.00533 -0.0128943 -9.72012e-24)
(1.09572 0.0931795 2.05744e-21)
(1.00303 -0.107255 2.95251e-22)
(0.93939 0.0851284 2.67859e-21)
(1.00007 -9.85169e-06 -6.26462e-25)
(1.10589 0.0968431 -2.11065e-21)
(1.01049 -0.0546504 1.40622e-22)
(0.999922 -0.000200607 -1.85875e-25)
(1.00002 -6.60811e-06 -1.90532e-25)
(1.00264 0.0118459 -2.20625e-22)
(1.08487 0.0789465 7.92985e-22)
(0.995987 -0.00251493 1.14225e-23)
(1.07307 0.0591977 -1.05746e-21)
(1.00003 -2.12732e-05 1.38557e-25)
(1.07501 0.0672595 -1.42805e-21)
(1.0883 -0.181057 6.12572e-22)
(0.990328 -0.0030834 1.20529e-22)
(0.999132 0.0151027 -6.32892e-21)
(0.974216 -0.0468723 3.23322e-22)
(1.26424 0.110659 -1.48765e-22)
(0.97356 -0.00440052 7.58076e-23)
(1.08313 0.0701531 1.87037e-21)
(1.09396 0.0822422 -5.7926e-22)
(0.983652 -0.00828115 2.80548e-22)
(0.978681 -0.0100178 -2.05819e-22)
(0.994857 -0.010279 6.52854e-23)
(0.997146 -0.000755132 -9.75787e-24)
(0.999797 -0.000197683 2.37859e-24)
(0.999973 -0.011409 -2.60883e-24)
(1.08067 0.129771 -3.56286e-22)
(0.999971 -3.59062e-05 8.4173e-26)
(1.06567 0.0572726 1.39394e-21)
(1.0149 -0.110884 4.97597e-22)
(1.01236 0.0866688 1.15384e-21)
(1.06367 0.0505533 -1.61154e-21)
(0.934405 -0.0208092 -4.48514e-23)
(0.948412 0.109478 -5.58963e-21)
(0.998417 -0.00119399 8.24053e-25)
(1.01597 -0.0289733 2.53115e-23)
(1.04039 -0.0908359 1.51265e-22)
(0.979247 -0.00237623 -1.23358e-23)
(0.99361 -0.00341354 5.44573e-23)
(1.00759 -0.0554731 -1.21252e-22)
(1.06045 -0.0296805 -1.47962e-23)
(0.887519 0.0748475 7.37283e-21)
(1.00005 -1.96522e-05 6.7506e-25)
(0.998129 -0.00127228 1.11136e-23)
(1.00999 -0.0795824 6.46694e-24)
(1.00002 -5.32902e-06 2.24696e-26)
(1.02472 0.142098 4.78079e-22)
(1.00177 -0.00125202 0)
(1.00001 -7.21762e-06 1.72539e-26)
(1.0002 -9.09841e-05 2.71919e-24)
(1.0004 -0.000128164 5.42341e-26)
(0.985027 -0.0203369 2.13878e-22)
(1.02417 -0.0199808 -8.39252e-23)
(0.998488 -0.000933523 1.74979e-23)
(0.999912 -1.82897e-05 8.30842e-25)
(0.993194 -0.00319446 3.02163e-23)
(1.00462 -0.013393 -6.21674e-24)
(0.979413 -0.108058 -4.32158e-22)
(0.939922 -0.00709313 3.47049e-23)
(1.01995 -0.0117248 2.79276e-22)
(0.999973 -2.91216e-06 2.62341e-25)
(1.04796 -0.170594 6.1214e-22)
(0.987134 -0.00383157 -6.89378e-23)
(1.23069 0.0642259 3.56312e-23)
(1.0004 0.0113401 -8.24637e-22)
(1.00129 -0.00364394 3.86829e-24)
(1.20058 0.0582528 -3.23563e-22)
(1.00016 -9.78185e-05 -8.52375e-28)
(0.98774 -0.00430129 1.97822e-24)
(1.02733 0.000533495 -5.12644e-22)
(0.99364 -0.0038857 -2.22947e-23)
(1.10348 0.114972 -1.2992e-22)
(0.987638 -0.00671294 -1.30376e-22)
(1.05257 -0.0343789 -1.52813e-22)
(1.02774 0.00119052 -5.54869e-22)
(1.08777 0.0399983 -2.79285e-22)
(1.0075 -0.0161889 -3.72854e-23)
(0.990182 -0.00438378 3.246e-24)
(1.13365 0.0804684 7.28656e-22)
(0.974575 -0.0810038 -3.57461e-22)
(1.00684 0.140956 4.05479e-21)
(0.991317 -0.00497895 -1.27368e-22)
(1.11787 0.156786 -5.7525e-23)
(0.991298 -0.00436386 3.40445e-23)
(0.998873 -0.000535977 -1.14316e-24)
(1.0673 0.0278816 3.3942e-22)
(1.01393 -0.0326571 5.89545e-24)
(1.04318 0.000306852 7.23876e-22)
(1.00184 -0.000863142 5.73588e-24)
(1.00001 -5.8451e-06 7.89794e-27)
(0.985999 -0.123739 1.5749e-22)
(1.21692 0.148578 -7.14284e-22)
(1.00153 -0.00354015 -5.46193e-24)
(1.21675 0.0525046 -8.36807e-25)
(0.988318 -0.0062707 -8.55065e-23)
(1.03977 -0.171566 -2.35154e-22)
(1.04479 -0.0517424 -2.16941e-23)
(0.982128 -0.0315303 1.81216e-22)
(0.998375 -0.00103999 -7.40837e-24)
(0.991559 -0.00110365 -2.59275e-23)
(0.970721 -0.0691169 -2.03972e-22)
(0.971425 -0.00944923 2.822e-22)
(0.990772 -0.00406223 8.9791e-23)
(0.999858 -0.000458941 1.05216e-24)
(0.996478 0.149506 -5.35676e-22)
(1.18857 0.0477424 1.57445e-22)
(1.02641 -0.0129444 -8.85867e-23)
(0.999805 -0.000154083 1.5949e-24)
(1.06016 0.131752 -1.38008e-21)
(1.00001 -2.53151e-05 3.39377e-26)
(0.99982 -0.000137479 3.15635e-24)
(1.17389 0.0524724 2.55516e-22)
(1.00995 -0.0269907 9.70537e-24)
(1.22623 0.118224 4.25375e-22)
(1.02619 -0.00352296 2.06926e-22)
(1.01779 -0.0142963 -1.70049e-23)
(1.08295 -0.095647 2.28818e-22)
(1.02469 -0.138373 5.04018e-22)
(1.27333 -0.0789766 5.39144e-22)
(1.00128 -0.000891862 -1.26329e-23)
(0.955741 -0.0159501 -2.73659e-23)
(0.999982 -6.00976e-05 -5.84624e-26)
(1.00503 -0.0116726 7.17253e-24)
(1.10859 0.106547 7.51103e-22)
(0.984523 -0.0077714 1.96092e-22)
(0.997301 -0.00151196 1.54085e-23)
(1.01257 -0.0444615 -8.74724e-23)
(0.998097 -0.00112254 1.05936e-24)
(0.999617 -0.00112799 3.26653e-24)
(0.878723 0.0173197 1.32211e-21)
(0.990793 -0.00534983 -7.20165e-23)
(0.999469 -0.00074374 -9.60501e-24)
(0.999983 -6.30385e-07 -5.4709e-26)
(1.02002 0.00792575 1.15547e-21)
(0.973242 -0.026206 -4.26822e-23)
(0.999684 -0.000562192 2.87372e-24)
(0.997308 -0.00088009 1.98867e-23)
(1.02926 0.0255958 4.75821e-22)
(1.08487 -0.000205721 6.71575e-23)
(0.963014 -0.0229788 -2.44878e-22)
(1 -1.61814e-05 1.07126e-26)
(1.00113 0.0104851 3.22765e-21)
(0.986359 -0.0177367 -1.44897e-22)
(1.11111 0.0779181 -1.40513e-21)
(1.01336 -0.00131822 -2.55954e-22)
(1.0156 -0.00140778 5.85413e-22)
(0.969779 -0.0117342 3.84398e-22)
(0.999906 -6.62898e-05 -2.60081e-25)
(1.02695 0.000282797 -1.05921e-22)
(1.08972 -0.00562099 -6.76082e-23)
(1.2597 -0.0414682 -7.64306e-22)
(1.0217 -0.108404 1.20006e-22)
(1.07417 0.121634 1.02808e-21)
(1.00572 -0.0017418 -4.12713e-24)
(1.14639 0.0825373 -9.93848e-22)
(0.999807 -0.0152837 -1.49745e-23)
(1.01252 -0.0614285 -3.31486e-22)
(0.999619 -0.000169269 -3.10991e-24)
(1.00296 -0.0204615 2.79812e-23)
(0.999901 -0.000439581 3.93921e-25)
(1.0649 0.0377698 -1.03914e-21)
(1.15609 0.166265 -2.3672e-21)
(0.998568 -0.00122843 5.88564e-24)
(1.0194 -0.0146416 1.27459e-24)
(0.983135 -0.00466249 6.73788e-23)
(1.02884 -0.098233 5.85952e-23)
(1.02245 -0.10136 -2.49341e-22)
(0.998191 -0.000886968 1.17065e-23)
(1.04633 -0.0366264 -4.80918e-23)
(0.889503 0.00512453 -2.2114e-21)
(1.23469 -0.0567893 -6.44915e-22)
(0.999948 -0.000170774 9.0978e-25)
(1.07793 -0.0018033 -2.30615e-22)
(0.997127 -0.00941246 -3.21864e-23)
(0.994936 0.00262202 4.51428e-21)
(0.988317 -0.00548514 1.18664e-22)
(0.995167 -0.0277069 -4.23696e-23)
(1.01585 -0.0401114 -3.16309e-24)
(0.993727 -0.0285279 -5.7037e-24)
(0.998118 -0.0222839 -9.70565e-23)
(0.992742 -0.00345532 2.08035e-23)
(0.998909 -0.0151154 5.13186e-23)
(1.00196 -0.00662495 -6.00195e-24)
(1.0607 -0.034256 4.01414e-23)
(1.00011 -2.47454e-05 -1.74869e-24)
(1.13574 -0.185045 -3.75646e-22)
(1.17924 -0.0837809 -2.47542e-22)
(1.04322 0.156274 2.65205e-21)
(0.964835 -0.0218196 3.70277e-22)
(1.20641 0.116929 -2.44689e-22)
(1.00195 -0.000669957 2.05447e-23)
(1.05552 -0.0954795 -2.29953e-25)
(1.00265 -0.0407892 -1.09992e-22)
(1.02735 0.0475351 1.43084e-21)
(0.99324 -0.00419135 5.18122e-23)
(1.00011 -0.000188486 1.15533e-24)
(0.987018 -0.0184953 1.88992e-22)
(0.995707 -0.0100253 -2.47896e-23)
(1.04383 -0.0331475 1.43298e-22)
(0.972934 -0.00726292 -2.38203e-22)
(0.977607 -0.00932985 6.80704e-23)
(1.12862 -0.0864346 -1.12776e-22)
(0.985748 -0.00305423 -1.18336e-22)
(1.01301 -0.0413731 6.11173e-23)
(0.982513 -0.0796604 2.63838e-22)
(1.00001 -8.51619e-06 1.47234e-26)
(1.06522 -0.0262449 2.6598e-22)
(0.985191 -0.0722941 -6.98611e-22)
(1.20621 0.0867577 1.49921e-22)
(1.07955 -0.102332 -4.13258e-22)
(1.04118 0.000103927 5.95826e-23)
(1.00968 -0.105929 -6.22095e-22)
(1.08062 0.169995 6.37896e-22)
(1.03359 -0.0432604 5.40067e-24)
(0.968507 -0.0108164 -2.28203e-22)
(1.01125 -0.0511386 -1.69461e-22)
(0.951567 0.00737724 2.04673e-21)
(1.10936 -0.162527 1.99594e-22)
(0.987673 -0.00509267 -3.61339e-23)
(1.00422 -0.127699 -4.68589e-23)
(1.01851 -0.0731387 2.40922e-22)
(1.01923 -0.123805 -7.24414e-23)
(1.02875 -0.0913664 -2.83602e-22)
(1.12897 0.0702376 9.75567e-22)
(0.997327 -0.00173862 1.01219e-24)
(1.01078 0.0545912 5.47102e-22)
(1.00778 -0.00170611 2.99166e-23)
(0.999621 -0.000568856 -4.1215e-24)
(0.998859 -0.0024414 2.9443e-23)
(1.06972 -0.00837143 -6.74605e-23)
(0.826158 0.00596483 6.62487e-23)
(1.00158 -0.00707753 2.76418e-24)
(1.0135 -0.0574442 4.67841e-23)
(1.03004 0.0296811 -7.88254e-22)
(1.00003 -7.54875e-06 -3.32554e-26)
(0.979754 -0.00943996 1.64464e-22)
(1.02349 -0.0116552 2.00377e-22)
(1.07308 -0.0626126 -1.35101e-22)
(1.00793 -0.000845162 1.6792e-22)
(0.998464 -0.00218205 5.34683e-24)
(0.9826 -0.0399061 1.44487e-24)
(0.997812 -0.00906174 -9.91491e-24)
(1.00003 -6.25416e-06 3.65527e-25)
(0.976339 -0.0461581 -5.45773e-22)
(1.08693 0.108742 -3.52842e-22)
(1.01852 -0.0356546 2.48734e-23)
(0.983872 -0.00528624 -1.25676e-22)
(1.00177 -0.000461259 -7.36157e-24)
(1.03438 0.0313462 1.03537e-21)
(0.99963 -0.000693885 -1.89656e-24)
(0.998797 -0.000702535 -5.96094e-25)
(0.999652 -0.000185092 -2.83632e-24)
(0.999288 -0.00230868 -7.41651e-24)
(1.24751 -0.0234264 -3.06462e-22)
(1.02669 -0.0417657 -5.87947e-23)
(1.00772 -0.0203966 7.0109e-24)
(0.982768 -0.00777 -5.7585e-23)
(1.00004 -5.55592e-05 3.55498e-25)
(1.04141 -0.140306 7.09843e-22)
(1.20879 -0.138724 2.13398e-24)
(1.04166 -0.149872 -3.37526e-22)
(0.995607 -0.0352056 -8.04542e-23)
(1.01409 -0.0104162 1.86569e-22)
(0.999793 -0.00010831 1.30776e-24)
(0.988865 -0.0121689 -7.51918e-23)
(0.958736 -0.0455853 -3.08794e-22)
(1.22598 -0.0417509 1.03494e-22)
(1.01003 0.083657 -4.04485e-23)
(0.998878 -0.00346136 6.00394e-24)
(0.947017 -0.0316334 1.68353e-22)
(0.995436 -0.00297363 -4.97079e-23)
(1.03214 -0.0397807 1.76062e-23)
(1.14676 0.058453 4.8915e-23)
(1.00043 -0.000144877 -6.17744e-24)
(0.999846 -0.000234429 -4.8575e-25)
(1.26376 0.0768149 -5.0515e-23)
(1.20165 -0.0585998 1.74737e-22)
(1.01818 -0.0177565 6.4588e-23)
(0.997143 -0.00189383 2.62458e-23)
(0.997967 -0.000507045 -2.60355e-24)
(0.965132 -0.0468662 7.56097e-23)
(0.999831 -0.000383969 -1.59819e-24)
(1.01595 -0.037093 -3.47555e-23)
(0.987045 -0.00150896 2.43297e-22)
(1.00055 0.0130962 -6.88487e-22)
(1.09531 0.116604 -1.90276e-22)
(1.05301 -0.088146 1.58875e-22)
(0.988808 -0.0733732 2.54263e-22)
(1.00648 -0.00151104 8.25973e-23)
(1.0138 -0.0276441 -3.15439e-23)
(1.17708 -0.0679805 -4.77059e-22)
(0.987092 -0.0808565 -1.61166e-22)
(1.01453 -0.0500121 9.76357e-23)
(0.999999 -8.3858e-06 6.61469e-27)
(1.15092 -0.0728526 -4.24448e-22)
(0.975083 -0.00298009 2.30788e-23)
(0.984644 -0.0888958 3.15748e-22)
(1.01836 -0.0328256 -2.0136e-23)
(0.957772 -0.0151705 -5.05633e-23)
(0.999609 -0.000323886 -1.38418e-24)
(0.997101 -0.00141502 -1.17194e-23)
(1.05705 0.0489209 1.24625e-21)
(0.971301 -0.01102 -8.62338e-23)
(0.999985 -2.5198e-06 5.70967e-26)
(0.997207 -0.000588577 -2.75391e-23)
(1.11757 -0.150071 -1.1495e-21)
(0.999837 -5.68719e-05 3.31409e-24)