/*--------------------------------*- C++ -*----------------------------------*\
  =========                 |
  \\      /  F ield         | OpenFOAM: The Open Source CFD Toolbox
   \\    /   O peration     | Website:  https://openfoam.org
    \\  /    A nd           | Version:  7
     \\/     M anipulation  |
\*---------------------------------------------------------------------------*/
FoamFile
{
    version     2.0;
    format      ascii;
    class       volVectorField;
    location    "14";
    object      U;
}
// * * * * * * * * * * * * * * * * * * * * * * * * * * * * * * * * * * * * * //

dimensions      [0 1 -1 0 0 0 0];

internalField   nonuniform List<vector> 
29659
(
(1.01138 -0.0147983 2.87811e-22)
(1.01224 0.00485527 1.24422e-21)
(0.990002 -0.00363531 -1.71015e-21)
(0.967033 -0.0541757 5.19142e-22)
(0.997356 -5.66541e-05 2.4521e-22)
(0.952843 -0.033314 -7.81039e-22)
(1.06088 -0.0850819 7.49588e-22)
(1.01487 -0.0224163 -2.91829e-23)
(1.00218 -0.00210262 3.96682e-23)
(1.0002 -5.34028e-05 9.79495e-24)
(1.01658 -0.0299528 4.16251e-25)
(0.997694 -0.0178868 -6.10145e-22)
(0.999481 -0.000211691 3.48428e-23)
(0.999966 -1.15257e-05 1.16026e-24)
(1.18909 0.0615243 2.32701e-21)
(0.993439 -0.00211592 2.61826e-22)
(0.999827 -0.000921065 -1.62401e-23)
(1.14255 -0.0185269 -2.28174e-22)
(0.997694 -0.00195279 -8.43747e-23)
(0.988149 -0.000879231 -3.75633e-22)
(0.999069 -0.000296712 -1.16925e-22)
(1.00205 -0.0020989 1.38708e-22)
(0.989904 -0.00384673 1.87976e-21)
(0.997683 -0.00018525 1.08169e-22)
(0.825084 0.19224 5.07813e-22)
(1.01327 0.00383489 6.69764e-21)
(0.99944 -6.35364e-05 7.92147e-23)
(0.920543 0.152044 -3.76901e-20)
(1.19291 0.0590762 -6.12088e-21)
(0.999136 -0.00981199 -1.20649e-22)
(1.01652 -0.012007 2.03058e-22)
(1.04108 -0.00873473 -1.48507e-21)
(0.978038 -0.125793 5.04132e-21)
(0.997914 -0.0247848 3.00013e-22)
(0.915912 0.144936 3.09584e-20)
(1.00363 -0.0352568 7.84225e-22)
(1.08577 0.0457723 -1.99717e-21)
(0.969524 -0.0304105 2.20168e-21)
(1.00576 -0.000888792 -5.45504e-22)
(1.00555 -0.000614293 1.03532e-21)
(1.00047 -0.000180566 -3.13099e-23)
(0.987837 -0.0328847 -2.11634e-21)
(0.999847 -0.000895078 -1.82482e-25)
(1.02745 -0.0771024 -2.89135e-21)
(1.00004 -5.97582e-06 -1.60547e-24)
(0.999343 -0.00995336 9.14419e-23)
(0.997297 -0.0132975 -1.7232e-22)
(1.00008 -9.18391e-05 4.45119e-24)
(1.00359 -0.00393853 -5.68414e-22)
(1.08481 0.0427623 -8.24141e-22)
(1.12038 -0.0958053 4.66254e-22)
(0.970711 -0.0476786 -2.45086e-21)
(1.04095 -0.0077337 5.2323e-22)
(0.954351 -0.0330371 -1.30828e-21)
(0.993601 -0.00217306 -2.30829e-22)
(1.19137 0.0491354 -3.94314e-21)
(0.996355 -0.00243366 8.28968e-23)
(0.999043 -0.000327285 1.48077e-22)
(0.999919 -0.0233836 -4.11682e-22)
(1.01095 -0.0628454 -1.38356e-21)
(0.999929 -7.88874e-06 2.52105e-24)
(0.997774 -0.00199995 -1.74608e-23)
(1.23087 -0.0187968 3.07998e-22)
(1.00404 -0.0344576 -4.29385e-22)
(1.10461 0.12334 1.55411e-20)
(0.862419 0.050447 7.9829e-20)
(0.998854 -0.0294203 -7.9163e-22)
(0.99216 -0.0149224 7.92568e-22)
(0.896938 0.0314199 3.21056e-20)
(1.00049 -0.000171244 2.02435e-23)
(1.01505 0.00464809 -9.12785e-21)
(0.985862 0.113931 2.16942e-20)
(1.00346 -0.00977249 -2.21781e-22)
(0.86502 0.223938 1.96109e-20)
(0.991309 -0.000687204 1.215e-21)
(1.1202 -0.0570715 2.10944e-22)
(1.2571 0.0633222 5.21896e-21)
(0.970715 -0.0172543 5.27414e-22)
(0.999946 -2.42909e-05 -7.34588e-24)
(1.00375 -0.0519245 -1.39448e-21)
(0.954508 -0.000778007 -8.70983e-22)
(1.02917 0.0478957 5.31775e-21)
(1.01161 -0.0154484 -8.63706e-22)
(1 -6.71106e-05 1.95651e-24)
(1.06334 -0.0830236 -1.11227e-21)
(1.2175 -0.142368 -3.21867e-21)
(1.06376 0.117837 -3.13862e-20)
(0.999461 -0.000208573 -3.14043e-23)
(0.999497 -0.000188661 -9.19665e-24)
(0.930048 -0.0426903 -3.20403e-21)
(0.993006 -0.0567302 2.74142e-21)
(0.970603 -0.0180777 5.87759e-22)
(1.00336 -0.00407527 9.76977e-23)
(1.06433 -0.01449 -8.54621e-22)
(0.923593 -0.0182518 -2.67693e-21)
(1.08609 0.13961 1.45738e-20)
(0.995235 -0.0734194 4.28527e-21)
(1.00051 -0.000415896 5.07546e-23)
(0.967943 -0.0679691 -4.45896e-21)
(1.1954 0.0853544 1.07176e-20)
(0.999943 -2.3801e-05 1.07606e-23)
(0.972109 -0.011246 -3.1625e-21)
(0.999931 -9.74333e-06 -1.29959e-24)
(1.05008 -0.0229553 -4.32139e-21)
(0.969237 -0.0475106 1.61564e-21)
(1.04275 0.013239 9.30622e-21)
(1.00919 0.102195 3.22841e-20)
(0.999518 -0.000190949 -7.82641e-23)
(0.999995 -7.46158e-05 -2.54368e-25)
(0.994834 -0.12047 -2.38518e-22)
(0.97571 -0.124361 -4.54109e-21)
(1.04482 -0.0454261 3.79685e-22)
(1.00002 -1.97073e-06 2.33189e-25)
(0.998777 -0.00663642 -3.16883e-22)
(0.999879 -0.00237325 1.43844e-23)
(0.99098 0.115785 1.67968e-22)
(1.05846 0.0666278 -1.12076e-20)
(0.987363 -0.00780798 -1.28372e-21)
(1.00003 -7.36278e-05 2.07522e-25)
(1.0038 -0.00966996 -1.70508e-22)
(1.24695 -0.0660228 5.34368e-21)
(1.00864 0.0152308 1.46516e-20)
(1.16948 -0.0722545 -1.62036e-21)
(0.859815 0.0618845 -7.38447e-20)
(1.00118 -0.00038556 -1.30634e-22)
(1.16277 -0.0531099 -2.00629e-22)
(1.14164 -0.0145223 -1.26665e-21)
(1.01574 -0.0607023 9.90018e-22)
(1.0043 -0.00374776 -5.0755e-22)
(1.00003 -0.000474237 9.33146e-26)
(1.02705 -0.0750167 1.02852e-21)
(1.25647 0.0582004 2.5642e-21)
(1.04126 0.206066 3.10812e-20)
(1.17373 -0.0878011 -7.00979e-22)
(1.0484 -0.0225132 3.64748e-21)
(1.01604 -0.0115113 3.83202e-21)
(1.17639 0.207835 1.9581e-21)
(0.970848 -0.000827367 4.43654e-21)
(1.12781 -0.203145 1.15381e-20)
(1.19387 0.079974 -8.23677e-21)
(1.1622 -0.0486185 3.14799e-22)
(0.937217 -0.00538774 -3.54425e-21)
(0.948057 -0.0463637 1.00431e-21)
(1.00002 -1.75901e-06 -1.0035e-25)
(0.999988 -3.42931e-06 7.26227e-25)
(0.997287 -9.37106e-05 -1.91796e-22)
(0.997501 -0.0130303 3.54708e-22)
(0.981242 -0.0957149 -3.53125e-21)
(1.12913 -0.156916 4.94712e-21)
(1.25511 0.00807912 1.63843e-21)
(1.03295 -0.0215124 1.95157e-21)
(1.01902 -0.0216567 6.49604e-22)
(1.00047 -0.000672531 7.77999e-23)
(0.999858 -0.000239086 9.60071e-24)
(1.0029 0.0399098 -3.22048e-20)
(1.00057 -0.00165644 9.15624e-24)
(0.9928 -0.0121435 8.13697e-25)
(1.19593 0.197101 -5.5105e-21)
(1.00825 0.0658888 -3.49901e-20)
(1.12319 -0.0924069 -8.05554e-22)
(0.956612 -0.00295026 1.49208e-21)
(0.968095 -0.0530932 3.73089e-21)
(1.194 0.0528156 9.9927e-22)
(0.999946 -4.94503e-05 2.34262e-24)
(0.999987 -3.2724e-06 -2.71346e-25)
(0.987308 -0.0082081 4.63641e-22)
(0.949333 -0.0454288 -5.60163e-21)
(1.00006 -0.00024348 -3.80919e-24)
(1 -7.12417e-05 9.32921e-25)
(0.992727 -0.00549399 -1.52543e-22)
(1.00004 -0.000459865 -7.10153e-26)
(1.00614 -0.0064239 -2.84789e-22)
(1.19414 0.205046 6.2217e-21)
(0.97127 -0.000431165 -3.75675e-21)
(1.04222 -0.121638 -1.29226e-21)
(0.994561 -0.000106013 7.86438e-22)
(1.00227 -0.00291141 2.94878e-23)
(0.971356 -0.0110532 5.2255e-21)
(0.999096 -0.00662392 -2.88574e-23)
(1.17425 -0.0638502 5.30392e-22)
(0.999976 -1.07376e-05 3.9696e-24)
(1.01323 -0.041792 -4.63455e-22)
(1.06754 0.119476 1.10726e-20)
(0.992492 -0.0138549 -4.73133e-23)
(1.12141 -0.199419 -1.10675e-20)
(1.04413 0.058059 -9.97356e-21)
(0.993248 -0.00303181 -1.14467e-21)
(0.980659 -0.0163539 1.41801e-21)
(1.00408 -0.00376175 7.71143e-22)
(0.999195 -0.00914486 -1.74573e-22)
(0.999702 -8.0413e-06 9.24828e-24)
(1.00633 -0.0193767 1.43031e-22)
(0.851141 0.0309527 3.09933e-20)
(1.00208 0.0342842 2.48459e-20)
(0.984689 -0.00659798 3.68531e-23)
(0.993122 -0.0119637 -4.96527e-22)
(0.965314 0.0648362 -3.01854e-20)
(1.01852 0.0378199 4.58637e-21)
(0.925169 -0.0180561 3.32764e-21)
(1.00123 -0.000523965 -1.02308e-22)
(1.07331 -0.105742 1.67157e-21)
(0.966766 -0.0899626 4.62098e-21)
(0.997983 -0.0182644 2.94025e-22)
(1.0009 -0.00113911 -1.6181e-22)
(1.18431 0.210788 2.57851e-21)
(0.992961 -0.00550812 -1.04341e-22)
(1.0072 -0.00577174 -3.19428e-22)
(0.979472 -0.0951063 4.59225e-21)
(0.995055 -0.123294 5.91531e-22)
(0.99996 -5.65666e-06 8.96891e-25)
(0.981936 0.173602 -3.35594e-20)
(0.998898 -2.51996e-05 -1.9027e-24)
(1 -5.73963e-05 5.10112e-25)
(0.999419 -0.000221822 1.33288e-23)
(0.996053 -0.0570961 -1.00276e-21)
(1.22757 -0.00326141 -1.69685e-21)
(1.01429 -0.0409854 6.93849e-23)
(1.00697 -0.00538935 -2.19098e-22)
(0.997708 -0.000256156 2.68939e-22)
(0.926531 -0.0201373 -5.99386e-22)
(1.00004 -0.000504826 -9.00362e-25)
(1.00051 -0.00169013 1.01749e-24)
(0.99753 -0.000216744 -1.76899e-22)
(1.03153 0.000890456 8.70754e-21)
(0.997189 -0.00420449 -5.65826e-23)
(0.998805 -0.00616952 9.44052e-23)
(1.03032 -0.00176623 4.2976e-21)
(1.00014 -0.000413328 7.16086e-24)
(1.00004 -5.01894e-06 4.16248e-25)
(1.00529 -0.000633423 1.12415e-22)
(0.973779 -0.0346817 -1.84264e-21)
(0.974404 -0.00042969 -1.83049e-21)
(0.994895 -0.000403307 -8.33611e-22)
(1.01617 0.00363863 7.55575e-21)
(0.9833 -0.00120743 8.77768e-22)
(1.01931 -0.0209597 -6.26101e-22)
(0.999966 -1.28918e-05 3.26488e-24)
(0.996868 -0.00277613 -3.23819e-22)
(1.00085 -0.00112906 1.74832e-22)
(1.07287 -0.101968 1.64851e-21)
(1.05028 -0.196511 8.55436e-21)
(0.998531 -0.000132465 1.40145e-22)
(1.00049 -0.000598701 -6.03583e-23)
(0.998703 -0.00601969 -3.20165e-23)
(1.0037 -0.00863004 -4.18979e-22)
(0.988387 -0.00064929 -1.60709e-21)
(0.999948 -4.70541e-05 -1.30681e-25)
(1.21223 -0.139328 -6.86001e-21)
(1.00005 -0.000516552 6.56081e-25)
(1.03118 0.000819515 -6.13426e-21)
(0.99647 -0.00243874 -1.67671e-22)
(1.00015 -0.000400069 3.11819e-24)
(1.04165 0.0138188 -5.91617e-21)
(0.961434 -0.086029 -4.73599e-21)
(1.00027 -4.55052e-05 3.27014e-23)
(1 -1.31669e-05 2.82435e-25)
(0.937045 -0.00385698 -4.03891e-21)
(1.03436 -0.181453 -1.33946e-21)
(0.990832 -0.00873632 -1.23898e-22)
(1.01468 -0.0619885 -2.66373e-22)
(1.03384 -0.0223248 -3.196e-22)
(1.07368 0.113211 1.35865e-21)
(1.00009 -8.6719e-05 1.24672e-24)
(0.974284 -0.0339699 1.88247e-21)
(1.2137 -0.0707716 2.24889e-21)
(0.94048 0.0936176 7.13406e-22)
(0.992407 -0.0135395 3.70901e-22)
(1.04236 0.0561038 1.22398e-20)
(1.12062 -0.0532111 1.95308e-22)
(0.999867 -0.00261322 -1.39155e-23)
(0.710345 0.0876632 4.15419e-20)
(0.999422 -0.00046693 -9.03209e-23)
(1.04128 -0.125098 -1.70936e-21)
(0.927742 -0.0201266 4.07144e-21)
(1.00241 -0.00275192 -1.62538e-22)
(1.19805 -0.0274625 1.34046e-21)
(0.990864 -0.00099716 -9.60859e-22)
(1.05259 0.223061 2.19824e-20)
(0.996292 -0.000283514 7.54401e-23)
(0.981205 -0.0176357 -7.42151e-23)
(0.999781 -0.00237229 -8.02124e-23)
(1.19984 0.125882 2.43928e-21)
(0.999991 -0.0185253 7.44607e-23)
(1.08193 0.142538 9.26018e-22)
(0.999456 -4.86045e-05 -3.46353e-23)
(0.993771 -0.00201318 -3.64735e-22)
(0.962464 0.224251 -1.43103e-20)
(1.03655 -0.000429879 -7.20579e-21)
(1.0301 -0.00119449 4.99763e-21)
(0.968607 -0.0439893 4.52829e-21)
(0.999837 -3.51862e-05 9.67495e-24)
(1.0036 -0.00831823 -4.79706e-23)
(0.999825 -0.00100741 -2.92386e-23)
(1 -5.43608e-05 3.71155e-25)
(1.06554 0.0022182 1.9604e-21)
(1.00005 -5.646e-06 4.98742e-26)
(0.9787 -0.0156388 3.31703e-21)
(1.21043 -0.0725158 -2.2008e-21)
(0.820819 0.20198 -3.76594e-20)
(1.04698 0.204734 -4.95138e-20)
(0.965333 -0.0744153 1.46752e-21)
(0.985 -0.0319916 1.14815e-21)
(0.975645 -0.00164969 8.75405e-22)
(1.03602 -0.0416292 1.21885e-21)
(1.00695 -0.0191155 -2.4919e-22)
(0.980528 -0.0171327 -1.95737e-21)
(0.96601 -0.08166 6.47719e-22)
(1.07246 0.117199 -2.06357e-20)
(0.999318 0.036791 4.86877e-20)
(0.998628 -0.000161145 7.71698e-23)
(1.01181 0.102748 -4.41349e-20)
(1.06429 0.000720735 6.77487e-22)
(1.17402 -0.0698008 4.7701e-22)
(1.01465 -0.0172636 2.98894e-22)
(1.00111 -0.017077 -3.35749e-22)
(1.02318 -0.0570967 -5.94904e-22)
(0.994222 -0.00194764 -8.64833e-22)
(0.99714 -0.000708986 -5.66836e-23)
(0.999935 -7.78714e-06 1.34462e-23)
(0.999018 -0.00936893 2.5602e-22)
(1.10064 -0.0537992 1.89524e-22)
(1.20521 0.13001 -3.88092e-21)
(1.00173 -0.00148122 7.67259e-23)
(0.970678 -0.0284923 -2.6396e-21)
(1.01668 -0.0177166 -9.47523e-22)
(0.999958 -1.79056e-05 -1.21594e-24)
(0.965636 -0.0779031 -2.33589e-21)
(0.774214 0.155222 -1.92228e-20)
(0.993328 -0.00517605 1.28411e-21)
(0.998815 -0.00493299 8.45483e-23)
(1.01527 -0.0170899 -1.85565e-22)
(1.00344 -0.0504165 1.779e-21)
(1.10548 0.0253981 2.3205e-21)
(0.999448 -0.0106296 -4.43989e-23)
(0.999965 -5.70019e-05 8.29684e-24)
(1.00002 -2.76233e-06 1.0145e-25)
(0.997101 -0.000645593 -6.25754e-23)
(0.957939 0.223358 2.0675e-20)
(1.05367 -0.0342694 9.17599e-22)
(1.05553 -0.194668 -2.27976e-21)
(1 -1.32259e-05 4.62982e-26)
(1.03139 -0.18569 8.80533e-22)
(1.09128 -0.0098308 -2.76576e-21)
(0.99443 -0.000176923 -3.91112e-22)
(0.930425 -0.00732685 -4.98753e-21)
(0.998906 -0.00484677 -8.49228e-23)
(0.99953 -0.000213615 -5.73032e-24)
(0.975058 -0.0307158 -5.69392e-22)
(1.001 -0.00124846 -7.82661e-23)
(1.17838 -0.0615177 -3.70449e-22)
(1.01002 -0.00123067 -2.29932e-21)
(1.23549 0.0457683 -2.75806e-21)
(0.999902 -0.00257827 1.79975e-23)
(1.00464 -0.0151858 8.0046e-23)
(1.00834 0.0134621 -1.98227e-20)
(1.24212 -0.0650126 -2.02306e-21)
(1.00046 -0.000632511 -4.58208e-23)
(1.00048 -0.0005613 4.50752e-24)
(1.00021 0.138208 2.09834e-21)
(0.994189 -0.0578056 -5.51836e-22)
(0.999266 -0.0104672 5.41278e-23)
(1.01734 0.0424952 2.41376e-21)
(0.951271 0.0331927 5.9231e-20)
(1.12073 -0.100209 -1.53744e-21)
(0.998869 -0.0283908 -2.46416e-22)
(1.22497 -0.00115615 1.69512e-21)
(0.99917 -7.89634e-05 -5.87709e-23)
(0.990572 -0.00456894 3.41883e-22)
(0.996369 -0.00029711 -2.13508e-22)
(1.02027 0.035745 1.36409e-23)
(0.999986 -0.000828258 2.48749e-24)
(1.00969 -0.00148077 2.34921e-21)
(1.1523 -0.146572 1.44745e-22)
(1.03296 0.194409 4.88916e-20)
(0.872216 0.231493 -8.65364e-21)
(0.993454 -0.00302369 4.49067e-23)
(0.990564 -0.00853461 3.71011e-22)
(1.10245 0.128457 -1.23124e-20)
(1.01137 -0.0647807 1.98501e-21)
(0.999937 -9.17732e-06 -1.31108e-23)
(1.25726 0.0287177 3.75247e-21)
(1.03095 0.00154329 -2.60952e-21)
(1.0304 0.00160876 -1.76767e-21)
(0.993722 -0.0147487 -5.35473e-22)
(1.02064 -0.00230328 -3.58403e-21)
(0.936428 0.200493 8.29559e-21)
(1.12385 -0.166776 -1.43774e-21)
(0.989407 0.186628 8.19132e-21)
(1.01318 0.178262 -1.4167e-20)
(0.999997 -7.13121e-05 8.13203e-25)
(1.09751 -0.0525198 -4.56282e-22)
(1.12443 -0.161293 9.37307e-22)
(0.997057 -0.0042415 1.47983e-22)
(1.00178 -0.00159688 -1.26151e-22)
(0.943498 0.0385204 1.41448e-20)
(1.05549 -0.0352636 -1.17896e-21)
(1.00031 -8.28769e-05 7.4506e-24)
(0.979188 -0.0658849 -5.4599e-21)
(0.965882 -0.0923053 -2.19026e-21)
(0.993907 -0.00207012 5.12991e-22)
(0.999868 -0.000232032 -1.20759e-23)
(1.11011 0.164246 -1.82377e-21)
(1.05744 0.0640465 1.88754e-20)
(1.00005 -0.000564484 -5.10832e-25)
(1.00447 -0.0040379 9.9722e-23)
(1.00575 -0.00403681 5.41326e-22)
(1.18972 -0.112017 4.71449e-21)
(0.968661 -0.042807 -4.10899e-21)
(1.00007 -0.000669023 -2.42494e-24)
(0.999983 -2.07115e-06 -3.80522e-25)
(1.00055 -0.000186922 1.19457e-23)
(1.1041 0.0273911 -2.32016e-22)
(0.969515 -0.0293336 -2.10761e-21)
(1.00476 0.0770338 1.019e-20)
(0.940575 -0.0511486 2.40902e-21)
(0.985875 -0.0318498 -1.22082e-21)
(0.97367 -0.00128545 -3.52314e-21)
(1.01926 0.0406549 -1.18884e-20)
(1.22575 -0.0176761 2.7029e-23)
(0.998671 -0.000171346 1.41384e-22)
(1.00865 -0.00659008 -5.78668e-22)
(1.00093 -0.00123661 8.86951e-23)
(0.992849 0.208099 -2.05009e-20)
(0.971762 -0.0266107 1.13637e-21)
(1.00119 -0.000313592 -4.26466e-23)
(0.991702 -0.00406868 -4.65023e-22)
(1.16663 -0.0445674 8.7033e-22)
(0.999543 -0.0114191 -1.13741e-22)
(0.987242 -0.0140535 -2.55129e-22)
(1.00026 -0.000158964 -2.25356e-23)
(1.00027 -5.95456e-05 -9.90915e-25)
(0.767444 0.166442 2.89707e-20)
(0.990927 -0.00148478 -5.96621e-22)
(0.994705 -0.00534542 5.25944e-22)
(0.999582 -0.00210042 -6.8108e-23)
(0.99919 -5.99685e-05 -8.05558e-24)
(1.08193 0.107417 -6.94596e-21)
(1.15812 -0.147513 3.36756e-22)
(0.983283 -0.0477715 7.14793e-22)
(1.00002 -2.28076e-06 -1.2255e-25)
(1 -4.36421e-05 3.36138e-25)
(0.970658 -0.0275492 2.98156e-21)
(0.992499 -0.00217026 1.22807e-22)
(0.99427 -0.00247976 -7.07053e-23)
(1.01607 -0.00602485 1.11397e-21)
(1.00644 -0.00271806 1.94787e-22)
(1.00029 -0.0189819 -1.31783e-22)
(1.13799 -0.0331163 2.49111e-21)
(0.979447 -0.00499629 -7.35525e-22)
(0.99161 0.181696 -6.96409e-21)
(1.01565 -0.0299318 -2.60738e-22)
(1.00028 -0.000159624 2.50819e-23)
(0.964413 -0.0730165 2.18301e-22)
(0.98142 -0.0423086 -2.53634e-21)
(1.19083 -0.0219308 1.15874e-21)
(0.996791 -0.00698665 -1.56712e-22)
(0.987321 -0.0560735 -8.39054e-22)
(0.999976 -6.2182e-06 2.14249e-24)
(0.889925 0.161463 -2.95568e-20)
(1.01722 -0.00251021 2.02228e-21)
(1.00009 -0.000271604 -6.98542e-24)
(0.851181 0.0424032 -4.02278e-20)
(0.982125 -0.047999 1.60431e-21)
(0.999975 -7.2664e-06 3.37508e-25)
(1.00162 -0.0014512 3.71826e-23)
(0.96455 -0.0763467 -1.29077e-21)
(1.04318 -0.0438963 3.9844e-22)
(1.05582 -0.0168526 2.46804e-21)
(0.99999 -3.6018e-06 6.13688e-25)
(0.990886 -0.000755994 4.73723e-22)
(1.02418 -0.0558895 9.7238e-22)
(0.994075 -0.00189989 7.09784e-22)
(0.999478 -5.59012e-05 -1.87874e-22)
(0.990756 -0.00471861 1.02351e-23)
(0.960133 0.0671051 3.50786e-21)
(0.992018 -0.0144881 -6.62789e-22)
(0.987778 -0.0137669 1.87641e-22)
(1.00377 0.0453214 -9.99133e-21)
(0.996928 -0.0026224 1.69232e-22)
(0.983641 0.214075 -2.54919e-21)
(0.999974 -7.30971e-06 -1.08713e-24)
(0.98821 -0.0320813 4.93312e-22)
(0.979077 -0.0905033 5.23504e-21)
(0.988422 -0.0564579 1.42451e-21)
(1.20649 -0.0826665 7.65465e-22)
(0.998672 -0.00644787 2.12386e-22)
(1.01032 -0.0279412 1.09471e-22)
(0.999908 -0.0027761 4.09714e-24)
(0.980891 -0.0249227 -1.4547e-21)
(1.0446 -0.0475857 1.3177e-22)
(0.99996 -1.71615e-05 6.2688e-24)
(1.00002 -1.3557e-06 -2.12577e-25)
(0.992869 -0.000483568 3.24292e-22)
(0.975751 0.124649 2.18008e-20)
(1.01429 -0.0231911 1.12485e-21)
(1.00291 -0.00410422 -1.57398e-22)
(0.925499 -0.0377181 3.45758e-21)
(1 -1.17905e-05 1.37854e-25)
(1.0011 -0.00136213 -1.42264e-22)
(0.99996 -0.000789827 -2.15344e-24)
(1.01589 -0.022267 1.24264e-21)
(0.981118 -0.0184159 2.60443e-22)
(0.999568 -0.000332053 2.38162e-23)
(0.992527 -0.0129304 2.45536e-22)
(0.986091 -0.00813789 -2.73068e-22)
(1.00115 -0.000187364 -1.17695e-23)
(0.999973 -8.5425e-06 -6.754e-25)
(1.21728 -0.0507216 -1.4298e-21)
(0.999625 -0.00206596 7.32051e-23)
(1.08797 -0.0146848 2.14576e-21)
(1.05551 0.180282 4.97845e-20)
(1.09524 0.129443 -1.14175e-20)
(1.00054 -0.0239743 -4.84428e-22)
(1.00629 -0.00244929 -6.45918e-23)
(1.02102 -0.0018438 2.19796e-21)
(0.999962 -0.00283835 -4.66496e-24)
(0.997479 -0.0121298 2.5356e-22)
(1 -1.99748e-05 5.43372e-25)
(1.00855 0.18003 -1.02425e-21)
(0.98621 -0.0184858 3.61813e-22)
(1.01571 -0.00552823 -7.9647e-22)
(0.979914 -0.00518734 1.53411e-21)
(1.0041 -0.0149251 8.34426e-24)
(0.996985 -0.00687519 3.43474e-22)
(0.999881 -0.00023773 2.86037e-24)
(1.00002 -1.16276e-06 -1.18453e-24)
(0.994886 -0.00532414 -3.83036e-22)
(1.0644 -0.0164193 -1.35662e-21)
(1.0089 0.0689138 1.61774e-21)
(1.00138 -0.000559064 -1.74152e-22)
(0.969825 -0.0680817 -1.18796e-21)
(0.971695 -0.0258092 -5.01839e-22)
(0.991108 -0.000595264 -1.78039e-21)
(1.25083 0.00852597 -1.08488e-21)
(0.998531 -0.0011314 -8.49634e-23)
(1.00415 -0.0168875 -2.15938e-22)
(0.993822 -0.00325913 3.59316e-22)
(0.999891 -0.000229201 2.41583e-24)
(0.964776 -0.0799093 1.4655e-21)
(1.00468 0.0690468 -1.59942e-20)
(1.04254 0.0505468 -1.25584e-20)
(0.974467 -0.0172894 -2.4101e-22)
(1.00361 0.0660918 -6.81095e-22)
(1.00009 -0.00025484 1.32455e-23)
(1.00002 -1.77183e-06 3.52562e-25)
(1.25284 0.0285213 -1.5188e-21)
(1.1965 -0.0231344 -7.23677e-22)
(0.861705 0.167137 -1.39758e-21)
(0.998421 -0.0950666 3.78318e-21)
(0.973951 -0.00177314 -1.12057e-21)
(1.16571 -0.0394215 -1.17202e-21)
(1.00132 -0.000585638 1.97101e-22)
(0.993596 -0.00439033 2.05817e-22)
(1.00052 -0.000199146 -1.1429e-23)
(0.987901 -0.000832778 -3.80947e-22)
(0.986672 -0.0151228 -5.31197e-22)
(0.999995 -3.90702e-05 -2.19801e-24)
(0.998996 -3.92106e-05 3.34602e-23)
(1.03074 0.189391 -4.79232e-20)
(0.999853 -0.000820337 2.70111e-23)
(0.902824 0.146616 3.71745e-20)
(1 -1.89886e-05 -4.1528e-25)
(1.24714 -0.0348147 -1.04308e-21)
(1.08783 -0.0169637 -4.5411e-21)
(1.13803 -0.0297028 -2.75025e-21)
(1.00118 -0.000558503 1.17761e-23)
(1.00021 -4.9165e-05 1.98703e-23)
(0.981139 0.115824 -3.32003e-20)
(1.09124 -0.0124385 9.06227e-21)
(0.97841 -0.0922575 -4.75011e-21)
(1.03048 0.0503932 5.75168e-21)
(0.99738 -0.0243039 2.11251e-22)
(0.98484 -0.00621351 -3.97077e-22)
(0.995397 -0.000255849 -2.14733e-22)
(1.23798 0.147649 -1.57011e-20)
(0.972869 -0.030882 1.83913e-21)
(1.03661 -0.0399197 -8.1964e-22)
(0.992826 -0.0128179 -1.40889e-22)
(1 -1.17155e-05 -3.23905e-27)
(0.998545 -0.00106762 -7.21833e-23)
(1.00676 -0.00693897 3.39745e-22)
(0.97919 -0.00922992 1.96935e-21)
(0.975131 -0.0174337 3.60697e-22)
(0.951062 -0.0463056 -5.4131e-22)
(0.978974 -0.00978837 -1.49375e-21)
(1.02327 0.00322277 1.02267e-21)
(0.997591 -0.000163075 4.43448e-24)
(0.931678 -0.0432408 1.77253e-21)
(0.984052 -0.00105769 -5.45703e-22)
(1.00004 -0.000246192 1.19623e-24)
(0.986077 -0.000845587 -3.779e-22)
(1.0372 -0.0431211 -1.31838e-21)
(1.02237 0.00349356 -5.65489e-21)
(0.970579 -0.0310436 -4.57862e-22)
(0.99998 -8.26436e-07 -9.79477e-27)
(0.98024 -0.0188187 3.90048e-22)
(1.0024 -0.0172368 3.06636e-23)
(1.00158 -0.00135138 4.76824e-23)
(1.14661 -0.166183 -4.24262e-21)
(1.00358 0.0682958 -3.72907e-20)
(1.00103 -0.00134609 1.31981e-22)
(0.986313 -0.000636411 5.43205e-24)
(1.11181 -0.100063 2.48241e-23)
(1.03197 0.00023157 8.7384e-21)
(0.981339 0.0525952 -3.7646e-21)
(1.0021 -0.00286719 4.25172e-23)
(1.00033 -0.0249666 1.51798e-22)
(1.16824 0.128624 -3.13055e-21)
(1.02124 0.0316098 -2.94632e-20)
(0.989406 -0.0319854 1.30587e-21)
(1.00542 -0.00404726 -6.06107e-23)
(0.945778 -0.0548255 2.46894e-21)
(0.999997 -5.72853e-06 4.55011e-25)
(0.944894 -0.002339 -1.82513e-21)
(1.0001 -8.08709e-05 2.57847e-24)
(1.10883 -0.10115 -3.85151e-21)
(0.999962 -4.08234e-06 -6.99401e-25)
(1.00003 -7.20282e-05 9.72979e-25)
(0.99987 -0.0278974 -1.80925e-22)
(1.23398 -0.0151375 -5.57939e-22)
(1.10564 0.224154 1.95241e-20)
(1.04094 -0.044439 -2.05495e-21)
(1.01591 -0.0178774 6.30895e-22)
(0.999999 -4.27164e-06 -1.37828e-25)
(0.993084 -0.00521212 -6.93341e-22)
(1.0001 -2.4173e-05 -1.95285e-24)
(0.996441 -0.00279291 2.41804e-22)
(1.00003 -6.70375e-05 -7.47013e-25)
(1.05613 -0.0146904 -7.70065e-21)
(0.999466 -0.00054957 -9.2986e-23)
(1.07853 0.0630565 1.20199e-20)
(0.999858 -0.000254238 -1.85313e-23)
(0.985394 -0.00607087 -6.74501e-22)
(0.953525 -0.00125562 4.21631e-21)
(0.995161 -0.000345745 -2.77265e-22)
(0.9717 0.068923 3.61059e-20)
(0.98043 -0.000835644 1.03168e-21)
(1.02769 -0.120459 2.97618e-22)
(0.993763 -0.00460472 1.06596e-21)
(1.0296 -0.00321752 -1.82258e-21)
(0.966913 -0.0690664 5.11235e-21)
(1.02246 -0.00169918 -6.11911e-21)
(1.04451 -0.0828323 -1.13422e-22)
(0.999983 -1.55105e-06 1.02966e-25)
(0.999082 -0.023588 1.6875e-22)
(0.995473 -0.000337539 3.37367e-23)
(1.00029 -0.000107762 1.5136e-23)
(1.0001 -2.02264e-05 3.22306e-24)
(1.24422 0.144597 1.70382e-20)
(0.99446 -0.00248827 5.96617e-22)
(1.03197 0.00109777 9.97205e-21)
(1.00104 -0.0255666 1.83568e-22)
(1.00098 -0.000354375 4.5208e-23)
(1.02724 -0.00988711 -6.70712e-21)
(1.00019 -4.53062e-05 -4.3676e-23)
(0.999972 -3.90417e-06 -9.55531e-26)
(0.945559 -0.00311453 1.41029e-21)
(0.996038 -0.00141969 2.69744e-22)
(1.00004 -6.52798e-05 1.28048e-24)
(1.1099 0.121257 8.27124e-21)
(0.796307 0.134383 -5.37955e-20)
(0.999761 -0.000269151 4.46877e-23)
(0.955582 -0.00253668 -1.1641e-21)
(1.00002 -1.70533e-06 2.58584e-25)
(0.929014 0.196722 -3.39138e-20)
(1.25175 -0.0350137 -1.59456e-21)
(0.967149 -0.0554477 -4.22557e-21)
(1.00006 -0.000647355 -2.66092e-24)
(1.03535 -0.0385277 1.92796e-21)
(1.03592 -0.00367744 -2.51027e-21)
(1.03738 -0.000529821 7.38751e-22)
(1.05708 -0.0177187 -9.55915e-22)
(0.999594 -0.00221441 -1.16395e-23)
(0.999851 -0.000982017 2.31105e-23)
(0.984144 -0.0183727 -1.15574e-21)
(1 -1.02523e-05 3.55921e-25)
(1.00002 -1.23485e-06 -6.54072e-26)
(0.971906 -0.0303304 -1.0851e-21)
(0.996879 -0.0725093 -2.08143e-21)
(0.952475 -0.0454502 -1.39725e-22)
(0.836652 0.192747 -1.18205e-21)
(1.00023 -2.95137e-05 -1.84086e-23)
(1.01856 -0.0907815 -4.15392e-21)
(1.00838 -0.00618765 -5.948e-22)
(0.999973 -4.10554e-06 1.09692e-24)
(0.998845 -0.00459036 -1.85216e-22)
(1.00004 -0.000549714 -1.31488e-24)
(0.994927 -0.0149624 4.05742e-22)
(1.00005 -1.2085e-05 1.79143e-24)
(1.04652 -0.081383 -2.48818e-22)
(1.02202 -0.00206732 5.93457e-21)
(0.985455 0.208749 7.15831e-21)
(1.02892 -0.00300455 6.84787e-21)
(0.999685 -0.000263055 3.50794e-23)
(1.00052 -0.000455289 -4.42134e-23)
(1.18919 -0.117694 -4.79185e-21)
(1.03181 0.000938617 -8.02263e-21)
(0.99649 -0.000460458 2.41473e-22)
(1.00002 -1.59256e-06 5.57001e-25)
(1.12227 0.096174 -1.33477e-20)
(1.10747 -0.200816 -1.94147e-21)
(0.99856 -0.0930083 -1.67114e-21)
(0.983616 -0.000900488 -2.89626e-22)
(0.999975 -2.60936e-05 2.22161e-24)
(0.999687 -0.000248183 -2.05236e-23)
(1.11422 -0.204165 5.46109e-21)
(0.997368 -0.0580953 -5.80287e-22)
(1.04932 0.0343196 1.78283e-21)
(0.988985 0.175044 3.02447e-20)
(1.02627 -0.117385 2.27594e-21)
(0.998567 -9.8075e-05 -4.40193e-23)
(0.999976 -1.21198e-05 -2.57954e-24)
(0.958022 -0.0590905 4.14633e-21)
(0.972918 -0.118517 -5.32551e-21)
(0.999771 -0.000278422 2.4142e-23)
(1.01106 -0.0271983 5.22904e-22)
(0.989769 -0.0311333 -2.2734e-22)
(0.994747 -0.00266727 2.35386e-22)
(0.996929 0.0608121 -2.82044e-20)
(0.998542 -0.000641623 1.56679e-22)
(1.05921 -0.0617985 1.1226e-22)
(1.26098 0.0648102 -5.29518e-21)
(0.991244 -0.00383931 -6.78436e-22)
(0.85699 0.157303 -5.25778e-21)
(0.866487 0.0721382 1.68178e-20)
(0.999965 -6.05941e-05 -8.3497e-24)
(0.999971 -0.000862984 -2.34476e-24)
(0.980667 -0.00110925 -6.61405e-22)
(1.01497 -0.00557336 -1.43991e-21)
(0.957438 -0.00233843 2.41711e-21)
(1.00589 -0.00502039 -6.21989e-22)
(0.99156 -0.00385211 6.3536e-22)
(0.999357 -0.000586464 -7.03783e-23)
(0.946331 0.194679 -5.96922e-21)
(1.07844 0.0598404 -1.87091e-20)
(1.00258 -0.0027798 1.09531e-22)
(0.722951 0.0832715 -1.06133e-20)
(1.00002 -1.53847e-06 -3.63074e-25)
(1.03057 0.00717083 -1.39446e-20)
(0.991362 -0.11484 3.70713e-21)
(1.0213 -0.0907968 1.6178e-21)
(1.00011 -0.00024733 -6.55048e-25)
(0.9554 -0.00128524 1.99009e-21)
(1.02755 0.00645874 7.84776e-21)
(1.0146 -0.00599521 1.19187e-21)
(1.0354 -0.00243895 3.49016e-21)
(0.999492 -4.361e-05 1.32432e-22)
(0.999459 -0.000585922 8.42405e-23)
(1.02779 -0.0545133 2.15936e-22)
(0.996104 -0.00153073 -7.72787e-22)
(0.985689 -0.0137599 -1.25071e-21)
(0.998988 -0.00416319 1.09706e-23)
(1.10401 0.0354435 9.01664e-21)
(0.998786 -0.0245729 -1.17308e-22)
(0.994395 -0.00565397 1.2274e-23)
(0.921689 -0.0319374 -5.123e-21)
(1.00418 0.137273 3.44914e-21)
(1.12446 -0.0499834 -1.71343e-21)
(1.02657 -0.00943418 5.39324e-21)
(0.999549 -0.00021442 2.53404e-23)
(0.999423 -0.000383128 1.13854e-23)
(0.980044 -0.0246236 2.93353e-21)
(1.00113 -0.00146605 -1.06086e-22)
(0.997065 -0.000811456 -4.37765e-23)
(0.999976 -2.50119e-05 -8.33621e-25)
(0.999635 -0.00225583 2.40511e-24)
(1.02686 0.00599324 -3.05114e-21)
(0.980843 0.12168 -3.18204e-20)
(0.999855 -1.83562e-05 5.76839e-24)
(1.24487 0.109477 -1.30708e-20)
(0.999995 -4.88696e-05 9.24944e-25)
(0.996332 -0.00330549 3.28909e-22)
(0.99999 -0.000112127 1.05281e-24)
(1.00594 -0.00434172 -2.75743e-22)
(1.21854 -0.0546886 1.1258e-21)
(0.999955 -5.06219e-05 6.5289e-25)
(0.999954 -5.44358e-05 4.72119e-24)
(0.939365 -0.0517405 -2.3001e-21)
(1.00001 -1.01433e-05 -4.37738e-27)
(1.06077 -0.0178489 7.96965e-21)
(0.985921 -0.048925 2.28562e-21)
(0.999973 -0.000758844 2.3478e-24)
(1.11155 0.0719704 -1.04827e-20)
(1 -3.48104e-05 -7.42216e-25)
(0.999549 -4.54022e-05 1.16336e-22)
(0.999899 -4.19182e-05 1.93905e-25)
(0.994599 -0.00566875 -1.97223e-22)
(0.999619 -0.00179925 -3.55818e-23)
(0.993004 -0.000365232 -2.17947e-22)
(1.00379 -0.138345 -4.32102e-22)
(0.999662 -0.00175254 2.36896e-23)
(1.00476 -0.00405378 -2.1404e-22)
(0.999972 -2.82518e-06 -4.07193e-25)
(1.10601 0.217415 -3.80227e-20)
(1.05732 -0.0629761 2.43148e-22)
(1.12783 -0.0509749 -8.27828e-23)
(0.96044 -0.00699369 2.61335e-21)
(0.974458 -0.00498288 -4.79081e-22)
(0.998948 -0.00448968 3.05464e-22)
(1.00331 -0.0030897 2.98076e-22)
(1.0688 0.0815245 5.13258e-21)
(0.980664 -0.0435376 3.45025e-22)
(1.17639 0.0956885 4.36206e-21)
(0.950755 -0.0158734 -4.7082e-21)
(0.9962 -0.00319158 -3.10096e-22)
(0.999989 -4.58817e-06 -1.09849e-24)
(0.99361 -0.00327032 -4.33246e-22)
(1.05957 0.223755 1.00297e-20)
(1.10523 0.0868851 -2.48096e-21)
(0.980955 -0.0654082 1.84859e-21)
(0.933327 -0.00682724 1.09419e-21)
(1.10639 0.201133 1.04164e-20)
(0.990426 -0.00067887 5.64075e-22)
(0.985618 -0.105122 2.92153e-22)
(0.999991 -0.000106815 2.3065e-24)
(0.984643 -0.0491599 2.85414e-21)
(0.999062 -0.000264617 -1.66064e-22)
(0.742517 0.144391 -3.04907e-20)
(0.977821 -0.0860339 -4.01224e-21)
(0.999901 -3.75254e-05 1.09201e-23)
(0.929147 -0.0221965 -2.89509e-22)
(0.980523 -0.0461842 1.64339e-22)
(1.0528 0.094724 1.85824e-20)
(0.997106 -0.000885488 -4.14274e-22)
(0.978339 -0.0445517 -1.02837e-21)
(0.997268 -0.0124348 -3.5245e-22)
(0.999961 -0.0269566 -3.77797e-22)
(0.998581 -0.000652367 -1.07071e-22)
(1.05069 0.0928168 -2.25935e-20)
(1.04413 -0.191581 3.80954e-21)
(0.980169 -0.0195899 -8.66045e-22)
(0.984764 -0.0170822 1.83551e-23)
(0.985516 -0.00573197 -2.70806e-22)
(1.00592 -0.00239067 -2.52841e-22)
(1.10573 0.193666 4.08196e-20)
(0.980111 -0.0158988 3.94983e-22)
(1.0211 0.0484341 1.261e-20)
(1.00305 -0.0024876 2.26972e-22)
(1.21082 -0.0800065 -1.13804e-22)
(0.898963 0.158315 5.57283e-21)
(0.990238 -0.00053068 -1.9462e-21)
(0.999743 -4.80616e-05 2.32953e-23)
(1.08044 0.111614 5.37694e-21)
(1.02286 0.182358 -3.93044e-20)
(1.02695 -0.0525829 -2.14652e-22)
(1.09088 -0.0542507 2.13995e-22)
(0.99467 -0.0155286 -4.48601e-22)
(0.961044 -0.00632089 -1.54724e-21)
(1.16312 0.126948 1.27643e-20)
(0.956474 -0.0593125 7.21192e-22)
(0.999973 -2.50588e-05 2.87085e-24)
(0.991697 -0.000129819 -1.00382e-21)
(1.00004 -6.75624e-06 1.77646e-24)
(0.994993 -0.000310556 7.52227e-22)
(0.999972 -2.64018e-05 -4.45715e-24)
(0.997706 -0.0173504 5.81111e-22)
(0.998928 -4.35241e-05 5.89554e-23)
(0.996938 -0.00651784 4.00848e-23)
(1.19613 -0.101816 -7.77797e-22)
(0.999337 -0.00044702 6.01851e-23)
(0.999442 -0.000230152 4.11437e-23)