/*--------------------------------*- C++ -*----------------------------------*\
  =========                 |
  \\      /  F ield         | OpenFOAM: The Open Source CFD Toolbox
   \\    /   O peration     | Website:  https://openfoam.org
    \\  /    A nd           | Version:  7
     \\/     M anipulation  |
\*---------------------------------------------------------------------------*/
FoamFile
{
    version     2.0;
    format      ascii;
    class       surfaceScalarField;
    location    "38";
    object      phi;
}
// * * * * * * * * * * * * * * * * * * * * * * * * * * * * * * * * * * * * * //

dimensions      [0 3 -1 0 0 0 0];

internalField   nonuniform List<scalar> 
44730
(
-595.689
670.463
-74.7744
1064.39
-1072.36
7.97291
-334.279
380.872
-46.5935
220.985
-259.141
38.155
-498.026
498.026
213.696
-260.277
46.5815
-386.529
380.386
6.14305
30.5538
-569.238
538.684
664.504
-833.98
169.476
-1009.38
1102.33
-92.9554
562.022
-150.543
-411.479
-534.098
535.887
-1.78853
-687.687
582.585
105.102
-859.807
868.864
-9.05727
248.249
70.5036
-318.753
384.634
-10.0765
-374.557
814.394
-666.912
-147.481
-400.871
414.352
-13.4802
160.598
314.823
-475.421
289.408
-355.561
66.1523
-593.902
81.707
512.195
724.836
-60.3317
49.183
-383.462
136.384
-489.067
352.683
236.406
-127.065
-109.341
1068.17
-3.78074
659.736
-680.858
21.1228
-279.531
-1.81986
281.351
293.883
-45.6332
-443.876
543.957
-100.081
956.572
-247.919
-708.653
-676.692
767.025
-90.3324
258.99
-225.747
-33.2424
482.549
-75.3418
-407.208
132.015
-411.546
262.733
-432.426
169.693
441.915
-583.604
141.689
291.392
-42.9199
-248.472
825.783
-980.874
155.091
1063.7
-237.919
-1018.36
1035.84
-17.4786
399.312
-86.5868
-312.725
704.077
110.317
188.939
-316.738
127.799
1228.49
-777.717
-450.772
-591.195
147.319
536.42
-538.945
2.525
230.477
645.568
-876.045
225.968
537.207
-763.175
-100.929
542.844
-392.012
171.166
220.846
-7.38817
-227.505
234.893
-672.169
-4.52274
237.387
-23.6914
423.308
-38.6738
-277.314
-40.2455
317.559
523.762
-499.341
-24.421
-34.3393
-559.562
-466.534
46.4768
420.057
-297.917
-35.446
333.363
799.485
17.5791
-817.064
-409.152
569.75
10.3281
-247.838
237.509
-222.467
485.2
-322.02
431.126
-109.107
263.029
240.678
-503.707
495.554
-121.245
-374.309
429.599
-50.7836
-378.816
-451.978
-29.1654
481.143
-986.826
-31.5319
1062.29
5.87771
301.3
281.624
-582.924
-245.663
548.315
-302.652
170.255
82.9384
-253.193
-430.551
380.61
49.9411
-377.286
394.948
-17.6612
278.213
-160.48
-117.732
-250.392
-57.8454
308.238
-699.279
16.5331
682.746
407.486
-86.7054
-320.78
-249.1
249.1
79.1387
-758.98
679.841
-666.271
70.583
-947.212
848.237
98.9744
-326.814
-59.7154
-16.3936
219.361
-202.967
517.383
-133.029
-384.354
-644.441
-43.2463
652.342
-69.7568
91.1285
83.8932
-175.022
-361.565
99.3966
262.168
-305.987
55.5944
847.273
-621.305
569.382
-603.331
33.9492
216.742
-89.7597
-126.982
-358.58
134.909
223.671
-31.2615
260.899
-229.638
-846.779
847.615
-0.836268
-38.7364
-154.281
193.017
266.707
-0.955004
-265.752
-711.439
12.1595
-262.218
281.046
-18.8276
778.721
20.7644
434.951
-640.715
205.764
205.143
-212.531
-757.02
822.502
-65.4816
645.662
-715.859
70.1976
74.6238
577.718
943.83
-846.98
-96.8493
-213.682
249.617
-35.9358
198.815
60.1746
357.794
124.319
-482.114
1009.1
-256.887
-752.212
17.302
564.38
-581.682
-12.2695
-587.738
600.007
539.092
-237.792
113.512
421.266
-534.778
-302.813
406.125
-103.312
76.7211
-814.821
738.1
-700.432
454.769
17.0145
-220.557
203.542
21.2895
-855.792
834.503
-331.447
326.13
5.31662
-36.6591
299.688
23.9762
-891.057
867.081
-352.657
352.926
-0.268972
-72.4563
-328.415
18.4414
-295.47
277.029
705.405
-787.303
81.8983
726.055
-860.294
134.24
-158.772
347.711
179.208
99.0042
195.375
-204.584
9.20818
309.432
-313.7
4.26823
-128.344
563.295
629.655
326.917
146.911
73.3579
-220.269
273.675
-312.516
38.8414
231.891
-266.156
34.2654
-18.654
285.361
-361.744
9.08756
2.16839
-182.364
180.195
216.766
-55.0306
-161.735
181.125
827.974
-198.072
-739.274
937.346
-101.085
-396.942
523.212
13.2081
240.342
-226.063
-14.2785
283.369
-233.025
-50.3446
36.8615
-229.013
192.151
-398.75
639.113
-240.362
48.9861
513.078
-562.064
984.135
-886.693
-97.4425
790.847
-787.079
-3.76834
-576.43
-234.428
810.858
-145.51
722.047
-576.538
452.888
-443.211
-9.67676
-213.465
0.69672
212.768
34.8249
-764.157
729.332
-169.289
-222.723
-242.682
229.562
13.1204
242.674
-21.6889
16.5688
1020.86
-572.448
-448.41
735.193
-933.265
-397.488
94.6752
8.69171
208.074
16.5584
-778.31
761.751
-90.3619
-856.85
415.837
-451.226
35.3889
-106.798
832.853
52.8096
-736.9
684.09
-206.43
-7.03472
273.675
11.8119
251.873
-263.685
-431.9
431.9
82.2252
680.385
-762.61
-311.535
49.3164
-580.142
597.444
330.048
-319.31
-10.7384
-777.829
-63.2662
841.095
-153.236
454.147
-300.911
434.058
83.3258
430.331
-441.656
11.3247
278.62
-46.7287
-202.112
-332.018
534.13
499.921
-380.79
-119.13
-327.882
20.559
307.323
786.244
-80.8396
-519.161
-81.5014
600.663
-661.018
661.018
-131.543
505.465
-373.923
95.4326
-345.487
250.054
-919.227
342.797
305.8
-356.152
50.3519
436.604
16.2837
813.517
-495.358
-318.159
918.394
-70.8778
-847.516
71.9107
144.831
-847.534
614.63
232.904
-25.5391
279.164
-253.625
-205.323
226.432
-21.1092
-46.0555
-488.043
875.503
-890.353
14.8497
-59.519
429.021
-13.1842
789.285
-794.302
5.01784
247.775
-7.43318
32.7083
-246.39
822.121
-963.805
141.684
246.7
-341.775
95.0743
570.464
-570.464
899.935
-93.222
-806.713
594.112
73.1034
-667.216
64.3619
-333.531
269.169
-176.314
265.123
-88.8096
-479.649
326.413
52.495
736.79
-392.769
529.153
245.422
-173.511
-684.134
-176.16
484.948
-630.458
453.24
-500.744
47.504
-900.184
1036.16
-135.976
-579.257
555.443
23.8142
506.782
-581.785
75.0025
129.982
736.876
-866.858
211.191
530.823
-742.014
723.353
505.136
322.481
741.221
320.885
-231.649
-89.2362
-292.558
292.558
370.507
-401.38
30.8731
-27.735
1090.03
268.382
-321.581
53.199
532.285
-483.299
-297.43
-562.377
551.407
-564.8
13.3927
-29.0526
904.556
267.253
-292.792
-244.12
211.815
32.3053
498.773
-587.47
88.6968
-197.544
959.119
-761.576
588.589
-81.8068
772.459
-382.68
-389.779
337.687
-48.2789
471.98
548.877
-209.042
192.649
-743.838
59.704
-937.425
37.2415
477.248
46.5137
-679.975
891.167
-697.306
-59.7141
183.787
-205.867
22.0803
-73.996
915.275
-841.279
-38.0585
-817.79
855.848
178.762
-176.593
57.6099
174.588
-232.198
-7.2814
-365.929
373.211
330.535
-312.093
-612.008
213.257
-243.92
440.708
-196.788
908.566
-678.089
304.61
16.2752
313.477
-14.0319
-299.446
-569.233
166.739
402.493
459.889
-29.558
525.591
-727.703
-377.926
0.639539
646.305
-746.171
99.8668
-225.573
155.19
70.3828
-656.061
638.904
17.1573
235.63
-223.818
68.952
176.47
-744.058
826.283
-310.178
328.112
-17.9343
67.9523
-362.217
294.264
233.653
-205.993
-27.6597
525.881
-328.282
-197.599
11.117
-346.356
335.239
-496.872
484.603
-76.83
277.255
-200.425
-663.4
161.364
502.036
-343.803
-14.7771
653.689
6.04689
444.376
-21.0683
-164.394
13.2693
151.125
-23.8746
729.618
-705.743
-858.22
988.202
320.183
-153.999
-166.184
677.296
-775.071
97.7755
425.523
346.936
706.164
59.814
-765.978
818.109
81.8267
558.343
-529.215
-29.1277
1093.73
-1012.33
-81.4083
1.93687
-292.236
290.299
290.992
22.4856
95.143
141.263
209.525
-14.1492
199.745
-196.964
-2.78085
138.983
151.974
-290.956
-301.761
281.913
19.8488
-167.029
-299.415
466.444
419.297
-550.839
-316.765
200.979
-189.762
-11.2168
190.138
1008.84
-559.414
-449.427
525.655
-109.06
-416.595
137.208
508.454
84.7624
473.581
-1.39888
-698.001
715.866
-17.8649
42.7301
-546.18
503.45
-96.3266
-248.348
344.674
-447.79
38.7318
409.058
-140.227
-335.821
476.048
779.984
-1.26347
24.7959
199.713
-387.931
188.219
153.323
-230.153
-920.949
849.88
71.0691
-292.139
305.993
-13.8547
675.149
-87.4433
-587.706
1047
-603.802
-443.198
199.152
-188.868
-10.2839
260.953
-112.297
-148.656
-420.223
417.68
2.54388
662.266
-30.662
-631.604
-696.998
-1.00278
380.467
27.0183
-561.125
450.577
110.548
585.158
-578.054
-7.10425
-855.761
44.4112
811.35
856.376
33.1968
-889.573
-424.168
283.941
-202.623
38.229
-329.958
539.268
-209.31
-188.805
-55.3147
754.992
-793.05
-147.381
204.991
542.93
-168.215
-374.715
-123.377
-308.523
213.699
-213.542
-0.156505
619.611
42.6548
683.324
-608.7
25.751
-302.258
276.507
838.013
-876.585
38.5714
-310.488
-8.82118
958.268
-961.283
3.01506
63.2237
193.065
-256.288
680.176
-33.8708
571.607
-592.629
21.0219
-828.112
849.402
209.189
-192.174
786.592
212.011
747.108
157.623
190.641
-348.264
-297.203
-6.03748
824.816
-73.947
-750.868
598.637
-131.367
-467.27
257.199
-86.0326
79.4779
416.076
89.7522
-266.066
473.721
-503.754
30.0327
141.145
-347.458
206.313
137.476
388.405
60.4045
857.99
653.165
-773.162
119.998
-22.3339
980.602
-291.634
-17.8153
309.45
-217.837
207.232
10.6049
-1.74612
172.001
47.8561
452.064
334.742
-342.024
-352.747
30.7277
-345.977
48.06
838.329
-58.3452
87.7741
-234.119
146.345
-959.101
21.6751
-923.164
-35.9368
-486.343
59.3338
427.01
-736.485
905.784
-169.299
-202.323
-58.5669
260.89
-123.843
-91.4364
215.279
-153.384
-46.8223
200.207
-135.208
228.652
-93.4431
853.468
424.348
-224.635
159.526
-11.7647
-567.493
-879.888
-41.0615
447.054
151.584
194.259
-524.218
200.803
-1107.16
906.36
17.9878
209.035
-227.023
1.83069
-207.153
417.954
26.4221
89.0862
701.761
277.287
14.5774
-291.864
-468.207
581.719
728.872
72.7178
-801.59
-780.234
-7.06907
802.871
-856.315
53.4435
303.661
-289.728
-13.9325
87.6168
232.566
850.907
-864.915
14.0084
978.825
-862.144
-116.681
939.332
-943.838
4.50533
-400.509
-160.616
-0.746687
-873.41
544.722
328.689
-176.469
161.06
15.4095
-246.53
385.513
139.03
90.9279
-229.958
753.938
269.781
-259.453
431.503
94.152
784.2
-699.082
-85.1182
-52.34
-105.49
-89.889
195.379
-304.332
261.566
42.7654
862.798
-838.821
-20.9403
378.298
-357.358
-332.582
-29.1626
572.42
-583.097
10.6778
365.743
-327.384
-38.3589
-828.602
731.251
97.3511
-905.86
831.864
142.957
117.997
-405.03
275.858
129.172
466.684
-453.364
-13.3204
620.846
-622.618
1.77272
517.973
-44.2519
-319.658
-129.996
449.653
7.0081
-298.642
-64.7948
-250.584
315.379
544.289
563.934
-1108.22
-900.861
849.223
51.6375
1.66162
-404.125
417.722
-13.5968
430.975
-399.224
-31.7508
673.91
-849.207
175.297
711.922
-883.477
171.555
-501.999
-161.401
-439.669
62.3586
377.31
302.453
-5.78035
-296.672
-325.813
172.429
477.447
84.5748
-719.742
-108.86
14.833
184.912
-298.578
303.263
-4.68562
25.9152
-338.92
313.005
488.928
40.4644
-529.392
-238.534
302.45
-63.9166
-896.19
-19.637
915.827
-195.7
-38.8641
234.565
6.12161
-849.595
843.473
804.703
-118.351
-686.352
336.111
145.987
-210.782
-874.869
-21.3204
808.784
41.096
2.18815
552.344
-194.55
-512.577
-18.1912
530.768
-801.988
913.793
-111.804
312.881
-244.929
-406.074
309.747
-29.8358
590.618
63.0709
382.382
-241.237
302.295
511.222
-12.0564
23.9601
341.783
-779.564
90.133
689.431
456.024
95.3831
-128.987
-31.1575
160.145
-851.801
-23.0679
65.7884
333.523
-190.117
232.498
-42.3811
42.1854
-280.719
-289.759
279.927
9.83165
-17.4053
24.1668
-513.574
489.407
-611.748
-134.424
-18.8963
299.29
-280.394
-336.984
461.303
599.383
447.617
-1102.78
430.491
672.293
328.689
0.243054
-328.932
-231.691
-169.157
400.847
-525.576
556.13
-661.311
-19.452
680.763
100.521
80.4138
-180.935
-44.2563
799.248
839.471
-862.752
23.2808
807.392
-154.228
36.062
-605.3
-322.041
-24.3152
556.777
57.711
-614.489
436.834
23.0548
-348.509
390.663
-42.1537
-853.989
-3.70471
857.694
-27.8211
-823.98
280.69
-288.33
7.64009
625.222
-4.37635
573.998
-418.563
-155.435
-216.124
274.213
-58.0895
-85.3357
-267.412
-419.47
-47.0644
896.352
-184.43
-825.765
89.2803
-629.179
17.4317
-537.974
48.0294
489.945
820.546
-39.6223
-780.923
-259.283
124.074
3.60527
-356.679
353.074
862.949
-189.039
305.726
-3.27331
637.164
-65.5568
494.324
-5.39572
801.329
-712.243
-1045.14
-57.6424
444.442
22.2427
537.385
31.9973
729.51
-694.685
796.543
-38.697
-757.846
189.93
-228.667
272.632
-11.0655
-117.67
211.086
-174.225
474.884
15.3085
-490.193
576.079
-94.9354
-481.144
-458.18
421.334
36.8454
128.823
672.507
12.1108
-101.79
-756.473
858.263
73.4888
-666.184
592.695
222.598
-301.046
78.4488
-745.392
643.602
91.686
713.017
-504.412
1048.7
232.085
-144.311
-284.263
-177.789
251.209
-73.4203
204.696
-267.788
63.0924
-178.395
317.425
11.507
-344.089
-50.9902
4.73866
-409.573
404.834
-47.4935
-161.198
-194.362
-27.3078
365.045
-337.737
-870.859
944.459
-73.6009
45.4733
-527.937
482.464
30.8653
-248.702
-755.691
105.973
649.718
357.317
-225.302
819.408
1.13769
-36.2923
227.111
-190.818
443.025
130.973
-104.746
-334.922
816.26
-201.63
-95.2296
-914.146
614.116
-332.492
124.366
57.6584
651.656
-572.517
495.219
-12.6698
340.461
-34.6603
338.482
-420.797
82.3149
191.498
-236.805
45.3065
52.5754
244.954
-297.53
339.769
-506.799
-6.37694
761.955
-806.212
537.403
-62.5192
-107.644
739.335
-631.691
-268.317
301.462
-33.1447
-70.4774
293.075
198.533
-189.842
-278.906
10.5882
-1061.29
589.014
472.273
-35.8275
-79.1454
170.274
-307.782
293.467
14.3158
-675.986
692.545
267.175
-271.877
4.70175
-484.363
184.948
-504.446
-556.841
235.307
-278.227
847.158
-946.589
99.4306
-343.291
21.2501
488.818
-626.694
137.876
-2.80082
811.585
267.617
-288.067
20.4503
-326.733
-546.677
-37.1133
292.273
-25.098
367.079
-130.212
-236.867
-19.7795
-845.722
865.502
-878.069
488.938
389.132
-55.46
735.845
-461.157
41.6872
-139.024
-125.594
264.618
874.43
-822.746
-51.6845
390.608
-324.819
797.802
5.06943
110.176
77.4952
-187.671
-580.551
1024.4
-443.846
141.715
-189.296
47.5814
-759.018
-144.966
903.984
144.262
222.817
853.501
-31.3794
813.469
-736.747
502.215
-422.738
-18.0609
-229.777
44.0392
149.037
-193.076
311.202
241.142
-21.8489
-1098.2
619.195
479.004
8.79745
891.721
-60.5384
-831.183
-430.493
622.066
-191.572
57.1256
756.343
27.487
-540.064
-590.496
-18.1745
608.67
417.827
140.177
-558.004
-264.781
-522.298
278.303
62.158
-174.484
-74.6161
-405.683
352.267
53.416
-793.436
298.078
199.469
-260.266
60.7975
225.924
-265.713
39.7887
428.858
-424.12
731.117
52.1947
-783.312
-202.836
48.5554
825.597
20.7586
-846.356
-373.247
22.2357
351.012
118.64
860.185
-407.897
454.374
410.864
-72.3819
-954.597
99.7459
854.851
789.131
102.59
-35.7659
227.264
50.0391
380.936
902.817
133.343
23.1791
-484.336
28.8293
-827.201
798.372
701.536
-770.937
69.401
636.361
465.97
769.004
-56.0306
-712.973
190.679
-48.9646
76.0126
339.167
-415.18
-735.266
792.392
263.098
168.029
-275.423
168.741
106.683
-111.249
-426.75
537.998
-31.1983
-211.484
1004.42
-573.929
86.4279
-288.751
182.399
-218.691
-107.364
-151.776
30.8137
820.093
-168.75
508.519
-605.839
759.752
-153.913
686.533
-710.408
-399.172
380.98
-443.077
-179.542
39.2515
349.012
-15.494
-333.518
-46.2939
808.249
-505.251
-623.369
1128.62
287.882
-244.604
213.342
1.80973
196.724
-250.622
123.557
-885.365
909.035
-23.67
-284.644
259.763
24.8811
72.9466
711.253
3.36211
765.642
634.925
-15.3144
-14.966
-510.966
472.397
38.5693
933.099
17.15
-950.249
-323.393
-49.8546
-0.167887
-234.477
800.906
-69.7882
529.008
-623.047
94.0391
-762.175
-84.6039
12.2189
291.442
891.656
11.1609
-490.195
440.394
49.8004
-950.462
-94.6794
39.8944
-377.809
337.914
-223.731
250.082
-26.3516
254.623
-49.9273
-39.4005
1050.29
-313.211
-737.077
579.529
-50.5215
54.889
-262.789
-70.7422
-689.574
777.985
-88.4104
-79.1127
-19.5402
245.464
504.543
-5.76917
92.7855
-870.614
-84.5878
208.623
-124.035
-207.615
217.496
-9.88055
-681.775
570.526
-455.875
480.042
344.583
46.0243
-459.574
424.335
35.2389
584.081
424.761
498.134
-459.745
-38.3888
493.887
-319.471
-174.416
-187.07
26.5901
349.188
-20.7842
-328.404
-253.879
76.0899
-326.839
290.18
-219.053
-636.708
-691.659
-81.5036
257.952
-58.4835
665.882
197.067
7.07006
222.492
817.199
-83.7843
-733.415
328.248
-141.951
646.834
-504.884
238.674
-297.24
-91.9419
509.769
-751.142
7.08395
-119.818
-105.755
500.009
-97.2144
786.56
-689.346
-197.383
231.471
-34.0872
-38.5368
-246.107
829.585
-737.899
217.902
-427.643
-409.224
836.867
865.771
-199.889
-42.6649
792.632
-749.967
597.285
-6.66737
17.5895
-608.085
282.528
145.061
-427.589
-403.759
479.772
-24.8556
-314.461
339.316
-616.334
64.928
551.406
-134.711
510.155
-375.444
-483.239
408.018
-482.276
74.2583
105.094
-171.001
65.9069
-181.069
338.692
-197.434
-180.492
734.206
-32.6705
102.224
581.1
-610.973
648.73
-37.7569
269.75
-288.646
-810.998
-51.7537
96.836
-432.657
590.118
460.17
-615.747
172.67
419.616
-847.258
382.425
-681.852
28.6456
653.206
-187.122
234.702
-47.5801
-816.303
886.695
-70.3919
-47.6938
-432.061
479.755
1005.36
-405.641
-599.72
-67.922
-788.393
-19.1713
299.861
-950.456
207.433
743.023
-857.687
-92.7695
-170.418
-6.05146
-777.771
731.478
-129.263
-303.763
433.027
-7.42282
-271.471
278.894
160.17
647.222
240.317
147.169
-387.485
-902.864
154.565
748.298
541.107
-580.862
39.7547
604.527
58.5826
-663.109
-45.3462
673.52
-639.91
-33.6095
352.32
-23.6307
-38.6656
244.437
-205.771
608.478
65.0411
13.0406
-793.275
721.532
-777.563
-175.684
219.724
333.366
160.522
132.315
-329.749
200.822
-203.709
2.88754
338.23
-197.964
-140.266
592.241
42.684
-748.774
801.51
-52.7354
-405.223
-96.2037
501.426
-6.65226
-291.926
240.131
61.4825
-301.613
243.745
-95.6978
-148.047
418.17
-465.864
-61.713
-740.275
-410.323
88.9517
144.701
502.017
-434.493
-67.5242
-234.614
252.602
-195.818
189.336
6.48271
18.2441
-219.991
201.747
-321.42
378.135
-56.7142
222.902
-21.5609
-201.341
450.465
554.895
-258.007
555.385
-473.678
141.739
-233.721
91.9816
-196.871
-22.1591
219.031
701.255
-96.7281
233.68
-164.728
-358.793
272.248
86.5457
-422.291
-19.4186
441.71
-351.824
448.66
307.086
-324.981
17.8949
-14.7626
28.3782
473.837
462.611
35.523
37.6481
-459.94
218.942
-7.12696
-335.095
-8.19591
-367.683
298.405
69.2778
340.508
-62.2056
675.349
221.003
-229.336
247.58
-285.516
306.075
104.304
654.311
-758.615
-737.648
-25.1219
762.77
1.23328
161.616
16.7752
-338.196
-690.625
621.063
69.5629
121.05
-173.063
169.232
3.83144
436.21
-153.682
-254.997
-174.638
429.635
-162.568
-348.398
216.925
-16.1035
-254.778
115.754
97.9369
-182.525
-1009.53
696.317
-346.889
346.889
851.476
242.258
-35.1755
-509.086
-500.442
208.399
327.488
527.937
42.5268
544.468
-50.1445
273.458
-274.432
0.974147
-629.321
662.118
-32.7969
-50.3287
-531.906
-48.2362
-632.531
714.997
-82.4661
83.7557
-492.908
-352.718
539.4
5.06767
524.47
26.2252
-550.695
749.277
-646.913
7.00249
-113.208
-64.4524
177.66
-416.173
89.3334
309
-31.1472
-277.853
-155.39
-47.233
-299.609
287.656
11.9523
-289.601
73.4774
870.799
-195.45
-340.718
45.2478
769.138
-2.15661
-766.982
584.137
-658.877
74.7404
-922.864
830.383
92.4806
-22.6427
-638.668
110.398
295.728
-21.4593
-260.389
281.849
-786.745
27.765
-201.63
-287.73
266.27
-465.984
511.458
-268.824
268.188
0.635618
-299.78
302.313
-2.53271
-813.287
705.643
995.973
-148.814
-173.161
295.399
-232.176
361.147
-170.506
423.291
-326.306
-96.9853
285.416
55.092
811.533
-88.0585
-723.474
184.615
-681.487
-759.284
675.646
83.6374
6.11732
-617.043
624.891
-7.84824
59.3906
174.289
-102.325
521.622
-268.468
290.028
-21.5603
378.871
-457.978
79.1068
-608.545
649.087
-40.5412
586.085
43.7413
-629.826
255.978
-221.664
-34.3136
557.201
-25.7451
-531.456
234.9
-123.305
-111.595
-127.979
-49.4072
177.386
958.468
-949.172
-9.29614
-575.49
-388.315
-45.797
-758.647
804.444
-897.63
834.364
-591.122
373.216
217.906
605.043
-623.217
-13.3894
676.498
-663.109
22.0858
146.108
-168.194
-50.1098
-288.811
-855.986
-66.878
15.4716
365.139
334.044
-739.685
220.608
-1.66678
-224.972
224.972
410.071
-142.812
-267.259
-911.342
25.9768
-2.81488
-23.1878
-481.443
504.63
-753.795
-80.5225
486.673
-406.15
-252.38
-408.638
431.318
-9.98358
-48.9382
257.974
153.57
184.66
-548.729
398.186
-159.843
400.16
338.07
-52.6534
763.471
-710.661
-283.579
-5.63419
270.705
-946.901
-3.56141
5.61598
927.483
532.443
-448.687
-844.318
577.69
266.628
11.784
258.752
-270.536
350.822
-10.5133
-340.309
-461.283
30.7896
-835.617
749.341
86.2764
-131.996
-191.397
188.373
39.2142
-227.587
212.838
125.232
-800.987
17.8803
-591.174
325.537
265.637
61.1544
248.277
360.229
-324.183
-36.0465
-376.003
401.86
-25.8576
847.406
-513.362
-454.881
312.931
-318.626
189.337
129.289
423.371
-720.801
568.323
-27.2163
811.239
-807.877
79.8643
155.036
-830.341
814.139
16.2015
-795.149
46.3745
-472.163
-527.85
1042.66
-186.279
931.088
-835.188
-95.8995
-521.122
-463.311
984.433
-48.0054
-253.756
55.5883
224.151
-228.277
4.1256
-21.6906
-56.0594
733.355
470.942
-37.3009
-433.641
-370.281
-198.952
29.9146
-90.9368
-250.838
-147.676
429.399
-281.724
-925.629
925.629
92.4379
-808.17
490.011
-510.48
69.0699
441.411
-210.885
-194.146
169.351
-169.588
-379.14
-559.411
389.822
599.08
54.5208
189.224
418.573
-930.189
511.616
-24.7299
302.017
-225.242
-261.102
-212.806
429.628
-96.2628
-179.114
-139.512
-65.4739
-835.387
452.387
-517.953
65.5655
17.9964
-697.171
780.807
-83.6352
415.767
-419.669
3.90253
244.553
-566.773
529.752
37.0212
106.469
115.853
-222.322
198.213
-236.879
378.944
-708.781
329.837
110.535
758.329
170.478
239.593
-68.5305
-492.959
469.771
291.705
-305.704
13.9988
416.259
-37.3875
353.919
-381.227
-20.8831
-367.548
388.431
-17.4952
-296.205
303.066
30.173
-333.239
-431.412
283.736
-386.812
37.661
631.171
-749.521
-409.535
531.548
-312.303
-91.8223
976.639
-866.104
-492.779
-312.282
805.061
295.089
35.0991
291.109
-326.209
-459.496
150.165
-282.161
-51.6142
450.529
-563.686
113.156
47.4158
613.602
-184.155
70.9475
349.632
-288.478
708.74
-329.796
273.792
-174.396
23.5711
364.57
-388.141
-27.3724
-292.329
-9.92864
-251.517
249.114
2.40338
2.43537
561.818
-534.331
52.2339
-891.586
113.276
800.773
-2.97084
328.339
-115.501
525.493
328.7
-854.193
598.388
239.941
671.459
-768.674
-754.118
108.146
645.972
302.069
41.2328
-343.302
182.176
-174.58
-7.59638
35.6262
274.671
572.944
-196.046
33.2864
162.759
-156.652
-607.071
763.723
-338.94
366.285
-27.3453
-250.894
292.915
-42.0211
-147.446
-174.135
-255.478
207.514
47.9634
920.098
-920.098
-87.1332
727.008
-639.875
294.386
-206.769
344.038
-68.18
-658.153
188.027
26.4968
-214.524
40.0671
-581.943
541.876
32.3162
-228.505
196.189
908.489
-914.138
5.64901
301.309
-674.638
373.33
337.604
-297.71
50.8252
309.404
-350.74
876.233
556.879
-106.35
-72.1235
-240.393
-400.388
318.908
81.4801
224.562
-345.807
330.573
-500.649
170.076
-234.536
47.414
-873.302
-73.5987
35.5329
-732.704
313.947
-179.039
796.375
-773.258
-23.1168
434.313
54.6464
-488.96
-685.479
610.614
74.8648
-275.009
225.884
49.1246
319.274
-27.5696
-426.049
-254.809
881.676
-837.352
-44.324
-357.49
658.799
126.474
-531.696
-865.032
11.0423
-54.665
-604.95
659.615
35.3596
-137.469
-137.954
-917.091
416.434
500.657
186.006
3.32945
449.015
-33.248
543.449
256.829
-275.473
18.6438
-333.482
-5.75809
339.24
-545.994
445.065
-6.4141
-195.534
201.948
228.468
-40.4408
-92.2522
368.819
-276.566
-353.487
4.97813
434.009
-9.67454
58.0199
-808.767
750.747
-664.258
664.258
49.4635
189.21
-91.7028
-507.698
599.401
-854.493
938.118
-83.6248
741.142
55.2327
-14.1149
-834.572
848.687
323.205
-340.315
17.1101
324.383
12.9622
-337.345
584.848
-636.784
51.936
24.9549
320.154
-345.109
-201.419
-127.206
328.626
190.764
-8.5877
107.959
-711.285
603.326
-760.035
267.256
347.416
-312.317
793.728
59.7722
-77.2763
-433.204
340.523
-391.306
-682.075
103.014
579.061
330.557
-270.141
-60.4162
-530.655
616.427
-85.7729
-81.6579
-362.725
444.383
406.202
-382.242
-587.837
-329.254
598.55
-726.169
127.62
-410.203
-434.115
837.866
-39.7019
-645.777
120.565
456.902
-577.467
563.548
-644.706
81.1584
28.7767
-261.801
11.1117
-692.964
-318.245
321.851
-8.79972
570.445
-692.689
122.244
-344.478
-430.593
3.48327
-685.665
697.933
-12.2672
763.058
-164.67
645.296
-102.678
-542.618
215.144
286.873
285.534
-295.842
10.3083
807.725
-935.862
128.137
-653.131
-100.988
-288.926
20.4583
-325.292
84.982
240.31
-55.7534
640.602
91.9661
-277.424
185.458
356.903
-335.056
-21.8472
-339.343
-251.83
-24.045
207.832
-37.2066
-168.66
234.297
143.284
-377.581
-270.622
318.589
-47.9669
591.647
-683.35
21.7178
287.282
-262.745
-62.5468
-286.803
-304.319
-711.307
540.741
170.566
-113.015
-147.263
-155.602
65.8422
-577.405
536.243
41.1618
576.952
-1098.07
-24.0929
-1013.99
-140.862
377.105
52.5233
-21.9614
-51.3666
-760.339
128.648
855.23
-849.109
617.356
-76.6154
1.85884
589.224
-591.083
-288.378
-162.441
450.82
-54.0956
-220.913
12.2812
190.007
-214.319
24.3118
-992.695
228.538
449.37
-118.797
19.6075
-627.903
608.295
300.434
-365.301
30.4196
334.882
63.2618
574.085
-637.346
-101.944
772.892
-670.948
-669.584
-195.331
-732.758
39.9815
692.776
-28.531
567.12
-538.589
926.61
-917.933
-8.67668
567.1
-621.765
-611.183
-23.5122
634.695
-394.491
123.869
255.62
-279.182
23.5611
801.604
-772.775
-95.7973
730.76
-634.963
457.825
14.5716
-433.482
-669.689
604.133
65.5568
399.857
-92.1009
-563.961
-48.4316
-10.5104
-399.063
-35.1967
244.398
-209.201
19.5038
327.912
-359.38
363.484
-4.10457
748.151
-793.948
126.154
134.736
210.537
-221.796
11.2584
684.163
-775.239
91.0751
-319.232
-680.524
-9.05038
795.762
75.0369
290.659
120.206
812.833
-17.0715
-8.4195
-1029.37
173.582
3.93306
22.6619
-568.841
159.598
-137.512
-1083.21
-239.364
232.95
75.4785
218.908
-107.449
-467.097
574.546
-2.39905
-477.417
479.816
838.913
-31.1872
570.01
75.2863
-36.1331
-200.58
236.713
746.914
-789.579
-156.804
391.102
-411.858
447.41
-35.5522
-679.343
723.042
-43.6992
308.635
-362.7
17.2134
393.98
-145.967
-248.013
174.967
-511.213
465.858
45.355
3.64231
-460.909
465.074
-4.16507
613.61
-596.021
41.5276
-166.649
600.962
-291.536
57.4176
440.609
40.6141
608.088
-648.702
-68.7287
-157.019
219.734
6.15077
32.0812
-388.098
22.7968
-416.494
4.6358
249.151
-250.978
1.82755
711.214
-682.568
-483.741
83.0191
400.722
-42.1945
626.331
-15.6355
-204.355
914.258
-141.745
-772.513
518.882
537.49
-1056.37
-303.876
-12.8616
289.225
4.24189
10.2963
271.616
-694.548
-3.73433
698.282
592.268
-748.92
-223.955
191.88
32.0747
-528.435
-21.093
-645.091
3.39975
138.34
-136.705
-428.095
-122.285
214.251
18.5896
-639.909
621.319
-38.2393
-497.912
536.151
-270.047
295.001
-69.2342
626.012
-731.164
754.951
-23.7879
217.663
-482.443
239.428
-252.979
13.5509
-16.2699
-839.634
26.3469
248.121
-449.54
912.071
-922.721
10.6498
637.583
12.8282
-650.411
-50.7449
-541.884
-807.256
840.452
116.603
-206.492
897.669
-78.2612
236.561
-12.4102
-60.4493
-716.017
776.467
-88.9576
-596.708
-25.0768
549.547
-677.547
24.4163
206.328
-244.481
38.1537
-232.693
0.313768
232.379
-557.589
533.544
24.0443
-215.549
87.5696
49.461
97.4878
-146.949
-880.257
314.506
18.2583
-332.764
54.9175
637.906
-692.823
-340.639
373.74
-33.1008
-652.906
-24.6408
-663.714
768.018
-896.899
127.729
769.171
-143.268
-168.266
-444.062
63.2715
-456.787
-615.575
245.973
23.8082
-286.332
288.606
-2.2745
177.312
-70.843
-421.433
393.087
28.3465
-954.9
972.05
-332.893
128.351
204.542
138.161
21.4372
525.334
861.17
-880.95
277.554
-44.9881
371.646
-506.357
-789.787
811.614
-21.8268
-354.156
-186.884
541.04
129.104
-166.646
37.5422
425.888
-528.213
751.147
-686.974
-64.1733
-266.422
-37.4543
319.712
-79.5813
312.663
-290.945
329.063
-652.026
-17.6633
5.61875
633.285
-373.236
147.934
20.6391
-891.498
549.942
-388.579
608.14
368.499
423.08
8.23824
744.678
-805.128
-39.299
-15.3494
827.285
70.3842
421.037
-499.719
78.6814
212.02
-194.97
-17.0495
-212.339
239.21
-26.8709
-4.47615
341.173
-336.697
-618.205
658.819
440.586
257.506
-216.183
-41.3237
362.18
512.25
312.411
-333.195
711.188
100.345
81.4132
-604.944
523.531
639.623
-35.4902
11.1029
-930.69
114.134
816.556
218.095
-256.959
-248.415
-793.249
732.274
60.9755
5.15468
814.785
-819.94
929.346
-929.346
-377.047
17.6678
602.82
36.8031
-109.086
-36.5077
-198.037
234.545
437.408
27.6575
-465.066
-433.357
19.388
413.969
191.837
972.172
-453.29
-220.258
35.119
185.139
-627.527
630.689
-3.162
426.046
-469.048
43.0021
-430.649
-2.70797
43.1351
-764.057
720.922
-636.369
-64.0624
-548.613
518.404
30.2094
-368.584
283.249
34.7039
-252.76
218.056
-166.741
-166.152
-27.8371
242.382
-22.648
46.5358
289.542
-274.964
-71.2858
791.602
365.112
-50.6061
-769.81
32.1624
-890.02
814.44
75.5797
136.813
277.539
378.686
160.406
-757.394
859.093
331.053
194.137
-525.19
-160.867
594.435
-644.006
49.5712
482.571
61.144
-543.715
645.058
-346.302
-298.756
-479.867
-123.464
-783.268
681.324
25.8958
-688.68
662.784
-711.25
108.492
602.758
-762.341
-6.24396
37.7434
508.477
-87.4401
-526.887
358.137
557.735
-586.266
-35.3489
-64.2672
221.806
-157.539
52.2929
-684.824
-232.82
-225.103
160.836
-26.4977
299.16
-125.016
-174.144
176.875
-8.13675
-631.902
722.035
-39.1681
220.587
-181.419
869.862
-630.151
13.1083
159.757
189.875
0.995477
397.397
-398.393
-225.022
-203.153
428.176
180.923
763.536
378.942
-355.37
-843.326
7.70905
626.391
-609.858
-0.661432
-816.147
816.809
589.525
16.0063
-605.532
847.126
46.7161
-893.842
307.522
-5.2095
121.159
-409.538
425.465
8.54447
-254.671
334.345
-79.6741
189.225
381.044
-90.385
610.785
-54.3514
-556.433
-758.355
785.287
-26.9319
15.1426
651.435
-666.578
-646.987
116.333
-5.28616
-442.143
610.237
34.2301
322.673
-29.1043
183.702
-83.1808
-334.972
1.48983
95.945
742.968
2.59246
-276.175
273.582
-421.803
-508.385
-57.4302
-757.769
815.199
247.625
-54.5604
198.894
-277.125
78.2313
198.792
-95.2904
-217.902
-516.875
-581.325
-792.169
-18.8293
-163.78
-815.75
776.44
39.3099
-34.2995
469.398
-435.098
59.7804
821.334
-881.115
194.06
-144.599
775.985
25.525
-241.105
204.598
19.5505
-304.426
284.875
575.705
-573.847
-643.129
130.988
512.142
-560.291
586.36
-26.0686
28.3637
257.171
-665.267
-441.896
608.532
45.7855
-654.318
-721.941
606.748
-679.202
72.4544
-154.452
-41.5932
449.877
-484.217
-847.012
852.167
107.417
-308.009
-588.89
-642.305
593.224
49.0807
175.549
-70.4546
-43.0948
464.879
180.179
-575.781
62.2069
514.364
-526.753
12.3883
73.3421
-717.645
644.302
265.403
-16.2519
-308.531
164.865
143.666
-565.143
591.368
-119.244
470.804
-351.561
681.391
-86.9564
-0.417706
-316.225
316.642
-447.063
-442.736
889.8
-165.151
267.762
-102.611
-103.208
-578.868
-570.17
424.687
145.483
408.68
-43.1336
-365.547