/*--------------------------------*- C++ -*----------------------------------*\
  =========                 |
  \\      /  F ield         | OpenFOAM: The Open Source CFD Toolbox
   \\    /   O peration     | Website:  https://openfoam.org
    \\  /    A nd           | Version:  7
     \\/     M anipulation  |
\*---------------------------------------------------------------------------*/
FoamFile
{
    version     2.0;
    format      ascii;
    class       volVectorField;
    location    "5";
    object      U;
}
// * * * * * * * * * * * * * * * * * * * * * * * * * * * * * * * * * * * * * //

dimensions      [0 1 -1 0 0 0 0];

internalField   nonuniform List<vector> 
7807
(
(1.0546 0.0902993 7.37117e-20)
(1.04618 -0.0230667 2.26965e-19)
(1.01374 0.0720589 -1.17104e-19)
(1.0325 0.0513517 2.34217e-19)
(1.01088 -0.00202725 3.28581e-20)
(1.00847 -0.0116974 2.11413e-20)
(1.01085 0.0650337 -2.31738e-19)
(1.0091 -0.00322328 8.72622e-22)
(1.00847 -0.00124348 2.7258e-20)
(1.02337 -0.000777128 -2.00151e-20)
(1.00638 -0.00472347 -2.33566e-20)
(1.0125 -0.00209857 -5.41808e-20)
(1.0078 -0.00384802 -5.34995e-20)
(1.01886 -0.00110638 -2.35256e-19)
(1.02206 0.00058757 8.35425e-20)
(1.0087 -0.0097896 8.67004e-20)
(1.05521 0.0943904 -1.56468e-19)
(1.00665 -0.00369814 1.49759e-20)
(1.015 -0.00590193 -4.36929e-20)
(1.00302 -0.0590374 1.89623e-20)
(1.03138 0.00220914 -6.39553e-20)
(1.01159 0.00025503 1.52337e-19)
(1.02132 -0.00210083 3.02595e-20)
(1.01081 0.0263048 -1.42023e-19)
(1.00574 -0.00395066 5.37775e-20)
(1.05192 0.0887988 -7.38712e-20)
(1.01103 -0.00162506 2.73146e-20)
(1.02525 0.000967697 7.77737e-20)
(1.00588 0.014016 -2.06722e-20)
(1.01401 -0.00576769 3.90618e-20)
(1.00519 -0.0109033 1.23909e-19)
(0.877432 0.0266558 2.42442e-20)
(1.01939 -0.00213436 1.63629e-19)
(1.00932 -0.00272364 -6.01787e-20)
(0.805985 -0.00139568 3.53616e-22)
(1.02209 0.00167117 3.1878e-20)
(1.01584 -0.00725758 2.88378e-20)
(1.01186 0.0623839 -3.93647e-20)
(1.00939 -0.00672027 -1.54858e-19)
(1.00249 -0.00252119 -6.96426e-20)
(1.00982 -0.00642817 1.55917e-20)
(1.00871 -0.00950293 3.22881e-20)
(1.0197 -0.0649734 -9.11054e-20)
(1.11132 -0.0252364 -3.34204e-20)
(0.78517 -0.00134904 -3.25016e-20)
(1.00717 -0.00305779 1.59077e-20)
(1.01058 0.000253556 -9.26511e-20)
(1.0107 -0.00548785 9.11218e-20)
(1.00831 3.9028e-05 1.46733e-20)
(1.0057 -0.0594123 -2.79494e-20)
(1.01316 -0.0016486 4.35067e-20)
(1.02576 0.00179652 -8.39454e-20)
(1.00166 -0.00374142 1.49265e-19)
(1.01947 -0.0186693 3.19127e-20)
(1.0207 -0.000368279 -2.44494e-20)
(1.0097 -0.00355224 1.55759e-20)
(1.01262 -0.00512301 6.88481e-20)
(1.00903 -0.00344663 -1.00265e-19)
(1.00052 -0.0122328 1.41872e-19)
(1.00934 -0.00356848 7.28726e-20)
(1.0081 -0.00077771 -3.66042e-20)
(1.01406 -0.000172556 4.15347e-20)
(1.02027 -0.000597198 -5.31846e-20)
(1.0117 -0.0020236 5.52974e-20)
(1.0093 -0.00433404 -5.85924e-20)
(1.00556 -0.0111111 -1.97602e-20)
(1.00801 -0.00177681 -2.54927e-20)
(1.0067 0.000114736 3.64709e-21)
(1.109 0.0560484 7.56127e-20)
(1.01061 -0.0047689 3.66605e-20)
(1.00794 -0.00017651 -1.44312e-20)
(0.996252 -0.0345266 1.67245e-19)
(1.00602 -0.00433456 -2.67303e-20)
(0.993697 -0.00545749 -2.27381e-20)
(1.00731 -0.00393626 -4.70184e-20)
(0.993063 -0.0170775 2.26965e-20)
(1.01508 0.0730048 1.87612e-19)
(1.02988 0.00164126 8.03622e-20)
(1.06618 0.00560719 -1.67557e-19)
(0.986825 -0.0283695 1.88346e-19)
(1.0081 -0.00373983 8.23058e-20)
(1.00998 0.0510657 2.64306e-19)
(1.03234 0.00862604 1.41416e-19)
(0.998867 -0.00695548 -1.01057e-19)
(1.00949 -0.00384941 4.56344e-20)
(0.987006 -0.00806259 -2.43543e-20)
(1.0088 -0.00343866 -1.34228e-19)
(1.00293 -0.00435203 -9.56213e-20)
(1.01009 -0.00209384 -3.779e-20)
(0.995621 -0.000867409 -4.80785e-20)
(1.00596 0.0160147 1.46678e-19)
(1.13421 -0.0136726 5.21564e-20)
(1.00709 -0.00175495 2.46876e-20)
(1.0132 -0.00537559 3.20695e-20)
(1.01059 -0.00377286 -5.60889e-20)
(0.895698 -0.002877 1.75799e-19)
(0.997675 -0.0343589 -1.00335e-20)
(1.02026 -0.0175379 -5.49815e-20)
(1.00885 -0.00404356 -9.19128e-21)
(1.00841 -0.00131259 -1.6175e-20)
(0.983262 -0.0110722 -4.79564e-20)
(1.06708 0.00929867 1.25953e-19)
(1.01033 -0.00382252 1.39728e-19)
(0.828329 -0.00056241 2.51811e-22)
(1.13681 -0.0052433 3.32199e-20)
(1.02628 0.0242539 -1.4135e-19)
(0.980816 0.0383235 3.25478e-20)
(1.00955 -0.00334793 5.94956e-20)
(1.00576 -0.000415717 -1.18421e-21)
(1.02729 -0.00557607 -6.74509e-20)
(1.03581 0.0493057 -2.7184e-19)
(1.03025 -0.0479197 1.72653e-19)
(1.00565 -0.00012672 1.44841e-21)
(1.02955 -0.00554124 -1.46485e-20)
(1.02307 0.0242768 1.47551e-19)
(1.00993 -0.000369021 -2.02672e-20)
(1.05968 -0.0560384 1.28361e-20)
(1.02672 0.0149994 -3.9068e-20)
(1.0036 -0.0274939 -1.02656e-19)
(0.998294 -0.00567788 2.41193e-20)
(0.953082 -0.00902362 1.13592e-19)
(1.00507 0.0483555 -1.76246e-19)
(1.02375 -0.0640528 1.2514e-19)
(1.01658 -0.00328249 1.84736e-20)
(0.972714 -0.00864153 -4.47274e-20)
(1.0098 -0.00267131 -8.07003e-20)
(1.00629 -0.00812938 -4.53808e-20)
(1.01348 -0.00598267 -5.28016e-20)
(0.999538 -0.0134401 1.3107e-19)
(1.00598 -0.00967014 -2.99125e-21)
(1.16204 -0.0269266 1.5511e-20)
(1.06199 0.00385492 2.80893e-20)
(1.0097 -0.0028483 -5.73078e-21)
(1.00952 -0.00225659 8.3961e-20)
(0.998128 -0.00637416 -2.90943e-20)
(1.03422 0.0417584 1.08191e-19)
(1.00826 0.0643663 2.93698e-19)
(0.977421 -1.42869e-05 2.31925e-21)
(1.01792 -0.00171308 1.00843e-20)
(0.896811 -0.00158098 1.17459e-19)
(0.972105 -0.00460613 9.86031e-20)
(1.00668 -0.0380138 1.29181e-19)
(0.993303 -0.0183421 -3.04217e-20)
(0.993906 -0.00558838 1.81412e-21)
(0.912151 0.0206331 1.28362e-19)
(1.02118 -0.0275346 8.45964e-21)
(1.01187 0.0154018 -7.82932e-20)
(1.00169 -0.0142134 7.62846e-20)
(0.928119 -0.00275044 -2.0262e-20)
(1.005 0.0488437 -8.79642e-20)
(1.024 0.00363395 9.29e-20)
(1.12451 -0.0156197 2.24598e-20)
(1.0101 -0.00263654 1.28189e-19)
(1.11324 0.050194 1.81723e-20)
(1.03171 0.0077292 -1.49669e-19)
(1.01808 0.0644692 -2.03667e-19)
(0.990121 -0.0198926 -8.18817e-20)
(1.00716 -0.00453642 -1.99085e-20)
(0.998912 0.0558368 2.95894e-19)
(1.00856 0.000187588 1.51791e-20)
(1.0131 -0.00520072 -7.9974e-20)
(1.01218 0.0295964 9.75556e-20)
(1.00678 -0.00178325 -1.76671e-20)
(1.01056 -0.00448297 1.5851e-19)
(1.00982 -0.00248473 2.50451e-20)
(1.00582 0.0344978 -2.94375e-20)
(1.00388 0.0368329 1.05751e-19)
(0.993985 0.0560153 9.21073e-20)
(1.01022 -0.00517795 6.86446e-20)
(0.97405 -0.00636587 3.12525e-20)
(1.00719 0.000923552 -3.67895e-21)
(0.785201 -0.00606826 1.81332e-19)
(1.01017 -0.000866681 2.71153e-20)
(1.04817 -0.0207851 -2.65524e-19)
(1.01817 -0.00228112 6.59024e-20)
(0.966927 -0.00444524 -4.31827e-20)
(1.12959 0.00246238 6.16452e-20)
(1.07719 0.0543075 6.13633e-21)
(1.00729 -0.00183056 -1.43494e-20)
(1.00983 -0.00191897 7.55379e-20)
(1.03233 0.0527426 -3.89971e-20)
(1.00879 0.00102883 6.80828e-21)
(0.9625 -0.00126459 -7.1097e-21)
(1.01164 0.0665603 -1.90537e-19)
(1.04736 -0.0247275 1.15159e-19)
(1.0213 -0.0398089 1.09586e-19)
(1.00479 -0.0266463 1.47351e-19)
(1.00035 -0.00600714 -7.33057e-20)
(1.01944 -0.0286514 -2.08789e-20)
(0.86444 -0.00874108 -6.1472e-20)
(1.00605 -0.00219731 5.38015e-21)
(0.99809 -0.0321572 4.12075e-20)
(1.07925 0.0597123 -1.13229e-19)
(1.01007 -0.00352906 -2.01121e-20)
(1.00894 -0.00026173 -1.8601e-20)
(1.05843 0.0564999 8.86129e-21)
(1.00853 0.000198313 -1.23394e-19)
(1.00624 -0.00908883 -6.77278e-20)
(1.01765 -0.0272421 -7.46798e-20)
(1.00756 -0.000692085 -1.53244e-21)
(1.01074 -0.00216762 -6.72116e-20)
(1.03154 0.0423233 1.22427e-19)
(1.06852 0.0628946 -1.27546e-19)
(1.01468 0.0596144 -2.67232e-20)
(1.05664 -0.0519044 -7.22311e-20)
(1.03245 -0.0454055 -3.55007e-20)
(1.09081 -0.0784158 1.8802e-20)
(1.02343 -0.00310578 2.10135e-19)
(1.02858 0.0433277 -4.51794e-20)
(0.951366 -0.00459225 3.06659e-20)
(1.00861 -0.000303666 1.05529e-20)
(0.835122 0.034823 -1.45562e-19)
(1.00902 -0.00948744 3.50361e-20)
(1.0098 -0.00311122 5.08425e-20)
(0.999494 -0.031697 -9.54117e-20)
(1.00619 -0.00849477 5.03748e-20)
(1.02307 0.0598522 -2.44575e-19)
(1.01994 0.0589543 -5.44159e-20)
(1.00505 -0.0388396 -3.32962e-20)
(0.974818 0.0400469 -9.79976e-20)
(1.01037 -0.00103459 9.35254e-20)
(1.00623 -0.00390047 -5.24444e-20)
(0.980192 -0.0105342 -6.22621e-20)
(1.03114 0.00488531 -4.17485e-20)
(1.0224 -0.081766 8.40308e-21)
(1.06823 0.0909718 -1.77661e-19)
(0.999387 0.0514814 -2.58498e-19)
(1.00819 -0.00115135 2.69507e-20)
(1.01618 -0.00380482 2.44955e-20)
(1.02469 0.0174472 2.04289e-19)
(1.01046 -0.00500644 1.20856e-19)
(1.02846 0.0157654 -2.69442e-20)
(1.01001 -0.00215433 2.75235e-20)
(0.982971 0.0576575 1.79842e-19)
(1.01835 0.0609248 4.19377e-20)
(1.0089 -0.00354296 -8.15843e-20)
(1.01501 -0.00562981 -4.79332e-21)
(1.00796 -0.00183011 1.32802e-19)
(1.0931 0.0753901 6.09575e-20)
(0.966749 -0.000797155 -2.62138e-20)
(1.00979 -0.00725703 -3.42689e-20)
(0.976665 -0.01827 -7.12405e-20)
(1.00803 0.000468407 6.03899e-21)
(1.0098 -0.00378744 3.40238e-20)
(1.01002 -0.00216868 -3.04463e-20)
(1.05214 0.0351591 1.38449e-19)
(1.0073 -0.00168148 -2.37274e-20)
(0.954197 0.00131279 -2.6683e-22)
(0.988312 -0.0282267 -2.19763e-19)
(0.77382 0.0271836 -5.31069e-20)
(1.06157 0.000782897 -4.13134e-20)
(0.992743 0.0454456 1.44012e-19)
(1.01273 -0.0119409 1.80005e-20)
(1.01614 -0.0277957 -6.3373e-21)
(1.00901 -0.00245793 5.74787e-20)
(1.01577 0.0656367 -1.94235e-19)
(1.0125 0.000385784 -5.12569e-20)
(1.01073 0.0516593 9.44188e-20)
(1.01438 -0.00730704 -1.29719e-19)
(1.01132 -0.00155433 8.5589e-20)
(1.03121 -0.0196112 -1.02074e-19)
(1.02288 -0.00168731 -1.9588e-19)
(1.01004 -0.00056293 4.20129e-20)
(1.00751 -0.00478555 -1.84004e-21)
(1.01004 -0.000881658 1.05974e-19)
(1.01075 -0.00519671 1.02331e-19)
(1.02595 -0.0415344 -1.36703e-19)
(1.01162 -0.00439226 -1.20887e-20)
(0.990962 -0.0189927 -5.99651e-20)
(1.01039 -0.00295532 5.5168e-21)
(1.0074 -0.000872795 -2.58075e-20)
(1.00989 -0.002923 -1.53893e-20)
(1.00684 0.0575322 2.23612e-19)
(0.928543 -0.0036676 -2.43339e-20)
(0.996562 -0.0158382 1.4143e-20)
(0.605984 0.0400398 2.25914e-19)
(1.00964 -0.00441038 6.4517e-20)
(1.04891 0.0701887 -9.50719e-20)
(1.00877 -0.00251255 -8.32981e-20)
(1.01723 -0.0146657 9.67636e-20)
(1.00814 0.00025626 -1.15603e-21)
(1.00337 -0.0220578 6.30915e-20)
(1.03134 0.00540611 6.02973e-20)
(1.13131 0.00924267 -1.42322e-19)
(1.00063 -0.0130949 -1.21599e-19)
(1.00947 -0.0022671 -9.44545e-20)
(1.00232 -0.0500471 -4.76768e-20)
(0.361512 0.00245966 -6.78702e-20)
(0.95319 -0.000236114 -5.06163e-21)
(1.01 -0.000700272 -9.40243e-20)
(1.01079 -0.0036765 -7.54776e-20)
(1.00401 -0.00517844 7.8094e-20)
(1.01423 -0.000627524 -8.3953e-20)
(1.00978 -0.00309781 -4.27016e-20)
(0.999542 -0.00681891 -1.70466e-20)
(1.02894 -0.0397386 9.18676e-20)
(0.999651 -0.00608777 -7.39347e-20)
(1.10613 -0.0194495 9.56436e-21)
(0.992971 -0.005615 7.86074e-20)
(1.02402 0.0724325 2.20375e-20)
(1.02193 0.0738208 -1.65689e-19)
(1.00882 -0.00299523 6.63484e-20)
(1.14849 0.00740272 1.8173e-19)
(1.00614 -0.00407271 1.25603e-21)
(1.01137 -0.00391514 8.07779e-20)
(0.742302 0.00456132 -1.81515e-19)
(1.00821 0.0223996 8.35925e-20)
(1.03539 0.0101838 -1.24749e-19)
(1.00849 -0.00113514 3.69948e-20)
(1.01094 -0.00325853 1.17063e-20)
(0.995203 -0.00610673 -5.93435e-20)
(1.04275 0.0319486 -5.57048e-20)
(1.00964 -0.00282672 -4.57131e-20)
(1.01227 -0.00152651 3.87391e-20)
(1.01129 -0.000665954 -8.91336e-21)
(1.0943 0.0213689 1.46262e-19)
(1.16124 -0.0365869 9.49744e-20)
(1.03326 0.0840687 1.09984e-19)
(1.00197 -0.000141747 6.07524e-20)
(1.0543 -0.0241959 -2.2578e-19)
(1.00728 -0.00159697 2.53026e-20)
(1.01502 -0.00521539 -1.35374e-19)
(1.0094 0.00178564 5.14777e-21)
(1.00505 -0.0138215 -2.09601e-20)
(1.00759 -0.00383898 2.2919e-20)
(1.02008 -0.0129421 1.35562e-20)
(1.16667 0.00874207 -1.54753e-19)
(0.997865 -0.0179837 -1.18981e-19)
(1.01805 -0.0135892 -2.82645e-20)
(1.01618 -0.00323225 -4.0217e-20)
(1.00782 -0.00780556 -6.43955e-20)
(1.02922 -0.0106751 4.48616e-20)
(1.01123 -0.0116033 -6.15028e-20)
(1.06291 0.0131854 -6.2619e-20)
(1.04865 0.0344838 6.6973e-20)
(1.12679 -0.0894063 -1.52513e-21)
(1.10938 -0.0316657 8.39232e-20)
(0.59733 -0.00781529 7.19221e-20)
(1.01469 -0.00223156 9.43003e-20)
(0.978153 -0.0174866 2.91357e-20)
(0.989844 0.0550809 -2.88702e-19)
(1.09418 -0.0317556 -1.46546e-19)
(1.02721 -0.00433227 -1.32849e-19)
(0.983792 0.0421677 -1.36677e-19)
(0.981375 -0.0033322 -2.97583e-20)
(1.00896 -0.00319468 1.82513e-20)
(1.12206 -0.0229633 8.34936e-20)
(1.01052 -0.00331484 3.79822e-20)
(1.0214 -0.0254395 -2.89804e-20)
(1.01541 -0.00237214 3.00251e-20)
(1.00011 -0.00429089 3.02382e-20)
(1.00081 -0.00438295 6.1487e-20)
(1.02707 0.0231005 1.12278e-19)
(1.00815 -0.0015035 1.12006e-20)
(1.00995 -0.000185829 -3.7004e-20)
(1.00837 -0.000370147 3.20521e-20)
(1.00785 -0.00294311 -1.42686e-19)
(1.00938 -0.00691618 -9.22996e-20)
(1.01186 -0.0116555 -3.10166e-21)
(1.01173 -0.000572824 -8.9586e-21)
(1.00113 -0.0116865 -4.40561e-20)
(0.958144 0.0432735 8.45567e-20)
(1.01951 -0.0143485 -6.09665e-20)
(1.00934 -0.00883696 -1.29742e-19)
(1.00508 0.054506 3.77831e-20)
(1.00328 0.0428187 1.69823e-19)
(1.05487 0.00353441 -5.98336e-20)
(1.14166 0.0119507 -6.89852e-20)
(0.635602 0.00691698 -9.91282e-20)
(1.01482 -0.00244555 -4.92987e-20)
(1.00973 0.0377638 -8.43622e-21)
(1.00182 -0.00335829 1.16571e-19)
(1.03682 0.0691801 4.62322e-21)
(1.01921 -0.0308522 -3.61353e-21)
(1.03736 -0.0732591 4.07077e-20)
(1.06559 0.0609508 7.85257e-20)
(1.03809 0.0725287 -1.07727e-19)
(0.991754 -0.0164989 -1.41444e-19)
(1.03804 0.00900815 -8.80889e-20)
(1.07105 0.0943479 1.66955e-19)
(1.04518 0.0703404 1.68998e-19)
(1.02365 -0.000520899 6.77026e-20)
(1.01 -0.00362299 -3.32279e-20)
(1.00978 -0.00358117 -2.30161e-20)
(1.00501 0.002374 1.27733e-20)
(1.02348 -0.0167822 4.21424e-20)
(0.989621 -0.00357154 -2.81869e-20)
(1.01066 -0.00309504 -4.9068e-20)
(1.00543 -0.00808121 2.00678e-20)
(1.00888 -0.00229945 -2.51259e-20)
(1.00058 -0.0492918 7.87654e-20)
(1.08317 0.0295927 5.37045e-20)
(1.00305 -0.00510461 1.10468e-19)
(1.01104 -0.00839755 -1.47796e-19)
(1.01091 -0.00177431 6.90866e-20)
(1.05333 -0.0256752 8.0704e-21)
(1.00638 -0.00463461 1.34908e-19)
(1.01326 -0.00477377 9.58062e-20)
(1.08058 0.0917873 2.6392e-20)
(1.00203 -0.00375565 1.5205e-19)
(1.00759 -0.00142155 2.09578e-20)
(1.00849 -0.00144078 7.77532e-21)
(1.00815 -0.00130872 5.05647e-20)
(1.00085 -0.00632342 -4.20401e-20)
(1.02578 0.0196623 -1.41142e-19)
(0.997674 -0.00376315 -2.23716e-21)
(1.02526 -0.00456966 9.06425e-20)
(1.02742 -0.0855619 -6.04225e-20)
(1.01341 0.060542 -4.29791e-21)
(1.01451 -0.00580484 5.13724e-20)
(1.01729 -0.00270014 -8.97733e-21)
(1.00922 -0.00342764 6.6865e-20)
(1.01011 0.0582636 -2.20598e-19)
(0.989801 0.00241969 -3.2551e-20)
(1.03514 0.0865131 -5.71317e-20)
(1.01039 0.0157257 -1.44081e-19)
(1.0068 -0.0026187 -2.37916e-20)
(1.01784 -0.0315503 8.19423e-20)
(1.00982 -0.00343703 6.92925e-20)
(1.00899 -0.0386036 -1.62333e-19)
(1.00971 0.000266354 3.55534e-20)
(1.05075 0.00633192 8.09031e-20)
(1.01697 -0.0101745 -2.91403e-21)
(1.01604 -0.001833 1.47892e-20)
(1.01017 -0.00251124 7.86331e-20)
(1.05798 0.0330739 7.25086e-20)
(1.03916 0.0315331 2.10032e-20)
(1.01983 -0.0412651 -9.26318e-20)
(1.00161 -0.0133608 7.89359e-21)
(1.01116 -0.00384975 5.32417e-20)
(1.0142 -0.024415 1.88657e-19)
(1.10968 0.0429259 -1.10634e-19)
(0.93508 0.0327154 -1.18851e-19)
(1.06941 -0.048625 6.76053e-20)
(1.0154 -0.00550382 -2.82486e-20)
(1.00622 -0.000448305 1.16604e-21)
(1.00574 -0.00478061 1.07983e-19)
(1.00455 -0.00578185 -1.21318e-19)
(1.02964 -0.00932257 7.4085e-20)
(1.01745 -0.0680019 3.25814e-20)
(1.14699 -0.0024032 -6.86428e-20)
(1.00993 0.0602341 -2.55026e-19)
(1.04594 0.0293914 1.00286e-19)
(1.0927 -0.0703035 -6.93897e-20)
(1.0585 0.0610425 3.02234e-20)
(1.00715 0.0562403 2.74392e-19)
(1.02452 -0.00255586 7.71281e-20)
(1.01111 -0.00191473 1.07973e-19)
(1.02515 0.045547 6.0991e-20)
(1.01042 -0.00296993 -8.06906e-20)
(1.00815 -0.00243342 -2.20574e-20)
(0.902034 -0.00583251 -2.98855e-20)
(1.00978 -0.000855463 7.75795e-21)
(1.09701 -0.0845789 -2.49799e-20)
(1.01529 -0.011513 6.87845e-20)
(1.00453 -0.0219385 -1.14388e-19)
(1.01149 -0.00149814 3.46226e-20)
(1.05443 0.0542127 1.66612e-19)
(1.00317 -0.00188768 1.27207e-20)
(1.00757 -0.00157043 1.60395e-22)
(1.03274 -0.0763105 -4.20622e-20)
(1.01163 -0.000604411 -2.13433e-20)
(1.08322 0.00177826 -1.57262e-20)
(0.984556 -0.0104533 -2.38298e-20)
(0.962408 -0.00862824 -7.88708e-21)
(1.15275 0.0447686 -1.29739e-20)
(1.02295 0.0155658 -5.22642e-20)
(1.02064 0.00449803 3.59195e-20)
(1.01911 0.00413192 -1.68835e-20)
(1.00542 -0.0125506 -7.07372e-21)
(1.08874 0.0291633 4.25924e-20)
(1.06312 0.0151933 7.55909e-20)
(1.01088 -0.00243735 -3.08765e-20)
(1.00352 -0.00546022 -1.27884e-19)
(1.01066 -0.000132454 -3.94136e-20)
(1.01999 -0.0117367 -1.59836e-19)
(1.01979 -0.0176799 2.98357e-20)
(1.01538 -0.00142724 -8.99753e-22)
(1.00985 -0.0027407 9.96999e-20)
(1.09275 0.0697258 -1.80577e-19)
(1.00715 -0.00223018 2.39752e-20)
(1.00945 0.000116116 -2.26252e-20)
(1.01342 -0.000760841 -5.31993e-22)
(0.955653 -0.00576785 -6.79633e-20)
(1.02326 -0.00580343 9.01524e-20)
(1.00394 -0.018614 1.69526e-19)
(0.978944 -0.00313203 3.39947e-20)
(1.02367 -0.0394868 -6.15036e-20)
(1.03982 -0.0924713 6.66012e-20)
(1.0304 -0.0173583 5.44904e-20)
(1.02984 0.0453621 -3.51723e-19)
(1.15941 0.0137437 9.32038e-20)
(1.00835 -0.0038653 8.50769e-21)
(0.982116 0.0546714 2.07718e-19)
(0.999383 -0.0357776 -1.53019e-19)
(1.00956 -0.00781517 -2.7673e-20)
(0.960861 0.00468088 -5.86594e-20)
(1.01164 -0.0118754 1.28149e-20)
(0.907034 0.00310379 -1.10911e-19)
(1.00708 -0.00429702 3.90124e-20)
(1.02794 -0.0078783 -1.00951e-19)
(1.10021 -0.0342998 3.20116e-20)
(1.00761 -0.00146418 2.06552e-21)
(1.02538 -0.00658463 -7.27248e-21)
(1.00448 -0.00199756 1.2839e-20)
(1.02095 0.0655966 5.49729e-20)
(1.10994 0.0609116 1.68302e-19)
(1.00993 -0.00318755 -2.30523e-20)
(0.946145 -0.00327676 1.34498e-19)
(1.00411 -0.00428058 4.23226e-20)
(1.00531 0.0545039 1.74631e-19)
(1.03099 0.0713908 1.366e-19)
(1.09048 0.0226601 -7.97471e-20)
(1.09636 0.0890387 -1.43181e-19)
(0.999386 -0.03795 6.5521e-20)
(1.00002 0.0541286 -2.57014e-19)
(1.00817 -0.00135709 -2.31205e-20)
(1.04467 -0.0139777 1.7776e-19)
(0.790106 0.00155522 4.20103e-21)
(1.07201 0.0524936 -4.24586e-20)
(0.997207 0.0481394 -1.81255e-19)
(1.11266 0.0378794 1.68995e-19)
(1.04275 0.0259306 1.63613e-20)
(1.01154 -0.00840698 4.46505e-20)
(1.00707 -0.00345435 3.75759e-20)
(1.09852 0.0779174 6.35585e-20)
(1.1522 -0.0199963 -2.86528e-20)
(1.01086 0.0582482 -6.75211e-21)
(1.07739 0.000272027 1.95753e-19)
(1.03037 0.0392071 1.0975e-19)
(1.0084 -0.00385232 2.49761e-20)
(1.01203 0.0605381 7.01541e-20)
(1.03329 0.0686248 5.16209e-20)
(1.00774 -0.00410567 1.18077e-19)
(1.00817 -0.0040607 5.23085e-20)
(1.10756 0.0716505 4.64911e-21)
(0.94573 -0.00384855 1.21496e-19)
(1.00824 -0.00151039 3.06255e-20)
(1.00597 -0.00505717 -1.40774e-19)
(0.974152 -0.014642 -9.11445e-20)
(1.00737 -0.0481852 1.65418e-20)
(1.01711 -0.00229504 -1.38743e-19)
(1.01515 -0.00257682 1.2456e-20)
(1.00957 -0.00191218 3.94671e-20)
(1.03184 0.0746433 -2.0276e-19)
(1.01327 -0.00803142 -1.14167e-20)
(1.00727 -0.0013819 -1.16696e-20)
(1.02856 -0.0365752 -1.09921e-19)
(1.00987 -0.00299501 -2.39139e-20)
(1.00793 -0.00378257 -3.63296e-21)
(1.01465 -0.00781083 -3.06009e-20)
(1.048 0.0533647 2.13357e-19)
(1.02743 -0.067465 -6.29481e-20)
(1.00323 0.0524313 1.1171e-19)
(1.00847 -0.000719901 -2.48853e-20)
(1.05051 0.0562986 -2.26202e-19)
(1.02336 -0.0312385 -8.54869e-20)
(1.00864 -0.00184418 8.0683e-21)
(1.00788 0.000236042 -1.23057e-20)
(1.0037 0.0103548 -2.4653e-20)
(1.04413 0.047501 8.09792e-20)
(1.00988 -0.00359809 -2.46591e-20)
(1.0412 0.0380626 -1.14893e-19)
(1.00766 -0.00020889 9.09092e-21)
(1.04212 0.0417468 -1.55229e-19)
(1.11543 -0.0895652 -6.87447e-20)
(1.00746 -0.00400836 -1.27819e-19)
(1.00042 0.0451238 -3.47228e-19)
(0.999709 -0.0298147 -1.15534e-19)
(1.09973 0.0849906 1.46979e-19)
(0.973417 -0.00615148 -3.51309e-20)
(1.0446 0.0434821 1.99135e-19)
(1.04779 0.0492986 -5.84494e-20)
(1.00406 -0.00641357 -1.92e-19)
(1.00128 -0.00738394 1.14102e-19)
(1.01013 -0.00714983 -1.06051e-19)
(1.01013 -0.00430004 2.72735e-20)
(1.00832 -0.00238733 -4.9662e-20)
(1.01318 -0.00800083 1.88204e-20)
(1.03913 0.0657246 -2.63344e-20)
(1.0076 -0.00153177 -5.50911e-21)
(1.03753 0.0371879 1.51049e-19)
(1.03679 -0.0676179 -1.086e-19)
(1.01475 0.0461061 6.88297e-20)
(1.03729 0.0341378 -1.76532e-19)
(0.970589 -0.0134538 1.19626e-20)
(1.00297 0.056977 -2.39969e-19)
(1.00947 -0.00315043 1.75679e-23)
(1.02318 -0.0154602 6.30062e-20)
(1.0493 -0.047717 -3.97507e-20)
(0.914545 -0.00216446 6.9356e-21)
(1.00869 -0.00408066 -7.78987e-20)
(1.02174 -0.0324448 6.79474e-20)
(1.0469 -0.00818738 -1.57417e-20)
(0.988783 0.0412525 2.68663e-19)
(1.00728 -0.000797386 3.4268e-20)
(1.00951 -0.0034444 -4.19376e-20)
(1.02763 -0.0473486 2.19126e-22)
(1.00843 -0.000361227 1.97377e-21)
(1.02053 0.0684423 2.66151e-20)
(1.01108 -0.000397935 0)
(1.00765 0.000663575 1.72602e-21)
(1.00828 -0.000183928 5.58073e-20)
(1.01063 0.000197889 6.84029e-22)
(1.00516 -0.0131717 -1.42568e-19)
(1.02423 -0.00889188 -5.1133e-20)
(1.00934 -0.00315976 -8.17956e-20)
(1.00855 0.0114559 -2.62904e-20)
(1.00852 -0.00399758 -4.07735e-20)
(1.01392 -0.00774359 -3.37212e-20)
(1.01016 -0.0722065 8.12831e-20)
(0.788374 -0.00363425 -9.79352e-21)
(1.02269 -0.005224 1.39197e-19)
(0.979296 -0.00107506 -1.07253e-20)
(1.08134 -0.101254 -8.50818e-20)
(1.00621 -0.00473963 5.89717e-20)
(1.09798 0.0646163 -1.27505e-20)
(1.0009 0.031613 -5.63679e-20)
(1.01075 -0.00271726 3.16118e-20)
(1.08992 0.0566528 -1.87322e-19)
(1.00825 -0.000462856 -1.0654e-21)
(1.0063 -0.00465117 -1.13134e-21)
(1.02261 0.00136115 -1.00002e-19)
(1.00879 -0.00433011 3.14951e-20)
(1.04898 0.0617796 -1.33323e-20)
(1.00627 -0.0057121 1.08912e-19)
(1.04462 -0.0134246 -1.37764e-19)
(1.02422 0.00417251 -1.01217e-19)
(1.04942 0.0319553 -3.9245e-20)
(1.01698 -0.00952123 -8.80537e-20)
(1.00736 -0.00455511 -3.13112e-21)
(1.06271 0.0540366 1.1348e-19)
(1.00312 -0.0529681 8.33175e-20)
(1.01567 0.0675073 2.1533e-19)
(1.00789 -0.00492533 1.45449e-19)
(1.04977 0.0780751 7.80872e-22)
(1.00791 -0.00461211 -3.88304e-20)
(1.0096 -0.00168378 7.08114e-21)
(1.04147 0.0250827 4.80504e-20)
(1.02274 -0.0182797 -4.69673e-20)
(1.03101 0.0062592 1.45468e-19)
(1.01 -0.00086761 2.37088e-20)
(1.00782 0.000547635 7.92618e-22)
(1.01805 -0.0833222 -3.00084e-20)
(1.07969 0.0870974 -1.64936e-19)
(1.01106 -0.00279188 -2.83631e-20)
(1.09607 0.0580749 2.08593e-20)
(1.00657 -0.00553333 7.74618e-20)
(1.07509 -0.105484 2.91105e-20)
(1.04282 -0.0230957 2.10382e-20)
(1.00378 -0.0197468 -9.18168e-20)
(1.00949 -0.00309578 3.28071e-20)
(0.974153 -0.00444758 3.07713e-20)
(0.999036 -0.0451371 5.69731e-20)
(0.997158 -0.00661012 -1.28754e-19)
(1.00765 -0.00444678 -9.77402e-20)
(1.00924 -0.00201244 -3.75435e-20)
(1.01271 0.0697352 -2.34428e-20)
(1.08772 0.0508528 1.1895e-19)
(1.02716 -0.00513249 -3.25817e-20)
(1.00801 -0.00250466 -3.34685e-20)
(1.0322 0.0657346 -9.71804e-20)
(1.00746 -0.000673344 9.65046e-21)
(1.00787 -0.0023451 -6.9018e-20)
(1.08151 0.0497341 1.01179e-19)
(1.01995 -0.0150573 8.69074e-20)
(1.08702 0.0799051 1.5166e-19)
(1.02439 -0.00248594 5.67692e-20)
(1.02261 -0.00744117 -1.73029e-20)
(1.07597 -0.0391588 -6.03837e-20)
(1.05088 -0.0849398 -8.15421e-20)
(1.15266 0.0387636 -6.20569e-20)
(1.01116 -0.000929942 -6.35493e-20)
(0.986266 -0.0110035 8.46843e-21)
(1.00776 -0.00107874 6.89255e-21)
(1.01502 -0.0084396 2.19608e-20)
(1.05099 0.0605761 7.7083e-20)
(1.00454 -0.00611073 -1.42979e-19)
(1.00989 -0.00373374 -4.25231e-20)
(1.02334 -0.0244298 9.3336e-20)
(1.00936 -0.00370477 -2.25995e-21)
(1.01008 -0.00214734 -5.54257e-20)
(0.620502 0.0105937 4.7066e-20)
(1.0077 -0.00509441 7.59752e-20)
(1.00928 -0.00302102 1.02432e-19)
(0.820727 -0.00160832 2.07908e-21)
(1.01662 0.00554115 1.5161e-19)
(0.998168 -0.0169582 1.73592e-20)
(1.00948 -0.00229627 -4.73036e-20)
(1.00991 -0.00412641 -5.63252e-20)
(1.02169 0.0180381 5.53126e-20)
(1.05487 0.0119187 1.40001e-20)
(0.991651 -0.0151293 8.94981e-20)
(1.00719 -0.00063267 1.07216e-20)
(1.00245 0.0160209 3.39764e-19)
(1.00551 -0.0119417 1.0305e-19)
(1.05456 0.0499333 -1.73032e-19)
(1.01896 -0.00124494 -1.50677e-19)
(1.01991 -0.000422937 3.05635e-19)
(0.996078 -0.00789077 -1.66489e-19)
(1.00734 -0.00124186 8.24675e-21)
(1.02306 0.00017212 -1.2456e-20)
(1.05761 0.00990999 -2.60662e-20)
(1.13482 0.042894 1.2867e-19)
(1.04104 -0.0641337 -3.45416e-20)
(1.03712 0.062846 8.32825e-20)
(1.01658 -0.00104537 -3.62994e-21)
(1.06683 0.0568461 -1.55715e-19)
(1.01231 -0.00990992 5.71064e-20)
(1.02587 -0.0352886 1.67512e-19)
(1.00878 -0.00290956 3.73312e-20)
(1.01506 -0.0118584 -1.39516e-19)
(1.0092 -0.00189352 -3.33462e-20)
(1.03792 0.0270268 -1.30639e-19)
(1.06002 0.0844429 -2.55889e-19)
(1.0097 -0.00297645 -2.52279e-20)
(1.02298 -0.00647844 1.11893e-20)
(1.00341 -0.00410304 -4.69481e-20)
(1.04368 -0.0554601 -2.03818e-20)
(1.03997 -0.0590956 5.44058e-20)
(1.00849 -0.0039589 -4.42672e-20)
(1.04138 -0.0136783 -7.08268e-20)
(0.318026 0.00136768 -7.99843e-20)
(1.13168 0.0286922 1.15161e-19)
(1.00839 -0.00138586 -5.87486e-20)
(1.05139 0.00988669 -5.57711e-20)
(1.01078 -0.00681795 8.09428e-20)
(0.75743 -0.00772822 2.74475e-19)
(1.00659 -0.00514814 -1.04927e-19)
(1.01112 -0.016782 3.74709e-20)
(1.02465 -0.021397 -3.93923e-21)
(1.01051 -0.0170256 1.40972e-21)
(1.01209 -0.0135084 1.44444e-19)
(1.00831 -0.00413366 -2.53217e-20)
(1.012 -0.0101101 -1.23697e-19)
(1.01305 -0.00477365 -2.90276e-20)
(1.04838 -0.0113588 3.16986e-20)
(1.00769 -0.00111986 -5.34948e-20)
(1.14619 -0.0655208 4.11583e-20)
(1.11951 -0.000569811 4.85414e-20)
(1.02622 0.0730789 1.58035e-19)
(0.992779 -0.0143404 -1.40534e-19)
(1.08136 0.0762745 -7.59307e-20)
(1.01151 -0.000663067 7.12875e-20)
(1.05984 -0.0465789 -2.79092e-21)
(1.01698 -0.0236446 8.44647e-20)
(1.01996 0.0306196 1.31793e-19)
(1.00868 -0.00450951 -7.15778e-20)
(1.00882 -0.00108337 3.98914e-20)
(1.00595 -0.0122259 -1.42807e-19)
(1.01032 -0.00721386 4.14588e-20)
(1.03881 -0.0134663 1.16878e-19)
(0.997815 -0.00511801 1.13312e-19)
(1.00073 -0.00696435 -3.79444e-20)
(1.09779 -0.0192448 3.78236e-20)
(1.00434 -0.00503936 8.98079e-20)
(1.02314 -0.022678 -7.83048e-20)
(1.00838 -0.0510828 -6.92361e-20)
(1.00761 -0.0012677 1.71639e-21)
(1.04804 -0.00550137 1.36385e-19)
(1.00945 -0.0458513 2.10101e-19)
(1.08651 0.0669397 8.41529e-20)
(1.07626 -0.0443342 9.88182e-20)
(1.02972 0.00554287 1.48925e-20)
(1.03199 -0.0651749 1.4518e-19)
(1.0371 0.0789651 4.73011e-20)
(1.03537 -0.0206226 1.06019e-19)
(0.995174 -0.0071872 9.88972e-20)
(1.02337 -0.0289448 1.21163e-19)
(0.579722 0.00586796 9.12591e-20)
(1.11843 -0.066279 -3.9522e-20)
(1.00632 -0.00498223 3.24409e-20)
(1.03295 -0.0824471 8.54726e-21)
(1.03158 -0.0411611 -1.02282e-19)
(1.04295 -0.075857 5.43554e-21)
(1.04205 -0.0510787 8.27669e-20)
(1.06241 0.0495957 1.48614e-19)
(1.0099 -0.00366476 -2.11533e-21)
(1.00746 0.0367052 4.61835e-20)
(1.01658 -0.00101197 3.27716e-20)
(1.0097 -0.0021143 5.85837e-20)
(1.01083 -0.00297625 -1.81099e-19)
(1.04833 0.00568644 -2.84332e-20)
(0.185227 0.0100783 1.88272e-21)
(1.01296 -0.00477773 4.17559e-20)
(1.02582 -0.0325882 -2.19147e-20)
(1.02144 0.0196185 -9.02786e-20)
(1.00776 -0.000472048 -1.76658e-21)
(1.00187 -0.00706243 -9.72938e-20)
(1.02495 -0.00475987 8.99569e-20)
(1.06198 -0.0230945 1.36258e-19)
(1.01634 -0.000845705 1.71642e-19)
(1.01095 -0.00339956 -2.51538e-20)
(1.0045 -0.0248565 4.51043e-22)
(1.01126 -0.00661522 4.19205e-20)
(1.00716 0.000572304 2.05876e-20)
(1.00104 -0.0292793 1.97642e-19)
(1.04288 0.0591537 -3.32015e-20)
(1.02541 -0.0186973 -1.55622e-20)
(1.00419 -0.0044767 8.70762e-20)
(1.01224 5.1535e-05 -2.69075e-20)
(1.02429 0.022415 1.20048e-19)
(1.01003 -0.00240375 2.30737e-20)
(1.00954 -0.00239539 5.2572e-21)
(1.0088 -0.00288491 3.76077e-20)
(1.01055 -0.00287005 7.27846e-20)
(1.12476 0.0435206 8.84022e-20)
(1.03097 -0.0219439 2.53658e-19)
(1.01783 -0.0116061 6.09604e-20)
(1.00349 -0.00611382 3.91519e-20)
(1.00818 -0.000503095 2.05631e-20)
(1.06387 -0.0813175 -1.15506e-19)
(1.15444 -0.00858462 2.34161e-21)
(1.06769 -0.0882832 5.24968e-20)
(1.01217 -0.0209686 5.74706e-20)
(1.01946 -0.0052057 1.37865e-19)
(1.00761 -0.00303327 -2.42512e-20)
(1.00679 -0.00842668 6.40202e-20)
(0.989705 -0.0298862 8.88804e-20)
(1.12336 0.0304258 -3.68465e-23)
(1.01235 0.0473376 -3.28909e-21)
(1.01069 -0.00377288 -4.25415e-20)
(0.98165 -0.0211315 -4.50799e-20)
(1.00958 -0.00368223 9.71766e-20)
(1.03381 -0.0192285 -4.16831e-20)
(1.07077 0.0473207 1.75698e-20)
(1.01094 -0.000569552 -7.12948e-20)
(1.00897 -0.00240206 1.57495e-20)
(1.10588 0.076226 2.02118e-20)
(1.11925 0.0166544 -2.69224e-20)
(1.02509 -0.00973425 4.65593e-20)
(1.00995 -0.00367452 -7.08746e-20)
(1.00739 -0.00470141 9.28272e-21)
(0.993927 -0.0304645 -2.24048e-20)
(1.00892 -0.00230691 4.7455e-20)
(1.02423 -0.0199958 1.45187e-19)
(0.940901 -0.00422044 -2.04409e-19)
(1.00096 0.0309547 -4.56391e-20)
(1.0455 0.0616041 -1.60976e-20)
(1.05646 -0.0427598 -5.95084e-20)
(1.01196 -0.0460472 -7.41129e-20)
(1.01415 -0.00169707 1.06108e-19)
(1.02154 -0.014774 -1.28339e-19)
(1.11326 0.00460913 1.32406e-19)
(1.0117 -0.0513846 4.20798e-20)
(1.02518 -0.0276296 -7.39019e-20)
(1.00694 -0.000439698 -2.08344e-21)
(1.10372 -0.00615515 1.13848e-19)
(0.904189 -0.00738342 -1.10057e-20)
(1.01111 -0.0575067 -7.64914e-20)
(1.02496 -0.0173537 -2.00634e-19)
(0.987597 -0.0100211 1.68461e-20)
(1.00885 -0.00294891 1.87651e-20)
(1.00999 -0.0036722 3.33678e-20)
(1.03424 0.0329639 1.34958e-19)
(0.99705 -0.00758729 3.93085e-20)
(1.00537 -0.00282071 -3.12426e-21)
(1.00854 -0.00418112 7.61092e-20)
(1.11697 -0.0557165 1.47147e-19)
(1.00669 -0.00167177 -7.16693e-20)
(1.02764 -0.0310304 2.98544e-20)
(1.00814 -0.00130175 2.88373e-21)
(1.01589 -0.008915 9.0936e-21)
(1.01019 -0.0690051 -3.77122e-20)
(1.05177 -0.0434187 4.46295e-20)
(1.00821 -0.00118924 2.38805e-20)
(1.00756 0.000621668 -1.23252e-20)
(1.02012 0.00184965 4.3204e-21)
(1.02114 -0.0442504 -1.59841e-20)
(1.00151 0.037414 -3.48743e-21)
(1.05099 0.0740212 1.95811e-21)
(1.09428 -0.0131555 -4.9268e-20)