/*--------------------------------*- C++ -*----------------------------------*\
  =========                 |
  \\      /  F ield         | OpenFOAM: The Open Source CFD Toolbox
   \\    /   O peration     | Website:  https://openfoam.org
    \\  /    A nd           | Version:  7
     \\/     M anipulation  |
\*---------------------------------------------------------------------------*/
FoamFile
{
    version     2.0;
    format      ascii;
    class       volVectorField;
    location    "34";
    object      U;
}
// * * * * * * * * * * * * * * * * * * * * * * * * * * * * * * * * * * * * * //

dimensions      [0 1 -1 0 0 0 0];

internalField   nonuniform List<vector> 
20933
(
(0.997717 -0.000226177 1.50057e-23)
(0.990623 -0.000725517 -2.99193e-23)
(1.0299 -0.00403647 -6.01293e-24)
(1.00028 -5.4009e-05 -2.09645e-24)
(1.00064 -0.0100557 6.30391e-23)
(1.00025 -0.010685 -6.18751e-23)
(1.05501 -0.192574 -8.44131e-22)
(1.11075 0.0767742 -1.26621e-20)
(1.00851 -0.0953641 -2.02338e-21)
(1.11669 0.077862 9.09142e-21)
(1.06704 -0.171546 -2.51144e-21)
(1.21892 0.134697 -3.51026e-22)
(0.983836 -0.0611511 -2.95261e-22)
(0.997546 -0.000270472 -1.34007e-23)
(0.995351 -0.00350851 2.7057e-23)
(1.00027 -6.60431e-05 -1.85611e-24)
(1.29928 -0.00805738 -9.2758e-22)
(1.12636 0.00212423 -6.52874e-21)
(1.00894 -0.145645 -1.39281e-21)
(0.992752 -0.00034611 2.6957e-23)
(1.02354 -0.109555 2.72472e-21)
(1.21456 0.134072 -6.67555e-22)
(1.11919 0.0844877 -6.82963e-21)
(1.16923 -0.207845 -1.72483e-21)
(1.02778 -0.00186921 3.78472e-24)
(0.990746 0.0914491 -2.13796e-20)
(1.01019 -0.00300052 2.11567e-23)
(0.993818 -0.0660603 9.93855e-22)
(1.22418 -0.185812 -1.64067e-21)
(1.01222 -0.147068 4.93135e-21)
(0.998567 -0.00233684 -5.63171e-25)
(0.945787 0.0147152 3.31483e-20)
(1.15364 0.128832 5.34788e-21)
(0.990901 -0.0377564 1.03899e-22)
(1.00002 -0.0017714 6.35377e-24)
(0.998624 -0.00253156 -1.44361e-24)
(1.10251 0.0969406 -1.38673e-20)
(0.999939 -3.88554e-06 -3.46877e-24)
(1.01682 -0.0220579 8.7995e-23)
(1.13787 0.00437928 -2.17286e-21)
(1.04687 -0.0092509 3.37537e-23)
(1.11791 0.156611 9.72726e-21)
(1.03572 0.0477591 -6.03871e-21)
(1.00907 -0.00347983 -1.76021e-23)
(0.990537 0.0878028 8.47218e-21)
(0.979409 -0.00150307 -3.07745e-23)
(1.10582 0.0116999 -1.93131e-20)
(1.27109 0.073236 -9.31408e-22)
(0.999622 -0.000100569 -2.97708e-24)
(0.969403 -0.0533771 1.23016e-22)
(0.999912 -0.00188368 -1.55977e-23)
(1.08625 -0.00976283 1.07632e-21)
(1.2219 -0.11411 4.68426e-21)
(1.00031 -0.00425691 -2.31327e-23)
(1.26336 -0.111124 -1.1757e-21)
(0.945619 -0.0192084 -5.83962e-23)
(0.975479 -0.0350455 3.72992e-23)
(0.998404 -0.00305752 1.88329e-25)
(1.01182 -0.0548696 -1.24907e-21)
(1.29488 -0.00386931 7.76727e-22)
(0.973459 0.0308057 1.79279e-20)
(0.969573 -0.0043447 6.2616e-23)
(0.988708 -0.00333662 -1.98645e-23)
(1.13109 0.0772106 -5.78915e-22)
(0.999472 -7.8415e-05 1.92665e-23)
(0.994895 -0.00888904 3.31989e-24)
(0.994082 0.0631469 5.44817e-22)
(0.994291 -0.00927388 3.30424e-23)
(1.14172 -0.0813973 -7.59287e-22)
(0.997047 0.0931207 7.98503e-21)
(1.04718 -0.0481431 -3.77878e-22)
(1.30767 -0.0402033 -1.79807e-21)
(0.995778 -0.00352999 -8.8072e-24)
(0.981605 -0.0442869 8.5106e-22)
(0.999762 0.00862119 -7.99495e-21)
(1.09029 -0.0955418 1.15765e-21)
(0.99749 0.0870076 3.69587e-21)
(0.960829 -0.00502903 4.16326e-23)
(1.13554 0.00291727 1.39201e-21)
(1.00295 0.0331288 1.16568e-20)
(0.995885 -0.00928409 1.09795e-22)
(1.00239 -0.00506503 -2.48822e-23)
(1.20423 -0.191228 1.315e-21)
(1.0095 -0.0921918 1.68599e-21)
(0.972913 -0.00343135 -6.78636e-23)
(1.0332 0.0450243 2.90977e-20)
(0.987064 -0.0568953 -5.32919e-22)
(0.896806 0.0529618 3.1323e-21)
(1.127 0.0722263 -5.48121e-21)
(0.975492 0.0921802 1.36122e-20)
(1.12059 0.0296864 -7.35238e-21)
(1.00035 -8.21247e-05 1.98511e-24)
(1.00003 -0.000347069 7.26504e-24)
(0.955422 0.00463453 -9.2538e-21)
(1.27671 0.0675504 4.69754e-22)
(0.989061 -0.00353079 -7.13962e-25)
(0.964088 0.00298566 1.41879e-20)
(0.999295 -0.00506083 1.69553e-23)
(1.07149 -0.165133 -1.10202e-21)
(1.07643 0.0165981 -7.64247e-21)
(0.972015 0.0946196 -4.03187e-20)
(0.973661 -0.0110665 1.80099e-23)
(0.962806 0.0862366 -4.4101e-20)
(1.20518 -0.104987 4.8624e-21)
(1.11432 -0.00325039 -3.44267e-21)
(1.11991 -0.0901868 1.03575e-21)
(1.02327 0.104463 1.49806e-20)
(1.18861 -0.0872079 1.24836e-21)
(0.990446 -0.000415815 1.70928e-22)
(1.04116 0.119203 3.36639e-21)
(1.23283 -0.188097 -5.5321e-21)
(1.04885 -0.192556 -1.89649e-21)
(0.974691 -0.0271607 2.72586e-22)
(1.03863 -0.0248912 6.98856e-23)
(1.09184 -0.0879315 4.06657e-22)
(1.00007 -0.000122772 -2.05053e-24)
(1.05217 0.0773577 1.42153e-20)
(0.996521 -0.00868954 -4.3062e-23)
(1.19857 -0.119075 1.07195e-21)
(1.00252 0.0244337 -2.74739e-20)
(1.00034 -6.13793e-05 3.79266e-25)
(1.03797 -0.113402 1.79139e-21)
(1.15579 0.0243401 -2.92454e-21)
(1.01306 -0.062946 -1.73208e-21)
(0.990768 -0.0357678 -8.0407e-23)
(1.1275 0.00436587 3.34652e-21)
(1.18539 0.141775 -1.19509e-20)
(0.993471 -0.0635231 7.99693e-22)
(0.939236 0.0175149 -9.67293e-21)
(1.04762 0.0796773 7.62495e-21)
(0.989233 -0.0736331 -8.05862e-22)
(0.968982 -0.0512361 -4.14012e-22)
(1.04699 -0.00479568 8.47903e-23)
(1.01583 -0.0203077 -5.04512e-23)
(1.0181 0.0979249 -2.0397e-20)
(1.11054 -0.00607117 -8.39859e-22)
(1.24806 0.0883555 -1.8893e-21)
(1.02738 -0.110023 -1.14405e-21)
(0.978851 -0.0113747 1.93542e-22)
(0.992587 -0.0982922 3.6581e-21)
(1.0336 -0.117315 2.99722e-22)
(0.979781 -0.045825 -8.41609e-22)
(1.30901 -0.0522824 -1.74231e-21)
(0.958969 0.0943235 -1.39423e-20)
(1.22615 0.00152894 6.8101e-22)
(1.01698 0.100823 1.84521e-20)
(1.15886 0.157705 -1.36514e-21)
(0.966786 -0.0115992 -1.1071e-22)
(1.19306 0.132525 -8.36074e-21)
(1.01153 -0.00401156 -4.37699e-23)
(0.966922 -0.0105187 2.11312e-22)
(0.998788 0.0913969 9.29535e-22)
(1.00005 -0.000302126 -4.66075e-24)
(1.00727 -0.0852114 6.36061e-22)
(1.00233 -0.00455292 4.34873e-23)
(1.15506 0.160973 7.36498e-21)
(1.02887 0.0469342 -3.09854e-21)
(1.16351 -0.204542 8.03178e-21)
(0.940225 -0.0226717 1.54782e-22)
(0.982842 -0.0627091 6.17513e-22)
(1.27057 -0.119986 1.68766e-21)
(1.05956 -0.185429 1.30294e-21)
(0.998359 -0.00281396 -2.11719e-24)
(1.22294 0.00699214 -1.26451e-21)
(1.12947 -0.00269459 -5.82911e-22)
(0.898944 0.0553167 7.46676e-21)
(0.974819 -0.011281 1.05878e-22)
(1.19714 -0.200271 5.041e-22)
(1.08522 -0.0981053 -1.33055e-21)
(1.10344 0.0928364 -8.18709e-21)
(1.25284 0.0881798 6.35274e-22)
(0.986181 0.0697349 8.35798e-21)
(1.06358 0.139749 2.27014e-20)
(0.987694 -0.0327627 1.62469e-23)
(0.920967 0.0142269 -1.11035e-20)
(1.1585 0.130135 6.36337e-21)
(0.996859 -0.000610125 -1.62163e-23)
(0.991476 0.0064332 -2.10606e-20)
(1.09879 -0.0855224 -7.59076e-23)
(1.03373 0.12369 6.49274e-21)
(1.01201 0.106857 -9.35523e-21)
(0.999905 -2.70592e-06 4.2452e-24)
(0.958025 0.0650211 5.91268e-22)
(1.06146 0.121655 1.9413e-20)
(0.992172 -0.000582839 -8.12059e-25)
(0.941555 -0.0156333 7.07331e-22)
(1.04653 -0.0449052 2.92431e-22)
(1.08312 0.0128224 -1.96428e-21)
(1.19903 -0.111797 -1.73497e-21)
(0.928224 0.0475772 9.86763e-21)
(1.18338 0.137559 -4.13869e-21)
(1.26949 -0.0292299 -3.49925e-22)
(1.0716 0.0124717 1.53236e-20)
(1.13968 -0.0743175 -2.54227e-23)
(0.940424 -0.0238962 4.16489e-22)
(1.21969 0.103009 -4.76715e-21)
(0.958765 0.0686697 -6.54812e-22)
(1.27208 0.0326295 -5.61902e-22)
(0.994021 -0.000224288 -7.94505e-24)
(0.924482 0.0468545 -9.64785e-21)
(1.24229 0.0611231 -4.54219e-21)
(1.27489 -0.0820973 1.46096e-21)
(1.2194 -0.106744 -4.15863e-21)
(0.93435 0.0553118 -1.19048e-20)
(0.950754 0.0592269 2.78358e-20)
(0.959833 -0.0276047 -2.09125e-22)
(1.00042 -0.0464509 -9.56659e-23)
(1.08614 -0.0057763 -1.44183e-22)
(0.945216 -0.0209455 -3.89091e-22)
(0.998889 -0.00010468 3.24576e-23)
(0.995598 0.0648692 -3.97518e-21)
(0.98862 0.0222228 -7.58758e-21)
(0.965039 -0.0150415 2.64725e-22)
(0.949282 -0.0386823 3.20618e-22)
(1.03583 0.120222 9.97577e-21)
(0.999199 0.0157156 1.21093e-20)
(0.998917 -5.26477e-05 -9.18122e-23)
(1.00142 0.0185397 -1.86369e-20)
(1.19292 -0.0808706 5.60571e-22)
(1.01701 -0.0178558 1.6094e-22)
(1.00613 -0.0681524 1.05973e-22)
(1.03271 0.07346 -1.5532e-21)
(0.948983 0.104328 1.30383e-20)
(1.11726 0.0266988 9.72081e-21)
(1.04259 0.114323 -1.62862e-20)
(0.977624 -0.0112853 -3.31397e-22)
(1.00289 -0.0458139 -4.646e-22)
(1.0001 -0.000129297 1.02032e-25)
(0.999258 -3.64312e-05 2.23705e-23)
(1.00049 -0.00838656 1.22139e-22)
(1.15369 0.0212009 1.36411e-21)
(1.16067 -0.126971 -1.02765e-21)
(1.02546 0.101549 -1.90872e-20)
(1.00332 -0.115218 9.58983e-22)
(1.02287 0.0382652 1.1239e-20)
(0.988712 -0.0547991 -9.32951e-23)
(1.11251 -0.0867393 -7.77504e-22)
(0.988708 0.0684578 1.49305e-20)
(0.957957 0.00366524 4.7916e-20)
(1.03388 0.0696722 2.66123e-20)
(1.00014 0.0844748 -2.27757e-20)
(0.947497 -0.0377686 -2.79743e-22)
(1.11165 0.140526 -5.92965e-21)
(1.01413 -0.0608969 1.89534e-21)
(1.1182 -0.0051093 7.23706e-21)
(0.996346 -0.00780466 -7.196e-23)
(1.30097 -0.0934072 -4.88955e-21)
(1.19583 -0.0507338 5.4036e-22)
(1.0955 -0.0285081 1.60599e-21)
(0.999658 -7.68022e-05 3.58773e-24)
(0.988759 -0.000577944 -1.81149e-22)
(0.944713 0.106332 -2.00491e-20)
(1.18177 0.0531296 1.95484e-20)
(1.01616 -0.0237532 -1.8678e-22)
(0.965682 -0.0580541 -8.42855e-22)
(1.15381 -0.12253 3.64174e-22)
(1.0997 -0.200113 3.46068e-21)
(1.11298 0.155682 -1.23788e-21)
(0.9939 -0.0970591 -1.04445e-21)
(0.975457 -0.00183179 2.05072e-23)
(0.996858 -0.0753291 1.18161e-21)
(0.991755 -0.0315876 -1.05796e-22)
(0.999439 -5.82821e-05 -1.15138e-24)
(0.987564 -0.0522077 4.84726e-22)
(1.06429 -0.184957 -6.02575e-22)
(0.958288 0.0903916 2.63048e-20)
(1.28734 0.038612 -1.48427e-23)
(0.976654 -0.0258987 -4.84706e-22)
(1.02031 0.0400799 -1.73516e-20)
(0.952249 0.063914 -3.31254e-21)
(0.987862 -0.059225 9.94427e-23)
(1.00068 -0.000295047 -1.27376e-23)
(1.00646 -0.0887081 -1.14357e-21)
(0.994559 0.0595947 4.59769e-21)
(1.285 -0.137426 -2.89302e-21)
(0.975845 0.0284842 -2.70305e-20)
(1.00003 -0.000137677 9.64183e-25)
(0.951206 -0.0428446 6.07039e-22)
(1.05072 0.139761 1.82209e-21)
(0.999423 0.0148167 2.46036e-20)
(1.03723 -0.0840035 -3.34276e-22)
(0.977107 -0.0334196 3.47427e-22)
(0.930956 0.0947327 2.14149e-20)
(1.2659 -0.0662116 3.3316e-22)
(1.26287 -0.0341456 3.92603e-22)
(0.966919 0.0876766 1.81826e-20)
(0.92955 0.0542948 -2.01628e-21)
(0.986339 -0.0613064 -3.20524e-22)
(1.04895 0.14272 -1.18862e-20)
(1.16266 -0.00569261 -3.28793e-21)
(1.00444 0.0347403 -3.1841e-20)
(1.06804 0.0850459 8.61178e-21)
(1.0007 -0.00021617 1.61584e-23)
(1.29364 0.0414408 1.98358e-22)
(1.09635 0.0893934 4.9697e-21)
(0.996814 -0.000521318 -4.39375e-23)
(1.00199 -0.121819 -3.9934e-22)
(1.25776 0.0361809 -6.04892e-22)
(1.18132 -0.193965 -1.44367e-21)
(1.24056 0.0547588 2.6532e-21)
(1.19913 -0.0286149 -6.24174e-22)
(1.0001 -0.000204603 -1.70073e-24)
(0.99944 -0.0035455 4.41536e-23)
(0.976592 0.105026 -3.21787e-20)
(1.0012 -0.0152528 -2.47975e-23)
(1.01721 -0.145653 -1.19479e-21)
(0.990374 -0.0796685 1.14648e-22)
(1.21165 0.128867 -4.2442e-21)
(0.971953 -0.00419698 -1.18235e-23)
(1.03507 0.126882 1.14754e-20)
(1.21388 0.021908 3.48208e-21)
(0.994026 -0.0760104 6.83303e-22)
(0.957909 -0.00614646 -1.04205e-22)
(1.10854 0.0888495 8.93738e-22)
(1.20865 0.100293 3.54983e-21)
(1.00006 -0.000208945 -1.536e-24)
(0.974233 0.0646471 2.68284e-20)
(1.0468 0.0837072 3.82598e-21)
(0.993346 0.0139018 -6.54701e-21)
(1.26531 -0.1002 -1.62577e-21)
(0.999521 -5.5452e-05 -1.53475e-23)
(0.932505 0.0909491 -1.40744e-21)
(0.996615 -0.00531371 -4.81822e-23)
(0.992554 -0.0579237 2.11995e-22)
(1.2155 0.0983443 -1.50379e-21)
(1.26443 0.0298703 7.47052e-23)
(0.978815 -0.0616189 -7.16188e-22)
(1.2663 -0.0771107 2.10842e-21)
(1.02625 0.0446904 4.48821e-21)
(0.957034 0.00449679 1.74185e-20)
(1.00946 0.0967124 -2.42478e-20)
(1.18577 0.0273543 -5.47825e-21)
(0.910879 0.0192436 2.39614e-21)
(1.00029 -1.06366e-05 -1.3233e-24)
(0.98933 -0.0310272 -1.09907e-22)
(0.999888 0.00821844 3.25087e-20)
(1.22928 -0.155223 5.86699e-22)
(1.09558 0.0852655 -1.17368e-20)
(0.984032 -0.0448595 -3.51101e-22)
(0.993434 0.0857023 2.27298e-20)
(1.19911 0.00197344 2.30511e-21)
(1.00006 -0.00388396 2.98025e-23)
(1.19429 -0.00329365 -1.99743e-21)
(1.05238 0.0719382 -1.83181e-20)
(1.18975 -0.170194 -2.36677e-23)
(0.974479 0.00672797 -4.90242e-21)
(1.06804 0.127112 2.70431e-21)
(0.999315 -0.000303227 2.06725e-25)
(1.04082 -0.0224895 -6.78847e-23)
(1.14338 0.108662 5.7621e-21)
(1.12446 0.00125629 1.26012e-20)
(0.998386 -8.30093e-05 9.77166e-23)
(1.06448 0.135903 -2.02516e-20)
(1.01445 -0.0539659 -1.56897e-22)
(0.8885 0.0534963 -1.24704e-21)
(1.02894 -0.115792 -2.24343e-21)
(0.964911 -0.0135235 9.37826e-23)
(0.989387 -0.000680605 1.02943e-22)
(1.01062 0.100263 2.702e-20)
(1.06136 0.118558 -3.0774e-20)
(0.97633 -0.00261457 1.23265e-23)
(1.10652 0.0820109 3.12032e-21)
(0.975266 0.0876946 -7.85178e-21)
(1.00128 -0.0163757 -4.04316e-23)
(1.04904 0.00681817 4.50196e-21)
(1.0246 0.0191216 -1.26445e-20)
(0.898313 0.0294932 1.58383e-20)
(0.997082 -0.00442867 1.36744e-23)
(1.18896 0.108034 -8.95094e-21)
(1.1906 -0.0567981 -6.09514e-24)
(0.944439 -0.0187025 -1.36149e-22)
(0.999679 -5.53556e-05 -3.10739e-24)
(0.999808 0.00453802 1.96238e-20)
(1.11989 0.160346 5.68666e-21)
(1.2689 0.00593536 4.35076e-22)
(0.985914 0.105299 -8.23102e-21)
(1.18033 0.0307305 2.64988e-21)
(0.973483 -0.0345373 2.51973e-22)
(1.11505 0.135755 -4.42162e-21)
(1.12827 -0.00151575 -1.96439e-21)
(1.17535 0.049242 5.73809e-21)
(0.901783 0.0318199 -4.14636e-20)
(1.03068 -0.100934 8.05869e-22)
(1.22465 0.0896113 1.86044e-21)
(0.991708 0.0189829 -1.71585e-20)
(0.964076 -0.0590541 7.58047e-22)
(1.15706 -0.0176478 2.84395e-22)
(1.0797 -0.164688 2.58054e-21)
(1.14613 0.103761 -2.56523e-21)
(0.995108 -0.000171541 1.87277e-22)
(1.11029 0.0128957 -2.12688e-21)
(1.26912 0.0141046 -3.42729e-23)
(1.22743 0.0839922 4.31567e-21)
(1.00125 -0.00499403 9.65486e-23)
(1.10323 0.00866453 2.04833e-20)
(0.997786 0.0101181 -1.6418e-20)
(1.05449 0.0507266 3.27672e-20)
(1.18076 -0.188821 -5.88764e-21)
(0.993174 -0.0297669 2.35638e-22)
(0.938386 0.0508844 -1.38472e-20)
(0.94584 0.0170513 -3.55692e-20)
(0.996926 -0.00730438 -1.48285e-23)
(0.953215 -0.0418572 2.67574e-22)
(1.01738 0.0736639 3.56141e-21)
(1.02311 -0.152589 -9.8471e-22)
(1.10566 -0.0906925 7.53054e-22)
(1.11121 0.150469 1.84851e-20)
(0.991068 -0.000447734 -1.28072e-22)
(0.895154 0.0266346 2.70377e-20)
(1.03877 -0.0748284 -9.37635e-23)
(1.17827 0.116128 3.07375e-21)
(0.989505 -0.0104435 1.45984e-23)
(0.996385 0.0103179 -7.00348e-21)
(1.07191 0.123954 -5.62338e-21)
(1.09551 -0.0223544 -1.81228e-21)
(1.12151 -0.097185 -5.11885e-22)
(1.26997 -0.0219935 8.28004e-22)
(1.23955 0.0660752 4.45054e-22)
(0.999461 -0.00550675 9.87494e-25)
(1.01417 0.0609264 -6.5585e-21)
(1.3132 -0.0330115 3.84362e-21)
(1.12097 0.0719916 1.34587e-20)
(0.889963 0.056515 4.15225e-20)
(1.27514 -0.0939275 1.21165e-21)
(1.08022 -0.0844919 -1.38268e-21)
(1.00012 -0.00911774 -1.2288e-22)
(1.27106 0.0805879 2.31181e-21)
(1.27887 0.0268219 1.11614e-22)
(0.973056 -0.0264084 8.02383e-22)
(1.0932 0.138775 -1.84006e-21)
(1.00001 -0.00143284 -2.46055e-23)
(0.970914 -0.0471332 -1.44642e-22)
(1.01598 -0.0162265 -2.21851e-22)
(1.25714 -0.0617614 8.00718e-23)
(0.988956 -0.0500504 4.01747e-22)
(0.999615 -0.000132059 8.76488e-25)
(0.98787 -0.065367 1.27272e-21)
(1.22617 0.102003 -2.41165e-21)
(1.19173 -0.179807 -2.18475e-21)
(1.05512 -0.0784658 -1.46293e-22)
(0.958106 -0.0283053 -4.4508e-22)
(1.24999 0.0342148 -2.26119e-21)
(1.19204 -0.0257125 1.65987e-21)
(0.972583 -0.0612996 -3.82081e-22)
(0.950904 -0.00887179 3.08573e-22)
(1.00091 -0.00521674 -1.56186e-23)
(1.14854 -0.084682 8.59739e-22)
(1.03718 -0.163692 -1.61812e-22)
(1.01303 -0.00336278 3.14427e-23)
(1.04083 -0.0799989 1.13224e-21)
(1.20382 0.0960818 -5.66136e-21)
(1.05606 0.0469641 -1.9963e-20)
(1.22687 0.0164215 7.45915e-22)
(0.999291 -0.000252637 8.39362e-24)
(0.923915 0.100103 -3.13392e-20)
(1.0132 -0.0017163 9.66148e-23)
(0.99993 -0.00155124 2.94438e-23)
(1.04408 -0.0111101 2.0554e-22)
(0.95762 -0.0422766 -4.40119e-22)
(1.01367 -0.105284 1.25194e-22)
(0.954138 0.0551097 -1.64058e-20)
(1.02754 -0.0615665 9.83237e-23)
(1.15754 -0.00507917 -1.6007e-21)
(1.02993 -0.141651 2.30733e-21)
(1.02652 -0.144348 -2.97211e-21)
(1.11439 0.146164 -1.28572e-20)
(0.994888 -0.0585793 -3.59358e-22)
(0.993036 -0.0925317 5.66456e-22)
(1.00404 -0.119681 9.39493e-22)
(0.999729 -3.94383e-05 6.86972e-24)
(1.20267 -0.0961857 -2.62115e-21)
(0.913988 0.0948422 -2.97251e-21)
(1.10187 -0.192806 8.92597e-22)
(0.955064 -0.0539341 -9.38982e-23)
(1.0925 0.132989 -2.39793e-22)
(0.979988 -0.0579723 -7.57567e-23)
(1.06784 0.0800483 -7.16212e-21)
(1.19555 0.135959 -8.50265e-22)
(0.996108 -0.00568494 8.08903e-23)
(0.998751 -0.000152384 -2.65975e-23)
(1.04241 0.0761507 2.25801e-21)
(0.892925 0.0703554 1.35337e-20)
(1.08258 -0.193209 2.26791e-22)
(1.16473 0.149747 1.62173e-21)
(1.2368 0.106009 -6.23127e-21)
(0.961897 -0.0476629 -2.02064e-22)
(0.961863 -0.0501776 -4.85023e-22)
(1.01892 0.0769114 -9.74407e-22)
(1.11099 -0.0112531 1.29672e-21)
(1.20294 -0.182088 4.56002e-21)
(1.08354 -0.15674 -2.12176e-21)
(0.980511 -0.00152693 3.38515e-23)
(1.06887 -0.0161835 6.51821e-22)
(0.942378 0.0266101 -6.16802e-21)
(1.15531 0.0113874 -1.07509e-20)
(1.00028 -9.72592e-05 1.94861e-24)
(0.961518 0.0827411 2.84236e-20)
(1.04188 -0.0710902 -1.11133e-21)
(1.01536 -0.107148 1.66335e-21)
(1.05453 0.138262 -1.06853e-20)
(1.01905 -0.0263433 -2.29931e-22)
(0.98868 -0.00993467 -5.49141e-23)
(0.99932 -0.000455239 2.53439e-24)
(1.18123 -0.071286 -3.17231e-22)
(0.960753 -0.0212687 -2.97762e-22)
(1.00028 -1.77657e-05 2.26012e-24)
(1.1678 0.15199 -3.9866e-21)
(1.28702 -0.128137 -1.97674e-21)
(1.01204 0.0594848 -1.13434e-20)
(0.999378 -8.4036e-05 -5.10985e-24)
(1.00015 -0.0046579 -1.37133e-23)
(0.978723 -0.0595557 -3.76516e-22)
(0.999996 -0.000121303 2.0637e-25)
(1.08437 -0.199187 -1.15189e-21)
(1.22226 -0.174563 -2.13547e-21)
(0.999537 -0.00465564 8.90216e-24)
(1.01097 -0.0838773 -4.9697e-22)
(0.942895 -0.0154375 1.90132e-22)
(1.05377 0.12526 -1.20235e-21)
(0.983833 0.103896 6.68028e-21)
(0.996588 -0.00482331 1.54126e-23)
(1.00338 -0.00121762 1.8837e-23)
(0.999583 -0.113418 -2.38673e-21)
(0.979775 0.0941754 2.14251e-20)
(1.00512 -0.0377124 4.52561e-22)
(0.976017 0.0606525 -7.36887e-22)
(0.979629 -0.0125975 -2.48822e-23)
(0.889717 0.0434145 -1.12693e-20)
(1.04265 0.0152968 -2.45829e-21)
(1.1483 0.0680354 -1.32292e-20)
(0.906921 0.0557056 -1.23182e-20)
(1.30972 -0.0211092 1.0934e-22)
(0.99005 -0.00283926 2.08703e-24)
(1.18226 -0.056462 4.17991e-23)
(1.01005 -0.0389937 -4.86974e-23)
(0.986966 0.0938968 5.40528e-21)
(1.01781 0.0667257 1.53978e-20)
(0.970218 -0.00802766 8.81038e-23)
(1.29353 -0.0895608 5.19386e-21)
(1.14099 -0.024655 -2.14062e-22)
(1.07729 -0.0896298 -9.37785e-22)
(0.996217 -0.000265766 3.86044e-23)
(1.30146 -0.104207 4.83177e-21)
(1.00026 -4.47362e-05 3.18314e-24)
(1.05069 0.121385 6.68577e-21)
(0.942213 -0.0144709 -6.26047e-22)
(0.991729 -0.0734201 -2.29843e-22)
(0.995381 -0.0344855 2.50428e-22)
(1.00864 -0.0669462 1.80805e-21)
(1.17498 0.110979 9.37336e-22)
(1.22306 0.0221879 -2.73714e-21)
(0.998635 -4.75516e-05 -9.40761e-23)
(1.03078 -0.0590292 -7.85229e-22)
(0.99988 -0.000161431 2.98404e-25)
(0.892213 0.0402295 8.40674e-21)
(0.94734 0.0239892 1.26705e-20)
(0.995261 -0.000982371 2.08774e-23)
(0.969683 -0.0134745 -1.38647e-22)
(1.03974 -0.0430434 -1.75888e-22)
(1.01972 0.070081 6.62109e-21)
(0.936675 -0.0241012 -4.57056e-22)
(1.23913 0.110041 -1.37039e-21)
(0.957514 -0.055255 1.34663e-22)
(1.0048 0.0960948 -4.83845e-22)
(1.15225 0.0728146 -1.49122e-21)
(0.959494 -0.0233178 -2.2494e-22)
(0.904204 0.0212827 -1.73369e-20)
(1.06055 -0.00280765 -5.56247e-22)
(1.01392 0.101857 -1.44189e-20)
(0.991577 -0.0153222 9.08453e-24)
(1.0404 -0.173981 4.74041e-21)
(0.979755 0.004039 -4.10556e-20)
(1.01723 -0.0490369 5.81098e-22)
(0.890141 0.0754276 -6.14413e-21)
(1.02947 0.0817274 8.4615e-22)
(0.906508 0.0238716 -4.13934e-21)
(0.99045 -0.00295609 1.85825e-24)
(0.993112 -0.000500909 -7.73645e-23)
(1.03696 -0.108035 -5.08635e-22)
(1.19376 -0.0425059 -9.44009e-22)
(1.01756 -0.0261386 2.47094e-22)
(1.03521 -0.0973706 -1.72405e-22)
(1.00977 0.0899634 1.30676e-21)
(1.00343 0.103997 4.49263e-21)
(1.04452 0.00292603 4.10199e-24)
(0.983079 0.0919801 -1.53164e-20)
(0.897277 0.081393 3.36396e-21)
(1.15066 0.12423 1.05258e-20)
(0.999242 0.00497495 -2.81238e-20)
(1.05052 0.0395513 -6.32585e-21)
(1.00584 -0.0197998 -3.33492e-22)
(1.03895 0.0782295 -7.45309e-22)
(0.991111 -0.0919432 -4.8812e-22)
(0.959527 -0.0538988 3.53097e-22)
(0.9986 -0.00128414 1.18186e-25)
(1.06968 -0.0901473 2.22435e-21)
(1.14481 -0.168118 -6.35693e-22)
(1.09223 0.0465389 5.17471e-21)
(1.09815 -0.0105098 2.30567e-21)
(1.00218 0.0283117 2.2935e-21)
(1.01115 -0.0573041 1.15026e-21)
(1.14356 -0.0144751 1.41502e-21)
(1.00321 0.0219122 -2.66803e-21)
(1.01148 -0.0408733 6.88296e-22)
(1.11775 -0.102328 1.18928e-21)
(0.999911 -0.000189347 4.26625e-26)
(1.00048 -0.000245573 2.68724e-24)
(1.09092 0.0419617 -3.74411e-23)
(0.992975 -0.0791107 -6.65497e-22)
(0.966532 -0.050226 5.68212e-22)
(1.00053 -0.000234331 -4.03681e-24)
(1.00001 -0.00321466 1.85942e-23)
(1.14031 -0.0293493 -3.58473e-22)
(0.999532 -5.70121e-05 8.98167e-24)
(1.27527 0.0589113 -1.66046e-22)
(0.895718 0.0321739 2.18158e-20)
(1.15902 0.152608 6.19399e-22)
(1.12955 0.0829689 -4.35446e-22)
(0.966784 -0.007767 -1.21497e-22)
(1.03127 0.10858 5.22558e-21)
(1.2643 0.0856727 -1.39721e-21)
(1.00569 -0.0351162 -2.7296e-23)
(0.969973 -0.0151957 -1.43654e-22)
(0.997087 -0.0040861 -1.62884e-26)
(0.999268 -0.000398708 -2.3658e-24)
(1.00195 -0.00532828 -3.70104e-23)
(0.996143 -0.03668 2.1274e-22)
(1.05957 -0.171277 2.69286e-21)
(1.11228 0.102352 1.59074e-20)
(1.22283 -0.0395498 -1.00017e-22)
(0.966385 -0.00350935 3.70308e-23)
(0.99989 -0.000126917 2.83154e-25)
(1.00044 0.0595337 1.53237e-20)
(1.28745 -0.00472552 1.61481e-21)
(1.30048 -0.0597725 1.22661e-21)
(1.02009 -0.0503977 -6.50991e-22)
(1.24364 0.0853515 2.50242e-21)
(1.06766 -0.0937658 -6.13871e-22)
(0.98513 -0.000835087 -2.94946e-23)
(1.00185 0.0167016 1.33917e-20)
(0.981021 0.000735603 -5.30327e-20)
(1.07556 0.151585 -1.38122e-20)
(0.991089 -0.000371941 9.40578e-23)
(1.0724 0.150732 1.07465e-20)
(0.96895 -0.00545901 3.46023e-23)
(0.983304 -0.0540533 -4.8223e-22)
(1.1424 0.144924 -1.19644e-20)
(1.00026 -0.000119373 3.55302e-24)
(0.98812 -0.0347974 -5.42483e-23)
(1.18807 0.11321 3.0996e-21)
(1.14603 0.113442 1.20472e-20)
(0.960651 -0.0254063 -4.69549e-23)
(1.02401 0.0702824 1.0133e-21)
(0.952927 0.107299 -1.35568e-21)
(1.0157 0.0341715 -3.08037e-20)
(0.95541 -0.0433734 6.96372e-22)
(0.952014 -0.00879256 -1.7329e-22)
(1.05912 -0.0740594 -2.69631e-22)
(1.13216 -0.00194517 3.22967e-22)
(1.02302 0.0158046 -7.48373e-21)
(0.995192 -0.00138308 4.25737e-24)
(0.976224 0.00967707 -1.53823e-20)
(0.991709 -0.0552275 1.15079e-21)
(1.04631 -0.173176 -3.23538e-21)
(1.17745 -0.0503418 2.79156e-22)
(0.920156 0.101945 4.4548e-20)
(1.11406 0.108375 -1.31345e-20)
(1.0144 0.0669399 -1.61873e-20)
(1.23146 -0.165842 1.0646e-21)
(0.965574 0.00219173 -2.36472e-20)
(0.962783 -0.0210205 2.96104e-22)
(0.984929 -0.0519471 3.50385e-22)
(0.927412 0.0109344 8.29099e-21)
(1.09191 -0.0314687 -4.93811e-22)
(1.05867 -0.158407 -4.5994e-22)
(1.01574 0.094165 -3.31544e-21)
(1.00318 0.0922415 -1.02166e-20)
(0.972981 -0.045492 -5.13441e-22)
(1.02853 0.0206982 -1.69184e-20)
(0.98013 0.0982452 -2.84402e-21)
(1.00429 0.0854734 1.33418e-20)
(1.04309 0.128017 4.31081e-21)
(1.01158 0.0940919 2.14767e-20)
(1.06349 0.0877931 -1.12272e-20)
(0.986283 -0.00360704 1.56657e-23)
(0.963811 -0.0229737 3.79581e-22)
(1.00303 -0.00862871 -2.0324e-23)
(1.01957 -0.142693 3.30961e-21)
(0.994054 0.0199191 -3.96201e-21)
(1.02708 -0.15068 1.93868e-21)
(1.207 0.107152 -2.84654e-22)
(1.1747 0.0631042 -7.43729e-21)
(0.967476 -0.0585962 4.11947e-22)
(1.26844 0.0564353 2.68648e-23)
(1.19587 0.127276 -2.90564e-21)
(0.993541 0.00762923 -1.21278e-21)
(1.25962 0.0450368 8.55881e-22)
(0.999573 -0.0038845 -4.96394e-24)
(1.07283 -0.0156941 5.37139e-23)
(0.982666 -0.0584714 2.33588e-22)
(1.27452 -0.0597353 1.13349e-22)
(1.29188 -0.0559364 -2.59128e-21)
(1.03229 -0.159967 6.2489e-22)
(1.04439 0.122878 2.44232e-21)
(0.969542 0.105738 2.27281e-20)
(1.20618 -0.0230511 9.98159e-22)
(0.997585 0.00614733 1.24534e-20)
(0.892234 0.0656804 -1.51043e-20)
(0.998732 -9.31606e-05 2.42928e-23)
(1.00375 -0.00124348 -7.32869e-25)
(0.996129 -0.00629785 -3.58241e-23)
(0.970834 -0.00852681 2.17976e-23)
(1.09234 0.0971946 -8.63608e-21)
(0.927098 0.0124513 -1.79915e-20)
(1.15744 0.0154574 9.27651e-21)
(1.03298 0.116379 3.14887e-21)
(0.978712 -0.0269958 -2.59214e-22)
(1.08337 0.139707 1.82048e-20)
(1.0794 0.147845 5.8204e-21)
(1.28039 -0.119218 7.33454e-22)
(0.955474 -0.0125989 2.23902e-22)
(0.938408 -0.0226438 2.94609e-22)
(1.21142 0.111467 7.16745e-22)
(1.01483 -0.0502767 2.42453e-22)
(1.22076 -0.0340583 1.22306e-22)
(0.964131 -0.0463253 1.09356e-22)
(0.941872 -0.0449599 -9.24111e-22)
(1.02264 0.0975235 2.36677e-20)
(0.991603 -0.0024983 -5.3226e-24)
(1.03215 -0.0676576 -1.8945e-22)
(1.00509 0.10243 1.11244e-20)
(1.26715 0.0475989 2.60494e-21)
(0.929986 0.0860732 5.05288e-21)
(1.02177 -0.100979 -8.87507e-22)
(1.04761 0.0135333 8.04936e-21)
(1.28349 -0.0637411 2.83705e-21)
(1.00109 -0.0835599 2.74949e-22)
(0.979733 0.00717824 -5.64001e-21)
(0.99054 0.000459892 3.43464e-20)
(0.990364 0.0287239 -6.15652e-21)
(0.992605 -0.0390106 -4.77094e-22)
(0.939073 0.0157229 1.95154e-20)
(0.957865 -0.0397111 3.47408e-22)
(0.968591 0.0778735 7.25158e-22)
(1.14483 -0.0680062 1.2338e-22)
(0.985409 0.0496038 -3.49107e-21)
(0.979142 -0.055635 2.95326e-22)
(1.00003 -0.000259723 -2.94447e-25)
(0.985833 0.0432187 1.15949e-20)
(0.966782 0.0696548 1.35462e-20)
(0.970875 0.0851524 -2.17662e-20)
(0.987549 0.0365561 -1.34907e-20)
(1.08333 0.00667281 -2.78521e-20)
(1.15307 -0.0147708 -6.39778e-23)
(1.07855 0.0848315 -2.15644e-20)
(1.05454 -0.153739 1.18758e-21)
(0.996837 0.0149822 4.06009e-20)
(1.02365 0.0629638 -2.00442e-20)
(1.28131 -0.0105108 -1.92237e-21)
(1.10161 -0.0136326 -2.45378e-21)
(0.986725 -0.00340623 7.09891e-24)
(1.31465 -0.0146271 -4.74054e-22)
(1.02967 0.100885 -3.98298e-21)
(0.943681 -0.034227 1.94183e-23)
(0.96941 -0.00462363 -7.02901e-23)
(0.992961 0.00406407 -8.06653e-21)
(0.979731 0.053093 -2.49104e-20)
(0.988118 -0.0636406 -5.23692e-22)
(0.988099 0.0584202 1.81868e-20)
(1.03628 -0.169728 1.11833e-21)
(1.24276 0.0789473 -4.13962e-21)
(0.994391 -0.000280773 1.12503e-22)
(0.973557 0.0568548 -1.40225e-20)
(0.966408 0.0614339 3.57215e-20)
(0.902095 0.0358062 3.37185e-20)
(0.976296 0.100842 2.95867e-20)
(0.997194 -0.000334225 1.65674e-23)
(0.978877 -0.0293956 1.70871e-22)
(0.998416 -0.00131887 -3.92035e-25)
(0.99681 -0.0878324 -2.17374e-21)
(0.932135 0.0660355 -7.19815e-21)
(1.1448 0.0921885 -1.75363e-20)
(1.03927 0.110856 -2.36175e-22)
(0.942558 -0.0429648 5.81812e-22)
(1.05096 0.0431252 1.98481e-20)
(1.0424 -0.041916 1.57157e-22)
(0.930588 0.0763956 1.04186e-20)
(1.10722 -0.111728 -6.18961e-22)
(0.996174 0.00543583 1.37795e-20)
(0.994547 -0.00027991 6.11263e-23)
(0.941414 0.0624766 -2.40395e-20)
(0.921641 0.0807768 -2.90814e-20)
(0.976771 -0.0307978 -4.56892e-22)
(1.20596 0.0495426 3.2667e-21)
(0.943786 0.0524785 -2.39727e-20)
(0.996565 -0.000518207 -9.01078e-23)
(0.917525 0.0361473 -3.7839e-21)
(1.05635 -0.0832516 2.41381e-22)
(0.996753 -0.000339765 3.62174e-23)
(0.953306 -0.0140171 -1.60257e-22)
(1.01395 0.10574 -1.41103e-20)
(1.17193 0.0820192 -9.85586e-21)
(1.01217 -0.119492 1.48224e-21)
(0.990983 0.102062 1.16517e-21)
(0.915862 0.090909 1.93564e-21)
(1.07893 0.142741 -1.97603e-20)
(1.06493 -0.0122203 -3.72927e-22)
(0.999363 -0.0776521 4.29445e-22)
(1.17766 -0.0647665 1.01644e-22)
(0.980266 0.060143 2.05274e-20)
(0.925715 0.0365763 -2.18513e-21)
(0.898024 0.0344679 2.17917e-21)
(1.14316 0.0803754 2.71071e-21)
(1.00042 -0.0115895 2.81178e-23)
(0.978342 -0.0016988 -5.6365e-23)
(1.03246 0.104199 -1.4154e-20)
(1.00206 -0.00897209 2.17521e-23)
(0.98321 -0.00538637 3.84134e-25)
(1.00333 -0.0142029 -1.62027e-23)
(0.992529 -0.0339662 -2.3355e-22)
(1.11171 -0.16728 2.32353e-21)
(1.21755 -0.153693 -1.48599e-21)
(0.956021 0.0832618 -3.17085e-20)
(1.02356 -0.0558477 2.11556e-23)
(0.998809 -0.00106028 -1.16573e-24)
(1.03066 0.0658989 -3.17235e-22)
(1.1678 0.112018 8.32334e-21)
(1.00199 -0.0143682 -3.24496e-23)
(1.21778 0.0906596 -3.85601e-21)
(1.00201 -0.00148814 3.53153e-24)
(1.16214 0.0633046 9.17915e-22)
(1.01591 0.0360309 2.16047e-20)
(0.985782 0.055768 -3.52693e-20)
(1.17977 -0.16625 1.70019e-21)
(1.18766 0.049623 -4.77607e-21)
(0.992586 -0.0157273 -3.46241e-23)
(1.14442 -0.108732 1.99972e-22)
(0.994738 -0.00174827 2.36491e-24)
(0.975908 0.0677482 -3.63518e-20)
(0.954431 0.0808322 9.78701e-21)
(1.25203 -0.153837 1.36507e-21)
(1.21214 -0.172497 1.39355e-21)
(1.17009 -0.184261 4.81832e-21)
(1.04049 -0.099511 7.96456e-22)
(0.987245 0.0976607 2.44713e-21)
(1.04335 -0.0904712 5.1245e-22)
(1.13613 -0.153412 7.915e-22)
(1.09616 -0.185743 -1.07711e-21)
(1.13537 -0.0957523 -8.98485e-22)
(0.909752 0.0360322 1.84356e-20)
(1.17469 -0.20318 -8.80953e-21)
(1.26234 0.0198563 -9.79907e-23)
(0.985833 0.0165782 7.05839e-21)
(0.995457 -0.000398898 -5.9224e-23)
(1.21142 0.0275273 1.61206e-21)
(1.04588 -0.081046 -7.87105e-22)
(1.09478 -0.170341 1.85312e-21)
(0.995455 -0.00102385 -6.08302e-24)
(0.999599 -0.00327877 -1.38699e-23)
(0.9081 0.0461418 -3.14188e-20)
(1.05938 0.0455883 1.5126e-20)
(1.24834 -0.16403 5.35994e-21)
(1.3083 0.0139611 -3.9137e-22)
(1.06222 0.0774089 -8.17432e-21)
(0.991777 0.0573825 -2.84727e-21)
(1.02632 0.0667222 6.08945e-21)
(1.25648 -0.0836179 -2.58591e-21)
(0.980168 -0.06277 7.72013e-22)
(0.993181 -0.0528189 -3.06641e-22)
(0.984187 -0.0564886 -8.29545e-23)
(1.03895 0.0680619 -2.02119e-20)
(0.96879 -0.00590617 9.09642e-23)
(1.00507 -0.0790563 6.56761e-22)
(0.99972 -4.1961e-05 -2.32765e-24)
(0.965847 -0.0225855 -6.1991e-22)
(0.997655 -0.000606192 -1.22611e-24)
(1.13728 -0.172438 1.78557e-21)
(1.00816 0.102857 -1.32182e-20)
(1.06639 -0.157231 6.97099e-22)