/*--------------------------------*- C++ -*----------------------------------*\
  =========                 |
  \\      /  F ield         | OpenFOAM: The Open Source CFD Toolbox
   \\    /   O peration     | Website:  https://openfoam.org
    \\  /    A nd           | Version:  7
     \\/     M anipulation  |
\*---------------------------------------------------------------------------*/
FoamFile
{
    version     2.0;
    format      ascii;
    class       volVectorField;
    location    "10";
    object      U;
}
// * * * * * * * * * * * * * * * * * * * * * * * * * * * * * * * * * * * * * //

dimensions      [0 1 -1 0 0 0 0];

internalField   nonuniform List<vector> 
115545
(
(1.03124 -0.0450587 -2.48574e-22)
(0.999997 1.00687e-06 -2.70624e-24)
(0.986488 -0.0112366 8.23722e-22)
(0.996624 -0.00368547 -1.56261e-22)
(1.0017 -0.0040507 1.98352e-23)
(0.999099 -0.00135491 5.28268e-23)
(1.02229 0.117779 -2.24321e-20)
(1.05185 -0.0849488 4.01197e-22)
(0.999711 -0.000452747 -3.03458e-24)
(0.999997 1.19795e-06 5.67883e-25)
(0.999787 -2.35934e-05 1.65086e-23)
(1.00013 -0.000119657 5.68451e-24)
(0.998697 -0.00442892 -5.62387e-23)
(0.918186 -0.00565267 -3.13863e-21)
(0.999708 -0.00046433 2.70428e-23)
(0.928804 -0.0255079 -7.01069e-21)
(0.999879 -0.000347797 1.63247e-23)
(0.999647 -0.000248772 -2.85767e-23)
(0.989858 0.119416 2.74194e-20)
(1.00175 -0.00410016 9.44931e-23)
(1.05725 -0.0853288 3.23545e-21)
(0.994486 -0.000168056 -7.46771e-23)
(0.99958 -0.000330561 -2.82748e-23)
(0.99481 -0.00529848 -1.0101e-22)
(0.893349 0.0366481 2.60145e-20)
(1.11253 0.0201965 9.5452e-21)
(1.2299 0.0086292 -1.14058e-21)
(1.01736 -0.00415432 2.69143e-21)
(0.99999 -4.50445e-05 3.24351e-24)
(1.0507 0.205114 -2.47986e-20)
(0.999888 -4.8342e-05 1.12964e-23)
(1.04849 0.00921749 2.29201e-21)
(1.00706 -0.0106907 -7.7646e-23)
(0.986022 -0.00589437 -7.7396e-22)
(0.881682 0.102338 1.18363e-20)
(0.998108 -0.00113828 3.17251e-22)
(1.03067 0.12992 3.84293e-21)
(0.999879 -0.00035619 -6.95353e-24)
(1.23147 -0.0897424 3.33542e-22)
(1.0275 0.0641962 3.61912e-20)
(1.04903 0.00971634 -4.47002e-21)
(0.999641 -0.000257812 -5.51696e-24)
(0.983086 -0.0208762 -1.52092e-21)
(0.998114 -0.00110223 -2.25866e-22)
(0.966448 -0.0575662 -2.33337e-22)
(0.918686 -0.00507837 3.27045e-21)
(1.00586 -0.0131077 4.53908e-22)
(1.00539 -0.000663629 2.40234e-22)
(1.00014 -0.00649844 -1.29879e-23)
(1.00013 -1.30808e-05 -2.74277e-23)
(1 -3.77192e-07 -1.32642e-25)
(0.99659 -0.000157725 2.47833e-22)
(1.0364 0.010895 7.31209e-21)
(0.999998 -4.8463e-07 -4.41345e-25)
(0.998228 -0.00770534 2.22451e-22)
(1.03604 0.0112125 -1.88848e-21)
(1.0292 0.000524583 5.2352e-21)
(0.960825 -0.0404254 -8.38926e-22)
(1.19319 0.0166299 3.79505e-21)
(0.98975 -0.0138551 1.74206e-21)
(0.999936 -0.00019942 -6.91994e-24)
(0.99473 -0.00560171 8.73577e-23)
(0.999259 -4.40608e-05 -4.88283e-23)
(0.982139 -0.00984993 2.24928e-22)
(0.999951 -5.1182e-05 -1.03281e-23)
(1.00092 -8.00858e-05 -1.0965e-23)
(0.998911 -0.00405567 2.42168e-22)
(1.03744 -0.00400872 4.58311e-21)
(1.24485 0.0215842 2.75994e-21)
(1.02961 0.000235456 2.16684e-21)
(1.08161 0.113969 9.90012e-21)
(1.20084 0.0546766 -6.1752e-21)
(1.02751 0.063193 1.60403e-20)
(0.956332 -0.0037923 -5.92805e-22)
(1.02142 -0.0571806 -3.65247e-22)
(0.971545 -0.00955559 -3.1615e-22)
(1.14184 -0.0239588 -1.33552e-21)
(0.999292 -0.0023602 -9.58373e-23)
(0.997418 0.0836243 -8.89293e-21)
(1.10825 -0.00681773 2.96245e-22)
(1.10889 -0.00534955 1.55824e-21)
(0.999977 2.18443e-06 3.25976e-25)
(0.977242 -0.126943 3.29801e-21)
(1.01663 -0.000977634 -1.20509e-21)
(0.996596 -0.000991242 1.51671e-22)
(1.00013 -0.00011663 5.62015e-24)
(0.981997 -0.0155588 -1.03159e-21)
(0.999996 -1.30037e-05 -2.99316e-25)
(0.968652 -0.0101486 -1.40451e-23)
(0.999992 -2.51295e-05 1.19877e-24)
(1.21681 -0.0535149 7.24693e-23)
(0.988984 -0.00587984 4.81821e-22)
(0.999987 -4.47658e-05 -4.12753e-24)
(0.998579 -0.00101339 2.35326e-22)
(0.999554 -0.000311497 -4.74271e-23)
(1.00031 -4.96967e-05 1.12312e-23)
(0.999655 -1.80141e-05 -8.59974e-24)
(0.977986 -0.126075 2.14899e-22)
(1.15713 -0.0774135 1.95156e-22)
(0.968812 -0.00985391 -5.06604e-22)
(0.999934 -0.000203795 7.9663e-24)
(1.02135 -0.00719533 -2.7771e-21)
(1.00253 -0.0119115 -6.15904e-23)
(1.00249 -0.000162056 -9.84495e-25)
(1.07991 0.112407 6.60857e-21)
(1.01181 -0.0846279 2.20498e-21)
(1.01595 0.0674365 -1.06152e-20)
(0.978516 -0.0788726 2.47456e-21)
(0.994728 -0.0280852 2.46816e-22)
(0.999986 -5.60476e-05 -1.89394e-24)
(1.12477 0.000569486 -3.61852e-21)
(0.99966 -2.34983e-05 3.41221e-24)
(1.14282 -0.0224099 8.39605e-22)
(0.996089 -0.0198809 -1.12568e-21)
(0.741415 0.0919482 -5.40408e-21)
(0.999763 -0.0116938 -4.74836e-22)
(0.999784 -1.96792e-05 -3.05501e-23)
(1.09713 0.109214 -1.21699e-20)
(1.00001 -1.19358e-05 4.84997e-25)
(1.20074 0.0526941 4.33404e-21)
(1.09743 0.111708 1.74195e-20)
(0.928073 -0.0260495 2.85825e-21)
(0.986934 -0.0118356 7.09913e-22)
(1.16897 0.00403801 2.52709e-21)
(0.999995 -2.182e-06 -5.41921e-25)
(1.05001 0.202625 2.86027e-20)
(0.994765 -0.00575108 -9.19657e-23)
(0.880114 0.226709 -1.57193e-20)
(0.998263 -0.000104035 4.48419e-24)
(1.02609 -0.000629538 -3.44189e-21)
(1.04541 -0.0534894 -1.24057e-23)
(1.0002 -3.0034e-05 9.09229e-24)
(1.12899 0.112026 -7.27972e-21)
(1.00013 -0.000110259 -1.68386e-23)
(1.00001 -1.05803e-05 2.38422e-25)
(0.992844 0.139761 4.37542e-20)
(0.909379 0.0966809 -7.11583e-21)
(1.00705 -0.0108914 -9.00693e-23)
(0.998343 -0.00776333 -3.14051e-22)
(0.994788 -0.00553381 8.62348e-22)
(1.21382 0.160598 6.39774e-21)
(1.00007 -0.0111467 -1.74667e-22)
(1.00004 -3.19146e-06 -9.67345e-24)
(1.04413 0.0154058 9.47564e-22)
(1.04585 -0.0521601 5.51519e-22)
(1 -4.23209e-07 1.30942e-25)
(1.0114 -0.0151487 -1.16402e-24)
(0.99469 -0.00582653 -2.79634e-22)
(1.03713 -0.0036777 -7.0749e-21)
(1.00082 -0.00199646 -7.20424e-23)
(1.01069 -0.0839184 -1.66489e-21)
(0.96584 -0.0576168 1.71811e-21)
(0.989049 -0.00573509 3.08916e-22)
(0.999993 -1.70278e-06 2.40668e-25)
(0.996639 -0.000148346 1.45371e-22)
(1.00799 -0.0085677 5.87892e-22)
(0.999984 -5.82117e-05 2.40881e-24)
(1.10477 -0.0266013 3.84503e-21)
(0.972988 -0.000686489 -3.17788e-23)
(1.0153 -0.116099 -1.30525e-21)
(0.971878 -0.00980986 1.72017e-21)
(1.01126 -0.0149005 6.44321e-22)
(0.999273 -4.0877e-05 -3.58489e-23)
(1.00014 -0.061987 2.08041e-22)
(0.993758 -0.0169409 -5.60549e-22)
(0.999107 -0.00053084 -1.50968e-22)
(1.02793 -0.0130402 1.4234e-21)
(0.98954 -0.0338422 -1.29785e-22)
(1.10633 -0.0269435 -5.45113e-21)
(0.992879 -0.0169571 6.83823e-22)
(0.990782 -0.0148012 1.24992e-21)
(1.00589 -0.0128789 -2.55554e-22)
(1.22553 -0.0565419 7.52605e-22)
(0.921766 -0.0205979 -5.05971e-21)
(0.998673 -0.0532299 1.36509e-22)
(1.03184 -0.00353536 -1.68914e-22)
(0.921866 -0.0193907 1.12086e-21)
(0.997864 -0.00267274 1.81013e-22)
(1.00836 -0.0154505 1.18615e-21)
(1.00011 -0.00639151 -2.97962e-23)
(1.01363 -0.0103164 1.89011e-22)
(1.02203 -0.0566856 -4.21969e-22)
(0.980411 0.127035 -1.2224e-20)
(1.03983 0.0150709 4.2087e-21)
(1.01493 0.067257 2.50551e-20)
(0.999636 -0.000834106 -3.46805e-24)
(0.99617 -0.00310741 1.93672e-22)
(1.00007 0.0013843 -4.76234e-21)
(1.02875 -0.0229806 3.00034e-21)
(1.21557 -0.0546771 -4.55756e-22)
(0.997932 -0.00267304 5.56516e-23)
(1.00016 -0.0105866 1.22186e-22)
(0.988117 0.0704949 -1.82384e-20)
(0.977371 -0.0205192 3.06588e-21)
(1.11101 0.0203575 -1.26833e-20)
(0.998298 -0.102382 -1.59816e-21)
(0.921206 -0.0188934 -3.35686e-22)
(0.989775 -0.000268031 -8.30191e-22)
(0.974127 -0.016753 -2.24381e-21)
(1.00652 -0.0385188 -4.38554e-22)
(1.0305 0.0155904 5.62053e-21)
(1.0052 0.08903 1.47703e-20)
(1.01563 -0.0101407 5.52392e-22)
(0.999996 -1.8798e-05 -2.12066e-24)
(0.996297 -0.00266505 1.59365e-23)
(0.967249 -0.0188206 -1.19385e-21)
(0.999339 -0.00091922 -7.90628e-23)
(0.999951 -5.10297e-05 7.96713e-24)
(1.02893 -0.00702292 -8.61149e-22)
(1.01893 -0.0669111 3.29387e-21)
(0.921279 -0.0177185 2.80712e-21)
(1.01737 0.0666598 -6.5121e-21)
(0.897397 0.03857 -1.92659e-20)
(0.999992 -2.51037e-05 1.5353e-25)
(0.999957 -0.0290425 -1.13573e-21)
(0.977157 -0.0208061 -1.51651e-21)
(1.07553 -0.0250825 2.2849e-21)
(1.00627 -0.0125523 6.05558e-22)
(0.918315 -0.00390549 1.89734e-21)
(0.999863 -0.000229982 3.36096e-24)
(0.979079 -0.041143 -7.11148e-23)
(0.980539 -0.0195557 1.02149e-22)
(1.00001 -0.00820523 2.32556e-23)
(0.971884 -0.000886494 9.97853e-22)
(0.999998 -5.17304e-07 6.32196e-25)
(0.944823 0.1263 1.85733e-20)
(1.00522 -0.0190233 -1.06206e-22)
(0.972788 -0.0146529 -2.30256e-21)
(0.998687 -0.101032 -8.89079e-22)
(0.950273 0.0564345 1.02855e-20)
(1.01944 -0.00502798 -2.73922e-22)
(0.96937 -0.044558 3.07381e-22)
(1.20056 0.162278 -5.51583e-21)
(0.984221 -0.0325784 -1.29495e-21)
(1.04836 -0.0553649 -1.71028e-22)
(1.03019 0.0158291 8.50324e-21)
(1.00036 -3.70263e-05 1.23396e-23)
(1.00085 -0.00961471 -4.15867e-23)
(0.986327 -0.0354292 4.62337e-22)
(0.996513 -0.000231935 -3.23019e-22)
(1.19651 -0.0508489 1.09537e-22)
(1.01955 -0.0408732 2.96582e-23)
(1.01623 -0.117347 1.69392e-21)
(1.15816 -0.0793071 -8.05114e-22)
(0.998202 -9.05267e-05 -2.23101e-22)
(1.00082 -0.00231769 -6.87395e-24)
(1.04399 0.00189843 5.88139e-21)
(0.969757 -0.00233294 -2.04305e-21)
(0.989977 -0.033909 -4.10095e-23)
(0.937914 -0.0432014 -1.49514e-21)
(0.997901 0.033568 -9.92277e-21)
(0.998715 -0.00139123 -1.74569e-23)
(1.02566 0.00164342 -2.58385e-20)
(1.00005 -0.0027289 -4.27348e-24)
(0.87296 0.212383 -2.84578e-20)
(1.01389 -0.0101964 -1.14602e-21)
(1.15866 -0.0225728 -2.86901e-21)
(1.0174 -0.000957482 1.13343e-21)
(1.00023 -5.22361e-06 6.19287e-23)
(1.05256 -0.0865529 7.42583e-23)
(1.01399 -0.00984503 -2.7641e-21)
(0.918837 -0.0033159 -1.16387e-21)
(1.04039 0.015749 -5.9566e-21)
(1.22944 -0.102741 -7.5501e-22)
(0.994473 -0.0283634 1.9812e-22)
(0.996702 -0.00371457 5.38313e-22)
(1.16688 0.00390302 4.25123e-21)
(0.998272 -0.000241105 2.42125e-22)
(1.13887 -0.010966 -1.78857e-21)
(1.14387 -0.0339426 2.25297e-22)
(0.999957 -2.93657e-05 -1.23424e-25)
(1.02892 -0.0224715 -7.48326e-22)
(1.00021 -0.00625915 -4.80144e-23)
(1.02 -0.0413016 -1.00702e-23)
(0.998836 -0.00339064 -2.1865e-22)
(0.981082 -0.0157252 -5.09537e-22)
(0.967199 -0.0540557 1.77341e-21)
(0.999409 -0.0531006 9.04118e-23)
(0.998153 -0.0102643 3.56821e-22)
(0.979448 -0.0787831 -2.05956e-21)
(1.00068 -0.0624204 -4.85769e-22)
(0.998231 -7.89363e-05 -1.68201e-22)
(1.00003 -0.00154317 -1.12557e-24)
(0.967559 -0.0184707 6.55537e-22)
(1.00002 -0.000730119 -1.18312e-24)
(1.01091 -0.00763288 1.71862e-21)
(0.947262 0.124027 1.06539e-20)
(1.02714 0.000647153 -1.28553e-20)
(0.98063 -0.131047 -1.96502e-21)
(1.22595 -0.0877873 2.66037e-22)
(0.966593 -0.0538018 3.95601e-22)
(0.999997 -1.63343e-05 -1.56388e-24)
(1.19296 0.00726312 2.48785e-21)
(1.01732 0.0656267 -6.2737e-21)
(0.999896 -0.000450277 5.50401e-24)
(1.01698 -0.00978794 -1.57395e-21)
(0.998676 -0.00156996 -1.4685e-22)
(1.05108 0.00809943 3.50674e-21)
(1.00017 -0.00423319 1.6544e-23)
(1.14642 -0.0337141 5.42146e-22)
(0.920242 -0.0144149 -1.4978e-21)
(0.992935 -0.0486046 4.71221e-22)
(1.24165 -0.0284405 -1.4487e-23)
(0.994179 -0.00767937 -5.2841e-22)
(0.978943 -0.0511442 -2.90601e-22)
(1.09414 -0.00594641 1.57729e-21)
(1.02492 -0.0497794 3.74744e-23)
(0.972938 -0.0144205 1.56888e-21)
(1.19079 -0.163499 -4.10656e-21)
(1.00847 -0.0152686 -9.52965e-24)
(0.997332 -0.00179715 -1.72769e-22)
(1.12533 0.141915 1.35185e-20)
(1.16233 0.153593 9.09193e-21)
(0.986765 -0.0354786 -1.30188e-21)
(0.998598 -0.00446153 2.85352e-22)
(1.00256 -0.0114843 2.65504e-23)
(0.986609 0.0728255 -2.87705e-20)
(1.00079 -0.00234725 5.03299e-23)
(0.994943 -0.00532498 4.47995e-22)
(1.19202 -0.000740913 -6.32569e-22)
(1.07693 -0.0408761 4.8436e-22)
(0.999866 -0.000235266 -2.55441e-23)
(1.01539 -0.0103129 -4.3031e-22)
(0.746145 0.0872893 9.59219e-21)
(1.09918 0.00222037 -6.8165e-21)
(0.972659 -0.00571703 -2.49889e-21)
(1.00818 -0.00850857 -8.58481e-22)
(1.04707 0.00564981 4.31727e-21)
(0.919568 -0.0138434 2.91167e-21)
(1.19368 0.00890908 -3.88178e-21)
(0.997344 -0.00186807 1.22595e-22)
(0.999997 -1.66507e-05 2.91008e-24)
(0.999657 -0.00088426 5.9791e-23)
(0.998697 -0.00154683 2.29408e-22)
(0.788524 0.0260269 6.24616e-21)
(0.996923 -0.00435551 -3.86123e-22)
(1.11013 -0.0205708 2.43321e-21)
(0.999963 -2.96427e-05 6.90316e-25)
(0.999083 -0.00132967 -7.19902e-24)
(0.996145 -0.0030438 -2.40743e-22)
(0.988093 -0.0122669 -6.67405e-22)
(1.06916 -0.00189248 -1.2603e-20)
(1.23173 0.00777793 4.44803e-22)
(0.982579 -0.00921333 2.19343e-21)
(0.99194 -0.00950917 2.67861e-22)
(1.00165 -0.00303984 -3.16585e-23)
(0.998068 -0.0103938 -2.18026e-22)
(0.857449 0.223686 -4.90199e-22)
(0.969847 -0.0264397 3.98711e-21)
(0.998646 -0.00996065 9.54877e-23)
(1.12657 0.111543 3.78277e-21)
(1.02274 0.0249595 -7.633e-21)
(1.01383 -0.00960307 2.50275e-21)
(0.997427 -0.00291447 3.20611e-22)
(1.00601 -0.0387284 -5.76207e-23)
(1.00571 -0.0219192 8.78465e-24)
(1.03062 -0.044247 3.78267e-22)
(1 -1.80605e-06 2.20171e-27)
(0.999381 -0.00148525 1.70911e-22)
(1.03485 -0.0333587 -9.75062e-22)
(1.0923 0.0491366 1.01257e-20)
(0.97879 -0.0583159 5.86577e-22)
(1.02804 0.128952 7.17548e-21)
(0.780601 0.0520667 -7.19606e-21)
(1.12837 -0.0311285 -2.60137e-21)
(0.999999 -1.6323e-06 1.94723e-26)
(0.986423 -0.000345727 -1.32256e-21)
(0.985226 -0.0220189 8.16982e-22)
(1.00014 -0.00815358 8.15243e-23)
(0.999999 -1.73794e-06 -2.16914e-26)
(1.0937 -0.103207 -1.05749e-21)
(1.23801 0.0924769 -3.90621e-21)
(0.97015 -0.00229643 -2.02378e-21)
(0.999485 -2.8022e-05 -4.94731e-23)
(1.1402 -0.00350861 -2.87517e-21)
(1.00398 -0.00550839 6.6604e-23)
(1.00242 -0.0116694 -3.73576e-23)
(1.00012 -8.9938e-06 2.43361e-23)
(0.998774 -0.00150566 -1.30238e-22)
(1.03777 -0.0334361 -1.83919e-22)
(0.968929 -0.0442185 2.26611e-21)
(0.996223 -0.0285381 -4.05779e-22)
(0.995393 -0.0193024 -1.70504e-21)
(1.0352 -0.0339429 -1.12917e-21)
(1.0109 -0.00744812 -9.01604e-22)
(0.99992 -7.68042e-06 -1.53917e-23)
(1.19809 0.159186 1.13553e-20)
(0.934468 -0.0398431 3.28564e-22)
(1.00173 -0.00390991 -1.01644e-22)
(1.04016 -0.0745577 -3.83219e-22)
(1.04615 0.00790534 -1.56993e-20)
(1.0272 0.0505747 -1.90405e-20)
(0.981686 -0.0155134 7.6971e-22)
(1.01748 -0.0044265 1.43867e-21)
(0.980806 -0.0195119 1.0375e-22)
(0.99825 -0.0020028 -3.21113e-22)
(1.18762 -0.163755 2.54431e-21)
(1.00055 -0.00110034 6.95324e-23)
(1.00018 -0.00616036 9.29338e-23)
(0.981937 -0.0113147 2.39e-21)
(0.972018 -0.0205716 1.04328e-21)
(0.998206 -0.00215901 3.56318e-22)
(1.09578 0.217199 -6.80633e-21)
(1.02956 0.0611277 1.44424e-21)
(1.21031 -0.129398 1.00438e-21)
(1.0932 -0.0552426 -9.95235e-22)
(1.00001 -1.11264e-05 -4.84652e-25)
(0.995415 -0.0110278 1.69758e-22)
(1.07248 -0.0280986 9.00869e-22)
(0.993318 -0.000263808 2.03878e-22)
(0.99706 -0.0223989 -7.89609e-22)
(0.997283 -0.00177924 4.33309e-23)
(1.00173 -0.00302902 -9.43871e-23)
(0.996839 -0.00380439 -3.75555e-22)
(0.996556 -0.000955373 -1.19382e-22)
(0.99813 -0.0100846 -1.18611e-22)
(1.00027 -0.00603612 -4.39547e-23)
(1.08129 -0.153831 5.65687e-22)
(1.00002 -2.09127e-05 4.78359e-24)
(1.01057 -0.00702619 -1.52152e-22)
(0.999992 4.3927e-07 -5.54877e-26)
(0.92064 -0.0172113 -3.8424e-21)
(1.0002 -0.000195704 1.50083e-23)
(1.03288 0.161008 1.67609e-20)
(1.15917 0.152378 -4.77842e-21)
(1.04112 0.0373093 -6.77446e-21)
(1.09181 -0.0544459 6.61958e-22)
(1.03586 0.0429195 -6.77438e-22)
(1.02933 0.000506614 7.39598e-21)
(0.998394 -0.00350665 4.30566e-23)
(1.0016 -0.00157438 -1.16777e-22)
(0.999803 -0.000629151 3.87425e-25)
(0.995598 -0.00227357 2.71692e-22)
(0.973424 -0.0145374 9.28775e-22)
(0.994259 -0.00754753 -2.12361e-22)
(0.995231 -0.0110777 4.53359e-22)
(1.0326 -0.0433423 -1.44805e-22)
(1.0002 -0.000190205 -1.82297e-23)
(0.999866 -8.19926e-05 -4.64142e-24)
(1.00011 -0.000108849 -1.22641e-23)
(0.999257 -0.00232224 1.00205e-22)
(1.02631 -0.000732767 3.25641e-21)
(1.02934 -0.0428607 3.41094e-22)
(0.981693 -0.0111968 -2.54831e-21)
(1.00001 -0.000710328 2.932e-24)
(1.10293 -0.0970518 1.86366e-21)
(1.00079 -0.00223848 1.58859e-22)
(0.99988 -8.14347e-05 -1.86105e-23)
(1.02754 0.0495593 2.71493e-20)
(1.032 -0.00380891 5.92776e-22)
(1.00311 0.0579694 4.48681e-20)
(1.00003 -2.62035e-05 -4.41329e-24)
(1.00005 -0.000535935 0)
(1.00168 -0.00171595 1.75803e-22)
(0.990192 -0.0345566 6.2352e-22)
(0.995306 -0.00638872 -2.2566e-22)
(1.04659 -0.107155 -1.06389e-21)
(0.970023 -0.00101463 1.35571e-21)
(1.07582 0.0316119 1.27233e-20)
(0.992069 -0.00020147 1.80423e-21)
(1.09887 0.215363 -3.55801e-21)
(1.00082 -0.00220462 -1.15806e-22)
(1.00169 -0.0038526 1.19569e-22)
(1.00327 0.0755379 -1.17144e-20)
(1.12589 0.139361 -5.63843e-21)
(1.05798 -0.0867668 -2.00275e-21)
(1.00247 -0.00215911 3.17159e-23)
(0.922431 -0.0210787 5.53641e-21)
(0.991992 -0.000253625 -1.03444e-21)
(1.00003 -2.81333e-05 1.89206e-24)
(1.01058 -0.00723261 1.80659e-22)
(0.935573 -0.040986 -8.29698e-22)
(0.986019 -0.0349077 -1.06666e-22)
(0.955913 -0.0038002 1.04741e-21)
(1.03297 -0.0442473 2.92327e-23)
(1.09783 0.00165577 1.12345e-20)
(0.999991 1.29698e-06 -1.16794e-25)
(1.00253 -0.00211711 -6.42411e-23)
(1.02123 -0.00750565 1.98438e-21)
(1.04143 -0.019954 -2.65617e-21)
(1.02524 0.181503 -8.46939e-21)
(1 -6.66303e-07 -3.0483e-27)
(0.999963 -3.15775e-05 2.38166e-25)
(1.00166 -0.000152308 -3.08988e-22)
(0.986084 -0.0344365 -1.27585e-21)
(0.999411 -0.000908521 6.95441e-23)
(0.999893 -0.000487392 2.28233e-23)
(1.11079 -0.0273255 -2.7656e-21)
(0.855517 0.0252489 -2.57806e-20)
(1.14738 -0.0317035 -2.67465e-22)
(1.00529 0.0614075 -1.13797e-20)
(0.980732 -0.0035505 5.76224e-22)
(0.996815 0.030881 6.38869e-21)
(1.02747 0.0104001 8.76404e-21)
(0.99689 -0.00384825 1.4949e-22)
(1.09142 -0.10409 1.52698e-21)
(0.934392 -0.0244527 4.78807e-21)
(0.99637 -0.0196632 8.0035e-22)
(1.0008 -0.00948257 3.13993e-23)
(0.996988 -0.00703797 2.81055e-22)
(0.998635 -0.000995978 7.08547e-23)
(0.998185 0.0745123 -5.1323e-20)
(0.984743 -0.0323353 -1.90365e-21)
(1.05134 0.152125 8.35704e-21)
(1.02564 -0.0502221 1.7264e-22)
(1.04126 0.0364055 3.76914e-21)
(0.98158 -0.00936422 9.64968e-22)
(0.988334 -0.0123338 -1.73568e-21)
(1.19894 -0.0508932 2.56503e-23)
(1.02806 0.0159737 9.17082e-21)
(0.997497 -0.0029278 -3.61974e-22)
(1.00004 -0.00264814 -3.35891e-23)
(1 -0.00275106 3.66185e-23)
(0.999999 -6.43259e-07 -4.0008e-24)
(1.02753 -0.0433558 -3.67706e-22)
(0.970455 -0.0650215 -2.25017e-21)
(1.00021 -0.000460896 -2.08397e-23)
(1.06676 -0.029888 -2.10623e-22)
(0.99971 -0.000735326 9.56437e-24)
(0.999707 -0.000751092 -6.41205e-23)
(1.00194 -0.00024861 -2.45578e-23)
(1.02656 -0.0495729 -8.34089e-23)
(1.00062 -5.50651e-05 -5.11787e-23)
(1.00127 -0.00765885 -3.7424e-25)
(0.977935 -0.00412308 1.25696e-21)
(0.996277 -0.00552624 1.88254e-22)
(0.995607 -0.00234792 -9.42837e-22)
(0.987947 0.0895741 -6.90104e-20)
(1.11719 -0.0626814 7.90732e-22)
(1.0095 -0.0137205 7.76542e-22)
(0.990724 -0.015085 9.45285e-22)
(0.973272 -0.0401791 -2.99114e-22)
(1.00025 -0.00594468 2.26945e-23)
(1.00001 -2.45949e-05 -1.18074e-24)
(1 -2.38054e-06 1.91496e-26)
(0.96088 -0.00790102 2.05612e-22)
(0.934708 -0.0238923 -4.88544e-21)
(0.972754 -0.0279543 -7.06879e-23)
(1.00001 -2.3361e-05 -3.35781e-24)
(0.986007 -0.0060861 1.45945e-21)
(1.06829 -0.00140119 1.16776e-20)
(1.24643 0.0205733 -3.32222e-21)
(1.1279 -0.0329419 -1.7884e-21)
(0.999977 1.51867e-06 -3.21954e-24)
(0.973588 -0.0143116 3.08349e-21)
(1.00594 -0.0367435 7.27598e-22)
(1.00008 -1.1607e-05 -1.28765e-24)
(0.999934 -0.000240895 5.7041e-24)
(0.970195 -0.000755122 -2.4911e-22)
(1.00162 -0.000148312 -1.01716e-22)
(1.0006 -0.00498331 -1.00659e-23)
(1.02643 -0.0983687 -5.16424e-22)
(1.00037 -3.80997e-05 -3.71305e-23)
(0.953675 -0.0534342 3.29979e-21)
(0.977808 -0.00430538 -1.27184e-21)
(0.980804 -0.00370154 1.02883e-21)
(0.982828 -0.00933888 3.5803e-22)
(1.00144 -0.00769082 -3.74407e-23)
(0.963703 -0.0293123 3.64569e-21)
(1.00024 -0.000429961 2.7696e-23)
(1.00001 -9.70454e-06 -1.97827e-25)
(1.00472 -0.00478639 2.23555e-22)
(1.10272 0.15267 -6.07045e-21)
(0.95306 0.0532982 5.11002e-20)
(1.01431 0.0454461 9.63628e-21)
(1.02901 -0.0434418 -9.91778e-23)
(0.990034 -0.0128425 -3.43456e-22)
(1.0128 0.054078 5.15299e-20)
(1.0131 -0.00868225 -3.46106e-21)
(1.00021 -0.000386513 -1.85632e-23)
(1.02347 -0.00121375 -2.54434e-21)
(0.986766 -0.0120329 3.97818e-22)
(1.14045 -0.0119325 -3.22409e-21)
(0.997022 -0.00693306 3.55033e-22)
(1.0285 -0.000640052 -8.05884e-21)
(1.00092 -0.000102011 9.8417e-23)
(1.01469 0.0444549 6.53314e-21)
(1.00048 -4.72737e-05 -6.01321e-23)
(0.995242 -0.00687203 1.26772e-22)
(0.981817 -0.00943977 -2.64614e-22)
(1.01936 0.0638436 6.53257e-21)
(1.00023 -9.43912e-06 -5.49173e-23)
(0.98695 -0.0361896 1.72909e-21)
(1.0462 -0.105661 1.98649e-21)
(1.07758 0.0316007 -1.00441e-20)
(0.996729 -0.0430125 -1.07691e-21)
(0.995158 -0.00632711 3.26005e-22)
(1.15548 -0.0676573 1.2507e-22)
(1.00004 -1.78694e-06 -3.84217e-24)
(1.20985 -0.126921 -4.14685e-22)
(0.996102 -0.00564156 2.01272e-22)
(1.01727 -0.00989151 -2.47843e-21)
(0.990595 -0.034603 5.72239e-22)
(1.00254 -0.000200498 -3.83946e-22)
(1.23482 0.0905338 -1.03207e-20)
(1.02944 0.0622874 -1.47043e-20)
(0.946348 0.0987508 2.3714e-20)
(1.03501 0.0425553 2.01441e-21)
(1.09632 0.0795124 7.08016e-21)
(1.14278 -0.0362794 -1.64628e-21)
(1.21777 0.160448 -1.28635e-22)
(1.0133 -0.00860074 3.84377e-21)
(1.06081 0.0873193 8.01824e-21)
(1.00306 0.0541015 -3.48122e-20)
(1.00052 -0.00503154 -5.61826e-24)
(0.998744 -0.00322311 -1.15737e-22)
(0.960613 0.047886 -5.51676e-20)
(1.00001 -1.56474e-05 -8.31832e-25)
(1.22905 -0.100167 9.31234e-22)
(1.24731 0.0286748 -1.3442e-21)
(0.983053 -0.0156956 1.60891e-21)
(1.00097 -0.00204593 -1.14197e-23)
(1.04089 -0.0195318 -9.05886e-22)
(0.998687 -0.00149518 -1.18443e-22)
(1.00164 -0.00159915 -3.68373e-24)
(0.991924 0.117277 -1.22547e-20)
(0.886479 0.103985 2.08583e-20)
(0.999891 -6.73062e-06 -9.86641e-25)
(1.00025 -0.000430239 -2.77189e-23)
(1.07831 -0.036926 -6.35069e-22)
(1.00012 -0.00251953 3.21248e-25)
(1.24325 -0.0279435 5.96831e-23)
(1.12259 0.137267 -9.36107e-21)
(1.05811 0.0311269 2.05383e-21)
(0.999937 -0.000242251 -1.70331e-23)
(0.993762 -0.0600577 4.52698e-22)
(0.995058 -0.0502611 2.45299e-21)
(1.00052 -4.63851e-05 3.91007e-23)
(1.01618 -0.0318409 2.87917e-22)
(1.044 0.00131059 3.12428e-21)
(0.895524 0.0999816 -1.33587e-20)
(1.00008 -0.00261835 9.0614e-24)
(1 -8.79636e-07 5.61448e-27)
(1.06066 0.0858385 5.92353e-21)
(1.01578 -0.0315101 4.68848e-22)
(0.999888 -7.7617e-06 -2.22571e-23)
(1.03297 -0.0144734 -6.01956e-22)
(1.00653 -0.0116604 -1.34652e-22)
(0.996911 -0.00416929 -3.35657e-23)
(0.997829 -7.67422e-05 9.81162e-23)
(1.23425 -0.0803091 5.05257e-22)
(0.984327 -0.00562961 5.90617e-22)
(0.998706 -0.00146937 8.04501e-24)
(0.972383 -0.0205963 2.28001e-23)
(1.00026 -0.000415889 4.06015e-23)
(0.999889 -8.66996e-05 1.29503e-23)
(0.999908 -0.0115779 2.65747e-22)
(1.15487 -0.0131711 -4.53759e-22)
(0.999795 -6.69395e-05 1.03067e-23)
(0.977967 -0.00460515 -1.52394e-21)
(1.0007 -0.000971806 1.02396e-23)
(0.997065 -0.0424257 -4.66083e-22)
(1.0192 0.0648312 -8.55082e-21)
(0.999887 -0.000454921 -1.29154e-23)
(0.75389 0.0415706 -1.58769e-20)
(1.07292 -0.0657739 -2.48455e-23)
(0.994243 0.038905 7.13098e-21)
(1.15233 -0.0138545 1.35124e-21)
(0.999493 -0.000291784 2.19654e-23)
(0.999972 -7.28648e-05 -2.67479e-24)
(0.999588 -0.00032109 -4.45435e-23)
(0.995375 -0.00633863 1.57046e-23)
(1.02354 0.00237228 0)
(0.999503 -0.00959918 1.88925e-22)
(0.986292 -0.000435014 3.14838e-22)
(0.994075 0.137567 -4.17793e-20)
(0.936394 -0.0268729 -4.26856e-21)
(0.935803 -0.0266254 3.68504e-21)
(1.03804 -0.0324757 8.35192e-22)
(1.06587 -0.0333435 3.2841e-21)
(0.98675 0.100751 4.27959e-20)
(0.999511 -0.00034201 2.20189e-23)
(0.987362 -0.0362599 3.57261e-22)
(0.982716 -0.0156625 -1.53893e-21)
(1.00018 -0.00019346 2.08016e-23)
(1.02086 -0.041201 -5.86907e-24)
(1.00071 -0.000933986 -5.01238e-24)
(1.02812 -0.0437081 -2.45686e-22)
(0.978276 -0.073437 4.48645e-22)
(0.835257 0.13473 -2.67484e-20)
(0.951529 -0.0529374 -3.15177e-21)
(0.997967 -0.00238917 5.26332e-23)
(0.9812 -0.0150654 -2.73256e-21)
(1.00583 -0.021546 3.14825e-24)
(1.10395 -0.0123571 -6.13461e-21)
(1.02961 0.000334013 -1.25752e-21)
(1.01034 -0.0403693 8.83717e-23)
(1.00001 5.09278e-07 -5.08174e-25)
(1.00537 0.0608562 1.42671e-20)
(0.987326 -0.00674739 -1.61044e-22)
(0.919762 -0.0125822 2.69699e-21)
(0.999073 -0.0090589 1.34385e-22)
(1.03228 -0.0333792 -3.40246e-21)
(0.981777 -0.0475045 2.77852e-21)
(1.00478 -0.00469268 9.80903e-23)
(1.22573 -0.0115022 -1.68805e-21)
(0.999168 -3.37842e-05 1.42362e-22)
(1.02229 0.115489 2.26719e-20)
(0.999684 -0.0169677 -2.73643e-22)
(1.04626 0.00281005 -1.56418e-21)
(0.957322 -0.00779998 2.42702e-21)
(1.0199 -0.00330515 4.0124e-22)
(0.999995 -1.32363e-05 -8.99481e-25)
(0.979442 -0.04084 -1.7231e-22)
(0.977849 -0.00477792 1.43811e-21)
(0.985622 -0.0335314 1.74391e-21)
(1.03292 -0.0149992 -4.37564e-22)
(1.02519 -0.0995078 -5.36078e-22)
(1.00027 -0.000415996 -4.63979e-23)
(1.04047 -0.17679 -1.1117e-21)
(0.998607 -0.00102159 -2.9058e-22)
(0.999981 -6.64524e-05 -9.11744e-25)
(0.999526 -0.00943874 -2.08762e-22)
(1.00023 -0.00044506 1.10245e-23)
(0.891298 0.0989983 1.81417e-20)
(1.00019 -0.000190331 -1.85448e-23)
(1.03316 0.159271 -5.14581e-21)
(0.980832 -0.015945 -4.31232e-22)
(1.01918 -0.00268295 -7.54413e-22)
(1.00278 -0.00217038 -3.46455e-22)
(1.08322 0.0187147 1.32741e-20)
(1.00386 -0.00557409 -4.10026e-22)
(1.02191 0.0255378 -6.56367e-21)
(0.999999 -1.88767e-06 -1.02828e-26)
(1.02394 -0.0564366 -4.4811e-22)
(0.99883 -0.00466754 1.06708e-22)
(1.00166 -0.00373869 1.66442e-23)
(0.975185 -0.0167763 -6.6072e-22)
(1.00001 -1.2138e-05 2.02252e-24)
(1.19338 -0.00531799 -1.65554e-21)
(0.927481 0.22126 6.14227e-21)
(1.24587 0.0296169 3.05726e-21)
(1.00021 -0.000377488 3.61168e-23)
(1.13501 -0.0928597 -6.19637e-22)
(1.02386 0.00265859 -2.10816e-21)
(0.983248 0.127205 3.0058e-20)
(1.0001 -0.00426824 -9.08118e-24)
(0.999766 -2.81957e-06 -8.26784e-24)
(1.07666 -0.0364117 -8.00755e-22)
(1.00015 -0.00013803 -1.23714e-23)
(0.947956 0.0465241 -1.14348e-20)
(1.00626 -0.0364231 4.68516e-23)
(1.24448 0.0964591 -9.01868e-23)
(1.09069 0.0490473 -1.34506e-20)
(1.00014 -0.00012592 9.83879e-24)
(0.980071 -0.129418 -1.82808e-21)
(1.01108 0.0347601 -1.44469e-20)
(0.999889 -8.25514e-05 6.50135e-25)
(1.07672 -0.0254387 5.94988e-21)
(0.995723 0.0152289 3.41419e-20)
(0.997802 -9.73557e-05 7.98791e-23)
(1.00239 -0.0120958 5.81367e-23)
(1.00034 -5.09743e-05 2.7693e-23)
(1.0062 -0.012801 -3.45286e-22)
(0.981892 -0.00974354 1.20869e-22)
(0.993895 -0.000105021 1.26523e-22)
(1.06235 0.153169 -1.12354e-20)
(0.996322 -0.0192655 5.38715e-22)
(0.825842 0.193588 4.73996e-20)
(0.707289 0.0191509 4.37188e-20)
(0.997254 -9.19584e-05 -2.3577e-22)
(1.00004 -0.000411774 -6.15769e-25)
(1.05045 0.149793 -4.73478e-21)
(0.996854 -0.0039583 1.34402e-22)
(0.98399 -0.00384532 3.19716e-22)
(1.00024 -0.00044519 -6.26284e-24)
(1.06075 0.0350585 4.79073e-22)
(0.95768 -0.00779769 -3.46771e-21)
(0.853425 0.10472 3.32215e-20)
(0.998887 -0.00414745 -1.52851e-22)
(0.99996 -0.00117802 3.6437e-24)
(0.987362 -0.00691332 5.51927e-22)
(1.24437 0.0103435 -2.12392e-21)
(0.994415 -0.0600966 1.05296e-22)
(1.11444 -0.0240388 -9.07031e-22)
(1.04819 -0.0321849 -2.06316e-21)
(1.02905 0.0102949 -7.31586e-21)
(0.999823 -0.000123632 -7.13822e-24)
(1.20304 -0.0338676 3.40391e-22)
(1.00001 -2.20889e-05 -2.11998e-24)
(1.00151 -0.00130929 2.2035e-22)
(0.999991 7.94726e-07 2.47528e-25)
(1.20566 -0.125991 -2.36445e-21)
(1.05985 -0.087035 1.63562e-21)
(1.02639 0.0483682 1.21072e-21)
(1 1.92786e-07 4.02605e-25)
(0.94777 0.095612 -6.31953e-20)
(0.999613 -0.000127093 2.55854e-23)
(1.02126 -0.0407918 8.20672e-24)
(0.999406 -0.000331521 7.47278e-23)
(0.934643 -0.040677 1.64449e-22)
(0.990933 -0.0153235 -1.48692e-21)
(1.10024 0.0138771 6.07569e-21)
(0.999895 -9.38262e-06 2.95911e-23)
(1.01896 -0.0657351 -1.05166e-21)
(1.01692 -0.031602 8.31343e-23)
(0.990012 -0.0138473 -1.28597e-21)
(0.999979 -7.24307e-05 4.99632e-24)
(0.999936 -0.00116825 7.9814e-24)
(0.999809 -1.1213e-05 3.5773e-24)
(0.974832 -0.0485125 -1.97269e-21)
(1.00161 -0.00311864 9.23357e-23)
(0.998896 -0.000646147 -6.93039e-24)
(0.969735 -0.000243417 2.05964e-21)
(1.00008 -0.000208414 -1.08561e-25)
(1.00028 -0.000403586 3.77971e-23)
(1.00553 -0.0190097 7.95085e-23)
(0.9995 -0.000293745 1.29635e-23)
(1.01369 0.053649 -2.2774e-20)
(1.0552 -0.00529219 9.85526e-21)
(1.24371 -0.0090309 -8.83779e-23)
(0.975664 -0.000731457 -2.66443e-22)
(1.01481 -0.0820935 1.51642e-21)
(0.999993 -1.42371e-06 -2.50516e-25)
(1.15811 -0.0679225 -1.80923e-22)
(0.977432 -0.0733194 -1.82174e-21)
(1.00032 -5.05177e-05 4.12408e-23)
(0.973072 -0.0284274 -8.97163e-22)
(0.99871 -0.00433263 -1.17365e-22)
(0.966509 -0.0202971 1.06216e-21)
(1.15293 -0.131158 -7.49552e-22)
(1.00047 -4.71111e-05 -4.46054e-23)
(1.02723 -0.0499216 2.11483e-22)
(0.999981 -6.8516e-05 3.86689e-24)
(0.995104 -0.00595636 -2.1048e-22)
(0.999634 -0.000130964 2.38241e-24)
(1.05565 0.0772678 -1.07576e-21)
(0.992541 -0.00183812 -6.12795e-22)
(1.00013 -0.00024821 -4.17893e-25)
(0.999852 -8.40783e-05 1.12012e-23)
(1.02282 -0.0105731 2.45082e-21)
(0.960589 -0.0409858 3.11003e-22)
(0.9969 -0.00400011 -2.14678e-22)
(0.999988 -0.00122162 1.07402e-23)
(1.06141 0.155541 -1.36753e-21)
(1.00567 0.0881498 9.12481e-21)
(1.00171 -0.00369833 5.37638e-23)
(1.21122 0.0735608 -1.5717e-22)
(1.11856 -0.107152 2.09546e-21)
(0.938107 -0.0439475 1.37068e-21)
(1.00005 -0.000406026 2.40858e-24)
(0.999999 -8.04302e-07 9.01366e-25)
(1.10279 0.149834 7.77657e-21)
(0.967006 -0.0173075 3.26522e-22)
(1.00009 -0.000207791 -4.66879e-24)
(1.19437 0.0355535 4.58699e-21)
(0.999109 -0.000511295 9.14688e-23)
(0.999997 -2.07293e-06 1.87165e-24)
(1.07805 -0.0059402 9.95605e-22)
(0.987678 -0.0932376 -6.48804e-22)
(0.952203 -0.052763 4.19746e-21)
(0.931661 -0.0398834 5.97362e-22)
(0.989226 -0.0322789 -1.26483e-21)
(0.993568 -0.000220076 2.19239e-22)
(0.984163 -0.0040066 -2.55189e-21)
(1.00092 -0.00925414 2.64005e-23)
(1.07785 0.0541546 -6.65568e-21)
(0.999793 -0.000636846 -2.47061e-23)
(0.990889 -0.0490421 5.06182e-22)
(1.08614 -0.0107535 7.12504e-22)
(0.999875 -0.000601526 -1.32469e-23)