/*--------------------------------*- C++ -*----------------------------------*\
  =========                 |
  \\      /  F ield         | OpenFOAM: The Open Source CFD Toolbox
   \\    /   O peration     | Website:  https://openfoam.org
    \\  /    A nd           | Version:  7
     \\/     M anipulation  |
\*---------------------------------------------------------------------------*/
FoamFile
{
    version     2.0;
    format      ascii;
    class       volVectorField;
    location    "27";
    object      U;
}
// * * * * * * * * * * * * * * * * * * * * * * * * * * * * * * * * * * * * * //

dimensions      [0 1 -1 0 0 0 0];

internalField   nonuniform List<vector> 
7807
(
(1.08023 0.139802 6.36905e-21)
(1.06167 -0.0430334 1.21015e-21)
(0.995136 0.114565 -1.35916e-20)
(1.03843 0.0727112 1.89682e-20)
(0.999094 -0.00111598 -3.65479e-23)
(0.999956 -1.03585e-05 -4.54342e-24)
(0.99004 0.0951808 -2.70505e-20)
(0.994117 -0.00214303 -7.27532e-24)
(0.999868 -0.000205748 -7.33434e-24)
(1.02578 0.00129006 -8.90093e-22)
(0.999959 -1.23858e-05 5.01306e-24)
(1.00246 -0.00139243 -1.4281e-22)
(0.990959 -0.0027354 3.6408e-22)
(1.02167 -0.00192133 -5.70752e-21)
(1.02499 0.00167685 3.767e-21)
(0.990563 -0.0174445 -7.30253e-22)
(1.0829 0.145944 -1.34105e-20)
(0.987786 -0.00353473 -1.26677e-22)
(1.00277 -0.010676 -4.43743e-23)
(0.986488 -0.115338 -6.20022e-22)
(1.03824 -0.00402232 -1.95699e-21)
(1.00163 -0.000833127 2.67312e-22)
(1.01993 -0.00353396 4.92322e-22)
(1.01144 0.032855 -9.81803e-21)
(0.983644 -0.00447269 -5.75981e-22)
(1.07546 0.138207 -6.3988e-21)
(0.999138 -0.0010599 -2.58997e-23)
(1.02563 -0.00188462 2.25574e-21)
(1.00539 0.0160575 -1.25576e-21)
(1.00436 -0.0113216 3.6293e-23)
(0.985116 -0.018627 -1.30878e-21)
(0.864935 0.0418486 4.09489e-21)
(1.01971 -0.00428876 3.03083e-21)
(0.999479 -0.000445113 4.61328e-23)
(0.999886 -7.28286e-06 8.8267e-26)
(1.0257 0.000539709 1.31781e-21)
(1.00501 -0.0123906 4.46443e-23)
(0.994783 0.0925345 -4.32053e-21)
(0.996 -0.0090757 6.0038e-22)
(0.999635 -6.55136e-05 4.45822e-23)
(0.996468 -0.00933084 -6.80772e-23)
(0.990679 -0.0163467 -2.69076e-22)
(1.0196 -0.122788 2.79846e-21)
(1.16518 -0.0388066 3.21579e-22)
(0.999782 -1.35044e-05 1.46184e-23)
(0.999913 -1.75926e-05 -4.33266e-24)
(1.00155 -0.000677915 -1.63253e-22)
(0.995763 -0.00829873 -3.55768e-22)
(0.999927 -3.32397e-05 -3.54738e-24)
(0.991713 -0.115526 8.99615e-22)
(1.00359 -0.00121808 1.5514e-22)
(1.02539 -0.00100468 -2.34283e-21)
(0.978528 -0.00541779 -1.94033e-21)
(1.01397 -0.0340773 7.74334e-23)
(1.0262 -0.000244102 -7.81333e-22)
(0.994852 -0.00294731 -6.69314e-23)
(1.00264 -0.00992911 9.61292e-23)
(0.994075 -0.00185546 4.97612e-22)
(0.974151 -0.0228986 -2.32742e-21)
(0.999459 -0.000396111 -5.89778e-23)
(1.00005 -2.59721e-05 -4.95165e-24)
(1.00469 -0.00131492 1.73544e-22)
(1.02191 -0.0012219 -1.3453e-21)
(1.00266 -0.00121052 1.44552e-22)
(0.998953 -0.000215894 8.25547e-23)
(0.985832 -0.0193122 2.26295e-22)
(0.999896 -0.000205646 5.75892e-24)
(1.00002 -2.81606e-06 2.7145e-25)
(1.15671 0.0794208 2.81713e-21)
(0.99596 -0.00785999 -1.08096e-22)
(0.999919 -2.16356e-05 3.8464e-24)
(0.9685 -0.0693749 -4.43314e-21)
(0.984369 -0.00495575 2.81018e-22)
(0.969997 -0.00685326 3.82022e-22)
(0.988342 -0.00389767 3.97109e-22)
(0.959546 -0.033711 -5.0691e-22)
(0.999139 0.115994 2.18516e-20)
(1.03636 -0.00402195 2.48619e-21)
(1.09145 0.00369393 -4.57015e-21)
(0.947973 -0.0579899 -5.51425e-21)
(0.991396 -0.00302245 -5.58863e-22)
(0.999512 0.0590058 2.68565e-20)
(1.04309 0.0075785 5.81019e-21)
(0.9695 -0.0121427 1.75749e-21)
(0.998517 -0.00282228 -5.92539e-23)
(0.997535 -0.000360067 6.05723e-23)
(0.993723 -0.0028278 6.85147e-22)
(0.979396 -0.0060496 1.24828e-21)
(0.999305 -0.00131512 3.9266e-23)
(0.995069 -0.000760523 2.1407e-22)
(1.00566 0.0182313 9.30408e-21)
(1.19686 -0.0188242 -4.9714e-22)
(0.999854 -6.0284e-05 -8.94073e-24)
(1.00214 -0.00842928 4.01315e-23)
(0.996105 -0.00116352 1.94458e-22)
(0.969586 -0.00381348 -3.0584e-21)
(0.971374 -0.0687327 3.20679e-22)
(1.01586 -0.0326848 7.97535e-23)
(0.99836 -0.00272307 1.94543e-23)
(0.998751 -0.000215107 2.73836e-23)
(0.940651 -0.0209184 1.31276e-21)
(1.09199 0.0090756 3.77804e-21)
(0.996327 -0.00132237 -4.84731e-22)
(0.999972 -1.40817e-06 -3.90583e-25)
(1.19903 -0.00613206 -4.50634e-22)
(1.03193 0.0331167 -8.87999e-21)
(0.932281 0.0298431 4.66035e-21)
(0.9945 -0.00278683 -2.7865e-22)
(0.999991 -2.73711e-06 1.05395e-25)
(1.02814 -0.0146469 -1.0404e-21)
(1.04173 0.0690943 -2.20321e-20)
(1.03527 -0.0882888 -3.20009e-21)
(0.999988 -3.24555e-06 -1.5914e-25)
(1.02998 -0.01505 -2.27301e-22)
(1.02847 0.0315878 9.33902e-21)
(1.00047 -0.000636763 -1.22249e-23)
(1.08925 -0.0990085 -1.42902e-22)
(1.03226 0.01905 -2.14425e-21)
(0.982305 -0.0538988 1.89858e-21)
(0.969645 -0.00833529 -3.9967e-22)
(0.936316 -0.0137463 -3.16423e-21)
(1.00108 0.0302639 -1.74853e-20)
(1.02689 -0.120256 -3.85218e-21)
(1.01085 -0.00872653 8.762e-23)
(0.938623 -0.015691 1.24762e-21)
(0.998984 -0.00153023 8.72588e-23)
(0.986388 -0.0140732 4.39047e-22)
(1.00329 -0.009446 -6.57856e-23)
(0.998895 -0.000159512 -1.84141e-22)
(0.985168 -0.0171635 2.3052e-23)
(1.23737 -0.0320593 -5.04721e-22)
(1.08557 0.00103659 7.77713e-22)
(0.999353 -0.000606306 4.9976e-24)
(0.999187 -0.00134703 -7.65417e-23)
(0.967976 -0.0111324 5.23092e-22)
(1.03917 0.0620955 8.12555e-21)
(0.996158 0.0256539 3.13327e-20)
(0.999974 -2.74517e-06 -4.63598e-25)
(1.0081 -0.00346631 7.2916e-23)
(0.91197 -0.0174781 -3.9688e-21)
(0.971951 -0.00494125 -1.55955e-21)
(0.989763 -0.0744451 -2.83419e-21)
(0.960252 -0.0362667 6.8735e-22)
(0.971742 -0.00615714 -3.4013e-23)
(0.925213 0.023354 1.82471e-20)
(1.01681 -0.0526491 -9.98228e-23)
(1.01169 0.0197931 -4.74168e-21)
(0.977042 -0.0272326 -1.21273e-21)
(0.957609 -0.006697 4.31254e-22)
(1.00084 0.0460779 -8.68836e-21)
(1.0262 0.00104859 3.32219e-21)
(1.1833 -0.0232255 2.80172e-22)
(0.998415 -0.00224977 -2.04755e-22)
(1.16236 0.0713639 4.20491e-22)
(1.04095 0.00706646 -6.03895e-21)
(1.00682 0.0957295 -2.17746e-20)
(0.953283 -0.0398419 2.11364e-21)
(0.990952 -0.00210929 1.23804e-22)
(0.942504 0.0786227 4.05921e-20)
(0.999933 -2.8259e-05 -3.374e-24)
(1.00164 -0.00891413 -2.34898e-23)
(1.01161 0.0361751 7.07691e-21)
(0.999976 -2.18786e-05 2.3867e-24)
(0.998145 -0.00574599 -2.85357e-22)
(0.995593 -0.00112749 -9.30694e-23)
(1.00355 0.0384554 -2.31475e-21)
(1.00177 0.0276997 8.60686e-21)
(0.934076 0.0863604 1.34517e-20)
(0.997825 -0.00556694 -1.77001e-22)
(0.996601 -0.000426633 -1.05967e-22)
(1.00002 -3.49873e-06 -2.42685e-25)
(0.932197 -0.00839553 -5.43358e-21)
(1.00045 -0.000567555 1.68915e-23)
(1.06346 -0.0387314 -1.42101e-21)
(1.00843 -0.0037531 4.87754e-22)
(0.95868 -0.00792565 8.91026e-22)
(1.18808 0.00383621 3.32649e-23)
(1.11022 0.0791501 2.33594e-22)
(0.999856 -7.41053e-05 4.90185e-24)
(0.999458 -0.000697634 -5.30801e-23)
(1.03985 0.0766301 -3.33578e-21)
(0.999933 -2.00448e-05 -1.62263e-24)
(0.999878 -1.39635e-05 2.35089e-24)
(0.990252 0.100919 -2.23243e-20)
(1.06437 -0.046682 2.30448e-22)
(1.01776 -0.0757055 -1.77676e-21)
(0.984549 -0.0520731 -2.69324e-21)
(0.972806 -0.00885739 1.14719e-21)
(1.01341 -0.0544693 1.78151e-22)
(0.914188 -0.0147594 2.09029e-21)
(0.999974 -1.99474e-05 -8.28666e-25)
(0.971851 -0.0642803 -1.06718e-21)
(1.11282 0.0867778 -6.19265e-21)
(0.996311 -0.00161112 6.96517e-23)
(1.00008 -7.52369e-06 -3.85885e-24)
(1.08059 0.082911 6.50041e-22)
(0.998646 -0.000437674 1.944e-22)
(0.986128 -0.0164764 7.01878e-22)
(1.00989 -0.0517357 5.84592e-22)
(1.00002 -2.42806e-06 -1.06194e-25)
(1.00099 -0.00219505 -6.97896e-23)
(1.03536 0.0614747 1.00719e-20)
(1.09916 0.0932303 -8.1935e-21)
(1.00232 0.0851602 -2.92476e-21)
(1.08375 -0.0920802 1.35647e-21)
(1.03922 -0.0836748 7.44599e-22)
(1.14599 -0.126601 -5.30138e-22)
(1.02598 -0.00211428 6.69043e-21)
(1.03262 0.0577301 -3.28402e-21)
(0.999767 -2.46683e-05 -1.70587e-23)
(1.00004 -2.3058e-05 1.27764e-24)
(0.949405 0.0122665 -1.79884e-20)
(0.992029 -0.0156107 -2.5343e-22)
(0.999327 -0.000540193 -4.94102e-23)
(0.974596 -0.0630502 2.18766e-21)
(0.985736 -0.0148679 -5.13564e-22)
(1.01665 0.0889379 -2.43706e-20)
(1.01289 0.0863461 -5.16313e-21)
(0.986623 -0.0765945 7.82531e-22)
(0.891876 0.0581644 -1.54962e-20)
(0.998745 -0.000495418 -1.43112e-22)
(0.987832 -0.00305238 4.53633e-22)
(0.938178 -0.0191298 1.72431e-21)
(1.03615 0.000796341 -1.4053e-21)
(1.02877 -0.153047 -3.80869e-22)
(1.10227 0.136671 -1.33821e-20)
(0.942738 0.0691973 -3.47595e-20)
(1.00007 -0.000121145 4.21954e-24)
(1.01078 -0.00803531 2.41361e-22)
(1.03001 0.0216865 1.16003e-20)
(0.995865 -0.00682235 -4.54403e-22)
(1.03513 0.0194523 -1.46753e-21)
(0.999427 -0.00143012 -1.2981e-23)
(0.909881 0.0972806 2.72678e-20)
(1.00735 0.0889522 4.78447e-21)
(0.993716 -0.00244158 4.35135e-22)
(1.0042 -0.00947305 -1.06961e-23)
(0.999658 -7.48319e-05 -8.29336e-23)
(1.13653 0.108927 3.11962e-21)
(0.999895 -1.19117e-05 7.01397e-24)
(0.994403 -0.0125926 2.15507e-22)
(0.92478 -0.0383981 2.38419e-21)
(0.999919 -2.92981e-05 -1.59549e-24)
(0.998643 -0.00329283 -4.96489e-23)
(0.999552 -0.00138825 2.32484e-23)
(1.0728 0.0513803 8.38908e-21)
(0.999977 -2.82943e-05 2.93552e-24)
(0.994857 -0.000585392 2.5617e-25)
(0.950883 -0.0574278 6.3924e-21)
(0.866406 0.0313115 -9.04027e-21)
(1.08484 -0.00418764 -1.04954e-21)
(0.922438 0.0659431 2.09196e-20)
(0.999949 -9.11756e-06 -4.12532e-24)
(1.0071 -0.0527972 -4.24017e-23)
(0.999795 -0.00035481 -1.94595e-23)
(1.00155 0.0979592 -2.18826e-20)
(1.00436 -0.000890685 -2.23686e-22)
(0.994253 0.0353434 1.0196e-20)
(1.00335 -0.0114358 -1.83747e-22)
(1.00088 -0.00235332 7.40947e-23)
(1.03552 -0.0372875 -4.08467e-22)
(1.02587 -0.00103752 -6.19801e-21)
(1.00064 -0.000380242 3.55647e-23)
(0.999746 -6.17831e-05 4.58348e-25)
(1.00056 -0.000512675 7.95405e-23)
(0.995652 -0.0072433 -4.06112e-22)
(1.0264 -0.0779203 1.99829e-21)
(0.999951 -1.22283e-05 2.78389e-24)
(0.955215 -0.0380828 1.49119e-21)
(0.99582 -0.00129404 -1.75517e-23)
(0.999841 -5.18996e-05 9.47871e-24)
(0.999308 -0.000671985 1.60047e-23)
(0.988386 0.0606268 2.4649e-20)
(0.990905 -0.000985329 1.7895e-22)
(0.999148 -0.000120991 -1.66778e-23)
(0.89885 0.0139572 3.45725e-20)
(0.998469 -0.00316726 -1.12368e-22)
(1.06518 0.107127 -7.7034e-21)
(0.999772 -0.000327903 3.46668e-23)
(1.00992 -0.0256964 4.11589e-23)
(1.00002 -1.95471e-06 -9.90861e-26)
(0.981 -0.0435614 -1.07686e-21)
(1.03554 0.000366563 2.17338e-21)
(1.18945 0.0141257 -6.07997e-22)
(0.974522 -0.0246351 1.97371e-21)
(0.999546 -0.000705193 6.15259e-23)
(0.983115 -0.0984059 1.37667e-21)
(0.980714 -0.000585256 8.20455e-22)
(0.999797 -2.22901e-05 9.49815e-25)
(1.00054 -0.000448286 -7.0378e-23)
(0.997724 -0.00412726 1.54057e-22)
(0.991341 -0.00176223 -5.35749e-22)
(1.00338 -0.00108526 -2.64609e-22)
(0.998646 -0.00226669 7.39999e-23)
(0.971098 -0.0113128 2.76231e-22)
(1.03155 -0.0747785 -1.47103e-21)
(0.971217 -0.00949957 1.22403e-21)
(1.15709 -0.0306365 -5.80883e-23)
(0.961357 -0.0107026 -1.55606e-21)
(1.01926 0.113144 2.44289e-21)
(1.01495 0.115981 -1.79815e-20)
(0.998318 -0.000904035 -1.24356e-22)
(1.21297 0.0136662 -1.24576e-21)
(0.999981 -3.74085e-06 -2.67052e-25)
(0.997687 -0.00511377 -1.8779e-22)
(0.96876 -0.00266641 3.1276e-21)
(1.0086 0.0293829 5.86925e-21)
(1.04431 0.0127444 -5.67284e-21)
(1.00011 -3.8805e-05 9.00093e-24)
(0.997829 -0.00482076 -1.25404e-23)
(0.962806 -0.0118238 1.17299e-21)
(1.0565 0.0447169 -3.39503e-21)
(0.998899 -0.00141033 6.48202e-23)
(1.0038 -0.00089086 1.49611e-22)
(1.0014 -0.00115487 -1.31549e-23)
(1.13654 0.0296708 3.90869e-21)
(1.2375 -0.0457684 -3.25729e-21)
(1.04088 0.135152 1.14084e-20)
(0.998209 -0.000291465 -1.20848e-22)
(1.07462 -0.043704 -9.15638e-22)
(0.999872 -7.96306e-05 -7.87283e-24)
(1.00554 -0.00836572 -5.14644e-22)
(0.999939 -1.59668e-05 -1.16225e-24)
(0.983579 -0.0260377 3.47172e-22)
(0.999612 -8.81548e-05 -1.58307e-23)
(1.01505 -0.0249872 1.21133e-22)
(1.23724 0.0178982 1.98559e-21)
(0.969157 -0.0352774 2.37389e-21)
(1.01127 -0.0249363 -5.28054e-23)
(1.00968 -0.00722653 -3.14959e-22)
(0.999179 -0.000157505 7.48645e-23)
(1.03086 -0.0193561 7.34068e-22)
(0.996847 -0.0225584 3.31824e-22)
(1.08555 0.0139926 -2.25781e-21)
(1.06735 0.0490495 3.84114e-21)
(1.20358 -0.132389 9.17944e-23)
(1.16264 -0.0494873 -1.33667e-21)
(0.979852 -0.0011878 -8.76937e-22)
(1.00575 -0.00417166 4.78865e-22)
(0.927766 -0.0362902 -9.19597e-22)
(0.924973 0.0855426 -4.19741e-20)
(1.14122 -0.0522013 1.07979e-21)
(1.03072 -0.0115559 -2.8793e-21)
(0.901424 0.0628613 -2.1007e-20)
(0.99827 -0.000220842 5.9733e-23)
(0.99803 -0.00111624 -3.82934e-23)
(1.18041 -0.0345638 -1.22902e-21)
(0.998816 -0.00245395 -3.98815e-23)
(1.01687 -0.0489268 1.4564e-22)
(1.00658 -0.00204138 1.67741e-22)
(0.99677 -0.000499014 -9.4407e-23)
(0.997638 -0.000417277 -1.49256e-22)
(1.0356 0.0280575 6.79306e-21)
(0.999925 -0.000175891 -8.12802e-25)
(1.00061 -0.000308853 -3.16598e-23)
(1.00009 -1.56015e-05 6.60012e-24)
(0.99603 -0.000787215 5.00954e-22)
(0.992957 -0.0110849 5.64286e-22)
(0.99998 -2.81764e-06 2.10166e-25)
(0.998762 -0.00029371 1.54295e-23)
(0.975416 -0.0216602 6.93674e-22)
(0.948068 0.0182872 1.1235e-20)
(1.01348 -0.0260934 -3.12114e-23)
(0.992069 -0.0146285 9.09428e-22)
(0.961193 0.0677531 4.81503e-21)
(1.0009 0.0292327 1.55565e-20)
(1.07437 0.00188438 -1.82958e-21)
(1.20342 0.0192359 2.54132e-22)
(0.930398 -0.00620134 2.96193e-21)
(1.00572 -0.00482063 -2.3678e-22)
(1.00985 0.0483249 -8.60401e-22)
(0.986756 -0.00271042 -1.08362e-21)
(1.04482 0.106653 3.25944e-22)
(1.01326 -0.0585648 1.86367e-23)
(1.054 -0.133302 -1.36134e-21)
(1.09409 0.089688 5.07932e-21)
(1.04761 0.112521 -1.00738e-20)
(0.956795 -0.0328 3.30495e-21)
(1.04545 0.0105377 -3.67e-21)
(1.10759 0.141412 1.25189e-20)
(1.05895 0.107727 1.45808e-20)
(1.02709 -0.00219046 2.10798e-21)
(0.996546 -0.00173814 1.09464e-22)
(0.995187 -0.00269812 9.53482e-23)
(0.999899 -2.83913e-05 -3.71648e-24)
(1.02071 -0.0319956 1.13821e-22)
(0.986368 -0.00227509 2.54829e-22)
(1.00118 -0.00275584 -6.14154e-23)
(0.999878 -2.87756e-05 -6.91212e-24)
(0.998172 -0.000827318 4.85395e-23)
(0.979578 -0.097297 -2.27525e-21)
(1.11856 0.0414653 1.97927e-21)
(0.979271 -0.00745609 -1.40089e-21)
(0.99953 -0.0147038 3.6344e-22)
(0.995621 -0.000863136 -2.6848e-22)
(1.07156 -0.0469587 7.88454e-24)
(0.991736 -0.00184797 -8.59208e-22)
(1.00291 -0.00856649 1.92074e-22)
(1.12071 0.134686 2.01116e-21)
(0.997891 -0.00039637 -3.46784e-22)
(0.999975 -5.41009e-05 -2.12299e-24)
(0.99994 -0.000211898 -1.08877e-24)
(1.00006 -0.00012399 5.16758e-24)
(0.974095 -0.00984118 6.43612e-22)
(1.03381 0.025683 -8.04475e-21)
(0.995348 -0.00065803 1.0539e-23)
(1.02619 -0.0101815 1.86288e-21)
(1.0391 -0.158417 2.75429e-21)
(0.996028 0.0868191 -4.68182e-22)
(1.00471 -0.00858126 1.70126e-22)
(1.00761 -0.00534612 -7.83862e-23)
(0.994123 -0.00303926 -3.46033e-22)
(0.993036 0.0602165 -2.41171e-20)
(0.998801 -0.000153391 4.9847e-23)
(1.04492 0.139308 -5.77234e-21)
(1.00914 0.0205329 -9.14729e-21)
(0.999867 -3.53376e-05 8.08346e-24)
(1.01085 -0.0597714 -1.06702e-21)
(0.996173 -0.000909851 -2.47384e-22)
(0.994142 -0.0751879 3.46646e-21)
(1.00064 -0.000165412 3.17161e-23)
(1.06908 0.00464005 2.58527e-21)
(1.00879 -0.018719 -6.48851e-24)
(1.00713 -0.00484091 4.06552e-23)
(0.999035 -0.000189793 -9.95158e-23)
(1.07807 0.0486032 4.06684e-21)
(1.05166 0.0429238 1.32481e-21)
(1.01559 -0.079232 1.76135e-21)
(0.97656 -0.0252332 -1.32764e-22)
(0.997598 -0.00440892 -1.32748e-22)
(1.00309 -0.048174 -1.95747e-21)
(1.15736 0.0613201 -3.5517e-21)
(0.872916 0.0484991 -1.98242e-20)
(1.10408 -0.0831529 -1.38705e-21)
(1.0061 -0.00902583 -7.91578e-23)
(0.999992 -3.60976e-06 -8.62294e-26)
(0.984306 -0.00602951 -1.12284e-21)
(0.99741 -0.000454723 3.22478e-22)
(1.02947 -0.019633 1.06599e-21)
(1.01616 -0.129206 -1.15329e-21)
(1.21247 -0.000202165 7.08829e-22)
(0.985337 0.0819984 -2.96648e-20)
(1.06078 0.0413212 5.58769e-21)
(1.14657 -0.113343 2.33326e-21)
(1.08059 0.0898023 2.16318e-21)
(0.999493 0.0309299 2.85398e-20)
(1.02177 -0.00277086 1.54791e-21)
(1.00141 -0.00266385 1.41164e-22)
(1.02721 0.0653676 5.07902e-21)
(0.999042 -0.00239015 8.87785e-23)
(0.999792 -0.0001965 7.69253e-24)
(0.978188 -0.002492 3.92237e-22)
(1.00011 -3.80214e-05 1.66869e-24)
(1.15776 -0.134667 1.36548e-21)
(1.00529 -0.0208947 -6.37046e-23)
(0.983573 -0.0427447 1.80533e-21)
(1.00216 -0.0018179 7.28642e-23)
(1.07456 0.0795976 1.16198e-20)
(0.997983 -0.000375979 -2.85944e-23)
(0.999972 -4.32764e-05 -1.55003e-25)
(1.0464 -0.140044 1.49946e-21)
(1.00191 -0.00156991 -4.26397e-23)
(1.11859 -0.00217438 -5.41745e-22)
(0.94381 -0.0195682 6.12181e-22)
(0.916622 -0.0240347 3.09483e-22)
(1.21492 0.0641155 -1.1014e-22)
(1.02727 0.0207019 -3.02909e-21)
(1.02328 0.00609562 1.86512e-21)
(1.02182 0.00573032 -7.48781e-22)
(0.999766 -5.08924e-05 2.68701e-24)
(1.12709 0.0408192 1.51393e-21)
(1.08594 0.0185386 2.62591e-21)
(0.999416 -0.000758015 2.35929e-23)
(0.980248 -0.0080866 1.62759e-21)
(1.0007 -0.000240707 -3.53033e-23)
(1.01485 -0.0229316 -7.81585e-22)
(1.01182 -0.0331452 -4.40262e-23)
(1.00511 -0.00157579 1.29638e-24)
(0.999143 -0.00150845 -1.05898e-22)
(1.13492 0.100677 -9.56703e-21)
(0.999975 -2.59298e-05 -3.30846e-24)
(1.00024 -0.000128052 -9.03802e-24)
(1.00228 -0.00123353 -3.11468e-24)
(0.972905 -0.0042632 1.0856e-21)
(1.02211 -0.0123811 1.31712e-21)
(0.982128 -0.0360346 -2.56337e-21)
(0.96631 -0.00668262 -6.33472e-22)
(1.02176 -0.0744388 9.94777e-22)
(1.06355 -0.167147 -2.9557e-21)
(1.03317 -0.0342244 2.91858e-22)
(1.03173 0.0660699 -2.89683e-20)
(1.22684 0.0236379 -1.49458e-21)
(0.992377 -0.00311125 -4.46509e-23)
(0.90485 0.0910722 3.25302e-20)
(0.974787 -0.0710614 3.82352e-21)
(0.992612 -0.0117788 1.77048e-22)
(0.967205 -0.00553227 1.04119e-21)
(0.998159 -0.0217223 -9.67928e-23)
(0.974658 -0.00309426 1.66161e-21)
(0.988283 -0.00475311 -3.27294e-22)
(1.03123 -0.0136281 -1.99478e-21)
(1.15076 -0.0557088 -2.55545e-22)
(0.99997 -5.04952e-05 -2.71734e-25)
(1.02691 -0.0134012 -2.207e-22)
(0.999889 -3.51554e-05 -3.95041e-24)
(1.01164 0.0985802 5.83692e-21)
(1.15839 0.0860898 6.49087e-21)
(0.994471 -0.00231863 1.09391e-22)
(0.983235 -0.00215985 -1.4935e-21)
(0.999786 -6.28552e-05 -1.95613e-23)
(0.998594 0.0539157 1.79455e-20)
(1.03417 0.111437 1.34314e-20)
(1.12995 0.0317719 -2.0841e-21)
(1.14198 0.127887 -7.86275e-21)
(0.975101 -0.0754617 -1.64854e-21)
(0.998561 0.00932787 -2.70949e-20)
(0.999929 -0.000155439 3.96538e-24)
(1.05617 -0.0280696 2.39198e-21)
(0.977725 -0.0019013 -6.07466e-23)
(1.10192 0.0766084 -2.36268e-21)
(0.93291 0.0627955 -2.54813e-20)
(1.16158 0.0539106 4.1064e-21)
(1.05474 0.0342361 9.37219e-22)
(1.00033 -0.0145375 -5.86621e-23)
(0.99977 -9.79337e-05 -1.79248e-23)
(1.14428 0.112166 3.25792e-21)
(1.22309 -0.0244687 4.45423e-22)
(0.995903 0.0630955 -5.62399e-22)
(1.11064 -0.00387392 3.8046e-21)
(1.0345 0.0535209 8.5387e-21)
(0.991907 -0.00278268 -1.52945e-22)
(0.992245 0.0821848 8.05045e-21)
(1.03838 0.106033 4.73063e-21)
(0.989624 -0.00400162 -9.17276e-22)
(0.991367 -0.00371318 -3.40645e-22)
(1.15555 0.101599 1.23701e-22)
(0.913187 -0.0223115 -4.20194e-21)
(0.999904 -0.000180616 -6.05817e-24)
(0.985092 -0.00650373 1.44459e-21)
(0.920647 -0.031214 3.08683e-21)
(0.99265 -0.0939187 -4.8253e-22)
(1.01092 -0.00275603 -1.34947e-21)
(1.00966 -0.00655724 8.71137e-23)
(0.999859 -0.000224797 -1.09791e-23)
(1.03648 0.117355 -2.01938e-20)
(1.0007 -0.013169 9.77174e-24)
(0.999883 -6.92739e-05 3.51749e-24)
(1.03067 -0.0684384 1.08128e-21)
(0.999441 -0.00049797 2.0886e-23)
(0.999747 -8.78725e-05 1.37306e-24)
(1.00638 -0.01385 -9.16933e-23)
(1.0624 0.0796046 1.59092e-20)
(1.03458 -0.125602 2.05423e-21)
(0.951911 0.0634143 1.49359e-20)
(1.00007 -1.15579e-05 -4.55966e-24)
(1.0681 0.0834743 -1.65815e-20)
(1.02094 -0.0591746 8.33253e-22)
(0.999914 -0.000220884 -1.70615e-24)
(1.00003 -7.15357e-06 -1.23886e-24)
(1.00297 0.0119179 -1.50879e-21)
(1.05763 0.0689461 5.95364e-21)
(0.995532 -0.00284476 9.48916e-23)
(1.05281 0.0538848 -7.73754e-21)
(1.00003 -2.31724e-05 9.20373e-25)
(1.05297 0.059691 -1.07079e-20)
(1.18747 -0.136884 3.23732e-21)
(0.989048 -0.00359082 1.00949e-21)
(0.999235 0.0149542 -3.68786e-20)
(0.974723 -0.0592225 2.53744e-21)
(1.14616 0.121504 7.65709e-21)
(0.968774 -0.00551107 6.35634e-22)
(1.05795 0.0628857 1.39518e-20)
(1.06294 0.0724531 -4.30851e-21)
(0.9813 -0.00996179 2.34821e-21)
(0.975328 -0.0123107 -1.73038e-21)
(0.994551 -0.0116977 5.26692e-22)
(0.996822 -0.000848364 -8.12732e-23)
(0.999776 -0.00021868 2.0747e-23)
(1.00042 -0.0126108 -1.76829e-23)
(1.04878 0.100605 -2.39648e-21)
(0.999968 -3.96197e-05 8.19374e-25)
(1.0479 0.0514669 1.02346e-20)
(1.0515 -0.123274 3.20085e-21)
(1.00696 0.06567 7.0108e-21)
(1.04755 0.0464689 -1.16511e-20)
(0.917155 -0.0293105 -3.77812e-22)
(0.958838 0.0810813 -3.12362e-20)
(0.998246 -0.00133132 6.85661e-24)
(1.02014 -0.0293914 3.33403e-22)
(1.06923 -0.0856423 7.78424e-22)
(0.975788 -0.00290842 -1.0123e-22)
(0.992841 -0.0039092 4.53945e-22)
(1.01788 -0.0610897 -7.47759e-22)
(1.06313 -0.0181396 -2.47563e-22)
(0.912683 0.0568538 3.99608e-20)
(1.00005 -2.20149e-05 4.74337e-24)
(0.997927 -0.00142068 9.28669e-23)
(1.02965 -0.0880462 4.98149e-23)
(1.00002 -5.75567e-06 1.28557e-25)
(1.01236 0.104978 2.86972e-21)
(1.00194 -0.00135564 0)
(1.00001 -7.5739e-06 9.2991e-26)
(1.00022 -9.97772e-05 2.11688e-23)
(1.00045 -0.000138141 4.36208e-25)
(0.98388 -0.0243386 1.73579e-21)
(1.02664 -0.0185311 -7.6758e-22)
(0.998326 -0.00103779 1.466e-22)
(0.999904 -1.98134e-05 7.37817e-24)
(0.992358 -0.00366641 2.52291e-22)
(1.00565 -0.0144517 -6.67544e-23)
(1.00344 -0.139116 -3.15342e-21)
(0.92422 -0.00985396 2.99817e-22)
(1.02126 -0.0110527 2.30221e-21)
(0.99997 -3.15742e-06 2.48146e-24)
(1.1374 -0.166759 4.10539e-21)
(0.985314 -0.00453044 -5.79073e-22)
(1.14181 0.0930324 -5.26658e-22)
(1.00028 0.0121186 -5.11389e-21)
(1.00146 -0.00401148 3.28251e-23)
(1.12901 0.0819046 -9.02085e-21)
(1.00017 -0.00010824 2.29277e-26)
(0.986041 -0.00507499 1.69553e-23)
(1.02609 0.000978102 -3.81174e-21)
(0.992883 -0.00444798 -1.85894e-22)
(1.06428 0.093978 -9.53468e-22)
(0.985983 -0.00792652 -1.09063e-21)
(1.05755 -0.0250251 -2.07219e-21)
(1.02652 0.0017363 -4.09355e-21)
(1.06649 0.0435316 -2.37414e-21)
(1.00906 -0.0171643 -3.59062e-22)
(0.9889 -0.00511547 2.7199e-23)
(1.08748 0.0787593 7.18075e-21)
(0.985198 -0.103947 -2.72221e-21)
(1.00038 0.103643 2.40417e-20)
(0.990231 -0.0057715 -1.06137e-21)
(1.0682 0.119831 -1.46382e-22)
(0.990196 -0.0050607 2.83503e-22)
(0.998751 -0.000596547 -9.58367e-24)
(1.05422 0.0306821 2.62988e-21)
(1.01879 -0.033752 -5.67098e-23)
(1.04005 0.00392644 5.69612e-21)
(1.002 -0.000951709 4.73911e-23)
(1.00001 -5.8928e-06 4.22547e-26)
(1.02114 -0.157047 1.16417e-21)
(1.11871 0.128163 -1.1078e-20)
(1.00172 -0.00389046 -4.53928e-23)
(1.13845 0.0838154 8.53889e-22)
(0.986767 -0.00737928 -7.13589e-22)
(1.12785 -0.17628 -1.58319e-21)
(1.05589 -0.0439183 -7.08483e-24)
(0.981829 -0.0383498 1.44096e-21)
(0.998199 -0.00116119 -6.18971e-23)
(0.990454 -0.0012756 -2.15068e-22)
(0.975894 -0.0895871 -1.58803e-21)
(0.966252 -0.0119444 2.38756e-21)
(0.989578 -0.00472348 7.50388e-22)
(0.999843 -0.000507603 9.50871e-24)
(0.993165 0.109313 -2.95792e-21)
(1.12578 0.0733209 5.48158e-21)
(1.02767 -0.0112372 -7.12283e-22)
(0.999784 -0.000170096 1.38674e-23)
(1.03582 0.100244 -9.10167e-21)
(1.00001 -2.77581e-05 3.73457e-26)
(0.999801 -0.000151619 2.74956e-23)
(1.11676 0.0718463 4.78825e-21)
(1.01338 -0.0284307 2.04647e-22)
(1.12794 0.116009 9.07239e-21)
(1.02605 -0.00287797 1.59609e-21)
(1.0195 -0.013926 -1.57598e-22)
(1.11319 -0.0667946 7.0251e-22)
(1.08126 -0.149886 3.23533e-21)
(1.21531 0.0559022 -4.28353e-22)
(1.00141 -0.00097151 -1.03731e-22)
(0.946217 -0.0212894 -2.38133e-22)
(0.99998 -6.62917e-05 -6.39006e-25)
(1.00596 -0.0126108 6.49485e-23)
(1.06838 0.0898666 5.9261e-21)
(0.98232 -0.00931012 1.63922e-21)
(0.997001 -0.00169805 1.28414e-22)
(1.02019 -0.0469761 -4.25043e-22)
(0.99789 -0.00125392 8.82261e-24)
(0.99958 -0.00124817 2.80028e-23)
(0.905132 0.0132286 7.12276e-21)
(0.989636 -0.00621983 -6.00732e-22)
(0.999417 -0.00082795 -8.15465e-23)
(0.99998 -7.17191e-07 -5.38478e-25)
(1.01845 0.00715771 8.12644e-21)
(0.969977 -0.0329429 -3.61498e-22)
(0.999651 -0.000624868 2.47216e-23)
(0.997006 -0.000986746 1.65709e-22)
(1.025 0.0229408 3.31373e-21)
(1.07421 0.0134436 5.99436e-22)
(0.956436 -0.0299532 -2.05158e-21)
(1 -1.76026e-05 -1.84508e-25)
(1.00125 0.0121599 2.18326e-20)
(0.985234 -0.021095 -1.18254e-21)
(1.07443 0.0727616 -1.16756e-20)
(1.0141 -0.00137225 -2.0418e-21)
(1.01625 -0.00136995 4.65653e-21)
(0.964277 -0.0149215 3.25226e-21)
(0.999896 -7.35919e-05 -2.31345e-24)
(1.02579 0.000410192 -7.41438e-22)
(1.07965 0.0108054 -8.36564e-22)
(1.19218 0.0605941 2.55506e-21)
(1.05821 -0.116234 6.51441e-22)
(1.04543 0.0950337 7.17922e-21)
(1.00631 -0.00188069 -3.29881e-23)
(1.09449 0.0826053 -9.86738e-21)
(1.00057 -0.016988 -1.01411e-22)
(1.02571 -0.0661618 -2.00412e-21)
(0.999579 -0.000187986 -2.6512e-23)
(1.00464 -0.0223339 1.22781e-22)
(0.99989 -0.000486835 3.97936e-24)
(1.05037 0.0373682 -7.75835e-21)
(1.08752 0.128394 -2.06619e-20)
(0.998414 -0.00137006 4.92378e-23)
(1.0211 -0.0139917 4.20284e-23)
(0.980558 -0.0056243 5.64282e-22)
(1.06074 -0.100233 2.65009e-22)
(1.05506 -0.107475 -1.6032e-21)
(0.997996 -0.000990399 9.75701e-23)
(1.05244 -0.0289847 -8.23549e-22)
(0.913561 0.00385309 -1.20355e-20)
(1.1887 0.0415207 1.61001e-21)
(0.999942 -0.000188511 8.74217e-24)
(1.06923 0.0102938 -2.16138e-21)
(0.997076 -0.0105797 -2.56184e-22)
(0.995021 0.00241517 2.5679e-20)
(0.986744 -0.00645593 9.92759e-22)
(0.996861 -0.031728 -3.13264e-22)
(1.02264 -0.0412563 -3.74122e-23)
(0.995312 -0.0329097 -4.96251e-23)
(0.999444 -0.0250925 -6.95088e-22)
(0.991845 -0.00397881 1.73894e-22)
(0.999543 -0.0168789 3.75599e-22)
(1.0023 -0.00725112 -5.19192e-23)
(1.06498 -0.0221325 5.65019e-22)
(1.00012 -2.87359e-05 -1.31141e-23)
(1.22535 -0.091397 -1.18725e-21)
(1.17476 -0.00126343 1.2247e-22)
(1.02391 0.114835 1.65458e-20)
(0.95869 -0.0282626 3.1128e-21)
(1.11901 0.111677 -4.62614e-21)
(1.00213 -0.00074182 1.68507e-22)
(1.08721 -0.0822887 -3.70123e-23)
(1.00805 -0.0453704 -7.30063e-22)
(1.02166 0.0397293 9.52849e-21)
(0.992432 -0.0048104 4.30853e-22)
(1.00012 -0.000208279 8.59103e-24)
(0.986099 -0.0219295 1.54254e-21)
(0.995504 -0.0113566 -1.99675e-22)
(1.04894 -0.02643 1.73713e-21)
(0.968064 -0.00911909 -2.0193e-21)
(0.973969 -0.0115126 5.70952e-22)
(1.14414 -0.0323308 1.96285e-22)
(0.983658 -0.00363296 -9.80799e-22)
(1.01984 -0.0434215 2.5929e-22)
(0.995195 -0.0993203 1.94261e-21)
(1.00001 -9.20469e-06 7.11436e-26)
(1.06612 -0.0135871 3.15674e-21)
(0.996249 -0.0888579 -5.15391e-21)
(1.12489 0.0974281 4.32721e-21)
(1.11443 -0.0748063 -1.41538e-21)
(1.03837 0.0033542 4.83324e-22)
(1.04225 -0.120175 -4.14488e-21)
(1.04618 0.124661 4.40444e-21)
(1.04213 -0.039435 5.59351e-22)
(0.962606 -0.013817 -1.92477e-21)
(1.02066 -0.0549157 -9.37708e-22)
(0.960256 0.00552967 1.14483e-20)
(1.18586 -0.100052 6.92416e-22)
(0.985975 -0.00601141 -3.01656e-22)
(1.04837 -0.151152 -3.24048e-22)
(1.03685 -0.0769648 1.33243e-21)
(1.06465 -0.136316 -6.22152e-22)
(1.05699 -0.0925208 -1.58274e-21)
(1.08684 0.0717026 9.12972e-21)
(0.997031 -0.00195082 8.46861e-24)
(1.00853 0.0458355 3.55388e-21)
(1.00845 -0.0017771 2.42221e-22)
(0.999582 -0.000631941 -3.52459e-23)
(0.998748 -0.00272489 2.43598e-22)
(1.06467 0.00290081 -7.8536e-22)
(0.864506 0.00466918 3.45795e-22)
(1.00191 -0.0077586 2.70171e-23)
(1.0253 -0.0613312 2.88842e-22)
(1.02518 0.0262245 -5.50438e-21)
(1.00003 -8.54317e-06 -2.32218e-25)
(0.976615 -0.011548 1.37993e-21)
(1.02473 -0.0105231 1.65449e-21)
(1.08718 -0.0423058 7.27236e-22)
(1.00858 -0.000922205 1.35902e-21)
(0.99831 -0.00242736 4.44672e-23)
(0.983945 -0.0486758 3.38944e-23)
(0.997823 -0.010154 -7.49025e-23)
(1.00004 -6.74383e-06 2.51826e-24)
(0.977307 -0.0578523 -4.27654e-21)
(1.05481 0.0883753 -2.54143e-21)
(1.02432 -0.0357879 1.46506e-22)
(0.981463 -0.0063548 -1.05688e-21)
(1.00195 -0.000492654 -6.04984e-23)
(1.02844 0.0281844 7.25397e-21)
(0.999592 -0.000764956 -1.61419e-23)
(0.998666 -0.000782005 -4.99551e-24)
(0.999615 -0.000205679 -2.42608e-23)
(0.999225 -0.00255981 -6.15904e-23)
(1.17892 0.061493 2.43181e-21)
(1.0346 -0.0401503 5.92332e-22)
(1.00982 -0.0216472 1.12272e-22)
(0.980213 -0.00938267 -4.82288e-22)
(1.00005 -6.12402e-05 2.47099e-24)
(1.10245 -0.139848 4.2961e-21)
(1.22367 -0.00762797 9.23994e-23)
(1.11115 -0.150286 -2.07251e-21)
(0.998716 -0.0403325 -5.8559e-22)
(1.01532 -0.0104424 1.54612e-21)
(0.999772 -0.000119587 1.13296e-23)
(0.987717 -0.0142769 -6.18332e-22)
(0.954045 -0.0605784 -2.50396e-21)
(1.1775 0.043324 3.71276e-22)
(1.00538 0.0637646 -2.53216e-22)
(0.998796 -0.00385491 4.92466e-23)
(0.935847 -0.043407 1.40653e-21)
(0.994913 -0.00337572 -4.1306e-22)
(1.03954 -0.0364388 -8.12454e-23)
(1.09996 0.0686967 9.29081e-22)
(1.00048 -0.000160573 -4.92716e-23)
(0.999831 -0.00025803 -4.33644e-24)
(1.1534 0.108252 8.71706e-22)
(1.17289 0.0236638 -1.22492e-22)
(1.02052 -0.0174175 5.64282e-22)
(0.996827 -0.00212838 2.18563e-22)
(0.997742 -0.000563511 -2.17221e-23)
(0.962791 -0.0611067 6.12059e-22)
(0.999814 -0.00042484 -1.42767e-23)
(1.02194 -0.0379642 1.3413e-22)
(0.985181 -0.00178728 2.02538e-21)
(1.00046 0.0142716 -4.24315e-21)
(1.05908 0.0939123 -1.31686e-21)
(1.08064 -0.0762954 5.52489e-22)
(1.00121 -0.0889697 1.91049e-21)
(1.007 -0.00167187 6.7455e-22)
(1.01756 -0.0283992 -4.78938e-22)
(1.16485 0.00575746 1.30015e-21)
(1.00162 -0.0992611 -1.19546e-21)
(1.02399 -0.0525798 5.24827e-22)
(0.999998 -8.83951e-06 1.07434e-25)
(1.15156 -0.0109197 4.90483e-22)
(0.970643 -0.00370725 1.91042e-22)
(1.00169 -0.110602 2.38393e-21)
(1.02347 -0.0328859 -7.03733e-22)
(0.948864 -0.0201138 -4.31773e-22)
(0.999569 -0.00036078 -1.18823e-23)
(0.996773 -0.00159173 -9.75868e-23)
(1.04306 0.0442878 8.99658e-21)
(0.966168 -0.0139371 -7.31331e-22)
(0.999983 -2.46853e-06 5.81829e-25)
(0.996894 -0.000658711 -2.29022e-22)
(1.18044 -0.0843427 -4.53348e-21)
(0.99982 -6.16469e-05 2.88204e-23)
(1.02871 -0.0586643 -1.64145e-22)
(0.999947 -0.000150097 -6.33254e-25)
(1.00785 -0.016099 -1.17325e-24)