/*--------------------------------*- C++ -*----------------------------------*\
  =========                 |
  \\      /  F ield         | OpenFOAM: The Open Source CFD Toolbox
   \\    /   O peration     | Website:  https://openfoam.org
    \\  /    A nd           | Version:  7
     \\/     M anipulation  |
\*---------------------------------------------------------------------------*/
FoamFile
{
    version     2.0;
    format      ascii;
    class       volScalarField;
    location    "17.5";
    object      p;
}
// * * * * * * * * * * * * * * * * * * * * * * * * * * * * * * * * * * * * * //

dimensions      [0 2 -2 0 0 0 0];

internalField   nonuniform List<scalar> 
7807
(
0.322061
-0.00739555
0.438826
0.284426
-0.00120638
-2.15393e-05
0.430119
-0.00702964
-0.000141722
0.116106
-2.11743e-05
0.00260613
-0.0107109
0.0561033
0.120821
-0.0197258
0.334278
-0.0143785
-0.00119251
-0.111077
0.0770399
0.00162112
0.0399393
0.221199
-0.0189476
0.330556
-0.0011176
0.0698275
0.185843
0.000679558
-0.0254645
0.584281
0.0392331
-0.000570101
-6.86824e-05
0.0946298
0.000958474
0.417405
-0.00844837
-0.000289751
-0.00803093
-0.0187659
-0.115064
-0.0501615
-0.000145714
-5.53381e-05
0.001604
-0.0084092
-5.08972e-05
-0.109913
0.00415397
0.0659217
-0.024139
-0.0133112
0.0937358
-0.00660526
-0.000871059
-0.00688058
-0.0380214
-0.000572016
2.29297e-05
0.00550379
0.0563848
0.00293508
-0.000963201
-0.0253696
-0.000121611
3.15128e-06
0.122629
-0.00786003
-5.09604e-05
-0.0796408
-0.018432
-0.0318414
-0.013989
-0.0551687
0.434016
0.0751978
0.0708379
-0.0804958
-0.0103705
0.372724
0.113072
-0.0352963
-0.00241314
-0.00257811
-0.00778256
-0.0235655
-0.00103106
-0.00524494
0.190499
-0.053006
-0.000107554
-0.000434269
-0.00444486
-0.0303617
-0.076308
-0.00959003
-0.00255995
-0.00119015
-0.0588642
0.0807707
-0.0042747
-9.32074e-06
-0.0390595
0.198387
0.499185
-0.00692531
-3.67159e-07
0.0347327
0.269026
-0.0752881
-1.12683e-06
0.0372161
0.19805
0.000354233
-0.0897867
0.158989
-0.057562
-0.0335081
-0.0585043
0.355653
-0.109311
0.0126608
-0.0568269
-0.00145905
-0.0218519
0.000418991
-0.00101566
-0.0251117
-0.108088
0.0704193
-0.000751171
-0.00117254
-0.0362016
0.259857
0.423701
-8.21531e-06
0.0101775
-0.0771731
-0.0294497
-0.0730743
-0.0566851
-0.0305918
0.499746
-0.0355544
0.187763
-0.0388501
-0.0406395
0.355083
0.0899267
-0.0435758
-0.0023203
0.0996263
0.112425
0.392873
-0.0642304
-0.0103693
0.508359
-4.4885e-05
-0.00144955
0.229186
-1.46701e-05
-0.00415399
-0.00499987
0.281304
0.28188
0.52822
-0.00445225
-0.00364752
3.48642e-06
-0.0547265
0.000348923
0.000974116
0.0111632
-0.0399985
-0.0146033
0.185502
-0.000113196
-0.000672288
0.291457
-4.06179e-05
-7.27645e-05
0.435698
-0.0134754
-0.0633293
-0.0545404
-0.0310138
-0.0396857
-0.0769469
-1.52159e-05
-0.0729139
0.194351
-0.00442926
4.43271e-05
0.234741
-0.00141535
-0.0235964
-0.0377909
4.59101e-06
0.000690123
0.265254
0.227187
0.389223
-0.0818402
-0.0684708
-0.14391
0.0763916
0.260204
-0.000156444
2.0537e-05
0.47023
-0.0169209
-0.000755436
-0.070161
-0.0229831
0.360868
0.365902
-0.0787006
0.567261
-0.00132562
-0.0138896
-0.0598777
0.0935904
-0.142367
0.287855
0.502982
2.66744e-05
0.0135761
0.169229
-0.00738951
0.155781
-0.000953602
0.567728
0.382972
-0.00756481
0.00166854
-0.000269794
0.193572
-6.35232e-05
-0.0124201
-0.0784181
-5.49977e-05
-0.00249593
-0.000810913
0.18707
-1.65719e-05
-0.00544823
-0.0786133
0.578405
0.0603483
0.534383
-2.67715e-05
-0.0409197
-0.000254527
0.409012
0.00527535
0.425375
-0.000853934
0.000475536
-0.002558
0.0800676
0.000552306
-0.000192996
0.000464669
-0.00782935
-0.0639354
-2.56682e-05
-0.0618389
-0.00480159
-0.00011678
-0.000823994
0.415912
-0.0098822
-0.00075602
0.527496
-0.0026206
0.299494
-0.000267355
-0.00645314
6.22278e-06
-0.049607
0.0895172
-0.00229028
-0.0390138
-0.000591699
-0.0960448
-0.0202861
-0.000134201
0.000446166
-0.00390935
-0.00988553
0.00366814
-0.0020508
-0.0336842
-0.0572351
-0.0323809
-0.0348803
-0.0410947
0.391124
0.405036
-0.00193172
-0.0345045
-3.59494e-06
-0.00448158
-0.0306352
0.215269
0.127226
6.51581e-05
-0.00412933
-0.040082
0.193125
-0.00150511
0.00464217
0.00129646
0.0709945
-0.126573
0.387467
-0.00184523
-0.00913961
-0.000104621
0.00417275
-3.68089e-05
-0.032683
-0.000317648
9.24338e-05
-0.064975
-0.0507385
-0.00401631
0.0120252
-0.000730924
0.0285505
-0.0176108
0.095241
0.189273
-0.179718
-0.0606704
-0.0208207
0.00665258
-0.0764755
0.537681
-0.0524881
0.0479802
0.557662
-0.0017725
-0.00233098
-0.0567376
-0.0019312
-0.0309196
0.0088321
-0.00341444
-0.00245431
0.179587
-9.46738e-05
0.00052445
4.86872e-05
-0.00426199
-0.0130997
-4.37113e-06
-0.00122544
-0.0363198
0.476853
-0.00330712
-0.0163379
0.472831
0.318195
0.0790305
-0.0203969
-0.0556497
0.00622914
0.273422
-0.0148204
0.33514
-0.0451941
-0.124502
0.228361
0.339817
-0.0568227
0.119283
0.287629
0.310996
0.0745559
-0.00422522
-0.00612826
-6.87205e-05
-0.00417912
-0.0150861
0.000751038
-8.25092e-05
-0.00206036
-0.095272
0.11144
-0.0245835
-0.00798215
-0.00487533
-0.0127412
-0.00951472
0.000518189
0.255944
-0.00219822
-2.53702e-05
-9.2806e-05
1.63557e-05
-0.0302443
0.174181
-0.00517801
0.043898
-0.152658
0.407257
0.00282434
0.00895839
-0.00744999
0.40338
-0.00112321
0.385462
0.191642
-9.06742e-05
-0.048213
-0.00415969
-0.0711987
0.000546258
0.0884359
0.000187201
0.00824651
-0.000920111
0.172153
0.195671
-0.0710658
-0.0378053
-0.00417366
-0.0389272
0.0940416
0.574574
-0.0751696
0.00470657
-8.06072e-07
-0.0191183
-0.00272994
0.0253726
-0.124425
-0.050683
0.428806
0.179662
-0.128305
0.247061
0.392444
0.0440484
0.00107249
0.290662
-0.0016976
-0.000205981
-0.0217707
5.91079e-05
-0.158227
-0.00634224
-0.0459697
0.0021661
0.238316
-0.00213354
-2.44585e-05
-0.132621
0.00195192
0.0404987
-0.0569876
-0.0723561
0.0209471
0.170585
0.139383
0.14321
-0.000177516
0.102271
0.104569
-0.000745606
-0.0239567
0.000595078
0.00272404
-0.0136927
0.00630107
-0.00127988
0.183634
-1.69057e-05
0.000155326
0.0023099
-0.0287969
0.0306734
-0.0417834
-0.0350761
-0.0596052
-0.155947
0.00188288
0.283056
-0.0476943
-0.0093648
0.568782
-0.0761338
-0.013831
-0.0345226
-0.0152232
-0.0262498
-0.0145377
0.0427603
-0.0601951
-2.75114e-05
0.0367954
-7.54427e-05
0.386197
0.134612
-0.00674293
-0.017537
-0.00016418
0.372617
0.362454
0.0813534
0.204684
-0.081464
0.431162
-8.52309e-05
0.0216076
-0.0226634
0.191302
0.516249
0.0779087
0.170756
-0.00667604
-0.000190815
0.183718
-0.0862218
0.389417
0.0423088
0.246568
-0.00973776
0.411083
0.345701
-0.0127226
-0.010779
0.15428
-0.0742655
-0.000110322
-0.0185492
-0.0758587
-0.090348
0.0161454
0.0125501
-0.000157203
0.3679
-0.00509411
-9.33467e-05
-0.0510275
-0.000621171
-0.000205094
0.00162058
0.256089
-0.118043
0.487458
4.01433e-05
0.255173
-0.0420819
-0.00011252
1.3126e-05
0.183252
0.244096
-0.00582711
0.219187
1.62016e-05
0.231708
-0.174155
-0.0131607
0.406648
-0.0666327
0.192616
-0.0327393
0.230803
0.242549
-0.0240275
-0.0306187
-0.0115567
-0.00355193
-0.000229451
-0.00508205
0.317373
-2.58814e-05
0.221051
-0.11467
0.346592
0.209609
-0.0767067
0.485805
-0.00218122
-0.000822496
-0.0701115
-0.0261805
-0.00927036
-0.0463117
0.040487
0.541185
2.66017e-05
-0.00256433
-0.0733611
4.60908e-06
0.395391
0.00201393
3.88988e-06
0.000147833
0.000333379
-0.0308559
0.024544
-0.00198397
-6.1289e-05
-0.00968004
-0.000130123
-0.135144
-0.0655575
0.0315014
-1.06572e-05
-0.178719
-0.0174018
0.159094
0.335647
0.000615344
0.162587
0.000109532
-0.016867
0.104714
-0.00951783
0.277836
-0.0184635
0.0265799
0.108826
0.177339
0.00216561
-0.0140388
0.217324
-0.104981
0.418323
-0.0130328
0.315538
-0.0126734
-0.00136365
0.161867
-0.00834972
0.103034
0.00210042
3.60501e-06
-0.149483
0.247891
0.00104849
0.151453
-0.0174215
-0.181995
-0.00730598
-0.0437038
-0.00216941
-0.0104302
-0.0912393
-0.0375991
-0.0131667
-0.000258504
0.440922
0.15443
0.0433146
-0.000205062
0.341113
-9.86439e-07
-0.000184701
0.164124
-0.00621437
0.217011
0.0686953
0.0228453
-0.056541
-0.150408
0.0143856
0.00134803
-0.0561043
-2.53519e-05
0.00228954
0.267617
-0.022803
-0.00370536
-0.0258726
-0.00253196
-0.000740717
0.524669
-0.0138628
-0.000764116
-1.50429e-06
0.153771
-0.0477943
-0.000472066
-0.00339729
0.179076
0.102824
-0.0549732
-1.52047e-06
0.195778
-0.0271548
0.225675
0.0236644
0.029786
-0.0407534
-8.45928e-05
0.10608
0.0933325
0.050835
-0.105776
0.31466
0.00782343
0.21364
-0.00847062
-0.0491272
-0.000393787
-0.00858081
-0.000209807
0.184177
0.299653
-0.00200904
0.0259741
-0.0226679
-0.0869732
-0.096588
-0.00230157
0.0188315
0.51067
0.0275512
-8.50546e-05
0.100735
-0.00800573
0.442077
-0.0169114
-0.0256721
-0.0161579
-0.0286231
-0.0169963
-0.0103754
-0.00957669
0.000334469
0.0318768
6.98431e-05
-0.153666
-0.00979517
0.385703
-0.0526733
0.222171
0.00227013
-0.066951
-0.0314503
0.228488
-0.0101733
5.28126e-05
-0.0270545
-0.0103286
0.0226665
-0.0347714
-0.0314925
-0.0232553
-0.0183578
-0.0213795
-0.0967315
3.45844e-06
0.0500234
-0.0848061
0.192068
-0.0689096
0.10225
-0.109866
0.359811
-0.003471
-0.0416496
-0.0366347
0.461187
-0.131827
-0.0174666
-0.143432
-0.0595296
-0.130135
-0.0784141
0.205518
-0.00378616
0.266353
0.0116522
-0.00053755
-0.00211233
0.0870332
0.568971
-0.000437332
-0.0433611
0.187857
1.53168e-05
-0.0291863
0.0395755
-0.00910259
0.0118635
-0.00253216
-0.0517953
-0.00686695
1.83926e-05
-0.0638563
0.286627
-0.00695291
-0.0219498
0.00208708
0.18797
-0.00056808
-0.00152383
-0.000366779
-0.00154513
0.068255
-0.00853992
-0.00158577
-0.0247455
2.37165e-05
-0.139833
-0.0694383
-0.157078
-0.0329472
0.0197278
-0.000198698
-0.020483
-0.0785352
0.0449608
0.347454
-0.00253476
-0.0760458
-0.00676909
0.000557308
0.181613
0.000377135
-0.000192181
0.165803
0.0253326
0.0182169
-0.0040849
-0.00239213
-0.0742339
-0.000261429
-0.0119884
-0.0158728
0.300312
0.288294
-0.0587793
-0.0828601
0.00944394
-0.00198627
0.00762845
-0.0943962
-0.0315072
-1.59699e-06
-0.0014418
-0.0307554
-0.104034
-0.00319486
-0.0545892
-0.000456919
-0.0039158
0.210934
-0.0390129
-2.44393e-06
-0.00332943
-0.115808
-0.000137491
-0.0378137
-7.10931e-05
0.00159857
-0.130787
-0.0592374
-4.7831e-05
1.94089e-05
0.133264
-0.0714552
0.372902
0.302799
-0.0085587
-0.0012865
-0.0295516
0.000165965
-0.114364
-0.119326
0.00163781
-0.0221133
0.298802
0.00530428
0.000151357
0.0009779
-0.144324
0.00216046
-0.0448395
-0.0764288
-0.00611318
0.0214771
0.0740191
0.00388122
-0.0339589
-0.0877033
0.195972
-0.0523679
-3.23249e-07
-0.134589
-0.0729888
-0.0608119
0.000592487
0.000711437
0.00213088
-0.132811
0.0332234
-0.0338456
0.155407
-0.069359
0.00339468
0.0181208
0.00760515
-0.035693
-0.127777
-0.000193219
0.152127
0.214441
0.007238
0.25172
-0.101003
0.0483212
-0.0719048
0.206519
0.10633
0.542261
2.48726e-06
0.109468
0.186916
0.0146422
-0.0014158
-0.0166862
-0.0176156
1.99233e-05
-0.0191169
-0.0735044
-0.0183102
-0.022798
8.6144e-05
-0.0940158
-0.000444626
-0.000660887
0.242589
0.00335571
0.0997382
0.0188886
0.210923
0.00661203
-0.000609566
-0.126362
0.00459689
0.360158
0.000949713
-0.0758689
-0.000329539
-0.000448071
0.0019559
-0.0783263
-2.81663e-05
-0.00948182
0.0279854
-0.00147049
1.75848e-05
-6.19653e-05
0.156292
-0.0481903
0.00459858
-0.000872406
0.00631307
0.0154131
0.00569998
-0.000372072
0.37994
-0.109958
0.225276
0.330283
-0.000131646
0.0866155
0.120663
-0.000695817
-0.000279173
-0.000708037
-0.0128817
0.00846374
-0.0252826
-0.0348532
-0.0909878
0.176719
-0.127342
7.43058e-06
-0.0208377
-0.0249323
-0.0355945
-0.00381947
0.00384935
0.000918446
0.0281598
-0.000374953
-0.00035528
-0.0200546
-0.0043398
-0.0269254
-6.04581e-06
-0.0157625
0.0343713
-0.0347899
-0.0475102
-0.00864538
-0.0118981
-0.00878562
-0.00499863
-0.00011258
-0.00873519
-7.71645e-05
-0.000483228
0.0214601
-0.0119354
-0.00493382
0.00643576
-0.00214031
-0.168488
-0.0116638
0.160175
-0.0118814
-0.0671556
-0.0348114
-0.0247404
-0.0159558
-0.0035216
0.00108435
-0.00343654
-0.0130682
-0.0159101
0.205745
0.161399
0.0510136
0.335731
-4.144e-05
-0.00515568
-0.0156724
-0.00843709
0.106279
-0.0209735
0.0486997
-0.00640671
0.227934
-0.00201047
-0.0017921
0.00726766
-0.0333363
-0.000208356
-0.0345089
-0.00558035
-0.0209143
-1.23984e-05
-0.00622515
0.00148674
-0.0189449
0.0314415
0.0371037
0.0189406
-0.0144447
-0.0341053
0.119834
-0.00152973
-0.00177592
-0.00182732
0.474054
-0.000152623
0.0763709
-0.0206932
-0.0220155
-0.0253665
-0.0578116
-0.0286768
-0.0366438
-0.0211702
-0.00477016
-6.9138e-05
-0.00396648
-0.0208724
0.103756
0.00129399
0.182632
-0.0356964
-0.0141881
-0.000688973
-0.0315797
-6.85385e-05
0.151946
-0.033145
-0.0283332
-0.0260702
-0.00641726
-0.0410495
-0.00136071
-0.0439973
0.106137
-0.0269212
-0.105469
-0.00120254
-0.0281963
-0.0200546
0.0149503
-0.00327611
0.145803
-0.00206797
-0.0177555
-0.000724836
0.163533
-0.0421419
-0.0267009
-0.00283396
-0.0103863
-0.00280504
0.209492
0.000532424
0.240995
-0.00678752
-0.000935849
-0.00103594
-0.00238261
0.210724
-0.0715519
-0.00742004
0.000196271
-0.0146894
-0.026395
-0.00122666
-0.0278462
-0.0167273
0.0600918
-0.00478736
-0.00138291
0.441164
-0.0706086
-0.0271099
-0.0665886
1.61613e-05
0.0791812
-0.00334744
-0.0263152
-0.00595592
-0.0382116
0.00185299
-0.000499973
-0.00254771
0.00268254
0.202624
-0.00536051
-0.00168597
-0.00467573
-0.0712225
-0.00840107
-0.0213486
0.00251519
-0.00845963
-0.00821775
-0.00322506
0.208284
-0.0503892
0.00257339
-0.00378651
-0.0277725
-0.0130245
-0.0533561
-0.00158851
0.0958741
0.0223025
-0.00824692
-0.00182372
-0.0150724
0.497393
0.203863
-0.0115319
-0.000431057
-0.00236981
-0.00642594
-0.00414489
0.0202543
-0.000427114
-0.0295255
-0.00172536
-0.0164418
-0.0796227
-0.00132738
-0.0187089
-0.00116813
0.319298
-0.00756547
-0.0114932
-0.0352007
-0.00153069
-0.0296109
0.0858611
0.440961
-0.0113858
-0.012429
-0.00175847
-0.000570848
-3.04893e-06
-2.21819e-06
-0.0106649
-0.000613501
0.129293
-0.00080895
-0.00165969
0.00642158
-0.000180366
-0.0484728
-0.0881303
0.0169712
0.0410729
0.0266819
0.0645903
-0.0683424
0.09434
0.0728124
0.100089
0.126525
-0.0126032
-0.000818143
-0.00856909
-0.0985003
-0.00316196
-0.0154361
0.0428899
0.356617
-0.0772897
-0.000377483
-4.4008e-05
-0.00115979
-2.67534e-06
0.00419619
-0.000623374
-0.00696354
-0.0514311
0.000340014
0.0019669
-0.000163713
0.06866
-0.0152419
-0.0634626
-0.00157278
0.319745
0.314166
-0.0110786
-0.109197
-0.0289475
-0.0235122
-0.0153528
-0.00184358
-0.112619
-0.0546966
-0.0526489
-0.074474
-7.77746e-05
0.203777
-0.0321767
-0.00916978
-0.0512954
0.0178878
-0.000465466
-0.00902425
-0.00113345
0.00791555
-0.00215507
0.187649
0.000204894
0.00937294
-0.000284451
-0.109092
0.00800432
-0.00119126
-0.000735226
0.00018728
0.0265209
0.126406
-0.00426945
-0.0013019
-8.62517e-05
-0.000511059
-0.000417974
-0.0666468
0.128933
0.0135597
-0.000171463
0.00535348
-0.000442039
0.229872
-0.067933
0.270411
-0.0474585
-0.000330563
-0.000340647
-0.00795542
-0.00537234
-0.00074414
-7.3818e-06
0.0241067
0.0288293
-0.000161073
-0.000433071
-0.0202809
-8.47949e-06
0.172047
-0.000950801
-0.0574496
-0.0202681
-0.00599081
-0.0618303
-0.0732642
0.155334
-0.0387901
-0.0200382
-0.000222513
-0.0606914
-0.0198407
0.00464095
0.124487
0.35627
-0.000916516
-0.0654547
0.00683685
0.325762
0.0400677
-7.55543e-05
-0.00640153
-0.00378926
-0.00512488
-0.0428463
0.0956593
3.58432e-05
0.0113734
0.00124458
0.0817802
-0.000413567
-0.000147012
-0.104058
0.29906
-0.0586589
0.161523
-0.00195818
-0.000147871
-1.15498e-06
-0.123887
-0.0371241
-0.000368199
0.115474
0.0105243
-0.00543685
0.392561
-0.000559921
-0.00416139
-0.0687759
-0.045834
-0.00197295
0.139149
-0.0929507
-9.61546e-05
0.00537224
-0.000197488
-7.62715e-05
0.149095
-0.0109038
-0.000315569
-0.051044
-0.0261288
-0.00301687
-0.0531086
0.0018624
-0.0219409
0.0010458
-0.00353683
-0.0721122
-0.041244
0.0109904
-0.000963262
0.164786
0.210804
-0.129438
0.00639459
0.0183848
-0.00446398
0.170342
0.116451
-0.027001
-0.000119765
0.00717043
-0.051661
0.00367483
-0.0334591
-0.00218087
0.0424884
-0.0306468
-7.95119e-05
-6.30111e-05
-0.061415
-0.0366629
-0.0255096
0.00744061
-0.0017592
-0.0511907
-0.000160877
-0.00167423
-0.000213038
-0.0488478
-1.22094e-05
-0.00183197
-0.0723384
-0.141311
0.135384
-0.00303401
0.00348055
-0.0251256
-0.0259755
-9.60196e-05
-0.0417247
0.132981
0.161476
1.21329e-05
-6.50112e-05
0.164457
-0.00257919
-0.127556
-0.0359139
0.00276517
0.000110258
-0.0663123
-0.0441462
0.16845
-0.0526811
-0.0012774
-0.0176427
-0.0678649
-0.00054545
-0.000155577
-0.00090128
-0.0274396
-0.0522366
0.163262
-0.000146127
0.462987
-0.0238704
3.08848e-05
-0.00133124
8.63263e-05
0.000105755
-1.00164e-05
5.12961e-05
-0.0526179
-0.000787594
0.000256897
-0.000127654
0.145082
-0.00556719
-0.000131087
-4.73401e-05
0.38492
-0.0238579
-0.0556303
0.000584492
-0.000668994
0.0595529
-8.19202e-05
-0.0216633
-0.149333
0.00170186
-0.00973638
-6.12997e-05
-0.000160802
-0.0355277
-0.0963376
0.00649053
-0.142197
-0.0891442
-1.28242e-05
0.0212836
0.0334929
0.113208
-0.00148849
-0.000106533
-0.0639934
-0.00595998
-0.000623054
-0.0505303
-9.62105e-05
0.0373531
-0.000140174
-0.00099727
0.00660369
-0.00323383
-0.0617523
0.446838
-0.00189307
0.000148509
-0.0708169
-0.080884
0.00727482
0.0039914
-8.96614e-05
-0.0329276
-6.62217e-05
0.20014
0.528966
0.0893704
0.00245879
0.00286611
-1.21482e-05
-0.0326859
-5.26358e-05
-0.0137216
-0.00168434
0.000166125
-0.00301806
-0.0137199
-7.29262e-05
0.000546101
-0.0142248
-0.000228161
-0.0135139
-0.0181583
-0.020815
-0.00167905
0.481329
-0.00101718
0.00192563
0.000126734
0.0133119
-0.0490247
0.00865606
-0.000132612
-5.96818e-05
0.00152353
-8.46142e-05
-3.3909e-05
-0.0162849
0.000447544
-1.14207e-05
-0.0553877
-0.00352056
-0.0534904
-0.00155389
-3.68019e-05
-0.00270702
-0.0209256
-0.019228
-0.0379621
0.00181301
0.000270974
-0.000414549
-0.00153564
-6.97763e-05
0.285119
0.00115026
-1.03928e-05
0.000217149
-0.00215931
-0.000472276
-0.0605795
-0.0541527
-0.000162258
-0.00728175
4.12622e-06
-0.00434679
-4.29814e-05
0.0365105
-0.000106328
-0.000217261
-0.00550868
-2.04288e-05
0.0128985
-0.000178219
-0.0010896
0.018616
2.9404e-06
0.379458
-0.0594808
-0.0454836
-1.79976e-05
-9.81642e-06
0.00121614
-0.000972444
-0.0645089
-8.83317e-06
-3.09644e-06
0.000437216
-1.32369e-06
0.00021509
0.000270209
-0.000382108
0.000513974
-0.0534983
0.473964
-0.050086
0.351013
0.0082997
-0.0231914
-1.04818e-05
-0.000653003
-0.0134986
5.69659e-05
0.00015441
8.04083e-05
0.0710646
-0.00212501
-0.000280955
0.439147
-0.00034535
0.000255913
0.000307317
-2.22757e-06
0.0562571
-0.00233216
0.000788238
4.72391e-05
-0.000951933
-3.45141e-05
-0.00160343
-0.0490365
-0.000305818
-0.0026782
-4.93982e-07
-0.00335348
-0.000155681
0.196222
-0.000344727
-0.000445974
-0.062719
0.00309485
-0.000117442
-0.00120331
-3.01691e-05
0.179424
-0.0802112
-0.000558386
-0.000267016
-0.00336947
-0.000260037
0.0596406
0.122868
0.0306647
0.000173384
-3.14402e-06
-3.87663e-07
0.0582089
0.00013394
-0.0537545
-0.0407588
-0.0192918
-0.00985954
0.49437
0.00149523
0.215308
-0.0181242
-0.0330377
0.182569
-0.00022941
-0.0707956
-7.59195e-06
-0.00981414
-0.044295
2.39807e-05
-0.06982
-0.000738894
-0.0209774
-0.00851809
-0.0383165
-0.0449002
-0.0054438
-0.0752375
-0.0399362
-8.91415e-05
-0.0108867
-6.74722e-05
-0.0342601
-1.15978e-05
-9.79698e-05
0.0102372
0.173118
-1.18089e-07
-0.0510382
0.00276179
3.17265e-05
-0.0283382
8.56541e-07
-0.0120547
-0.000285101
-0.0349652
5.51945e-05
-6.11199e-05
-0.00272162
-0.000106341
0.16903
-0.034058
0.0862373
-3.71773e-05
0.000394319
-0.0290246
-1.34036e-07
-0.0630337
-0.069162
-0.0552375
0.469993
-0.00696414
-8.33536e-06
0.0257463
-0.0386528
-0.00406366
-5.80405e-05
-5.49455e-05
-0.0494465
5.01515e-05
0.000574785
-5.28304e-07
6.16506e-05
-0.0255079
0.148035
-0.0984927
0.106918
-0.00558554
-4.53841e-07
0.00363086
-0.0731337
-7.4148e-06
-7.48771e-06
0.000179528
2.84445e-05
0.000238859
0.273568
0.036095
2.49709e-05
3.29929e-06
-0.0664294
0.211987
0.189876
-1.43503e-05
-0.0394681
-0.0264566
-0.0148517
-0.0481748
-0.0124224
-0.0027788
0.150251
-3.90105e-05
-0.0291378
0.179283
-0.0543046
-2.57244e-05
-0.0598114
-0.000119141
0.332588
0.0267658
-3.24489e-05
-2.02022e-05
0.200514
1.39897e-06
-0.000142573
-0.010805
3.48279e-07
0.271895
0.00141648
-0.0066765
-0.0616543
-0.00385007
-0.110787
0.194812
-0.024315
-0.0472014
0.000664435
-1.47653e-05
-0.00121048
-1.72603e-05
-1.47133e-05
0.0189281
0.191016
0.159446
-0.000403641
0.255358
-0.0202002
1.33283e-06
-0.0423241
-2.36566e-05
-0.0314681
0.0282287
-0.0201266
0.00319711
0.00138754
-0.0084623
6.78303e-05
-0.0016754
0.0171904
-0.00230258
-5.21841e-05
1.37391e-05
-3.35282e-05
0.0322942
2.03668e-05
-0.0323423
0.26875
-0.00697234
2.30901e-05
-0.00311424
-1.35494e-05
0.0959052
-0.000205942
-3.86618e-05
-3.45318e-05
-8.67236e-06
0.221039
-0.000147487
0.260106
-0.0777333
4.22153e-05
-0.0645785
-0.000764214
0.166422
0.445902
-0.00105009
1.33953e-06
2.67339e-06
-1.38657e-05
0.155964
1.56857e-07
0.000626909
-0.0215609
0.244259
1.68918e-06
3.68553e-06
1.79669e-06
1.19307e-05
-0.0226018
7.53935e-07
0.312857
-0.0218004
-5.73091e-05
1.46117e-05
-0.00162981
-0.0273298
9.05417e-07
-2.81238e-05
0.175621
1.60704e-05
-0.0356958
-0.0847006
5.94373e-05
3.06898e-07
-0.175112
6.98706e-07
0.178271
8.42872e-06
-0.00038016
4.04193e-06
-8.00893e-05
0.0993575
1.27414e-07
-0.0015537
6.54591e-07
0.00872883
-0.00378515
-0.00557275
-0.00159744
0.163392
-0.000411686
-5.96235e-05
-0.00798613
-0.00798872
-0.000125625
-8.47401e-05
-0.0009124
1.35019e-05
0.209761
-0.0139446
0.487515
-2.44401e-06
-0.00765731
-0.000241547
0.147768
2.19567e-05
-0.0319968
1.16174e-05
-0.00143158
-0.0367349
-0.000139646
-0.0171231
-0.056129
0.00326137
-1.58847e-05
-0.082713
-0.000170024
-0.000517339
-0.00529646
-0.026602
0.000720211
-9.78743e-05
-0.00034658
-0.00148077
-0.00110836
2.0169e-06
-0.000998518
0.442176
4.30825e-05
-0.00281621
-0.0384411
-0.0657623
-0.0691895
-0.0448043
-0.0244041
-0.0008837
-0.0277819
3.27061e-05
-5.48079e-05
0.461283
-5.31926e-05
0.200746
-0.000247702
0.000187869
-0.00089128
-0.101951
-0.000312742
-0.0012727
-1.32168e-05
-0.000276002
-2.99142e-05
-4.90848e-05
-0.0135117
-9.0499e-05
-5.39342e-05
-4.82656e-05
7.21136e-07
-1.22882e-05
-0.0514086
0.277902
-6.18805e-06
-0.000351497
-8.60093e-05
1.38696e-05
-0.00059367
3.17436e-06
-0.000676103
0.000111709
-0.00024218
-0.0673395
-0.000540703
-0.00193649
1.0692e-06
-0.00248513
0.000181431
-6.26634e-06
-7.0703e-06
6.75168e-06
-0.000492324
0.000280346
-0.0525786
-0.0346521
-0.0652322
-0.000383064
-0.00313975
-0.035432
-0.0630577
-4.28288e-05
0.0124125
0.00496846
-0.000649043
-0.0126829
-0.0503311
0.440221
-0.000259688
-8.98305e-06
0.000392896
1.85523e-05
8.33572e-06
0.0791874
0.00192028
0.0924948
-0.0533838
0.416519
-0.000296997
3.02541e-08
6.4835e-05
-1.30782e-05
-0.000893827
0.169185
0.229639
-6.16069e-06
-0.000130366
-1.78029e-05
0.218213
0.0118322
-0.0116247
6.07734e-06
9.82198e-06
0.00614834
-0.000417782
-0.0851521
-0.0185454
3.07637e-06
0.00249659
-0.0399844
-3.4363e-05
0.0011637
-6.44238e-05
-0.0478381
-0.00120664
0.158925
8.23541e-06
0.00118858
-0.00211527
6.09102e-06
7.46414e-05
-0.0257458
6.52538e-06
-0.000572573
6.12065e-06
-0.0169551
-0.0448093
-0.00504547
-0.0124696
-0.00771365
0.00808024
-0.009184
-0.0018228
2.8063e-05
3.35884e-05
6.58162e-06
6.58254e-06
-2.96171e-05
0.00713316
-0.0766488
0.000273508
-0.066993
-0.00227435
-0.0729684
3.81667e-05
-1.01228e-05
0.000874487
-0.0791982
7.28582e-06
-0.0650408
-0.0181691
0.0275762
-0.0686922
1.07319e-05
-0.00259442
8.36394e-05
-0.154966
0.141093
-2.32637e-06
-0.0720412
-0.0287397
-0.00328605
1.14674e-05
-6.04055e-06
0.0222239
-0.0142217
5.07105e-06
-0.00624203
-1.94117e-05
9.15173e-05
0.131413
-5.08559e-06
-1.18015e-05
-0.000107858
1.14683e-05
0.000564106
3.82894e-05
-0.00411599
9.46466e-05
-0.0137297
0.00068344
-0.000195435
-0.0457655
-0.0491947
-0.00649068
-6.87779e-06
7.81438e-06
-0.0907195
0.00462177
-0.0521788
4.12715e-06
-0.00520116
-1.18231e-05
7.77599e-06
0.0767439
-0.00554243
-0.002052
-1.09052e-05
-0.0217458
1.91862e-05
-0.0747955
7.33478e-06
-0.0857147
-5.65599e-06
-3.93007e-06
3.70603e-05
0.000664595
-0.114245
-0.0156792
-0.0864395
8.5403e-07
3.05412e-05
-0.0838234
-0.0399323
-0.00687291
-4.91014e-06
-0.0517074
-0.0653955
-0.0815689
-6.26183e-06
-6.46627e-06
-2.24743e-05
-0.115499
-0.0856426
0.000394315
-0.00900193
-4.76252e-05
0.265122
4.18507e-05
-2.06328e-06
6.54373e-05
-3.61005e-05
-7.33424e-06
-0.00356982
3.36936e-05
-0.00256487
-0.084352
-0.010974
-0.0501479
6.94707e-06
-2.44592e-05
0.0524839
-0.0821175
-0.00370614
0.118658
-4.13563e-05
-1.04885e-05
-9.26831e-06
0.136346
7.66486e-05
-7.84942e-05
-8.89847e-06
-0.0871691
-0.0131743
-1.24226e-05
-4.53813e-05
-0.00993829
-0.00507658
0.0001815
0.233027
-0.0802206
-0.000849914
0.568484
-6.557e-05
-0.000939347
-0.0117181
-0.0784785
-2.95255e-06
-2.08557e-05
9.88567e-06
0.00355372
-0.0474869
-0.000337394
-0.0592597
-0.00621136
2.27e-07
-2.93832e-06
-0.00830374
-0.0160667
-0.0274161
-0.0948538
-0.0459067
-0.042523
-0.00578634
-0.032788
-3.88955e-05
0.000160628
-0.00235601
0.000313224
-0.000206622
0.000393604
-1.08468e-05
-0.000173453
-0.00997876
-6.18587e-06
-2.81362e-05
0.0343462
-0.0396968
-0.000364295
-0.000120366
-6.85899e-06
0.252068
-0.00702962
0.000374418
-0.0343006
0.000114296
8.87089e-05
7.84763e-05
-3.31462e-05
0.000246446
-0.0451008
0.0117611
-4.99206e-06
-0.000296283
-0.0527492
-0.0435641
0.0498384
-0.000270371
0.00134304
0.016599
-5.91501e-06
1.57949e-05
-0.0692006
9.5986e-06
0.170349
-2.35399e-05
0.003306
7.68917e-05
9.94598e-05
-0.0718218
-0.00810437
-0.0196486
-0.00185636
1.1202e-05
0.00317604
0.0634237
-0.0139478
-0.000104126
0.0990786
0.167202
-4.6589e-07
-0.0584921
-5.11046e-05
-1.02562e-05
-2.30872e-05
-0.000322313
0.0187163
-3.83485e-05
0.000107547
-0.0226119
-0.0281737
-0.018561
0.31218
-1.29883e-05
-4.35275e-05
0.175418
-0.0169073
-0.00386477
-0.000379746
0.173121
-8.69326e-07
-0.000635814
-2.27371e-05
-2.4671e-05
1.24614e-05
1.28776e-05
3.21221e-05
-0.0159003
-6.26557e-06
-0.003738
-0.0467988
0.258086
-0.000438316
-2.64806e-05
0.00370864
0.0888158
-0.0689398
-0.000454178
-0.0642887
0.312942
1.65799e-05
0.399933
-4.28584e-06
0.00224399
0.0232768
0.000229694
0.420525
-7.03842e-05
-4.72132e-06
0.000622922
1.1277e-05
-0.000524257
0.000125874
-6.34843e-06
-0.00158428
-4.38074e-05
-0.000114527
-0.00293051
0.248542
0.0520582
0.02097
-0.042829
-3.82937e-06
-1.97629e-05
0.00214331
-0.0801911
-9.1837e-06
-0.0470825
-3.40599e-05
0.108805
0.0638376
-0.0417301
-0.00120761
-0.0152588
-0.000603125
-0.0124872
-0.000323909
-0.00979197
0.066212
2.84389e-07
0.284916
0.0345686
-0.0010898
0.223001
-0.0146008
-5.87898e-06
-5.63059e-06
2.75824e-05
-9.85645e-05
-0.000123952
0.249366
-0.00076028
0.257691
-0.00186967
0.171002
0.236158
0.137649
-0.00753217
-8.13497e-06
-4.63508e-05
-0.00867904
-0.170794
-0.0621954
0.00102733
-2.40845e-05
-0.0383655
-0.000772807
-8.28402e-05
0.000656854
-0.00078574
-0.00135321
0.032761
3.24361e-05
-0.0457472
0.0598878
2.35267e-05
0.000111319
-0.0190489
-0.0819742
-0.000521198
-0.000334658
-1.29401e-05
9.32245e-05
0.10784
-0.0206796
-0.062639
0.000853853
0.115297
-0.0471173
-3.15331e-06
-3.68375e-07
0.0157251
-0.000185352
0.0961537
-0.00442437
-0.0114794
-0.000355386
0.00101473
-0.0460185
-0.000128061
0.000258074
-0.0106828
-0.0822729
0.173155
-0.0635248
-0.0311105
-0.000318463
-2.22426e-05
0.00571671
1.20732e-05
-0.0792324
-0.0840049
0.00031187
0.00196493
0.00299539
-0.14813
0.000353155
5.20203e-05
-1.05635e-05
-0.0494477
6.28752e-06
0.000314161
0.128103
0.18659
-0.163105
0.0505642
0.0492119
0.0139777
-0.000390164
0.00739286
5.46122e-05
5.19923e-06
-0.000218749
-1.17083e-06
-0.000150276
-0.000252588
-0.00806083
-0.0886938
-0.0106103
-0.0395666
0.0543283
0.0446472
0.00302113
-0.0831969
2.59078e-05
0.00289074
0.00920109
-0.000311491
0.0800828
-0.002345
-0.0130877
0.0093797
0.0045737
-0.000516825
-0.00416234
0.0432234
0.000456986
-0.0216899
-0.0189984
0.49726
-0.030964
0.0864866
0.0192687
-0.0518576
0.00151415
-1.38539e-05
-0.00193432
-2.23709e-05
-0.0018941
-0.0303851
-4.79177e-05
-0.000260368
0.306477
-0.00242229
-0.0477952
-0.01602
-8.76933e-06
-0.00294181
-1.83417e-05
-7.50754e-07
0.0376134
1.0308e-05
-0.00216977
0.0811926
0.00440432
0.000744414
0.0161367
-0.00604943
0.00332892
-0.158264
0.000457244
-0.00450426
-0.0673959
-0.00104351
-0.00862846
0.000248861
-0.00217456
0.000595142
0.0359707
-0.000680453
0.00440126
-0.0518218
-0.0239086
-3.72587e-05
-0.0489657
-0.0163421
-0.0148104
-7.9483e-05
0.00546892
-0.101376
-0.00062995
-0.00552175
-0.0460617
-0.0035145
-0.00101881
0.235172
-0.0316722
-1.29337e-05
0.00711242
-0.0685376
-0.000829116
0.202345
-0.00391161
0.000629327
0.0620481
-0.00129706
0.0064181
0.134134
-0.000317712
0.00076101
6.42469e-05
-4.81423e-05
-0.00348162
-0.0104015
-0.000465582
-0.0267243
0.105553
-0.0369094
-0.107592
0.000762204
-0.00298814
-0.00117301
-0.0763005
-4.63742e-05
0.0126627
-8.77602e-05
-0.0137566
-0.00153476
-0.0038829
-0.0215784
0.128877
-0.11694
-3.69939e-05
0.217412
-0.00274685
-0.00481707
-0.0639074
-0.124463
-0.0179338
-1.89952e-05
-0.00201441
0.00596868
-0.00272417
-0.00484399
1.05699e-05
0.0921929
-0.0608744
-0.012021
-0.00528821
0.0183736
-0.00755383
-0.00538654
0.00118492
-0.000593408
-0.00265853
0.125213
0.000332268
-0.173306
-0.000245339
-0.0058934
-0.00621401
-0.135597
-0.0131083
-0.162995
-4.29668e-05
-4.61072e-05
-0.00997869
0.00871226
0.000566864
-0.186595
0.0942358
-0.0607303
6.11234e-05
-0.203411
-0.000296364
-0.212518
-0.0288502
-0.22435
-0.220511
-0.207176
-0.155925
-0.0542134
-0.0147629
0.0218114
0.0597422
0.0966327
0.20004
0.232904
0.263326
0.313714
-0.00653658
-0.00903098
0.0667484
-0.0297282
0.000443046
0.00943437
-0.0478793
-7.9261e-05
-0.00145651
-1.98083e-06
-0.0170178
0.0164255
1.36213e-05
-0.00082312
-0.0085075
-0.0169632
-0.229096
-0.0235153
-0.0688125
-0.000143085
0.000148149
-1.67462e-05
-0.0852626
-0.0105819
-0.0459115
-0.0194559
0.00112218
-0.000159954
0.00374922
-1.28159e-05
-0.0265154
-0.000137638
0.000175789
-0.0128104
-0.0094884
-0.00113191
0.000150661
0.0501329
-0.0122999
0.0679212
-0.221768
-0.0159078
0.167087
-0.020537
0.00250112
-0.0254661
-0.00351084
-0.0104868
-0.0173557
0.337688
-0.002539
-4.587e-06
-0.0065021
-0.0111781
9.25719e-07
0.0850056
-0.00553762
0.32052