/*--------------------------------*- C++ -*----------------------------------*\
  =========                 |
  \\      /  F ield         | OpenFOAM: The Open Source CFD Toolbox
   \\    /   O peration     | Website:  https://openfoam.org
    \\  /    A nd           | Version:  7
     \\/     M anipulation  |
\*---------------------------------------------------------------------------*/
FoamFile
{
    version     2.0;
    format      ascii;
    class       surfaceScalarField;
    location    "17.5";
    object      phi;
}
// * * * * * * * * * * * * * * * * * * * * * * * * * * * * * * * * * * * * * //

dimensions      [0 3 -1 0 0 0 0];

internalField   nonuniform List<scalar> 
11512
(
147.424
-499.727
352.304
-756.113
-3.26942
759.382
406.698
-371.956
-34.7426
630.907
270.881
-901.788
1510.95
-1069.39
-441.56
1216.29
-1527.13
310.84
-61.8715
474.593
-412.721
168.5
-842.192
673.692
962.121
-1610.82
648.701
-1759.01
1666.13
92.8764
-542.945
1759.24
-1140.44
1934.25
-793.808
608.397
180.807
-789.203
-24.6374
-1313.16
1337.8
220.467
-1979.48
1023.11
-382.092
-641.019
-178.484
325.908
485.944
190.22
-676.164
1155.38
-1313.09
157.71
-313.208
376.14
-62.9322
1002.06
-1312.24
310.179
1221.51
799.19
-2020.7
72.4755
-1638.44
1565.96
-470.512
-1171.95
1642.46
477.045
181.508
-658.552
-190.355
-309.372
498.168
1012.78
1645.53
-1802.59
157.064
-87.5998
-1691.92
1779.52
-1558.74
651.465
907.272
-307.078
652.954
-345.876
-193.206
-153.74
346.946
1283.21
-1210.74
355.156
-1407.41
1052.26
-1754.36
1754.36
100.07
1529.75
-1629.82
-1078.68
-480.057
636.559
-698.43
-384.192
941.354
-557.162
1331.95
-1317.32
-14.6366
-1100.16
715.971
626.736
396.375
-392.77
-33.2719
426.042
-445.822
774.588
-328.766
-1618.56
1618.56
1253.59
-1437.9
184.306
-488.531
1710.04
1255.25
-313.891
1660.75
-1161.26
-499.49
73.7055
-386.913
2065.08
-1134.84
-930.234
1810.83
-165.302
456.231
155.566
-611.797
-458.382
971.083
-512.702
-1168.76
1268.83
-568.522
970.878
-402.356
401.204
754.175
661.279
-492.779
-437.007
593.922
-156.915
1190.67
-835.512
2308.19
-1080.66
-1227.53
1163.56
-2008.44
844.877
-1600.31
1575.67
440.694
-1581.14
-759.222
1250.79
-491.573
-672.095
365.017
1661.46
-699.342
-1106.93
-870.893
1977.82
677.601
-367.252
-310.349
689.534
565.712
-258.203
1511.79
111.253
-316.275
205.023
-284.224
761.269
-333.966
565.928
-231.962
-324.071
810.015
-317.342
-148.096
465.438
322.544
84.1548
1455.87
-453.811
-977.944
483.721
494.223
275.336
90.7536
-366.09
949.446
-341.049
-1699.9
653.647
1046.26
16.8049
-853.21
836.405
-281.171
594.969
-313.798
156.967
-1093.76
936.796
1051.83
-1067.3
15.4765
372.72
518.986
-891.707
-244.681
700.912
-1103.78
-482.068
1585.85
-678.755
951.479
-272.723
1357.32
-1444.92
-634.073
278.603
355.47
-470.183
-1011.57
1481.76
-539.022
-793.341
1332.36
576.417
-996.402
419.985
-268.401
-317.699
586.099
405.136
-293.883
-1037.95
579.566
955.315
-798.349
-110.263
944.06
-833.797
-210.74
417.48
-206.741
-626.012
-351.931
-386.557
962.974
1856.38
-1856.38
-467.447
-166.627
-951.646
1555.55
-603.903
497.301
-929.425
432.124
-923.693
355.171
-941.91
-1058.08
-1489.29
345.437
1143.86
-280.423
911.33
-314.597
616.064
-301.467
-1941.9
999.994
-1138.35
-350.947
549.47
-1501.12
1728.51
-1725.58
-2.92545
205.54
-602.505
396.965
-1457.05
973.899
483.147
285.686
214.666
-500.352
310.685
-644.651
244.299
-420.516
176.217
2015.07
-870.898
-1144.17
-545.352
152.582
617.202
834.592
-1451.79
-182.842
427.141
431.174
876.868
-1308.04
-907.347
393.362
513.985
-1045.92
1447.12
-1068.88
309.658
751.39
-98.4352
551.386
-287.581
-263.805
1003.8
-520.083
593.28
-1403.88
810.598
-1342.26
238.481
-546.192
265.021
-1181.52
901.097
1944.95
-982.445
-962.509
276.805
1579.58
-2094.03
894.707
1199.32
368.607
-29.982
-338.625
-223.522
483.826
-260.304
-107.465
-380.657
488.122
-464.821
147.479
342.406
-129.047
626.347
416.467
383.448
-799.916
-2036.87
1113.45
923.424
460.502
-531.08
70.5782
224.258
-366.375
142.117
1019.1
995.969
1781.72
-251.967
724.073
-445.47
796.899
-1389.78
592.877
347.075
330.526
1050.77
-1033.96
-499.928
-229.494
729.423
475.594
-135.413
-340.182
797.466
-616.66
562.007
-725.375
163.367
503.326
1157.42
-1239.84
700.814
1043.99
-1514.5
-3.13539
-1439.43
1442.56
325.328
824.721
-1150.05
623.402
269.775
-893.177
-2269.84
1140.1
1129.74
-1100.82
-1169.02
202.708
359.299
958.509
-633.181
879.512
-899.148
19.6354
-2099.38
992.452
-231.373
-190.957
422.33
-41.7289
1770.24
-827.973
71.8601
-1027.76
-1066.27
-229.229
453.487
-669.793
202.346
-268.884
-424.484
693.368
1104.04
-1574.23
783.055
-1374.47
591.417
693.973
-423.093
1947.87
-1444.55
-378.28
-1376.08
76.9541
397.639
-530.187
526.917
14.8366
-570.407
555.57
569.205
-283.518
-604.235
280.081
324.154
780.737
-364.27
32.8841
335.723
1188.47
-1191.61
175.047
230.089
393.057
-661.941
619.764
-1006.32
-2026.71
2026.71
-254.051
-447.277
701.328
699.284
405.806
-1105.09
579.078
172.311
402.394
378.343
-2199.75
1328.85
-926.622
-678.893
1605.51
-488.256
-693.264
-258.654
548.066
-289.412
825.825
-191.041
-634.783
-440.599
646.139
368.288
-682.885
-360.624
-130.995
491.619
-1327.72
-474.873
624.044
-1112.3
-374.139
-1244.42
844.327
1463.86
298.065
-941.523
643.458
966.117
-339.381
1391.41
-798.129
443.273
-268.227
-328.269
-870.569
564.275
306.294
-325.896
-544.672
309.132
-416.597
-214.808
-148.435
363.243
-392.692
1091.98
435.001
-244.781
-393.582
1349.95
-169.581
-1180.37
-468.83
281.29
187.54
227.149
252.534
-479.683
25.0589
-750.434
592.088
-1729
1136.91
1481.98
-864.779
-1049.03
-408.017
-1057.02
573.248
483.774
1377.1
-403.204
929.316
-1411.38
-158.916
-201.604
360.519
-469.471
580.867
-1626.79
427.972
903.982
280.523
298.621
-579.144
568.077
1186.29
1103.71
-714.43
-389.278
402.547
-217.383
-185.163
-1419.46
445.144
738.283
-1183.43
1473.33
-544.015
-489.939
926.409
-436.47
426.144
1186.16
-1612.31
47.2837
-726.039
-145.818
421.154
225.701
-418.907
529.892
473.911
-617.084
62.4229
554.661
1024.54
-1307.67
283.132
663.93
-261.536
468.242
-1447.24
978.996
407.064
1686.42
-522.86
908.385
1036.57
-661.623
-1684.5
757.877
564.431
397.352
-961.783
454.004
78.7777
1749.94
-1828.72
1443.75
-379.475
-1064.27
1699.11
-1740.84
-367.489
-521.231
719.935
-198.703
-502.59
182.959
292.635
-373.001
-1226
214.43
-764.549
-639.328
-654.983
999.215
-344.233
-654.106
644.303
9.80263
655.119
-923.783
268.664
-765.832
389.055
376.777
-648.619
-686.236
350.546
335.689
-932.334
1400.58
-415.042
885.568
-470.525
-2205.3
5.55796
179.163
-535.155
355.992
141.956
1208
-98.3506
-571.442
159.099
-596.106
1487.16
-704.109
378.177
-463.34
85.1634
-570.334
570.334
1223.11
395.457
1777.89
-1228.7
589.104
639.6
849.925
-52.459
1291.51
773.567
-540.041
1336.94
293.55
301.419
274.889
-796.12
239.469
-685.292
231.666
-444.214
212.548
-236.161
576.549
-340.387
123.823
-359.985
-591.99
-564.488
1156.48
-369.491
536.65
-167.159
-1192.16
2032.04
-839.886
1289.63
-331.126
-406.004
137.603
-1980.88
808.933
1529.08
-846.766
-682.311
1986.95
-877.425
-1109.52
713.479
576.156
-239.581
471.247
-675.557
1139.18
-463.627
-770.097
1201.27
551.578
924.641
-1724.98
800.343
-543.75
-74.8134
618.563
297.452
253.934
410.242
-98.899
-311.343
896.896
-83.4068
-813.49
915.231
-559.871
-355.36
1576.21
-472.161
889.103
-1626.37
737.262
1068.48
879.389
748.578
-442.657
-305.921
-1059.05
-258.263
561.056
578.796
-1139.85
-458.792
507.899
-49.1069
575.934
-343.781
-232.153
-983.382
568.34
595.766
886.215
-441.795
1096.91
1411.63
-776.402
-635.225
396.099
-924.62
528.521
-1021.72
395.709
550.542
-1040.48
456.051
-528.428
72.3768
471.999
302.589
-521.815
-48.5196
-794.321
-878.096
1672.42
193.225
209.322
-215.308
418.016
-28.9211
-553.324
582.245
492.173
867.396
-1359.57
-522.23
307.421
985.952
-89.0551
836.369
-1064.84
228.467
395.308
846.308
-1386.35
-448.189
831.638
1977.69
-1284.11
-693.58
270.184
609.328
255.979
795.847
82.0574
-963.639
881.582
1673.74
-1089.06
-584.678
-137.837
1887.78
-1866.05
-160.658
483.634
-621.736
138.102
-1013.82
526.347
487.471
-1730.48
538.319
-955.837
845.574
391.497
202.425
586.602
-288.537
-422.327
710.715
255.402
74.6014
708.338
-782.939
-1129.1
-899.178
2028.28
-537.77
1100.6
-562.826
-467.842
-342.123
110.75
-1654.55
860.228
-866.676
-594.866
1461.54
-332.165
-294.773
626.938
358.167
-645.595
287.428
241.985
-606.255
317.831
203.659
-521.491
345.792
-604.445
617.433
-259.266
313.669
-461.764
675.867
407.692
-180.543
-385.654
-300.581
1218.82
-2.92058
-1215.9
1039.72
-419.953
560.377
410.501
-1782.37
869.821
912.55
492.208
548.383
-1040.59
-535.776
203.611
-262.914
1180.79
-917.871
-1590.89
1212.61
504.586
-1096.58
385.599
-7.42194
427.042
302.903
-729.946
372.735
-617.415
-31.9144
755.982
-724.067
-526.199
795.974
385.044
322.688
527.237
653.781
91.4407
-401.947
310.506
1058.98
-645.324
-413.659
494.011
-1664.27
1170.26
-1140.43
1753.23
-612.802
1715.82
-1123.73
-333.841
613.922
-1182.24
1264.3
425.279
-797.663
1602.11
-804.45
-258.203
-210.627
-889.472
1469.97
1812.42
-611.222
-1201.2
-404.706
645.926
-1300.91
-124.82
-45.9096
456.152
-679.55
-354.168
-1236.72
-220.852
462.836
903.619
-559.59
178.933
-1674.56
-71.1975
1745.76
-1063.45
525.679
568.999
-1182.09
613.093
901.059
911.366
630.799
619.996
684.509
241.901
-1133.05
457.49
-399.816
414.653
619.601
-515.226
245.603
-732.288
486.684
690.206
-343.132
-334.352
180.612
-600.123
237.725
362.398
-887.758
-738.608
1087.67
-2145.75
399.507
-683.731
-342.818
-724.484
833.769
577.858
-343.65
310.378
370.024
212.47
650.943
-863.413
527.352
611.832
-534.45
173.826
359.312
-613.363
-1037.49
-855.827
1893.32
-1795.67
157.229
1107.09
-1370.01
1156.36
-724.575
-431.783
-503.545
1349.85
-1495.53
627.866
867.662
-288.939
-210.58
499.519
1428.39
558.555
341.915
-472.911
-484.31
-566.866
1051.18
-418.929
598.092
1582.29
-1129.2
-453.092
-773.661
326.383
654.884
404.098
-1623.42
416.159
1207.27
-191.331
509.162
797.799
784.488
197.748
-684.57
486.822
207.452
210.028
-293.428
-107.824
401.252
486.17
0.00549309
-486.175
-1635.17
586.141
-1604.87
1670.49
-65.6226
10.6268
-1615.49
1069.61
761.812
-334.77
-808.122
-213.6
-1134.52
-239.949
-311.418
684.153
-1812.4
-628.52
1207.32
212.521
758.562
-1329.93
-678.508
-465.393
609.653
-329.13
-1013.28
1350.76
-1932.84
582.079
646.22
1288.03
487.268
-3.44231
717.482
703.722
-1421.2
-638.282
335.701
302.581
440.806
-99.4376
-341.368
149.528
299.793
159.242
-459.035
-583.589
1148.02
463.094
-625.951
-462.007
-401.576
863.583
-328.854
169.938
-456.903
163.02
-305.021
-708.797
549.661
-108.855
-571.131
967.23
581.14
-270.065
-311.075
455.952
-780.023
-646.173
443.077
-1129.41
-835.965
1181.4
-569.763
452.933
276.49
-452.286
85.0345
1028.86
-317.623
594.486
-276.863
-509.028
1578.64
-680.802
236.843
373.294
-610.137
218.062
482.492
-26.6466
-455.845
-256.492
-200.411
1017.56
1108.94
564.796
-873.203
940.696
-67.4927
-458.735
169.797
-730.183
305.699
-592.025
322.458
367.749
823.965
-1233.14
409.17
777.399
-809.314
-948.972
-550.364
1499.34
-164.715
463.336
-543.996
256.415
1299.57
774.238
-576.49
1311.43
-687.383
487.439
-677.001
-408.752
-423.681
-378.226
801.907
502.957
-844.007
-453.514
91.5257
361.989
-323.41
572.403
728.935
-329.428
-244.392
-173.323
417.715
-489.872
140.626
349.246
1457.8
80.8468
-1538.65
-750.941
1346.71
-1144.75
-466.076
538.466
-165.171
1150.47
-373.067
1083.51
492.697
695.478
-420.589
-885.108
-522.304
-1328.45
-26.4042
985.026
-958.621
594.945
328.859
-923.805
-330.021
-215.331
-675.832
405.518
1621.19
-178.715
370.004
347.489
-717.493
-1839.77
-2106.68
1519.14
587.539
-2037.34
345.416
361.691
534.95
-896.641
-460.068
1020.44
-393.685
-672.006
1065.69
-2030.53
1391.21
639.32
597.942
-991.627
43.736
412.315
386.334
196.138
247.136
317.777
959.633
863.81
679.823
-325.995
-353.828
-294.038
621.263
-327.225
573.487
530.221
565.472
514.779
-1080.25
-796.238
-699.291
752.431
398.035
-414.19
701.618
-1193.42
1609.58
418.507
-1090.51
-333.377
537.036
-1381.89
869.334
512.559
-714.54
-352.216
-783.771
360.9
422.871
446.983
718.388
-1165.37
1070.77
-578.566
-406.785
660.427
-253.641
255.22
325.92
-468.416
-431.833
900.248
-236.251
559.17
-951.93
392.761
-459.807
600.598
-1681.26
423.659
671.108
-1094.77
520.995
95.069
113.407
-2212.79
537.262
-84.3294
1444.02
1777.09
-217.553
-1559.54
-438.429
1789.19
-1986.94
1194.46
792.48
402.686
345.893
-36.5995
870.368
-1283.35
718.863
-869.992
-822.843
796.439
304.108
62.574
-366.682
232.124
186.913
-419.037
1553.03
-835.545
-1530.95
-325.43
486.614
-212.027
-274.587
395.102
366.167
248.893
360.76
-9.00262
1001.6
-992.6
376.289
280.013
-656.302
-734.049
1817.29
-1083.25
-342.379
737.481
-1217.27
-412.552
-915.562
483.729
572.743
-779.147
206.404
761.545
-380.802
-380.743
-427.3
-445.903
448.864
1077.89
1237.32
-668.323
801.179
-345.227
384.391
316.937
-245.623
-217.717
-204.507
611.571
407.684
-847.704
440.02
217.02
352.411
-569.431
-422.953
830.637
754.632
-1147.32
884.939
-60.974
-489.565
275.873
774.896
-95.8143
1383.84
1890.5
-60.91
342.2
-317.803
409.243
-1086.01
1077.01
625.182
375.96
385.585
73.8711
412.743
263.185
496.197
-371.706
-266.576
-564.767
-89.339
-359.678
365.167
-5.48899
-256.973
-289.219
1011.05
-1540.7
529.646
-193.132
-178.824
-385.879
665.892
-1633.63
1591.04
-963.175
259.316
-668.068
584.312
1224.42
-1808.73
607.397
983.644
307.49
-1120.69
698.363
-286.59
-292.553
1375.88
-1445.53
826.467
619.063
423.058
-627.962
204.904
-372.092
476.903
-104.81
375.851
110.319
1723.83
458.553
-251.101
557.622
-1704.79
1147.17
-93.6546
394.028
342.553
337.27
-448.413
-615.794
1064.21
416.976
-865.165
-641.176
902.954
570.377
-514.411
-251.42
-439.061
-408.643
-307.215
-827.308
1821.12
-1821.12
-104.508
-1589.69
1694.2
292.882
283.052
-917.284
-555.311
1472.6
-408.097
973.569
-594.837
-1040.33
687.2
390.532
-1077.73
475.644
-161.975
573.06
1220.35
-1793.41
-1041.61
2114.78
-1073.17
-374.823
-297.272
-489.093
815.476
-1751.41
1600.8
150.606
1751.41
-1605.02
-146.386
-246.033
523.731
-277.698
-537.277
1620.78
1563.58
-1976.13
1082.91
-290.085
-257.678
547.763
234.516
-567.893
-698.507
284.317
1341.41
636.275
580.107
483.567
-1063.67
277.534
417.944
875.448
500.084
-1375.53
533.61
-1017.92
1574.94
-563.89
-775.645
-363.233
-123.938
487.171
-489.924
1208.31
-741.808
333.604
367.308
367.51
250.656
-618.166
602.026
831.877
-603.41
263.714
676.982
-514.411
-325.811
-232.972
558.783
1168.56
-672.916
610.018
465.724
-1075.74
-1292.72
1292.72
-386.556
762.516
-283.511
-476.92
760.431
489.585
445.102
-934.687
390.142
-673.652
610.533
-868.78
258.247
-367.034
-494.039
1074.15
-661.538
-710.048
1371.59
-375.93
935.099
-1552.69
675.269
32.661
-415.983
383.322
-510.701
713.047
252.614
323.935
169.933
305.71
-520.011
233.42
1869.46
-1965.27
264.734
-705.333
450.067
-821.728
371.661
-915.8
1412.99
-497.191
-429.588
-485.974
600.712
1124.2
-1724.91
-714.979
340.156
-460.707
1034.19
-779.893
1043.61
-379.63
-627.878
-489.04
728.509
540.349
-358.842
906.561
-306.054
-183.818
1599.02
-1816.57
-345.783
-606.147
-337.3
477.927
263.245
-592.375
-177.065
1062.14
-786.266
207.015
-288.779
-279.2
567.978
393.169
-879.417
486.248
-485.614
-452.426
-941.523
-349.962
578.2
-228.237
-449.534
-427.832
-334.88
-186.611
-391.473
642.129
-446.518
763.455
-1072.74
624.328
-1407.6
540.924
-27.9719
-1835.38
1863.35
569.88
-449.552
1216.51
-690.832
335.811
-335.811
670.825
-439.96
1040.79
-1635.63
-1158.73
-947.947
292.685
328.578
886.55
715.563
-496.185
-301.969
798.154
1657.48
-1685.45
-434.46
345.788
223.416
1134.88
-524.862
-943.332
1550.47
-607.141
443.436
-247.298
378.111
383.318
-761.429
532.058
471.409
-1003.47
-331.165
664.769
-37.8752
1907.33
1590.26
992.861
-1696.97
727.165
-1177.1
449.939
-492.445
1367.89
837.709
-1341.25
-560.077
269.991
798.768
-401.415
552.001
-1188.64
636.638
-637.413
-1215.54
-695.647
1911.18
-193.827
548.833
-355.006
-173.973
305.385
-499.212
328.97
369.822
-698.793
-1483.32
756.932
726.388
884.106
-1434.47
824.777
-431.415
215.876
-361.694
-592.449
266.638
-641.895
-739.998
698.76
506.077
-1204.84
389.689
-203.063
-186.625
556.143
-958.499
-568.614
-426.071
731.77
-831.287
-1155.66
-1437.96
499.629
938.333
9.82164
-637.104
341.118
295.985
-1313.93
1046.06
267.869
-616.717
-456.024
-665.785
921.764
399.662
-200.231
-199.431
508.183
980.674
-1488.86
977.16
-564.752
167.469
397.283
-401.037
674.201
-409.467
-506.645
169.345
234.341
-1518.45
529.649
541.124
-755.294
244.593
150.59
-456.644
367.833
-820.26
1954.16
-1195.39
-758.769
417.714
-675.77
258.056
325.795
327.83
117.084
-444.914
-569.182
194.59
263.963
-691.69
1374.36
-682.669
423.923
463.546
-1178.09
266.758
1866.78
-1013.59
-853.189
784.964
-532.052
182.09
1402.37
-975.199
-427.174
332.482
-772.442
-616.498
1725.44
611.298
626.024
322.355
-18.247
267.415
-1138.44
1725.71
-587.276
-1763.52
820.189
1755.66
-1686.3
-69.3627
-659.739
259.922
567.566
-715.454
226.414
1402.65
-564.942
388.253
443.384
-1858.55
1420.12
552.416
-433.084
-119.332
204.689
-539.569
-283.326
-184.516
-352.988
695.54
-578.392
215.159
610.203
550.962
-1161.16
1113.65
-1947.44
833.792
157.534
334.085
-1698.95
1661.07
313.667
-734.257
-165.605
381.481
754.658
679.476
-1434.13
1075.97
-1078.89
526.099
-1104.66
-629.699
253.003
376.697
525.579
-287.854
-603.899
-1031.73
293.409
-721.241
-912.32
176.741
163.601
226.088
391.544
291.573
-683.117
-630.091
-833.98
-978.421
490.435
-1059.62
-293.832
481.372
534.654
646.747
-281.495
-124.509
-410.783
718.272
268.954
-1199.01
568.921
1308.59
-553.931
443.314
-1011.93
-390.35
156.622
395.794
1023.38
551.566
-1715.17
1610.66
1629.41
-563.829
-1065.58
1903.3
-1891.82
-11.4827
209.747
-527.55
-347.167
554.182
-766.231
-322.291
-337.447
1025.51
700.011
-1503
802.986
339.353
-26.1905
1625.21
-1084.05
411.13
-1237.68
462.037
-60.4549
1518.26
1197.42
-470.254
-489.686
-75.0664
-267.577
736.015
-1951.55
-710.23
352.49
-533.178
180.689
192.262
-509.885
1139.91
671.551
-1811.46
-611.885
178.801
942.041
-1497.35
-210.464
678.895
-468.431
875.472
1124.53
-738.035
1349.33
609.507
-485.741
-123.766
-346.109
1172.58
1041.39
-1980.07
938.677
-1172.22
543.702
1488.76
-585.809
-385.425
-149.025
-1241.45
573.123
1160.42
-114.167
946.067
775.53
-1721.6
-207.101
578.468
-1541.73
963.259
486.968
916.68
-1403.65
620.299
587.018
392.498
-1106.65
591.844
1107.26
1216.44
-452.4
-764.044
-1186.2
-1754.94
-7.29713
-1707.87
-203.03
-424.933
1607.27
-628.64
-978.631
-490.817
1121.62
-1317.73
636.153
681.574
-1361.6
1442.45
-1330.33
592.294
1520.51
-387.678
-572.26
186.835
-1479.63
231.778
176.37
229.551
379.956
437.7
398.584
-836.284
506.301
-939.055
900.794
-1444.81
-698.85
233.324
465.526
-1043.16
459.572
-475.249
863.502
695.67
25.9208
-526.277
171.272
-886.565
-1318.74
-715.222
349.999
365.224
403.398
-722.807
319.409
-479.068
-189.274
-709.874
719.514
1539.6
-593.528
815.071
737.956
1344.8
-844.72
-971.327
-570.4
-796.866
427.626
369.24
-1036.67
-642.285
304.361
337.924
-1433.69
-296.783
-790.563
398.321
392.242
-651.216
404.179
247.038
-678.049
268.582
412.463
487.785
389.526
441.111
479.243
384.339
596.832
-969.833
680.114
467.905
453.861
356.266
-810.127
1630.76
-1079.91
-550.859
-504.491
-285.206
-1028.72
454.48
347.427
409.489
594.28
-1003.77
-1380.69
752.05
-532.991
1146.08
355.984
-56.1911
411.897
-865.452
453.555
-1894.4
304.709
441.777
-726.424
284.648
-186.866
403.216
-216.35
-661.39
306.732
354.657
-674.008
320.18
370.469
392.046
612.894
-1020.99
753.171
661.785
-1414.96
438.658
625.548
340.09
392.79
-732.88
409.554
327.927
602.063
672.311
405.583
595.128
-1021.47
426.346
-1669.17
1194.3
474.867
1696.59
-539.171
620.976
-1147.19
526.217
-643.01
348.237
437.097
-935.175
498.079
752.518
-449.615
350.534
345.007
570.262
-916.045
651.217
-1253
601.781
374.717
734.832
-1224.76
769.62
509.484
-1279.1
485.099
405.742
-890.84
-501.637
-936.325
-300.789
629.759
352.409
542.068
-894.477
333.197
331.571
-502.178
1944.74
437.313
-847.283
409.97
-917.816
-807.167
-748.533
367.79
-1217.91
438.019
-1732.9
1605.02
127.882
1745.9
-1600.8
-145.1
-784.289
-592.54
266.08
326.459
-1755.66
1976.13
538.421
791.621
-1330.04
440.033
716.446
690.416
385.554
-1075.97
-75.4326
1617.13
-593.756
385.043
831.468
-649.976
326.981
322.995
-377.952
-297.562
552.782
-220.094
434.76
281.339
-666.56
385.221
265.035
-578.833
-282.881
442.391
-1033.53
591.142
538.038
1092.73
365.906
597.068
312.709
353.389
-666.099
1622.41
-922.402
1691.84
-1520.48
-171.365
-327.505
-823.24
414.597
857.563
-1068.03
-606.734
279.509
-1090.61
1628.64
-1583.77
-78.7029
1662.47
-340.654
-349.599
-369.647
537.027
597.853
-502.337
-28.7437
-550.032
505.957
-282.596
-223.361
1746.83
-1297.96
-624.942
299.489
325.454
401.535
357.227
734.749
-296.364
-398.535
-1745.9
1685.45
459.44
-1100.99
641.553
-43.3976
1654.06
571.385
476.343
-1047.73
104.8
1144.89
-1452.11
-15.1009
-1879.3
228.259
-598.897
306.935
291.962
-955.496
612.678
-898.306
468.718
-1128.6
673.619
454.986
368.958
268.057
-764.242
-310.263
1216.93
886.839
699.008
-1182.99
456.105
726.886
494.264
700.92
-1195.18
-358.955
-246.571
410.172
-960.702
438.323
522.379
21.2534
-1879.81
1079.93
-469.398
-497.332
558.073
-1378.19
820.12
-426.363
798.024
-404.978
497.665
-707.277
1724.83
410.456
-184.368
217.203
-170.165
-244.673
414.838
1895.32
-504.111
-1690.77
1051.55
-602.424
304.862
-1013.85
553.783
-312.075
544.259
905.331
-1449.59
-1103.86
438.08
-20.7722
-1944.5
1711.24
-669.855
-540.768
460.658
-1190.55
729.896
191.566
208.096
-282.669
769.541
700.43
838.201
818.51
-462.245
1084.99
-475.606
477.781
-193.864
-283.918
-1923
-714.346
-317.557
-644.529
-6.964
651.493
466.103
-271.513
564.497
1057.92
-803.844
924.882
1244.32
-424.919
-193.566
-225.874
419.44
958.389
-888.565
-323.352
-1067.93
611.901
1556.73
-799.797
537.62
934.975
-392.502
735.376
-342.875
1130.45
-276.843
333.926
1349.69
-705.023
-219.597
448.242
-1198.68
750.439
-994.406
-108.477
1102.88
441.989
-955.7
513.711
175.186
732.962
483.482
739.626
-88.6837
853.008
-425.432
1182.59
-797.034
552.078
-1465.47
913.391
-1216.66
1800.97
-431.712
-1510.19
879.71
-1402.01
-311.042
-418.904
1457.22
-1523.41
784.803
1491.5
202.226
275.556
-356.055
-1732.9
-291.341
-1009.26
1573.76
-1765.61
1765.61
1563.58
-1004.5
-634.439
-339.56
368.314
605.255
-370.465
-363.833
-1389.86
897.411
1125.15
600.562
1202.8
1789.48
-1216.42
-611.994
272.239
1658.97
-1916.43
257.459
814.416
-1267.51
1545.25
-561.605
782.287
318.31
-342.935
554.727
795.126
673.202
1355.08
-225.98
-444.751
-363.204
497.768
-342.201
471.69
736.622
-299.6
-145.314
-331.222
568.111
-236.889
27.8276
-371.609
1107.47
-1720.27
-438.418
-487.777
-567.473
863.823
692.905
-1596.51
904.825
-451.446
-621.261
-513.774
1252.06
337.384
1723.68
-1702.42
-1657.48
1891.82
-1560.84
840.302
720.539
-375.43
-1795.77
917.671
583.067
819.584
-394.318
1794.28
-680.63
-414.176
679.148
430.075
-1109.22
-1099.86
444.05
753.369
-1617.18
473.176
901.183
176.929
-400.713
223.784
-1595.32
-384.156
-431.177
990.308
-672.526
1442.95
-978.322
1853.79
240.291
-540.486
496.471
-294.246
474.3
893.593
543.075
977.434
-462.624
-427.764
573.899
883.318
-1392.71
-40.988
1572.56
-834.605
519.94
971.563
-1475.82
-1115.9
1770.53
-1242.39
-528.14
1206.12
-318.968
-887.153
-192.276
453.709
-261.433
-457.164
-249.152
430.065
-180.913
145.383
-391.954
1729.7
-1736.99
-458.774
-530.834
-903.636
443.377
-207.07
-236.307
635.705
-457.398
-358.783
-314.833
673.616
-927.155
382.483
-1167.33
676.516
417.22
-635.066
-439.191
1575
-859.438
530.178
-457.708
-571.111
-462.421
373.29
-363.509
-9.78098
-1101.99
411.158
-664.722
-1033.68
1698.4
-599.847
-1423.32
713.274
562.171
-1596.26
1034.09
-390.17
-477.112
150.604
533.905
-1258.39
744.618
539.214
1006.03
-2133.18
999.989
1133.19
-362.829
420.589
-395.692
-24.897
1478.05
-370.422
449.333
1212.52
582.152
906.611
567.897
527.338
-1095.24
165.499
-440.848
-1686.3
254.859
1127.59
-614.229
518.459
1013.78
-1532.24
1092.87
-1643.73
190.536
694.403
547.015
-870.367
-1086.54
-173.518
429.949
-256.431
-587.182
-429.668
-636.852
-629.651
346.983
-1618.67
939.778
-476.665
213.742
-398.111
534.625
-306.366
-606.186
1197.18
-1274.39
922.995
351.393
-1021.68
-368.743
-757.206
-824.363
1688.19
-476.783
1793.56
-1582.2
-211.355
-1556.64
1018.74
537.899
-725.433
-263.671
445.785
-182.114
-591.712
383.21
274.305
-657.515
-523.837
987.888
630.128
-350.619
-1620.29
1050.52
571.758
1103.55
-1675.31
-414.163
-292.15
-369.24
-744.537
-472.437
-329.874
499.808
1557.99
-995.818
-775.316
1497.45
660.048
-314.26
725.88
1152.37
-1878.25
290.292
307.109
-487.051
-1932.02
1719.72
212.294
738.464
-474.155
-264.309
531.821
1060.85
-1592.67
373.29
-1722.97
-233.209
1752.35
-1580.7
1073.79
506.913
-1723.11
0.13587
-521.565
420.589
1698.95
-1719.72
939.715
624.472
-1564.19
385.241
-218.39
-166.851
-411.902
-266.148
70.4518
95.0728
-358.744
-430.572
-438.207
-406.018
219.152
1510.25
378.813
-215.779
-435.437
462.588
-198.625
320.987
1510.78
996.665
-153.302
-843.363
-1104.11
1704.82
-1728.76
1064.04
-707.135
-1021.62
-1265.09
1844.99
-579.9
1155.07
-1771.14
616.065
272.267
-878.208
1675.68
43.4505
-1719.13
-491.153
-1083.07
-1729.7
-982.199
554.435
1019.62
590.215
1133.04
-1723.26
283.162
-448.333
703.877
-383.696
379.215
924.901
680.613
-380.911
-640.563
582.882
1072.57
-1655.45
-400.55
-368.771
769.322
428.455
-1661.07
1520.48
140.599
583.338
-1044.05
544.741
1083.9
-1555.69
994.081
-238.202
230.089
324.092
1903.3
429.175
-76.9258
995.864
722.751
-1718.61
-697.385
1085.36
-1557.52
165.685
-571.698
198.226
264.362
-657.323
-560.589
582.478
1034.65
-711.228
-275.457
-1368.49
675.774
692.715
-413.81
764.569
62.992
-827.561
561.623
-137.152
1557.27
-214.451
270.826
-771.361
-1932.02
1664.63
1031.69
389.055
301.448
451.071
-930.072
-992.932
-1767.27
636.213
1693.77
508.8
-474.219
1210.84
1087.14
-424.826
1030.08
-978.341
492.853
485.488
700.181
1047.94
-1748.12
484.948
482.282
-1494.01
-746.704
32.2741
780.284
-412.493
-885.004
387.672
-538.749
-802.506
643.458
-577.208
1397.33
1055.14
195.708
234.24
-550.606
1618.53
-772.504
1525.67
-1727.83
575.244
1152.59
543.662
-883.042
-1732.73
1916.43
-183.702
1721.74
182.196
-543.768
373.661
-278.588
-481.338
1211.23
568.268
1128.33
-491.187
431.312
858.042
-461.667
-772.814
426.817
345.997
1418.8
1089.61
-518.164
1422.99
-510.563
-533.551
1044.11
-602.743
474.936
-1199.51
1691.84
1839.58
-687.21
1585.63
-645.915
-1241.32
717.481
-562.427
205.579
-396.536
455.055
-245.027
-520.175
-1246.71
1870.94
-624.23
1173.29
-552.313
1120.29
-1659.46
1693.85
-573.925
-545.411
-549.811
1720.07
-317.121
-688.024
-473.257
1223.7
-1683.75
-1860.1
613.392
298.971
-933.754
168.632
213.875
-1719.03
1204.16
514.87
1162.86
558.887
-511.579
-465.331
1192.22
178.593
224.623
588.443
1251.14
-539.175
-1238.58
1777.76
-1025.4
999.991
866.79
-204.121
-1658.97
1702.42
-510.05
1411.23
-1732.73
-357.625
17.4679
340.157
-262.328
584.949
-322.621
75.7249
488.55
781.161
-377.763
1257.53
1270.88
-413.32
852.179
-437.582
1817.44
-662.369
1586.53
-1723.68
-412.785
-745.898
306.425
439.473
-559.633
-563.264
79.7161
-1138.77
-985.5
-669.676
1655.18
-943.708
-1189.47
159.159
-416.837
-648.441
705.615
1167.45
649.993
1410.27
-590.686
1636.75
1318.03
-573.407
-491.62
197.374
-503.259
1396.85
1240.04
-564.264
-999.989
893.26
54.7397
-948
603.439
-506.109
1403.52
1495.04
-588.433
-381.634
381.634
-589.405
1623.49
1239.53
-486.16
1134.16
-70.9653
1850.49
-390.706
1489.44
-588.645
-507.658
1347.96
-652.636
1218.51
-565.876
1554.79
-591.531
750.079
574.019
-1324.1
-653.971
279.352
494.886
600.13
-1957.3
-987.058
1586.53
382.386
-382.386
-68.3575
388.302
436.476
385.357
-9.50615
-342.823
895.932
-521.215
-425.843
814.145
-243.65
620.347
-432.775
1546.22
-444.325
-884.122
186.971
224.421
-411.392
601.167
1250.78
-1851.94
927.124
-458.406
-363.509
126.152
-1943.01
1816.86
-449.994
181.767
1181.27
-440.415
-740.86
-302.752
-582.252
-492.404
-395.692
-479.757
256.396
1158.19
-560.333
229.528
-379.108
149.581
-22.4015
-107.67
1376.08
-1268.41
34.448
-599.215
-586.38
-460.461
460.461
-1262.36
1985.11
-1344.39
-213.859
-1823.71
241.507
-1025.76
-974.242
-185.91
-1637.63
707.562
1229.32
-1924.97
369.042
312.293
-681.335
-1850.01
1234.27
615.74
-564.714
564.714
-959.21
-39.8722
-1866.05
-558.136
1650.86
-677.35
1636.17
-601.511
-175.319
-1703.98
-584.304
-444.45
-594.789
-473.555
473.555
-1537.81
194.525
1343.28
174.037
224.47
-398.507
487.084
509.581
997.112
-474.733
1751.3
768.717
-427.493
402.596
520.653
1702.05
-594.582
-552.957
1636.86
470.465
1812.73
-645.284
-1803.93
-1938.08
-646.939
-484.833
484.833
-588.872
225.668
-690.86
1019.51
-465.728
-1072.29
-286.974
1579.58
1852.3
1635.33
-1635.33
-275.015
739.456
1761.49
595.785
1275.15
175.617
209.624
576.885
591.91
1603.53
-1603.53
222.55
-353.765
-434.679
460.07
951.357
-458.504
-639.78
-1131.02
1706.26
280.529
-1650.45
610.12
-287.632
469.828
1744.64
-592.054
-214.937
-416.335
380.267
726.99
1738.57
-613.414
-511.761
-774.136
1960.53
-870.452
-1090.08
1642.78
-705.999
1223.97
-1824.94
600.968
333.546
-874.033
-186.004
-109.999
1098.31
-486.413
130.517
616.6
-1648.33
437.139
609.083
-1803.93
-583.272
1787.43
884.302
-1162.93
1760.49
-597.56
1783.83
-575.523
-1208.31
437.42
926.834
-1736.99
924.787
-1495.69
267.5
1228.19
-831.123
-1254.23
-385.349
77.5726
307.777
581.716
269.728
1027.01
-443.953
846.326
-402.373
821.088
738.581
-1559.67
643.777
1066.26
-24.4991
-663.843
688.343
-1744.29
722.668
699.951
150.523
-1122.7
1936.75
-674.547
-1262.21
-537.173
1665.5
829.74
964.012
-1793.75
1227.87
683.318
-403.658
710.39
830.981
1028.34
-586.347
1761.49
626.727
1773.56
-1185.62
-587.935
-379.57
-330.484
710.054
121.435
-1185.71
1660.55
-540.263
-1437.84
1437.84
1250.57
594.414
1351.58
206.413
-563.095
280.681
-189.927
699.066
1113.67
480.405
-301.811
-870.246
-574.563
1736.86
-1736.86
1010.84
-1010.84
987.33
1025.17
-2012.5
1837.94
-613.967
-581.105
822.915
-947.848
-1052.16
998.353
690.534
-1688.89
-521.815
-348.236
-643.391
-808.422
2042.69
-1246.42
-613.678
1002.97
974.851
1289.77
646.984
325.925
1012.69
228.365
337.208
1186.29
1756.87
-1756.87
672.026
80.1643
-391.24
-997.052
-539.988
1674.15
990.329
1009.67
-1833.28
-223.494
-360.81
605.647