/*--------------------------------*- C++ -*----------------------------------*\
  =========                 |
  \\      /  F ield         | OpenFOAM: The Open Source CFD Toolbox
   \\    /   O peration     | Website:  https://openfoam.org
    \\  /    A nd           | Version:  7
     \\/     M anipulation  |
\*---------------------------------------------------------------------------*/
FoamFile
{
    version     2.0;
    format      ascii;
    class       volVectorField;
    location    "17.5";
    object      U;
}
// * * * * * * * * * * * * * * * * * * * * * * * * * * * * * * * * * * * * * //

dimensions      [0 1 -1 0 0 0 0];

internalField   nonuniform List<vector> 
7807
(
(1.05755 0.118593 6.82925e-21)
(1.04618 -0.0362186 -2.22466e-22)
(0.986473 0.0868094 -1.33445e-20)
(1.02739 0.0571111 1.81877e-20)
(0.999344 -0.000717997 -2.5715e-23)
(0.999973 -4.98106e-06 -1.2279e-24)
(0.9848 0.0699555 -2.56601e-20)
(0.995836 -0.00116159 -5.45708e-24)
(0.999907 -0.000129709 -3.9795e-24)
(1.01979 0.000501336 -7.93862e-22)
(0.999975 -6.52956e-06 1.3626e-24)
(1.0017 -0.00101317 -8.33903e-23)
(0.993633 -0.00137802 2.60256e-22)
(1.01574 -0.00159641 -4.74269e-21)
(1.01921 0.000984874 3.36276e-21)
(0.992245 -0.0119566 -7.23407e-22)
(1.05943 0.124431 -1.43707e-20)
(0.991417 -0.00173563 -9.27146e-23)
(1.00161 -0.00769406 2.00724e-23)
(0.979256 -0.0871856 -7.64626e-22)
(1.02904 -0.00367297 -1.64374e-21)
(1.00111 -0.000568378 1.466e-22)
(1.01469 -0.00284749 3.84743e-22)
(1.00894 0.0245577 -9.02469e-21)
(0.988602 -0.00212692 -4.21705e-22)
(1.05337 0.116612 -6.7503e-21)
(0.999372 -0.000681955 -1.83184e-23)
(1.01938 -0.0014875 1.91263e-21)
(1.00452 0.0125003 -1.14262e-21)
(1.00273 -0.00824986 -2.46996e-23)
(0.988224 -0.0123947 -1.25477e-21)
(0.927018 0.0127858 3.51298e-21)
(1.0144 -0.00337829 2.40711e-21)
(0.999638 -0.00027482 2.71028e-23)
(0.999956 -2.97429e-06 2.41899e-26)
(1.01924 0.000406375 1.16929e-21)
(1.00322 -0.00909492 -8.0918e-24)
(0.989059 0.0684169 -4.06267e-21)
(0.996802 -0.00621735 5.9289e-22)
(0.999775 -2.67403e-05 1.90998e-23)
(0.997113 -0.00642806 -6.56686e-23)
(0.9924 -0.0111306 -2.51412e-22)
(1.00497 -0.0969708 3.64291e-21)
(1.13448 -0.038751 5.82152e-22)
(0.999919 -5.00882e-06 5.1804e-24)
(0.999948 -8.38611e-06 -1.37592e-24)
(1.00103 -0.000468401 -8.9709e-23)
(0.996632 -0.00563718 -3.47778e-22)
(0.999952 -1.85858e-05 -1.27852e-24)
(0.983297 -0.0879983 1.11491e-21)
(1.0025 -0.000902518 9.5018e-23)
(1.0193 -0.000554558 -1.97806e-21)
(0.985392 -0.00241767 -1.45599e-21)
(1.00884 -0.0261031 -4.84946e-23)
(1.01949 -0.000527433 -6.70031e-22)
(0.996291 -0.0017781 -5.02155e-23)
(1.00153 -0.00718143 -6.498e-24)
(0.995846 -0.00095601 3.35715e-22)
(0.97978 -0.0145335 -2.14531e-21)
(0.999627 -0.000239553 -3.387e-23)
(1.00003 -1.68954e-05 -1.78093e-24)
(1.00331 -0.000925022 1.08794e-22)
(1.01602 -0.00099213 -1.12486e-21)
(1.00182 -0.000876792 8.4437e-23)
(0.999329 -9.61659e-05 4.10229e-23)
(0.988679 -0.0129527 2.00498e-22)
(0.999927 -0.000130597 3.37864e-24)
(1.00001 -1.69871e-06 1.59548e-25)
(1.13025 0.0674981 2.79462e-21)
(0.996778 -0.00533296 -1.12231e-22)
(0.999949 -1.10941e-05 1.2835e-24)
(0.970531 -0.0489439 -4.88415e-21)
(0.988865 -0.00249908 2.12776e-22)
(0.980718 -0.0026849 2.80794e-22)
(0.99168 -0.00203699 2.93624e-22)
(0.967946 -0.0209224 -4.79356e-22)
(0.989636 0.0886454 2.14613e-20)
(1.02744 -0.00353627 2.09779e-21)
(1.07276 0.00120418 -3.74273e-21)
(0.956205 -0.0377088 -5.57931e-21)
(0.993874 -0.00161303 -3.99886e-22)
(0.997576 0.0419391 2.46797e-20)
(1.03314 0.00530585 5.13791e-21)
(0.977691 -0.00633054 1.4297e-21)
(0.998887 -0.00188059 -5.08961e-23)
(0.998553 -0.000125909 3.52553e-23)
(0.995507 -0.00162253 4.9533e-22)
(0.985549 -0.0028898 9.30487e-22)
(0.999484 -0.000866387 2.92694e-23)
(0.997055 -0.000277134 1.35423e-22)
(1.00472 0.014195 8.49907e-21)
(1.16428 -0.022909 -8.85032e-22)
(0.999904 -3.36169e-05 -3.5587e-24)
(1.00125 -0.00606365 -2.32146e-24)
(0.997291 -0.000601406 1.29647e-22)
(0.985867 -0.00094145 -2.18199e-21)
(0.972868 -0.0487122 2.80274e-22)
(1.01036 -0.0251394 2.90975e-22)
(0.998784 -0.00180388 1.63163e-23)
(0.99922 -9.29103e-05 1.49224e-23)
(0.958113 -0.00931137 1.08616e-21)
(1.07335 0.00575341 3.18669e-21)
(0.997426 -0.00072399 -3.20189e-22)
(0.999989 -5.6381e-07 -8.02959e-26)
(1.16704 -0.0114973 -6.81624e-22)
(1.02443 0.0250161 -8.1931e-21)
(0.955235 0.011163 4.04665e-21)
(0.996053 -0.0016456 -1.98869e-22)
(0.999994 -1.46372e-06 2.78224e-26)
(1.02079 -0.0115422 -7.46919e-22)
(1.03053 0.0542631 -2.11299e-20)
(1.02122 -0.0708553 -4.53364e-21)
(0.999992 -1.77179e-06 -4.46051e-26)
(1.02227 -0.0120722 -1.60732e-22)
(1.0217 0.0239083 8.6236e-21)
(1.0003 -0.000432684 -5.06737e-24)
(1.06447 -0.0845291 -2.55174e-22)
(1.02496 0.0142645 -1.95205e-21)
(0.982826 -0.038548 2.16112e-21)
(0.979166 -0.00370683 -3.17644e-22)
(0.963447 -0.00440387 -2.47142e-21)
(1.00032 0.0262653 -1.59453e-20)
(1.01103 -0.095674 -4.99572e-21)
(1.00762 -0.00649715 4.76232e-23)
(0.961525 -0.00571157 9.47075e-22)
(0.999256 -0.000998411 6.76824e-23)
(0.989452 -0.00919268 4.04839e-22)
(1.00207 -0.00686946 9.48399e-24)
(0.99936 -6.01441e-05 -9.29015e-23)
(0.98835 -0.0113418 2.81284e-23)
(1.20118 -0.0377955 -6.40354e-22)
(1.06771 -0.000874346 6.38748e-22)
(0.999546 -0.000376098 3.07024e-24)
(0.999404 -0.000883481 -5.93688e-23)
(0.977019 -0.00544955 4.03186e-22)
(1.02878 0.0481647 7.73892e-21)
(0.995864 0.0194447 2.78068e-20)
(0.999986 -1.32974e-06 -8.84191e-26)
(1.00586 -0.00251218 5.02171e-23)
(0.955318 -0.00550678 -3.27055e-21)
(0.984054 -0.00158901 -1.15267e-21)
(0.986497 -0.0552068 -3.45641e-21)
(0.968162 -0.0229082 6.51312e-22)
(0.981991 -0.00237135 -2.78161e-23)
(0.958242 0.00810355 1.53151e-20)
(1.00961 -0.0407091 -1.41316e-22)
(1.00955 0.0147265 -4.32331e-21)
(0.981514 -0.018028 -1.16942e-21)
(0.978361 -0.00204164 3.28344e-22)
(0.999854 0.0359535 -7.95582e-21)
(1.01985 0.00106081 2.89621e-21)
(1.15164 -0.0260117 1.56937e-22)
(0.998819 -0.00147218 -1.62011e-22)
(1.13549 0.0600894 4.0869e-22)
(1.03147 0.00495273 -5.326e-21)
(0.998808 0.0724494 -2.09557e-20)
(0.96252 -0.0247199 2.01041e-21)
(0.993879 -0.000932024 8.51118e-23)
(0.94821 0.0492766 3.70393e-20)
(0.999956 -1.54998e-05 -1.20572e-24)
(1.00085 -0.00638136 6.48865e-23)
(1.00927 0.0272239 6.52782e-21)
(0.999985 -1.29857e-05 7.97801e-25)
(0.998486 -0.00394483 -3.03003e-22)
(0.996984 -0.000554358 -6.14517e-23)
(1.00281 0.0306873 -2.13876e-21)
(1.00141 0.0249738 7.93137e-21)
(0.940448 0.0541198 1.25147e-20)
(0.998272 -0.00379568 -1.69976e-22)
(0.998116 -0.000138303 -6.51958e-23)
(1.00001 -1.97185e-06 -1.38138e-25)
(0.973568 -0.00165585 -3.92218e-21)
(1.00029 -0.000383199 7.08427e-24)
(1.04791 -0.0327608 2.52614e-22)
(1.00603 -0.00277809 3.29392e-22)
(0.976237 -0.00261874 6.51266e-22)
(1.15745 -0.00183784 -2.87703e-22)
(1.08828 0.0662791 2.33013e-22)
(0.999905 -4.20157e-05 1.95229e-24)
(0.999612 -0.000447463 -3.54792e-23)
(1.02807 0.0604127 -3.23711e-21)
(0.999957 -1.05711e-05 -5.32126e-25)
(0.999938 -5.01137e-06 8.3198e-25)
(0.984142 0.074733 -2.14311e-20)
(1.0481 -0.0393508 -5.50793e-22)
(1.00845 -0.0590266 -2.45957e-21)
(0.984733 -0.0373795 -3.07585e-21)
(0.980605 -0.00428614 8.89766e-22)
(1.00682 -0.0418762 2.80184e-22)
(0.959674 -0.00370257 1.77825e-21)
(0.999984 -1.16488e-05 -2.5664e-25)
(0.973736 -0.0453865 -1.19077e-21)
(1.09038 0.0731525 -6.29192e-21)
(0.997394 -0.000926714 4.55553e-23)
(1.00005 -4.85794e-06 -1.33838e-24)
(1.06222 0.0683834 6.70461e-22)
(0.999075 -0.000233845 1.11698e-22)
(0.989108 -0.0109134 6.45332e-22)
(1.00432 -0.0394164 9.11529e-22)
(1.00001 -1.54047e-06 -6.15355e-26)
(1.00062 -0.00152843 -2.79476e-23)
(1.02573 0.0474407 9.61095e-21)
(1.07779 0.0783215 -8.3476e-21)
(0.996262 0.0631991 -2.81505e-21)
(1.06056 -0.0783563 2.03466e-21)
(1.02485 -0.0674531 1.01459e-21)
(1.11026 -0.113784 -7.33494e-22)
(1.01954 -0.00210944 5.73931e-21)
(1.02384 0.044525 -3.05938e-21)
(0.999886 -7.41303e-06 -6.02341e-24)
(1.00003 -1.46532e-05 4.75436e-25)
(0.977208 0.00275882 -1.51955e-20)
(0.993458 -0.0106891 -2.46118e-22)
(0.999531 -0.00033103 -2.97816e-23)
(0.975977 -0.0447284 2.47064e-21)
(0.988923 -0.00971178 -4.74173e-22)
(1.00762 0.0679455 -2.35421e-20)
(1.00479 0.0653923 -4.91924e-21)
(0.983738 -0.0565862 9.15549e-22)
(0.921654 0.0262676 -1.3642e-20)
(0.999136 -0.000277504 -8.36369e-23)
(0.991706 -0.00139112 3.22364e-22)
(0.958161 -0.00784576 1.36901e-21)
(1.02771 0.000262183 -1.203e-21)
(1.00878 -0.122678 -4.68306e-22)
(1.07783 0.117648 -1.4408e-20)
(0.949967 0.0416203 -3.15044e-20)
(1.00004 -7.89945e-05 1.18202e-24)
(1.00757 -0.00604808 1.69414e-22)
(1.02316 0.016324 1.05902e-20)
(0.996777 -0.00458675 -4.14605e-22)
(1.02713 0.0146408 -1.33652e-21)
(0.999563 -0.000948226 -1.33507e-23)
(0.919496 0.0585664 2.52666e-20)
(0.999957 0.0668794 4.57084e-21)
(0.995533 -0.00134735 3.03737e-22)
(1.00273 -0.00688055 -3.68333e-24)
(0.999781 -3.48279e-05 -3.54363e-23)
(1.11087 0.0940561 3.232e-21)
(0.999947 -5.82941e-06 2.21329e-24)
(0.995398 -0.00870057 2.09784e-22)
(0.942761 -0.0197705 2.11613e-21)
(0.999948 -1.55671e-05 -5.24074e-25)
(0.998953 -0.00221689 -4.51995e-23)
(0.999653 -0.000923772 1.93516e-23)
(1.05677 0.0410725 8.03417e-21)
(0.999985 -1.70326e-05 1.06583e-24)
(0.99733 -0.000189012 -9.2652e-26)
(0.958543 -0.0376636 6.48824e-21)
(0.940941 0.00702113 -7.71188e-21)
(1.06701 -0.00519276 -8.31926e-22)
(0.935528 0.0364061 1.86918e-20)
(0.99997 -3.93388e-06 -1.12103e-24)
(1.0021 -0.0400454 -2.27884e-23)
(0.999855 -0.000225675 -1.25566e-23)
(0.994112 0.0737516 -2.10945e-20)
(1.00301 -0.000621263 -1.42451e-22)
(0.993874 0.0243971 9.16765e-21)
(1.00202 -0.00830509 3.18643e-23)
(1.00054 -0.00161952 2.46935e-23)
(1.02546 -0.0300121 1.33211e-22)
(1.01945 -0.00106327 -5.31286e-21)
(1.00042 -0.000258323 1.68894e-23)
(0.999838 -2.93564e-05 2.0847e-25)
(1.00036 -0.000348265 3.60626e-23)
(0.996596 -0.00487115 -3.76959e-22)
(1.01502 -0.0616759 2.94057e-21)
(0.99997 -6.1355e-06 7.41888e-25)
(0.964186 -0.0236812 1.40519e-21)
(0.99709 -0.000682126 -1.41743e-23)
(0.999896 -2.70783e-05 3.71534e-24)
(0.999515 -0.00041887 9.95589e-24)
(0.987742 0.0414424 2.23291e-20)
(0.995534 -0.000257967 1.19126e-22)
(0.99952 -4.42827e-05 -8.05581e-24)
(0.966586 0.00184343 2.87378e-20)
(0.998839 -0.00212008 -9.6227e-23)
(1.04722 0.088266 -7.78975e-21)
(0.99984 -0.00020691 2.09421e-23)
(1.00625 -0.0194362 -2.42936e-22)
(1.00001 -1.0471e-06 -5.54138e-26)
(0.982861 -0.0305965 -1.15271e-21)
(1.02725 0.000161058 1.88256e-21)
(1.15917 0.00739514 6.33008e-23)
(0.979884 -0.0158453 1.83251e-21)
(0.999675 -0.000455182 4.24612e-23)
(0.978494 -0.0734156 1.67354e-21)
(0.997187 -0.000121603 5.54907e-22)
(0.999901 -1.00687e-05 3.36252e-25)
(1.00035 -0.000302765 -3.18879e-23)
(0.998247 -0.00276332 1.40735e-22)
(0.994347 -0.000703606 -3.64514e-22)
(1.00237 -0.000768657 -1.5882e-22)
(0.998987 -0.00149753 5.73118e-23)
(0.978889 -0.00589326 2.28864e-22)
(1.01942 -0.059515 -2.11144e-21)
(0.979463 -0.00464309 9.6388e-22)
(1.12782 -0.0310812 -1.27343e-22)
(0.973806 -0.00456695 -1.23339e-21)
(1.00713 0.0886967 2.42029e-21)
(1.00316 0.0907285 -1.78168e-20)
(0.998825 -0.000534249 -7.94989e-23)
(1.18106 0.00591489 -2.13222e-21)
(0.999988 -2.01793e-06 -4.76699e-26)
(0.998182 -0.00346265 -1.77578e-22)
(0.989183 -0.000556884 2.21176e-21)
(1.00686 0.0219664 5.3981e-21)
(1.03438 0.00923452 -5.08325e-21)
(1.00007 -2.65278e-05 3.31011e-24)
(0.998288 -0.00326228 -1.43825e-23)
(0.9738 -0.00547925 9.29813e-22)
(1.04362 0.0351112 -3.17802e-21)
(0.999203 -0.000912083 4.70423e-23)
(1.00263 -0.00066129 9.36385e-23)
(1.00094 -0.000800056 -6.68102e-24)
(1.11184 0.0227421 3.44168e-21)
(1.20061 -0.0504479 -4.17827e-21)
(1.02303 0.110262 1.17845e-20)
(0.998899 -0.000112488 -6.84096e-23)
(1.05675 -0.0375372 6.09969e-22)
(0.999915 -4.63495e-05 -3.35733e-24)
(1.00376 -0.0061213 -2.55465e-22)
(0.999961 -7.89837e-06 -3.68669e-25)
(0.986441 -0.0177356 3.34423e-22)
(0.99975 -4.05765e-05 -6.92256e-24)
(1.01016 -0.0191243 7.0804e-23)
(1.20443 0.0086198 2.74817e-21)
(0.974861 -0.0231541 2.33007e-21)
(1.0073 -0.0189383 3.87225e-23)
(1.0068 -0.00540449 -2.09311e-22)
(0.999487 -6.61816e-05 3.71081e-23)
(1.02281 -0.0156194 5.26359e-22)
(0.996525 -0.0161818 4.20837e-22)
(1.068 0.0100146 -1.98487e-21)
(1.05227 0.0390131 3.60563e-21)
(1.1612 -0.125566 8.08691e-23)
(1.13166 -0.0479206 -2.05616e-21)
(0.994904 -0.000177193 -6.06677e-22)
(1.00402 -0.00304501 3.01293e-22)
(0.94518 -0.0186951 -7.94373e-22)
(0.933558 0.051867 -3.83187e-20)
(1.11261 -0.0489512 2.23547e-21)
(1.02289 -0.00945628 -2.27743e-21)
(0.92363 0.0307618 -1.88285e-20)
(0.999028 -6.20186e-05 3.36375e-23)
(0.998615 -0.0006679 -2.53424e-23)
(1.14839 -0.0359609 -1.90906e-21)
(0.999094 -0.00163212 -3.75201e-23)
(1.00995 -0.0378172 2.83726e-22)
(1.00466 -0.00154229 1.11651e-22)
(0.998056 -0.000190226 -5.49345e-23)
(0.998535 -0.00017191 -8.70631e-23)
(1.02722 0.0214186 6.26342e-21)
(0.999947 -0.000111709 -7.39487e-25)
(1.0004 -0.000205733 -1.50912e-23)
(1.00006 -1.07269e-05 2.30192e-24)
(0.99742 -0.000353327 3.10995e-22)
(0.994429 -0.00747844 5.28542e-22)
(0.999988 -1.33934e-06 5.73043e-26)
(0.999174 -0.000140929 8.89326e-24)
(0.980822 -0.0137557 6.26135e-22)
(0.968832 0.0057662 9.56939e-21)
(1.00893 -0.0199165 1.85357e-22)
(0.993538 -0.00997034 9.08114e-22)
(0.964594 0.043333 4.35065e-21)
(1.00048 0.0262574 1.42947e-20)
(1.05842 -2.11499e-06 -1.53055e-21)
(1.17234 0.0114633 5.87185e-22)
(0.979395 -0.00124809 2.08488e-21)
(1.00398 -0.00349746 -1.4525e-22)
(1.00692 0.0358576 -8.0175e-22)
(0.991472 -0.00109513 -7.543e-22)
(1.02958 0.0860669 3.60029e-22)
(1.00639 -0.0450892 4.23428e-23)
(1.03174 -0.109428 -1.79668e-21)
(1.07353 0.075053 5.13239e-21)
(1.0314 0.0913951 -1.01659e-20)
(0.966014 -0.0199427 3.02278e-21)
(1.03538 0.00751416 -3.25343e-21)
(1.08235 0.122339 1.35454e-20)
(1.04179 0.0882437 1.47012e-20)
(1.02033 -0.00185804 1.80425e-21)
(0.997551 -0.00102691 7.55515e-23)
(0.996542 -0.00162075 6.96083e-23)
(0.999935 -1.40158e-05 -1.23622e-24)
(1.01414 -0.02491 -6.62714e-23)
(0.991898 -0.000841239 1.79598e-22)
(1.00075 -0.00193882 -2.52873e-23)
(0.999924 -1.29644e-05 -2.35887e-24)
(0.998726 -0.000477318 3.12267e-23)
(0.975916 -0.072057 -2.76447e-21)
(1.09621 0.0332474 1.81708e-21)
(0.985037 -0.00384837 -1.10128e-21)
(0.999045 -0.0105491 5.26772e-22)
(0.997138 -0.000378355 -1.71921e-22)
(1.05409 -0.0399348 -6.12318e-23)
(0.994474 -0.000794624 -5.85149e-22)
(1.00181 -0.00619759 5.01552e-23)
(1.095 0.117082 2.16573e-21)
(0.998664 -0.000172057 -2.01997e-22)
(0.999983 -3.33235e-05 -9.82516e-25)
(0.999956 -0.000135364 -7.52969e-25)
(1.00003 -8.07162e-05 1.05434e-24)
(0.981159 -0.00510387 5.21307e-22)
(1.02579 0.0194586 -7.36301e-21)
(0.997255 -0.000219481 6.79374e-24)
(1.01943 -0.00813163 1.46985e-21)
(1.0166 -0.128445 3.48444e-21)
(0.990785 0.0637949 -3.50485e-22)
(1.00316 -0.00628068 7.52294e-23)
(1.00539 -0.00395095 -5.36505e-23)
(0.995774 -0.00179848 -2.46706e-22)
(0.991844 0.0419473 -2.18734e-20)
(0.99932 -5.16726e-05 2.56934e-23)
(1.02621 0.114363 -5.98577e-21)
(1.00762 0.01533 -8.36058e-21)
(0.999915 -1.75796e-05 2.87988e-24)
(1.00443 -0.0458729 -1.4675e-21)
(0.997414 -0.000433146 -1.52039e-22)
(0.989776 -0.0562283 4.25639e-21)
(1.00042 -0.00010889 1.52899e-23)
(1.05409 0.00240066 2.18476e-21)
(1.00575 -0.0140157 1.48287e-24)
(1.00504 -0.00350296 1.6499e-23)
(0.999379 -8.08492e-05 -5.09457e-23)
(1.06146 0.0388342 3.88289e-21)
(1.03967 0.0335254 1.26019e-21)
(1.00627 -0.0616748 2.36302e-21)
(0.98134 -0.0165026 -1.20546e-22)
(0.998141 -0.00295376 -1.17876e-22)
(0.999276 -0.0361145 -2.66594e-21)
(1.13087 0.0509382 -3.42951e-21)
(0.921811 0.0169358 -1.72483e-20)
(1.0785 -0.0726331 -2.0182e-21)
(1.00413 -0.00662994 -2.54792e-23)
(0.999995 -1.92511e-06 -2.43677e-26)
(0.98862 -0.00324569 -8.60417e-22)
(0.998377 -0.000185083 1.92344e-22)
(1.02175 -0.015613 7.37456e-22)
(1.00136 -0.101833 -1.4541e-21)
(1.17986 -0.00686644 1.11704e-21)
(0.982668 0.0584653 -2.7714e-20)
(1.04727 0.0324246 5.19063e-21)
(1.11213 -0.102322 3.12972e-21)
(1.06183 0.0743645 2.21054e-21)
(0.998785 0.0252604 2.57352e-20)
(1.01644 -0.0022738 1.24415e-21)
(1.00091 -0.00187625 6.22284e-23)
(1.01877 0.0498983 4.80037e-21)
(0.99926 -0.00159605 8.03385e-23)
(0.999858 -0.00011995 4.17198e-24)
(0.989836 -0.000626776 2.64887e-22)
(1.00007 -2.54691e-05 6.10872e-25)
(1.11964 -0.122092 1.70265e-21)
(1.00296 -0.0154713 -2.26587e-22)
(0.984918 -0.0302012 2.0145e-21)
(1.00146 -0.00129389 4.01469e-23)
(1.0572 0.065136 1.14824e-20)
(0.99871 -0.000161387 -1.52969e-23)
(0.999981 -2.63118e-05 -7.37382e-26)
(1.02473 -0.114104 1.95558e-21)
(1.00129 -0.00110205 -2.34337e-23)
(1.09564 -0.00453105 -4.80005e-22)
(0.960416 -0.00870465 5.2235e-22)
(0.947315 -0.00927786 1.93697e-22)
(1.18494 0.052836 -9.76791e-23)
(1.0211 0.0154349 -2.77394e-21)
(1.01798 0.00440037 1.6849e-21)
(1.0169 0.00412036 -6.68215e-22)
(0.999853 -2.16092e-05 1.15425e-24)
(1.10368 0.0327057 1.40697e-21)
(1.06837 0.013784 2.28284e-21)
(0.999584 -0.000485844 1.64513e-23)
(0.985595 -0.00438283 1.26992e-21)
(1.00047 -0.000164291 -1.70374e-23)
(1.01012 -0.0175443 -2.08043e-22)
(1.00721 -0.0251652 -1.58424e-22)
(1.00359 -0.00115398 1.61832e-24)
(0.999368 -0.00099116 -8.28705e-23)
(1.10978 0.0864722 -1.00127e-20)
(0.999984 -1.54394e-05 -1.14194e-24)
(1.00015 -8.3854e-05 -3.71386e-24)
(1.00158 -0.000865897 -1.92374e-24)
(0.985361 -0.00127572 8.04489e-22)
(1.01618 -0.00971067 9.55899e-22)
(0.98444 -0.0250248 -2.71114e-21)
(0.980005 -0.0024129 -4.72372e-22)
(1.01164 -0.0583688 1.38595e-21)
(1.03571 -0.138456 -3.78686e-21)
(1.02374 -0.0273941 5.35416e-24)
(1.02243 0.0508208 -2.75679e-20)
(1.19475 0.0145529 -1.95423e-21)
(0.994536 -0.00173221 -3.80418e-23)
(0.917416 0.0526466 2.9765e-20)
(0.975183 -0.0508895 4.32269e-21)
(0.994135 -0.00796371 1.70693e-22)
(0.981895 -0.0019264 7.94057e-22)
(0.997588 -0.0156292 -1.09434e-22)
(0.988057 -0.00094928 1.19592e-21)
(0.991529 -0.00263197 -2.44436e-22)
(1.02332 -0.0112201 -1.52506e-21)
(1.12065 -0.0525695 -5.00547e-22)
(0.99998 -3.09614e-05 -1.36368e-25)
(1.01986 -0.0107498 -1.85133e-22)
(0.999929 -1.82304e-05 -1.43448e-24)
(1.00243 0.0754769 5.61971e-21)
(1.13169 0.0736824 6.60198e-21)
(0.996065 -0.00131295 7.95227e-23)
(0.991392 -0.000645945 -1.0281e-21)
(0.999861 -3.16006e-05 -7.92909e-24)
(0.997091 0.0393127 1.63406e-20)
(1.01994 0.0890856 1.34546e-20)
(1.10614 0.0246631 -1.83379e-21)
(1.11529 0.111895 -8.55886e-21)
(0.974958 -0.054359 -1.91718e-21)
(0.998785 0.00671913 -2.36758e-20)
(0.99995 -9.80611e-05 2.31389e-24)
(1.04255 -0.0237017 1.35759e-21)
(0.991714 -0.000518506 -3.7187e-23)
(1.08108 0.0637654 -2.32456e-21)
(0.94372 0.0354449 -2.26248e-20)
(1.13467 0.0441937 3.78048e-21)
(1.04255 0.0265611 8.80351e-22)
(0.999646 -0.0104578 -1.20224e-22)
(0.999848 -5.39652e-05 -7.87871e-24)
(1.11794 0.0973075 3.46982e-21)
(1.18819 -0.0297578 6.72276e-22)
(0.994073 0.0440371 -5.37742e-22)
(1.08874 -0.00577848 2.76945e-21)
(1.02571 0.0411647 8.03112e-21)
(0.994241 -0.00147291 -1.1265e-22)
(0.988375 0.0593494 7.61987e-21)
(1.02414 0.0849103 4.71309e-21)
(0.992533 -0.00219205 -6.8167e-22)
(0.993777 -0.00209907 -2.55196e-22)
(1.12882 0.0879372 1.27683e-22)
(0.948519 -0.00830238 -3.33087e-21)
(0.999933 -0.000114256 -3.56625e-24)
(0.989117 -0.00364071 1.12321e-21)
(0.943379 -0.0140933 2.6066e-21)
(0.986548 -0.0709281 -5.83737e-22)
(1.00786 -0.00213749 -9.67441e-22)
(1.00678 -0.00489972 5.46994e-23)
(0.999902 -0.000141877 -6.28262e-24)
(1.02129 0.0944322 -2.03519e-20)
(0.999979 -0.00943108 2.34269e-23)
(0.999923 -4.01177e-05 1.47277e-24)
(1.01924 -0.0543851 1.78793e-21)
(0.999609 -0.000308548 1.2572e-23)
(0.999833 -4.69594e-05 5.89763e-25)
(1.00418 -0.0102395 -2.33862e-23)
(1.04683 0.0642717 1.56779e-20)
(1.0167 -0.100957 2.67885e-21)
(0.957862 0.0388499 1.34453e-20)
(1.00005 -7.89325e-06 -1.63388e-24)
(1.05144 0.0680569 -1.63602e-20)
(1.01233 -0.0461889 1.29974e-21)
(0.999938 -0.000139877 -1.01511e-24)
(1.00002 -4.45957e-06 -5.81653e-25)
(1.0027 0.00968323 -1.37578e-21)
(1.04345 0.055067 5.78983e-21)
(0.996777 -0.00174302 7.207e-23)
(1.04032 0.0424677 -7.31895e-21)
(1.00002 -1.46066e-05 3.7515e-25)
(1.04023 0.0471829 -1.02608e-20)
(1.1459 -0.127508 4.13915e-21)
(0.992195 -0.00186414 7.33609e-22)
(0.999223 0.0122826 -3.29402e-20)
(0.976476 -0.0418407 2.8162e-21)
(1.11945 0.106139 8.31406e-21)
(0.982258 -0.00181585 4.39259e-22)
(1.04412 0.0500753 1.33961e-20)
(1.04772 0.0583231 -4.18476e-21)
(0.98613 -0.00581296 1.92631e-21)
(0.98165 -0.00698776 -1.42153e-21)
(0.995549 -0.00803858 5.28773e-22)
(0.997819 -0.00042494 -5.201e-23)
(0.999847 -0.00013423 1.13039e-23)
(0.999806 -0.00897594 -4.09924e-23)
(1.03357 0.0812198 -2.37353e-21)
(0.999979 -2.39498e-05 3.24505e-25)
(1.03633 0.0403045 9.69912e-21)
(1.03077 -0.10091 4.30401e-21)
(1.00254 0.047583 6.55772e-21)
(1.03632 0.0363006 -1.09432e-20)
(0.943012 -0.0124193 -3.74133e-22)
(0.960774 0.0539016 -2.8803e-20)
(0.998752 -0.000828137 3.70274e-24)
(1.01386 -0.0228589 6.78402e-23)
(1.04912 -0.0717391 1.15426e-21)
(0.988445 -0.000804383 -8.00744e-23)
(0.994807 -0.00233019 3.42133e-22)
(1.00977 -0.0474583 -1.11331e-21)
(1.04856 -0.015942 -1.56487e-22)
(0.931771 0.0280869 3.51366e-20)
(1.00003 -1.43204e-05 1.71215e-24)
(0.998527 -0.000874587 6.26692e-23)
(1.01672 -0.0700706 6.7797e-23)
(1.00001 -3.56777e-06 7.28055e-26)
(1.0023 0.0810375 2.78387e-21)
(1.00131 -0.000944334 0)
(1.00001 -4.60305e-06 4.94796e-26)
(1.00014 -6.58597e-05 8.5533e-24)
(1.0003 -9.05886e-05 2.00043e-25)
(0.986797 -0.0164921 1.73416e-21)
(1.01938 -0.014693 -5.28649e-22)
(0.998821 -0.000626895 9.60542e-23)
(0.999942 -9.01365e-06 2.51957e-24)
(0.994479 -0.0021284 1.8204e-22)
(1.00358 -0.0106811 9.8808e-24)
(0.989933 -0.108295 -3.92787e-21)
(0.970066 -0.00219267 2.28564e-22)
(1.01555 -0.00863912 1.75137e-21)
(0.999984 -1.19622e-06 5.21742e-25)
(1.09833 -0.147655 5.29284e-21)
(0.989555 -0.00223927 -4.30553e-22)
(1.11631 0.0796235 -5.5538e-22)
(1.00017 0.0115674 -4.70436e-21)
(1.00091 -0.00283931 7.97651e-24)
(1.10497 0.0691996 -9.09936e-21)
(1.00011 -7.17571e-05 5.69191e-26)
(0.98994 -0.00268482 6.98459e-24)
(1.01985 0.000733755 -3.34946e-21)
(0.9948 -0.00271786 -1.40432e-22)
(1.04745 0.0767002 -9.10899e-22)
(0.989633 -0.0047268 -8.68985e-22)
(1.04383 -0.0214004 -1.28667e-21)
(1.02038 0.00139891 -3.62176e-21)
(1.05188 0.0345054 -2.27375e-21)
(1.00602 -0.0128711 -1.14166e-22)
(0.991933 -0.00293159 1.99108e-23)
(1.06839 0.0651554 7.16266e-21)
(0.979546 -0.0780669 -3.27489e-21)
(0.992293 0.0782603 2.32165e-20)
(0.992825 -0.00349115 -8.31822e-22)
(1.0488 0.0997362 -1.2059e-22)
(0.99285 -0.00298025 2.2337e-22)
(0.999135 -0.000346496 -6.42055e-24)
(1.04215 0.0237845 2.42737e-21)
(1.01254 -0.0261577 1.42054e-22)
(1.03058 0.00252918 4.99954e-21)
(1.00134 -0.000676369 2.66153e-23)
(1.00001 -3.44062e-06 2.41265e-26)
(1.00221 -0.125081 1.47003e-21)
(1.09354 0.110936 -1.18718e-20)
(1.00111 -0.0027556 -1.82296e-23)
(1.11345 0.0711536 8.5255e-22)
(0.990233 -0.00439341 -5.69557e-22)
(1.08918 -0.154668 -1.94808e-21)
(1.04137 -0.0365615 -1.49905e-22)
(0.984007 -0.026728 1.55249e-21)
(0.998729 -0.00070887 -4.18745e-23)
(0.994754 -0.000397087 -1.41133e-22)
(0.973982 -0.0655004 -1.89697e-21)
(0.97572 -0.00585697 1.92121e-21)
(0.992437 -0.00270099 5.64615e-22)
(0.999882 -0.000330151 7.80973e-24)
(0.985469 0.0821856 -2.89197e-21)
(1.10226 0.0614546 5.50203e-21)
(1.02062 -0.00896003 -5.73227e-22)
(0.999854 -0.000102159 6.98943e-24)
(1.02255 0.0797354 -8.99777e-21)
(1 -1.73064e-05 -7.32256e-27)
(0.999865 -9.07145e-05 1.3156e-23)
(1.09426 0.0599385 4.71324e-21)
(1.0087 -0.0216491 -1.05992e-22)
(1.10278 0.100237 9.60773e-21)
(1.01962 -0.00251285 1.34725e-21)
(1.01414 -0.0108229 -9.44881e-23)
(1.0875 -0.0594147 1.21901e-21)
(1.05258 -0.126476 4.21586e-21)
(1.18509 0.0452669 -2.87161e-22)
(1.00094 -0.000674128 -5.55213e-23)
(0.960929 -0.0102162 -1.81689e-22)
(0.999986 -4.13422e-05 -3.14706e-25)
(1.00392 -0.00934029 1.96056e-23)
(1.0513 0.0735994 5.94708e-21)
(0.98691 -0.00543327 1.33304e-21)
(0.997869 -0.00102193 8.72925e-23)
(1.01271 -0.0365155 -8.76504e-22)
(0.99851 -0.000756362 4.40213e-24)
(0.999677 -0.000826658 2.55172e-23)
(0.968208 0.00322981 5.96855e-21)
(0.992372 -0.00376886 -4.73593e-22)
(0.999584 -0.00053305 -5.63584e-23)
(0.999992 -3.10743e-07 -5.86914e-26)
(1.01438 0.00527833 7.35026e-21)
(0.975696 -0.0214958 -3.34081e-22)
(0.999749 -0.000404588 1.73652e-23)
(0.997915 -0.000527271 1.06119e-22)
(1.0194 0.0172214 3.03197e-21)
(1.0585 0.00963048 5.39172e-22)
(0.9661 -0.0177869 -1.89173e-21)
(1 -1.08458e-05 -8.41961e-26)
(1.00127 0.0113301 1.9946e-20)
(0.988093 -0.0142124 -1.16704e-21)
(1.05745 0.05931 -1.14482e-20)
(1.01028 -0.00110478 -1.54894e-21)
(1.01189 -0.00105345 3.60098e-21)
(0.973694 -0.00778797 2.67137e-21)
(0.999931 -4.35305e-05 -9.83106e-25)
(1.0197 0.000179547 -6.75591e-22)
(1.06293 0.00736874 -7.13402e-22)
(1.16308 0.0501265 2.38172e-21)
(1.03704 -0.0958082 9.57002e-22)
(1.03118 0.076207 7.1096e-21)
(1.00453 -0.00137318 -2.32843e-23)
(1.07436 0.0688724 -9.85659e-21)
(0.999687 -0.0122794 -1.87331e-22)
(1.01549 -0.0521104 -3.02118e-21)
(0.999717 -0.000106378 -1.29589e-23)
(1.00237 -0.0164881 4.51901e-22)
(0.999914 -0.000318086 4.63133e-24)
(1.03874 0.0289321 -7.20696e-21)
(1.06523 0.109018 -2.17148e-20)
(0.998867 -0.000863579 3.30361e-23)
(1.01528 -0.0109314 -4.57237e-24)
(0.986376 -0.00268288 4.46601e-22)
(1.04074 -0.0829289 4.36851e-22)
(1.03535 -0.088327 -2.15634e-21)
(0.998596 -0.00057625 6.23984e-23)
(1.03942 -0.0242097 -4.0928e-22)
(0.986247 0.00134083 -9.90107e-21)
(1.15938 0.0324946 1.30282e-21)
(0.999958 -0.00012001 5.70172e-24)
(1.05434 0.00707455 -1.90739e-21)
(0.997457 -0.00736212 -2.84148e-22)
(0.99849 0.00145878 2.18019e-20)
(0.990291 -0.00372671 7.73688e-22)
(0.995916 -0.0230562 -3.90324e-22)
(1.01501 -0.032195 -1.88297e-23)
(0.994618 -0.023847 -3.42231e-23)
(0.998328 -0.0182557 -9.61585e-22)
(0.994098 -0.00231786 1.24459e-22)
(0.998949 -0.0121356 5.38328e-22)
(1.00141 -0.00520255 -1.33808e-23)
(1.04992 -0.0193032 3.85739e-22)
(1.00007 -1.97095e-05 -4.80766e-24)
(1.18508 -0.0909151 -1.59718e-21)
(1.14502 -0.00586694 -1.45922e-22)
(1.01083 0.0907786 1.65561e-20)
(0.967947 -0.0168067 2.80625e-21)
(1.09482 0.0958234 -4.88964e-21)
(1.00146 -0.000532897 9.75865e-23)
(1.06438 -0.0704154 -2.01331e-23)
(1.00335 -0.0343005 -1.05275e-21)
(1.01654 0.0298772 8.81524e-21)
(0.994459 -0.00294687 3.38065e-22)
(1.00007 -0.000137056 2.6063e-24)
(0.988642 -0.0148995 1.53297e-21)
(0.996276 -0.0078335 -2.01315e-22)
(1.03674 -0.0220246 1.09841e-21)
(0.977997 -0.00411017 -1.57241e-21)
(0.980787 -0.00629564 4.79966e-22)
(1.11635 -0.0317918 -4.65591e-23)
(0.989207 -0.00154281 -6.99529e-22)
(1.01268 -0.0337114 6.35537e-22)
(0.988031 -0.0755021 2.41758e-21)
(1.00001 -5.68631e-06 3.67067e-26)
(1.05107 -0.0123504 2.42763e-21)
(0.989952 -0.067269 -6.4675e-21)
(1.1008 0.0831161 4.44482e-21)
(1.08793 -0.0663453 -2.29582e-21)
(1.02929 0.0020899 4.10012e-22)
(1.02354 -0.0973576 -5.53005e-21)
(1.0289 0.101648 4.48665e-21)
(1.03057 -0.0320487 -3.62445e-23)
(0.972913 -0.00684163 -1.57442e-21)
(1.01247 -0.0428224 -1.59012e-21)
(0.988944 0.00198583 9.56879e-21)
(1.14784 -0.0947784 1.03539e-21)
(0.989781 -0.00335168 -2.40002e-22)
(1.02511 -0.123499 -4.20651e-22)
(1.0235 -0.0618134 2.07736e-21)
(1.04023 -0.113139 -7.31385e-22)
(1.03841 -0.0762966 -2.31718e-21)
(1.06818 0.059037 8.96079e-21)
(0.997877 -0.00120024 5.27332e-24)
(1.00629 0.0344864 3.27715e-21)
(1.00607 -0.00129373 1.66344e-22)
(0.999702 -0.000407541 -2.36154e-23)
(0.999036 -0.00182838 2.1547e-22)
(1.05043 0.00115639 -6.40138e-22)
(0.986394 0.000209529 2.77299e-22)
(1.00111 -0.00555598 -1.82725e-23)
(1.0156 -0.0482629 4.24887e-22)
(1.01945 0.0196359 -5.05318e-21)
(1.00002 -5.54643e-06 -1.01884e-25)
(0.98264 -0.00655633 1.12274e-21)
(1.01833 -0.00832645 1.27973e-21)
(1.06726 -0.0371127 -2.01376e-22)
(1.00615 -0.000715732 9.44525e-22)
(0.998747 -0.00158908 3.59545e-23)
(0.9846 -0.0347296 2.29622e-23)
(0.998024 -0.00709896 -1.05427e-22)
(1.00002 -4.22736e-06 1.00442e-24)
(0.978603 -0.0410579 -4.77337e-21)
(1.03976 0.0713136 -2.46713e-21)
(1.01669 -0.0280732 2.25039e-22)
(0.986702 -0.00327631 -7.98237e-22)
(1.00133 -0.000335046 -3.47977e-23)
(1.02193 0.0213835 6.65639e-21)
(0.999701 -0.000493268 -1.10931e-23)
(0.999068 -0.00046883 -4.19158e-24)
(0.99974 -0.000119503 -1.25047e-23)
(0.999379 -0.00172515 -6.17426e-23)
(1.15068 0.0510565 2.34408e-21)
(1.02459 -0.03224 -7.7802e-22)
(1.00635 -0.016275 -6.28087e-23)
(0.98541 -0.00530677 -3.92417e-22)
(1.00003 -3.93751e-05 8.20165e-25)
(1.07156 -0.120341 5.677e-21)
(1.18992 -0.0143845 9.11056e-23)
(1.07773 -0.130163 -2.71119e-21)
(0.996589 -0.0297516 -7.44567e-22)
(1.01103 -0.00798459 1.08442e-21)
(0.999848 -6.82673e-05 5.09982e-24)
(0.990418 -0.00942622 -5.6242e-22)
(0.960551 -0.0404304 -2.58508e-21)
(1.14904 0.0344018 3.75103e-22)
(1.00151 0.0460552 -2.22954e-22)
(0.999028 -0.00262349 5.24604e-23)
(0.949181 -0.0250672 1.29279e-21)
(0.996308 -0.00208463 -3.14226e-22)
(1.02871 -0.0295377 1.62377e-22)
(1.07963 0.0568166 9.45072e-22)
(1.00032 -0.000108943 -2.24188e-23)
(0.999882 -0.000161734 -2.7538e-24)
(1.1267 0.0940635 9.28392e-22)
(1.14429 0.0166247 -1.22879e-23)
(1.0149 -0.0135441 3.72553e-22)
(0.997726 -0.0013131 1.56863e-22)
(0.998484 -0.000265289 -1.32644e-23)
(0.967152 -0.0418911 6.43609e-22)
(0.999865 -0.000273418 -1.00138e-23)
(1.01469 -0.029616 -5.44839e-22)
(0.99255 -0.000487129 1.39272e-21)
(1.00041 0.0137453 -3.90052e-21)
(1.04295 0.0762575 -1.28115e-21)
(1.0594 -0.0649104 1.0393e-21)
(0.993882 -0.0678908 2.37043e-21)
(1.00495 -0.00127879 4.56114e-22)
(1.01191 -0.0219054 2.07362e-23)
(1.13645 0.000833283 6.55514e-22)
(0.993148 -0.0761177 -1.47941e-21)
(1.01528 -0.0412327 9.21347e-22)
(0.999999 -5.27118e-06 4.29852e-26)
(1.12394 -0.0134566 -1.9962e-22)
(0.986194 -0.000886585 1.36045e-22)
(0.991918 -0.0852093 2.97932e-21)
(1.01623 -0.0257798 2.17895e-22)
(0.962856 -0.00974911 -3.51154e-22)
(0.999703 -0.000222272 -7.0583e-24)
(0.997715 -0.000937832 -6.79738e-23)
(1.03279 0.034339 8.45743e-21)
(0.975132 -0.00726616 -5.7739e-22)
(0.999989 -1.1667e-06 1.53946e-25)
(0.997951 -0.000292935 -1.39732e-22)