/*--------------------------------*- C++ -*----------------------------------*\
  =========                 |
  \\      /  F ield         | OpenFOAM: The Open Source CFD Toolbox
   \\    /   O peration     | Website:  https://openfoam.org
    \\  /    A nd           | Version:  7
     \\/     M anipulation  |
\*---------------------------------------------------------------------------*/
FoamFile
{
    version     2.0;
    format      ascii;
    class       surfaceScalarField;
    location    "26";
    object      phi;
}
// * * * * * * * * * * * * * * * * * * * * * * * * * * * * * * * * * * * * * //

dimensions      [0 3 -1 0 0 0 0];

internalField   nonuniform List<scalar> 
11265
(
141.425
-528.86
387.435
-761.252
6.71273
754.539
428.985
-372.257
-56.728
662.11
259.26
-921.371
1510.8
-1069.44
-441.362
1216.28
-1527.12
310.842
-28.0344
468.157
-440.122
168.885
-841.991
673.106
962.062
-1610.8
648.735
-1767.06
1673.41
93.6474
-542.947
1759.22
-1140.93
1934.73
-793.803
607.563
181.24
-788.802
-25.6088
-1316.15
1341.76
221.45
-1988.51
1023.3
-382.783
-640.519
-208.904
350.329
485.067
190.634
-675.701
1155.16
-1313.65
158.49
-307.049
374.709
-67.6603
1001.86
-1318.44
316.578
1221.58
799.461
-2021.04
74.016
-1642.54
1568.53
-494.356
-1159.88
1654.24
475.955
182.005
-657.96
-186.253
-342.607
497.978
1012.82
1649.98
-1809.05
159.069
-97.0177
-1688.94
1785.96
-1559.1
652.715
906.381
-307.957
653.306
-345.349
-190.535
-121.085
311.619
1286.54
-1212.52
355.241
-1407.37
1052.13
-1754.3
1754.3
101.449
1535.29
-1636.74
-1079.91
-479.187
653.732
-681.767
-385.107
941.693
-556.586
1331.87
-1317.26
-14.6091
-1100.38
715.274
626.188
397.115
-383.799
-38.0767
421.876
-474.327
766.311
-291.985
-1618.44
1618.44
1253.57
-1437.87
184.308
-488.73
1710.31
1254.95
-313.26
1660.74
-1161.24
-499.498
78.0425
-385.091
2065.79
-1135.41
-930.385
1816.39
-166.409
454.825
156.127
-610.952
-460.437
971.002
-510.565
-1173.21
1274.65
-567.959
970.623
-402.664
400.245
754.914
661.204
-492.319
-437.782
594.138
-156.356
1190.65
-835.409
2308.21
-1080.67
-1227.53
1163.9
-2009.34
845.439
-1605.08
1579.47
440.653
-1581.58
-759.003
1250.61
-491.611
-672.308
364.351
1661.45
-699.392
-1106.93
-870.896
1977.82
720.712
-366.644
-354.068
689.947
565.005
-258.212
1511.78
113.332
-317.641
204.309
-284.819
760.774
-334.513
564.532
-230.018
-324.514
809.581
-318.416
-147.878
466.294
317.472
111.513
1461.99
-460.135
-988.94
475.16
513.78
277.221
90.7157
-367.937
948.988
-341.425
-1705.94
626.23
1079.71
12.8548
-858.717
845.862
-280.124
594.874
-314.749
157.452
-1093.9
936.443
1051.32
-1066.9
15.5826
373.064
518.371
-891.435
-245.401
700.226
-1103.53
-482.279
1585.81
-677.822
950.655
-272.833
1354.17
-1451.19
-622.532
234.753
387.779
-470.199
-1011.53
1481.73
-538.392
-794.246
1332.64
575.992
-996.093
420.101
-264.899
-316.479
581.378
406.063
-292.732
-1037.6
577.161
955.476
-798.024
-110.354
943.897
-833.543
-209.158
417.574
-208.416
-645.89
-343.05
-386.738
962.729
1856.37
-1856.37
-502.372
-120.16
-953.467
1573.12
-619.657
456.512
-890.611
434.098
-923.414
355.455
-941.907
-1058.08
-1490.1
341.715
1148.39
-273.365
935.475
-311.887
609.827
-297.94
-1941.9
999.994
-1142.36
-347.747
563.394
-1516.86
1728.53
-1725.73
-2.80075
192.357
-584.343
391.986
-1470.11
980.561
489.552
286.235
214.116
-500.351
309.389
-643.902
241.24
-417.12
175.88
2019.48
-863.981
-1155.5
-537.229
153.43
616.164
836.288
-1452.45
-184.029
425.268
431.394
876.616
-1308.01
-907.134
392.575
514.559
-1047.13
1447.37
-1068.61
309.61
751.062
-97.7559
535.211
-329.734
-205.477
1012.97
-537.807
593.368
-1403.83
810.457
-1342.25
238.717
-546.005
265.881
-1202.55
929.187
1941.58
-993.368
-948.214
276.801
1579.57
-2095.56
895.763
1199.8
364.02
-31.4775
-332.543
-223.709
481.771
-258.062
-109.477
-378.208
487.685
-465.891
147.475
340.823
-131.985
588.497
416.107
381.231
-797.338
-2044.09
1124.71
919.38
461.136
-531.198
70.0627
221.403
-362.887
141.483
995.966
1023.51
1788.6
-253.313
709.14
-474.388
796.487
-1389.6
593.115
339.934
380.779
1057.1
-1044.24
-485.865
-265.598
751.462
476.948
-135.534
-341.413
796.938
-615.698
538.614
-733.799
195.185
503.331
1157.4
-1240
701.612
1036.24
-1530.6
-3.12698
-1439.43
1442.55
325.955
824.235
-1150.19
622.907
269.949
-892.856
-2271.87
1158.25
1113.62
-1107.77
-1164.1
167.932
370.682
958.776
-632.82
878.863
-898.613
19.7507
-2099.38
992.456
-224.539
-189.259
413.798
-41.8223
1770.35
-824.914
63.6623
-1028.88
-1066.68
-229.341
450.744
-660.498
158.126
-276.149
-455.292
731.441
1104.01
-1574.2
782.889
-1374.4
591.516
708.281
-449.021
1947.85
-1444.52
-378.284
-1376.01
56.3123
411.845
-522.99
529.703
13.8214
-566.549
552.727
569.172
-282.937
-603.848
279.007
324.841
778.795
-362.688
34.0099
330.011
1188.47
-1191.6
176.551
229.513
427.368
-703.517
619.326
-1006.06
-2026.73
2026.73
-271.67
-464.246
735.916
699.1
405.865
-1104.96
579.582
171.479
401.905
376.891
-2199.75
1328.86
-926.411
-679.318
1605.73
-482.364
-720.188
-274.666
584.566
-309.899
844.363
-226.824
-617.539
-439.941
632.298
363.536
-675.423
-356.423
-112.08
468.503
-1333.68
-475.373
651.407
-1133.77
-374.145
-1244.3
844.339
1463.87
304.474
-909.186
604.712
966.4
-340.212
1391.36
-797.993
443.867
-267.316
-327.552
-888.643
593.468
295.175
-358.499
-530.144
307.41
-416.887
-180.96
-159.948
340.908
-392.779
1091.88
434.797
-244.163
-393.187
1354.54
-166.673
-1187.87
-458.374
269.116
189.259
236.7
286.198
-522.898
-10.0445
-723.755
592.125
-1729.03
1136.91
1482.81
-866.645
-1053.36
-416.758
-1056.92
573.689
483.23
1390.02
-409.46
929.094
-1411.37
-177.649
-175.451
353.1
-468.927
580.23
-1627.36
427.921
903.944
291.178
342.027
-633.205
568.056
1186.24
1103.71
-713.718
-389.99
404.693
-217.494
-187.199
-1419.45
445.647
737.859
-1183.51
1473.33
-544.24
-505.916
956.013
-450.097
426.152
1186.15
-1612.3
47.3827
-725.205
-145.709
422.931
189.907
-380.442
546.775
466.192
-584.039
33.6708
550.368
1024.53
-1307.66
283.132
662.71
-260.806
468.308
-1447.24
978.93
388.135
1687.1
-523.202
885.693
1055.89
-660.934
-1684.65
758.244
559.634
401.018
-960.652
454.926
78.852
1750.03
-1828.88
1443.7
-379.49
-1064.21
1699.17
-1740.99
-366.972
-517.696
714.952
-197.256
-502.592
183.14
293.807
-373.186
-1225.97
214.44
-764.641
-639.185
-620.854
994.069
-373.215
-652.747
642.694
10.0525
654.96
-923.595
268.635
-697.498
344.021
353.478
-648.248
-720.872
356.626
364.246
-932.26
1400.57
-416.782
886.194
-469.412
-2205.31
5.55742
179.342
-535.448
356.106
139.612
1214.93
-62.3948
-598.103
158.627
-596.41
1487.12
-704.235
374.462
-462.191
87.7289
-564.306
564.306
1223.02
395.425
1778.02
-1228.61
589.446
639.167
848.942
-52.0047
1291.81
773.981
-540.376
1336.86
294.459
300.415
271.786
-789.482
207.551
-681.878
230.341
-443.407
213.066
-265.237
599.164
-333.928
108.254
-373.491
-591.719
-564.624
1156.34
-409.703
531.092
-121.389
-1192.15
2032.04
-839.885
1289.41
-330.631
-400.982
136.083
-1984.45
824.567
1543.99
-856.647
-687.34
1986.98
-877.447
-1109.54
713.812
575.595
-240.584
470.925
-687.366
1165.23
-477.86
-769.84
1201.23
551.692
924.63
-1725.25
800.62
-585.801
-46.4346
632.236
266.934
268.277
417.496
-82.6838
-334.812
896.666
-83.5048
-813.161
913.353
-569.596
-343.757
1576.19
-472.181
890.388
-1627.21
736.82
1068.47
879.387
748.823
-442.355
-306.468
-1058.96
-258.295
563.071
576.793
-1139.86
-514.211
494.132
20.0797
576.721
-344.076
-232.645
-983.528
566.746
595.148
887.661
-441.811
1096.77
1414.06
-781.49
-632.574
395.161
-924.308
529.147
-1033.37
387.482
563.776
-1069.69
414.014
-500.72
86.7055
445.471
320.84
-515.577
-48.7289
-794.195
-879.011
1673.21
193.334
211.36
-241.01
408.942
2.21545
-567.61
565.395
497.661
865.737
-1363.4
-492.957
311.997
985.59
-88.9243
836.067
-1064.73
228.659
417.156
845.968
-1386.34
-448.444
829.675
1978.88
-1285.17
-693.71
269.882
608.98
255.765
795.551
88.9669
-978.654
889.687
1673.73
-1089.02
-584.719
-137.892
1887.92
-1866.08
-160.653
483.163
-621.336
138.173
-1013.65
526.902
486.751
-1730.47
538.318
-955.733
845.38
392.268
201.87
573.805
-269.33
-420.457
710.323
256.077
40.206
723.2
-763.406
-1136.02
-892.226
2028.24
-555.027
1112.89
-557.861
-472.098
-332.487
107.948
-1655.36
861.165
-846.003
-621.723
1467.73
-330.969
-294.987
625.956
355.685
-673.032
317.347
241.376
-604.064
307.625
201.109
-508.735
364.439
-639.105
645.648
-289.963
314.956
-462.834
685.27
447.465
-210.765
-421.165
-299.708
1222.38
-0.862994
-1221.51
1039.49
-420.163
559.852
410.771
-1782.35
869.819
912.528
489.565
550.342
-1039.91
-534.459
203.49
-263.348
1181.16
-917.811
-1590.86
1212.58
504.655
-1096.37
385.305
-10.843
462.675
295.255
-757.931
371.701
-617.102
-33.0554
756.702
-723.647
-525.648
795.597
390.363
321.987
526.955
653.128
104.694
-448.327
343.633
1058.65
-644.997
-413.656
494.026
-1664.27
1170.25
-1140.38
1753.24
-612.851
1715.84
-1123.72
-334.641
613.648
-1189.5
1278.47
425.007
-796.341
1605.36
-809.015
-246.544
-211.831
-908.591
1470.62
1813.41
-611.055
-1202.35
-405.043
684.45
-1305.3
-124.716
-71.1779
488.674
-689.915
-354.178
-1236.68
-220.097
461.473
903.264
-558.159
179.95
-1674.67
-71.2314
1745.9
-1075.37
520.339
567.839
-1182.49
614.65
901.022
912.384
630.659
619.955
702.135
253.878
-1157.01
469.64
-397.775
411.597
619.763
-514.801
244.766
-730.92
486.153
726.122
-386.188
-302.931
181.847
-589.233
245.355
343.878
-887.292
-739.917
1087.67
-2145.75
398.601
-683.421
-342.883
-724.016
832.456
581.609
-341.933
303.856
410.932
249.839
626.469
-876.308
540.944
624.282
-509.372
152.949
374.818
-646.488
-1051.79
-844.504
1896.29
-1799.66
157.117
1107.01
-1370.35
1177.26
-717.567
-459.691
-503.873
1349.84
-1495.5
627.898
867.606
-286.357
-210.131
496.488
1428.41
558.571
331.314
-443.393
-483.224
-568.124
1051.35
-418.864
598.206
1582.59
-1129.72
-452.868
-808.979
344.733
654.75
403.904
-1623.42
416.171
1207.25
-190.872
498.498
797.752
784.837
175.095
-684.08
508.985
206.194
211.38
-290.385
-109.519
399.904
478.431
51.9981
-530.429
-1648.18
594.829
-1611.28
1678.64
-67.3512
11.9779
-1623.26
1069.56
787.956
-325.281
-828.257
-205.115
-1134.57
-239.835
-312.142
683.843
-1812.56
-630.729
1207.52
213.619
757.383
-1330.71
-678.625
-465.634
657.026
-365.848
-1013.28
1350.78
-1932.9
582.125
646.545
1288.19
484.578
-2.80659
716.195
707.188
-1423.38
-638.495
335.592
302.903
439.211
-100.266
-338.945
148.403
284.494
158.633
-443.127
-587.3
1146.93
457.07
-635.601
-461.337
-401.912
863.249
-323.26
145.61
-457.351
164.619
-304.36
-709.293
546.497
-107.286
-572.019
967.181
577.22
-269.128
-308.093
455.127
-779.641
-644.696
447.687
-1129.4
-840.863
1182.58
-569.77
445.093
306.369
-485.407
118.763
1028.56
-315.655
592.086
-276.431
-509.041
1578.6
-709.978
267.102
368.283
-635.385
202.155
532.347
-23.2311
-509.116
-254.816
-202.536
1006.63
1108.91
564.829
-877.226
937.832
-60.6063
-454.772
168.415
-769.446
314.154
-594.084
367.828
358.294
837.951
-1255.92
417.971
777.123
-810.178
-948.918
-550.385
1499.3
-170.382
512.408
-531.126
201.392
1310.68
776.666
-601.57
1337.17
-685.761
487.651
-658.752
-405.931
-422.893
-378.639
801.532
502.23
-843.655
-483.621
77.169
406.452
-321.863
572.438
728.631
-330.03
-243.325
-175.401
418.726
-488.142
142.607
345.535
1458.93
81.5341
-1540.47
-752.285
1347.43
-1144.76
-466.032
562.606
-194.323
1151.09
-373.969
1083.48
492.711
691.213
-419.427
-884.986
-522.386
-1328.41
-25.0573
985.068
-960.011
611.789
350.12
-961.91
-321.563
-215.666
-683.549
405.527
1621.2
-197.19
369.198
345.064
-714.262
-1839.78
-2106.69
1519.14
587.544
-2038.55
349.614
381.029
546.306
-927.335
-460.348
1020.2
-411.305
-681.66
1092.96
-2030.54
1391.21
639.33
608.497
-1019.8
21.2739
392.74
386.688
197.193
246.674
361.965
989.526
896.426
679.628
-325.119
-354.51
-293.117
621.17
-328.054
572.824
530.884
565.125
514.802
-1079.93
-796.176
-699.327
752.152
398.939
-414.583
731.93
-1193.41
1609.58
434.601
-1116.26
-325.707
526.816
-1388.66
896.546
492.11
-722.405
-352.844
-770.902
330.898
440.004
447.159
718.106
-1165.26
1070.53
-580.961
-405.951
649.947
-243.996
253.256
323.965
-467.76
-432.207
899.967
-234.866
570.774
-954.871
384.097
-459.286
600.598
-1681.27
423.833
670.811
-1094.64
516.419
93.4083
113.409
-2212.79
558.632
-113.539
1444.3
1777.09
-217.551
-1559.54
-438.467
1789.24
-1987.05
1194.51
792.547
402.261
346.561
-41.0064
873.462
-1283.23
718.601
-869.672
-822.497
797.44
305.284
55.6256
-360.91
227.441
182.137
-409.578
1555.4
-839.209
-1530.94
-325.432
460.531
-205.175
-255.357
394.167
366.607
248.788
408.238
-9.57433
1002.11
-992.538
417.742
281.7
-699.441
-734.093
1817.34
-1083.25
-342.91
737.076
-1222.04
-414.699
-915.302
483.095
605.53
-812.171
206.641
761.294
-379.976
-381.318
-436.29
-440.936
451.373
1104.72
1237.9
-670.064
800.848
-345.721
405.007
330.908
-248.544
-213.647
-235.703
623.838
408.129
-847.431
439.302
246.618
361.583
-608.2
-422.209
830.338
754.435
-1147.21
900.757
-62.8062
-487.257
273.61
783.485
-96.0321
1384.22
1890.5
-66.8642
335.98
-345.28
449.974
-1086.64
1077.06
666.53
376.495
384.799
69.5136
391.017
255.446
499.094
-371.866
-266.629
-563.135
-89.6115
-356.915
365.706
-8.79104
-258.024
-287.981
1010.97
-1540.71
529.742
-176.141
-196.116
-421.233
702.933
-1637.2
1591.01
-963.114
288.213
-694.143
584.32
1224.42
-1808.74
607.421
983.591
310.208
-1120.39
699.935
-315.562
-317.643
1381.45
-1447.36
829.734
617.628
431.298
-616.275
184.977
-359.236
462.091
-102.856
406.544
71.8866
1724.09
458.942
-252.747
557.639
-1704.79
1147.15
-94.8403
408.34
343.186
336.442
-448.613
-615.403
1064.02
414.308
-862.752
-640.893
902.77
570.564
-472.727
-224.771
-438.302
-409.13
-307.373
-827.196
1821.1
-1821.1
-102.803
-1597.31
1700.11
293.677
283.044
-917.152
-555.426
1472.58
-408.225
973.35
-606.347
-1041.84
708.186
385.544
-1093.73
476.517
-161.561
573.066
1220.35
-1793.41
-1042.73
2114.46
-1071.73
-375.583
-296.726
-504.566
849.299
-1753.96
1602.71
151.246
1753.96
-1607.84
-146.116
-245.006
523.845
-278.839
-537.293
1620.77
1569.87
-1984.57
1095.67
-338.811
-228.242
567.053
229.706
-555.413
-726.665
312.082
1341.99
636.885
581.306
482.643
-1063.95
274.979
416.234
875.364
500.11
-1375.47
534.64
-1017.86
1574.95
-563.988
-786.282
-377.069
-150.184
527.253
-490.106
1208.21
-740.174
332.583
367.644
362.076
244.289
-606.365
591.782
831.855
-603.196
255.536
682.297
-472.727
-373.539
-204.144
577.683
1168.52
-689.821
609.386
466.487
-1075.87
-1286.7
1286.7
-385.721
762.216
-282.824
-477.402
760.226
490.572
442.109
-932.681
390.48
-673.304
609.621
-868.765
259.145
-367.443
-493.226
1074.53
-661.008
-710.931
1371.94
-366.835
937.609
-1552.72
675.276
-8.58822
-364.747
373.335
-550.102
708.227
282.548
316.616
169.535
306.983
-564.611
249.049
1869.79
-1965.82
251.569
-691.51
449.963
-820.252
370.289
-911.144
1429.39
-518.245
-430
-485.302
600.768
1124.19
-1724.96
-715.191
339.608
-461.429
1034.25
-787.659
1043.19
-378.022
-627.758
-510.887
718.438
539.72
-357.715
904.88
-301.668
-186.474
1599.02
-1816.58
-335.082
-619.789
-333.631
476.238
272.073
-637.921
-157.935
1067.71
-794.095
205.254
-320.56
-272.643
593.204
387.776
-877.346
489.571
-485.59
-452.274
-909.186
-355.808
544.78
-188.972
-437.416
-425.946
-325.426
-183.309
-388.483
632.771
-466.506
797.414
-1072.56
623.943
-1407.79
561.788
-28.2279
-1836.69
1864.92
569.972
-449.901
1226.05
-705.708
288.018
-288.018
671.63
-439.283
1042.87
-1649.22
-1158.73
-947.953
291.838
329.333
890.8
714.556
-506.339
-287.242
793.582
1658.64
-1686.87
-434.127
346.079
223.093
1135.01
-525.628
-943.335
1550.48
-607.146
443.77
-246.578
379.949
412.478
-792.427
533.847
468.227
-1002.07
-331.757
664.34
-37.9426
1907.73
1606.26
992.72
-1696.96
726.956
-1176.99
450.038
-492.482
1367.85
837.403
-1341.28
-585.565
246.754
798.745
-397.727
550.602
-1188.85
638.252
-637.26
-1215.53
-695.667
1911.2
-183.128
528.962
-345.833
-120.193
293.22
-476.348
329.041
369.134
-698.175
-1485.18
756.308
728.869
884.054
-1434.44
824.634
-432.059
217.472
-363.182
-614.582
241.043
-669.726
-718.93
698.377
506.519
-1204.9
391.804
-204.553
-187.252
555.584
-958.248
-572.877
-451.368
765.522
-831.31
-1155.74
-1437.96
499.674
938.291
28.7873
-655.112
312.058
343.054
-1316.36
1045.83
270.531
-616.294
-456.262
-665.783
921.548
400.69
-201.685
-199.006
508.269
980.595
-1488.86
975.955
-562.163
166.401
395.762
-432.222
663.378
-411.809
-504.222
170.591
234.28
-1519.45
527.295
543.231
-763.714
213.612
152.49
-454.158
364.819
-817.094
1954.16
-1195.39
-758.772
448.038
-677.013
228.975
323.316
322.079
119.88
-441.958
-571.68
193.643
265.299
-691.752
1374.31
-682.56
424.086
478.588
-1200.99
265.821
1866.78
-1013.59
-853.185
784.685
-505.699
149.892
1402.35
-975.164
-427.191
329.081
-768.364
-616.533
1725.44
610.193
627.711
318.333
-13.0485
257.428
-1138.41
1725.72
-587.314
-1763.53
820.196
1763.12
-1693.03
-70.0912
-654.526
256.751
603.244
-712.096
201.209
1402.69
-565.286
386.313
443.361
-1858.62
1420.16
523.197
-453.008
-70.1884
198.949
-524.375
-322.634
-149.463
-352.086
695.272
-619.534
242.465
612.568
548.689
-1161.26
1113.6
-1947.52
833.918
142.714
325.788
-1699.34
1661.39
309.641
-729.068
-165.301
382.774
757.339
678.532
-1435.87
1081.08
-1081.94
523.474
-1104.43
-629.865
252.391
377.474
516.835
-271.479
-618.487
-1030.73
288.592
-714.537
-912.321
169.726
163.961
227.844
389.35
285.55
-674.9
-631.887
-834.094
-978.468
487.265
-1058.94
-282.831
472.09
532.583
649.995
-279.122
-121.86
-441.471
751.679
261.464
-1199.48
567.59
1309.88
-552.54
437.874
-1010.75
-386.409
116.906
406.291
1023.3
551.651
-1720.19
1617.38
1643.16
-582.013
-1061.15
1904.2
-1892.92
-11.2804
231.085
-576.364
-340.83
546.084
-771.467
-319.163
-335.363
1024.68
701.735
-1512.13
810.393
309.359
-26.1879
1625.21
-1098.13
408.31
-1259.27
472.988
-60.8156
1519.75
1197.33
-470.373
-488.05
-74.1129
-233.84
736.037
-1951.57
-710.006
349.574
-531.008
181.435
191.138
-506.793
1139.92
671.574
-1811.5
-589.17
136.162
941.922
-1497.35
-210.514
678.86
-468.346
877.683
1122.32
-739.7
1349.89
639.906
-541.294
-98.6121
-343.759
1173.49
1050.94
-1980.61
929.669
-1172.62
541.895
1488.78
-586.009
-386.712
-122.661
-1242.08
572.019
1167.01
-87.2957
946.127
775.672
-1721.8
-208.585
578.59
-1541.75
963.155
487.005
916.586
-1403.59
622.109
585.414
388.301
-1106.63
590.69
1107.38
1215.68
-452.276
-763.402
-1186.2
-1754.94
-5.931
-1714.26
-177.343
-438.932
1608.27
-630.082
-978.188
-490.852
1121.51
-1318.56
635.41
683.147
-1362.47
1444
-1331.08
591.38
1520.51
-403.244
-548.293
161.581
-1493.16
224.483
176.381
204.786
435.12
458.483
395.675
-854.158
506.375
-938.969
900.605
-1444.85
-694.377
211.918
482.46
-1042.49
455.189
-475.809
862.122
694.729
28.3894
-505.765
159.932
-886.566
-1318.74
-715.033
349.199
365.834
402.792
-722.909
320.117
-478.287
-189.381
-709.232
720.978
1539.76
-593.631
818.243
737.161
1344.75
-844.639
-971.204
-570.542
-796.711
428.214
368.496
-1036.46
-642.195
303.538
338.658
-1433.69
-296.78
-790.322
397.568
392.754
-642.914
413.114
229.8
-668.272
256.463
412.801
487.166
389.92
440.418
478.634
384.615
596.361
-969.546
682.909
464.026
453.242
356.396
-809.638
1630.75
-1079.87
-550.879
-504.628
-287.866
-1028.5
453.734
347.798
409.703
593.828
-1003.53
-1381.58
751.5
-531.82
1146.47
345.672
-61.1782
412.327
-865.198
452.871
-1899.19
301.876
441.005
-725.907
284.903
-187.02
404.314
-217.295
-661.373
306.392
354.98
-673.886
319.377
370.947
391.269
612.546
-1020.77
752.853
662.524
-1415.38
438.819
625.198
339.219
392.723
-731.943
408.693
328.383
615.104
693.944
410.776
605.772
-1025.54
419.766
-1678.95
1179.87
499.08
1696.58
-539.178
620.464
-1147.27
526.81
-642.305
347.318
437.45
-934.935
497.485
774.966
-479.711
351.1
344.172
582.244
-917.326
651.9
-1253.07
601.173
391.86
734.555
-1224.66
769.352
509.687
-1279.04
489.612
399.121
-888.733
-501.7
-936.265
-300.396
629.437
352.598
541.592
-894.19
332.32
332.02
-502.184
1944.74
436.78
-846.86
410.08
-917.774
-807.476
-748.332
367.014
-1219.69
432.03
-1736.59
1607.84
128.748
1747.68
-1602.71
-144.972
-784.023
-592.607
265.264
327.343
-1763.12
1984.57
538.658
791.351
-1330.01
440.132
716.211
690.186
385.633
-1075.82
-47.7024
1617.15
-593.842
379.135
846.911
-648.915
325.94
322.975
-378.591
-297.437
550.693
-220.778
434.894
280.168
-665.663
385.495
264.172
-578.921
-282.152
442.629
-1033.33
590.701
538.053
1092.7
366.044
596.685
311.171
352.005
-663.176
1630.53
-928.799
1692.06
-1520.72
-171.342
-328.436
-823.003
413.873
857.441
-1067.95
-606.771
278.718
-1090.58
1628.63
-1593.01
-76.8501
1669.86
-341.507
-350.358
-370.349
537.799
597.215
-502.853
-28.3454
-549.868
506.286
-283.781
-222.505
1754.96
-1303.59
-624.739
298.603
326.136
400.121
357.302
734.577
-295.407
-399.133
-1747.68
1686.87
459.634
-1100.83
641.2
-42.7182
1660.1
571.164
476.389
-1047.55
104.036
1144.73
-1452.11
-12.0235
-1887.16
227.447
-598.409
307.444
290.966
-955.26
612.378
-898.069
468.07
-1128.47
673.29
455.185
382.793
256.083
-762.423
-333.526
1216.91
886.639
699.174
-1182.9
456.162
726.733
494.454
700.615
-1195.07
-388.872
-248.045
412.005
-960.494
438.675
521.819
21.2419
-1879.87
1079.92
-470.296
-497.932
558.326
-1378.21
819.879
-426.701
796.99
-405.523
500.242
-713.297
1719.93
412.249
-184.406
215.45
-170.115
-246.234
416.348
1895.33
-504.118
-1696.89
1051.36
-600.946
303.508
-1013.63
553.279
-313.1
544.342
905.217
-1449.56
-1103.64
437.857
-20.8661
-1944.95
1714.22
-663.275
-540.258
460.783
-1190.45
729.665
191.443
209.247
-281.272
770.641
699.977
837.857
817.905
-461.509
1084.83
-492.183
478.363
-193.064
-285.299
-1923.52
-713.883
-318.242
-642.742
-6.59445
649.336
466.683
-273.04
565.228
1065.31
-806.645
924.616
1244.24
-425.435
-167.325
-249.018
416.343
957.267
-888.469
-319.165
-1067.76
611.494
1558.52
-802.208
537.711
934.867
-392.753
734.662
-341.91
1130.32
-275.698
373.938
1349.68
-705.347
-218.961
448.319
-1198.59
750.267
-982.24
-142.234
1124.47
441.442
-955.549
514.108
150.828
732.439
483.238
743.679
-117.21
852.745
-425.896
1182.42
-796.788
552.222
-1465.47
913.249
-1216.65
1800.97
-431.71
-1510.19
879.587
-1401.97
-308.44
-449.491
1457.2
-1524.34
784.42
1491.48
201.514
276.848
-351.732
-1736.59
-286.073
-1015.72
1580.95
-1771.49
1771.49
1569.87
-1004.48
-633.894
-334.278
368.413
604.937
-414.069
-360.418
-1389.81
897.327
1125.13
600.593
1202.68
1789.48
-1216.42
-614.064
273.619
1659.05
-1916.55
257.492
814.803
-1267.67
1545.23
-561.637
781.403
331.485
-347.632
554.999
794.843
655.439
1372.81
-257.951
-445.198
-356.464
496.688
-340.562
471.847
736.365
-293.267
-148.692
-329.771
565.808
-236.037
28.1891
-372.265
1107.43
-1720.28
-454.588
-488.012
-564.637
863.527
694.989
-1596.47
904.721
-451.84
-623.935
-514.197
1252.06
346.046
1723.74
-1702.49
-1658.64
1892.92
-1560.78
840.237
720.545
-388.794
-1796.79
917.774
583.363
819.326
-387.734
1794.36
-680.759
-451.656
698.055
428.499
-1126.55
-1099.94
444.15
753.178
-1617.17
473.223
901.09
176.476
-402.171
225.695
-1601.99
-386.524
-463.402
990.263
-674.492
1442.93
-976.657
1854.34
242.135
-549.432
496.982
-295.468
474.328
893.519
543.179
977.333
-463.009
-427.955
574.052
883.152
-1392.7
-40.9905
1574.89
-837.731
519.959
971.516
-1475.83
-1115.9
1777.74
-1242.87
-534.872
1206.13
-319.096
-887.031
-191.584
454.625
-263.041
-457.41
-250.756
431.277
-180.52
145.956
-394
1735.75
-1741.68
-458.723
-530.861
-903.578
444.331
-206.241
-238.09
634.146
-483.121
-398.441
-312.462
710.903
-948.573
418.428
-1167.23
676.382
418.61
-637.784
-438.452
1578.04
-863.483
530.19
-458.043
-570.636
-462.695
363.432
-353.066
-10.3664
-1113.23
407.525
-664.82
-1033.63
1698.45
-604.615
-1423.77
712.838
562.232
-1596.26
1034.03
-398.401
-480.345
148.175
553.961
-1258.46
744.265
539.239
1005.99
-2133.18
999.987
1133.19
-354.649
411.356
-386.193
-25.163
1478.05
-369.774
449.564
1186.31
582.319
906.46
567.484
527.626
-1095.11
165.772
-440.477
-1693.03
250.952
1127.55
-617.17
518.533
1013.71
-1532.25
1092.84
-1643.72
198.35
702.406
548.401
-867.567
-1086.45
-171.121
428.092
-256.971
-586.847
-428.987
-636.821
-627.466
346.194
-1618.99
939.671
-476.89
215.667
-400.073
534.879
-307.431
-611.63
1197.15
-1294.28
937.226
357.05
-1023.34
-363.051
-759.061
-826.429
1689.96
-477.054
1795.24
-1585.71
-209.53
-1556.62
1018.7
537.922
-727.177
-259.394
441.983
-182.589
-594.919
383.909
273.759
-657.668
-524.047
989.87
630.118
-351.401
-1620.26
1050.49
571.781
1103.53
-1675.31
-413.436
-291.941
-369.432
-746.172
-493.169
-331.01
500.545
1558
-995.763
-775.01
1497.46
660.012
-313.933
725.882
1152.36
-1878.24
278.783
304.491
-487.275
-1932.69
1720.2
212.486
738.388
-474.774
-263.614
531.843
1060.81
-1592.65
363.432
-1726.28
-233.211
1752.35
-1580.68
1073.76
506.921
-1728.12
1.84332
-521.779
411.356
1699.34
-1720.2
939.617
624.714
-1564.33
381.843
-218.939
-162.903
-417.813
-250.459
67.1128
94.9063
-354.3
-429.734
-439.031
-407.121
220.101
1510.22
378.931
-194.356
-448.558
462.387
-197.088
324.051
1510.76
988.598
-172.038
-816.56
-1104.09
1704.86
-1728.83
1064.01
-707.245
-1021.58
-1265.08
1844.99
-579.907
1155.07
-1771.18
616.112
270.862
-878.056
1675.77
43.4387
-1719.2
-491.173
-1083.03
-1735.75
-981.922
553.967
1019.58
590.241
1133.02
-1723.26
274.822
-469.144
703.734
-384.358
388.052
924.78
680.948
-373.187
-652.352
582.907
1072.54
-1655.44
-401.227
-368.058
769.285
397.703
-1661.39
1520.72
140.678
582.678
-1044.11
544.752
1083.88
-1555.67
994.03
-237.597
228.359
317.725
1904.2
422.119
-67.5085
995.856
722.752
-1718.61
-697.176
1085.32
-1557.5
165.592
-571.15
197.038
265.349
-666.108
-553.58
582.55
1034.6
-711.071
-255.048
-1368.59
675.32
693.272
-414.657
745.103
95.0287
-840.132
561.853
-137.166
1557.32
-215.678
267.653
-772.837
-1932.69
1664.62
1024.3
344.021
291.367
483.599
-930.03
-993.494
-1767.26
636.3
1693.77
507.897
-474.402
1210.77
1087.12
-424.954
1029.89
-978.329
492.095
486.234
700.36
1047.94
-1748.3
484.137
483.044
-1493.98
-746.64
32.922
780.077
-413.063
-882.212
384.279
-539.121
-802.155
604.712
-577.48
1397.36
1055.15
193.841
234.251
-550.636
1618.52
-773.2
1526.05
-1727.84
575.267
1152.57
542.898
-883.111
-1732.86
1916.55
-183.688
1721.74
181.585
-544.357
366.786
-271.879
-481.477
1211.14
568.272
1128.31
-491.262
429.071
857.994
-460.879
-771.907
426.551
345.356
1419
1089.59
-518.239
1422.96
-510.598
-533.315
1043.91
-602.772
503.313
-1220.88
1692.06
1839.58
-687.215
1585.77
-646.157
-1241.23
717.186
-562.582
201.794
-391.053
454.059
-242.679
-519.573
-1246.71
1870.94
-624.238
1173.43
-552.968
1120.27
-1659.45
1697.27
-573.952
-546.101
-549.826
1720.07
-316.945
-688.061
-473.346
1223.61
-1685.44
-1860.11
613.4
334.45
-951.989
168.235
213.201
-1719.03
1204.15
514.879
1162.85
558.889
-511.982
-465.403
1192.14
178.971
225.343
588.446
1251.13
-539.179
-1238.58
1777.76
-1025.37
999.989
866.787
-204.101
-1659.05
1702.49
-510.109
1411.2
-1732.86
-340.728
-5.11049
345.838
-262.617
584.658
-322.041
103.112
490.356
781.201
-378.409
1257.52
1270.8
-413.363
851.954
-438.08
1817.48
-662.412
1586.57
-1723.74
-412.799
-762.616
335.453
427.162
-560.086
-563.375
79.7376
-1138.7
-985.431
-669.882
1655.31
-943.704
-1189.47
207.945
-436.187
-648.117
705.664
1167.45
650.034
1410.32
-590.998
1636.74
1318.09
-573.825
-492.328
196.86
-503.295
1396.81
1240.12
-564.804
-999.985
892.804
55.6665
-948.471
603.433
-506.156
1403.48
1495.07
-588.613
-365.469
365.469
-589.469
1623.5
1239.45
-486.27
1134.15
-65.3509
1851.31
-392.895
1489.48
-588.877
-507.685
1347.92
-652.148
1218.64
-566.492
1554.81
-591.657
756.717
570.956
-1327.67
-669.632
261.998
514.668
600.343
-1957.29
-992.975
1586.57
368.37
-368.37
-68.2096
387.562
437.072
350.268
56.2759
-316.806
926.798
-534.938
-426.475
814.037
-242.944
620.418
-427.296
1552
-444.344
-884.064
186.504
226.293
-412.797
601.17
1250.77
-1851.94
926.907
-458.837
-353.066
126.15
-1943.03
1816.88
-450.286
182.969
1181.21
-440.472
-740.735
-299.092
-583.12
-493.195
-386.193
-480.095
257.59
1158.29
-561.073
230.564
-381.029
150.465
-22.7606
-107.68
1376.01
-1268.33
34.5873
-597.722
-586.423
-451.33
451.33
-1262.35
1985.1
-1344.36
-206.436
-1824.47
238.768
-1025.75
-974.243
-185.345
-1638.15
708.118
1229.32
-1924.99
368.537
312.93
-681.467
-1850.02
1234.27
615.746
-561.106
561.106
-959.122
-39.9742
-1866.08
-558.154
1650.85
-676.987
1636.18
-601.586
-181.146
-1706.02
-584.451
-471.248
-594.817
-465.553
465.553
-1537.81
194.527
1343.28
172.692
225.562
-398.253
503.153
485.445
996.923
-475.104
1751.3
768.247
-422.024
396.861
521.284
1702.06
-594.633
-552.971
1636.85
470.657
1812.76
-645.319
-1804.09
-1938.07
-646.992
-477.969
477.969
-574.527
218.064
-704.923
1019.33
-466.048
-1073.03
-285.666
1579.57
1852.3
1635.35
-1635.35
-290.166
738.83
1761.5
595.791
1275.15
172.928
208.915
593.087
594.471
1603.51
-1603.51
221.778
-354.372
-435.431
459.19
951.353
-459.258
-639.458
-1131
1706.26
279.761
-1661.67
619.833
-289.059
470.644
1744.65
-592.078
-215.326
-444.204
378.044
729.339
1738.57
-613.447
-511.773
-780.682
1960.54
-870.456
-1090.08
1642.76
-705.31
1223.97
-1824.95
600.98
359.869
-909.3
-185.656
-105.047
1098.17
-486.675
126.165
628.901
-1659.63
435.421
598.091
-1804.09
-583.282
1787.43
884.043
-1162.91
1760.49
-597.581
1783.83
-575.535
-1208.3
431.564
928.268
-1741.68
924.69
-1485.53
249.541
1235.99
-830.961
-1254.22
-378.633
75.3321
303.301
581.736
269.018
1028.04
-443.3
846.361
-403.06
820.916
739.325
-1560.24
643.977
1066.33
-24.1537
-662.876
687.029
-1744.36
722.78
702.073
150.554
-1122.67
1936.76
-674.554
-1262.21
-537.179
1665.49
832.218
964.668
-1796.89
1227.86
683.337
-403.954
710.347
835.903
1028.21
-586.766
1761.5
626.411
1773.56
-1185.61
-587.95
-422.45
-324.715
747.165
121.449
-1185.66
1660.55
-540.273
-1437.8
1437.8
1250.57
594.419
1351.52
206.474
-567.466
281.96
-191.244
699.098
1113.67
481.691
-302.72
-870.029
-574.816
1739.84
-1739.84
993.734
-993.734
987.333
1025.17
-2012.5
1837.95
-613.979
-581.112
842.119
-947.851
-1052.16
998.32
690.767
-1689.09
-515.577
-368.009
-651.793
-808.428
2042.7
-1246.42
-613.688
1002.97
974.854
1289.77
646.991
325.144
1012.69
237.251
337.901
1186.24
1756.88
-1756.88
671.823
79.7781
-387.871
-997.055
-539.993
1674.14
990.27
1009.73
-1833.29
-222.762
-361.689
597.651
-346.699