/*--------------------------------*- C++ -*----------------------------------*\
  =========                 |
  \\      /  F ield         | OpenFOAM: The Open Source CFD Toolbox
   \\    /   O peration     | Website:  https://openfoam.org
    \\  /    A nd           | Version:  7
     \\/     M anipulation  |
\*---------------------------------------------------------------------------*/
FoamFile
{
    version     2.0;
    format      ascii;
    class       volScalarField;
    location    "36";
    object      p;
}
// * * * * * * * * * * * * * * * * * * * * * * * * * * * * * * * * * * * * * //

dimensions      [0 2 -2 0 0 0 0];

internalField   nonuniform List<scalar> 
29540
(
0.00943029
0.135054
-0.00978524
-0.0391036
-0.0028067
-0.0400482
-0.0329484
0.00824058
0.00226981
0.000185231
0.00390882
-0.00567208
-0.000593391
-4.54034e-05
0.0831927
-0.00671479
-0.000244745
0.00902842
-0.00248099
-0.0115564
-0.00102274
0.00213339
-0.00995422
-0.00244163
0.570886
0.134174
-0.000635679
0.47173
0.0702036
-0.00201007
0.017782
0.0564881
-0.064092
-0.00829006
0.479555
-0.0103954
0.140427
-0.0294295
0.00651132
0.00624078
0.000470503
-0.0195558
-0.000221935
-0.031542
2.2123e-05
-0.00184887
-0.00506204
6.07026e-05
0.003718
0.136573
-0.0571203
-0.0342947
0.0586218
-0.0385304
-0.00657949
0.0690637
-0.00395523
-0.00105442
-0.00611425
-0.0244057
-9.70662e-05
-0.00241527
-0.0930506
-0.00931029
0.232575
0.538017
-0.0101462
-0.00968521
0.511476
0.000493908
0.132717
0.389697
0.0023874
0.53078
-0.00865498
-0.0240042
0.0329847
-0.0258597
-7.59184e-05
-0.0204834
-0.0352856
0.183953
0.00941556
-1.81322e-05
-0.0310792
-0.174523
0.266029
-0.000616268
-0.000573714
-0.0504294
-0.027183
-0.0262494
0.00340307
0.0496006
-0.0518879
0.267555
-0.0360283
0.000508724
-0.0443855
0.114588
-7.95058e-05
-0.0244646
-9.40883e-05
0.0351186
-0.0349372
0.109708
0.329088
-0.000552838
-2.91699e-05
-0.0655275
-0.0629287
0.00360219
1.21031e-06
-0.00184049
-0.000216019
0.378845
0.196386
-0.0125564
5.69091e-06
0.00284887
-0.175115
0.144863
-0.0698895
0.533854
0.00122976
-0.0500251
0.0138018
-0.021183
0.00456374
-1.78865e-05
-0.0296292
0.019131
0.36542
-0.089095
0.0348294
0.0172985
0.278584
-0.0248961
-0.130131
0.106993
-0.0435079
-0.0437872
-0.045758
8.9984e-07
-4.94756e-06
-0.00286521
-0.00475755
-0.0498076
-0.107318
-0.0842287
0.0273294
0.012882
0.000456127
-0.000187058
0.196221
0.000535773
-0.00883025
0.25461
0.238838
-0.0571437
-0.03387
-0.0380444
0.0753201
-7.99258e-05
-5.34244e-06
-0.0126541
-0.0440893
2.99892e-05
-1.99564e-05
-0.00777659
-3.22727e-06
0.0063232
0.259715
-0.0243573
-0.0624744
-0.00558352
0.00231721
-0.0255112
-0.00151746
-0.0657121
-2.91023e-05
-0.0077687
0.262402
-0.00896177
-0.129381
0.193353
-0.00696699
-0.0191272
0.00430223
-0.00202682
-0.000354636
0.00126574
0.544036
0.192788
-0.0146816
-0.00845821
0.449405
0.17154
-0.0514865
0.00128444
-0.0529672
-0.0537726
-0.00549718
0.000926943
0.273474
-0.00746001
0.00772994
-0.0491059
-0.0672775
-5.40566e-05
0.413438
-0.00121288
-1.98285e-05
-0.000663029
-0.0263211
-0.078719
-0.00652831
0.00752958
-0.00242468
-0.0521006
7.49377e-07
0.000468578
-0.0026168
0.0903501
-0.00325273
-0.00173892
0.0595111
0.000107425
2.02696e-05
0.00596324
-0.0302562
-0.0225371
-0.00521977
0.131156
-0.0156235
0.013786
-4.72798e-05
-0.00338658
0.000864178
-0.0501013
-0.101692
-0.00159754
0.00048875
-0.00179589
0.00303073
-0.011173
-7.67862e-05
-0.170075
1.6828e-05
0.0919012
-0.00381755
0.000128336
0.111673
-0.0530482
0.000257813
-7.43882e-06
-0.0438168
-0.0978731
-0.00968137
-0.0227519
0.0270214
0.250814
6.49156e-05
-0.0285318
-0.10645
0.461374
-0.00895465
0.190211
-0.0194677
-0.000340125
0.654831
-0.000658208
-0.064724
-0.0515447
0.00249781
-0.0599834
-0.00895143
0.369279
-0.00389781
-0.0190234
-0.000357273
0.171573
-0.00383115
0.274
-0.000617502
-0.00643385
0.441295
0.0771056
0.0594676
-0.0338728
-0.000203919
0.00296131
-0.000256387
-1.8056e-05
0.0786051
2.73047e-05
-0.0205417
-0.108557
0.578856
0.361636
-0.0468639
-0.0211082
-0.0214283
0.00465939
0.0022145
-0.0194599
-0.0500369
0.257244
0.394406
-0.00148641
0.322694
0.0762693
-0.0724781
0.0120206
-0.00258395
-0.0158322
-0.00596772
-0.00298248
-8.90802e-05
-0.00234277
-0.00931523
0.176641
0.00180999
-0.0281864
0.0139303
-5.99333e-05
-0.0483849
0.609821
-0.00705983
-0.00172809
0.0128594
-0.019139
0.0914396
-0.00182336
-5.80773e-05
7.93796e-07
-0.00300244
0.444448
0.0194326
-0.105187
-6.63482e-06
-0.10358
0.0500512
-0.00567274
-0.0478253
-0.00158383
-0.000541551
-0.0264028
0.0010274
-0.0674048
0.0121085
0.015018
-0.000283209
0.00185013
0.143716
-0.172071
0.000445723
0.000475959
0.373147
-0.0274642
-0.00194705
0.180375
0.470402
-0.0679515
-0.00937759
-0.0711921
-0.000919829
-0.00929994
-0.00381552
0.167527
-6.55957e-05
0.0116462
-0.114249
0.373131
0.520999
-0.00676973
-0.00993187
0.242843
-0.0253166
-8.66684e-05
-0.0376651
0.0957543
0.097543
-0.00851242
0.0297689
0.462851
-0.118592
0.414788
0.380565
-2.65663e-05
-0.00803065
-0.107367
-0.003436
0.0018505
0.475162
0.0192002
0.000302989
-0.0383666
-0.054684
-0.00630965
-0.000174905
0.275375
0.192276
2.02394e-05
0.00472859
0.00627572
-0.125738
-0.0338821
3.72812e-05
-5.15624e-06
0.000553021
0.0973883
-0.0291803
0.293846
-0.0503304
-0.0205596
-0.022308
0.176049
-0.0811282
-0.00144435
0.00937285
0.000956545
0.416959
-0.0269728
0.00124913
-0.00837755
-0.0412349
-0.00200661
-0.0137318
0.000247343
0.000254051
0.619235
-0.00905798
-0.0058434
-0.000601228
-0.000898879
0.234816
-0.116431
-0.0288602
2.46679e-06
-1.70318e-05
-0.027824
-0.00761978
-0.00592458
0.0201058
0.00720116
-0.00371044
-0.00766594
-0.0189533
0.406513
0.0035816
0.000263972
-0.0463344
-0.02696
-0.0416101
-0.00407666
-0.0286158
-2.73696e-05
0.510194
0.0230673
6.7536e-05
0.54416
-0.0296142
-2.9076e-05
0.00168666
-0.0478441
0.00530053
0.0456087
-4.24051e-06
-0.00890241
-0.0142549
-0.00612959
-0.000594755
-0.00921932
0.454813
-0.00961267
-0.0133248
0.206038
-0.0032673
0.433569
-3.17597e-05
-0.0190039
-0.0529009
-0.0282318
-0.117697
-0.0019079
8.32531e-05
-0.000224355
-0.0210425
0.00122774
-5.67599e-05
3.53659e-06
-0.00712363
0.407411
0.00699498
0.00290057
-0.0512222
-5.60843e-06
0.00113618
-9.18692e-05
0.00968366
-0.0192227
-0.000497859
-0.00947461
-0.0137474
0.00119817
-3.35423e-05
-0.115936
-0.000542682
0.0437069
0.340214
0.249114
-0.00589905
0.00707259
0.0306281
-0.000157428
-0.00444391
-1.139e-05
0.384638
-0.0154482
0.0198232
-0.0183442
0.00145331
-0.00377809
-0.000158883
4.449e-06
-0.00565569
0.0457312
0.243204
0.00145319
-0.0423359
-0.0264823
-0.00890087
-0.0794261
-0.00159511
0.000586563
-0.00641638
-0.000148803
-0.0492692
0.27392
0.179885
-0.0241862
0.266853
6.90197e-05
2.0244e-06
-0.0316871
-0.0523767
0.530714
-0.0506314
-0.0225354
-0.0342427
0.00138502
-0.00670248
0.000526486
-0.0118058
-0.0144329
-2.18015e-05
-0.00110068
0.368987
-0.000210729
0.491386
-1.0167e-05
-0.149482
0.0399475
-0.00357277
0.00122856
0.000197436
0.398769
0.0461037
-0.0538771
0.188009
-0.00832222
-0.0144359
-0.00473356
0.173992
-0.0276604
0.00689823
-0.0090751
-4.89525e-06
-0.00157914
0.00685008
-0.0190609
-0.023671
-0.0434028
-0.0192508
0.120051
-0.0025552
-0.0509918
-0.0149282
1.36824e-05
-0.0131606
0.00369286
0.122301
-0.0289836
-8.39968e-06
-0.0199613
-0.00120943
0.00164785
-0.122201
0.293106
0.00105805
-0.0130117
-0.0540765
0.079559
0.44403
0.00213557
-0.00652181
0.194657
0.159772
-0.0179156
0.00586415
-0.0470897
-4.05756e-06
-0.0395258
7.81866e-05
-0.052155
-5.13561e-05
1.01388e-05
-0.00844191
-0.0931892
0.332781
0.00370027
0.0130266
-2.4563e-06
-0.00730223
8.39395e-05
-0.00383131
1.06918e-05
0.0495937
-0.000610427
0.172704
-0.000184346
-0.0138752
-0.0353972
-0.00494836
0.440639
-0.0176209
-0.0612942
-0.00656308
0.052329
-0.0460578
0.0335949
-0.0306049
-3.66604e-06
-0.00695744
-0.00462964
0.000273454
7.94997e-05
0.169937
-0.00574837
0.0871273
-0.0062618
0.00101587
0.0367404
0.000173519
-3.35619e-05
-0.0389065
-0.0041066
1.46375e-05
0.224935
0.584642
-0.00028779
-0.0341916
2.95084e-06
0.472371
-0.160185
-0.0383774
2.09566e-05
0.00781731
0.0650814
0.0768247
0.0440936
-0.000513278
-0.000224201
-0.016968
-4.00297e-06
9.95518e-07
-0.0280586
-0.0355136
-0.0427685
0.557443
0.000216092
-0.0409288
0.00913698
-3.07604e-05
-0.0015742
8.7289e-06
-0.00736349
3.38902e-05
-0.0291765
0.0324759
0.427196
0.0507785
-0.00037163
0.000519573
-0.128819
0.0852889
-0.00368663
4.90157e-06
0.184056
-0.122397
-0.0492488
-0.0151685
-3.87669e-05
-0.000367427
-0.125656
-0.0263107
0.145366
0.404075
-0.0599849
-0.0015492
-3.05e-05
-0.0449066
-0.0631428
-0.000277729
0.00136503
-0.0173403
-0.00548667
0.394805
-0.00159642
-0.0106879
0.0453562
-0.00876551
0.533625
0.534622
-5.7984e-05
-8.27324e-05
-0.0173286
0.0186787
-0.0333221
0.00628223
-0.00848539
-0.000730212
0.455738
0.168243
0.00268129
0.647054
2.30102e-06
0.110123
-0.0605004
-0.0408618
8.39021e-05
-0.0344188
0.114687
0.0178295
0.0691604
-0.000579412
-0.000620311
-0.0110179
-0.00407399
-0.014904
-0.00136407
0.111004
-0.0076354
-0.00621814
-0.0513729
0.365458
-0.0155976
0.0360798
-0.000520793
-0.00065545
-0.0216296
0.00116483
-0.003062
-3.71497e-05
-0.00044705
0.11511
0.400347
-0.00018269
0.113681
-2.43423e-05
-0.00395277
-3.58539e-05
0.00645772
-0.122772
-6.88391e-05
-7.10212e-05
-0.0517773
-3.40273e-06
0.0447069
-0.0274333
-7.82192e-05
0.164746
-1.62334e-05
-0.000517038
-0.000132463
-0.00596053
-0.000507715
-0.00702673
-0.0700451
-0.000454991
0.00506384
-3.40061e-05
0.326076
-0.0115378
-0.0184359
-0.0313251
-0.0231082
-0.00145923
0.0034655
0.210233
-0.0278823
0.143467
-0.0380186
-0.00408144
-6.05791e-06
-0.0066111
0.361867
0.183178
-0.0379443
-0.0461343
0.312377
-0.00943341
-0.0559215
-3.53571e-05
-0.028482
-0.00102805
0.626783
-0.0491878
-0.000129707
-0.0503518
-0.0286373
0.246595
-0.00302512
-0.0296335
-0.0047436
-0.00789461
-0.00155214
0.246143
-0.0997211
-0.0203429
-0.0161312
-0.0137368
0.00668691
0.306007
-0.0194622
0.189827
0.00322705
-0.121121
0.501822
-0.0095717
-0.00030762
0.24236
0.374399
-0.00965468
-0.00704184
-0.00795029
-0.0310221
0.19708
-0.044454
-4.12575e-05
-0.00824952
2.54902e-05
-0.00513675
-4.35429e-05
-0.00589589
-0.00117566
-0.00376162
-0.123052
-0.000749093
-0.000633857
-0.00142131
0.20359
-0.00243334
-0.00377091
-0.0035831
0.163177
0.00612983
-0.00048847
0.358996
0.527059
-0.0200108
0.454993
-0.0176828
0.338633
0.00635688
-0.0187942
0.00296296
-0.000573204
9.25318e-06
0.00291312
-0.0125596
-0.0198768
0.184441
-0.0228189
-0.0201913
-0.00109881
-0.122046
-0.0258201
0.00750127
-6.79869e-06
0.0047431
0.0237157
0.379566
-0.00604192
-0.0137227
0.143258
-0.000451951
0.0401218
-0.01804
0.000627295
-0.0498767
0.00266331
0.339995
-0.00233979
-0.000647301
-0.000184725
-0.0524486
-0.00154969
0.631735
0.653369
0.0134521
-5.69749e-05
0.00924785
-3.01268e-05
0.0485329
-0.00063896
0.0236682
0.569079
-0.0355624
1.00335e-05
-0.00842907
-3.10674e-05
-0.0980526
-0.0328324
0.46089
0.000228312
0.0129439
0.00202339
0.000289853
-0.00247332
-0.000365517
-0.00626479
-0.0377168
-0.0227357
0.00500618
0.15994
-0.0133721
0.00675415
-0.0201351
-0.00212034
-0.0270101
5.78558e-06
3.12057e-05
-0.00235362
0.0291099
-0.0344323
-0.0164252
-0.00382597
0.00284571
-0.0337821
0.192562
-0.0126256
-6.37965e-06
-0.0469468
0.421964
-0.0839559
-0.012044
0.0361516
-2.50672e-05
-0.00074897
-0.0276052
-4.73064e-05
-0.000503389
-3.03567e-05
0.648312
0.00929665
0.00374077
-1.40753e-07
5.41266e-07
-2.6566e-05
-3.00266e-06
-0.0217011
0.375435
-0.0329193
-0.00054582
-0.000195291
-0.00603619
0.460204
-0.0513245
0.411999
-0.00349324
0.139436
-0.000156131
0.454357
-0.00228528
-0.00934539
-0.00913622
0.0060991
0.00742232
0.182903
-0.0375055
0.44748
0.270514
-0.00843146
-0.0284087
-0.0108373
-0.027924
-1.87105e-05
-0.000980201
0.00275063
0.0688466
-0.00655606
-0.0218227
-0.00338638
0.551672
-0.0700401
-5.05754e-05
-4.24096e-05
0.46771
-0.00488451
0.00104577
-0.0127017
-0.00226145
-0.0149728
-0.00958167
-0.0851401
0.0280301
0.00152165
-0.00984229
-0.0139649
5.15168e-05
-0.00565699
-0.00171055
-0.00769666
-4.07756e-05
3.12896e-05
-0.0227767
-0.0196376
0.442708
-0.0363397
-0.000232928
-0.00154482
-0.000338997
0.356856
-0.0772881
-5.11601e-05
-0.0290142
-0.0044098
-0.003569
-0.0267771
-0.0298004
0.00639482
0.0510711
-0.0618329
4.12525e-05
0.00569582
-0.012513
-1.993e-05
-8.1379e-05
0.110877
0.0799983
-0.059677
-0.0422006
-0.0505025
0.00047662
0.480841
3.78866e-05
-0.0184309
0.390896
-0.0159788
-0.0339159
1.48257e-06
0.00011492
-0.0339618
-0.00880339
0.00128941
-0.0288361
0.225707
0.231601
0.000620504
0.000206281
0.186866
-0.0117578
-2.01741e-05
-0.00145163
-0.0255292
-0.0209181
-0.0109607
-0.00281436
0.123465
6.29481e-06
0.0711447
0.264277
1.04557e-05
0.00554721
-0.0004529
-0.0805917
-0.0125481
-0.000660413
0.0253886
0.000150524
0.215802
0.0012838
0.0194817
-0.00892252
0.57832
0.363388
-0.0453878
-0.00650713
1.40479e-06
-0.102578
-0.0116572
0.135769
0.300676
-0.0288683
-0.0319354
-0.0138694
-0.00536728
0.136064
-0.000197754
0.44666
0.0206857
2.76044e-05
1.17407e-05
6.72758e-05
-0.0105465
-0.014491
0.000553012
-0.00417471
0.0819288
-0.0420011
0.000297017
3.78475e-05
-0.0191625
-4.83947e-05
-0.00235174
-0.00932815
-0.000681543
-0.0391265
0.0032562
-0.00113608
-0.00305535
-0.0129434
0.36373
0.373841
0.0303815
-2.44473e-05
-0.000472001
0.239695
-0.000397706
-0.116459
-0.000189906
-0.0159334
-0.0640219
-0.000199706
-0.00021254
-0.0266093
0.00101975
-7.90941e-05
-0.00108548
0.176936
-0.0269067
-5.16906e-05
0.0820344
0.340218
0.351984
0.000454683
-0.101412
-0.0072492
0.418733
-0.052055
-0.0533779
-0.0152926
-0.00991031
0.022097
-0.0195486
0.352484
0.052084
-0.000165351
-0.0401666
-0.0505032
-0.00303409
-3.40425e-06
-0.0014843
0.202048
-0.000183527
-0.0117159
-0.00317636
-0.000951478
0.00685027
0.0233136
-0.000169692
-0.000120597
-0.00698154
-0.0814009
-0.0274742
-0.0583026
0.234435
-0.00239236
-0.000245013
-0.0289455
-0.018443
0.00705705
0.0103969
2.16886e-05
0.0603509
0.128074
0.0148848
0.018713
-0.00052246
-0.0101422
-0.0926847
0.000987222
-7.98677e-05
-0.00738121
-0.00309774
-0.000604333
-0.00882087
-0.000690671
0.185237
-0.0069263
-0.108637
-0.0184937
-0.0081458
0.00909729
0.469987
-0.0316389
-0.000124155
0.451938
0.148022
0.005945
-0.00446673
0.00575851
-0.0596484
0.146621
0.000244876
-0.0029127
0.569738
0.282392
0.295234
-0.0334942
-0.00110477
-0.000975005
-5.05574e-05
-0.00103534
0.250694
0.0696284
-0.0139261
-0.00608872
-0.000312797
-0.0774527
0.542757
0.394383
0.0663781
-0.002192
-0.0445749
-0.00480648
-0.000589893
-0.0192326
0.00684814
-0.0202026
-0.00271483
0.00063561
-0.0711028
-0.0810286
0.0239355
-0.0188323
-0.00539115
-0.0190415
-0.000181435
-0.00533418
-0.000562632
0.321594
1.43281e-05
-1.15133e-07
-0.0292746
-0.0146615
-0.0210474
0.0304574
-2.01364e-06
-0.0667064
0.0461176
0.181973
0.614453
-0.00354853
-0.107448
0.0228354
-0.00162126
-0.00777825
-0.000490736
0.00783591
-0.000173032
0.217431
-0.1276
0.00808367
0.0847429
0.103028
0.00105637
0.00162845
8.27312e-07
0.412917
-9.87034e-06
-0.0325007
0.000231289
0.00118421
0.159614
0.0858502
-0.0599204
-0.0282148
-0.00318803
0.653708
-0.0590771
1.28543e-06
-0.0116505
-5.98299e-05
-0.0156382
0.0877681
0.185473
0.000652991
-0.0255996
-0.00707281
0.135671
-0.0813191
-0.0236714
0.55477
-0.00743961
3.44385e-05
-0.13641
0.578827
0.000837138
0.0798383
-0.0328553
0.113424
0.00141026
0.018315
-0.0517035
0.00336385
0.0437477
-0.0295104
0.131822
-0.0192516
-0.0145048
-0.000639557
-0.000644066
0.498427
-2.11461e-05
-0.00475644
-3.8573e-05
-0.0060724
0.000244234
-0.00553852
0.20808
-8.99346e-06
-0.000803632
-0.0650788
-0.119136
-0.0196206
0.000814021
0.404509
-0.0455057
0.158115
-0.00882728
0.14153
0.00454361
-0.000599674
-0.126169
0.000559206
0.511102
-0.0208175
-0.000117749
0.00169284
0.129637
-0.00838011
-0.000563417
-0.000126671
-0.0757486
-0.00198086
-0.00751814
-0.0572713
5.54936e-08
-0.0482039
0.000269943
0.344599
-0.00786088
0.135201
0.0031119
-0.00283104
0.24715
-0.054632
-0.140933
-0.00335919
-0.0796893
0.256066
0.270657
-0.0104697
-2.79471e-05
-0.0115593
0.00347026
-1.14188e-05
0.0107153
0.379162
0.00954723
0.00118251
0.00259854
-0.0489988
-0.000154183
0.0573568
0.0346922
0.0530743
0.0100117
0.0209811
-0.000324282
0.164198
-0.128084
-0.123229
-0.00079122
0.00996298
0.127505
0.00058802
-0.0500767
0.2047
-0.0356507
-0.0511139
-0.0506682
-0.0987245
-0.097985
0.0419582
0.210162
-0.0957812
-1.78641e-05
0.000551649
-0.0721214
-0.00138152
-0.00155611
-2.03312e-05
-0.00432461
0.0029918
-7.45215e-05
0.0468437
-0.000422776
0.10792
-0.0255782
-0.0063009
-0.00518914
-0.00637432
-0.052126
-0.00439003
-0.000854374
0.0163773
0.063743
0.00306049
-0.0241333
-0.00225968
0.0217827
-0.00707306
-0.0143119
-0.0507727
-0.0117947
-4.73133e-05
-0.0113392
0.449213
5.77652e-06
-0.00480403
-0.0535244
0.543614
0.0385258
-0.0333069
-3.19849e-06
0.00125214
-0.0674422
-2.38652e-05
-0.00207253
-5.78545e-06
-0.0582358
0.00339073
-0.0731475
-0.0169332
-0.000120193
0.262829
0.255079
-0.0264581
0.000323438
-0.000159315
-1.75327e-05
-6.33891e-05
0.483146
-0.00103391
0.00171209
0.0168425
0.000699888
-0.000484398
-0.0512804
-0.000235978
0.032904
-0.000181876
-0.00162082
-0.000597877
-0.0188159
-0.0303886
0.160494
0.0481114
-0.000150778
-0.00993194
0.000385647
-0.0845742
-0.000578567
0.107908
-0.00926197
0.647996
-0.0165627
-0.00113602
0.0618246
-0.0141988
0.339358
-0.0308313
-0.00842397
-0.00973456
0.0142589
-0.0028161
-9.20015e-06
-0.00633439
0.294892
-0.0315023
-0.00249209
-0.030224
-0.0198527
0.139713
-0.00042126
0.262132
-0.0056563
-0.0507565
-0.000439512
0.0101081
0.0354773
-0.0103927
0.314873
-0.000393381
0.0262129
0.0745765
0.000329252
-0.000133188
0.530581
0.0403254
-0.00149564
0.0227857
0.00782911
7.1551e-05
-0.0872503
-0.0167929
-0.107029
-0.00832965
0.328631
0.00290418
0.0709711
-0.000336758
0.394275
-0.0495555
-0.00404262
0.00473429
0.0247429
-0.0550957
-0.118808
-0.00650091
1.48052e-05
0.592236
-0.0167797
0.000597313
-0.0554136
-0.0288259
0.324453
0.00226312
-0.0122686
-6.13436e-05
0.0215223
0.00610092
-0.0280382
0.000591312
-0.00269645
-0.0206742
1.60849e-05
-0.0378446
-0.00124418
-0.0112209
-0.0463902
0.282116
-0.00780149
-0.0206679
-0.0473342
-0.0249077
-5.21459e-05
8.51568e-05
-0.00299907
1.70497e-05
-0.00847197
-0.111601
-0.00162695
-1.98611e-05
0.522815
0.00380803
0.000221298
-5.39032e-05
-0.001686
0.309386
-0.0376147
0.593831
0.175742
0.0169313
0.27394
-2.3375e-05
-0.0115362
-0.000689757
-0.0019468
0.184665
-0.00798229
0.590917
0.24484
-0.0420052
0.261018
0.00619236
-0.0109397
0.00169025
-0.0528353
-0.00308969
-0.0378564
-0.039946
-0.00237324
0.255089
-0.0076402
8.61402e-05
-0.00336572
-0.000553064
-0.0248109
-0.000157011
-0.00101568
-3.28485e-05
0.1479
-0.121263
0.263909
0.0208055
-0.00217442
-0.0274931
-0.015648
0.062028
-0.00240534
-0.000864349
-0.0467429
-0.0341133
0.00339372
-0.0311303
-0.00350943
-0.00246067
0.000659426
4.63901e-06
0.122106
-5.48685e-05
0.0472659
-0.000666944
1.05392e-06
0.00151216
-0.000560764
-0.000986793
-0.0124991
0.143557
0.138211
-0.0151866
-0.00977134
0.00220457
-0.00397454
-0.00786273
-0.000157838
-0.00041868
0.000502825
0.101922
-0.00705987
-0.0431874
-0.0437815
-0.00212985
-0.0218424
-0.0162136
-0.00137448
0.00404545
-0.00955543
0.230928
-0.0549562
0.00371704
0.000317743
-0.0291336
0.581877
-0.00779254
-0.0053215
0.00595058
0.0704204
0.00306704
-0.00895188
0.256422
-0.000319886
0.034819
-0.0196288
-0.04976
0.00490412
-0.00297734
-0.00432128
0.0331607
-0.00285049
-0.000526427
-0.00432514
0.0018718
-0.000214764
0.0173957
-0.0072914
-0.0016315
-2.23592e-05
0.149779
-5.5195e-05
-0.026506
0.0677496
-0.0206113
7.25414e-05
0.101017
-0.0399063
0.163498
-7.17168e-05
-0.00317629
0.017886
0.000112907
0.00378453
-0.00356496
0.00813638
-0.0159317
-0.0241408
-0.00765558
-0.00213239
0.00767043
0.0164821
-0.0818782
-0.000174223
0.105833
-0.0298528
-0.00265916
-0.00541551
0.000287669
-0.0565652
4.03672e-05
0.45447
0.188813
-0.000417714
-0.0165896
-5.56457e-05
-0.00174377
-0.00492472
-0.0176308
0.150736
0.0888631
-0.00721508
0.00788759
-0.0518409
0.0259315
-0.0203278
-0.0263798
-0.0373323
0.00866537
0.189714
-0.00741198
0.381218
-0.000761233
-0.00840424
-0.0401731
-0.000100603
-0.00062635
-4.61484e-05
0.378185
-0.00798152
0.000176723
-0.0119892
-0.00521656
-0.000285253
-0.0101117
0.257213
0.00069524
0.00837666
-0.0254066
-0.000444948
-0.00358838
-0.000664257
0.60049
0.000138846
1.13742e-05
-0.00163362
-0.0114815
-0.0238566
0.000385141
0.000365931
0.0645169
-0.000156331
0.00149278
-0.0517566
-0.0644808
-0.0490781
-7.98717e-08
0.000227889
-0.0252775
0.0245253
0.303504
0.0816487
-0.025025
7.84808e-08
-0.047454
-0.00205478
-0.00970118
-0.00939422
0.16719
0.433762
-0.000107313
0.137659
0.226611
-0.00742354
-0.0327556
-0.0194613
-0.0153235
6.26413e-05
-0.0294167
-0.00677139
-0.000129122
-0.000456916
-0.00125836
-0.00149339
-0.000554381
0.294255
0.307135
0.143039
-5.54388e-06
-0.0173155
-0.041666
0.093165
0.461004
-0.000407332
-0.0151549
-0.0137875
0.267187
-0.0143882
-0.00752961
-0.0290656
0.142087
0.000199644
-0.000426654
-0.0202878
-0.0409769
0.100176
0.00632902
-0.0350345
-0.0192585
-0.0570954
0.0147534
-0.0373401
0.00533491
-0.104174
0.0674043
-0.000299679
-0.000515535
0.0544466
0.000133052
-0.006488
0.0251133
-2.5081e-05
0.221888
-0.00829783
-0.00341501
0.619811
-0.0268257
-0.00946633
-0.0285814
-0.00232591
0.429408
0.000845992
0.584435
-0.000131111
-0.0323242
0.594635
0.00524263
0.426439
-0.00438967
-2.77125e-05
-0.0252957
0.431465
-0.00124765
-0.00506772
-0.00619653
-0.000800783
-0.0162721
0.437709
0.0849594
-1.23783e-05
0.0147306
-0.00287232
0.0230586
-0.000716669
0.0182187
-0.00202065
-0.000400297
0.413835
0.445972
0.419386
-0.0367772
-0.0927395
8.4142e-05
-0.039674
0.271832
0.00992534
0.000154188
-0.0634334
0.000422268
-0.00010348
0.444519
7.37182e-05
0.00316477
-0.0015089
-0.00715927
0.424281
0.436491
0.453062
0.0090263
0.000334679
0.193334
0.00582208
0.0136363
-0.00687777
3.69581e-05
-0.00228345
-2.60895e-05
-0.0034883
-0.000602164
-0.00451911
-7.92615e-05
0.131912
0.00159653
-0.0609344
-0.00710715
-0.0489063
-0.0121152
-0.00062421
0.330359
-0.00808029
-3.51966e-05
-4.07589e-05
0.573934
1.21521e-05
0.00871958
0.0396976
-0.0132896
0.279264
-0.00400159
-0.0305999
-0.0266309
-0.000454808
7.45222e-05
0.245007
0.448894
-0.00120471
-0.0180359
-0.000205316
0.440754
0.550338
-0.00112729
-0.00508492
0.0149809
0.00223081
-0.0180204
2.37539e-05
0.00776993
-0.0274255
0.0398798
0.328731
-0.00118152
0.0223961
0.035798
-0.0276364
-0.0313607
0.0217697
0.532572
0.152644
-0.0366497
0.446028
-0.000481261
0.460303
-0.00611407
0.367809
0.053459
-0.00386406
0.0211593
0.00181897
0.0136305
-0.0493679
-0.000539165
-0.0170674
0.36152
-0.0197058
0.0120499
-0.00115914
-0.0811692
0.144378
-0.00696388
-0.179209
0.000509385
-0.002813
-0.0174651
-0.00165847
0.00144918
-0.00659926
-0.000409634
0.00182962
0.36382
0.00154561
-0.0116581
-0.0424722
-0.0212634
-0.0431574
-0.0679796
0.00315173
-5.06524e-06
-3.28534e-05
0.232527
-0.0487962
3.01639e-05
-0.0807496
0.156048
-0.0431918
-0.0110587
6.88481e-05
-0.00146476
-0.0322599
0.104948
-0.00722249
-0.00039243
-0.0321743
-0.0148163
0.597936
0.0929457
0.0506783
-0.0396031
-2.98134e-06
-0.00500835
0.051575
-0.000312014
7.31749e-06
0.14185
0.0769197
0.000441505
-0.000680998
0.00357677
-0.0330617
0.00763835
0.00555054
-0.0110307
2.58461e-05
0.229805
0.00041232
-0.000530782
-0.000203226
-0.00019018
-0.000142324
0.0659062
0.00064918
-0.00211292
-0.00702475
-0.00383082
0.0215538
-0.0040222
-0.0292037
-0.00762123
0.397838
0.319238
-0.000396998
-0.0011338
0.0741704
-0.000641435
-0.0170483
0.0165139
-0.0354137
-0.00075157
0.0157188
0.0309755
0.000913353
0.0427015
-0.0001009
0.00557203
-0.0322465
0.0102382
-0.0107058
0.0383047
3.69073e-05
-0.000737991
0.000172406
-5.72855e-05
-0.00127898
-0.00704871
-0.00924903
-0.0209266
0.0113602
0.0259168
0.00688338
-0.0510702
0.00683609
0.00270107
0.00963565
2.91514e-05
0.438886
-0.00602755
-0.00241296
-0.0541038
0.606155
1.90587e-06
-0.00819662
-1.9551e-05
-0.0612482
-0.00466787
-0.0159242
0.141132
-0.00291055
-5.91109e-05
0.0764467
0.0570406
-0.00043481
0.0394812
-1.86256e-05
0.136741
0.00368859
-0.0202051
-0.000130847
0.195946
0.0214269
-0.0143226
8.54037e-06
0.141159
0.280627
-0.000843268
-4.96844e-05
-0.0255708
-0.0064138
-0.00271668
0.0115013
0.462545
0.245526
0.000321295
0.295959
0.200833
-0.00206558
-0.036874
-0.0301096
-0.0125298
-0.0448931
0.00971701
0.000561097
0.48258
0.112005
0.00896152
4.30468e-05
0.000428837
3.01324e-06
-0.000434913
-0.00202031
0.520236
-1.30418e-05
0.062064
0.0201425
-0.000189321
0.476036
0.550637
0.16385
0.198084
-0.112591
0.00174718
-0.000232277
-0.00777956
-1.93558e-05
-0.000814316
-0.113999
-4.77898e-05
-0.00160079
0.490712
-0.00814765
-2.4356e-05
0.515722
0.000301783
-0.0237865
-0.0480363
-0.000966537
-0.0663508
-0.000192242
0.0628728
0.00235047
-0.013152
0.00135766
-0.000500369
-0.000306401
-0.000183858
-0.109979
-0.0412767
0.127872
0.00189756
-0.0092212
0.189171
3.57192e-05
0.578161
-0.000439741
-0.0540243
0.00157132
0.00113896
0.0384683
0.040115
-1.73392e-05
-0.00298163
5.56369e-05
-0.000505287
0.000571624
0.0644396
0.0367353
0.286797
-0.0396626
-9.08531e-05
9.91205e-05
0.0775027
0.303767
-0.00313091
-0.00440839
0.579397
-0.00197881
-0.0141065
0.000489223
0.0216379
-0.0409197
-0.00595396
0.131191
0.000914543
-0.000202032
0.00115084
-0.0774118
0.565757
0.438299
-0.0164242
-0.0315096
-0.00458955
0.00108321
2.59106e-06
0.0576544
0.153394
-1.34863e-05
-0.00508658
-2.29849e-05
7.10031e-05
0.408201
-6.56037e-07
-0.0597692
-0.0469255
-0.0818187
0.0522765
-1.00512e-05
0.00696572
-0.00443555
0.371804
-0.0284628
0.0035069
-0.0208726
0.000417759
0.309015
0.17874
0.00715767
0.0287469
0.496742
-0.044236
-0.0421106
-0.00136725
-0.00488014
-0.00029824
0.00933457
-7.32451e-05
0.137493
0.00201304
0.138509
-0.024644
-2.92335e-06
0.0366813
-0.000142405
-1.93791e-05
-0.000562612
0.563765
0.539466
0.251316
2.5525e-05
0.0964474
0.458185
-0.000710204
0.000368152
-0.00584759
0.0222476
0.433976
-0.0187625
0.0963454
-0.00189148
-0.0423178
-0.0474034
0.629123
-0.000446574
0.435869
0.0673204
0.160474
4.96987e-05
0.000126792
0.00370043
-0.00622333
0.0611351
-5.77359e-05
3.04352e-05
0.42735
-0.0915828
0.00017971
0.450385
-0.00164788
8.44516e-05
0.346681
-0.00550331
-0.00113789
-0.101623
0.067253
0.000200729
-0.000115651
0.00230308
-0.00282514
0.423112
0.559951
0.226183
0.613649
-0.00552777
-0.030541
0.502656
-7.70185e-05
-0.0023083
0.0195948
-0.00245596
-0.0004824
-8.9631e-05
0.447993
-0.00254936
-0.000479314
0.54418
0.0571208
0.142095
0.0312224
-0.00191181
-0.0142686
0.0965616
0.0493664
0.444717
-0.0179627
-0.000573322
0.405807
0.360046
0.00867589
0.297511
-0.0280289
-0.00536828
-0.00671651
-0.000472058
-0.000119873
0.411588
-0.0424958
-0.0438802
0.00041887
0.122884
-0.0209886
-0.0170226
-0.000758122
-0.00302901
0.466669
-0.000584969
-0.0120313
-0.00210482
0.456619
-0.0136042
0.0140687
-0.00516666
0.00094431
0.121706
-0.0148366
0.480015
-0.0313593
0.610832
0.215883
-0.0387937
0.0222815
-0.00127099
-0.00927001
-0.112023
0.430433
0.462933
0.52577
0.255865
0.416779
-0.000289326
0.493881
-3.81275e-05
3.14667e-05
-0.0317594
0.537291
0.0366965
0.189014
-2.74865e-05
-0.00152449
-0.118018
-0.0264262
0.422455
-0.00049996
-0.00527686
0.250465
0.000694747
-0.0029699
0.590153
0.0337845
-0.0351723
-0.176238
-0.000403871
-0.0206082
-0.0566805
0.619045
-0.0410829
-0.0268816
0.00272064
-0.000187865
-0.0128189
0.153623
0.00270513
7.19971e-05
-0.10524
0.2044
-0.00105494
0.434725
-0.0543406
0.44094
-0.0325648
-0.0157008
0.499733
-0.00368971
-0.0517346
-0.000307762
-0.000944671
-0.04058
-0.0151286
-0.023857
-0.00671394
-0.0125768
-0.107099
-0.0453104
0.436796
0.000152407
0.000493058
-0.0141774
0.0835776
-0.106165
-0.0383562
-1.38453e-05
-0.111908
0.0321416
-9.48895e-05
-0.0648739
-0.174045
0.445952
-0.0866442
0.431286
-0.00933573
0.053373
0.209219
-0.0228839
0.228224
-0.00129898
0.0352362
-5.79132e-05
0.0624599
0.14987
0.137348
-0.0191491
0.00408615
-0.000511046
0.141458
-7.52873e-05
-0.000111684
-0.0007406
-0.0217055
0.00849888
0.00998267
0.359901
0.101863
0.571417
0.328478
-0.00108039
-0.0211877
-0.000140733
-0.0321403
-0.000961248
0.00388226
0.00040987
-0.0244835
0.281213
0.434905
-0.000223954
7.94663e-06
-0.0344764
-2.67424e-05
-0.0061942
-0.000150086
0.0827525
-0.0232144
0.149337
-0.0697364
7.28537e-06
-0.00923617
-0.0259393
-0.0187359
-0.0109416
-0.0334381
0.0107577
-0.000133938
-4.04761e-05
0.00137168
-0.000118531
0.0407599
-0.0328018
0.0255713
0.526434
0.0297958
-0.106921
-0.0533691
-0.000327262
0.0356311
-0.00010833
0.403769
0.0715828
0.485117
7.29083e-05
-0.0214922
-0.00457349
0.031674
0.0569306
0.359222
-0.00511476
0.0137587
-0.00131098
-0.0137873
-0.00536302
-0.0040937
0.0776788
0.00103506
-0.00677147
-0.01348
0.134454
0.0322784
-1.26507e-06
-0.000628807
-0.00416434
-0.000438549
0.0665215
-0.000480053
-0.0273401
0.0920551
3.73388e-05
0.195173
4.33586e-05
-3.91385e-06
-0.0642311
-0.0166908
9.08395e-05
-0.0148657
8.29493e-05
0.508508
0.00828947
-0.0157339
0.472154
0.0937371
-0.0203056
0.353333
-0.0018773
-0.00129213
-0.00142552
0.0519045
0.65115
-0.00103687
-0.000444957
-1.80174e-05
0.00520184
-0.000873245
0.0173018
0.00407667
-0.0136862
-0.0377701
0.0122078
0.00670483
-0.012489
-0.000392023
-0.0555135
0.336648
-0.00125124
-0.00907503
-0.000181198
0.363098
0.0337385
0.333273
0.000266704
-0.000601959
-0.015902
0.528942
0.106989
-0.0184725
-0.000111101
0.0207438
0.0253255
-0.0312177
0.144557
-0.030157
0.0116645
-0.110859
0.360396
-0.0119607
0.193868
-0.00214936
0.614207
-0.0263463
-0.00727151
0.477151
-0.0274527
0.123045
-0.118479
0.140918
0.00426888
0.0331093
0.265794
0.0338293
-0.0303611
-0.00640159
-0.00518105
-0.0144538
-0.0305467
-0.0011265
-0.0372707
-0.0182002
0.00124511
-0.0413695
-0.0514454
-4.31481e-05
0.00263221
-0.00604584
-0.0193344
0.478464
0.302928
-0.0336495
-0.0450041
0.00027473
-0.065484
-0.00327002
0.594576
-0.0227013
-0.0194802
0.299468
0.0327104
-0.0266143
0.130833
-0.0236324
-0.00047271
-0.00772175
0.00660276
0.00038735
0.318538
-0.00183666
0.105093
0.240596
-0.00378736
0.190476
-0.0818802
-0.000277765
0.00436871
0.0222843
0.268172
-0.0017148
0.0431342
-0.0456017
0.0354768
-0.0150873
0.310556