/*--------------------------------*- C++ -*----------------------------------*\
  =========                 |
  \\      /  F ield         | OpenFOAM: The Open Source CFD Toolbox
   \\    /   O peration     | Website:  https://openfoam.org
    \\  /    A nd           | Version:  7
     \\/     M anipulation  |
\*---------------------------------------------------------------------------*/
FoamFile
{
    version     2.0;
    format      ascii;
    class       volVectorField;
    location    "36";
    object      U;
}
// * * * * * * * * * * * * * * * * * * * * * * * * * * * * * * * * * * * * * //

dimensions      [0 1 -1 0 0 0 0];

internalField   nonuniform List<vector> 
29540
(
(1.00933 -0.0123416 1.17383e-22)
(1.00834 0.00419633 6.11472e-22)
(0.991854 -0.00296389 -7.20162e-22)
(0.972253 -0.0431453 2.24589e-22)
(0.997869 -4.60589e-05 1.05881e-22)
(0.961732 -0.0262586 -3.21268e-22)
(1.04791 -0.0763093 7.16078e-22)
(1.01216 -0.0187412 -1.13257e-23)
(1.00177 -0.00173132 1.7064e-23)
(1.00016 -4.25982e-05 4.15233e-24)
(1.0134 -0.0251048 -5.71653e-24)
(0.997963 -0.0147135 -2.84772e-22)
(0.999588 -0.000170402 1.52876e-23)
(0.999978 -8.39231e-06 5.63261e-25)
(1.17154 0.093079 7.83236e-22)
(0.994671 -0.00172314 1.11584e-22)
(0.999859 -0.000752343 -7.36004e-24)
(1.13696 -0.0155895 -3.46118e-23)
(0.998124 -0.0015883 -3.62019e-23)
(0.990392 -0.000710466 -1.5824e-22)
(0.999254 -0.000241806 -5.08448e-23)
(1.00166 -0.00172701 5.96538e-23)
(0.991776 -0.00313491 7.91787e-22)
(0.998132 -0.000151254 4.65697e-23)
(0.882531 0.120476 2.72991e-22)
(1.00924 0.00333501 3.2889e-21)
(0.999559 -5.15574e-05 3.47401e-23)
(0.942028 0.102947 -1.89945e-20)
(1.17743 0.0926625 -2.27569e-21)
(0.999226 -0.00806285 -5.45792e-23)
(1.01364 -0.0100832 8.6388e-23)
(1.03457 -0.00699112 -6.60551e-22)
(0.975689 -0.0996387 2.32304e-21)
(0.99801 -0.0203759 1.46015e-22)
(0.939909 0.0981149 1.5597e-20)
(1.00247 -0.0291812 4.43819e-22)
(1.07135 0.0457853 -9.48346e-22)
(0.974987 -0.0243037 9.2405e-22)
(1.0047 -0.000737321 -2.36383e-22)
(1.00453 -0.000530399 4.50463e-22)
(1.00037 -0.000143016 -1.35801e-23)
(0.989619 -0.0267504 -9.65635e-22)
(0.999876 -0.000731301 -7.7503e-26)
(1.01997 -0.065678 -1.90694e-21)
(1.00003 -4.4202e-06 -6.01827e-25)
(0.999403 -0.00817998 4.00331e-23)
(0.997715 -0.0109262 -8.10266e-23)
(1.00006 -7.36986e-05 1.80669e-24)
(1.00294 -0.00324886 -2.43084e-22)
(1.071 0.0428241 -3.89598e-22)
(1.10156 -0.0974087 5.32273e-22)
(0.975396 -0.038119 -1.06283e-21)
(1.03451 -0.00612798 2.33683e-22)
(0.962919 -0.0260676 -5.36847e-22)
(0.994801 -0.00176745 -9.82713e-23)
(1.18135 0.0798078 -1.40306e-21)
(0.997035 -0.0019859 3.59072e-23)
(0.999233 -0.000266478 6.44082e-23)
(0.999696 -0.0192567 -2.10718e-22)
(1.00725 -0.0525095 -7.95024e-22)
(0.999949 -5.8888e-06 1.17817e-24)
(0.998189 -0.00162773 -7.49836e-24)
(1.26617 -0.0141037 -1.03145e-21)
(1.00284 -0.0285397 -2.50522e-22)
(1.06961 0.115663 8.06722e-21)
(0.911053 0.0336626 3.993e-20)
(0.998705 -0.0242046 -3.9884e-22)
(0.993474 -0.0121876 3.45686e-22)
(0.934896 0.0215569 1.6096e-20)
(1.00039 -0.000135025 8.7755e-24)
(1.01081 0.00400181 -4.48033e-21)
(0.988307 0.086403 1.10014e-20)
(1.0028 -0.00805234 -8.66477e-23)
(0.903822 0.140196 9.85958e-21)
(0.992948 -0.00055637 5.14463e-22)
(1.10898 -0.0575379 -2.13932e-22)
(1.24737 0.152476 9.62545e-22)
(0.976181 -0.0138262 2.18828e-22)
(0.999962 -1.85493e-05 -3.47024e-24)
(1.00191 -0.0430033 -7.61994e-22)
(0.963448 -0.000611993 -3.53123e-22)
(1.02159 0.0421511 2.63764e-21)
(1.0095 -0.0128776 -3.53129e-22)
(1 -5.32542e-05 1.12507e-24)
(1.05034 -0.0747696 -1.11839e-21)
(1.17312 -0.189406 -3.18853e-21)
(1.04038 0.101536 -1.61506e-20)
(0.999572 -0.000168112 -1.37902e-23)
(0.999602 -0.000151735 -4.03682e-24)
(0.943806 -0.0330608 -1.26776e-21)
(0.992853 -0.0463927 1.32817e-21)
(0.976084 -0.0144819 2.45983e-22)
(1.00275 -0.00335661 4.1333e-23)
(1.05575 -0.0119487 -3.55641e-22)
(0.939231 -0.0140769 -1.0663e-21)
(1.05127 0.12277 7.61619e-21)
(0.993637 -0.0601122 2.09879e-21)
(1.00041 -0.000339498 2.17473e-23)
(0.972341 -0.0540971 -1.99445e-21)
(1.16476 0.122293 4.84261e-21)
(0.99996 -1.82714e-05 5.08835e-24)
(0.977365 -0.00902643 -1.31901e-21)
(0.999951 -7.19473e-06 -6.07106e-25)
(1.04267 -0.0197611 -1.71388e-21)
(0.974237 -0.0379339 6.91402e-22)
(1.03524 0.0126216 4.43186e-21)
(1.00436 0.0813823 1.63712e-20)
(0.999618 -0.000153344 -3.43602e-23)
(0.999996 -5.99954e-05 -1.34823e-25)
(0.98919 -0.097393 -1.21637e-22)
(0.974103 -0.0982548 -2.09398e-21)
(1.03728 -0.0396038 4.25766e-23)
(1.00001 -1.76803e-06 6.88367e-26)
(0.998967 -0.00545106 -1.39905e-22)
(0.999894 -0.00194073 5.95102e-24)
(0.991174 0.0884981 8.30735e-23)
(1.04471 0.0604195 -5.60205e-21)
(0.98968 -0.00635048 -5.42913e-22)
(1.00002 -5.83272e-05 4.32805e-26)
(1.00308 -0.00797916 -6.83301e-23)
(1.27033 -0.114785 1.21071e-20)
(1.00527 0.0121656 7.24737e-21)
(1.16195 -0.0852151 -4.52445e-21)
(0.908959 0.0411585 -3.69305e-20)
(1.00095 -0.000317093 -5.65819e-23)
(1.15859 -0.0597693 7.08523e-22)
(1.13584 -0.0108452 -2.5167e-22)
(1.01138 -0.0509923 6.15503e-22)
(1.00352 -0.00308343 -2.18712e-22)
(1.00002 -0.000384992 -2.60143e-25)
(1.01984 -0.063913 6.82334e-22)
(1.2519 0.144756 3.51979e-22)
(1.00629 0.153912 1.64496e-20)
(1.16166 -0.105636 -1.31087e-21)
(1.04121 -0.0193256 1.44114e-21)
(1.01324 -0.00971232 1.64486e-21)
(1.08262 0.200583 1.15105e-21)
(0.976442 -0.000669663 1.83054e-21)
(1.07061 -0.19196 7.7125e-21)
(1.1665 0.115728 -3.76817e-21)
(1.15875 -0.0539037 -6.96759e-22)
(0.949858 -0.00421308 -1.40398e-21)
(0.957648 -0.0363526 4.22172e-22)
(1.00001 -1.56545e-06 -3.11976e-26)
(0.999992 -3.26102e-06 3.88925e-25)
(0.997813 -7.65426e-05 -8.26031e-23)
(0.997887 -0.0107099 1.65928e-22)
(0.980918 -0.0767518 -1.62683e-21)
(1.08954 -0.15643 3.87331e-21)
(1.30205 0.0526792 -3.1942e-21)
(1.02757 -0.0182667 7.98996e-22)
(1.01571 -0.0181767 2.5057e-22)
(1.00037 -0.000551201 3.32294e-23)
(0.999888 -0.000193148 4.35133e-24)
(1.00145 0.020246 -1.61472e-20)
(1.00046 -0.0013528 3.90596e-24)
(0.99405 -0.00992653 7.14442e-26)
(1.09892 0.2035 -3.23404e-21)
(1.0044 0.0433242 -1.76401e-20)
(1.10504 -0.0947635 -1.21008e-21)
(0.965102 -0.00233359 6.02684e-22)
(0.97313 -0.0423266 1.62383e-21)
(1.18221 0.085943 3.70564e-22)
(0.999961 -3.94679e-05 1.1046e-24)
(0.999991 -3.2568e-06 -1.46112e-25)
(0.989628 -0.00667399 1.95736e-22)
(0.95867 -0.0356691 -2.31707e-21)
(1.00004 -0.000196705 -1.43504e-24)
(1 -5.68936e-05 5.43173e-25)
(0.994063 -0.0044814 -6.59294e-23)
(1.00003 -0.000373605 2.27996e-25)
(1.00505 -0.00532953 -1.20934e-22)
(1.09386 0.207466 3.62626e-21)
(0.97678 -0.00035539 -1.54961e-21)
(1.02657 -0.104517 -8.25832e-22)
(0.995604 -8.63303e-05 3.35213e-22)
(1.00184 -0.0023931 1.26655e-23)
(0.97677 -0.00886871 2.17819e-21)
(0.999229 -0.00544131 -1.3004e-23)
(1.17042 -0.0761991 2.91952e-21)
(0.999984 -8.08647e-06 1.95772e-24)
(1.01019 -0.0349828 -3.8815e-22)
(1.04294 0.103685 5.69777e-21)
(0.993753 -0.0113295 -1.97302e-23)
(1.06713 -0.186903 -7.38035e-21)
(1.03367 0.0517849 -4.96993e-21)
(0.994503 -0.00246947 -4.88412e-22)
(0.984149 -0.0132156 5.98942e-22)
(1.00332 -0.00309802 3.3218e-22)
(0.999303 -0.00751939 -8.42036e-23)
(0.99977 -6.29539e-06 4.0958e-24)
(1.00507 -0.0160445 3.00973e-23)
(0.904023 0.0205466 1.55109e-20)
(1.00088 0.0163632 1.24538e-20)
(0.987537 -0.00535392 1.50252e-23)
(0.994312 -0.00978364 -2.18388e-22)
(0.980515 0.0443835 -1.51561e-20)
(1.01286 0.0327467 2.27299e-21)
(0.940449 -0.0139496 1.31667e-21)
(1.001 -0.000423696 -4.42236e-23)
(1.05551 -0.0964772 1.34763e-21)
(0.970189 -0.0712681 2.09418e-21)
(0.998193 -0.0150261 1.35764e-22)
(1.00073 -0.000930746 -7.02405e-23)
(1.08589 0.205549 1.56173e-21)
(0.99425 -0.00449177 -4.44103e-23)
(1.0059 -0.00478119 -1.37457e-22)
(0.979623 -0.076125 2.11969e-21)
(0.989055 -0.0995098 3.00256e-22)
(0.999973 -3.97341e-06 4.33396e-25)
(0.97686 0.123759 -1.72267e-20)
(0.99912 -2.01244e-05 -8.35164e-25)
(0.999999 -4.49048e-05 2.95217e-25)
(0.999539 -0.000179629 5.86061e-24)
(0.995317 -0.0468645 -4.94188e-22)
(1.25812 0.0160969 2.85117e-21)
(1.01113 -0.0343398 2.70897e-23)
(1.00572 -0.00446334 -9.40941e-23)
(0.998152 -0.000207887 1.15909e-22)
(0.941478 -0.0155652 -2.53801e-22)
(1.00003 -0.000409442 -3.73076e-25)
(1.00041 -0.00137893 4.02205e-25)
(0.998009 -0.000176508 -7.63221e-23)
(1.02581 0.00120857 4.13604e-21)
(0.997699 -0.00344036 -2.4943e-23)
(0.998992 -0.00506299 4.15527e-23)
(1.02515 -0.00133511 1.98374e-21)
(1.00011 -0.000334477 2.90378e-24)
(1.00003 -3.75765e-06 1.57102e-25)
(1.00433 -0.000531693 4.75475e-23)
(0.978277 -0.0278188 -8.07708e-22)
(0.979296 -0.000342271 -7.60493e-22)
(0.995871 -0.000328225 -3.55219e-22)
(1.0118 0.00314981 3.70068e-21)
(0.986456 -0.000978153 3.69304e-22)
(1.01595 -0.0175724 -2.50232e-22)
(0.999977 -9.37736e-06 1.57833e-24)
(0.997446 -0.00226882 -1.39321e-22)
(1.00068 -0.000923492 7.58217e-23)
(1.05582 -0.0930717 1.34817e-21)
(1.01732 -0.163206 4.70416e-21)
(0.998821 -0.000107606 6.09789e-23)
(1.0004 -0.000490239 -2.56939e-23)
(0.998908 -0.00494143 -1.39743e-23)
(1.003 -0.00712512 -1.70611e-22)
(0.990583 -0.000524304 -6.75825e-22)
(0.999963 -3.74615e-05 -5.72757e-26)
(1.17162 -0.183168 -7.23986e-21)
(1.00004 -0.000418831 1.83382e-25)
(1.02549 0.00114096 -2.91393e-21)
(0.997129 -0.00198824 -7.2449e-23)
(1.00012 -0.000324539 1.29325e-24)
(1.03423 0.013081 -2.81615e-21)
(0.966342 -0.0678654 -2.09789e-21)
(1.00021 -3.65436e-05 1.39496e-23)
(1 -9.19875e-06 1.72052e-25)
(0.949728 -0.00301457 -1.59577e-21)
(1.00945 -0.149045 -7.49025e-22)
(0.992475 -0.00712046 -5.29717e-23)
(1.01042 -0.0520178 -1.61245e-22)
(1.02833 -0.0189792 -1.30635e-22)
(1.04902 0.100221 7.15622e-22)
(1.00006 -6.95021e-05 5.09612e-25)
(0.97869 -0.0272684 8.18768e-22)
(1.22116 -0.101988 5.30085e-21)
(0.96084 0.0668115 3.60252e-22)
(0.993683 -0.0110723 1.5957e-22)
(1.03234 0.050076 6.09569e-21)
(1.10991 -0.0533936 -1.23577e-22)
(0.999892 -0.00213586 -7.2088e-24)
(0.813394 0.0565964 2.07014e-20)
(0.999536 -0.000378829 -3.95874e-23)
(1.02518 -0.107164 -1.02591e-21)
(0.942413 -0.0155748 1.63888e-21)
(1.00196 -0.00226188 -7.00043e-23)
(1.21112 -0.0286377 -2.03625e-21)
(0.992586 -0.000805927 -4.06005e-22)
(1.00875 0.166403 1.1762e-20)
(0.997007 -0.000228268 3.29694e-23)
(0.98457 -0.0142633 -3.14977e-23)
(0.999816 -0.00193964 -3.59282e-23)
(1.14261 0.160688 1.26884e-21)
(0.999832 -0.015278 3.70493e-23)
(1.0476 0.12368 4.869e-22)
(0.999571 -3.98783e-05 -1.51682e-23)
(0.99494 -0.00163587 -1.55901e-22)
(0.957799 0.150563 -7.33983e-21)
(1.03035 9.5841e-05 -3.35686e-21)
(1.02496 -0.000958261 2.31065e-21)
(0.973869 -0.0351301 1.94372e-21)
(0.999876 -2.75054e-05 4.32723e-24)
(1.00292 -0.00688181 -1.90709e-23)
(0.999855 -0.000821781 -1.33311e-23)
(1 -4.23495e-05 2.12964e-25)
(1.0565 0.00352223 8.52643e-22)
(1.00003 -4.31466e-06 2.0533e-26)
(0.982587 -0.0126112 1.39992e-21)
(1.21532 -0.102427 -4.9955e-21)
(0.879826 0.12579 -1.8858e-20)
(1.00987 0.154435 -2.62155e-20)
(0.969972 -0.0590523 6.49273e-22)
(0.987343 -0.0259324 5.19045e-22)
(0.980286 -0.00132375 3.63074e-22)
(1.02971 -0.0358059 2.32558e-22)
(1.00559 -0.0158389 -7.61397e-23)
(0.984034 -0.0138457 -8.26888e-22)
(0.9701 -0.0647598 2.89393e-22)
(1.04711 0.103036 -1.06279e-20)
(0.999508 0.0150833 2.44854e-20)
(0.998899 -0.000131315 3.35615e-23)
(1.0059 0.082447 -2.23895e-20)
(1.05542 0.00210269 2.75551e-22)
(1.16836 -0.0836824 1.2841e-21)
(1.01198 -0.0144132 1.23402e-22)
(1.00079 -0.0140942 -1.92899e-22)
(1.01783 -0.0483789 -4.58121e-22)
(0.995305 -0.0015823 -3.69509e-22)
(0.997687 -0.000574145 -2.42782e-23)
(0.999954 -5.56605e-06 6.31066e-24)
(0.999159 -0.00770218 1.23191e-22)
(1.08932 -0.051763 2.47024e-23)
(1.14354 0.166867 -2.16836e-21)
(1.00142 -0.00122867 3.2893e-23)
(0.975948 -0.0228011 -1.10339e-21)
(1.01373 -0.0147908 -3.87333e-22)
(0.999971 -1.32678e-05 -5.81584e-25)
(0.970028 -0.0618059 -1.03527e-21)
(0.853274 0.0977338 -9.59563e-21)
(0.994549 -0.00422265 5.50507e-22)
(0.999021 -0.00404417 3.80266e-23)
(1.01253 -0.0142581 -7.69514e-23)
(1.00171 -0.0417588 9.62175e-22)
(1.093 0.0291759 9.90184e-22)
(0.999477 -0.00874548 -2.0039e-23)
(0.999974 -4.56496e-05 3.9845e-24)
(1.00001 -2.53127e-06 2.38603e-26)
(0.997656 -0.00052309 -2.68536e-23)
(0.95559 0.149383 1.06062e-20)
(1.04573 -0.0300325 2.91653e-22)
(1.02142 -0.163056 -1.19475e-21)
(1 -9.18808e-06 3.03664e-26)
(1.00636 -0.151569 4.75023e-22)
(1.08159 -0.00707309 -9.75209e-22)
(0.995496 -0.000144495 -1.6611e-22)
(0.944567 -0.00570115 -1.97528e-21)
(0.999096 -0.00397384 -3.83968e-23)
(0.999627 -0.000171759 -2.51961e-24)
(0.97938 -0.0246639 -2.43553e-22)
(1.00081 -0.00102209 -3.39619e-23)
(1.1765 -0.0743929 -2.61982e-21)
(1.00825 -0.000963316 -1.00564e-21)
(1.24007 0.105743 -4.14596e-22)
(0.999925 -0.00210806 9.29507e-24)
(1.00372 -0.0125806 2.60695e-23)
(1.00509 0.0107524 -9.80052e-21)
(1.26476 -0.109614 -4.96914e-21)
(1.00037 -0.00051894 -1.95523e-23)
(1.00039 -0.000459754 1.91004e-24)
(0.993933 0.104524 1.0724e-21)
(0.993761 -0.0473494 -2.62653e-22)
(0.999326 -0.0086096 2.45744e-23)
(1.01171 0.0362728 1.1995e-21)
(0.972335 0.0227489 2.96746e-20)
(1.10084 -0.101957 -1.79863e-21)
(0.998742 -0.0233677 -1.18087e-22)
(1.25282 0.0192319 -2.85063e-21)
(0.999339 -6.47765e-05 -2.55631e-23)
(0.992309 -0.00371771 1.43327e-22)
(0.997069 -0.000240158 -9.18478e-23)
(1.01451 0.0312754 1.39908e-24)
(0.999987 -0.00067533 1.2972e-24)
(1.00797 -0.00117366 1.02731e-21)
(1.1138 -0.157206 9.54364e-23)
(1.00384 0.145232 2.57501e-20)
(0.907243 0.144789 -4.35381e-21)
(0.99467 -0.00246464 1.98774e-23)
(0.992258 -0.00694935 1.58088e-22)
(1.06646 0.119104 -6.41565e-21)
(1.00747 -0.054142 1.14712e-21)
(0.999955 -6.66125e-06 -6.15125e-24)
(1.28647 0.0982044 -2.27104e-21)
(1.02518 0.00171169 -1.24458e-21)
(1.02472 0.00168766 -8.47859e-22)
(0.994761 -0.012062 -2.38737e-22)
(1.01712 -0.00181434 -1.60051e-21)
(0.946391 0.133451 4.22205e-21)
(1.08166 -0.162746 -1.05371e-21)
(0.97934 0.132825 4.22935e-21)
(0.995159 0.131673 -7.35384e-21)
(0.999997 -5.72911e-05 4.35091e-25)
(1.08629 -0.0501949 1.17466e-22)
(1.08418 -0.158242 6.92107e-22)
(0.997592 -0.00347104 6.48171e-23)
(1.00145 -0.00131727 -5.41794e-23)
(0.9668 0.0269193 7.09718e-21)
(1.04732 -0.0310125 -3.64573e-22)
(1.00025 -6.74104e-05 3.20726e-24)
(0.981279 -0.0530314 -2.4964e-21)
(0.969359 -0.0730135 -9.89044e-22)
(0.995049 -0.00168096 2.19253e-22)
(0.999896 -0.000187478 -5.46033e-24)
(1.06005 0.146907 -1.02163e-21)
(1.04419 0.0581017 9.3852e-21)
(1.00004 -0.000459493 -2.10218e-25)
(1.00365 -0.00332984 4.29383e-23)
(1.00472 -0.00334695 2.33425e-22)
(1.16793 -0.140631 5.52097e-21)
(0.97395 -0.0341896 -1.76084e-21)
(1.00006 -0.000546178 -8.58829e-25)
(0.999989 -2.26889e-06 -1.9742e-25)
(1.00044 -0.000148665 5.18145e-24)
(1.09139 0.030867 -9.32218e-23)
(0.97501 -0.023447 -8.84003e-22)
(1.00246 0.043483 5.16452e-21)
(0.951693 -0.0398424 9.98558e-22)
(0.988064 -0.0258467 -5.45858e-22)
(0.9787 -0.00102625 -1.44867e-21)
(1.01338 0.0351971 -5.9091e-21)
(1.25708 -0.0121491 -2.77007e-22)
(0.998934 -0.000139641 6.14875e-23)
(1.00712 -0.00547669 -2.49529e-22)
(1.00075 -0.00101113 3.84832e-23)
(0.977792 0.145841 -1.06333e-20)
(0.976846 -0.021314 4.7395e-22)
(1.00097 -0.000257728 -1.85277e-23)
(0.993231 -0.00331818 -1.96929e-22)
(1.16498 -0.0495175 -9.21952e-22)
(0.999557 -0.00940002 -5.44527e-23)
(0.989504 -0.0114174 -1.09975e-22)
(1.00021 -0.000128322 -9.61079e-24)
(1.00021 -4.91586e-05 -4.24132e-25)
(0.84919 0.104369 1.44525e-20)
(0.99264 -0.00120109 -2.52406e-22)
(0.995664 -0.0043587 2.27922e-22)
(0.999657 -0.0017187 -3.08647e-23)
(0.999356 -4.95496e-05 -3.51204e-24)
(1.05661 0.0975082 -3.55024e-21)
(1.119 -0.160821 2.97851e-22)
(0.985434 -0.0386583 3.29153e-22)
(1.00001 -1.84902e-06 -3.87745e-26)
(0.999999 -3.38348e-05 1.93509e-25)
(0.97595 -0.0220447 1.24807e-21)
(0.99391 -0.00176778 5.1958e-23)
(0.995337 -0.00201994 -3.01446e-23)
(1.01334 -0.0050943 4.87902e-22)
(1.0053 -0.00227752 8.4019e-23)
(1.00007 -0.0156542 -6.75058e-23)
(1.13121 -0.0325789 -2.49016e-22)
(0.983327 -0.00401745 -3.08256e-22)
(0.981505 0.130311 -3.59569e-21)
(1.0126 -0.0250754 -6.69605e-23)
(1.00022 -0.00012884 1.07055e-23)
(0.969335 -0.0578954 9.52173e-23)
(0.984133 -0.0341994 -1.13325e-21)
(1.20055 -0.0199261 -8.58079e-22)
(0.997358 -0.00572443 -6.93735e-23)
(0.988291 -0.0455709 -3.9073e-22)
(0.999984 -5.53771e-06 1.06902e-24)
(0.922588 0.106001 -1.49116e-20)
(1.01425 -0.00214129 8.96943e-22)
(1.00007 -0.000219554 -2.80501e-24)
(0.903812 0.0280884 -2.01193e-20)
(0.984482 -0.0387905 7.29006e-22)
(0.999983 -6.1099e-06 1.64781e-25)
(1.00131 -0.00120011 1.60046e-23)
(0.96927 -0.0605296 -5.68307e-22)
(1.0359 -0.0381873 7.17688e-23)
(1.04798 -0.0142237 1.01863e-21)
(0.999993 -3.28228e-06 3.28478e-25)
(0.992602 -0.000613761 2.00814e-22)
(1.01878 -0.0474138 8.6067e-22)
(0.995188 -0.00154247 3.0319e-22)
(0.999589 -4.57091e-05 -8.24292e-23)
(0.992458 -0.00383957 3.77423e-24)
(0.976826 0.0471848 1.75309e-21)
(0.993365 -0.0118389 -2.87392e-22)
(0.989945 -0.0111906 8.03121e-23)
(1.00161 0.023882 -5.01056e-21)
(0.997494 -0.0021428 7.24193e-23)
(0.97145 0.147732 -1.32034e-21)
(0.999982 -6.0227e-06 -5.38199e-25)
(0.989947 -0.026111 2.24293e-22)
(0.979684 -0.0725177 2.50381e-21)
(0.989147 -0.0459422 6.69819e-22)
(1.20433 -0.114356 1.39434e-21)
(0.99888 -0.00529508 9.37621e-23)
(1.00823 -0.0233047 -5.03511e-24)
(0.99991 -0.00227116 1.70011e-24)
(0.984193 -0.0201249 -6.26489e-22)
(1.03693 -0.0414899 -1.36547e-23)
(0.999973 -1.25989e-05 3.01803e-24)
(1.00001 -9.63355e-07 -6.25752e-26)
(0.994219 -0.00039742 1.37081e-22)
(0.980192 0.0921198 1.10643e-20)
(1.01167 -0.019394 3.97761e-22)
(1.00237 -0.00338613 -6.70752e-23)
(0.940404 -0.0291233 1.35785e-21)
(1 -8.14131e-06 9.15019e-26)
(1.00089 -0.00111687 -6.16921e-23)
(0.999966 -0.000643539 -9.40336e-25)
(1.01301 -0.0186421 4.71178e-22)
(0.984488 -0.0148916 1.10407e-22)
(0.999654 -0.000268003 1.04444e-23)
(0.993819 -0.0105693 1.09409e-22)
(0.98865 -0.00661233 -1.14769e-22)
(1.00093 -0.000154565 -5.10732e-24)
(0.999982 -6.63696e-06 -3.31887e-25)
(1.236 -0.0705695 -5.22794e-21)
(0.999692 -0.00169006 3.32532e-23)
(1.07837 -0.0118945 7.24732e-22)
(1.02097 0.141863 2.6439e-20)
(1.06088 0.117713 -5.93849e-21)
(1.0002 -0.0197557 -2.51158e-22)
(1.0052 -0.00206661 -2.77844e-23)
(1.01746 -0.00144409 9.80784e-22)
(0.999955 -0.00232228 -1.93026e-24)
(0.997872 -0.00997582 1.17198e-22)
(1 -1.51921e-05 3.34956e-25)
(0.99205 0.132087 -5.32768e-22)
(0.9886 -0.0150133 1.56211e-22)
(1.01308 -0.00470294 -3.48971e-22)
(0.983696 -0.00417152 6.41754e-22)
(1.00327 -0.0123631 3.49555e-24)
(0.997515 -0.00563107 1.51404e-22)
(0.999906 -0.000192067 1.3091e-24)
(1.00001 -1.08983e-06 -3.97226e-25)
(0.995811 -0.00434248 -1.6599e-22)
(1.05579 -0.0137215 -5.38524e-22)
(1.00462 0.0454586 7.99887e-22)
(1.00112 -0.000456669 -7.53036e-23)
(0.973796 -0.0542832 -5.29029e-22)
(0.976809 -0.0206698 -2.08862e-22)
(0.992785 -0.000480761 -7.52661e-22)
(1.29427 0.0510197 2.0084e-21)
(0.998808 -0.000920431 -3.66011e-23)
(1.0033 -0.0139749 -5.14737e-23)
(0.994965 -0.00265704 1.53362e-22)
(0.999914 -0.00018506 1.09485e-24)
(0.969251 -0.0633184 6.50701e-22)
(1.00201 0.0369312 -8.08385e-21)
(1.03287 0.0453425 -6.22319e-21)
(0.979181 -0.0138877 -1.0092e-22)
(1.00148 0.0348787 -3.42201e-22)
(1.00007 -0.000206106 5.27498e-24)
(1.00001 -1.07715e-06 1.11034e-25)
(1.28057 0.0942758 6.37725e-22)
(1.20901 -0.02176 1.63941e-21)
(0.905224 0.10757 -7.17785e-22)
(0.994511 -0.0777137 1.95817e-21)
(0.978927 -0.0014174 -4.69306e-22)
(1.16455 -0.0427217 1.36548e-21)
(1.00107 -0.00047546 8.52594e-23)
(0.994772 -0.00357935 8.77731e-23)
(1.00041 -0.000157728 -4.95245e-24)
(0.990191 -0.000671692 -1.6042e-22)
(0.989026 -0.0122843 -2.28305e-22)
(0.999995 -3.01551e-05 -1.19759e-24)
(0.999198 -3.12125e-05 1.45662e-23)
(1.00337 0.141894 -2.51621e-20)
(0.99988 -0.00066823 1.2219e-23)
(0.931653 0.0980253 1.87038e-20)
(1 -1.42396e-05 -2.5666e-25)
(1.2923 -0.0504375 -5.55188e-21)
(1.0782 -0.0141633 -1.58209e-21)
(1.13145 -0.0285508 2.54868e-22)
(1.00095 -0.000450154 5.07908e-24)
(1.00016 -3.91157e-05 8.46709e-24)
(0.98492 0.0871537 -1.68286e-20)
(1.08156 -0.00964769 3.25686e-21)
(0.979033 -0.0738156 -2.27565e-21)
(1.02249 0.0442277 2.86432e-21)
(0.99758 -0.0199755 1.01041e-22)
(0.987661 -0.00504552 -1.66887e-22)
(0.996279 -0.000205596 -9.14885e-23)
(1.15241 0.201844 -9.44973e-21)
(0.977628 -0.024745 7.81131e-22)
(1.03029 -0.0343438 -1.83426e-22)
(0.994064 -0.0104767 -6.29216e-23)
(1 -8.14823e-06 -9.99718e-28)
(0.998821 -0.000869218 -3.11315e-23)
(1.00556 -0.00576478 1.43817e-22)
(0.983061 -0.0074421 8.19885e-22)
(0.979711 -0.0140098 1.51735e-22)
(0.959992 -0.036403 -2.26063e-22)
(0.982879 -0.00788986 -6.22022e-22)
(1.01798 0.00288341 4.97532e-22)
(0.998058 -0.000133441 1.91376e-24)
(0.945057 -0.0335068 7.05368e-22)
(0.987063 -0.000858992 -2.28848e-22)
(1.00003 -0.000198797 3.05859e-25)
(0.988707 -0.000689623 -1.58243e-22)
(1.03068 -0.0371675 -2.03762e-22)
(1.01722 0.00308529 -2.75281e-21)
(0.975807 -0.0248258 -1.92888e-22)
(0.999989 -5.8965e-07 -5.14788e-27)
(0.983776 -0.0152039 1.66225e-22)
(1.00185 -0.0142488 2.61558e-23)
(1.00128 -0.00111351 2.05903e-23)
(1.10046 -0.171635 -3.28242e-21)
(1.00174 0.034001 -1.88664e-20)
(1.00083 -0.00110269 5.72453e-23)
(0.988901 -0.000520659 2.12407e-24)
(1.09207 -0.0996781 7.98244e-23)
(1.02634 0.000279197 4.11993e-21)
(0.990894 0.0301323 -1.89062e-21)
(1.00171 -0.00235631 1.82484e-23)
(1.00001 -0.0205715 7.79583e-23)
(1.11689 0.144619 -1.74751e-21)
(1.0154 0.0277454 -1.45657e-20)
(0.990918 -0.0260677 5.98423e-22)
(1.00444 -0.00334618 -2.61298e-23)
(0.955564 -0.0428859 1.03077e-21)
(0.999998 -3.98016e-06 2.59232e-25)
(0.955875 -0.00182806 -7.24694e-22)
(1.00007 -6.46988e-05 1.06504e-24)
(1.08891 -0.0998216 -4.08355e-21)
(0.999974 -2.81831e-06 -3.3954e-25)
(1.00002 -5.6953e-05 3.04212e-25)
(0.999579 -0.0229917 -9.4334e-23)
(1.27163 -0.00643461 2.4685e-21)
(1.03739 0.181446 1.08193e-20)
(1.03389 -0.0385254 -2.65768e-22)
(1.01307 -0.014917 2.57787e-22)
(0.999999 -2.98274e-06 -8.0356e-26)
(0.994353 -0.00425212 -2.97171e-22)
(1.00008 -1.9866e-05 -8.16979e-25)
(0.997099 -0.00227977 1.0362e-22)
(1.00002 -5.28529e-05 -2.31e-25)
(1.0482 -0.0122338 -3.17197e-21)
(0.99957 -0.00044581 -4.07011e-23)
(1.06219 0.0602204 5.90198e-21)
(0.999887 -0.000204835 -8.24342e-24)
(0.988108 -0.00493269 -2.82591e-22)
(0.962668 -0.000991701 1.69954e-21)
(0.996086 -0.000283208 -1.18101e-22)
(0.984512 0.0459994 1.81568e-20)
(0.984135 -0.000669478 4.27914e-22)
(1.01499 -0.10147 1.78509e-22)
(0.994905 -0.00375518 4.55863e-22)
(1.02448 -0.00263905 -8.32003e-22)
(0.971482 -0.0549135 2.28648e-21)
(1.01859 -0.00135936 -2.75061e-21)
(1.03387 -0.0723548 -8.36434e-23)
(0.999989 -1.86132e-06 5.1839e-26)
(0.999007 -0.0194069 8.52563e-23)
(0.99634 -0.000271342 1.43899e-23)
(1.00022 -8.68078e-05 6.50699e-24)
(1.00007 -1.68865e-05 1.32586e-24)
(1.15858 0.205088 1.02294e-20)
(0.995491 -0.00202655 2.54316e-22)
(1.02614 0.00108489 4.7259e-21)
(1.00059 -0.0210912 9.66023e-23)
(1.00079 -0.000289246 1.96379e-23)
(1.02268 -0.00832421 -2.97325e-21)
(1.00015 -3.68296e-05 -1.83879e-23)
(0.999981 -3.52501e-06 -4.78369e-26)
(0.956394 -0.0024363 5.59239e-22)
(0.996784 -0.00115581 1.15034e-22)
(1.00003 -5.14082e-05 4.43855e-25)
(1.07428 0.115878 4.24217e-21)
(0.866912 0.0853972 -2.68247e-20)
(0.99981 -0.000216961 1.98862e-23)
(0.964289 -0.00200515 -4.69785e-22)
(1.00001 -1.25018e-06 8.28962e-26)
(0.942596 0.130438 -1.7226e-20)
(1.30008 -0.0524303 -7.21316e-21)
(0.972295 -0.0441665 -1.8329e-21)
(1.00004 -0.000528001 -9.65087e-25)
(1.02925 -0.0330729 4.92545e-22)
(1.03001 -0.00287129 -1.15296e-21)
(1.03109 4.99229e-05 3.46508e-22)
(1.04915 -0.0149991 -3.84606e-22)
(0.999659 -0.00181149 -4.85995e-24)
(0.999877 -0.00080114 1.05953e-23)
(0.986926 -0.0148972 -4.93972e-22)
(1 -7.2198e-06 2.61314e-25)
(1.00001 -9.74929e-07 -2.13325e-26)
(0.976876 -0.0242824 -4.57982e-22)
(0.995038 -0.0594674 -1.05222e-21)
(0.961124 -0.0357744 -5.78132e-23)
(0.889283 0.121209 -5.88526e-22)
(1.00018 -2.38994e-05 -7.84285e-24)
(1.01116 -0.0761998 -2.37487e-21)
(1.00689 -0.00513878 -2.56297e-22)
(0.999983 -3.89039e-06 5.45284e-25)
(0.999044 -0.00376508 -8.2662e-23)
(1.00003 -0.000446745 -4.19477e-25)
(0.995751 -0.0122523 1.80898e-22)
(1.00004 -9.47715e-06 7.0135e-25)
(1.0357 -0.0713077 -2.00737e-22)
(1.01822 -0.00165947 2.66617e-21)
(0.973355 0.145068 3.70983e-21)
(1.02397 -0.00249311 3.12963e-21)
(0.999749 -0.000212344 1.54485e-23)
(1.00042 -0.00037051 -1.89546e-23)
(1.16427 -0.147021 -5.52406e-21)
(1.02611 0.000830452 -3.80187e-21)
(0.997166 -0.000372655 1.03903e-22)
(1.00001 -1.61382e-06 1.88078e-25)
(1.09251 0.0994541 -6.73676e-21)
(1.05677 -0.182701 -1.25216e-21)
(0.994809 -0.0761123 -8.7708e-22)
(0.986709 -0.000731055 -1.20672e-22)
(0.999984 -1.89659e-05 1.09727e-24)
(0.999752 -0.000200191 -9.03855e-24)
(1.06034 -0.187493 3.47444e-21)
(0.996338 -0.0477569 -2.91722e-22)
(1.03984 0.0317791 8.79982e-22)
(0.980851 0.125759 1.55203e-20)
(1.01428 -0.0988201 1.30252e-21)
(0.99885 -8.00832e-05 -1.91667e-23)
(0.999984 -8.89348e-06 -1.27103e-24)
(0.96501 -0.0466863 1.77196e-21)
(0.97262 -0.0935374 -2.47225e-21)
(0.999817 -0.000224787 1.07103e-23)
(1.00885 -0.022681 1.18436e-22)
(0.991234 -0.025384 -1.06323e-22)
(0.995722 -0.00217396 1.00524e-22)
(0.998508 0.0287483 -1.42052e-20)
(0.998825 -0.000517931 6.82425e-23)
(1.04896 -0.055277 -2.10164e-22)
(1.24819 0.159355 -1.45528e-21)
(0.992863 -0.00312842 -2.87228e-22)
(0.902963 0.101397 -2.64617e-21)
(0.913081 0.0480365 8.43246e-21)
(0.999974 -4.83048e-05 -4.01764e-24)
(0.999974 -0.000704166 -1.17806e-24)
(0.984323 -0.000889926 -2.7411e-22)
(1.0124 -0.00459675 -6.32198e-22)
(0.965758 -0.00185228 9.81253e-22)
(1.00483 -0.00415476 -2.67451e-22)
(0.993118 -0.00313941 2.68736e-22)
(0.999482 -0.000475046 -3.08446e-23)
(0.952781 0.131233 -3.04502e-21)
(1.06269 0.0573387 -9.18907e-21)
(1.00211 -0.00228554 4.70961e-23)
(0.821388 0.0535393 -5.28789e-21)
(1.00001 -8.57578e-07 -1.1442e-25)
(1.02455 0.00659806 -6.70997e-21)
(0.987053 -0.0926591 1.83482e-21)
(1.01342 -0.0764969 9.31142e-22)
(1.00008 -0.000200194 -2.59231e-25)
(0.96415 -0.00101203 8.05819e-22)
(1.02206 0.00599194 3.79799e-21)
(1.01207 -0.00491345 5.22407e-22)
(1.0295 -0.00175565 1.61514e-21)
(0.999601 -3.58483e-05 5.81086e-23)
(0.999564 -0.000475089 3.6867e-23)
(1.02191 -0.0464842 2.64125e-22)
(0.996836 -0.00124543 -3.30822e-22)
(0.98825 -0.0111568 -5.3697e-22)
(0.999161 -0.00341206 4.90107e-24)
(1.09019 0.0387397 4.1038e-21)
(0.998736 -0.0202125 -5.79374e-23)
(0.99541 -0.00461285 5.72054e-24)
(0.93754 -0.0246118 -1.99169e-21)
(0.996589 0.104427 1.75621e-21)
(1.11457 -0.0505187 6.94786e-22)
(1.02216 -0.00797661 2.39098e-21)
(0.999642 -0.000172252 1.1137e-23)
(0.999539 -0.000310582 5.0057e-24)
(0.983516 -0.0198655 1.2569e-21)
(1.00092 -0.00120209 -4.59841e-23)
(0.997625 -0.00065781 -1.88052e-23)
(0.999985 -1.79365e-05 -4.16015e-25)
(0.999694 -0.00184587 9.18139e-25)
(1.02143 0.00551397 -1.47957e-21)
(0.983888 0.0909692 -1.61448e-20)
(0.999891 -1.41587e-05 2.59184e-24)
(1.18859 0.182403 -6.834e-21)
(0.999995 -3.79755e-05 4.96819e-25)
(0.997003 -0.00270129 1.41021e-22)
(0.999993 -9.00818e-05 5.19561e-25)
(1.00487 -0.00359749 -1.18879e-22)
(1.2361 -0.0782781 3.99302e-21)
(0.999967 -4.03657e-05 3.06702e-25)
(0.999966 -4.33099e-05 2.23652e-24)
(0.95074 -0.0402567 -9.5375e-22)
(1 -7.24394e-06 2.24314e-27)
(1.05252 -0.0151547 3.17767e-21)
(0.987502 -0.0396988 1.06129e-21)
(0.999977 -0.000618402 1.08783e-24)
(1.08983 0.0747652 -5.16134e-21)
(0.999999 -2.71537e-05 -4.2875e-25)
(0.999646 -3.70108e-05 5.10245e-23)
(0.999925 -3.3391e-05 8.19965e-26)
(0.995574 -0.00462225 -8.54779e-23)
(0.999688 -0.00147082 -1.58441e-23)
(0.994331 -0.00030177 -9.21702e-23)
(0.993823 -0.112103 -2.10198e-22)
(0.999722 -0.00143213 1.06118e-23)
(1.00389 -0.003346 -9.21778e-23)
(0.999981 -2.62244e-06 -2.01975e-25)
(1.04 0.17789 -2.09854e-20)
(1.04715 -0.0561657 -5.56283e-22)
(1.11822 -0.0519157 2.73641e-22)
(0.968107 -0.00555187 1.05906e-21)
(0.979324 -0.00400096 -1.97263e-22)
(0.999128 -0.00368255 1.36538e-22)
(1.00269 -0.00255065 1.282e-22)
(1.05108 0.0741541 2.57834e-21)
(0.983484 -0.0351626 1.54071e-22)
(1.14083 0.121254 2.19579e-21)
(0.960387 -0.0124903 -1.89635e-21)
(0.996898 -0.00260756 -1.32822e-22)
(0.999993 -3.92755e-06 -5.85676e-25)
(0.994793 -0.00266596 -1.8487e-22)
(1.01253 0.168514 5.3894e-21)
(1.08052 0.0863398 -1.22581e-21)
(0.982715 -0.0527448 8.57149e-22)
(0.946824 -0.0053249 4.3325e-22)
(1.04596 0.168783 5.71156e-21)
(0.992232 -0.000548227 2.37193e-22)
(0.98354 -0.0845215 1.448e-22)
(0.999993 -8.62194e-05 1.20271e-24)
(0.986459 -0.0398335 1.31509e-21)
(0.999249 -0.000214597 -7.23682e-23)
(0.834155 0.0911915 -1.5155e-20)
(0.978995 -0.0689443 -1.88013e-21)
(0.999927 -3.00324e-05 4.97021e-24)
(0.943475 -0.017191 -1.11072e-22)
(0.983267 -0.0372923 7.1401e-23)
(1.03627 0.082305 9.449e-21)
(0.997657 -0.000718002 -1.77255e-22)
(0.981583 -0.0358937 -4.58479e-22)
(0.997696 -0.0102242 -1.63763e-22)
(0.999672 -0.022222 -1.95278e-22)
(0.998855 -0.000527128 -4.66324e-23)
(1.03481 0.080568 -1.14847e-20)
(1.01418 -0.158195 2.06701e-21)
(0.98371 -0.0158262 -3.68369e-22)
(0.987447 -0.0138597 7.98804e-24)
(0.988208 -0.00465966 -1.13907e-22)
(1.00487 -0.00195439 -1.09613e-22)
(1.04805 0.164151 2.22859e-20)
(0.983716 -0.0128373 1.6636e-22)
(1.01468 0.0418358 6.29262e-21)
(1.00248 -0.00204497 9.76474e-23)
(1.21167 -0.113182 -7.70363e-23)
(0.928363 0.104893 2.79472e-21)
(0.992078 -0.000427085 -8.21208e-22)
(0.999801 -3.82076e-05 1.03179e-23)
(1.05445 0.100484 2.77494e-21)
(1.00014 0.135948 -2.04422e-20)
(1.02131 -0.0447876 -3.38051e-22)
(1.07952 -0.0512663 -7.90285e-23)
(0.995539 -0.0127004 -2.02824e-22)
(0.968591 -0.00502255 -6.28513e-22)
(1.11334 0.141083 6.92712e-21)
(0.963788 -0.0468134 2.91476e-22)
(0.999983 -1.83293e-05 1.39733e-24)
(0.993262 -0.000106331 -4.23858e-22)
(1.00003 -4.91178e-06 6.81456e-25)
(0.995952 -0.000254412 3.20528e-22)
(0.999982 -1.95244e-05 -2.17714e-24)
(0.997998 -0.0142705 2.7568e-22)
(0.999144 -3.46348e-05 2.56967e-23)
(0.997481 -0.00533843 1.75748e-23)
(1.18066 -0.132755 -9.84918e-22)
(0.999469 -0.000363788 2.63505e-23)