/*--------------------------------*- C++ -*----------------------------------*\
  =========                 |
  \\      /  F ield         | OpenFOAM: The Open Source CFD Toolbox
   \\    /   O peration     | Website:  https://openfoam.org
    \\  /    A nd           | Version:  7
     \\/     M anipulation  |
\*---------------------------------------------------------------------------*/
FoamFile
{
    version     2.0;
    format      ascii;
    class       volVectorField;
    location    "37";
    object      U;
}
// * * * * * * * * * * * * * * * * * * * * * * * * * * * * * * * * * * * * * //

dimensions      [0 1 -1 0 0 0 0];

internalField   nonuniform List<vector> 
30084
(
(1.01261 -0.0149253 3.36506e-23)
(1.00848 0.00430331 1.45836e-22)
(0.98905 -0.00409607 -2.07539e-22)
(0.967233 -0.0668878 7.15838e-23)
(0.997155 -6.13656e-05 2.93763e-23)
(0.946205 -0.0424404 -1.04725e-22)
(1.08493 -0.0739652 1.41711e-22)
(1.01718 -0.0222634 -3.4707e-24)
(1.00232 -0.00222826 4.70786e-24)
(1.00021 -5.69267e-05 1.23013e-24)
(1.02026 -0.0297554 -1.08943e-25)
(0.998344 -0.0195494 -7.39413e-23)
(0.999445 -0.000226454 4.0153e-24)
(0.999965 -1.25491e-05 1.12956e-25)
(1.1159 0.106691 4.42069e-22)
(0.992881 -0.00233961 3.18616e-23)
(0.999819 -0.000988835 -1.81966e-24)
(1.13029 0.0282614 -3.47286e-23)
(0.997528 -0.00210793 -9.98455e-24)
(0.986968 -0.000992259 -4.64948e-23)
(0.999002 -0.000320507 -1.36691e-23)
(1.00219 -0.00222494 1.65051e-23)
(0.988947 -0.00433343 2.29407e-22)
(0.997506 -0.000201299 1.28834e-23)
(0.901684 0.102178 6.20143e-23)
(1.0094 0.00343111 7.83686e-22)
(0.999401 -6.82463e-05 9.15316e-24)
(0.950368 0.0865997 -4.17008e-21)
(1.11948 0.107892 -1.17216e-21)
(0.999311 -0.0105901 -1.38083e-23)
(1.01747 -0.0116314 2.35337e-23)
(1.03932 -0.00416731 -1.77875e-22)
(1.00169 -0.156204 7.99918e-22)
(0.999331 -0.0271024 3.80002e-23)
(0.948634 0.0826389 3.34729e-21)
(1.00728 -0.0378757 1.10361e-22)
(1.06 0.0521614 -2.54981e-22)
(0.966774 -0.0369612 2.79148e-22)
(1.00603 -0.000924553 -6.40487e-23)
(1.00583 -0.000666289 1.21936e-22)
(1.0005 -0.000187955 -3.82859e-24)
(0.988955 -0.0376654 -2.72631e-22)
(0.999841 -0.00096112 -2.46394e-26)
(1.04516 -0.0783492 -4.71183e-22)
(1.00004 -6.5151e-06 -2.4024e-25)
(0.999558 -0.0107283 1.02356e-23)
(0.997566 -0.0145162 -2.1556e-23)
(1.00009 -9.78651e-05 6.19821e-25)
(1.00386 -0.00414078 -6.68765e-23)
(1.06038 0.0496759 -1.04737e-22)
(1.15263 -0.0555663 9.2361e-23)
(0.970649 -0.0580826 -3.31703e-22)
(1.03902 -0.00331201 6.2414e-23)
(0.948084 -0.0419021 -1.70387e-22)
(0.99306 -0.00239788 -2.79704e-23)
(1.12478 0.101751 -7.22329e-22)
(0.996083 -0.00265321 1.00057e-23)
(0.998974 -0.000353157 1.73173e-23)
(1.00139 -0.0253113 -5.31315e-23)
(1.0219 -0.0672311 -2.05991e-22)
(0.999924 -8.13397e-06 2.62324e-25)
(0.997616 -0.00215927 -2.05468e-24)
(1.19705 0.0886004 1.50208e-22)
(1.00757 -0.0369056 -6.11847e-23)
(1.04771 0.103548 2.03695e-21)
(0.924312 0.0286515 8.31267e-21)
(1.00103 -0.0321471 -1.03863e-22)
(0.991946 -0.0166562 9.55042e-23)
(0.944524 0.0183597 3.34412e-21)
(1.00052 -0.000177332 2.47742e-24)
(1.01101 0.0041489 -1.06835e-21)
(0.988696 0.0740607 2.33206e-21)
(1.00396 -0.0102818 -2.5743e-23)
(0.919855 0.117737 2.28886e-21)
(0.990505 -0.000763445 1.47344e-22)
(1.13135 -0.0172471 2.20207e-23)
(1.14327 0.151511 1.55167e-21)
(0.967095 -0.0208593 6.61807e-23)
(0.999943 -2.57775e-05 -7.45009e-25)
(1.01086 -0.0566823 -1.97901e-22)
(0.946566 -0.00097857 -1.12141e-22)
(1.01889 0.0412728 6.1937e-22)
(1.01289 -0.0155637 -1.01292e-22)
(1 -7.23967e-05 6.41766e-26)
(1.08684 -0.0706884 -2.16513e-22)
(1.27479 -0.0392806 -6.98456e-22)
(1.02796 0.0902916 -3.79564e-21)
(0.999423 -0.000223167 -3.64027e-24)
(0.999462 -0.000201842 -1.06735e-24)
(0.917261 -0.0573878 -4.51606e-22)
(0.999392 -0.0647373 3.77859e-22)
(0.967019 -0.0218547 7.50459e-23)
(1.00363 -0.00428422 1.13814e-23)
(1.06197 -0.00267439 -1.06503e-22)
(0.906446 -0.0247625 -3.79992e-22)
(1.03408 0.106896 1.90344e-21)
(1.00638 -0.0840394 6.24427e-22)
(1.00054 -0.000444557 6.1454e-24)
(0.971226 -0.0842017 -6.74113e-22)
(1.10675 0.121585 1.99411e-21)
(0.99994 -2.52671e-05 1.08967e-24)
(0.968452 -0.0135162 -3.98891e-22)
(0.999927 -9.9712e-06 -1.35664e-25)
(1.05158 -0.0148718 -5.23948e-22)
(0.968785 -0.0581176 2.17873e-22)
(1.03533 0.0157367 1.11016e-21)
(1.00215 0.0712471 3.55899e-21)
(0.999484 -0.000204222 -9.01569e-24)
(0.999994 -8.0327e-05 -1.56452e-26)
(1.02178 -0.142679 -3.89879e-23)
(0.997946 -0.155313 -7.21133e-22)
(1.05332 -0.0384628 3.80706e-23)
(1.00002 -2.5753e-06 4.17965e-26)
(0.998798 -0.00716786 -3.67605e-23)
(0.999884 -0.00253971 1.34587e-24)
(0.990921 0.075977 1.2217e-23)
(1.03608 0.0592226 -1.33998e-21)
(0.986182 -0.00889195 -1.58381e-22)
(1.00003 -7.89145e-05 5.63202e-26)
(1.00432 -0.0101673 -1.9805e-23)
(1.24785 0.0620526 6.54325e-22)
(1.00521 0.0122583 1.7136e-21)
(1.18644 -0.00277198 -2.68866e-22)
(0.92256 0.0350109 -7.88185e-21)
(1.00126 -0.000411189 -1.55913e-23)
(1.16793 0.0109599 -3.08948e-23)
(1.12738 0.0307477 -1.94113e-22)
(1.02662 -0.0633937 1.54553e-22)
(1.00459 -0.00390984 -5.98105e-23)
(1.00003 -0.000507482 7.64076e-26)
(1.04398 -0.076025 1.65971e-22)
(1.1462 0.14915 8.73411e-22)
(0.999903 0.127287 4.38467e-21)
(1.20006 -0.0144241 -1.26087e-22)
(1.04994 -0.0148883 4.41934e-22)
(1.01697 -0.0112493 4.50303e-22)
(1.05092 0.16031 3.14963e-22)
(0.966726 -0.00100705 5.82007e-22)
(1.21979 -0.166621 2.47142e-21)
(1.10881 0.118196 -1.51047e-21)
(1.16467 0.0141747 5.3869e-23)
(0.924275 -0.00710839 -4.7691e-22)
(0.941591 -0.059953 1.4497e-22)
(1.00002 -2.35142e-06 -1.81599e-26)
(0.999987 -4.5282e-06 6.02275e-26)
(0.997081 -0.000101974 -2.32031e-23)
(0.99777 -0.014206 4.38525e-23)
(0.995644 -0.11611 -5.25913e-22)
(1.19846 -0.11524 9.89681e-22)
(1.18707 0.126955 8.43655e-22)
(1.03492 -0.0179987 2.3211e-22)
(1.02135 -0.0208229 7.45309e-23)
(1.0005 -0.000721309 9.4764e-24)
(0.999849 -0.00025644 1.0418e-24)
(1.00129 0.0193924 -3.70507e-21)
(1.00062 -0.00176293 1.09484e-24)
(0.992513 -0.0135148 1.55138e-26)
(1.06088 0.162456 -9.31929e-22)
(1.00358 0.0399553 -3.94881e-21)
(1.15404 -0.0504085 -1.66471e-22)
(0.949217 -0.0037029 1.93538e-22)
(0.968354 -0.0652964 5.12683e-22)
(1.12368 0.105554 1.90052e-22)
(0.999943 -5.31111e-05 2.35987e-25)
(0.999987 -4.37518e-06 -2.24511e-26)
(0.98613 -0.00934562 5.60183e-23)
(0.943121 -0.0585466 -7.67682e-22)
(1.00006 -0.000260163 -6.09834e-25)
(1 -7.68291e-05 2.13462e-26)
(0.992154 -0.00610354 -1.88043e-23)
(1.00004 -0.000492544 -5.9703e-26)
(1.00663 -0.00666868 -3.32844e-23)
(1.05779 0.164768 1.09979e-21)
(0.967232 -0.000533925 -4.79267e-22)
(1.08052 -0.123683 -2.32637e-22)
(0.994117 -0.000116666 9.46315e-23)
(1.00243 -0.00307802 3.50756e-24)
(0.96755 -0.0133189 6.74267e-22)
(0.999144 -0.00714072 -3.35398e-24)
(1.18522 0.00847731 6.39865e-23)
(0.999975 -1.17736e-05 3.69122e-25)
(1.0191 -0.0431062 -7.93072e-23)
(1.02971 0.0921556 1.35824e-21)
(0.992244 -0.0154595 -5.41454e-24)
(1.21203 -0.166808 -2.29003e-21)
(1.02818 0.0507304 -1.17739e-21)
(0.992675 -0.00335573 -1.3743e-22)
(0.978863 -0.0191131 1.73583e-22)
(1.00434 -0.00393549 9.11484e-23)
(0.999371 -0.00986416 -2.16011e-23)
(0.999681 -8.472e-06 1.04196e-24)
(1.00785 -0.0201884 1.30816e-23)
(0.918281 0.0175118 3.29133e-21)
(1.00078 0.0157318 2.85081e-21)
(0.983095 -0.00759418 4.32848e-24)
(0.992857 -0.0132967 -6.02585e-23)
(0.983185 0.0378492 -3.12753e-21)
(1.01174 0.0322547 5.316e-22)
(0.908587 -0.0244267 4.58443e-22)
(1.00131 -0.000549036 -1.2199e-23)
(1.10818 -0.0905912 3.109e-22)
(0.975141 -0.112831 7.07426e-22)
(0.998695 -0.0199174 3.5051e-23)
(1.00096 -0.00121072 -1.95791e-23)
(1.05289 0.163442 4.58361e-22)
(0.992409 -0.00611061 -1.24569e-23)
(1.00766 -0.00593937 -3.74579e-23)
(0.993025 -0.115976 6.98897e-22)
(1.02315 -0.146517 9.88313e-23)
(0.999958 -5.94784e-06 9.01348e-26)
(0.978117 0.103649 -3.86144e-21)
(0.998818 -2.67269e-05 -2.27673e-25)
(1 -6.17356e-05 1.89954e-26)
(0.999378 -0.000238011 1.5545e-24)
(1.00311 -0.0644298 -1.38547e-22)
(1.18233 0.096706 -6.39466e-22)
(1.02008 -0.0420365 8.99656e-24)
(1.00742 -0.00555261 -2.56708e-23)
(0.997534 -0.000276691 3.19946e-23)
(0.910528 -0.0271833 -9.06421e-23)
(1.00004 -0.000539388 -1.5951e-25)
(1.00055 -0.00179778 1.03472e-25)
(0.997343 -0.000235042 -2.11612e-23)
(1.02777 0.00183727 1.02503e-21)
(0.997018 -0.00457061 -6.80173e-24)
(0.998811 -0.0066575 1.09042e-23)
(1.02855 -0.00100041 5.06626e-22)
(1.00015 -0.000440116 9.48069e-25)
(1.00004 -5.65662e-06 6.32412e-26)
(1.00557 -0.000670036 1.29201e-23)
(0.97251 -0.041704 -2.61365e-22)
(0.970986 -0.000507284 -2.31653e-22)
(0.994479 -0.000442815 -1.00675e-22)
(1.01205 0.00327497 8.84044e-22)
(0.981409 -0.00139719 1.10243e-22)
(1.02147 -0.0200673 -7.26945e-23)
(0.999964 -1.3976e-05 3.17089e-25)
(0.996642 -0.00302119 -3.83032e-23)
(1.0009 -0.00120209 2.11599e-23)
(1.10578 -0.0866752 3.05928e-22)
(1.12759 -0.209326 1.80373e-21)
(0.998423 -0.000142825 1.67189e-23)
(1.00053 -0.000641389 -7.28445e-24)
(0.998692 -0.00650294 -3.71236e-24)
(1.00415 -0.00907813 -4.91004e-23)
(0.987233 -0.000731288 -1.96724e-22)
(0.999945 -5.0636e-05 -1.49271e-26)
(1.26838 -0.0395273 -1.42686e-21)
(1.00005 -0.000551438 1.83488e-25)
(1.02736 0.00168142 -7.21708e-22)
(0.996208 -0.00265464 -2.01114e-23)
(1.00017 -0.000426973 4.00734e-25)
(1.03423 0.015976 -7.05704e-22)
(0.967193 -0.109144 -7.28833e-22)
(1.00029 -4.83269e-05 4.03756e-24)
(1 -1.46759e-05 1.32697e-26)
(0.924031 -0.00508857 -5.42166e-22)
(1.09991 -0.200733 -2.64738e-22)
(0.990128 -0.00979662 -1.48584e-23)
(1.02589 -0.0651482 -4.07514e-23)
(1.03594 -0.0185727 -3.80518e-23)
(1.03461 0.0902445 1.66238e-22)
(1.00009 -9.23911e-05 1.71286e-25)
(0.97303 -0.040733 2.4517e-22)
(1.22426 0.0317845 3.12603e-22)
(0.966272 0.0567435 7.68203e-23)
(0.992119 -0.0151255 4.41419e-23)
(1.02727 0.0491787 1.42978e-21)
(1.13 -0.0137647 2.33016e-23)
(0.999886 -0.00279413 -1.73917e-24)
(0.840729 0.0494883 4.8904e-21)
(0.999382 -0.000501057 -1.04495e-23)
(1.08117 -0.128194 -3.07915e-22)
(0.912159 -0.0270888 5.70242e-22)
(1.00258 -0.00290644 -1.9295e-23)
(1.17995 0.0563436 3.48639e-22)
(0.990009 -0.00110837 -1.17313e-22)
(1.00164 0.136515 3.03324e-21)
(0.996005 -0.000305689 9.33913e-24)
(0.979595 -0.0205813 -9.09701e-24)
(0.999782 -0.00253962 -9.09037e-24)
(1.08905 0.140167 4.5569e-22)
(1.00092 -0.0200228 9.0372e-24)
(1.03138 0.107218 1.1659e-22)
(0.999417 -5.28307e-05 -4.00774e-24)
(0.993244 -0.00221735 -4.42044e-23)
(0.963284 0.124576 -1.96146e-21)
(1.03313 0.00195548 -8.55261e-22)
(1.02834 -0.000710159 5.8838e-22)
(0.967408 -0.0538614 6.13391e-22)
(0.999826 -3.74243e-05 1.05238e-24)
(1.00402 -0.00877487 -5.53514e-24)
(0.999815 -0.0010796 -3.26817e-24)
(1 -5.84925e-05 1.57458e-26)
(1.05783 0.0123494 2.43094e-22)
(1.00005 -6.11018e-06 5.72283e-27)
(0.976514 -0.0183829 4.12735e-22)
(1.22326 0.0269721 -2.98475e-22)
(0.899596 0.106747 -4.81283e-21)
(1.00254 0.127744 -6.74977e-21)
(0.969442 -0.0931052 2.21024e-22)
(0.985543 -0.0369609 1.52539e-22)
(0.972456 -0.00195234 1.0997e-22)
(1.04315 -0.037211 1.27073e-22)
(1.00846 -0.0198639 -2.59142e-23)
(0.978766 -0.0200379 -2.39745e-22)
(0.972068 -0.102229 9.84462e-23)
(1.0329 0.0921582 -2.56331e-21)
(0.999529 0.0131462 5.07894e-21)
(0.998527 -0.000174324 9.21502e-24)
(1.00329 0.0723247 -4.90857e-21)
(1.05724 0.0107029 8.40361e-23)
(1.18884 0.00277782 7.8733e-23)
(1.01615 -0.0170348 3.49687e-23)
(1.00203 -0.0183192 -4.51754e-23)
(1.03404 -0.0572602 -1.02489e-22)
(0.993738 -0.00213999 -1.04154e-22)
(0.99692 -0.000765441 -6.73832e-24)
(0.999931 -7.83334e-06 1.38558e-24)
(0.999196 -0.0101178 3.18991e-23)
(1.11122 -0.0243776 2.85603e-23)
(1.08889 0.14378 -7.56315e-22)
(1.00186 -0.00158641 9.04507e-24)
(0.967993 -0.0345004 -3.29551e-22)
(1.01833 -0.0171698 -1.10595e-22)
(0.999956 -1.91504e-05 -1.20848e-25)
(0.970649 -0.0974766 -3.52357e-22)
(0.87624 0.0839326 -2.1744e-21)
(0.992805 -0.00573352 1.54808e-22)
(0.998802 -0.0053194 1.00983e-23)
(1.0168 -0.0167496 -2.17407e-23)
(1.01019 -0.0550127 2.49487e-22)
(1.08103 0.0445737 3.13431e-22)
(0.999702 -0.0114595 -5.00018e-24)
(0.999963 -6.15372e-05 7.72349e-25)
(1.00002 -3.62365e-06 2.04114e-26)
(0.996878 -0.000697432 -7.5089e-24)
(0.96153 0.123703 2.83808e-21)
(1.05862 -0.0244678 1.09581e-22)
(1.13352 -0.20407 -4.6015e-22)
(1 -1.46905e-05 1.01476e-27)
(1.09821 -0.207481 1.75328e-22)
(1.08397 0.011207 -3.5897e-22)
(0.993971 -0.000195364 -4.74555e-23)
(0.915288 -0.00981038 -6.73771e-22)
(0.998897 -0.00522325 -1.01399e-23)
(0.999497 -0.000228837 -6.58843e-25)
(0.973556 -0.0367049 -7.23072e-23)
(1.00107 -0.00132803 -9.45484e-24)
(1.18714 0.0135733 -3.35727e-23)
(1.01043 -0.0011649 -2.69502e-22)
(1.14813 0.129239 -7.32798e-22)
(0.999929 -0.0027568 2.25066e-24)
(1.00561 -0.0159721 8.75621e-24)
(1.00506 0.0108527 -2.32326e-21)
(1.24347 0.0593906 -2.21023e-22)
(1.00049 -0.000679126 -5.5689e-24)
(1.00052 -0.000601621 5.45157e-25)
(0.992263 0.0890851 2.41041e-22)
(1.00108 -0.0657128 -7.47672e-23)
(0.999488 -0.0112978 6.09727e-24)
(1.01051 0.0353435 2.79294e-22)
(0.976346 0.0193584 6.12187e-21)
(1.15549 -0.0595884 -3.12371e-22)
(1.00091 -0.0310045 -3.10707e-23)
(1.17837 0.0956661 6.3515e-22)
(0.99911 -8.61098e-05 -6.8928e-24)
(0.989707 -0.00512056 4.1163e-23)
(0.996089 -0.000321429 -2.59523e-23)
(1.01333 0.0310083 2.50843e-24)
(0.999988 -0.000886855 1.95602e-25)
(1.01009 -0.00142874 2.7539e-22)
(1.21655 -0.0885771 3.14357e-23)
(0.998236 0.120755 6.8015e-21)
(0.922802 0.121331 -1.05873e-21)
(0.992902 -0.00334556 5.60093e-24)
(0.989815 -0.00957379 4.45734e-23)
(1.04517 0.105696 -1.62958e-21)
(1.02293 -0.0693631 2.97354e-22)
(0.999933 -9.39429e-06 -1.35161e-24)
(1.16919 0.138643 1.52867e-21)
(1.02687 0.00231272 -3.06994e-22)
(1.02632 0.00220502 -2.07593e-22)
(0.993702 -0.0163567 -6.52006e-23)
(1.02068 -0.00198019 -4.2163e-22)
(0.954043 0.111256 9.63475e-22)
(1.19814 -0.129169 -3.10047e-22)
(0.979895 0.110772 1.03549e-21)
(0.992062 0.110238 -1.76909e-21)
(0.999996 -7.70015e-05 4.99599e-26)
(1.1077 -0.024433 -5.57909e-23)
(1.19562 -0.123147 2.02739e-22)
(0.996877 -0.0046149 1.77927e-23)
(1.00191 -0.0017004 -1.49345e-23)
(0.971626 0.0229017 1.46657e-21)
(1.06067 -0.0249128 -1.41874e-22)
(1.00033 -8.89127e-05 9.22104e-25)
(0.984789 -0.0790118 -7.73649e-22)
(0.97464 -0.116162 -3.31373e-22)
(0.993395 -0.00227705 6.21165e-23)
(0.99986 -0.000248996 -1.30594e-24)
(1.03838 0.124457 -2.78914e-22)
(1.03604 0.0572757 2.25566e-21)
(1.00006 -0.000604311 -4.39871e-26)
(1.00478 -0.00421721 1.17454e-23)
(1.00612 -0.00419913 6.35752e-23)
(1.23127 -0.0278246 9.31296e-22)
(0.967326 -0.052385 -5.42334e-22)
(1.00008 -0.000717344 -4.17834e-25)
(0.999983 -2.96967e-06 -3.36801e-26)
(1.00058 -0.00019493 1.45853e-24)
(1.07925 0.0452204 -3.041e-23)
(0.966655 -0.0356553 -2.66745e-22)
(1.00185 0.0388812 1.13121e-21)
(0.932337 -0.0673187 3.61592e-22)
(0.986546 -0.0366934 -1.57423e-22)
(0.970104 -0.00152511 -4.59252e-22)
(1.01209 0.0345082 -1.37432e-21)
(1.19285 0.085022 2.01644e-23)
(0.998573 -0.000185387 1.68709e-23)
(1.0092 -0.00672934 -6.79539e-23)
(1.001 -0.00131467 1.072e-23)
(0.978596 0.120788 -2.67927e-21)
(0.969134 -0.0321037 1.4121e-22)
(1.00128 -0.000334295 -5.10907e-24)
(0.990963 -0.00454491 -5.57899e-23)
(1.16605 0.0207885 1.62817e-22)
(0.999863 -0.0123095 -1.35247e-23)
(0.986347 -0.0160057 -3.1193e-23)
(1.00028 -0.000169455 -2.8053e-24)
(1.00029 -6.49e-05 -1.24167e-25)
(0.872927 0.0897681 3.41207e-21)
(0.990089 -0.00165145 -7.31611e-23)
(0.994326 -0.00587365 6.35534e-23)
(0.999567 -0.00225408 -8.05658e-24)
(0.999132 -6.58576e-05 -9.46482e-25)
(1.04048 0.089034 -8.65233e-22)
(1.22235 -0.0854405 6.345e-23)
(0.98596 -0.0559777 9.68462e-23)
(1.00002 -2.73711e-06 -2.11907e-26)
(1 -4.7064e-05 1.44147e-26)
(0.967869 -0.0333649 3.74088e-22)
(0.991844 -0.0024115 1.48067e-23)
(0.993795 -0.00273115 -8.48442e-24)
(1.01661 -0.00585791 1.30905e-22)
(1.00682 -0.00284238 2.27989e-23)
(1.00129 -0.020472 -1.62e-23)
(1.13427 0.0135649 3.55777e-22)
(0.976982 -0.00583321 -9.31806e-23)
(0.981613 0.108856 -8.41851e-22)
(1.01923 -0.029954 -2.71844e-23)
(1.0003 -0.000170063 3.11956e-24)
(0.967927 -0.09158 3.2833e-23)
(0.982797 -0.0497758 -3.31106e-22)
(1.17022 0.0553327 2.52045e-22)
(0.996673 -0.00761749 -1.90085e-23)
(0.992419 -0.0651876 -1.17196e-22)
(0.999975 -7.0228e-06 2.03627e-25)
(0.934435 0.0892497 -3.33391e-21)
(1.01751 -0.00242898 2.3752e-22)
(1.0001 -0.000289829 -9.67787e-25)
(0.918132 0.0239343 -4.23809e-21)
(0.984619 -0.0564211 2.24182e-22)
(0.999974 -8.14142e-06 3.22168e-26)
(1.00173 -0.00155118 4.41279e-24)
(0.968898 -0.0957521 -1.9458e-22)
(1.05118 -0.0374273 4.21593e-23)
(1.05504 -0.00737409 3.01312e-22)
(0.99999 -4.88756e-06 4.76061e-26)
(0.99003 -0.00084395 5.84817e-23)
(1.03473 -0.0557383 1.75242e-22)
(0.993579 -0.00208748 8.59519e-23)
(0.999442 -6.06881e-05 -2.17313e-23)
(0.989919 -0.00528478 1.08333e-24)
(0.980031 0.0402018 3.62793e-22)
(0.991757 -0.0161923 -7.95404e-23)
(0.986943 -0.0156451 2.27962e-23)
(1.00137 0.0226258 -1.14165e-21)
(0.996702 -0.00285304 1.99598e-23)
(0.973765 0.122242 -3.44992e-22)
(0.999973 -8.16823e-06 -1.03439e-25)
(0.989279 -0.0366698 6.31544e-23)
(0.991181 -0.110051 8.13676e-22)
(0.993883 -0.0653973 1.985e-22)
(1.22713 0.0139892 1.2459e-22)
(0.998675 -0.00696815 2.46527e-23)
(1.01329 -0.028791 7.85071e-24)
(0.999913 -0.00297057 3.82404e-25)
(0.979877 -0.0291434 -1.83333e-22)
(1.05378 -0.0407282 1.09153e-23)
(0.999958 -1.8325e-05 6.14934e-25)
(1.00002 -1.52298e-06 -3.56614e-26)
(0.992241 -0.000540893 3.93919e-23)
(0.981745 0.0783872 2.39361e-21)
(1.01672 -0.0231534 1.25704e-22)
(1.00314 -0.00433671 -1.85968e-23)
(0.91051 -0.0511188 4.82762e-22)
(1 -1.32519e-05 2.78776e-27)
(1.00118 -0.00144955 -1.71463e-23)
(0.999959 -0.000845535 -2.44469e-25)
(1.01821 -0.0219604 1.43041e-22)
(0.97955 -0.0214967 3.19102e-23)
(0.999538 -0.000356049 2.72953e-24)
(0.992261 -0.0144217 3.04503e-23)
(0.984749 -0.00931827 -3.30692e-23)
(1.00123 -0.000200733 -1.40593e-24)
(0.999972 -9.40343e-06 -6.45727e-26)
(1.21259 0.0514672 -1.28398e-22)
(0.999613 -0.00221615 8.64557e-24)
(1.08286 0.0056338 2.68868e-22)
(1.01102 0.118805 6.61882e-21)
(1.04138 0.104132 -1.49351e-21)
(1.00215 -0.0258802 -6.27532e-23)
(1.00669 -0.0025797 -7.53209e-24)
(1.02104 -0.00156526 2.5795e-22)
(0.999974 -0.00303568 -4.31464e-25)
(0.997681 -0.0132274 3.09914e-23)
(1 -2.17181e-05 2.43518e-26)
(0.989692 0.110478 -1.3151e-22)
(0.985477 -0.0211742 4.42215e-23)
(1.01629 -0.00541319 -9.3404e-23)
(0.977522 -0.0060455 1.90166e-22)
(1.00501 -0.0157521 9.74896e-25)
(0.996877 -0.00748463 4.10575e-23)
(0.999874 -0.000255169 3.07145e-25)
(1.00002 -1.47021e-06 -1.96275e-25)
(0.994522 -0.00584587 -4.62341e-23)
(1.06259 -0.00427674 -1.66322e-22)
(1.00373 0.0417293 1.76511e-22)
(1.00148 -0.000591018 -2.07525e-23)
(0.973623 -0.0839535 -1.71585e-22)
(0.968967 -0.031156 -6.37519e-23)
(0.99028 -0.000660304 -2.18516e-22)
(1.18485 0.123725 -5.31031e-22)
(0.998424 -0.00121762 -9.99385e-24)
(1.00526 -0.0178238 -2.17495e-23)
(0.99331 -0.00359976 4.30732e-23)
(0.999884 -0.000246019 2.57724e-25)
(0.970046 -0.100285 2.22663e-22)
(1.00157 0.0333463 -1.76723e-21)
(1.0283 0.0452138 -1.47573e-21)
(0.971622 -0.0206139 -3.0891e-23)
(1.0011 0.0316558 -7.92733e-23)
(1.0001 -0.000272259 1.86936e-24)
(1.00002 -1.97471e-06 6.02981e-26)
(1.16815 0.135726 -5.85408e-22)
(1.17567 0.0582714 -1.90494e-22)
(0.920133 0.0908305 -1.64574e-22)
(1.01699 -0.109622 6.07204e-22)
(0.970446 -0.00210494 -1.44755e-22)
(1.16191 0.0245955 -2.17096e-22)
(1.0014 -0.000615727 2.35057e-23)
(0.993082 -0.004854 2.46745e-23)
(1.00055 -0.000206915 -1.38961e-24)
(0.986686 -0.000939319 -4.79949e-23)
(0.985762 -0.0172701 -6.47531e-23)
(0.999995 -4.22198e-05 -1.37575e-25)
(0.998922 -4.14613e-05 3.94401e-24)
(0.997956 0.118251 -6.18661e-21)
(0.999846 -0.000878713 2.94484e-24)
(0.941832 0.0825911 4.00392e-21)
(1 -2.0664e-05 -1.87111e-26)
(1.22132 0.0902572 1.20289e-22)
(1.08343 0.00374702 -5.81143e-22)
(1.13275 0.0160525 -3.97413e-22)
(1.00126 -0.000583671 1.40687e-24)
(1.00023 -5.21216e-05 2.4882e-24)
(0.985842 0.0745107 -3.57409e-21)
(1.08494 0.00896525 1.17796e-21)
(0.990903 -0.112647 -7.52114e-22)
(1.0195 0.0431527 6.69259e-22)
(0.998673 -0.0266481 2.64272e-23)
(0.983256 -0.00715238 -4.88163e-23)
(0.995029 -0.000276703 -2.60229e-23)
(1.09141 0.163756 -3.47608e-21)
(0.970923 -0.0371576 2.32638e-22)
(1.04326 -0.035289 -8.71496e-23)
(0.992582 -0.0142687 -1.74194e-23)
(1 -1.31907e-05 -5.14827e-28)
(0.99844 -0.00114984 -8.493e-24)
(1.00729 -0.00718308 3.96355e-23)
(0.976777 -0.0108149 2.43664e-22)
(0.972412 -0.0207449 4.60588e-23)
(0.945497 -0.0594493 -7.52049e-23)
(0.976541 -0.0114758 -1.84391e-22)
(1.01858 0.00313072 1.20176e-22)
(0.997408 -0.000177664 5.30896e-25)
(0.919504 -0.0579204 2.53162e-22)
(0.982274 -0.00122291 -6.78593e-23)
(1.00005 -0.000262976 2.56146e-25)
(0.984603 -0.000972582 -4.70328e-23)
(1.04481 -0.0384213 -1.33391e-22)
(1.01776 0.0033203 -6.64988e-22)
(0.968141 -0.0376123 -5.81303e-23)
(0.99998 -9.75557e-07 -9.46073e-28)
(0.978552 -0.022037 4.82596e-23)
(1.00342 -0.0183749 4.80065e-24)
(1.00169 -0.00143992 5.67849e-24)
(1.22164 -0.113156 -8.91609e-22)
(1.00135 0.0304884 -4.10053e-21)
(1.0011 -0.00143216 1.59214e-23)
(0.984874 -0.000733574 6.18639e-25)
(1.14638 -0.0642553 1.84166e-24)
(1.02885 0.000805026 1.03035e-21)
(0.992125 0.0257641 -3.88626e-22)
(1.00226 -0.00303424 5.05276e-24)
(1.00205 -0.0269968 1.95767e-23)
(1.07549 0.127809 -5.24929e-22)
(1.01439 0.0278027 -3.42553e-21)
(0.990642 -0.0363922 1.67447e-22)
(1.00577 -0.00420897 -7.11671e-24)
(0.939814 -0.0715306 3.62342e-22)
(0.999997 -7.04094e-06 2.62895e-26)
(0.934274 -0.00301271 -2.48797e-22)
(1.0001 -8.62584e-05 3.47694e-25)
(1.1439 -0.0674574 -7.56084e-22)
(0.99996 -4.35529e-06 -6.80669e-26)
(1.00003 -7.71497e-05 1.96816e-25)
(1.00195 -0.0303168 -2.38139e-23)
(1.19601 0.0939795 -3.17842e-22)
(1.02192 0.147328 2.88833e-21)
(1.04902 -0.0386906 -2.03624e-22)
(1.01755 -0.0174393 7.35385e-23)
(0.999999 -5.67316e-06 -6.96992e-27)
(0.992538 -0.00578063 -8.37579e-23)
(1.00011 -2.64337e-05 -2.60146e-25)
(0.996177 -0.00304369 2.85978e-23)
(1.00003 -7.18845e-05 -1.52903e-25)
(1.05461 -0.00538555 -9.38353e-22)
(0.999428 -0.000589454 -1.07083e-23)
(1.05003 0.0617703 1.4992e-21)
(0.999847 -0.000271851 -1.99534e-24)
(0.983886 -0.00697434 -8.19443e-23)
(0.945317 -0.00159175 5.54725e-22)
(0.994769 -0.000381572 -3.34422e-23)
(0.986593 0.0392682 3.742e-21)
(0.97807 -0.000967449 1.32205e-22)
(1.06278 -0.128805 5.24609e-23)
(0.99327 -0.00508755 1.27839e-22)
(1.02819 -0.00227343 -2.1562e-22)
(0.970213 -0.0858746 8.06635e-22)
(1.02226 -0.0014394 -7.20709e-22)
(1.06624 -0.0781948 -1.87396e-23)
(0.999983 -2.46327e-06 8.46253e-27)
(1.0005 -0.0256317 2.18329e-23)
(0.99511 -0.000365139 4.08646e-24)
(1.0003 -0.000114383 1.88069e-24)
(1.00011 -2.2271e-05 4.33096e-25)
(1.09459 0.165864 3.80547e-21)
(0.994004 -0.00273729 7.15018e-23)
(1.02828 0.00175321 1.17567e-21)
(1.00292 -0.0275691 2.39927e-23)
(1.00105 -0.000376315 5.44613e-24)
(1.02729 -0.00830399 -7.95797e-22)
(1.0002 -4.93806e-05 -5.485e-24)
(0.999971 -4.36239e-06 -9.20753e-27)
(0.935137 -0.00401006 1.9099e-22)
(0.995725 -0.00154831 3.22395e-23)
(1.00004 -7.00137e-05 2.30809e-25)
(1.05094 0.104262 1.11031e-21)
(0.887479 0.0731158 -6.00152e-21)
(0.999744 -0.000287771 5.03709e-24)
(0.947919 -0.00319353 -1.49162e-22)
(1.00002 -1.9705e-06 4.30491e-26)
(0.950973 0.108892 -3.86547e-21)
(1.22435 0.094141 1.0576e-22)
(0.967579 -0.0684553 -6.25778e-22)
(1.00006 -0.000693748 -4.98344e-25)
(1.04159 -0.0342054 2.09876e-22)
(1.0336 -0.00112275 -2.9847e-22)
(1.0339 0.00210261 8.78486e-23)
(1.0565 -0.00780185 -1.17667e-22)
(0.999572 -0.00237568 -1.2628e-24)
(0.999844 -0.00105236 2.58239e-24)
(0.98307 -0.021206 -1.41178e-22)
(1 -1.17254e-05 -4.97854e-27)
(1.00002 -1.79876e-06 -1.10948e-26)
(0.96968 -0.0365903 -1.37084e-22)
(1.00809 -0.0825308 -3.10335e-22)
(0.947207 -0.0581326 -1.90388e-23)
(0.907275 0.102571 -1.2736e-22)
(1.00025 -3.17925e-05 -2.29719e-24)
(1.03976 -0.0971926 -6.68156e-22)
(1.0089 -0.00632633 -6.98509e-23)
(0.999972 -4.64807e-06 1.05518e-25)
(0.998821 -0.00495133 -2.18913e-23)
(1.00004 -0.000587856 -3.12012e-25)
(0.995067 -0.0165027 4.88793e-23)
(1.00006 -1.29738e-05 2.58757e-25)
(1.06813 -0.0759017 -4.49888e-23)
(1.02188 -0.00176909 6.99901e-22)
(0.975209 0.120182 9.1413e-22)
(1.02769 -0.00220568 8.08419e-22)
(0.999663 -0.000282206 3.96899e-24)
(1.00056 -0.000485058 -5.35328e-24)
(1.23421 -0.0333545 -9.67807e-22)
(1.02833 0.00139021 -9.44963e-22)
(0.99622 -0.000498367 2.93287e-23)
(1.00002 -2.02655e-06 9.24126e-26)
(1.06574 0.0954287 -1.83682e-21)
(1.19735 -0.177967 -4.1477e-22)
(1.0164 -0.106878 -2.64985e-22)
(0.981769 -0.00104285 -3.5627e-23)
(0.999975 -2.80082e-05 2.06728e-25)
(0.999666 -0.000266171 -2.32591e-24)
(1.20616 -0.177153 1.16861e-21)
(1.0049 -0.0652834 -8.15983e-23)
(1.03628 0.0343216 2.10759e-22)
(0.98119 0.105296 3.5057e-21)
(1.05975 -0.125667 3.86387e-22)
(0.99846 -0.000106301 -5.2611e-24)
(0.999975 -1.31823e-05 -2.40837e-25)
(0.956716 -0.0749111 6.23733e-22)
(0.992217 -0.148583 -8.78612e-22)
(0.999754 -0.000298022 2.68273e-24)
(1.01393 -0.0278694 5.22838e-23)
(0.990946 -0.0353534 -2.97307e-23)
(0.994322 -0.00293141 2.81693e-23)
(0.9986 0.0249269 -2.96248e-21)
(0.998436 -0.000686003 1.88619e-23)
(1.07396 -0.0500441 -3.86304e-24)
(1.14257 0.15492 -1.66086e-21)
(0.990449 -0.00429389 -8.20563e-23)
(0.918132 0.0857567 -5.91657e-22)
(0.926071 0.040823 1.80822e-21)
(0.999963 -6.50639e-05 -7.76299e-25)
(0.999971 -0.000924644 -2.09756e-25)
(0.978345 -0.00128532 -8.41216e-23)
(1.01549 -0.00534891 -1.69125e-22)
(0.950249 -0.00293046 3.15845e-22)
(1.00629 -0.00520861 -7.30862e-23)
(0.9908 -0.00430271 7.64314e-23)
(0.999312 -0.000627643 -8.18404e-24)
(0.959106 0.109428 -6.92907e-22)
(1.05093 0.0595588 -2.32586e-21)
(1.00277 -0.00293323 1.2964e-23)
(0.847618 0.0466712 -1.21647e-21)
(1.00002 -1.69668e-06 -6.18727e-26)
(1.02544 0.00772363 -1.64809e-21)
(1.01527 -0.136811 6.03074e-22)
(1.04299 -0.0961888 2.60027e-22)
(1.00012 -0.000264493 -9.56629e-26)
(0.947687 -0.00161263 2.57162e-22)
(1.02281 0.00677846 9.25579e-22)
(1.01512 -0.00573958 1.40073e-22)
(1.03276 -0.00015942 4.13038e-22)
(0.999457 -4.76478e-05 1.5335e-23)
(0.999422 -0.000627816 9.69747e-24)
(1.03826 -0.053178 4.56826e-23)
(0.995797 -0.00166759 -9.2185e-23)
(0.984545 -0.0157534 -1.53848e-22)
(0.998962 -0.00448379 1.29738e-24)
(1.07634 0.0510034 1.19451e-21)
(1.00028 -0.0267576 -1.48693e-23)
(0.993996 -0.00622716 1.60067e-24)
(0.904684 -0.0435948 -7.18635e-22)
(0.994347 0.0891365 3.96753e-22)
(1.13188 -0.00841537 -2.53965e-22)
(1.02671 -0.00800794 6.37647e-22)
(0.999518 -0.000229672 2.91228e-24)
(0.999383 -0.000410808 1.31783e-24)
(0.978842 -0.028872 3.7007e-22)
(1.00121 -0.00155955 -1.27665e-23)
(0.996839 -0.00087714 -5.23537e-24)
(0.999975 -2.68803e-05 -7.84679e-26)
(0.999619 -0.00241971 2.44556e-25)
(1.02217 0.00621511 -3.59919e-22)
(0.984827 0.077596 -3.43823e-21)
(0.999845 -1.95823e-05 6.25884e-25)
(1.11168 0.15666 -3.29676e-21)
(0.999995 -5.26229e-05 5.86913e-26)
(0.996063 -0.00360724 3.89961e-23)
(0.99999 -0.000120438 8.23488e-26)
(1.00632 -0.00450802 -3.23919e-23)
(1.21679 0.0498829 1.09608e-22)
(0.999952 -5.47279e-05 6.64412e-26)
(0.999951 -5.85975e-05 4.67333e-25)
(0.930837 -0.0683033 -3.57714e-22)
(1.00001 -1.16179e-05 -1.9614e-27)
(1.05993 -0.0068178 9.95396e-22)
(0.989346 -0.0569021 3.07767e-22)
(0.999974 -0.000812548 2.45912e-25)
(1.06791 0.0776945 -1.42904e-21)
(1 -3.77011e-05 -3.60601e-26)
(0.999517 -4.93225e-05 1.33885e-23)
(0.999893 -4.50559e-05 2.18756e-26)
(0.994216 -0.0062331 -2.38077e-23)
(0.999603 -0.00192921 -4.08803e-24)
(0.992393 -0.00041041 -2.65615e-23)
(1.0408 -0.16183 -7.02744e-23)
(0.999649 -0.00187809 2.73118e-24)
(1.00508 -0.00422882 -2.52094e-23)
(0.99997 -3.17934e-06 -3.95669e-26)
(1.0237 0.144901 -5.48303e-21)
(1.07234 -0.0520325 -2.53535e-23)
(1.13503 -0.00785337 1.73917e-24)
(0.954048 -0.00869067 3.40987e-22)
(0.9711 -0.00593185 -6.18498e-23)
(0.998928 -0.00483973 3.61401e-23)
(1.00353 -0.00325749 3.51933e-23)
(1.0393 0.0708238 6.24442e-22)
(0.982101 -0.051374 4.49748e-23)
(1.0931 0.116959 7.20315e-22)
(0.942178 -0.0202559 -6.28496e-22)
(0.995918 -0.00348495 -3.68103e-23)
(0.999989 -5.78182e-06 -8.65147e-26)
(0.993077 -0.00361589 -5.1886e-23)
(1.0044 0.138107 1.40644e-21)
(1.05938 0.0841808 -3.28578e-22)
(0.986851 -0.0780338 2.629e-22)
(0.91915 -0.00908503 1.4763e-22)
(1.02789 0.138769 1.46576e-21)
(0.989519 -0.000755633 6.86655e-23)
(1.00437 -0.126487 4.82285e-23)
(0.99999 -0.000115263 1.48808e-25)
(0.987866 -0.0574118 3.85293e-22)
(0.998994 -0.000284577 -1.95064e-23)
(0.859619 0.0789112 -3.52073e-21)
(0.988317 -0.104653 -6.13775e-22)
(0.999895 -4.0432e-05 1.15497e-24)
(0.914163 -0.0298126 -3.80916e-23)
(0.982386 -0.0545964 1.91243e-23)
(1.02684 0.0753496 2.23415e-21)
(0.996884 -0.00095725 -4.92698e-23)
(0.979466 -0.0530207 -1.36233e-22)
(0.997472 -0.0135768 -4.34016e-23)
(1.00192 -0.0292615 -4.92095e-23)
(0.998477 -0.000698083 -1.28305e-23)
(1.02585 0.073896 -2.70418e-21)
(1.11739 -0.207595 7.86422e-22)
(0.978533 -0.0229498 -1.07322e-22)
(0.983695 -0.0196684 2.26998e-24)
(0.984016 -0.00658682 -3.34312e-23)
(1.00627 -0.00244947 -2.96815e-23)
(1.02945 0.135654 5.73234e-21)
(0.978188 -0.0186068 4.83352e-23)
(1.01287 0.0404587 1.45447e-21)
(1.00325 -0.00261624 2.67624e-23)
(1.22885 0.0199256 -2.73914e-23)
(0.939164 0.0882738 5.98762e-22)
(0.989307 -0.000589238 -2.38598e-22)
(0.999725 -5.17977e-05 2.61234e-24)
(1.03855 0.0910178 6.75705e-22)
(0.9957 0.113658 -5.16404e-21)
(1.03677 -0.0513315 -5.2379e-23)
(1.10233 -0.0291517 2.39065e-23)
(0.994827 -0.0171353 -5.49991e-23)
(0.954785 -0.00784441 -2.0243e-22)
(1.07364 0.12534 2.09907e-21)
(0.954772 -0.0755039 1.00831e-22)
(0.999972 -2.68948e-05 2.67578e-25)
(0.990933 -0.000145633 -1.21693e-22)
(1.00005 -7.00912e-06 2.6285e-25)
(0.994587 -0.000343089 9.12126e-23)
(0.999971 -2.82476e-05 -4.19152e-25)
(0.998349 -0.0189422 7.37018e-23)
(0.99885 -4.59895e-05 6.96071e-24)
(0.996816 -0.00709778 4.76588e-24)
(1.2308 -0.0126605 -1.50218e-22)
(0.999291 -0.000480853 7.00044e-24)
(0.999403 -0.000246305 4.76444e-24)
(0.999291 -0.00736358 5.52132e-24)