/*--------------------------------*- C++ -*----------------------------------*\
  =========                 |
  \\      /  F ield         | OpenFOAM: The Open Source CFD Toolbox
   \\    /   O peration     | Website:  https://openfoam.org
    \\  /    A nd           | Version:  7
     \\/     M anipulation  |
\*---------------------------------------------------------------------------*/
FoamFile
{
    version     2.0;
    format      ascii;
    class       volVectorField;
    location    "35";
    object      U;
}
// * * * * * * * * * * * * * * * * * * * * * * * * * * * * * * * * * * * * * //

dimensions      [0 1 -1 0 0 0 0];

internalField   nonuniform List<vector> 
7639
(
(1.14279 0.184755 8.18691e-22)
(1.04795 -0.0512192 -5.75068e-23)
(0.999578 0.152701 -2.47066e-21)
(1.05652 0.0861166 2.92109e-21)
(0.999216 -0.00096509 -4.66643e-24)
(0.999962 -8.58321e-06 -5.24543e-25)
(0.991714 0.125011 -4.83892e-21)
(0.994956 -0.00180498 -9.17946e-25)
(0.999887 -0.000178249 -8.80597e-25)
(1.02643 0.00120306 -1.2875e-22)
(0.999965 -1.03842e-05 5.78394e-25)
(1.00214 -0.00120127 -1.85476e-23)
(0.992313 -0.00226507 4.66308e-23)
(1.02118 -0.00204209 -7.75638e-22)
(1.0257 0.00156378 5.46139e-22)
(0.991454 -0.0143862 -9.62998e-23)
(1.14935 0.195846 -1.73805e-21)
(0.98969 -0.00288441 -1.62423e-23)
(1.00212 -0.00940742 -4.75341e-24)
(0.973751 -0.0848501 -8.44252e-23)
(1.03775 -0.00767779 -2.563e-22)
(1.00142 -0.000743511 3.4713e-23)
(1.01861 -0.00356064 6.55837e-23)
(1.01335 0.0375626 -1.53753e-21)
(0.98632 -0.0035891 -7.34177e-23)
(1.13357 0.183275 -8.56564e-22)
(0.999257 -0.000919042 -3.26833e-24)
(1.02486 -0.00240889 3.12259e-22)
(1.00555 0.0169158 -1.92293e-22)
(1.0035 -0.0100517 3.69841e-24)
(0.986967 -0.0149852 -1.69672e-22)
(0.829551 0.0520218 8.10779e-22)
(1.01844 -0.00441218 4.05505e-22)
(0.999548 -0.000385175 5.78789e-24)
(0.999902 -6.67153e-06 1.10471e-26)
(1.02618 -0.000197571 1.8848e-22)
(1.00398 -0.0110042 4.78861e-24)
(0.998311 0.121172 -7.59348e-22)
(0.996368 -0.00768861 7.8517e-23)
(0.999684 -5.72547e-05 5.57742e-24)
(0.996759 -0.00792602 -8.77769e-24)
(0.991597 -0.0135061 -3.4767e-23)
(0.993338 -0.0968328 4.0573e-22)
(1.13339 -0.104537 1.62064e-22)
(0.999811 -1.21724e-05 1.80341e-24)
(0.999924 -1.50751e-05 -5.20773e-25)
(1.00136 -0.000601828 -2.11795e-23)
(0.996219 -0.00704387 -4.65969e-23)
(0.999936 -2.87347e-05 -4.20752e-25)
(0.976941 -0.0860232 1.22933e-22)
(1.00315 -0.00105091 2.01903e-23)
(1.02429 -0.00164058 -3.23202e-22)
(0.982233 -0.00426022 -2.4714e-22)
(1.00908 -0.0308683 3.21194e-24)
(1.02669 -0.000740795 -1.08149e-22)
(0.995572 -0.00248864 -8.59251e-24)
(1.00207 -0.00873792 1.09612e-23)
(0.994921 -0.00156406 6.40041e-23)
(0.978165 -0.0176789 -3.00042e-22)
(0.99953 -0.000342901 -7.41172e-24)
(1.00004 -2.22927e-05 -7.5344e-25)
(1.0041 -0.00119798 2.25917e-23)
(1.02133 -0.0013451 -1.83667e-22)
(1.00233 -0.00105392 1.87834e-23)
(0.999092 -0.00018424 1.04864e-23)
(0.987493 -0.0155714 2.84179e-23)
(0.999909 -0.000177891 6.76836e-25)
(1.00001 -2.57044e-06 4.82207e-26)
(1.2313 0.023562 -1.73567e-23)
(0.996409 -0.0066862 -1.437e-23)
(0.99993 -1.84837e-05 4.61141e-25)
(0.96943 -0.05107 -5.95801e-22)
(0.986898 -0.00399005 3.58242e-23)
(0.975596 -0.00524636 4.82895e-23)
(0.990143 -0.00319037 5.07479e-23)
(0.966617 -0.0248112 -6.49404e-23)
(1.00537 0.154644 3.95653e-21)
(1.03574 -0.00734117 3.27866e-22)
(1.0959 -0.019586 -3.32617e-22)
(0.95642 -0.0410256 -7.2025e-22)
(0.992675 -0.00250837 -7.1465e-23)
(1.00111 0.0735293 4.62188e-21)
(1.04589 0.00335083 7.81928e-22)
(0.975105 -0.00925872 2.23188e-22)
(0.998694 -0.00242431 -7.65421e-24)
(0.997875 -0.000308741 7.78687e-24)
(0.994618 -0.00237785 8.77155e-23)
(0.98291 -0.0047725 1.58312e-22)
(0.999396 -0.0011361 4.98482e-24)
(0.995772 -0.000641964 2.74805e-23)
(1.00593 0.0193052 1.43327e-21)
(1.17315 -0.11811 -3.11786e-22)
(0.999873 -5.1765e-05 -1.09091e-24)
(1.00169 -0.00738875 4.73519e-24)
(0.996648 -0.000988217 2.49137e-23)
(0.975329 -0.00291132 -3.89703e-22)
(0.971549 -0.0509331 3.96792e-23)
(1.01094 -0.0299764 2.21714e-23)
(0.998557 -0.00233734 2.50324e-24)
(0.998918 -0.000186309 3.49428e-24)
(0.953777 -0.0147226 1.65394e-22)
(1.09906 -0.0142724 2.99374e-22)
(0.996836 -0.00112423 -6.20552e-23)
(0.999976 -1.31656e-06 -4.46852e-26)
(1.18682 -0.110821 -2.59445e-22)
(1.03891 0.0356565 -1.33019e-21)
(0.915904 0.038294 8.67929e-22)
(0.995277 -0.00234875 -3.57572e-23)
(0.999992 -2.64921e-06 9.01974e-27)
(1.02514 -0.0159558 -1.27368e-22)
(1.06001 0.0804995 -3.38952e-21)
(1.01276 -0.0780553 -5.24303e-22)
(0.99999 -3.087e-06 -1.5205e-26)
(1.02686 -0.0166604 -2.75627e-23)
(1.03442 0.0341274 1.39984e-21)
(1.00041 -0.000553881 -1.61885e-24)
(1.04652 -0.104331 -4.27388e-23)
(1.03636 0.0187053 -3.15177e-22)
(0.981308 -0.0418142 2.58833e-22)
(0.975303 -0.0063728 -5.06284e-23)
(0.950947 -0.00959566 -3.98175e-22)
(1.00148 0.0314514 -3.00965e-21)
(0.998404 -0.0970509 -5.54239e-22)
(1.00951 -0.00817486 1.09848e-23)
(0.952512 -0.0110021 1.56218e-22)
(0.999114 -0.00132222 1.10888e-23)
(0.988247 -0.0114242 5.70826e-23)
(1.00265 -0.00832582 -7.41565e-24)
(0.999043 -0.000136129 -2.3431e-23)
(0.987109 -0.0138266 3.12646e-24)
(1.18023 -0.163797 -1.86994e-22)
(1.08831 -0.0194144 6.02657e-23)
(0.999438 -0.000526741 6.30384e-25)
(0.999292 -0.00116189 -9.69984e-24)
(0.973977 -0.00844812 6.6347e-23)
(1.05502 0.0718628 1.222e-21)
(0.996008 0.027795 5.58597e-21)
(0.999978 -2.30921e-06 -5.26151e-26)
(1.00707 -0.00319501 9.55156e-24)
(0.9343 -0.0117345 -4.98708e-22)
(0.977127 -0.00381137 -2.00196e-22)
(0.983593 -0.0577696 -3.94462e-22)
(0.966946 -0.0267185 8.82157e-23)
(0.976948 -0.00474048 -4.27723e-24)
(0.906496 0.0300475 3.45704e-21)
(1.00793 -0.0465069 -1.54966e-23)
(1.0124 0.0220473 -7.24319e-22)
(0.980104 -0.0211983 -1.57934e-22)
(0.96631 -0.00492663 5.53103e-23)
(1.00152 0.0519706 -1.49002e-21)
(1.02624 0.00018132 4.67503e-22)
(1.15899 -0.108628 -3.52781e-23)
(0.998624 -0.00194181 -2.6361e-23)
(1.23097 0.00659161 -9.25471e-23)
(1.04342 0.00329571 -8.19101e-22)
(1.0154 0.124865 -3.73116e-21)
(0.961685 -0.0287638 2.73178e-22)
(0.992312 -0.00175124 1.59556e-23)
(0.927404 0.102668 7.56252e-21)
(0.999942 -2.45618e-05 -3.95772e-25)
(1.00123 -0.0078042 -1.87723e-24)
(1.01338 0.0411551 1.11635e-21)
(0.999979 -1.89556e-05 2.53145e-25)
(0.998318 -0.00492434 -3.73644e-23)
(0.996213 -0.000955869 -1.19281e-23)
(1.00403 0.0421696 -3.70542e-22)
(1.00214 0.0273346 1.40025e-21)
(0.916075 0.112305 2.54587e-21)
(0.998044 -0.00476204 -2.30167e-23)
(0.997075 -0.000365436 -1.3637e-23)
(1.00001 -3.35559e-06 -4.50513e-26)
(0.948177 -0.00580445 -6.82509e-22)
(1.0004 -0.000496521 2.23504e-24)
(1.05082 -0.0477966 6.4547e-23)
(1.00742 -0.0034348 6.3871e-23)
(0.967086 -0.00584714 1.13513e-22)
(1.18757 -0.0917678 -3.56916e-22)
(1.16441 0.0641948 -3.12746e-25)
(0.999875 -6.44601e-05 5.95026e-25)
(0.99953 -0.00060275 -6.67908e-24)
(1.05988 0.0914757 -5.16575e-22)
(0.999942 -1.7122e-05 -1.92275e-25)
(0.999895 -1.22719e-05 2.85499e-25)
(0.992232 0.133268 -4.0451e-21)
(1.04878 -0.0552382 -9.43671e-23)
(1.00353 -0.0643623 -2.73871e-22)
(0.983208 -0.0407541 -3.65839e-22)
(0.977717 -0.00683727 1.45653e-22)
(1.00493 -0.0472324 2.99933e-23)
(0.935815 -0.00993173 2.63022e-22)
(0.999978 -1.73111e-05 -9.02502e-26)
(0.972471 -0.0479194 -1.42092e-22)
(1.17368 0.0740756 -4.41671e-22)
(0.996821 -0.0013703 8.91129e-24)
(1.00007 -6.50305e-06 -5.56648e-25)
(1.12199 0.0866018 7.40427e-23)
(0.998827 -0.000377837 2.47266e-23)
(0.987922 -0.0133269 9.11074e-23)
(1.00267 -0.0444328 9.65443e-23)
(1.00002 -2.11605e-06 -1.91266e-26)
(1.00086 -0.00191913 -8.99052e-24)
(1.04972 0.071919 1.56432e-21)
(1.1567 0.0932747 -8.20389e-22)
(1.00818 0.110327 -5.01343e-22)
(1.04581 -0.0977965 2.79684e-22)
(1.01697 -0.07578 1.15008e-22)
(1.06788 -0.147415 -1.14496e-22)
(1.02557 -0.0021883 9.32628e-22)
(1.04498 0.0669461 -5.09451e-22)
(0.999798 -2.16132e-05 -2.11379e-24)
(1.00004 -2.01034e-05 1.984e-25)
(0.937863 0.0163998 -3.3228e-21)
(0.992743 -0.0129833 -3.3113e-23)
(0.999415 -0.000468585 -6.2357e-24)
(0.974563 -0.047392 2.95335e-22)
(0.987685 -0.0120258 -6.69736e-23)
(1.02877 0.114143 -4.07668e-21)
(1.02319 0.110863 -8.53656e-22)
(0.980952 -0.0587721 1.07273e-22)
(0.862814 0.0736008 -3.03024e-21)
(0.998912 -0.000427069 -1.82028e-23)
(0.989731 -0.00249592 5.91006e-23)
(0.952106 -0.0133956 2.17006e-22)
(1.0365 -0.00226521 -1.90628e-22)
(0.990642 -0.117727 -4.84697e-23)
(1.18514 0.169512 -1.30748e-21)
(0.928142 0.0900614 -6.43151e-21)
(1.00006 -0.000105009 6.27082e-25)
(1.00955 -0.0075038 3.14152e-23)
(1.03431 0.0221006 1.71498e-21)
(0.996352 -0.00579937 -5.90887e-23)
(1.03972 0.0184645 -2.13466e-22)
(0.9995 -0.00123789 -1.61562e-24)
(0.883519 0.125211 5.37365e-21)
(1.01557 0.115228 8.38183e-22)
(0.994615 -0.00205482 5.57052e-23)
(1.00344 -0.00842583 -1.38032e-24)
(0.999704 -6.4466e-05 -1.03678e-23)
(1.23186 0.0912868 1.14314e-22)
(0.999909 -1.01022e-05 8.46934e-25)
(0.994899 -0.0105816 2.86201e-23)
(0.942183 -0.0260914 3.01241e-22)
(0.99993 -2.54691e-05 -1.91184e-25)
(0.998794 -0.0028352 -6.3466e-24)
(0.999608 -0.00120213 2.93559e-24)
(1.09702 0.045843 1.06418e-21)
(0.99998 -2.46375e-05 3.05672e-25)
(0.995593 -0.000493087 3.25633e-26)
(0.958521 -0.0408992 8.28393e-22)
(0.831642 0.0390418 -1.78922e-21)
(1.08521 -0.0242611 -8.80523e-23)
(0.901874 0.0850896 3.9552e-21)
(0.999955 -7.71921e-06 -4.82821e-25)
(1.00031 -0.0448541 -6.10206e-24)
(0.999822 -0.000307969 -2.35087e-24)
(1.00808 0.128386 -3.81942e-21)
(1.00386 -0.000820821 -2.91365e-23)
(0.99439 0.0418775 1.79797e-21)
(1.00258 -0.0100718 -2.02752e-23)
(1.00075 -0.00206619 9.52096e-24)
(1.02698 -0.0381181 -6.63062e-24)
(1.02564 -0.00127163 -8.63267e-22)
(1.00056 -0.000333156 4.68318e-24)
(0.99978 -5.3319e-05 5.48869e-26)
(1.00049 -0.000448702 1.05033e-23)
(0.996159 -0.00614868 -5.31071e-23)
(1.0092 -0.0682295 3.33173e-22)
(0.999957 -1.02245e-05 3.26025e-25)
(0.963185 -0.0276645 1.91373e-22)
(0.996404 -0.00109655 -2.27344e-24)
(0.999862 -4.48694e-05 1.16079e-24)
(0.999397 -0.00058268 2.02381e-24)
(0.987951 0.0774048 4.37925e-21)
(0.992281 -0.000817189 2.30049e-23)
(0.99926 -0.00010243 -2.12035e-24)
(0.873001 0.0176983 6.66674e-21)
(0.998645 -0.00272279 -1.4411e-23)
(1.10675 0.131093 -1.06776e-21)
(0.999802 -0.000284305 4.24308e-24)
(1.00694 -0.0230862 -6.18201e-24)
(1.00002 -1.95235e-06 -1.71857e-26)
(0.981607 -0.0339868 -1.44038e-22)
(1.03557 -0.00258096 2.97928e-22)
(1.19796 -0.0857354 7.61277e-22)
(0.978343 -0.0190349 2.54878e-22)
(0.999605 -0.000609571 7.7037e-24)
(0.974673 -0.0732296 1.86076e-22)
(0.98401 -0.000466943 1.04617e-22)
(0.999824 -1.90293e-05 1.10406e-25)
(1.00048 -0.000393841 -9.28989e-24)
(0.998 -0.00354587 1.99483e-23)
(0.992642 -0.0014668 -6.88991e-23)
(1.00293 -0.000959748 -3.44552e-23)
(0.99882 -0.00195463 9.55145e-24)
(0.976346 -0.00867468 3.51388e-23)
(1.01375 -0.067122 -2.38536e-22)
(0.97648 -0.00729345 1.54788e-22)
(1.1341 -0.0920278 -4.45336e-23)
(0.969018 -0.007963 -1.98814e-22)
(1.03523 0.149356 4.25056e-22)
(1.02887 0.153804 -3.17187e-21)
(0.998542 -0.000778206 -1.58506e-23)
(1.21607 -0.110438 -1.57546e-21)
(0.999984 -3.15255e-06 -2.92364e-26)
(0.997944 -0.00438485 -2.45125e-23)
(0.974703 -0.00202967 4.01653e-22)
(1.00969 0.0332291 9.22828e-22)
(1.04832 0.00896483 -7.81981e-22)
(1.0001 -3.25048e-05 1.27765e-24)
(0.998079 -0.00414043 -1.62062e-24)
(0.970066 -0.00883353 1.49104e-22)
(1.07296 0.0433578 -4.74581e-22)
(0.999041 -0.00121692 8.25518e-24)
(1.00336 -0.000776135 1.94797e-23)
(1.00122 -0.00101551 -1.71085e-24)
(1.16151 -0.0203672 -7.46147e-23)
(1.17124 -0.170635 -1.04554e-21)
(1.07132 0.182516 1.89066e-21)
(0.998452 -0.000253702 -1.54605e-23)
(1.05822 -0.0565888 1.57236e-22)
(0.999889 -6.9073e-05 -9.50553e-25)
(1.00467 -0.00749586 -6.52748e-23)
(0.999947 -1.39517e-05 -1.3656e-25)
(0.985264 -0.0207523 4.51279e-23)
(0.999663 -7.65911e-05 -1.98206e-24)
(1.01148 -0.0232271 1.41691e-23)
(1.23376 -0.137191 1.64726e-21)
(0.973564 -0.0266634 3.09177e-22)
(1.00821 -0.0225958 -3.08295e-24)
(1.00856 -0.00669257 -4.06487e-23)
(0.999289 -0.000133929 9.51779e-24)
(1.02684 -0.0208118 8.80587e-23)
(0.996223 -0.0190633 4.7043e-23)
(1.09426 -0.00553096 -2.15842e-22)
(1.08888 0.0446539 5.05318e-22)
(1.09221 -0.183243 1.59451e-23)
(1.12483 -0.110328 -4.99081e-22)
(0.983324 -0.000943137 -1.12027e-22)
(1.00503 -0.00375774 6.19793e-23)
(0.944292 -0.0248101 -1.16567e-22)
(0.904051 0.110697 -8.0097e-21)
(1.10807 -0.098449 5.94157e-22)
(1.02851 -0.0134033 -3.69237e-22)
(0.87488 0.0800222 -4.05113e-21)
(0.998505 -0.000194146 7.65438e-24)
(0.998294 -0.000958118 -4.88938e-24)
(1.14782 -0.114029 -5.4208e-22)
(0.998964 -0.00211972 -5.11211e-24)
(1.00878 -0.0435896 2.86947e-23)
(1.00582 -0.0017974 2.17067e-23)
(0.997219 -0.000424941 -1.21883e-23)
(0.997964 -0.000355485 -1.92052e-23)
(1.04238 0.0283005 1.0027e-21)
(0.999935 -0.000152194 -7.43763e-26)
(1.00054 -0.000274917 -4.16572e-24)
(1.00008 -1.30292e-05 9.53958e-25)
(0.996586 -0.000664751 6.47523e-23)
(0.993756 -0.00926752 7.36467e-23)
(0.999983 -2.37518e-06 2.22781e-26)
(0.998927 -0.000252926 1.9554e-24)
(0.979209 -0.0168016 8.92429e-23)
(0.935762 0.0237207 2.10097e-21)
(1.00994 -0.0239139 6.11285e-24)
(0.992823 -0.012178 1.19871e-22)
(0.95236 0.0885482 8.83464e-22)
(1.00135 0.0294015 2.61076e-21)
(1.07698 -0.0132942 -1.88724e-22)
(1.21488 -0.0956436 5.44129e-22)
(0.946954 -0.00427425 3.74847e-22)
(1.00498 -0.00435348 -3.06379e-23)
(1.0131 0.0572674 -1.45282e-22)
(0.98886 -0.00220057 -1.39332e-22)
(1.07408 0.135547 3.28274e-23)
(1.00397 -0.0503604 4.59318e-24)
(1.01155 -0.113368 -2.07368e-22)
(1.14652 0.0894996 5.35849e-22)
(1.07968 0.144334 -1.55836e-21)
(0.964685 -0.023971 4.21594e-22)
(1.04896 0.00628934 -4.9385e-22)
(1.19765 0.177039 1.18376e-21)
(1.0967 0.134041 2.13021e-21)
(1.02656 -0.0030819 2.9221e-22)
(0.997021 -0.00148018 1.40198e-23)
(0.995858 -0.00228403 1.22269e-23)
(0.999912 -2.50825e-05 -4.47365e-25)
(1.01521 -0.0303005 4.37404e-24)
(0.988545 -0.00184415 3.28837e-23)
(1.00101 -0.00239765 -7.87658e-24)
(0.999894 -2.49246e-05 -8.41255e-25)
(0.998421 -0.000710771 6.20707e-24)
(0.972634 -0.071794 -3.10837e-22)
(1.14967 0.00741623 1.20668e-22)
(0.982785 -0.00588333 -1.78502e-22)
(0.999095 -0.0126457 5.20874e-23)
(0.996238 -0.000734824 -3.45078e-23)
(1.05448 -0.0580154 -1.31926e-23)
(0.992969 -0.00153885 -1.1033e-22)
(1.00237 -0.00754533 2.35187e-23)
(1.22108 0.154388 2.17253e-22)
(0.99818 -0.000339325 -4.45878e-23)
(0.999978 -4.7107e-05 -2.12541e-25)
(0.999947 -0.000184125 -1.19482e-25)
(1.00005 -0.000107376 8.17377e-25)
(0.978688 -0.00762582 8.19591e-23)
(1.03976 0.0258856 -1.17673e-21)
(0.996009 -0.000559145 1.36933e-24)
(1.02415 -0.0112185 2.41432e-22)
(0.99527 -0.123839 3.90566e-22)
(0.999553 0.113207 -8.93789e-23)
(1.00392 -0.00762769 2.14052e-23)
(1.00665 -0.00485288 -1.02706e-23)
(0.994953 -0.00255695 -4.42393e-23)
(0.993622 0.0757243 -4.26255e-21)
(0.998962 -0.000134424 6.35249e-24)
(1.07814 0.18933 -9.26286e-22)
(1.00967 0.0228703 -1.40926e-21)
(0.999885 -3.05523e-05 9.84603e-25)
(1.00186 -0.0509036 -1.64852e-22)
(0.996705 -0.000769935 -3.16527e-23)
(0.986499 -0.0590525 4.83602e-22)
(1.00056 -0.000147706 4.1764e-24)
(1.07271 -0.00837565 2.75755e-22)
(1.00676 -0.016929 -5.96598e-25)
(1.00623 -0.00442746 5.16068e-24)
(0.999163 -0.000163521 -1.26166e-23)
(1.10225 0.040062 4.8518e-22)
(1.06626 0.0425591 1.77911e-22)
(1.00092 -0.0664378 2.69762e-22)
(0.97987 -0.0196347 -1.70181e-23)
(0.997887 -0.00378461 -1.72018e-23)
(0.997944 -0.0405979 -2.9743e-22)
(1.21384 -0.00112029 1.22212e-22)
(0.83922 0.0604896 -3.943e-21)
(1.06427 -0.100297 -3.08855e-22)
(1.00516 -0.00812372 -9.6055e-24)
(0.999993 -3.50563e-06 -6.66986e-27)
(0.986831 -0.00485458 -1.43351e-22)
(0.997767 -0.000390183 4.13757e-23)
(1.02539 -0.0207872 1.27856e-22)
(0.989436 -0.100065 -1.62773e-22)
(1.20167 -0.120338 5.72614e-22)
(0.984574 0.107153 -5.27235e-21)
(1.0771 0.0375117 7.50333e-22)
(1.07513 -0.140587 4.63018e-22)
(1.12523 0.0971114 2.5096e-22)
(0.999417 0.0329615 5.00582e-21)
(1.02022 -0.00279716 2.09548e-22)
(1.00121 -0.00232554 1.81323e-23)
(1.03958 0.0790583 8.05648e-22)
(0.999157 -0.00206772 1.1371e-23)
(0.99982 -0.000170865 9.33533e-25)
(0.982002 -0.00195179 5.05979e-23)
(1.00009 -3.21855e-05 2.39625e-25)
(1.06946 -0.157702 2.07416e-22)
(1.00351 -0.0184722 -1.40954e-23)
(0.983644 -0.0336537 2.42827e-22)
(1.00188 -0.00159391 9.39214e-24)
(1.11138 0.0844412 1.49762e-21)
(0.99826 -0.000323023 -3.67313e-24)
(0.999976 -3.77171e-05 -2.00349e-26)
(1.00487 -0.114999 2.22582e-22)
(1.00167 -0.00138304 -5.51116e-24)
(1.12024 -0.0413298 -4.5659e-23)
(0.956052 -0.0138724 7.74236e-23)
(0.937257 -0.0161811 3.76344e-23)
(1.27534 -0.0750445 1.17052e-22)
(1.03095 0.0215618 -4.46862e-22)
(1.02456 0.0060582 2.76251e-22)
(1.02299 0.00584776 -1.07511e-22)
(0.999797 -4.39502e-05 3.30076e-25)
(1.15952 0.000414033 5.88533e-23)
(1.09681 -0.00091347 2.52783e-22)
(0.99949 -0.000655197 2.96615e-24)
(0.983543 -0.00640382 2.07033e-22)
(1.00061 -0.00021012 -4.65012e-24)
(1.01162 -0.0214017 -7.93191e-23)
(1.0074 -0.0297514 -1.17418e-23)
(1.00448 -0.00140571 1.26078e-25)
(0.999251 -0.00130266 -1.34499e-23)
(1.22067 0.0784069 -3.38206e-22)
(0.999978 -2.2549e-05 -3.53217e-25)
(1.0002 -0.000112499 -1.23307e-24)
(1.00197 -0.00108434 -4.13768e-25)
(0.977875 -0.00329667 1.40129e-22)
(1.0198 -0.0127291 1.66268e-22)
(0.983243 -0.0283872 -3.40583e-22)
(0.972803 -0.00505696 -8.12555e-23)
(1.00658 -0.0643691 1.52917e-22)
(1.00605 -0.135618 -4.21021e-22)
(1.02564 -0.0349602 1.41252e-23)
(1.04577 0.079146 -4.53294e-21)
(1.23617 -0.118839 -1.09738e-21)
(0.99349 -0.00259992 -5.72415e-24)
(0.877459 0.116745 6.4779e-21)
(0.973593 -0.0530355 5.10581e-22)
(0.993436 -0.00982149 2.30958e-23)
(0.9735 -0.00419927 1.33241e-22)
(0.99739 -0.0184778 -1.33541e-23)
(0.979245 -0.00240328 2.13127e-22)
(0.990083 -0.00389097 -4.18492e-23)
(1.02854 -0.0153889 -2.48522e-22)
(1.11257 -0.10663 -1.48738e-22)
(0.999974 -4.38697e-05 -2.95384e-26)
(1.02433 -0.0144801 -2.93127e-23)
(0.999904 -3.04993e-05 -4.78356e-25)
(1.0226 0.128513 1.00211e-21)
(1.24222 0.0299084 -2.1292e-22)
(0.995257 -0.00195452 1.40458e-23)
(0.986017 -0.00172853 -1.92976e-22)
(0.999815 -5.45004e-05 -2.41725e-24)
(0.999923 0.0646667 3.11783e-21)
(1.05819 0.144932 2.16142e-21)
(1.15655 -0.0125665 5.98203e-23)
(1.25725 0.121857 -7.69191e-23)
(0.97322 -0.0561368 -2.24891e-22)
(0.998202 0.00994324 -4.88972e-21)
(0.999939 -0.000134881 4.49662e-25)
(1.048 -0.0358769 1.84851e-22)
(0.981642 -0.00148804 -7.77324e-24)
(1.15034 0.0655713 -2.31582e-22)
(0.915571 0.0812679 -4.77054e-21)
(1.21168 -0.0149082 -4.52062e-22)
(1.06702 0.0306457 1.21526e-22)
(0.999791 -0.0125482 -9.1935e-24)
(0.9998 -8.49203e-05 -2.21032e-24)
(1.24783 0.0897375 1.9013e-23)
(1.18292 -0.146217 2.29882e-22)
(0.996889 0.0801391 -8.88709e-23)
(1.11137 -0.0382577 3.10759e-23)
(1.04637 0.0612247 1.33214e-21)
(0.993103 -0.00232025 -1.96093e-23)
(0.993923 0.106997 1.4135e-21)
(1.06391 0.135844 7.34148e-22)
(0.991194 -0.00329818 -1.17263e-22)
(0.992643 -0.00308344 -4.36249e-23)
(1.25525 0.0584313 -3.16639e-23)
(0.935013 -0.0149545 -5.28132e-22)
(0.999917 -0.000156423 -7.00283e-25)
(0.987455 -0.00525308 1.84412e-22)
(0.939695 -0.0211072 3.87432e-22)
(0.981934 -0.0719424 -6.47293e-23)
(1.00981 -0.00252996 -1.77736e-22)
(1.00858 -0.00609066 1.08768e-23)
(0.999878 -0.000194776 -1.32016e-24)
(1.06261 0.15393 -3.2678e-21)
(1.00018 -0.011439 1.48577e-24)
(0.999899 -6.01318e-05 4.24003e-25)
(1.0148 -0.0620658 2.05132e-22)
(0.999515 -0.000431276 2.63095e-24)
(0.99978 -7.56593e-05 1.67666e-25)
(1.00509 -0.0123988 -1.06143e-23)
(1.09334 0.0894891 2.18292e-21)
(1.00191 -0.102661 3.02497e-22)
(0.940229 0.0826787 2.76556e-21)
(1.00006 -9.58522e-06 -6.66967e-25)
(1.10327 0.0929688 -2.24325e-21)
(1.00973 -0.052478 1.42842e-22)
(0.999925 -0.000192403 -1.98296e-25)
(1.00002 -6.31496e-06 -2.03498e-25)
(1.00277 0.0120115 -2.307e-22)
(1.08266 0.0757381 8.38472e-22)
(0.996148 -0.00241207 1.21889e-23)
(1.07107 0.0566501 -1.11451e-21)
(1.00003 -2.03408e-05 1.48183e-25)
(1.07302 0.0644552 -1.50922e-21)
(1.08248 -0.174997 6.086e-22)
(0.990725 -0.00295313 1.28922e-22)
(0.999079 0.0156966 -6.54977e-21)
(0.975136 -0.0447184 3.41629e-22)
(1.25978 0.104741 -4.35895e-23)
(0.974693 -0.00419933 8.10701e-23)
(1.08092 0.0672043 1.97606e-21)
(1.09153 0.0788645 -6.12095e-22)
(0.984329 -0.00792073 3.00187e-22)
(0.979574 -0.00957121 -2.20402e-22)
(0.995054 -0.00985357 6.93413e-23)
(0.997261 -0.000724475 -1.0414e-23)
(0.999805 -0.000189757 2.53862e-24)
(0.999962 -0.0109451 -2.72913e-24)
(1.07894 0.125314 -3.73981e-22)
(0.999972 -3.44498e-05 8.9857e-26)
(1.06386 0.0548256 1.46949e-21)
(1.0132 -0.106311 5.0616e-22)
(1.01202 0.0835536 1.19863e-21)
(1.06188 0.0483415 -1.69617e-21)
(0.937418 -0.0197294 -4.82325e-23)
(0.949261 0.106326 -5.77724e-21)
(0.99848 -0.00114569 8.79721e-25)
(1.01522 -0.0279133 2.93101e-23)
(1.03791 -0.0875205 1.51295e-22)
(0.980125 -0.00227007 -1.31258e-23)
(0.993868 -0.00327163 5.81783e-23)
(1.00694 -0.0532426 -1.23626e-22)
(1.05798 -0.0290531 -1.77834e-23)
(0.889546 0.0729488 7.60237e-21)
(1.00004 -1.89191e-05 7.19784e-25)
(0.998204 -0.0012206 1.18634e-23)
(1.00897 -0.0763311 6.455e-24)
(1.00001 -5.07914e-06 2.4054e-26)
(1.02431 0.137708 4.97495e-22)
(1.0017 -0.00120033 0)
(1.00001 -6.83235e-06 1.84525e-26)
(1.00019 -8.72323e-05 2.89769e-24)
(1.00039 -0.00012261 5.79145e-26)
(0.985613 -0.0194482 2.27516e-22)
(1.02316 -0.01932 -9.08095e-23)
(0.998549 -0.000895318 1.86726e-23)
(0.999916 -1.74697e-05 8.87456e-25)
(0.99347 -0.00306141 3.22914e-23)
(1.00441 -0.0128771 -6.9279e-24)
(0.979383 -0.103075 -4.46911e-22)
(0.942681 -0.00673144 3.74421e-23)
(1.01917 -0.0113363 2.98006e-22)
(0.999974 -2.77948e-06 2.79609e-25)
(1.04387 -0.164089 6.19708e-22)
(0.987667 -0.00366689 -7.37833e-23)
(1.22485 0.0595266 2.79382e-23)
(1.0004 0.0119199 -8.57124e-22)
(1.00123 -0.0035016 4.16592e-24)
(1.1951 0.0541756 -4.27335e-22)
(1.00015 -9.39564e-05 -6.29579e-28)
(0.988247 -0.00411758 2.12116e-24)
(1.02647 0.000483851 -5.40427e-22)
(0.993896 -0.00372396 -2.38186e-23)
(1.10111 0.110662 -1.37154e-22)
(0.988143 -0.00642583 -1.3944e-22)
(1.05036 -0.0334968 -1.76106e-22)
(1.02689 0.00110724 -5.84598e-22)
(1.08513 0.0379375 -2.98417e-22)
(1.00717 -0.0155721 -4.07733e-23)
(0.990583 -0.00419943 3.47108e-24)
(1.13015 0.0767434 7.92815e-22)
(0.97514 -0.0772582 -3.73012e-22)
(1.0068 0.136695 4.21442e-21)
(0.991668 -0.00476975 -1.36088e-22)
(1.11555 0.151404 -5.75287e-23)
(0.991652 -0.00418083 3.63726e-23)
(0.998918 -0.00051451 -1.21912e-24)
(1.06521 0.0264016 3.59386e-22)
(1.01323 -0.0314321 4.27776e-24)
(1.04168 3.94093e-05 7.67658e-22)
(1.00176 -0.000830183 6.13299e-24)
(1.00001 -5.47731e-06 8.46152e-27)
(0.985432 -0.118133 1.62646e-22)
(1.213 0.142425 -8.34555e-22)
(1.00147 -0.00340166 -5.84164e-24)
(1.21086 0.0482878 1.02899e-23)
(0.988795 -0.00600339 -9.14112e-23)
(1.03603 -0.164847 -2.3486e-22)
(1.04266 -0.0500836 -2.0065e-23)
(0.982787 -0.0301258 1.92048e-22)
(0.99844 -0.000998145 -7.90183e-24)
(0.991905 -0.00105691 -2.77098e-23)
(0.971612 -0.0658798 -2.15415e-22)
(0.972649 -0.00901353 3.02801e-22)
(0.991149 -0.00389146 9.60026e-23)
(0.999863 -0.000440586 1.12272e-24)
(0.996706 0.145142 -5.55595e-22)
(1.18317 0.0441236 2.21831e-22)
(1.0254 -0.0125482 -9.41927e-23)
(0.999812 -0.000147838 1.70033e-24)
(1.05892 0.127378 -1.44656e-21)
(1 -2.42466e-05 3.62648e-26)
(0.999827 -0.000131885 3.36518e-24)
(1.16893 0.0489647 3.07208e-22)
(1.00946 -0.0259563 1.27427e-23)
(1.22154 0.112509 5.28188e-22)
(1.02527 -0.0034648 2.19058e-22)
(1.01707 -0.013806 -1.85019e-23)
(1.07866 -0.0927986 2.21725e-22)
(1.02213 -0.132771 5.09426e-22)
(1.26597 -0.0812013 5.08249e-22)
(1.00123 -0.00085509 -1.34923e-23)
(0.957696 -0.0151761 -2.95495e-23)
(0.999982 -5.76655e-05 -6.2476e-26)
(1.00482 -0.0112323 7.76371e-24)
(1.106 0.102416 8.00156e-22)
(0.985162 -0.00743416 2.09767e-22)
(0.997409 -0.00145073 1.6445e-23)
(1.01182 -0.0427322 -8.72972e-23)
(0.998174 -0.00107695 1.12979e-24)
(0.999632 -0.00108255 3.48031e-24)
(0.880801 0.0168781 1.36195e-21)
(0.991167 -0.00512476 -7.69637e-23)
(0.999491 -0.000714641 -1.02502e-23)
(0.999983 -6.07688e-07 -5.81897e-26)
(1.01957 0.0075598 1.21177e-21)
(0.974333 -0.024997 -4.57864e-23)
(0.999696 -0.000540119 3.06414e-24)
(0.997417 -0.000844166 2.12278e-23)
(1.02856 0.0244649 4.98768e-22)
(1.08191 -0.000929118 7.22124e-23)
(0.964599 -0.0218864 -2.62235e-22)
(1 -1.5458e-05 1.1572e-26)
(1.00121 0.0110733 3.373e-21)
(0.986901 -0.0169693 -1.54384e-22)
(1.10817 0.0744989 -1.50077e-21)
(1.01285 -0.00127687 -2.71919e-22)
(1.015 -0.00136243 6.21755e-22)
(0.971074 -0.0111888 4.12497e-22)
(0.99991 -6.36972e-05 -2.77407e-25)
(1.02611 0.000248409 -1.11064e-22)
(1.0865 -0.00622076 -7.5785e-23)
(1.25199 -0.0442047 -7.00944e-22)
(1.01974 -0.104042 1.20797e-22)
(1.07253 0.117414 1.08218e-21)
(1.00551 -0.00167906 -4.36951e-24)
(1.14257 0.0786133 -1.08215e-21)
(0.999788 -0.0146709 -1.55207e-23)
(1.0116 -0.0589896 -3.37039e-22)
(0.999634 -0.000162591 -3.31721e-24)
(1.00278 -0.0196432 2.76762e-23)
(0.999904 -0.000422139 4.20549e-25)
(1.06296 0.035955 -1.09649e-21)
(1.15312 0.160325 -2.5554e-21)
(0.998625 -0.00117909 6.28078e-24)
(1.01861 -0.0141508 1.90426e-24)
(0.983841 -0.00445999 7.20567e-23)
(1.02673 -0.0944239 5.81693e-23)
(1.02057 -0.097319 -2.5361e-22)
(0.998264 -0.000850993 1.24965e-23)
(1.04432 -0.0355566 -5.81575e-23)
(0.891352 0.00497905 -2.27869e-21)
(1.22666 -0.0584558 -5.9381e-22)
(0.99995 -0.000163874 9.70333e-25)
(1.07518 -0.00238793 -2.49385e-22)
(0.997233 -0.00902748 -3.41215e-23)
(0.994711 0.00271169 4.66295e-21)
(0.988795 -0.0052516 1.26919e-22)
(0.995284 -0.0265537 -4.43599e-23)
(1.015 -0.0385895 -3.56066e-24)
(0.993894 -0.0273311 -6.04024e-24)
(0.998136 -0.0213735 -1.01236e-22)
(0.993037 -0.0033117 2.22323e-23)
(0.99893 -0.014506 5.37396e-23)
(1.00187 -0.00636629 -6.46032e-24)
(1.05817 -0.0334661 4.65048e-23)
(1.0001 -2.40235e-05 -1.86126e-24)
(1.12842 -0.180111 -3.68442e-22)
(1.17177 -0.0832792 -2.32212e-22)
(1.04253 0.151472 2.77232e-21)
(0.966337 -0.0207874 3.96843e-22)
(1.20184 0.111446 -2.96322e-22)
(1.00187 -0.000644419 2.19155e-23)
(1.05234 -0.0921936 -6.46924e-25)
(1.00235 -0.0391214 -1.13365e-22)
(1.02682 0.0455742 1.4948e-21)
(0.993512 -0.00401697 5.53281e-23)
(1.0001 -0.000180991 1.22965e-24)
(0.987528 -0.0176964 2.01435e-22)
(0.995871 -0.00961209 -2.63222e-23)
(1.04195 -0.0321925 1.62029e-22)
(0.974091 -0.00692944 -2.55515e-22)
(0.978548 -0.00891181 7.28618e-23)
(1.12275 -0.0847617 -1.0331e-22)
(0.986342 -0.00292208 -1.26476e-22)
(1.01227 -0.039775 6.03289e-23)
(0.982722 -0.0760689 2.74276e-22)
(1.00001 -8.11168e-06 1.56409e-26)
(1.0626 -0.0258093 2.98179e-22)
(0.985359 -0.0690763 -7.28557e-22)
(1.20112 0.0819065 1.99461e-22)
(1.07528 -0.0991673 -4.02477e-22)
(1.03975 -0.000140146 6.33707e-23)
(1.00829 -0.101494 -6.35764e-22)
(1.07922 0.164656 6.7327e-22)
(1.032 -0.041792 1.49859e-23)
(0.969863 -0.0103117 -2.44878e-22)
(1.0105 -0.0491227 -1.71074e-22)
(0.951681 0.00718824 2.11171e-21)
(1.10296 -0.157653 1.94444e-22)
(0.98818 -0.00487501 -3.86365e-23)
(1.00274 -0.122209 -4.79099e-23)
(1.0172 -0.070271 2.42847e-22)
(1.01714 -0.118736 -7.45807e-23)
(1.02675 -0.0878565 -2.85408e-22)
(1.12546 0.0668509 1.05507e-21)
(0.997434 -0.00166794 1.08131e-24)
(1.0108 0.0533552 5.70506e-22)
(1.00748 -0.00163644 3.18357e-23)
(0.999636 -0.000546371 -4.39405e-24)
(0.998903 -0.00234472 3.13218e-23)
(1.06717 -0.00862751 -7.51306e-23)
(0.829485 0.00582982 6.82087e-23)
(1.00151 -0.006799 3.04791e-24)
(1.01258 -0.0551846 4.7672e-23)
(1.02932 0.0283705 -8.26517e-22)
(1.00003 -7.28728e-06 -3.56771e-26)
(0.9806 -0.00902146 1.76097e-22)
(1.0226 -0.011287 2.13818e-22)
(1.0697 -0.0609147 -1.13455e-22)
(1.00763 -0.000819741 1.78727e-22)
(0.998525 -0.00209329 5.70111e-24)
(0.983185 -0.03813 2.15012e-24)
(0.99789 -0.00869376 -1.04185e-23)
(1.00003 -5.97101e-06 3.91017e-25)
(0.977165 -0.0440528 -5.76384e-22)
(1.08489 0.104744 -3.71912e-22)
(1.01761 -0.0343419 2.53412e-23)
(0.984545 -0.00505724 -1.34576e-22)
(1.0017 -0.000440656 -7.85799e-24)
(1.0335 0.0299822 1.08597e-21)
(0.999645 -0.000665459 -2.02199e-24)
(0.998845 -0.000674325 -6.34849e-25)
(0.999666 -0.000177825 -3.02561e-24)
(0.999315 -0.00221549 -7.88171e-24)
(1.23995 -0.0263 -2.62783e-22)
(1.0254 -0.0403029 -4.25017e-23)
(1.00735 -0.0196115 8.55227e-24)
(0.983484 -0.00743039 -6.16352e-23)
(1.00004 -5.33065e-05 3.79424e-25)
(1.03809 -0.134901 7.13523e-22)
(1.20039 -0.137417 3.24742e-24)
(1.03816 -0.144074 -3.39366e-22)
(0.995648 -0.0337266 -8.41e-23)
(1.01353 -0.0100463 1.99249e-22)
(0.999802 -0.000103926 1.39524e-24)
(0.989309 -0.0116471 -8.00839e-23)
(0.960411 -0.0433823 -3.28605e-22)
(1.21823 -0.0436132 1.02952e-22)
(1.00974 0.0808179 -4.19965e-23)
(0.998922 -0.00332284 6.37926e-24)
(0.949347 -0.0300519 1.80455e-22)
(0.995619 -0.00285196 -5.30524e-23)
(1.03064 -0.0384389 1.46615e-23)
(1.14263 0.0551684 5.89479e-23)
(1.00041 -0.00013943 -6.57686e-24)
(0.999853 -0.00022481 -5.1786e-25)
(1.25838 0.071408 -3.72442e-23)
(1.19406 -0.0594312 1.64125e-22)
(1.01744 -0.0171402 6.93835e-23)
(0.997257 -0.00181693 2.80097e-23)
(0.998049 -0.000485792 -2.78095e-24)
(0.966485 -0.0446448 8.04156e-23)
(0.999838 -0.000368619 -1.70682e-24)
(1.01512 -0.0356989 -2.90476e-23)
(0.987584 -0.00144474 2.60594e-22)
(1.00058 0.0137876 -7.15315e-22)
(1.09314 0.112337 -1.99846e-22)
(1.05005 -0.0851264 1.54921e-22)
(0.988798 -0.0701445 2.65635e-22)
(1.00623 -0.00146441 8.80198e-23)
(1.01314 -0.0266157 -3.78396e-23)
(1.16994 -0.067947 -4.33169e-22)
(0.987075 -0.0772602 -1.67683e-22)
(1.01365 -0.0480739 9.83072e-23)
(0.999999 -7.93123e-06 7.02714e-27)
(1.14452 -0.0721242 -3.92837e-22)
(0.976145 -0.00284413 2.46708e-23)
(0.984639 -0.0848961 3.29241e-22)
(1.01748 -0.0316279 -3.15118e-23)
(0.959631 -0.0144384 -5.43554e-23)
(0.999625 -0.000311264 -1.47823e-24)
(0.997217 -0.00135781 -1.25064e-23)
(1.05548 0.0467977 1.31147e-21)
(0.972527 -0.0105111 -9.25732e-23)
(0.999986 -2.33659e-06 6.12132e-26)
(0.997321 -0.000564248 -2.94072e-23)
(1.11105 -0.145826 -1.13095e-21)
(0.999844 -5.43558e-05 3.5354e-24)
(1.01589 -0.0540345 -3.6541e-23)