/*--------------------------------*- C++ -*----------------------------------*\
  =========                 |
  \\      /  F ield         | OpenFOAM: The Open Source CFD Toolbox
   \\    /   O peration     | Website:  https://openfoam.org
    \\  /    A nd           | Version:  7
     \\/     M anipulation  |
\*---------------------------------------------------------------------------*/
FoamFile
{
    version     2.0;
    format      ascii;
    class       surfaceScalarField;
    location    "19";
    object      phi;
}
// * * * * * * * * * * * * * * * * * * * * * * * * * * * * * * * * * * * * * //

dimensions      [0 3 -1 0 0 0 0];

internalField   nonuniform List<scalar> 
11512
(
155.471
-510.511
355.04
-761.066
-16.223
777.289
426.927
-391.493
-35.4342
652.315
268.781
-921.095
1550.29
-1098.8
-451.481
1204.18
-1510.72
306.538
-54.9892
498.28
-443.291
173.124
-863.668
690.544
981.61
-1648.87
667.255
-1778.52
1689.21
89.309
-567.566
1771.75
-1169.49
1983.66
-814.166
618.068
181.952
-800.021
-23.0584
-1339.79
1362.85
226.205
-2004.72
1052.74
-390.731
-662.011
-175.864
331.335
492.223
185.29
-677.513
1187.38
-1347.34
159.958
-314.787
389.438
-74.6505
1028.83
-1335.04
306.209
1251.95
819.783
-2071.74
70.5247
-1670.75
1600.23
-504.728
-1154.99
1659.71
478.058
171.049
-649.107
-198.929
-311.582
509.533
1040.75
1677.16
-1833.2
156.037
-105.781
-1686.84
1792.62
-1599.33
665.647
933.684
-313.523
672.059
-358.536
-115.211
-108.432
223.643
1308.27
-1237.75
368.106
-1443.7
1075.59
-1180.97
1180.97
96.516
1556.42
-1652.94
-1103.86
-495.472
669.034
-724.023
-393.369
967.15
-573.781
1274.97
-1267.78
-7.18887
-1130.37
737.006
646.839
405.904
-393.55
-47.2658
440.815
-438.197
778.731
-340.534
-1038.09
1038.09
1230.85
-1378.64
147.79
-501.087
1753.04
1290.45
-323.298
1699.95
-1186.62
-513.327
86.7348
-401.522
2116.76
-1162.91
-953.843
1843.54
-166.378
444.267
139.217
-583.484
-460.057
993.323
-533.266
-1189.6
1286.12
-583.312
997.965
-414.653
414.671
772.713
668.756
-495.632
-449.59
613.744
-164.154
1222.34
-854.235
2358.95
-1105.03
-1253.92
1192.8
-2058.81
866.009
-1630.18
1607.13
452.11
-1621.6
-681.066
1186.74
-505.674
-692.241
378.719
1700.63
-719.016
-1130.35
-889.621
2019.97
679.956
-370.114
-309.842
708.339
582.11
-266.741
1497.59
122.192
-330.883
208.691
-289.898
767.956
-307.219
497.765
-190.546
-331.741
823.964
-326.9
-155.459
482.359
339.511
87.4159
1481.05
-452.218
-992.213
498.745
493.468
290.172
91.3125
-381.484
970.006
-351.938
-1740.34
623.14
1117.2
28.8051
-871.596
842.791
-285.026
604.881
-319.855
162.317
-1123.33
961.013
919.335
-934.721
15.3865
384.052
532.456
-916.508
-245.859
690.126
-1130.6
-496.347
1626.94
-529.751
788.211
-258.46
1352.54
-1458.32
-637.384
289.173
348.211
-484.498
-1027.72
1512.21
-555.227
-812.267
1367.49
587.783
-1011.66
423.874
-137.323
-222.071
359.393
421.656
-299.464
-1062.13
602.078
981.354
-819.037
-104.125
815.703
-711.578
-196.715
400.026
-203.311
-628.514
-363.699
-397.148
984.93
1319.52
-1319.52
-462.413
-174.971
-947.961
1573.63
-625.667
370.589
-808.518
437.929
-949.634
366.321
-958.306
-1079.96
-1523.73
361.716
1162.01
-277.276
929.591
-309.277
628.288
-319.012
-1980.41
1022.11
-1157.78
-365.949
572.432
-1520.39
1769.66
-1768.43
-1.22455
225.784
-619.095
393.311
-1476.53
976.207
500.322
300.32
216.924
-517.244
306.013
-613.233
195.217
-318.826
123.609
2036.77
-839.636
-1197.13
-561.593
168.044
636.029
852.158
-1488.19
-163.139
358.356
444.154
898.543
-1342.7
-935.545
407.182
528.363
-1070.15
1484.82
-889.248
208.182
775.5
-103.441
549.994
-277.761
-272.232
1018.36
-519.616
611.989
-1440.75
828.758
-1377.65
247.052
-544.788
259.762
-1201.33
924.055
2000.47
-1129.56
-870.905
270.317
1049.2
-2145
915.32
1229.68
229.764
-17.4043
-212.36
-183.384
362.003
-178.618
-119.73
-386.203
505.933
-482.125
155.225
314.381
-63.2035
433.792
418.193
402.698
-820.892
-2049.72
1132.97
916.745
473.67
-549.766
76.0959
162.591
-245.367
82.7755
976.145
1060.62
1810.57
-254.145
729.274
-440.101
816.766
-1426.43
609.669
351.173
328.783
1070.09
-1041.29
-514.077
-246.615
760.692
494.225
-142.288
-351.937
755.583
-573.631
612.35
-801.411
189.061
518.685
1181.26
-1273.17
717.941
1034.07
-1538.79
2.24446
-1473
1470.76
333.847
847.214
-1181.06
629.459
261.64
-891.099
-2276.43
1172.8
1103.62
-1128.52
-1147.91
218.326
394.024
984.443
-650.597
725.198
-738.305
13.1078
-2144.56
1014.21
-99.0123
-112.966
211.978
-44.4304
1814.09
-844.349
83.2829
-1051.84
-1093.16
-190.463
353.054
-674.562
212.149
-272.689
-427.592
700.281
1125.7
-1610.2
800.35
-1409.91
609.559
707.31
-438.53
1958.1
-1439.42
-355.764
-825.203
78.3826
419.898
-545.604
529.381
3.14074
-576.639
573.499
587.914
-287.593
-600.98
283.305
317.674
801.103
-382.909
19.2805
210.484
1216.78
-1214.54
187.128
234.528
395.997
-668.686
635.18
-1032.33
-2073.17
2073.17
-258.77
-452.953
711.724
719.544
410.433
-1129.98
595.472
180.028
404.121
396.981
-2247.26
1357.64
-949.496
-696.712
1646.21
-484.88
-716.452
-262.008
554.232
-292.224
862.477
-215.31
-647.167
-436.425
662.209
388.756
-698.033
-352.743
-146.549
499.292
-1346.98
-486.22
650.114
-1134.99
-347.935
-690.15
862.735
1496.22
245.382
-452.818
207.435
993.481
-346.642
1427.93
-815.942
460.078
-272.95
-340.073
-901.654
588.433
313.221
-348.4
-553.254
314.651
-434.381
-206.591
-134.805
341.396
-404.12
1123.66
415.343
-230.053
-359.854
1378.07
-181.866
-1196.2
-481.524
277.278
204.246
234.534
250.304
-484.839
9.28482
-810.696
607.68
-1769.67
1161.99
1518.61
-882.58
-1049.7
-426.83
-1086.69
588.937
497.749
1396.72
-420.516
951.894
-1448.24
-171.094
-221.19
392.284
-479.616
598.426
-1668.58
423.983
850.987
281.239
300.687
-581.926
516.388
664.579
1135.01
-736.592
-398.42
407.933
-218.978
-188.955
-1453.36
457.596
757.501
-1215.1
1511.55
-559.653
-489.56
937.882
-448.321
439.585
1209.7
-1649.29
21.12
-550.871
-148.204
438.376
87.4994
-202.71
529.503
488.858
-660.835
58.0018
602.833
990.012
-1232.76
242.746
679.889
-275.768
482.991
-1483.58
1000.59
422.419
1728.44
-535.632
845.833
1154.64
-681.694
-1727.36
777.869
586.396
395.644
-982.04
463.589
82.6204
1791.19
-1873.81
1405.48
-390.597
-1014.88
1739.42
-1783.85
-378.347
-524.308
739.262
-214.954
-520.709
192.131
302.095
-382.198
-1248.16
220.445
-787.201
-653.546
-620.509
1045.34
-424.831
-467.238
460.571
6.66664
575.11
-758.904
183.795
-281.22
83.5896
197.631
-665.734
-700.75
359.584
341.166
-952.547
1435.54
-418.55
905.582
-487.032
-2253.11
5.84171
189.904
-554.641
364.737
152.532
1225.54
-104.179
-570.383
166.661
-616.251
1524.91
-724.556
384.692
-480.023
95.331
-138.81
138.81
684.978
353.108
1822.04
-1261.81
605.157
656.65
794.047
-38.4639
1324.3
792.453
-555.422
1372.19
294.966
309.915
292.064
-816.372
252.208
-690.404
222.155
-413.496
191.341
-244.282
597.688
-353.405
130.603
-374.886
-607.134
-580.704
1187.84
-364.585
537.952
-173.367
-1193.73
2059.65
-865.924
1324.49
-340.045
-180.694
43.3715
-1988.21
833.219
1549.73
-848.778
-700.956
2033.23
-898.626
-1134.61
732.736
591.752
-236.131
458.286
-676.855
1155.98
-479.127
-789.301
1233.46
565.521
947.592
-1768.36
820.772
-542.394
-81.6367
624.031
302.013
247.981
425.357
-106.612
-318.745
762.621
-73.104
-689.518
928.489
-557.586
-370.903
1612.08
-486.38
909.315
-1667.34
758.026
1095.63
862.466
771.593
-459.188
-312.405
-1001.93
-265.854
567.807
599.855
-1167.66
-451.465
508.247
-56.7818
595.375
-357.936
-237.439
-1007.54
588.992
613.177
905.431
-445.536
1020.65
1439.9
-784.538
-655.367
411.675
-952.292
540.618
-1039.1
410.591
566.472
-1056.03
467.579
-526.887
59.3077
483.427
295.304
-117.078
-21.7323
-815.445
-898.696
1714.14
197.94
209.993
-238.476
456.802
-43.0665
-549.371
592.438
493.046
892.282
-1385.33
-527.303
320.712
806.498
-43.8766
857.782
-1093.65
235.863
388.74
867.649
-1423.07
-451.579
854.277
2026.92
-1315.25
-711.671
244.112
481.086
239.207
680.128
100.097
-984.835
884.738
1712.99
-1111.58
-601.414
-142.816
1934.01
-1909.28
-163.886
459.159
-578.491
119.332
-1043.44
540.584
502.852
-1703.83
510.108
-960.866
856.741
402.576
211.168
496.523
-251.141
-439.736
732.45
261.031
55.8059
781.089
-836.895
-1160.36
-871.484
2031.85
-535.843
1115.3
-579.46
-468.764
-126.125
27.1123
-1695.94
880.496
-840.297
-632.936
1473.23
-287.032
-281.288
568.319
369.159
-663.428
294.269
238.631
-621.541
313.786
221.123
-534.909
350.891
-612.898
632.939
-263.78
323.493
-478.952
678.137
411.632
-177.098
-392.378
-308.371
1241.98
-8.58797
-1233.39
1067.13
-431.948
574.571
423.395
-1798.46
862.249
936.211
511.869
553.502
-1065.37
-437.11
150.078
-269.756
1211.09
-941.337
-1570.01
1214.24
518.014
-1125.15
399.981
-15.2893
426.012
310.964
-736.975
381.499
-627.358
-28.8655
774.471
-745.605
-470.239
731.879
382.884
313.199
480.848
672.555
88.0767
-401.876
313.799
974.327
-571.698
-402.628
508.459
-1702.97
1194.51
-1164.61
1794.59
-629.978
1756.11
-1148.43
-340.632
623.938
-1184.42
1284.52
317.972
-820.254
1634.93
-814.677
-252.329
-229.195
-939.333
1507.74
1857.35
-627.491
-1229.86
-417.178
735.38
-1355.89
-73.5453
-40.7203
466.077
-697.175
-363.617
-1206.39
-233.599
472.23
883.034
-578.617
192.414
-1715.05
-73.7375
1788.78
-1079.78
543.94
588.107
-1211.83
623.728
924.585
932.77
624.28
562.46
697.127
240.754
-1151.66
474.804
-417.944
421.085
640.331
-529.07
260.901
-756.74
495.839
692.975
-341.802
-261.188
152.757
-607.926
226.665
381.261
-912.64
-754.701
1109.28
-2189.24
411.363
-701.261
-330.643
-604.078
856.676
583.228
-361.009
313.743
362.981
245.912
676.315
-922.228
527.247
628.735
-542.183
189.44
364.774
-623.544
-1129.1
-802.868
1931.96
-1832.43
161.684
1135.15
-1404.91
1180.22
-724.624
-455.598
-517.818
1385.47
-1531.3
646.534
884.766
-163.376
-152.033
315.409
1461.54
571.7
334.716
-481.264
-501.857
-577.026
1078.88
-427.982
617.885
1622.51
-1157.18
-465.332
-787.212
334.259
578.663
395.664
-1661.37
429.457
1231.91
-208.724
522.51
818.271
804.238
209.738
-695.101
485.364
201.893
198.133
-238.728
-95.1953
333.924
487.508
-3.71859
-483.789
-1654.14
604.446
-1617.42
1690.74
-73.3165
15.9878
-1633.41
1057.54
768.232
-342.221
-815.717
-223.387
-1165.45
-244.46
-319.428
700.927
-1857.86
-637.258
1237.11
211.761
781.562
-1363.26
-695.556
-479.106
612.702
-331.463
-1033.42
1382.14
-1979.29
597.155
662.537
1321.12
363.266
-1.26373
738.747
713.071
-1451.82
-659.176
350.132
309.044
340.642
-81.9574
-258.684
162.622
294.432
175.935
-470.367
-587.326
1173.72
463.769
-624.832
-472.519
-414.489
887.008
-354.277
183.183
-474.125
174.662
-315.21
-728.225
412.616
-71.9748
-582.904
994.579
361.437
-187.572
-173.865
469.27
-801.011
-664.735
440.361
-1152.91
-846.315
1208.03
-584.215
469.343
291.349
-453.809
83.6945
1056.86
-198.189
414.737
-216.549
-524.506
1582.05
-764.197
242.947
386.747
-629.694
225.838
482.702
-24.4454
-458.257
-260.219
-213.906
870.436
1132.12
580.874
-885.082
962.386
-77.3033
-219.877
56.5005
-739.102
311.51
-651.55
319.987
372.987
844.499
-1250.41
405.907
799.754
-828.619
-963.724
-568.569
1532.29
-163.883
464.57
-544.796
267.035
1358.52
785.145
-575.407
1335.43
-685.314
497.487
-693.421
-420.481
-434.629
-388.642
823.271
516.834
-868.772
-454.445
92.2518
362.194
-256.133
589.048
750.364
-339
-229
-169.876
398.876
-507.275
153.271
354.004
1493.17
81.3892
-1574.56
-767.233
1380.41
-1174.13
-474.737
554.019
-167.271
1180.27
-380.513
1105.27
506.811
713.309
-421.245
-904.929
-538.771
-1354.32
-31.7453
1011.29
-979.545
604
338.517
-942.516
-326.943
-234.651
-754.89
414.817
1658.35
-183.212
370.337
365.875
-736.212
-1883.63
-2153.05
1551.97
601.074
-2042.11
355.277
373.945
540.708
-914.654
-473.738
1048.31
-408.535
-675.177
1083.71
-2074.98
1420.7
654.274
602.577
-1011.11
59.9955
407.584
389.335
208.134
251.944
318.819
976.523
879.225
700.86
-337.037
-363.823
-303.976
640.2
-336.224
591.196
543.816
575.768
507.397
-1083.17
-812.339
-718.961
773.862
406.405
-423.956
718.226
-1217.69
1647.15
435.652
-1110.83
-329.726
550.848
-1413.07
909.839
503.235
-716.007
-324.195
-845.128
382.084
463.044
460.053
736.702
-1196.76
1096.54
-584.675
-404.147
675.731
-271.584
183.832
177.605
-481.062
-445.232
926.293
-251.203
558.47
-968.43
409.96
-469.301
614.054
-1719.09
435.912
688.333
-1124.24
539.484
88.8041
116.082
-2260.64
558.58
-89.2374
1480.81
1815.18
-221.43
-1593.75
-449.063
1831.2
-2035.57
1223.21
812.361
417.663
353.93
-27.6506
884.327
-1317.83
737.13
-895.551
-846.213
814.468
322.09
54.1068
-376.197
99.0638
108.56
-207.624
1586.72
-847.971
-998.72
-320.797
485.855
-200.495
-285.36
401.754
366.202
251.145
361.557
-8.0502
1026.85
-1018.8
377.515
283.84
-661.355
-750.924
1859.34
-1108.42
-352.121
753.874
-1237.49
-415.447
-942.374
497.143
584.009
-794.861
210.852
785.184
-393.365
-391.819
-424.954
-460.129
451.716
1093.72
1268.28
-680.176
824.571
-355.301
388.212
323.512
-262.317
-217.706
-217.665
640.084
419.694
-873.123
453.429
217.762
362.269
-580.032
-435.928
855.622
774.562
-1178.68
895.443
-50.9446
-508.632
290.862
779.231
-97.9551
1419.08
1931.26
-74.416
351.694
-322.999
411.076
-1113.1
1105.05
628.66
387.233
397.952
60.276
425.579
278.818
498.471
-380.013
-279.163
-390.145
-77.0923
-366.408
380.041
-13.6333
-258.784
-286.004
1033.56
-1579.24
545.671
-202.233
-189.26
-387.239
671.079
-1666.57
1628.48
-981.943
268.072
-688.554
598.815
1249.99
-1848.8
625.644
1002.83
313.042
-1148.56
708.823
-290.125
-291.801
1398.01
-1477.71
839.153
638.561
416.287
-637.473
221.185
-367.182
489.566
-122.384
373.345
114.163
1767.38
454.454
-252.56
572.935
-1744.07
1171.14
-92.5679
400.796
351.863
348.996
-461.048
-631.479
1092.53
436.055
-887.634
-657.733
924.555
586.992
-144.232
-136.988
-452.568
-420.556
-317.722
-847.727
1282.02
-1282.02
-99.5295
-1606.45
1705.97
300.196
295.179
-937.766
-572.217
1509.98
-418.032
993.801
-615.242
-1038.9
688.486
405.464
-1093.95
492.475
-168.981
586.895
1245.85
-1832.74
-1050.95
2115.05
-1064.1
-383.298
-308.944
-494.009
828.268
-1790.48
1637.65
152.831
1790.48
-1639.76
-150.718
-250.17
533.058
-282.888
-552.114
1657.39
1587.12
-2002.56
1099.08
-287.216
-261.249
548.465
252.496
-582.221
-717.032
293.076
1375.36
651.562
591.655
500.351
-1092.01
294.388
418.921
893.897
515.484
-1409.38
543.552
-1045.41
1613.89
-580.323
-775.601
-372.657
-120.16
492.818
-504.1
1240.8
-764.643
336.481
353.645
364.949
268.195
-633.143
617.445
854.873
-619.01
280.221
682.164
-144.232
-322.058
-237.39
559.448
1193.17
-674.32
628.279
477.128
-1105.41
-1010.08
1010.08
-398.243
785.476
-297.095
-485.493
782.588
493.745
464.405
-958.15
397.705
-694.8
631.877
-892.425
260.548
-378.717
-510.98
1102.64
-680.344
-727.067
1407.41
-391.721
950.191
-1589.09
690.461
47.1354
-425.323
378.188
-506.036
718.185
260.152
337.535
177.627
314.848
-523.99
233.866
1916.35
-2014.31
282.555
-718.981
455.363
-844.553
389.191
-908.924
1433.36
-524.434
-442.537
-499.838
616.652
1149.52
-1766.17
-736.456
353.158
-471.975
1063.17
-785.071
1065.29
-353.471
-644.608
-484.913
737.121
488.35
-317.3
929.8
-308.216
-199.059
1634.63
-1856.06
-362.44
-605.99
-340.56
493.831
265.358
-596.82
-191.639
1080.91
-790.053
223.906
-293.286
-290.239
583.524
410.887
-898.405
487.518
-486.301
-455.016
-452.818
-342.028
585.146
-243.118
-461.053
-427.616
-330.461
-204.448
-389.169
657.363
-450.344
773.856
-1101.34
640.295
-1411.21
570.91
-28.0956
-1879.96
1908.05
587.139
-462.058
1236.5
-692.564
54.0448
-54.0448
687.15
-441.825
1038.82
-1654.06
-1183.59
-969.455
303.115
337.085
898.995
735.937
-494.265
-317.032
811.297
1697.91
-1726.01
-445.08
362.248
225.665
1165.97
-537.695
-964.286
1584.97
-620.686
459.234
-251.101
385.006
393.924
-778.93
536.69
491.032
-1027.72
-336.77
673.251
-39.1044
1955.46
1611.25
1015.59
-1740.14
745.415
-1209.18
463.768
-508.383
1402.28
858.857
-1376.67
-561.66
274.444
812.713
-417.07
571.367
-1218.68
647.312
-656.465
-1241.77
-712.404
1954.18
-212.26
561.248
-348.988
-181.815
295.665
-507.925
333.513
385.865
-719.378
-1516.84
778.246
738.599
900.59
-1469.16
849.955
-442.773
228.229
-376.433
-594.432
272.373
-688.194
-724.881
717.173
519.843
-1237.02
404.697
-209.955
-194.742
570.706
-985.359
-571.153
-428.805
740.315
-850.687
-1184.89
-1473.62
514.404
959.221
10.1243
-639.686
349.224
290.462
-1340.72
1072.99
267.724
-632.362
-468.98
-672.323
911.53
414.956
-211.813
-203.144
523.997
1002.31
-1526.31
1001.09
-360.247
121.673
238.574
-409.855
688.748
-406.192
-523.906
183.346
240.371
-1555.62
550.064
546.48
-760.172
254.136
164.591
-472.807
386.316
-841.333
1994.65
-1219.82
-774.829
412.321
-681.686
269.366
180.775
330.03
130.717
-460.747
-574.34
196.098
258.356
-712.261
1408.66
-696.398
435.648
482.791
-1198.8
274.274
1912.64
-1039.35
-873.291
751.509
-537.664
195.635
1428.1
-988.921
-439.176
350.333
-792.158
-633.366
1765.48
631.276
637.007
330.95
-8.86036
284.601
-1162.56
1765.92
-603.365
-1802.88
838.592
1776.36
-1703.35
-73.0088
-677.26
259.316
577.346
-723.45
238.536
1439.33
-580.476
406.705
447.572
-1902.7
1453.64
556.164
-425.129
-131.036
222.142
-552.604
-279.527
-189.237
-364.157
716.02
-587.666
215.009
617.599
571.121
-1188.72
1139.2
-1994.94
855.733
174.019
325.274
-1742.38
1703.28
331.505
-752.749
-168.34
396.569
766.998
699.478
-1466.48
1091.82
-1100.41
545.924
-1130.6
-650.438
263.113
387.325
528.827
-302.161
-626.489
-1027.57
311.176
-738.792
-931.31
194.066
171.352
233.345
389.371
309.517
-698.887
-640.468
-855.432
-1002.43
509.924
-1084.26
-287.86
492.106
552.823
655.208
-145.417
-35.2772
-412.221
725.263
286.563
-1228.58
588.113
1338.95
-571.953
462.441
-1033.59
-217.392
169.5
386.665
1046.06
567.823
-1726.55
1627.02
1647.76
-589.577
-1058.18
1950.39
-1938.28
-12.1044
208.729
-531.728
-345.072
568.977
-774.287
-324.53
-352.73
1021.27
719.126
-1525.15
806.019
364.357
-25.9184
1660.55
-1101.11
426.795
-1257.21
481.613
-60.8601
1554.03
1230.25
-484.833
-329.361
-30.8863
-278.084
753.744
-1995.52
-732.366
356.405
-550.835
194.43
74.5626
-272.751
1166.38
687.871
-1854.25
-615.246
190.117
963.407
-1535.62
-217.278
670.378
-453.1
888.975
1111.03
-752.225
1383.5
610.747
-485.308
-125.439
-361.076
1200.23
1060.76
-1982.21
921.449
-1200.22
562.958
1527
-602.45
-378.306
-163.878
-1272.04
591.862
1192.34
-75.135
970.047
795.12
-1765.17
-222.212
595.485
-1580.73
985.248
502.701
936.419
-1439.12
629.687
607.427
390.625
-1130.04
422.107
1134.36
614.209
-328.225
-285.984
-1212.24
-1795.92
-4.08054
-1722.47
-218.703
-418.77
1647.54
-641.221
-1006.31
-505.808
1130.09
-1350.22
655.294
694.926
-1394.56
1475.95
-1363.07
610.846
1558.89
-399.898
-579.287
200.981
-1498.5
240.561
179.936
232.877
377.87
434.566
412.594
-847.16
523.001
-959.586
922.672
-1482.33
-707.822
246.473
461.349
-1065.94
478.613
-479.908
886.613
716.264
33.5732
-536.846
187.859
-905.198
-1347.91
-737.621
362.046
375.575
418.401
-744.414
326.013
-435.428
-173.494
-564.811
734.895
1577.94
-607.896
827.915
758.803
1372.77
-857.283
-993.739
-586.994
-821.483
439.535
381.949
-1064.31
-662.561
315.32
347.241
-1426.54
-277.292
-814.7
410.861
403.839
-661.562
399.305
262.257
-691.152
284.96
425.568
500.726
401.336
454.287
490.94
396.068
610.901
-993.098
686.3
487.423
457.235
353.45
-810.686
1668.19
-1102.11
-566.076
-520.036
-285.62
-1055.1
467.437
355.835
421.427
609.124
-1030.55
-1414.96
773.741
-551.577
1175.31
365.124
-70.6922
424.268
-891.258
466.99
-1904.18
297.74
444.186
-720.903
276.717
-190.926
418.509
-227.583
-682.181
319.961
362.22
-695.384
331.561
381.447
404.029
628.921
-1046.95
773.626
678.013
-1451.64
450.823
641.704
331.568
352.207
-683.775
419.565
334.31
604.585
675.337
418.381
595.9
-1039.41
443.513
-1700.29
1184.94
515.351
1735.99
-554.731
638.606
-1178.55
539.947
-624.491
343.203
450.389
-962.034
511.645
759.999
-449.035
359.23
356.79
571.083
-933.523
668.152
-1287.37
619.223
385.216
753.413
-1257.51
788.981
524.104
-1313.08
486.226
424.214
-910.44
-516.918
-956.707
-314.561
648.073
362.241
551.938
-914.179
342.031
331.22
-516.081
1986.84
442.852
-853.047
410.195
-940.216
-828.149
-771.882
380.063
-1241.04
455.967
-1768.81
1639.76
129.048
1786.87
-1637.65
-149.222
-807.868
-610.771
276.078
334.693
-1776.36
2002.56
553.717
811.412
-1365.13
453.193
734.645
707.83
395.09
-1102.92
-64.0388
1656.63
-610.564
400.768
835.736
-605.034
317.887
287.147
-388.625
-248.706
432.538
-231.989
448.913
275.721
-632.055
356.334
274.32
-594.174
-293.12
455.186
-1061.41
606.227
552.555
1115.63
373.626
611.305
246.702
215.308
-462.01
1648.5
-929.371
1734.1
-1558.69
-175.41
-336.451
-848.019
427.463
871.632
-1088.91
-626.272
290.048
-1113.24
1665.79
-1603.52
-72.5624
1676.08
-350.195
-359.445
-380.064
550.369
615.605
-517.877
-31.8888
-550.433
519.315
-289.601
-229.714
1771.38
-1319.66
-641.178
309.224
331.954
416.765
369.881
753.783
-304.093
-409.836
-1786.87
1726.01
472.41
-1130.34
657.926
-40.842
1667.86
584.907
477.619
-1062.53
85.3764
1171.98
-1489.71
-8.60677
-1895.58
236.428
-595.566
300.162
295.404
-946.93
616.286
-924.72
482.183
-1158.77
690.732
468.041
377.924
281.935
-776.201
-315.262
1250.26
907.842
719.102
-1217.62
475.055
742.564
508.422
718.705
-1227.13
-362.955
-255.042
426.394
-987.851
451.423
536.428
21.2553
-1923.95
1109.71
-477.832
-501.317
573.739
-1414.35
840.614
-430.949
820.14
-416.748
503.75
-989.92
1860.36
424.115
-190.771
175.694
-177.055
-252.841
429.896
1936.68
-515.973
-1719.61
1079.74
-532.028
283.322
-1041.88
568.138
-319.901
561.182
925.503
-1486.69
-1119.59
447.264
-20.7771
-1993.53
1717.48
-656.724
-528.858
474.538
-1222.78
748.24
195.404
219.552
-251.389
787.593
720.149
853.304
775.483
-422.033
1114.11
-499.125
490.013
-198.961
-291.052
-1971.34
-709.54
-319.845
-439.809
-2.05114
441.86
472.568
-276.47
580.063
1068.43
-817.367
951.115
1277.52
-437.158
-204.981
-248.213
453.194
949.055
-906.68
-341.422
-1096.57
627.594
1592.31
-814.064
554.105
955.878
-397.108
756.375
-359.268
1161.02
-258.289
326.432
1385.15
-723.045
-229.247
463.836
-1232.63
768.793
-992.857
-141.545
1134.4
454.381
-982.665
528.284
187.75
269.082
345.127
784.007
-107.692
878.554
-437.828
1195.27
-800.179
568.16
-1503.2
935.044
-1241.82
1840.63
-438.159
-1542.25
899.546
-1438.32
-317.855
-419.12
1494.83
-1561.5
806.8
1526.23
209.388
280.625
-359.314
-1768.81
-308.662
-1018.88
1598.94
-1796.56
1796.56
1587.12
-1031.66
-653.247
-342.09
374.776
619.025
-367.312
-367.49
-1424.78
916.392
1149.11
616.811
1226.62
1828.3
-1241.41
-621.154
273.607
1698.56
-1962.51
263.949
835.002
-1300.33
1581.5
-578.667
800.091
315.213
-337.72
570.32
815.146
639.667
1392.18
-225.397
-457.73
-360.079
419.722
-280.505
485.647
755.154
-300.169
-160.578
-330.34
582.939
-252.599
26.1465
-384.083
1131.45
-1761.43
-451.447
-491
-581.543
887.418
704.892
-1636.78
924.515
-464.891
-629.095
-527.789
1285.29
345.05
1764.32
-1743.06
-1697.91
1938.28
-1597.03
856.706
740.326
-368.164
-1839.9
941.209
599.207
840.126
-412.178
1838.12
-698.917
-410.948
681.356
446.776
-1128.13
-1128.6
458.067
772.181
-1654.23
488.357
920.302
180.732
-405.845
225.112
-1610.84
-393.882
-427.551
1007.79
-683.925
1479.61
-966.85
1855.82
247.061
-548.592
511.844
-302.456
490.119
912.161
559.508
999.384
-476.206
-441.16
590.445
904.389
-1387.09
-39.4535
1607.1
-848.301
535.999
990.235
-1513.77
-1116.77
1784.41
-1243.31
-541.097
1238.8
-329.374
-909.429
-196.129
464.647
-268.518
-471.327
-257.013
443.57
-186.557
153.215
-408.257
1744.19
-1748.27
-460.653
-548.274
-920.885
448.689
-207.453
-241.236
533.849
-454.084
-358.646
-318.818
677.464
-963.353
410.098
-1196
690.195
427.793
-642.796
-448.96
1607.84
-871.906
544.148
-471.17
-585.531
-475.882
61.3377
-58.2774
-3.06032
-1119.52
426.955
-682.601
-1057.24
1739.85
-603.498
-1460.15
733.081
578.073
-1635.03
1056.96
-383.651
-485.854
159.901
537.226
-1291.76
763.972
555.428
1026.07
-2174.17
1013.8
1160.37
-358.537
77.2662
-69.0604
-8.20586
1515.39
-381.151
462.779
1167.77
598.815
928.189
582.796
542
-1124.8
173.553
-441.573
-1703.35
272.373
1148.6
-620.674
534.115
1036.02
-1570.14
1115.64
-1681.71
183.219
712.225
552.185
-893.607
-1106.91
-138.55
362.883
-224.333
-572.154
-429.275
-652.658
-516.134
264.745
-1659.78
963.066
-490.041
217.839
-408.609
551.15
-314.723
-609.381
1228.63
-1295.65
928.297
367.356
-1033.15
-362.828
-771.21
-840.207
1727.62
-490.348
1798.65
-1590.66
-207.99
-1593.04
1039.51
553.521
-739.374
-177.902
322.948
-145.047
-596.841
393.788
285.265
-679.052
-538.807
1005.86
650.493
-360.445
-1655.41
1071.19
587.411
1126.74
-1714.15
-412.325
-305.326
-376.855
-759.668
-469.286
-339.777
517.404
1595.86
-1017.79
-794.808
1534.71
681.604
-319.356
744.328
1172.75
-1917.07
285.118
312.433
-500.847
-1980.28
1763.16
217.117
761.635
-487.355
-274.28
547.013
1082.73
-1629.74
61.3377
-1731.08
-238.68
1790.65
-1615.34
1098.19
517.15
-1734.65
3.57054
-536.395
77.2662
1742.38
-1763.16
962.522
641.425
-1603.95
288.086
-174.135
-113.951
-408.382
-282.771
63.9989
50.1242
-228.026
-447.015
-445.41
-421.543
230.617
1543.79
391.076
-230.329
-431.233
445.464
-187.108
328.094
1545.66
1097.38
-215.509
-881.869
-1128.85
1745.5
-1771.07
1088.47
-725.893
-1045.17
-1290.18
1884.99
-594.817
1180.87
-1812.98
632.114
184.398
-899.261
1715.47
44.5025
-1759.97
-505.592
-1104.61
-1744.19
-1008.93
567.772
1040.07
606.193
1156.94
-1763.14
295.831
-463.102
726.032
-394.471
373.735
947.558
698.65
-397.28
-642.134
598.984
1094.99
-1693.98
-407.161
-383.691
790.852
433.8
-1703.28
1558.69
144.586
601.194
-1073.17
558.517
1107.28
-1592.66
1013.99
-247.862
245.97
323.007
1950.39
421.269
-90.2682
1011.75
741.402
-1753.15
-714.915
1107.21
-1593.59
172.883
-585.538
195.941
249.524
-660.131
-580.907
599.013
1057.61
-720.948
-279.921
-1405.04
694.08
710.961
-410.764
806.726
93.5334
-900.259
577.379
-140.587
1594.22
-226.139
271.619
-787.76
-1980.28
1703.05
1020.3
83.5896
310.551
449.448
-954.501
-1016.84
-1806.26
656.901
1732.93
526.805
-488.215
1243.37
1112.23
-436.821
1055.85
-1006.39
509.084
497.302
718.246
1073.18
-1791.43
501.953
492.626
-1530.22
-768.26
31.6675
804.26
-424.198
-907.282
405.965
-553.442
-823.232
207.435
-593.256
1433.87
1080.28
174.194
188.689
-566.963
1656.71
-791.383
1565.01
-1767.71
590.764
1176.95
561.886
-908.528
-1774.98
1962.51
-187.53
1756.08
188.177
-557.828
167.837
-117.713
-495.669
1243.91
582.517
1153.48
-503.301
449.892
883.502
-477.598
-796.454
434.072
362.381
1454.37
1115.17
-534.407
1458.92
-511.401
-478.273
989.675
-619.159
501.954
-1226.58
1734.1
1878.04
-705.292
1625.71
-663.191
-1274.51
735.705
-578.731
143.369
-256.335
411.442
-213.309
-533.937
-1272.86
1911.9
-639.032
1205
-566.394
1143.9
-1698.63
1729.27
-590.227
-559.33
-564.749
1759.26
-325.926
-707.891
-488.747
1257.54
-1723.78
-1901.07
628.21
329.939
-977.106
175.051
222.243
-1758.15
1228.53
529.624
1185.5
570.573
-524.626
-482.052
1224.62
182.652
235.857
603.223
1274.81
-552.254
-1263.63
1815.88
-1050.18
1045.27
867.369
-208.484
-1698.56
1743.06
-526.173
1446.48
-1774.98
-379.232
15.57
363.662
-276.277
603.724
-327.447
86.3483
502.085
804.34
-385.939
1281.54
1298.74
-427.103
877.554
-450.09
1859.89
-679.024
1623.73
-1764.32
-422.705
-753.739
301.457
452.281
-574.587
-579.851
68.6206
-1070.55
-1009.24
-687.243
1696.49
-958.22
-1215.95
155.867
-417.117
-664.844
722.511
1193.28
666.608
1447.03
-606.905
1678.15
1352.69
-588.717
-508.062
205.606
-519.55
1431.71
1273.16
-579.08
-966.174
919.086
53.7581
-972.844
593.128
-522.142
1438.53
1533.28
-605.087
-61.7855
61.7855
-605.866
1662.83
1273.39
-501.21
1157.44
-60.819
1853.44
-388.854
1527.79
-605.116
-524.683
1381.39
-670.936
1251.25
-580.313
1593.77
-608.524
756.871
593.763
-1350.63
-654.338
292.308
492.837
616.47
-1997.57
-1003.27
1623.73
61.837
-61.837
-76.851
401.699
448.256
388.831
-15.4857
-311.994
910.292
-525.075
-436.762
838.461
-253.314
640.639
-423.44
1556.41
-460.505
-893.816
188.006
219.437
-407.443
616.437
1274.93
-1891.36
953.928
-471.745
-58.2774
128.935
-1986.93
1857.99
-466.63
193.68
1211.06
-456.179
-754.883
-319.215
-588.068
-504.213
-69.0604
-488.051
258.337
1189.85
-574.247
237.106
-395.899
158.793
-7.72268
-104.592
825.203
-720.611
17.5821
-407.727
-602.748
-89.1082
89.1082
-1262.09
2003.5
-1310.98
-228.276
-1826.92
236.268
-1046.59
-994.761
-193.215
-1679.35
724.852
1256.04
-1968.44
383.205
318.792
-701.997
-1890.46
1260.34
630.119
-141.67
141.67
-980.639
-11.8419
-1909.28
-573.296
1688.93
-695.254
1675.88
-618.263
-186.687
-1708.89
-603.509
-443.187
-610.77
-97.2025
97.2025
-1571.79
199.604
1372.19
163.105
198.109
-361.215
567.264
530.115
1024.89
-488.464
1788.73
789.737
-214.874
206.668
534.065
1742.45
-611.001
-567.761
1675.04
469.548
1854.66
-661.382
-1848.72
-1977.9
-663.464
-102.849
102.849
-602.598
242.519
-692.724
1047.38
-479.24
-1098.88
-291.968
1049.2
1891.25
1672.57
-1672.57
-281.424
759.872
1801.51
610.078
1301.82
140.311
147.775
601.535
588.793
1049.53
-1049.53
231.25
-361.209
-444.501
423.718
978.308
-469.224
-656.204
-1154.87
1745.63
291.048
-1667.45
628.544
-296.09
484.267
1784.76
-607.804
-175.457
-424.326
395.056
739.308
1778.84
-629.732
-526.242
-774.423
2002.01
-889.446
-1112.56
1681.24
-650.723
1249.72
-1865.78
616.053
346.932
-895.524
-184.291
-27.0607
1127.64
-500.045
127.121
637.146
-1664.72
455.664
620.491
-1848.72
-598.617
1827.15
906.045
-1187.46
1800.68
-613.225
1823.69
-590.673
-1233.02
455.912
935.897
-1748.27
945.202
-1479.58
238.404
1241.17
-854.176
-1280.38
-182.193
42.3715
139.822
597.3
280.194
1050.26
-459.874
871.127
-411.253
842.776
756.532
-1599.31
659.924
1093.12
-6.00145
-489.349
495.35
-1787.16
741.984
711.918
108.429
-1146.33
1979.28
-690.357
-1288.92
-552.692
1706.17
845.012
987.64
-1832.65
1254.29
699.886
-412.213
732.174
852.089
1056.88
-602.5
1801.51
642.923
1813.49
-1210.22
-603.269
-377.621
-335.662
713.283
114.418
-1129.3
1699.43
-555.537
-870.54
870.54
1275.17
609.82
1380.96
214.907
-567.722
291.229
-199.917
716.173
1138.49
498.324
-315.672
-891.675
-590.651
1744.7
-1744.7
584.678
-584.678
1008.89
1047.14
-2056.02
1878.78
-629.058
-596.556
835.239
-967.896
-1074.8
1022.59
708.594
-1731.18
-117.078
-361.869
-649.244
-826.453
2086.79
-1272.55
-628.518
1024.26
995.712
1317.5
661.779
337.407
1034.11
234.879
344.466
664.579
1796.34
-1796.34
683.867
28.141
-202.006
-1018.39
-558.563
1716
988.002
1012
-1873.95
-232.477
-371.031