/*--------------------------------*- C++ -*----------------------------------*\
  =========                 |
  \\      /  F ield         | OpenFOAM: The Open Source CFD Toolbox
   \\    /   O peration     | Website:  https://openfoam.org
    \\  /    A nd           | Version:  7
     \\/     M anipulation  |
\*---------------------------------------------------------------------------*/
FoamFile
{
    version     2.0;
    format      ascii;
    class       surfaceScalarField;
    location    "40";
    object      phi;
}
// * * * * * * * * * * * * * * * * * * * * * * * * * * * * * * * * * * * * * //

dimensions      [0 3 -1 0 0 0 0];

internalField   nonuniform List<scalar> 
29574
(
588.19
-435.531
-152.66
271.063
43.1998
-314.263
950.234
-1142.69
192.459
-395.167
994.324
-599.157
-631.297
671.249
-39.9517
-687.166
55.869
223.843
-47.9946
-175.849
651.766
-508.962
-142.805
203.119
-288.835
85.7163
85.3619
566.404
-96.0477
264.275
-168.227
-294.48
295.513
-1.03301
-229.623
-23.2049
252.828
34.6933
553.497
620.41
-649.491
29.0808
-965.117
569.95
-321.557
361.561
-40.0041
-93.3965
-1048.31
1141.7
-262.7
228.9
33.8
305.594
-34.5303
-310.624
294.561
16.0634
-31.5495
-262.931
-512.639
598.001
266.247
-330.537
64.2895
950.234
-349.834
57.1863
292.648
893.7
-977.434
83.734
338.291
-143.788
-194.503
-161.34
-114.311
275.651
-119.629
-143.071
-592.289
740.642
-148.352
336.907
-282.078
-54.8285
416.096
-86.7064
-329.39
554.866
-295.125
-259.74
-716.902
780.472
-63.5694
-730.832
138.542
172.746
-403.636
230.89
932.373
-932.373
785.389
-343.033
-442.356
282.265
458.869
-741.134
0.780101
808.402
-809.183
-325.963
96.4347
229.528
-886.21
734.583
151.627
974.607
-80.9069
-94.8579
-254.976
116.505
72.5581
-189.063
1163.72
-495.933
-667.784
345.778
-247.607
-98.1715
842.884
-30.4359
-812.448
238.664
-226.395
-12.2683
-787.75
70.8481
45.1049
-766.069
720.964
-310.421
-128.953
439.374
763.188
-835.167
71.9793
181.792
-405.088
223.297
14.5655
-207.824
193.258
377.069
-107.052
-270.017
694.674
-751.019
56.3447
-64.5408
-290.641
355.182
-88.5446
-233.012
-645.536
401.899
243.637
-50.3108
244.43
-194.119
479.398
-481.954
2.55558
-205.864
-385.117
590.981
-697.666
828.118
-130.453
-713.635
106.262
607.373
544.489
-565.963
21.4748
-650.043
-63.5917
-186.535
-358.61
545.145
-104.653
-105.467
210.12
358.265
-556.952
198.687
338.649
-230.905
-107.744
674.782
-54.3719
-268.203
-39.5455
307.749
1062.84
-560.66
-502.185
-89.8319
487.152
-397.32
333.09
-103.635
-229.455
-226.681
15.4289
211.252
950.602
-668.337
591.066
-832.364
241.298
631.739
-525.476
816.695
-193.74
-622.955
311
-113.583
-197.416
297.988
-94.8686
134.002
-184.313
-635.345
-250.866
234.876
-281.959
47.0833
-31.9698
134.642
-102.672
-691.878
486.014
110.057
-299.497
189.44
-441.797
736.294
-294.496
738.993
148.807
-887.8
904.448
-130.111
-774.337
174.594
-285.628
111.034
204.425
141.353
423.835
55.5633
251.24
-76.6452
-779.412
789.272
-9.86009
-332.244
236.196
1045.8
-936.051
-109.748
274.026
-163.969
403.925
-415.184
11.2596
153.05
143.937
-296.987
475.707
-185.453
-290.254
1258.51
-1258.51
478.045
46.4708
-524.516
-4.36245
253.381
-249.018
-494.851
256.2
238.651
265.451
8.93656
-274.387
-301.448
-53.3112
354.759
51.7093
-213.049
178.738
45.1057
392.544
-107.574
-284.97
-270.687
-401.1
671.787
-583.176
493.344
-568.714
-431.353
-426.653
-151.01
577.663
576.63
55.1083
-330.463
6.84013
323.623
-1028.89
241.107
787.781
-170.799
909.791
60.0373
254.672
-314.709
389.685
-644.083
254.397
228.966
-361.903
132.937
133.119
421.747
807.939
-901.336
16.5365
229.57
-246.106
185.387
152.904
243.68
93.227
107.359
-534.013
-34.0059
-147.475
181.481
23.7853
214.878
863.316
-862.536
289.251
496.138
109.128
-361.137
252.009
274.206
984.301
309.047
-77.4046
-231.642
-276.035
-34.5891
-404.467
34.877
369.59
96.8202
68.0789
-164.899
296.047
-236.009
33.2869
-301.49
185.217
153.431
-297.676
182.31
115.366
-594.838
98.5165
496.321
-137.035
246.163
-314.174
93.6288
220.546
-93.8971
-222.363
316.26
7.46733
319.93
-327.398
-766.505
-210.929
127.235
-221.132
228.436
971.75
-67.3019
-226.608
-56.5161
283.125
150.623
666.072
-290.492
-23.6827
-754.307
118.963
70.9375
195.31
67.5433
-158.154
90.6111
-8.06644
-221.557
-174.362
356.154
-245.52
197.526
-36.1577
-418.012
-176.825
-206.697
-689.082
895.779
-142.288
110.318
344.827
59.0973
279.099
31.9002
444.87
42.2815
-361.109
533.855
363.223
-54.1755
-158.445
-157.201
315.646
23.7767
-234.679
210.903
396.621
-442.421
45.7997
98.2588
96.7029
-194.962
43.5029
372.593
-571.723
509.181
62.5415
-538.32
-30.8558
569.176
-442.351
-140.825
5.87673
215.84
-221.717
69.7684
-235.109
165.34
735.584
196.789
341.496
32.6736
-374.17
-58.8772
215.059
-156.182
267.294
38.2997
226.235
-123.275
-102.96
589.917
-231.653
32.7652
1013.03
145.243
205.957
117.499
-323.456
304.602
-288.066
252.688
-404.906
152.218
74.8114
-1010.86
-615.077
428.542
215.392
-147.849
-46.6567
319.193
-272.536
97.9943
243.502
-57.3049
330.01
-272.705
325.438
-58.1441
-6.87665
212.833
266.649
-408.791
142.141
-98.8705
341.271
-242.4
-495.873
142.995
-329.741
186.746
267.995
-373.239
105.244
-309.893
283.498
26.3944
-12.3171
-325.662
337.979
785.055
-739.95
195.896
-181.331
619.681
-634.96
15.2793
411.043
133.446
-853.413
512.46
340.953
-38.4332
302.086
-263.653
-83.7686
-149.876
233.645
-295.571
563.187
499.658
513.884
-513.884
-527.72
-501.168
-274.34
-220.511
900.657
-611.405
-5.41867
268.255
-262.837
-152.062
-286.324
438.386
57.7265
165.822
-223.548
540.008
-981.805
-348.33
295.018
-12.3582
-392.109
350.571
-362.888
-1068.65
499.937
-485.227
485.227
-640.851
-7.35344
648.205
673.902
-284.216
293.283
142.211
-435.495
-329.441
325.079
-215.39
209.608
5.78206
-566.568
844.717
-278.149
306.764
-71.8881
583.846
-105.801
-409.21
250.765
183.061
68.1784
-660.715
508.653
251.251
-354.886
88.0846
-171.853
287.076
107.66
-394.735
352.729
-123.763
-1010.42
-248.092
621.417
-44.7871
-85.1761
290.818
-205.642
562.846
-487.437
-75.409
-83.9074
788.072
-704.165
-53.2201
896.104
263.72
1.73048
-120.447
178.174
-93.2009
585.187
-491.986
-543.3
200.267
-162.897
8.84823
154.049
-142.373
435.656
-59.0342
238.253
-179.219
-66.7374
-259.225
191.915
-95.0947
-77.4477
193.953
24.3525
-250.571
226.218
36.8522
453.829
-490.682
710.443
49.3831
-759.826
283.451
23.3133
-85.6635
-159.857
-144.626
46.049
246.418
-292.467
32.5042
360.04
199.702
-766.27
300.668
-191.822
-90.1367
122.51
-820.699
698.189
71.3792
-405.803
-160.161
-303.101
217.772
85.3294
-329.734
-315.802
567.8
-999.153
233.981
-47.9353
-186.046
-69.9543
271.401
-201.446
-1038.87
341.611
697.258
-53.4276
383.556
-330.128
324.177
52.8928
-230.365
80.754
149.611
370.91
-112.088
-258.822
398.813
-146.125
-150.649
294.586
260.494
-215.027
135.861
-205.815
-114.343
635.165
-520.822
752.615
-161.549
-108.614
-384.813
493.427
854.077
-731.567
267.088
-221.039
-19.9831
-341.126
-537.03
68.8373
91.6155
-160.453
377.063
-93.0629
-284
-100.101
195.851
-95.7497
407.642
-140.993
-125.317
-361.707
487.023
7.69862
843.917
-851.616
-776.667
803.671
-27.0048
-238.726
41.862
196.864
-753.764
438.874
314.891
43.414
-163.043
-4.77272
177.367
-172.594
-304.57
273.021
6.19384
-230.756
224.562
249.942
-34.1018
185.304
-564.793
379.489
231.901
-207.548
-40.3147
-186.366
-57.8349
591.69
373.565
-81.8238
-291.741
-733.841
741.539
-457.738
365.254
92.4843
460.469
-353.11
480.725
-856.881
376.156
-300.026
-105.062
-726.588
28.9223
-178.414
-51.9508
-645.123
631.425
13.698
-184.32
351.262
-166.942
326.908
319.758
261.771
-170.631
-91.1397
272.04
-254.342
-499.966
-199.916
-85.7121
269.053
-215.759
-53.2938
-579.575
18.1437
561.431
176.073
-77.8141
1006.25
-1006.25
433.473
-497.815
-541.054
166.255
194.576
-360.831
-498.251
478.268
-332.037
292.492
-324.313
428.831
175.098
-603.928
51.009
712.179
578.92
-150.09
452.713
-603.723
112.737
211.525
-324.262
-209.236
-215.822
425.058
331.339
66.5659
-397.905
-297.327
-544.629
841.957
492.568
-763.256
398.462
23.7773
-422.239
-1048.31
417.74
96.1439
303.03
-279.253
298.877
-363.418
-11.04
121.066
-110.026
20.0118
-260.796
-254.605
11.8447
242.76
254.678
14.3745
333.564
-392.442
227.158
-93.1567
-566.797
-202.896
-96.6012
-392.365
-361.399
-981.172
-187.591
1168.76
-493.422
964.148
-470.726
-131.632
-4.51509
136.148
-668.047
636.683
31.3642
-256.943
391.131
-134.188
247.675
315.171
2.59764
-210.421
873.988
-912.538
38.5502
439.34
-129.242
225.677
-388.472
169.464
219.008
-258.605
75.8515
182.753
-512.501
-67.0739
135.758
-242.811
366.165
-79.0896
-1141.13
934.428
-576.04
482.839
-98.7691
212.328
-113.559
-79.2356
387.791
-308.556
393.651
-369.667
-23.984
-372.688
47.4645
-210.362
-324.654
709.871
-385.218
-79.0524
-253.191
-88.8909
487.353
4.43056
192.261
-196.692
958.627
205.091
-373.485
-14.9872
175.382
218.269
-372.224
-456.688
828.912
-882.751
386.817
439.915
-950.345
510.43
110.648
-446.803
336.154
-289.65
189.549
-14.7424
468.572
-130.806
-198.935
-430.467
148.388
615.974
5.44334
22.5437
211.437
436.211
-69.7223
-366.489
-115.429
-84.2993
199.728
141.495
245.987
-312.725
9.11506
-109.01
-42.0869
151.097
-383.845
-26.1128
409.958
-25.7299
338.811
-313.081
-102.216
492.561
-390.345
-416.967
395.301
-63.9615
-919.447
835.54
371.653
-325.182
-71.1782
-333.728
-74.9424
-333.848
-655.008
-124.404
-539.172
306.118
233.054
-297.764
66.8583
-125.474
123.602
41.2448
203.839
411.984
-615.824
30.3979
-296.909
49.3025
28.9997
301.01
151.104
-258.677
-45.2092
-300.917
346.126
-810.572
796.289
14.2829
229.187
-251.924
22.7367
361.565
539.092
281.037
-393.125
-23.0602
306.511
-724.581
694.145
286.719
-211.375
-75.3436
305.475
13.7176
-176.914
-174.623
-310.007
484.63
-213.364
-96.5292
310.37
-403.432
451.188
-576.504
120.527
73.9113
-194.438
205.902
-128.246
-77.6557
278.498
-650.722
166.487
-525.098
245.748
-88.2973
-157.451
47.3347
-813.84
-437.273
320.315
-402.139
-595.374
706.023
-519.294
101.281
368.297
-665.625
111.223
-227.181
115.958
-851.933
899.267
-30.1001
-5.09062
813.493
-215.827
215.474
0.353573
-314.168
195.339
118.829
-242.064
-131.176
-62.7677
429.884
-367.116
565.702
-680.045
52.9736
-232.915
179.942
177.933
-124.959
353.647
79.2429
-263.563
176.745
15.1697
-146.553
766.869
107.12
-464.074
173.82
-207.477
175.944
31.533
190.158
-249.192
-4.7865
190.59
-185.804
-357.001
311.791
-219.876
-17.5595
237.436
-552.248
443.634
213.135
-205.667
-580.719
-64.4044
614.941
4.74011
-328.447
-205.566
172.349
-88.4904
-83.8588
-110.002
-107.616
217.618
177.349
-246.067
68.7178
-44.0442
298.374
-254.329
-224.737
210.723
14.0145
-192.749
-31.9882
360.112
76.0995
1006.05
-731.846
-290.497
-318.508
239.456
191.281
33.0447
-224.326
-994.081
811.444
182.637
-367.501
170.081
197.42
-518.379
-151.196
669.575
-158.902
-806.215
-17.4856
-279.502
-474.92
448.807
-102.556
-211.612
258.351
13.0494
662.916
-105.422
-557.494
347.031
-449.247
-159.196
756.212
-597.016
-240.114
-210.615
450.729
-284.392
267.872
16.52
5.95299
-73.0862
250.435
-118.737
-184.365
-524.572
-14.5999
-16.1452
-90.1857
-744.981
41.8947
-432.191
-216.872
106.87
-288.555
174.244
699.086
252.957
-309.473
163.127
63.1078
-331.244
-13.0008
344.245
-261.326
2.7217
-36.6217
-997.43
778.819
218.611
-15.6349
225.243
-79.4663
268.906
491.548
-525.039
33.4913
-304.917
-152.821
-360.292
395.169
-45.1867
136.775
-91.5881
1008.23
-824.773
-183.457
40.7991
-592.92
552.121
-27.5593
-122.755
150.314
-159.083
-138.68
487.226
-63.3909
-268.358
516.033
-560.635
124.827
435.809
-212.853
270.039
519.403
-397.531
-121.872
293.958
8.4078
-302.365
-287.049
201.873
690.202
-108.031
-582.171
442.215
-238.376
-433.48
389.767
43.713
275.551
15.2668
-300.421
-30.8231
-179.533
56.2582
197.895
-500.734
68.9344
431.8
-264.316
258.897
-405.92
380.19
-333.99
-67.4873
-417.74
-461.659
398.891
-530.632
1001.78
-471.151
-119.279
74.0927
-175.915
-191.586
488.242
-50.2548
-437.988
-17.676
-297.627
315.303
-512.384
565.784
-53.4008
449.681
201.927
-99.8542
-102.073
202.338
-246.382
195.643
-200.43
-309.174
93.415
478.622
-437.823
-11.9528
-272.439
67.0628
-913.21
913.21
117.643
1.98829
420.336
-422.324
-170.567
182.574
-12.0068
-515.274
306.038
-428.297
73.5716
354.726
56.5813
115.768
-511.863
414.393
97.4704
-209.446
436.321
50.905
308.389
42.0488
-350.437
343.145
-88.4734
-434.411
-53.0261
119.616
-362.524
283.288
336.404
-258.426
-77.9779
-24.5081
142.316
-117.808
-981.172
-292.319
-181.896
79.1199
102.776
-348.822
262.115
-428.875
-521.47
240.284
571.941
-812.224
-142.571
-533.342
675.913
-489.19
160.744
-15.9196
192.665
213.411
-17.7679
-657.161
640.443
16.718
90.6019
351.613
300.224
-80.3103
-219.914
-96.3345
-574.897
671.232
-584.343
828.694
-244.351
-591.256
62.088
-826.645
213.281
613.364
-983.975
430.48
553.496
-291.197
-269.438
-114.915
486.569
-968.565
437.932
-675.59
814.407
-138.818
669.473
-765.807
-212.321
250.299
-226.514
124.29
-799.879
-163.906
-694.549
858.455
689.107
1.09479
501.288
326.83
-94.7345
299.16
-93.0482
88.5331
-152.438
220.91
-606.027
253.871
-226.645
-27.2262
-113.56
344.657
-231.097
-173.161
-123.748
524.628
-33.0801
-290.067
272.391
13.4724
623.211
-703.825
-650.428
-257.141
-243.594
46.7288
217.546
18.1919
501.574
-519.766
-397.322
356.551
40.7709
-141.234
156.663
561.653
440.131
-385.253
-161.851
547.104
176.582
-265.127
-109.435
294.652
-76.2364
-352.061
186.488
-263.892
-231.49
322.092
202.692
-130.134
-451.302
-532.673
-291.399
-11.3732
302.772
-339.065
205.741
133.323
-174.008
178.439
-255.581
-83.4837
225.298
-219.105
247.663
-282.352
34.6885
324.64
-83.7806
-240.859
-805.206
646.304
-309.302
-339.465
82.5212
-335.499
359.276
271.546
-66.4468
516.128
176.374
-10.5523
257.715
565.877
-823.592
-193.284
165.792
40.1092
-581.975
407.351
-999.621
310.54
322.464
-815.887
-472.924
-73.047
545.971
-531.396
453.726
77.6695
279.374
-207.598
37.0305
-665.045
396.687
-42.5979
153.821
-370.404
388.596
129.563
-527.095
-122.3
-36.9371
219.998
-8.21108
276.083
270.977
-81.5716
178.275
782.949
5.12259
297.093
-289.861
-7.2315
-283.111
-78.0265
-80.7377
-35.8843
265.071
720.37
243.778
46.4898
222.417
339.164
-87.9137
-54.3379
316.385
-262.048
-460.734
75.9206
494.46
-230.279
-264.18
285.972
-294.183
-15.5325
-674.936
690.469
221.347
-829.797
457.109
-240.388
77.5262
-369.267
-125.906
-408.236
534.143
-125.272
134.12
252.001
-346.736
336.549
-16.6188
-871.919
333.599
91.5659
-375.566
-725.658
-527.149
-466.932
235.269
107.861
-366.683
235.016
-344.451
155.544
90.2041
155.78
-218.332
62.5514
-528.503
166.797
506.62
-923.587
-145.886
57.3953
458.392
26.835
-574.962
-422.468
17.4922
-598.211
-3.70044
297.658
-94.432
417.706
-323.274
-109.137
-85.8246
155.522
-236.184
-59.3865
-342.971
375.475
-274.821
-45.9371
320.758
-58.8378
264.579
-293.099
-259.207
241.108
18.0988
43.7725
-257.57
335.096
372.448
-68.4517
-328.87
-23.6438
234.366
203.098
-29.4511
-173.647
-77.4318
-466.492
53.7943
412.698
-288.128
-141.332
429.46
189.147
-213.655
343.567
-234.278
55.8645
-192.005
-129.212
321.217
820.639
342.878
-44.3081
-207.477
251.785
-22.4248
-508.971
-291.399
-733.949
343.487
390.461
-0.0382895
-295.087
-9.09054
252.77
-10.897
226.371
284.872
-326.623
41.751
-471.9
-143.177
-541.115
173.892
367.223
208.487
28.9487
237.909
348.801
-611.233
262.432
244.425
-406.317
161.892
-353.545
410.268
-664.352
254.085
1003.72
-970.954
-791.522
466.868
-464.53
-106.325
570.855
179.181
117.911
-319.366
578.391
-421.793
-156.598
396.819
-220.237
-843.149
258.806
250.388
244.072
-242.574
83.4907
401.896
-76.8175
177.95
-178.968
1.01759
232.902
11.5283
582.175
-613.031
-500.179
166.276
333.903
71.6915
-366.754
-118.561
485.314
94.2767
402.619
-216.131
265.455
59.9826
-452.575
147.658
313.833
101.444
-415.277
118.353
-217.122
-192.237
-229.289
-206.242
-358.495
15.5241
-28.4545
-628.707
-40.198
232.984
-192.786
-294.247
184.892
109.355
-404.057
-118.966
523.023
-285.271
-63.059
185.81
17.2879
-355.091
77.5337
182.735
70.2615
-252.996
-265.036
-151.556
416.592
-365.299
-291.815
272.005
19.8098
107.501
-336.41
228.909
162.504
-225.049
62.5451
-34.3182
-125.59
-293.913
419.503
-361.971
231.165
211.648
-440.937
-249.768
107.62
142.148
-467.824
157.817
35.1381
-440.424
405.286
-196.095
-63.112
187.411
438.936
-364.997
-73.9393
-213.223
200.319
12.9032
-261.368
115.756
145.612
-71.9408
-135.536
-333.659
-119.902
931.346
-213.176
-37.3947
275.918
-475.102
322.281
108.346
-307.251
198.905
-416.39
-142.433
558.822
-472.575
-214.592
220.411
-29.1299
288.336
690.536
-706.068
-49.0646
-271.949
321.014
84.1531
-712.451
628.298
208.061
106.509
-314.571
316.993
-122.418
-239.113
221.627
-361.652
-53.4257
415.078
-710.366
39.2025
671.164
-511.944
-148.771
-96.3471
-309.573
523.027
-42.7588
-774.574
-19.9208
794.495
-208.265
577.612
-369.346
-218.283
475.998
141.199
-507.953
334.158
-122.633
126.325
458.862
-425.969
427.957
-324.957
-156.574
481.531
-523.43
50.5053
312.518
52.7362
14.3382
-253.451
272.991
-78.288
-194.703
-116.253
-120.266
309.815
-92.1249
-270.399
38.9097
231.13
-297.609
-107.308
404.916
-281.633
359.407
-77.7736
-93.9104
284.068
-338.1
-148.783
486.884
-233.45
103.933
129.517
-134.686
-53.7267
54.6382
-652.367
597.729
-181.21
-252.27
-312.202
-252.591
-333.011
-104.262
-209.212
-89.6122
298.824
415.195
639.766
169.847
-226.262
56.4157
173.374
532.649
231.222
41.7691
179.577
-259.003
79.4263
-417.87
-134.378
-524.363
-104.114
376.154
-178.698
316.883
-37.5093
658.298
-149.645
-4.60887
229.907
-238.816
279.997
-41.1806
713.648
-0.395562
286.367
-601.907
492.304
109.603
222.832
77.3921
203.521
-53.6653
223.963
-320.564
68.3563
-323.332
20.6624
-354.611
355.756
-1.14502
83.2609
-185.933
159.793
52.6128
-320.175
316.834
3.34159
306.525
-352.462
249.403
-23.1846
-384.672
-113.579
-57.5631
287.091
11.968
241.903
299.433
8.31581
-395.588
-108.586
504.174
-75.8989
-150.497
-193.728
-39.1875
51.0115
249.657
256.767
-292.652
325.641
-50.4757
-269.649
294.011
-24.3623
-1061.21
713.733
347.473
-423.524
135.396
344.851
1.43793
-346.289
-74.7883
358.077
567.099
-176.453
-45.6332
222.086
-72.7216
-231.848
-258.579
-69.1352
327.714
-281.841
-66.5592
348.4
-69.9233
-510.029
-91.8785
-798.063
785.661
12.4016
26.3001
249.677
-275.977
28.8973
327.676
-201.184
489.842
-288.657
-231.122
-87.3865
-492.947
104.571
-213.708
185.526
-237.477
-317.862
-123.393
441.255
-118.682
481.299
-362.617
-380.368
-94.5518
-240.737
-105.999
2.14611
-451.706
-124.334
-197.811
683.182
17.5299
647.043
-664.573
-196.792
49.3164
232.425
-818.268
585.843
142.569
-384.632
308.76
-55.379
81.7895
-1033.11
-228.593
-115.858
436.339
-2.86592
-535.356
-396.362
-128.154
-657.407
206.8
-401.823
195.022
-7.95173
306.325
-354.985
-92.7894
447.775
-17.7592
-286.883
304.642
830.078
-116.43
-492.43
477.688
-59.086
-715.488
-92.9122
473.103
-846.848
783.279
293.823
-477.527
401.291
-97.4226
-113.953
161.904
175.615
-337.519
-438.198
-247.675
183.22
18.8922
-202.112
-211.289
918.327
31.9068
-991.979
559.789
-213.892
-110.97
324.862
769.204
38.7353
359.04
-64.0218
370.198
-354.674
-401.556
404.522
-2.9665
333.792
-323.45
-10.3421
363.804
-75.4674
-20.7423
-448.549
-144.372
-226.776
-134.055
-200.74
-123.521
-625.417
838.15
-212.732
-243.357
-12.2241
-225.82
-451.332
-462.448
412.194
68.6812
-304.866
-88.8192
-124.975
213.794
-42.2121
387.057
-344.845
359.561
-47.7693
219.05
-74.4531
-144.597
98.2972
-221.052
134.251
126.243
320.734
-112.673
-338.909
-91.3565
232.71
574.185
-130.551
26.1458
-773.48
747.335
-276.84
112.103
-193.675
-30.1715
-78.7627
351.783
54.9909
771.593
-699.614
856.516
-110.891
-745.625
374.871
-73.8198
-301.052
104.876
-218.434
-87.9173
505.908
-417.991
-234.715
-54.1204
20.9529
-733.404
467.86
-68.6726
-290.054
282.624
7.43035
-211.816
-36.398
248.214
200.369
28.7676
-229.137
-37.7777
-82.1984
-450.489
-610.718
-427.31
197.642
-0.654028
-192.314
-27.6503
248.997
60.6302
-539.459
478.829
-336.332
223.667
-399.581
147.841
-346.776
684.44
-336.337
67.2205
-266.972
199.752
-147.814
317.278
599.438
-146.726
-200.965
-141.422
226.655
925.464
87.5701
-302.772
226.127
45.9676
725.625
-10.6836
188.634
-321.923
-93.2611
410.645
-90.3303
-467.33
-521.33
153.737
367.592
-163.849
-550.175
714.024
-571.125
1010.46
-769.052
143.635
-494.674
-273.891
280.674
118.138
-934.943
51.5432
883.399
-361.943
409.925
-99.5551
-13.6216
364.193
337.473
21.9337
232.674
-193.647
-39.0272
-310.029
98.7404
-190.757
-22.4656
243.175
386.597
-105.56
687.405
-135.283
296.461
111.181
584.351
-133.163
526.156
-114.172
259.97
-46.0128
-213.957
452.732
-506.907
-343.885
850.792
543.665
-237.547
-305.064
-554.22
80.9521
473.268
319.873
-80.4168
-711.502
677.29
34.2116
530.173
-81.3657
-26.6583
634.525
-607.867
-388.212
304.431
303.904
87.227
437.442
141.478
-389.733
221.297
-41.3557
378.121
-18.5607
-440.319
-125.83
-43.3608
593.99
319.289
-314.595
-4.69365
-542.517
70.6174
-395.636
-334.13
296.621
57.9325
325.623
-303.123
353.752
-49.321
-145.347
-272.726
-276.576
-13.7408
290.316
-401.485
-112.398
-37.0451
547.322
-38.1406
-2.95271
471.525
590.375
-26.3595
-150.99
-266.208
334.155
-67.9473
-51.5438
218.368
31.7527
-743.255
-326.287
-237.751
367.886
-388.841
-72.8177
479.139
645.737
208.503
-854.24
-154.787
591.135
-123.275
335.397
-244.485
-90.9116
-68.1045
-612.33
-214.315
39.3762
198.881
138.592
-138.622
201.168
-286.299
-315.96
358.282
-42.3217
211.827
327.132
-442.048
736.285
432.478
-320.336
379.234
-58.8977
-267.619
-484.955
-219.403
837.518
18.9987
423.373
-45.2518
-969.507
34.5648
396.314
-62.75
-746.02
-14.5414
-319.187
633.466
205.388
-84.8618
-88.5284
14.2422
292.269
-389.019
-12.7199
401.739
-241.277
-153.458
201.614
-122.48
-475.203
-106.772
505.173
-97.8217
356.198
-5.99225
-327.856
-112.451
-139.062
-518.039
375.468
-113.19
652.493
-631.54
-282.483
387.613
-105.13
-241.346
68.1855
280.377
21.7088
-445.056
-478.53
-403.901
972.85
-467.076
-505.774
594.22
-111.382
-531.325
-133.72
-98.2344
17.6293
537.493
-140.807
26.1292
59.2724
173.712
-231.476
-232.597
50.2052
-106.972
571.883
-143.341
-402.504
-344.098
289.269
261.304
3.76669
451.807
-95.6094
-50.0384
-147.773
-140.73
-304.268
31.8294
84.8443
-278.572
442.172
-653.101
628.451
-117.228
-511.223
758.727
-726.974
443.482
-75.5959
-243.606
-279.92
50.9531
606.389
-127.25
-758.338
784.483
212.915
0.0652459
-212.98
-153.759
222.44
467.476
-68.585
631.352
-145.339
-279.225
278.83
-108.562
-73.3346
-206.521
273.061
-66.5403
-89.8945
269.076
301.88
-48.9233
-35.5679
249.392
-473.507
-277.511
271.658
-235.845
-35.8127
-440.596
429.197
11.3986
-17.2496
-140.688
316.071
296.428
-301.716
5.28813
-253.891
-84.1149
-14.147
135.213
-317.795
430.02
-42.7546
787.056
-744.302
-507.911
353.899
-26.767
38.6094
342.306
14.5151
-356.821
7.16095
382.606
234.756
499.827
41.9173
507.272
8.85554
356.381
-47.992
-71.6298
251.207
273.988
42.3977
-870.451
887.981
-303.754
280.719
23.0352
-545.414
245.624
3.76772
817.948
-608.654
-209.294
258.502
-180.352
-78.15
433.387
226.93
33.5507
491.078
-196.605
616.443
-419.838
100.477
-52.2299
848.624
-796.394
-438.947
313.357
475.834
198.948
231.078
3.28793
220.782
-195.266
-491.011
686.278
43.3159
206.087
68.2315
-557.439
571.029
-508.488
815.499
-257.308
-558.191
-294.514
-201.36
70.8618
271.206
0.799093
-220.948
-290.915
-362.871
-519.879
1.72763
184.088
-185.815
288.941
261.155
186.183
-792.351
768.528
23.8224
-31.5877
407.139
-459.433
52.2936
280.346
81.7197
-0.576317
800.888
-800.312
105.542
228.613
62.5593
77.6625
-290.326
302.61
-12.2835
-922.546
-58.6266
192.318
-136.641
-490.307
626.948
-290.168
862.109
-146.427
-403.572
-138.945
-560
97.5787
387.736
19.8406
-251.813
-27.4125
200.064
-140.792
21.3805
862.536
50.6744
-13.7832
300.15
471.675
-356.163
-115.512
-629.669
230.617
399.053
145.099
164.717
366.449
-354.956
276.979
158.277
282.978
229.318
264.408
29.6034
69.6106
-483.409
413.798
839.499
-233.557
-605.942
169.783
225.084
-394.867
369.596
401.657
248.01
3.93814
-626.347
-306.026
275.417
-889.603
367.232
81.9041
-490.141
88.8629
-637.418
-95.9862
242.602
-355.819
404.341
554.944
-568.167
645.016
-76.8491
-9.43442
369.474
410.621
-360.122
-45.4914
174.922
-129.43
-302.926
292.939
-16.8564
680.149
-345.058
-22.3196
375.32
-353
93.0988
-174.432
256.6
-82.1673
-296.524
240.612
55.9121
266.433
549.067
130.617
-400.213
465.06
-1141.7
1141.13
133.922
-11.4967
443.73
168.424
-56.321
414.05
357.158
213.401
20.2441
300.745
363.285
-25.6303
-337.655
-649.249
649.138
0.111318
227.283
193.218
-9.13042
501.274
-431.663
-211.005
765.948
314.921
74.9644
277.667
-365.581
-170.15
26.8695
244.788
799.806
-175.55
-624.257
-896.142
970.954
303.993
388.509
256.167
-254.73
554.159
-992.358
477.555
354.862
344.284
-31.8048
478.361
290.94
59.2728
-416.116
356.843
-221.605
338.915
-13.6012
-22.7955
-824.294
694.183
870.153
-200.68
332.871
296.084
124.735
338.728
-19.9305
-318.798
268.735
328.758
302.794
-186.458
86.6041
-271.395
280.509
-9.11417
451.72
-568.836
-243.388
-1.6186
215.019
468.273
-576.858
-274.45
22.637
482.055
-137.164
-238.074
375.238
-332.233
-189.096
634.309
106.333
426.279
-943.972
517.693
-458.843
417.562
41.2818
-2.68429
251.195
-248.511
364.191
-271.092
259.526
-236.687
-22.8393
332.353
48.9565
-223.389
-851.933
79.3774
371.997
-451.375
-33.6656
725.655
-691.989
322.022
-295.036
-26.986
-445.634
486.981
330.692
-275.701
-399.981
978.657
-578.676
270.662
-13.6843
196.904
539.615
460.385
-186.572
204.861
13.5123
-218.373
-27.524
397.114
-593.559
33.6042
559.955
199.586
264.385
-370.384
-42.1567
-398.439
-918.327
866.097
-494.226
1033.84
335.761
-63.4767
237.272
-1.63398
-235.638
488.347
-434.552
57.3876
-709.754
-459.001
0.157184
-254.875
317.125
-469.435
-499.129
298.165
-18.8275
-279.338
-959.772
432.051
-798.063
155.298
31.5652
-186.863
28.4916
599.806
647.545
-633.847
-270.464
836.341
-73.728
227.159
387.025
-562.995
175.97
-140.92
358.872
-217.952
-704.385
750.353
-384.5
222.881
-222.906
231.87
-8.96435
-276.031
702.31
313.098
654.099
27.5928
-785.93
-231.254
248.545
-364.403
-30.238
-228.923
240.768
-899.267
983.001
175.271
38.9847
-214.255
260.7
-328.217
-64.2245
-2.85499
393.775
210.794
-604.569
502.766
-902.748
536.811
-58.1886
-220.784
-1.48464
222.269
-113.957
-190.311
-312.877
72.0178
-167.398
-134.092
302.092
291.454
-264.584
-118.924
-314.579
433.503
279.156
287.867
-17.5418
-292.624
310.165
-690.599
15.6632
863.316
-922.546
1003.72
-1010.42
984.301
1027.66
-1027.66
-896.142
-1033.11
278.12
-258.28
-243.632
-259.838
-185.286
-0.517934
752.84
-963.558
210.718
-887.981
8.645
-278.662
189.359
-34.0614
-763.538
791.131
227.27
-6.78161
-220.488
-286.023
268.264
-11.8983
-249.532
261.43
248.585
-14.2624
-234.322
200.99
-228.217
-23.681
-253.275
276.956
-187.501
200.201
-12.7005
249.391
280.624
-346.624
405.897
102.351
-179.202
76.8512
-398.755
-612.107
-193.791
207.033
-13.2425
-419.538
-84.1258
503.664
192.913
-174.021
38.4952
201.185
-25.9145
-359.199
281.172
525.341
-120.999
208.44
464.662
-57.5232
315.429
-408.628
93.1993
18.2021
-637.953
666.445
263.627
-460.232
-783.636
730.258
53.3788
480.769
497.889
70.5366
454.804
-281.491
273.54
-73.0629
-710.574
238.874
-349.844
742.664
-955.397
347.684
-776.289
428.604
123.955
264.295
-206.074
-58.2208
-58.1423
-386.417
-868.66
592.629
-1.0444
253.532
3.74447
-308.744
305
14.54
-55.9413
234.846
281.951
-37.1625
185.605
-58.3504
-127.255
738.895
19.8321
272.626
299.585
6.4105
176.296
-229.957
53.6613
239.475
-299.01
295.31
-342.862
-202.821
217.056
-14.2348
74.6275
-494.165
243.977
186.043
-81.883
834.723
-609.297
452.699
579.872
-689.621
222.294
-344.928
308.689
-449.609
189.082
-323.137
217.78
-189.012
-341.069
218.651
-188.456
-6.74465
195.201
219.902
-343.424
368.496
-266.357
-102.14
-8.38083
487.21
-442.447
-560.39
1002.84
-772.827
664.796
-50.6343
-320.573
371.207
21.3814
63.0172
-294.557
285.467
-266.001
-8.44877
196.613
71.3779
-267.991
-184.823
-217
-297.972
223.491
-209.007
-14.4839
-308.744
-410.296
410.296
184.675
-657.249
169.667
186.487
305
727.338
-235.034
-42.0048
-645.431
687.436
527.805
-91.9961
234.588
-363.835
314.77
402.566
242.081
4.21246
232.341
-172.288
-60.0529
-28.1114
-686.839
686.839
-177.616
-386.155
-93.3195
-120.389
206.861
20.2978
-143.404
211.583
-422.496
478.059
-144.832
-201.944
749.02
-505.418
-243.602
-112.037
-106.397
564.723
-185.234
-120.24
-48.3325
-490.271
538.603
-500.727
-287.023
512.994
-21.9162
-13.5657
-756.702
561.436
-457.753
-65.6761
767.948
19.1085
230.236
-112.906
773.625
-660.72
108.922
887.692
683.149
856.808
144.241
-218.694
-385.311
-73.6892
-231.681
250.032
-233.965
49.1798
-167.438
-898.252
41.5252
856.727
10.4251
391.474
814.958
-259.935
245.362
14.5734
1066.46
-542.409
-524.052
-168.561
1.16792
476.52
202.568
-36.7759
260.566
286.538
419.86
-772.042
956.296
-184.254
-350.094
5.99639
230.571
16.7059
666.476
-90.6411
-213.113
-160.681
-243.22
216.036
92.34
634.998
689.702
-731.707
90.985
-795.37
22.5285
654.762
752.284
-849.606
97.3219
-627.507
535.488
92.0186
627.26
-563.545
-63.7153
-446.195
520.822
62.3438
-75.172
-121.586
196.758
122.628
305.746
-603.812
455.041
189.19
-189.19
-198.12
218.306
-879.191
436.744
-677.983
541.343
-554.22
870.451
-952.334
23.3784
-237.564
203.242
-161.41
-223.222
-247.345
19.0133
356.462
34.2394
340.632
-350.013
-366.598
43.148
443.182
-680.729
-55.3197
-726.732
782.052
225.446
-261.843
55.0789
100.963
-225.938
-623.516
654.88
-196.67
-40.8072
8.15531
557.081
152.79
-306.437
-27.693
-455.127
957.893
864.424
-864.424
332.389
42.9308
8.07772
463.447
-761.423
17.1219
652.138
14.3066
80.3671
417.5
-497.867
213.535
301.528
-3.87028
8.90472
673.848
16.6206
-873.236
658.921
195.314
303.323
-498.637
-826.073
568.765
210.274
-413.834
17.5811
-649.121
-185.123
-62.0998
247.223
-77.6742
192.42
-114.746
15.1294
44.1136
355.163
40.006
-199.14
17.4169
-300.941
521.547
660.729
64.9251
12.3716
146.999
-77.0009
-198.977
195.51
393.93
-499.387
-707.821
-64.2211
-195.176
-466.821
-477.151
-274.108
-360.852
624.518
-514.916
6.63556
798.824
-805.46
318.376
50.1207
391.439
-59.0502
623.913
-58.97
-564.943
313.77
-21.2781
-573.689
-108.403
682.092
-26.8113
-261.254
-609.934
460.29
-172.053
-74.6828
246.736
244.254
611.334
66.3611
-242.027
-78.5375
24.0285
202.146
-546.037
638.377
193.456
3.44826
-199.458
394.884
-195.426