/*--------------------------------*- C++ -*----------------------------------*\
  =========                 |
  \\      /  F ield         | OpenFOAM: The Open Source CFD Toolbox
   \\    /   O peration     | Website:  https://openfoam.org
    \\  /    A nd           | Version:  7
     \\/     M anipulation  |
\*---------------------------------------------------------------------------*/
FoamFile
{
    version     2.0;
    format      ascii;
    class       volScalarField;
    location    "21";
    object      p;
}
// * * * * * * * * * * * * * * * * * * * * * * * * * * * * * * * * * * * * * //

dimensions      [0 2 -2 0 0 0 0];

internalField   nonuniform List<scalar> 
19930
(
0.00102855
-0.00237643
0.00390818
-6.94117e-05
-0.00323835
-0.00355439
-0.0891971
0.396917
-0.040091
0.376969
-0.0843646
0.0800522
-0.0266932
0.000878099
-0.00107913
-7.40922e-05
-0.092797
0.23056
-0.0568604
-0.00166816
-0.0368878
0.0896744
0.368994
-0.10938
0.00207632
0.878522
-0.0010977
-0.0248345
-0.138042
-0.0583992
-0.000415347
1.1014
0.253651
-0.0131425
-0.000658765
-0.000561019
0.440613
9.178e-05
-0.00385033
0.182548
0.00885653
0.343067
0.666525
-0.00115677
0.882651
-0.00715426
0.369272
-0.0097503
0.000108748
-0.0239919
-0.000687681
0.0348473
-0.0928488
-0.00141086
-0.115209
-0.0163306
-0.0167332
-0.000734029
-0.0176402
-0.0895302
0.976624
-0.00647175
-0.00180556
0.330862
0.000298975
-0.00321617
0.862521
-0.0033582
-0.0117449
0.868682
-0.00570105
-0.111009
-0.000989951
-0.0185163
0.876954
-0.022527
0.853035
-0.0164883
0.181913
0.793117
-0.00284633
-0.00168848
-0.13493
-0.0373126
-0.00564824
0.675863
-0.0225066
1.24019
0.335818
0.94496
0.321973
-0.000150649
-0.000129173
1.17603
-0.0250873
-0.00137416
1.18992
-0.00144698
-0.0732116
0.498496
0.957811
-0.00773776
0.98739
-0.0595938
0.0828012
-0.0174079
0.752211
-0.0325559
-0.000816418
0.665395
-0.147241
-0.0889778
-0.0131532
0.000705039
-0.0162484
-2.14929e-05
0.622925
-0.00274617
-0.0760458
0.77758
-0.000144921
-0.0414076
0.192629
-0.022444
-0.013116
0.23095
0.159767
-0.0240118
1.1202
0.644374
-0.030136
-0.0224754
0.00905622
-0.00298153
0.770504
0.0717881
0.0254748
-0.039945
-0.00619828
-0.0484024
-0.0444634
-0.0202571
-0.127462
1.00419
0.0249599
0.782304
0.22615
-0.00829491
0.146745
-0.00123027
-0.0073499
0.853292
-0.000114742
-0.0323012
-0.00161261
0.224843
0.694546
-0.115213
-0.017429
-0.0282672
-0.126235
-0.081154
-0.000551994
0.0351351
0.142991
1.22555
-0.00694056
-0.123142
-0.0220392
0.436539
0.0182861
0.903635
0.582434
-0.0121481
1.27955
0.234508
0.000487652
0.945571
-0.0129009
0.705221
0.79969
8.89458e-05
1.00843
0.60407
-0.0015306
-0.0189294
-0.00437367
0.46936
-0.0606509
1.13005
0.17066
-0.0494792
0.515123
-0.00233144
-0.018541
0.0905227
0.999192
-0.0266903
-0.00212045
1.14759
0.0453941
-0.10359
-0.0805782
1.10042
1.03798
-0.0170373
-0.0152924
0.0367279
-0.0162894
0.000622451
0.850579
0.939482
-0.0101792
-0.0239352
0.693763
0.876055
0.00146144
0.777415
-0.0248075
-0.00186716
-0.0230738
0.704995
1.04837
0.329549
0.666267
-0.0072037
-0.0141843
-2.43446e-05
0.0012377
-0.00252088
0.190431
-0.0562972
0.740128
-0.0472853
0.706489
-0.0212772
-0.0114776
0.894903
1.20337
0.693179
0.843396
-0.0230851
0.388196
-0.0209352
0.0925488
-0.00232125
-0.141897
0.00518966
0.0358748
0.00010755
-0.000737676
1.06179
0.163578
-0.00488744
-0.0294493
-0.0542674
-0.105273
0.369492
-0.0454597
-0.00555051
-0.0285461
-0.0113219
0.000354138
-0.0204934
-0.0773189
1.00042
-0.0468051
-0.0120381
0.717373
1.02962
-0.0222242
-0.000409191
-0.0338283
0.864153
-0.149232
0.968206
-3.37209e-05
-0.0258105
0.630613
0.846045
-0.0250974
-0.015177
1.11631
-0.0816243
-0.0509956
0.977597
1.11947
-0.0243615
0.637434
0.108712
0.782416
0.562213
-0.00040613
-0.0598352
0.459504
0.000536051
-0.0575316
-0.0011876
-0.151151
0.0413137
0.0269068
-8.16672e-05
-0.00101623
0.936153
-0.00425663
-0.0709138
-0.0323203
0.106088
-0.00659641
0.691432
0.0678139
-0.0303843
-0.0184077
0.407534
0.116075
-7.65808e-05
0.948242
0.646759
0.93444
-0.104105
0.00031385
1.10397
-0.00148015
-0.0204546
0.100509
-0.0142914
-0.0235241
-0.0914309
0.701502
1.17597
0.809446
0.1244
1.29831
-4.63935e-05
-0.0115401
0.846577
-0.121041
0.458932
-0.0172822
0.871985
0.0710168
-0.00109647
0.06998
0.620018
-0.112571
0.996987
0.556424
0.000129539
0.00345884
0.295262
0.249306
0.00219509
0.582162
-0.0153905
1.27744
-0.0437413
-0.00929912
-0.00133295
0.795062
0.595658
-0.00821274
0.41525
0.943426
-0.00444453
0.595844
0.677022
1.28342
-0.00110195
0.166917
0.00189169
-0.0194991
0.000157841
0.889734
0.336672
-0.0289626
0.886762
0.141504
-0.0162777
0.380949
0.147979
0.175383
1.28146
-0.0357205
0.0796868
0.933145
-0.0299099
0.0860844
-0.0747959
0.28859
-0.00161812
0.346345
-0.0295421
0.0778198
-0.00170073
0.377809
0.923054
0.603226
-0.136906
-0.0104802
1.08423
1.08964
-0.00223297
-0.024247
0.764322
-0.0660338
-0.0178381
0.382881
-0.00206367
1.33822
-0.019409
0.185839
-0.00368057
0.932318
0.548326
0.0409364
-0.0267528
-0.0487699
0.0469782
-0.00155341
0.770397
-0.115144
0.357948
1.25914
-0.111447
-0.0151156
-0.00268236
-0.00693672
-0.0383628
-0.012701
0.450204
-0.000530144
-0.0213457
-0.00191547
-0.0686583
-0.0192593
8.62598e-05
-0.0288976
0.0771821
-0.123897
-0.019249
-0.0182861
0.0127921
0.0398006
-0.0261237
-0.0134789
-0.00178367
-0.0126165
-0.073567
-0.00100815
-0.021066
0.128516
0.592187
0.0394238
0.000172964
1.15074
-0.000878072
-0.000538401
0.00780171
-0.0228946
-0.0331073
1.02723
-0.0155389
0.117509
-0.0619115
-0.0666661
0.374144
-0.0205073
-0.0332586
-0.0543813
0.000125831
-0.0524921
1.17733
-0.102308
-0.0297937
0.459102
-0.0257215
0.562156
0.137454
-0.00161116
0.000614227
0.663717
1.24087
-0.10689
0.201218
0.0563784
-0.0236545
-0.0247024
0.759108
0.0676213
-0.132789
-0.0712338
-0.0044904
0.0217271
1.08094
0.164822
-9.55042e-05
0.993465
-0.017219
-0.0367504
0.607743
-0.00292484
-0.0035858
6.03804e-05
-0.0134679
-0.013743
-2.91772e-05
0.186538
-0.148387
0.778979
0.000350691
-0.00146128
-0.0264753
-1.10512e-05
-0.110219
-0.131807
-0.00146009
-0.0299928
-0.0203041
0.608174
0.902246
-0.00122618
-0.000978957
-0.0457524
0.92646
-0.0107354
0.944933
-0.00593322
1.25982
0.62133
0.268576
1.20767
-0.106247
-0.000943182
0.00333685
-0.00969346
0.896514
0.758486
-0.00765657
-0.133319
0.0763157
-0.0241879
0.000513947
-0.14231
-3.96167e-05
0.630076
-0.0171014
-0.0289765
-0.0113687
-0.0231899
0.20294
0.050249
0.00105186
-0.013004
-1.55766e-05
1.25695
1.06657
0.00036406
-0.00905756
-0.00198018
0.751887
-0.0215619
0.0499647
-0.0273995
0.82692
0.257198
-0.0150264
1.32359
0.0168712
0.787726
-0.00528741
-0.0774916
0.991295
-0.0121104
1.26286
0.70997
1.28359
-0.00101685
-0.00033223
-0.0386176
0.0133319
-0.00247639
-0.0333898
0.801567
0.838915
0.611753
0.914529
1.24862
0.270356
0.925247
0.609445
-0.00505472
0.678483
-0.0316527
-0.0271797
-0.000165988
-0.0248811
-0.0899183
0.451722
0.0479916
0.79193
-0.0195859
0.103495
0.752051
-0.00926826
-0.0253693
-3.03295e-05
-0.000281544
0.454454
-0.0321049
-0.0242757
-0.00032506
-0.000915009
0.0671268
0.000205479
-0.0230155
1.25854
0.22174
0.339568
-0.00814635
0.715326
0.00297167
-0.0099186
-0.00924384
-0.000824415
9.183e-05
-0.00183332
-0.0113811
-0.0784347
0.400725
-0.0141466
-0.010789
-3.66509e-06
0.833744
-0.0735098
-0.118879
-0.0120511
0.038834
-0.0298123
-0.00846126
0.752951
1.12625
0.497159
-0.00306478
0.525046
-0.00732002
-0.0216291
0.284985
-0.000101642
-0.0126628
0.173364
0.278933
-0.0147
0.734681
1.03168
0.725955
-0.0236083
-0.0160516
-0.0122198
0.153175
0.678703
0.000138318
0.987804
-0.0211361
-0.0793129
0.016545
1.17288
0.389029
0.771553
-0.137054
1.21508
-0.0132697
-0.0209454
1.29452
0.0316227
-0.0664327
0.775945
0.829884
-0.0204047
0.666162
0.923797
0.8242
0.664154
0.797849
0.581865
-0.00262869
-0.0135618
-0.00232561
-0.06904
0.921568
-0.0638246
0.120976
0.188761
-0.0262771
-0.0101785
0.145505
0.943957
0.0015522
-0.0011324
0.0257155
-0.0247975
-0.0863
-0.104662
-0.0725374
0.65487
0.965956
0.0266869
0.934674
1.25038
0.00148423
-0.00106108
-0.00189246
-0.00656108
0.470984
1.26133
0.17037
0.703278
-0.0118841
0.491976
0.500484
-0.130548
-0.0135676
-0.0232019
0.108897
-0.0140702
-0.00467208
-0.0226659
-0.026471
0.751427
-0.00061311
-0.0189065
0.823942
-0.0121246
1.11496
-0.040204
0.602918
-0.100341
-0.0325743
0.981515
1.11714
0.920202
-0.0134706
1.1324
-0.0215927
0.965947
0.00759122
0.910742
-0.02357
-7.74028e-05
0.916287
0.981342
0.963232
0.917892
0.46826
0.096145
0.519219
-0.0664478
0.917874
0.731647
-0.0525319
0.0512354
-0.00291081
-0.107144
0.716978
-0.0223292
-0.00808791
0.943988
0.931578
-0.0284657
0.893583
-0.0817596
0.0471253
0.00124382
0.955317
0.978499
1.24932
0.937474
0.000622314
-0.0128961
-0.000134974
-0.0352657
1.10845
0.289233
0.678712
-0.0248843
0.61195
-0.000411742
1.11256
-0.0384536
0.940864
0.000933552
1.07294
1.14533
-0.0133534
0.103564
1.06354
0.000813488
1.17435
-0.0214221
0.00103617
-0.0135971
0.798764
0.206078
-0.0503469
0.882466
1.17925
0.507073
0.0181167
-0.0294027
-0.00269333
0.926719
1.13944
1.31084
0.28932
-0.00312119
-0.00312385
0.706882
-0.00257852
-0.00255014
-0.00330544
-0.0123727
-0.0773341
-0.113384
1.00371
-0.0140139
-0.000116175
0.702352
0.222073
-0.00408514
0.0944221
-0.000954776
0.223997
0.734373
0.905069
-0.100771
0.144161
-0.00526493
-0.0374794
-7.27504e-05
0.935308
1.01632
-0.139075
-0.127403
-0.112159
-0.0347871
0.896261
-0.0266764
-0.0745793
-0.0897771
-0.0229403
1.20857
-0.104999
-0.0183301
0.949974
0.000341964
0.0769374
-0.0210515
-0.0823839
0.000350452
-0.00105695
1.20168
0.576345
-0.136291
-0.078224
0.583749
0.876883
0.722982
-0.0861887
-0.0236121
-0.020003
-0.0228779
0.66977
-0.0072947
-0.0295326
0.000124576
-0.0130333
0.000362077
-0.0893347
0.807012
-0.0705324
0.930562
0.89938
-0.0260015
-0.0136785
1.23912
0.6033
0.0155704
-0.0153206
0.497439
-0.0269872
0.480395
1.20262
0.340831
-0.00733735
-0.0172505
0.806496
-0.0280691
-0.0624554
-0.0311156
1.04378
-0.0204396
-0.0633914
0.481349
0.260045
0.714269
-0.0204178
0.325663
-0.0308855
0.946335
-0.0920593
0.118998
-0.0327096
-0.0343016
-9.21489e-05
0.000393414
-0.000631095
1.03943
-0.0424137
0.54441
0.0363812
-0.047743
-0.0706133
0.298489
1.2484
1.08362
-0.0588153
0.257675
-0.0161921
0.00173419
-0.00691032
0.195617
-0.0241703
-0.00226382
0.678878
-0.0336482
-0.000901948
1.03208
0.737879
0.955542
0.0201519
-0.0934216
-0.0107781
0.29887
-0.0120033
-0.000134709
1.0557
0.0491869
0.226432
-0.0652829
0.0001266
-0.00970334
-0.000997013
0.196011
-0.000600015
-0.0184724
-0.0102729
-0.0252599
1.10007
1.01617e-05
-0.0339983
-0.0170268
1.14709
0.00162843
-1.41075e-05
-0.0954835
0.214581
0.643525
-0.0127173
-0.011812
-0.0209776
0.687195
-0.0164441
0.29117
-0.112656
-0.107678
0.14166
0.551514
0.114364
0.23282
0.000535992
0.72057
1.16121
-0.00700303
0.445083
-0.0420643
1.19447
1.13223
-0.0747218
0.00156225
-0.0384405
0.542576
-0.000337456
0.914843
1.2766
-0.000680758
0.100584
0.264304
-0.00126097
-0.000532225
-0.00870751
1.25169
-0.0118207
-0.0363233
0.913443
-0.00401494
0.521736
0.952979
-0.0185641
1.06882
-0.023293
-0.0143996
0.965368
0.301999
0.712222
0.000647038
0.951037
0.168597
0.905989
-0.0589775
-0.009219
0.112079
1.05886
0.967226
1.08611
0.931912
-0.100465
-0.0157937
-0.0320674
0.599712
0.909525
1.15558
-0.0227253
0.450233
1.17739
0.820221
-0.00122774
-0.0217371
-0.00806996
0.125544
-0.0443275
1.01723
0.364789
0.905844
0.146817
-0.0276458
0.912824
-0.0602909
0.649125
-0.0799128
0.0125801
-0.0131742
-0.0725105
-0.0547089
1.14071
-0.0506312
-0.0214839
-0.0630147
0.256417
0.0288936
-0.0196871
0.0405872
-0.0122995
-0.0618601
0.656805
0.315584
0.758034
-0.124461
0.956574
-0.0662524
-0.000871433
-0.0106655
-0.0144965
-0.102113
-0.117028
-0.0043438
0.290237
1.09461
0.149242
0.0537371
-0.0302623
-0.0579172
0.428892
-0.0223558
1.19107
0.314291
-0.0023844
-0.0154122
0.00309016
-0.0669955
-0.0180796
-0.0241771
-0.0150732
-0.0854358
0.285302
1.12116
1.00083
0.207271
0.000910038
-0.0220195
0.000564498
-0.00961684
0.695852
0.00135458
0.63575
-0.0613289
-0.0126658
1.10394
1.13583
-0.00103994
0.925193
0.988835
0.109696
-0.0131421
0.23345
0.694645
1.1332
0.503118
-0.0650385
1.09908
0.118887
-0.0341922
-0.0381302
-0.0759104
1.1689
-0.0184006
0.948053
0.346154
1.07976
-0.0341795
0.580544
0.507045
-0.0761903
0.972418
-0.016216
1.0508
-0.000475202
0.40566
0.656394
0.569257
-0.00261331
-0.0407742
-0.00190874
-0.0250577
0.438605
-0.0182251
0.525369
0.399458
1.26271
-0.0123015
1.05921
-0.011628
-0.011102
-0.000382564
0.921073
0.0600482
-0.0569774
0.0543061
0.700237
-0.0054957
1.22953
-0.00345823
-0.0671091
0.00617116
-0.010194
0.937647
-0.0394211
1.0076
0.742545
0.168037
0.0301751
0.145265
-0.00105345
0.0196236
1.02187
-0.033584
-0.044837
0.355051
0.0268667
0.00244096
0.0281372
-0.0068974
1.09703
-0.0196058
0.000623792
-0.0733752
-0.0239489
0.900344
1.26726
-0.0166899
-0.0617482
-0.00163153
0.100854
-0.00102417
0.107146
1.14178
1.07677
-0.015275
0.226218
-0.000350965
-0.0251008
0.734854
-0.0116468
0.323047
-0.0131168
1.23656
0.662433
-0.0730991
-0.0140952
-0.0284394
1.23183
-0.021889
-0.000929147
-0.00268134
0.139388
-0.0675548
-0.00914567
0.0740451
1.09706
-0.0860183
1.18209
1.31435
-0.0188086
-0.0446936
-0.000739749
0.000505348
-0.0425605
-0.0310046
1.21662
-0.0121333
0.000943923
0.651616
-0.0523338
0.72797
0.000527051
-0.075977
0.644622
0.675072
-0.0699651
-0.020719
-0.0573423
0.849548
-0.020828
0.395923
-0.0245925
-0.0100401
-0.024013
-0.00928228
-0.00365753
-0.0877094
-0.0844839
-0.109647
0.000132773
0.112491
-0.000638137
-0.0217161
-0.0599736
-0.0139071
-0.0266438
1.10335
0.0436611
-0.0244015
-0.0152574
0.821046
0.000341407
0.687885
-0.0646385
-0.0240057
0.0012592
0.712125
0.41579
-0.0266187
-0.0298184
-0.0314252
0.498896
-0.00042396
0.668242
0.801703
-0.00947668
-0.0418128
0.149626
0.183357
-0.0586735
0.0950188
0.728996
-0.0116587
0.628737
-0.027541
0.00688285
0.588307
1.13822
0.0127079
-0.00506781
0.89612
0.472899
-0.0142446
-0.0360453
-0.0992354
0.0141342
-0.0118473
-0.00200475
0.814698
-0.112628
-0.0482102
0.79291
-0.0603547
-0.0235634
0.237928
-0.000275275
0.202242
0.654319
-0.0231564
0.550279
-0.0111729
1.07788
-0.0655366
-0.000425611
0.000106335
-0.0490837
-0.00075078
-0.0120707
0.194864
-0.0435992
-0.00449196
-0.0281497
-0.0139532
0.268104
0.93818
0.000318355
-0.0103661
-0.0120171
0.545984
-0.0560852
-0.0148915
-0.0120292
0.0941058
0.266263
-0.0125139
-0.00420034
-0.0763578
0.715077
0.752296
0.0736761
0.67775
0.974782
-0.0109346
0.582365
0.18655
0.00989097
-0.0124117
-0.00379575
1.28028
-0.0117471
-0.0735405
-0.0219782
0.675143
-0.00503324
-0.00211539
-0.0228827
-0.0260682
-0.000474761
0.941485
0.324088
0.522882
0.814289
0.687171
-0.00287052
0.223044
0.512977
-0.017211
0.912999
0.237594
0.311832
7.58256e-06
0.482442
-0.038186
0.207306
0.383477
-0.0818938
0.124372
0.0816732
-0.0174593
-0.00249625
-0.0355829
0.176682
1.11775
0.164238
-0.00011339
0.436095
-0.010745
0.353701
0.265255
-0.00465075
-0.0186975
0.486877
0.908203
0.0867272
-0.0221086
-0.0121644
0.323724
0.623797
-0.019468
0.79387
-0.0147588
0.20601
-0.0145298
1.02249
-0.000555736
-0.00107996
-0.00260364
-0.011871
-0.0906671
-0.0035525
0.548345
0.763311
-0.000671562
0.329048
-0.000856445
-0.0043081
1.7996e-05
0.299708
-0.00989758
0.255055
3.36066e-05
0.643085
-0.0153946
0.777945
-0.124549
0.862779
-0.022282
-0.00519142
0.000542887
0.919492
-0.0251807
0.0142946
0.153735
0.000547407
0.764792
-0.00466237
-0.0104689
-0.0118778
-0.000835698
0.948753
-0.00272017
-0.01314
-0.0112861
-4.56335e-05
-0.00460634
0.792374
-0.000686678
-0.0215758
-0.00339853
-0.00156397
0.710208
-0.14566
0.0382359
-0.0398671
-0.00120313
-0.0114936
-0.0878082
-0.0110912
-0.00126219
-0.00451025
0.371128
-0.000425836
-0.00826841
-0.0791151
0.171356
0.878672
-0.00225871
-0.00113449
-0.015779
-0.0273386
0.606802
0.761186
0.955248
4.44841e-05
0.237619
-0.0201386
-0.0170399
0.293996
-0.0192771
-0.0041916
-0.00390628
-0.00726793
-0.0117269
-0.0113685
-0.00516723
-0.00254297
0.00757515
0.641218
0.00110741
0.443105
0.105912
0.0627859
0.342436
0.207244
0.535453
0.0247495
0.465956
-0.00106573
-0.0135419
0.4246
-0.0320504
0.696804
0.654145
-0.016595
-0.0193345
-0.000429882
-0.0108472
-0.0536512
-0.00564832
-0.00527634
-0.008635
-0.00445205
-0.0130618
-0.0198953
-0.00447608
-0.00270893
-0.0256858
0.536217
-0.0117473
0.000303851
-0.0175035
-0.00443456
-0.0144647
0.769421
0.749614
0.259389
1.02086
-0.00873258
-0.0487767
-0.0120317
-0.00301766
-0.00370753
-2.96596e-05
2.63882e-05
0.241552
0.0587523
-9.45925e-06
-0.0870551
0.153516
0.323437
-0.0386729
-0.00349823
-0.0092851
-0.00321541
-0.00112138
-0.00221457
-0.0144042
-0.0325846
1.0676
-0.00325699
-0.0316462
-0.0116562
-0.0209586
-0.00240642
-0.00243732
-0.000990401
-0.00391659
-0.0163715
-0.0127209
-0.0358566
0.0194066
-0.00699718
0.316845
-0.00988606
-2.71926e-05
-0.0483459
0.69226
0.723199
0.505254
0.011296
-0.0930919
-0.0307059
-0.10591
-0.0255666
-0.104481
-0.0198097
-0.098865
0.000199541
-0.00897506
-1.78284e-05
0.0845267
0.000193377
0.000539193
-0.0136356
1.12815
-0.0162728
-0.0947178
1.04703
1.08421
-0.0050865
1.05625
0.983294
0.631113
-0.00375968
-0.134397
1.08629
0.000503136
-0.000321172
-0.0092997
-0.0112469
-0.00307335
-0.0210948
-0.0112411
-0.0110671
-0.00795953
-0.0189859
0.000422607
-0.0379278
-0.00402971
1.2319
-0.00534991
-0.00332809
1.22436
-0.00150315
1.15034
1.07204
0.628969
-0.00453253
1.2335
0.0654543
0.839429
-0.00159365
-0.000627616
-0.00867824
-0.0176196
0.0517767
0.929847
1.73232e-06
-0.000718721
-0.011202
-3.00966e-05
-0.141294
0.315659
2.68658e-05
0.681392
-0.039825
-0.00300096
-0.0220405
-0.00452631
0.0844514
-0.00209186
1.08667
-0.00106613
0.985925
-0.000187678
-0.014921
0.000105222
-0.013178
-0.00920824
-0.0129562
0.83493
0.913075
3.99853e-05
1.08925
-0.0220436
-0.00218559
-0.0222299
0.998527
-0.125012
0.000351449
-0.000384447
-0.00135798
-0.000874552
0.000169375
-0.000952457
1.10019
0.000300558
-0.000226067
-0.017344
1.19487
1.31505
0.000801718
-0.0247132
0.69622
1.20849
-0.0276712
-0.0101688
-2.05177e-05
0.0111945
0.951046
0.690195
-0.00116535
-0.00635961
-0.0200953
1.02084
-0.0774116
-0.0114199
-0.00819824
-0.0059467
-0.0219353
0.747956
0.000132204
1.04804
-0.000510802
1.16522
-0.00125442
1.07418
-0.0052532
0.0748561
-0.0189285
5.30515e-05
-0.000777889
-0.00399497
-0.00863934
-0.00900112
-0.000835307
-0.00280045
0.000267025
-0.0198636
-0.000864726
-0.0061031
-0.00592503
-0.00221353
0.127826
-0.000806475
0.683875
-0.0100152
-0.0126157
-0.00353362
-0.104417
1.21476
-0.00494377
-0.005021
-0.00587264
-0.0217812
-0.00487564
0.606559
0.744464
-0.000943934
-0.00454968
-0.0546051
0.168087
1.04484
-0.0170689
0.618087
0.791226
4.08429e-05
-0.0273989
-0.0043626
-0.00118564
0.000582468
0.000266519
-0.000954454
-0.000707437
-0.00317632
-0.00135584
-0.0169448
0.00338996
0.185037
-0.0696207
0.665749
0.0365322
-0.0795216
4.91565e-05
-0.000730632
0.926552
-0.00150418
-0.0211071
0.000281782
-0.0148115
-0.00859797
0.491349
0.0695252
1.1105
-0.000601525
-0.00142091
-0.0108804
0.218694
-0.0010974
1.04593
0.0387195
-0.006585
-0.000398905
-0.0548676
0.00476683
0.580845
0.0401963
0.954619
-0.0200191
-0.000163529
-0.0011254
-0.00597009
-0.000256662
-0.000318238
-0.000268681
-0.0103396
-0.00197806
-0.0179819
5.84217e-05
-0.0194174
-0.0676193
-2.65664e-05
0.00015869
-0.00127498
-0.000687468
-0.00018565
-0.0056029
0.0207097
-0.00091842
0.0599638
-0.00273132
0.705544
-0.0155569
-0.0504613
2.13534e-05
-0.0477431
-0.0293826
-0.0175427
-0.0032482
3.59722e-05
-0.00256623
9.35997e-05
-0.0556391
-0.0399739
0.120887
-0.0976256
-0.000615494
0.0619053
-0.0958227
0.74504
0.474723
0.591404
0.000621159
-0.00161697
0.000258732
-0.000311987
0.970507
0.633082
-0.00197661
-0.00340022
0.411084
0.651902
1.12821
-0.000516392
-0.000818107
-0.00676838
-6.48284e-06
-0.000518277
8.70961e-05
-0.00339208
-0.00239082
0.701306
-0.0218698
-0.000871877
2.19631e-05
-0.00111023
-0.0616797
-0.000955717
0.230124
-0.00125031
0.200328
-0.0260947
-0.0135913
0.135465
0.0728512
-0.000502728
0.189876
1.03835
-0.0219886
0.734152
-0.0122545
-4.85839e-05
0.816693
-0.00183165
0.532824
-0.000276869
-0.0286578
-0.0606087
-0.000756187
-0.00536514
-0.000952076
-0.000223437
0.0146219
4.99282e-05
-0.00537838
-0.0108182
1.06357
-0.0237813
-0.0014433
0.683189
1.79461e-05
-0.000706781
-0.0111689
-0.00124277
1.0283
4.71367e-05
-0.000824961
-0.00616207
0.101836
-0.0230538
-0.000935931
0.000458318
0.0132102
-0.0019147
-0.000599261
0.898245
1.18659
-0.002004
-0.0140746
-0.00183032
0.754246
-0.00023743
2.76968e-05
3.93577e-06
2.55547e-05
-0.0559728
-0.00173794
-0.000886331
-0.111235
-0.000994987
-0.0580359
0.000396794
-0.000294271
0.000493901
0.829799
0.88457
-0.0105336
0.446965
0.0404834
7.93627e-05
0.664956
-0.00768685
-0.00106612
-0.00185422
-0.0756996
-0.000400342
-0.00536026
0.000260292
-0.029054
0.127692
-0.00784646
-0.00611689
0.0685316
0.470184
0.133277
-6.43204e-05
4.39433e-07
-0.00246533
0.214434
-0.00365705
-0.0634038
0.000255713
0.654666
-0.132168
0.830091
0.345851
-0.00115932
0.223285
0.000188983
0.694258
-0.0224509
-0.0225337
8.92117e-06
-0.000886597
0.000180572
-0.000296913
0.000105026
-0.00202773
0.172768
0.00124826
0.319876
-0.000798615
-0.00111112
0.000238714
0.01472
-0.00682197
-0.00397448
-3.88372e-05
-0.00752783
0.256774
-0.00247146
-0.00788452
-0.0074573
0.0656538
-0.00740086
-0.000513971
-0.000722184
0.781658
0.863262
0.927007
-0.000518128
0.87431
0.766383
0.877284
0.000526261
0.000301336
-0.000506021
0.29546
0.543173
-0.0761799
-0.0226246
-0.00454073
-0.00830405
0.0518031
0.000487527
0.00137521
0.598326
-0.00110836
-0.000320712
0.000177413
0.000317973
0.886993
-0.0285343
-0.000806778
3.30959e-05
0.997876
0.714402
-0.0380594
0.193377
0.000419284
-0.0446745
-0.000402529
-0.0514306
-0.0566272
-0.0573154
0.174245
-0.00212459
0.075023
-0.000340255
0.848079
-0.0185745
-0.00653187
0.612073
0.00404001
-0.00794169
-0.00456873
-0.0905561
0.178996
-0.00937717
0.000353735
0.633178
-0.000580843
-0.00930072
0.0512092
-0.000308113
0.000684198
-0.00101299
-0.0126964
-0.00299216
0.0400185
0.000258135
0.029346
-0.0174811
0.0218864
0.0153031
-0.00390772
-0.00648666
0.0106713
-0.0103911
-6.76879e-05
0.000695766
0.442919
-0.000111094
0.00136729
3.19186e-05
-0.0139277
-0.0298025
-5.46868e-05
0.353294
0.797334
-0.0118914
-0.00589382
-0.00374164
0.00142246
0.000231462
-0.00817186
0.000803893
0.0482962
-0.000238222
0.000978958
-0.0135068
-0.00336605
-0.000829073
-0.00017986
0.386121
0.000404474
0.0530098
0.505031
-0.0199517
-0.0244296
-0.00291803
0.000192342
0.0394409
-0.0117328
-0.0052126
0.0242712
0.156513
-3.94974e-05
0.0118778
0.267041
-0.000126115
0.154018
-0.00560478
-0.0185518
0.6227
-0.00122527
-0.000267687
-0.000430099
0.451185
-0.124287
-0.0210009
-0.00507725
-0.00346993
0.00162083
-0.00953269
-0.00851297
0.127444
0.948019
1.09852
0.689514
-0.000117993
0.387967
0.110967
-0.0070293
-0.00521257
0.403982
-0.0157126
-0.147283
-0.000168866
-0.00474809
0.530683
3.76999e-05
-0.0619385
-0.0050858
-0.0388681
-0.0006702
0.683989
-0.0196908
0.641446
-0.00894132
-0.00103748
-0.00875278
0.000426958
0.590005
-0.00963577
0.000991742
-1.33995e-05
-0.078809
0.0182475
0.136273
-0.00763285
-0.000969311
0.236739
8.19131e-06
0.366986
0.116946
-0.000683959
0.405954
-0.0463184
-0.000134695
-0.00689015
0.000536769
-0.00104398
-0.00876008
0.415518
-0.0204729
-0.00130807
-0.0466805
-0.00268041
0.556825
0.870625
-0.00057946
-0.0110684
0.00115594
-0.00312595
0.510362
0.00153652
-0.000793258
0.33144
0.0668662
0.708899
-0.0091142
-0.000780293
0.356289
-0.00544558
-0.00945288
0.00605143
0.964734
-0.0340098
-0.00810795
-0.000931343
-0.00354367
0.955269
-0.017446
1.14671
0.231439
-0.00596488
0.000679048
-0.0235877
-0.0312516
-0.000276143
-0.00932492
0.936168
-2.43465e-05
-0.0211234
0.956361
0.000497757
-0.0102314
-0.000316513
0.000375349
-0.000321874
0.0335892
-0.00934583
0.000526519
-0.0843939
-0.000384125
-0.000262517
-0.000212478
-1.29408e-05
-0.0262712
-0.000245485
0.000868039
-0.0244521
-0.0176233
1.1397
0.0524465
-0.00837445
0.00125344
-4.03903e-05
-0.00945928
-0.000169483
0.167531
0.606728
0.000177566
-0.0234505
-0.00839734
0.0875346
-0.00268449
1.21382
-0.00140643
0.000952413
0.401844
-0.000172104
-0.000269266
-0.0194099
0.67152
0.000604759
0.570937
0.693196
-0.0101942
-0.0207839
0.848304
-0.00856538
0.00110435
-0.0191815
0.28973
0.167492
-0.0277334
-6.29462e-05
0.904737
0.000768429
0.00230217
0.00151712
0.00122965
1.06504
-0.00175975
-0.000145259
-0.0099737
0.268191
1.15147
0.663329
1.23223
-0.00120002
1.05241
-6.5307e-05
0.471833
0.0014354
0.000322305
0.232839
-0.0157795
0.145758
-0.00034375
-0.0267099
1.16406
-0.0154564
-0.0416378
-0.00198049
0.00091105
0.125509
-0.00157807
-0.0161455
-0.000253061
-0.0218558
0.000161645
1.17826
-0.00518268
-0.00910414
0.0990976
-0.0849251
0.228212
0.517132
-0.000359638
-0.0942189
0.320214
0.730128
1.21444
2.2126e-05
-0.0988668
-0.0886799
0.0010332
0.36932
0.420205
-0.0958127
0.96586
0.165434
0.230787
-0.0052172
0.630061
-0.0111128
-0.000612837
-0.000147388
-0.000279178
0.000534125
-0.00153871
-0.00621456
-0.000130168
-0.000839979
-0.000667797
7.69365e-05
0.328042
-0.0374855
2.92356e-06
1.17463
-0.00054614
-8.39927e-05
0.861489
1.21585
-0.0164939
-0.0125331
0.839918
-0.00207479
1.03366
0.0812684
-2.27751e-05
-0.054034
-0.0262558
-0.00246592
-0.000738576
0.548385
-4.79874e-05
-0.000398724
0.980795
0.000568946
-0.00223531
-0.0382093
-0.00657694
-0.0100638
-0.000416116
0.0543098
-0.00983423
-0.000256469
-0.012134
0.000756292
0.441665
5.63033e-05
1.44972e-05
0.00070436
0.940855
-0.00221256
0.000117538
-0.000285658
-0.00167739
0.901169
0.000592221
0.138791
0.83557
0.000445823
1.08287
0.774915
0.00079528
-0.0542069
-0.000522484
-0.00600301
1.03473
-0.00276655
0.000677353
-0.000173984
-0.0120123
0.00153793
0.000729309
-0.000485998
1.07007
-0.000164004
0.704736
-0.0173502
-0.0588642
-0.000184627
-0.0435138
-0.00182299
0.873422
0.896438
0.0833913
-0.00104428
-0.0306201
-0.0559534
0.220736
0.13741
0.317422
-0.0725653
-0.0448985
-0.0130925
-0.000106385
-0.000832365
0.000845694
-0.00179672
-0.00124644
-0.00151301
-0.000955198
0.00120645
-0.00654964
-0.00369741
-0.00135822
-0.0117809
-0.000343065
-0.00218707
-0.000223973
1.32168
0.134108
-0.00327596
-0.00299241
-0.00267104
-0.000174371
-0.000431494
-0.00196989
-0.00160831
-0.0264157
-0.000126578
-0.0131945
-0.000694279
0.000890623
-0.000352491
-0.0127774
-0.0283563
-0.00246755
0.940826
-0.0127237
0.676828
-0.0301435
1.00432
-0.020238
-0.0224318
-0.0238374
-0.0250708
-0.0255435
-0.0273092
-0.0276831
-0.000272347
-0.0287047
-0.0283237
0.885432
-0.0305177
-0.0344383
-0.0303784
-0.000503679
-0.0568935
-0.00628472
-0.000182226
-0.00428277
-9.21274e-05
-0.000738407
0.0269178
0.00098275
0.140524
0.744669
-0.0055196
-0.00122987
-0.00975797
-0.00331651
-0.00360648
-0.00699771
-0.00890982
0.000195289
1.19674
-0.00334828
-0.0119961
-0.00534164
0.001022
-0.00313478
-0.000449508
-0.0191896
-0.00433559
6.8255e-05
-0.000101778
0.00519698
-0.000225144
-0.00021245
-0.00610388
0.0114572
-3.95005e-05
-0.000688605
-0.000243008
-0.000208769
-0.000487628
-0.00191045
-0.000437048
0.000137682
-0.000979801
0.000398103
0.864878
0.000151224
0.000209328
0.00118941
-0.00195143
-0.000421735
-0.000464504
0.321572
-0.00714472
0.719959
-0.00174872
0.000107116
-0.000219657
0.645529
-0.0601101
-0.000437726
-0.000162716
-5.63492e-05
-0.0039892
-0.00133681
-0.0778923
9.94954e-05
-0.0298191
0.00018053
0.000223584
4.93252e-05
-0.00220959
-0.00142419
-0.0383067
0.841108
-0.0302409
-0.0027095
-4.04018e-05
-3.54516e-05
-0.015646
-0.000215657
-0.0102251
0.000167572
0.000454554
-0.000680064
-0.00825599
-0.00422324
-0.0892637
0.000192077
-0.00020295
-0.00839289
0.000195171
-0.0027525
-0.00045208
-0.000304794
-4.15229e-06
1.04453
0.000189552
1.24391
-0.00728403
-0.000900279
-0.000349565
-0.000212739
-0.000282484
-0.00814483
-0.000466675
-0.0575584
-0.000434543
-0.120841
-0.00347594
0.000204402
-0.000247225
-0.0038479
1.0527
-0.000353066
-0.0175842
-0.00113621
0.824184
-0.0297526
-0.0517465
-0.000275354
-0.09492
-0.00117769
-0.100318
-0.0195094
-0.000361402
-0.00255496
1.13443
-0.0484692
-0.00303989
-0.0009282
-9.80624e-05
0.701599
0.822095
-0.000103634
0.000777184
0.399189
-0.000281583
-0.00526447
-6.95551e-05
-0.000562028
-0.0252676
-0.0190574
-0.105733
-8.88546e-05
-0.00098765
-0.000272973
-0.000222352
-0.0437415
-0.0161964
0.416057
-0.0073317
-0.000130844
0.751113
-0.00602376
-0.000403043
-0.0301019
-0.00090934
-0.00123044
-0.000303825
-0.00777792
-0.00103406
-0.0140023
-0.000270015
-0.000832976
0.426007
-0.00522557
0.383084
0.98423
-0.00392124
-0.005258
-0.0642438
-0.00550523
1.1546
-0.00123459
0.000356391
-0.000155983
0.603513
1.06319
0.23023
-0.0142505
-0.0196654
-0.000251792
-0.00989909
-0.000622971
-0.00100923
-0.00212259
0.636812
-0.0186527
-0.00044666
-0.0021263
-0.00147043
0.0810879
0.630807
-0.0184159
-0.00682881
-0.00171513
-0.000634333
-0.000190144
1.0192
-0.00177692
0.000401896
0.000103752
0.00139063
-0.0103032
0.0949804
-0.00640939
-0.00760911
-0.018999
0.000123899
-0.000326521
0.462444
-0.0137817
0.000153847
-0.00234126
0.670161
-0.00210766
0.115849
0.844332
-0.000841624
-0.000165858
0.0860374
0.427097
0.198354
0.316382
-0.031409
0.000303521
-0.00054965
0.613932
-0.00196576
-0.00191973
-0.0286094
-0.00799405
-0.0556552
-0.0177822
-0.00256596
-0.0005802
0.562047
-0.00234859
-0.013488
0.892033
-0.01487
0.824778
5.72402e-05
-0.0118781
0.771245
1.16026
-0.0101892
-0.00590674
-0.0068482
0.000104163
-0.00368675
0.734595
-0.00297997
-0.0206077
-0.00302294
6.21276e-05
-0.000752834
-0.00259184
0.00014776
0.463406
0.000151106
-0.00877756
-0.00129645
-3.08836e-05
3.53971e-05
0.231038
0.561343
-0.0192339
-0.021774
-0.0242116
0.000131966
-0.00154706
0.000159125
-0.0235861
-0.0252992
0.353984
0.698774
-0.026491
0.288723
-0.00299604
-0.0431365
-0.00319916
-0.0267056
0.240742
0.173687
-0.0280966
0.0018513
0.748706
0.375485
-0.00385607
-0.000340682
0.000513864
1.03919
-0.000884823
-0.000271873
-0.00159596
-5.7595e-06
6.55467e-07
-0.00137259
-5.60221e-05
-0.00120172
0.17408
-0.032406
-0.000285637
-0.0150488
-0.0184065
-0.00393274
-0.0184215
-0.0192497
8.34763e-05
0.00119236
-0.00190021
-0.013679
0.680574
-0.000311542
-0.00233502
-0.00230955
-0.00017223