/*--------------------------------*- C++ -*----------------------------------*\
  =========                 |
  \\      /  F ield         | OpenFOAM: The Open Source CFD Toolbox
   \\    /   O peration     | Website:  https://openfoam.org
    \\  /    A nd           | Version:  7
     \\/     M anipulation  |
\*---------------------------------------------------------------------------*/
FoamFile
{
    version     2.0;
    format      ascii;
    class       surfaceScalarField;
    location    "21";
    object      phi;
}
// * * * * * * * * * * * * * * * * * * * * * * * * * * * * * * * * * * * * * //

dimensions      [0 3 -1 0 0 0 0];

internalField   nonuniform List<scalar> 
29574
(
587.887
-435.319
-152.569
270.688
43.0829
-313.77
945.376
-1135.73
190.353
-395.212
994.367
-599.155
-632.509
670.993
-38.4837
-687.337
54.8284
215.305
-38.9588
-176.346
636.85
-489.656
-147.194
208.949
-288.5
79.5508
91.2809
545.569
-84.2453
255.845
-171.6
-288.813
290.421
-1.60791
-233.41
-19.5815
252.992
34.6239
553.263
621.121
-650.089
28.9683
-965.148
569.936
-312.32
352.059
-39.739
-90.4391
-1022.81
1113.25
-257.273
230.58
26.6929
305.168
-34.4804
-303.26
293.612
9.64893
-30.6618
-258.152
-492.429
583.71
261.787
-318.391
56.6045
945.376
-355.536
66.0557
289.48
891.758
-975.82
84.0626
339.645
-147.506
-192.139
-158.738
-106.309
265.047
-111.296
-145.977
-592.321
740.86
-148.54
334.085
-279.177
-54.9079
403.344
-88.921
-314.422
555.888
-293.211
-262.677
-717.127
780.481
-63.3538
-731.132
138.811
157.329
-388.608
231.279
932.319
-932.319
784.359
-345.243
-439.117
275.217
446.612
-721.829
2.18595
799.839
-802.025
-318.791
101.888
216.904
-884.293
724.255
160.038
973.362
-81.6041
-105.45
-250.086
116.235
72.4203
-188.656
1139
-487.586
-651.416
337.995
-243.363
-94.6321
842.849
-30.4374
-812.412
239.008
-229.462
-9.54669
-787.818
70.6913
46.208
-754.555
708.347
-294.529
-128.203
422.733
763.039
-835.626
72.5865
172.85
-390.179
217.329
15.2892
-209.673
194.384
380.616
-110.293
-270.323
694.753
-751.383
56.6299
-58.4836
-294.624
353.108
-84.9807
-227.339
-646.22
404.057
242.162
-50.2014
244.09
-193.889
479.78
-482.383
2.60255
-207.112
-366.248
573.36
-697.567
828.027
-130.459
-715.217
107.383
607.835
539.521
-570.176
30.6548
-650.751
-64.4665
-173.847
-355.518
529.365
-115.266
-98.0598
213.325
360.857
-552.564
191.707
329.702
-225.946
-103.756
675.282
-54.1617
-272.017
-36.0609
308.078
1063.56
-565.303
-498.259
-78.8624
472.757
-393.895
336.151
-113.907
-222.244
-226.385
15.402
210.983
926.571
-651.354
591.083
-833.047
241.964
632.904
-525.521
816.872
-194.477
-622.395
297.14
-103.434
-193.706
296.563
-87.6141
133.736
-183.937
-625.085
-259.208
238.441
-282.074
43.6331
-33.136
136.324
-103.188
-674.291
467.179
119.706
-304.16
184.455
-434.742
717.94
-283.198
739.014
148.786
-887.8
904.493
-130.169
-774.325
172.492
-282.319
109.827
200.492
137.503
424.154
55.6267
248.643
-76.1507
-779.371
789.765
-10.3942
-321.491
237.246
1026.58
-923.68
-102.904
278.84
-159.135
405.888
-416.988
11.1002
160.458
137.685
-298.143
459.197
-182.925
-276.272
1231.06
-1231.06
471.597
37.2741
-508.871
-16.3885
257.546
-241.158
-478.566
243.42
235.146
264.992
8.93349
-273.925
-290.117
-64.9443
355.061
46.3919
-205.13
179.264
36.0407
395.905
-110.266
-285.638
-264.344
-401.375
665.719
-568.576
489.714
-568.668
-431.422
-410.034
-161.202
571.236
576.783
56.121
-314.994
2.09308
312.901
-1028.4
236.961
791.436
-170.789
909.803
52.1359
257.251
-309.387
377.452
-624.847
247.395
234.219
-361.935
127.716
130.608
425.279
788.026
-878.465
14.1174
224.495
-238.612
182.526
157.119
240.84
93.2451
119.263
-529.297
-28.9962
-151.216
180.212
20.9777
218.031
856.13
-853.945
291.205
493.154
119.653
-361.791
242.138
266.523
964.534
300.339
-74.2369
-226.102
-277.454
-25.8068
-406.468
35.6255
370.843
102.583
63.9163
-166.499
290.528
-238.392
30.5371
-302.554
180.941
148.761
-301.188
191.436
109.752
-574.307
93.8751
480.432
-127.037
246.69
-304.918
87.2817
217.636
-94.478
-223.272
317.75
8.36893
309.348
-317.717
-764.423
-211.398
127.508
-221.986
220.885
971.752
-67.2584
-230.345
-50.5461
280.892
151.199
665.673
-285.978
-18.9404
-752.811
127.726
75.4424
186.344
68.898
-159.887
90.989
-11.331
-222.079
-170.953
343.802
-236.373
197.415
-36.3786
-404.825
-169.482
-200.864
-672.777
873.641
-144.327
111.191
346.064
59.8238
271.031
26.1088
438.296
34.4616
-356.479
513.808
354.147
-53.8075
-168.693
-149.452
318.145
10.5877
-223.331
212.743
399.665
-442.81
43.1452
97.0681
94.8417
-191.91
46.0503
357.293
-571.556
509.077
62.4798
-533.853
-33.0077
566.86
-438.431
-130.145
-6.3827
221.441
-215.059
59.0853
-228.601
169.516
735.544
196.775
342.581
38.6333
-381.215
-71.4654
216.538
-145.073
266.967
38.2009
227.416
-124.033
-103.383
585.042
-224.185
29.7017
996.883
144.203
209.658
117.588
-327.246
293.98
-279.863
245.761
-392.154
146.393
71.5983
-995.278
-596.145
422.299
217.84
-148.942
-44.8142
309.105
-264.291
93.2207
249.361
-54.4283
320.063
-265.635
325.056
-58.0887
-6.12599
215.784
258.779
-395.849
137.07
-93.5061
329.147
-235.641
-477.455
147.806
-335.275
187.47
268.378
-379.493
111.115
-313.505
285.524
27.9814
-8.11789
-328.142
336.26
773.007
-726.799
197.953
-182.664
619.5
-634.785
15.2855
414.426
125.095
-851.344
510.105
341.24
-39.0966
304.213
-265.117
-86.6356
-150.677
237.312
-296.5
558.104
505.458
513.682
-513.682
-533.667
-494.73
-262.507
-216.059
898.745
-607.54
0.236982
264.606
-264.843
-163.774
-275.748
439.522
67.2444
163.038
-230.282
524.492
-959.234
-347.861
282.916
-12.7268
-393.742
352.656
-360.774
-1068.66
499.99
-485.072
485.072
-641.621
-6.25832
647.88
654.321
-276.869
291.221
131.757
-422.978
-330.072
313.684
-217.598
205.284
12.313
-554.499
841.371
-286.873
306.665
-68.224
567.317
-95.7202
-413.577
244.884
181.115
67.5277
-658.484
494.709
244.189
-358.096
87.8968
-174.532
269.727
112.5
-382.227
352.06
-117.841
-987.06
-243.997
622.37
-45.5868
-81.2164
281.895
-200.678
546.266
-469.974
-76.2917
-78.1399
771.158
-693.019
-53.2113
896.061
263.288
1.70326
-116.1
183.345
-91.2224
565.717
-474.495
-542.245
197.002
-166.633
11.8954
154.737
-131.068
422.289
-47.928
226.415
-178.487
-73.1768
-245.615
192.916
-90.333
-77.2742
193.51
19.2
-248.536
229.336
33.9896
456.788
-490.777
710.328
49.3845
-759.712
286.927
19.7381
-77.4762
-158.897
-140.73
43.9284
240.91
-284.838
34.7733
361.131
208.664
-763.163
307.012
-194.734
-87.3397
122.543
-820.675
698.131
66.2177
-400.121
-170.055
-292.948
211.856
81.0926
-331.417
-314.803
567.76
-999.182
237.973
-50.4468
-187.526
-57.2638
258.541
-201.278
-1040.11
347.782
692.328
-45.793
377.502
-331.709
324.753
55.8637
-238.193
87.4076
150.785
357.689
-106.065
-251.624
385.264
-139.503
-160.8
298.485
265.394
-214.316
142.005
-199.269
-109.095
615.687
-506.593
754.009
-162.926
-118.37
-369.703
488.073
854.047
-731.504
261.123
-217.194
-30.7954
-325.683
-536.933
75.0998
86.5674
-161.667
364.931
-88.9024
-276.028
-89.2231
185.434
-96.2107
394.255
-135.476
-118.484
-351.833
470.316
7.63944
843.963
-851.602
-776.651
804.019
-27.3679
-242.907
50.4018
192.506
-754.191
440.451
313.74
51.973
-163.269
0.600649
174.916
-175.517
-296.769
266.107
6.15515
-230.396
224.241
246.719
-25.2774
178.22
-545.889
367.669
230.204
-211.004
-40.247
-186.138
-64.7914
578.599
360.898
-79.2198
-281.679
-733.883
741.522
-463.273
362.637
100.637
460.616
-341.352
483.668
-854.469
370.801
-291.307
-98.8722
-726.495
28.9271
-179.195
-58.9977
-645.871
631.658
14.2132
-180.826
351.418
-170.592
316.084
310.502
263.05
-169.04
-94.0102
264.183
-261.473
-491.338
-197.91
-84.4086
272.809
-208.09
-64.7196
-560.919
17.3293
543.59
173.261
-76.193
1006.27
-1006.27
433.654
-501.741
-538.368
156.18
191.028
-347.207
-489.699
458.903
-331.803
295.742
-327.694
416.511
167.958
-584.469
50.5974
712.442
560.119
-143.607
437.709
-598.912
102.267
209.208
-311.476
-207.799
-213.565
421.364
313.026
76.2307
-389.257
-297.327
-544.669
841.996
491.217
-755.561
379.161
29.1136
-408.274
-1022.81
417.607
96.0746
287.786
-277.198
301.4
-359.883
-11.7966
122.207
-110.411
13.0747
-262.369
-254.177
11.7942
242.383
250.293
22.5167
317.58
-389.045
226.671
-92.9353
-554.448
-198.098
-106.062
-391.047
-363.144
-973.992
-182.869
1156.86
-497.775
963.158
-465.383
-130.361
-3.97916
134.34
-668.668
636.847
31.8209
-246.331
377.164
-130.833
244.106
302.16
2.28206
-211.955
873.915
-912.453
38.5382
434.697
-119.739
221.627
-376.853
165.222
211.63
-255.592
68.9956
186.596
-495.71
-65.2092
134.91
-245.203
356.105
-86.3776
-1112.93
912.062
-557.525
466.303
-97.8271
210.801
-112.973
-71.026
382.549
-311.523
381.025
-357.168
-23.8566
-367.676
45.4328
-212.065
-312.846
689.669
-376.823
-67.3748
-254.116
-91.1245
470.285
4.42004
192.141
-196.561
936.141
202.86
-361.174
-15.679
170.101
210.924
-372.898
-456.219
829.117
-864.583
376.997
433.627
-949.452
515.825
100.973
-439.1
338.127
-277.176
187.953
-11.503
468.291
-135.44
-199.835
-427.383
148.206
616.147
6.22326
24.9479
213.025
437.952
-79.6832
-358.269
-106.587
-88.1546
194.742
128.886
231.536
-304.713
9.11137
-107.68
-41.108
148.788
-384.516
-17.7181
402.234
-27.3044
327.581
-300.276
-103.324
494.108
-390.784
-420.843
387.738
-74.7117
-901.024
822.884
357.111
-319.837
-69.8858
-322.268
-73.2222
-322.627
-655.543
-123.828
-534.739
296.199
238.54
-290.534
64.5876
-128.722
124.527
37.8405
191.07
410.819
-601.889
29.3713
-290.55
47.1868
27.117
292.946
150.852
-261.119
-54.3092
-285.829
340.138
-810.736
796.288
14.4478
232.47
-252.668
20.198
362.561
536.184
273.094
-379.159
-19.1064
306.033
-724.585
694.147
289.722
-210.918
-78.804
296.507
12.5977
-174.909
-164.54
-312.716
477.256
-214.846
-98.6585
301.085
-389.987
439.252
-557.736
118.616
77.522
-196.138
206.02
-128.321
-77.6991
277.997
-650.895
156.178
-511.697
242.464
-93.9734
-148.491
47.7136
-812.136
-430.309
308.696
-387.916
-591.281
692.255
-501.615
96.7901
368.308
-665.635
120.103
-235.102
114.999
-849.693
897.407
-30.2553
-7.1089
806.948
-219.499
216.931
2.56751
-311.237
197.456
113.781
-241.944
-137.549
-56.2286
425.162
-368.934
551.219
-660.313
43.9997
-227.124
183.124
172.463
-128.463
344.036
83.42
-264.246
172.587
20.3286
-142.498
766.799
107.116
-447.774
171.502
-215.436
178.798
36.6378
191.458
-239.386
-2.1752
191.986
-189.811
-350.486
296.177
-223.431
-14.2521
237.683
-545.089
426.72
208.106
-199.737
-580.979
-64.8918
614.793
4.70636
-313.428
-215.869
175.898
-88.6202
-87.278
-116.054
-97.0382
213.092
175.452
-238.637
63.1853
-44.0533
291.151
-247.098
-226.024
214.307
11.7166
-196.384
-29.6403
352.547
85.4058
984.061
-717.538
-278.343
-308.23
240.856
190.836
32.9892
-223.825
-980.081
802.647
177.434
-367.29
170.447
196.843
-503.393
-146.843
650.236
-158.939
-806.208
-11.9624
-286.181
-467.705
449.987
-96.6048
-214.632
257.413
1.12863
658.33
-101.316
-557.014
347.48
-450.804
-159.214
756.28
-597.066
-228.455
-207.759
436.214
-286.442
270.498
15.9443
5.94222
-68.5522
244.004
-113.213
-179.735
-528.076
-6.66262
-16.1668
-90.7303
-744.895
39.6192
-432.249
-212.79
96.7364
-277.932
171.622
699.035
256.158
-306.704
163.719
63.6976
-332.242
-1.52549
333.768
-266.11
10.5188
-37.0101
-996.879
778.576
218.303
-21.8954
227.18
-88.9286
273.383
493.812
-523.289
29.4778
-301.78
-161.494
-361.518
397.143
-45.2271
136.907
-91.6796
998.417
-821.821
-176.597
43.8749
-575.402
531.527
-26.8847
-125.952
152.836
-156.158
-134.375
487.506
-63.352
-255.791
499.897
-558.75
120.644
438.106
-208.082
274.138
520.118
-387.731
-132.387
294.684
8.40094
-303.085
-277.73
196.514
670.603
-101.78
-568.823
431.728
-240.658
-433.122
389.426
43.6953
268.212
13.6824
-288.58
-43.6619
-180.325
56.2912
201.208
-500.496
65.4979
434.998
-261.423
261.66
-391.452
364.147
-323.395
-67.4646
-417.607
-456.3
400.072
-530.603
1001.8
-471.195
-118.777
73.5502
-175.718
-191.572
488.171
-50.1819
-437.989
-17.3265
-299.419
316.745
-503.436
561.518
-58.0818
440.435
203.695
-100.291
-103.405
197.543
-241.596
199.389
-201.564
-311.746
103.656
464.399
-420.524
-10.9733
-275.469
65.5813
-902.528
902.528
123.256
3.63018
420.575
-424.205
-163.038
181.404
-18.3663
-511.376
303.577
-424.095
67.8754
356.22
56.1098
119.788
-509.638
404.012
105.627
-206.554
436.563
50.943
308.054
41.9558
-350.01
337.33
-80.0797
-422.299
-47.6751
116.085
-357.132
286.106
338.514
-250.951
-87.5639
-32.9761
145.346
-112.37
-973.992
-297.011
-187.569
83.9807
103.588
-337.526
248.605
-425.763
-523.69
247.676
558.765
-806.441
-145.461
-531.188
676.649
-480.982
167.553
-20.5191
193.106
214.834
-15.4448
-657.369
640.577
16.7919
79.6502
352.077
288.274
-70.7544
-217.52
-102.227
-558.425
660.652
-575.628
813.363
-237.735
-596.086
57.4359
-804.243
204.984
599.259
-985.713
433.818
551.896
-287.058
-271.692
-117.747
474.859
-968.585
437.982
-675.544
814.393
-138.849
650.445
-752.672
-210.404
251.433
-230.455
124.322
-799.867
-164.269
-694.359
858.628
672.606
-2.00303
501.228
326.799
-91.2728
291.765
-92.0233
88.0442
-151.356
218.904
-585.152
254.13
-226.907
-27.2227
-123.819
343.41
-219.59
-170.689
-119.861
522.737
-28.9253
-291.584
274.258
13.219
623.628
-703.883
-650.696
-254.363
-246.133
37.8071
218.038
26.6737
478.572
-505.246
-382.62
345.215
37.4044
-140.929
156.331
561.616
440.182
-378.146
-171.02
549.166
172.126
-257.107
-105.005
285.946
-70.6386
-353.457
181.628
-255.865
-233.667
313.318
202.349
-129.929
-446.415
-539.299
-290.208
-11.1962
301.404
-331.911
194.256
137.655
-173.73
178.15
-241.523
-90.388
225.212
-219.057
250.821
-282.373
31.5514
315.093
-87.218
-227.875
-805.23
646.291
-312.202
-326.876
80.5451
-319.664
348.777
274.55
-78.7179
519.153
182.426
-19.3881
267.436
557.916
-825.352
-194.551
165.79
40.2302
-571.968
407.428
-974.837
302.06
318.157
-815.933
-473.103
-73
546.103
-527.632
450.07
77.5621
283.194
-207.087
44.0494
-643.676
387.884
-38.9316
159.035
-353.611
380.285
137.995
-525.726
-121.752
-36.7285
217.843
-7.34701
277.845
270.559
-80.5637
175.405
770.115
1.04326
295.452
-279.473
-15.9795
-273.795
-87.9961
-90.8602
-33.3877
265.857
713.8
249.358
54.8774
218.506
341.811
-97.6217
-66.4811
315.392
-248.911
-455.048
85.3446
494.739
-230.5
-264.24
288.859
-296.206
-16.7956
-674.054
690.85
224.436
-827.918
460.242
-235.051
75.0562
-356.735
-123.505
-392.776
516.281
-124.822
136.717
245.753
-337.026
326.343
-16.9945
-869.12
335.267
87.773
-363.801
-726.053
-521.446
-458.635
238.739
102.67
-354.294
228.718
-333.723
160.015
82.449
151.449
-222.395
70.9456
-510.743
158.911
501.849
-922.692
-148.474
59.8537
458.267
26.805
-574.789
-422.09
18.1095
-599.089
-3.58787
298.272
-102.757
410.698
-307.941
-107.063
-84.8473
150.928
-227.029
-69.4711
-343.814
378.587
-260.565
-55.9088
316.474
-66.8914
261.147
-284.166
-260.197
242.191
18.0064
43.8084
-249.569
324.626
369.275
-63.727
-318.893
-21.2472
235.554
205.17
-28.2391
-176.931
-87.9341
-466.684
53.8181
412.866
-291.552
-133.347
424.9
182.713
-215.689
333.526
-241.786
62.5904
-197.007
-120.57
317.577
815.549
331.388
-38.7436
-211.032
249.776
-22.7644
-504.867
-290.208
-732.842
342.771
390.071
3.92536
-297.136
-9.52105
250.361
-12.9593
229.89
281.418
-331.87
50.4515
-462.714
-133.432
-543.654
181.26
362.394
211.442
26.2413
237.869
344.125
-612.842
268.717
241.205
-411.651
170.446
-358.899
406.988
-664.731
257.744
984.978
-955.276
-769.065
456.22
-447.091
-115.07
562.161
171.485
123.967
-312.093
578.088
-411.125
-166.963
384.922
-212.796
-827.016
251.388
250.552
244.187
-237.429
81.2708
400.932
-87.2483
179.705
-182.01
2.30422
232.581
11.5088
578.172
-611.18
-503.438
173.803
329.635
75.4061
-361.784
-127.332
489.116
87.4308
390.577
-208.949
265.114
59.9416
-456.869
155.089
311.014
109.551
-420.565
118.431
-216.258
-188.03
-229.204
-206.114
-361.869
18.0551
-28.5041
-628.865
-34.8905
230.849
-195.958
-300.845
185.563
115.281
-385.816
-120.238
506.054
-273.938
-73.9223
189.177
15.9935
-343.605
81.6065
183.237
76.6849
-259.922
-266.152
-139.999
406.151
-367.27
-291.469
271.667
19.8013
113.375
-342.994
229.619
163.345
-231.999
68.654
-37.1162
-121.19
-283.879
405.069
-367.318
231.879
211.517
-440.721
-250.156
107.402
142.754
-463.181
150.465
35.0723
-440.127
405.055
-197.05
-63.147
182.341
423.769
-350.282
-73.4872
-208.856
203.139
5.7173
-264.161
123.536
140.625
-78.2416
-137.194
-327.456
-116.536
919.183
-216.362
-32.1732
271.442
-479.101
317.607
108.516
-308.582
200.066
-398.516
-143.054
541.569
-471.73
-215.607
219.92
-29.0845
277.113
689.989
-706.784
-49.1188
-272.341
321.46
82.1875
-711.337
629.149
208.302
96.0776
-304.379
304.441
-113.413
-238.12
226.158
-363.209
-47.3325
410.542
-710.545
39.2649
671.28
-499.37
-159.114
-96.1465
-295.305
522.639
-41.0842
-774.514
-19.7187
794.232
-204.515
558.765
-354.251
-211.682
479.118
149.466
-511.25
321.494
-112.286
122.508
443.209
-426.072
429.703
-320.888
-145.595
466.483
-523.627
50.524
317.523
45.1141
21.049
-259.169
262.186
-72.0435
-190.142
-106.721
-109.811
297.765
-83.2246
-273.907
47.6045
226.534
-299.567
-98.7295
398.296
-277.663
344.99
-67.3272
-82.7309
274.189
-333.598
-137.912
471.51
-233.208
103.325
129.883
-132.957
-50.6711
55.7815
-651.065
595.284
-181.072
-252.05
-301.32
-244.569
-334.726
-95.5829
-210.044
-78.4653
288.509
415.171
639.749
171.211
-228.176
56.9644
163.852
528.403
224.235
37.9507
176.583
-253.937
77.3543
-401.241
-143.849
-527.452
-97.8418
362.025
-180.371
316.003
-32.8086
654.34
-159.63
-4.6165
229.828
-242.148
277.705
-35.5572
713.588
0.76992
288.089
-601.866
492.295
109.572
220.089
68.1851
205.229
-42.2272
219.346
-325.408
77.6648
-327.751
18.4504
-355.048
358.93
-3.88176
83.6592
-186.847
169.995
48.0172
-320.487
319.992
0.495679
290.363
-346.272
247.749
-18.4139
-368.522
-121.177
-63.9812
280.885
11.9918
242.138
302.795
5.28274
-388.711
-117.694
506.405
-78.661
-150.801
-196.547
-30.5766
56.869
250.143
260.173
-293.56
315.037
-60.1226
-257.061
285.67
-28.6087
-1061.57
717.028
344.545
-421.352
129.8
327.732
9.2309
-336.963
-66.5872
352.693
565.886
-177.151
-34.3929
211.544
-70.9673
-225.802
-261.979
-61.5496
323.529
-285.437
-59.4965
344.933
-69.9679
-510.044
-91.8222
-797.935
785.568
12.3667
34.8352
248.53
-283.365
40.9817
317.355
-187.722
473.831
-286.109
-231.875
-76.3552
-476.941
103.532
-210.594
185.966
-244.964
-315.12
-112.08
427.201
-118.877
464.761
-345.884
-381.674
-86.0311
-235.062
-101.964
2.18573
-435.26
-122.265
-201.124
683.73
15.283
647.948
-663.231
-197.746
46.5296
229.343
-814.577
585.234
147.472
-389.416
304.439
-46.8925
90.8103
-1019.06
-222.698
-111.026
439.208
-5.55354
-518.754
-391.453
-117.418
-657.423
205.558
-398.097
192.54
-6.80914
297.96
-339.201
-92.6983
431.9
-16.2418
-280.174
296.415
830.008
-116.42
-491.663
480.16
-59.3424
-715.171
-91.8904
456.038
-846.769
783.415
296.896
-472.828
402.189
-93.4696
-117.448
162.877
176.385
-339.262
-438.241
-245.923
183.768
19.1871
-202.955
-209.106
914.54
30.8357
-991.999
559.75
-211.683
-100.705
312.388
749.975
38.051
357.746
-74.8295
373.336
-355.281
-402.075
407.557
-5.48218
328.704
-325.417
-3.2868
362.635
-85.5225
-17.6923
-430.307
-145.095
-221.772
-125.435
-197.72
-113.756
-609.064
815.123
-206.06
-238.794
-2.7289
-217.847
-435.348
-462.207
412.025
78.3752
-305.404
-94.4886
-125.347
219.835
-43.2545
389.226
-345.971
352.969
-56.792
217.8
-68.6386
-149.162
98.5533
-224.505
134.522
130.872
310.341
-102.039
-329.694
-90.8163
228.32
565.663
-138.944
26.2476
-773.57
747.323
-272.6
110.469
-191.033
-30.1211
-76.4069
342.514
58.0318
771.829
-699.243
856.42
-110.854
-745.566
377.359
-75.0967
-302.262
103.022
-215.995
-92.0906
507.978
-415.887
-229.596
-58.9038
23.097
-734.434
450.593
-77.4803
-290.71
286.061
4.64863
-212.128
-43.0616
255.19
203.376
25.8294
-229.206
-35.0563
-90.6652
-449.282
-612.291
-427.135
201.851
0.704812
-199.529
-19.3071
243.743
56.665
-537.69
481.025
-325.976
221.825
-397.544
150.862
-350.697
684.01
-326.454
68.0959
-268.815
200.719
-141.739
306.961
593.118
-155.409
-205.855
-141.64
230.186
907.155
89.7274
-301.404
225.253
46.4436
725.385
-11.8955
191.601
-323.639
-93.3486
396.214
-87.5174
-451.956
-518.835
152.704
366.131
-164.888
-533.321
698.208
-574.237
1008.93
-747.703
138.64
-479.193
-274.66
272.604
112.66
-934.167
56.8562
877.31
-348.418
396.22
-95.1358
-9.20326
361.859
329.949
15.0411
227.705
-196.69
-31.0145
-306.995
97.8887
-193.54
-15.3157
242.993
372.425
-99.3309
666.41
-134.883
287.506
106.748
565.329
-126.077
515.214
-104.395
253.836
-37.2303
-216.605
438.471
-493.684
-336.946
830.63
543.512
-247.314
-293.816
-552.389
80.7501
471.639
310.545
-69.6894
-711.322
677.46
33.8617
523.726
-73.7396
-29.6092
635.153
-605.544
-376.62
289.402
292.338
84.8258
425.31
134.808
-382.791
215.997
-32.8731
359.846
-6.87744
-433.455
-125.806
-48.8878
591.904
322.755
-316.179
-6.57557
-525.369
62.6556
-382.447
-332.274
299.466
50.8698
326.632
-292.774
343.031
-53.6292
-145.705
-271.664
-266.063
-16.5766
282.64
-401.341
-112.34
-34.637
547.161
-38.0839
-5.7966
474.087
579.898
-26.3545
-160.44
-268.318
326.274
-57.9558
-58.5484
225.936
32.147
-743.468
-322.178
-235.729
355.129
-390.379
-65.9213
461.896
642.576
213.424
-856
-155.315
581.102
-130.509
324.715
-244.518
-80.1968
-74.3591
-597.277
-206.967
32.1403
200.721
129.228
-139.588
208.242
-283.066
-299.196
347.809
-48.6123
220.802
312.687
-430.434
727.496
429.365
-303.885
372.068
-68.1838
-265.476
-470.266
-219.847
837.466
18.954
413.017
-53.1704
-966.105
31.9385
390.942
-73.3622
-745.268
-12.5548
-309.713
634.256
206.527
-87.911
-95.5445
10.6581
295.375
-387.357
-3.63592
390.993
-240.383
-141.844
202.09
-112.175
-474.319
-97.6486
496.867
-89.4393
345.549
-5.12282
-317.504
-106.555
-132.425
-518.775
373.314
-112.933
652.973
-629.876
-274.583
373.004
-98.4209
-236.779
66.0891
281.769
22.4442
-446.382
-476.31
-409.212
973.243
-465.005
-508.238
575.171
-108.868
-517.654
-126.022
-95.5775
18.083
520.179
-132.295
18.2473
53.8585
176.99
-226.284
-221.49
56.9085
-102.481
555.604
-133.305
-404.772
-340.66
285.753
264.7
1.15724
436.741
-91.1913
-52.5977
-148.526
-148.856
-306.881
31.4124
75.0356
-271.583
440.584
-651.982
608.406
-112.473
-495.933
758.86
-726.713
428.087
-72.9572
-249.803
-286.488
40.8948
587.822
-125.927
-758.304
784.552
216.641
-2.22674
-214.414
-145.574
223.95
462.369
-62.297
613.973
-146.794
-280.927
281.697
-109.731
-77.8381
-210.243
266.58
-56.3377
-97.6172
269.103
299.034
-42.8761
-37.2832
250.384
-473.53
-277.853
271.184
-235.484
-35.7007
-425.793
414.25
11.5427
-17.6495
-135.451
305.552
293.391
-298.992
5.60132
-249.076
-85.4218
-13.9765
136.184
-321.145
414.922
-43.0048
787.151
-744.146
-507.592
346.062
-33.3755
33.4136
345.482
13.3271
-358.809
7.1089
382.317
226.428
497.827
34.1644
501.187
17.9658
355.992
-47.9383
-69.0762
245.659
261.619
53.773
-871.281
886.564
-302.38
283.66
18.7197
-548.201
249.06
1.32389
800.295
-590.856
-209.439
260.095
-184.019
-76.0762
433.411
228.358
29.7115
493.025
-198.13
617.745
-419.615
95.7466
-51.3053
845.311
-794.005
-424.026
302.837
476.3
198.982
234.568
0.986975
223.259
-186.294
-482.654
668.948
39.7672
207.982
61.9534
-559.731
571.05
-508.57
813.79
-264.55
-549.239
-286.54
-190.915
67.8914
270.897
0.770445
-225.439
-284.199
-357.327
-507.256
3.97744
185.517
-189.494
291.143
264.032
193.639
-792.473
768.52
23.9535
-23.3718
408.103
-455.113
47.0097
278.761
79.461
-0.319741
780.666
-780.347
95.1187
231.155
60.3346
84.8486
-291.914
305.37
-13.4554
-918.502
-55.4898
195.964
-129.223
-487.348
616.571
-294.159
852.924
-147.694
-395.395
-129.974
-560.798
106.193
382.922
30.645
-254.657
-26.2703
198.744
-144.885
13.6252
853.945
48.5833
-14.7591
302.848
472.552
-356.819
-115.733
-630.299
237.827
392.473
133.158
164.607
361.75
-356.502
268.938
145.836
281.365
229.618
252.716
32.9545
69.6229
-483.522
413.899
834.923
-240.231
-594.692
168.106
214.671
-382.777
364.016
402.004
248.36
3.81517
-626.318
-306.001
268.027
-889.774
367.854
80.8311
-473.607
79.9107
-635.731
-98.7028
245.532
-359.163
387.178
553.618
-568.198
645.012
-76.8138
-11.2949
372.426
410.836
-346.375
-37.9071
170.707
-132.8
-303.299
295.509
-17.6645
661.204
-346.454
-22.5991
376.619
-354.02
86.4641
-180.156
253.251
-73.0945
-288.303
234.5
53.8028
274.001
539.789
139.351
-402.646
449.269
-1113.25
1112.93
124.784
-10.2175
438.186
166.255
-55.786
415.036
346.557
214.933
22.3788
288.713
364.536
-25.8311
-338.705
-649.834
648.848
0.986165
230.925
196.778
-11.2607
501.645
-432.022
-211.468
765.086
298.921
83.8533
269.858
-367.48
-173.356
26.7758
244.409
777.572
-172.206
-605.366
-883.678
955.276
295.002
372.062
251.641
-242.41
554.125
-992.367
459.925
340.009
326.639
-37.532
464.799
291.344
59.4741
-416.85
357.375
-216.947
325.204
-13.6042
-23.7365
-824.333
694.165
852.736
-202.291
334.187
280.055
124.401
339.562
-19.992
-319.57
269.349
311.946
292.636
-188.595
88.3044
-273.117
282.781
-9.66415
442.457
-557.259
-249.182
-3.37187
218.305
460.786
-578.48
-276.312
21.6553
465.557
-128.094
-235.019
363.113
-331.13
-187.705
634.601
106.26
426.412
-943.646
517.234
-460.029
418.176
41.8531
-3.02634
252.928
-249.901
349.617
-263.153
259.083
-236.332
-22.7514
316.23
39.1069
-219.263
-849.693
82.6649
353.965
-436.63
-32.4004
723.065
-690.664
322.426
-295.461
-26.9649
-445.665
468.878
321.279
-263.247
-399.985
978.642
-578.657
277.664
-13.8274
197.595
542.267
457.733
-181.984
208.274
12.3859
-220.66
-27.89
398.733
-593.407
33.5697
559.837
203.024
257.053
-359.017
-41.7863
-384.007
-914.54
863.235
-491.762
1034.03
336.646
-57.7914
238.567
-1.83672
-236.73
488.819
-435.001
55.0033
-706.068
-459.847
-0.181707
-257.173
318.697
-469.481
-499.104
298.241
-18.7665
-279.475
-959.489
425.822
-797.935
156.608
32.8369
-189.445
30.282
598.867
648.213
-634
-278.196
836.112
-72.8002
221.561
375.935
-544.263
168.328
-131.195
353.987
-222.792
-704.067
750.51
-386.41
217.684
-223.627
232.731
-9.10341
-275.549
701.961
313.731
635.407
27.714
-786.018
-231.524
241.634
-352.66
-37.6275
-228.495
240.289
-897.407
981.469
175.511
39.2366
-214.748
263.477
-314.084
-74.9609
5.5322
390.657
210.294
-600.951
502.74
-902.725
518.012
-53.6134
-222.445
-3.13692
225.582
-114.298
-192.583
-301.965
74.0897
-165.85
-136.704
302.434
291.174
-264.398
-117.052
-317.051
434.103
280.75
289.392
-17.5363
-293.136
310.673
-691.03
16.9764
856.13
-918.502
984.978
-987.06
964.534
1004.65
-1004.65
-883.678
-1019.06
277.229
-246.584
-242.208
-247.261
-187.298
-2.51301
753.061
-965.934
212.873
-886.564
11.4595
-281.783
191.784
-35.176
-763.471
791.185
227.712
-6.83522
-220.877
-277.267
261.025
-11.8343
-249.421
261.255
248.166
-14.1885
-233.978
201.564
-228.787
-23.5996
-253.127
276.726
-187.67
200.414
-12.7443
250.217
280.705
-347.374
406.848
105.073
-182.008
76.9351
-389.449
-605.83
-193.895
207.161
-13.2661
-419.583
-84.0504
503.633
194.126
-174.939
40.9182
201.498
-25.9862
-360.362
272.365
508.223
-121.045
209.683
460.839
-52.7359
310.517
-394.32
83.8029
18.5634
-636.593
666.875
263.158
-461.288
-783.706
730.292
53.4131
480.784
497.858
71.2769
436.946
-272.651
265.842
-73.0863
-710.619
236.129
-336.834
724.052
-930.112
341.861
-758.809
416.948
127.467
263.731
-205.665
-58.0659
-52.9238
-387.593
-868.101
592.551
-1.95445
257.319
3.80221
-307.614
303.812
16.3793
-49.3849
235.891
281.458
-37.0498
185.202
-58.2178
-126.985
738.698
20.1624
272.408
302.803
6.51944
179.705
-227.867
48.162
234.286
-300.101
296.513
-325.61
-202.868
217.105
-14.2369
74.6194
-494.202
240.229
174.694
-83.5261
836.587
-609.071
442.109
573.875
-676.78
219.539
-331.825
310.661
-441.856
185.639
-311.074
218.272
-192.443
-327.979
214.566
-190.171
-7.66916
197.84
216.466
-330.222
368.055
-266.096
-101.959
-4.96845
485.993
-442.487
-560.369
1002.86
-752.176
650.395
-50.538
-320.255
370.793
21.3865
57.0851
-291.354
281.833
-269.238
-7.07411
196.697
61.318
-258.015
-183.436
-214.661
-295.19
223.004
-208.582
-14.4211
-307.614
-408.906
408.906
186.413
-658.143
166.147
177.656
303.812
727.243
-234.949
-41.9007
-645.673
687.573
525.312
-87.2055
235.541
-364.658
315.539
392.972
243.264
4.2931
231.88
-171.976
-59.9047
-33.2312
-686.781
686.781
-175.629
-387.257
-92.3665
-118.228
206.397
20.2744
-141.121
208.649
-423.145
478.772
-148.045
-202.652
739.221
-504.092
-235.129
-110.376
-105.619
545.787
-178.119
-112.033
-40.7858
-488.136
528.922
-500.598
-287.22
511.273
-18.2473
-19.1185
-737.872
551.578
-457.984
-65.6437
767.833
19.3177
230.894
-112.943
773.714
-660.771
102.483
866.353
683.194
853.899
148.316
-216.955
-386.597
-73.2501
-235.404
249.543
-227.968
49.4065
-168.815
-897.776
41.3839
856.392
11.7025
392.355
812.91
-262.092
246.849
15.2422
1066.38
-542.376
-524.007
-168.568
4.33953
475.821
202.56
-36.7705
269.796
279.37
423.801
-772.038
956.3
-184.263
-346.342
5.68127
231.912
17.7235
666.007
-85.2128
-217.167
-167.058
-242.154
208.6
92.3036
634.94
689.927
-731.828
91.481
-795.548
22.8344
654.625
752.256
-849.585
97.3291
-627.632
535.878
91.7544
627.24
-563.557
-63.6834
-446.487
521.107
55.9658
-80.2474
-122.42
202.668
122.93
305.454
-602.691
443.577
188.525
-188.525
-199.464
218.609
-879.219
436.731
-666.7
537.477
-552.389
871.281
-954.807
23.7972
-237.429
204.902
-166.504
-222.913
-246.108
21.2223
357.365
35.4207
341.938
-351.432
-362.525
37.1075
433.36
-680.673
-55.3065
-726.764
782.071
225.21
-268.272
55.1575
105.323
-230.67
-623.634
655.455
-196.642
-48.3223
8.12837
544.013
145.656
-309.066
-23.2082
-455.102
957.842
864.237
-864.237
333.223
43.3965
10.9277
463.16
-761.532
17.3862
651.018
15.8575
80.3032
417.348
-497.652
215.168
302.144
-3.87191
9.0072
673.141
17.7085
-850.188
643.222
195.547
303.205
-498.752
-826.127
561.577
210.27
-411.849
19.743
-649.619
-184.624
-53.319
237.943
-81.4557
197.009
-115.553
15.212
44.7125
356.272
40.8716
-202.066
17.3381
-285.053
526.829
659.618
63.4465
12.3281
136.18
-85.4278
-197.937
196.408
395.616
-501.756
-707.835
-64.2023
-198.787
-466.996
-476.65
-274.05
-360.735
624.601
-515.029
6.71963
798.53
-805.25
318.047
50.008
392.559
-59.3364
619.799
-55.6266
-564.173
313.79
-18.0479
-571.352
-101.759
673.11
-28.3459
-251.517
-607.388
447.757
-169.628
-71.8579
241.486
235.222
611.281
66.3014
-238.033
-87.3752
24.5789
203.987
-546.119
638.423
193.929
3.66626
-199.976
396.752
-196.776
310.019
-866.064
556.045