/*--------------------------------*- C++ -*----------------------------------*\
  =========                 |
  \\      /  F ield         | OpenFOAM: The Open Source CFD Toolbox
   \\    /   O peration     | Website:  https://openfoam.org
    \\  /    A nd           | Version:  7
     \\/     M anipulation  |
\*---------------------------------------------------------------------------*/
FoamFile
{
    version     2.0;
    format      ascii;
    class       surfaceScalarField;
    location    "26";
    object      phi;
}
// * * * * * * * * * * * * * * * * * * * * * * * * * * * * * * * * * * * * * //

dimensions      [0 3 -1 0 0 0 0];

internalField   nonuniform List<scalar> 
31093
(
588.15
-435.511
-152.639
271.019
43.2019
-314.221
943.475
-1132.96
189.481
-395.197
994.326
-599.129
-632.835
670.779
-37.944
-687.272
54.4366
217.92
-37.526
-180.394
583.86
-448.581
-135.278
210.905
-289.762
78.8564
79.9339
503.926
-81.8181
258.323
-176.505
-244.479
270.218
-25.7396
-234.19
-19.0785
253.269
34.6862
553.464
621.438
-650.235
28.7969
-965.112
569.915
-287.939
348.217
-60.2778
-91.9962
-977.118
1069.11
-259.276
232.962
26.3148
305.537
-34.5176
-303.578
295.243
8.33446
-2.22791
-242.251
-449.776
529.709
273.629
-325.475
51.8461
943.475
-359.61
93.2963
266.314
890.957
-975.132
84.1747
340.363
-148.328
-192.035
-171.609
-98.049
269.658
-111.367
-147.91
-592.235
740.905
-148.67
362.581
-310.723
-51.8585
345.994
-62.6701
-283.324
556.121
-292.798
-263.323
-717.212
780.434
-63.2222
-731.214
138.979
138.92
-349.667
210.747
932.346
-932.346
784.019
-346.035
-437.983
276.219
420.033
-696.252
3.08867
795.922
-799.011
-269.929
82.8048
187.124
-860.126
685.68
174.447
972.8
-81.843
-136.61
-223
116.64
72.5733
-189.213
1079.23
-461.446
-617.786
316.282
-255.091
-61.1912
842.887
-30.4228
-812.464
239.168
-229.938
-9.22997
-787.796
70.5841
47.9539
-748.283
700.329
-275.024
-146.477
421.502
762.875
-835.727
72.8514
154.473
-385.433
230.96
15.6083
-210.403
194.794
381.215
-110.881
-270.335
694.673
-751.477
56.8036
-56.8565
-296.07
352.926
-55.2805
-232.659
-663.472
432.316
231.156
-50.4715
244.96
-194.489
480.355
-482.829
2.47386
-180.993
-343.613
524.605
-697.647
828.104
-130.457
-715.644
107.828
607.816
512.494
-574.615
62.1209
-650.789
-64.8558
-157.12
-367.948
525.069
-143.61
-70.0591
213.669
363.268
-552.028
188.76
325.684
-246.373
-79.3104
675.396
-53.9577
-272.726
-35.458
308.184
1062.19
-555.606
-506.581
-70.983
469.431
-398.448
332.492
-141.948
-190.545
-227.259
15.3349
211.924
895.047
-618.828
566.638
-832.773
266.136
633.209
-525.381
816.854
-194.756
-622.098
299.34
-93.321
-206.019
297.419
-86.5133
134.086
-184.558
-588.786
-271.34
239.23
-282.364
43.1343
-62.7727
166.549
-103.776
-618.377
437.385
150.514
-306.763
156.249
-404.305
677.283
-272.978
738.986
148.774
-887.76
904.495
-130.195
-774.3
184.862
-301.663
116.801
211.978
104.304
424.463
55.8916
263.38
-78.5178
-779.224
789.878
-10.6543
-324.148
242.33
974.199
-882.11
-92.0897
281.035
-130.521
406.645
-417.492
10.8471
183.395
102.675
-286.07
459.64
-198.399
-261.24
1206.72
-1206.72
476.935
26.7074
-503.643
-44.874
254.152
-209.278
-475.456
228.111
247.345
265.409
8.93395
-274.342
-247.875
-83.7855
331.661
37.0012
-208.61
182.863
35.0569
396.484
-110.852
-285.632
-261.436
-402.005
663.441
-565.271
494.288
-568.656
-431.419
-363.034
-173.698
536.732
576.688
56.5218
-303.856
-11.7588
315.614
-1029.94
259.29
770.648
-170.779
909.765
50.3342
260.116
-310.45
377.923
-597.161
219.239
236.012
-362.645
126.633
130.039
426.082
750.667
-842.663
36.3913
183.455
-219.847
182.287
158.076
271.079
91.5025
137.307
-500.341
-28.3552
-152.014
180.369
20.6529
218.515
853.051
-849.963
291.893
492.126
141.636
-347.915
206.279
257.445
949.274
260.617
-39.0143
-221.603
-279.895
-23.6829
-407.119
36.0475
371.071
103.677
63.7355
-167.412
291.469
-241.135
30.1028
-302.829
198.466
127.217
-296.464
217.822
78.6417
-542.124
66.6156
475.508
-94.4023
236.039
-267.225
89.6014
177.624
-94.945
-223.523
318.468
-20.3477
292.805
-272.457
-763.569
-211.564
127.592
-222.537
188.883
971.733
-67.2388
-231.85
-49.5109
281.361
151.418
665.436
-236.879
-30.3464
-733.537
144.75
84.9607
188.668
69.2974
-160.375
91.0779
-11.7601
-222.43
-192.397
346.87
-238.938
201.412
-36.5413
-406.344
-135.779
-189.145
-656.068
845.213
-172.12
109.348
346.4
60.2454
280.959
18.3812
440.021
29.4098
-326.945
465.866
333.332
-72.7144
-201.874
-116.338
318.212
-9.06874
-185.29
194.359
400.309
-442.846
42.5371
105.044
110.948
-215.992
24.2601
321.734
-571.831
509.255
62.576
-545.422
-26.7998
572.222
-443.612
-121.659
-31.8843
217.573
-185.689
27.4133
-198.794
171.38
735.562
196.783
331.442
72.1192
-403.562
-85.2937
202.07
-116.776
267.24
38.2962
228.244
-124.633
-103.611
583.97
-220.702
26.2194
947.98
155.784
252.645
103.891
-356.535
273.807
-237.415
263.613
-391.765
128.152
65.4112
-947.521
-585.85
428.729
218.424
-149.127
-12.7091
270.332
-257.623
64.3273
267.115
-22.4711
296.069
-273.598
325.369
-58.1287
15.5454
237.099
268.954
-379.454
110.5
-72.1397
322.075
-249.935
-473.424
187.349
-363.452
176.103
255.24
-402.345
147.105
-314.05
285.736
28.3139
-7.10402
-328.903
336.007
765.871
-717.917
198.559
-182.951
619.65
-634.931
15.281
416.721
95.7729
-862.896
535.452
327.444
-39.4808
304.879
-265.398
-86.9869
-150.75
237.737
-279.76
573.081
489.105
513.823
-513.823
-518.249
-511.69
-249.112
-226.344
898.041
-606.148
1.50636
264.318
-265.824
-185.186
-242.305
427.491
104.756
136.922
-241.678
500.427
-904.733
-326.136
242.351
-13.0369
-394.082
353.347
-360.451
-1068.64
499.981
-485.174
485.174
-641.805
-5.83882
647.644
625.094
-247.171
304.821
122.948
-427.769
-316.438
271.564
-219.264
205.952
13.3127
-516.493
817.333
-300.84
306.867
-67.6375
562.566
-85.631
-420.218
218.343
192.573
70.8072
-634.544
449.358
214.065
-356.012
87.8402
-174.827
234.503
96.1163
-330.62
352.397
-116.385
-963.057
-243.662
622.627
-45.9393
-61.4887
275.761
-214.272
545.423
-450.236
-95.1868
-71.2807
759.665
-688.384
-53.2221
896.109
263.673
1.73522
-84.7401
189.496
-63.3173
521.838
-458.521
-541.937
195.901
-167.109
12.1995
154.909
-119.466
424.287
-44.1079
228.483
-184.376
-61.7204
-208.208
193.779
-90.1024
-77.5016
194.142
18.4426
-248.783
230.34
33.2999
457.455
-490.755
710.421
49.3838
-759.805
287.715
19.1519
-76.6592
-162.279
-113.068
12.6362
251.177
-263.814
35.3174
361.166
225.519
-742.013
327.359
-195.389
-86.9753
122.555
-820.627
698.072
65.5683
-374.68
-199.935
-290.845
223.311
67.5337
-355.491
-307.981
567.754
-999.172
238.424
-50.7297
-187.695
-30.152
213.753
-183.601
-1037.68
331.986
705.694
-43.1569
377.204
-334.047
324.762
56.4534
-258.045
116.144
141.901
349.769
-81.9715
-267.798
376.765
-113.152
-194.644
297.319
291.24
-214.467
138.88
-169.032
-82.6569
584.304
-501.647
751.235
-184.597
-126.441
-328.925
455.366
853.995
-731.44
237.29
-224.654
-34.7106
-292.235
-537.145
76.3589
86.5873
-162.946
339.564
-54.1053
-285.459
-80.2116
184.88
-104.668
369.846
-100.892
-91.9129
-359.331
451.243
7.62452
843.953
-851.577
-776.538
804.103
-27.565
-243.411
78.4745
164.936
-754.189
440.894
313.295
53.7862
-165.153
1.319
175.016
-176.335
-258.815
256.587
6.314
-231.191
224.877
222.113
-4.53993
147.787
-520.413
372.626
230.438
-211.995
-40.2698
-186.989
-60.4262
526.292
320.606
-44.6343
-275.972
-733.882
741.507
-476.073
340.955
135.119
441.153
-303.847
472.413
-861.341
388.928
-305.988
-79.4451
-726.571
28.9241
-165.626
-92.4191
-646.087
631.599
14.488
-180.371
351.768
-171.396
307.897
317.093
263.476
-169.033
-94.4433
277.63
-272.079
-461.458
-208.756
-92.9066
270.811
-176.962
-93.8496
-520.646
-6.63123
527.277
200.928
-95.884
1006.23
-1006.23
433.609
-493.419
-544.261
145.362
205.108
-350.47
-451.71
417
-331.87
296.412
-327.155
423.461
138.674
-562.135
50.3891
712.486
537.309
-113.848
395.386
-569.084
92.2586
221.947
-314.206
-210.7
-227.975
438.675
263.532
82.3952
-345.927
-297.379
-544.68
842.059
491.018
-752.454
350.783
12.1873
-362.97
-977.118
417.693
96.1291
241.062
-250.13
302.472
-359.328
-38.3535
157.139
-118.785
11.574
-263.004
-254.56
11.8496
242.711
226.534
44.2772
271.812
-357.106
227.321
-93.2352
-509.007
-169.207
-137.556
-390.551
-363.638
-940.521
-170.804
1111.32
-497.572
941.946
-444.374
-143.02
-19.8263
162.846
-668.849
636.767
32.0812
-243.805
338.537
-94.7319
260.689
284.734
2.09431
-212.497
873.966
-912.518
38.5516
444.394
-103.316
186.12
-377.619
185.327
192.293
-230.603
42.3609
188.242
-483.187
-37.4588
134.698
-245.579
308.667
-74.1633
-1075.1
885.957
-515.983
452.666
-128.468
248.748
-120.28
-68.9828
383.403
-314.42
365.021
-315.226
-49.7953
-390.483
45.2844
-212.393
-284.532
669.067
-384.535
-63.5436
-260.604
-70.3337
421.117
4.43225
192.235
-196.667
889.392
189.84
-334.428
-43.191
183.302
181.719
-373.143
-455.965
829.108
-820.252
358.807
448.379
-951.563
503.184
81.3627
-412.782
331.42
-279.334
199.122
-10.6813
468.136
-171.338
-192.114
-460.201
149.478
616.064
6.56274
25.2338
213.191
429.44
-103.45
-325.99
-106.43
-89.8603
196.29
118.955
198.866
-260.586
9.11295
-118.368
-59.9153
178.283
-386.594
-14.3937
400.988
-2.43296
281.535
-279.102
-103.829
494.519
-390.69
-412.962
345.954
-82.4221
-887.912
816.631
350.597
-323.889
-87.0972
-304.668
-88.706
-290.748
-655.676
-123.548
-511.724
263.721
248.004
-284.706
38.3327
-114.452
128.195
16.0867
184.455
414.689
-599.144
28.9746
-269.44
14.3494
-3.37952
299.448
150.669
-261.52
-54.078
-242.852
296.93
-810.79
796.242
14.5483
232.987
-252.847
19.8602
362.894
535.147
287.491
-369.463
-18.3756
306.091
-724.608
694.186
290.552
-211.157
-79.395
287.708
-17.3764
-187.075
-160.269
-316.34
476.61
-214.981
-99.0695
310.556
-364.662
444.894
-536.807
118.529
77.9882
-196.518
206.88
-128.983
-77.8963
277.736
-650.879
144.478
-512.427
245.325
-96.5225
-148.802
47.8632
-811.432
-429.751
303.278
-347.912
-568.021
649.384
-474.521
68.1774
368.317
-665.697
157.821
-254.849
97.028
-848.765
896.629
-30.3563
-8.27764
804.2
-219.94
217.094
2.84579
-312.441
198.923
113.518
-229.043
-173.302
-54.0106
424.5
-370.489
546.412
-629.069
42.7917
-228.529
185.737
173.396
-130.604
294.982
84.3112
-264.683
172.713
21.0656
-142.906
766.848
107.118
-444.612
183.372
-242.481
175.112
67.3694
198.131
-242.238
-1.95255
192.198
-190.246
-309.476
255.398
-224.097
-13.8109
237.908
-509.925
383.484
171.193
-191.541
-580.93
-65.1569
614.914
4.73525
-270.739
-229.601
194.966
-76.5629
-118.403
-121.613
-95.4302
217.043
136.637
-207.838
71.2008
-72.7232
284.094
-211.371
-226.233
214.78
11.453
-196.836
-29.3967
322.119
107.321
964.995
-707.55
-280.396
-310.241
246.698
191.395
33.0284
-224.423
-972.729
798.798
173.931
-396.13
168.881
227.249
-496.261
-122.64
618.901
-158.938
-806.173
14.945
-301.015
-466.678
452.285
-95.934
-216.507
232.119
-18.3659
656.828
-99.8322
-556.995
347.388
-451.216
-159.268
756.337
-597.069
-210.461
-220.73
431.191
-286.73
271.037
15.693
5.94175
-74.0542
210.692
-98.8892
-191.956
-527.136
15.4118
-16.1499
-90.9738
-744.753
39.379
-432.249
-217.551
95.9385
-282.954
184.905
698.904
257.667
-307.178
164.187
64.0571
-309.934
18.2268
291.707
-267.733
37.13
-37.2499
-996.575
778.417
218.158
-22.7208
228.672
-118.867
275.116
494.54
-522.961
28.4209
-280.747
-195.327
-361.618
397.665
-36.3432
157.288
-120.945
959.236
-799.178
-160.058
23.8546
-527.291
503.436
-5.95433
-164.952
170.907
-174.907
-109.799
488.018
-63.5549
-232.187
492.876
-558.439
119.5
438.939
-181.478
274.774
508.306
-352.157
-156.148
295.494
8.2251
-303.719
-271.086
209.598
648.649
-84.4701
-564.178
429.932
-245.477
-433.43
389.723
43.7076
280.284
-4.52337
-246.671
-63.2628
-180.991
56.3586
202.083
-500.458
64.6728
435.785
-261.272
262.779
-346.081
343.648
-326.735
-67.4807
-417.693
-455.403
401.393
-530.6
1001.81
-471.209
-132.431
96.0879
-176.81
-219.319
488.471
-50.282
-438.189
-17.0639
-300.041
317.105
-500.127
560.508
-60.3815
404.856
204.169
-100.374
-103.795
163.057
-235.78
199.838
-201.79
-306.136
129.174
419.545
-395.691
-10.6767
-276.054
82.5608
-897.218
897.218
132.132
4.21054
420.457
-424.668
-164.219
184.093
-19.8737
-524.111
313.412
-423.242
66.2195
357.023
42.9655
152.001
-486.932
365.77
121.162
-238.904
436.855
51.1631
308.351
42.0483
-350.4
338.103
-77.9878
-426.337
-23.8988
114.891
-357.708
288.726
330.93
-219.76
-111.17
-55.972
146.513
-90.5413
-940.521
-300.345
-217.489
121.003
96.4859
-293.716
231.046
-431.95
-519.613
254.519
521.745
-776.264
-146.351
-530.452
676.803
-446.456
175.717
-21.0904
193.804
215.072
-15.2339
-657.49
640.601
16.8897
74.0879
355.845
290.142
-63.8634
-226.278
-100.675
-520.202
620.877
-571.583
802.94
-231.357
-573.483
56.3273
-776.093
183.571
592.522
-981.331
414.208
567.123
-285.949
-272.489
-124.724
475.321
-968.591
437.991
-675.494
814.353
-138.859
609.373
-710.048
-210.676
251.647
-230.994
124.332
-799.827
-164.442
-694.188
858.63
662.407
-13.7586
501.281
326.822
-59.737
271.715
-116.317
96.4905
-118.237
192.371
-535.984
254.753
-227.663
-27.0903
-140.324
321.28
-180.956
-182.673
-86.7671
522.284
-27.744
-291.831
274.767
13.036
623.731
-703.948
-650.721
-253.707
-246.751
36.0824
222.241
23.0097
432.17
-455.18
-362.389
344.237
18.1519
-141.553
156.888
561.622
440.187
-349.695
-195.956
545.652
188.136
-243.417
-82.1345
280.601
-68.8611
-354.381
190.878
-229.893
-237.61
311.698
202.735
-130.162
-459.482
-521.849
-295.914
-12.3684
308.283
-285.306
159.738
125.568
-173.981
178.413
-196.353
-88.9526
225.999
-219.685
251.487
-282.592
31.1046
269.369
-64.6668
-204.702
-805.204
646.266
-312.807
-298.366
54.5604
-290.73
302.917
275.06
-106.409
511.265
192.379
-55.457
287.421
528.366
-815.787
-194.706
166.358
40.5216
-570.317
410.047
-942.172
286.104
302.429
-800.001
-473.255
-73.1313
546.387
-540.33
468.719
71.6111
284.13
-210.669
46.4504
-626.852
394.665
-12.1199
169.941
-315.636
338.645
157.536
-509.694
-137.592
-37.672
230.245
-7.04936
278.087
270.639
-86.3865
197.334
763.714
-4.04895
299.822
-280.939
-18.8832
-237.08
-110.835
-117.253
-33.0283
266.016
686.133
255.813
82.4321
192.684
337.014
-122.949
-84.9902
289.26
-204.27
-424.273
95.3477
495.363
-230.669
-264.694
289.389
-296.439
-17.2571
-673.626
690.883
227.182
-834.54
444.057
-237.034
42.6879
-318.66
-94.7043
-380.167
474.871
-124.885
137.085
254.725
-314.462
286.703
6.10125
-875.376
329.955
54.8906
-340.349
-726.149
-519.26
-453.469
239.458
78.8501
-346.648
244.329
-326.464
163.064
82.2611
124.864
-223.216
98.3517
-490.043
130.712
511.646
-924.608
-171.66
95.0972
458.346
26.8279
-574.67
-421.905
18.4106
-599.34
-3.31449
298.808
-101.25
374.302
-273.052
-125.515
-90.4768
128.832
-192.602
-87.1579
-343.85
379.168
-218.808
-59.2161
278.024
-67.5138
227.252
-291.286
-260.859
243.001
17.8572
43.7938
-243.676
286.364
368.691
-39.8567
-322.532
-20.9533
235.733
205.391
-28.1468
-177.244
-110.159
-467.125
54.0133
413.111
-293.754
-130.767
424.521
155.344
-211.316
309.616
-264.359
98.7328
-199.309
-119.112
318.421
788.432
323.179
-37.8902
-212.275
250.165
-18.9896
-521.341
-295.914
-742.575
369.579
372.996
4.83127
-297.63
-4.25845
275.337
-13.2468
230.341
253.646
-340.855
87.2086
-468.073
-117.777
-551.962
211.997
339.965
212.009
25.8998
237.851
321.818
-622.384
300.566
216.9
-421.614
204.713
-363.851
386.305
-676.002
289.697
935.444
-909.224
-740.436
455.904
-401.434
-118.755
520.189
171.998
127.824
-331.356
562.496
-374.447
-188.049
382.912
-194.776
-815.498
243.915
250.966
244.397
-235.705
60.7984
378.787
-107.223
179.898
-182.387
2.48901
233.276
11.6841
587.475
-614.275
-512.902
206.027
306.876
76.0849
-337.906
-157.269
495.175
87.5702
371.745
-180.867
265.398
59.9713
-469.047
188.3
286.495
149.033
-435.528
122.727
-251.195
-160.979
-229.289
-206.223
-362.472
18.6219
-28.6001
-628.89
-34.2107
231.281
-197.07
-327.587
172.547
155.04
-358.259
-97.6188
455.877
-234.122
-92.0142
189.521
15.8696
-313.502
83.8433
168.274
115.406
-283.68
-274.319
-132.347
406.666
-363.73
-291.76
271.954
19.8067
151.484
-368.22
216.736
150.485
-257.05
106.565
-37.7106
-86.2213
-287.989
374.211
-392.453
221.115
211.684
-440.972
-282.258
137.393
144.865
-464.391
148.051
35.135
-440.384
405.249
-197.756
-63.1026
159.545
384.101
-333.055
-51.0457
-209.629
204.95
4.67911
-259.582
142.21
117.372
-110.512
-131.969
-286.322
-114.305
913.103
-217.448
-31.3343
282.415
-487.672
292.346
138.399
-344.228
205.829
-372.793
-119.246
492.04
-471.346
-215.926
220.513
-29.1181
238.463
689.669
-706.927
-48.9369
-272.884
321.821
81.5187
-710.852
629.333
215.06
92.5296
-307.59
306.447
-101.339
-217.924
232.869
-364.405
-45.3185
409.724
-710.651
39.3493
671.302
-456.086
-178.458
-67.7258
-278.356
522.413
-7.32858
-774.437
-19.6287
794.066
-170.989
516.569
-345.581
-190.878
478.299
180.797
-518.702
325.142
-103.195
88.2914
433.547
-425.935
430.146
-330.748
-134.638
465.385
-523.931
50.676
328.332
12.6228
54.4637
-272.388
261.848
-57.224
-204.624
-95.4914
-102.857
301.979
-80.556
-277.152
75.0489
199.725
-302.33
-95.8928
398.223
-286.3
345.476
-59.1761
-79.4854
277.616
-341.311
-126.334
467.645
-266.65
133.566
133.085
-140.595
-17.3356
41.7993
-652.349
610.55
-181.198
-252.233
-270.46
-249.953
-337.484
-92.2667
-216.552
-74.5476
291.099
415.339
639.661
178.075
-265.769
87.6942
143.85
505.534
233.26
28.5886
197.938
-250.981
53.0426
-357.11
-152.814
-531.949
-76.4185
354.048
-180.793
316.034
-31.9033
625.354
-175.996
-4.45696
230.456
-243.471
277.995
-34.5238
713.626
1.11231
288.277
-602.06
492.395
109.666
227.164
62.9782
199.622
-38.609
192.573
-330.129
107.772
-330.772
18.2358
-355.091
359.559
-4.46825
117.003
-220.779
179.622
24.9061
-320.546
320.607
-0.0609261
247.287
-306.503
247.941
-17.6012
-331.74
-119.97
-50.8364
237.96
11.8579
242.895
303.44
4.74455
-361.981
-141.394
503.374
-79.0017
-150.936
-199.658
-28.8708
90.8716
236.488
260.76
-293.789
295.815
-62.189
-231.343
242.865
-11.5222
-1060.8
708.225
352.575
-422.118
128.363
288.828
0.16961
-288.997
-64.1759
352.901
577.252
-182.186
-30.4951
212.681
-39.4058
-219.409
-264.291
-59.6932
323.984
-287.599
-58.0634
345.662
-70.0506
-510.163
-91.8976
-797.833
785.485
12.3472
73.9897
223.14
-297.129
53.9319
283.039
-177.73
473.545
-295.815
-238.385
-71.8562
-428.592
111.149
-236.665
171.555
-263.974
-324.971
-104.139
429.109
-92.8578
417.04
-324.182
-384.343
-82.3353
-243.497
-70.9656
2.0854
-421.865
-94.1185
-201.48
683.831
9.65781
637.274
-646.932
-198.297
46.2825
228.227
-813.201
584.974
181.968
-411.011
277.665
-23.5132
120.056
-1011.52
-238.18
-88.2841
439.818
-6.20887
-470.412
-398.735
-104.908
-657.4
212.827
-422.397
209.571
22.5811
261.513
-319.127
-66.5757
385.703
11.3028
-287.976
276.673
830.053
-116.427
-491.431
480.75
-59.4529
-714.984
-63.0188
406.667
-846.667
783.445
297.658
-471.815
402.954
-93.026
-118.131
199.917
169.265
-369.182
-438.25
-246.486
184.326
19.4213
-203.747
-221.125
913.03
30.445
-991.999
559.749
-222.284
-92.9894
315.274
719.549
31.1173
332.67
-90.3189
373.932
-355.31
-402.096
408.168
-6.07137
328.06
-326.777
-1.28283
341.052
-102.589
-17.1059
-405.359
-121.932
-238.476
-111.994
-210.956
-103.25
-598.538
782.936
-184.397
-205.861
9.50757
-194.024
-386.853
-462.517
412.235
95.6416
-288.243
-134.706
-112.294
247
-43.6826
389.718
-346.035
310.931
-55.5335
218.565
-68.1078
-150.457
86.2454
-251.198
121.31
169.93
312.933
-97.8727
-304.688
-110.219
214.523
527.042
-143.558
26.3154
-773.598
747.282
-298.518
121.901
-208.288
-30.2695
-44.661
301.248
38.0265
771.852
-699.001
856.332
-110.829
-745.503
377.893
-75.554
-302.339
127.755
-248.035
-93.145
508.565
-415.42
-229.745
-60.0171
23.8105
-734.662
408.287
-110.205
-290.863
286.67
4.19322
-196.474
-78.8869
275.361
203.906
25.5036
-229.41
-34.4843
-123.954
-451.748
-609.052
-427.382
203.339
-16.8308
-230.144
-18.0371
245.219
55.6459
-537.245
481.599
-288.337
247.374
-424.184
187.27
-379.384
697.023
-317.49
68.4616
-269.517
201.055
-111.857
297.184
559.997
-164.612
-236.079
-143.859
230.694
860.263
87.7169
-308.283
229.765
46.6519
725.2
-12.1164
192.014
-324.289
-93.2037
358.608
-55.3304
-450.214
-528.652
156.566
372.086
-152.22
-502.485
654.705
-568.05
1012.44
-713.951
115.413
-475.949
-303.007
286.727
90.0377
-913.816
66.1699
847.646
-350.163
374.223
-63.6669
-8.04666
361.393
335.984
9.49182
228.732
-199.058
-29.6739
-323.028
101.903
-195.529
-14.1002
243.113
364.226
-76.7349
614.04
-110.604
293.946
75.8995
546.667
-101.772
512.963
-98.2742
255.335
-35.0432
-220.292
395.753
-471.902
-318.612
790.514
530.595
-266.874
-295.7
-556.424
80.4111
476.013
312.503
-65.8046
-711.166
677.491
33.6758
522.912
-70.6275
-30.5544
635.302
-604.748
-323.723
259.056
284.515
54.0228
430.659
106.65
-382.886
217.096
-31.3586
313.432
-2.50041
-433.377
-129.258
-34.8956
591.121
323.343
-316.367
-6.976
-514.325
46.2516
-384.147
-332.167
300.263
48.8454
328.358
-296.037
294.846
-35.7897
-144.311
-254.528
-240.453
3.12496
237.328
-401.439
-112.384
-34.3328
547.39
-38.135
-6.52208
474.659
545.254
-26.3625
-173.33
-273.894
328.54
-54.6466
-96.0842
249.217
32.332
-743.498
-300.905
-213.807
351.279
-392.145
-63.2586
443.051
621.6
222.974
-844.574
-141.644
539.467
-131.181
326.304
-251.654
-74.6507
-111.133
-588.912
-187.182
30.8223
209.425
126.558
-129.801
236.366
-263.021
-263.815
301.639
-37.824
245.545
306.687
-431.411
696.945
414.379
-260.108
331.85
-71.7426
-247.228
-469.842
-210.485
837.403
18.9293
361.924
-48.4923
-939.703
25.8874
355.037
-83.2255
-744.871
14.1762
-318.844
634.475
206.823
-88.2932
-92.008
10.0163
296.074
-361.979
7.46161
354.517
-209.944
-120.676
239.73
-104.856
-477.784
-92.5323
495.207
-85.1597
356.888
23.6451
-314.393
-82.7356
-106.148
-518.943
372.592
-117.629
653.042
-629.232
-287.808
366.122
-78.3145
-222.511
39.8378
282.077
22.802
-444.221
-480.387
-427.83
972.391
-469.343
-503.048
533.839
-81.1733
-522.768
-104.084
-63.3974
18.298
507.206
-112.541
-18.5388
53.3215
177.96
-238.086
-206.526
44.8517
-70.7155
548.646
-119.916
-405.3
-360.867
309.008
265.254
0.761348
418.98
-62.0923
-52.864
-148.616
-178.737
-307.276
31.2219
73.9705
-273.628
439.942
-651.506
578.857
-86.3889
-492.468
758.86
-726.528
393.47
-42.1909
-276.35
-307.607
35.1784
544.147
-101.095
-758.248
784.564
217.095
-2.4743
-214.621
-116.78
212.421
461.369
-59.9762
565.279
-127.894
-281.096
282.209
-106.647
-110.842
-200.574
231.512
-30.9376
-101.006
273.004
299.278
-41.6109
-62.3124
250.554
-473.451
-278.025
271.868
-236.025
-35.8429
-381.199
390.356
-9.15684
-17.9643
-99.6371
282.939
309.708
-312.494
2.78679
-253.164
-120.904
-1.4834
158.622
-321.853
411.483
-43.1384
787.152
-744.014
-507.865
348.279
-41.5922
32.7168
346.091
12.9485
-359.039
7.15729
382.565
204.128
481.551
33.2032
471.087
40.1783
356.33
-47.9783
-44.0148
241.953
219.196
70.064
-856.508
866.166
-302.476
284.631
17.8454
-549.631
249.576
0.978234
753.741
-556.391
-197.35
260.391
-184.484
-75.9073
433.296
228.548
28.6806
493.603
-198.671
618.069
-419.398
73.2441
-50.968
843.996
-793.028
-390.434
304.213
476.521
198.875
235.052
0.681312
226.465
-172.399
-484.716
657.114
39.2709
208.67
60.0948
-557.937
571.288
-508.712
793.85
-274.799
-519.051
-299.522
-173.902
36.0185
271.159
0.795008
-228.782
-258.15
-339.688
-480.564
4.18643
185.704
-189.89
293.208
265.921
188.45
-792.513
768.475
24.0378
0.827891
408.738
-454.073
45.3349
287.655
50.652
5.98703
748.404
-754.391
93.0932
235.447
28.7415
96.709
-292.068
305.901
-13.8329
-892.053
-48.4679
196.385
-124.091
-488.635
612.727
-293.384
815.13
-138.705
-401.714
-112.61
-561.007
137.078
358.097
35.1727
-255.126
-25.97
199.144
-145.823
10.9321
849.963
47.2553
-15.1117
303.389
473.035
-356.967
-116.067
-626.384
261.258
365.126
128.048
173.932
369.406
-348.318
237.148
140.101
289.009
229.806
230.021
12.8441
69.8102
-483.934
414.124
807.002
-248.576
-558.426
185.108
198.535
-383.642
323.457
401.959
254.448
3.72902
-626.332
-306.013
247.798
-889.805
367.861
53.8122
-433.979
73.9601
-635.098
-99.5639
246.661
-359.779
363.02
555.779
-568.264
645.128
-76.864
-11.8178
372.984
412.872
-308.047
-37.1948
171.468
-134.274
-303.325
296.092
-18.0052
639.475
-346.852
-22.9046
377.106
-354.202
66.6007
-182.896
228.586
-45.6899
-250.382
228.747
21.6346
284.512
509.339
166.797
-403.461
407.183
-1069.11
1075.1
105.492
-9.85954
443.737
180.467
-58.5659
416.05
349.526
215.07
22.667
249.038
365.119
-26.1203
-338.998
-649.963
648.622
1.34133
231.394
197.181
-11.4767
502.001
-432.191
-210.79
766.569
266.743
85.8463
238.323
-361.272
-178.401
26.9383
244.93
734.988
-149.813
-585.175
-843.813
909.224
307.123
350.464
211.318
-211.148
554.136
-992.386
419.497
322.684
287.761
-40.4831
465.01
291.414
59.7794
-417.401
357.621
-227.795
311.935
-13.3206
1.34978
-824.341
694.146
802.878
-193.506
334.273
244.146
96.9347
340.192
-20.2452
-319.946
269.447
269.661
293.833
-189.026
88.6516
-273.441
283.403
-9.96245
417.49
-521.979
-254.285
-3.66127
218.731
431.965
-573.359
-276.505
21.3789
450.028
-112.435
-246.124
358.559
-335.032
-193.62
634.736
106.17
426.432
-943.43
516.998
-460.433
418.243
42.19
-3.2813
253.545
-250.264
341.204
-274.603
259.792
-236.917
-22.8753
272.615
12.6323
-195.528
-848.765
65.9407
325.481
-391.422
-31.9226
722.042
-690.119
323.112
-295.912
-27.1999
-445.678
443.347
274.644
-236.618
-400.005
978.678
-578.673
285.023
-14.0543
198.38
536.586
463.414
-197.842
208.726
12.1798
-220.906
-28.2125
399.284
-593.531
33.6006
559.931
202.066
264.45
-335.415
-16.3499
-364.849
-913.03
862.062
-496.952
1033.54
336.906
-55.7648
239.238
-2.06224
-237.175
489.205
-435.192
66.5335
-718.883
-459.973
-0.459279
-257.748
318.85
-469.498
-499.093
298.997
-18.9537
-280.043
-959.928
441.679
-797.833
156.801
33.0776
-189.878
30.8921
598.441
648.407
-633.919
-291.525
819.891
-92.6166
219.834
383.393
-521.897
138.504
-128.533
355.14
-226.607
-703.858
750.51
-386.999
238.418
-224.143
233.479
-9.33676
-275.329
701.761
314.071
601.521
27.7878
-786.036
-232.12
256.61
-344.894
-59.8572
-228.961
240.811
-896.629
980.803
176.101
39.5607
-215.662
264.754
-269.407
-87.699
26.7609
399.959
208.865
-608.824
502.758
-902.763
482.163
-62.6181
-222.611
-3.40746
226.018
-114.264
-193.011
-260.504
55.8019
-165.674
-137.155
302.867
291.942
-265.004
-116.45
-317.677
434.127
280.98
289.556
-17.7611
-293.621
311.382
-691.072
17.4459
853.051
-892.053
935.444
-963.057
949.274
954.562
-954.562
-843.813
-1011.52
242.373
-207.2
-241.919
-212.444
-187.572
-2.67346
736.947
-956.449
219.502
-866.166
11.9716
-282.306
192.274
-35.4735
-763.395
791.183
228.532
-7.0329
-221.499
-256.257
267.56
-11.9834
-250.067
262.05
248.9
-14.3026
-234.598
202.174
-229.265
-23.767
-253.744
277.511
-188.291
201.247
-12.9563
250.337
281.236
-347.525
407.305
105.371
-182.31
76.9395
-366.078
-581.443
-194.522
207.992
-13.4704
-419.794
-84.1862
503.98
194.836
-175.415
41.7046
202.345
-26.2441
-349.79
238.955
459.369
-96.3491
199.283
459.864
-51.1259
321.183
-391.019
69.8361
18.8587
-636.027
666.919
262.859
-461.53
-783.755
730.299
53.4562
480.801
497.876
48.3087
411.06
-237.913
260.494
-73.1321
-710.623
246.038
-339.028
709.042
-893.439
319.42
-718.039
398.619
128.462
264.404
-206.163
-58.2412
-51.1184
-387.93
-867.803
592.475
-2.31978
259.149
3.24174
-312.477
309.235
17.0151
-48.0288
236.03
282.109
-37.179
185.642
-58.3646
-127.277
738.542
20.318
272.988
303.386
6.7255
180.917
-228.46
47.5425
246.565
-300.504
297.19
-297.03
-203.505
217.942
-14.4367
74.786
-494.58
251.253
160.23
-88.3858
825.333
-594.591
406.543
548.525
-640.615
230.643
-333.838
314.109
-442.642
200.225
-312.219
218.475
-192.972
-329.059
227.72
-190.391
-7.90256
198.293
228.616
-331.866
368.637
-266.483
-102.154
-4.03094
485.63
-442.509
-560.364
1002.87
-728.622
644.152
-50.6286
-320.631
371.259
21.3832
55.3424
-311.795
307.537
-269.731
-6.77385
203.508
57.3272
-260.835
-189.047
-233.35
-309.253
223.638
-209.128
-14.5095
-312.477
-413.283
413.283
186.984
-658.33
182.233
164.638
309.235
727.447
-235.052
-41.7909
-645.794
687.585
524.704
-85.7653
235.956
-364.936
315.999
391.023
243.582
4.48717
232.713
-172.53
-60.1833
-34.5857
-686.815
686.815
-176.005
-387.84
-98.2052
-138.459
207.043
20.2784
-157.145
227.952
-423.344
479.236
-181.148
-198.236
701.547
-489.152
-212.395
-136.032
-112.003
519.003
-146.377
-82.1419
-36.3265
-489.109
525.436
-500.479
-287.317
510.798
-17.1944
-21.1297
-723.224
550.825
-458.14
-65.7912
767.725
19.4271
231.417
-113.002
773.772
-660.769
95.6681
819.847
683.205
829.766
149.603
-217.711
-387.055
-72.9181
-235.857
250.101
-221.64
49.6906
-200.302
-897.518
41.3254
856.193
29.1032
403.213
812.073
-262.736
247.227
15.5083
1066.44
-542.399
-524.039
-169.253
5.19085
475.559
203.44
-37.082
293.301
252.351
429.423
-772.057
956.334
-184.278
-368.973
8.10593
232.075
18.1144
665.716
-84.1158
-218.361
-200.246
-227.584
213.008
92.3781
635.069
690.025
-731.816
91.6845
-795.543
22.991
654.5
752.326
-849.65
97.324
-627.57
536.004
91.5663
627.34
-563.617
-63.7228
-446.651
521.437
54.032
-117.199
-113.797
230.996
155.805
305.701
-584.871
406.413
192.093
-192.093
-199.718
219.195
-879.242
436.733
-661.921
537.83
-556.424
856.508
-944.894
23.982
-238.209
205.065
-199.437
-211.574
-249.808
21.7672
357.401
35.8518
342.041
-352.035
-362.422
35.6457
399.752
-666.627
-55.337
-726.787
782.124
207.562
-286.449
55.35
144.008
-256.302
-623.552
655.633
-179.277
-84.6974
8.30643
542.516
126.552
-309.898
-22.2689
-455.128
957.886
864.1
-864.1
333.369
43.7371
11.6903
462.968
-761.533
17.5192
650.518
16.4016
80.4556
417.622
-498.077
215.324
302.88
-4.07203
9.25959
672.772
18.1116
-818.631
631.449
195.665
303.104
-498.769
-810.064
535.265
210.909
-411.507
20.4755
-649.707
-192.383
-49.0531
241.436
-116.456
225.051
-108.594
15.4692
45.0823
356.388
41.2776
-202.507
17.4749
-244.651
512.908
659.154
62.8873
12.5073
128.472
-119.801
-177.328
196.93
388.045
-496.515
-707.865
-64.1916
-199.171
-467.027
-476.403
-274.104
-360.827
624.768
-515.102
6.75323
798.352
-805.106
318.466
50.1706
393.033
-59.664
618.318
-54.2963
-564.022
313.837
-17.4257
-572.057
-97.9026
669.959
-5.23044
-232.185
-585.089
409.093
-184.624
-39.9098
224.534
237.494
611.311
66.2678
-212.714
-117.415
24.8545
204.194
-546.194
638.572
194.505
3.87535
-199.907
397.096
-197.189
291.613
-844.303
552.69