/*--------------------------------*- C++ -*----------------------------------*\
  =========                 |
  \\      /  F ield         | OpenFOAM: The Open Source CFD Toolbox
   \\    /   O peration     | Website:  https://openfoam.org
    \\  /    A nd           | Version:  7
     \\/     M anipulation  |
\*---------------------------------------------------------------------------*/
FoamFile
{
    version     2.0;
    format      ascii;
    class       volScalarField;
    location    "37";
    object      p;
}
// * * * * * * * * * * * * * * * * * * * * * * * * * * * * * * * * * * * * * //

dimensions      [0 2 -2 0 0 0 0];

internalField   nonuniform List<scalar> 
30084
(
0.0131171
0.159234
-0.0131324
-0.0534508
-0.00374386
-0.0556911
-0.0307077
0.0122406
0.00307801
0.000271458
0.00732505
-0.00706522
-0.000762472
-4.47792e-05
0.172732
-0.00900764
-0.000294033
0.0648468
-0.00329554
-0.0155721
-0.00133804
0.00289487
-0.0133609
-0.00325198
0.561868
0.158281
-0.00081868
0.475078
0.165269
-0.00248528
0.0238925
0.0741182
-0.0910036
-0.0103444
0.481831
-0.0122482
0.179073
-0.0400885
0.00869238
0.00834001
0.000656808
-0.0257687
-0.000263558
-0.0351755
4.33578e-05
-0.00225834
-0.00645478
0.000102745
0.00503056
0.174776
-0.0436089
-0.0467681
0.0766189
-0.0535669
-0.00882452
0.157718
-0.00527475
-0.00138055
-0.00739148
-0.0291656
-0.000106376
-0.00320613
0.0451781
-0.0108517
0.274828
0.533057
-0.0125451
-0.0127439
0.509348
0.000688209
0.156744
0.402109
0.00340747
0.526925
-0.0116435
0.00859838
0.169697
-0.0352079
-7.96419e-05
-0.0248939
-0.0489845
0.210918
0.0131482
-4.20147e-06
-0.0277514
-0.145838
0.297795
-0.00079293
-0.000736163
-0.0716547
-0.0354483
-0.0357626
0.00461745
0.0731326
-0.0741699
0.303341
-0.04752
0.000709768
-0.0620006
0.199685
-8.40699e-05
-0.0334271
-0.000102647
0.0521514
-0.04773
0.134646
0.347998
-0.000708266
-1.77588e-05
-0.0906227
-0.0905056
0.0133378
3.62409e-06
-0.00234493
-0.00024787
0.392766
0.228487
-0.016839
2.76987e-05
0.00402639
-0.038806
0.169513
-0.0171708
0.529402
0.00167677
0.00640183
0.0704943
-0.0248769
0.00615156
6.58995e-06
-0.032889
0.162355
0.386979
-0.0415333
0.0515449
0.023239
0.325285
-0.0341077
-0.16788
0.19319
0.0153503
-0.0614072
-0.0646056
2.6819e-06
-3.79685e-06
-0.00382286
-0.00606985
-0.0689577
-0.119623
0.0899046
0.038562
0.0186129
0.00064154
-0.000221006
0.221515
0.000755036
-0.0116567
0.309569
0.263205
-0.0396126
-0.0468956
-0.0522888
0.163287
-8.37573e-05
-4.16378e-06
-0.0169791
-0.0617686
6.66483e-05
-6.09229e-06
-0.0103955
2.58271e-05
0.00855386
0.313541
-0.0333161
-0.0786805
-0.00749063
0.00315079
-0.0349433
-0.0019108
-0.00683447
-2.70924e-05
-0.00770262
0.29538
-0.011768
-0.166878
0.222586
-0.0093385
-0.0257875
0.0058008
-0.00252444
-0.000443333
0.00244841
0.538567
0.218122
-0.0197928
-0.0111595
0.454068
0.197378
-0.0736326
0.00175043
-0.0542022
-0.0753932
-0.00682608
0.00127426
0.323161
-0.00996877
0.0103825
-0.0679544
-0.0920239
-5.45909e-05
0.424956
-0.00159315
-7.41067e-06
-0.000855232
-0.0338079
0.0669937
-0.00597174
0.010113
-0.00322889
-0.0747172
3.16759e-05
0.00066531
-0.00348767
0.110653
-0.00430204
-0.00222219
0.0750055
0.00017289
4.02633e-05
0.00797022
-0.04111
-0.030808
-0.00699841
0.155082
-0.0211425
0.0196356
-4.66753e-05
-0.0045044
0.00118994
-0.0501903
-0.158051
-0.00211164
0.00068472
-0.00230233
0.00425168
-0.0150436
-8.00838e-05
-0.133418
5.32081e-05
0.112385
-0.00509027
0.000200554
0.13664
-0.0741509
0.000369584
-2.26872e-06
-0.0614666
-0.147852
-0.012911
-0.0264771
0.0383607
0.284484
0.000108213
-0.0386856
-0.0248829
0.465065
-0.0117653
0.21922
0.0135743
-0.000407128
0.639082
-0.000849011
-0.08378
-0.0739401
0.00338867
0.0363261
-0.0120408
0.39061
-0.00521468
-0.0255982
-0.000436293
0.246064
-0.00454624
0.308799
-0.000794511
-0.00863009
0.450284
0.0965949
0.0748951
-0.0459556
-0.000244684
0.00415086
-0.000309062
-5.54025e-06
0.10642
5.16427e-05
-0.0278354
-0.027236
0.568282
0.383665
-0.0649531
-0.0281581
-0.0292259
0.0124198
0.00369002
-0.0262446
-0.0698878
0.290313
0.405369
-0.0019621
0.342385
0.10343
-0.0144476
0.0167084
-0.00292344
-0.0166444
-0.00800051
-0.00398088
-9.64192e-05
-0.00293102
0.0194996
0.251809
0.00245967
-0.0382576
0.0193804
-6.08523e-05
-0.0674163
0.597208
-0.00942868
-0.0022282
0.0178423
-0.0231666
0.136982
-0.00219384
-5.55495e-05
3.19431e-06
-0.00400835
0.45311
0.0350623
-0.158677
-1.25963e-06
-0.154442
0.0838144
-0.00761076
-0.0677437
-0.00203917
-0.000693196
-0.0356983
0.0014095
-0.00248596
0.0160534
0.148577
-0.000331508
0.00296996
0.16838
-0.0348827
0.000627522
0.00066738
0.388764
-0.0354052
-0.00236826
0.206261
0.472662
-0.0513643
-0.0115313
0.0720033
-0.00119954
-0.0124741
-0.00510407
0.193406
-5.48671e-05
0.0154377
-0.108637
0.392266
0.518624
-0.00907159
-0.0132663
0.283165
-0.0302313
-9.34429e-05
0.129531
0.116665
0.118665
-0.0111227
0.038646
0.468035
-0.139113
0.426257
0.397316
-1.467e-05
0.0197493
-0.132125
-0.00454555
0.00251426
0.47688
0.0352859
0.000430581
-0.0522147
-0.0773838
-0.0084622
-0.000205004
0.314701
0.224005
5.82213e-05
0.00637362
0.00842605
-0.0893894
-0.0460115
8.16807e-05
-4.28021e-06
0.000768023
0.142259
-0.0396598
0.314595
-0.0719456
-0.0273013
-0.0304219
0.202047
0.04972
-0.00190537
0.0125726
0.00131436
0.428989
-0.0365805
0.00170257
-0.0112288
0.0226377
-0.00241078
-0.0183537
0.00035649
0.0003646
0.60527
-0.0121887
-0.00777912
-0.000764782
-0.0011714
0.271212
-0.109414
-0.0387086
6.59881e-06
-5.82953e-06
-0.0377039
-0.0102319
-0.00793458
0.026547
0.00963415
-0.0043483
0.0409997
-0.025768
0.419337
0.00674325
0.000378879
-0.0643695
-0.036022
0.0506349
-0.00534746
-0.0378428
-2.58307e-05
0.508619
0.0301765
0.0001174
0.538681
-0.0400795
-2.75065e-05
0.00229311
-0.0663426
0.0150524
0.066421
-2.94264e-06
-0.0119733
-0.0141499
-0.00821962
-0.000764216
-0.0123627
0.458918
-0.0126383
-0.0177984
0.231308
-0.00434569
0.442642
-3.03224e-05
-0.0249745
-0.0737515
-0.0371185
-0.0465435
-0.00244132
0.0017384
-0.000253747
-0.0282465
0.0101001
-5.73335e-05
8.86078e-06
-0.00956979
0.418076
0.0107192
0.00394724
-0.0727889
-6.93135e-07
0.00155593
-9.03232e-05
0.0142196
-0.0258744
-0.000634954
-0.0125192
-0.0184796
0.00163417
-3.20978e-05
-0.0088462
-0.000686817
0.0749717
0.364839
0.287793
-0.00704873
0.00946334
0.0397226
-0.000162974
-0.00567814
-4.49965e-06
0.400864
-0.0205977
0.02617
-0.0249015
0.00242064
-0.00495459
-0.0001838
1.07838e-05
-0.00752701
0.0688171
0.267045
0.00197647
-0.0582906
-0.0357909
-0.0119766
0.0914001
-0.00210775
0.00136406
-0.00859042
-0.000170625
-0.0688668
0.295806
0.208768
-0.0330176
0.28953
0.000119049
5.44861e-06
0.128872
0.0450751
0.526854
-0.0670316
-0.0307636
0.030128
0.00188469
-0.00895855
0.000732241
-0.0159093
-0.0192819
-1.27019e-05
-0.00144254
0.388617
-0.000249057
0.492188
-3.33261e-06
0.0122003
0.0705569
0.0455824
0.00167545
0.000288
0.41021
0.07922
-0.074532
0.215063
-0.0103969
-0.0194483
-0.00634307
0.259314
-0.03756
0.0151767
-0.0119947
2.07589e-07
-0.00208631
0.00927154
-0.0258179
-0.0322984
-0.0606975
-0.0260887
0.143233
-0.00340459
-0.0729194
-0.0201753
4.50492e-05
-0.0177442
0.0114
0.14563
-0.0394652
-7.53421e-06
-0.0268775
-0.00102243
0.00224035
-0.139623
0.313846
0.00145095
-0.0175422
-0.0399809
0.0983516
0.449258
0.00290712
-0.00786041
0.257605
0.185512
-0.0234488
0.00787899
-0.0663069
-2.04189e-06
-0.0550636
0.000126163
-0.0408774
-5.14738e-05
3.34612e-05
-0.0102663
0.0503826
0.363129
0.0122131
0.0181625
-9.40493e-07
-0.00975488
0.000133103
-0.00510374
3.38174e-05
0.0707223
-0.000785022
0.209699
-0.000217214
-0.0186792
-0.0490552
-0.00663193
0.446358
-0.0239053
-0.0783028
-0.00876467
0.0665204
-0.0639469
0.0434123
-0.0331079
-2.9917e-06
-0.00853031
-0.0062024
0.00039099
0.000126961
0.257396
-0.00769727
0.106979
-0.00740324
0.00139004
0.0481899
0.000255446
-3.23907e-05
-0.0540667
-0.00549056
3.89305e-05
0.269541
0.574829
-0.000354657
-0.0473161
7.86699e-06
0.476133
0.00946923
-0.0520211
5.95711e-05
0.0160572
0.0827771
0.0964548
0.065191
-0.000648178
-0.000266255
-0.0227194
5.8312e-07
2.98013e-06
-0.038205
-0.046801
-0.0598349
0.550437
0.000313099
-0.0514847
0.0122519
-2.93885e-05
-0.00203125
4.26952e-05
-0.00954497
6.20342e-05
-0.0305714
0.0420059
0.437345
0.0646231
-0.000466472
0.000724802
-0.0985166
0.10486
-0.00492991
1.2002e-05
0.234683
-0.167203
-0.0658809
-0.0205012
-3.57501e-05
-0.000460863
-0.173822
-0.0335995
0.174459
0.417129
-0.0768699
-0.00204657
-2.85241e-05
-0.0627781
-0.089229
-0.000341201
0.00329639
-0.0226556
-0.00734086
0.405697
-0.00211019
-0.00119427
0.179865
-0.0117602
0.529567
0.529988
-5.51894e-05
-7.76962e-05
-0.0234877
0.0246285
-0.0460903
0.00845414
-0.0113815
-0.00094533
0.461783
0.205124
0.00363472
0.63205
6.14568e-06
0.132897
-0.0837023
-0.0505672
0.000138769
-0.0476803
0.137696
0.0235528
0.0872553
-0.000743708
-0.00079821
-0.00909502
-0.00544545
-0.0200143
-0.00175879
0.155803
-0.00944573
-0.00828043
-0.0728413
0.382149
0.0266485
0.0473056
-0.000665547
-0.000845379
-0.0291077
0.0015948
-0.00408758
-3.42635e-05
-0.000558439
0.138108
0.411838
-0.000217088
0.221745
-1.43185e-05
-0.00526032
-2.43917e-05
0.00867081
-0.0200389
-6.95718e-05
-7.22538e-05
-0.0739492
1.31053e-06
0.0669982
-0.036534
-7.21102e-05
0.211023
-6.50175e-06
-0.000660383
-0.00015156
-0.00793509
-0.0006416
-0.00943888
-0.0997942
-0.000571428
0.00682036
-3.28771e-05
0.357832
-0.00336623
0.0254626
-0.0431644
-0.0316048
-0.00187932
0.00468329
0.244263
-0.0373684
0.217182
-0.052964
-0.0054357
-4.46408e-06
-0.00885266
0.384904
0.228638
-0.0514274
-0.0650641
0.346005
-0.0126949
-0.0775169
-2.40523e-05
-0.0380881
-0.00134528
0.612988
-0.0678134
-0.000148052
-0.0718427
-0.0379199
0.276927
-0.00403736
-0.0397901
-0.00606784
-0.00954695
-0.00205065
0.276106
-0.155229
-0.0273965
-0.0215793
-0.0184835
0.00893841
0.340529
-0.0262938
0.215983
0.0043578
-0.0427377
0.501225
-0.0128823
-0.00038125
0.277835
0.392447
-0.00733057
0.0170014
-0.01034
-0.0427328
0.257998
-0.0622466
-3.8816e-05
-0.0110929
4.88185e-05
-0.0068861
-4.12221e-05
-0.00735624
-0.00154325
-0.00493753
-0.0729156
-0.000970627
-0.000816359
-0.00177631
0.232375
-0.00322905
-0.00504341
-0.00469946
0.19641
0.00824732
-0.000615115
0.382652
0.523184
-0.0271191
0.461146
-0.0239791
0.363072
0.00850537
-0.021338
0.00401322
-0.000735512
2.10025e-05
0.00396781
-0.0168652
-0.0269377
0.211122
-0.0311841
-0.0274018
-0.00144005
-0.0605437
-0.0344825
0.0101016
-6.07858e-06
0.0134117
0.147245
0.394611
0.0239669
-0.01851
0.168804
-0.000560535
0.0522912
-0.0244726
0.000930449
-0.0712027
0.00425753
0.363601
-0.0031142
-0.000834423
-0.000195004
-0.0723323
-0.00193532
0.617869
0.638594
0.0177957
-5.79229e-05
0.0123158
-2.84082e-05
0.085698
-0.000823229
0.0316454
0.561724
0.0546617
2.25443e-05
-0.0113359
-1.80479e-05
-0.156218
-0.0453856
0.465172
0.000329702
0.0171277
0.00379558
0.000413122
-0.00329421
-0.000457723
-0.00838685
-0.0509676
-0.0310972
0.00876303
0.206374
-0.0180257
0.00910502
-0.0272243
-0.00257438
-0.0366833
1.39348e-05
5.80432e-05
-0.00312078
0.0395986
-0.0444419
-0.0218917
-0.00509468
0.00383534
-0.0322524
0.2704
-0.0169675
-4.83789e-06
-0.0662613
0.430777
-0.0409914
-0.0162066
0.0983488
-1.02493e-05
-0.000970609
-0.0380387
-4.65602e-05
-0.000642117
-2.89664e-05
0.632787
0.0124355
0.00505131
2.35301e-07
2.38816e-06
-1.57195e-05
-1.8266e-06
-0.029593
0.393609
-0.0453641
-0.000691553
-0.000233349
-0.00753062
0.463998
-0.0709781
0.423485
0.0307074
0.163862
-0.000165212
0.458415
-0.00304021
-0.0125749
0.0157073
0.0103889
0.0120712
0.212085
-0.0522154
0.45221
0.312092
-0.0109949
-0.0374612
-0.00289862
-0.0384695
-7.53859e-06
-0.00128042
0.00372864
0.0873401
-0.0087133
-0.0297749
-0.00444364
0.545353
-0.0993337
-4.79999e-05
-4.14542e-05
0.471154
-0.00654537
0.00253549
-0.0171115
-0.00300882
-0.0200456
-0.0127569
-0.0346898
0.11209
0.036043
-0.0131189
-0.0186585
9.6185e-05
-0.00757052
-0.00177499
-0.0103314
-3.95789e-05
6.39083e-05
-0.0270148
-0.0263544
0.448065
-0.0357774
-0.000278693
-0.0020329
-0.000422636
0.380489
-0.0363452
-4.89154e-05
-0.0384713
-0.00588734
-0.00468554
-0.0361955
-0.0409348
0.00866118
0.071969
-0.0855829
8.18827e-05
0.00765223
-0.0168127
-1.48724e-05
-8.68383e-05
0.133835
0.101575
0.00728145
-0.0589995
-0.0695158
0.000666478
0.483535
8.30462e-05
-0.022661
0.405665
-0.0216328
-0.0463803
4.02234e-06
0.000186055
-0.0462256
-0.0118395
0.00175709
-0.0395597
0.255248
0.294701
0.000858819
0.000309529
0.23813
-0.0158176
-1.54889e-05
-0.00190834
-0.0350231
-0.0277246
-0.0137267
-0.00306619
0.226387
1.51265e-05
0.0899246
0.300103
3.54957e-05
0.0116412
-0.000574787
-0.116134
-0.0169019
-0.000851826
0.0331327
0.000235284
0.249472
0.00174874
0.0262688
0.0188686
0.569234
0.377712
-0.0638593
-0.00864963
3.88505e-06
0.0107115
-0.0156928
0.173309
0.339203
-0.0396146
-0.018361
-0.0186446
-0.00718057
0.161002
-0.000236679
0.454205
0.0285862
5.2781e-05
3.69118e-05
0.000111063
-0.0141973
-0.0194954
0.000796673
0.071492
0.137923
-0.0587507
0.000551282
7.26394e-05
-0.025664
-4.82704e-05
-0.00312982
-0.0122603
-0.000775746
0.0398796
0.00463881
-0.00149
-0.00407696
-0.0172505
0.378034
0.387161
0.0412385
-1.33359e-05
-0.000600228
0.268401
-0.000501205
-0.126001
-0.000226451
-0.0213083
-0.0915398
-0.000237311
-0.000255977
-0.0355621
0.00146333
-8.39841e-05
-0.0014221
0.22294
-0.0366061
-4.74163e-05
0.104066
0.363064
0.374958
0.000663138
-0.125923
-0.0097378
0.427761
-0.072745
-0.0747881
-0.010197
-0.0133358
0.0302146
-0.0264876
0.374994
0.0894428
-0.000191801
-0.0556477
-0.0716955
-0.00401159
-1.91903e-06
-0.00191727
0.22733
-0.000215908
-0.00484842
-0.00420149
-0.00124197
0.00928512
0.0304838
-0.000197645
-0.000136648
-0.00799278
-0.11383
-0.0371507
-0.0821155
0.258851
-0.00254472
-0.000297732
-0.0389428
-0.0247101
0.00994429
0.0139306
6.10267e-05
0.0770894
0.157511
0.019657
0.0253516
-0.000667274
-0.0136552
0.0269435
0.00135198
-7.36003e-05
-0.00960661
-0.00413475
-0.000776545
-0.0115737
-0.000892492
0.266625
-0.0092597
-0.161856
-0.0247392
-0.0109509
0.0121247
0.474011
-0.0436611
-0.000138144
0.456228
0.1768
0.00796498
-0.00598201
0.00771806
0.00721573
0.171357
0.000351998
-0.00332386
0.56215
0.3038
0.334396
-0.0455155
-0.00144864
-0.00127412
-4.62236e-05
-0.00135459
0.303576
0.0876553
-0.00861679
-0.00621293
-0.000385483
-0.0268856
0.537148
0.407395
0.0844061
-0.00291409
-0.0626584
-0.00538328
-0.000757484
-0.0238266
0.0130164
-0.0274009
-0.00362023
0.000910984
-0.102765
-0.114875
0.0312882
-0.0252308
-0.00513547
-0.0258785
-0.000215397
-0.00709893
-0.00072135
0.353286
4.10903e-05
1.84944e-06
-0.0333606
-0.019806
-0.0286876
0.0400733
2.98361e-05
-0.0967953
0.0679042
0.210376
0.602345
-0.00472206
-0.13293
0.0309572
-0.00212912
0.070436
-0.000625437
0.0106255
-0.000202233
0.271553
-0.0815046
0.0108798
0.139054
0.124738
0.00147991
0.00271022
3.10195e-06
0.425381
-3.66801e-06
-0.0447181
0.000335565
0.00168642
0.193575
0.108179
-0.0838893
-0.0387097
-0.00418531
0.638323
-0.0855922
3.82573e-06
-0.0155809
-5.37781e-05
-0.0179833
0.110483
0.211582
0.000904731
-0.0349889
-0.00947842
0.159897
0.0437214
-0.0323129
0.548541
-0.0099709
6.28171e-05
-0.169404
0.570211
0.00167537
0.0986329
-0.0449126
0.156772
0.00191859
0.0324687
-0.0732896
0.00516803
0.056823
-0.0330533
0.21023
-0.0260492
-0.019421
-0.00082376
-0.000830058
0.498353
-1.14814e-05
-0.00582722
-3.74555e-05
-0.00812751
0.000352767
-0.00737205
0.263989
-3.06183e-06
-0.0010438
0.106772
-0.167482
-0.0252337
0.00114836
0.414236
-0.0602366
0.184022
-0.0118467
0.167169
0.00666631
-0.000770426
-0.0574899
0.000779262
0.509599
-0.0274948
-0.000129958
0.00229638
0.153464
-0.0112693
-0.00072186
-0.000141624
-0.104306
-0.00262883
-0.00991951
-0.0815992
1.69999e-06
-0.0684371
0.00040419
0.363706
-0.0103749
0.160726
0.00441115
-0.0037431
0.285088
-0.0707609
-0.165996
-0.00441261
-0.11603
0.293431
0.309686
-0.0140976
-2.6466e-05
-0.0154595
0.0046825
4.07487e-06
0.0631717
0.393259
0.0127739
0.0016133
0.00755322
-0.0696494
-0.000179614
0.0837559
0.0496675
0.0781378
0.0134432
0.0280714
-0.000403319
0.189962
-0.0692025
-0.17501
-0.001027
0.0186668
0.156443
0.000815115
-0.0713096
0.232905
-0.0464403
-0.0731185
-0.0714289
-0.114699
-0.117568
0.0546353
0.235121
-0.130887
-7.26658e-06
0.000833197
-0.0355969
-0.00182068
0.00483697
-1.13062e-05
-0.00577046
0.00402984
-7.78274e-05
0.0598381
-0.000534654
0.130094
-0.0341553
-0.0070235
-0.00694055
-0.00855826
-0.0727208
-0.00587836
-0.00107154
0.0216891
0.0827378
0.00440498
-0.0329562
-0.00300544
0.0297146
-0.00949992
-0.0192501
-0.0717989
-0.0158809
-4.24107e-05
-0.0152124
0.453803
2.51927e-05
0.137514
-0.0569178
0.538004
0.0503537
-0.0460678
-1.17037e-06
0.00171202
-0.0988496
-2.23543e-05
-0.00275192
-5.00055e-06
-0.0832786
0.00458134
-0.100306
-0.0229355
-0.000136115
0.289049
0.279359
-0.0360469
0.000458193
-0.000185677
-7.76809e-06
-6.52657e-05
0.485913
-0.00135317
0.00232188
0.0222941
0.000967501
-0.00061694
-0.0725158
-0.000265447
0.0473426
0.00147196
-0.00213171
-0.000767724
-0.0255667
-0.0419642
0.193031
0.104275
-0.000175285
-0.0132718
0.000544698
-0.074268
-0.000630354
0.144494
-0.0106163
0.632833
-0.0188381
-0.00149073
0.0789547
-0.0190755
0.359152
-0.0425739
-0.0113214
-0.0131026
0.0188414
-0.00370544
2.49796e-06
-0.00845768
0.321118
-0.0433154
-0.00331974
-0.0414789
-0.0270161
0.164153
-0.000532496
0.293249
-0.00448636
-0.0707867
-0.000556818
0.0135418
0.0475779
-0.00879049
0.345053
-0.000495456
0.0341915
0.0935656
0.000484098
-0.000149969
0.526508
0.0703748
-0.00136315
0.0306052
0.0180242
0.00012131
-0.0768586
-0.0224619
-0.156048
-0.0108737
0.347277
0.004155
0.176854
-0.00041963
0.407655
-0.0705392
-0.00541041
0.00635556
0.0324462
-0.0764776
-0.137822
-0.00873032
4.14794e-05
0.582105
-0.0227111
0.000830552
-0.0442939
-0.0395613
0.352264
0.00307301
-0.0165245
-6.27739e-05
0.0868827
0.00822935
-0.0384256
0.000821399
-0.00359522
-0.0281647
3.34148e-05
-0.0524087
-0.00163595
-0.0150405
-0.0649662
0.303583
-0.010485
0.0423354
-0.0548078
-0.0332276
-4.04181e-05
0.000139288
-0.00393957
3.49258e-05
-0.0113863
0.00187844
-0.00214091
-6.70217e-06
0.519227
0.00514404
0.000328836
-4.93305e-05
-0.0022313
0.340089
-0.0523109
0.583634
0.201122
0.0228566
0.298287
-1.27043e-05
-0.0151032
-0.000891084
-0.00258292
0.210602
-0.0105311
0.580873
0.273436
-0.0585648
0.284828
0.00882951
-0.0146226
0.00229636
-0.0579314
-0.00412154
-0.0524524
-0.0555781
-0.00315902
0.280868
-0.0102416
0.000137043
-0.00448518
-0.0007085
-0.0337801
-0.000182729
-0.00132837
-3.12875e-05
0.173921
-0.136095
0.28956
0.0288301
-0.00287754
-0.0364036
-0.0208455
0.0779071
-0.00320254
-0.00112513
-0.0661061
-0.0466506
0.00827896
-0.042921
-0.00469169
0.00629132
0.00185255
2.66783e-05
0.150179
-5.07014e-05
0.0603176
-0.000860678
2.88736e-06
0.00205454
-0.000718413
-0.00128996
-0.0166504
0.191844
0.16259
-0.0203057
-0.0130497
0.00299368
-0.00531874
-0.0105695
-6.78766e-05
-0.000529191
0.000704157
0.123898
-0.00917601
-0.0598109
-0.0583037
-0.00254433
-0.0272252
-0.0175396
-0.00181118
0.00546441
-0.0128585
0.260513
-0.0770872
0.00559179
0.00133613
-0.0392958
0.572759
-0.0104027
-0.00603265
0.0080256
0.0882406
0.00414764
-0.00698485
0.282361
-0.000397395
0.0467171
-0.0255141
-0.0662199
0.00658281
-0.00393826
-0.00577499
0.0435265
-0.00380311
-0.000672458
-0.00269821
0.00259475
-0.0002576
0.0318166
-0.0097729
-0.00215792
-1.22091e-05
0.175979
-5.17635e-05
-0.0348932
0.0851973
-0.0266511
0.000129589
0.122525
-0.05042
0.189609
-6.69649e-05
-0.0041747
0.103201
0.000173857
0.00511706
-0.00475223
0.0108606
-0.0212847
-0.0329081
-0.00965592
-0.00283364
0.01028
0.0217199
0.0945991
-0.000206033
0.127833
-0.0410668
-0.00349654
-0.00726358
0.000409827
-0.0733754
7.16058e-05
0.458493
0.23766
-0.000527709
-0.0221874
7.63588e-05
-0.00229428
-0.00607014
-0.0201073
0.175755
0.17135
0.0135199
0.0105721
-0.0741429
0.0379073
0.0472454
0.0591336
-0.0519407
0.0152781
0.231868
-0.00995168
0.39559
-0.000986761
-0.0113023
-0.0554849
-0.000108412
-0.000806495
-4.58287e-05
0.392645
-0.0107289
0.000265717
-0.0160193
-0.00600449
-0.000351674
-0.0136117
0.299831
0.000976549
0.0113439
-0.0331194
-0.000533134
-0.00479752
-0.000857033
0.589355
0.000208344
2.49706e-05
-0.00205516
-0.0150483
0.101113
0.000548753
0.00958495
0.0833554
-0.000176476
0.00209904
-0.0740216
0.0605675
-0.0573024
7.03302e-07
0.000337415
-0.0102225
0.0331416
0.327798
0.100772
-0.0340827
9.07448e-07
-0.0634199
-0.00272956
-0.0129121
-0.0124839
0.193274
0.440115
-0.000119174
0.162805
0.255615
-0.00997351
-0.0283325
-0.0254585
-0.0169435
0.000104882
-0.0403676
-0.00891737
-0.000139484
-0.000578568
-0.00165422
-0.00197124
-0.000709989
0.321174
0.34091
0.213329
-4.81209e-06
-0.0234655
0.0319506
0.114824
0.464354
-0.000513823
-0.0202432
-0.0186061
0.31665
-0.0193365
-0.0098605
-0.0134269
0.167086
0.000296775
-0.000534585
-0.0268771
-0.0508904
0.154047
0.0423316
-0.0462017
-0.0250282
0.100302
0.0204019
-0.0511509
0.00717271
0.0174782
0.155137
-0.000369691
-0.000657495
0.109447
0.00020041
0.0256401
0.0328804
-1.34301e-05
0.291632
-0.0109522
-0.00456447
0.607016
-0.0366721
-0.0109483
-0.0384317
-0.00282197
0.436423
0.0011652
0.575069
-0.000147787
-0.0264088
0.583641
0.00702706
0.434416
-0.00586888
-1.04788e-05
-0.0298314
0.441037
-0.00163986
-0.00678139
-0.00823611
-0.00104014
-0.0216863
0.444574
0.11885
1.34187e-06
0.020273
-0.00383087
0.0307954
-0.000927303
0.0239558
-0.00268357
-0.000500219
0.423125
0.453024
0.427804
-0.0511665
0.0340806
0.000138738
-0.055153
0.296672
0.0154802
0.000235499
-0.0808859
0.000592041
-0.00011418
0.451181
0.00012028
0.00429795
-0.00199224
-0.00936772
0.431959
0.444516
0.458173
0.0121792
0.00048127
0.226566
0.00778405
0.023598
-0.00923469
6.66049e-05
-0.00302377
-2.46676e-05
-0.00464953
-0.000774172
-0.00593041
-7.7171e-05
0.159502
0.0021674
-0.0851471
-0.00937972
-0.0694424
-0.016316
-0.000803608
0.357219
-0.0108643
-1.53111e-05
-3.47797e-05
0.565284
2.65182e-05
0.0116727
0.0590009
-0.0179152
0.312446
-0.00532395
-0.0421669
-0.0363388
-0.000541045
0.000120934
0.268794
0.454791
-0.00158263
-0.0231537
-0.000246524
0.448618
0.54425
-0.00147848
-0.00669314
0.0198507
0.00312106
-0.024359
6.1386e-05
0.0103743
-0.0375247
0.0594615
0.359107
-0.0015485
0.0294464
0.114774
0.0354304
-0.0430447
0.0290145
0.528452
0.198187
-0.0507246
0.453738
-0.000611619
0.463696
-0.00764155
0.381859
0.0798468
-0.00513624
0.0356972
0.00246475
0.0180891
-0.0696398
-0.00068995
-0.0230965
0.380969
-0.0264896
0.0237258
-0.00152099
-0.00859203
0.191384
-0.00925414
-0.0342669
0.000711752
-0.00369676
-0.0236479
-0.00219225
0.00199923
-0.0088602
-0.000516921
0.00247876
0.379596
0.00216391
-0.0156986
-0.0590579
-0.0288507
-0.0604542
-0.0966752
0.00426189
-2.95731e-06
-1.70894e-05
0.26841
-0.0652868
5.66274e-05
-0.0698622
0.184482
-0.0601728
-0.0147881
0.000112116
-0.00193292
-0.0445586
0.150547
-0.0090664
-0.000494
-0.0444245
-0.0196397
0.587122
0.11473
0.0705184
-0.0545442
-2.01002e-06
-0.00671151
0.0664886
-0.000386811
1.71969e-05
0.17504
0.103676
0.000617639
-0.000879213
0.00663735
-0.0423198
0.0103572
0.00794768
-0.014855
4.99052e-05
0.291779
0.000580404
-0.000646068
-0.000242282
-0.000226817
-0.000162723
0.0835675
0.000916456
-0.00280658
-0.00941836
-0.00485678
0.0288713
-0.00535746
-0.0401015
-0.010241
0.411554
0.34166
-0.000500158
-0.00148663
0.100075
-0.000826222
-0.0218161
0.0642142
0.0884301
-0.000974164
0.0207326
0.0405027
0.00128603
0.104974
-0.000108941
0.00745074
-0.0210771
0.0137726
-0.014306
0.0493072
6.81111e-05
-0.000205125
0.00026367
-5.33124e-05
-0.00157272
-0.00946561
-0.0123915
-0.0282057
0.0577108
0.0377321
0.0091792
-0.0706855
0.0106031
0.00566458
0.0129787
5.46714e-05
0.445226
-0.00804829
-0.00321246
-0.0212605
0.594569
5.50284e-06
0.0712754
-4.98374e-06
-0.0503092
-0.0062402
-0.02118
0.173791
-0.00388291
-4.58377e-05
0.18076
0.0719762
-0.000550726
0.0513077
-1.16725e-05
0.16255
0.00604436
-0.0271176
-0.000147363
0.240987
0.0282029
-0.0193399
3.211e-05
0.168542
0.310675
-0.00109683
-4.04029e-05
-0.0348008
-0.00860972
0.00361358
0.0210437
0.465572
0.269202
0.000457912
0.3346
0.247429
-0.00274349
-0.0511199
-0.0384279
-0.0160228
-0.0597378
0.136251
0.000781245
0.484217
0.148582
0.0120504
8.70563e-05
0.000603937
7.98276e-06
-0.000549445
-0.00267303
0.517637
2.4154e-06
0.0779213
0.0264239
-0.000224745
0.479457
0.544222
0.19574
0.227263
-0.00922431
0.00237303
-0.000280828
-0.0104275
-1.28246e-05
-0.00105829
-0.164491
-3.19951e-05
-0.00187318
0.491878
-0.0109204
-2.02409e-05
0.513446
0.000432018
-0.032479
-0.0678729
-0.00126233
-0.0920196
-0.000229132
0.148545
0.00318611
-0.0167318
0.00184772
-0.00063662
-0.000378926
-0.000217677
-0.168654
-0.0575144
0.151584
0.00262579
-0.00773597
0.233209
6.62104e-05
0.569016
-0.0005305
-0.0770976
0.00213698
0.00155472
0.0494646
0.0519949
-2.45212e-06
-0.00392049
9.59191e-05
-0.000644838
0.000794733
0.0815435
0.0473001
0.315823
-0.050031
-9.81262e-05
0.00015494
0.0959019
0.34196
-0.0041781
-0.00589152
0.570352
-0.00262644
-0.0190427
0.000813129
0.0687497
-0.0497942
-0.007969
0.155131
0.00125646
-0.000239964
0.00157053
-0.0112352
0.55871
0.444251
-0.0222231
-0.0404754
-0.00606681
0.00148047
2.10593e-05
0.0728082
0.19759
1.12607e-06
-0.00680312
-1.90366e-05
0.000120936
0.418414
-2.39678e-07
-0.0835713
-0.0624801
-0.112107
0.0671835
1.79887e-06
0.00936606
-0.00582042
0.38636
-0.00526746
0.00471577
-0.028129
0.000588887
0.344214
0.204111
0.0100425
0.0512351
0.497118
-0.0620172
-0.0579167
-0.0018015
-0.00653838
-0.00036581
0.0205032
-6.85477e-05
0.162396
0.00273103
0.191986
-0.0329462
-1.42142e-06
0.0533567
-0.000162696
-7.58613e-06
-0.000719996
0.556415
0.534503
0.305669
5.1345e-05
0.177
0.461797
-0.000918477
0.00121648
-0.00783492
0.0773882
0.443575
-0.0253803
0.11806
-0.00242963
-0.059168
-0.0670718
0.615836
-0.000566161
0.442719
0.0848344
0.186464
9.87399e-05
0.000193255
0.00503103
-0.00831114
0.0798197
-5.3982e-05
5.85476e-05
0.434554
-0.125312
0.000269936
0.455217
-0.0021794
0.000138007
0.368438
-0.00682303
-0.00145588
0.0025409
0.148962
0.000292365
-0.000127725
0.00322278
-0.00376816
0.431342
0.552862
0.278015
0.601758
0.11539
-0.0420708
0.502298
-7.8217e-05
-0.00302509
0.138523
-0.0032214
-0.00061404
-9.66066e-05
0.453605
0.0213285
-0.000610167
0.53864
0.0720554
0.236914
0.0411016
-0.00253618
-0.0191282
0.152537
0.0693628
0.451697
-0.0232305
-0.000735634
0.416147
0.382981
0.0120867
0.322724
-0.0375252
-0.00719909
-0.00875504
-0.000600333
-0.000134163
0.420998
-0.0591706
0.00892724
0.000701682
0.151425
-0.0286025
-0.0196718
-0.000944881
-0.00370116
0.470258
-0.000751198
-0.0160539
-0.00278764
0.462091
-0.0180188
0.0186677
-0.00691391
0.0012961
0.147295
-0.0200447
0.481179
0.118698
0.598761
0.240826
-0.0539623
0.0291602
-0.00166809
0.00477806
-0.0392831
0.437718
0.466821
0.522307
0.306503
0.425398
-0.000354124
0.494101
-3.17826e-05
6.02372e-05
-0.0439004
0.53271
0.0472747
0.235224
-4.57855e-06
-0.00200453
-0.0743369
-0.0346159
0.430281
-0.000637572
-0.00707397
0.305474
0.000958707
-0.00391914
0.580051
0.0440562
-0.0440311
-0.156298
-0.000507998
0.0638116
0.111719
0.606124
0.0897105
0.0428239
0.00383951
-0.000223437
-0.00983234
0.182403
0.00478161
0.00011654
-0.102432
0.230562
-0.00138072
0.442789
-0.075051
0.447965
-0.0295355
-0.0211089
0.499679
-0.00491933
0.0357405
-0.000380884
-0.00123246
-0.0565542
-0.020411
-0.0325892
-0.00891068
0.000781265
-0.110379
-0.0637423
0.445258
0.000232916
0.000689551
-0.0188005
0.111759
-0.11798
-0.0532362
-1.00137e-07
-0.107488
0.0431402
-0.000101207
-0.0901769
-0.0217202
0.452003
-0.115144
0.440648
-0.0124488
0.106076
0.235201
-0.0312623
0.294977
-0.00165164
0.0948978
0.000502435
0.0790909
0.183293
0.162794
-0.0257689
0.00555208
-0.000624346
0.166768
-7.94862e-05
-0.00012374
-0.000959511
-0.00624436
0.0136735
0.0134566
0.376908
0.145094
0.562926
0.349188
-0.0014149
-0.0288183
-0.000160236
-0.0437179
-0.00116443
0.00521715
0.000576627
-0.0317899
0.309879
0.441182
-0.000270947
1.85693e-05
0.0356659
-1.41828e-05
-0.00823509
-0.000172521
0.123317
-0.031655
0.174193
-0.0973076
3.07639e-05
-0.0124248
-0.0356359
-0.024063
-0.014732
-0.046192
0.0466902
-0.000153814
-3.40535e-05
0.00187336
-0.000131056
0.0716364
0.086312
0.0352352
0.52304
0.0402316
-0.151397
-0.0765178
-0.000406566
0.0463411
-0.000118305
0.416266
0.0902461
0.486876
0.000121992
-0.02917
-0.00611384
0.044357
0.180224
0.380452
-0.00681452
0.0263627
-0.00172097
-0.0177544
-0.00718458
-0.00546937
0.096872
0.00141744
-0.00804973
-0.0181247
0.22822
0.0571419
2.51828e-06
-0.000809626
-0.00556605
-0.000555293
0.104201
-0.000610946
-0.0321523
0.135791
6.71791e-05
0.236156
7.60208e-05
-2.99287e-06
-0.0892733
-0.0191137
0.00014363
-0.0199905
0.000139759
0.50746
0.0111226
-0.0212769
0.474202
0.115051
-0.0276511
0.370876
-0.00248563
-0.00169951
-0.00187911
0.0753077
0.635821
-0.00135333
-0.000559753
-4.74746e-06
0.00700735
-0.00113709
0.0227773
0.00547303
-0.018463
-0.0522107
0.0163982
0.00930482
-0.0166663
-0.000493585
-0.0228225
0.364933
-0.00164186
-0.0121866
-0.00021424
0.378761
0.0478028
0.361308
0.000381799
-0.000773075
-0.0212701
0.525206
0.131582
-0.0249783
-0.000123097
0.0279098
0.0890454
-0.0284574
0.182951
-0.0415294
0.0169021
-0.15859
0.380844
-0.0152039
0.224988
-0.00284512
0.602151
-0.0360262
-0.00975628
0.47944
-0.0376115
0.149027
-0.172858
0.165957
0.00573552
0.0442184
0.295945
0.0444414
-0.0417934
-0.00859199
-0.00678703
-0.0150653
-0.00968134
-0.00138055
-0.0510922
-0.0247008
0.0017306
-0.0576628
-0.0735727
-3.71302e-05
0.116714
-0.00809683
0.121091
0.4817
0.336303
-0.0465296
-0.0634949
0.000399878
-0.0821521
-0.00404613
0.583983
-0.0309446
-0.0264906
0.332226
0.0426588
-0.0359611
0.207125
-0.0323245
-0.00059617
-0.0103788
0.00889853
0.00055605
0.349233
-0.00242975
0.127451
0.301112
-0.00506238
0.216825
-0.110436
-0.000341731
0.00592005
0.0730787
0.315417
-0.00226834
0.0724266
-0.0640336
0.0603724
-0.0202949
0.340523
-0.000420439
-0.0785891
-0.00295263
0.000159011
0.438924
-0.00221611
-0.0319365
-0.000101886
0.188559
-6.07687e-05
-0.0453593
-0.00300736
-0.157616
0.000557527
-0.00919749
0.176607
-0.00350755
0.000822232
0.000542339
-0.00369169
0.0440412
-7.63902e-05
-2.45804e-05
-0.00756634
-0.00936069
-0.0203674
0.00723201