/*--------------------------------*- C++ -*----------------------------------*\
  =========                 |
  \\      /  F ield         | OpenFOAM: The Open Source CFD Toolbox
   \\    /   O peration     | Website:  https://openfoam.org
    \\  /    A nd           | Version:  7
     \\/     M anipulation  |
\*---------------------------------------------------------------------------*/
FoamFile
{
    version     2.0;
    format      ascii;
    class       volVectorField;
    location    "21";
    object      U;
}
// * * * * * * * * * * * * * * * * * * * * * * * * * * * * * * * * * * * * * //

dimensions      [0 1 -1 0 0 0 0];

internalField   nonuniform List<vector> 
7807
(
(1.07453 0.130759 7.30085e-21)
(1.05659 -0.0406103 1.83336e-21)
(0.995064 0.10643 -1.50935e-20)
(1.03582 0.067408 2.13135e-20)
(0.99916 -0.00102717 -4.05305e-23)
(0.99996 -1.00434e-05 -4.1606e-24)
(0.990203 0.0882711 -2.99028e-20)
(0.994589 -0.00196975 -8.48167e-24)
(0.999877 -0.000190052 -7.16048e-24)
(1.02411 0.000862582 -1.0097e-21)
(0.999963 -1.18642e-05 4.58882e-24)
(1.00228 -0.00131167 -1.67588e-22)
(0.991685 -0.00251804 4.19985e-22)
(1.01974 -0.00185688 -6.54846e-21)
(1.0234 0.00135005 4.27013e-21)
(0.991258 -0.0159962 -8.34668e-22)
(1.07694 0.136622 -1.53751e-20)
(0.988772 -0.00324902 -1.4666e-22)
(1.00254 -0.00982382 -5.60308e-23)
(0.986005 -0.105246 -6.86368e-22)
(1.03541 -0.00391944 -2.25291e-21)
(1.00151 -0.000754013 3.16478e-22)
(1.01839 -0.00335954 5.67677e-22)
(1.011 0.0302566 -1.09945e-20)
(0.984977 -0.00410224 -6.68876e-22)
(1.07005 0.129174 -7.31069e-21)
(0.999196 -0.00097319 -2.87232e-23)
(1.02385 -0.00172976 2.57805e-21)
(1.00537 0.0151965 -1.40928e-21)
(1.00397 -0.010436 4.64081e-23)
(0.986304 -0.0170722 -1.51157e-21)
(0.873175 0.0390794 4.46861e-21)
(1.01809 -0.00401809 3.48968e-21)
(0.99952 -0.000410686 5.04375e-23)
(0.999895 -6.27141e-06 9.47052e-26)
(1.02371 0.000544455 1.49868e-21)
(1.00461 -0.0114547 5.54294e-23)
(0.99461 0.0857227 -4.78067e-21)
(0.996333 -0.00836191 6.84068e-22)
(0.999663 -5.98396e-05 4.80316e-23)
(0.99675 -0.00859427 -7.81034e-23)
(0.991379 -0.0149685 -3.09474e-22)
(1.01587 -0.112914 2.98681e-21)
(1.15387 -0.0393085 1.67584e-22)
(0.999798 -1.18657e-05 1.53928e-23)
(0.99992 -1.64901e-05 -4.31134e-24)
(1.00141 -0.00061861 -1.93334e-22)
(0.99608 -0.00762025 -4.0497e-22)
(0.999932 -3.07949e-05 -3.45316e-24)
(0.990721 -0.105551 9.9319e-22)
(1.00332 -0.00115264 1.80904e-22)
(1.02372 -0.000723859 -2.67987e-21)
(0.980296 -0.0049648 -2.25499e-21)
(1.01267 -0.0315559 1.08972e-22)
(1.02407 -0.000424568 -8.92314e-22)
(0.995257 -0.00271352 -7.68282e-23)
(1.00239 -0.00916342 1.18642e-22)
(0.994552 -0.00170377 5.72612e-22)
(0.976228 -0.0208985 -2.69403e-21)
(0.999502 -0.000365154 -6.47131e-23)
(1.00004 -2.42265e-05 -7.5352e-24)
(1.00435 -0.00119052 2.02035e-22)
(1.02003 -0.00115716 -1.54166e-21)
(1.00245 -0.00113545 1.69654e-22)
(0.999036 -0.000201935 9.26368e-23)
(0.986946 -0.0177061 2.64961e-22)
(0.999904 -0.000190555 5.45373e-24)
(1.00002 -2.50518e-06 5.26124e-25)
(1.14788 0.0737796 3.51237e-21)
(0.996247 -0.00721239 -1.21494e-22)
(0.999925 -2.02917e-05 3.82355e-24)
(0.970596 -0.0631582 -5.01949e-21)
(0.985638 -0.00454431 3.25661e-22)
(0.972507 -0.00624036 4.45106e-22)
(0.989279 -0.00358146 4.59388e-22)
(0.962869 -0.0306495 -5.88578e-22)
(0.998801 0.107784 2.42577e-20)
(1.03358 -0.00384228 2.86009e-21)
(1.08528 0.00247196 -5.55925e-21)
(0.952155 -0.0525733 -6.3372e-21)
(0.992084 -0.00278203 -6.44692e-22)
(0.999247 0.0547319 2.97494e-20)
(1.04004 0.00673445 6.66084e-21)
(0.972024 -0.0110762 2.04511e-21)
(0.998638 -0.00260503 -6.56513e-23)
(0.997727 -0.000331259 6.87903e-23)
(0.994227 -0.00259889 7.887e-22)
(0.981089 -0.00554358 1.451e-21)
(0.999356 -0.00121387 4.34926e-23)
(0.995459 -0.000701731 2.4574e-22)
(1.00563 0.0172614 1.04376e-20)
(1.18486 -0.0212365 -2.21166e-22)
(0.999865 -5.63211e-05 -9.20474e-24)
(1.00196 -0.00778776 4.90609e-23)
(0.996414 -0.00107263 2.22576e-22)
(0.972123 -0.00347773 -3.56098e-21)
(0.973225 -0.0626011 3.58335e-22)
(1.0144 -0.0302936 5.72754e-23)
(0.998498 -0.00251323 2.20147e-23)
(0.998851 -0.000197068 3.09276e-23)
(0.94579 -0.0189594 1.53744e-21)
(1.08589 0.00753556 4.55772e-21)
(0.996619 -0.0012189 -5.55047e-22)
(0.999974 -1.19059e-06 -3.50811e-25)
(1.18735 -0.00911647 -2.55046e-22)
(1.02993 0.0303167 -1.00112e-20)
(0.935677 0.0276854 5.10355e-21)
(0.994934 -0.00256637 -3.19954e-22)
(0.999991 -2.32407e-06 5.85384e-26)
(1.02598 -0.0135861 -1.21926e-21)
(1.03904 0.0640221 -2.4756e-20)
(1.03119 -0.0818599 -3.30028e-21)
(0.999989 -2.7766e-06 -1.0276e-25)
(1.02772 -0.0140775 -2.66363e-22)
(1.02666 0.0290101 1.05264e-20)
(1.00043 -0.000586589 -1.51338e-23)
(1.08059 -0.0932465 -1.16989e-22)
(1.03025 0.0173841 -2.42419e-21)
(0.983362 -0.0492519 2.14084e-21)
(0.972177 -0.00759256 -4.64759e-22)
(0.941896 -0.012456 -3.71122e-21)
(1.00101 0.032221 -1.93635e-20)
(1.02257 -0.110793 -4.11418e-21)
(1.00994 -0.00802143 1.02971e-22)
(0.943979 -0.0142213 1.46346e-21)
(0.999064 -0.00140873 9.69307e-23)
(0.987447 -0.0128836 5.03872e-22)
(1.00303 -0.00874362 -8.17141e-23)
(0.998982 -0.000148907 -2.06593e-22)
(0.986331 -0.0157205 2.59652e-23)
(1.22401 -0.0353519 -4.13772e-22)
(1.07969 6.61387e-05 9.42135e-22)
(0.999404 -0.000555953 5.49342e-24)
(0.99925 -0.00124457 -8.43354e-23)
(0.970639 -0.0101499 6.08902e-22)
(1.03666 0.0572552 9.15306e-21)
(0.995763 0.0267683 3.45095e-20)
(0.999976 -2.65112e-06 -4.09795e-25)
(1.00757 -0.00316834 8.4516e-23)
(0.919891 -0.015746 -4.66368e-21)
(0.974287 -0.00449675 -1.81722e-21)
(0.989852 -0.0681127 -3.14371e-21)
(0.96349 -0.0329787 7.97832e-22)
(0.974095 -0.00561016 -3.97821e-23)
(0.929165 0.0217034 1.99287e-20)
(1.01496 -0.0486459 -1.06401e-22)
(1.01143 0.0181354 -5.3282e-21)
(0.978841 -0.0248869 -1.3954e-21)
(0.961228 -0.00609594 5.04113e-22)
(1.00073 0.0454136 -9.62652e-21)
(1.02437 0.00119576 3.7846e-21)
(1.17165 -0.0250178 4.06151e-22)
(0.998528 -0.00206609 -2.29108e-22)
(1.15329 0.0659826 5.83677e-22)
(1.03807 0.00628976 -6.91507e-21)
(1.00599 0.0887516 -2.419e-20)
(0.957125 -0.0361786 2.45593e-21)
(0.991679 -0.00193605 1.42343e-22)
(0.945624 0.0728722 4.45392e-20)
(0.999938 -2.59925e-05 -3.21933e-24)
(1.00149 -0.00821657 -3.38814e-23)
(1.01135 0.0334844 7.91907e-21)
(0.999978 -2.02011e-05 1.85932e-24)
(0.998288 -0.00530374 -3.20176e-22)
(0.995944 -0.00103768 -1.0665e-22)
(1.00363 0.0375791 -2.58497e-21)
(1.00187 0.0293951 9.58912e-21)
(0.937749 0.0802255 1.47566e-20)
(0.998002 -0.00513763 -2.00864e-22)
(0.996867 -0.00039001 -1.2104e-22)
(1.00002 -2.88774e-06 -4.9214e-25)
(0.93818 -0.00761391 -6.38536e-21)
(1.00041 -0.000520963 2.08634e-23)
(1.05839 -0.0366825 -2.14734e-21)
(1.00782 -0.00347022 5.63951e-22)
(0.962193 -0.00721244 1.04171e-21)
(1.177 0.000774353 4.47257e-22)
(1.10343 0.07359 2.89077e-22)
(0.999867 -6.80356e-05 5.01643e-24)
(0.999498 -0.000644781 -5.75512e-23)
(1.03706 0.0710664 -3.74836e-21)
(0.999938 -1.88066e-05 -1.57169e-24)
(0.999888 -1.26802e-05 2.3921e-24)
(0.990421 0.0936196 -2.47063e-20)
(1.059 -0.0440474 5.14511e-22)
(1.01544 -0.0698396 -1.88123e-21)
(0.98544 -0.047618 -3.03608e-21)
(0.975057 -0.00808259 1.33424e-21)
(1.01181 -0.050274 1.84867e-22)
(0.921893 -0.0132992 2.45356e-21)
(0.999976 -1.8396e-05 -6.80083e-25)
(0.973715 -0.0585661 -1.2041e-21)
(1.10593 0.0808553 -7.32274e-21)
(0.996602 -0.00148458 7.97592e-23)
(1.00008 -6.87859e-06 -5.3422e-24)
(1.07543 0.0771163 7.49059e-22)
(0.998754 -0.000402284 2.19322e-22)
(0.987211 -0.0150978 8.06225e-22)
(1.00864 -0.0476978 6.1305e-22)
(1.00002 -2.29025e-06 -2.12435e-25)
(1.00089 -0.00202561 -8.46533e-23)
(1.03309 0.0566931 1.13031e-20)
(1.09286 0.0869195 -9.51895e-21)
(1.00172 0.0787754 -3.24651e-21)
(1.07573 -0.0866886 1.28444e-21)
(1.03493 -0.0777044 7.76112e-22)
(1.13247 -0.121315 -4.93376e-22)
(1.02407 -0.0022933 7.63587e-21)
(1.03052 0.0533625 -3.68468e-21)
(0.999785 -2.24542e-05 -1.80838e-23)
(1.00004 -2.1128e-05 2.00822e-24)
(0.951598 0.0113344 -1.97185e-20)
(0.992631 -0.0143071 -2.91068e-22)
(0.99938 -0.000496356 -5.47073e-23)
(0.976226 -0.0574808 2.47277e-21)
(0.986847 -0.0136101 -5.88707e-22)
(1.01525 0.0823236 -2.7166e-20)
(1.01168 0.0798942 -5.75559e-21)
(0.986926 -0.070023 8.71193e-22)
(0.898289 0.0542335 -1.69212e-20)
(0.998843 -0.000456669 -1.61217e-22)
(0.988819 -0.00280012 5.24961e-22)
(0.94356 -0.0173322 2.02252e-21)
(1.03367 0.000628437 -1.60978e-21)
(1.02323 -0.140761 -4.08031e-22)
(1.0954 0.128163 -1.5533e-20)
(0.945752 0.0640854 -3.81464e-20)
(1.00007 -0.000111983 6.11952e-24)
(1.00986 -0.0074379 2.79668e-22)
(1.02815 0.0198498 1.31012e-20)
(0.996176 -0.00626871 -5.19075e-22)
(1.03286 0.0177751 -1.66092e-21)
(0.999469 -0.00131812 -1.37347e-23)
(0.915258 0.0905808 2.98675e-20)
(1.00649 0.0823385 5.29768e-21)
(0.994223 -0.00224182 5.01274e-22)
(1.00388 -0.00873211 -1.25004e-23)
(0.999684 -6.96634e-05 -8.92637e-23)
(1.1284 0.102045 3.74486e-21)
(0.999902 -1.14086e-05 7.08267e-24)
(0.994809 -0.0115874 2.4408e-22)
(0.931354 -0.0346695 2.78226e-21)
(0.999925 -2.69607e-05 -1.58361e-24)
(0.998755 -0.00303508 -5.57781e-23)
(0.999586 -0.00128023 2.54078e-23)
(1.06801 0.0473521 9.61505e-21)
(0.999979 -2.60332e-05 2.20567e-24)
(0.995265 -0.000540652 2.85009e-25)
(0.954798 -0.0520956 7.34595e-21)
(0.874507 0.0292139 -9.8593e-21)
(1.07895 -0.00480258 -1.26863e-21)
(0.926692 0.0612352 2.28828e-20)
(0.999953 -8.67991e-06 -3.87259e-24)
(1.00608 -0.0486368 -5.04641e-23)
(0.999811 -0.000326804 -1.98544e-23)
(1.00103 0.0908645 -2.42604e-20)
(1.00398 -0.000799557 -2.60372e-22)
(0.993773 0.0344215 1.12547e-20)
(1.00308 -0.0105603 -2.27783e-22)
(1.0008 -0.00215435 9.08374e-23)
(1.03246 -0.0348418 -5.77269e-22)
(1.02396 -0.0011375 -7.07407e-21)
(1.00059 -0.000349695 4.30758e-23)
(0.999766 -5.72263e-05 4.5199e-25)
(1.00051 -0.000472122 9.70638e-23)
(0.995977 -0.00665244 -4.62798e-22)
(1.02328 -0.072097 2.06431e-21)
(0.999955 -1.17782e-05 2.62056e-24)
(0.958892 -0.0346001 1.72696e-21)
(0.996153 -0.00119389 -1.99751e-23)
(0.999853 -4.81206e-05 9.77652e-24)
(0.999365 -0.000617219 1.77893e-23)
(0.98835 0.0561155 2.71754e-20)
(0.991634 -0.000905042 2.06707e-22)
(0.999216 -0.000114158 -1.85993e-23)
(0.90464 0.0130003 3.77124e-20)
(0.998597 -0.00292151 -1.26651e-22)
(1.06078 0.0998068 -8.75874e-21)
(0.99979 -0.000302384 3.62309e-23)
(1.00902 -0.0238125 8.1787e-23)
(1.00002 -1.56235e-06 -1.80042e-25)
(0.98229 -0.0398146 -1.22506e-21)
(1.03313 0.000391725 2.48536e-21)
(1.17859 0.0105889 -1.59055e-21)
(0.976555 -0.0224811 2.28224e-21)
(0.999583 -0.000652219 6.64871e-23)
(0.983317 -0.0897972 1.54628e-21)
(0.982295 -0.000533492 9.52791e-22)
(0.999812 -2.11117e-05 9.55904e-25)
(1.00049 -0.000411093 -8.59043e-23)
(0.997894 -0.00379397 1.74004e-22)
(0.99203 -0.00161607 -6.17641e-22)
(1.00315 -0.000996609 -3.09206e-22)
(0.998747 -0.00208906 8.28031e-23)
(0.973486 -0.0103219 3.21036e-22)
(1.02809 -0.0692774 -1.53089e-21)
(0.973606 -0.00866511 1.42573e-21)
(1.14641 -0.0313189 -1.07764e-23)
(0.964613 -0.00973734 -1.81784e-21)
(1.01764 0.105184 2.71967e-21)
(1.01359 0.107853 -2.00398e-20)
(0.998453 -0.000832454 -1.40728e-22)
(1.20147 0.00958192 5.10717e-23)
(0.999983 -3.57305e-06 -2.25907e-25)
(0.997864 -0.00470317 -2.11934e-22)
(0.971378 -0.00243126 3.64738e-21)
(1.00837 0.0271077 6.56946e-21)
(1.04138 0.0114034 -6.47657e-21)
(1.0001 -3.71754e-05 1.21474e-23)
(0.997987 -0.00443251 -1.39007e-23)
(0.96593 -0.0107614 1.37021e-21)
(1.0528 0.0411867 -3.85815e-21)
(0.998987 -0.0012998 7.27477e-23)
(1.00349 -0.000843322 1.74329e-22)
(1.00129 -0.00105992 -1.56445e-23)
(1.12807 0.0263466 5.00165e-21)
(1.22381 -0.0485961 -2.78339e-21)
(1.03765 0.125896 1.28195e-20)
(0.99835 -0.000264435 -1.37126e-22)
(1.06863 -0.0415518 -1.58406e-21)
(0.999882 -7.3471e-05 -7.95145e-24)
(1.00511 -0.00772896 -6.02069e-22)
(0.999944 -1.45931e-05 -1.10938e-24)
(0.984817 -0.0238383 3.97239e-22)
(0.999643 -8.09664e-05 -1.71563e-23)
(1.01373 -0.0231463 1.43306e-22)
(1.22559 0.0130695 8.509e-22)
(0.971579 -0.0321404 2.73352e-21)
(1.01026 -0.0231206 -7.17459e-23)
(1.00887 -0.0066796 -3.65301e-22)
(0.999244 -0.000148152 8.3396e-23)
(1.02849 -0.0182065 8.62756e-22)
(0.996993 -0.0207341 3.68538e-22)
(1.07988 0.0122664 -2.67513e-21)
(1.06288 0.0452097 4.39233e-21)
(1.18727 -0.129845 5.81336e-23)
(1.15119 -0.0493143 -9.71915e-22)
(0.981509 -0.00108684 -1.01928e-21)
(1.00531 -0.0038514 5.57577e-22)
(0.934058 -0.0327912 -1.07444e-21)
(0.929273 0.0795304 -4.59975e-20)
(1.13075 -0.0512401 4.84005e-22)
(1.02834 -0.010908 -3.33761e-21)
(0.907157 0.0585434 -2.29623e-20)
(0.998406 -0.000197865 6.77384e-23)
(0.998186 -0.00102935 -4.34549e-23)
(1.16856 -0.0357362 -8.22488e-22)
(0.998903 -0.00225741 -4.40776e-23)
(1.01508 -0.0452189 1.41046e-22)
(1.00608 -0.00193078 1.9566e-22)
(0.997024 -0.000459915 -1.07611e-22)
(0.997821 -0.000386961 -1.69572e-22)
(1.03319 0.0258033 7.67461e-21)
(0.999931 -0.000162737 -4.2771e-25)
(1.00056 -0.000279966 -3.8337e-23)
(1.00009 -1.50862e-05 9.14613e-24)
(0.996345 -0.000730017 5.7464e-22)
(0.993489 -0.010173 6.46068e-22)
(0.999981 -2.73802e-06 1.69449e-25)
(0.998862 -0.000271127 1.75146e-23)
(0.977386 -0.019777 8.0305e-22)
(0.950422 0.0168697 1.23032e-20)
(1.0123 -0.0241859 -6.37267e-23)
(0.992673 -0.0133961 1.04045e-21)
(0.963006 0.0627049 5.28814e-21)
(1.00094 0.0312647 1.7272e-20)
(1.06919 0.000952185 -2.16574e-21)
(1.19227 0.0151862 -2.32625e-22)
(0.936563 -0.00562478 3.48202e-21)
(1.00528 -0.00443268 -2.75633e-22)
(1.00926 0.0445937 -9.56705e-22)
(0.987827 -0.00249335 -1.25445e-21)
(1.04159 0.0992408 3.79641e-22)
(1.01161 -0.0540552 1.68544e-23)
(1.0469 -0.123654 -1.41635e-21)
(1.0881 0.0835837 5.88104e-21)
(1.04416 0.104767 -1.13435e-20)
(0.960371 -0.0298078 3.84252e-21)
(1.04251 0.00937096 -4.20716e-21)
(1.10037 0.132726 1.45542e-20)
(1.05491 0.100336 1.64992e-20)
(1.02507 -0.00208321 2.41053e-21)
(0.996819 -0.00160163 1.25236e-22)
(0.995567 -0.00248184 1.09412e-22)
(0.999907 -2.5611e-05 -3.76104e-24)
(1.01888 -0.0297086 1.57312e-22)
(0.987475 -0.00209346 2.95073e-22)
(1.00108 -0.00255565 -7.42289e-23)
(0.999888 -2.65769e-05 -7.06444e-24)
(0.998313 -0.000763192 5.49295e-23)
(0.980154 -0.088727 -2.55148e-21)
(1.11118 0.0377645 2.39076e-21)
(0.980969 -0.006825 -1.62677e-21)
(0.999523 -0.0135669 3.97412e-22)
(0.99597 -0.000790224 -3.07531e-22)
(1.06577 -0.0444713 3.70936e-23)
(0.992396 -0.00169772 -9.91029e-22)
(1.00267 -0.00791348 2.29812e-22)
(1.11299 0.126566 2.33188e-21)
(0.998055 -0.000366481 -3.93944e-22)
(0.999977 -4.97282e-05 -1.45889e-24)
(0.999944 -0.000195389 -8.99401e-25)
(1.00005 -0.000114748 8.31426e-24)
(0.97623 -0.00898823 7.47806e-22)
(1.03148 0.0235361 -9.0959e-21)
(0.995717 -0.000603152 1.20185e-23)
(1.0242 -0.00953464 2.15717e-21)
(1.03242 -0.146066 2.89437e-21)
(0.995821 0.0803247 -5.1175e-22)
(1.00435 -0.00795111 1.99743e-22)
(1.00705 -0.00494595 -9.05841e-23)
(0.994592 -0.00279806 -3.98475e-22)
(0.992823 0.0560737 -2.66004e-20)
(0.998896 -0.00013852 5.61085e-23)
(1.04141 0.129824 -6.50267e-21)
(1.00907 0.0189004 -1.02632e-20)
(0.999877 -3.26722e-05 8.27511e-24)
(1.0094 -0.0551406 -1.14988e-21)
(0.996479 -0.000842718 -2.83625e-22)
(0.99382 -0.0688588 3.843e-21)
(1.00059 -0.000148305 3.82912e-23)
(1.06426 0.00363391 3.04558e-21)
(1.00805 -0.0173096 -8.21634e-24)
(1.0066 -0.00442479 4.7334e-23)
(0.999111 -0.000175285 -1.11353e-22)
(1.07308 0.0447119 4.69359e-21)
(1.04823 0.0395414 1.51088e-21)
(1.01333 -0.0730325 1.88464e-21)
(0.978413 -0.0230478 -1.54129e-22)
(0.997777 -0.00405143 -1.50501e-22)
(1.00242 -0.044285 -2.11699e-21)
(1.14838 0.0563697 -4.51801e-21)
(0.880631 0.045301 -2.16262e-20)
(1.09496 -0.0790776 -1.25207e-21)
(1.00561 -0.00833744 -9.41898e-23)
(0.999993 -2.99754e-06 -3.88909e-26)
(0.985575 -0.00552616 -1.30126e-21)
(0.997614 -0.000417864 3.67187e-22)
(1.02725 -0.0183323 1.25406e-21)
(1.01251 -0.118663 -1.2447e-21)
(1.20059 -0.00381063 2.5852e-22)
(0.985767 0.0758552 -3.2748e-20)
(1.05684 0.0379873 6.37957e-21)
(1.13359 -0.108899 2.20842e-21)
(1.07541 0.0836257 2.49133e-21)
(0.999376 0.0324651 3.15188e-20)
(1.02037 -0.00267873 1.77647e-21)
(1.00129 -0.00246476 1.70068e-22)
(1.02533 0.0602678 5.68267e-21)
(0.999115 -0.00219957 9.83517e-23)
(0.999809 -0.000180563 7.84796e-24)
(0.979983 -0.00229183 4.56658e-22)
(1.0001 -3.58802e-05 2.298e-24)
(1.14318 -0.129452 1.34336e-21)
(1.00478 -0.0192837 -5.52183e-23)
(0.984668 -0.0390916 2.04901e-21)
(1.00199 -0.00168614 8.62705e-23)
(1.06974 0.0739421 1.32856e-20)
(0.998139 -0.000346558 -3.24689e-23)
(0.999974 -3.97396e-05 -1.81764e-25)
(1.03972 -0.129543 1.5694e-21)
(1.00175 -0.00144362 -5.04713e-23)
(1.11068 -0.00349011 -6.44632e-22)
(0.948655 -0.0177432 7.1572e-22)
(0.924064 -0.0216921 3.64138e-22)
(1.2046 0.058533 -2.25999e-22)
(1.02564 0.018877 -3.42195e-21)
(1.02185 0.00548329 2.10664e-21)
(1.02053 0.00513897 -8.50175e-22)
(0.999785 -4.71782e-05 2.79215e-24)
(1.11926 0.0370853 1.85324e-21)
(1.0803 0.0164927 3.11331e-21)
(0.999464 -0.000699545 2.58222e-23)
(0.98186 -0.007403 1.89017e-21)
(1.00065 -0.000221824 -4.26133e-23)
(1.01357 -0.0212435 -9.604e-22)
(1.01072 -0.0306146 -3.40243e-23)
(1.00473 -0.00146564 1.65756e-24)
(0.999211 -0.00139126 -1.17549e-22)
(1.12693 0.0941494 -1.14674e-20)
(0.999977 -2.39041e-05 -2.62244e-24)
(1.00022 -0.000116592 -1.15198e-23)
(1.00212 -0.0011342 -3.57191e-24)
(0.975147 -0.00388522 1.26542e-21)
(1.02039 -0.0115416 1.53399e-21)
(0.983404 -0.0329453 -2.9249e-21)
(0.969141 -0.00607818 -7.37649e-22)
(1.01911 -0.068759 1.05241e-21)
(1.05438 -0.155004 -3.07799e-21)
(1.03033 -0.0319225 3.888e-22)
(1.02964 0.0609431 -3.24791e-20)
(1.21541 0.0189256 -7.98804e-22)
(0.992986 -0.00285606 -5.15384e-23)
(0.910548 0.0848139 3.55839e-20)
(0.976276 -0.064757 4.3287e-21)
(0.993176 -0.0108189 2.03293e-22)
(0.969948 -0.00503071 1.2148e-21)
(0.998218 -0.0199787 -1.08195e-22)
(0.976747 -0.00283014 1.93512e-21)
(0.989221 -0.00436523 -3.78445e-22)
(1.02886 -0.0129466 -2.32537e-21)
(1.13964 -0.0547997 -1.07123e-22)
(0.999972 -4.65494e-05 -2.21536e-25)
(1.02481 -0.0125681 -2.54026e-22)
(0.999898 -3.24305e-05 -3.99716e-24)
(1.01053 0.0914404 6.48794e-21)
(1.14951 0.0802046 8.10606e-21)
(0.994909 -0.00213437 1.2555e-22)
(0.984601 -0.0019836 -1.73257e-21)
(0.999802 -5.8002e-05 -2.05946e-23)
(0.998202 0.051189 1.98452e-20)
(1.03157 0.103656 1.50636e-20)
(1.12188 0.028421 -2.68277e-21)
(1.13356 0.120321 -9.50402e-21)
(0.976488 -0.0687717 -1.85251e-21)
(0.998546 0.0101268 -2.97957e-20)
(0.999935 -0.000143283 3.52619e-24)
(1.05183 -0.0266079 2.97589e-21)
(0.979564 -0.00174819 -7.10856e-23)
(1.09559 0.0711849 -2.75846e-21)
(0.936477 0.0582522 -2.78834e-20)
(1.15237 0.0492287 5.50837e-21)
(1.05119 0.0314084 1.07315e-21)
(1.00026 -0.0134166 -6.12054e-23)
(0.999789 -9.02487e-05 -1.8944e-23)
(1.13583 0.10519 3.94575e-21)
(1.21017 -0.027508 2.90971e-22)
(0.995771 0.0582788 -6.31473e-22)
(1.10314 -0.00498271 4.92287e-21)
(1.03236 0.0493739 9.57087e-21)
(0.992552 -0.0025549 -1.76162e-22)
(0.9923 0.0760227 8.90311e-21)
(1.03556 0.0986217 5.32135e-21)
(0.990458 -0.00367301 -1.06027e-21)
(0.992054 -0.00341382 -3.9298e-22)
(1.14678 0.0951346 1.6862e-22)
(0.920978 -0.0201285 -4.92753e-21)
(0.999912 -0.000166902 -5.58708e-24)
(0.986293 -0.00596225 1.67375e-21)
(0.927668 -0.0281755 3.61156e-21)
(0.99208 -0.0859224 -5.42665e-22)
(1.01007 -0.00261024 -1.5579e-21)
(1.00883 -0.00605683 1.02162e-22)
(0.99987 -0.000207496 -1.07888e-23)
(1.03368 0.109225 -2.265e-20)
(1.00062 -0.0121157 1.03764e-23)
(0.999892 -6.38205e-05 3.53881e-24)
(1.02739 -0.0634422 1.06122e-21)
(0.999484 -0.000458776 2.29902e-23)
(0.999766 -8.16894e-05 1.418e-24)
(1.00585 -0.0128052 -1.10742e-22)
(1.05833 0.0738406 1.80875e-20)
(1.02941 -0.115933 2.16343e-21)
(0.954229 0.0587152 1.63857e-20)
(1.00007 -1.12474e-05 -6.46863e-24)
(1.06365 0.0775433 -1.88801e-20)
(1.01864 -0.05473 8.55746e-22)
(0.999921 -0.000202778 -1.59713e-24)
(1.00003 -6.4711e-06 -2.0952e-24)
(1.00313 0.0116357 -1.69467e-21)
(1.05385 0.0638521 6.75227e-21)
(0.995885 -0.00261727 1.08748e-22)
(1.0494 0.049779 -8.75968e-21)
(1.00003 -2.11608e-05 1.53114e-24)
(1.0496 0.0551918 -1.21501e-20)
(1.17143 -0.133124 3.08884e-21)
(0.989929 -0.00329406 1.16739e-21)
(0.999198 0.0161739 -4.06554e-20)
(0.97639 -0.0540028 2.87539e-21)
(1.13763 0.11424 9.31256e-21)
(0.97138 -0.00502271 7.37466e-22)
(1.05421 0.0581781 1.58235e-20)
(1.05884 0.0671455 -4.88366e-21)
(0.982814 -0.00911843 2.72224e-21)
(0.977344 -0.0112494 -2.00987e-21)
(0.994956 -0.0107476 6.00174e-22)
(0.997073 -0.000780637 -9.27775e-23)
(0.999794 -0.000201455 2.16885e-23)
(1.00038 -0.0115851 -1.85572e-23)
(1.04537 0.0935759 -2.6933e-21)
(0.999971 -3.64985e-05 6.856e-25)
(1.04473 0.0475236 1.15885e-20)
(1.04496 -0.114374 3.30579e-21)
(1.00626 0.0601082 7.77874e-21)
(1.04444 0.042882 -1.31784e-20)
(0.924529 -0.0264438 -4.42527e-22)
(0.960808 0.0751046 -3.43229e-20)
(0.998383 -0.00122558 7.93866e-24)
(1.01839 -0.0272991 4.18551e-22)
(1.06252 -0.080295 7.56438e-22)
(0.977783 -0.00265828 -1.16513e-22)
(0.99341 -0.00359175 5.2308e-22)
(1.0158 -0.0564559 -7.77586e-22)
(1.05838 -0.0174817 -3.08575e-22)
(0.917602 0.0528209 4.3697e-20)
(1.00005 -2.05755e-05 7.17926e-24)
(0.99809 -0.00130785 1.05517e-22)
(1.02606 -0.0814587 4.62425e-23)
(1.00002 -5.23879e-06 2.61574e-25)
(1.01116 0.0974999 3.18916e-21)
(1.00178 -0.0012409 0)
(1.00001 -6.74364e-06 2.04151e-25)
(1.0002 -9.15206e-05 2.70913e-23)
(1.00042 -0.000124492 5.37768e-25)
(0.985109 -0.022274 1.99186e-21)
(1.02445 -0.0172925 -9.04944e-22)
(0.998458 -0.000952727 1.65722e-22)
(0.999912 -1.79523e-05 7.43191e-24)
(0.992964 -0.00336834 2.9095e-22)
(1.00515 -0.0133657 -8.28942e-23)
(1.00068 -0.127248 -3.40633e-21)
(0.930958 -0.00890733 3.52747e-22)
(1.0196 -0.0102895 2.66829e-21)
(0.999972 -2.87437e-06 2.18541e-24)
(1.12267 -0.1585 4.11582e-21)
(0.986505 -0.00414967 -6.71051e-22)
(1.13356 0.0868195 -6.58107e-22)
(1.00029 0.0136279 -5.67826e-21)
(1.00133 -0.00371004 3.99387e-23)
(1.12133 0.0761722 -1.08271e-20)
(1.00016 -0.000100032 -2.16283e-26)
(0.987171 -0.00465241 1.97373e-23)
(1.0243 0.000919209 -4.33846e-21)
(0.993445 -0.0040856 -2.14234e-22)
(1.06004 0.087367 -1.08112e-21)
(0.987104 -0.00726733 -1.2626e-21)
(1.05314 -0.023877 -2.54648e-21)
(1.02483 0.001692 -4.65617e-21)
(1.06215 0.0401076 -2.72219e-21)
(1.0083 -0.0158888 -4.31961e-22)
(0.989787 -0.00469776 3.14579e-23)
(1.08193 0.0732402 8.30348e-21)
(0.985064 -0.094891 -3.0026e-21)
(0.999947 0.0961822 2.66702e-20)
(0.991006 -0.00529787 -1.22502e-21)
(1.0635 0.111841 -1.45397e-22)
(0.990978 -0.00464674 3.27188e-22)
(0.998848 -0.000549569 -1.07488e-23)
(1.05065 0.0281701 2.9979e-21)
(1.01709 -0.0313124 -9.53482e-23)
(1.03711 0.00341475 6.52826e-21)
(1.00182 -0.00088398 5.60372e-23)
(1.00001 -5.08939e-06 9.39498e-26)
(1.0162 -0.144151 1.2418e-21)
(1.11116 0.120291 -1.29956e-20)
(1.00158 -0.00359695 -5.39011e-23)
(1.13034 0.077986 1.04836e-21)
(0.987823 -0.0067665 -8.25271e-22)
(1.11343 -0.166843 -1.51689e-21)
(1.05119 -0.0413179 3.22378e-23)
(0.983112 -0.0350556 1.64265e-21)
(0.998339 -0.00107011 -6.99986e-23)
(0.991219 -0.00117036 -2.48172e-22)
(0.976979 -0.0816305 -1.78761e-21)
(0.969068 -0.0108846 2.78322e-21)
(0.990409 -0.00433642 8.67157e-22)
(0.999855 -0.000467713 9.27792e-24)
(0.993173 0.101511 -3.26888e-21)
(1.11822 0.0679978 6.61074e-21)
(1.02561 -0.0104983 -8.21592e-22)
(0.999801 -0.00015643 1.44445e-23)
(1.0332 0.0931848 -1.02117e-20)
(1.00001 -2.5465e-05 5.37297e-25)
(0.999816 -0.000139303 2.85176e-23)
(1.10964 0.0666229 5.71053e-21)
(1.01219 -0.026297 2.72852e-22)
(1.12015 0.108788 1.07446e-20)
(1.02418 -0.00283578 1.82736e-21)
(1.01798 -0.0129692 -1.87428e-22)
(1.10398 -0.0640569 5.33391e-22)
(1.07132 -0.140045 3.2846e-21)
(1.2048 0.0505716 -9.4425e-22)
(1.00129 -0.000893545 -1.2294e-22)
(0.950829 -0.0193101 -2.80445e-22)
(0.999981 -6.09983e-05 -4.13183e-25)
(1.00548 -0.0117034 7.77382e-23)
(1.0639 0.083598 6.75433e-21)
(0.983745 -0.00852359 1.89924e-21)
(0.997237 -0.00156335 1.46681e-22)
(1.01817 -0.0434669 -4.0281e-22)
(0.998058 -0.00115452 1.00992e-23)
(0.999613 -0.00114928 2.98089e-23)
(0.910486 0.0122748 7.77491e-21)
(0.99046 -0.00570961 -6.93889e-22)
(0.999466 -0.000765137 -8.95219e-23)
(0.999981 -6.90771e-07 -4.35293e-25)
(1.01743 0.00651417 9.16445e-21)
(0.972353 -0.0300102 -4.20838e-22)
(0.999679 -0.000577899 2.6349e-23)
(0.997243 -0.000906732 1.89184e-22)
(1.02359 0.0210204 3.73256e-21)
(1.0692 0.0118389 6.94256e-22)
(0.960061 -0.0272162 -2.38376e-21)
(1 -1.60841e-05 3.43214e-25)
(1.00142 0.0129987 2.44759e-20)
(0.986389 -0.0193234 -1.36013e-21)
(1.06963 0.0675161 -1.33573e-20)
(1.01303 -0.00132151 -2.35095e-21)
(1.015 -0.00127094 5.35794e-21)
(0.967258 -0.0135866 3.79205e-21)
(0.999904 -6.8049e-05 -2.30263e-24)
(1.02407 0.000299907 -8.36104e-22)
(1.07423 0.00929594 -9.9727e-22)
(1.18208 0.0554142 3.67162e-21)
(1.05136 -0.108129 6.49121e-22)
(1.04224 0.0883447 8.09421e-21)
(1.00589 -0.0017389 -3.79656e-23)
(1.08855 0.0769129 -1.14125e-20)
(1.00048 -0.0156656 -1.08021e-22)
(1.02289 -0.0612402 -2.06248e-21)
(0.999612 -0.000173615 -2.88644e-23)
(1.00416 -0.0205805 1.04759e-22)
(0.999899 -0.00044933 3.08277e-24)
(1.04697 0.0342876 -8.80674e-21)
(1.08157 0.120133 -2.36908e-20)
(0.998538 -0.00126274 5.57617e-23)
(1.0194 -0.0130204 5.50799e-23)
(0.982149 -0.00515134 6.53739e-22)
(1.05422 -0.0934973 2.45238e-22)
(1.04875 -0.0999839 -1.65613e-21)
(0.998156 -0.000911882 1.10834e-22)
(1.04829 -0.0273566 -1.03598e-21)
(0.918489 0.00353611 -1.3145e-20)
(1.17838 0.0369909 2.52997e-21)
(0.999947 -0.000173573 7.396e-24)
(1.06449 0.00893252 -2.51843e-21)
(0.997286 -0.00973164 -2.89454e-22)
(0.994557 0.00256425 2.81967e-20)
(0.987807 -0.00592073 1.1491e-21)
(0.996952 -0.0291662 -3.48239e-22)
(1.02051 -0.0382227 -4.5824e-23)
(0.995501 -0.0302383 -5.69432e-23)
(0.999371 -0.0231102 -7.63661e-22)
(0.992493 -0.00365774 2.00668e-22)
(0.99955 -0.0155559 4.13977e-22)
(1.00211 -0.00669623 -6.187e-23)
(1.06006 -0.0212578 6.93493e-22)
(1.00011 -2.77254e-05 -1.76775e-23)
(1.21 -0.0918274 -9.84309e-22)
(1.16401 -0.0038072 4.27836e-22)
(1.02197 0.106783 1.8493e-20)
(0.962117 -0.0256891 3.62175e-21)
(1.11166 0.104564 -5.46497e-21)
(1.00196 -0.00069341 1.97967e-22)
(1.0793 -0.077699 -4.70533e-23)
(1.00702 -0.0417882 -7.81932e-22)
(1.02052 0.0365176 1.06711e-20)
(0.99303 -0.00441949 4.96283e-22)
(1.00011 -0.000192056 1.17622e-23)
(0.987169 -0.0200884 1.77436e-21)
(0.995838 -0.0104356 -2.27413e-22)
(1.04507 -0.0249609 2.11835e-21)
(0.970724 -0.0083097 -2.35295e-21)
(0.976105 -0.0105153 6.62677e-22)
(1.13409 -0.0325423 3.9357e-22)
(0.984991 -0.00332439 -1.13494e-21)
(1.0179 -0.0401845 2.28364e-22)
(0.994272 -0.0909025 2.12512e-21)
(1.00001 -8.42712e-06 1.75268e-25)
(1.06117 -0.013294 3.79695e-21)
(0.995465 -0.0813945 -5.67056e-21)
(1.11738 0.0909877 5.17663e-21)
(1.10489 -0.0716057 -1.14936e-21)
(1.03558 0.00288325 5.5555e-22)
(1.0366 -0.111224 -4.33558e-21)
(1.04274 0.116127 4.97368e-21)
(1.03855 -0.0368913 7.68613e-22)
(0.965739 -0.0125763 -2.24416e-21)
(1.01847 -0.0508073 -9.40276e-22)
(0.961552 0.0051162 1.2543e-20)
(1.17127 -0.0982089 5.50331e-22)
(0.987102 -0.0055109 -3.48986e-22)
(1.04113 -0.139781 -3.39008e-22)
(1.0329 -0.0714335 1.33107e-21)
(1.05657 -0.126829 -6.59223e-22)
(1.05101 -0.0863031 -1.5751e-21)
(1.08135 0.0665906 1.05367e-20)
(0.997265 -0.00179485 9.72394e-24)
(1.00819 0.0426565 3.96832e-21)
(1.00783 -0.00162473 2.80072e-22)
(0.999615 -0.00058421 -3.79378e-23)
(0.998837 -0.00251562 2.71348e-22)
(1.06012 0.00211667 -9.36655e-22)
(0.872718 0.00434577 3.76694e-22)
(1.00175 -0.00715939 3.43193e-23)
(1.02261 -0.0567939 2.99499e-22)
(1.02373 0.0239869 -6.20291e-21)
(1.00003 -8.01871e-06 -3.63642e-25)
(0.978521 -0.0105566 1.60228e-21)
(1.02287 -0.0098287 1.91751e-21)
(1.08038 -0.0405079 1.19825e-21)
(1.00794 -0.000880937 1.57008e-21)
(0.998441 -0.00222775 5.00763e-23)
(0.98493 -0.0445184 4.6613e-23)
(0.997973 -0.00934841 -8.22458e-23)
(1.00003 -6.06543e-06 3.97289e-24)
(0.978759 -0.0527909 -4.84136e-21)
(1.05112 0.0821178 -2.8736e-21)
(1.02214 -0.0332342 1.51233e-22)
(0.982976 -0.00582065 -1.22682e-21)
(1.0018 -0.000443193 -7.12265e-23)
(1.02674 0.0259331 8.17821e-21)
(0.999623 -0.000701494 -1.75433e-23)
(0.99877 -0.000720119 -5.5199e-24)
(0.999645 -0.000190087 -2.62828e-23)
(0.999281 -0.00235701 -6.74243e-23)
(1.16918 0.0563908 3.20624e-21)
(1.03159 -0.0374982 9.61926e-22)
(1.00895 -0.0200094 1.47287e-22)
(0.981821 -0.00858568 -5.59395e-22)
(1.00005 -5.63672e-05 3.85528e-24)
(1.09132 -0.13166 4.27425e-21)
(1.21133 -0.0113263 1.10788e-22)
(1.09891 -0.141739 -2.06521e-21)
(0.998537 -0.0370693 -6.48819e-22)
(1.01412 -0.00969258 1.79267e-21)
(0.99979 -0.00010996 1.19577e-23)
(0.988671 -0.0130801 -7.10817e-22)
(0.957629 -0.0549774 -2.8758e-21)
(1.16755 0.038902 3.668e-22)
(1.00473 0.0584767 -2.81158e-22)
(0.998888 -0.00355399 5.46278e-23)
(0.941306 -0.0392705 1.63709e-21)
(0.995313 -0.00310668 -4.73975e-22)
(1.03621 -0.0340976 -1.49468e-22)
(1.09373 0.0637104 1.10379e-21)
(1.00044 -0.000148567 -6.0078e-23)
(0.999845 -0.00023661 -4.27671e-24)
(1.14471 0.101535 1.08506e-21)
(1.16275 0.0200856 -3.17689e-22)
(1.019 -0.0162188 6.60762e-22)
(0.997077 -0.00195908 2.49777e-22)
(0.997922 -0.000516045 -2.47299e-23)
(0.965541 -0.0555585 7.01613e-22)
(0.999829 -0.000391555 -1.43515e-23)
(1.01991 -0.0352017 2.7101e-22)
(0.986386 -0.00163994 2.34951e-21)
(1.00053 0.0158638 -4.70909e-21)
(1.05512 0.0872907 -1.48256e-21)
(1.07339 -0.071943 4.46963e-22)
(0.999983 -0.0815982 2.10946e-21)
(1.00644 -0.00159042 7.83049e-22)
(1.01601 -0.0263291 -6.15001e-22)
(1.15469 0.00312319 2.16267e-21)
(1.00012 -0.090993 -1.31048e-21)
(1.02158 -0.0487097 5.20344e-22)
(0.999999 -7.95144e-06 1.52428e-26)
(1.14165 -0.012476 1.13477e-21)
(0.973077 -0.00337879 2.21511e-22)
(0.999908 -0.101328 2.61608e-21)
(1.02141 -0.0305638 -9.56053e-22)
(0.953231 -0.0182498 -5.05106e-22)
(0.999603 -0.000334436 -1.28717e-23)
(0.997026 -0.00146605 -1.11414e-22)
(1.04027 0.0408301 1.01726e-20)
(0.968982 -0.0126983 -8.53173e-22)
(0.999984 -2.11633e-06 4.65535e-25)
(0.997142 -0.000604059 -2.61602e-22)
(1.1668 -0.083085 -4.06321e-21)
(0.999834 -5.56368e-05 3.00418e-23)
(1.0258 -0.0543934 -1.49741e-22)
(0.999951 -0.00013854 -5.9959e-25)