/*--------------------------------*- C++ -*----------------------------------*\
  =========                 |
  \\      /  F ield         | OpenFOAM: The Open Source CFD Toolbox
   \\    /   O peration     | Website:  https://openfoam.org
    \\  /    A nd           | Version:  7
     \\/     M anipulation  |
\*---------------------------------------------------------------------------*/
FoamFile
{
    version     2.0;
    format      ascii;
    class       surfaceScalarField;
    location    "36";
    object      phi;
}
// * * * * * * * * * * * * * * * * * * * * * * * * * * * * * * * * * * * * * //

dimensions      [0 3 -1 0 0 0 0];

internalField   nonuniform List<scalar> 
44730
(
-595.644
670.096
-74.4517
1064.18
-1072.3
8.11611
-334.361
381.025
-46.664
221.534
-259.223
37.6883
-498.092
498.092
214.316
-260.633
46.3178
-385.202
379.631
5.57067
30.0895
-568.671
538.582
664.409
-833.921
169.513
-1009.36
1102.31
-92.9575
561.382
-149.899
-411.482
-533.88
535.96
-2.07995
-687.716
582.602
105.114
-859.811
868.87
-9.05896
248.095
69.4365
-317.532
384.763
-10.114
-374.649
814.415
-666.906
-147.509
-399.868
412.999
-13.1317
160.662
314.823
-475.484
289.545
-355.744
66.1988
-593.929
81.7026
512.226
724.787
-60.3782
49.2598
-383.621
136.405
-489.127
352.722
237.152
-128.194
-108.958
1068.05
-3.86725
659.762
-680.888
21.1263
-278.961
-2.85917
281.821
292.955
-44.86
-443.682
543.948
-100.265
956.148
-248.038
-708.109
-675.961
766.211
-90.2501
258.036
-225.839
-32.1973
482.246
-74.8606
-407.386
133.017
-411.978
263.188
-432.394
169.206
440.537
-582.718
142.181
291.467
-42.5432
-248.924
825.635
-980.665
155.03
1063.49
-237.86
-1018.32
1035.81
-17.4867
399.675
-87.1027
-312.573
704.07
110.345
189.349
-316.31
126.961
1228.48
-777.711
-450.77
-591.201
147.518
536.637
-538.932
2.29577
230.48
645.559
-876.039
225.819
537.205
-763.024
-101.557
542.094
-390.551
170.38
220.17
-7.93092
-227.366
235.297
-671.45
-4.51075
237.625
-23.3089
423.412
-38.6495
-275.809
-40.921
316.73
523.87
-499.401
-24.4687
-34.3306
-559.598
-466.276
46.0678
420.208
-298.109
-34.7005
332.809
799.494
17.5789
-817.073
-409.157
569.819
9.92133
-246.646
236.725
-221.904
485.092
-320.621
430.572
-109.951
263.119
241.377
-504.495
495.693
-121.688
-374.005
429.524
-50.5069
-379.018
-452.306
-29.512
481.818
-986.796
-31.5246
1062.01
6.03312
300.116
282.91
-583.026
-245.384
548.161
-302.777
169.851
83.8524
-253.703
-430.719
380.745
49.9733
-376.138
393.744
-17.6059
276.983
-159.245
-117.739
-250.487
-58.1147
308.601
-699.287
16.5355
682.751
407.61
-87.2636
-320.347
-249.577
249.577
80.2731
-759.293
679.02
-665.937
70.2931
-947.213
848.234
98.9793
-326.129
-59.073
-16.4143
218.746
-202.332
517.465
-134.198
-383.267
-644.462
-43.254
652.368
-69.7656
91.8662
83.6785
-175.545
-361.133
98.643
262.49
-306.355
55.8682
847.128
-621.31
568.476
-602.315
33.8393
217.551
-90.2692
-127.282
-357.611
133.665
223.946
-30.4044
260.24
-229.836
-846.764
847.585
-0.821353
-38.0612
-154.854
192.915
265.422
-0.194312
-265.227
-711.444
12.1578
-262.603
281.296
-18.693
778.728
20.7655
434.48
-639.809
205.328
205.021
-212.952
-756.582
821.65
-65.0688
644.721
-716.091
71.3693
74.6339
577.734
943.833
-846.979
-96.8535
-214.193
249.01
-34.8167
199.001
59.0355
357.59
123.674
-481.265
1009.09
-256.886
-752.209
17.4394
564.302
-581.741
-12.3402
-587.69
600.031
539.045
-238.929
112.159
421.631
-533.791
-302.869
406.311
-103.443
76.7264
-814.821
738.095
-700.234
454.85
16.7523
-219.709
202.957
21.0506
-855.659
834.608
-330.103
324.922
5.18133
-37.1352
300.254
23.9882
-891.012
867.024
-351.533
351.63
-0.0973279
-72.6002
-327.267
17.6792
-294.654
276.975
705.22
-787.215
81.9946
726.068
-860.29
134.223
-157.832
347.181
177.938
99.0451
194.817
-204.74
9.92321
308.177
-312.506
4.32911
-128.013
562.493
629.207
326.941
147.587
72.0569
-219.644
273.994
-312.894
38.8994
231.165
-265.087
33.9227
-19.3193
284.741
-360.376
8.84327
2.12116
-182.832
180.711
217.394
-55.6154
-161.779
181.124
827.971
-198.073
-739.275
937.348
-101.096
-396.996
523.182
13.4551
239.458
-226.141
-13.3165
282.027
-232.158
-49.8689
36.2222
-227.807
191.585
-398.545
638.462
-239.917
49.3796
512.542
-561.921
984.121
-886.658
-97.4636
790.86
-787.082
-3.77786
-576.254
-234.572
810.827
-145.561
722.05
-576.489
453.14
-443.27
-9.87026
-212.171
-0.493209
212.664
35.0794
-764.219
729.14
-168.546
-222.004
-243.14
229.958
13.1822
242.646
-21.1118
17.1467
1020.87
-572.449
-448.416
735.195
-933.267
-397.713
94.8445
9.21658
208.177
16.5456
-778.297
761.751
-90.367
-856.846
416.018
-451.343
35.325
-106.78
832.847
52.968
-736.837
683.869
-206.085
-6.08661
273.994
10.9071
251.602
-262.509
-432.004
432.004
82.2903
680.278
-762.569
-311.87
49.2666
-580.062
597.501
328.846
-317.999
-10.8475
-777.831
-63.268
841.099
-152.457
453.549
-301.092
433.198
84.2677
430.207
-441.793
11.5866
277.396
-46.2317
-203.237
-330.85
534.088
500.081
-380.865
-119.216
-327.963
20.3179
307.645
786.137
-80.9167
-519.313
-81.2925
600.605
-661.036
661.036
-131.065
505.161
-374.096
95.3479
-345.993
250.645
-919.238
342.983
305.917
-356.392
50.4748
436.634
16.5064
813.72
-495.872
-317.848
917.733
-69.9891
-847.744
72.355
145.196
-847.487
614.579
232.908
-24.9575
278.015
-253.057
-205.885
226.18
-20.2958
-45.7431
-488.137
875.436
-890.322
14.8853
-58.4977
429.103
-13.0842
789.16
-794.019
4.85972
247.706
-8.24808
31.7084
-245.902
822.126
-963.812
141.686
245.896
-342.061
96.1651
570.503
-570.503
899.936
-93.2267
-806.71
594.14
73.1003
-667.24
63.6695
-333.103
269.433
-176.023
264.12
-88.0976
-479.046
326.589
52.6178
736.542
-392.811
529.216
246.327
-173.972
-684.114
-176.176
484.898
-630.459
453.293
-500.808
47.5152
-899.613
1035.41
-135.797
-579.39
555.475
23.9148
506.693
-581.837
75.1446
129.891
736.291
-866.182
211.205
530.805
-742.01
723.348
505.133
322.431
741.064
321.322
-231.74
-89.5824
-292.868
292.868
370.587
-401.476
30.8889
-27.8089
1089.82
268.557
-321.811
53.2539
532.143
-482.763
-297.43
-562.381
551.445
-564.899
13.4537
-29.0883
904.525
266.688
-291.645
-242.613
211.075
31.5385
498.813
-587.521
88.7076
-197.56
959.103
-761.543
588.607
-81.9142
772.377
-382.783
-389.594
337.855
-48.3104
471.986
548.88
-208.371
191.957
-743.838
59.7238
-936.778
37.1649
477.302
46.5677
-679.957
891.162
-696.579
-60.0027
184.278
-205.63
21.3525
-73.9973
915.256
-841.259
-38.0546
-817.792
855.847
179.23
-177.109
56.4034
174.424
-230.827
-7.45326
-365.945
373.398
329.886
-312.207
-611.345
212.8
-242.415
440.127
-197.713
908.559
-678.079
304.59
16.7315
312.086
-13.7973
-298.289
-569.171
165.917
403.255
459.986
-29.7799
524.476
-727.713
-376.747
0.609128
646.373
-746.167
99.7943
-226.532
155.612
70.9195
-656.09
638.917
17.1726
234.354
-223.447
69.4003
176.927
-743.937
826.228
-309.256
326.794
-17.5381
67.9653
-362.358
294.392
233.323
-206.467
-26.8557
525.972
-328.335
-197.636
10.8687
-346.429
335.56
-496.923
484.582
-75.6136
276.09
-200.477
-663.181
161.022
502.159
-343.871
-13.7399
653.716
6.04591
444.52
-21.1074
-163.852
12.4924
151.359
-23.7608
728.944
-705.184
-857.553
987.443
320.336
-153.699
-166.637
677.306
-775.085
97.7793
425.351
347.026
706.189
59.7872
-765.976
818.105
81.8314
557.345
-528.524
-28.8216
1093.73
-1012.32
-81.4071
2.17694
-292.601
290.424
289.897
22.1891
95.8086
141.343
209.749
-14.9322
199.469
-197.317
-2.15163
139.467
151.71
-291.177
-302.075
282.183
19.8922
-166.386
-299.38
465.765
419.431
-550.496
-317.094
200.708
-190.212
-10.496
190.783
1008.87
-559.509
-449.357
525.697
-109.072
-416.625
136.022
508.699
84.37
472.975
-1.25696
-697.401
715.558
-18.1566
43.0845
-546.347
503.262
-95.4407
-248.473
343.914
-447.926
38.7814
409.145
-140.262
-335.855
476.117
779.992
-1.26395
24.6351
199.268
-386.883
187.615
153.611
-229.224
-920.913
849.801
71.1127
-292.557
306.045
-13.4875
674.575
-87.0613
-587.514
1047.01
-603.805
-443.203
198.881
-189.286
-9.59417
261.74
-112.099
-149.641
-420.381
417.746
2.63484
662.373
-30.766
-631.607
-696.715
-0.686192
379.983
27.6274
-560.379
449.538
110.841
584.965
-578.079
-6.88652
-855.763
44.4077
811.355
856.373
33.1973
-889.57
-424.232
283.97
-202.671
38.8188
-329.639
538.376
-208.737
-188.277
-54.336
754.994
-793.048
-147.499
203.902
541.848
-168.086
-373.763
-123.403
-308.602
214.313
-214.251
-0.0624446
619.603
42.7699
683.349
-608.715
25.3566
-302.276
276.92
837.947
-876.553
38.606
-309.375
-8.6237
957.918
-960.96
3.04233
62.2782
192.768
-255.046
680.181
-33.8079
571.315
-592.655
21.34
-828.224
849.275
208.342
-191.59
786.561
212.025
747.078
156.422
191.587
-348.009
-297.464
-6.2352
824.207
-73.0329
-751.174
598.666
-131.168
-467.498
256.243
-85.8631
79.9339
415.759
89.0087
-265.031
473.745
-503.783
30.0372
141.288
-347.617
206.329
137.505
388.467
59.4277
858.305
653.15
-773.174
120.024
-22.3784
980.297
-290.481
-17.6003
308.081
-218.334
207.074
11.2592
-2.61678
172.468
47.9257
452.155
334.79
-342.243
-352.405
31.7834
-345.454
47.3455
838.337
-58.3449
86.7396
-232.928
146.188
-958.515
21.737
-922.54
-35.9747
-486.337
59.0783
427.259
-736
905.24
-169.24
-201.616
-59.4903
261.106
-123.054
-91.2644
214.318
-154.217
-46.0478
200.265
-134.163
228.591
-94.4275
853.466
423.223
-223.955
158.973
-11.8486
-567.541
-879.807
-41.1068
447.385
151.281
193.729
-523.369
200.794
-1107.14
906.342
18.7765
208.561
-227.337
0.873428
-206.758
418.053
26.4665
89.0981
701.762
277.719
13.3621
-291.082
-468.452
580.612
728.856
72.7349
-801.591
-780.037
-7.17759
802.652
-856.187
53.5354
302.481
-288.539
-13.9419
87.2559
233.08
850.888
-864.919
14.0308
978.827
-862.146
-116.682
939.295
-943.808
4.51227
-399.389
-160.99
-1.08967
-873.381
544.688
328.693
-177.153
161.181
15.9718
-246.352
385.819
139.196
91.0168
-230.213
754.218
268.509
-258.587
431.534
94.1634
784.042
-698.782
-85.2604
-52.3745
-104.819
-90.6465
195.465
-304.715
261.544
43.1707
862.753
-838.765
-21.0209
378.455
-357.434
-331.532
-28.8436
572.234
-583.158
10.9243
366.008
-327.4
-38.6081
-828.582
731.24
97.3419
-905.843
831.845
142.961
118.779
-405.19
275.985
129.204
466.852
-453.436
-13.4159
620.895
-622.621
1.72658
518.001
-44.2556
-318.15
-130.995
449.145
6.8897
-297.37
-65.4558
-250.301
315.757
544.287
563.931
-1108.22
-900.861
849.22
51.6413
1.32974
-404.238
417.872
-13.634
431.097
-399.294
-31.8026
673.711
-848.782
175.07
711.836
-883.274
171.438
-502.135
-161.046
-438.457
62.3654
376.092
302.747
-5.84089
-296.906
-326
171.783
477.268
84.1142
-719.731
-108.852
14.1992
185.27
-298.988
303.128
-4.13985
26.2252
-337.888
311.663
489.071
40.3612
-529.432
-237.999
302.424
-64.4259
-896.193
-19.6369
915.83
-196.727
-38.082
234.809
6.17337
-849.182
843.009
804.7
-118.361
-686.339
336.724
145.641
-211.097
-874.873
-21.3199
808.749
41.0516
1.56312
551.469
-193.879
-511.816
-18.2028
530.019
-801.99
913.794
-111.804
312.997
-245.032
-405.346
309.905
-29.873
590.64
63.0757
382.553
-241.266
302.784
510.936
-12.2687
24.1887
341.819
-779.462
89.9901
689.472
456.106
95.3385
-129.763
-30.3548
160.118
-851.805
-23.0684
66.2417
333.434
-190.837
232.292
-41.4545
42.7666
-280.765
-288.515
278.878
9.63608
-17.5354
24.6379
-513.618
488.98
-611.68
-134.487
-19.242
299.601
-280.359
-336.713
460.387
599.385
447.622
-1102.78
430.489
672.29
328.786
0.253305
-329.039
-232.938
-168.074
401.012
-525.567
555.657
-661.294
-19.345
680.639
100.456
81.081
-181.537
-44.2527
799.246
839.402
-862.72
23.3182
807.403
-154.253
36.3973
-605.069
-322.376
-24.0536
556.784
57.7252
-614.509
437.123
22.8633
-348.614
390.901
-42.2871
-853.935
-3.71316
857.648
-27.8201
-823.984
279.779
-287.109
7.32974
625.22
-4.3249
572.881
-417.587
-155.294
-216.804
274.063
-57.2582
-86.2576
-266.147
-419.631
-46.6452
896.155
-184.319
-825.256
89.2562
-629.191
17.5103
-538.162
48.279
489.883
820.548
-39.6248
-780.923
-258.913
124.75
3.29643
-356.658
353.361
862.53
-188.819
305.946
-3.19962
637.126
-65.8116
494.314
-5.24291
801.34
-712.242
-1045.14
-57.642
444.501
22.3508
536.507
31.9681
729.677
-694.598
796.481
-38.6756
-757.805
190.374
-228.436
272.91
-11.3661
-117.721
210.003
-173.781
474.898
15.3386
-490.236
576.127
-95.2491
-480.878
-458.324
421.408
36.9153
128.834
672.507
11.4215
-101.668
-756.589
858.257
74.5622
-666.227
591.664
222.999
-301.353
78.354
-745.284
643.616
91.696
713.004
-504.409
1048.7
230.91
-144.17
-283.03
-177.473
251.799
-74.3254
205.269
-267.543
62.2737
-178.571
317.767
11.2205
-342.753
-51.0061
4.81882
-409.716
404.897
-47.5003
-161.289
-194.454
-27.5644
365.32
-337.755
-870.856
944.46
-73.6045
45.4778
-527.971
482.494
29.9242
-248.258
-755.709
105.999
649.71
357.702
-224.685
819.407
1.14088
-35.8934
226.16
-190.267
442.067
130.814
-104.651
-333.806
816.214
-201.635
-95.2251
-914.13
614.466
-331.556
124.261
56.8684
651.785
-571.512
495.275
-13.0289
340.674
-34.7571
338.557
-420.886
82.329
191.629
-235.929
44.3003
52.1743
245.409
-297.583
339.669
-506.055
-6.14671
761.956
-806.209
537.444
-62.5468
-107.444
739.12
-631.676
-268.445
301.729
-33.2849
-70.3332
293.332
199.137
-189.92
-279.187
10.742
-1060.86
588.707
472.152
-35.8343
-78.9714
170.838
-307.995
293.653
14.3418
-675.992
692.537
267.323
-272.042
4.71887
-483.633
184.254
-504.163
-556.696
235.77
-278.313
847.163
-946.594
99.431
-343.376
21
488.551
-626.738
138.188
-2.76125
811.51
266.557
-286.779
20.2216
-326.56
-546.821
-37.151
292.441
-25.1185
365.812
-129.926
-235.886
-19.7988
-845.058
864.857
-878.054
489.07
388.984
-55.5324
735.811
-460.871
41.2403
-139.738
-124.427
264.166
874.419
-822.006
-52.4125
390.899
-324.657
797.693
4.95899
109.875
78.1781
-188.053
-580.553
1024.4
-443.844
142.078
-189.755
47.6766
-759.007
-144.969
903.976
143.951
221.861
853.506
-31.3802
813.468
-736.742
502.379
-422.446
-17.6357
-229.01
42.9058
149.554
-192.46
311.14
240.33
-22.1396
-1098.2
619.197
479.003
8.72183
891.712
-60.5392
-831.173
-430.511
622.166
-191.656
57.131
756.337
27.448
-539.264
-590.502
-18.1921
608.694
416.451
140.808
-557.259
-264.772
-522.31
278.384
62.2907
-174.836
-74.7418
-405.774
352.338
53.4356
-793.471
297.599
199.641
-260.481
60.84
225.972
-264.88
38.9076
429
-424.181
730.575
52.116
-782.691
-202.951
48.0967
825.045
20.7696
-845.815
-371.929
21.5413
350.387
118.64
860.187
-408.106
454.174
410.947
-72.3895
-954.574
99.7389
854.835
789.122
102.59
-34.7251
226.354
50.0985
380.998
902.092
133.317
23.5933
-484.465
28.8143
-827.152
798.338
701.132
-770.334
69.2021
636.348
465.965
769.007
-56.0307
-712.977
191.119
-49.0409
76.0566
339.205
-415.262
-735.26
792.391
261.887
168.685
-276.243
168.755
107.488
-111.239
-426.765
538.004
-31.2788
-211.862
1004.42
-573.927
87.4895
-289.105
181.907
-217.801
-107.061
-152.162
30.7916
820.096
-168.124
507.793
-605.265
759.064
-153.798
685.961
-709.722
-398.568
380.365
-443.03
-179.591
39.2829
349.023
-15.1992
-333.824
-46.2909
808.247
-505.248
-623.367
1128.62
287.944
-244.027
213.622
2.31392
196.823
-251.299
123.106
-885.348
909.016
-23.6682
-283.706
259.642
24.064
73.0716
710.97
3.36186
765.646
635.015
-15.412
-14.9817
-511.122
472.288
38.8339
933.091
17.1507
-950.242
-322.792
-49.1364
-0.211133
-234.582
800.275
-69.6996
529.011
-623.063
94.0515
-762.143
-84.621
12.2277
290.254
891.007
11.085
-490.278
440.462
49.8168
-950.458
-94.679
40.8291
-377.586
336.757
-222.993
248.884
-25.8906
254.179
-48.91
-39.4372
1050.29
-313.216
-737.079
579.543
-50.5319
54.4035
-263.029
-70.0739
-689.417
777.041
-87.6242
-80.1046
-18.5815
244.554
504.584
-5.77126
92.7877
-870.619
-85.2256
209.058
-123.833
-206.784
217.554
-10.7703
-681.78
570.541
-455.379
480.017
344.455
46.4436
-459.697
424.4
35.2973
584.041
424.824
498.181
-459.778
-38.403
492.689
-319.024
-173.664
-186.301
27.0562
349.345
-20.8556
-328.489
-254.428
76.9551
-327.701
290.566
-219.05
-636.713
-691.645
-81.5291
258.156
-58.515
665.434
197.096
7.06434
222.894
817.089
-83.9012
-733.188
328.324
-141.972
646.864
-504.891
238.165
-297.656
-92.7474
509.199
-751.098
7.16079
-120.579
-105.953
500.007
-96.9337
785.981
-689.047
-197.703
230.795
-33.0924
-37.6743
-246.032
829.582
-737.886
218.299
-427.625
-408.822
836.447
865.366
-199.932
-42.6699
791.948
-749.278
597.309
-6.6687
17.6093
-608.112
282.603
144.301
-426.904
-403.809
479.866
-24.617
-314.776
339.393
-616.411
65.0302
551.381
-135.114
509.396
-374.283
-482.967
408.192
-482.377
74.1852
105.142
-171.625
66.4826
-181.913
338.335
-196.747
-180
733.61
-32.4785
102.236
581.113
-610.988
648.757
-37.7692
269.742
-288.984
-810.927
-51.7933
96.8685
-432.723
590.12
460.175
-615.751
172.72
419.256
-846.88
381.528
-681.863
28.6475
653.216
-187.201
233.932
-46.7312
-816.3
886.696
-70.3961
-47.7668
-432.082
479.849
1005.36
-405.636
-599.725
-68.0262
-788.161
-18.8779
298.657
-950.461
207.432
743.029
-857.694
-92.7662
-170.678
-6.47506
-777.769
731.478
-129.054
-303.281
432.335
-8.13537
-271.114
279.25
160.194
647.209
238.92
147.575
-386.495
-902.864
154.568
748.296
541.125
-580.883
39.7583
604.532
58.5858
-663.118
-45.2442
673.557
-639.905
-33.6523
352.428
-23.6421
-37.4959
243.165
-205.669
608.466
65.091
13.1419
-793.179
721.536
-777.567
-176.133
219.039
332.893
159.796
131.949
-328.696
201.1
-204.075
2.97498
338.584
-198.131
-140.453
592.228
42.7872
-748.632
801.445
-52.8131
-403.729
-97.241
500.97
-7.21744
-291.771
240.093
60.3712
-300.464
244.299
-96.0667
-148.233
418.194
-465.96
-61.714
-740.276
-410.398
88.0723
145.25
500.959
-434.354
-66.6055
-234.261
253.037
-196.435
189.847
6.58763
17.1223
-219.256
202.133
-321.56
378.285
-56.7251
222.244
-20.6448
-201.599
450.462
554.899
-258.436
555.413
-473.71
141.852
-234.621
92.7695
-197.375
-21.335
218.71
701.264
-96.7311
234.513
-165.113
-358.794
272.695
86.0982
-422.949
-18.3121
441.261
-351.858
448.726
307.562
-324.942
17.3797
-14.9807
28.8054
473.574
462.64
35.5406
36.5132
-459.462
217.369
-6.29466
-335.433
-7.94268
-367.942
298.35
69.5918
340.696
-62.3121
675.137
221.018
-229.634
246.756
-285.854
306.172
103.239
654.728
-757.967
-737.518
-25.1932
762.712
1.38225
160.976
16.7764
-338.336
-690.643
621.075
69.5673
121.977
-172.44
169.548
2.89213
435.565
-152.962
-254.461
-174.058
428.519
-162.861
-348.261
217.292
-16.1918
-254.296
114.557
97.5382
-182.764
-1009.53
696.318
-347.014
347.014
851.47
242.256
-35.1871
-509.091
-500.443
208.572
327.388
527.971
42.5313
544.602
-50.2875
272.415
-273.289
0.874597
-629.338
662.149
-32.8102
-50.3225
-531.972
-48.0893
-632.967
714.257
-81.2906
83.8137
-492.971
-352.774
539.408
5.19338
524.333
25.3076
-549.641
749.063
-646.96
7.05494
-113.95
-63.7256
177.676
-416.629
88.9284
309.327
-31.3468
-277.98
-155.889
-46.7817
-299.876
287.85
12.0257
-289.465
72.6608
870.618
-195.481
-340.326
45.6725
769.006
-2.0722
-766.934
584.146
-658.902
74.756
-922.859
830.379
92.4801
-22.7447
-638.549
110.375
295.937
-21.6295
-260.503
282.133
-785.964
26.6715
-201.851
-288.039
266.41
-466.013
511.491
-267.689
267.18
0.508529
-300.159
302.18
-2.02066
-812.991
705.547
995.978
-148.815
-172.494
293.98
-231.702
361.372
-169.785
422.093
-325.398
-96.6949
285.646
55.0496
811.447
-88.6252
-722.822
184.575
-681.498
-758.697
674.986
83.7103
6.07041
-617.072
624.812
-7.73962
59.8156
174.698
-101.904
521.335
-268.973
289.695
-20.7221
378.916
-458.03
79.1143
-608.567
649.115
-40.5479
586.034
43.8104
-629.844
255.212
-221.843
-33.3689
557.111
-25.5806
-531.531
235.783
-124.129
-111.653
-128.623
-49.5387
178.162
958.099
-948.831
-9.26828
-575.493
-388.318
-45.8618
-758.392
804.254
-897.635
834.367
-589.795
372.173
217.622
605.053
-623.245
-13.6139
676.168
-662.554
21.3559
146.826
-168.182
-50.2882
-287.6
-855.981
-66.8779
15.4712
365.274
334.051
-739.687
219.727
-2.35707
-225.363
225.363
410.553
-143.907
-266.646
-911.322
25.9738
-2.86158
-23.5807
-481.02
504.601
-753.78
-80.5403
486.733
-406.192
-252.386
-408.65
431.448
-10.0392
-49.5947
258.155
153.772
184.812
-548.158
398.259
-160.506
399.426
338.242
-52.5958
763.375
-710.407
-283.677
-5.84498
270.766
-946.896
-3.56139
5.61464
927.476
532.511
-448.697
-843.544
577.362
266.181
10.9556
259.042
-269.998
350.803
-10.1944
-340.609
-461.371
30.8606
-835.531
749.257
86.2743
-132.261
-190.531
188.461
38.2182
-226.679
212.87
125.372
-800.989
17.8788
-591.398
325.122
266.276
60.8655
247.311
360.446
-324.316
-36.13
-375.196
400.542
-25.3468
847.408
-513.357
-454.902
312.93
-319.047
189.58
129.467
423.376
-720.805
568.343
-27.2183
811.242
-807.881
79.8087
155.974
-830.166
813.842
16.3237
-795.08
46.4481
-472.163
-527.848
1042.65
-186.28
931.09
-835.186
-95.9038
-521.121
-463.313
984.434
-48.0684
-254.006
56.1504
224.358
-228.735
4.37652
-21.74
-56.0621
733.368
470.739
-36.9378
-433.801
-370.759
-198.412
29.0707
-91.942
-250.119
-147.306
428.194
-280.888
-925.647
925.647
92.4903
-808.188
490.34
-510.54
69.0861
441.454
-210.983
-194.207
168.762
-168.986
-379.172
-558.834
389.848
599.038
54.8087
189.491
418.592
-930.18
511.588
-23.737
301.456
-225.036
-261.301
-213.152
428.528
-95.6351
-179.357
-139.69
-65.4781
-835.383
452.411
-517.983
65.572
17.9077
-696.577
780.091
-83.5138
415.773
-419.807
4.03409
244.799
-566.901
529.752
37.1492
107.417
115.435
-222.852
198.307
-235.803
378.943
-708.784
329.842
110.538
758.332
171.149
239.403
-68.5482
-492.954
469.373
291.838
-305.888
14.0507
416.303
-37.3872
353.95
-381.515
-21.0512
-367.566
388.617
-17.5191
-294.987
302.459
29.4751
-331.934
-430.25
282.944
-386.996
37.9198
631.159
-749.521
-409.598
531.635
-312.427
-91.8104
976.645
-866.107
-492.77
-312.286
805.056
295.185
35.4484
291.074
-326.523
-459.462
149.309
-281.571
-51.6391
450.598
-563.715
113.117
47.4182
613.618
-183.969
70.0189
348.259
-287.393
708.744
-329.801
273.501
-174.858
23.6233
364.608
-388.231
-27.4933
-292.741
-9.53474
-251.983
249.351
2.63164
2.28309
561.039
-533.591
51.3071
-891.584
113.287
800.567
-2.87391
328.499
-115.629
525.491
328.704
-854.195
598.393
239.944
671.165
-768.099
-753.224
107.871
645.352
300.775
41.2657
-342.041
182.627
-175.063
-7.56364
34.9174
274.65
572.935
-195.854
32.6265
163.228
-156.679
-607.05
763.729
-339.149
365.892
-26.7427
-250.237
293.326
-43.0895
-147.561
-174.25
-255.56
207.958
47.602
920.094
-920.094
-87.1591
727.011
-639.852
294.47
-207.214
344.165
-68.1797
-658.104
188.252
26.6155
-214.868
41.3587
-582.213
540.854
31.2258
-227.469
196.243
908.451
-914.107
5.65641
301.27
-674.62
373.35
337.298
-296.469
50.9256
309.521
-350.744
876.236
556.903
-106.306
-72.2016
-240.692
-400.443
319.324
81.1187
224.164
-345.852
330.843
-500.624
169.781
-233.62
46.4189
-873.298
-73.5984
35.4351
-732.012
313.459
-179.794
796.375
-773.253
-23.1218
434.209
54.0991
-488.308
-685.502
610.627
74.8748
-273.402
225.178
48.2239
319.455
-27.6174
-426.066
-254.822
881.173
-836.929
-44.2445
-357.513
658.783
127.319
-531.048
-864.981
11.046
-54.8774
-604.435
659.312
35.2103
-137.351
-138.892
-917.059
416.479
500.58
186.563
3.28408
449.136
-33.3628
543.447
255.973
-274.259
18.2856
-333.625
-5.78986
339.414
-545.512
443.955
-7.46174
-194.553
202.015
228.796
-40.5438
-91.6513
367.554
-275.903
-353.721
5.10763
434.121
-9.72107
58.5385
-808.691
750.152
-664.269
664.269
48.6303
189.535
-91.3335
-507.568
598.901
-854.486
938.112
-83.6258
741.137
55.238
-14.1197
-834.56
848.68
323.34
-340.479
17.1387
324.482
13.1033
-337.585
584.781
-636.794
52.0127
25.2933
318.894
-344.187
-201.56
-126.336
327.896
191.259
-8.63209
107.798
-711.201
603.403
-760.028
267.259
347.754
-312.306
793.733
59.7736
-77.2914
-433.249
340.727
-391.234
-681.98
102.854
579.126
329.224
-269.335
-59.8885
-530.73
616.252
-85.5213
-81.6919
-362.757
444.449
406.466
-382.277
-587.928
-329.131
598.242
-726.131
127.889
-409.995
-433.549
837.863
-39.71
-645.792
121.763
455.841
-577.604
563.553
-644.723
81.1706
28.4298
-260.588
11.1111
-692.974
-318.547
321.843
-7.78357
570.462
-692.695
122.233
-344.486
-430.599
2.96853
-685.568
697.95
-12.3828
763.065
-164.672
645.336
-102.708
-542.628
214.101
286.858
285.964
-296.04
10.0759
807.726
-935.868
128.141
-652.521
-100.703
-288.297
19.3238
-325.645
85.8587
239.786
-55.8276
640.609
91.1066
-276.052
184.945
357.021
-335.152
-21.8688
-338.475
-252.923
-23.3288
207.606
-36.4689
-169.161
234.3
142.554
-376.854
-270.76
318.722
-47.9622
591.376
-682.709
21.9082
287.418
-262.155
-63.4895
-286.364
-303.431
-711.312
540.735
170.577
-112.919
-147.715
-156.19
65.9204
-577.516
536.264
41.2524
576.954
-1098.08
-24.1837
-1014.03
-140.85
376.508
52.0203
-22.0415
-51.3715
-760.146
128.47
854.808
-848.635
617.363
-76.628
1.85914
589.231
-591.09
-287.843
-162.756
450.599
-53.1237
-220.279
11.849
190.701
-214.212
23.5108
-992.746
228.527
449.309
-118.466
19.6189
-627.917
608.298
300.345
-365.311
30.1039
335.208
62.9549
574.044
-636.999
-102.085
772.726
-670.641
-669.566
-195.353
-732.095
39.9554
692.14
-29.1541
566.78
-537.626
926.229
-917.582
-8.6471
566.609
-621.486
-611.185
-23.5322
634.717
-394.67
123.91
254.771
-277.916
23.1458
801.559
-772.745
-95.8277
730.773
-634.945
458.013
14.275
-433.55
-669.715
604.135
65.5798
399.806
-92.1171
-563.973
-47.4683
-10.589
-399.127
-34.4582
242.979
-208.521
19.8473
327.907
-359.52
363.601
-4.08121
747.9
-793.762
126.996
134.11
210.869
-222.178
11.3093
684.162
-775.248
91.086
-319.118
-679.598
-9.81881
795.66
74.9577
290.711
120.236
812.663
-17.0026
-8.60001
-1029.41
173.747
3.93436
22.3655
-568.712
159.809
-138.453
-1083.15
-239.558
232.096
75.1353
219.334
-107.479
-467.104
574.583
-2.4105
-477.435
479.845
838.917
-31.1908
570.022
75.3141
-34.9861
-200.767
235.753
746.261
-788.931
-156.087
390.387
-411.168
447.201
-36.0331
-679.334
723.06
-43.7266
307.403
-363.327
17.3342
394.274
-147.068
-247.207
174.825
-511.271
465.9
45.3704
3.73089
-461.013
464.759
-3.74644
613.634
-596.025
40.8336
-166.045
600.254
-291.85
57.4279
440.664
40.6995
608.009
-648.709
-69.663
-156.176
218.199
6.97898
31.9908
-388.442
23.1308
-416.289
5.12049
249.36
-251.208
1.84848
711.225
-682.578
-483.89
83.1353
400.754
-42.2079
626.354
-14.5599
-204.696
914.258
-141.75
-772.507
518.881
537.488
-1056.37
-302.882
-13.4278
289.416
4.23663
10.2957
271.887
-694.159
-3.55953
697.718
592.249
-748.928
-223.233
192.185
31.0475
-527.622
-22.1152
-644.111
2.84952
139.002
-136.78
-428.119
-122.064
213.171
18.2995
-639.323
621.023
-38.3024
-497.899
536.201
-268.857
294.15
-69.2468
626.031
-730.844
754.816
-23.9722
217.672
-482.444
238.069
-252.698
14.6288
-16.1246
-839.493
26.5018
247.094
-448.654
911.558
-922.128
10.57
637.492
12.929
-650.421
-51.0433
-541.612
-807.253
840.45
115.987
-206.633
897.672
-78.2644
236.996
-12.6376
-60.4396
-716.009
776.449
-88.8303
-596.737
-24.1808
548.514
-676.71
24.1889
206.646
-243.841
37.1957
-233.087
0.480135
232.607
-557.704
533.544
24.1594
-216.422
87.7992
50.364
96.8241
-147.188
-880.253
314.533
18.4319
-332.965
54.9261
637.903
-692.829
-340.84
373.239
-32.3991
-652.287
-24.4226
-664.134
767.373
-896.861
127.704
769.157
-143.523
-168.347
-444.215
63.3501
-456.793
-615.502
245.175
23.334
-286.707
288.849
-2.14217
177.724
-70.3067
-421.589
393.173
28.4162
-954.892
972.042
-331.903
127.977
203.926
139.008
20.8016
525.084
860.507
-880.306
277.574
-44.494
370.531
-505.644
-789.729
811.568
-21.8395
-353.823
-186.348
540.171
129.415
-167.281
37.8651
425.972
-527.876
750.443
-686.44
-64.0034
-266.199
-36.683
318.811
-78.7179
312.978
-291.07
329.333
-652.03
-17.6849
5.60627
633.311
-373.725
149.039
20.6429
-891.499
549.777
-388.756
608.142
368.502
423.15
8.29714
744.668
-805.108
-39.3888
-16.2265
827.284
70.3871
421.057
-499.745
78.6877
211.328
-193.792
-17.5363
-211.661
237.989
-26.3278
-5.0345
341.408
-336.373
-618.122
658.822
440.491
257.064
-216.57
-40.4939
362.744
511.675
312.489
-333.345
710.491
100.955
81.0254
-604.561
523.535
639.646
-35.5113
11.1897
-930.652
114.11
816.543
218.664
-256.746
-248.733
-793.258
732.272
60.9854
5.16482
814.72
-819.885
929.126
-929.126
-377.179
17.6589
602.822
36.8248
-109.096
-35.5172
-197.934
233.451
437.437
27.6778
-465.115
-433.55
19.5791
413.971
191.575
972.17
-453.288
-221.02
35.4852
185.535
-627.488
630.7
-3.2119
425.149
-469.148
43.9986
-430.672
-2.87807
43.6884
-763.9
720.212
-636.407
-63.8272
-548.709
518.417
30.292
-368.232
281.975
33.7987
-251.874
218.076
-166.208
-165.695
-27.9514
241.471
-23.2717
47.3116
288.558
-275.196
-71.3301
791.606
365.302
-50.7688
-769.746
32.2271
-890.021
814.436
75.5846
136.163
276.836
379.513
159.533
-757.094
859.04
331.195
193.507
-524.702
-161.205
594.441
-644.016
49.5751
481.836
60.9128
-542.748
644.221
-345.734
-298.486
-479.153
-123.162
-783.079
680.994
26.1119
-688.374
662.262
-711.268
108.496
602.772
-762.579
-6.10911
37.2228
508.502
-87.4452
-526.128
358.004
556.808
-585.962
-35.3567
-64.5163
222.558
-158.042
50.9526
-683.919
-233.071
-225.881
161.365
-26.7741
297.902
-124.713
-173.189
175.838
-8.25322
-632.031
722.021
-38.357
219.315
-180.958
869.863
-630.062
12.9901
159.126
189.133
0.996864
397.427
-398.424
-225.079
-202.46
427.539
180.926
763.534
379.023
-355.4
-843.226
7.69502
626.397
-609.862
-0.618257
-815.556
816.175
589.531
16.0177
-605.549
846.691
46.6072
-893.298
307.859
-5.67923
121.525
-409.368
425.527
8.59395
-254.748
334.437
-79.6887
189.711
381.117
-90.4058
610.833
-54.4533
-556.38
-758.124
784.911
-26.7875
15.0904
650.755
-665.846
-646.866
116.136
-5.41126
-442.184
609.675
34.2595
322.761
-29.2395
184.199
-83.7438
-335.151
1.52692
95.9488
742.968
2.698
-276.343
273.645
-421.831
-508.349
-57.4341
-757.764
815.198
246.662
-53.8947
198.855
-276.354
77.4999
199.287
-95.3473
-218.299
-516.876
-581.323
-792.14
-18.7869
-164.197
-815.753
776.443
39.3096
-34.3208
469.447
-435.126
59.7809
821.337
-881.118
194.491
-144.128
775.847
25.5985
-240.009
204.491
19.6283
-304.685
285.057
575.712
-573.853
-643.32
132.155
511.165
-559.219
586.518
-27.2995
28.649
257.315
-665.253
-441.883
608.536
45.7913
-654.328
-721.938
606.752
-679.207
72.4547
-155.02
-40.8337
449.907
-484.237
-846.944
852.108
107.243
-307.981
-588.881
-642.327
593.236
49.0915
176.09
-70.9472
-43.1568
464.448
179.772
-575.335
61.7167
514.354
-526.805
12.4506
73.3206
-717.649
644.329
265.634
-16.2744
-308.978
165.024
143.954
-565.017
590.324
-119.349
469.576
-350.227
681.401
-86.9601
-0.283684
-316.411
316.694
-447.04
-442.737
889.777
-164.809
266.726
-101.918
-103.054
-578.927
-569.316
423.56
145.756