/*--------------------------------*- C++ -*----------------------------------*\
  =========                 |
  \\      /  F ield         | OpenFOAM: The Open Source CFD Toolbox
   \\    /   O peration     | Website:  https://openfoam.org
    \\  /    A nd           | Version:  7
     \\/     M anipulation  |
\*---------------------------------------------------------------------------*/
FoamFile
{
    version     2.0;
    format      ascii;
    class       volVectorField;
    location    "36";
    object      U;
}
// * * * * * * * * * * * * * * * * * * * * * * * * * * * * * * * * * * * * * //

dimensions      [0 1 -1 0 0 0 0];

internalField   nonuniform List<vector> 
30084
(
(1.01234 -0.0146445 1.66822e-22)
(1.00837 0.0042228 7.29519e-22)
(0.989333 -0.00400133 -9.94833e-22)
(0.967892 -0.065523 3.09809e-22)
(0.997256 -5.98138e-05 1.45624e-22)
(0.947339 -0.041571 -4.59687e-22)
(1.08326 -0.0727331 6.39457e-22)
(1.01681 -0.0218542 -1.72111e-23)
(1.00226 -0.0021807 2.31063e-23)
(1.0002 -5.41572e-05 5.53933e-24)
(1.01983 -0.0292118 -5.82531e-25)
(0.998361 -0.0191602 -3.66769e-22)
(0.999474 -0.000217604 2.08923e-23)
(0.999971 -1.07184e-05 7.38824e-25)
(1.11341 0.104723 2.02491e-21)
(0.993077 -0.00228154 1.53997e-22)
(0.999822 -0.000962369 -1.02519e-23)
(1.12788 0.0277632 -1.65899e-22)
(0.997598 -0.00205741 -4.98023e-23)
(0.987319 -0.000968926 -2.19133e-22)
(0.999046 -0.000310453 -6.96374e-23)
(1.00212 -0.00217738 8.06763e-23)
(0.98923 -0.00423376 1.09381e-21)
(0.997597 -0.000196071 6.40528e-23)
(0.903467 0.100316 2.69827e-22)
(1.00928 0.00336443 3.92966e-21)
(0.999436 -6.57956e-05 4.7475e-23)
(0.951215 0.0849042 -1.92584e-20)
(1.11691 0.105919 -5.18718e-21)
(0.999311 -0.0103725 -7.08523e-23)
(1.01711 -0.0114173 1.17735e-22)
(1.03857 -0.00412935 -8.81451e-22)
(1.00135 -0.153123 3.3661e-21)
(0.999324 -0.0265783 1.86886e-22)
(0.949495 0.0810123 1.5818e-20)
(1.0071 -0.0371555 5.29952e-22)
(1.05884 0.0511011 -1.24049e-21)
(0.967476 -0.0362231 1.29318e-21)
(1.00589 -0.000906623 -3.18963e-22)
(1.00569 -0.000651869 6.07405e-22)
(1.00047 -0.000182202 -1.82107e-23)
(0.989163 -0.0369219 -1.30072e-21)
(0.999843 -0.000935281 -9.90218e-26)
(1.0442 -0.076945 -2.13422e-21)
(1.00003 -5.6016e-06 -8.19928e-25)
(0.999551 -0.0105088 5.26063e-23)
(0.997603 -0.0142231 -1.06617e-22)
(1.00008 -9.37815e-05 2.37133e-24)
(1.00376 -0.00405526 -3.30577e-22)
(1.05922 0.0486648 -5.11786e-22)
(1.1499 -0.0547478 3.93998e-22)
(0.971245 -0.0569055 -1.48478e-21)
(1.03828 -0.00329174 3.10572e-22)
(0.949179 -0.0410469 -7.65062e-22)
(0.99325 -0.00233842 -1.35637e-22)
(1.12215 0.0999323 -3.31678e-21)
(0.99619 -0.00259001 4.93417e-23)
(0.999019 -0.000342333 8.82112e-23)
(1.00134 -0.0248233 -2.6194e-22)
(1.0214 -0.0659799 -9.57804e-22)
(0.999934 -7.49984e-06 1.55559e-24)
(0.997683 -0.00210752 -1.03209e-23)
(1.19344 0.0875601 6.8005e-22)
(1.00739 -0.0362042 -2.95988e-22)
(1.04669 0.10141 9.59391e-21)
(0.925488 0.0281055 3.98749e-20)
(1.00099 -0.0315281 -5.04907e-22)
(0.992107 -0.0163214 4.68271e-22)
(0.945319 0.0179736 1.61331e-20)
(1.0005 -0.000172025 1.17649e-23)
(1.01087 0.004063 -5.35517e-21)
(0.988812 0.0725467 1.14048e-20)
(1.00386 -0.010078 -1.24527e-22)
(0.921361 0.115517 9.86157e-21)
(0.990772 -0.000744902 7.11762e-22)
(1.12899 -0.0170126 1.19518e-22)
(1.13998 0.148856 6.30332e-21)
(0.967811 -0.020448 3.06905e-22)
(0.999951 -2.36987e-05 -4.56685e-24)
(1.01059 -0.0556046 -9.24172e-22)
(0.947736 -0.000959179 -5.04351e-22)
(1.01858 0.0403962 3.08264e-21)
(1.01261 -0.0152717 -4.99067e-22)
(1 -6.77465e-05 1.49494e-24)
(1.08515 -0.0695179 -9.69249e-22)
(1.27177 -0.0387542 -2.73249e-21)
(1.02737 0.0884001 -1.82748e-20)
(0.999454 -0.000214781 -1.88498e-23)
(0.999491 -0.000193629 -5.51935e-24)
(0.918988 -0.0561441 -1.85429e-21)
(0.999345 -0.0634787 1.76138e-21)
(0.967735 -0.0214236 3.44949e-22)
(1.00353 -0.00419536 5.64054e-23)
(1.06079 -0.00268172 -5.26008e-22)
(0.90844 -0.0242259 -1.57144e-21)
(1.03334 0.104669 8.73228e-21)
(1.00616 -0.0824277 2.80609e-21)
(1.00052 -0.000432237 2.91744e-23)
(0.971763 -0.0824899 -2.82749e-21)
(1.10437 0.119254 8.73697e-21)
(0.999948 -2.32893e-05 6.6937e-24)
(0.969158 -0.0132512 -1.85526e-21)
(0.999936 -9.17273e-06 -8.02288e-25)
(1.05059 -0.0146413 -2.58182e-21)
(0.969421 -0.0569392 9.61506e-22)
(1.03468 0.0153868 5.5061e-21)
(1.00208 0.0698121 1.74872e-20)
(0.999512 -0.000195596 -4.6945e-23)
(0.999995 -7.62733e-05 -1.81524e-25)
(1.02107 -0.13996 -1.68461e-22)
(0.997684 -0.152231 -3.03774e-21)
(1.05227 -0.0378036 1.91924e-22)
(1.00001 -2.21158e-06 1.0208e-25)
(0.998814 -0.00701502 -1.87887e-22)
(0.999883 -0.00248134 8.66095e-24)
(0.991012 0.0744055 5.87957e-23)
(1.03538 0.0579885 -6.56811e-21)
(0.986502 -0.00870357 -7.49207e-22)
(1.00003 -7.4272e-05 5.26014e-26)
(1.00421 -0.00996586 -9.68795e-23)
(1.24452 0.0617576 2.33946e-21)
(1.00518 0.0120899 8.57635e-21)
(1.18325 -0.0027047 -1.03538e-21)
(0.923789 0.0343558 -3.68941e-20)
(1.00121 -0.000402141 -7.62794e-23)
(1.16497 0.010794 -1.80247e-22)
(1.12501 0.0302026 -9.2536e-22)
(1.02603 -0.0622297 7.10512e-22)
(1.00448 -0.00383051 -2.96755e-22)
(1.00003 -0.000491451 -4.40232e-25)
(1.04305 -0.0746612 7.61981e-22)
(1.14287 0.146588 3.5432e-21)
(0.999888 0.124619 1.76251e-20)
(1.19674 -0.0141918 -5.09468e-22)
(1.04898 -0.014657 2.18279e-21)
(1.01662 -0.0110396 2.24171e-21)
(1.04973 0.156871 1.32646e-21)
(0.967503 -0.000986961 2.57864e-21)
(1.21674 -0.16477 9.85023e-21)
(1.1064 0.115949 -6.67062e-21)
(1.16175 0.0139749 2.8963e-22)
(0.925899 -0.00695993 -2.03258e-21)
(0.942802 -0.0586986 6.07083e-22)
(1.00001 -1.97493e-06 -4.56983e-26)
(0.999989 -4.17878e-06 4.64939e-25)
(0.997183 -9.93922e-05 -1.13662e-22)
(0.997803 -0.0139181 2.18391e-22)
(0.995574 -0.11382 -2.2891e-21)
(1.19511 -0.11374 4.15151e-21)
(1.1834 0.125336 3.59335e-21)
(1.03423 -0.0176891 1.14587e-21)
(1.0209 -0.020448 3.69846e-22)
(1.00048 -0.000702204 4.44598e-23)
(0.999857 -0.000246282 5.94161e-24)
(1.00126 0.0193936 -1.84446e-20)
(1.0006 -0.0017223 5.26486e-24)
(0.992663 -0.0132403 1.19033e-25)
(1.05944 0.158977 -3.95058e-21)
(1.00355 0.0396973 -1.96589e-20)
(1.15129 -0.0496685 -7.04937e-22)
(0.950334 -0.00362975 8.59679e-22)
(0.968991 -0.063967 2.27808e-21)
(1.12105 0.103662 8.43457e-22)
(0.99995 -5.00113e-05 1.46108e-24)
(0.999989 -4.16383e-06 -1.74591e-25)
(0.986447 -0.00914908 2.70004e-22)
(0.944303 -0.0573252 -3.3326e-21)
(1.00006 -0.000250842 -1.8108e-24)
(1 -7.23774e-05 7.35507e-25)
(0.992341 -0.00596392 -9.06591e-23)
(1.00004 -0.000476869 3.80755e-25)
(1.00647 -0.00653749 -1.65341e-22)
(1.05644 0.161226 4.46308e-21)
(0.967999 -0.000522916 -2.18286e-21)
(1.07878 -0.121568 -1.02198e-21)
(0.994295 -0.000113635 4.62682e-22)
(1.00237 -0.00301253 1.71957e-23)
(0.968276 -0.0130581 3.06324e-21)
(0.999151 -0.00698904 -1.73004e-23)
(1.18203 0.00839733 1.65974e-22)
(0.999979 -1.03356e-05 2.56038e-24)
(1.01868 -0.0423083 -3.77075e-22)
(1.02909 0.090225 6.46506e-21)
(0.992399 -0.0151476 -2.67706e-23)
(1.20891 -0.164872 -9.46926e-21)
(1.02766 0.0496602 -5.79389e-21)
(0.992867 -0.00327393 -6.736e-22)
(0.979317 -0.0187327 8.302e-22)
(1.00423 -0.00385509 4.50731e-22)
(0.999369 -0.00966097 -1.09905e-22)
(0.999705 -8.02014e-06 5.56083e-24)
(1.00767 -0.0198056 6.39335e-23)
(0.919571 0.0171844 1.54738e-20)
(1.00077 0.0157681 1.42279e-20)
(0.983498 -0.00743303 2.06606e-23)
(0.992999 -0.0130261 -2.96441e-22)
(0.983311 0.0372921 -1.54579e-20)
(1.01158 0.0316015 2.65546e-21)
(0.910534 -0.0238985 1.9362e-21)
(1.00127 -0.000537445 -5.96266e-23)
(1.10608 -0.0891324 1.35631e-21)
(0.975521 -0.110541 3.00398e-21)
(0.998705 -0.0195257 1.74875e-22)
(1.00093 -0.00118255 -9.42848e-23)
(1.05165 0.159925 1.86102e-21)
(0.99259 -0.00597047 -6.1082e-23)
(1.00748 -0.00582329 -1.86631e-22)
(0.993013 -0.113674 2.98444e-21)
(1.0224 -0.143723 4.13601e-22)
(0.999964 -5.07391e-06 5.67098e-25)
(0.978495 0.101534 -1.79112e-20)
(0.998874 -2.59093e-05 -1.14312e-24)
(0.999999 -5.71347e-05 3.84492e-25)
(0.999411 -0.000229692 8.01001e-24)
(1.00299 -0.0631866 -6.44471e-22)
(1.17881 0.0954143 -2.79668e-21)
(1.01965 -0.04126 4.39908e-23)
(1.00725 -0.00544355 -1.27849e-22)
(0.997624 -0.000269503 1.59406e-22)
(0.912433 -0.0265966 -3.78865e-22)
(1.00003 -0.000522719 -4.49358e-25)
(1.00054 -0.0017563 5.68696e-25)
(0.997438 -0.00022898 -1.04965e-22)
(1.02725 0.00177702 5.13004e-21)
(0.997089 -0.00446594 -3.40627e-23)
(0.998827 -0.00651461 5.59327e-23)
(1.028 -0.000989841 2.53802e-21)
(1.00014 -0.000426837 3.81023e-24)
(1.00003 -4.75497e-06 2.14216e-25)
(1.00544 -0.000656049 6.4382e-23)
(0.973079 -0.0408684 -1.1233e-21)
(0.971679 -0.000497233 -1.06824e-21)
(0.994647 -0.00043136 -4.90152e-22)
(1.01188 0.00320903 4.4314e-21)
(0.981886 -0.00136677 5.13924e-22)
(1.02103 -0.0197069 -3.60048e-22)
(0.99997 -1.19662e-05 2.07234e-24)
(0.996731 -0.00295034 -1.91399e-22)
(1.00087 -0.00117376 1.01769e-22)
(1.10373 -0.0852758 1.34368e-21)
(1.12499 -0.206227 7.18714e-21)
(0.998489 -0.0001388 8.35996e-23)
(1.00051 -0.000624416 -3.44359e-23)
(0.998712 -0.00636235 -1.88619e-23)
(1.00404 -0.00889686 -2.39416e-22)
(0.987579 -0.000714033 -9.35882e-22)
(0.999952 -4.75467e-05 -7.6817e-26)
(1.2652 -0.0390045 -5.5775e-21)
(1.00005 -0.00053472 1.32329e-25)
(1.02686 0.00162156 -3.61448e-21)
(0.996312 -0.00259158 -9.95724e-23)
(1.00016 -0.000414079 1.71211e-24)
(1.03361 0.015619 -3.50053e-21)
(0.967754 -0.106907 -2.9998e-21)
(1.00027 -4.66018e-05 1.86426e-23)
(1 -1.17534e-05 2.00743e-25)
(0.92566 -0.00498242 -2.31018e-21)
(1.09761 -0.197483 -1.0905e-21)
(0.990345 -0.00959073 -7.27242e-23)
(1.02531 -0.0639504 -1.90111e-22)
(1.03523 -0.0182541 -1.87398e-22)
(1.03389 0.0883684 7.96867e-22)
(1.00008 -8.84438e-05 6.71572e-25)
(0.973589 -0.0399184 1.13683e-21)
(1.22069 0.0315739 1.13734e-21)
(0.966733 0.0556129 3.72458e-22)
(0.992277 -0.0148192 2.16257e-22)
(1.02677 0.0481376 7.08503e-21)
(1.12764 -0.013544 1.2126e-22)
(0.999884 -0.00273054 -9.96779e-24)
(0.843402 0.048687 2.0373e-20)
(0.999408 -0.000485249 -5.42163e-23)
(1.0794 -0.126002 -1.33235e-21)
(0.914029 -0.0265064 2.41554e-21)
(1.00251 -0.00284477 -9.48519e-23)
(1.17668 0.0555957 1.65426e-21)
(0.990287 -0.0010818 -5.61821e-22)
(1.0016 0.133641 1.2578e-20)
(0.996134 -0.000298056 4.5329e-23)
(0.980027 -0.0201716 -4.35628e-23)
(0.999783 -0.00248116 -5.01726e-23)
(1.08697 0.137326 1.99735e-21)
(1.00088 -0.0196314 4.54177e-23)
(1.0307 0.10498 5.39384e-22)
(0.999452 -5.08343e-05 -2.07366e-23)
(0.993431 -0.00216231 -2.15081e-22)
(0.964001 0.122066 -7.54888e-21)
(1.0325 0.00189295 -4.26373e-21)
(1.02779 -0.000701226 2.95141e-21)
(0.96808 -0.0527703 2.71175e-21)
(0.999841 -3.51385e-05 5.83555e-24)
(1.00392 -0.00859862 -2.68542e-23)
(0.999818 -0.00105132 -1.86343e-23)
(1 -5.39067e-05 2.73236e-25)
(1.05673 0.0120666 1.19395e-21)
(1.00004 -5.48032e-06 2.76644e-26)
(0.977024 -0.0180182 1.94981e-21)
(1.2197 0.0267922 -1.1364e-21)
(0.901434 0.104809 -1.87266e-20)
(1.00247 0.125062 -2.80825e-20)
(0.969998 -0.0912062 9.17507e-22)
(0.985827 -0.0362294 7.07087e-22)
(0.973118 -0.00191322 5.09213e-22)
(1.04229 -0.0365603 6.33101e-22)
(1.00827 -0.0194876 -1.27117e-22)
(0.97922 -0.0196393 -1.14606e-21)
(0.972543 -0.100152 4.11357e-22)
(1.03221 0.0902397 -1.21697e-20)
(0.999556 0.0131632 2.53197e-20)
(0.99859 -0.000169332 4.60076e-23)
(1.00321 0.0708383 -2.39597e-20)
(1.05616 0.0104478 4.14581e-22)
(1.18561 0.00278348 3.04702e-22)
(1.01581 -0.0167216 1.73229e-22)
(1.00196 -0.0179616 -2.2771e-22)
(1.03332 -0.0562249 -4.74372e-22)
(0.993913 -0.00208665 -5.09668e-22)
(0.997021 -0.000746543 -3.34357e-23)
(0.99994 -7.12379e-06 8.31208e-24)
(0.999198 -0.00990944 1.60895e-22)
(1.10917 -0.0240171 1.35953e-22)
(1.0868 0.140853 -3.21311e-21)
(1.00181 -0.00155172 4.44794e-23)
(0.968669 -0.0338132 -1.53809e-21)
(1.01795 -0.0168576 -5.48941e-22)
(0.999963 -1.70257e-05 -7.62654e-25)
(0.971168 -0.0954927 -1.47007e-21)
(0.878411 0.082478 -9.46163e-21)
(0.992977 -0.00560035 7.56972e-22)
(0.998822 -0.00520188 5.14037e-23)
(1.01644 -0.016443 -1.07953e-22)
(1.00993 -0.0539655 1.18214e-21)
(1.07947 0.043684 1.50315e-21)
(0.999692 -0.0112261 -2.58483e-23)
(0.999967 -5.79535e-05 5.25961e-24)
(1.00001 -3.16203e-06 3.90693e-26)
(0.996981 -0.000680277 -3.69809e-23)
(0.962274 0.121215 1.0901e-20)
(1.05749 -0.0240693 5.41248e-22)
(1.13084 -0.201077 -1.87214e-21)
(1 -1.17397e-05 3.40119e-26)
(1.09595 -0.204134 7.09298e-22)
(1.08239 0.0109423 -1.74982e-21)
(0.994153 -0.000190278 -2.29354e-22)
(0.9171 -0.00960026 -2.87803e-21)
(0.998915 -0.00510786 -5.1962e-23)
(0.999524 -0.000219088 -3.44177e-24)
(0.974107 -0.0359735 -3.38011e-22)
(1.00103 -0.00129764 -4.56371e-23)
(1.18392 0.0134348 -3.99682e-23)
(1.0102 -0.00115002 -1.34954e-21)
(1.14486 0.127072 -3.17679e-21)
(0.999925 -0.00269397 1.28576e-23)
(1.00547 -0.0156632 4.24911e-23)
(1.00503 0.0107047 -1.16229e-20)
(1.24003 0.059068 -7.64886e-22)
(1.00047 -0.000661074 -2.61657e-23)
(1.00049 -0.000585549 2.55588e-24)
(0.992351 0.0872303 1.13157e-21)
(1.00099 -0.0644399 -3.49399e-22)
(0.999483 -0.0110658 3.15062e-23)
(1.01038 0.0346654 1.39273e-21)
(0.976557 0.0190577 3.00698e-20)
(1.15271 -0.0587181 -1.29484e-21)
(1.00087 -0.0304072 -1.52646e-22)
(1.17488 0.0943545 2.79713e-21)
(0.999155 -8.29603e-05 -3.49901e-23)
(0.989966 -0.00500444 1.97944e-22)
(0.996216 -0.000313374 -1.26531e-22)
(1.01314 0.0303755 1.28853e-23)
(0.999985 -0.000862917 1.95938e-24)
(1.00986 -0.00140472 1.37876e-21)
(1.2131 -0.0874695 1.3511e-22)
(0.998246 0.118232 2.73562e-20)
(0.924276 0.119059 -4.37077e-21)
(0.993089 -0.00326363 2.7391e-23)
(0.990041 -0.00937229 2.17296e-22)
(1.0442 0.103511 -7.61678e-21)
(1.0224 -0.0680737 1.3765e-21)
(0.999942 -8.52582e-06 -8.10337e-24)
(1.1656 0.136587 6.47635e-21)
(1.02637 0.00223551 -1.53615e-21)
(1.02584 0.00214032 -1.03952e-21)
(0.993824 -0.0160275 -3.21482e-22)
(1.02026 -0.0019496 -2.10733e-21)
(0.954897 0.109052 4.29993e-21)
(1.19481 -0.127504 -1.22552e-21)
(0.980254 0.108508 4.39054e-21)
(0.992187 0.107957 -7.76778e-21)
(0.999997 -7.28438e-05 5.79671e-25)
(1.10571 -0.024071 -2.82044e-22)
(1.19229 -0.121537 8.15178e-22)
(0.996952 -0.00450935 8.85977e-23)
(1.00185 -0.0016635 -7.32346e-23)
(0.971914 0.022507 7.17222e-21)
(1.0595 -0.0245069 -6.94142e-22)
(1.00031 -8.60464e-05 4.28852e-24)
(0.985038 -0.0774389 -3.45011e-21)
(0.975022 -0.113798 -1.41649e-21)
(0.993577 -0.00222054 3.02465e-22)
(0.999867 -0.000239033 -7.45749e-24)
(1.03752 0.121849 -1.27154e-21)
(1.03536 0.0560825 1.10971e-20)
(1.00005 -0.000586619 -2.96442e-25)
(1.00466 -0.00413172 5.82907e-23)
(1.00597 -0.00411503 3.16485e-22)
(1.22775 -0.0274222 3.89398e-21)
(0.968 -0.051325 -2.45303e-21)
(1.00007 -0.00069731 -9.63732e-25)
(0.999986 -2.8764e-06 -2.45297e-25)
(1.00055 -0.000189321 6.95205e-24)
(1.07772 0.0443198 -1.47965e-22)
(0.967359 -0.0349416 -1.23488e-21)
(1.00183 0.0386879 5.60031e-21)
(0.933733 -0.0658852 1.4614e-21)
(0.986809 -0.0359676 -7.43276e-22)
(0.970814 -0.00149533 -2.0351e-21)
(1.01192 0.0338058 -6.85532e-21)
(1.18928 0.0839838 9.77323e-23)
(0.998634 -0.000180052 8.42673e-23)
(1.009 -0.00659935 -3.38601e-22)
(1.00096 -0.00128436 5.17057e-23)
(0.979002 0.118312 -1.10365e-20)
(0.969785 -0.0314661 6.60657e-22)
(1.00123 -0.000326855 -2.49699e-23)
(0.991193 -0.00443879 -2.71731e-22)
(1.16309 0.0204892 8.03991e-22)
(0.99985 -0.0120601 -6.93158e-23)
(0.986633 -0.0156834 -1.50818e-22)
(1.00026 -0.000163686 -1.28369e-23)
(1.00027 -6.2653e-05 -5.66192e-25)
(0.875164 0.0882187 1.42478e-20)
(0.990362 -0.00161183 -3.49235e-22)
(0.994458 -0.00573855 3.12459e-22)
(0.999575 -0.00220156 -4.27079e-23)
(0.999177 -6.34291e-05 -4.80527e-24)
(1.03964 0.0871902 -4.15251e-21)
(1.21889 -0.0843793 2.65644e-22)
(0.986217 -0.0548652 4.4828e-22)
(1.00002 -2.32577e-06 -5.6982e-26)
(1 -4.31721e-05 2.45866e-25)
(0.968549 -0.032698 1.7405e-21)
(0.992067 -0.0023524 7.17977e-23)
(0.993962 -0.00266324 -4.15541e-23)
(1.01626 -0.0057488 6.53694e-22)
(1.00666 -0.00278494 1.136e-22)
(1.00125 -0.0200728 -8.15751e-23)
(1.13182 0.0133143 1.71879e-21)
(0.977535 -0.00571424 -4.30477e-22)
(0.981936 0.106623 -3.73743e-21)
(1.01882 -0.0294033 -1.33897e-22)
(1.00028 -0.000164353 1.4302e-23)
(0.96852 -0.0897079 1.34693e-22)
(0.983132 -0.0487829 -1.54879e-21)
(1.16708 0.054552 1.20397e-21)
(0.996741 -0.00745358 -9.40449e-23)
(0.992524 -0.0639038 -5.25161e-22)
(0.999978 -7.13297e-06 1.38969e-24)
(0.935581 0.087544 -1.49912e-20)
(1.01714 -0.00238124 1.19015e-21)
(1.00009 -0.000279995 -3.66726e-24)
(0.919427 0.0234912 -2.00737e-20)
(0.984906 -0.0552984 9.99484e-22)
(0.999978 -7.84536e-06 2.15686e-25)
(1.00168 -0.00151724 2.16256e-23)
(0.969459 -0.0937975 -8.02505e-22)
(1.05017 -0.0367831 2.11084e-22)
(1.05399 -0.00729147 1.48861e-21)
(0.999991 -4.21089e-06 3.86471e-25)
(0.990308 -0.000823519 2.77826e-22)
(1.034 -0.0547309 8.17434e-22)
(0.993758 -0.00203558 4.18217e-22)
(0.999476 -5.82449e-05 -1.12625e-22)
(0.990171 -0.00516498 5.30451e-24)
(0.980199 0.0395356 1.78067e-21)
(0.991922 -0.0158656 -3.89173e-22)
(0.987216 -0.0153298 1.10404e-22)
(1.00137 0.0226427 -5.68332e-21)
(0.99679 -0.00278588 9.9562e-23)
(0.974269 0.119752 -1.36284e-21)
(0.999977 -7.71824e-06 -7.01472e-25)
(0.989481 -0.0359462 3.01578e-22)
(0.991222 -0.107871 3.52064e-21)
(0.993954 -0.0641139 8.94965e-22)
(1.22356 0.013952 4.94186e-22)
(0.998694 -0.00681876 1.25897e-22)
(1.013 -0.0282524 3.91283e-23)
(0.99991 -0.0029031 2.45095e-24)
(0.980292 -0.0285655 -8.63142e-22)
(1.05272 -0.0400294 5.69051e-23)
(0.999964 -1.61416e-05 3.96027e-24)
(1.00002 -1.23981e-06 -9.47308e-26)
(0.992466 -0.000527336 1.89521e-22)
(0.981993 0.0767831 1.14646e-20)
(1.01636 -0.0227265 6.23564e-22)
(1.00306 -0.00424547 -9.14889e-23)
(0.9124 -0.0500047 1.98853e-21)
(1 -1.04618e-05 1.00672e-25)
(1.00114 -0.00141693 -8.299e-23)
(0.999958 -0.000822373 -1.28997e-24)
(1.01783 -0.0215576 7.0728e-22)
(0.979982 -0.0210691 1.52809e-22)
(0.999559 -0.000342196 1.42936e-23)
(0.992415 -0.01413 1.48485e-22)
(0.9851 -0.00912256 -1.58743e-22)
(1.00118 -0.000196049 -6.886e-24)
(0.999976 -8.50272e-06 -4.33623e-25)
(1.20902 0.0509636 -3.84731e-22)
(0.999619 -0.00216425 4.60075e-23)
(1.0813 0.0054681 1.31549e-21)
(1.01076 0.11631 2.86243e-20)
(1.04049 0.101973 -6.94191e-21)
(1.00208 -0.0253827 -3.0947e-22)
(1.00652 -0.00252732 -3.75897e-23)
(1.02061 -0.00154268 1.29182e-21)
(0.999969 -0.00296715 -2.78279e-24)
(0.997717 -0.0129584 1.54816e-22)
(1 -1.90369e-05 3.93408e-25)
(0.989864 0.108195 -5.74997e-22)
(0.985775 -0.0207519 2.14046e-22)
(1.01595 -0.00531175 -4.67208e-22)
(0.978063 -0.00592163 8.95656e-22)
(1.00489 -0.0154457 4.80402e-24)
(0.996939 -0.00732342 2.05454e-22)
(0.999881 -0.000244904 1.7905e-24)
(1.00002 -1.35406e-06 -5.75284e-25)
(0.994649 -0.00571146 -2.27556e-22)
(1.0614 -0.00426804 -8.17958e-22)
(1.00371 0.0414433 8.81913e-22)
(1.00143 -0.00057848 -1.01538e-22)
(0.974108 -0.0822511 -7.39613e-22)
(0.969624 -0.0305355 -2.9103e-22)
(0.990553 -0.000644471 -1.04149e-21)
(1.18119 0.12211 -2.25956e-21)
(0.998474 -0.00118718 -5.03487e-23)
(1.00513 -0.0174797 -1.03675e-22)
(0.993484 -0.00351183 2.11356e-22)
(0.999891 -0.000235914 1.49576e-24)
(0.97057 -0.0982414 9.2615e-22)
(1.00155 0.0333246 -8.81178e-21)
(1.02779 0.0442598 -7.31133e-21)
(0.972237 -0.0202078 -1.41067e-22)
(1.0011 0.0316418 -3.92798e-22)
(1.00009 -0.000262809 6.86931e-24)
(1.00001 -1.42172e-06 1.6346e-25)
(1.16458 0.1337 -2.47281e-21)
(1.17244 0.0574734 -9.37488e-22)
(0.921551 0.0891238 -7.33399e-22)
(1.01649 -0.107538 2.63028e-21)
(0.971148 -0.00206359 -6.59269e-22)
(1.159 0.0242348 -1.08213e-21)
(1.00136 -0.000602715 1.14948e-22)
(0.993252 -0.00473884 1.20825e-22)
(1.00053 -0.000200927 -6.65102e-24)
(0.987044 -0.000917439 -2.22195e-22)
(0.986059 -0.0169233 -3.13466e-22)
(0.999994 -3.85859e-05 -1.5083e-24)
(0.998975 -4.01005e-05 1.99394e-23)
(0.997971 0.115783 -2.67389e-20)
(0.999848 -0.000854542 1.7065e-23)
(0.942827 0.0809831 1.88632e-20)
(1 -1.786e-05 -3.0067e-25)
(1.21772 0.0894744 6.51983e-22)
(1.08187 0.00361416 -2.80781e-21)
(1.13032 0.0157587 -1.91632e-21)
(1.00121 -0.000571331 6.84451e-24)
(1.00021 -4.97479e-05 1.13011e-23)
(0.986005 0.0729778 -1.74712e-20)
(1.08334 0.00873985 5.71301e-21)
(0.990942 -0.110409 -3.20026e-21)
(1.01918 0.0422407 3.31951e-21)
(0.998679 -0.0261296 1.29646e-22)
(0.983658 -0.00699964 -2.3131e-22)
(0.995182 -0.000269738 -1.26216e-22)
(1.0892 0.160346 -1.4447e-20)
(0.971532 -0.0364171 1.08905e-21)
(1.0424 -0.0346738 -4.33749e-22)
(0.992729 -0.0139796 -8.53754e-23)
(1 -1.04552e-05 -1.06781e-27)
(0.99849 -0.00112099 -4.28158e-23)
(1.00712 -0.00704273 1.96973e-22)
(0.977308 -0.0105984 1.14279e-21)
(0.97301 -0.0203356 2.11813e-22)
(0.946628 -0.0582119 -3.23944e-22)
(0.977074 -0.0112468 -8.66913e-22)
(1.01828 0.00306452 5.99665e-22)
(0.997502 -0.000173042 2.63183e-24)
(0.921186 -0.0566701 1.02946e-21)
(0.982733 -0.00119587 -3.17875e-22)
(1.00004 -0.000253535 3.21983e-25)
(0.985009 -0.000950305 -2.1949e-22)
(1.04391 -0.0377507 -6.67225e-22)
(1.01747 0.003252 -3.31876e-21)
(0.968811 -0.0368622 -2.69679e-22)
(0.999985 -7.5401e-07 -6.68946e-27)
(0.979006 -0.0215991 2.29975e-22)
(1.00333 -0.0180177 2.49501e-23)
(1.00164 -0.00140815 2.77904e-23)
(1.21824 -0.1118 -3.69215e-21)
(1.00134 0.030426 -2.03957e-20)
(1.00106 -0.0013997 7.69902e-23)
(0.985275 -0.000716577 2.91192e-24)
(1.14373 -0.0632953 4.99961e-24)
(1.02831 0.000785666 5.15861e-21)
(0.992157 0.0255552 -1.92754e-21)
(1.0022 -0.00296953 2.47376e-23)
(1.00198 -0.0264782 9.66139e-23)
(1.07378 0.125201 -2.3025e-21)
(1.01418 0.0272177 -1.70972e-20)
(0.990815 -0.0356756 8.00144e-22)
(1.00563 -0.00412459 -3.54339e-23)
(0.941046 -0.0700187 1.49359e-21)
(0.999997 -5.26486e-06 2.9175e-25)
(0.935691 -0.00295181 -1.04101e-21)
(1.00009 -8.23374e-05 1.40724e-24)
(1.14128 -0.0664424 -3.18231e-21)
(0.999966 -3.60247e-06 -4.42988e-25)
(1.00003 -7.2531e-05 3.94572e-25)
(1.00188 -0.0297339 -1.1665e-22)
(1.19238 0.0928643 -1.42088e-21)
(1.02143 0.14419 1.19301e-20)
(1.04805 -0.0380208 -1.02882e-21)
(1.01719 -0.0171209 3.65084e-22)
(0.999999 -3.95984e-06 -8.81212e-26)
(0.992718 -0.00564687 -4.08596e-22)
(1.0001 -2.52947e-05 -1.08848e-24)
(0.996279 -0.00297195 1.42496e-22)
(1.00003 -6.7308e-05 -3.00503e-25)
(1.05357 -0.00533883 -4.63836e-21)
(0.99945 -0.000571129 -5.5836e-23)
(1.04906 0.0605025 7.26168e-21)
(0.999856 -0.000261263 -1.12858e-23)
(0.984274 -0.0068246 -3.91419e-22)
(0.946511 -0.00155976 2.42906e-21)
(0.99493 -0.000371612 -1.62944e-22)
(0.986673 0.0387426 1.85202e-20)
(0.97862 -0.000947736 5.972e-22)
(1.06134 -0.126527 2.26642e-22)
(0.993435 -0.00496738 6.26974e-22)
(1.02764 -0.00223911 -1.07604e-21)
(0.970768 -0.0841257 3.24099e-21)
(1.02181 -0.00141897 -3.60769e-21)
(1.0649 -0.076847 -8.51177e-23)
(0.999986 -2.34165e-06 6.39831e-26)
(1.00047 -0.0251368 1.07296e-22)
(0.995262 -0.000355876 1.9857e-23)
(1.00029 -0.000110804 8.69435e-24)
(1.0001 -2.15012e-05 1.77079e-24)
(1.09229 0.162418 1.57065e-20)
(0.994166 -0.00266935 3.50564e-22)
(1.02775 0.00170652 5.88579e-21)
(1.00284 -0.0270401 1.18158e-22)
(1.00101 -0.000367368 2.64403e-23)
(1.02675 -0.00815948 -3.95938e-21)
(1.00019 -4.67691e-05 -2.45323e-23)
(0.999975 -4.51863e-06 -6.15823e-26)
(0.936537 -0.00392873 8.02892e-22)
(0.99585 -0.00151019 1.58538e-22)
(1.00003 -6.54805e-05 5.859e-25)
(1.04985 0.102113 5.20224e-21)
(0.889419 0.0718108 -2.65732e-20)
(0.999757 -0.000276735 2.71538e-23)
(0.949062 -0.00313042 -6.68262e-22)
(1.00002 -1.6004e-06 1.21711e-25)
(0.951873 0.106746 -1.74779e-20)
(1.22081 0.0933749 6.24424e-22)
(0.968229 -0.0670575 -2.56039e-21)
(1.00005 -0.000674185 -1.06258e-24)
(1.04076 -0.0336079 1.04232e-21)
(1.03296 -0.00112399 -1.48922e-21)
(1.03326 0.00203535 4.37477e-22)
(1.05542 -0.00771241 -5.76751e-22)
(0.999579 -0.00232039 -6.80379e-24)
(0.999846 -0.00102476 1.4809e-23)
(0.983423 -0.0207835 -6.79777e-22)
(1 -9.28368e-06 2.74641e-25)
(1.00001 -1.27463e-06 -3.12336e-26)
(0.970316 -0.0358618 -6.39901e-22)
(1.00784 -0.0809531 -1.39552e-21)
(0.948304 -0.0569265 -8.22488e-23)
(0.908961 0.100681 -5.60608e-22)
(1.00023 -3.03903e-05 -1.04725e-23)
(1.03885 -0.0954236 -2.98978e-21)
(1.0087 -0.00620356 -3.47923e-22)
(0.999977 -4.99601e-06 7.07302e-25)
(0.998842 -0.00484122 -1.122e-22)
(1.00004 -0.000570393 -3.8893e-25)
(0.995159 -0.0161702 2.42149e-22)
(1.00005 -1.20672e-05 9.48334e-25)
(1.06675 -0.074598 -2.02422e-22)
(1.02143 -0.00174451 3.49818e-21)
(0.97568 0.117729 3.83897e-21)
(1.02715 -0.00217182 4.04272e-21)
(0.99968 -0.000270785 2.11122e-23)
(1.00053 -0.00047178 -2.54252e-23)
(1.2307 -0.032898 -3.97836e-21)
(1.0278 0.00136753 -4.73607e-21)
(0.996342 -0.000486001 1.43096e-22)
(1.00002 -1.98003e-06 2.71875e-25)
(1.06436 0.0935005 -8.63763e-21)
(1.19425 -0.175811 -1.68522e-21)
(1.01593 -0.104849 -1.1738e-21)
(0.982239 -0.00101994 -1.67676e-22)
(0.99998 -2.43585e-05 1.42408e-24)
(0.999683 -0.000255223 -1.23514e-23)
(1.20309 -0.175089 4.7351e-21)
(1.00474 -0.0640283 -3.7674e-22)
(1.03561 0.033595 1.04237e-21)
(0.981516 0.103138 1.61181e-20)
(1.05837 -0.123436 1.68645e-21)
(0.998526 -0.000103258 -2.62789e-23)
(0.999979 -1.13611e-05 -1.66356e-24)
(0.957587 -0.073358 2.53265e-21)
(0.9921 -0.145613 -3.57309e-21)
(0.999767 -0.000286733 1.46422e-23)
(1.01362 -0.0273499 2.57354e-22)
(0.991113 -0.0346575 -1.4166e-22)
(0.994473 -0.00285916 1.3846e-22)
(0.998637 0.0248473 -1.47251e-20)
(0.998493 -0.000668367 9.36293e-23)
(1.07253 -0.0492085 -3.05452e-24)
(1.13928 0.152198 -6.45176e-21)
(0.990694 -0.00419408 -3.96606e-22)
(0.919572 0.0841506 -2.66172e-21)
(0.927243 0.0400662 8.4279e-21)
(0.999967 -6.13105e-05 -5.29889e-24)
(0.999969 -0.000899898 -1.73202e-24)
(0.978888 -0.00125887 -3.8253e-22)
(1.01516 -0.00525204 -8.45959e-22)
(0.951346 -0.00287263 1.39822e-21)
(1.00614 -0.00510533 -3.63434e-22)
(0.991037 -0.00420214 3.71079e-22)
(0.999339 -0.000609572 -4.22876e-23)
(0.959855 0.107246 -3.10827e-21)
(1.04994 0.0583361 -1.13213e-20)
(1.00269 -0.0028711 6.38672e-23)
(0.850176 0.0459073 -5.21864e-21)
(1.00002 -1.15532e-06 -1.68707e-25)
(1.02499 0.00755323 -8.20583e-21)
(1.01472 -0.134181 2.56655e-21)
(1.04202 -0.0944486 1.16584e-21)
(1.00011 -0.000255246 -3.35495e-25)
(0.948835 -0.00158096 1.14985e-21)
(1.02241 0.00662683 4.61592e-21)
(1.0148 -0.00563595 6.99839e-22)
(1.03214 -0.000179435 2.06595e-21)
(0.99949 -4.56402e-05 7.93876e-23)
(0.999443 -0.000608876 5.05785e-23)
(1.03747 -0.0522238 2.09162e-22)
(0.995919 -0.00162678 -4.5564e-22)
(0.984874 -0.0154367 -7.41133e-22)
(0.998981 -0.00438339 6.65588e-24)
(1.07486 0.049988 5.76774e-21)
(1.00026 -0.0262419 -7.34876e-23)
(0.994134 -0.00608478 7.79414e-24)
(0.906703 -0.0426416 -2.91774e-21)
(0.994404 0.0872767 1.85875e-21)
(1.12946 -0.00830717 -1.25297e-21)
(1.02617 -0.00786871 3.18378e-21)
(0.999543 -0.000219649 1.52117e-23)
(0.999411 -0.000397545 6.84526e-24)
(0.979281 -0.0282997 1.73612e-21)
(1.00117 -0.00152479 -6.19231e-23)
(0.996941 -0.000855467 -2.58915e-23)
(0.999981 -2.30502e-05 -5.38159e-25)
(0.999625 -0.00236352 1.2972e-24)
(1.02179 0.00607538 -1.79516e-21)
(0.985016 0.0759843 -1.67357e-20)
(0.999859 -1.81606e-05 3.48793e-24)
(1.109 0.153556 -1.32213e-20)
(0.999994 -4.84304e-05 6.38906e-25)
(0.996163 -0.00352294 1.93695e-22)
(0.999991 -0.000114581 7.11892e-25)
(1.00617 -0.00441812 -1.61223e-22)
(1.21322 0.0494268 3.31657e-22)
(0.999958 -5.12913e-05 4.07399e-25)
(0.999957 -5.49745e-05 2.96e-24)
(0.932263 -0.0668454 -1.39579e-21)
(1 -9.28647e-06 1.85812e-27)
(1.0588 -0.00674647 4.84847e-21)
(0.989528 -0.0557762 1.43557e-21)
(0.999972 -0.000790122 1.52629e-24)
(1.06654 0.0761417 -6.70647e-21)
(0.999999 -3.4708e-05 -5.25511e-25)
(0.999548 -4.70473e-05 6.96709e-23)
(0.999903 -4.26226e-05 1.13957e-25)
(0.994349 -0.00609083 -1.172e-22)
(0.99961 -0.00188364 -2.20225e-23)
(0.992614 -0.000400047 -1.27428e-22)
(1.03964 -0.15883 -2.99403e-22)
(0.999654 -0.00183361 1.47421e-23)
(1.00495 -0.0041434 -1.25158e-22)
(0.999975 -3.36105e-06 -2.61615e-25)
(1.02316 0.141819 -2.32526e-20)
(1.07094 -0.0511595 -7.94509e-23)
(1.13257 -0.00775949 -8.75664e-24)
(0.955064 -0.00852002 1.50355e-21)
(0.971778 -0.00581486 -2.77005e-22)
(0.998946 -0.00473205 1.85287e-22)
(1.00344 -0.00318894 1.73912e-22)
(1.03852 0.0693555 3.0356e-21)
(0.98245 -0.0503482 2.10221e-22)
(1.09105 0.114661 3.2638e-21)
(0.943419 -0.0198472 -2.7186e-21)
(0.996023 -0.00340312 -1.82542e-22)
(0.999991 -5.07904e-06 -6.93027e-25)
(0.993256 -0.00352768 -2.54796e-22)
(1.0043 0.135195 5.77825e-21)
(1.05816 0.0824692 -1.55357e-21)
(0.987056 -0.0764849 1.18174e-21)
(0.920881 -0.00889289 6.29077e-22)
(1.02726 0.135828 6.37332e-21)
(0.98981 -0.000737557 3.28436e-22)
(1.00408 -0.124021 2.04684e-22)
(0.999991 -0.000109644 1.65278e-24)
(0.988079 -0.0562733 1.7869e-21)
(0.99904 -0.000275576 -9.90688e-23)
(0.862053 0.0775865 -1.49584e-20)
(0.988436 -0.102575 -2.63047e-21)
(0.999906 -3.83171e-05 6.6504e-24)
(0.915987 -0.0291729 -1.61791e-22)
(0.982726 -0.0535053 8.84844e-23)
(1.0263 0.0737628 1.07185e-20)
(0.996983 -0.000933518 -2.44141e-22)
(0.979872 -0.0519579 -6.30138e-22)
(0.997512 -0.0133011 -2.16093e-22)
(1.00186 -0.0286987 -2.41666e-22)
(0.998533 -0.000680064 -6.39815e-23)
(1.02534 0.0723368 -1.30163e-20)
(1.11489 -0.204413 3.17555e-21)
(0.978986 -0.022494 -5.09596e-22)
(0.984035 -0.0192758 1.09362e-23)
(0.984404 -0.00644436 -1.57883e-22)
(1.00612 -0.00240134 -1.48036e-22)
(1.02878 0.132784 2.51423e-20)
(0.978658 -0.0182366 2.30568e-22)
(1.01269 0.0396451 7.24127e-21)
(1.00316 -0.00256122 1.32283e-22)
(1.22528 0.0198471 -1.15692e-22)
(0.940221 0.0865632 2.77618e-21)
(0.989603 -0.00057526 -1.13677e-21)
(0.999745 -4.8712e-05 1.40007e-23)
(1.03775 0.0891312 3.23274e-21)
(0.995759 0.111293 -2.16401e-20)
(1.036 -0.0504089 -2.38153e-22)
(1.10043 -0.0287058 1.2287e-22)
(0.994924 -0.0167913 -2.7068e-22)
(0.955788 -0.00769057 -8.91683e-22)
(1.07198 0.122786 9.25575e-21)
(0.955683 -0.0739345 4.14718e-22)
(0.999978 -2.3475e-05 1.82143e-24)
(0.991191 -0.000142012 -5.8642e-22)
(1.00004 -6.24773e-06 9.24676e-25)
(0.994753 -0.000334097 4.4228e-22)
(0.999977 -2.49987e-05 -2.83346e-24)
(0.998363 -0.0185661 3.56222e-22)
(0.998905 -4.45667e-05 3.51711e-23)
(0.996882 -0.00694373 2.39003e-23)
(1.22726 -0.0124115 -6.15313e-22)
(0.999322 -0.000466482 3.608e-23)
(0.999434 -0.00023744 2.46978e-23)
(0.999294 -0.00720791 2.84187e-23)