/*--------------------------------*- C++ -*----------------------------------*\
  =========                 |
  \\      /  F ield         | OpenFOAM: The Open Source CFD Toolbox
   \\    /   O peration     | Website:  https://openfoam.org
    \\  /    A nd           | Version:  7
     \\/     M anipulation  |
\*---------------------------------------------------------------------------*/
FoamFile
{
    version     2.0;
    format      ascii;
    class       volScalarField;
    location    "0.7";
    object      p;
}
// * * * * * * * * * * * * * * * * * * * * * * * * * * * * * * * * * * * * * //

dimensions      [0 2 -2 0 0 0 0];

internalField   nonuniform List<scalar> 
117990
(
0.207305
-0.00021133
-0.256224
-0.0661497
0.0314538
-0.0179771
3.20916
-6.83605e-05
-0.00630911
-0.000221425
-0.00584189
0.00343613
-0.0272815
-1.142
-0.00627782
-1.04209
-0.00281227
-0.00791875
3.50743
0.0325205
0.0423052
-0.10486
-0.00899662
-0.101683
4.16123
1.72244
2.00874
0.402175
-0.000508134
3.62876
-0.00315065
1.39405
0.125003
-0.253722
4.22294
-0.0377062
3.24514
-0.00278308
0.784014
2.45358
1.4087
-0.0079713
-0.335365
-0.0376371
-0.698921
-1.13734
0.0900317
0.111741
-0.00332565
0.00330948
1.05804e-05
-0.0672745
1.45386
-0.000117021
-0.0417571
1.46479
1.19381
-0.698963
1.93199
-0.208081
-0.00154962
-0.103423
-0.016522
-0.323072
-0.00156349
0.0195509
-0.0232246
1.00465
2.24347
1.11831
2.86714
2.36453
2.43501
-0.689114
-0.033093
-0.483192
1.26087
-0.0143731
3.31295
1.34717
1.36845
-0.00136172
-0.951873
0.390492
-0.0665919
0.00329609
-0.337311
-0.000272885
-0.525386
-0.00018466
1.19511
-0.204324
-0.000519223
-0.0283995
-0.00955488
0.00709465
-0.00862064
-0.93861
0.703305
-0.522819
-0.00158289
0.499053
0.0282546
0.0511273
2.85565
-0.365027
2.56986
-0.670135
-0.184672
-0.000337989
1.5033
-0.00854437
1.28538
-0.122367
4.85899
-0.0246266
-0.00588066
2.78205
0.000633856
2.34099
2.80552
-1.05241
-0.249916
1.7013
-5.21327e-05
3.61549
-0.102699
4.38129
-0.0361011
0.739847
0.27216
0.00498684
2.78468
0.0032925
0.000630603
3.5724
4.07495
0.122961
-0.0397088
-0.102101
3.24215
-0.0179297
0.00133029
1.5415
0.29258
1.60563e-05
0.191013
-0.104304
1.01093
0.015919
-0.370766
-0.707003
-0.203028
-3.63894e-05
-0.0663303
0.151146
-0.000331078
1.06975
-0.456186
-0.560607
-0.478617
0.188225
-0.0162329
-0.325747
-0.150313
-0.0185043
0.591227
-0.290857
1.07377
-0.165401
-0.194098
0.0917629
1.17242
-1.11416
-0.282495
0.924557
-1.11186
-0.0422036
0.127031
-0.00404934
0.269241
-0.0225338
3.61234
1.53805
2.57138
-0.00734485
-0.0745681
1.73808
0.452398
1.17096
-0.0408934
-0.0141356
3.59003
-0.419062
1.72266
-0.617242
-1.1183
-0.185722
-0.457334
-0.0708447
1.60078
3.1187
0.316483
-0.000264141
-0.0716526
-0.559245
-0.0134958
-0.00149957
0.733385
-0.148548
-1.11587
2.54049
4.14139
-0.000164565
-0.106084
-0.423643
0.922392
0.0998935
-1.14218
-0.00315174
-0.471523
-0.370286
-0.00784815
-0.472659
-0.000119632
3.88106
0.0448048
-0.473463
-0.603951
3.87179
0.460129
-0.608166
3.22727
-0.362761
0.280044
1.60965
0.00821327
0.00388887
-0.344064
-0.0686834
1.15068
0.0982458
-0.560579
0.685454
-0.0372613
0.0158088
1.21199
-0.504092
-0.285338
-0.975465
3.64069
-0.0258223
1.40101
0.000263189
4.38955
0.276798
1.34456
0.410611
0.00564753
-0.0104562
0.281998
-1.13648
1.5505
0.639761
-0.190349
-0.0647009
1.69268
-0.0355234
1.40847
1.15037
-0.00159648
0.46209
-0.00173295
0.10185
-0.024158
-0.351568
-0.673478
-0.272671
-0.0498014
-0.660577
-0.321515
-0.036692
0.000651563
-0.55374
0.000647528
0.218074
3.85879
1.33346
-0.939641
0.797982
-0.679623
-0.000240423
1.8204
2.51901
-0.00196547
0.352196
-0.026376
1.37694
0.00106737
1.16329
-1.12453
-0.327431
1.59279
-0.116554
-0.519767
1.30369
0.0785547
-0.470775
-0.0423597
0.13077
-0.0520887
3.04165
3.13007
-0.338529
-0.0292743
0.0302308
3.58712
0.0151521
-0.0990791
1.72771
0.711554
-0.00308177
0.310635
4.83623
1.43793
-0.463123
0.155586
1.30949
-1.13172
1.84645
-0.0519584
-0.000242183
-0.00681877
-0.0259039
4.64292
-0.061339
1.16985
-0.00148876
-0.0183752
-0.0750229
-0.231237
1.25428
2.00472
-0.314925
-0.159859
0.0313952
-0.0515723
4.4683
-0.54167
-0.0398713
2.78331
1.8123
0.280083
-0.0505643
-0.0796784
0.0357443
0.20839
2.01786e-05
-0.0122078
0.401461
2.08911
-0.556628
3.25591
4.68143
1.11633
2.53318e-05
-0.241715
-0.306504
-0.00549338
-4.28094e-06
0.118498
2.85651
-0.498351
-0.0121515
1.50532
0.0756014
0.0268188
0.00325118
-0.0244594
0.436221
-0.612831
-0.164092
-0.131559
0.396844
0.220037
-0.00285458
3.20316
-1.00559
0.0326306
-0.00370293
1.36126
2.22574
-0.34184
0.403289
-0.36556
-0.0344793
-0.0539317
0.0111357
-0.00220477
-0.328736
-0.496921
-0.0352727
3.5762
2.39465
0.317174
0.635893
0.000639655
-0.101881
0.853775
-0.12533
-0.117716
-0.0529238
0.0332824
-0.0621768
-0.0672082
-0.0502368
0.000207946
-0.403151
0.00108143
0.214178
-5.54243e-06
-1.1224
0.00473385
3.44809
3.12144
1.95275
0.637348
2.06516
1.18066
-0.0326747
0.0318262
-0.00397891
-0.0850551
-0.463585
-0.114635
-0.105331
0.245366
0.00463016
-0.00358599
0.00297313
-0.0151148
0.751428
0.208063
-0.332141
0.000536895
0.234495
0.0152157
-0.00314827
2.20791
0.919059
2.6812
0.00113087
0.00126926
0.0337288
-0.285472
-0.0939931
-0.243716
-0.498781
1.83207
-0.146931
3.56186
0.0157788
0.0316518
2.94709
3.01944
0.0334749
0.0499786
-1.10765
-0.148273
0.00112863
0.213188
-0.996159
-0.346395
-0.695197
0.238028
1.42296
-1.92374e-05
0.0510363
0.493954
0.696897
3.59592
-1.43387e-05
-0.00147138
0.03433
-0.343075
-0.0120297
-0.00203454
1.09241
4.33727
1.19008
2.55053
-0.337124
3.70943
1.52517
-0.0611408
0.0961859
-0.976389
-0.116516
0.00326766
-0.0636747
-0.0272696
3.34057
-0.353914
3.30283
0.0821532
1.93575
-0.331101
-0.227796
1.16136
1.62775
-0.0493044
9.68285e-05
-0.000605182
-0.000522592
0.180288
-0.684897
0.00444513
0.786128
-0.00583169
-0.00583618
0.0398827
0.100062
0.0133836
0.0155628
-0.382426
-0.0751545
-0.0847609
3.46542
0.686925
0.159104
-0.195684
-0.542658
-0.000594292
0.000573493
1.50469e-06
-0.630267
-0.972663
-0.506537
0.000547951
-0.254367
1.25848
2.24019
1.09472
-0.00133592
-0.460977
-0.0663327
0.00225513
-0.00154339
-0.496355
0.0334697
0.0082648
-0.334276
0.00843538
-0.828783
-0.384435
-0.336252
-0.311088
0.0189168
-0.631591
0.00523523
0.0005958
0.0916457
3.15604
3.86343
2.1684
0.197424
-0.200887
2.32258
0.26568
0.00454371
0.623013
-0.253304
1.3998
-0.0629089
0.897924
0.0195331
2.15453
0.0106725
-0.0956477
-0.327221
2.4783
0.00548955
-0.339602
-0.233105
1.83091
-0.241522
-0.0962222
0.80565
0.00155048
0.33853
-0.0784351
0.358261
-0.280575
0.0522697
2.82667
2.41407
3.85376
2.06876
2.47001
1.11858
3.24907
0.271591
2.63859
2.69751
0.00642458
-0.0256842
3.84154
0.000767035
0.662887
2.33626
-0.321517
0.0187741
0.698865
-0.0262209
0.0328682
3.47731
4.20107
-0.00344902
0.0053848
0.772729
0.00166631
1.6115
3.00456
1.82355
-0.0014657
-0.389552
-0.309308
0.011428
0.133921
1.19819
4.15072
0.000904956
-1.47743e-05
2.61766
0.130594
-0.00348772
0.666683
0.107649
-0.0612488
-0.044386
0.89952
-0.280984
-0.0258366
-0.491377
0.00558789
-0.00290209
-0.0214873
1.44257
-0.00517368
-0.381823
0.0145254
-0.232727
2.49765
-0.00220597
4.79656
0.372893
3.71312
1.4244
-0.0109935
-0.000570465
-0.00886558
-0.0923162
1.47224
-0.0228345
-0.2439
3.55171
-0.959097
-0.965424
0.453085
0.726912
3.4804
-0.0104417
-0.334856
-0.326633
0.00429867
0.114657
0.0148004
0.185109
-0.642111
4.46959
-0.851129
-0.0401368
-0.348112
0.0405253
1.25561
1.13059
-0.031048
7.30638e-05
2.52668
-0.233488
-1.12875
-0.0288146
0.361599
-0.465949
0.0936556
1.73857
-0.0184007
3.18735
-0.0462906
1.24224
-0.679558
0.486294
-0.000275957
-0.464549
-0.383534
-0.346146
0.655863
-0.35411
0.00577043
-0.804402
-0.0278724
-0.000247427
-0.0213861
0.00484735
4.17297
0.00440874
3.43094
-0.356189
0.465696
0.0560655
1.63991
0.0735807
1.82552
1.08005e-06
0.000674985
-0.0250627
0.0317535
-0.442564
0.000697516
1.68112
4.17829
2.33669
0.00457075
0.443466
1.46853
3.59178
-0.000150589
-0.00626657
0.767431
0.00356845
3.89929
-0.0579079
2.91033
2.08865
0.0034479
-0.936765
2.01178
-0.00290079
0.92388
3.80123
-0.0448348
0.0250809
0.00780526
0.0980601
-0.326696
-0.11517
3.26198
-0.115615
4.56426
4.99081
-0.0552394
0.00100782
3.28897
-0.0618916
-0.284313
0.005018
1.8889
-0.674736
4.36594
-0.0236638
-0.000744522
-0.233189
2.10285
-0.381711
1.14561
0.577785
1.50243
-0.004324
1.3828
0.000484241
0.0304105
-2.14526e-05
0.342115
0.0460809
2.19035
-0.000536786
3.84406
-0.00890042
0.124167
-0.0127683
-1.00554
-0.192525
1.60853
-0.00337498
-0.137645
0.149627
-0.20367
-0.000351475
-0.00123264
-0.00532686
-0.558363
0.0307093
-0.0225714
-0.503914
0.00199914
0.00598007
0.0496535
-0.0108384
2.31241
1.1199
1.8547
-0.416019
-0.315464
-3.51448e-05
0.812902
-0.650415
0.00731007
-0.503483
-0.0269657
-0.572896
0.13405
0.0103513
0.10529
-0.000238701
-0.0966096
-0.00842323
2.52904
-0.13915
0.0030008
-0.00397249
0.501347
-0.704402
-0.061143
-0.00017356
3.28287
3.09578
0.032927
2.58757
0.216565
-0.974812
0.00111783
-5.83586e-05
3.13371
-0.55947
0.00212815
2.14537
-0.0185027
-0.000177546
1.23403
-0.664476
-0.842682
-1.03593
-0.2885
-0.121021
-0.281698
0.00706596
2.16278
-0.00421061
-0.356445
1.1989
-0.00233265
0.216225
0.0768043
1.84687
0.021282
-0.127771
3.82701
0.746277
-0.0344384
-0.327176
2.74676
1.48479
-0.2121
-0.346733
2.98619
-0.0247463
-0.00738301
-0.757375
-0.158665
-0.200858
4.63358
-0.116429
-0.000171061
0.759922
0.0503846
0.116824
1.82137
-0.835267
1.75286
-0.0399107
1.89463
-0.334515
1.21945
-0.0430496
1.52121
1.25082
-0.446953
1.39572
2.70989
-0.00842198
1.37828
4.16615
-0.742988
0.00761322
-0.0443005
1.69104
0.235269
0.494058
2.71885
-0.0615921
-0.0334566
-0.0995297
-0.0727236
2.3348
1.26595
0.00595034
3.46744
4.45688
-0.567881
-0.0377321
1.92538
-0.685462
-0.357382
2.41973
3.41774
-0.0404083
-0.535926
-0.679312
-0.015883
1.79474
-1.02497
-0.0538717
1.53565
0.00465517
1.83389
1.04252
1.67316
2.33481
0.363606
3.28731
-0.0268588
-0.013895
0.197443
-0.0039088
-0.365923
0.222159
-0.463766
0.0370368
-0.0772191
-0.224433
1.03559
-0.817074
-0.00746497
-0.163904
-1.13593
2.46224
-0.756441
-0.837646
-0.163057
0.0302433
2.17389
0.358821
-0.000332301
-0.0471673
0.0561098
-0.209935
-0.310374
-0.0351402
1.41998
0.510882
0.637604
-0.627116
2.3898
0.667986
0.0292506
0.0576449
-0.0721565
4.76224
-0.34042
2.72668e-05
-0.0531818
-0.00794166
3.43213
-0.223209
-3.52035e-05
-0.110045
-0.00539154
0.162753
1.54373
1.79666
0.80391
-0.281935
0.0192392
3.74467
-0.425806
1.29544
-0.09726
-0.846757
0.188967
0.0595869
-0.00336856
-0.203229
-0.00526321
0.143769
-0.0222606
-0.427743
-0.000667697
2.58379
0.000623647
-0.0484871
0.0017327
1.59704
-0.362437
3.33164
0.7073
1.65174
1.16992
0.0270998
3.32551
-0.598246
-0.325707
5.02523
-0.0119498
-0.148512
0.884636
0.566356
0.000640534
0.221386
0.109967
-0.347901
-0.443961
3.80438
0.0502747
0.830627
1.53917
-0.411151
0.0745052
0.0324128
-3.41653e-05
-0.00309771
-0.0348564
0.78205
-0.00937214
-0.0542488
-0.0138038
3.52775
3.62169
0.666129
0.000189881
0.160812
0.757522
2.0977
3.81601e-05
0.784343
-0.6039
0.000952858
-0.0852293
0.694392
-0.5045
0.00581991
-0.958751
4.63778
0.0845374
0.00483024
-1.03592
0.575444
0.00815903
0.00123925
0.851712
-0.0367709
-0.491361
-0.000373934
-0.158956
-0.613761
4.44408
-0.116942
0.122945
-0.343288
-0.00552134
1.66188
-0.00826451
0.4204
1.67167
-0.00125167
0.564969
0.0353893
4.32285
5.04141
0.233107
4.06221
3.82897
1.36604
1.9071
0.00329934
-0.225634
-0.787334
-0.0360576
-0.00340283
0.201859
-0.0145367
-0.00095372
-0.196548
-0.0133901
-0.310072
-0.653742
0.000514701
-0.00469152
1.18696
0.000543825
-0.000563009
1.56172
1.18155
-0.0614451
-0.0213537
-1.02519
0.238845
2.71046
-0.0365341
0.0759261
1.81391
1.31659
-0.60792
0.0672802
0.0109774
-0.00226354
-0.447166
3.18704
0.559305
-0.000508899
0.936641
0.000269619
-0.0023329
1.67137
0.0112497
4.39469
-0.0348939
2.67341
0.00761405
0.0742137
0.0237862
-0.0054102
1.78153
-0.0169353
0.029694
4.19207
3.82963
4.7765
-0.0427107
-0.0487506
2.38786
0.000156894
-0.636929
-0.0837285
2.66617
3.38604
0.0660891
2.01162
0.00106702
1.3561
0.0310248
-0.126996
0.112404
-0.00514178
-0.0739236
0.123788
-0.0636203
2.82546
1.57845
0.0421962
1.77714
-0.475097
0.774948
-0.119824
0.682856
-0.359071
4.78223
3.55024
0.855127
-0.327648
0.000509491
0.0012308
-0.440788
-0.620977
-0.0682535
1.27932
2.57375
1.74632
2.15694
-0.00703204
0.190561
-0.0972196
2.26425
-1.1024
-0.00122188
1.96884
-0.00297633
0.000822118
-0.00054269
-5.27548e-06
-8.06239e-06
2.24045
0.0612121
-0.273294
0.0157119
-0.215072
-0.707042
3.59922
0.0440185
-0.014937
-0.0550398
-0.000544116
-0.0128042
-0.919646
0.615532
1.73393
-0.103628
1.54634
-0.318127
0.172527
0.483745
0.0109877
4.17327
0.000821766
-0.0568548
-0.0120313
-0.332173
-0.159798
2.69307
-0.0621683
0.000391986
0.219587
-0.0802821
2.4185
-0.0014666
0.00170984
0.00115015
-0.476498
0.151226
-0.394413
-1.05509
1.29969
3.48968
-0.0367835
0.00241679
0.0720782
-0.0258659
1.63377
-0.629417
-0.0643481
0.565185
0.48817
0.011704
0.246315
-0.0511034
0.0536013
-0.701781
0.000661656
0.762406
2.59142
3.37242
2.25728
-0.00546697
-0.0437455
0.000777086
-0.540661
-0.543795
2.20231
-0.137448
-0.770131
-0.507124
-0.362849
0.0835874
-0.135885
-0.487784
-0.734605
0.000606396
1.22632
-0.0128974
3.22486
0.817568
0.755596
0.000183058
0.0130703
0.308125
0.000275616
1.62772
-0.147278
-0.864024
-0.882607
0.810149
3.41609
-0.0990271
-0.506847
1.63153
0.356247
-0.0231015
0.651365
4.81246
0.0323664
1.08574
1.18783
0.134243
-0.473566
-0.0468494
3.3641
0.00118128
1.66957
3.61641
-0.000278934
-0.223584
0.0011729
1.37971
-0.199465
0.17091
-0.102976
0.138268
-0.472259
0.00320808
0.0590948
-0.225878
0.170153
-0.0397991
-0.000270736
-0.0406256
-0.507746
-0.995914
-0.0369169
-0.0013696
0.307874
-0.0230144
0.0152859
0.493667
2.1808
-0.307182
-0.0117258
2.19621
-0.000341318
0.00614816
-0.518467
3.94538e-05
0.00261747
-0.0318607
2.79919
0.060292
-0.120321
-0.0426462
0.355434
0.000472368
-0.00881163
0.00115105
1.29776
-0.0235598
-0.0603296
0.351908
-3.2313e-05
0.00584545
-0.00248817
2.22331
-0.0237525
-0.0955578
-0.00156881
2.04344
2.29751
-0.0364847
-0.749802
-0.00161116
-0.000229248
0.200042
0.00430001
-0.00343511
3.37349
0.1173
-0.0422028
-1.05527
0.00288443
0.0113949
-0.132929
-0.00536002
-0.0192566
4.1054
-0.00496981
0.204374
2.96211
-0.00353989
-0.498729
-0.0105417
-0.269319
-0.667262
0.49362
-0.126264
-0.0102977
-0.0924607
1.12291
-0.0326428
0.129527
0.0164158
-0.015932
-0.00154206
-0.00488761
0.526764
-0.392725
1.32087
0.0536867
-0.223997
4.73471
1.5275
-0.754992
-0.00468582
-0.348876
-0.526692
0.705299
-0.692634
0.1819
1.38594
1.37683
-0.227447
-0.684062
3.56422
-0.0368417
0.00297561
-1.0514
-1.12655
0.269701
0.119081
-0.356031
-0.0251152
0.759167
-0.422562
3.1544
-0.336433
3.20592
-0.661395
-0.0132421
0.0664968
0.00230011
0.000706674
-0.00151919
2.45333
-0.000813544
-0.474811
0.0235556
0.205096
-0.662042
-0.0080945
0.0182507
-0.494506
-0.00315076
2.23918
0.125744
-0.0195647
-0.477583
1.64846
-9.04334e-06
0.749859
0.0121365
3.18005
1.35213
-0.675109
-0.495171
-0.0193953
-0.014256
1.70061
2.20669
2.20145
-0.0838142
-0.503264
3.14045
1.64132
0.159146
-4.62324e-05
1.52317
0.325076
0.013489
0.859539
3.67017
-0.31632
0.0117004
4.54887
-0.00290011
-0.00780421
1.268
2.35262
1.62065
1.55977
3.782
3.4445
-0.00498227
-0.0124677
-0.0214386
-0.0191316
1.48397
-0.474703
3.486
0.258008
-0.121
-0.22519
0.212116
0.00904512
0.0158931
-0.0122506
-0.611373
-0.00340194
0.63548
0.000165399
0.000625807
0.00187786
-0.00228487
0.011066
1.65105
0.277436
1.64232
0.777721
4.60801
-0.665535
-0.00278672
-0.0382312
0.132063
-0.0189962
-0.00321479
-0.222253
-0.0138029
-0.0117283
-0.110828
0.581407
-0.000413574
0.66749
0.177473
0.0112698
-0.00654242
0.0562525
0.653512
-0.525513
1.50727
1.7105
-0.201458
0.406011
-0.553439
-0.0236052
0.000176354
0.00114538
-0.0641802
1.79678
1.83065
-0.0949508
-0.154171
0.24481
-0.00969851
3.48645
-0.187658
1.75531
0.0117824
-0.0120846
0.000378963
0.500731
-1.08091
3.53866
3.74083
1.53143
-0.224179
-0.467433
-0.000803439
0.00031691
-0.138036
0.777064
2.12169
-0.959792
-0.570579
-0.424514
2.32321
2.16441
-0.820177
2.74142e-05
2.71354
1.89508
0.357111
-0.000454187
-0.139635
-0.072753
2.18817
2.09991
0.169254
0.414159
4.67458
-0.19715
-0.000428801
-0.00027947
0.648647
-0.21964
1.14266
0.000164845
-0.872197
0.0464986
0.00128242
3.91022
-0.0131439
1.15536
-0.150601
0.0121664
0.770565
-0.845495
3.34235
-0.326823
-0.202947
4.10636
0.011106
0.40906
2.13512
3.46463
-0.0232978
1.67212
-6.11454e-06
0.00803993
1.80919
-0.151391
0.730725
0.736165
0.00372524
2.13543
-0.810426
-0.00016435
-0.962179
-0.0283815
-0.109582
-0.00519492
-0.00137691
-0.60701
1.73743
0.0123151
-0.033517
0.0340235
1.64156
3.40208
0.00225043
-0.0396469
-0.00919437
-0.538104
-0.00573899
0.000529217
-0.000569189
3.62415
0.0806679
0.0153618
-0.0140005
-0.470369
-0.951322
3.47373
3.2206
2.31157
-0.000135042
0.835052
-0.608453
-0.110785
-0.647626
-0.023923
1.87947
-0.270714
0.161975
-0.0145797
0.712365
-0.944508
0.613816
3.04618e-05
1.2291
-0.001208
-0.00714644
2.67185
-0.0291274
-0.475137
4.61921
-0.127351
0.0230916
-0.0480197
1.65694
2.37422
3.39418
2.55611
-0.964366
-0.040151
-0.0155778
0.378115
-0.402028
0.0467396
-0.00176653
0.946327
0.0312853
-0.373429
-0.153053
-0.000168425
1.98034
0.341374
3.66679
1.52276
-0.00020893
1.51346
0.0123214
-0.921585
-0.966675
-0.168164
3.34201
-0.0107643
-0.609058
1.16406
-0.00934197
0.00196218
-0.474586
1.44006
-0.438686
-0.548471
1.36696
0.420147
-5.14418e-05
0.000290674
1.23372
0.193684
-0.45353
-0.0155846
3.13023
-0.00343776
-3.07751e-05
-0.0167673
0.052317
-0.14872
-0.000332823
-0.400951
1.55204
1.63748
-0.0421064
3.41587
-0.278827
1.65634
-0.158594
0.173175
0.00121779
0.670651
1.1942
0.817047
4.31921
1.97876
-0.130866
0.0798994
2.35201
-0.149672
2.98312
3.01426e-05
2.41645
3.07578
3.7619
0.00306417
-0.000299005
3.40028
3.71099
1.4905
0.000657579
-0.0693648
1.13292
-0.0558903
-0.0250731
0.783246
0.395812
0.169885
3.23518
-0.0389415
-0.594819
-0.0325858
1.0406
-0.0262039
3.58173
1.3873
1.57608
-0.0167704
1.75619
-0.156429
0.328889
-0.550762
0.00366338
-0.472776
0.348493
0.0355957
-0.0481824
-0.636039
-0.109918
-0.00025367
-0.41423
-0.0596341
0.00490011
0.175163
-0.033064
-0.0583913
0.535786
-0.00252155
1.39418
-0.780208
3.17869
-0.00477741
4.55822
-0.000582884
-0.122744
0.119825
-0.00107354
-0.0912289
-0.0253304
-0.973623
1.98595
-0.275171
0.922463
-0.629411
2.78961
-0.000570148
-0.751387
0.599709
1.16197
-0.000268788
4.65568
0.120755
0.425149
-0.0701391
-0.0178746
-0.00133711
3.19978
-0.102784
1.62612
0.00318941
-0.784715
-0.0232416
-0.000137437
2.9231
-0.00158132
1.85028
4.14985
3.31637
-0.138418
1.70672
2.32396
2.61228
3.20141
2.19774
3.83066
-0.000272907
-0.421421
1.95239
-0.0104999
3.32395
-0.627249
-0.000182059
-0.00636655
-0.495477
4.60522
1.15206
0.110924
1.26815
-0.00529718
0.00033906
0.154663
-0.418928
0.157899
2.48969
4.37725
-0.25173
3.25511
-0.596971
0.545712
3.45254
0.00268845
2.74042
-0.0879447
0.637728
0.0295803
-0.456314
-0.156038
0.0661027
-0.00025329
-0.171299
-0.000460391
1.83576
4.53556
1.28323
0.0144371
0.0692584
-0.535626
-0.00137956
0.108373
-0.450612
0.113653
-0.235412
-0.38434
-0.0129675
0.0211509
0.68552
0.00276499
-0.515587
-0.00112945
1.44743
-0.0247219
-0.526839
0.00266733
-0.100497
-0.46571
-0.194627
1.45177
0.0132227
0.894636
-0.468001
-1.05214
-0.00360298
0.63217
0.686657
0.381357
3.21272
-0.117757
-1.07437
0.170244
-0.0583998
0.165694
0.00117655
-0.438218
-0.322449
-0.0676781
-0.00348959
-0.0173561
1.3482
-1.18767e-05
-0.0107936
0.00149586
-0.000603122
-0.0394991
3.49249
4.8385
-0.0085583
0.146145
-0.000602454
-0.687768
0.0710524
-0.163874
0.557364
-0.03279
1.52658
0.0660477
-0.0210874
-0.00313847
-0.102465
0.181726
-0.00654158
2.8044
-0.0297057
4.49675
-0.307416
-0.000320406
1.33112
-0.016641
-0.403996
1.79153
-0.0595268
-0.28069
4.29108
-0.60624
0.0824237
0.357079
0.729567
-0.116087
1.91448
-0.00115369
-0.412403
0.0133109
3.55637
0.111239
-0.46014
0.568963
-0.11997
1.5673
0.360825
0.294275
1.67191
0.0231482
-0.950749
-0.119304
-0.0362252
-0.0113461
0.161824
-0.628429
-0.0248324
0.33729
0.123564
0.0150601
-0.430759
-0.00738998
-0.0100657
-0.0332083
-0.00155547
-0.985882
0.0215894
1.53664
0.000334156
-0.0116555
0.0012158
4.25938
-0.00159045
-0.776775
2.18471
1.68835
0.00606071
-0.044964
0.058293
0.0366998
-0.239167
-0.617678
-0.481227
-0.301706
-0.0955118
-0.00903689
1.55463
0.488418
-0.127142
-0.0226056
-0.187366
-0.608582
-0.00376874
-0.100709
0.717015
4.29043
3.613
-0.0647843
1.77425
-0.160255
-0.0116158
-0.00604305
-0.330648
-2.60167e-05
-0.00352588
-0.362162
-0.000195453
0.000662362
-0.610606
0.233234
-0.335935
0.680823
0.00080879
-0.618658
0.310182
-0.246657
0.00266636
-0.592007
-0.0104794
2.39252
-0.0128193
-0.648154
-0.00014153
-0.0168535
-0.486199
-0.345225
0.0379317
-0.39571
0.00220816
2.366
-0.193404
-0.417733
-0.659159
0.09361
1.47342
4.61474
0.184551
1.47737
0.00646076
0.000848012
-0.00440635
-0.332311
-0.00114609
-0.02418
2.92023
4.06272
4.37365
-0.0155031
3.3209
-0.0957748
0.0136321
0.192353
1.89256
0.205718
0.000634514
1.26062
0.324747
-0.985743
-1.08182
-1.11977
-0.373309
-0.000219614
0.0170117
-0.127452
2.47493
-0.540508
1.07466
-0.502003
4.36722
0.137604
1.6346
-0.00119678
-0.486953
-0.0568528
0.000414018
0.0190345
1.16322
-0.0622236
-1.08328
0.203635
0.635553
3.38346
-0.120914
-5.12579e-06
-0.00193846
-0.365945
0.627527
-0.335911
-0.160244
0.0237598
0.00931656
1.53972
-0.00119196
0.339181
-0.0159231
-0.100589
-0.0447592
-0.0634607
2.6083
0.182325
0.107628
0.458385
5.00486
-0.644015
2.30212
2.36655
-0.700312
-0.446187
0.0951222
-0.709146
0.283874
1.55566
-0.174552
0.00118869
-0.10609
-2.07177e-05
-0.962535
-0.0467428
-0.0347481
-0.112354
3.30044
-0.00569598
-0.00051102
2.6939
-0.738507
0.000115165
0.000160357
0.0222147
-0.0753933
-0.00251854
-0.599733
-0.00322611
-0.452563
-0.457392
2.31615
-0.0271829
3.1276
-0.444463
0.00305386
-0.0155896
2.72103
-0.119519
0.252116
0.00115538
-0.30816
-0.310874
0.000297275
0.377202
-0.386018
0.07164
3.42724
-0.00128006
-0.722459
-0.0172504
-0.00114647
-0.00872159
-0.0713365
2.06963
0.0757183
-5.08744e-05
2.38725
-0.190024
-0.00992309
0.741752
-0.0222845
0.616762
-0.450529
-0.00435226
-0.031806
1.39537
-0.436895
0.000967534
-0.861664
-0.422816
0.46628
-0.144974
0.218208
3.49746
-0.0972648
1.24969
1.54483
-0.0106114
0.0138431
2.58205
7.94835e-05
4.9871
0.0026837
-5.69356e-06
1.67197
2.04041
-0.306643
1.11224
-0.572726
0.613377
-0.0935721
0.185268
-2.21482e-05
-0.120987
1.26464
-0.382668
-0.170128
-0.0464154
-0.714951
-0.0734724
-0.049192
-0.00371232
0.712212
4.21795
-0.518356
-1.49783e-05
-0.0025715
0.0264517
-0.0293148
-0.876978
1.67167
-0.782628
-0.381649
0.0136947
1.10815
4.20852
0.000740281
0.727035
0.112156
-0.710425
0.0319261
0.934228
-0.0458552
-0.0172503
-0.127046
-0.0027677
-0.00133866
1.18426
-0.0315569
3.13849
-0.00107967
0.725336
-0.158029
-0.225006
-0.357606
0.365142
-1.0902
0.226853
-0.000274925
1.5631
-0.48433
0.159597
1.274
-0.788276
-0.160274
-0.360601
0.497995
1.38275
-0.688889
1.62267
0.0351029
-0.275172
0.00212974
1.6417
0.301551
-0.00564312
-0.000270469
1.53094
-0.0183308
0.8538
3.155
-0.544627
-0.000939439
-0.351503
3.54076
1.29662
-0.0976577
1.65578
2.60897
0.662649
0.0049411
-0.033649
0.364041
2.03772
-0.367097
0.0269038
-0.0172663
0.00110316
-0.518013
1.38609
0.727024
2.17749
-0.319079
0.74523
-0.329124
-0.170548
0.178161
3.51958
0.483461
-0.858243
-0.0222332
-0.000294007
0.169738
-0.471825
0.032746
-0.00504728
1.4859
2.17385
-0.498902
1.33508
0.119733
3.67431
-0.0251334
1.83058
0.830746
-0.00391896
-0.000426361
0.535578
-0.476373
-0.0172545
-0.199664
2.33521
2.67077
-0.272939
3.42442
2.11543
-0.467479
-0.40284
-0.311221
-0.0643031
1.61264
-0.526711
-0.00636615
-5.29539e-05
-0.0151723
-0.328046
-0.0873343
-0.348935
0.499963
1.70578
-0.0204181
3.72828
0.021655
2.39611
4.57337
1.84676
0.78399
-0.000209513
-0.451966
0.0287946
-0.128759
3.61241
1.4251
1.51985
4.27064
0.11376
0.584988
-0.356904
0.000450679
3.4594
-0.0784497
-0.0106392
-0.352012
0.162819
0.000152052
0.402545
1.48932
1.91332e-05
4.53945
0.976962
-0.0078444
-0.00507128
-0.0220424
2.95186
1.56715
-2.64662e-05
-0.0227946
0.00105903
-0.00419766
0.0262941
-0.0224266
-0.120446
-0.0609947
-0.0351648
-0.129233
-0.0092098
-0.00773539
0.469739
-0.00017161
-0.000169316
0.80477
-0.00482712
0.213315
2.97612
0.372315
-0.00987683
-0.122699
-9.15744e-06
0.0659897
-0.46571
0.442264
-0.497162
-0.0069682
2.44749
1.49556
1.8137
0.238011
0.329539
-0.283533
0.0024403
0.000581546
0.170449
-0.152722
0.00350069
-0.125887
0.173784
-0.000466256
4.66351
1.4519
-0.0205042
-0.705001
3.0304
-0.353721
-0.129849
-0.000574304
-0.460084
-0.220435
-3.72756e-05
0.948837
-0.000583504
-0.0200909
-0.556222
-1.07956
-0.0862226
-0.086667
-0.000163288
-0.640813
0.0310493
1.84632
-0.478845
-0.00257358
-0.0915869
-0.016008
-0.762487
0.671835
0.850499
-0.131747
-0.928776
1.45207
0.0181261
-0.000897271
-0.0476782
-0.215475
1.6244
3.87576
0.200826
4.86797
0.00467688
-0.570508
-1.05478
3.34564
3.33397
-0.165575
-0.0261693
-0.232631
-0.000474803
4.04942
2.97131
1.11209
-0.586541
1.43447
1.32664
4.03224
2.11608
2.70065
-0.679162
1.10229
2.54559
-0.984972
-0.0246235
1.98866
0.389362
0.0113669
-0.269197
-0.00449254
0.104712
0.0278095
0.0349508
-0.102511
0.000453342
-0.455229
0.383843
-0.67652
-0.000428055
-0.0709425
-0.00138201
0.000206274
1.63963
-0.772374
-0.198953
-0.00832003
0.213568
-0.000246795
-0.00281241
-0.00954573
-0.00611726
1.05422
-0.719744
0.00723574
1.52244
-0.0322245
-0.655553
0.669706
-0.0748354
-0.0236807
-6.6537e-05
0.297894
-0.598433
-0.0333906
0.000245333
0.0663937
0.034347
-0.353133
0.621475
0.00688516
-0.45812
4.55175
0.0141637
0.0187521
1.2403
-0.00944839
-0.0179571
-0.00085338
-4.39372e-05
-0.0029381
0.40431
-0.764174
3.61972
4.68679
-0.00743915
-0.00161497
-0.00647879
-0.324884
5.01923
2.36296
-1.00645
-0.599963
-0.00132633
0.0126212
-0.0442691
-0.0135339
0.184479
0.186259
1.66859
0.821134
0.0271711
4.34239
0.700748
0.00696621
-0.0228595
0.82343
-0.31879
-0.540055
-1.05873
-0.12203
2.82738
3.50404
1.51392
2.60764
1.83
-0.76239
-0.130167
0.0760578
2.41862
-0.48748
0.00544645
-0.000264784
-0.131962
-0.810398
-0.0134111
-0.0998429
-0.647058
-0.747715
3.40947
-0.0327387
-0.443619
0.0057753
-0.260213
2.61951
0.381155
0.0832074
0.189399
-0.213974
0.114723
-0.178096
-0.489535
-0.0777762
-0.744434
2.33693
-0.507929
-0.23978
-0.0718853
2.50815
1.72649
-0.333619
0.231472
-0.000241776
2.61518
1.33883
0.350534
0.0311189
-0.35224
-0.186969
-0.033505
-0.787353
-0.0904809
-0.480135
-0.0834587
0.0336139
0.000999012
-0.00505728
0.556583
-0.000297979
-0.155637
-0.539256
-0.406958
-0.00462052
0.000483583
0.0026946
0.0319984
1.57605
0.259208
-0.673719
-0.348682
1.08788
-0.171295
-0.0401663
4.08764
-0.176164
-0.0692433
3.42743
-0.24153
3.13679
3.83769
-0.158558
1.61727
-0.20734
0.164867
-0.0481088
-0.0361737
0.0759627
-0.58832
0.0396578
-0.537574
0.0409421
2.13378
2.27711
-0.508036
-0.00637171
-0.0090516
2.4466
1.95741
-0.114166
2.62771
-0.147176
3.51273
-0.0703562
-0.061949
1.31001
0.789375
-0.00369732
-0.022751
2.12957
-0.422158
-0.00139892
4.27902
1.46644
-0.000558904
-0.821254
2.34946
4.20255
-0.0788815
-0.451803
0.00504192
0.0860781
0.00989198
0.899496
-0.684578
0.00267629
-0.230217
-0.777581
0.656302
1.5663
0.904192
2.09415
-0.595722
-0.0402594
-0.524205
0.487284
0.00131834
4.13152
-0.0836188
-0.18247
4.00375
-0.489478
-0.681781
-0.0120322
1.2367
0.161925
-0.00030176
-0.154906
-0.0036449
-0.266802
2.24318
1.61047
3.51095
-0.678916
-0.464127
-0.0051088
-0.0249019
-0.0256921
2.69626
1.13142
-0.332394
-0.00334158
1.95065
0.828546
0.00150809
-0.0235574
1.3946
-0.0186824
-0.640934
-0.0152842
-0.124953
0.211809
3.68394
3.60492
4.36518
-0.158391
0.148156
-0.188297
0.191175
-0.00720137
-0.0091707
0.00045426
0.354156
0.00108267
2.44308
-0.262764
-0.221708
-0.658698
-0.00154378
2.52818
-0.0334686
2.12263
-0.00400783
4.15327
0.0321091
0.408916
0.341329
4.8432
1.60588
3.90896
2.41462
-1.07572
0.842604
-0.263929
-0.320494
0.00383948
-0.585449
3.4416
-0.00624354
1.63706
1.31715
-0.00423862
1.82429
0.724628
-0.548633
-0.146298
-0.157924
0.209091
-0.483782
0.472457
0.659574
-0.0277236
0.689424
0.475391
0.731377
0.744731
0.41335
0.0736517
-0.00667873
-0.616575
0.634682
-0.439152
-1.05294e-05
-0.199322
3.86211
1.74296
0.103094
-0.462562
-0.626238
-0.00325803
0.701487
0.956189
1.65783
1.4834
0.176731
3.30161
0.000540742
0.800456
2.10893
-0.0171752
0.0223713
0.637526
-0.00613787
-0.00181499
-0.270146
0.000366669
-0.0403343
-0.00540983
-0.656908
-0.530232
-0.531836
-0.00273819
3.25292
-0.135606
-0.0916841
3.2128
-0.219031
1.17843
0.167511
2.32545
0.00389114
-0.00279481
-0.0187016
3.3481
3.1311
-0.943233
0.790416
3.40194
-0.225832
0.525579
-0.677329
1.69834
0.547493
0.152197
0.0208141
-0.170577
4.64185
-0.257251
-0.00277064
0.557163
1.24306
4.33389
1.52042
0.707586
1.83276
4.31829
-0.00109713
-0.350917
0.599302
1.2765
0.000367401
2.5601
0.676313
2.69955
-0.18398
3.55919
1.34025
-0.0327219
-0.239266
0.248
3.41882
0.504876
-0.204662
0.121274
4.71936
-0.623865
0.829228
0.748213
-0.0158397
-0.0151229
-0.0382197
-0.690055
0.00180704
0.09553
-0.520939
-0.837106
-0.310577
0.0130398
-0.0928462
-0.046289
1.58155
0.0335806
1.50626
0.00104239
-0.470563
-0.213998
-0.0268484
-0.00158527
0.961116
0.00042586
-0.159972
1.22438
0.409487
-0.150841
3.60195
-0.142178
3.36217
-0.0219525
-0.372715
2.59842
-0.0382384
3.60509
1.23849
-0.000333882
-0.0028147
-0.0017809
0.798111
3.38411
-0.953824
-0.0548448
-0.0510236
0.02294
0.05087
-0.000214028
-0.00641867
0.173291
0.125836
-0.343211
-0.833061
-0.161648
2.08878
-0.255752
-0.0736575
0.160766
-0.00264779
1.56457
0.296725
-0.936158
-0.677196
-0.143026
2.94601
0.525988
-0.560096
-0.040256
1.42852
-0.325743
-0.0117619
3.45943
0.011316
-0.291415
-0.0248221
2.86014
0.845062
3.53398
-0.35477
-0.126554
-0.142632
1.90062
2.35368
0.113261
0.0444787
-0.00439107
0.113413
-0.785087
-0.0545116
0.0916055
0.124268
-0.000209322
3.20702
-0.0745825
-0.020958
1.43154
-0.623949
-0.00976638
1.57303
0.000475287
-0.44555
1.61168
-0.600581
-0.278257
0.874939
0.0142182
3.22633
0.00101897
-0.619608
0.131976
-0.0632601
-0.185944