/*--------------------------------*- C++ -*----------------------------------*\
  =========                 |
  \\      /  F ield         | OpenFOAM: The Open Source CFD Toolbox
   \\    /   O peration     | Website:  https://openfoam.org
    \\  /    A nd           | Version:  7
     \\/     M anipulation  |
\*---------------------------------------------------------------------------*/
FoamFile
{
    version     2.0;
    format      ascii;
    class       surfaceScalarField;
    location    "0.7";
    object      phi;
}
// * * * * * * * * * * * * * * * * * * * * * * * * * * * * * * * * * * * * * //

dimensions      [0 3 -1 0 0 0 0];

internalField   nonuniform List<scalar> 
176195
(
203.527
48.1846
-251.711
-473.774
102
371.774
-110.995
-79.5998
190.595
113.871
-279.153
165.282
-434.983
323.759
111.224
138.044
-337.239
199.195
-167.528
281.407
-113.879
-88.5182
190.364
-101.845
-363.401
352.02
11.3811
-465.117
-8.65671
-230.017
354.535
-124.518
494.951
-360.238
-134.713
-170.493
341.358
-170.865
94.1998
-95.6769
1.47719
-43.9082
-319.493
-111.444
65.6814
45.7622
-456.091
86.4127
369.678
-411.64
76.987
334.653
-146.006
287.552
-141.546
-332.015
-102.968
-80.628
178.111
-97.483
199.855
-197.77
-2.08438
392.902
-290.393
-102.509
161.154
-314.427
153.273
-261.664
221.372
40.2919
-108.804
208.355
-99.5512
52.4282
67.8961
-120.324
-206.489
456.856
-250.366
-263.271
-175.888
439.159
-66.8305
96.4707
-29.6402
427.844
-342.058
-85.7861
-235.862
-67.2152
303.078
-268.806
404.074
-135.267
-101.363
-77.4715
178.835
-109.217
-88.4204
197.637
182.201
95.7424
-277.943
-211.85
67.7353
144.115
-99.6105
-356.48
95.0288
-132.865
37.8359
90.9489
210.033
-300.982
153.679
-389.542
-57.5527
-354.088
-130.322
-38.6277
168.95
-119.359
301.56
-44.7269
105.905
-61.1776
-2.77529
96.975
265.985
62.4774
-328.462
541.625
-302.18
-239.445
397.393
-147.044
-250.348
414.103
-534.033
119.93
-390.72
478.199
-87.4791
280.476
-101.93
-178.546
-461.473
320.097
141.375
-504.4
451.004
53.3964
-117.811
-167.38
285.191
-306.932
-154.541
543.146
-358.2
-184.946
-135.935
81.3005
54.6343
71.4528
70.0225
-141.475
130.672
-231.748
101.076
-515.38
327.455
187.925
-186.313
332.31
-145.997
346.167
-129.453
-216.714
-107.057
188.055
-80.9977
295.905
87.1681
-383.073
9.38941
-400.978
391.589
-351.992
196.698
155.294
-211.873
388.087
-176.214
61.0665
-122.695
61.6281
-524.401
249.189
275.212
-116.323
189.977
-73.6541
171.547
-130.797
-40.7508
351.92
-260.971
-138.924
69.8295
69.0944
-84.694
-95.9234
180.617
82.9107
-167.801
84.89
-190.919
50.3661
140.553
202.108
-403.14
201.031
-266.388
-114.906
381.294
-273.874
200.771
73.1032
-75.0402
-198.834
429.788
-432.786
2.99745
49.6349
-86.8007
37.1658
-302.248
551.102
-248.853
-137.752
241.371
-103.619
342.478
152.473
-112.08
180.042
-67.9618
-324.476
472.878
-148.403
107.251
-120.645
13.3943
-86.687
441.52
-354.833
126.094
-12.6996
-113.395
203.487
-19.6955
-183.791
206.525
-469.796
221.692
50.006
-271.698
-420.683
315.342
105.341
-574.841
416.808
158.033
262.038
-321.887
59.8493
99.3042
-49.6693
70.4755
-148.102
77.6263
-0.427205
107.678
-314.459
-200.921
194.546
-427.733
233.187
327.614
-180.213
-147.402
-484.636
498.471
-13.8358
81.2598
-197.583
166.92
-84.2794
-82.6402
-502.266
298.306
203.96
-32.0626
100.673
-68.6103
-146.297
225.969
-79.6722
-311.328
-71.1475
382.476
-110.192
213.481
-103.289
-54.6661
316.704
-157.991
-32.9281
137.41
104.297
-241.707
-136.902
47.8644
89.0376
207.029
-346.045
139.017
-307.626
77.6091
-71.0321
196.401
-125.369
363.999
-541.563
177.564
43.5161
128.031
-187.601
116.569
-71.0549
-40.3886
-224.979
114.81
110.169
46.1634
-154.038
107.874
-230.664
532.611
-301.946
-106.062
39.2313
-265.92
79.6072
-124.259
59.9568
64.3024
-181.297
-41.7255
223.023
-497.616
500.155
-2.53876
-96.7591
227.453
-130.694
567.093
-287.713
-279.38
-163.43
163.184
0.246269
538.911
-196.433
-329.44
480.843
-151.403
-144.452
228.776
-84.3238
-272.219
206.559
65.6604
59.736
-328.542
149.218
-267.029
182.801
149.509
76.5847
35.0653
-111.65
-189.206
340.993
-151.787
502.97
-504.531
1.56058
368.022
-194.06
-173.962
-258.235
161.476
141.957
-532.677
436.231
-327.39
-108.841
-116.662
-149.258
-440.005
228.132
-227.139
-166.898
394.036
112.779
54.1403
53.1452
-97.8721
7.06721
196.42
-567.956
273.279
294.678
133.418
147.057
-355.999
425.198
-69.1989
-412.196
100.868
-69.3952
207.748
-138.353
135.397
-135.529
0.131958
-153.857
105.082
48.7745
153.471
-70.5605
139.718
296.513
158.426
187.74
-186.709
150.16
36.5496
264.949
-146.721
-118.229
139.899
173.59
-313.49
435.575
-250.68
-184.895
-55.6094
-110.441
166.051
-179.776
110.381
-243.179
127.286
115.893
-242.743
158.663
84.0795
-98.545
364.53
-78.6832
-34.2213
112.904
26.738
65.7413
-92.4793
-66.0486
-87.7291
153.778
213.349
-426.61
213.26
-77.3855
104.124
194.5
85.2714
-279.771
118.258
-333.15
214.892
278.085
119.308
-284.002
-132.922
416.924
-187.828
103.134
117.984
-247.469
129.485
-197.529
402.588
-205.06
-252.101
-250.165
-162.358
384.898
-222.54
95.0162
-262.378
167.362
312.01
187.99
-127.928
317.186
-189.258
110.568
15.5263
-105.657
300.156
-338.765
190.774
147.991
447.93
-143.918
-304.012
-206.313
116.583
89.73
-214.915
106.112
78.4097
-131.426
53.0159
21.1348
-98.5203
-174.003
164.829
9.17408
58.7049
-150.058
91.3532
77.2647
141.449
-218.713
-557.456
377.88
179.576
-217.805
363.007
-145.202
356.683
59.0133
-415.697
481.28
-479.319
-1.96171
-339.375
169.096
170.279
138.395
-93.8948
-44.5006
370.061
-271.605
-98.4558
-87.288
383.193
-207.076
-194.648
401.724
104.048
-208.054
104.007
-73.5991
94.7338
20.5447
277.762
6.77624
-268.44
-384.2
297.513
-158.8
-68.7008
227.501
-88.5199
-117.793
-100.372
241.9
-141.528
-185.342
-133.718
319.06
83.8788
-86.6541
-123.552
-261.508
385.06
136.323
4.18619
-140.509
138.613
-2.66505
-135.948
137.45
-330.227
192.776
-77.0661
141.739
-64.6726
-73.5443
-430.856
-204.302
44.0356
160.267
-195.491
-84.6887
280.18
187.772
-68.6134
-119.159
139.136
-60.726
-355.084
87.2828
267.802
-1.56243
-406.455
408.018
66.0427
-119.671
53.6287
31.3079
-104.161
72.8529
88.147
-178.383
90.2356
-229.988
125.269
104.719
-224.595
-332.861
-641.703
285.411
356.292
391.85
-206.176
-185.674
-50.2013
159.182
-108.981
240.322
-166.739
-73.5829
-48.6142
136.233
-87.6187
-291.317
159.648
131.668
-111.309
-42.5476
138.554
-68.0787
278.565
-217.527
-61.0383
-235.324
407.583
-172.259
433.093
-213.766
-219.327
137.512
-88.4004
-49.1114
-162.049
106.439
-63.5922
-37.1016
100.694
211.013
274.153
-485.166
-370.844
241.392
129.453
222.062
-520.623
298.561
387.436
-237.46
-149.975
125.312
-100.838
-24.4735
-3.54163
-280.46
-60.8392
158.825
-97.9854
-554.818
295.89
258.928
503.612
-503.612
-182.676
94.1581
368.495
-372.037
-4.22332
88.1021
-464.257
266.728
-110.604
116.362
-5.75838
37.0068
-183.304
258.73
-144.86
-90.9986
137.162
179.815
-280.279
100.464
90.2368
92.4379
-182.675
-98.6286
190.623
-91.9945
415.221
-131.525
-283.696
-319.356
191.429
427.651
-149.566
-216.036
-75.2811
141.138
178.329
-319.466
-191.083
104.213
86.8702
41.1548
-100.776
59.6215
-169.379
103.331
-249.729
297.936
-48.2064
81.9421
-114.005
-125.709
-61.0005
97.2678
184.863
-404.841
219.978
69.4698
68.9256
456.518
-254.457
-202.06
173.902
203.021
-376.923
40.5984
-244.901
487.81
-497.465
9.65527
120.199
-66.4402
-53.7588
82.1084
-135.741
53.6325
110.287
-69.1317
-500.322
66.1244
434.198
-149.904
29.8104
120.094
350.314
-329.77
-258.722
409.628
-150.906
-475.05
301.456
173.594
364.613
-244.513
-120.1
-132.975
-207.308
340.283
-162.554
345.237
-182.683
-212.264
113.635
-73.798
-23.1167
96.9147
105.278
-193.013
87.7354
-61.2871
118.295
-57.0074
310.186
-193.003
-117.183
82.1403
44.1009
-126.241
-123.331
264.315
-140.983
-249.78
158.53
91.2501
114.748
73.0242
99.7445
-115.605
15.8603
-168.649
286.907
-91.8171
-188.139
279.956
97.0614
27.8525
-124.914
-95.5283
140.535
-45.0071
-151.778
101.576
-330.637
160.144
-182.114
346.092
-163.978
356.026
91.9035
177.079
-412.403
273.724
-112.57
-159.661
104.953
54.7085
-11.7795
-165.017
176.797
262.831
-386.383
-59.9255
416.609
-31.9978
-104.904
172.501
64.9616
-237.463
-145.68
61.2302
84.4495
-365.883
9.88334
188.66
-398.312
209.652
30.195
-103.993
-132
-17.9041
194.764
-286.581
-432.876
-67.446
141.481
229.685
-371.166
219.084
145.529
154.373
-67.8687
-86.5044
173.402
101.335
-274.737
-239.03
151.825
87.2044
80.3447
-357.621
277.276
353.073
-215.03
243.738
-148.722
86.269
107.421
-193.69
-124.482
255.059
-130.577
108.242
-55.8139
93.5216
-184.017
90.4954
267.069
-88.4403
-178.629
-169.362
-213.392
382.754
-174.273
-75.4563
-94.5614
-11.3891
105.951
82.6126
48.015
-130.628
320.743
-174.902
-145.841
-189.825
26.3954
-499.382
346.58
152.801
360.645
7.85057
171.125
-290.939
119.814
182.897
-105.632
185.162
85.5892
-270.751
-41.6832
245.21
-105.321
-299.56
404.881
-170.959
388.693
-217.734
-117.12
257.605
-140.484
-166.163
263.178
-97.0144
147.562
-95.4511
-52.1109
-158.275
-53.5749
-169.752
93.1673
76.5844
251.83
-139.187
-112.643
-438.079
332.758
-162.312
165.103
-2.79075
-187.728
110.469
77.259
304.404
-166.954
-168.962
473.041
-304.079
189.566
-92.6646
-96.9016
52.8522
72.3152
-125.167
74.4951
63.0166
25.69
229.97
-255.66
89.5603
92.5493
-182.11
61.299
305.981
-367.28
145.5
510.388
-96.2856
226.312
95.5038
-321.816
-132.226
290.605
-158.379
137.949
-71.9058
213.962
-122.186
-91.776
-77.6016
202.081
-124.479
131.476
-248.596
393.771
-219.869
-371.351
369.361
1.99018
115.073
-83.7654
-58.0288
-41.7708
99.7997
488.003
-164.245
-70.9156
182.295
-111.379
-220.583
413.066
-192.483
253.536
183.782
-437.318
67.6557
-179.736
-449.411
242.921
-20.2569
158.87
-325.158
188.012
137.146
12.8457
86.8989
-316.626
-131.713
448.339
268.34
159.311
-77.6364
-83.9444
161.581
100.303
0.482445
-100.785
-242.777
354.999
-112.222
101.401
-109.092
7.69109
-137.206
373.948
-236.742
-106.818
121.699
-14.8812
62.3479
110.18
-172.528
142.043
-471.483
-172.131
262.261
-90.1291
-98.2268
238.608
-140.381
-134.037
198.627
-64.5904
254.85
-159.695
-95.1548
-275.085
86.9465
237.875
-407.237
-38.684
214.145
-175.461
-226.372
88.6206
197.914
100.022
381.323
-112.982
67.413
-128.292
60.8794
353.32
69.9258
-423.246
-197.476
404.135
-206.658
-232.84
-267.157
22.9415
-96.5406
601.442
-379.218
-222.224
-60.6456
131.026
-70.3801
-138.582
43.0537
285.739
-378.829
93.0897
-121.716
184.064
-392.22
367.395
24.8242
323.282
219.864
147.341
157.924
-305.264
-504.037
382.357
121.681
-352.669
426.191
-73.5226
-99.2629
253.336
-154.074
182.666
-67.9177
130.42
179.767
124.585
-296.716
-129.676
266.59
-136.914
382.736
218.706
336.296
-330.44
-5.85614
325.158
-529.509
204.351
341.671
-139.563
-101.15
-396.466
55.8282
-210.505
154.677
80.5802
-158.217
357.521
98.9965
172.676
-86.2115
-86.4645
238.541
169.042
134.606
233.694
-368.3
-113.015
366.552
403.993
-190.643
-394.395
2.19045
392.204
-291.199
-180.969
472.168
421.501
-291.873
-129.628
489.112
-248.769
-240.343
-65.333
-96.7156
-60.97
273.692
-212.722
66.8354
72.892
-139.727
85.4757
-144.074
58.5986
154.082
142.67
-296.752
-185.995
31.4693
154.526
13.913
87.4877
412.028
-173.487
375.011
112.993
-285.378
-123.778
409.156
-40.5955
137.657
-171.369
90.7411
-160.24
-220.011
380.251
-25.3274
91.0687
-38.1326
-147.863
166.329
-457.528
196.295
-37.5494
-56.6953
94.2447
220.254
-61.0724
-92.9644
-45.9595
-255.461
125.785
-95.0143
267.515
-324.718
499.957
-175.238
261.396
-421.636
391.04
-196.494
107.043
186.672
-293.715
-134.975
80.2074
54.7675
-367.319
488.639
-121.319
307.417
-227.073
554.039
-227.295
-326.744
113.652
106.602
358.847
-116.758
-242.089
-271.875
434.545
-162.67
135.144
-229.919
94.7753
-181.045
31.1023
149.943
-135.835
-76.4288
131.6
-383.877
252.277
11.4774
-121.135
109.658
454.596
-199.83
-254.766
300.319
-467.669
167.351
-227.748
189.064
96.2511
93.315
104.94
-4.27051
-100.67
254.425
-117.015
250.713
141.137
323.45
-180.395
-143.055
-327.157
217.706
109.451
-490.964
383.846
107.118
186.043
-97.8959
-121.199
181.589
-60.3896
-172.944
-76.8354
337.374
-51.635
121.144
9.97692
-131.121
-117.207
203.476
-120.531
71.9169
-518.487
357.218
161.269
311.98
-140.855
227.023
160.412
160.712
-398.173
-474.619
238.101
236.517
-245.578
156.416
89.1617
113.011
-38.3279
-74.6833
-218.904
-203.183
422.087
102.352
135.826
-238.179
-407.109
282.662
124.447
-272.329
-134.78
-560.877
373.063
187.814
-279.781
106.837
585.718
-299.649
-286.068
-146.948
-178.524
325.471
-134.117
139.538
-5.42112
-166.715
275.413
-108.698
-255.085
155.822
-412.759
330.27
82.4884
90.9197
94.09
-185.01
-368.229
195.798
172.431
-110.907
-131.836
144.874
-103.744
-41.1299
276.802
104.521
573.966
-316.408
-257.558
253.32
-519.759
266.439
58.1968
-120.845
62.6481
99.7263
5.21378
-61.1069
148.052
-86.9453
272.967
300.999
73.7874
-175.15
-275.43
150.948
100.066
-39
101.83
150
347.274
82.5149
110.694
71.9718
45.1825
-188.966
143.784
365.254
-514.222
148.969
-60.8524
326.09
-265.237
-34.7139
120.19
174.478
379.561
-148.002
358.998
-210.996
55.8221
-160.8
104.978
-340.903
-300.8
-69.2777
-32.9564
102.234
7.14832
-141.265
-108.481
119.959
179.019
-85.4971
180.697
-327.644
-141.931
82.8097
59.1213
-351.681
-87.8137
439.495
-338.28
521.843
-183.563
109.622
-370.187
260.564
33.1021
-124.069
90.9672
-97.9563
-257.128
272.35
123.524
-395.874
171.358
-115.529
251.466
-140.889
-110.577
543.526
-171.084
-372.442
-365.011
49.5371
315.474
331.691
90.6383
-422.329
-471.396
490.773
-19.3773
-146.151
-78.8288
-89.1418
179.379
142.008
181.442
244.958
-525.189
280.231
376.724
-367.334
453.927
-181.577
552.797
-298.712
-254.086
-223.933
246.33
-22.3967
-51.5546
172.699
-67.3114
-265.424
332.736
56.7703
446.842
-62.1438
-89.6339
141.615
-74.7797
303.512
-149.43
135.508
52.9465
-188.455
166.482
-227.452
-71.296
-84.6897
155.986
552.65
-552.65
6.34942
-113.167
281.886
-169.848
-112.039
-303.683
-171.367
-161.678
96.3445
-365.753
-118.883
-64.2011
117.053
214.714
-303.772
171.412
132.36
-0.447256
-391.772
128.857
86.8786
-215.736
87.4865
103.137
108.653
-32.0686
-64.1094
-300.901
50.4283
-225.335
174.907
-0.701599
-393.693
-298.577
150.575
-131.681
-184.669
316.351
99.974
254.934
-354.908
-328.359
500.844
-172.485
-85.5873
-25.0164
-56.1261
87.663
-31.5369
-102.352
183.514
-81.162
228.155
168.83
-396.985
309.971
-202.928
406.174
-187.09
-304.339
-199.698
123.05
-269.056
-184.071
74.8543
-412.945
308.115
104.831
84.0554
-435.737
91.9456
137.097
-229.042
-222.606
-152.686
375.292
28.9662
-90.2534
102.188
-142.784
-104.48
-221.209
325.689
-301.813
240.961
-95.644
-57.2767
152.921
-188.975
104.627
84.3475
358.112
-517.082
158.97
317.217
-207.233
-109.984
151.443
281.65
109.742
69.0211
-178.764
387.287
-160.263
146.877
-514.197
235.886
-185.457
151.694
165.523
-64.6923
-348.253
208.873
-368.611
159.738
406.453
-233.755
-172.699
74.565
-260.629
186.064
-229.169
-10.1342
239.303
67.4165
-141.348
73.9315
85.3549
-163.144
77.7892
193.496
212.678
-47.7503
148.053
-334.117
418.173
135.767
234.135
-369.902
-102.599
309.628
75.2602
91.4616
-166.722
41.77
-314.709
272.939
-141.017
148.165
278.736
-457.802
179.066
-87.8544
223.363
283.003
-455.263
196.541
-119.515
-6.3834
125.899
27.2468
123.985
-151.231
228.322
226.274
-99.1037
174.364
340.054
-28.5165
-311.537
-124.013
444.718
-320.705
101.908
290.994
45.5731
228.119
312.292
131.547
-443.839
328.813
-267.389
-61.4242
-32.5873
-129.725
-207.88
63.4277
-82.1407
-30.3172
112.458
12.4436
-94.5843
-306.927
174.701
-79.0456
-162.941
241.987
217.617
97.7583
-315.376
-222.595
-47.6628
270.258
-152.836
90.6921
81.0952
-183.447
-83.9355
-318.672
402.608
-70.2059
-145.83
517.365
-238.629
-74.2202
68.6556
58.774
-127.43
-190.252
74.9176
115.335
77.4706
-94.506
17.0354
105.7
173.422
-279.122
-189.406
108.936
80.4699
-132.497
317.659
-95.4838
-114.791
210.275
-320.26
-204.141
-242.024
131.889
110.135
-229.282
527.002
-297.72
434.254
-302.654
-72.2304
-95.8171
168.048
-79.2729
109.468
-185.073
323.177
-138.104
-121.533
264.9
-143.367
163.496
-64.7496
-98.7461
-249.439
359.061
125.399
-69.2186
-56.1808
-274.263
280.181
-5.91786
-267.807
100.279
198.838
7.18477
-206.023
-191.497
375.369
-183.873
128.963
-63.1971
-65.7657
225.241
-462.303
237.062
-497.839
173.363
166.762
-30.4389
-142.271
1.2543
-191.975
92.3059
99.6692
-149.609
358.482
140.804
-84.9823
80.9783
-415.096
-52.3313
-56.5463
108.878
-105.465
-509.238
357.383
151.855
248.062
80.7516
-305.555
-160.861
466.417
-74.3286
298.801
79.515
-140.161
-57.1937
-133.889
-230.761
-239.381
470.142
-197.25
-243.054
440.304
-270.358
257.224
13.1331
311.996
-250.697
-300.001
-199.38
340.837
-509.799
91.0565
101.078
-192.134
-383.44
211.516
171.924
158.407
216.604
-80.7227
145.354
-64.6314
-330.359
526.163
-195.804
-165.976
114.355
51.6213
-137.39
64.2137
73.1764
49.0312
-105.157
-63.7972
395.488
78.2759
69.2141
-147.49
494.898
-182.606
-140.972
258.957
-318.929
156.375
-287.075
287.075
-136.853
228.799
-548.793
281.523
267.27
-263.28
-83.7704
347.05
188.58
-143.398
-102.531
108.101
-5.56925
-234.475
68.3113
123.313
-483.551
49.8253
70.3737
-123.37
-319.989
443.359
-232.496
368.263
-238.666
138.294
501.176
-246.757
-254.419
-191.626
-37.5426
147.611
-327.823
-568.327
398.411
169.916
-283.887
-158.612
-204.38
38.0176
166.363
-26.0628
-120.489
146.552
137.154
117.271
-95.1549
123.103
-27.9477
-4.77057
88.983
-84.2124
223.395
-222.432
-0.962896
212.942
-337.847
124.905
45.0037
-166.203
-72.0972
-155.65
106.601
-201.579
94.9782
-393.369
-257.967
317.773
-59.8062
86.0858
42.877
-0.00301726
-148.372
148.375
-149.771
-202.221
155.523
-386.603
231.081
-175.176
102.945
69.3253
46.6822
-116.007
42.7541
-138.398
-141.741
223.134
-81.3929
145.208
110.61
-255.818
-149.067
-284.345
433.411
171.126
-421.73
250.604
103.131
-140.49
37.3596
-540.725
308.919
231.806
464.762
-323.378
-141.384
-501.517
176.798
-106.77
113.12
-76.017
-95.3521
289.939
-402.955
-344.519
-130.1
-183.136
-120.636
-380.81
155.958
224.852
-208.052
137.846
-46.3811
307.42
-261.039
-95.5783
-242.786
131.879
161.709
95.9808
-257.69
258.826
-454.506
195.68
194.995
-90.947
-315.901
108.668
225.439
-94.7674
-327.586
-112.133
439.719
383.518
-227.995
-331.896
336.52
-4.62367
-69.1882
125.522
-56.3336
-379.887
166.495
-312.627
126.436
186.192
135.49
-135.49
-194.851
-256.13
450.981
471.538
-390.56
67.9264
-263.418
4.04064
336.013
338.95
204.576
-230.3
-47.8993
278.199
113.968
-1.4012
-112.567
-74.4754
141.692
-67.2162
-180.63
105.063
75.5669
-323.009
-244.947
-151.331
80.035
117.782
-49.1263
-272.589
-302.252
-147.454
86.3475
131.96
209.398
76.5716
33.5956
-110.167
-53.3434
129.595
-76.2518
379.671
173.126
-162.187
-117.594
-336.305
-172.932
-155.814
-101.676
257.489
-69.3623
-272.753
342.116
-329.699
164.391
165.308
-91.8695
-104.68
196.549
337.853
-505.027
167.174
209.211
-354.664
145.454
228.21
-407.042
178.832
-84.0006
-51.9342
-238.117
166.02
166.504
-395.05
228.545
-129.631
103.568
-378.747
160.942
-204.544
362.951
-64.8273
121.073
-56.2461
94.481
-132.133
37.652
31.2682
-94.8604
-153.91
366.852
483.501
-465.548
-17.9526
-100.165
133.267
-78.7613
138.488
-59.7272
260.933
-455.784
-52.1864
143.644
-91.4579
-149.474
289.373
390.878
-507.238
116.36
221.408
69.8309
-291.239
58.1685
-104.79
46.6211
-33.5526
111.023
59.1034
37.2948
-96.3982
-37.9947
141.366
-103.371
-10.8036
161.514
-150.711
178.58
-71.9794
386.214
-135.5
-57.4033
256.594
-199.191
-303.722
-48.9469
183.067
-99.0816
-83.9858
183.077
-286.758
103.681
-239.976
-147.082
387.058
-70.4696
164.951
-271.45
155.235
116.215
226.924
-341.369
114.445
-324.52
201.727
122.793
252.908
-136.331
-116.577
-129.948
56.7348
73.2132
182.162
-389.239
-99.4812
-80.1509
179.632
-47.8197
-134.222
182.041
74.1149
-223.146
149.031
-99.4342
188.994
187.55
-99.1792
-88.3704
-64.3611
-105.88
170.241
-47.6306
149.819
-163.968
-117.533
281.501
-304.846
-8.65458
313.5
61.0153
-110.972
49.9568
170.889
96.1805
119.417
106.022
-114.765
112.559
2.20556
-204.38
-55.6398
446.518
-12.6978
107.727
377.656
12.2865
-389.942
385.477
-325.741
-469.086
169.085
44.1966
60.0288
-104.225
-126.608
-33.0538
82.7272
-260.095
177.368
106.178
-364.145
-178.142
-30.9084
252.316
-65.6119
264.45
252.543
150.045
-397.758
206.261
-146.494
65.771
382.223
-160.162
217.321
-84.7484
-132.573
259.125
-328.488
285.641
-171.27
-114.371
201.518
-184.481
-17.0368
116.751
-55.7361
-215.01
-235.692
450.702
-191.196
40.5723
150.624
490.862
-483.731
-7.13105
231.363
-60.7556
-170.607
241.614
242.617
-484.23
250.87
-176.755
-165.952
301.589
-135.637
-160.329
307.669
-135.618
221.028
-85.4098
-189.814
-149.561
57.3026
-129.297
71.9948
95.2514
-190.735
352.029
119.509
-266.343
-146.416
-52.6347
-137.618
119.144
-42.5722
-172.713
275.89
-103.177
-60.8097
132.263
120.531
-45.3579
-75.173
-139.551
75.1901
-581.93
363.127
218.803
69.3393
-123.323
53.9836
-179.333
262.06
-68.9337
134.471
-65.5377
73.9139
46.6169
-142.394
363.828
-221.435
-113.045
-92.3745
205.419
-57.834
-41.9115
99.7455
338.46
-145.647
-192.813
224.339
-79.4448
-144.894
-379.765
-313.68
-155.406
-58.0678
-80.2778
138.346
111.913
-296.977
185.064
120.81
-63.5074
-112.68
5.90918
146.187
-412.575
312.574
-94.8683
-162.516
91.6008
-162.318
87.4155
74.9028
338.896
-129.685
162.024
-130.074
-31.95
-84.5924
-77.7259
49.0765
-122.761
73.6844
88.9474
-164.964
115.172
-64.5998
-105.128
169.728
-90.1386
211.742
-121.604
109.376
-24.9534
-84.4222
-269.375
-35.4714
125.903
88.0589
-90.0104
10.7375
-100.431
198.314
-97.8827
-96.5926
102.618
-6.02544
-102.83
-78.4468
-96.547
174.994
483.198
-385.681
-97.517
411.827
-121.887
130.266
-103.019
-425.696
463.889
-38.1929
-179.377
305.857
-126.48
-232.582
300.509
100.022
87.5276
-73.59
-114.138
-93.0789
272.894
-139.164
278.808
-139.644
28.0254
61.6024
-89.6278
-284.902
156.506
128.396
120.157
-61.9605
-70.9538
-59.8429
-213.408
-186.56
399.968
138.967
344.231
-455.281
258.031
240.382
-240.382
-99.5431
94.4327
5.11044
185.732
-101.861
-83.871
246.001
-540.002
294.001
183.546
154.914
-252.776
356.541
-103.764
114.171
-44.8313
-205.708
130.674
75.0337
156.959
330.238
-487.197
255.047
-117.893
-317.339
159.895
157.444
78.1686
-175.262
97.0936
279.063
149.779
-428.842
-208.537
95.4924
75.8487
-148.134
72.2853
141.381
-179.376
-169.418
397.573
-185.664
95.6295
90.0348
176.526
-106.036
-70.4895
-90.5921
359.468
-268.876
333.547
-167.065
-45.1943
107.921
-62.7271
181.69
174.98
-356.67
-206.424
-248.858
-90.7808
349.606
99.1723
-185.617
86.4449
-205.104
399.493
-194.39
149.28
-71.1116
318.889
-219.571
-99.318
131.42
-64.0071
-220.099
-134.896
70.0686
-620.246
303.838
132.603
493.615
-501.535
7.91967
200.859
188.394
-389.253
116.188
45.8355
-361.551
-129.414
138.141
-149.921
12.0184
-282.376
-30.3138
-101.791
132.105
161.296
-295.553
134.257
98.2411
285.605
-135.879
88.1375
47.7412
50.5497
-184.771
57.5567
-99.6412
42.0845
263.536
95.3112
263.396
-175.28
-88.116
131.231
-63.8141
-386.398
271.362
115.037
-260.078
-360.168
184.896
46.4666
143.367
-453.956
310.589
-55.7049
-84.121
139.826
35.6314
-127.879
92.2476
293.387
207.789
-1.78321
379.439
-62.0685
-70.7962
418.844
-139.781
64.2597
-123.702
59.442
-462.972
259.127
203.844
-201.859
-245.028
446.887
-366.488
566.488
-200
280.999
146.846
-173.788
250.022
-76.2348
-150.609
252.962
352.065
-277.15
-74.9152
-180.63
291.203
-110.573
-186.71
-152.055
-78.7768
-199.241
278.018
66.2612
47.985
-114.246
174.471
-83.5516
440.396
-378.817
-61.5791
-174.86
99.6447
75.2156
80.606
264.588
-345.194
103.975
-34.6498
347.568
92.8284
-69.097
144.946
-102.163
-33.7157
-225.966
514.168
-288.202
5.33104
191.618
-196.949
216.616
-383.884
167.268
-82.8628
-42.0904
124.953
289.702
96.5111
-86.179
-23.1764
109.355
-154.397
143.629
10.7685
-179.475
112.642
66.8331
182.821
384.271
102.137
-43.0339
-266.515
-119.884
228.692
-443.702
413.726
-509.85
96.1237
69.1621
223.369
-31.8292
-191.54
119.531
-70.4543
80.8926
-408.479
-77.9901
-89.2063
167.196
104.566
-11.0427
-93.5237
-119.28
24.7191
123.527
131.323
155.175
-328.317
173.142
-93.334
163.973
-70.6394
152.317
-357.42
343.532
-231.619
341.932
-82.8068
-356.448
-198.37
-287.89
463.177
-175.287
429.271
-324.308
-104.963
-8.92789
-336.92
345.848
-335.602
-176.614
512.217
-174.725
-6.32001
93.7557
-36.199
-501.36
260.966
240.395
-191.151
-81.0678
-88.1086
-41.8393
-35.7765
138.907
-80.1542
150.177
-554.635
382.758
171.877
98.4518
-163.052
-24.649
92.4432
-67.7942
181.643
-146.391
188.485
-313.165
124.681
322.593
-255.597
-66.9953
87.41
-397.454
310.044
216.914
-97.497
114.415
255.646
-95.6822
-93.2926
111.267
-53.0981
474.921
-299.081
-175.84
-267.334
364.041
-96.7074
-108.997
192.328
282.593
-417.834
31.8688
385.965
-282.408
-181.849
126.722
-204.491
77.7691
-135.869
-70.7601
206.629
107.565
211.179
-318.743
44.3033
-264.23
-237.131
-76.2088
-28.3979
104.607
-205.246
326.333
-121.088
479.333
-173.352
404.585
-58.0048
-282.818
159.487
96.2182
8.34818
-268.821
-36.5612
305.382
56.9186
-373.545
-408.906
137.031
131.365
-17.1013
-114.264
180.254
-263.79
83.5356
-111.102
256.31
-458.717
334.705
-61.7935
-79.5545
497.23
-149.662
-240.629
406.782
-166.153
213.008
-330.257
117.249
469.943
-111.831
38.8855
86.4263
-309.531
135.743
339.247
-179.773
-159.474
-176.014
296.224
-120.21
132.118
347.215
163.088
-268.269
105.181
389.853
-107.191
361.135
129.129
-490.263
329.274
-226.244
-103.03
473.303
-502.224
28.9212
127.252
-100.556
-26.6956
345.114
-245.14
-8.49983
-111.015
-80.2077
-182.895
263.103
50.4646
-117.945
67.4806
-127.896
56.9417
-307.194
474.401
-167.206
-87.527
-54.404
-194.621
199.952
113.912
24.9065
-102.89
77.9831
289.235
1.92843
-291.163
-125.483
73.4144
52.0687
-100.805
454.125
168.746
116.895
-142.486
303.783
-237.023
159.421
334.938
50.5384
-160.638
-156.702
16.3694
227.369
-246.565
84.3776
-141.597
241.562
-99.9656
47.7044
-111.906
404.208
-203.349
-369.275
376.336
-7.06132
-133.006
494.141
68.8371
-141.117
72.2796
119.944
-68.6758
-142.428
211.104
-151.995
188.282
-72.0942
104.258
5.44513
-109.703
74.4024
-117.817
43.4142
-244.59
146.363
-100.874
-68.6957
169.57
-267.758
-294.316
128.445
165.871
120.248
-84.6162
48.2143
-113.738
65.5233
48.2398
-184.109
132.361
131.954
-89.8954
247.194
-157.298
-122.74
71.0197
51.7206
-68.6238
179.73
-111.106
-375.379
213.021
-178.254
359.944
153.192
-272.054
118.862
228.652
177.665
-406.316
-57.9799
-32.2934
90.2733
331.468
97.803
320.197
-147.191
-173.005
-157.585
406.196
-248.611
164.681
-70.9644
325.725
-254.761
327.682
121.677
-449.359
474.559
313.481
151.738
-465.219
249.321
-455.745
193.575
-32.032
-161.543
-338.22
185.908
152.312
-112.104
5.203
106.902
94.5016
17.7692
-112.271
-74.969
-60.0059
13.8421
-383.117
-356.415
214.022
61.0904
193.324
-254.415
-377.993
307.029
222.841
122.924
-345.764
-63.4339
109.74
-46.3056
-103.671
-139.981
243.652
568.793
-256.783
63.4458
136.409
-132.15
-277.992
410.142
-121.659
172.209
-223.388
382.21
-158.822
-350.115
39.4356
310.679
-177.883
-279.184
457.067
-50.2359
-87.1542
-564.246
366.72
197.526
301.25
-183.168
-118.083
-123.657
346.498
-169.469
68.5951
111.977
-189.967
127.736
89.5856
-163.552
-490.523
250.997
239.526
-161.545
76.9526
-267.003
97.1559
-290.974
-290.956
-58.1297
-243.684
95.3263
-332.041
236.715
-203.755
-176.672
69.058
107.614
-241.632
-74.2685
-113.04
-41.7303
154.77
-52.8437
-45.6903
98.534
-308.869
218.277
-1.7881
-77.5947
79.3828
158.399
-190.229
153.25
-365.356
212.106
7.85383
-276.675
-191.978
316.709
-124.731
-228.259
240.277
106.988
-133.23
-89.6626
222.893
396.115
-405.043
97.9832
-69.9578
285.405
189.503
-474.908
-85.8841
-75.661
-78.2538
273.018
365.013
-366.796
97.7344
-3.2328
409.28
-124.76
-284.52
107.051
154.926
-261.976
145.99
-27.3345
-132.297
159.632
258.733
-123.304
-135.429
347.885
41.9684
122.465
-72.0007
-501.724
173.365
68.2662
-137.2
-134.054
71.7481
62.3064
-49.6856
148.258
-98.5728
-140.266
-78.9986
219.264
37.0622
-100.849
63.7871
-126.793
43.9305
174.139
-188.584
14.4448
225.417
-280.558
55.141
-219.45
79.1841
-88.7502
-79.0505
-63.5817
-57.6867
121.268
142.563
181.31
194.059
-225.639
179.258
163.407
-112.493
-50.9142
-369.748
261.518
108.23
224.188
-87.0914
336.252
160.978
335.228
102.719
-437.947
-132.938
-125.297
-537.843
251.045
286.797
213.758
-292.388
78.6299
143.915
119.482
-98.5333
53.339
-31.9218
96.3571
-64.4353
-266.33
-216.195
482.525
-419.753
440
-20.2472
-267.191
108.391
-130.491
-452.631
-21.8956
474.527
208.9
240.025
-448.924
-123.79
-188.838
-147.731
-137.171
119.929
-15.6712
-337.099
135.24
-26.0187
161.163
-114.491
-271.45
166.85
104.6
84.3395
69.1317
-129.707
-145.645
275.352
116.197
-91.2904
416.354
-294.575
-121.779
-126.679
339.688
-217.797
-29.6722
457.157
24.1239
-114.753
-76.5898
191.343
454.648
-0.201182
-454.447
-86.9054
313.073
-226.168
118.587
82.1071
-200.694
-372.909
218.959
153.95
-131.626
-112.164
-159.286
143.878
-75.0409
-107.106
289.934
-182.828
141.474
137.565
-279.039
-151.351
-54.3571
-246.572
-174.819
421.392
115.497
476.438
-332.705
-143.733
-154.395
151.08
-94.2817
-56.7983
38.4094
-95.1046
206.046
-271.658
294.474
-352.604
-401.616
341.691
193.83
-317.619
231.282
180.747
431.836
-203.626
-215.837
158.434
96.5618
82.4568
-96.7718
97.6629
-147.349
-271.401
288.885
-17.4832
-276.678
-21.899
76.4687
-143.309
66.8404
114.964
286.598
-158.153
245.788
-132.435
-113.354
-67.7051
115.409
-269.143
121.073
-189.749
311.449
-62.4323
-249.017
-256.193
465.093
484.75
-148.498
-370.184
267.321
102.863
-22.2795
476.927
-215.396
404.056
-86.0372
-203.387
289.424
104.58
-263.595
159.014
13.4453
288.011
-334.611
-247.386
581.997
146.841
-347.878
201.037
-292.796
392.834
-100.038
-129.918
443.4
352.643
-126.331
177.733
-89.5677
369.595
-280.027
-74.6647
-50.8183
-223.608
148.574
75.0347
178.097
148.237
53.1697
-59.648
-279.881
339.528
-386.131
-78.9861
-128.518
-198.872
-337.736
230.63
-412.912
412.912
142.794
-332.939
190.145
182.156
-339.575
157.42
232.126
79.3231
53.8499
42.4321
-96.282
218.722
-371.408
287.713
-465.596
242.885
-40.804
146.844
157.56
72.781
198.055
-270.836
125.652
-94.7578
-30.8945
-71.8527
-293.495
365.348
101.42
-177.194
75.7733
-47.1283
160.805
-113.677
331.95
4.34575
-80.1503
80.6327
-276.431
321.702
-45.2709
47.2829
146.292
96.5934
16.8751
-113.468
-311.908
-38.207
36.2419
-170.279
-193.472