/*--------------------------------*- C++ -*----------------------------------*\
  =========                 |
  \\      /  F ield         | OpenFOAM: The Open Source CFD Toolbox
   \\    /   O peration     | Website:  https://openfoam.org
    \\  /    A nd           | Version:  7
     \\/     M anipulation  |
\*---------------------------------------------------------------------------*/
FoamFile
{
    version     2.0;
    format      ascii;
    class       volVectorField;
    location    "0.7";
    object      U;
}
// * * * * * * * * * * * * * * * * * * * * * * * * * * * * * * * * * * * * * //

dimensions      [0 1 -1 0 0 0 0];

internalField   nonuniform List<vector> 
117990
(
(1.01562 -0.0180364 -2.62173e-21)
(0.999995 -7.39214e-07 -6.89982e-24)
(0.994028 -0.00518693 2.88815e-21)
(0.998507 -0.00165032 -4.98497e-22)
(1.00082 -0.0017466 8.43916e-23)
(0.999616 -0.000603569 1.68164e-22)
(0.998901 0.029856 -5.60087e-20)
(1.02981 -0.0346851 1.00471e-22)
(0.999881 -0.000189973 -9.48558e-24)
(0.999993 1.07345e-06 1.46122e-24)
(0.999902 -9.1064e-06 5.86756e-23)
(1.00006 -5.28891e-05 2.19882e-23)
(0.99943 -0.00194643 -1.59821e-22)
(0.960784 -0.00280067 -1.443e-20)
(0.999874 -0.000197322 8.61079e-23)
(0.966252 -0.012806 -3.02687e-20)
(0.999951 -0.000139633 4.97386e-23)
(0.999841 -0.000103032 -9.55889e-23)
(0.99266 0.0269406 6.27057e-20)
(1.00082 -0.00173241 3.66477e-22)
(1.03255 -0.0341748 -1.88425e-21)
(0.997599 -7.56187e-05 -2.56107e-22)
(0.999815 -0.000140239 -9.2912e-23)
(0.997709 -0.00233941 -3.2539e-22)
(0.976466 0.00713272 5.32951e-20)
(1.03697 0.0194803 4.13433e-20)
(1.07954 0.0603553 -1.85444e-20)
(1.00706 -0.00165678 8.81881e-21)
(0.999996 -2.60054e-05 9.7105e-24)
(0.993752 0.0481753 -8.23606e-20)
(0.999936 -2.15832e-05 3.86614e-23)
(1.01702 0.00585156 7.2206e-21)
(1.00297 -0.00439638 -2.93101e-22)
(0.993786 -0.00271286 -2.78329e-21)
(0.972984 0.0187547 2.48254e-20)
(0.999182 -0.00048979 1.06063e-21)
(0.999503 0.0335386 9.94604e-21)
(0.999955 -0.00014336 -2.16656e-23)
(1.13311 0.00658345 -9.80424e-22)
(1.00649 0.0201463 9.39775e-20)
(1.01764 0.00595343 -1.39616e-20)
(0.999836 -0.000107638 -1.79616e-23)
(0.992669 -0.00969474 -5.45598e-21)
(0.99918 -0.000468726 -7.4799e-22)
(0.985799 -0.0278881 -8.93426e-22)
(0.961029 -0.00250316 1.48743e-20)
(1.00254 -0.00563502 1.9608e-21)
(1.00235 -0.000379724 8.14904e-22)
(1.00007 -0.0027937 -1.16036e-23)
(1.00006 -4.34169e-06 -1.06427e-22)
(1 1.42654e-06 -3.04776e-25)
(0.998513 -7.02968e-05 8.36628e-22)
(1.01346 0.00379374 2.17831e-20)
(0.999996 1.82083e-06 -1.10013e-24)
(0.999255 -0.00341357 6.16865e-22)
(1.01312 0.00400409 -5.56408e-21)
(1.0116 -0.000193367 1.54353e-20)
(0.982484 -0.019552 -3.46878e-21)
(1.06451 0.0443591 3.34645e-20)
(0.995511 -0.00631926 5.84485e-21)
(0.999964 -8.3974e-05 -2.02252e-23)
(0.997671 -0.00247054 2.81143e-22)
(0.999671 -2.06756e-05 -1.66842e-22)
(0.991981 -0.00460025 8.12861e-22)
(0.999976 -2.43671e-05 -3.41924e-23)
(1.00039 -5.40462e-05 -3.89389e-23)
(0.999526 -0.00177706 6.92279e-22)
(1.01452 -0.00101485 1.4668e-20)
(1.07515 0.0728199 4.76384e-20)
(1.01141 0.000440696 6.47997e-21)
(1.0113 0.037553 3.14532e-20)
(1.05114 0.0569082 -4.27819e-20)
(1.00619 0.0199744 4.14631e-20)
(0.979675 -0.00183126 -2.43657e-21)
(1.01239 -0.024634 -3.79173e-22)
(0.987002 -0.00452953 -1.21445e-21)
(1.05999 0.0110325 -1.02011e-20)
(0.999679 -0.00101434 -2.78045e-22)
(0.99776 0.0197498 -1.95437e-20)
(1.04212 0.00941272 1.87953e-21)
(1.04218 0.0101311 7.44562e-21)
(0.999975 1.25514e-06 1.05153e-24)
(0.994902 -0.0628775 1.1802e-20)
(1.00714 -0.000702946 -3.93488e-21)
(0.998524 -0.00043274 5.09646e-22)
(1.00006 -5.18031e-05 2.17789e-23)
(0.991999 -0.00727163 -3.68201e-21)
(0.999996 -9.32989e-06 -8.06283e-25)
(0.98565 -0.00484315 -6.96797e-23)
(0.999996 -1.23982e-05 2.68524e-24)
(1.10757 0.0249354 -2.62229e-21)
(0.995124 -0.00263786 1.68512e-21)
(0.99999 -1.89383e-05 -1.23945e-23)
(0.999395 -0.000465841 7.77552e-22)
(0.999792 -0.000133947 -1.55596e-22)
(1.00014 -1.96528e-05 4.12202e-23)
(0.999849 -7.76946e-06 -3.01189e-23)
(0.995207 -0.0623488 9.78948e-22)
(1.08256 -0.0106791 -1.52354e-21)
(0.98573 -0.00469424 -2.08414e-21)
(0.999963 -8.59524e-05 2.18743e-23)
(1.00884 -0.00285563 -9.15268e-21)
(1.00118 -0.00520556 -5.37443e-22)
(1.00114 -3.48691e-05 -3.97763e-24)
(1.01119 0.037111 2.02998e-20)
(1.00995 -0.038556 5.56304e-21)
(1.00347 0.017828 -2.65224e-20)
(0.992888 -0.0380043 9.12432e-21)
(0.998152 -0.0126616 7.36593e-22)
(0.999995 -2.24454e-05 -4.8454e-24)
(1.04642 0.0158871 -1.90997e-20)
(0.99985 -1.31583e-05 1.20225e-23)
(1.05999 0.0119962 6.47502e-21)
(0.998559 -0.00890848 -3.29556e-21)
(0.950335 0.014279 -1.23053e-20)
(0.99986 -0.00507516 -1.0111e-21)
(0.999902 -7.19599e-06 -1.08612e-22)
(1.01551 0.0393455 -3.97806e-20)
(1 -7.02365e-06 2.05547e-24)
(1.05175 0.0561999 2.94546e-20)
(1.01514 0.039913 5.86548e-20)
(0.965853 -0.0131188 1.26647e-20)
(0.994217 -0.00541488 2.45073e-21)
(1.06118 0.0308905 1.99425e-20)
(0.999996 2.68127e-07 -1.822e-24)
(0.993968 0.0478179 9.24439e-20)
(0.997706 -0.00256514 -2.99062e-22)
(0.96797 0.038235 -4.07491e-20)
(0.999255 -4.04557e-05 1.52067e-23)
(1.01104 -0.000222159 -1.07251e-20)
(1.02314 -0.0204586 -3.7896e-22)
(1.00009 -1.54226e-05 3.4035e-23)
(1.02039 0.0461527 -2.77491e-20)
(1.00006 -4.77263e-05 -6.5742e-23)
(1.00001 -6.58751e-06 1.0279e-24)
(0.991202 0.0312851 1.04789e-19)
(0.977858 0.018093 -1.48547e-20)
(1.00298 -0.00449195 -3.41461e-22)
(0.999301 -0.00346303 -8.77763e-22)
(0.997687 -0.00243372 2.78336e-21)
(1.01899 0.0715437 3.64211e-20)
(1.00018 -0.00485961 -3.30508e-22)
(1.00002 7.23408e-07 -3.80658e-23)
(1.01532 0.00706084 2.85362e-21)
(1.023 -0.0197507 6.21676e-21)
(0.999995 5.33886e-07 3.21109e-25)
(1.00502 -0.00593832 -4.93681e-24)
(0.997663 -0.00259633 -9.24776e-22)
(1.0142 -0.000794562 -2.24551e-20)
(1.00035 -0.000872422 -2.76616e-22)
(1.00928 -0.0382604 -4.26715e-21)
(0.98548 -0.0279394 6.98084e-21)
(0.995156 -0.0025601 1.07791e-21)
(0.999992 1.68049e-07 6.19473e-25)
(0.998538 -5.74991e-05 4.92526e-22)
(1.00364 -0.00382401 2.07013e-21)
(0.999996 -2.25803e-05 6.11922e-24)
(1.0443 0.000888865 2.233e-20)
(0.987671 -0.00032366 -1.23896e-22)
(1.0143 -0.0541916 -3.60476e-21)
(0.987168 -0.00465544 6.62922e-21)
(1.00499 -0.00573058 2.44362e-21)
(0.999678 -1.36961e-05 -1.22988e-22)
(1.00258 -0.0282273 6.09126e-22)
(0.997421 -0.00756707 -1.74874e-21)
(0.999608 -0.000227368 -5.08196e-22)
(1.0118 -0.00494933 4.89084e-21)
(0.996048 -0.0154996 -4.1333e-22)
(1.04511 0.00102182 -3.33216e-20)
(0.996991 -0.00764734 2.15045e-21)
(0.995977 -0.00670811 4.14362e-21)
(1.00253 -0.00545452 -1.09981e-21)
(1.11444 0.0270075 -1.35995e-20)
(0.96267 -0.0104539 -2.26444e-20)
(1.00132 -0.0242568 4.06283e-22)
(1.01237 -0.00101563 -5.77744e-22)
(0.962726 -0.00986115 4.93655e-21)
(0.999072 -0.00116435 5.77171e-22)
(1.00362 -0.00651755 4.94197e-21)
(1.00005 -0.00274123 -4.79291e-23)
(1.00612 -0.00423273 6.42336e-22)
(1.01256 -0.024348 -2.25972e-22)
(0.990738 0.0277676 -2.87085e-20)
(1.01401 0.00668346 1.24238e-20)
(1.00329 0.0182318 6.217e-20)
(0.999845 -0.000355498 -1.13518e-23)
(0.998346 -0.00136572 6.31508e-22)
(1.00018 0.00233672 -1.34268e-20)
(1.0126 -0.00896346 1.17196e-20)
(1.10749 0.0234346 1.25655e-20)
(0.999091 -0.00117623 1.75673e-22)
(1.00015 -0.00461342 2.38106e-22)
(0.99572 0.0152896 -3.7901e-20)
(0.989925 -0.00957868 1.12028e-20)
(1.03634 0.0192039 -5.41025e-20)
(1.00438 -0.0485291 -4.88647e-21)
(0.962396 -0.00961579 -1.46901e-21)
(0.995486 -0.0001223 -3.00845e-21)
(0.988313 -0.00796374 -8.54808e-21)
(1.00415 -0.0168911 -7.76055e-22)
(1.01094 0.00514219 1.62143e-20)
(0.998484 0.0222439 3.37175e-20)
(1.00689 -0.00442226 1.87963e-21)
(0.999992 -3.19289e-06 -5.02659e-24)
(0.998353 -0.00115508 5.03264e-23)
(0.985041 -0.00899311 -4.78425e-21)
(0.999702 -0.000390418 -2.55522e-22)
(0.999975 -2.40981e-05 2.63899e-23)
(1.01166 -0.00225968 -2.77708e-21)
(1.01188 -0.0291496 5.78904e-21)
(0.962425 -0.00901341 1.24351e-20)
(1.00389 0.0199448 -1.63819e-20)
(0.977143 0.00743442 -3.87706e-20)
(0.999997 -1.15045e-05 3.31056e-25)
(1.00069 -0.0129426 -2.84499e-21)
(0.989823 -0.00971855 -5.57649e-21)
(1.03215 -0.00393858 1.04527e-20)
(1.0028 -0.00541258 2.47101e-21)
(0.960814 -0.00194794 8.64301e-21)
(0.999939 -0.000101057 1.05918e-23)
(0.991343 -0.0194049 -2.52798e-22)
(0.99139 -0.009153 4.00896e-22)
(0.99999 -0.00362261 6.34991e-23)
(0.987159 -0.000444369 3.98227e-21)
(0.999997 6.41303e-07 1.60958e-24)
(0.983119 0.0253722 4.20653e-20)
(1.00265 -0.00826128 -8.9547e-22)
(0.987611 -0.00690768 -9.01944e-21)
(1.0045 -0.047801 -2.68684e-21)
(0.986814 0.0112226 2.09709e-20)
(1.00844 -0.00205621 -8.95034e-22)
(0.986806 -0.0213384 1.20863e-21)
(1.01805 0.0687248 -2.89971e-20)
(0.993484 -0.0150701 -4.48558e-21)
(1.02463 -0.0209156 -2.85257e-21)
(1.01098 0.00533425 2.45966e-20)
(1.00017 -1.21633e-05 4.46317e-23)
(1.00049 -0.00412224 1.75467e-22)
(0.994702 -0.0163886 1.55739e-21)
(0.99849 -0.000100058 -1.10168e-21)
(1.09501 0.0173518 -2.83403e-20)
(1.01015 -0.0167501 1.37492e-22)
(1.01487 -0.0547729 4.65624e-21)
(1.0838 -0.011413 9.78493e-21)
(0.999216 -4.6945e-05 -7.55089e-22)
(1.00032 -0.00102021 -3.57307e-23)
(1.01686 0.00211645 1.86101e-20)
(0.986148 -0.00112379 -8.06503e-21)
(0.99625 -0.0155299 -1.32107e-22)
(0.97113 -0.0215572 -6.49112e-21)
(0.998877 0.0132153 -1.99664e-20)
(0.99943 -0.000596181 -5.71026e-23)
(1.00956 0.000974998 -7.46121e-20)
(0.999985 -0.00121116 -6.47325e-24)
(0.967482 0.0358589 -7.05899e-20)
(1.0062 -0.00435701 -4.00775e-21)
(1.06645 0.0165263 -2.84262e-20)
(1.00748 -0.000145995 3.68564e-21)
(1.0001 -2.21749e-06 2.28555e-22)
(1.03034 -0.0354521 5.11565e-23)
(1.006 -0.00364179 -9.61107e-21)
(0.96108 -0.00163804 -5.39566e-21)
(1.01462 0.0068485 -1.76809e-20)
(1.13638 -0.00334719 2.65606e-21)
(0.99806 -0.0128697 6.13103e-22)
(0.998546 -0.00165744 1.72244e-21)
(1.06059 0.0302996 3.15267e-20)
(0.999246 -0.000113004 8.21394e-22)
(1.05458 0.0152996 -1.13701e-20)
(1.0635 0.00731625 2.32457e-21)
(0.999977 -1.31436e-05 -5.05631e-25)
(1.01269 -0.00868021 -2.93845e-21)
(1.00012 -0.00264585 -3.48445e-23)
(1.01038 -0.0170045 -1.27755e-21)
(0.999498 -0.00148807 -6.39925e-22)
(0.991568 -0.0073481 -1.82953e-21)
(0.986085 -0.0261251 7.22013e-21)
(1.00165 -0.0241476 2.50764e-22)
(0.999206 -0.00451776 9.9795e-22)
(0.993331 -0.0379052 -7.29669e-21)
(1.00288 -0.0284293 -1.34683e-21)
(0.999231 -3.14429e-05 -5.76873e-22)
(1.00001 -0.000667807 5.54084e-24)
(0.98521 -0.00880396 2.59641e-21)
(1.00001 -0.000317054 7.14536e-24)
(1.00453 -0.00293366 5.92461e-21)
(0.983798 0.0248434 2.34318e-20)
(1.0105 0.000174252 -3.72775e-20)
(0.996998 -0.0647068 -7.13074e-21)
(1.12828 0.00585943 -1.42543e-21)
(0.985763 -0.0260078 1.60796e-21)
(0.999997 -6.73468e-06 -3.64415e-24)
(1.06873 0.041294 2.35942e-20)
(1.00339 0.0196956 -1.57354e-20)
(0.999951 -0.00019633 1.56347e-23)
(1.00745 -0.00353999 -5.36627e-21)
(0.999422 -0.000676643 -4.79242e-22)
(1.01793 0.00515536 1.11074e-20)
(1.00007 -0.00187883 -3.06718e-23)
(1.0646 0.00819388 6.02149e-21)
(0.961877 -0.00735311 -6.61154e-21)
(0.998314 -0.0222879 1.45296e-21)
(1.1082 0.0531379 8.49018e-21)
(0.997449 -0.00338845 -1.73713e-21)
(0.991702 -0.0242408 -1.07564e-21)
(1.03638 0.00678364 6.94763e-21)
(1.01342 -0.0206437 -8.13914e-23)
(0.987682 -0.00677676 6.11203e-21)
(1.1241 -0.0569581 -5.42286e-22)
(1.00368 -0.00652303 -2.66005e-23)
(0.998822 -0.000789276 -5.62409e-22)
(1.01414 0.0506053 5.16854e-20)
(1.01637 0.0592316 3.97363e-20)
(0.994889 -0.0164305 -4.3575e-21)
(0.999379 -0.00195704 8.12952e-22)
(1.00122 -0.00496487 1.74308e-22)
(0.994909 0.015582 -6.00299e-20)
(1.00029 -0.00100887 2.07184e-22)
(0.997759 -0.00236726 1.44615e-21)
(1.07165 0.038094 -5.89069e-21)
(1.03535 -0.0105158 3.10849e-21)
(0.999938 -0.000100277 -8.01189e-23)
(1.0069 -0.00464833 -1.4681e-21)
(0.951125 0.0136721 2.12044e-20)
(1.03637 0.0110498 -2.86871e-20)
(0.98752 -0.00272759 -9.83234e-21)
(1.00372 -0.00381701 -3.05324e-21)
(1.01724 0.00396932 1.35582e-20)
(0.961529 -0.00707221 1.282e-20)
(1.06828 0.0423307 -3.64042e-20)
(0.998828 -0.000826667 3.98884e-22)
(0.999995 -8.5318e-06 6.89898e-24)
(0.99985 -0.000383153 1.82113e-22)
(0.999423 -0.000674674 7.35255e-22)
(0.958223 0.00419056 1.33933e-20)
(0.998659 -0.00192224 -1.21395e-21)
(1.04571 0.00439177 1.37891e-20)
(0.999986 -1.92616e-05 1.90986e-24)
(0.999615 -0.000571269 -2.29993e-23)
(0.998345 -0.00134227 -7.91558e-22)
(0.994748 -0.00566412 -2.30542e-21)
(1.0261 0.00358299 -4.73073e-20)
(1.08077 0.06103 7.84918e-21)
(0.992181 -0.00429149 7.96789e-21)
(0.996411 -0.0042729 8.95075e-22)
(1.00071 -0.00134038 -1.18013e-22)
(0.999152 -0.00463048 -6.03321e-22)
(0.96487 0.0368205 -1.1466e-21)
(0.986503 -0.0126093 1.54841e-20)
(0.999479 -0.00437177 2.53777e-22)
(1.02 0.0454254 1.45164e-20)
(1.00765 0.0082675 -2.11294e-20)
(1.00587 -0.00353983 8.67371e-21)
(0.998845 -0.00128699 1.02087e-21)
(1.00391 -0.0170848 -1.06156e-22)
(1.00285 -0.00951502 1.179e-22)
(1.01527 -0.0177595 4.11693e-21)
(1 -2.40383e-07 2.74626e-26)
(0.999742 -0.000636352 5.21054e-22)
(1.01603 -0.0124431 -4.68581e-21)
(1.02513 0.0242029 3.51853e-20)
(0.991961 -0.0276467 2.1448e-21)
(0.998956 0.0330736 1.86343e-20)
(0.95689 0.0083293 -1.56174e-20)
(1.05616 0.00423115 -2.00263e-20)
(1 -1.73429e-06 2.087e-25)
(0.993956 -0.000153121 -4.85716e-21)
(0.993646 -0.0101525 2.8487e-21)
(1.00006 -0.00364834 9.15329e-23)
(1 -1.39396e-06 -1.19247e-26)
(1.05393 -0.0381408 9.87699e-22)
(1.03988 0.0752865 -3.14562e-20)
(0.986324 -0.00109897 -8.00135e-21)
(0.999773 -8.11116e-06 -1.74627e-22)
(1.05319 0.0186438 -1.8351e-20)
(1.00178 -0.00253207 2.57154e-22)
(1.00114 -0.00508528 -2.99657e-22)
(1.00005 -3.66478e-07 9.42942e-23)
(0.999461 -0.000663574 -4.17229e-22)
(1.01777 -0.0123485 -8.02436e-22)
(0.986569 -0.0211595 8.82091e-21)
(0.998884 -0.0128163 -1.16613e-21)
(0.998294 -0.008697 -5.24941e-21)
(1.01634 -0.0125136 -5.61039e-21)
(1.0045 -0.00299624 -3.09911e-21)
(0.999959 -1.17365e-06 -5.4428e-23)
(1.01855 0.0678943 5.75337e-20)
(0.969329 -0.0199452 1.43683e-21)
(1.00087 -0.00165952 -3.91987e-22)
(1.02283 -0.0309709 -1.80045e-23)
(1.01683 0.00485578 -4.87247e-20)
(1.00768 0.0159879 -5.05866e-20)
(0.991855 -0.00725902 2.75742e-21)
(1.00729 -0.00149421 4.72978e-21)
(0.99149 -0.00911174 3.67851e-22)
(0.99924 -0.000877585 -1.0214e-21)
(1.12194 -0.0577334 4.5365e-22)
(1.00023 -0.000476245 2.6417e-22)
(1.00012 -0.00259293 8.43452e-23)
(0.991941 -0.00527972 8.66445e-21)
(0.987389 -0.00979079 4.21755e-21)
(0.999191 -0.000943292 1.12558e-21)
(0.998112 0.0554134 -2.58612e-20)
(1.00685 0.0192292 3.78648e-21)
(1.13057 -0.0283875 -1.31197e-21)
(1.04513 -0.0140355 -1.14067e-20)
(1.00001 -6.96979e-06 -1.96882e-24)
(0.998007 -0.00496053 5.16664e-22)
(1.03151 -0.00572096 4.28263e-21)
(0.997087 -0.00012176 7.2217e-22)
(0.999124 -0.00993189 -2.25419e-21)
(0.998802 -0.000780103 1.40859e-22)
(1.00073 -0.00130171 -3.49477e-22)
(0.998635 -0.00165796 -1.21098e-21)
(0.998504 -0.000425724 -4.10974e-22)
(0.999241 -0.00444184 -3.26043e-22)
(1.00015 -0.00260565 -1.14362e-23)
(1.05417 -0.0680264 9.98875e-22)
(1.00001 -1.21901e-05 2.06776e-23)
(1.00441 -0.00279671 -5.1616e-22)
(0.999995 2.4071e-06 -1.68807e-25)
(0.962096 -0.00878232 -1.71637e-20)
(1.00009 -7.77321e-05 5.6768e-23)
(0.996088 0.0394419 4.86007e-20)
(1.01616 0.0585387 -2.05438e-20)
(1.01265 0.0142275 -1.92498e-20)
(1.04423 -0.0140243 7.58576e-21)
(1.00921 0.0144015 -1.89227e-21)
(1.01209 0.000295774 2.19655e-20)
(0.999308 -0.00154136 1.29546e-22)
(1.00073 -0.00065165 -4.17208e-22)
(0.999905 -0.000260514 1.18645e-24)
(0.998097 -0.000984061 9.02274e-22)
(0.987922 -0.0068258 3.61597e-21)
(0.997476 -0.0033317 -6.90058e-22)
(0.997922 -0.00493983 1.38587e-21)
(1.01608 -0.0169224 -1.62933e-21)
(1.00009 -7.47031e-05 -6.88172e-23)
(0.999941 -3.35243e-05 -1.60968e-23)
(1.00005 -4.6169e-05 -4.82764e-23)
(0.999673 -0.00103726 2.94618e-22)
(1.01077 1.43909e-05 1.01417e-20)
(1.01477 -0.0174926 3.27882e-21)
(0.991796 -0.00525368 -9.45143e-21)
(1 -0.00029744 -1.4442e-23)
(1.05785 -0.033212 -4.85435e-21)
(1.00032 -0.000971129 6.39749e-22)
(0.999942 -3.57895e-05 -6.31986e-23)
(1.00817 0.0161646 7.25043e-20)
(1.01279 -0.00152425 1.84276e-21)
(1.00274 0.0191433 1.09541e-19)
(1.00002 -1.30913e-05 -1.90786e-23)
(1.00003 -0.000235401 0)
(1.00074 -0.000747453 6.27392e-22)
(0.996381 -0.0158371 2.04226e-21)
(0.997865 -0.00288553 -7.16509e-22)
(1.02974 -0.0466433 -1.73347e-21)
(0.986301 -0.000458047 5.32032e-21)
(1.02309 0.0164468 4.18931e-20)
(0.996532 -8.09497e-05 6.49795e-21)
(0.99868 0.0556428 -1.31604e-20)
(1.00034 -0.000955092 -4.66123e-22)
(1.00085 -0.00157467 4.63169e-22)
(1.00029 0.0204776 -2.70027e-20)
(1.01483 0.0502119 -2.09637e-20)
(1.03312 -0.0347866 7.88311e-22)
(1.00112 -0.00101685 1.12984e-22)
(0.963 -0.0106923 2.4989e-20)
(0.996509 -0.000102661 -3.67299e-21)
(1.00002 -1.28669e-05 8.29121e-24)
(1.00441 -0.00282742 6.18652e-22)
(0.969907 -0.0205049 -3.6346e-21)
(0.994393 -0.0160055 -3.5838e-22)
(0.97947 -0.00182093 4.38622e-21)
(1.01628 -0.0175042 -3.66884e-22)
(1.03609 0.0105272 4.70276e-20)
(0.999995 -7.10364e-08 -4.10876e-25)
(1.0011 -0.000957402 -2.27964e-22)
(1.00909 -0.00328448 6.62761e-21)
(1.01737 -0.00595011 -1.00876e-20)
(0.99274 0.0418933 -2.47475e-20)
(0.999998 1.17811e-06 2.8451e-26)
(0.999989 -2.47376e-05 7.85277e-25)
(1.00077 -7.59661e-05 -1.0814e-21)
(0.994378 -0.0157845 -4.24631e-21)
(0.999753 -0.000391086 2.24667e-22)
(0.99995 -0.000209977 6.16317e-23)
(1.04746 0.00206055 -1.73003e-20)
(0.969675 0.00431392 -5.43522e-20)
(1.06457 0.00934221 -2.75654e-21)
(1.00201 0.0188363 -2.83495e-20)
(0.991365 -0.00166685 2.1896e-21)
(0.998066 0.010589 1.27944e-20)
(1.00978 0.00376023 2.5235e-20)
(0.998639 -0.00169475 4.79115e-22)
(1.05276 -0.0389676 -9.08491e-22)
(0.969084 -0.012098 2.10962e-20)
(0.99867 -0.00878613 2.31828e-21)
(1.00045 -0.0040331 -5.91018e-23)
(0.998656 -0.00308459 8.41434e-22)
(0.999388 -0.000445193 2.33056e-22)
(0.998143 0.0178258 -1.11124e-19)
(0.99373 -0.0149364 -6.52996e-21)
(1.00025 0.039996 2.48062e-20)
(1.01377 -0.0207293 -9.85712e-22)
(1.0127 0.0140569 1.07438e-20)
(0.991737 -0.00439323 3.62952e-21)
(0.994889 -0.00569481 -5.91759e-21)
(1.09637 0.0183392 -2.09735e-21)
(1.00978 0.00547534 2.61522e-20)
(0.998897 -0.00128849 -1.14019e-21)
(1 -0.00116264 -4.02439e-24)
(0.999953 -0.00119625 2.91946e-23)
(0.999995 -3.69911e-06 -1.24043e-23)
(1.014 -0.0175178 -4.90284e-21)
(0.98817 -0.0313511 -8.82501e-21)
(1.0001 -0.000201966 -8.23496e-23)
(1.02933 -0.0073622 -1.07162e-21)
(0.999874 -0.000307209 3.00387e-23)
(0.999871 -0.000318158 -1.95986e-22)
(1.00086 -8.21656e-05 -8.60304e-23)
(1.01408 -0.0201898 6.8752e-22)
(1.00028 -3.3551e-05 -1.81886e-22)
(1.00055 -0.00335856 2.28201e-24)
(0.990027 -0.00189975 4.95095e-21)
(0.998357 -0.00246061 5.92926e-22)
(0.998097 -0.00102599 -3.11191e-21)
(0.994339 0.0200417 -1.4799e-19)
(1.05815 -0.0129763 2.48415e-20)
(1.00422 -0.00570649 2.96136e-21)
(0.995989 -0.00683622 3.10252e-21)
(0.988545 -0.0190629 -1.15945e-21)
(1.00015 -0.00253081 -2.58892e-24)
(1.00001 -1.25998e-05 -5.8903e-24)
(0.999997 -1.54981e-06 2.18358e-26)
(0.981924 -0.003851 8.39623e-22)
(0.969235 -0.0118116 -2.18822e-20)
(0.987904 -0.0132466 -2.67817e-22)
(1.00001 -1.07404e-05 -1.58981e-23)
(0.993776 -0.00280961 5.23467e-21)
(1.02561 0.00369525 4.29029e-20)
(1.0763 0.0736738 -6.01996e-20)
(1.05645 0.00343325 -1.42129e-20)
(0.99998 -1.55756e-06 -1.07002e-23)
(0.988001 -0.00671642 1.19461e-20)
(1.00358 -0.0162271 1.29007e-21)
(1.00004 -5.26952e-06 -5.14318e-24)
(0.999976 -0.000107258 1.53773e-23)
(0.986394 -0.00032185 -1.00331e-21)
(1.00074 -4.43125e-05 -3.58121e-22)
(1.00027 -0.00221342 -3.86092e-23)
(1.01847 -0.0441856 -1.10105e-21)
(1.00017 -1.80896e-05 -1.341e-22)
(0.979312 -0.0262927 1.35616e-20)
(0.989966 -0.0019939 -4.895e-21)
(0.991399 -0.00173856 3.9155e-21)
(0.992295 -0.00434878 1.29888e-21)
(1.00064 -0.00337377 -2.26387e-22)
(0.983561 -0.0140649 1.44799e-20)
(1.00012 -0.000189539 1.05965e-22)
(1.00001 -5.91844e-06 -8.2286e-25)
(1.00196 -0.00203583 7.99389e-22)
(1.00859 0.0480393 -2.10152e-20)
(0.988014 0.0106611 1.03479e-19)
(1.00517 0.0144683 2.5257e-20)
(1.01471 -0.0178337 -1.0693e-21)
(0.995685 -0.00581553 -1.1446e-21)
(1.00378 0.0152494 1.31854e-19)
(1.00596 -0.00382794 -1.18605e-20)
(1.00008 -0.000168971 -7.30541e-23)
(1.00997 -8.00742e-05 -8.10747e-21)
(0.994157 -0.00549408 1.39778e-21)
(1.0557 0.015248 -2.26784e-20)
(0.99867 -0.00304619 1.06785e-21)
(1.01146 0.000616266 -2.48947e-20)
(1.00039 -4.84847e-05 3.51322e-22)
(1.00508 0.0138641 1.71957e-20)
(1.00022 -2.72821e-05 -2.16258e-22)
(0.997928 -0.00308434 4.05922e-22)
(0.991828 -0.00441729 -9.66024e-22)
(1.00464 0.0195582 1.65085e-20)
(1.0001 -8.5049e-06 -2.03538e-22)
(0.994979 -0.0167426 5.87133e-21)
(1.02938 -0.045892 2.99682e-21)
(1.02382 0.016341 -3.33853e-20)
(0.999776 -0.0195139 -3.06479e-21)
(0.997872 -0.00282616 1.04424e-21)
(1.07885 -0.00574708 -5.38583e-21)
(1.00001 -3.96077e-07 -1.52721e-23)
(1.12961 -0.0268619 5.70638e-22)
(0.998275 -0.00252728 6.33863e-22)
(1.0078 -0.00400829 -8.37093e-21)
(0.996568 -0.0158487 1.83132e-21)
(1.00114 -2.18794e-05 -1.33552e-21)
(1.04064 0.0741952 -7.79335e-20)
(1.00675 0.0197505 -3.81175e-20)
(0.985176 0.0197884 5.09092e-20)
(1.00895 0.0144249 5.56309e-21)
(1.02042 0.0330446 2.36749e-20)
(1.06369 0.00595159 -1.7501e-20)
(1.01927 0.0724652 -6.05951e-22)
(1.00602 -0.00385752 1.32191e-20)
(1.0112 0.0292039 2.26822e-20)
(1.00226 0.0191545 -8.47793e-20)
(1.00019 -0.00221363 -2.46999e-23)
(0.999453 -0.00141211 -3.44551e-22)
(0.989459 0.010024 -1.11674e-19)
(1.00001 -8.8711e-06 -3.6482e-24)
(1.13522 -0.00180547 -3.22092e-21)
(1.07114 0.0754552 -2.21524e-20)
(0.992488 -0.00730262 5.73347e-21)
(1.00042 -0.000903535 -4.19175e-23)
(1.01689 -0.0061009 -3.37528e-21)
(0.999417 -0.00064019 -3.78839e-22)
(1.00073 -0.000706305 -1.43406e-23)
(0.993451 0.027088 -2.81404e-20)
(0.973869 0.0192635 4.43195e-20)
(0.999941 -1.69599e-07 -3.50801e-24)
(1.00013 -0.000188496 -1.05502e-22)
(1.0354 -0.00863003 -3.79953e-21)
(1.00004 -0.00110403 7.60037e-24)
(1.10854 0.0544882 -2.02843e-20)
(1.01477 0.0493133 -3.44071e-20)
(1.01786 0.0136353 6.29444e-21)
(0.999978 -0.000107976 -4.69193e-23)
(0.999385 -0.0277989 1.47955e-21)
(0.999414 -0.022951 7.30719e-21)
(1.00023 -1.37813e-05 1.40372e-22)
(1.00809 -0.0129942 2.0155e-21)
(1.01715 0.00227685 9.99544e-21)
(0.975691 0.0185589 -2.84536e-20)
(1.00003 -0.00114863 1.88947e-24)
(0.999994 7.82111e-07 6.5444e-26)
(1.0112 0.0291403 1.66693e-20)
(1.00773 -0.0129552 3.37635e-21)
(0.999942 2.31931e-06 -7.72604e-23)
(1.01375 -0.00497585 -2.07381e-21)
(1.00306 -0.0049626 -5.07093e-22)
(0.998657 -0.00182366 -1.0304e-22)
(0.999057 -2.87907e-05 3.36507e-22)
(1.13127 0.0145761 -3.34478e-21)
(0.992996 -0.00262698 2.16757e-21)
(0.999428 -0.000622758 2.60677e-23)
(0.987554 -0.0097807 9.14207e-23)
(1.00013 -0.000188058 1.53114e-22)
(0.999949 -3.98322e-05 4.40795e-23)
(0.999909 -0.00512258 5.51483e-22)
(1.06169 0.0193595 -3.97503e-21)
(0.999905 -2.50812e-05 3.57483e-23)
(0.990042 -0.00211507 -5.85587e-21)
(1.0003 -0.000419013 3.7504e-23)
(0.999893 -0.0191417 -1.29681e-21)
(1.00413 0.0199493 -2.16533e-20)
(0.999949 -0.000193727 -3.52428e-23)
(0.952448 0.00652647 -3.51469e-20)
(1.03728 -0.0227001 -5.04221e-21)
(0.997324 0.0106505 1.45218e-20)
(1.06092 0.0183654 1.00997e-20)
(0.999767 -0.000131787 7.32063e-23)
(0.999986 -3.22723e-05 -7.41666e-24)
(0.999818 -0.000138077 -1.46684e-22)
(0.99788 -0.00286469 4.36145e-23)
(1.00855 0.000475482 0)
(0.999834 -0.00420184 4.27279e-22)
(0.993906 -0.000186539 1.16041e-21)
(0.99166 0.0311405 -1.00224e-19)
(0.970078 -0.0133918 -1.84382e-20)
(0.969774 -0.0132884 1.61728e-20)
(1.01751 -0.0118684 3.87799e-21)
(1.02917 -0.00899006 1.63903e-20)
(0.993601 0.0229355 9.42434e-20)
(0.999792 -0.000138179 7.40392e-23)
(0.99516 -0.016763 1.22078e-21)
(0.992329 -0.00729374 -5.48043e-21)
(1.00008 -8.90443e-05 7.95192e-23)
(1.01074 -0.0173593 7.066e-22)
(1.00032 -0.000389941 -1.83401e-23)
(1.01434 -0.0177227 -2.81479e-21)
(0.992473 -0.0352218 1.66442e-21)
(0.964425 0.0224558 -6.0334e-20)
(0.978214 -0.0261166 -1.34486e-20)
(0.999116 -0.00103736 1.68017e-22)
(0.991599 -0.00703918 -9.85997e-21)
(1.00287 -0.00925305 -3.81285e-23)
(1.04139 0.00656386 -3.07161e-20)
(1.01169 0.000614058 -3.76565e-21)
(1.00595 -0.0174693 1.30707e-22)
(1 -9.93271e-08 -1.77393e-24)
(1.00141 0.0186316 3.52526e-20)
(0.994362 -0.00308854 -5.81929e-22)
(0.961609 -0.00640806 1.18332e-20)
(0.999714 -0.00399265 3.4794e-22)
(1.01519 -0.01271 -1.65872e-20)
(0.992943 -0.022282 9.72524e-21)
(1.00197 -0.00205737 3.49418e-22)
(1.09007 0.0507116 -4.12014e-20)
(0.999637 -1.40253e-05 4.89908e-22)
(0.999249 0.0297966 5.59637e-20)
(1.00001 -0.00753337 -6.29988e-22)
(1.01745 0.0028185 -5.0271e-21)
(0.980158 -0.00379471 1.02494e-20)
(1.00807 -0.00112072 1.31318e-21)
(0.999995 -1.09452e-05 -2.38985e-24)
(0.991485 -0.019208 -6.05661e-22)
(0.989987 -0.00219524 5.60507e-21)
(0.994177 -0.0154361 5.96518e-21)
(1.01408 -0.00527528 -1.53192e-21)
(1.01804 -0.0449226 -1.2021e-21)
(1.00013 -0.000183426 -1.75151e-22)
(1.03327 -0.0852009 -2.97779e-21)
(0.999382 -0.000470769 -9.53656e-22)
(0.999987 -3.39929e-05 -2.01577e-24)
(0.999817 -0.00410657 -4.66767e-22)
(1.00011 -0.000192596 4.27688e-23)
(0.974827 0.0185261 3.88888e-20)
(1.00009 -8.91078e-05 -7.06266e-23)
(0.996429 0.0391909 -1.49316e-20)
(0.991463 -0.00742842 -1.56892e-21)
(1.00764 -0.00108408 -2.4571e-21)
(1.00119 -0.000960065 -1.22407e-21)
(1.02755 0.0134041 4.82255e-20)
(1.00169 -0.00253278 -1.52095e-21)
(1.00748 0.00865111 -1.80908e-20)
(0.999998 -3.80956e-06 1.05869e-26)
(1.01342 -0.02403 6.52347e-23)
(0.99951 -0.00201503 2.92706e-22)
(1.00061 -0.00163872 6.43585e-23)
(0.988829 -0.00795051 -2.50825e-21)
(1.00001 -7.57585e-06 8.40701e-24)
(1.07393 0.036891 -1.98392e-20)
(0.974922 0.0397347 1.65566e-20)
(1.07029 0.0746621 4.81961e-20)
(1.00008 -0.000167103 1.41969e-22)
(1.07413 -0.0245902 2.91437e-21)
(1.00895 0.000557734 -6.07538e-21)
(0.991143 0.0281746 6.88661e-20)
(1.00002 -0.00189169 -4.71205e-24)
(0.999888 1.67999e-07 -2.90404e-23)
(1.03456 -0.00880152 -4.5078e-21)
(1.00007 -5.82927e-05 -4.83149e-23)
(0.986862 0.00951978 -2.29888e-20)
(1.00371 -0.0160843 1.00275e-22)
(1.03897 0.0778515 -8.8639e-22)
(1.02459 0.0240413 -4.68689e-20)
(1.00006 -5.59962e-05 3.8542e-23)
(0.996611 -0.0638974 -6.44324e-21)
(1.00358 0.0110112 -3.89816e-20)
(0.999949 -3.74355e-05 2.25636e-24)
(1.03277 -0.00379472 2.84585e-20)
(0.997586 0.00496599 6.73671e-20)
(0.999054 -3.66228e-05 2.74074e-22)
(1.00112 -0.00528777 4.26445e-22)
(1.00015 -1.80858e-05 1.00785e-22)
(1.00274 -0.00555432 -1.43306e-21)
(0.99187 -0.00455689 4.40578e-22)
(0.997343 -5.98861e-05 4.44668e-22)
(1.00215 0.041877 -3.3527e-20)
(0.998624 -0.00859027 1.54792e-21)
(0.9612 0.031404 1.13646e-19)
(0.945329 0.00300696 1.00845e-19)
(0.998803 -4.11795e-05 -8.04687e-22)
(1.00002 -0.000181258 -4.06349e-24)
(1.00037 0.0396549 -1.3588e-20)
(0.998643 -0.00174232 4.31609e-22)
(0.992834 -0.00179197 1.17808e-21)
(1.00012 -0.000196261 -2.43217e-23)
(1.01797 0.0154253 1.54711e-21)
(0.980313 -0.0037996 -1.46964e-20)
(0.968195 0.0183836 7.16118e-20)
(0.999484 -0.00183827 -4.28566e-22)
(0.999984 -0.00050831 -5.95435e-25)
(0.994389 -0.00317785 1.96391e-21)
(1.08256 0.0699634 -4.84893e-20)
(0.99969 -0.0277953 3.81506e-22)
(1.04835 0.00403264 -5.57908e-21)
(1.02175 -0.0105811 -9.47176e-21)
(1.0102 0.00404509 -2.11095e-20)
(0.999912 -4.62673e-05 -2.44024e-23)
(1.09086 0.0288639 1.25487e-20)
(1 -9.87878e-06 -9.85762e-24)
(1.00066 -0.000559318 7.89322e-22)
(0.999994 -1.03568e-08 8.7463e-25)
(1.12629 -0.0273006 3.72581e-21)
(1.03406 -0.0346689 -9.33613e-22)
(1.00794 0.0155586 3.27367e-21)
(0.999993 -8.50852e-06 1.25153e-24)
(0.985281 0.0192867 -1.34785e-19)
(0.999829 -5.4194e-05 8.78414e-23)
(1.0108 -0.017335 8.69204e-22)
(0.999748 -0.000146414 2.50065e-22)
(0.969437 -0.0203664 7.16648e-22)
(0.996072 -0.00695803 -4.84338e-21)
(1.0345 0.0152308 2.48356e-20)
(0.999944 -4.78964e-06 1.05678e-22)
(1.01177 -0.0286756 -1.84886e-21)
(1.00835 -0.0127724 4.89422e-22)
(0.99564 -0.00632564 -4.28499e-21)
(0.999991 -3.55674e-05 1.16242e-23)
(0.999973 -0.00050356 1.27433e-23)
(0.999909 -6.29233e-06 1.28569e-23)
(0.989581 -0.0231017 -7.48713e-21)
(1.00069 -0.00137365 3.46938e-22)
(0.999529 -0.000279081 -2.29258e-23)
(0.986124 -0.000102859 7.96351e-21)
(1.00004 -9.0183e-05 -4.5081e-25)
(1.00012 -0.000163983 1.42959e-22)
(1.00285 -0.00827164 6.7235e-22)
(0.999766 -0.000127433 4.32286e-23)
(1.00458 0.0145832 -5.89426e-20)
(1.02121 0.000760879 3.45942e-20)
(1.096 0.0635129 -2.94766e-21)
(0.988953 -0.000367453 -1.05635e-21)
(1.01122 -0.0369878 3.56331e-21)
(0.999991 -9.4604e-08 -5.16546e-25)
(1.08029 -0.00520051 6.18007e-21)
(0.992032 -0.035222 -6.64424e-21)
(1.00015 -2.54777e-05 1.50434e-22)
(0.988069 -0.0134624 -3.40675e-21)
(0.999419 -0.00190541 -3.27975e-22)
(0.984715 -0.00971657 4.39047e-21)
(1.09304 -0.0430202 4.44103e-22)
(1.00021 -1.86601e-05 -1.60542e-22)
(1.01443 -0.0203322 -2.38024e-21)
(0.999987 -3.11991e-05 8.32415e-24)
(0.997868 -0.00265981 -6.69141e-22)
(0.999835 -5.77384e-05 8.19843e-24)
(1.01169 0.0256675 -3.04783e-21)
(0.996741 -0.000825293 -2.13438e-21)
(1.00005 -0.000105184 -1.59396e-24)
(0.999936 -4.3385e-05 3.90046e-23)
(1.00964 -0.00413906 8.26809e-21)
(0.982355 -0.0198478 1.26524e-21)
(0.998658 -0.00175653 -6.89575e-22)
(0.999998 -0.00052904 5.93163e-24)
(1.00171 0.0422125 -4.17627e-21)
(0.999272 0.0223183 2.08617e-20)
(1.00067 -0.00166413 2.17354e-22)
(1.04498 0.063758 -1.12936e-21)
(1.06795 -0.0359586 -3.77633e-21)
(0.971244 -0.0219279 5.97463e-21)
(1.00002 -0.000178111 1.59526e-23)
(0.999998 -2.4459e-07 2.02479e-24)
(1.00909 0.0475522 2.70559e-20)
(0.984925 -0.00825063 1.31426e-21)
(1.00004 -8.95445e-05 -1.96883e-23)
(1.05693 0.0501545 3.37634e-20)
(0.999615 -0.000227604 3.08871e-22)
(0.999995 -2.30321e-06 5.82889e-24)
(1.03017 0.0040781 4.07249e-21)
(0.99827 -0.0447251 -2.27486e-21)
(0.978538 -0.0259842 1.73939e-20)
(0.967923 -0.0200234 2.62124e-21)
(0.995858 -0.0147957 -4.33205e-21)
(0.997209 -8.41058e-05 7.85083e-22)
(0.992925 -0.00186116 -9.29579e-21)