/*--------------------------------*- C++ -*----------------------------------*\
  =========                 |
  \\      /  F ield         | OpenFOAM: The Open Source CFD Toolbox
   \\    /   O peration     | Website:  https://openfoam.org
    \\  /    A nd           | Version:  7
     \\/     M anipulation  |
\*---------------------------------------------------------------------------*/
FoamFile
{
    version     2.0;
    format      ascii;
    class       surfaceScalarField;
    location    "29";
    object      phi;
}
// * * * * * * * * * * * * * * * * * * * * * * * * * * * * * * * * * * * * * //

dimensions      [0 3 -1 0 0 0 0];

internalField   nonuniform List<scalar> 
43924
(
-594.911
667.03
-72.1186
1064
-1072.45
8.45873
-334.912
382.167
-47.2549
226.716
-258.868
32.1518
-498.449
498.449
220.825
-263.797
42.9725
-372.07
366.033
6.03724
26.8832
-563.925
537.042
663.738
-833.565
169.827
-1009.3
1102.27
-92.9682
555.489
-145.22
-410.269
-531.635
536.372
-4.73717
-687.827
582.659
105.169
-859.814
868.874
-9.0604
265.518
64.465
-329.983
385.681
-10.408
-375.273
814.567
-666.867
-147.7
-409.827
407.053
2.77311
161.131
314.785
-475.917
290.538
-357.098
66.5603
-594.036
81.6684
512.368
724.488
-60.7498
49.9088
-384.821
136.528
-489.447
352.92
232.063
-121.177
-110.886
1068.04
-4.04376
659.841
-680.983
21.1428
-281.521
2.73188
278.789
306.624
-41.106
-442.001
543.833
-101.832
952.652
-248.494
-704.158
-673.701
761.709
-88.0082
243.018
-223.672
-19.3453
478.974
-70.3862
-408.587
127.288
-408.81
266.568
-431.088
164.52
439.789
-587.65
147.86
291.473
-38.1639
-253.31
824.587
-979.155
154.568
1062.03
-237.441
-1018.16
1035.7
-17.5361
402.585
-92.1843
-310.4
704.03
110.537
189.408
-308.677
119.268
1228.48
-777.706
-450.769
-591.204
149.203
538.418
-538.674
0.256375
230.501
645.532
-876.032
224.672
537.251
-761.923
-107.294
547.083
-375.763
172.703
203.06
-14.0149
-224.853
238.868
-667.104
-6.59744
239.495
-18.6703
424.129
-38.4473
-280.967
-53.0609
334.028
524.637
-499.797
-24.8397
-34.2739
-559.762
-463.548
42.3452
421.203
-297.464
-28.165
325.629
799.504
17.5782
-817.083
-409.157
570.288
-15.7466
-244.516
260.262
-216.579
483.148
-328.898
439.122
-110.223
261.518
236.623
-498.141
496.271
-125.599
-370.672
428.599
-47.8668
-380.732
-448.536
-27.5534
476.089
-986.681
-31.4829
1061.62
6.42261
304.94
277.4
-582.34
-243.111
546.878
-303.767
172.05
78.0955
-250.145
-431.892
381.677
50.2158
-377.728
380.648
-2.92027
300.392
-170.106
-130.287
-250.941
-61.0241
311.965
-699.295
16.5408
682.755
406.893
-91.9704
-314.923
-254.37
254.37
81.4926
-761.524
680.032
-663.062
68.1508
-947.22
848.227
98.9933
-313.659
-58.4111
-49.0726
221.627
-172.555
522.204
-132.793
-389.411
-644.536
-43.2909
652.463
-69.804
100.45
80.6096
-181.06
-355.041
90.5271
264.514
-309.762
58.8214
846.073
-621.401
567.913
-595.926
28.0128
226.539
-96.1533
-130.385
-365.095
139.138
225.957
-21.4884
251.531
-230.043
-846.716
847.439
-0.723335
-30.0711
-160.474
190.545
276.252
2.39729
-278.649
-711.449
12.1539
-266.303
283.444
-17.1416
778.737
20.7677
428.009
-633.386
205.377
202.797
-216.812
-757.38
819.795
-62.4153
648.866
-716.202
67.3355
74.6771
577.786
943.844
-846.974
-96.8696
-216.448
238.405
-21.9562
198.575
44.4426
351.68
121.625
-473.305
1009.09
-256.885
-752.209
18.5826
563.653
-582.235
-12.8839
-587.343
600.227
539.451
-234.511
111.455
425.685
-537.141
-303.194
407.81
-104.617
76.7438
-814.827
738.083
-698.591
455.48
-24.3948
-195.406
219.801
20.8316
-855.874
835.042
-308.264
325.934
-17.6703
-34.4697
295.987
24.0846
-890.789
866.705
-362.631
341.72
20.9108
-88.6707
-321.156
11.4981
-285.998
274.499
703.859
-786.616
82.7571
726.153
-860.278
134.125
-149.494
338.902
188.478
111.914
199.215
-205.096
5.88081
285.243
-312.993
27.7502
-129.248
557.257
625.868
326.784
146.118
81.7797
-227.898
276.853
-316.302
39.4492
196.866
-233.618
36.7528
-23.7133
299.965
-348.971
-13.6602
1.53125
-187.783
186.251
223.865
-62.3722
-161.493
181.124
827.97
-198.074
-739.276
937.35
-101.152
-397.297
522.789
15.629
226.98
-224.649
-2.33063
259.088
-202.402
-56.6868
17.4246
-235.573
218.148
-395.327
633.293
-237.965
51.51
508.247
-559.758
984.084
-886.471
-97.6129
790.914
-787.09
-3.8236
-574.163
-236.628
810.791
-145.956
722.108
-576.152
455.325
-443.652
-11.6731
-225.506
6.91013
218.596
30.0975
-761.915
731.817
-173.727
-202.036
-247.728
233.854
13.8742
241.185
-14.4689
25.6568
1020.88
-572.445
-448.43
735.195
-933.269
-399.598
96.4045
15.448
208.417
16.4784
-778.243
761.765
-90.3844
-856.835
417.468
-452.24
34.7723
-106.672
832.825
54.1949
-736.371
682.176
-212.793
-12.7131
276.853
4.59349
241.76
-246.353
-432.675
432.675
82.8113
679.512
-762.323
-314.886
48.5836
-579.403
597.985
330.997
-298.599
-32.3983
-777.832
-63.2702
841.102
-145.942
447.14
-301.198
439.542
82.6622
428.842
-442.884
14.0419
245.144
-48.2779
-205.441
-331.579
537.02
501.252
-381.378
-119.874
-328.357
17.7378
310.619
785.388
-81.5294
-520.571
-79.5201
600.091
-661.079
661.079
-127.143
502.358
-375.215
95.3688
-341.76
246.391
-919.401
345.238
306.765
-358.391
51.626
436.764
18.5608
809.749
-489.454
-320.295
918.33
-69.3152
-849.015
77.5079
149.031
-847.233
614.258
232.975
-25.8061
264.861
-239.054
-210.693
221.275
-10.5817
-42.9141
-488.721
875.016
-890.168
15.1525
-66.6748
429.701
-12.2333
788.235
-791.891
3.65556
244.512
-17.5323
19.861
-236.309
822.13
-963.817
141.687
250.586
-341.047
90.4607
570.662
-570.662
899.942
-93.2388
-806.704
594.25
73.078
-667.328
56.4863
-327.213
270.727
-205.84
280.615
-74.7752
-472.582
326.64
53.5517
734.683
-393.027
529.555
256.358
-178.85
-684.003
-176.275
484.538
-630.494
453.572
-501.158
47.5857
-897.952
1032.63
-134.683
-580.407
555.686
24.7211
505.951
-582.27
76.3186
129.07
733.479
-862.548
211.297
530.713
-742.01
723.344
505.131
322.082
739.946
325.222
-232.057
-93.165
-295.566
295.566
371.085
-402.085
30.9998
-27.9877
1089.6
269.92
-323.639
53.7196
530.194
-478.684
-297.429
-562.385
551.672
-565.609
13.9371
-29.3555
904.371
253.462
-279.268
-213.382
191.703
21.6789
498.989
-587.754
88.7644
-197.685
959.05
-761.365
588.751
-82.7994
771.692
-383.604
-388.088
339.09
-48.5522
471.997
548.878
-209.734
160.661
-743.85
59.8463
-934.456
36.504
477.65
46.9867
-679.868
891.164
-695.103
-62.2769
188.612
-201.113
12.5015
-74.0086
915.207
-841.199
-38.0529
-817.793
855.846
184.209
-182.678
40.6136
165.501
-206.114
-9.04524
-365.948
374.993
322.064
-310.566
-606.218
210.891
-248.077
446.244
-198.167
908.553
-678.052
303.525
21.6971
281.79
17.4823
-299.272
-567.663
169.42
398.242
460.71
-31.8677
525.656
-731.097
-365.386
-12.3412
646.92
-746.154
99.2345
-220.317
152.607
67.7102
-656.228
638.966
17.2625
217.599
-213.006
74.6087
181.749
-743.078
825.889
-331.941
325.914
6.02729
68.0389
-363.353
295.314
236.951
-205.03
-31.9214
526.515
-328.649
-197.866
8.23205
-346.717
338.485
-497.318
484.434
-81.6936
290.071
-208.377
-660.909
157.905
503.005
-347.505
-17.59
653.8
6.04028
445.539
-21.4099
-167.352
17.2394
150.112
-21.9696
725.543
-703.573
-854.244
983.313
320.836
-149.705
-171.131
677.325
-775.114
97.7894
423.95
347.742
706.369
59.6022
-765.971
818.1
81.8421
552.062
-528.596
-23.4664
1093.72
-1012.31
-81.4059
4.73903
-296.047
291.308
293.508
-11.7183
91.5777
140.485
209.895
-10.6796
194.859
-200.038
5.17951
144.187
148.67
-292.857
-304.8
284.482
20.3178
-163.112
-295.91
459.022
420.222
-547.365
-320.125
195.986
-193.984
-2.00114
191.465
1009.21
-561.83
-447.384
525.889
-109.13
-416.759
139.924
508.942
78.4964
473.565
22.7332
-692.646
712.729
-20.0834
46.1127
-547.557
501.444
-88.8071
-246.975
335.782
-448.886
39.1601
409.726
-140.496
-336.036
476.532
780.001
-1.26477
23.2622
183.947
-374.671
190.723
159.423
-241.117
-920.749
849.287
71.462
-296.465
305.787
-9.32186
670.013
-84.6088
-585.404
1047.01
-603.806
-443.208
194.252
-192.762
-1.48989
256.277
-112.805
-143.472
-421.616
418.22
3.39622
663.236
-31.6059
-631.63
-693.987
1.34091
373.926
32.9675
-570.07
451.044
119.026
583.266
-578.237
-5.02941
-855.761
44.3964
811.364
856.372
33.198
-889.569
-424.617
284.121
-202.58
35.2286
-322.484
531.01
-208.525
-170.883
-42.4995
754.994
-793.047
-142.382
182.995
541.566
-175.254
-366.312
-123.565
-309.11
220.924
-222.025
1.1019
619.536
43.6998
683.445
-608.768
20.9345
-301.703
280.768
837.528
-876.401
38.873
-313.157
14.5583
955.436
-958.64
3.20316
56.2205
214.452
-270.672
680.241
-33.3209
568.732
-592.649
23.9174
-828.512
849.343
188.043
-212.438
786.399
212.133
746.917
161.769
187.849
-349.618
-298.554
-7.93795
825.033
-72.8074
-752.225
596.279
-132.428
-463.851
243.622
-70.9193
83.9775
412.294
74.6126
-280.453
473.834
-503.892
30.0581
142.477
-348.855
206.378
137.683
388.832
58.2522
860.078
653.059
-773.264
120.205
-22.6792
978.116
-250.737
-34.7602
285.497
-216.848
209.133
7.71476
2.73263
169.317
48.4742
452.778
335.09
-344.136
-358.585
29.6868
-338.241
40.7765
838.345
-58.3437
78.1361
-249.684
171.548
-956.895
22.4391
-920.431
-36.4642
-486.051
56.6648
429.386
-732.869
901.604
-168.734
-205.719
-54.1056
259.824
-119.495
-73.7516
193.246
-150.035
-50.4141
200.449
-140.09
229.858
-89.7679
853.46
412.439
-228.491
139.594
-12.5229
-567.884
-879.281
-41.4678
443.565
152.714
192.914
-515.399
200.756
-1107.05
906.291
27.3289
202.089
-229.418
-10.494
-200.199
418.729
26.8096
89.1536
701.76
280.166
18.5342
-298.7
-472.21
583.666
728.77
72.8447
-801.615
-778.588
-8.0275
801.035
-855.283
54.2481
304.633
-262.648
-41.9855
82.8188
238.017
850.783
-864.961
14.1783
978.829
-862.148
-116.681
939.134
-943.689
4.55499
-399.173
-170.897
-4.99158
-873.197
548.669
324.528
-184.517
161.81
22.7065
-244.038
388.226
140.689
91.7762
-232.465
755.717
265.166
-280.912
431.666
94.2232
782.828
-696.518
-86.3107
-52.6399
-109.025
-86.5106
195.536
-308.225
260.626
47.5989
862.536
-838.451
-21.698
379.654
-357.956
-341.067
-7.90353
570.573
-583.601
13.0278
368.365
-327.309
-41.0564
-828.51
731.214
97.2964
-905.797
831.788
142.416
113.861
-406.327
276.916
129.411
468.176
-453.973
-14.2031
621.277
-622.652
1.37459
518.106
-44.2717
-324.323
-131.417
455.74
25.5077
-276.244
-72.2326
-246.39
318.623
544.286
563.93
-1108.22
-900.866
849.216
51.6498
-2.43761
-405.018
418.948
-13.93
431.97
-399.767
-32.2027
672.098
-845.699
173.601
711.253
-881.818
170.565
-503.05
-157.86
-445.508
77.8642
367.644
305.302
-6.4608
-298.841
-325.726
175.691
474.813
80.6759
-719.701
-108.809
6.67012
188.189
-302.405
300.748
1.65664
52.5346
-356.372
303.837
490.246
39.481
-529.727
-231.324
300.796
-69.4723
-896.195
-19.6391
915.834
-190.535
-42.4128
232.948
6.46013
-846.266
839.806
804.708
-118.422
-686.285
331.992
141.418
-213.65
-874.877
-21.3179
808.577
40.7098
-5.78663
542.658
-190.978
-510.236
-13.2988
523.535
-801.992
913.795
-111.803
313.802
-245.763
-397.106
308.299
-30.1568
590.706
63.0944
383.892
-241.415
298.469
511.279
-14.2847
26.4248
341.941
-777.779
86.7597
691.019
456.698
94.9738
-125.463
-35.2163
160.68
-851.806
-23.0703
70.6769
331.908
-197.247
227.848
-30.6014
48.5648
-279.888
-262.394
282.839
-20.4449
-18.617
28.1799
-512.99
484.81
-611.175
-134.98
-22.8872
302.388
-279.501
-330.588
452.213
599.387
447.627
-1102.78
430.488
672.29
329.426
0.33508
-329.761
-227.426
-172.729
400.155
-524.575
551.458
-661.212
-18.5076
679.72
99.136
88.8965
-188.033
-44.2514
799.246
838.958
-862.566
23.6076
807.485
-154.427
38.4972
-602.422
-325.447
-21.2696
556.807
57.7946
-614.601
439.655
21.0547
-349.354
392.904
-43.5501
-853.651
-3.77697
857.428
-27.8184
-823.988
306.902
-281.613
-25.2889
625.209
-3.93184
573.437
-410.678
-162.759
-215.081
277.002
-61.9207
-85.3061
-273.279
-420.657
-42.8909
894.747
-183.494
-821.884
89.0147
-629.298
18.1237
-539.7
50.4569
489.243
820.55
-39.6275
-780.922
-261.686
121.596
0.162124
-356.082
355.92
859.498
-187.399
307.734
-2.43151
636.629
-67.8968
494.197
-3.95063
801.384
-712.231
-1045.14
-57.6417
444.933
23.2432
531.102
36.8106
728.808
-698.71
796.094
-38.5122
-757.582
194.263
-224.334
275.354
-14.7279
-118.091
216.116
-198.691
474.95
15.5589
-490.508
576.283
-97.8163
-478.467
-459.389
421.921
37.4681
128.885
672.499
3.22369
-95.8868
-760.686
856.573
76.55
-669.273
592.723
226.971
-304.115
77.1435
-742.339
646.453
91.7531
712.955
-504.409
1048.69
244.837
-166.701
-279.406
-178.822
247.758
-68.9361
208.82
-261.743
52.9227
-180.079
320.768
-9.27464
-331.793
-51.1388
5.47609
-410.812
405.336
-47.5465
-161.973
-195.125
-30.1137
367.768
-337.654
-870.853
944.465
-73.6122
45.4985
-528.109
482.611
35.0407
-251.889
-755.836
106.176
649.66
354.808
-227.52
819.406
1.14428
-4.77311
223.621
-218.848
436.37
137.067
-119.001
-326.507
815.958
-201.7
-95.2096
-914.093
612.735
-335.335
130.888
47.2648
653.98
-572.487
495.328
-16.3546
342.429
-35.6633
339.031
-421.444
82.4129
198.995
-249.991
50.9961
47.5492
249.812
-297.361
335.859
-498.972
-3.9967
761.957
-806.208
537.692
-62.7426
-105.91
737.461
-631.551
-269.368
304.088
-34.7198
-68.6105
295.582
205.374
-189.926
-281.727
12.3589
-1059.94
587.926
472.016
-35.8749
-76.4259
176.876
-309.662
295.089
14.5728
-676.025
692.503
268.431
-273.302
4.87084
-476.303
180.394
-503.456
-556.486
240.303
-278.467
847.163
-946.594
99.431
-343.754
18.3064
486.067
-626.825
140.758
-2.45316
811.03
232.861
-265.166
32.3056
-322.113
-551.084
-37.443
293.713
-25.282
345.497
-114.386
-231.111
-20.2188
-842.037
862.256
-876.657
484.268
392.389
-56.1078
735.62
-457.837
37.1803
-142.836
-131.05
273.885
875.687
-822.037
-53.6505
393.108
-322.431
796.932
4.1027
105.649
85.9759
-191.625
-580.554
1024.4
-443.844
145.924
-194.565
48.6402
-758.979
-144.987
903.966
130.056
215.441
853.511
-31.3808
813.472
-736.728
503.228
-419.25
6.72937
-251.245
50.3627
147.945
-198.308
306.83
235.828
-23.974
-1098.2
619.197
479.003
8.08434
891.698
-60.5446
-831.153
-430.589
622.878
-192.289
57.147
756.325
23.1796
-533.416
-590.525
-18.2979
608.823
418.025
144.512
-562.536
-264.729
-522.362
278.917
63.512
-178.399
-75.9707
-406.35
352.781
53.5688
-791.134
301.681
201.067
-262.241
61.1734
220.751
-251.054
30.3033
430.089
-424.613
727.237
52.1604
-779.397
-202.945
42.4718
821.534
20.756
-842.29
-358.294
18.4473
339.847
118.64
860.189
-409.615
451.961
411.459
-72.4281
-954.495
99.7042
854.791
789.105
102.593
-42.0365
241.031
50.5552
381.415
898.969
133.665
27.2179
-485.055
28.7074
-826.893
798.185
697.639
-766.286
68.6472
636.315
465.956
769.011
-56.0322
-712.979
195.694
-49.7697
76.3805
339.425
-415.806
-735.247
792.394
268.506
170.616
-270.632
168.065
102.566
-111.188
-426.833
538.022
-32.1294
-215.599
1004.41
-573.927
81.1861
-286.905
212.106
-216.879
-103.066
-155.802
30.6488
820.134
-165.095
500.954
-601.257
755.912
-154.655
684.342
-706.312
-393.241
379.943
-442.678
-179.974
39.5017
348.742
-12.1585
-336.584
-46.2896
808.246
-505.248
-623.367
1128.62
287.852
-236.36
214.871
8.29603
197.078
-246.663
125.486
-885.306
908.967
-23.6614
-271.521
254.852
16.6696
73.9932
708.835
3.36385
765.647
635.732
-16.196
-15.0792
-512.328
471.093
41.2355
933.082
17.1529
-950.235
-312.44
-45.854
-0.350486
-234.488
796.824
-69.5876
529.017
-623.125
94.1087
-761.976
-84.7396
38.9618
265.671
888.49
10.4797
-490.784
440.856
49.9285
-950.456
-94.6797
42.5077
-386.284
343.776
-193.412
220.112
-26.7002
246.745
-37.9253
-39.7423
1050.3
-313.22
-737.078
579.596
-50.5788
51.7315
-263.972
-63.2416
-692.69
777.795
-85.1051
-75.1395
-10.197
230.948
504.773
-5.78406
92.7897
-870.622
-92.2552
213.015
-120.759
-194.192
215.584
-21.3912
-681.794
570.605
-450.838
479.018
342.583
50.525
-460.586
424.836
35.7507
579.434
429.78
498.446
-459.948
-38.4988
480.79
-309.552
-171.239
-202.647
32.5413
350.545
-21.458
-329.087
-250.613
71.7913
-321.817
287.348
-219.038
-636.723
-691.56
-81.704
259.808
-58.7402
662.321
197.177
6.96954
226.885
816.303
-84.8157
-731.487
328.847
-142.104
647.021
-504.916
241.207
-295.313
-96.4788
514.503
-750.841
7.7632
-115.91
-104.407
500.006
-95.5423
784.253
-688.711
-198.385
219.976
-21.5906
-30.1636
-241.358
829.59
-737.836
222.24
-428.103
-407.478
835.581
862.418
-200.097
-43.9826
789.337
-745.354
597.381
-6.6745
17.7317
-608.257
280.385
138.49
-418.875
-404.115
480.496
-22.1986
-317.679
339.877
-617.027
65.8456
551.181
-143.061
517.034
-373.974
-480.002
409.588
-483.153
73.5658
105.205
-178.483
73.2778
-178.874
340.643
-176.113
-189.274
729.74
-32.1017
102.287
581.158
-611.038
648.877
-37.839
269.185
-292.072
-810.461
-52.1051
97.0936
-433.129
590.119
460.178
-615.788
173.11
418.062
-846.165
385.309
-681.885
28.6521
653.233
-198.203
250.004
-51.801
-816.296
886.702
-70.4058
-48.3447
-432.199
480.543
1005.36
-405.618
-599.743
-68.8378
-786.445
10.7742
296.128
-950.463
207.424
743.039
-857.708
-92.7553
-172.92
-11.5965
-777.768
731.478
-132.387
-296.382
428.769
-15.5678
-266.379
281.947
160.351
647.134
239.581
152.85
-392.431
-902.868
154.575
748.293
541.176
-580.948
39.7713
604.539
58.5957
-663.134
-44.3853
673.85
-639.872
-33.9771
353.15
-23.7238
-23.869
223.932
-200.063
608.382
65.468
13.9328
-792.521
721.538
-777.57
-175.422
225.785
324.101
156.689
143.304
-319.416
203.709
-207.71
4.00152
341.707
-199.521
-142.186
592.117
43.6153
-747.611
801.035
-53.4246
-407.653
-98.5735
506.226
-13.2654
-289.139
251.412
60.6949
-312.107
250.043
-100.151
-149.892
418.325
-466.67
-61.7153
-740.276
-410.915
93.9868
142.965
509.571
-442.546
-67.0253
-229.004
256.333
-203.146
195.296
7.85002
23.5167
-226.026
202.509
-322.556
379.342
-56.786
212.173
-10.1339
-202.039
450.446
554.914
-261.958
555.524
-473.856
140.655
-228.627
87.9722
-201.36
-11.8496
213.209
701.278
-96.7396
243.701
-169.092
-357.494
276.529
80.9643
-425.163
-20.0193
445.183
-352.041
449.135
311.656
-323.362
11.7059
-16.9111
32.595
470.633
462.785
35.6616
37.9972
-463.161
189.212
2.49143
-338.505
-5.2484
-370.196
297.476
72.7199
342.192
-63.2755
673.586
221.161
-230.909
254.426
-289.022
306.76
102.946
656.293
-759.239
-736.602
-25.7531
762.355
31.1144
164.273
16.7768
-339.333
-690.686
621.106
69.5805
121.921
-176.462
168.699
7.76264
427.979
-147.594
-240.11
-178.048
418.158
-165.488
-346.84
220.891
-17.1824
-262.835
120
92.2815
-184.537
-1009.54
696.317
-347.87
347.87
851.466
242.253
-35.2644
-509.096
-500.441
210.031
326.341
528.109
42.5528
545.683
-51.4857
274.003
-247.207
-26.7955
-629.401
662.292
-32.8908
-50.2867
-532.533
-46.8698
-636.09
717.427
-81.3362
84.2549
-493.412
-353.101
539.434
6.24815
529.147
22.5239
-551.671
747.465
-647.325
7.45289
-110.429
-68.6992
179.128
-412.517
90.6997
312.332
-33.4359
-278.896
-153.035
-49.5456
-302.156
289.398
12.7579
-292.2
77.1185
869.331
-195.745
-334.523
48.5254
768.057
-1.41409
-766.643
584.178
-659.016
74.8387
-922.857
830.377
92.4804
-23.5498
-637.663
110.084
297.726
-23.4194
-261.297
284.716
-787.288
25.7638
-203.79
-290.874
267.455
-466.128
511.626
-242.649
270.503
-27.8543
-303.309
299.906
3.40302
-810.734
704.825
995.978
-148.815
-169.473
309.104
-252.883
361.072
-173.222
418.187
-311.641
-106.547
287.59
54.6022
812.692
-90.334
-722.358
184.272
-681.59
-754.676
671.444
83.2315
5.57761
-617.338
624.199
-6.86143
64.772
178.929
-98.5086
518.731
-268.338
293.196
-24.8585
379.154
-458.304
79.1506
-608.637
649.218
-40.5803
585.655
44.3548
-630.01
243.736
-221.354
-22.382
556.366
-24.2086
-532.158
229.925
-119.062
-110.863
-124.61
-48.6066
173.217
955.468
-946.384
-9.08395
-575.496
-388.321
-46.3363
-756.55
802.887
-897.639
834.369
-588.328
363.023
225.305
605.088
-623.386
-14.6364
673.344
-658.707
25.5363
142.166
-167.703
-70.8267
-285.545
-855.979
-66.8786
15.4609
366.216
334.077
-739.695
199.395
-10.1832
-229.21
229.21
407.442
-138.121
-269.322
-911.267
25.9605
-3.1721
-26.6413
-477.175
503.816
-753.739
-80.6519
487.066
-406.415
-252.401
-408.679
432.4
-10.4793
-56.6105
258.7
155.642
186.065
-542.887
397.667
-166.838
406.419
339.6
-52.0101
762.675
-708.48
-284.283
-7.66342
270.746
-946.895
-3.56098
5.61137
927.471
532.989
-448.734
-837.821
573.886
263.935
2.69811
259.879
-262.578
350.22
-6.94845
-343.271
-462.011
31.4227
-834.993
748.717
86.276
-128.912
-183.528
194.94
44.8811
-239.821
213.013
126.587
-800.991
17.7772
-589.633
326.622
263.01
37.8584
247.384
362.188
-325.321
-36.8671
-387.52
399.847
-12.3267
847.416
-513.338
-455.008
312.904
-322.937
191.807
131.13
423.379
-720.808
568.402
-27.2255
811.246
-807.882
79.7819
150.143
-828.85
811.626
17.2235
-794.637
47.0264
-472.163
-527.847
1042.65
-186.28
931.097
-835.18
-95.917
-521.121
-463.314
984.435
-48.6437
-256.156
53.3961
226.046
-233.369
7.32311
-22.1163
-56.0688
733.393
468.627
-33.6523
-434.975
-367.157
-200.506
19.0867
-86.9743
-254.073
-157.217
423.979
-266.762
-925.76
925.76
92.8972
-805.773
485.478
-510.865
69.1887
441.676
-211.702
-194.625
172.328
-164.758
-378.129
-553.605
388.848
602.206
58.0658
191.977
421.108
-929.856
508.748
-28.67
308.836
-223.018
-263.033
-216.076
418.402
-94.3007
-181.618
-141.319
-65.4872
-835.379
452.5
-518.101
65.6011
17.2156
-695.069
776.695
-81.6253
415.764
-420.927
5.16228
246.923
-567.934
529.724
38.2099
101.409
117.738
-219.147
195.239
-219.108
378.937
-708.786
329.849
110.54
758.334
167.326
240.116
-68.6625
-492.302
465.661
292.814
-307.326
14.5119
416.53
-37.3765
353.966
-384.08
-22.6095
-367.592
390.202
-39.7853
-273.208
321.731
14.6549
-336.386
-426.406
269.19
-388.557
40.459
631.11
-749.532
-410.031
532.179
-313.336
-91.6824
976.648
-866.109
-492.739
-312.305
805.044
293.899
39.0507
290.273
-329.323
-455.55
142.835
-271.747
-51.8063
451.107
-563.922
112.815
47.4251
613.654
-186.558
76.1289
328.049
-290.191
708.746
-329.809
269.249
-178.722
24.0318
364.84
-388.872
-28.4998
-296.509
-5.1935
-256.648
251.377
5.27054
1.08986
555.165
-531.985
40.0195
-891.589
113.346
799.057
-2.12451
329.749
-116.736
525.489
328.706
-854.195
598.397
239.948
670.998
-766.54
-748.723
104.727
643.996
280.071
63.4747
-343.546
187.365
-180.236
-7.1295
26.4886
274.525
572.914
-196.998
36.7283
160.27
-156.866
-606.924
763.79
-339.713
360.872
-21.1596
-254.213
292.067
-37.8544
-148.495
-175.144
-255.548
212.277
43.2711
920.093
-920.093
-87.3359
727.051
-639.715
294.302
-211.483
345.062
-68.1457
-657.815
190.285
27.9231
-218.208
41.009
-585.58
544.571
38.5902
-240.037
201.447
908.28
-913.984
5.70329
301.001
-674.51
373.509
346.016
-303.508
51.8067
310.381
-350.746
876.235
557.071
-105.964
-72.8857
-243.416
-400.211
323.028
77.1826
220.124
-345.724
332.965
-500.102
167.137
-249.043
50.8404
-873.296
-73.5992
33.424
-728.493
319.034
-179.897
796.382
-773.242
-23.1407
431.008
51.2293
-482.237
-685.584
610.669
74.9154
-248.369
209.542
38.8269
320.843
-28.0287
-426.118
-254.865
877.741
-833.951
-43.7905
-357.692
658.694
128.574
-536.227
-864.726
11.0755
-55.9612
-600.732
656.693
43.5168
-137.499
-133.132
-917.804
411.176
506.627
192.586
2.7104
450.099
-34.3352
543.447
277.91
-268.3
-9.61002
-334.659
-6.06785
340.727
-551.175
443.881
-1.33562
-203.36
204.696
231.906
-41.6206
-95.7226
357.977
-262.254
-355.723
6.3692
434.919
-10.083
60.2256
-809.54
749.315
-664.291
664.291
53.4858
187.721
-89.4706
-505.495
594.966
-854.478
938.107
-83.6292
741.124
55.2579
-14.1394
-834.534
848.674
324.306
-341.682
17.3766
325.177
14.4868
-339.664
584.284
-636.906
52.6228
45.4932
312.749
-358.242
-213.824
-119.479
333.302
196.504
-9.13872
106.465
-710.509
604.044
-760.013
267.274
350.779
-311.728
793.736
59.7745
-77.3837
-433.481
342.485
-390.352
-681.204
101.528
579.676
319.035
-282.544
-36.4906
-531.275
614.767
-83.492
-81.9333
-362.936
444.869
408.788
-382.363
-592.949
-324.855
602.189
-725.136
122.947
-407.333
-430.488
837.858
-39.743
-645.841
121.33
459.467
-580.797
563.563
-644.791
81.2282
39.3341
-241.736
11.1095
-692.995
-321.28
321.442
4.38264
570.547
-692.721
122.174
-344.503
-430.611
-2.56054
-684.804
698.123
-13.3196
763.071
-164.674
645.581
-102.912
-542.669
216.479
293.093
290.088
-297.521
7.43336
807.724
-935.879
128.155
-651.279
-97.4442
-292.846
24.5077
-325.931
81.7415
244.189
-56.4154
640.699
88.8379
-254.468
165.63
357.831
-335.797
-22.0336
-341.886
-247.746
-14.694
203.306
-27.4293
-173.684
229.569
138.069
-367.637
-271.786
319.68
-47.8945
588.6
-678.07
23.8987
288.433
-266.766
-59.1646
-291.884
-296.443
-711.334
540.7
170.633
-111.303
-152.495
-162.729
66.5761
-578.368
536.394
41.9738
576.955
-1098.08
-24.9094
-1014.41
-140.786
367.401
51.0013
-22.682
-51.3926
-758.645
127.094
851.864
-845.404
617.392
-76.6916
1.86033
589.24
-591.101
-282.698
-165.161
447.859
-44.045
-204.324
7.01589
197.262
-210.955
13.6934
-994.051
232.136
448.544
-115.578
19.6745
-627.977
608.302
298.391
-364.921
26.7575
338.163
60.603
573.452
-634.055
-103.099
771.427
-668.329
-669.462
-195.5
-727.82
38.5304
689.29
-33.2011
569.512
-536.311
923.516
-915.068
-8.44826
563.001
-618.963
-611.187
-23.6535
634.84
-395.973
124.187
276.959
-273.515
-3.44379
801.318
-772.61
-96.0398
730.874
-634.834
459.556
11.5366
-433.974
-669.871
604.139
65.7316
399.15
-92.2109
-564.018
-55.0509
-11.2345
-399.577
-27.1252
213.828
-186.703
23.3696
327.409
-360.517
364.405
-3.88871
746.079
-792.415
121.924
137.901
214.067
-225.94
11.8737
684.151
-775.285
91.1341
-321.505
-680.001
-12.6889
794.978
74.353
291.028
120.43
811.446
-16.4676
-33.0863
-1029.66
173.791
3.94078
19.766
-567.323
158.071
-132.534
-1082.8
-241.954
240.619
70.9264
223.375
-107.68
-467.125
574.805
-2.48111
-477.504
479.985
838.926
-31.2025
570.075
75.5059
-42.2965
-204.227
246.523
742.611
-786.593
-151.791
381.359
-404.414
444.241
-39.8265
-679.277
723.19
-43.9131
286.149
-358.385
16.6245
393.42
-142.327
-251.093
175.438
-511.588
466.116
45.4725
4.80325
-461.367
461.505
-0.138048
613.769
-596.037
34.2127
-162.365
593.373
-294.733
57.4892
440.959
41.3797
607.418
-648.798
-79.9307
-143.742
196.175
13.3668
31.4751
-391.494
26.5736
-413.324
8.90952
251.081
-253.146
2.06452
711.248
-682.596
-485.053
84.0787
400.974
-42.2772
626.455
-20.9853
-205.04
914.264
-141.772
-772.492
518.881
537.487
-1056.37
-291.785
-16.892
290.907
4.18211
10.2672
274.215
-691.02
-2.98563
694.005
592.133
-748.999
-211.517
193.484
18.033
-525.628
-23.6408
-645.632
5.97254
134.683
-137.357
-428.252
-105.978
194.816
16.9682
-635.181
618.213
-38.7919
-497.784
536.576
-260.711
306.205
-69.3053
626.112
-728.336
753.715
-25.3791
217.714
-482.442
248.038
-259.983
11.9453
11.3551
-838.402
27.6675
242.984
-456.808
910.214
-920.256
10.0422
636.806
13.7314
-650.537
-53.477
-539.172
-807.251
840.449
119.88
-206.391
897.672
-78.2668
241.331
-15.2857
-60.3894
-715.989
776.379
-87.8082
-596.996
-21.2828
550.43
-672.645
21.3666
207.686
-233.255
25.569
-236.972
2.40004
234.572
-558.619
533.513
25.1056
-210.781
86.1712
60.5902
88.011
-148.601
-880.252
314.617
20.085
-334.702
54.9642
637.887
-692.851
-340.818
367.257
-26.4391
-650.842
-21.8036
-665.423
768.369
-896.653
127.544
769.109
-146.045
-168.841
-445.352
63.9736
-456.944
-615.51
268.042
-2.87617
-290.244
290.91
-0.66636
174.773
-73.3638
-422.756
393.774
28.9812
-954.883
972.036
-287.667
97.6731
189.993
133.564
24.5064
522.806
857.53
-877.749
276.802
-38.7852
369.224
-512.284
-789.393
811.336
-21.9429
-347.329
-185.631
532.96
132.653
-174.344
41.691
426.383
-524.892
746.664
-682.69
-63.9742
-260.225
-31.5595
332.484
-81.0721
315.867
-291.968
331.767
-652.04
-17.8308
5.53206
633.434
-370.108
142.588
20.6509
-891.504
548.025
-390.121
608.143
368.505
423.636
8.76372
744.644
-805.034
-40.1201
-14.7972
827.284
70.3889
421.123
-499.838
78.7147
236.799
-198.869
-37.9293
-185.686
210.108
-24.4221
-10.537
342.786
-332.249
-617.504
658.884
438.17
249.832
-218.343
-31.4891
364.305
511.383
313.03
-334.488
709.718
102.974
77.9455
-601.256
523.31
639.789
-35.6496
40.1902
-930.446
113.947
816.499
214.908
-257.321
-251.541
-793.293
732.264
61.0286
5.24549
814.336
-819.581
928.798
-928.798
-378.095
17.5786
602.824
36.9644
-109.142
-24.8996
-190.905
215.804
437.577
27.8214
-465.398
-435.204
21.3124
413.891
186.768
972.169
-453.287
-229.381
39.8218
189.559
-627.208
630.805
-3.59647
429.724
-470.027
40.3027
-430.764
-4.4392
45.7778
-765.016
719.239
-636.658
-61.9329
-549.433
518.487
30.9465
-373.969
288.663
25.0899
-238.891
213.801
-160.115
-127.552
-28.8946
224.108
-27.9324
45.7552
296.871
-278.337
-71.6674
791.607
366.911
-52.2941
-769.337
32.735
-890.026
814.429
75.5971
122.476
284.577
376.38
163.071
-754.857
858.759
330.083
188.911
-518.994
-164.609
594.449
-644.036
49.5864
482.672
55.3143
-537.986
638.577
-343.924
-294.654
-479.502
-116.424
-781.579
678.48
27.2165
-685.733
658.517
-711.314
108.509
602.805
-763.785
23.2958
34.4261
508.588
-87.4648
-519.318
354.223
555.237
-588.439
-35.4088
-67.2969
230.825
-163.528
50.5318
-686.622
-233.662
-234.465
167.168
-30.0763
267.908
-106.679
-161.229
161.931
-8.01172
-634.294
721.054
-32.1817
197.961
-165.78
869.867
-629.369
12.0306
136.406
191.643
1.00561
397.552
-398.558
-222.385
-198.089
420.473
180.934
763.532
379.61
-355.579
-842.572
7.57976
626.405
-609.864
-0.711105
-811.863
812.574
589.547
16.0739
-605.621
845.611
46.0865
-891.697
310.595
-10.6894
124.394
-407.092
425.938
8.98063
-255.266
335.041
-79.7755
193.846
381.566
-90.5381
611.236
-55.27
-555.966
-756.348
782.188
-25.8404
12.863
648.72
-661.583
-645.8
114.525
-6.79964
-442.4
605.568
34.4812
323.35
-30.5459
189.418
-90.2824
-336.517
1.85766
95.9609
742.965
3.67575
-277.749
274.073
-422.707
-507.149
-57.4446
-757.755
815.199
265.484
-51.0325
190.484
-263.015
72.5309
195.834
-94.8416
-222.24
-516.876
-581.323
-792
-18.4602
-167.074
-815.756
776.444
39.3117
-34.4713
469.741
-435.269
59.7816
821.338
-881.119
197.758
-137.167
774.862
26.1738
-222.48
197.58
20.3862
-306.873
286.487
575.722
-573.862
-645.892
130.769
515.123
-562.714
587.895
-25.1815
31.7641
258.324
-665.213
-441.834
608.54
45.8127
-654.353
-721.935
606.757
-679.212
72.4548
-151.493
-45.5045
450.046
-484.32
-846.544
851.79
106.07
-307.801
-588.852
-642.413
593.275
49.1383
181.909
-76.7041
-43.6432
459.365
179.212
-570.772
57.7815
514.259
-527.191
12.9323
73.173
-717.665
644.492
267.56
-16.4786
-313.231
166.367
146.864
-569.451
591.975
-131.66
475.621
-343.961
681.419
-86.9701
0.950441
-317.986
317.036
-446.908
-442.765
889.673
-143.256
247.686
-104.429
-101.78
-579.424
-572.504
420.285
152.219
403.181