/*--------------------------------*- C++ -*----------------------------------*\
  =========                 |
  \\      /  F ield         | OpenFOAM: The Open Source CFD Toolbox
   \\    /   O peration     | Website:  https://openfoam.org
    \\  /    A nd           | Version:  7
     \\/     M anipulation  |
\*---------------------------------------------------------------------------*/
FoamFile
{
    version     2.0;
    format      ascii;
    class       volScalarField;
    location    "32";
    object      p;
}
// * * * * * * * * * * * * * * * * * * * * * * * * * * * * * * * * * * * * * //

dimensions      [0 2 -2 0 0 0 0];

internalField   nonuniform List<scalar> 
117990
(
22.4309
-0.041301
8.69676
2.43655
7.97401
-0.0286679
37.0224
17.2894
-0.258866
-0.0431203
-0.447849
0.369137
5.29022
73.0025
-0.251661
68.5318
-0.0730496
-0.471752
35.8132
8.06961
17.2123
-4.3956
-0.492858
3.6089
35.8507
32.3474
11.5064
21.0591
-0.0808782
33.1039
-0.298508
33.055
15.2599
4.83215
34.8875
-1.43812
36.6518
-0.0655641
-7.60728
38.2177
33.1316
-0.472283
14.0379
-1.47935
24.3119
73.1353
15.2976
10.8023
8.4958
0.333761
-0.000173908
-3.13116
33.7145
-0.0223529
8.37854
33.7998
32.0923
35.5797
23.1714
9.87806
-0.0930296
3.79783
-0.920474
10.408
-0.182168
3.39862
5.10587
30.1999
11.1724
31.2359
36.7585
29.8267
38.178
58.0265
19.7238
25.1371
24.5081
2.81516
37.2373
30.0714
30.1346
-0.176107
22.7276
20.5537
-2.73547
0.354212
12.4809
-0.0580552
33.0894
-0.0563276
-0.993088
3.90098
-0.0837023
-1.13884
-0.534057
0.797726
-0.581176
22.2232
11.5933
33.0742
-0.0940933
23.3324
12.9486
6.9698
36.8652
17.483
38.4462
16.754
16.9932
-0.0666781
30.0588
-0.57627
24.5998
14.5882
29.0887
11.8344
-0.451102
36.4371
0.0242816
29.7304
36.3296
68.6127
8.90166
25.0136
-0.00762362
33.4088
3.91089
26.4535
-1.75658
26.303
21.7634
0.533202
34.5936
0.352018
0.0251922
35.3853
35.2767
15.33
8.50094
3.76578
22.8052
11.6729
0.0988182
33.9649
22.0419
-0.000268249
19.1161
3.9475
30.2434
5.03056
17.355
25.1201
3.80839
-0.00750117
-3.08686
15.238
-0.0643735
27.9877
30.4354
17.5209
24.2019
18.9997
-0.907183
17.1292
13.0506
-0.878808
25.3002
17.6048
27.8183
12.9222
10.8689
15.2279
-4.56876
70.2482
17.379
29.1125
70.4999
1.78254
17.4779
8.38687
19.4285
19.8235
35.1996
34.0835
38.4474
-0.0476091
1.36026
36.3201
24.2994
-0.707724
1.83651
11.3734
36.3829
16.3902
32.483
16.6796
70.6202
-1.43032
17.6667
19.495
34.8426
37.7543
20.4973
-0.0666653
0.743732
26.9084
-0.397019
-0.177414
26.7919
18.5391
70.9321
38.4008
35.8817
-0.0546372
17.8055
16.622
28.7749
15.3544
73.0842
-0.191541
17.0207
14.4245
9.77614
34.0686
-0.0236688
34.125
16.8312
19.2016
16.5194
36.1159
22.2484
20.8637
24.9751
17.0717
21.5409
34.9228
0.955376
11.0713
17.3676
-3.18341
6.91614
21.0646
17.4579
10.8579
-1.81277
5.36104
32.0115
38.7424
17.6117
55.1809
36.3356
-0.437718
33.9942
4.71709
27.6223
19.5543
21.8815
20.9951
0.609944
17.1358
19.5783
73.2182
34.1387
-7.83037
17.0506
2.54616
25.344
-1.72715
27.6966
21.9619
-0.190002
24.3857
8.37129
21.1088
3.94779
13.0155
23.1409
17.5047
10.356
16.2181
17.1719
-1.7862
2.47426
26.5925
0.469691
17.3633
34.2945
33.483
21.8934
-6.4628
23.9711
-0.0603459
20.9275
38.3797
0.0526651
21.1533
-0.0784702
32.907
6.55766
21.6032
72.0512
16.955
-4.09687
5.76646
15.373
30.6948
20.8766
19.0599
-1.07833
17.491
-0.671201
33.4977
30.1174
17.4041
5.21049
12.7749
36.3698
5.35637
3.65799
18.9214
26.3678
-0.181427
20.3732
29.1898
31.2427
27.5623
15.4049
32.6055
72.2062
21.1404
-0.496951
-0.0607001
0.0394636
-0.114848
33.2886
3.67112
28.5089
-0.182296
-0.110473
1.26023
8.88307
31.7842
10.6957
9.7344
6.56343
7.16182
10.4086
24.9671
22.3834
10.3366
34.7647
36.1952
19.4595
1.78581
19.4041
17.9341
22.4656
-0.000924993
0.800258
24.0545
36.2685
14.3111
36.6545
31.7151
24.6767
-0.000802127
3.28294
14.2445
9.80043
-0.00371446
14.3748
26.3598
37.9371
-0.734088
28.6077
10.8135
12.8054
0.32728
-0.0872369
24.481
21.5047
17.07
14.3008
24.0174
17.3362
-0.285448
25.5516
58.4138
7.92508
18.6786
32.8977
37.6746
12.6285
21.1142
14.2841
0.684967
-0.616162
3.07503
8.28462
11.2489
19.787
1.05489
27.3184
38.075
-3.5809
22.4697
0.0256368
9.6249
28.2914
-4.50416
15.6641
-0.743883
7.26077
2.79142
-2.80382
10.2263
8.26607
11.3044
0.0671948
17.052
-0.000895884
71.105
0.542293
35.1461
30.468
36.3506
22.7698
36.9732
31.9434
3.5567
5.91656
0.0204315
-0.254007
18.5024
5.71397
9.5977
22.7623
0.529828
-0.307166
0.315739
2.69085
26.4898
22.5154
11.3409
0.442559
14.4253
5.25756
-0.281705
37.6079
29.0575
38.3872
0.0743083
0.373039
6.16495
17.5964
4.77352
16.7206
38.9343
35.1095
-4.08546
27.4647
5.25386
7.8329
38.1291
33.6119
17.0822
7.65076
70.1711
-4.00396
0.0749775
17.1049
57.2759
17.3589
58.5765
22.6682
31.2047
-0.00294946
7.70244
23.2677
27.0776
34.9302
-0.00200658
-0.180432
5.37679
17.3623
-0.306511
0.0733444
27.3816
35.0828
21.7569
38.3253
10.171
36.1527
34.5599
2.9132
14.4286
66.2353
14.5127
10.9687
6.95786
-1.09496
37.2243
17.1067
35.3744
20.8981
36.2387
10.5855
8.90311
6.0325
35.1465
1.86373
4.60367
4.69113
-0.0820741
22.1733
19.2722
0.644381
27.6818
-0.031282
-0.0207928
6.00996
21.0758
2.05379
10.131
15.9061
4.45472
-0.092428
36.5734
19.0308
17.7214
11.0657
19.5318
8.17189
0.0150896
-0.00203275
52.1788
66.3354
20.0357
0.013656
4.99222
31.8279
10.2752
24.2997
-0.172771
18.3317
19.4199
0.206225
-0.0647022
38.6639
5.25566
7.70178
17.6151
0.989983
39.1817
16.1841
10.0427
9.60386
10.2375
32.1224
0.728622
0.0226412
11.2279
33.7435
36.1221
37.6022
22.3994
9.25025
38.0473
18.9199
0.611369
24.571
9.08528
27.3222
6.8696
28.4524
3.40108
37.5434
1.41007
5.40391
10.4239
38.3128
0.591467
17.4015
16.736
35.0641
17.5163
4.62383
13.5396
0.122792
-3.55933
4.45991
21.3244
17.5918
7.07112
26.5798
38.1261
35.3396
36.9877
36.9209
21.7342
22.204
19.0506
38.1156
38.3818
7.6793
3.53993
36.1125
0.0368322
-7.64381
13.0082
12.0482
5.30901
27.1116
-0.242114
6.01466
35.9448
34.9169
-0.32442
0.755347
27.0781
4.52721
-4.31237
33.8305
35.5046
-0.0560153
15.93
17.0481
1.56588
21.2576
31.9044
35.1549
4.61841
-0.00256623
38.151
21.1915
-0.3282
26.5162
15.2466
3.43817
-2.15929
-8.20203
5.58171
-0.276135
19.4467
0.770534
-0.263357
11.8285
24.536
-0.406678
15.7888
3.4015
17.5239
38.3495
0.0390956
30.5752
20.3956
36.1538
24.8136
-0.619147
-0.0841543
-0.488872
4.74508
34.513
10.4794
3.40789
35.4957
63.9735
64.4985
24.6203
27.1372
36.2927
-0.561238
17.4343
12.1791
0.495556
21.2708
3.37404
22.2351
16.0754
31.8045
40.8601
1.36831
12.7834
17.8818
29.7488
31.3901
19.8595
0.000350017
38.2978
5.07513
72.5272
9.90367
23.7223
15.8534
11.2395
5.90974
-1.00075
37.1475
14.1178
32.1835
56.1583
22.4988
-0.059601
17.0384
16.0401
17.2809
26.409
17.604
0.80016
13.8497
-1.10558
-0.0547495
10.3956
0.685105
35.1326
0.506143
35.2461
13.2322
22.1068
8.02451
33.3249
10.7657
36.2531
-0.00356
19.9618
5.78126
7.75194
16.9506
0.0306494
17.6228
28.2008
13.7162
0.61133
12.0433
34.4685
35.3229
6.51994
-0.470822
27.1749
0.387091
36.1334
19.4802
26.0003
36.2805
0.371249
21.9487
37.0808
-0.266211
28.7597
35.9778
-2.17176
12.9751
0.898808
15.3806
10.5381
-4.5473
35.1737
14.3519
26.9037
30.2084
-2.60182
0.269922
35.554
3.06804
5.0437
0.712457
35.8164
55.6924
33.8565
5.17773
1.31354
5.21168
7.49327
16.1295
27.6637
25.9081
34.3537
-0.33232
8.85142
0.00911096
5.55758
-0.00374953
-3.06519
17.0385
37.5738
-0.0844716
35.4677
-0.576729
21.3992
-0.687918
57.9051
11.3141
32.3704
-0.317246
18.6158
21.4092
9.91719
-0.0643571
1.21712
-0.424325
16.7225
7.17665
-1.02928
39.6363
0.253328
0.819185
16.9775
-0.608956
38.0397
31.3379
0.695803
21.4314
17.8433
-0.00892886
13.0635
16.5172
0.827296
19.922
5.18245
27.7218
4.96206
1.34276
21.1154
-0.0536629
4.231
-0.549692
38.2109
-1.17581
0.372333
-0.33055
23.8713
35.5418
3.18555
1.51369
34.9986
37.8214
7.76674
29.2292
12.0423
54.7963
0.279307
-0.0128181
33.9035
28.5824
0.266065
27.5714
-0.887501
-0.0322404
31.258
16.4699
40.379
59.8533
17.5633
-4.53879
4.91445
10.9022
36.6977
0.0093444
16.6336
30.5526
0.119317
12.396
20.8281
35.6528
13.1096
12.8136
31.2483
26.8835
18.5669
14.0569
37.5429
28.709
1.41526
16.5471
33.9393
-1.23168
-0.524072
15.1679
6.44134
9.77141
29.3832
-4.56597
-0.0309305
-7.9417
9.032
15.246
36.2636
13.0241
19.2728
1.14715
35.8485
14.1261
31.2371
14.0769
33.9701
32.2579
17.1663
33.9608
36.1204
-0.545753
31.0556
35.8171
15.2271
2.12887
17.2889
36.0862
21.4958
22.5521
37.6344
6.61837
3.41842
-2.07445
0.773527
23.3689
29.7093
0.803364
36.6138
32.1692
26.8552
-1.77864
22.3954
58.4378
16.3807
38.1213
31.4749
1.02821
29.2417
57.9635
2.95099
32.0736
60.8994
-1.28263
30.8234
0.672644
36.3202
6.21379
34.6176
22.626
-3.02425
37.322
-1.06242
18.5569
13.6178
-0.325046
13.6201
13.5338
9.37729
16.9065
4.39016
1.82994
27.9211
11.6672
-0.528316
17.0039
72.6048
36.8413
25.6033
39.6629
-3.13015
5.66056
37.5074
20.0871
-0.0577307
1.86457
16.9922
1.31372
14.3842
-1.70392
31.3334
-5.57111
26.2448
51.8454
30.3119
26.1835
5.56082
8.09742
-3.34461
26.8154
16.7156
0.000260781
-1.29469
-0.520233
30.9829
4.55084
-0.0062735
14.3008
11.8806
17.1963
34.589
32.143
11.8075
17.5836
5.29451
33.3166
16.4039
32.5959
4.45232
17.8176
18.0222
8.22824
-0.315054
0.735474
-0.0615642
16.9743
-1.04155
11.304
1.41787
29.6255
0.0186471
1.81065
0.143897
34.4966
13.1554
37.2527
26.1662
33.444
-2.73046
14.2877
37.269
25.0407
14.134
29.0814
-0.321614
6.41283
-7.60086
24.9351
0.0198381
21.3633
11.3244
17.1414
17.2937
35.9939
8.9935
-7.90832
34.538
9.05332
9.45777
5.45203
-0.00573436
-0.295091
-1.14383
27.6859
-0.61519
3.63747
11.4997
35.972
34.1012
18.5614
0.354504
14.2579
27.1512
6.64232
0.334139
11.0971
25.3402
0.0566325
4.59721
26.8434
39.3136
10.7991
67.9323
31.6084
14.7315
0.515815
60.3917
25.0709
2.23237
0.0888194
-7.385
-1.7824
9.32395
-0.0673644
-3.03341
28.8247
25.9024
15.5393
16.0438
10.7231
-0.080536
34.5424
-0.536262
21.1982
35.4411
-0.157436
23.6841
6.21186
35.1312
29.1328
16.455
35.4024
31.4654
9.36645
23.3808
0.359092
1.84357
66.4731
-1.75487
-0.320474
22.1305
-0.837173
-0.135179
9.82208
-0.406326
17.02
16.2196
3.00443
-0.391977
-3.66281
2.95673
-0.0891704
34.2277
26.0666
18.8189
-0.942973
60.3541
16.6459
26.0762
10.195
10.7195
36.1819
30.6789
28.1132
17.155
3.11327
0.0599705
28.474
36.9619
25.7249
-0.0791024
-8.50403
0.34564
0.0908159
34.5366
1.53017
27.0067
-1.08223
38.1655
19.2454
10.5918
20.0091
-0.0118144
36.4909
-0.937046
4.73957
29.3303
36.107
30.9482
1.48497
2.54198
30.7096
-0.0220723
32.9137
4.72975
38.1186
29.4274
11.5747
5.52869
0.0657899
30.944
14.2556
14.3501
15.0777
12.0221
1.16635
21.3034
-2.69076
26.7213
34.3977
8.83012
36.4673
33.6873
-6.87646
-4.43678
26.713
12.695
27.4791
34.2572
28.2738
11.5106
0.0105958
7.78646
17.0834
15.2409
18.7141
30.591
38.1177
-0.993978
34.7255
-0.0144794
17.9673
3.44625
37.7672
69.9469
-0.154753
36.2138
-0.0381783
4.50879
-0.0891323
-0.00220822
-0.00180131
37.8447
8.3083
17.4613
12.8718
0.928651
46.038
34.9746
8.92965
3.07644
-0.733097
-0.0892466
1.75297
22.56
26.208
36.2996
-4.37039
34.5372
14.0854
17.7972
24.2664
1.73876
28.6553
0.0407074
3.67564
1.78746
11.6633
-2.85284
36.0635
3.32555
0.00152389
13.1744
4.3975
38.1214
-0.0493567
3.22036
3.14294
17.4922
21.4548
15.9082
75.1382
32.6302
35.4971
-1.78063
3.44277
17.2914
-1.01828
33.4154
15.6283
-2.9985
23.6826
-6.01529
1.9856
13.0957
-0.426325
9.08462
45.2998
7.94186
27.7726
38.1071
35.6127
37.0241
-0.0256831
2.94363
0.037238
30.4113
26.3317
34.6299
10.3919
14.9623
39.808
16.379
20.4872
10.5678
25.7605
15.5019
0.0231018
32.0666
-0.697215
33.6962
28.4663
26.832
0.330275
3.4016
22.1644
-0.00862611
33.5886
6.31842
17.9677
23.4748
27.2943
36.9587
17.9398
39.3113
35.6309
20.19
-1.04647
26.3819
27.5038
5.46249
27.4634
-1.81627
21.5828
23.6169
8.85961
29.9726
0.38141
34.4868
35.1586
-0.066561
3.78167
0.082018
32.8823
4.66249
18.0721
3.64823
21.638
32.9182
5.67127
18.3579
4.64331
15.3084
10.2192
-0.0560686
1.25107
20.8066
56.7876
14.1889
-0.0397448
20.4145
-1.03264
5.14996
23.7908
36.7505
9.33742
19.8526
34.6857
9.45787
7.74917
20.7201
7.85314
7.81655
19.9073
26.9539
17.1324
-4.34698
-1.63942
20.1126
0.342453
-0.496076
0.0798313
32.5444
-1.16876
2.15665
21.0532
-0.0112717
5.92463
-0.260372
37.7791
-0.0199135
4.37203
-0.184517
6.23567
36.7772
10.0783
15.4289
-0.0788216
-0.0449384
19.3224
5.7331
-0.321142
36.7317
16.92
-1.6538
62.3448
4.65602
1.80358
14.1575
9.66779
-1.03287
27.9842
-0.391902
17.4528
34.6521
-0.306591
20.0406
-0.584359
17.4747
39.3498
24.3812
-4.53477
0.300543
9.37206
8.4098
10.0635
21.3403
3.7138
-0.885326
-0.18458
-0.382954
17.4219
15.9253
33.3672
9.03956
3.89758
27.0045
33.94
25.2477
-0.372092
17.2999
21.1608
26.3044
23.9927
14.2381
32.9095
32.9699
16.9164
23.149
34.1924
17.2253
0.313385
64.7164
71.6914
22.893
11.1839
12.3016
3.79825
27.834
16.1371
37.1841
17.3303
36.9809
57.2176
-0.781944
11.5263
5.55219
0.0310865
-0.0701814
36.8654
-0.119604
25.0856
12.3682
19.3974
38.3523
-0.529391
20.2549
26.3119
-0.284303
36.9311
16.0427
-0.933536
26.449
32.7692
-0.00437006
27.1238
1.71115
25.5098
22.4485
54.9858
36.5293
-0.931045
-0.823572
34.7557
37.7246
37.7155
4.38772
20.4411
37.2738
31.0275
16.6146
-0.00799622
33.8553
19.0788
10.4454
12.6048
34.3203
14.1769
3.81547
24.1924
-0.288658
19.177
32.3707
37.962
33.4758
33.4756
33.0502
25.8215
-0.389367
-0.691656
-0.958349
-1.03066
33.5528
34.6012
33.4881
21.631
-4.4889
16.8169
14.4417
2.33677
5.14769
-0.680873
51.7055
9.68141
26.2249
-0.0226482
0.0238795
3.35742
0.0668968
3.55222
5.37921
22.9309
4.41201
5.44283
29.8573
57.486
5.27381
-1.80621
4.49163
-1.01968
-0.303024
4.34687
11.793
0.907756
5.18183
25.1618
-0.0696898
26.532
21.0651
10.4477
-0.44444
9.10158
26.3925
15.5091
30.6675
18.0164
0.788789
22.9986
14.421
-1.16411
-0.0208401
0.354534
6.54013
36.5513
0.531077
3.50098
6.47871
12.728
-0.539679
36.5003
-1.27927
32.7636
1.97214
-0.73033
0.327088
16.9853
65.9445
35.5853
33.4579
33.9795
1.67447
18.4353
-0.119317
-0.00537841
-0.813945
6.07165
37.4371
20.5537
47.1499
16.0868
36.814
27.3182
13.7553
0.00019117
26.3939
36.0307
23.695
-0.0837529
-0.962292
2.91058
37.6574
34.4617
20.9763
23.0128
32.8498
4.19486
-0.0822518
-0.0571409
26.3659
4.23533
31.5182
-0.0230021
22.894
8.97963
0.0944712
32.8351
19.0985
31.6606
-1.4881
1.71597
27.5048
21.9636
24.0871
11.5471
3.99018
27.2613
3.48306
21.4693
34.9363
33.5511
-1.08628
32.9768
-0.00178958
0.931958
34.9959
12.629
26.6403
26.8589
4.67356
37.4918
25.9707
-0.0547694
67.6998
4.90795
5.06259
-0.408932
-0.171618
51.1906
8.47079
3.87059
14.1572
7.24236
33.5211
36.0447
0.265096
-1.85253
-0.60595
19.6047
-0.443034
0.0931922
-0.0912922
32.8153
20.8825
5.03706
18.7072
28.1358
62.1841
35.5397
33.5792
37.8431
-0.0530142
-6.72526
29.0372
12.1267
16.5711
-1.18852
35.9369
4.9986
16.6446
2.89126
27.1468
61.6052
26.1552
-0.00126922
30.3225
-0.160546
0.00143364
23.9445
-1.45316
18.0922
32.1144
14.5139
3.93308
-1.63608
35.4194
38.0238
37.0348
38.2392
53.8347
-1.87518
-0.873486
22.63
17.2313
8.93403
-0.209627
18.5418
7.33702
16.0594
6.37987
-0.0341762
11.8045
22.8992
36.2497
34.5147
-0.0409636
30.2124
2.84448
73.1735
65.1579
13.0591
37.16
-0.596622
50.0517
25.5738
-0.519839
0.17108
28.8857
33.7808
15.7408
22.5064
28.7822
11.6781
-0.0120933
-0.0077976
28.6943
21.3032
17.828
-0.874279
31.114
-0.210854
-0.0047317
-0.770198
7.72542
12.9181
-0.0592727
18.4657
30.7815
35.6715
1.58968
32.0509
5.55275
35.808
-2.79402
18.2337
0.086312
26.8004
28.653
27.3822
31.0955
36.9942
12.5708
17.3544
37.8416
-1.36151
34.4778
7.69887e-05
31.5403
22.7474
33.315
0.327269
-0.067646
25.0473
33.8268
33.6086
0.0263466
3.80072
31.4285
3.59441
-1.25287
27.3918
20.6641
17.5499
36.4258
-1.82994
25.2602
9.93599
27.8154
-0.396334
35.0395
32.9564
27.4331
-0.779965
32.9375
16.3459
23.4089
32.4901
0.399179
18.6168
22.9927
20.4009
-1.71668
15.2857
12.0044
-0.0489349
14.6019
-2.79743
4.79625
16.0145
-1.60518
3.63663
25.2604
0.105765
28.9811
65.4152
33.7464
-0.378444
25.2905
-0.0894442
0.937982
11.8941
-0.142728
9.23114
5.91989
65.646
37.0082
17.5423
18.1462
31.5036
38.3489
-0.0881421
14.9905
24.2103
24.8146
-0.0653544
32.2664
15.0491
24.3592
0.285604
11.5386
-0.167391
33.604
-1.97791
34.3346
0.339806
65.7698
-1.1441
-0.0247917
38.1532
-0.187426
36.0472
31.214
26.0768
-0.610177
36.1943
36.7712
38.4549
36.7167
37.693
34.2616
-0.0646386
16.1831
36.1071
0.652352
24.0116
32.0731
-0.0374562
0.0636347
37.2342
24.5693
28.2196
14.4492
32.4025
-0.409528
0.473212
15.9673
16.012
16.1648
38.271
33.8023
17.4698
36.4407
37.7314
24.2077
36.022
5.51211
36.0108
9.25607
26.466
5.45631
14.6843
13.0756
18.4888
-0.0627094
17.8662
-0.0758089
35.9598
27.3699
-7.33792
3.27542
18.3626
21.8923
-0.178933
10.625
17.6817
10.8894
17.8534
15.8057
-0.77085
10.2181
26.4078
0.284932
25.7058
-0.0775689
33.3358
3.68532
21.0895
0.2794
-2.22636
15.927
11.4693
20.8418
3.37881
28.3753
17.9872
64.1438
-0.301647
24.7176
26.4621
15.3942
36.5054
1.03292
67.8909
15.3959
9.31635
19.9119
0.0808557
9.06424
11.4078
-3.14118
-0.295075
-0.901321
32.6978
-0.00129522
0.261792
0.117535
-0.0948323
-1.8545
35.7662
30.5905
-0.558168
21.7074
-0.0947601
21.1073
11.6473
-2.98511
25.5707
-1.58442
34.7566
11.9539
3.96709
11.3995
-1.79361
21.7788
-0.448524
38.3398
5.30218
24.7632
17.3065
-0.0698306
32.7213
-0.924179
16.0514
36.5248
3.72188
17.5574
35.0985
49.5009
17.2733
15.6637
26.1365
2.41769
24.1312
-0.150699
15.7837
3.06652
35.9671
21.3105
30.8116
25.683
-4.55598
26.94
22.4373
21.6511
35.4685
6.0054
18.9083
-4.27157
1.04005
-0.290549
19.7709
31.6326
-1.25825
15.5577
14.9988
3.5132
15.8348
-0.479376
0.771721
-1.60701
-0.187333
55.7425
4.22111
34.8407
-0.00438635
-0.71401
0.0849147
27.4939
-0.18911
34.1783
30.3069
36.0622
0.688767
13.0652
9.21678
6.30314
2.27576
30.429
17.4201
17.3522
5.60102
-0.583423
33.3866
22.4501
18.6335
-1.03849
0.660655
29.7776
-0.318728
11.7619
26.3896
35.2678
32.8049
-3.01759
-0.388161
12.9332
-0.31669
0.105121
17.4271
-0.00371208
14.4314
14.2652
-0.0389429
0.0291066
21.6776
20.0353
16.8825
26.2838
0.0485124
30.7488
20.5651
17.8571
0.273649
36.656
-0.557292
36.9092
-0.763193
20.05
-0.025926
11.9456
36.8509
10.3185
20.4227
17.2068
0.201177
24.8268
4.92924
21.8103
16.647
11.058
31.1561
25.1048
21.2068
29.8458
1.91549
0.0520461
-0.36032
17.0555
-0.0821893
4.95813
25.8608
35.9832
27.1527
-0.875901
30.5131
9.3498
3.16597
21.8792
24.3314
19.7503
0.0274389
29.4597
21.938
22.4505
68.6145
71.4823
15.9777
-0.0518366
5.1143
3.12272
36.878
19.1595
21.823
19.7984
26.3975
21.5743
35.6215
-0.1621
19.0772
9.25453
0.00285255
3.72134
28.0424
3.5543
68.2588
22.225
26.3942
36.1272
0.764906
-0.00201238
0.0464847
17.1052
25.9671
17.4041
-3.08496
6.06462
2.45626
33.7487
-0.151422
22.0687
-0.886532
9.46954
8.98044
2.51559
30.0523
17.8851
11.2557
22.252
28.7992
16.4268
37.8602
34.705
36.3145
16.5923
11.0627
46.8023
21.7023
34.5792
17.361
0.0830999
-4.39511
-0.00361856
68.7892
-0.648802
0.950976
-4.49897
25.9605
-0.29265
-0.0810806
23.8557
13.279
0.000902116
-0.0245067
4.27945
3.36149
0.052978
25.5035
9.54205
17.4369
30.0819
14.7335
19.8999
21.9156
14.8411
0.374744
-0.517045
38.1868
2.6059
17.052
0.0772987
16.9817
17.0594
0.450223
22.6665
15.9876
11.6113
36.4172
-0.160849
13.4577
-0.81658
9.56445
-0.571145
-3.30563
37.2786
8.81851
-0.00921593
34.8772
3.0627
-0.628591
6.78577
3.90904
25.8225
16.441
-0.336217
-1.53857
23.5371
16.6962
0.0578646
13.2122
16.1937
24.7378
18.5388
19.7149
35.7448
11.816
29.4634
34.0081
-0.576267
10.1451
38.2551
0.000452541
30.0338
20.1208
-0.00318516
35.5184
36.9059
2.04539
27.5761
47.4445
25.592
3.44638
14.479
-0.00364818
2.85346
30.7809
15.8599
17.345
-1.65859
47.5696
2.76277
-0.420808
-0.313822
26.3075
35.6394
20.7898
-0.00254406
0.113442
7.14746
-1.46315
13.6297
35.5441
65.7621
14.5823
14.5776
9.14477
31.1057
0.0340565
27.1111
12.1669
38.0241
5.068
28.991
-1.67573
-0.807165
3.2272
-0.0389589
-0.0655347
30.4145
1.11982
30.731
-0.149508
26.5639
-0.128967
18.098
14.1465
22.3373
68.8805
19.9386
-0.0686485
31.5986
16.3747
21.8694
32.4503
66.4744
17.4205
16.3045
-5.18684
32.9528
9.52263
31.2516
12.415
17.4909
0.252538
35.2497
22.4574
-0.281453
-0.050799
33.7357
-0.947648
29.0777
26.0369
9.44816
-0.134155
11.7371
35.5567
32.5528
3.61236
35.3898
29.7138
25.1128
0.564882
-1.65465
23.1232
36.8936
16.2515
12.3314
-0.93517
0.0721805
14.2193
22.9651
26.626
30.5254
10.1544
6.21803
17.0921
16.4169
19.367
26.5503
22.4182
22.5305
5.44569
-0.0676452
21.9994
16.5391
6.05957
-0.397555
34.0095
34.7211
38.9705
33.1949
16.9049
34.2587
-0.394548
36.3325
14.1331
11.2802
-0.0818223
24.4005
24.8323
-0.93272
4.15664
37.9095
37.6914
5.5131
36.1772
36.4853
28.2331
16.0659
17.9142
-2.74486
35.4869
14.2198
-0.475812
-0.0114134
-0.501271
16.9197
1.47479
11.4422
16.6111
5.35711
-0.976071
33.5591
20.2882
38.0849
26.2832
35.6404
18.8683
-0.0377012
29.5381
4.63816
1.20407
34.8383
33.4253
33.114
27.7526
12.2428
24.7793
16.3857
0.0138669
25.8977
-0.649916
17.3401
12.9725
17.8915
-0.0234414
15.7246
31.3225
0.000107367
24.9212
29.5722
-0.491476
-0.404589
-1.0362
34.2828
31.9848
-0.00649535
-1.12719
0.0694581
-0.366012
5.94988
-1.10721
2.08962
2.03366
0.773593
1.09441
-0.506746
-0.487489
22.1917
-0.0354988
-0.0310043
19.3184
18.8078
22.4104
38.098
20.5455
2.59534
2.89401
-0.00143786
8.98071
14.8758
12.4141
14.9545
-0.46416
38.1652
28.2055
35.0837
16.5951
22.1114
16.0798
19.2435
0.0242221
17.8533
11.8423
0.35454
18.6058
19.1949
-0.0815105
29.6816
33.8275
0.0892307
37.7
24.1367
11.9322
12.4505
-0.0848495
31.2845
15.0703
-0.00659958
29.1864
-0.0822136
-0.956627
33.3131
66.4578
1.40626
9.12194
-0.0298001
19.4443
5.50656
35.604
26.1238
0.0760993
0.206679
4.29367
20.8225
0.498103
13.1519
1.34331
59.2647
33.361
4.31503
-0.111419
-0.72307
18.2055
26.1075
36.1282
19.5874
30.6761
5.8439
45.1283
62.931
30.0358
37.3082
-2.64162
0.782815
18.0835
-0.0814602
35.9749
34.179
31.1531
48.8685
31.3521
33.1228
31.3676
37.4474
35.2427
27.4734
7.40135
38.2364
54.3859
-1.25363
12.7516
22.9726
1.85376
17.4646
-0.36636
15.0543
17.8308
6.24274
19.4551
0.0733352
28.0844
11.6626
23.0823
-0.0727532
0.534233
-0.171628
-0.018056
34.4204
33.5028
9.08502
-0.44726
19.63
-0.0647663
0.094862
0.806506
-0.421002
5.40705
61.1803
10.71
33.1933
-1.56066
31.5553
26.2327
14.6989
5.40293
1.62469
22.897
48.7233
-1.05388
-0.0147657
8.94357
16.0036
16.9378
25.7132
6.23749
28.9047
25.9517
3.44897
4.3576
30.3034
0.420108
-0.944128
-0.106417
-0.00609341
-0.171943
23.7913
32.8068
36.3776
31.2537
-0.23936
-0.0992317
-0.481426
17.8755
30.2343
24.0756
56.3219
33.2389
-0.165939
2.95796
18.4685
11.9242
17.2248
15.5113
15.4704
20.1079
7.13486
26.1191
7.36903
0.779437
4.01036
27.7941
9.99841
9.71957
75.1138
7.6783
38.3547
36.1727
34.4087
38.4589
32.3897
21.028
1.3323
9.57538
31.1657
35.5811
0.620092
-0.0505609
11.8268
13.4047
-0.790356
19.4886
15.7046
21.607
37.0399
-1.00394
27.663
20.1596
17.6749
27.5678
20.3486
12.0316
22.0135
15.0689
21.3725
3.1169
25.5225
-0.540818
21.1315
38.0973
20.171
5.92821
0.590917
35.6777
7.45374
17.7218
14.1504
-0.0629897
38.236
30.7816
20.34
5.46434
11.8294
14.2635
0.752373
66.1415
18.1862
15.0828
9.15017
7.09125
0.0697728
-0.252586
24.8169
-0.053984
17.4011
21.7662
15.5543
-0.345847
1.73273
0.270319
7.31955
26.0093
17.2651
27.013
17.6432
20.2228
3.10954
2.30639
29.8911
3.15166
-3.21061
31.65
2.30953
35.8836
36.0275
-2.26312
34.1809
3.70372
16.9743
-2.28142
-1.75775
20.3672
47.2386
5.08258
21.7282
6.11704
34.8202
12.0268
10.1581
-0.476375
0.508906
38.1774
36.9348
17.7473
38.2588
-1.4208
35.7643
14.7475
7.19463
28.3221
28.1341
-0.207963
-0.998473
37.5046
16.0356
-0.0684557
35.3215
33.4477
19.9465
26.4142
38.1112
35.6939
9.05147
17.4544
0.57408
9.39488
10.7262
5.61148
19.3999
0.26664
3.2251
13.6977
26.6188
34.8781
19.5312
37.362
48.0594
2.1173
10.0232
22.4499
2.52218
29.7107
4.16945
-1.44886
33.7959
19.3478
55.4541
-0.723548
29.0926
17.6895
-0.0539807
10.5614
-0.206315
9.01389
37.7007
34.187
35.5301
9.86859
24.2578
-0.407375
-0.202236
0.926659
35.3944
-8.26933
10.5773
-0.201327
36.9231
28.6129
0.125409
9.764
31.2091
-1.01248
15.9478
-0.867414
7.56354
22.3262
34.1203
34.1107
28.3637
-0.247416
18.781
4.51636
15.8182
-0.223479
12.0464
0.0556873
20.5463
0.364495
36.937
17.3831
17.1771
37.5283
-0.18231
37.7875
-1.62675
37.4635
0.012687
35.8397
12.4474
23.5993
23.4351
30.3514
35.4323
32.9856
35.0288
67.4504
28.0355
8.97674
17.9365
0.423147
46.4371
36.7102
-0.420951
25.7619
21.3815
-0.368964
35.5213
26.811
26.9325
-1.29783
-2.48814
22.2256
19.059
22.2102
25.9834
6.36005
26.9592
24.511
27.5609
27.2866
23.6806
8.69564
-0.4574
50.7277
26.093
14.5209
-0.00163563
9.42427
36.1215
36.3435
14.6741
17.9292
31.7604
-0.200038
27.2256
27.359
35.3381
26.3525
17.6816
34.9401
2.55652
28.4482
37.4166
-0.948
4.26091
26.1219
-0.464898
-0.213217
17.5557
0.000827606
-1.87336
-0.428784
37.3797
28.5157
21.3881
-0.0308705
37.2533
8.65472
0.0390563
36.7437
17.0993
25.3544
15.7608
38.0638
0.428093
-0.0205754
-0.560204
37.2688
33.2276
15.3832
28.3164
29.1706
1.97987
25.167
55.6818
34.6981
25.6049
18.975
13.2114
17.0978
30.1351
17.7328
-0.272749
24.8287
32.6214
34.1157
14.5409
26.3744
32.4991
29.1573
-0.145673
17.0715
25.4058
30.9069
0.0694019
38.3448
26.7951
37.6198
-1.4231
34.1206
32.7795
-1.55302
18.0336
16.9643
26.4103
1.28692
3.71335
14.496
27.3389
53.2493
3.65433
27.5593
2.26168
3.16765
8.27855
55.7131
2.42999
13.0267
20.8215
12.1246
7.8182
1.96463
0.439337
1.62382
30.9197
12.2629
34.3999
0.064874
18.5963
1.05218
14.2701
-0.18441
27.213
0.0743639
0.0262437
30.6685
21.5473
10.6401
27.3279
17.0229
36.5253
-0.107177
10.3172
27.7595
8.16205
27.7714
0.868789
5.41228
4.50412
9.32385
27.8735
31.2913
20.4813
19.3135
19.3833
4.31549
7.65325
-0.0514721
-0.43614
13.9297
15.8051
12.619
17.8714
0.0258574
37.3469
8.82836
-2.82456
16.7807
-0.264604
34.8352
23.1247
59.8316
18.5308
18.6055
37.7235
24.2914
28.1705
1.94509
33.6414
17.3855
-0.719456
35.8112
1.86941
5.68146
-1.05202
26.2543
4.53807
35.6129
13.4578
12.6887
6.40165
32.559
38.127
14.1446
5.51323
-0.335068
15.4181
34.8565
-2.56707
17.3445
21.2941
-0.0388088
36.8497
-2.85838
-1.109
23.9861
31.0796
-0.621405
14.116
0.08684
27.8266
27.8159
29.3241
4.6974
29.028
19.914
37.4343
0.0605562
51.2217
14.1015
7.25845
7.11303
26.0284
15.9379
6.08952
-0.0058301
32.2028
-0.00528196
23.6221
5.01641
27.9921
30.5193
32.0905
0.72493
30.9103
36.2773
2.67704
9.77419
9.21855
18.9873
-0.00080252
27.3384
37.1401
12.2908
0.0289725
22.3235
3.48021
19.8223
21.6193
28.2528
33.8615
19.1496
53.2546
29.7212
0.541918
6.89664
-1.6826
-0.522162
35.565
22.9078
0.628355
62.8125
-2.69906
14.2421
0.365439
16.4828
30.7952
0.0265982
0.127918
8.76867
-1.90098
-1.36962
14.1692
19.6667
2.86363
33.4795
-1.76169
5.23751
22.6097
16.6858
-0.860505
4.32402
10.0594
14.053
28.4676
5.17507
14.2176
38.0107
13.5013
73.9567
16.6965
-0.279191
1.59768
17.7866
36.3809
58.2679
8.3997
-1.60735
23.8052
29.9541
4.93864
0.288466
0.0570759
31.1125
0.371336
26.9518
0.898323
60.4269
0.70365
36.299
-0.337308
-0.91593
-0.149276
14.1967
5.22906
14.2099
1.85846
35.2551
24.2102
33.9832
36.9577
30.651
6.58897
34.9111
6.81439
14.7479
16.4864
6.50752
0.38347
-0.0521157
35.1951
28.9322
-0.396268
21.5533
30.4746
-0.0390312
16.2404
-0.778719
27.5784
35.1001
32.1821
22.656
18.9793
12.8389
13.2869
9.27729
0.891568
13.0832
12.2821
0.785214
6.69191
20.6007
-2.40491
63.3836
15.3496
-1.02905
34.0365
22.9817
36.8253
34.4034
10.0733
21.3101
4.52971
-0.0242511
35.2505
22.4698
29.2282
12.2308
31.3505
48.3525
-0.0832053
12.7529
16.7611
22.6971
-0.174606
34.7139
15.8302
28.8634
-0.00434181
24.8512
-0.338705
14.0569
20.7075
28.6311
8.46727
0.67653
1.75648
32.6816
25.3956
-4.04994
-0.219768
16.9239
31.4037
25.8094
27.1822
28.319
33.8961
16.7614
7.20951
20.9605
11.7896
23.3885
37.8228
1.66521
68.1118
32.8907
0.54498
14.5886
40.188
11.4712
7.84514
1.38327
20.56
6.98678
17.8112
8.74274
17.6262
19.2941
26.0454
32.2691
36.2028
-0.240733
38.0295
31.2589
29.2342
10.0434
-1.03198
29.5343
34.5378
38.2683
-0.0304264
20.7708
29.9275
30.9874
-2.57586
0.357194
17.9849
12.9836
-0.27756
-1.64576
11.3159
3.4408
11.9374
1.68249
-0.791726
24.3542
1.44809
30.0446
-0.469173
-0.718722
21.7206
13.9223
16.626
22.7398
1.77999
4.81158
16.1554
30.3468
17.6137
26.6899
35.5115
17.7602
3.19679
3.74349
29.0897
-0.581414
33.172
20.9289
1.776
18.1271
15.173
21.9699
28.2907
36.0581
34.8245
-4.25654
26.1779
15.1947
5.50452
4.79321
0.051986
13.8411
-2.67577
22.4613
0.17826
66.1839
20.0298
26.0369
34.7101
67.9965
0.0185389
35.9848
-1.07398
0.16453
20.1395
14.7592
-0.478277
35.0067
66.9316
28.2854
5.59428
11.2255
36.8685
10.3013
68.493
-0.0291438
-0.269262
30.0862
35.7681
11.8496
22.1131
36.698
3.12554
-0.411457
66.6937
16.7125
-0.707777
-0.685241
34.4494
-0.986558
32.1807
-0.289633
19.9707
-0.921609
27.9029
5.97859
9.25249
7.48313
30.5958
1.96115
16.9621
25.9294
-0.207155
12.8186
33.6037
23.632
26.5226
-0.0770222
31.1631
4.71061
24.0167
36.7601
35.1533
-2.71811
35.4787
3.14006
-1.16561
-0.116032
12.3991
54.3769
36.1867
-1.60802
5.79101
26.8189
15.3522
37.1235
31.4825
35.3788
-0.077116
24.7769
15.2182
20.0817
2.64368
-2.20175
34.6714
1.68582
72.5974
36.1512
-0.0140824
31.8918
37.2212
16.7078
-4.493
14.3002
23.1067
36.8247
16.6686
6.06702
36.8212
-0.337178
27.8904
37.9014
15.8499
8.39338
25.1924
24.1207
26.591
28.5729
19.4851
28.2267
16.0369
-1.17495
29.6465
-0.101774
34.7693
5.1671
28.0581
22.7886
36.8178
0.351747
19.4435
15.6885
2.08421
53.1343
26.5966
0.127871
32.6519
21.4068
3.56899
4.14249
23.7049
1.07107
9.33666
18.8741
-0.28966
3.13457
19.3762
-4.02886
35.7917
0.000689127
24.7294
-0.227716
17.968
37.2774
3.49567
36.8569
-0.465863
-0.000461375
16.8096
-0.50343
-0.32432
26.4554
36.0002
17.925
4.83948
12.7445
15.3943
0.00760305
25.3003
-0.0419053
21.0313
19.2969
5.01889
-0.169812
-0.500371
-0.146112
35.9
22.0683
18.0499
33.8102
-0.00664747
-0.903179
-0.0128497
29.8552
21.3544
7.49735
18.0427
-1.65354
0.0606921
3.6048
4.19232
-0.0543372
29.442
25.8613
32.9719
-4.24778
-0.665101
18.7202
36.8258
44.4885
0.0338499
32.9537
30.8043
29.5865
1.86329
-2.82343
12.7204
36.1405
22.4837
14.1066
16.6507
7.22968
30.9958
30.2155
20.1692
14.241
26.9163
25.9144
15.4279
6.38436
15.6184
30.6637
5.37869
0.540695
34.8767
42.5246
-0.340476
32.3414
52.6154
38.0369
33.9305
12.4906
31.7252
2.9855
1.8928
17.3752
25.4537
0.0146646
36.5636
34.7394
-0.759872
20.3683
7.55285
8.46405
-0.876917
29.352