/*--------------------------------*- C++ -*----------------------------------*\
  =========                 |
  \\      /  F ield         | OpenFOAM: The Open Source CFD Toolbox
   \\    /   O peration     | Website:  https://openfoam.org
    \\  /    A nd           | Version:  7
     \\/     M anipulation  |
\*---------------------------------------------------------------------------*/
FoamFile
{
    version     2.0;
    format      ascii;
    class       surfaceScalarField;
    location    "36";
    object      phi;
}
// * * * * * * * * * * * * * * * * * * * * * * * * * * * * * * * * * * * * * //

dimensions      [0 3 -1 0 0 0 0];

internalField   nonuniform List<scalar> 
44078
(
-595.118
672.636
-77.5175
1069.91
-1075.61
5.69377
-333.875
380.161
-46.2855
218.311
-257.267
38.9565
-497.762
497.762
211.709
-258.482
46.7728
-393.077
376.121
16.9558
34.8215
-572.866
538.044
665.025
-834.242
169.217
-1009.42
1102.37
-92.9469
565.438
-156.055
-409.383
-534.843
534.98
-0.137286
-687.596
582.537
105.059
-859.802
868.857
-9.05518
284.438
65.3848
-349.823
384.041
-9.90892
-374.132
814.278
-666.939
-147.339
-427.189
424.535
2.65385
160.273
314.835
-475.108
288.813
-354.767
65.9544
-593.814
81.7309
512.083
725.057
-60.0326
48.8437
-382.719
136.295
-488.829
352.534
202.908
-75.2639
-127.644
1072.57
-2.65825
659.667
-680.777
21.11
-302.506
39.5174
262.989
324.508
-40.0699
-444.861
543.832
-98.9709
958.981
-246.062
-712.919
-687.351
775.474
-88.1222
255.52
-220.113
-35.4069
483.472
-78.0048
-405.467
90.9099
-393.416
258.834
-431.007
172.173
463.27
-608.547
145.277
290.326
-43.8054
-246.521
826.651
-982.155
155.505
1064.93
-238.279
-1018.49
1035.93
-17.44
396.719
-84.1849
-312.534
704.105
110.173
181.217
-314.123
132.906
1228.5
-777.724
-450.775
-590.939
146.078
534.906
-538.705
3.79964
230.461
645.593
-876.054
226.918
537.105
-764.023
-101.98
565.25
-397.988
185.791
212.197
-5.95781
-226.671
232.629
-678.994
-8.35778
235.943
-24.2344
422.822
-38.7814
-293.358
-59.5874
352.946
523.23
-499.046
-24.1836
-34.3803
-559.434
-467.334
48.8567
418.478
-293.217
-40.3556
333.573
799.472
17.5797
-817.052
-409.135
569.409
-16.2732
-247.805
264.078
-225.439
484.273
-362.927
464.262
-101.334
255.212
207.201
-462.413
493.61
-118.429
-375.181
429.682
-52.1217
-377.56
-430.209
-14.1572
444.367
-986.922
-31.5648
1068.8
3.76903
339.702
239.892
-579.594
-247.445
549.114
-301.669
191.476
41.3036
-232.78
-429.816
380.015
49.8003
-396.336
397.51
-1.17431
310.591
-163.801
-146.79
-249.658
-56.9889
306.647
-699.268
16.5279
682.74
403.942
-82.7896
-321.152
-247.549
247.549
61.3789
-759.656
698.277
-668.113
72.9946
-947.207
848.245
98.9621
-322.834
-70.2433
-42.1932
232.887
-190.694
532.579
-112.635
-419.944
-644.378
-43.2177
652.264
-69.7264
90.0102
83.3519
-173.362
-360.96
102.054
258.906
-304.369
54.7105
848.067
-621.149
585.031
-611.875
26.8448
214.971
-88.9701
-126.001
-395.919
166.733
229.186
-34.9509
261.008
-226.057
-846.82
847.731
-0.911696
-39.9817
-151.602
191.584
294.388
5.79654
-300.184
-711.431
12.1632
-260.727
279.927
-19.1999
778.71
20.7621
433.849
-647.898
214.049
204.397
-210.355
-767.833
836.013
-68.1801
676.603
-712.584
35.9816
74.5895
577.674
943.82
-846.984
-96.836
-206.241
245.961
-39.7205
193.991
61.5291
353.032
133.363
-486.395
1009.1
-256.888
-752.214
16.5077
564.726
-581.233
-11.8701
-587.981
599.851
542.72
-203.018
135.053
425.177
-560.229
-302.46
405.185
-102.725
76.7063
-814.818
738.112
-701.45
454.005
-13.9103
-205.373
219.284
27.2937
-861.726
834.432
-325.488
341.9
-16.4119
-16.1726
271.385
23.9016
-891.235
867.333
-378.347
358.102
20.2447
-92.1733
-335.016
24.1595
-298.572
274.413
706.502
-787.712
81.2095
725.989
-860.304
134.315
-164.835
346.052
183.942
126.649
222.514
-208.298
-14.216
303.023
-328.797
25.7746
-136.557
570.406
632.995
325.986
152.972
105.736
-258.708
272.442
-311.072
38.6297
212.386
-259.454
47.068
-27.5483
321.936
-365.195
-13.1514
2.19953
-181.054
178.854
214.582
-53.9632
-160.618
181.126
827.977
-198.07
-739.273
937.343
-101.042
-396.72
523.116
11.7893
239.285
-222.191
-17.0943
283.53
-217.328
-66.2025
8.58799
-228.798
220.21
-397.601
643.59
-245.989
44.4426
516.815
-561.257
984.167
-886.839
-97.3288
790.803
-787.07
-3.73244
-568.404
-241.912
810.316
-145.209
721.998
-576.789
451.406
-442.691
-8.71482
-262.189
18.2482
243.94
8.47308
-752.192
743.719
-186.267
-211.721
-241.18
228.211
12.9691
241.284
-22.9729
31.1497
1020.85
-572.449
-448.396
735.192
-933.262
-396.375
93.915
7.92002
206.662
16.6111
-778.353
761.742
-90.3472
-856.859
414.922
-450.6
35.6779
-106.881
832.87
51.5982
-737.025
685.427
-239.098
-23.0907
272.442
20.857
243.548
-264.405
-431.441
431.441
81.7984
680.969
-762.768
-310.118
49.3906
-580.495
597.003
346.176
-314.463
-31.7135
-777.827
-63.2635
841.09
-158.673
456.117
-297.444
466.383
66.1965
430.688
-440.697
10.0089
273.324
-60.9379
-187.558
-354.846
542.404
499.159
-380.421
-118.738
-327.193
21.4099
305.783
786.797
-80.2947
-518.108
-82.7144
600.823
-660.977
660.977
-134.903
506.957
-372.054
97.4789
-318.209
220.731
-919.645
351.241
305.212
-355.056
49.8436
436.255
15.151
793.756
-459.592
-334.164
933.928
-86.8426
-847.086
71.2446
143.726
-847.734
614.881
232.853
-36.8225
283.066
-246.244
-201.357
224.008
-22.6507
-47.8366
-487.006
875.828
-890.471
14.6434
-86.1258
428.571
-13.6487
789.87
-796.099
6.22847
244.324
-5.03926
35.6108
-241.851
822.115
-963.797
141.681
280.051
-336.902
56.8509
570.336
-570.336
899.931
-93.2112
-806.72
594.023
73.1195
-667.143
67.2239
-333.163
265.939
-213.458
286.725
-73.2662
-481.61
322.936
51.5274
738.343
-392.606
528.901
243.394
-172.15
-684.219
-176.085
485.217
-630.426
453.03
-500.484
47.4538
-909.261
1046.72
-137.459
-578.534
555.25
23.2841
507.215
-581.392
74.177
130.331
743.903
-874.234
211.122
530.895
-742.016
723.36
505.139
322.765
742.164
318.551
-230.608
-87.9431
-291.337
291.337
370.16
-400.962
30.8022
-26.913
1095.72
267.637
-320.613
52.9754
531.809
-487.366
-297.43
-562.372
551.22
-564.298
13.0779
-28.847
904.675
260.606
-297.429
-241.391
202.816
38.5755
498.636
-587.29
88.6542
-197.449
959.164
-761.715
588.405
-81.1905
772.724
-381.823
-390.901
336.957
-48.1443
471.968
548.877
-220.573
178.38
-743.83
59.6104
-946.962
37.7007
476.988
46.2422
-680.046
891.168
-709.11
-58.7234
180.601
-203.709
23.1077
-73.9877
915.319
-841.331
-38.0622
-817.788
855.85
177.474
-175.275
63.791
165.009
-228.799
-6.4853
-365.725
372.21
331.634
-307.474
-616.776
219.175
-281.851
467.684
-185.833
908.575
-678.114
303.724
14.8272
299.295
10.7301
-310.025
-564.947
195.658
369.29
459.143
-28.4552
548.875
-736.433
-381.525
-14.8105
645.886
-746.161
100.274
-179.685
134.44
45.2452
-655.953
638.863
17.0899
237.571
-216.714
68.2786
175.116
-744.722
826.521
-342.924
337.983
4.94152
67.8934
-361.593
293.7
257.449
-201.093
-56.3567
525.492
-328.056
-197.436
12.0156
-345.648
333.632
-496.572
484.702
-89.3421
317.402
-228.06
-664.013
163.256
500.756
-357.408
-38.5116
653.616
6.05112
443.714
-20.8916
-190.959
45.043
145.916
-22.7863
737.2
-714.414
-866.039
996.37
318.31
-154.029
-164.281
677.277
-775.043
97.7664
426.53
346.194
706.028
59.9514
-765.979
818.114
81.8168
567.823
-542.19
-25.6337
1093.75
-1012.34
-81.4099
1.09241
-290.615
289.522
304.39
-5.09531
64.2726
138.636
212.341
10.1726
198.31
-194.182
-4.1279
136.677
152.633
-289.31
-300.517
280.824
19.6935
-174.422
-294.947
469.369
417.667
-552.57
-315.178
199.256
-186.57
-12.6866
184.531
1010.25
-567.77
-442.477
525.506
-109.016
-416.49
170.909
505.694
82.0309
485.792
20.6877
-702.189
717.193
-15.0045
40.4225
-544.576
504.154
-103.672
-243.745
347.417
-447.16
38.5045
408.656
-140.064
-335.684
475.748
779.973
-1.26261
25.7237
187.53
-389.246
201.716
176.72
-266.062
-921.069
850.277
70.7912
-290.172
305.018
-14.8467
679.147
-91.2249
-587.922
1046.99
-603.799
-443.191
197.594
-185.901
-11.6927
223.76
-121.372
-102.388
-419.425
417.308
2.11745
661.597
-30.0785
-631.519
-697.999
-4.18996
380.871
23.0714
-589.78
469.471
120.309
586.072
-577.66
-8.41234
-855.761
44.4207
811.341
856.379
33.1962
-889.575
-423.89
283.826
-205.698
14.7389
-325.386
544.946
-219.56
-178.187
-63.2042
754.99
-793.052
-136.647
200.438
560.614
-181.262
-379.352
-123.263
-308.179
212.102
-211.886
-0.215552
619.599
41.9987
683.245
-608.655
26.8776
-301.343
274.466
838.335
-876.7
38.3647
-326.622
12.1597
960.625
-963.44
2.8154
47.5543
230.864
-278.418
680.116
-34.2297
573.125
-591.862
18.7376
-826.754
854.048
197.966
-211.877
786.718
211.93
747.235
196.655
163.112
-359.766
-293.736
-4.8676
840.056
-92.3207
-747.735
587.976
-140.414
-447.561
258.104
-72.3134
76.6097
417
73.9003
-287.359
473.648
-503.665
30.0166
140.493
-346.704
206.212
137.351
388.141
76.3233
857.605
653.232
-773.094
119.861
-21.9579
982.583
-272.137
-38.3315
310.469
-209.868
220.601
-10.7332
38.2045
153.272
47.5364
451.623
334.418
-340.903
-377.316
14.389
-345.569
52.352
838.319
-58.3462
63.7489
-246.832
183.083
-968.518
21.5563
-932.535
-35.9835
-486.045
60.5921
425.453
-740.813
910.359
-169.547
-234.83
-21.6175
256.448
-135.051
-75.7637
210.815
-126.786
-76.2239
203.01
-174.015
237.369
-63.3544
853.473
428.92
-241.39
148.479
-11.328
-567.206
-880.293
-40.7754
424.868
163.108
202.768
-528.154
200.834
-1107.24
906.406
15.3127
208.774
-224.087
3.71923
-205.076
417.494
26.22
89.0423
701.761
287.648
40.5017
-328.15
-473.352
608.404
728.938
72.6344
-801.572
-781.398
-6.31362
804.205
-856.955
52.75
321.116
-282.178
-38.9382
88.105
230.205
850.986
-864.883
13.8968
978.822
-862.141
-116.682
939.464
-943.936
4.47204
-417.478
-172.302
0.154352
-872.913
561.718
311.195
-174.519
159.755
14.764
-246.625
383.302
138.391
90.5705
-228.961
753.214
270.884
-287.157
431.399
94.1069
784.991
-701.077
-83.914
-52.1357
-133.977
-64.3351
198.312
-302.459
260.975
41.4841
862.972
-839.071
-20.58
377.551
-356.971
-355.394
-9.80086
573.276
-582.457
9.18091
364.321
-327.06
-37.261
-828.664
731.276
97.3875
-905.902
831.914
142.848
80.9128
-404.32
275.294
129.026
465.805
-452.949
-12.8563
620.556
-622.585
2.02829
517.887
-44.2392
-358.362
-117.75
476.112
26.9928
-299.13
-62.1032
-250.368
312.472
544.291
563.936
-1108.23
-900.857
849.228
51.6295
2.55883
-403.604
417.037
-13.433
430.397
-398.884
-31.5127
674.867
-852.295
177.428
712.319
-884.685
172.366
-500.577
-163.436
-464.924
81.3029
383.621
301.235
-5.56449
-295.671
-325.977
199.191
477.037
88.4004
-719.769
-108.895
15.9365
182.373
-295.899
302.536
-6.63729
53.6614
-369.503
315.841
488.07
41.0093
-529.079
-239.101
300.624
-61.5223
-896.186
-19.6357
915.822
-152.363
-72.4782
224.842
5.50883
-852.672
847.163
804.7
-118.304
-686.396
304.68
146.486
-208.589
-874.864
-21.322
808.913
41.3645
3.41211
555.896
-202.864
-524.364
-10.3043
534.668
-801.986
913.791
-111.805
312.372
-244.478
-407.979
304.307
-29.6666
590.56
63.0558
381.562
-241.069
275.658
518.098
-11.0151
22.9348
341.386
-773.198
77.3602
695.837
455.607
95.6128
-102.875
-63.3344
166.209
-851.797
-23.0664
63.6259
333.093
-185.334
229.94
-44.6061
39.4867
-278.588
-279.357
294.129
-14.7715
-16.6664
20.257
-511.532
491.275
-612.102
-134.059
-17.6136
297.592
-279.978
-333.244
466.607
599.38
447.61
-1102.79
430.493
672.296
328.265
0.197923
-328.463
-190.76
-205.632
396.392
-523.957
558.779
-661.304
-20.1468
681.451
99.7607
79.5134
-179.274
-44.2596
799.25
839.812
-862.868
23.0562
807.329
-154.097
32.6132
-605.479
-320.387
-25.2604
556.758
57.6571
-614.415
435.161
23.9816
-347.92
389.511
-41.5908
-854.217
-3.65519
857.872
-27.8229
-823.974
312.03
-291.126
-20.9032
625.22
-4.66326
593.703
-424.715
-168.988
-205.447
290.715
-85.2678
-72.752
-304.564
-417.733
-49.6016
897.519
-185.2
-830.128
89.315
-629.08
16.9787
-536.657
46.5866
490.07
820.543
-39.6188
-780.924
-278.302
104.287
4.89004
-356.359
351.469
865.979
-191.112
304.769
-3.53348
636.873
-63.7484
494.294
-6.22391
801.293
-712.251
-1045.15
-57.6429
444.097
21.7078
545.158
39.8727
721.761
-713.287
796.848
-38.8254
-758.022
187.2
-227.182
271.173
-10.1977
-117.444
213.107
-204.519
474.838
15.1527
-489.991
575.143
-92.6775
-482.465
-457.484
420.963
36.5215
128.782
672.512
13.3552
-80.2529
-770.789
851.042
58.9313
-673.291
614.359
220.988
-299.61
78.6225
-735.077
654.824
91.6417
713.058
-504.414
1048.7
243.387
-179.638
-289.263
-191.989
225.509
-33.5194
198.466
-264.073
65.6067
-177.687
316.078
-8.67109
-346.723
-50.8867
4.36549
-408.862
404.496
-47.458
-160.807
-193.96
-26.1987
363.564
-337.366
-870.862
944.456
-73.5935
45.4572
-527.826
482.369
62.1817
-272.049
-755.594
105.84
649.754
341.278
-250.368
819.41
1.13328
-8.58049
226.027
-217.447
450.957
142.746
-124.283
-340.641
816.462
-201.581
-95.243
-914.182
603.36
-363.468
135.899
58.99
655.434
-594.055
494.119
-10.6475
339.479
-34.2665
338.154
-420.409
82.2545
226.166
-279.333
53.1672
53.5738
242.915
-296.488
335.973
-510.395
-7.52967
761.954
-806.214
537.218
-62.3797
-109.122
740.6
-631.478
-267.651
300.277
-32.6257
-70.8279
291.815
196.45
-188.53
-277.687
10.0358
-1069.67
594.373
475.293
-35.7982
-78.6347
168.645
-306.887
292.674
14.2131
-675.961
692.572
266.538
-271.172
4.63401
-487.364
192.417
-509.362
-560.305
233.321
-277.127
847.155
-946.585
99.4303
-342.504
22.117
490.066
-625.733
135.667
-3.04368
811.957
253.222
-290.407
37.1854
-311.397
-561.516
-36.888
291.551
-25.0127
364.261
-117.359
-246.902
-20.2632
-854.011
874.275
-872.758
466.472
406.286
-54.9966
735.966
-462.048
44.3153
-148.775
-148.079
296.854
879.024
-838.18
-40.8435
388.344
-324.718
798.341
5.86365
109.659
76.1425
-185.801
-580.549
1024.4
-443.847
140.701
-187.976
47.2752
-759.045
-144.952
903.997
133.371
230.889
853.494
-31.3785
813.466
-736.76
500.155
-423.545
7.78805
-255.593
79.2573
146.582
-225.839
306.057
249.839
-18.8521
-1098.2
619.194
479.005
9.14557
891.737
-60.5344
-831.202
-430.405
621.559
-191.154
57.1116
756.355
21.4127
-545.776
-590.476
-18.0953
608.571
444.006
138.579
-582.585
-264.814
-522.256
277.876
61.6031
-173.369
-74.1798
-405.284
351.956
53.3284
-783.458
323.866
198.763
-259.381
60.6182
217.429
-262.65
45.2212
428.142
-423.777
736.272
53.9369
-790.209
-200.706
49.1035
830.567
20.5207
-851.087
-379.097
30.8771
348.22
118.64
860.182
-405.987
454.843
410.505
-72.3507
-954.665
99.7736
854.892
789.148
102.588
-40.7057
266.871
49.7625
380.634
911.854
134.866
20.5146
-482.563
28.9118
-827.407
798.495
703.622
-776.194
72.5718
636.392
465.98
768.999
-56.0296
-712.97
189.377
-48.6756
75.8013
339
-414.802
-735.279
792.39
295.651
168.611
-236.715
167.523
69.1914
-111.288
-426.695
537.983
-30.966
-210.214
1004.42
-573.931
42.7329
-277.563
208.149
-216.729
-107.373
-149.894
30.9218
820.065
-176.184
512.157
-610.34
768.221
-157.881
695.389
-718.175
-402.089
391.784
-443.324
-179.26
39.0884
348.57
-16.6652
-331.905
-46.2966
808.251
-505.254
-623.371
1128.63
286.895
-244.631
209.68
1.03212
195.418
-220.62
145.356
-885.404
909.079
-23.6758
-285.461
255.225
30.236
71.8955
713.095
3.36106
765.638
634.368
-14.7694
-14.8919
-509.798
472.666
37.1325
933.11
17.1481
-950.258
-320.497
-58.6008
0.43886
-236.851
807.716
-71.4438
529.001
-622.995
93.994
-762.306
-84.5132
35.2451
285.871
900.736
11.1189
-489.833
440.108
49.7243
-950.467
-94.6794
34.8892
-403.641
368.752
-208.082
246.677
-38.5942
252.446
-53.9797
-39.2501
1050.28
-313.206
-737.076
579.486
-50.4844
65.2415
-259.496
-73.6669
-700.11
797.646
-97.5358
-45.9257
-26.6777
244.106
504.396
-5.75987
92.7826
-870.609
-82.8795
206.3
-123.42
-205.284
212.953
-7.66942
-681.762
570.475
-458.535
478.792
344.36
43.9838
-458.98
424.017
34.9636
566.443
443.804
497.934
-459.614
-38.3199
499.278
-314.72
-184.558
-211.8
47.9992
348.454
-20.4672
-327.987
-229.383
37.3938
-286.224
270.052
-219.063
-636.698
-691.721
-81.3726
257.107
-58.3445
669.508
196.471
7.06315
221.148
817.71
-82.8924
-734.817
327.874
-141.852
646.713
-504.861
263.318
-284.935
-87.0237
531.03
-751.309
6.58718
-83.8821
-95.8032
500.011
-99.9279
795.57
-695.642
-191.65
228.856
-37.2058
-44.5565
-240.904
829.583
-737.941
216.583
-429.812
-414.89
844.702
868.66
-199.152
-45.0238
802.011
-756.988
597.223
-6.66278
17.4982
-607.974
277.827
151.149
-428.976
-403.533
479.334
-25.8323
-312.91
338.742
-615.856
64.3483
551.507
-143.197
535.892
-392.696
-483.992
407.11
-481.709
74.5989
104.272
-169.508
65.2362
-157.677
354.331
-182.64
-198.885
739.62
-35.9977
102.184
581.061
-610.93
648.635
-37.7043
269.279
-286.892
-811.356
-51.5125
96.681
-432.365
590.118
460.164
-615.706
172.382
424.789
-854.602
412.6
-681.83
28.6414
653.188
-224.956
272.992
-48.0359
-816.308
886.691
-70.383
-47.325
-431.943
479.268
1005.36
-405.656
-599.704
-67.1308
-789.824
5.39881
306.631
-950.452
207.44
743.012
-857.673
-92.7787
-168.866
-5.65237
-777.774
731.477
-138.325
-301.986
440.311
-4.65938
-271.437
276.096
160.051
647.278
260.756
153.938
-414.694
-902.861
154.559
748.302
541.062
-580.806
39.7441
604.519
58.5742
-663.093
-45.8389
673.297
-639.925
-33.3724
351.845
-23.5805
-43.0438
242.164
-199.12
608.533
64.7638
12.3198
-793.718
721.528
-777.558
-176.325
255.582
329.935
169.343
151.004
-333.644
199.772
-202.467
2.69435
336.803
-197.252
-139.551
592.27
42.0981
-749.576
801.793
-52.2164
-439.399
-83.0085
522.407
-4.7082
-291.19
270.031
66.5339
-336.564
242.004
-94.7915
-147.213
418.045
-465.37
-61.7117
-740.274
-409.948
122.296
135.153
537.593
-457.335
-80.2576
-233.797
249.109
-194.32
187.95
6.37045
48.1008
-255.286
207.185
-320.81
377.475
-56.6645
220.981
-24.3473
-196.634
450.478
554.883
-255.028
555.294
-473.563
136.171
-190.801
54.6304
-192.857
-24.3379
217.195
701.239
-96.7206
231.734
-163.455
-357.071
269.44
87.6316
-418.6
-41.8356
460.435
-351.685
448.366
304.181
-323.621
19.4404
-13.5404
25.705
474.45
462.498
35.4361
60.2252
-478.825
217.994
-15.1787
-333.397
-9.10696
-366.24
298.323
67.9175
339.637
-61.7615
676.698
220.822
-237.535
285.636
-283.972
305.382
124.482
650.951
-775.433
-738.373
-24.6524
763.026
25.0327
188.915
16.7693
-337.58
-690.586
621.034
69.5514
109.323
-198.978
164.446
34.5323
437.439
-159.612
-245.49
-189.336
434.826
-160.932
-348.867
215.65
-15.8773
-284.689
135.913
97.8052
-180.685
-1009.52
696.316
-346.344
346.344
851.483
242.262
-35.1243
-509.079
-500.442
207.215
327.764
527.826
42.5102
543.667
-49.373
287.58
-265.251
-22.3287
-629.268
662.005
-32.737
-50.3555
-531.409
-49.0861
-633.159
736.623
-103.465
83.4531
-492.588
-352.482
539.283
4.38435
537.636
36.197
-573.833
750.579
-646.636
6.71122
-97.1405
-91.7409
188.881
-391.099
104.875
307.551
-30.426
-277.125
-138.703
-66.9947
-298.487
286.807
11.6797
-305.04
99.5934
871.857
-195.16
-339.774
41.2014
769.872
-2.70452
-767.168
584.109
-658.786
74.677
-922.869
830.388
92.4807
-21.9758
-639.328
110.455
294.73
-20.8529
-259.744
280.597
-805.542
45.8859
-200.767
-286.402
265.549
-465.892
511.349
-259.433
282.392
-22.9592
-297.303
301.69
-4.38704
-815.144
706.022
995.969
-148.814
-181.307
318.228
-270.674
358.664
-195.552
437.242
-323.144
-114.098
284.394
55.2429
817.195
-81.2807
-735.914
184.832
-681.404
-764.203
682.945
81.258
6.28199
-616.771
625.287
-8.51587
58.7629
172.971
-105.378
523.045
-262.785
310.014
-47.2293
378.694
-457.773
79.0789
-608.485
649.002
-40.5162
586.343
43.3384
-629.681
254.077
-217.212
-36.865
557.601
-26.7041
-530.897
192.723
-84.4661
-108.257
-97.4741
-42.9075
140.382
961.021
-951.493
-9.52793
-575.485
-388.311
-45.27
-760.318
805.588
-897.625
834.361
-610.264
376.565
233.699
605.013
-623.108
-10.4506
678.234
-667.783
56.4812
112.561
-169.043
-73.3972
-296.106
-855.991
-66.8777
15.4726
364.543
334.022
-739.678
213.023
4.97105
-223.646
223.646
391.959
-101.448
-290.511
-911.391
25.9876
-2.41943
-20.0872
-483.692
503.779
-753.832
-80.4427
486.426
-405.983
-252.366
-408.611
430.692
-9.72939
-46.6073
255.382
152.789
184.014
-551.696
395.641
-164.913
425.67
337.262
-52.8677
763.848
-712.25
-282.88
-4.38365
269.792
-946.905
-3.56166
5.61897
927.491
532.096
-448.643
-850.27
578.396
271.875
15.8956
254.283
-270.178
350.453
-11.8391
-338.614
-460.835
30.4296
-836.048
749.773
86.275
-122.691
-197.805
220.237
49.2908
-269.528
212.641
124.621
-800.985
17.7817
-582.036
339.206
242.83
42.2449
260.778
359.243
-323.548
-35.6946
-404.146
417.33
-13.1837
847.399
-513.377
-454.799
312.947
-317.054
188.422
128.631
423.365
-720.795
568.272
-27.2104
811.234
-807.873
82.0677
110.656
-831.27
816.062
15.2084
-795.451
45.8745
-472.164
-527.851
1042.66
-186.279
931.082
-835.193
-95.8882
-521.122
-463.31
984.432
-47.7664
-252.751
38.3907
223.078
-226.669
3.5907
-21.4165
-56.0533
733.33
471.609
-39.3897
-432.22
-347.587
-217.361
31.8857
-56.8654
-280.037
-165.988
442.683
-276.695
-926.096
926.096
92.1352
-797.87
463.706
-510.239
68.9964
441.242
-210.451
-193.87
183.43
-174.944
-376.753
-562.521
387.578
607.806
53.8663
188.138
428.897
-929.004
500.107
-47.5821
335.23
-226.143
-259.902
-210.585
435.718
-105.783
-178.214
-138.84
-65.4653
-835.392
452.315
-517.857
65.5428
18.563
-706.658
789.358
-82.6999
415.653
-418.911
3.25783
243.571
-566.006
529.682
36.3234
62.7607
136.953
-199.714
191.358
-234.401
378.948
-708.777
329.829
110.532
758.325
144.34
247.62
-68.4527
-491.854
471.767
291.108
-304.898
13.7892
416.087
-37.3937
353.498
-379.696
-20.089
-367.322
387.411
-39.1256
-289.672
336.882
14.1253
-351.007
-444.415
278.427
-385.814
36.5042
631.21
-749.514
-409.218
530.488
-311.736
-91.8682
976.633
-866.101
-492.805
-312.268
805.073
291.278
33.7073
290.779
-324.487
-443.861
157.174
-279.865
-51.4894
450.16
-563.525
113.366
47.4097
613.568
-200.924
103.783
347.456
-305.211
708.736
-329.788
273.204
-171.15
23.3146
364.389
-387.704
-26.7231
-290.207
-11.1366
-249.811
247.969
1.84206
3.57477
567.179
-545.766
54.3114
-891.583
113.23
802.009
-3.66784
327.589
-114.948
525.496
328.696
-854.192
598.382
239.937
677.917
-777.845
-763.737
107.774
655.962
294.559
63.352
-357.911
180.894
-173.299
-7.59445
37.0835
274.768
572.963
-208.905
62.8128
146.092
-156.51
-607.167
763.677
-335.65
366.44
-30.79
-278.494
285.567
-7.07299
-146.966
-173.647
-254.182
205.596
48.5858
920.102
-920.102
-86.9996
726.979
-639.979
292.871
-204.766
343.471
-68.1766
-658.382
187.138
26.1652
-213.303
17.4111
-586.824
569.413
48.89
-273.922
225.032
908.628
-914.24
5.61254
301.51
-674.719
373.209
364.124
-329.235
50.3946
308.848
-350.736
876.232
556.748
-106.588
-71.8154
-239.256
-399.188
316.516
82.6717
226.259
-344.689
328.398
-500.161
171.764
-272.299
47.3434
-873.307
-73.5986
33.803
-740.461
338.718
-171.985
796.37
-773.269
-23.1011
431.372
60.9462
-492.319
-685.41
610.578
74.8321
-274.313
218.784
55.5291
318.482
-27.3736
-426.004
-254.773
885.747
-840.54
-45.2067
-357.354
658.864
116.77
-556.169
-865.237
11.0194
-52.0426
-609.131
661.174
47.9961
-141.987
-94.7281
-920.459
393.811
526.648
184.603
3.34687
448.342
-32.689
543.451
283.001
-276.486
-6.5155
-332.842
-5.62879
338.471
-565.798
463.819
17.8242
-237.472
219.648
227.259
-40.1213
-107.266
378.158
-270.891
-352.361
4.44081
433.474
-9.45728
51.9869
-813.519
761.532
-664.236
664.236
83.6205
179.697
-96.1279
-506.782
602.91
-854.504
938.126
-83.6219
741.154
55.2163
-14.0988
-834.598
848.697
322.608
-339.597
16.9888
323.817
12.3798
-336.197
585.201
-636.672
51.4712
47.2956
325.977
-373.273
-220.484
-127.177
347.662
189.397
-8.50326
108.93
-711.629
602.699
-760.049
267.244
345.548
-311.841
793.723
59.7706
-77.2098
-433.029
339.269
-391.39
-682.492
103.943
578.549
333.027
-293.45
-39.5766
-529.801
617.317
-87.5159
-81.4931
-362.588
444.081
404.735
-381.8
-606.482
-313.978
620.122
-722.624
102.502
-409.903
-440.367
837.87
-39.6754
-645.735
99.5929
484.999
-584.592
563.538
-644.651
81.1133
46.6694
-263.997
11.1131
-692.943
-316.643
321.533
-11.2927
570.378
-692.668
122.29
-344.462
-430.581
5.23326
-686.164
697.713
-11.5496
763.049
-164.667
645.112
-102.53
-542.582
234.963
302.63
283.663
-294.605
10.9424
807.726
-935.852
128.125
-663.129
-100.608
-316.39
53.6045
-327.383
61.0041
266.379
-55.31
640.511
105.776
-278.17
172.394
356.379
-334.627
-21.7518
-368.259
-213.777
-25.1947
205.796
-38.1992
-165.51
227.694
150.51
-378.204
-270.016
317.998
-47.9818
592.355
-688.483
21.019
286.532
-291.067
-36.3157
-302.252
-308.012
-711.289
540.767
170.522
-112.617
-145.865
-154.337
65.3666
-576.792
536.11
40.6823
576.951
-1098.07
-23.5859
-1015.11
-140.911
375.479
60.2387
-21.5426
-51.3501
-761.403
129.925
858.427
-852.918
617.333
-76.5657
1.85788
589.214
-591.071
-291.053
-159.85
450.903
-61.9884
-212.324
13.5171
186.006
-211.374
25.3678
-997.352
245.16
449.246
-120.848
19.5639
-627.854
608.29
299.473
-364.741
31.5757
333.165
65.6723
573.668
-639.34
-100.692
773.726
-673.033
-669.663
-195.22
-738.555
37.8564
700.699
-25.168
579.176
-554.008
929.31
-920.368
-8.94247
570.946
-622.989
-611.179
-23.4213
634.6
-393.703
123.686
282.146
-280.597
-1.54888
801.796
-772.884
-95.6385
730.683
-635.045
456.559
16.1068
-433.178
-669.571
604.126
65.4444
399.861
-92.0303
-563.923
-59.096
-10.1483
-398.714
-43.8405
241.543
-197.703
18.1063
327.442
-358.755
362.961
-4.20561
749.78
-795.05
92.9522
163.496
209.366
-220.491
11.1258
684.172
-775.208
91.0366
-331.398
-699.11
-0.999704
796.272
75.5854
290.433
120.072
813.838
-17.566
-32.063
-1029.96
168.232
3.92795
24.4838
-569.06
150.336
-93.8544
-1082.19
-255.179
273.003
75.9567
216.914
-107.303
-467.076
574.379
-2.34724
-477.36
479.707
838.904
-31.1775
569.965
75.1469
-58.3214
-220.27
278.592
753.715
-798.739
-164.035
391.729
-415.091
446.913
-31.8217
-679.383
722.944
-43.5605
302.775
-330.076
11.866
388.64
-111.606
-277.034
179.019
-510.976
465.694
45.2827
3.54863
-459.255
466.182
-6.9273
613.507
-596.009
45.2209
-172.79
604.162
-290.17
57.3733
440.389
40.0947
608.507
-648.601
-64.6357
-155.477
221.224
-2.44028
33.0751
-386.206
21.4654
-415.939
0.847803
248.29
-250.044
1.75407
711.191
-682.55
-482.955
82.4364
400.519
-42.1414
626.251
-46.3788
-208.907
914.254
-141.727
-772.527
518.882
537.492
-1056.37
-307.15
-6.97252
288.414
4.26063
10.2904
270.533
-696.935
-6.37489
703.31
592.356
-748.866
-220.614
187.146
33.4682
-540.413
-6.18338
-667.107
29.4995
106.671
-136.323
-427.975
-107.958
213.734
22.3267
-644.761
622.434
-37.8974
-497.972
535.869
-271.347
318.643
-69.1884
625.946
-733.191
755.509
-22.318
217.629
-482.444
276.392
-280.025
3.63318
5.40241
-840.258
25.1138
255.643
-476.128
920.737
-931.976
11.2386
638.072
12.2065
-650.278
-48.6055
-543.257
-807.259
840.455
142.69
-207.025
897.667
-78.2575
234.984
-11.9058
-60.4891
-716.036
776.525
-89.7422
-596.421
-34.2103
571.846
-686.694
23.5655
201.211
-241.388
40.1761
-231.249
-0.110858
231.359
-556.906
533.487
23.4195
-173.797
76.3227
46.8492
97.3394
-144.189
-880.26
314.25
17.4759
-331.726
54.8869
637.918
-692.805
-336.631
374.563
-37.9315
-662.779
-23.9154
-659.357
783.839
-897.062
127.852
769.21
-142.335
-167.783
-443.331
62.9103
-457.465
-618.143
273.408
-2.52368
-284.834
287.511
-2.67763
159.77
-97.009
-420.692
392.662
28.0298
-954.912
972.06
-319.5
109.683
209.817
98.5584
51.7773
526.537
869.493
-889.756
276.315
-46.1101
387.003
-530.2
-790.053
811.799
-21.7459
-350.786
-195.782
546.568
128.1
-165.287
37.1869
424.655
-530.032
758.812
-691.238
-67.5746
-262.309
-44.841
357.124
-87.0933
311.23
-290.211
327.665
-652.014
-17.5562
5.67421
633.189
-351.436
101.068
20.6314
-891.494
550.363
-387.107
608.138
368.495
422.726
7.96566
744.701
-805.19
-38.8579
-8.29639
827.286
70.381
420.981
-499.641
78.6601
239.711
-189.738
-49.9727
-198.041
236.028
-37.9865
-1.80784
338.67
-336.862
-618.647
658.742
432.23
255.576
-211.069
-44.5071
355.801
523.223
312.031
-332.499
723.774
93.4211
84.2936
-607.107
522.814
639.514
-35.3879
34.6962
-930.851
114.259
816.593
193.602
-266.08
-246.555
-793.221
732.28
60.9408
5.09072
815.09
-820.181
934.696
-934.696
-376.461
17.7053
602.815
36.6993
-109.049
-42.0396
-189.634
231.674
437.299
27.5565
-464.855
-432.208
18.4071
413.801
189.725
972.174
-453.292
-218.409
34.6478
183.761
-627.726
630.6
-2.87441
457.51
-472.087
14.5768
-430.352
-1.85631
37.2378
-770.624
733.386
-635.771
-65.6786
-548.09
518.318
29.7723
-391.911
319.159
40.2458
-251.727
211.481
-174.619
-144.881
-27.224
236.823
-15.5994
34.1536
327.777
-287.275
-71.0944
791.599
364.118
-49.8681
-770.103
31.7296
-890.017
814.448
75.5684
127.769
296.766
354.684
188.036
-759.375
859.317
326.509
199.451
-525.96
-159.646
594.426
-643.987
49.5614
497.137
56.4386
-553.576
652.298
-354.392
-297.905
-493.489
-118.386
-784.245
683.553
23.2445
-690.223
666.978
-711.208
108.48
602.727
-761.857
17.1405
48.6355
508.406
-87.4243
-531.142
354.958
572.202
-597.371
-35.3087
-63.7545
220.085
-156.331
75.2623
-708.421
-228.736
-223.354
159.599
-26.237
289.495
-110.581
-178.915
181.537
-5.39092
-639.915
717.275
-48.3267
219.526
-171.2
869.859
-630.599
13.8272
145.239
202.217
0.989154
397.299
-398.288
-220.044
-209.869
429.913
180.916
763.54
378.537
-355.223
-843.851
7.80297
626.382
-609.854
-1.80354
-821.595
823.398
589.511
15.9627
-605.474
854.861
47.7753
-902.637
305.254
-3.56468
118.271
-409.325
425.164
8.31011
-254.33
333.94
-79.6101
185.809
380.726
-90.2935
610.451
-53.7656
-556.686
-759.663
787.994
-28.3309
12.2245
661.482
-673.706
-647.438
117.637
-4.90632
-441.98
614.681
34.1
322.278
-28.5439
182.106
-82.3456
-334.181
1.33864
95.9348
742.969
2.13552
-275.368
273.232
-425.165
-503.84
-57.4209
-757.778
815.199
275.317
-44.4535
188.707
-273.929
85.2216
178.257
-93.2489
-216.583
-516.874
-581.326
-792.272
-19.0833
-159.085
-815.745
776.437
39.3088
-34.194
469.181
-434.987
59.7797
821.331
-881.111
190.292
-143.443
776.756
25.0366
-238.567
196.527
19.2539
-303.33
284.076
575.694
-573.836
-648.167
107.577
540.59
-591.363
587.773
3.58998
27.4581
256.205
-665.303
-441.937
608.527
45.7678
-654.295
-721.945
606.741
-679.195
72.454
-132.826
-76.0788
449.769
-484.149
-847.331
852.421
108.997
-308.148
-588.914
-642.234
593.191
49.0435
174.067
-69.7944
-42.7378
465.173
187.125
-577.399
65.8671
514.414
-526.466
12.0512
73.4501
-717.629
644.179
264.455
-16.1651
-306.847
164.162
142.685
-577.465
613.662
-136.381
495.925
-359.544
681.373
-86.9474
-1.02999
-315.285
316.315
-447.166
-442.716
889.882
-146.898
263.707
-116.809
-104.116
-578.376
-590.733
438.16
152.573
410.117
-46.9449