/*--------------------------------*- C++ -*----------------------------------*\
  =========                 |
  \\      /  F ield         | OpenFOAM: The Open Source CFD Toolbox
   \\    /   O peration     | Website:  https://openfoam.org
    \\  /    A nd           | Version:  7
     \\/     M anipulation  |
\*---------------------------------------------------------------------------*/
FoamFile
{
    version     2.0;
    format      ascii;
    class       surfaceScalarField;
    location    "32";
    object      phi;
}
// * * * * * * * * * * * * * * * * * * * * * * * * * * * * * * * * * * * * * //

dimensions      [0 3 -1 0 0 0 0];

internalField   nonuniform List<scalar> 
11512
(
141.349
-508.205
366.856
-774.978
3.76352
771.214
420.542
-372.213
-48.3294
654.598
256.694
-911.292
1510.3
-1069.4
-440.903
1216.26
-1527.1
310.842
-39.0442
470.453
-431.408
169.197
-840.669
671.472
961.942
-1610.72
648.783
-1770.08
1678.23
91.8481
-542.947
1759.21
-1142.29
1936.03
-793.737
605.222
181.4
-786.622
-25.6833
-1321.82
1347.5
223.185
-1993.26
1022.22
-386.341
-635.875
-191.919
333.268
482.449
190.644
-673.094
1154.4
-1315.86
161.468
-330.771
379.373
-48.6028
1012.47
-1326.63
314.158
1221.72
800.186
-2021.91
75.1028
-1649.7
1574.6
-494.332
-1157.88
1652.22
472.458
181.986
-654.444
-184.507
-323.698
497.524
1012.78
1657.2
-1816.26
159.064
-97.6593
-1688.42
1786.08
-1561
657.425
903.575
-312.359
652.619
-340.26
-192.356
-127.341
319.697
1292.42
-1217.32
355.357
-1407.21
1051.85
-1754.24
1754.24
100.095
1541.66
-1641.75
-1084.85
-476.154
647.54
-686.584
-388.299
942.173
-553.874
1331.72
-1317.13
-14.5907
-1100.39
712.091
622.006
400.21
-413.863
-17.1747
431.038
-459.62
801.529
-341.908
-1618.34
1618.34
1253.53
-1437.84
184.308
-489.283
1711
1252.9
-310.727
1660.71
-1161.2
-499.504
58.7843
-389.555
2067.75
-1136.99
-930.758
1824.12
-166.917
450.351
156.121
-606.472
-472.758
980.218
-507.46
-1178.35
1278.44
-566.357
969.269
-402.912
396.825
757.571
660.342
-491.145
-438.373
588.877
-150.505
1190.54
-835.185
2308.24
-1080.7
-1227.53
1164.78
-2011.85
847.067
-1611.76
1586.08
440.5
-1582.79
-758.712
1250.26
-491.551
-670.882
358.523
1661.42
-699.474
-1106.93
-870.902
1977.83
698.716
-385.609
-313.107
690.769
562.131
-258.217
1511.75
97.3252
-309.945
212.62
-284.725
757.183
-332.846
559.094
-226.248
-324.373
806.822
-320.409
-138.851
459.26
319.481
101.062
1471.11
-458.644
-999.903
496.496
503.407
262.509
99.2145
-361.723
946.618
-341.396
-1704.29
633.205
1071.09
21.1847
-865.781
844.596
-274.775
588.767
-313.992
158.625
-1093.91
935.29
1050.54
-1066.18
15.6381
373.15
516.67
-889.82
-245.303
695.653
-1102.85
-482.715
1585.57
-676.683
949.358
-272.675
1352.84
-1450.5
-657.061
291.652
365.409
-470.21
-1011.47
1481.68
-536.005
-797.419
1333.42
575.037
-994.952
419.915
-261.433
-313.931
575.364
400.557
-303.231
-1047.26
574.503
955.605
-796.98
-110.411
943.616
-833.206
-200.303
407.979
-207.676
-636.802
-363.101
-386.738
961.775
1856.35
-1856.35
-480.399
-176.662
-946.717
1568.48
-621.765
465.682
-901.705
436.023
-921.919
355.562
-941.903
-1058.08
-1500.45
343.013
1157.43
-269.379
923.977
-334.179
630.776
-296.597
-1941.89
999.992
-1150.51
-349.94
567.23
-1513.95
1728.5
-1726.04
-2.46673
200.52
-617.633
417.113
-1470.85
975.991
494.859
275.884
223.848
-499.732
304.341
-637.186
232.303
-405.852
173.549
2017.66
-870.115
-1147.55
-556.057
142.194
614.638
841.082
-1455.72
-182.814
415.116
431.805
875.92
-1307.72
-902.793
387.587
515.206
-1051.42
1448.25
-1068.26
309.548
746.198
-93.5791
572.038
-294.092
-277.947
1025.03
-528.535
593.474
-1403.61
810.135
-1342.05
239.195
-539.772
264.997
-1190.99
921.608
1944.61
-988.099
-956.51
276.797
1579.56
-2099.99
898.731
1201.26
352.639
-34.163
-318.476
-222.755
477.647
-254.892
-93.6411
-393.388
487.029
-458.862
138.453
336.338
-131.806
597.488
431.657
375.991
-807.648
-2043.27
1126.07
917.208
462.031
-525.004
62.9736
216.473
-356.803
140.33
1004.19
1013.48
1795.23
-253.576
750.035
-458.383
795.328
-1388.83
593.5
363.424
335.292
1063.65
-1042.46
-489.138
-253.382
742.52
467.256
-126.491
-340.765
795.015
-613.615
548.081
-734.912
186.831
503.332
1157.37
-1240.41
704.405
1033.65
-1527.98
-3.11511
-1439.42
1442.54
327.809
822.32
-1150.13
621.815
269.902
-891.718
-2270.56
1152.9
1117.66
-1101.41
-1169.15
178.657
369.423
959.168
-631.359
877.973
-897.782
19.8095
-2099.39
992.461
-216.709
-185.695
402.404
-42.1003
1770.6
-843.273
68.2953
-1032.05
-1067.94
-227.411
443.884
-693.935
213.536
-286.611
-425.879
712.491
1103.94
-1574.15
782.506
-1374.17
591.66
698.332
-441.638
1947.82
-1444.49
-378.281
-1375.96
63.5499
406.903
-538.007
541.77
30.1743
-588.818
558.643
568.576
-292.691
-598.116
274.551
323.565
788.119
-356.462
35.1282
317.511
1188.47
-1191.59
163.108
237.448
396.341
-682.952
618.241
-1004.98
-2026.78
2026.78
-271.011
-446.504
717.516
698.72
405.839
-1104.56
579.946
166.252
417.824
370.295
-2199.77
1328.86
-925.709
-680.468
1606.18
-477.411
-713.575
-252.145
557.357
-305.211
837.33
-215.991
-621.339
-460.82
661.34
363.058
-697.237
-379.874
-131.817
511.691
-1338.04
-478.228
648.427
-1125.84
-374.136
-1244.21
844.36
1463.88
304.678
-916.115
611.437
966.227
-344.222
1391.16
-797.691
440.039
-276.931
-322.846
-880.409
583.047
297.362
-348.191
-532.217
318.566
-412.208
-189.344
-158.989
348.333
-392.821
1091.54
433.483
-242.839
-383.116
1364.13
-172.583
-1191.55
-482.68
304.101
178.579
223.206
270.454
-493.66
-1.19611
-733.716
592.198
-1729.09
1136.89
1486.15
-871.514
-1048.9
-421.951
-1055.7
574.629
481.07
1391.83
-415.838
928.474
-1411.19
-174.23
-184.186
358.416
-467.518
578.116
-1629.54
427.852
903.872
298.311
298.936
-597.247
568.033
1186.21
1102.47
-709.544
-392.922
391.917
-204.115
-187.802
-1419.42
446.86
736.508
-1183.37
1473.21
-544.732
-486.345
941.436
-455.091
426.163
1186.13
-1612.3
47.428
-724.111
-153.584
416.093
195.846
-388.201
540.428
484.602
-595.48
40.4643
555.015
1024.51
-1307.64
283.131
671.849
-254.025
468.418
-1447.2
978.779
394.158
1688.95
-524.17
894.171
1050.44
-658.439
-1684.91
759.198
563.679
410.77
-974.449
457.198
79.082
1750.18
-1829.26
1443.61
-379.491
-1064.12
1699.22
-1741.32
-364.93
-540.5
729.631
-189.131
-502.59
172.573
294.684
-373.136
-1225.92
214.445
-764.744
-638.864
-630.284
996.277
-365.993
-651.002
640.811
10.1915
654.765
-923.36
268.595
-709.503
350.887
358.616
-647.054
-700.532
347.254
353.279
-932.097
1400.52
-425.493
892.862
-467.369
-2205.32
5.55639
169.295
-530.29
360.995
144.068
1220.06
-105.486
-588.449
152.413
-590.785
1486.96
-704.451
391.654
-465.878
74.2242
-560.794
560.794
1222.95
395.39
1778.3
-1227.82
590.138
637.68
846.589
-51.5737
1292.63
775.115
-541.073
1336.4
293.775
294.992
268.041
-808.541
248.208
-707.829
225.126
-436.92
211.794
-253.559
588.636
-335.077
114.071
-367.63
-591.149
-564.699
1155.85
-378.5
555.907
-177.407
-1192.15
2032.03
-839.883
1288.16
-328.988
-396.434
135.001
-1982.62
824.736
1546.99
-851.34
-695.646
1987.05
-877.491
-1109.55
714.465
573.691
-239.803
464.928
-674.449
1156.56
-482.111
-769.163
1200.97
551.964
924.539
-1725.9
801.36
-553.636
-82.8494
636.485
310.495
261.544
412.218
-89.1199
-323.099
896.274
-83.5663
-812.708
936.077
-576.759
-359.318
1576.14
-472.202
894.668
-1630.19
735.527
1068.44
879.378
746.669
-435.607
-311.062
-1058.82
-258.31
572.217
574.745
-1146.96
-469.632
526.467
-56.8354
572.614
-335.251
-237.363
-989.299
563.806
594.133
892.019
-441.759
1096.52
1425.81
-788.416
-637.395
389.12
-922.754
533.634
-1045.09
408.291
571.192
-1057.54
476.517
-552.612
76.095
488.194
313.334
-511.963
-48.8306
-793.853
-881.711
1675.56
181.574
210.343
-235.784
414.441
-28.7994
-571.878
600.677
500.569
871.891
-1372.46
-502.835
313.49
985.114
-88.84
835.319
-1064.21
228.886
408.126
844.941
-1386.01
-461.594
837.585
1982.23
-1288.05
-694.175
269.489
608.484
255.478
795.065
96.6364
-980.373
883.737
1673.71
-1088.92
-584.789
-138.063
1888.24
-1866.13
-160.644
482.387
-620.536
138.15
-1011.45
528.309
483.138
-1730.46
538.316
-955.416
845.006
392.982
195.896
578.434
-273.756
-417.082
707.253
258.974
49.4594
721.228
-770.687
-1129.88
-898.593
2028.48
-544.945
1121.19
-576.247
-483.986
-322.476
105.766
-1657.86
864.009
-846.747
-617.313
1464.06
-329.006
-294.382
623.387
352.494
-658.631
306.137
257.076
-613.538
339.517
196.661
-536.178
365.63
-617.775
629.453
-276.959
315.531
-454.382
681.205
417.778
-194.572
-405.92
-294.612
1228.04
-2.21923
-1225.82
1038.52
-420.283
558.381
410.888
-1782.3
869.806
912.493
488.366
561.066
-1049.43
-532.033
203.028
-264.623
1182.13
-917.503
-1590.81
1212.53
504.598
-1095.75
386.321
5.33263
432.185
316.364
-748.549
367.486
-612.788
-38.3225
759.905
-721.583
-524.787
794.689
398.071
320.666
525.923
650.827
104.093
-419.453
315.36
1058.03
-644.532
-413.501
494.05
-1664.27
1170.22
-1140.28
1753.22
-612.94
1715.89
-1123.69
-333.822
608.373
-1183.14
1279.78
424.571
-800.698
1614.37
-813.673
-280.135
-202.545
-902.575
1472.78
1816.51
-610.632
-1205.87
-405.249
674.723
-1305.01
-124.643
-59.0082
471.227
-690.436
-354.184
-1236.63
-214.28
471.356
902.301
-561.358
167.97
-1674.89
-71.3254
1746.22
-1082.59
537.65
565.304
-1186.9
621.597
901.076
915.43
630.43
619.834
702.417
239.019
-1150.06
475.613
-396.323
426.498
614.443
-513.353
235.134
-731.17
496.036
710.997
-347.573
-310.681
183.34
-619.293
252.716
366.577
-886.033
-744.161
1087.67
-2145.74
395.235
-679.96
-342.786
-723.395
837.829
587.983
-341.736
324.561
379.245
238.909
634.427
-873.336
526.097
630.463
-555.664
175.79
357.953
-628.965
-1043.49
-852.45
1895.94
-1807.22
157.515
1106.62
-1371.25
1167.16
-713.571
-453.592
-504.624
1349.56
-1495.43
627.932
867.494
-283.807
-209.065
492.872
1428.44
558.603
361.313
-493.129
-479.331
-574.815
1054.15
-426.533
595.828
1583.36
-1131.16
-452.198
-791.6
345.095
654.449
403.584
-1623.42
416.19
1207.23
-183.54
523.057
797.56
785.8
205.474
-703.918
498.444
197.819
210.16
-276.046
-110.472
386.518
504.912
-4.93815
-499.974
-1647.86
598.964
-1612.05
1682.06
-70.0138
13.7543
-1625.8
1069.47
782.443
-350.258
-822.407
-222.686
-1134.57
-239.591
-312.106
679.592
-1812.96
-638.858
1213.6
221.582
758.636
-1332.98
-678.875
-466.129
629.177
-330.866
-1013.26
1350.81
-1933.04
582.225
647.439
1288.59
479.887
-2.23948
718.296
712.92
-1431.22
-635.708
327.341
308.367
434.916
-100.756
-334.16
140.813
323.767
151.979
-475.746
-596.999
1160.68
453.588
-647.039
-459.534
-401.858
861.391
-327.383
153.153
-455.29
152.059
-301.006
-710.441
540.18
-105.264
-578.204
967.324
572.376
-267.373
-305.003
452.353
-776.726
-649.939
459.395
-1129.37
-846.707
1189.72
-569.771
446.535
295.985
-466.988
81.3788
1027.03
-313.599
588.907
-275.308
-509.039
1578.51
-700.107
255.358
367.543
-622.901
228.807
500.801
-34.5359
-466.265
-266.478
-188.812
1011.9
1108.83
564.882
-888.991
953.997
-65.0063
-451.266
167.458
-748.465
322.585
-596.676
327.437
383.56
844.115
-1249.88
405.768
775.834
-814.156
-948.825
-550.396
1499.22
-177.154
476.09
-564.078
269.986
1307.93
794.164
-588.691
1328.14
-679.713
487.084
-663.666
-403.273
-420.597
-378.503
799.1
500.006
-841.402
-472.244
101.901
370.343
-310.209
572.494
725.373
-330.139
-229.643
-175.124
404.767
-492.326
129.641
362.686
1462.28
83.0215
-1545.3
-755.865
1350
-1144.78
-465.944
549.676
-182.133
1153.61
-377.78
1083.42
492.722
704.912
-436.871
-884.711
-522.497
-1328.32
-20.355
985.863
-965.508
595.571
348.133
-943.704
-351.086
-204.971
-684.257
405.544
1621.23
-196.029
385.184
340.43
-725.613
-1839.75
-2106.7
1519.15
587.553
-2037.75
349.333
380.81
533.33
-914.14
-460.576
1018.96
-412.717
-670.301
1083.02
-2030.56
1391.21
639.348
596.288
-1009.01
42.9269
433.59
386.225
185.584
254.455
323.648
977.099
881.463
675.682
-321.001
-354.681
-288.077
616.125
-328.048
569.392
533.074
564.391
514.528
-1078.92
-796.054
-699.373
750.906
402.707
-409.035
715.172
-1193.38
1609.57
437.591
-1107.89
-353.782
550.443
-1384.91
889.166
495.749
-712.471
-340.115
-777.019
340.933
436.085
447.358
717.39
-1164.75
1078.73
-590.365
-424.636
675.132
-250.495
250.548
321.828
-465.799
-432.388
898.186
-228.354
571.391
-968.545
397.155
-462.37
600.598
-1681.3
424.003
670.056
-1094.06
523.929
106.846
113.413
-2212.81
549.482
-102.947
1445
1777.1
-217.548
-1559.55
-438.549
1789.36
-1987.3
1194.6
792.696
396.201
350.468
-43.4697
881.298
-1282.68
717.977
-867.656
-822.065
801.71
298.121
78.792
-376.913
221.782
174.276
-396.058
1563.09
-844.794
-1530.92
-325.432
513.787
-228.997
-284.79
391.258
365.925
264.091
365.086
-11.3831
1003.55
-992.169
379.811
295.928
-675.739
-734.183
1817.43
-1083.25
-342.709
733.967
-1226.87
-414.886
-913.401
481.014
591.551
-792.357
200.807
758.133
-376.531
-381.602
-437.525
-451.465
451.363
1097.29
1241.99
-676.688
798.259
-345.906
382.835
334.681
-234.684
-231.194
-224.594
618.752
408.263
-844.937
436.674
235.119
351.455
-586.573
-419.756
828.019
754.008
-1146.83
896.329
-52.2146
-486.195
281.515
782.131
-96.6365
1385.23
1890.51
-47.6177
351.718
-319.089
423.182
-1088.41
1077.03
643.902
376.56
381.573
85.7672
428.019
261.361
509.853
-377.914
-257.795
-561.306
-89.697
-371.545
363.028
8.51727
-257.579
-282.193
1010.76
-1540.68
529.921
-182.308
-189.904
-388.7
684.629
-1647.41
1590.93
-962.998
278.327
-681.6
584.335
1224.41
-1808.74
607.443
983.488
323.79
-1127.78
710.697
-287.107
-310.141
1387.11
-1455.1
836.804
618.295
440.887
-646.919
206.033
-395.756
491.701
-95.9441
386.457
118.455
1724.72
449.437
-251.618
557.667
-1704.79
1147.12
-98.9832
395.522
343.142
332.541
-448.759
-614.426
1063.18
411.352
-872.946
-640.203
902.263
570.943
-479.63
-229.872
-435.476
-409.462
-307.679
-826.896
1821.09
-1821.09
-101.279
-1599.37
1700.65
297.911
274.703
-916.837
-555.636
1472.47
-408.174
972.565
-609.667
-1038.2
696.49
401.845
-1098.33
468.62
-153.089
573.075
1220.34
-1793.41
-1040.92
2114.16
-1073.24
-379.87
-291.012
-488.243
833.339
-1760
1607.59
152.406
1760
-1613.95
-146.047
-238.93
517.387
-278.457
-537.312
1620.73
1575.06
-1989.94
1104.78
-294.731
-271.508
566.239
228.71
-582.493
-712.69
303.656
1343.62
638.603
587.479
478.417
-1065.9
270.209
434.702
875.205
500.112
-1375.32
541.142
-1020.47
1574.94
-564.183
-774.269
-362.356
-139.431
501.786
-490.359
1207.75
-742.179
329.22
366.433
386.782
246.154
-632.936
615.492
831.557
-602.671
262.355
691.642
-479.63
-331.636
-245.159
576.795
1168.43
-680.75
606.434
469.248
-1075.68
-1288.72
1288.72
-382.665
759.224
-275.263
-485.57
760.833
502.676
440.576
-943.251
396.936
-672.199
604.584
-871.022
266.438
-367.65
-488.987
1076.47
-659.065
-713.864
1372.93
-380.629
952.019
-1552.78
675.289
36.0397
-435.319
399.279
-523.83
737.366
270.452
318.184
161.343
307.277
-535.937
248.83
1870.62
-1967.25
263.707
-724.526
462.458
-826.596
364.138
-907.377
1425.78
-518.406
-430.346
-483.055
600.884
1124.15
-1725.04
-713.836
333.966
-464.154
1033.55
-795.406
1057.76
-372.189
-621.899
-503.467
751.675
537.309
-355.323
914.027
-320.523
-171.804
1599.03
-1816.58
-351.117
-617.428
-351.314
480.955
279.398
-610.264
-178.406
1073.85
-792.336
199.357
-305.573
-272.716
578.29
391.799
-891.822
500.023
-478.732
-467.219
-916.115
-364.918
602.747
-237.828
-463.675
-445.483
-356.173
-180.004
-409.922
656.076
-446.721
781.402
-1071.68
622.916
-1406.05
559.308
-28.8331
-1840.34
1869.18
570.119
-450.724
1237.38
-699.729
294.877
-294.877
674.36
-455.404
1037.86
-1647.53
-1158.74
-947.965
287.177
328.948
896.805
717.566
-510.751
-306.014
816.764
1661.94
-1690.78
-433.224
335.796
232.78
1134.89
-528.452
-943.341
1550.5
-607.155
441.529
-255.945
371.798
405.073
-776.872
545.006
467.66
-1012.67
-331.265
660.485
-38.1665
1908.78
1605.09
992.364
-1696.82
726.478
-1176.58
450.099
-492.512
1367.72
836.443
-1341.07
-578.899
284.168
811.885
-401.116
547.753
-1193.97
646.221
-633.108
-1215.52
-695.705
1911.23
-191.522
567.832
-376.31
-184.834
328.383
-519.905
337.629
362.792
-700.421
-1491.4
756.944
734.454
883.96
-1434.36
821.548
-433.961
204.587
-358.171
-611.604
279.968
-662.819
-722.096
697.068
507.628
-1204.7
381.952
-206.161
-175.791
553.901
-956.813
-582.65
-427.577
750.162
-831.351
-1155.95
-1437.94
499.743
938.196
3.84576
-657.267
356.436
300.831
-1325.51
1050.15
275.368
-615.168
-456.507
-665.504
920.981
396.828
-190.006
-206.822
508.423
980.409
-1488.83
985.582
-559.312
165.181
394.131
-420.559
689.976
-426.269
-509.813
158.499
234.119
-1522.17
525.456
553.275
-779.641
255.811
139.116
-459.639
361.774
-828.993
1954.16
-1195.38
-758.777
428.845
-697.095
268.25
320.472
344.213
104.634
-448.847
-581.773
186.005
263.432
-691.821
1374.17
-682.347
424.098
482.301
-1194.77
259.807
1866.77
-1013.59
-853.18
784.017
-553.385
188.466
1402.3
-975.101
-427.2
326.573
-781.977
-616.594
1725.42
607.525
634.467
330.491
-32.3695
265.34
-1138.34
1725.72
-587.383
-1763.55
820.209
1766.76
-1695.53
-71.2288
-670.104
273.78
582.372
-737.323
233.856
1402.56
-566.12
381.285
456.301
-1858.78
1420.23
574.948
-447.619
-127.329
199.491
-555.664
-289.177
-194.809
-348.327
691.469
-594.189
231.834
621.506
547.855
-1169.36
1113.47
-1947.67
834.2
156.677
355.014
-1700.38
1662.22
307.935
-744.805
-173.315
377.902
763.38
679.17
-1442.55
1085.32
-1087.54
523.212
-1113.58
-624.702
246.711
377.991
545.324
-292.609
-620.586
-1026.94
287.982
-733.465
-912.322
172.075
153.044
228.908
409.746
287.082
-696.828
-639.148
-834.39
-978.565
487.559
-1069.33
-318.086
496.665
534.412
655.309
-276.474
-119.96
-413.419
737.209
265.209
-1204.75
565.602
1315.41
-552.034
442.442
-1025.09
-381.738
164.025
410.923
1023.13
551.811
-1720.91
1619.63
1640.45
-582.849
-1057.6
1906.71
-1896.06
-10.647
225.158
-544.247
-366.401
565.758
-775.514
-334.798
-335.306
1019.86
708.79
-1517.35
808.557
319.231
-26.1832
1625.22
-1102.85
422.102
-1254.53
480.257
-61.568
1523.85
1196.98
-470.498
-485.863
-73.4495
-278.983
736.078
-1951.6
-706.669
365.756
-536.179
170.423
190.317
-503.916
1139.95
671.621
-1811.57
-635.396
187.776
941.625
-1497.26
-210.536
678.75
-468.214
874.527
1125.47
-745.689
1353.21
631.627
-497.86
-133.768
-342.006
1178.81
1049.42
-1979.88
930.462
-1179.59
540.736
1488.71
-586.444
-403.12
-152.544
-1246.81
570.121
1164.62
-93.5306
946.268
776.032
-1722.3
-195.602
578.829
-1541.71
962.885
487.027
916.397
-1403.42
630.168
583.435
410.844
-1106.6
589.237
1113.97
1215.15
-452.112
-763.041
-1186.2
-1754.93
-5.14352
-1715.77
-206.561
-440.358
1611.99
-634.779
-977.216
-490.813
1121.24
-1322.38
633.89
688.494
-1365.15
1448.17
-1335.37
589.684
1520.45
-394.693
-594.277
191.158
-1490.23
223.534
176.387
243.607
388.02
439.757
411.805
-851.562
506.454
-938.774
900.057
-1444.79
-719.092
239.101
479.992
-1055.18
458.184
-487.866
869.15
697.592
14.776
-545.116
168.807
-886.569
-1318.75
-711.447
345.476
365.971
396.941
-721.71
324.769
-472.945
-189.363
-708.419
725.962
1540.15
-593.882
824.254
738.836
1344.61
-844.495
-970.879
-570.835
-793.33
429.021
364.31
-1035.45
-637.695
299.058
338.637
-1433.68
-296.777
-787.488
394.523
392.966
-669.07
419.371
249.699
-694.725
268.455
412.877
485.309
389.905
438.114
476.943
384.448
595.208
-968.345
695.504
465.175
451.752
355.999
-807.75
1630.72
-1079.81
-550.908
-504.896
-291.822
-1033.69
451.496
347.603
409.771
592.627
-1002.4
-1385.13
750.351
-528.521
1150.12
368.299
-44.5319
412.592
-862.996
450.404
-1899.09
299.72
439.019
-723.601
284.582
-193.133
399.393
-206.26
-659.811
299.368
360.443
-669.752
315.071
370.808
388.416
611.719
-1019.89
751.729
664.783
-1416.51
438.873
624.311
337.375
391.845
-729.221
405.918
328.049
600.908
677.045
420.244
606.449
-1037.72
431.27
-1675.41
1182.41
493.009
1696.56
-539.184
618.361
-1146.96
528.598
-639.426
345.044
437.711
-933.263
495.551
771.315
-454.951
350.771
340.698
582.211
-933.328
653.908
-1252.54
598.631
393.22
733.817
-1224.18
768.603
510.032
-1278.64
497.969
405.38
-903.35
-501.807
-936.132
-293.725
631.354
352.492
540.456
-892.948
329.189
331.296
-502.193
1944.73
435.65
-845.409
409.759
-917.577
-808.323
-745.06
363.458
-1235.59
440.182
-1743.59
1613.95
129.64
1752.35
-1607.59
-144.751
-781.382
-586.81
259.903
326.907
-1766.76
1989.94
539.122
790.577
-1329.7
440.17
715.678
689.697
385.615
-1075.31
-55.7905
1617.14
-594.013
392.464
844.916
-644.974
323.148
321.826
-378.906
-296.007
546.555
-211.07
434.918
276.354
-659.903
383.55
258.498
-572.489
-278.125
442.823
-1032.28
589.455
538.072
1092.65
365.98
595.794
308.805
350.307
-659.111
1637.59
-928.797
1692.59
-1521.32
-171.269
-328.313
-820.452
410.99
857.209
-1067.74
-601.599
273.551
-1090.53
1628.6
-1595.62
-74.8465
1670.46
-341.696
-350.518
-370.694
540.448
594.438
-501.734
-23.2706
-549.578
499.587
-283.594
-215.994
1760.16
-1308.79
-620.007
294.471
325.536
402.998
357.321
734.22
-291.059
-399.583
-1752.35
1690.78
459.813
-1100.07
640.258
-41.8616
1661.49
570.714
476.279
-1046.99
103.044
1144.31
-1451.99
-10.609
-1888.48
221.13
-593.668
306.415
287.253
-954.558
611.773
-896.111
465.765
-1127.83
672.416
455.416
386.618
271.171
-781.922
-310.779
1216.04
886.109
699.459
-1182.58
456.161
726.416
494.692
699.806
-1194.5
-361.434
-249.588
402.632
-959.047
439.041
520.006
21.2149
-1879.99
1081.47
-476.888
-511.172
558.869
-1378.03
819.158
-437.747
801.884
-405.915
502.297
-711.283
1723.18
402.033
-173.125
212.514
-159.727
-247.45
407.177
1895.35
-504.132
-1704.05
1050.59
-596.063
300.057
-1012.35
551.769
-312.682
544.464
904.954
-1449.42
-1102.91
437.41
-21.1149
-1946.14
1713.09
-663.665
-539.226
460.899
-1190.01
729.111
198.405
198.422
-278.541
774.325
698.459
836.2
816.188
-460.19
1084.12
-494.085
470.663
-185.79
-284.873
-1924.9
-712.938
-317.314
-640.513
-6.36515
646.878
458.191
-272.186
570.483
1067.1
-812.228
923.021
1243.85
-425.929
-176.399
-242.699
419.098
959.076
-888.291
-317.162
-1066.85
610.344
1564.27
-807.322
537.865
934.607
-402.873
737.692
-334.82
1129.87
-273.501
341.634
1349.45
-708.744
-214.01
448.357
-1198.25
749.888
-981.396
-135.772
1117.17
439.498
-954.246
514.747
179.797
732.146
483.007
743.045
-108.618
850.706
-426.322
1181.91
-796.297
552.501
-1465.37
912.871
-1216.64
1800.97
-431.706
-1510.19
879.299
-1401.8
-325.919
-422.63
1457.05
-1527.72
783.557
1491.4
194.467
276.196
-370.696
-1743.59
-287.491
-1017.17
1587.66
-1778.68
1778.68
1575.06
-1004.34
-631.142
-355.005
368.332
604.233
-377.299
-377.68
-1389.67
897.158
1125.07
600.647
1202.33
1789.49
-1216.41
-621.314
272.401
1659.23
-1916.8
257.566
815.854
-1268.05
1545.17
-561.679
797.618
323.574
-357.949
555.574
793.99
661.936
1366.54
-242.735
-445.706
-383.002
493.611
-337.49
472.032
735.717
-316.133
-132.714
-347.162
574.905
-227.743
35.077
-370.328
1107.34
-1720.28
-456.629
-502.42
-575.516
864.284
699.981
-1596.31
904.494
-452.249
-631.739
-515.249
1251.76
353.825
1723.85
-1702.64
-1661.94
1896.06
-1560.64
840.12
720.517
-389.36
-1799.81
918.095
584.037
818.526
-393.853
1794.54
-681.069
-423.205
686.53
444.142
-1130.67
-1103.34
444.237
752.738
-1617.13
473.274
900.894
166.544
-391.588
225.044
-1604.02
-389.246
-441.284
990.181
-681.207
1442.82
-979.193
1853.72
242.306
-538.63
489.897
-295.431
474.341
893.376
543.372
977.083
-463.496
-427.889
574.343
882.709
-1392.69
-40.9929
1581.88
-843.048
519.973
971.43
-1475.78
-1115.89
1778.09
-1241.51
-536.583
1206.02
-319.334
-886.686
-182.921
445.744
-262.823
-457.298
-251.271
422.266
-170.994
135.623
-385.211
1737.39
-1742.53
-474.042
-530.883
-903.472
434.539
-196.683
-237.856
630.631
-469.073
-362.286
-330.795
693.081
-940.55
408.333
-1166.94
676.123
408.85
-646.149
-434.363
1586.1
-868.531
530.2
-458.444
-569.294
-462.985
357.121
-346.257
-10.8639
-1119.98
420.249
-665.038
-1033.5
1698.54
-612.742
-1425.15
711.288
562.342
-1596.24
1033.9
-405.811
-473.216
162.828
539.589
-1258.34
743.092
539.268
1005.9
-2133.17
999.982
1133.19
-383.589
405.57
-380.183
-25.3871
1477.98
-382.651
449.664
1195.83
582.663
906.044
566.207
528.077
-1094.28
155.181
-456.823
-1695.53
249.091
1127.5
-626.018
518.666
1013.55
-1532.22
1092.78
-1643.69
185.204
711.126
560.385
-877.547
-1086.3
-165.389
419.618
-254.229
-586.226
-446.383
-636.677
-622.995
344.454
-1619.74
939.275
-477.154
215.54
-388.665
528.53
-307.4
-619.711
1196.98
-1293.53
928.614
364.911
-1020.81
-388.439
-765.252
-831.125
1695.41
-477.396
1794.87
-1585.85
-209.019
-1556.58
1018.62
537.952
-732.699
-251.401
432.386
-180.985
-604.157
385.056
267.742
-652.798
-524.37
1003.6
625.424
-351.873
-1620.22
1050.45
571.817
1103.47
-1675.29
-431.619
-284.117
-375.694
-751.24
-485.236
-332.254
493.596
1557.98
-995.638
-774.125
1497.44
658.725
-322.93
725.883
1152.35
-1878.23
311.696
322.343
-487.574
-1934.5
1721.5
213.005
734.647
-475.673
-258.973
531.873
1060.74
-1592.62
357.121
-1726.37
-233.215
1752.37
-1580.65
1073.72
506.926
-1728.88
2.50425
-522.082
405.57
1700.38
-1721.5
939.294
625.307
-1564.6
369.466
-215.345
-154.121
-427.27
-267.454
65.9881
94.4051
-345.806
-424.597
-446.426
-402.551
209.418
1510.15
379.124
-219.431
-449.64
453.494
-190.062
336.744
1510.7
993.657
-168.673
-824.984
-1104.04
1704.92
-1728.95
1063.91
-707.499
-1021.45
-1265.07
1844.98
-579.916
1155.05
-1771.26
616.208
266.997
-877.649
1675.94
43.41
-1719.35
-491.192
-1082.95
-1737.39
-980.623
552.734
1019.51
590.284
1132.97
-1723.25
276.82
-458.953
699.986
-384.915
394.116
924.334
681.843
-386.761
-650.958
582.945
1072.47
-1655.42
-408.536
-362.169
770.705
446.963
-1662.22
1521.32
140.893
579.42
-1043.57
544.763
1083.84
-1555.61
993.927
-231.72
223.591
342.167
1906.71
450.202
-72.3083
995.845
722.75
-1718.6
-696.73
1085.25
-1557.46
155.906
-569.735
190.274
263.22
-669.51
-566.078
582.689
1034.45
-710.775
-287.618
-1368.39
673.682
694.709
-404.359
752.076
86.1742
-838.25
562.277
-137.197
1557.42
-204.146
285.353
-777.366
-1934.5
1664.6
1022.65
350.887
313.398
457.917
-929.853
-995.047
-1767.26
631.767
1693.76
503.267
-474.686
1210.4
1087.04
-424.943
1029.18
-977.192
487.837
489.354
700.792
1047.89
-1748.68
479.535
487.789
-1493.88
-745.396
35.8519
777.125
-413.667
-894.038
382.866
-540.033
-801.033
611.437
-578.103
1397.26
1055.18
187.827
231.791
-550.677
1618.49
-775.292
1527.02
-1727.83
575.305
1152.53
538.045
-882.266
-1733.15
1916.8
-183.65
1721.73
173.558
-546.071
359.018
-264.613
-481.655
1210.77
568.274
1128.28
-491.141
426.161
855.803
-455.593
-774.054
436.405
337.649
1419.5
1089.53
-518.353
1422.85
-510.489
-533.002
1043.49
-602.818
499.146
-1212.72
1692.59
1839.57
-687.221
1586.06
-646.762
-1240.73
716.359
-562.905
193.624
-379.318
444.291
-234.131
-517.772
-1246.7
1870.95
-624.252
1173.4
-555.038
1120.24
-1659.43
1704.24
-573.992
-548.328
-549.849
1720.07
-316.498
-688.111
-473.43
1223.32
-1690.05
-1860.12
613.415
324.535
-945.874
159.442
206.304
-1719.02
1204.13
514.894
1162.84
558.89
-513.12
-465.449
1191.87
184.43
214.963
588.448
1251.12
-539.187
-1238.57
1777.76
-1025.24
999.985
866.782
-204.053
-1659.23
1702.64
-510.191
1411.09
-1733.15
-347.166
2.49056
344.676
-252.923
584.924
-332.001
95.7586
487.288
779.814
-382.874
1257.51
1270.58
-413.375
849.684
-438.694
1817.55
-662.501
1586.66
-1723.85
-412.827
-764.113
310.126
453.987
-561.273
-563.594
79.747
-1138.57
-985.195
-670.389
1655.58
-943.698
-1189.47
159.639
-431.147
-647.229
705.759
1167.43
650.117
1410.28
-591.75
1636.72
1318
-574.904
-484.867
189.437
-503.329
1396.7
1240
-566.319
-999.98
890.874
59.4074
-950.281
603.411
-506.212
1403.37
1495.05
-589.003
-353.299
353.299
-589.593
1623.49
1239.14
-486.401
1134.12
-64.0318
1850.11
-379.239
1489.46
-589.406
-507.702
1347.82
-650.218
1218.6
-568.387
1554.81
-591.92
760.437
578.286
-1338.72
-658.711
287.128
507.036
600.861
-1957.29
-1004.19
1586.66
358.372
-358.372
-59.3203
383.142
438.406
402.312
-15.8552
-323.271
913.689
-520.47
-428.516
811.659
-237.538
615.529
-425.522
1551.59
-444.35
-883.966
176.048
224.465
-400.513
601.174
1250.76
-1851.94
925.18
-459.416
-346.257
126.147
-1943.05
1816.9
-448.209
171.278
1181
-440.508
-740.488
-297.504
-596.534
-496.263
-380.183
-472.939
256.946
1158.08
-563.637
232.817
-370.472
137.655
-23.062
-107.684
1375.96
-1268.28
34.647
-595.953
-586.503
-445.671
445.671
-1262.34
1985.09
-1344.31
-211.707
-1824.09
238.245
-1025.75
-974.245
-177.59
-1639.56
709.712
1229.32
-1925.02
362.483
317.635
-680.118
-1850.02
1234.27
615.755
-559.144
559.144
-958.911
-40.1014
-1866.13
-558.181
1650.83
-675.74
1636.19
-601.737
-183.079
-1705.4
-579.233
-450.715
-594.866
-460.712
460.712
-1537.81
194.53
1343.28
163.35
222.42
-385.771
501.033
492.624
995.646
-475.64
1751.29
769.655
-415.917
390.53
523.181
1702.07
-594.73
-552.99
1636.83
462.675
1812.82
-645.389
-1804.47
-1938.07
-647.103
-473.943
473.943
-605.093
222.091
-697.876
1018.25
-466.484
-1076.2
-296.15
1579.56
1852.29
1635.37
-1635.37
-273.793
741.303
1761.52
595.803
1275.15
164.423
205.043
594.617
588.109
1603.49
-1603.49
215.848
-359.227
-439.147
451.047
950.49
-462.653
-638.643
-1130.95
1706.26
274.906
-1661.15
622.953
-288.906
462.463
1744.65
-592.12
-212.228
-427.242
378.691
735.274
1738.58
-613.506
-511.792
-772.225
1960.54
-870.462
-1090.08
1642.71
-703.312
1223.96
-1824.96
601.001
356.601
-895.232
-185.067
-100.694
1097.39
-487.045
144.689
631.219
-1658.16
431.404
625.404
-1804.47
-583.297
1787.42
883.318
-1162.88
1760.5
-597.617
1783.83
-575.555
-1208.28
438.049
926.761
-1742.53
924.466
-1486.88
253.152
1233.73
-833.133
-1254.22
-371.371
72.7208
298.65
581.771
263.656
1034
-437.895
845.132
-407.237
820.305
741.609
-1561.91
644.509
1066.5
-23.954
-661.531
685.485
-1744.48
723.028
708.139
150.533
-1122.61
1936.78
-674.565
-1262.21
-537.186
1665.47
836.612
967.52
-1804.13
1227.86
683.371
-409.845
709.213
830.845
1027.07
-587.573
1761.52
625.649
1773.56
-1185.59
-587.975
-383.374
-345.508
728.882
121.454
-1185.57
1660.53
-540.285
-1437.78
1437.78
1250.56
594.426
1351.39
206.585
-557.539
280.761
-181.547
699.16
1113.66
475.696
-291.266
-869.39
-575.399
1740.03
-1740.03
998.1
-998.1
987.338
1025.17
-2012.51
1837.96
-614
-581.124
839.873
-947.856
-1052.16
998.174
691.358
-1689.53
-511.963
-366.437
-642.569
-808.438
2042.7
-1246.41
-613.705
1002.97
974.859
1289.78
647.002
321.08
1012.69
227.426
341.919
1186.21
1756.9
-1756.9
671.422
79.4849
-384.488
-997.06
-539.996
1674.12
990.662
1009.34
-1833.31
-217.192
-362.042