/*--------------------------------*- C++ -*----------------------------------*\
  =========                 |
  \\      /  F ield         | OpenFOAM: The Open Source CFD Toolbox
   \\    /   O peration     | Website:  https://openfoam.org
    \\  /    A nd           | Version:  7
     \\/     M anipulation  |
\*---------------------------------------------------------------------------*/
FoamFile
{
    version     2.0;
    format      ascii;
    class       surfaceScalarField;
    location    "28.5";
    object      phi;
}
// * * * * * * * * * * * * * * * * * * * * * * * * * * * * * * * * * * * * * //

dimensions      [0 3 -1 0 0 0 0];

internalField   nonuniform List<scalar> 
11512
(
141.692
-500.758
359.066
-764.416
0.901524
763.515
409.266
-369.6
-39.6659
640.202
263.65
-903.852
1510.79
-1069.34
-441.445
1216.29
-1527.13
310.84
-53.9855
470.71
-416.724
168.455
-841.743
673.288
962.092
-1610.8
648.708
-1762.7
1670.2
92.4952
-542.944
1759.23
-1140.88
1934.63
-793.752
607.93
180.718
-788.648
-25.036
-1315.9
1340.93
221.467
-1984.16
1022.1
-382.844
-639.256
-186.152
327.844
485.476
190.106
-675.582
1154.79
-1313.55
158.768
-319.106
374.885
-55.7783
1005.7
-1317.5
311.802
1221.53
799.411
-2020.94
73.4861
-1642.08
1568.59
-479.473
-1165.91
1645.39
476.511
181.413
-657.924
-184.809
-315.949
498.045
1012.74
1649.34
-1807.19
157.849
-90.7965
-1690.48
1781.27
-1558.97
653.102
905.872
-307.849
652.126
-344.278
-193.602
-153.802
347.404
1286.23
-1212.74
355.168
-1407.35
1052.19
-1754.37
1754.37
100.009
1533.84
-1633.85
-1080.28
-478.693
637.629
-691.615
-385.018
941.24
-556.222
1331.94
-1317.3
-14.6388
-1099.86
714.844
625.148
396.952
-401.342
-24.292
425.634
-453.839
788.526
-334.687
-1618.58
1618.58
1253.59
-1437.89
184.306
-488.701
1710.23
1254.35
-313.108
1660.74
-1161.25
-499.489
66.0996
-385.206
2065.71
-1135.38
-930.327
1815.23
-165.895
455.731
155.482
-611.213
-463.609
973.494
-509.884
-1172.02
1272.03
-568.11
970.397
-402.288
399.805
754.981
661.025
-492.57
-436.276
591.76
-155.484
1190.63
-835.458
2308.19
-1080.67
-1227.53
1163.84
-2009.28
845.441
-1604.06
1579.02
440.624
-1581.5
-759.224
1250.77
-491.542
-671.019
363.17
1661.45
-699.357
-1106.93
-870.894
1977.82
688.565
-377.745
-310.82
689.604
564.744
-258.202
1511.79
106.113
-312.553
206.44
-283.918
760.428
-333.648
565.626
-231.978
-323.794
809.27
-316.595
-145.999
462.594
318.853
90.4128
1461.44
-455.742
-987.703
489.235
498.468
270.612
92.0413
-362.653
948.771
-340.841
-1700.4
647.669
1052.73
18.4937
-858.031
839.537
-280.324
593.364
-313.039
157.27
-1093.71
936.435
1051.82
-1067.29
15.4736
372.573
518.569
-891.143
-244.352
700.083
-1103.58
-482.166
1585.74
-678.817
951.502
-272.685
1355.18
-1445.98
-646.414
284.814
361.6
-470.181
-1011.56
1481.74
-538.068
-794.344
1332.41
576.223
-996.104
419.882
-268.64
-317.826
586.466
401.835
-295.721
-1040.49
576.877
955.284
-798.013
-110.259
944.067
-833.808
-210.036
416.048
-206.012
-630.745
-356.958
-386.468
962.69
1856.39
-1856.39
-474.818
-171.596
-948.936
1559.82
-610.885
497.886
-929.742
431.856
-923.17
355.06
-941.909
-1058.08
-1492.78
343.983
1148.79
-274.822
915.024
-323.51
620.776
-297.266
-1941.9
999.995
-1142.63
-350.149
556.395
-1505.33
1728.5
-1725.66
-2.83853
200.445
-607.698
407.253
-1461.91
974.212
487.698
281.624
216.977
-498.601
310.093
-643.741
244.213
-420.493
176.28
2015.16
-875.577
-1139.58
-547.213
145.871
616.068
836.598
-1452.67
-182.529
426.741
431.258
876.66
-1307.92
-905.553
391.858
513.695
-1047.34
1447.15
-1068.9
309.671
749.499
-97.373
563.226
-292.22
-271.006
1013.09
-523.857
593.284
-1403.8
810.515
-1342.16
238.589
-544.87
264.545
-1183.46
908.641
1946.17
-979.35
-966.82
276.805
1579.58
-2095.62
895.86
1199.76
368.931
-30.0218
-338.909
-223.488
483.939
-260.45
-101.56
-384.242
485.802
-461.771
145.176
342.138
-129.276
627.162
422.06
379.425
-801.485
-2038.51
1117.96
920.544
459.883
-528.64
68.7568
224.403
-366.621
142.219
1017.09
998.075
1786.32
-252.474
737.649
-452.835
796.543
-1389.49
592.943
356.148
332.417
1055.59
-1037.09
-493.873
-237.474
731.346
471.843
-133.268
-338.575
797.233
-616.515
556.245
-722.526
166.281
503.324
1157.42
-1239.73
701.664
1039.2
-1518.67
-3.13352
-1439.43
1442.56
325.813
824.059
-1149.87
623.211
269.725
-892.936
-2269.43
1142.54
1126.89
-1095.82
-1173.61
198.148
358.097
958.487
-632.674
879.536
-899.169
19.6325
-2099.38
992.453
-231.752
-191.148
422.9
-41.796
1770.29
-833.944
69.5272
-1028.95
-1066.67
-229.123
453.526
-682.661
207.843
-278.705
-423.534
702.239
1104.03
-1574.21
782.954
-1374.39
591.437
694.001
-430.351
1947.87
-1444.54
-378.278
-1376.09
72.0081
398.702
-532.645
533.547
22.005
-577.033
555.028
567.464
-285.841
-603.071
279.387
323.684
782.099
-360.039
32.8869
336.044
1188.47
-1191.61
170.422
231.412
393.202
-671.906
619.497
-1005.96
-2026.72
2026.72
-262.71
-445.063
707.773
699.203
405.772
-1104.97
578.642
170.857
407.811
374.288
-2199.75
1328.85
-926.359
-679.258
1605.62
-482.765
-700.698
-253.316
551.078
-297.762
827.164
-198.992
-628.172
-450.915
651.36
363.932
-687.441
-372.052
-128.758
500.81
-1331.32
-475.871
633.576
-1116.34
-374.137
-1244.44
844.332
1463.86
298.616
-943.071
644.455
965.506
-340.358
1391.34
-798.055
440.504
-270.082
-326.911
-871.475
570.054
301.421
-333.292
-538.183
311.399
-412.959
-213.564
-148.449
362.013
-392.67
1091.87
434.804
-244.698
-392.565
1354.96
-170.589
-1184.37
-472.163
291.776
180.387
222.081
263.129
-485.21
22.4968
-745.023
592.105
-1729.01
1136.91
1482.96
-866.89
-1048.38
-413.531
-1056.46
573.376
483.083
1382.5
-408.288
929.127
-1411.29
-159.077
-197.682
356.759
-469.169
579.914
-1627.26
427.966
903.977
291.096
296.892
-587.988
568.078
1186.29
1102.91
-712.917
-389.988
399.311
-215.196
-184.114
-1419.46
445.457
737.848
-1183.3
1473.26
-544.135
-487.078
932.181
-445.103
426.145
1186.16
-1612.3
47.285
-726.102
-146.914
417.525
226.264
-419.867
534.803
478.289
-612.539
61.0912
551.447
1024.54
-1307.67
283.132
665.651
-257.84
468.262
-1447.22
978.957
400.155
1687.04
-523.202
908.21
1037.96
-660.452
-1684.52
758.163
563.069
402.989
-966.058
455.001
78.8293
1749.99
-1828.82
1443.74
-379.469
-1064.27
1699.13
-1740.92
-366.855
-528.846
721.91
-193.063
-502.588
180.258
291.585
-372.893
-1225.99
214.429
-764.55
-639.249
-648.611
997.112
-348.502
-654.221
644.425
9.79593
655.126
-923.797
268.671
-767.145
389.639
377.506
-648.248
-690.397
346.448
343.949
-932.293
1400.56
-418.549
887.5
-468.951
-2205.31
5.55768
175.78
-532.333
356.553
142.56
1212.4
-102.039
-580.622
157.457
-593.733
1487.1
-704.148
381.503
-461.472
79.9682
-570.554
570.554
1223.12
395.459
1777.96
-1228.35
589.222
639.129
849.714
-52.4802
1291.74
773.963
-540.204
1336.75
292.978
300.386
270.48
-799.327
242.949
-696.788
231.22
-443.536
212.316
-242.472
578.535
-336.063
118.54
-361.012
-591.858
-564.456
1156.31
-374.655
547.262
-172.608
-1192.16
2032.04
-839.886
1289.11
-330.624
-406.33
137.69
-1980.52
814.607
1535.93
-848.293
-687.639
1986.96
-877.434
-1109.53
713.576
575.535
-239.041
470.262
-674.08
1145.74
-471.658
-769.905
1201.16
551.664
924.593
-1725.16
800.564
-548.323
-79.1131
627.436
304.261
258.966
407.666
-92.5543
-315.112
896.902
-83.4049
-813.497
923.964
-567.956
-356.009
1576.19
-472.162
890.634
-1627.23
736.593
1068.48
879.387
747.023
-440.274
-306.749
-1059.05
-258.258
564.895
576.739
-1141.63
-465.271
518.408
-53.1376
573.528
-340.88
-232.648
-984.787
566.239
595.055
887.902
-441.777
1096.9
1416.43
-780.954
-635.479
393.683
-923.294
529.611
-1032.02
401.278
559.817
-1046.89
465.299
-542.143
76.8438
479.34
309.186
-522.024
-48.5303
-794.077
-879.085
1673.16
191.095
208.216
-215.921
414.069
-27.3265
-563.388
590.714
495.471
868.57
-1364.04
-519.785
306.221
985.968
-89.0659
836.17
-1064.65
228.476
402.962
845.98
-1386.18
-453.114
832.539
1978.85
-1285.19
-693.668
270.182
609.354
255.968
795.849
88.1725
-969.996
881.823
1673.73
-1089.04
-584.691
-137.873
1887.86
-1866.06
-160.656
483.591
-621.689
138.098
-1012.77
526.499
486.271
-1730.48
538.319
-955.773
845.514
390.917
200.843
587.237
-288.622
-419.892
709.448
256.058
70.6029
707.752
-778.355
-1124.42
-904.183
2028.61
-540.86
1109.39
-568.525
-476.694
-342.623
110.871
-1655.33
861.255
-858.944
-602.443
1461.39
-332.162
-294.622
626.784
353.066
-648.74
295.674
247.817
-607.856
328.319
197.597
-525.916
356.171
-609.487
620.207
-267.141
312.561
-458.56
677.901
411.367
-189.286
-394.719
-295.678
1221.86
-2.50479
-1219.36
1039.39
-419.896
559.992
410.405
-1782.36
869.817
912.545
490.021
552.994
-1043.02
-535.805
203.643
-263.319
1181.05
-917.734
-1590.88
1212.6
504.529
-1096.39
383.576
-2.07219
428.968
309.686
-738.654
371.92
-616.272
-33.7585
756.788
-723.03
-526.192
795.917
391.319
322.563
527.15
652.803
99.9688
-411.4
311.431
1058.95
-645.32
-413.625
494.015
-1664.27
1170.25
-1140.4
1753.22
-612.82
1715.83
-1123.72
-333.162
612.549
-1181.85
1270.02
425.31
-798.353
1606.14
-807.787
-269.181
-202.983
-890.606
1470.55
1813.42
-610.968
-1202.45
-404.6
652.633
-1301.24
-124.828
-53.2685
460.935
-683.327
-354.165
-1236.72
-217.396
465.213
903.473
-558.018
173.775
-1674.62
-71.2207
1745.85
-1071.46
530.596
567.402
-1183.12
615.718
900.926
912.491
630.775
619.991
692.374
239.807
-1139.31
465.234
-396.456
418.461
617.34
-514.776
241.067
-730.319
489.252
700.921
-344.773
-334.339
180.537
-608.835
246.617
362.219
-887.024
-740.203
1087.67
-2145.75
398.775
-682.693
-342.787
-724.502
834.675
581.757
-339.674
315.382
375.667
219.638
643.678
-863.316
525.897
619.84
-544.504
172.451
356.763
-619.473
-1033.18
-860.415
1893.6
-1799.36
157.289
1106.93
-1370.25
1158.68
-718.787
-439.896
-503.733
1349.71
-1495.5
627.867
867.636
-289.128
-210.628
499.756
1428.4
558.562
353.572
-482.33
-482.307
-569.245
1051.55
-420.33
596.11
1582.49
-1129.67
-452.823
-780.549
335.486
654.874
404.072
-1623.42
416.162
1207.26
-184.526
512.845
797.703
784.791
201.063
-693.694
492.63
206.537
209.51
-292.977
-107.608
400.585
496.798
-2.98146
-493.816
-1639.48
591.096
-1607.09
1674.43
-67.3472
11.8741
-1618.96
1069.6
771.809
-342.842
-814.207
-217.816
-1134.5
-239.895
-310.956
682.876
-1812.5
-632.074
1208.81
215.769
757.725
-1330.7
-678.581
-465.505
619.5
-328.404
-1013.28
1350.76
-1932.87
582.104
646.513
1288.12
487.404
-3.46583
717.334
707.019
-1424.35
-636.234
332.719
303.515
440.848
-99.3883
-341.46
144.877
312.08
152.433
-464.514
-588.961
1152.03
457.985
-637.878
-461.612
-401.369
862.981
-326.292
167.215
-454.187
158.466
-303.995
-708.775
549.805
-108.956
-572.915
966.598
581.46
-270.162
-311.298
455.304
-779.098
-647.156
452.014
-1129.41
-839.924
1183.91
-569.759
448.055
283.291
-459.948
82.2037
1028.35
-317.771
594.658
-276.887
-509.022
1578.62
-683.311
244.771
368.006
-612.777
223.487
492.434
-32.4364
-459.998
-258.939
-195.248
1020.65
1108.92
564.805
-879.611
945.459
-65.8481
-459.014
169.887
-738.049
314.515
-590.042
324.683
376.238
832.361
-1239.4
407.042
776.667
-810.425
-948.955
-550.359
1499.31
-172.587
469.479
-555.174
262.953
1300.3
783.422
-582.359
1316.83
-683.254
487.159
-670.968
-403.969
-423.21
-377.943
801.154
502.416
-843.257
-464
98.1623
365.837
-322.999
572.412
727.868
-329.093
-243.06
-172.521
415.581
-488.2
135.061
353.14
1459
81.5678
-1540.56
-752.431
1347.49
-1144.74
-466.057
540.802
-172.796
1150.99
-374.324
1083.5
492.696
697.774
-427.294
-885.039
-522.315
-1328.42
-24.4079
984.985
-960.577
593.04
337.826
-930.866
-339.682
-207.531
-674.42
405.522
1621.19
-187.509
375.846
343.432
-719.279
-1839.76
-2106.68
1519.14
587.541
-2036.6
346.118
370.276
532.584
-902.86
-460.008
1020
-401.941
-670.094
1072.04
-2030.53
1391.21
639.324
595.787
-997.728
40.4422
424.857
386.06
192.027
248.477
319.847
966.062
870.41
678.423
-325.042
-353.381
-292.962
619.582
-326.62
572.265
530.641
565.331
514.704
-1080.04
-796.21
-699.293
751.755
399.236
-409.616
705.291
-1193.41
1609.58
426.61
-1096.7
-343.209
540.806
-1381.03
875.143
505.886
-712.704
-350.669
-778.696
355.191
423.505
446.986
718.197
-1165.18
1072.88
-582.856
-415.454
665.449
-249.995
255.353
326.107
-467.926
-431.683
899.609
-232.01
564.735
-958.67
393.935
-458.694
600.598
-1681.26
423.648
670.907
-1094.55
520.111
100.665
113.408
-2212.79
539.639
-91.5834
1444.22
1777.09
-217.552
-1559.54
-438.452
1789.21
-1987
1194.48
792.519
400.58
346.442
-39.6342
874.309
-1283.16
718.701
-869.294
-822.255
797.847
298.238
70.5579
-368.796
232.464
187.195
-419.658
1556.17
-838.836
-1530.96
-325.43
500.937
-223.177
-277.76
394.57
365.859
257.714
361.786
-9.6151
1002.02
-992.407
376.802
288.856
-665.658
-734.073
1817.32
-1083.24
-342.022
736.592
-1220.49
-413.367
-914.853
483.169
580.558
-782.761
202.203
760.389
-379.95
-380.439
-431.929
-447.682
449.715
1085.71
1238.36
-670.954
800.3
-344.996
381.878
325.894
-239.085
-222.387
-210.731
610.887
407.455
-846.779
439.324
226.487
349.17
-575.657
-422.356
829.811
754.529
-1147.2
889.29
-56.9291
-487.492
277.93
777.657
-96.0295
1384.15
1890.5
-52.297
344.073
-316.154
416.123
-1086.57
1076.96
634.516
375.63
384.759
83.0875
417.85
261.353
502.162
-372.709
-263.525
-564.898
-89.323
-362.313
362.311
0.00107931
-256.365
-288.505
1010.99
-1540.68
529.685
-187.97
-181.63
-386.059
674.915
-1638.28
1591.02
-963.149
267.337
-671.306
584.315
1224.42
-1808.73
607.395
983.621
316.18
-1122.34
702.445
-284.981
-303.007
1379.71
-1448.46
830.085
618.372
432.856
-636.571
203.714
-384.499
481.561
-97.0617
381.828
114.969
1724
456.641
-250.104
557.627
-1704.79
1147.16
-95.2957
393.05
342.111
336.312
-448.374
-615.546
1063.92
413.748
-866.862
-640.998
902.8
570.462
-515.179
-251.966
-438.332
-408.447
-307.274
-827.221
1821.12
-1821.12
-103.21
-1592.91
1696.12
293.054
280.474
-917.201
-555.352
1472.55
-408.022
973.353
-600.522
-1038.95
691.104
395.368
-1086.47
472.734
-160.173
573.062
1220.35
-1793.41
-1039.01
2114.23
-1075.22
-375.535
-295.484
-487.088
822.574
-1754.01
1602.78
151.23
1754.01
-1607.78
-146.228
-245.084
522.005
-276.922
-537.277
1620.77
1567.43
-1980.79
1092.38
-292.263
-265.629
557.892
229.267
-572.476
-702.453
292.836
1341.93
636.921
582.032
481.782
-1063.81
273.234
424.54
875.415
500.072
-1375.49
535.777
-1018.08
1574.93
-563.934
-774.168
-359.753
-133.448
493.201
-489.949
1208.15
-741.437
333.108
366.975
376.641
246.384
-623.025
605.908
831.751
-603.275
262.27
683.189
-515.179
-328.776
-239.746
568.522
1168.53
-676.088
608.928
466.437
-1075.37
-1293.96
1293.96
-385.846
761.475
-280.477
-479.204
759.681
494.449
442.394
-936.843
391.78
-672.257
608.153
-868.743
260.59
-366.878
-492.282
1074.31
-660.735
-711.016
1371.75
-377.237
941.972
-1552.71
675.272
32.4259
-425.542
393.116
-517.878
725.721
259.587
318.948
168.064
304.669
-527.379
242.398
1869.7
-1965.73
262.211
-713.126
454.11
-822.163
368.053
-911.756
1417.1
-505.344
-429.474
-485.379
600.74
1124.19
-1724.93
-713.811
338.276
-461.377
1033.64
-786.458
1048.73
-379.196
-626.124
-496.836
739.785
540.186
-358.773
908.197
-310.982
-177.218
1599.02
-1816.57
-347.452
-611.218
-341.861
476.921
272.456
-600.86
-175.979
1066.4
-788.471
201.124
-295.859
-273.661
569.521
391.619
-883.684
492.065
-484.125
-458.053
-943.071
-359.267
590.486
-231.22
-453.707
-435.395
-345.629
-180.288
-400.148
646.532
-445.128
771.022
-1072.43
624.052
-1406.12
547.181
-28.2537
-1836.72
1864.97
569.901
-449.75
1225.13
-694.538
336.293
-336.293
671.677
-446.045
1038.98
-1639.5
-1158.73
-947.949
291.612
327.97
890.23
715.91
-503.312
-302.698
806.01
1658.66
-1686.92
-434.202
341.71
225.755
1134.56
-525.636
-943.333
1550.48
-607.142
441.319
-249.292
373.148
393.118
-766.266
536.911
469.108
-1006.02
-330.704
663.812
-37.9403
1907.64
1595.38
992.76
-1696.91
727.045
-1176.96
449.918
-492.441
1367.86
837.397
-1341.13
-570.211
277.947
803.401
-400.412
550.108
-1189.78
639.673
-635.998
-1215.53
-695.655
1911.19
-189.305
556.014
-366.71
-179.507
318.871
-508.175
331.447
366.758
-698.205
-1485.72
756.59
729.13
884.087
-1434.45
823.427
-431.568
211.709
-358.623
-602.63
273.854
-647.887
-733.142
698.329
506.354
-1204.68
386.088
-202.067
-184.021
555.687
-957.974
-574.439
-425.459
739.975
-831.298
-1155.7
-1437.95
499.641
938.308
5.47975
-647.704
349.065
298.639
-1317.64
1046.93
270.716
-616.42
-456.006
-665.693
921.66
396.969
-196.308
-200.66
508.215
980.624
-1488.84
979.305
-564.956
167.528
397.428
-409.613
680.081
-417.87
-505.552
163.691
234.26
-1519.45
527.417
545.461
-767.921
250.043
144.423
-455.405
364.279
-822.332
1954.16
-1195.39
-758.77
423.902
-686.537
262.635
326.016
333.505
110.306
-443.812
-573.908
193.502
263.139
-691.691
1374.31
-682.622
423.846
471.302
-1184.01
265.64
1866.78
-1013.59
-853.188
784.886
-542.925
183.658
1402.36
-975.188
-427.17
328.813
-774.858
-616.509
1725.43
609.742
628.614
323.746
-25.5085
264.627
-1138.42
1725.71
-587.29
-1763.52
820.191
1759.33
-1689.27
-70.0521
-661.803
265.347
572.935
-726.159
229.323
1402.56
-565.162
384.664
447.875
-1858.59
1420.14
564.464
-442.087
-122.377
199.485
-545.114
-286.539
-190.155
-352.172
694.282
-584.07
224.317
614.217
549.186
-1163.4
1113.6
-1947.47
833.865
154.323
346.487
-1699.26
1661.31
309.834
-737.129
-166.845
378.554
757.624
679.004
-1436.63
1079.32
-1081.83
524.34
-1107.2
-627.619
251.49
376.128
534.965
-288.349
-610.243
-1029.26
289.473
-724.868
-912.321
171.515
161.142
224.946
399.791
287.791
-687.582
-633.012
-834.054
-978.443
488.568
-1062.48
-305.314
485.702
534.124
649.783
-281.706
-124.624
-410.929
727.108
265.301
-1200.39
567.377
1310.53
-552.909
442.037
-1016.48
-390.662
158.975
405.49
1023.33
551.6
-1716.75
1613.54
1632.81
-571.037
-1061.78
1904.15
-1892.92
-11.2294
218.925
-535.079
-355.902
557.026
-769.707
-327.048
-334.755
1022.57
703.235
-1508.21
804.972
335.526
-26.1892
1625.21
-1091.79
415.705
-1243.88
469.717
-60.8281
1519.82
1197.3
-470.255
-489.844
-75.1123
-272.886
736.024
-1951.56
-709.043
356.685
-532.211
175.526
192.344
-510.115
1139.91
671.561
-1811.47
-624.553
182.466
941.959
-1497.31
-210.455
678.879
-468.424
871.78
1128.22
-740.388
1350.13
621.728
-491.729
-129.998
-344.233
1174.32
1042.92
-1979.45
936.529
-1174.22
542.142
1488.71
-585.915
-395.905
-148.599
-1242.74
571.784
1160.57
-107.837
946.094
775.633
-1721.73
-201.333
578.521
-1541.7
963.182
486.96
916.637
-1403.6
623.543
585.27
401.365
-1106.64
591.945
1109.16
1216.51
-452.419
-764.088
-1186.2
-1754.93
-6.43313
-1710.31
-203.153
-433.418
1608.41
-630.485
-977.924
-490.788
1121.56
-1318.86
635.191
683.666
-1362.54
1444.11
-1331.54
591.155
1520.48
-388.414
-583.054
187.149
-1482.79
225.488
176.367
237.793
383.934
438.213
404.47
-842.684
506.3
-939.005
900.623
-1444.76
-708.431
235.175
473.256
-1047.14
458.182
-479.724
864.388
695.177
21.2631
-534.097
167.387
-886.565
-1318.74
-713.894
349.047
364.846
401.33
-721.729
320.399
-478.584
-189.26
-709.909
721.385
1539.7
-593.607
818.256
737.915
1344.77
-844.696
-971.233
-570.47
-795.481
427.447
368.034
-1036.32
-640.67
303.272
337.398
-1433.69
-296.783
-789.496
397.516
391.981
-659.145
412.235
246.91
-684.756
266.885
412.301
487.308
389.288
440.523
478.842
384.139
596.561
-969.455
686.075
465.955
453.598
356.124
-809.723
1630.76
-1079.89
-550.862
-504.551
-287.657
-1029.99
453.969
347.185
409.403
593.969
-1003.37
-1381.78
751.294
-531.133
1146.85
359.507
-47.4263
411.735
-864.619
452.885
-1895.52
302.615
441.463
-725.983
284.52
-187.562
400.512
-212.95
-659.845
304.109
355.736
-672.466
319.085
370.128
391.348
612.693
-1020.71
752.709
662.525
-1415.23
438.603
625.317
339.924
392.711
-732.635
408.97
327.622
600.377
673.558
412.156
600.109
-1027.95
427.839
-1669.91
1189.97
479.949
1696.59
-539.17
620.232
-1146.89
526.655
-642.582
347.96
436.995
-934.543
497.548
761.319
-451.633
350.085
344.197
575.713
-923.165
651.684
-1252.56
600.88
383.322
734.627
-1224.58
769.403
509.538
-1278.94
490.641
404.607
-895.248
-501.657
-936.292
-297.838
629.285
352.293
541.822
-894.115
332.607
331.205
-502.179
1944.74
437.118
-846.972
409.853
-917.734
-807.423
-747.29
366.851
-1224.64
438.18
-1736.31
1607.78
128.535
1747.74
-1602.78
-144.968
-783.328
-590.61
264.871
325.739
-1759.33
1980.79
538.515
791.389
-1329.9
439.999
716.314
690.307
385.513
-1075.82
-70.9436
1617.12
-593.794
387.876
837.257
-649.6
326.719
322.881
-377.582
-297.499
552.852
-216.535
433.512
280.906
-665.822
384.916
263.852
-576.891
-281.786
442.346
-1033.15
590.802
538.039
1092.72
365.822
596.868
312.779
353.526
-666.306
1627.86
-924.628
1691.99
-1520.65
-171.34
-326.758
-822.26
413.813
857.518
-1067.97
-604.889
278.269
-1090.6
1628.64
-1587.82
-77.1589
1664.98
-340.017
-349.057
-369.194
537.721
596.843
-501.091
-27.549
-550.001
503.915
-281.726
-222.189
1751.38
-1301.67
-623.498
298.6
324.897
399.605
357.202
734.671
-295.528
-398.242
-1747.74
1686.92
459.421
-1100.71
641.294
-42.7855
1656.32
571.292
476.291
-1047.58
104.814
1144.77
-1452.05
-13.3067
-1882.22
226.993
-597.928
306.554
291.374
-955.366
612.579
-897.551
468.077
-1128.37
673.375
454.991
377.446
268.563
-771.875
-308.455
1216.43
886.681
699.061
-1182.89
456.077
726.815
494.276
700.694
-1194.97
-358.462
-245.443
406.585
-960.145
438.272
521.872
21.2466
-1879.84
1079.63
-471.478
-502.583
558.196
-1378.09
819.897
-430.209
798.262
-404.737
499.337
-706.04
1726.69
407.123
-182.177
217.243
-168.035
-243.569
411.603
1895.32
-504.114
-1695.23
1051.3
-602.158
304.659
-1013.37
553.366
-311.251
544.274
905.265
-1449.54
-1103.68
437.99
-20.8687
-1944.86
1711.18
-668.253
-540.643
460.649
-1190.4
729.751
192.528
204.441
-282.625
770.814
699.735
837.737
818.313
-462.188
1084.74
-482.759
475.473
-192.619
-282.854
-1923.42
-714.213
-317.022
-644.692
-6.97936
651.671
463.926
-270.424
566.567
1061.3
-806.717
924.302
1244.16
-424.744
-188.321
-227.89
416.211
960.992
-888.526
-319.943
-1067.59
611.582
1558.91
-802.315
537.646
934.906
-395.816
735.115
-339.299
1130.31
-276.724
338.901
1349.58
-705.558
-217.736
448.221
-1198.57
750.349
-988.209
-118.439
1106.65
441.416
-955.154
513.739
176.398
732.997
483.509
737.343
-93.6658
852.258
-425.295
1182.47
-796.958
552.134
-1465.42
913.283
-1216.65
1800.97
-431.712
-1510.19
879.638
-1401.95
-318.759
-419.895
1457.14
-1524.45
784.243
1491.48
200.847
274.627
-361.129
-1736.31
-287.65
-1012.16
1578.73
-1769.95
1769.95
1567.43
-1004.45
-633.424
-345.099
368.251
605.101
-373.85
-368.52
-1389.81
897.372
1125.14
600.572
1202.72
1789.48
-1216.42
-615.118
271.307
1659.02
-1916.5
257.48
814.756
-1267.58
1545.23
-561.609
788.612
320.773
-350.908
554.852
794.861
671.84
1356.77
-234.9
-444.666
-372.991
497.706
-342.224
471.7
736.447
-305.965
-137.847
-337.407
569.391
-231.983
29.2123
-370.092
1107.44
-1720.26
-446.517
-493.519
-569.417
863.696
695.21
-1596.46
904.768
-451.373
-625.03
-514.046
1251.89
345.563
1723.71
-1702.46
-1658.66
1892.92
-1560.8
840.278
720.524
-383.95
-1796.79
917.7
583.231
819.327
-393.043
1794.31
-680.71
-418.856
682.002
436.181
-1118.18
-1100.38
444.041
753.259
-1617.17
473.176
901.137
175.276
-398.053
222.778
-1598.15
-386.017
-436.494
990.292
-675.361
1442.91
-981.539
1853.32
239.089
-537.748
494.122
-293.275
474.293
893.563
543.115
977.364
-462.597
-427.633
573.953
883.19
-1392.71
-40.9882
1575.44
-837.525
519.937
971.545
-1475.78
-1115.9
1772.72
-1241.51
-531.21
1206.07
-319.012
-887.054
-190.827
451.112
-260.285
-456.996
-248.021
427.15
-179.129
142.81
-388.253
1732.06
-1738.49
-465.023
-530.832
-903.614
440.931
-205.696
-235.235
635.66
-463.524
-359.625
-323.696
683.321
-929.719
391.536
-1167.25
676.464
414.364
-639.064
-435.116
1578.6
-862.689
530.177
-457.687
-570.752
-462.396
373.523
-363.748
-9.775
-1109.32
414.78
-664.775
-1033.64
1698.41
-605.105
-1423.62
712.601
562.192
-1596.24
1034.05
-399.396
-473.429
156.574
535.8
-1258.28
744.23
539.215
1006.01
-2133.18
999.988
1133.19
-373.599
420.837
-395.931
-24.9061
1478.02
-375.994
449.249
1210.28
582.228
906.487
567.52
527.378
-1094.9
163.016
-447.655
-1689.27
250.006
1127.58
-618.628
518.486
1013.74
-1532.22
1092.86
-1643.72
187.865
701.425
552.11
-872.053
-1086.51
-173.525
429.631
-256.105
-587.115
-437.077
-636.794
-629.655
347.03
-1618.88
939.618
-476.663
212.634
-394.811
532.524
-305.531
-611.87
1197.11
-1281.79
924.663
357.124
-1018.46
-379.774
-759.759
-826.56
1690.26
-476.786
1793.4
-1582.97
-210.43
-1556.63
1018.72
537.901
-727.702
-263.899
445.94
-182.041
-596.521
382.846
272.574
-655.42
-523.882
994.044
628.376
-350.106
-1620.27
1050.51
571.763
1103.54
-1675.3
-422.281
-289.266
-370.579
-746.588
-479.108
-329.008
497.073
1557.98
-995.786
-775.051
1497.44
658.095
-316.385
725.88
1152.37
-1878.25
301.273
315.289
-487.072
-1932.61
1720.12
212.489
736.895
-473.844
-263.05
531.824
1060.83
-1592.65
373.523
-1723.62
-233.21
1752.35
-1580.69
1073.78
506.911
-1724.69
1.06943
-521.595
420.837
1699.26
-1720.12
939.606
624.638
-1564.24
385.188
-218.211
-166.977
-419.714
-265.041
68.7069
95.1604
-359.059
-428.197
-440.546
-403.249
215.688
1510.23
378.845
-216.236
-442.908
461.244
-198.105
329.046
1510.76
995.395
-153.985
-841.41
-1104.09
1704.83
-1728.78
1064.01
-707.197
-1021.59
-1265.09
1844.99
-579.902
1155.07
-1771.15
616.088
272.415
-878.094
1675.73
43.4424
-1719.17
-491.153
-1083.06
-1732.06
-981.757
554.124
1019.61
590.223
1133.03
-1723.25
277.669
-450.465
702.439
-383.354
387.561
924.744
680.874
-382.917
-645.031
582.887
1072.55
-1655.44
-402.731
-366.268
769
437.916
-1661.31
1520.65
140.667
582.124
-1043.5
544.74
1083.9
-1555.67
994.057
-236.702
225.17
331.856
1904.15
441.888
-72.7329
995.862
722.75
-1718.61
-697.281
1085.35
-1557.51
163.582
-571.351
197.455
263.789
-662.523
-562.115
582.506
1034.62
-711.175
-281.983
-1368.28
675.211
693.072
-411.708
758.949
68.5678
-827.517
561.696
-137.16
1557.3
-210.722
275.589
-773.152
-1932.61
1664.62
1027.85
389.639
307.246
454.072
-929.949
-993.474
-1767.26
634.337
1693.76
506.716
-474.26
1210.71
1087.12
-424.761
1029.86
-977.478
491.31
486.168
700.306
1047.92
-1748.22
483.028
483.57
-1493.98
-745.985
33.0681
779.136
-412.285
-887.316
384.733
-538.985
-802.145
644.455
-577.363
1397.26
1055.14
195.478
234.153
-550.611
1618.52
-773.201
1525.91
-1727.83
575.251
1152.58
541.886
-882.244
-1732.81
1916.5
-183.69
1721.74
180.688
-544.224
374.133
-278.972
-481.35
1211.1
568.267
1128.32
-491.104
428.473
856.885
-459.933
-771.762
429.434
342.327
1418.94
1089.58
-518.182
1422.95
-510.523
-533.549
1044.07
-602.751
484.207
-1202.99
1691.99
1839.58
-687.211
1585.7
-646.09
-1241.13
717.245
-562.501
205.727
-396.875
454.211
-244.7
-519.702
-1246.71
1870.94
-624.233
1173.1
-552.872
1120.28
-1659.45
1697.12
-573.93
-546.007
-549.816
1720.07
-316.897
-688.03
-473.251
1223.6
-1685.53
-1860.1
613.395
307.317
-935.489
166.865
212.396
-1719.02
1204.15
514.872
1162.85
558.887
-511.948
-465.317
1192.13
179.102
221.409
588.444
1251.13
-539.176
-1238.58
1777.76
-1025.35
999.99
866.789
-204.108
-1659.02
1702.46
-510.059
1411.2
-1732.81
-352.571
13.3055
339.266
-258.401
583.531
-325.13
83.9027
486.151
780.077
-378.747
1257.53
1270.82
-413.304
851.292
-437.479
1817.46
-662.39
1586.55
-1723.71
-412.792
-754.367
308.152
446.215
-559.947
-563.314
79.715
-1138.76
-985.42
-669.82
1655.24
-943.707
-1189.47
159.125
-424.753
-648.185
705.646
1167.44
650.013
1410.21
-590.884
1636.75
1317.93
-573.698
-488.974
195.699
-503.257
1396.82
1239.89
-564.677
-999.989
892.339
56.0538
-948.392
603.434
-506.112
1403.48
1495.02
-588.529
-381.993
381.993
-589.43
1623.48
1239.42
-486.166
1134.16
-68.2802
1849.55
-387.717
1489.4
-588.782
-507.654
1347.93
-651.959
1218.35
-566.395
1554.77
-591.593
754.151
575.214
-1329.37
-655.611
282.452
500.97
600.276
-1957.3
-994.136
1586.55
382.705
-382.705
-64.6677
386.953
436.474
394.918
-13.0899
-342.505
902.867
-519.545
-426.089
813.042
-242.327
618.455
-429.729
1547.69
-444.318
-884.106
185.419
223.475
-408.895
601.168
1250.78
-1851.94
926.448
-458.371
-363.748
126.151
-1943.02
1816.87
-447.542
177.461
1181.21
-440.402
-740.807
-299.569
-587.747
-493.242
-395.931
-477.85
255.662
1157.89
-561.05
228.74
-374.989
146.248
-22.4074
-107.67
1376.09
-1268.42
34.4499
-599.348
-586.396
-460.727
460.727
-1262.36
1985.11
-1344.39
-212.059
-1823.28
240.316
-1025.75
-974.243
-184.305
-1638.05
708.105
1229.32
-1924.97
366.913
313.23
-680.143
-1850.01
1234.27
615.742
-564.853
564.853
-959.154
-39.8902
-1866.06
-558.139
1650.86
-676.951
1636.16
-601.544
-178.311
-1703.91
-582.345
-447.121
-594.799
-473.793
473.793
-1537.81
194.526
1343.28
173.27
224.007
-397.277
487.61
507.785
996.614
-474.742
1751.3
768.723
-427.904
402.997
521.145
1702.05
-594.603
-552.959
1636.85
468.763
1812.74
-645.301
-1804.03
-1938.07
-646.967
-485.044
485.044
-594.651
221.66
-693.614
1019.1
-465.737
-1073.22
-289.077
1579.58
1852.3
1635.34
-1635.34
-271.95
739.763
1761.49
595.787
1275.15
175.507
209.681
583.611
589.825
1603.53
-1603.53
221.273
-354.816
-435.592
459.267
950.669
-459.359
-639.564
-1131.01
1706.26
279.318
-1653.96
615.005
-286.471
467.159
1744.64
-592.063
-214.766
-419.709
379.312
729.848
1738.57
-613.426
-511.764
-772.583
1960.53
-870.453
-1090.08
1642.76
-705.838
1223.97
-1824.94
600.972
343.863
-881.611
-185.947
-110.159
1098.02
-486.437
135.8
622.133
-1651.4
434.179
615.949
-1804.03
-583.275
1787.43
884.08
-1162.92
1760.49
-597.567
1783.83
-575.526
-1208.3
436.859
924.779
-1738.49
924.73
-1493
263.585
1229.42
-830.928
-1254.23
-385.795
77.7027
308.092
581.722
268.349
1029.09
-442.022
845.344
-403.322
820.786
739.358
-1560.14
643.938
1066.29
-24.5225
-663.924
688.447
-1744.32
722.73
702.695
150.528
-1122.68
1936.76
-674.549
-1262.21
-537.172
1665.49
832.049
964.935
-1796.98
1227.86
683.326
-404.934
709.043
826.391
1027.85
-586.429
1761.49
626.536
1773.56
-1185.62
-587.94
-380.798
-338.548
719.346
121.434
-1185.7
1660.55
-540.264
-1437.85
1437.85
1250.57
594.415
1351.54
206.434
-558.997
278.884
-186.843
699.08
1113.66
477.31
-298.207
-870.047
-574.711
1737.42
-1737.42
1012.38
-1012.38
987.331
1025.17
-2012.5
1837.94
-613.971
-581.106
830.132
-947.849
-1052.16
998.297
690.707
-1689
-522.024
-356.027
-641.701
-808.424
2042.69
-1246.42
-613.682
1002.97
974.852
1289.77
646.987
324.858
1012.68
225.618
338.055
1186.29
1756.87
-1756.87
671.949
80.2009
-391.499
-997.052
-539.987
1674.14
991.091
1008.91
-1833.28
-222.217