/*--------------------------------*- C++ -*----------------------------------*\
  =========                 |
  \\      /  F ield         | OpenFOAM: The Open Source CFD Toolbox
   \\    /   O peration     | Website:  https://openfoam.org
    \\  /    A nd           | Version:  7
     \\/     M anipulation  |
\*---------------------------------------------------------------------------*/
FoamFile
{
    version     2.0;
    format      ascii;
    class       volScalarField;
    location    "9";
    object      p;
}
// * * * * * * * * * * * * * * * * * * * * * * * * * * * * * * * * * * * * * //

dimensions      [0 2 -2 0 0 0 0];

internalField   nonuniform List<scalar> 
29540
(
0.0235611
0.269628
-0.0229913
-0.0876734
-0.00626774
-0.0955848
-0.0296753
0.0230488
0.00546752
0.000537353
0.015866
-0.0120026
-0.0012114
-4.74569e-05
0.277772
-0.0153981
-0.000365827
0.108497
-0.0055831
-0.0269356
-0.00220142
0.00513826
-0.0232128
-0.00548502
0.971393
0.267858
-0.00130704
0.829245
0.264588
-0.00426668
0.0416744
0.128102
-0.132378
-0.016617
0.83749
-0.0165582
0.304098
-0.0697085
0.0150763
0.0145791
0.00120838
-0.0419193
-0.000317963
-0.0426514
0.000104316
-0.00375649
-0.0103155
0.000239275
0.00891288
0.29619
-0.0379806
-0.0779415
0.132071
-0.0928763
-0.0150554
0.249556
-0.00883016
-0.00226492
-0.0114406
-0.0393165
-0.000132812
-0.00540839
0.0300658
-0.0144388
0.476887
0.915062
-0.0190536
-0.0218628
0.874375
0.0012571
0.265474
0.696563
0.00636245
0.923859
-0.0200007
0.0303748
0.261935
-0.062525
-9.41888e-05
-0.0354336
-0.0861896
0.359735
0.0234086
3.96742e-05
-0.0249875
-0.168823
0.515828
-0.00125908
-0.00116946
-0.126407
-0.0547208
-0.0629862
0.00823078
0.127649
-0.129462
0.528788
-0.0694437
0.00132356
-0.0964144
0.331695
-0.000100787
-0.0587908
-0.000128899
0.0913307
-0.0798282
0.229315
0.602311
-0.00112241
2.13551e-05
-0.119635
-0.132321
0.0305146
9.91588e-06
-0.00391854
-0.000355781
0.681493
0.390148
-0.0294196
9.82811e-05
0.00732815
-0.103607
0.286706
-0.0173222
0.913693
0.00296683
0.0209993
0.117655
-0.0305038
0.0108258
0.00012467
-0.0394163
0.242298
0.684223
-0.048692
0.0905169
0.0404807
0.579552
-0.0598985
-0.177832
0.319077
0.0313514
-0.110213
-0.107594
7.56732e-06
-1.95996e-06
-0.00642357
-0.00961326
-0.104055
-0.128179
0.0813301
0.0681315
0.0342232
0.00121484
-0.000295111
0.377026
0.00144816
-0.019483
0.55145
0.449767
-0.0340239
-0.0829764
-0.0853223
0.260751
-9.42767e-05
-2.31663e-06
-0.0295926
-0.10495
0.000190972
3.73837e-05
-0.0175742
0.000159797
0.0151236
0.562449
-0.0590626
-0.0922524
-0.012715
0.00557669
-0.0604075
-0.00313603
-0.00457077
-2.65954e-05
-0.00761395
0.512285
-0.0206037
-0.175421
0.379416
-0.015943
-0.0451423
0.0101321
-0.00382458
-0.000677474
0.00627756
0.926694
0.371135
-0.0346023
-0.0187079
0.78221
0.336243
-0.12761
0.00312251
-0.0585025
-0.11426
-0.0114606
0.00229553
0.577072
-0.0169837
0.0181991
-0.104636
-0.122808
-6.06689e-05
0.74227
-0.00261078
2.96453e-05
-0.00135792
-0.0512737
0.0640387
-0.00477745
0.0177526
-0.00543337
-0.127044
0.000142176
0.00129946
-0.00585226
0.188951
-0.00714203
-0.00372919
0.12855
0.000397464
9.77211e-05
0.0139971
-0.066823
-0.0537331
-0.0119332
0.262956
-0.0368969
0.0360892
-4.98513e-05
-0.0076235
0.00214605
-0.0530044
-0.167249
-0.00348253
0.00130109
-0.00396804
0.00762721
-0.0263064
-8.83321e-05
-0.162505
0.000181664
0.191728
-0.0085408
0.000444296
0.232653
-0.116276
0.00071508
9.11265e-06
-0.110434
-0.160182
-0.0224658
-0.0338941
0.0679341
0.491072
0.000247918
-0.064502
-0.0481789
0.801627
-0.0207777
0.374209
0.0388023
-0.000433549
1.09515
-0.00135054
-0.0970296
-0.125403
0.00597124
0.0455324
-0.0209496
0.692991
-0.00874942
-0.0446029
-0.000603592
0.422573
-0.00735539
0.539045
-0.00127053
-0.0146666
0.798056
0.165118
0.128266
-0.0783946
-0.00035316
0.00739715
-0.000390227
3.17258e-05
0.180862
0.000122876
-0.0484236
-0.0517149
0.982112
0.67742
-0.103583
-0.0461278
-0.0514699
0.0274583
0.00798607
-0.0457015
-0.108453
0.502308
0.701728
-0.00324495
0.593184
0.175996
-0.0165567
0.0296611
-0.00384909
-0.016768
-0.0136234
-0.00677544
-0.000119649
-0.00445925
0.0402174
0.431475
0.00439788
-0.0669381
0.0345446
-6.72118e-05
-0.105893
1.02639
-0.0161033
-0.00347006
0.0316418
-0.0337685
0.233334
-0.0037556
-4.89017e-05
9.98257e-06
-0.0068469
0.803071
0.064763
-0.167232
1.02003e-05
-0.167928
0.144202
-0.0129996
-0.119507
-0.00316884
-0.00109709
-0.0613154
0.00252945
-0.00335046
0.0278742
0.212779
-0.000275066
0.00595072
0.284074
-0.0984161
0.00119824
0.00126786
0.676478
-0.0543797
-0.00413088
0.351235
0.815008
-0.0500986
-0.0179219
0.0741564
-0.00196316
-0.0218705
-0.00855262
0.329382
2.70126e-05
0.0268766
-0.124093
0.687636
0.913954
-0.015471
-0.022987
0.491305
-0.041197
-0.000115934
0.152808
0.199164
0.202361
-0.0187323
0.0670345
0.82243
-0.143933
0.743877
0.695564
2.49411e-05
0.0420098
-0.131559
-0.00750699
0.00448045
0.821458
0.0643328
0.000808986
-0.081206
-0.116615
-0.0143761
-0.000268675
0.551385
0.382547
0.000193544
0.0111684
0.0147535
-0.101282
-0.0778664
0.000237712
-3.13902e-06
0.00139658
0.241299
-0.0692246
0.541761
-0.118923
-0.0445088
-0.054627
0.34438
0.0409475
-0.00314475
0.021944
0.00236223
0.753738
-0.0643846
0.00301054
-0.0194629
0.0375294
-0.00393168
-0.031701
0.00069191
0.000706309
1.03904
-0.0209248
-0.0131038
-0.00109621
-0.00191524
0.467919
-0.12606
-0.0607603
1.79732e-05
2.57789e-05
-0.0665108
-0.0174954
-0.013589
0.0462331
0.0169907
-0.00690791
0.0766663
-0.044757
0.732856
0.0140643
0.000730659
-0.103485
-0.0589555
0.0670567
-0.00882447
-0.0612056
-2.64372e-05
0.881699
0.0522683
0.000284986
0.926645
-0.0627119
-2.84166e-05
0.00405846
-0.105784
0.0321361
0.115586
-7.05546e-07
-0.0208678
-0.0134842
-0.0139475
-0.00121593
-0.021571
0.789035
-0.0218901
-0.0305771
0.393968
-0.00745689
0.775246
-3.21921e-05
-0.0406382
-0.104378
-0.0599255
-0.0687194
-0.00412993
0.00570656
-0.000361621
-0.0485368
0.0257835
-6.2887e-05
2.37781e-05
-0.0165035
0.725704
0.0205864
0.00701139
-0.129961
1.06999e-05
0.00278135
-4.17153e-05
0.0258558
-0.0450037
-0.000998686
-0.0206378
-0.0321747
0.00289093
-3.38542e-05
-0.0291662
-0.00096465
0.131776
0.638217
0.499671
-0.0106721
0.0167255
0.0688166
-0.000201806
-0.00916965
1.20885e-05
0.703125
-0.0355753
0.045596
-0.0437215
0.00478861
-0.00825457
-0.000234537
2.88868e-05
-0.0126942
0.121255
0.460738
0.00351544
-0.0935112
-0.0640297
-0.0205215
0.0846422
-0.00351285
0.0034234
-0.0146807
-0.000212337
-0.108161
0.508722
0.35612
-0.0566742
0.496689
0.0002854
1.53086e-05
0.1556
0.0572756
0.915615
-0.0914017
-0.0544462
0.0493436
0.00334442
-0.0153608
0.00133762
-0.0275352
-0.033245
1.13197e-05
-0.00237006
0.682358
-0.000310037
0.855722
1.27469e-05
-0.0407532
0.125488
0.0843489
0.00298937
0.000568039
0.710447
0.137257
-0.106977
0.366574
-0.0171787
-0.0341889
-0.0107937
0.452344
-0.064839
0.0318693
-0.0197678
1.18546e-05
-0.0034727
0.0164817
-0.0456643
-0.0554232
-0.103197
-0.0461621
0.243624
-0.00571032
-0.125396
-0.0353681
0.000159756
-0.0311965
0.0261586
0.247485
-0.0684168
-6.53989e-06
-0.0467782
-0.000858039
0.00398242
-0.144569
0.540296
0.00259417
-0.0307434
-0.0420413
0.167802
0.776119
0.00515238
-0.0119824
0.44164
0.315881
-0.0382921
0.0137717
-0.113449
2.06751e-06
-0.099492
0.000277544
-0.042987
-5.80357e-05
0.000107617
-0.0156008
0.0352508
0.645851
0.0282163
0.0323326
2.23041e-06
-0.0166439
0.00028338
-0.00865022
0.000107048
0.122695
-0.00124736
0.357986
-0.000297445
-0.0330122
-0.0874356
-0.0113243
0.770443
-0.0423767
-0.0980763
-0.0150184
0.114238
-0.0991984
0.0747458
-0.0353294
-2.18263e-06
-0.0132954
-0.0105952
0.000746642
0.000273081
0.448267
-0.0131595
0.182394
-0.0110063
0.0024714
0.0832531
0.000511621
-3.59061e-05
-0.0984022
-0.00938491
0.000115299
0.466871
0.99336
-0.000527551
-0.0843024
2.20034e-05
0.83357
-0.050496
-0.0876039
0.000191186
0.0329531
0.141531
0.164949
0.113649
-0.00105178
-0.000315109
-0.0393534
1.18618e-05
8.89366e-06
-0.0660147
-0.0671007
-0.101145
0.954383
0.000612404
-0.067077
0.02137
-3.1853e-05
-0.00326713
0.000159275
-0.0160798
0.000145138
-0.0317213
0.0725222
0.766393
0.111039
-0.000714751
0.00135597
-0.108911
0.178458
-0.00828531
3.22543e-05
0.401505
-0.172706
-0.0885642
-0.0361465
-3.03909e-05
-0.000708785
-0.176209
-0.0506046
0.297635
0.730086
-0.0956101
-0.00339333
-2.73256e-05
-0.102052
-0.131343
-0.000505214
0.00829666
-0.0370267
-0.012522
0.700427
-0.00346618
0.0104219
0.276021
-0.0203704
0.919419
0.910065
-4.82051e-05
-1.46515e-05
-0.0418402
0.0427129
-0.0816613
0.0147914
-0.0197191
-0.00151254
0.809134
0.349328
0.00642027
1.08117
1.70432e-05
0.226039
-0.115223
-0.0651451
0.000319243
-0.0846028
0.233464
0.0409194
0.149352
-0.00118509
-0.00126761
-0.00650412
-0.00925834
-0.0345699
-0.00283878
0.263431
-0.0148044
-0.0139303
-0.132552
0.665419
0.0455553
0.0818157
-0.00105015
-0.00135195
-0.0499061
0.00284458
-0.00694922
-2.85721e-05
-0.00090445
0.234185
0.713532
-0.000310939
0.370618
1.36576e-05
-0.00896821
1.87118e-05
0.0151726
-0.0396982
-7.43079e-05
-7.63262e-05
-0.12133
1.27234e-05
0.115605
-0.0577653
-8.10936e-06
0.357056
1.95106e-05
-0.00104706
-0.000203994
-0.0134108
-0.000938011
-0.0162192
-0.128955
-0.000821926
0.0119415
-3.68278e-05
0.63546
0.00739002
0.0432647
-0.0771126
-0.0544286
-0.00300033
0.00823641
0.418692
-0.0609961
0.365016
-0.0932043
-0.00926326
-2.02679e-06
-0.0151525
0.684304
0.393076
-0.0789931
-0.115562
0.612013
-0.0219291
-0.110208
1.79675e-05
-0.0599814
-0.00221899
1.0571
-0.10049
-0.000198697
-0.12367
-0.063036
0.476709
-0.00686591
-0.0653734
-0.00982106
-0.0145574
-0.00337895
0.475188
-0.164651
-0.0472934
-0.0375898
-0.0327427
0.0156087
0.601336
-0.0459703
0.368365
0.00768588
-0.0691032
0.867823
-0.0223177
-0.000579371
0.479733
0.687255
-0.0043554
0.0381546
-0.0170854
-0.0761697
0.442329
-0.103315
-3.40049e-05
-0.0191366
0.000116231
-0.0117189
-3.69644e-05
-0.011748
-0.00253383
-0.00827649
-0.090952
-0.00155892
-0.00130148
-0.00290005
0.398215
-0.00545519
-0.00846361
-0.00782866
0.334792
0.0144259
-0.000883302
0.676255
0.897692
-0.0477021
0.810586
-0.0419946
0.634277
0.014885
-0.027312
0.00706252
-0.00116365
5.44031e-05
0.00703151
-0.0290067
-0.0476947
0.360342
-0.0546403
-0.0483587
-0.00236792
-0.0812603
-0.0569451
0.0176842
-5.86233e-06
0.0296859
0.217352
0.685839
0.0510765
-0.0320417
0.2872
-0.000786788
0.0905643
-0.0428909
0.00178737
-0.122032
0.00879971
0.635828
-0.00520532
-0.0013322
-0.000222436
-0.107039
-0.00314506
1.06182
1.09439
0.030792
-6.46782e-05
0.021543
-2.85379e-05
0.146714
-0.00130953
0.0552496
0.985735
0.0785295
5.80564e-05
-0.0195376
3.33834e-05
-0.166127
-0.0804444
0.806203
0.0006397
0.0297166
0.00826248
0.00078363
-0.0055464
-0.000704822
-0.0143825
-0.0816199
-0.0535074
0.0184456
0.348756
-0.0313074
0.0160157
-0.0476089
-0.00436959
-0.0627629
3.71027e-05
0.00013716
-0.00526276
0.0692078
-0.0630463
-0.0375105
-0.00870067
0.00677015
-0.0342812
0.475784
-0.0301501
-2.46668e-06
-0.117872
0.743871
-0.047527
-0.0280989
0.160888
4.55015e-05
-0.00156707
-0.0650427
-4.93171e-05
-0.00101869
-3.10579e-05
1.08151
0.0216865
0.00889446
1.24018e-06
7.3691e-06
1.71461e-05
7.75656e-08
-0.052426
0.691188
-0.0803674
-0.00100907
-0.000338439
-0.0120761
0.799518
-0.107049
0.739131
0.060202
0.27618
-0.000200153
0.790874
-0.00507906
-0.02149
0.0363784
0.0211152
0.0238776
0.361766
-0.0915474
0.78206
0.548277
-0.0187768
-0.0631232
0.00802123
-0.0659152
2.38761e-05
-0.00210052
0.00655933
0.149911
-0.0150126
-0.0526228
-0.00740584
0.951359
-0.125376
-4.58823e-05
-4.40489e-05
0.81436
-0.0111527
0.00616498
-0.0299807
-0.00507387
-0.0343114
-0.0220542
-0.0395721
0.174101
0.0676541
-0.0227129
-0.0320207
0.000251491
-0.0129386
-0.00214079
-0.0178451
-4.11542e-05
0.000170567
-0.0357299
-0.0451457
0.773455
-0.0380358
-0.000362748
-0.00329614
-0.00064957
0.671916
-0.0389588
-4.79981e-05
-0.0577777
-0.0100354
-0.00783009
-0.061795
-0.0719688
0.0153024
0.124584
-0.118069
0.000219756
0.0133966
-0.0299859
-6.49795e-06
-0.000106575
0.227689
0.173288
0.0124613
-0.106509
-0.102999
0.0012399
0.854133
0.00025607
-0.0333524
0.70839
-0.0377316
-0.0796696
1.19549e-05
0.00042866
-0.0792416
-0.0205236
0.00312757
-0.07151
0.438211
0.524268
0.00155617
0.000646161
0.407539
-0.0274234
-7.58112e-06
-0.0030982
-0.0610092
-0.0466803
-0.0210768
-0.00352187
0.379535
4.04371e-05
0.154108
0.5207
0.000117529
0.0251232
-0.000898854
-0.129724
-0.0295617
-0.00136726
0.0573614
0.00052535
0.428467
0.00308982
0.0460648
0.0439892
0.98099
0.655105
-0.114041
-0.0149263
1.07202e-05
-0.00695058
-0.0273115
0.294276
0.603489
-0.0710004
-0.00947825
-0.0325113
-0.0122707
0.2734
-0.000341989
0.799535
0.050783
0.000126939
0.000119089
0.000248207
-0.0245931
-0.0340025
0.00151968
0.109262
0.228123
-0.105283
0.00121636
0.000183931
-0.0438018
-5.43463e-05
-0.00522795
-0.0209201
-0.00119245
0.0523897
0.0087484
-0.00244537
-0.00693357
-0.0296124
0.655016
0.673393
0.0719771
2.00827e-05
-0.000942073
0.461252
-0.000772639
-0.135297
-0.000326044
-0.0366731
-0.130729
-0.000308127
-0.000371089
-0.0588924
0.00270728
-0.000103089
-0.00231735
0.383365
-0.0633058
-3.11999e-05
0.177378
0.633976
0.658832
0.00127586
-0.126456
-0.0167476
0.739915
-0.113823
-0.116459
-0.00486239
-0.0233027
0.0534714
-0.0463663
0.658513
0.153612
-0.000252588
-0.0965054
-0.129607
-0.0067073
5.54425e-07
-0.00310774
0.387403
-0.000274247
0.00460476
-0.00703136
-0.00204901
0.0164528
0.0528759
-0.000264926
-0.000182386
-0.0113339
-0.128219
-0.0637746
-0.12322
0.442824
-0.00252936
-0.000428463
-0.0634644
-0.0430421
0.0179638
0.0242561
0.00021015
0.132075
0.267866
0.0340476
0.0445436
-0.00104585
-0.0236835
0.0131673
0.00241728
-4.41362e-06
-0.0163203
-0.00702817
-0.00121802
-0.019635
-0.00142359
0.469211
-0.0159052
-0.168926
-0.0422418
-0.0188602
0.0212243
0.830169
-0.0775202
-0.000158122
0.786511
0.301264
0.0139682
-0.0102194
0.0136004
0.00982182
0.289535
0.000680963
-0.00457372
0.981975
0.523629
0.593405
-0.0786179
-0.00238408
-0.00209167
-3.33822e-05
-0.00219647
0.53736
0.150068
-0.00269802
-0.00746881
-0.000544344
-0.0294367
0.920024
0.707995
0.144262
-0.00486861
-0.111789
-0.00746948
-0.00120069
-0.0350747
0.0263594
-0.0483366
-0.00608388
0.00170168
-0.138601
-0.129061
0.0540665
-0.0434488
-0.0056988
-0.0458456
-0.00030824
-0.0120235
-0.0011449
0.625404
0.000130558
6.66629e-06
-0.040473
-0.0347565
-0.0505833
0.0695157
0.000167394
-0.138783
0.118509
0.359276
1.04905
-0.00797103
-0.134495
0.0545109
-0.00356228
0.104676
-0.000984429
0.0186498
-0.000276281
0.471113
-0.100357
0.0189996
0.231829
0.212513
0.0027098
0.00555897
9.80461e-06
0.74648
1.04028e-05
-0.0795102
0.000657908
0.00309556
0.3299
0.184446
-0.119499
-0.068474
-0.00700164
1.08851
-0.12238
1.12078e-05
-0.027096
-1.98297e-05
-0.0237742
0.188086
0.360455
0.00165812
-0.0612742
-0.0162361
0.270896
0.0354062
-0.0565853
0.960849
-0.0170627
0.000146439
-0.173208
0.992411
0.00382544
0.168383
-0.0752527
0.264685
0.0034005
0.0602597
-0.133076
0.0102799
0.098089
-0.0382745
0.353998
-0.0456422
-0.0337928
-0.00130633
-0.00132485
0.864327
1.47456e-05
-0.00928953
-3.82776e-05
-0.0139079
0.000685936
-0.0124427
0.457964
1.04718e-05
-0.00170493
0.11207
-0.172677
-0.0397818
0.00210645
0.716656
-0.085371
0.313555
-0.0205663
0.28426
0.0125152
-0.00121634
-0.0820017
0.00144893
0.887417
-0.046876
-0.000147423
0.00405206
0.260268
-0.0193214
-0.00113232
-0.000166996
-0.127498
-0.0043998
-0.0168201
-0.120672
5.67823e-06
-0.118581
0.000841003
0.632229
-0.0175911
0.273035
0.00813405
-0.00629173
0.494077
-0.0894687
-0.174396
-0.00741121
-0.130778
0.510316
0.541449
-0.0242432
-2.75262e-05
-0.0268775
0.00825757
5.24401e-05
0.104505
0.681459
0.0222686
0.00285479
0.0173778
-0.120515
-0.000249298
0.144963
0.0874601
0.134335
0.0234081
0.0490277
-0.00061568
0.32286
-0.0923686
-0.176744
-0.0016703
0.0372125
0.265998
0.00148148
-0.124167
0.398517
-0.0660075
-0.125308
-0.131693
-0.130815
-0.131497
0.0944926
0.401262
-0.141503
2.17714e-05
0.00159784
-0.0385926
-0.00301568
0.0161468
1.30129e-05
-0.0098469
0.00709399
-9.19169e-05
0.10282
-0.000829115
0.221253
-0.0569585
-0.00958315
-0.0118479
-0.014768
-0.113306
-0.0100698
-0.00170448
0.037713
0.142095
0.00831519
-0.0578216
-0.00502778
0.052438
-0.0163198
-0.0336014
-0.129636
-0.0276541
-2.88609e-05
-0.0265276
0.784726
8.2657e-05
0.193317
-0.0674904
0.941655
0.0873912
-0.0817094
3.26598e-06
0.00304922
-0.138604
-2.27387e-05
-0.00461144
-4.25612e-06
-0.120071
0.00806337
-0.121888
-0.0402692
-0.000181766
0.498118
0.479949
-0.0619811
0.000853771
-0.000253252
1.87443e-05
-7.48221e-05
0.857146
-0.00222859
0.00409195
0.0386613
0.00175953
-0.00097079
-0.132245
-0.00036428
0.083391
0.00502861
-0.0035663
-0.00120761
-0.0451712
-0.0716393
0.329018
0.171971
-0.0002426
-0.0229816
0.00103669
-0.0883402
-0.000929633
0.244911
-0.0148163
1.09304
-0.0241726
-0.00245817
0.135138
-0.0333072
0.624565
-0.0727502
-0.0197119
-0.0226684
0.0326628
-0.00625635
3.41954e-05
-0.0144782
0.555726
-0.0773475
-0.00559194
-0.0735705
-0.0477282
0.276472
-0.000829291
0.506982
-0.00273575
-0.110681
-0.000870422
0.0236103
0.0823356
-0.00667246
0.606493
-0.000766452
0.059131
0.160062
0.000978536
-0.000178746
0.919623
0.120009
-0.00125235
0.0535169
0.0373765
0.000285696
-0.0919242
-0.0391088
-0.163101
-0.0182039
0.6002
0.00781586
0.283173
-0.000644695
0.709376
-0.122635
-0.00922446
0.0111998
0.0562782
-0.110608
-0.142016
-0.0150047
0.000131242
1.00021
-0.0399529
0.00153724
-0.0394782
-0.0700225
0.619338
0.00542017
-0.0288016
-7.16547e-05
0.137971
0.0144128
-0.0679167
0.00152459
-0.00604654
-0.0497614
8.34679e-05
-0.0916828
-0.00267053
-0.0261965
-0.113448
0.521791
-0.0179985
0.0684539
-0.065106
-0.0552362
1.79455e-05
0.000315618
-0.00660557
8.65328e-05
-0.0198666
-0.0205655
-0.00358446
3.30791e-05
0.89041
0.00906094
0.000680638
-3.22746e-05
-0.00368078
0.596479
-0.0936821
1.00123
0.343775
0.0402215
0.514001
1.79699e-05
-0.0253995
-0.00142308
-0.00431653
0.35898
-0.0177454
1.01241
0.469672
-0.0994352
0.489035
0.0160745
-0.0252403
0.00409303
-0.0652875
-0.00698192
-0.0917928
-0.0997465
-0.00527155
0.483508
-0.0175472
0.000297617
-0.00758267
-0.00112889
-0.0618247
-0.000249594
-0.00216297
-3.20215e-05
0.295609
-0.139486
0.498846
0.0508907
-0.00482723
-0.0571976
-0.0357933
0.133416
-0.00537991
-0.00183553
-0.115309
-0.0801824
0.0190406
-0.0762923
-0.00791812
0.0199606
0.00494551
9.74625e-05
0.25544
-3.58329e-05
0.103663
-0.00137835
8.84719e-06
0.00362387
-0.00113029
-0.00212023
-0.0285107
0.324271
0.274567
-0.0362335
-0.0225791
0.00529213
-0.00910111
-0.0181917
1.22783e-05
-0.000822123
0.00131895
0.211075
-0.0153715
-0.0996704
-0.0833734
-0.00396743
-0.0384155
-0.0218547
-0.00300476
0.00966087
-0.0223038
0.447283
-0.116416
0.0109033
0.00363948
-0.0678155
0.985303
-0.0178488
-0.00846227
0.0140713
0.150874
0.00732228
-0.00440084
0.485817
-0.000606414
0.081302
-0.0411374
-0.0893588
0.0115563
-0.00662688
-0.00984472
0.075357
-0.00640548
-0.00105008
0.000402358
0.00468275
-0.000362856
0.0596912
-0.0167258
-0.00357958
1.62117e-05
0.298855
-3.61964e-05
-0.0547782
0.145747
-0.0422895
0.000335796
0.208908
-0.0657125
0.323052
-2.69382e-05
-0.00701306
0.161544
0.000365253
0.00901034
-0.00804293
0.0190828
-0.0375272
-0.0582047
-0.0157087
-0.00474002
0.0180389
0.0376115
0.0894575
-0.000293058
0.217598
-0.071809
-0.00587972
-0.0123716
0.000782052
-0.0941219
0.000164018
0.791278
0.407969
-0.000827806
-0.0383028
0.0003092
-0.00383608
-0.00971794
-0.0261677
0.297395
0.278675
0.0337772
0.0185499
-0.128898
0.0674099
0.0731948
0.0875983
-0.0907366
0.0303731
0.396273
-0.0170401
0.685395
-0.0015867
-0.019538
-0.0847931
-0.000121581
-0.00128377
-5.19393e-05
0.680325
-0.0184141
0.000553541
-0.0278674
-0.00865937
-0.000531764
-0.023498
0.522196
0.00189916
0.0198473
-0.0514737
-0.000778539
-0.00808935
-0.00137032
1.02467
0.000425715
6.36892e-05
-0.00339385
-0.0254895
0.133234
0.00105269
0.0250343
0.143007
-0.00019334
0.00383372
-0.12694
0.064336
-0.0674601
2.45384e-06
0.000694472
-0.000897705
0.0581285
0.568561
0.171754
-0.0619207
3.00027e-06
-0.0877796
-0.00459197
-0.0222466
-0.0215143
0.329427
0.761458
-0.000151665
0.276585
0.439161
-0.0171362
-0.0258577
-0.0400807
-0.0220161
0.000238356
-0.0709715
-0.0151937
-0.000118523
-0.000877185
-0.00270505
-0.00328061
-0.00111649
0.557046
0.601664
0.359956
-3.95131e-06
-0.0411851
0.0460087
0.195814
0.801098
-0.000807989
-0.0360776
-0.0326028
0.563993
-0.0337029
-0.0167006
-0.00392351
0.283765
0.000608813
-0.000775521
-0.0437813
-0.0682178
0.256149
0.0768682
-0.0697487
-0.041659
0.110449
0.0364976
-0.0847091
0.0125574
-0.00325023
0.247593
-0.000542242
-0.00101265
0.179283
0.000413629
0.0527347
0.0569816
2.23979e-05
0.521045
-0.0185087
-0.00770358
1.0442
-0.0646032
-0.0161302
-0.0674509
-0.00452306
0.754047
0.00214768
0.986946
-0.000183151
-0.0225286
1.01158
0.0123523
0.751383
-0.0100045
6.08269e-05
-0.0398155
0.773588
-0.00268989
-0.0115699
-0.014222
-0.00168867
-0.0373316
0.77041
0.201619
4.19351e-05
0.0361712
-0.00645595
0.0537248
-0.00148384
0.0414717
-0.00452807
-0.000722851
0.732067
0.791251
0.739292
-0.0891685
0.0182354
0.000319012
-0.0987991
0.51162
0.02955
0.000502348
-0.0975634
0.00111422
-0.000144607
0.783675
0.000268694
0.00760964
-0.00327372
-0.0158083
0.746638
0.774507
0.793035
0.0212045
0.000942492
0.387696
0.0136292
0.0453021
-0.0158151
0.000154238
-0.00508738
-2.52243e-05
-0.00786249
-0.0012299
-0.00998812
-4.69763e-05
0.271476
0.00382041
-0.113037
-0.0159588
-0.121698
-0.0284251
-0.00128007
0.628903
-0.0187052
7.38478e-05
-1.93311e-05
0.973867
6.76022e-05
0.0203771
0.102223
-0.0313548
0.543618
-0.0090737
-0.0749274
-0.0638305
-0.000784755
0.000266384
0.461436
0.789218
-0.00260516
-0.0370401
-0.000357955
0.783929
0.941038
-0.00242022
-0.0112199
0.034469
0.00553874
-0.0424913
0.000191429
0.0181444
-0.0648333
0.103256
0.636149
-0.00251961
0.0512227
0.179025
0.0565768
-0.0768743
0.0506412
0.91374
0.335987
-0.092876
0.79721
-0.000933254
0.799715
-0.0125502
0.665073
0.138878
-0.00876138
0.0656298
0.0043431
0.0314705
-0.125918
-0.00110011
-0.0403984
0.665798
-0.0451765
0.046467
-0.0024721
-0.014748
0.323858
-0.015917
-0.104223
0.00134027
-0.0062212
-0.0412934
-0.0036544
0.00360142
-0.0151922
-0.000804516
0.00436095
0.657681
0.00401483
-0.0276574
-0.0991147
-0.0498566
-0.108795
-0.129304
0.0074997
1.39282e-06
5.06587e-05
0.462408
-0.0901011
0.000135023
-0.0756303
0.31439
-0.100619
-0.0257822
0.000243597
-0.00318159
-0.0790457
0.254484
-0.0145889
-0.000765362
-0.0788967
-0.0335043
1.01186
0.195594
0.122037
-0.0829876
-3.11226e-07
-0.0114449
0.114274
-0.000567566
4.53015e-05
0.296791
0.176514
0.00114778
-0.00140144
0.0147954
-0.0606825
0.0182568
0.0145958
-0.0258097
0.000120917
0.516956
0.00110271
-0.000989989
-0.000338126
-0.00032675
-0.000209402
0.143246
0.00179556
-0.00469831
-0.0162161
-0.00797079
0.0505063
-0.00914472
-0.0706097
-0.017578
0.718445
0.593227
-0.000765042
-0.00239579
0.170761
-0.00131158
-0.0345115
0.108657
0.106971
-0.00157526
0.0359097
0.0701486
0.00235802
0.171434
-0.000124218
0.0130192
-0.0136195
0.0241608
-0.0244551
0.0848105
0.00016424
0.00102349
0.000572712
-3.76819e-05
-0.00248693
-0.0162325
-0.0215753
-0.0491425
0.0982866
0.0673566
0.0157994
-0.101977
0.02021
0.013146
0.0225171
0.000130222
0.769836
-0.0137567
-0.0053802
-0.0227441
1.02547
1.55078e-05
0.109341
4.47845e-05
-0.0472925
-0.0106289
-0.0362516
0.295457
-0.00653455
4.47607e-05
0.291435
0.123363
-0.000855472
0.0885218
3.2861e-06
0.276223
0.0122335
-0.046691
-0.000180749
0.415094
0.0489609
-0.0339355
0.000108186
0.286948
0.54012
-0.00178989
2.00678e-06
-0.0595417
-0.0147833
0.0142407
0.0410575
0.804899
0.461281
0.000886785
0.594069
0.424126
-0.00458113
-0.0922785
-0.0558654
-0.0255174
-0.0857252
0.197733
0.00146362
0.838576
0.252827
0.0210633
0.000234998
0.00114513
2.17948e-05
-0.000831829
-0.00447566
0.903737
5.07622e-05
0.13342
0.0457275
-0.000316313
0.841159
0.943565
0.333828
0.389041
-0.0382247
0.00421251
-0.000402026
-0.0179052
1.07329e-06
-0.00171765
-0.171109
5.06394e-05
-0.00280133
0.858869
-0.0188269
-1.22236e-05
0.887531
0.000847322
-0.0580905
-0.112387
-0.0020469
-0.120821
-0.000328985
0.23625
0.00562488
-0.0274732
0.00326348
-0.000963267
-0.000557023
-0.000305134
-0.172392
-0.0973433
0.257298
0.00475074
-0.00607084
0.399311
0.000160144
0.98891
-0.00077322
-0.138615
0.00381005
0.00275137
0.084991
0.0896757
4.63816e-05
-0.00662135
0.000223594
-0.0010196
0.00147445
0.139667
0.0812123
0.549477
-0.0650675
-0.000122243
0.000330566
0.163712
0.611531
-0.0070901
-0.0100398
0.982581
-0.00437981
-0.0333808
0.00156328
0.115889
-0.0615529
-0.0136439
0.262885
0.00228269
-0.00032434
0.00277929
-0.0149781
0.978748
0.766225
-0.0390254
-0.059195
-0.0102163
0.00263054
7.62038e-05
0.12485
0.335145
4.55852e-05
-0.0116191
-1.12595e-05
0.000285707
0.724198
8.84791e-08
-0.117489
-0.087929
-0.13109
0.115507
3.43459e-05
0.0164299
-0.00970327
0.669443
0.0104139
0.00828374
-0.0488024
0.00112084
0.610372
0.348696
0.0181135
0.0926813
0.870574
-0.101664
-0.0917061
-0.0029673
-0.011129
-0.000510577
0.0412854
-2.90361e-05
0.275823
0.00486566
0.32337
-0.0552214
1.29462e-06
0.0942198
-0.000208302
2.63727e-05
-0.0011136
0.961973
0.922798
0.544186
0.000129033
0.289785
0.798045
-0.00148594
0.00306245
-0.0134539
0.125977
0.782079
-0.0443389
0.20138
-0.00392922
-0.104249
-0.117208
1.05972
-0.000894864
0.765856
0.145152
0.316921
0.000280121
0.000403409
0.00889257
-0.0142453
0.137304
-4.02915e-05
0.000144234
0.750659
-0.134828
0.000558259
0.786527
-0.00358693
0.000312654
0.643771
-0.0106847
-0.00236913
-0.0169118
0.237912
0.000577258
-0.000149803
0.00573416
-0.0063569
0.74625
0.957326
0.482456
1.03121
0.161577
-0.0742241
0.87842
-7.4058e-05
-0.00506952
0.203349
-0.00542143
-0.000971265
-0.000120328
0.78575
0.04619
-0.000957647
0.930264
0.123489
0.404732
0.0712577
-0.00423154
-0.0329667
0.253611
0.120189
0.787921
-0.0375052
-0.00117083
0.72049
0.677464
0.0217355
0.560144
-0.0609023
-0.0122966
-0.014777
-0.000945847
-0.000169106
0.728034
-0.0985117
0.0237386
0.0015821
0.257534
-0.0505924
-0.0251486
-0.00147116
-0.00584432
0.814648
-0.00119401
-0.0276973
-0.00467159
0.806471
-0.030627
0.0324097
-0.011804
0.00233517
0.250322
-0.0351899
0.829622
0.153117
1.02972
0.411323
-0.0965616
0.0505492
-0.00272038
0.0209068
-0.0598417
0.756747
0.808187
0.902773
0.541987
0.735541
-0.000483854
0.855306
-1.53357e-05
0.000147956
-0.0760116
0.928435
0.0812282
0.404325
9.57651e-05
-0.00334386
-0.0915772
-0.0541188
0.74298
-0.00100656
-0.0120583
0.542479
0.00173087
-0.00666769
0.998596
0.076233
-0.0599173
-0.175384
-0.000758626
0.0976203
0.125966
1.04318
0.115139
0.0663168
0.00706046
-0.000320177
-0.00615024
0.310816
0.0101216
0.000253077
-0.111831
0.393691
-0.00225104
0.771092
-0.106232
0.778674
-0.0303774
-0.0359309
0.873121
-0.00832174
0.0453973
-0.000562741
-0.00198182
-0.102708
-0.0355718
-0.057856
-0.0153291
0.0144934
-0.118208
-0.11206
0.779651
0.000498911
0.00129445
-0.0319809
0.189534
-0.126564
-0.0928746
4.06538e-05
-0.116036
0.0750057
-0.000110661
-0.116457
-0.0918857
0.783622
-0.126563
0.771994
-0.0214996
0.175011
0.40184
-0.0553061
0.526861
-0.00266185
0.154353
0.00200267
0.135449
0.312699
0.276599
-0.0443838
0.00979695
-0.00095758
0.283525
-9.52127e-05
-0.000152211
-0.00155339
0.00609594
0.0265583
0.0237391
0.655157
0.24422
0.975108
0.606057
-0.00230679
-0.0518621
-0.000198138
-0.0745369
-0.00177692
0.00922857
0.00108434
-0.0494765
0.536531
0.762864
-0.000400272
4.89497e-05
0.0535448
2.71122e-05
-0.0142327
-0.000218882
0.207899
-0.0556182
0.294434
-0.123557
0.000106955
-0.0215886
-0.0615768
-0.0379795
-0.0253776
-0.0823755
0.083896
-0.000209805
-1.6257e-05
0.00333896
-0.000152765
0.121272
0.110537
0.0621304
0.907067
0.0705689
-0.160084
-0.135121
-0.000602983
0.0800478
-0.000136576
0.725513
0.15439
0.850679
0.000281912
-0.0506357
-0.0104241
0.0780096
0.280303
0.668596
-0.0116204
0.0505368
-0.00290646
-0.0288383
-0.0122374
-0.00930166
0.165535
0.00255928
-0.0120197
-0.0313313
0.38565
0.101042
1.21302e-05
-0.00128821
-0.00946057
-0.000873346
0.176398
-0.000961638
-0.0407598
0.227113
0.000155197
0.404557
0.00017299
-1.4195e-06
-0.130994
-0.0254786
0.000310328
-0.0348584
0.000342588
0.890556
0.0194441
-0.0378571
0.818165
0.19632
-0.0488308
0.643756
-0.00415744
-0.00278229
-0.00311272
0.130086
1.09852
-0.0022125
-0.000828543
3.57762e-05
0.0122382
-0.00183398
0.0394454
0.00962636
-0.0324332
-0.0913693
0.0288084
0.0167245
-0.0288192
-0.000756459
-0.0244472
0.646885
-0.00267726
-0.0211254
-0.000300415
0.656659
0.0846136
0.637977
0.000733684
-0.00121438
-0.0365191
0.90723
0.224184
-0.0437055
-0.000152214
0.0489288
0.141076
-0.0269327
0.312282
-0.073803
0.0310666
-0.16393
0.667717
-0.024186
0.384691
-0.00478077
1.04492
-0.0637562
-0.0167902
0.831135
-0.0663499
0.253317
-0.175488
0.281948
0.0100915
0.0770104
0.51182
0.076871
-0.0745096
-0.0147183
-0.0115483
-0.0180437
0.00451891
-0.00220026
-0.0860343
-0.0439788
0.00314045
-0.10135
-0.1257
-2.08231e-05
0.166857
-0.0138662
0.161602
0.847648
0.59182
-0.0828214
-0.108381
0.000798082
-0.101208
-0.00644935
1.00893
-0.0543473
-0.046915
0.582699
0.0737657
-0.0604751
0.347672
-0.056811
-0.000887033
-0.017846
0.0156305
0.00114643
0.615603
-0.00405741
0.21677
0.538211
-0.00866528
0.369683
-0.133528
-0.000515379
0.0104105
0.122381
0.558801
-0.00378001
0.125408
-0.105487
0.106295
-0.0352975
0.596895
0.0121513
-0.082441
-0.00457324
0.00033296
0.766624
-0.00363416
-0.0423083
-0.000113888
0.320962
-5.80712e-05
-0.0680117
-0.00250825
-0.167263
0.0011235
-0.0155066
0.289669
-0.00590752
0.00149457
0.00108887
-0.00623403
0.0782937
-9.10982e-05
-4.69193e-06
-0.0128947
-0.016056
-0.0347363
0.0126764
-0.00283098
0.11462
0.12145
-0.00186285
0.00163972
-0.000237304
0.756522
-0.00633954
-0.0104891
0.656966
-0.0282204
0.606202
0.0765164
0.776205
0.352303
0.171459
-0.00220489
-0.00343769
0.123364
0.0354673
-0.00658045
0.000343778
0.0130751
-0.0781428
-0.00138691
-0.0125836
-0.0121345
-0.0139582
-1.57336e-05
-0.00492917
0.000132683
-8.35275e-05
0.00140485
0.527426
0.322508
-0.0168187
-0.00420001
-0.0781875
-0.0321609
0.384402
0.689002
-0.0891019
0.00320237
0.312892
-0.0196595
0.00100429
-0.110884
2.19339e-06
0.185926
0.254039
-0.000935073
-0.0545915