/*--------------------------------*- C++ -*----------------------------------*\
  =========                 |
  \\      /  F ield         | OpenFOAM: The Open Source CFD Toolbox
   \\    /   O peration     | Website:  https://openfoam.org
    \\  /    A nd           | Version:  7
     \\/     M anipulation  |
\*---------------------------------------------------------------------------*/
FoamFile
{
    version     2.0;
    format      ascii;
    class       volVectorField;
    location    "9";
    object      U;
}
// * * * * * * * * * * * * * * * * * * * * * * * * * * * * * * * * * * * * * //

dimensions      [0 1 -1 0 0 0 0];

internalField   nonuniform List<vector> 
29540
(
(1.00622 -0.00843595 2.92773e-22)
(1.00764 0.00281216 1.22103e-21)
(0.994544 -0.00196465 -1.68587e-21)
(0.980984 -0.0279917 5.13624e-22)
(0.99857 -3.06136e-05 2.36861e-22)
(0.974594 -0.0168707 -7.73548e-22)
(1.02946 -0.0533678 6.24827e-22)
(1.00801 -0.0129118 -2.93532e-23)
(1.0012 -0.00116863 4.10139e-23)
(1.0001 -2.80713e-05 1.20915e-23)
(1.00871 -0.0173042 1.34645e-24)
(0.998528 -0.00985695 -5.93715e-22)
(0.999725 -0.000114737 3.11829e-23)
(0.999986 -5.83157e-06 5.94093e-25)
(1.12705 0.0589763 3.12141e-21)
(0.996416 -0.00115684 2.55489e-22)
(0.999901 -0.000505212 -1.1643e-23)
(1.09466 -0.0175324 -2.71636e-22)
(0.998741 -0.00107398 -8.13049e-23)
(0.993553 -0.000478307 -3.70704e-22)
(0.999501 -0.000160342 -1.09443e-22)
(1.00113 -0.00116775 1.44058e-22)
(0.994486 -0.0020804 1.85283e-21)
(0.998751 -0.000100687 1.04441e-22)
(0.910977 0.0872354 4.59188e-22)
(1.00821 0.00224059 6.57204e-21)
(0.999706 -3.3045e-05 7.13562e-23)
(0.954757 0.0731814 -3.32608e-20)
(1.13146 0.0582473 -8.13174e-21)
(0.999466 -0.00543794 -1.14403e-22)
(1.00927 -0.00690849 2.05093e-22)
(1.02403 -0.00577194 -1.49766e-21)
(0.980759 -0.064362 4.85775e-21)
(0.998474 -0.0136856 2.90003e-22)
(0.952995 0.0695563 2.73216e-20)
(1.00118 -0.0196751 7.2648e-22)
(1.05152 0.0294285 -2.07524e-21)
(0.983202 -0.0158501 2.18902e-21)
(1.00324 -0.00049925 -5.53909e-22)
(1.00311 -0.000322829 1.04831e-21)
(1.00025 -0.000101512 -3.4707e-23)
(0.992725 -0.0177385 -2.06919e-21)
(0.999913 -0.000490621 -2.7092e-25)
(1.01131 -0.0446804 -2.61682e-21)
(1.00002 -2.23216e-06 -2.88527e-24)
(0.999566 -0.00552161 8.86461e-23)
(0.998382 -0.00732648 -1.63805e-22)
(1.00004 -5.0546e-05 7.1018e-24)
(1.00196 -0.00220923 -5.8185e-22)
(1.05104 0.0273986 -8.54811e-22)
(1.06434 -0.0713617 3.96393e-22)
(0.983176 -0.0248275 -2.41423e-21)
(1.0239 -0.00513052 5.27223e-22)
(0.975372 -0.0167818 -1.30011e-21)
(0.996503 -0.00119092 -2.25394e-22)
(1.13343 0.0486437 -5.14287e-21)
(0.997999 -0.00133411 8.00577e-23)
(0.999486 -0.000177892 1.385e-22)
(0.999596 -0.0129694 -3.9014e-22)
(1.00354 -0.0353301 -1.29292e-21)
(0.999968 -4.21924e-06 1.61238e-24)
(0.99878 -0.00109844 -1.6752e-23)
(1.19039 -0.0282539 4.95911e-22)
(1.00144 -0.0192544 -3.92582e-22)
(1.05197 0.0803435 1.64333e-20)
(0.930403 0.0237974 6.81108e-20)
(0.998793 -0.0162706 -7.56819e-22)
(0.99557 -0.00814209 7.81022e-22)
(0.946959 0.015177 2.7482e-20)
(1.00026 -9.74382e-05 2.25077e-23)
(1.0092 0.00279603 -8.95829e-21)
(0.989005 0.0590691 1.9577e-20)
(1.00185 -0.00549492 -2.34313e-22)
(0.926881 0.101667 1.71443e-20)
(0.995273 -0.000376183 1.18948e-21)
(1.07229 -0.044726 2.89204e-22)
(1.19312 0.0997138 9.31912e-21)
(0.984117 -0.00901765 5.25907e-22)
(0.999976 -1.13134e-05 -4.38786e-24)
(1.00037 -0.0288323 -1.3198e-21)
(0.975904 -0.000399711 -8.65466e-22)
(1.01684 0.0277067 5.19332e-21)
(1.00637 -0.00881457 -8.80037e-22)
(1 -3.41583e-05 -2.19175e-24)
(1.03115 -0.0525292 -9.11838e-22)
(1.10735 -0.141916 -3.14512e-21)
(1.02962 0.0700255 -3.13191e-20)
(0.999714 -0.000113509 -2.82805e-23)
(0.999733 -0.0001022 -8.31963e-24)
(0.963078 -0.0208789 -3.18679e-21)
(0.994338 -0.0307523 2.6538e-21)
(0.984041 -0.00944889 5.83926e-22)
(1.00184 -0.0022889 1.00391e-22)
(1.03825 -0.0101741 -8.78388e-22)
(0.960422 -0.00887661 -2.63919e-21)
(1.03834 0.086022 1.50279e-20)
(0.994329 -0.0397786 4.13785e-21)
(1.00027 -0.000228859 5.66775e-23)
(0.980702 -0.0350779 -4.31956e-21)
(1.1239 0.0813855 1.41908e-20)
(0.999975 -1.16673e-05 6.38466e-24)
(0.984934 -0.00591187 -3.14086e-21)
(0.999969 -4.92805e-06 -8.36248e-25)
(1.02891 -0.0147147 -4.43345e-21)
(0.982429 -0.0246787 1.60034e-21)
(1.02545 0.00753277 9.25211e-21)
(1.0026 0.0548991 2.99972e-20)
(0.999744 -0.000103339 -6.97916e-23)
(0.999997 -4.00483e-05 1.16e-25)
(0.989512 -0.0637218 -2.22572e-22)
(0.979846 -0.0633744 -4.37375e-21)
(1.02423 -0.0280766 4.27485e-22)
(1.00001 -9.80647e-07 5.79203e-25)
(0.999291 -0.00367025 -3.00215e-22)
(0.99993 -0.00131418 8.75456e-24)
(0.99153 0.0604085 1.01266e-22)
(1.03267 0.0403037 -1.11038e-20)
(0.993072 -0.00420879 -1.27005e-21)
(1.00001 -3.84518e-05 1.03005e-24)
(1.00205 -0.00543141 -1.77667e-22)
(1.18716 -0.10227 7.21198e-21)
(1.0055 0.00883074 1.43234e-20)
(1.10668 -0.0678298 -1.27446e-21)
(0.929092 0.0291548 -6.30608e-20)
(1.00064 -0.000213609 -1.36974e-22)
(1.10649 -0.0500817 -3.54773e-22)
(1.09415 -0.0141215 -1.4641e-21)
(1.00638 -0.0345637 9.10559e-22)
(1.00237 -0.00211544 -5.16604e-22)
(1.00001 -0.000257395 3.38054e-24)
(1.01131 -0.0435135 9.24709e-22)
(1.19624 0.0932783 4.82735e-21)
(1.0045 0.11063 3.08306e-20)
(1.10489 -0.0820046 -6.33137e-22)
(1.02783 -0.0143783 3.74232e-21)
(1.009 -0.00655637 3.8734e-21)
(1.06424 0.14477 2.35788e-21)
(0.984369 -0.000425779 4.41906e-21)
(1.03601 -0.132369 1.05026e-20)
(1.1248 0.0763455 -1.08597e-20)
(1.107 -0.0459572 4.86e-22)
(0.967206 -0.00266457 -3.52834e-21)
(0.971776 -0.0232653 9.85014e-22)
(1.00001 -5.53534e-07 -2.41053e-25)
(0.999994 -1.56714e-06 1.50361e-25)
(0.998533 -5.01366e-05 -1.85521e-22)
(0.998496 -0.00718631 3.38106e-22)
(0.985321 -0.0499799 -3.43547e-21)
(1.05134 -0.110139 4.53678e-21)
(1.22985 0.0176409 3.08368e-21)
(1.0186 -0.0130606 1.98633e-21)
(1.01037 -0.0126249 6.67393e-22)
(1.00025 -0.000367559 8.87727e-23)
(0.999924 -0.000129844 6.74401e-24)
(1.00172 0.025589 -3.10363e-20)
(1.00031 -0.000919303 9.83295e-24)
(0.995937 -0.00663961 1.10161e-24)
(1.07709 0.146696 -6.97245e-21)
(1.00465 0.0378596 -3.32956e-20)
(1.06681 -0.0698779 -6.31851e-22)
(0.976979 -0.00150984 1.48608e-21)
(0.981582 -0.0274979 3.66157e-21)
(1.13464 0.0530726 1.31106e-21)
(0.999975 -2.58124e-05 1.32718e-24)
(0.999993 -1.58047e-06 -5.39108e-26)
(0.99304 -0.00442814 4.59004e-22)
(0.972452 -0.0228423 -5.5317e-21)
(1.00003 -0.00013183 -8.35638e-24)
(0.999999 -3.65264e-05 -1.31681e-24)
(0.995992 -0.00299856 -1.48601e-22)
(1.00001 -0.000249802 -2.80803e-24)
(1.00337 -0.00361429 -2.89578e-22)
(1.07334 0.149902 7.86016e-21)
(0.984592 -0.000214184 -3.7425e-21)
(1.01346 -0.0708031 -1.16405e-21)
(0.997047 -5.70001e-05 7.65168e-22)
(1.00124 -0.00162309 3.04315e-23)
(0.984534 -0.00580024 5.19126e-21)
(0.999465 -0.00366775 -2.67966e-23)
(1.11342 -0.0623852 2.66007e-22)
(0.999991 -5.32138e-06 1.7724e-24)
(1.00624 -0.0238339 -3.82464e-22)
(1.03155 0.0715392 1.10858e-20)
(0.995771 -0.00755299 -4.73475e-23)
(1.03399 -0.128676 -1.00639e-20)
(1.02484 0.0342973 -9.78341e-21)
(0.9963 -0.00165588 -1.11811e-21)
(0.989362 -0.00871489 1.41052e-21)
(1.00227 -0.00211755 7.85037e-22)
(0.999477 -0.00506873 -1.59624e-22)
(0.999848 -4.11835e-06 7.80106e-24)
(1.00326 -0.0109513 1.66408e-22)
(0.925237 0.0145333 2.63698e-20)
(1.00138 0.0230546 2.39463e-20)
(0.991652 -0.00353173 3.70385e-23)
(0.996119 -0.0065461 -4.84955e-22)
(0.980112 0.0325292 -2.64794e-20)
(1.01108 0.0217453 4.46881e-21)
(0.961183 -0.00879611 3.29223e-21)
(1.00067 -0.000298811 -1.07274e-22)
(1.03327 -0.0674794 1.4784e-21)
(0.978659 -0.0459642 4.44867e-21)
(0.998679 -0.0100803 2.87692e-22)
(1.00049 -0.000631987 -1.74118e-22)
(1.06693 0.148543 3.27806e-21)
(0.996122 -0.00300954 -1.02366e-22)
(1.004 -0.00326503 -3.22997e-22)
(0.984542 -0.0494916 4.46019e-21)
(0.989291 -0.0650391 5.56024e-22)
(0.999982 -1.59413e-06 4.92658e-25)
(0.981487 0.0879331 -3.10394e-20)
(0.999411 -1.38056e-05 -1.80401e-24)
(0.999998 -2.91702e-05 -5.12252e-25)
(0.999692 -0.000120515 1.20319e-23)
(0.99592 -0.0311496 -9.69502e-22)
(1.18681 -0.00523478 -2.6127e-21)
(1.00686 -0.0234316 6.78057e-23)
(1.00386 -0.00304108 -2.21955e-22)
(0.998763 -0.000140465 2.59521e-22)
(0.961819 -0.00982582 -5.73349e-22)
(1.00002 -0.000274987 -2.09112e-24)
(1.00028 -0.000939294 8.56467e-25)
(0.998666 -0.000117334 -1.70874e-22)
(1.0185 0.000161685 8.64181e-21)
(0.998439 -0.00231392 -5.41549e-23)
(0.999314 -0.0034151 8.90471e-23)
(1.01758 -0.00118333 4.28877e-21)
(1.00007 -0.000228824 1.06193e-23)
(1.00002 -1.56668e-06 7.53586e-25)
(1.00296 -0.000357903 1.15998e-22)
(0.985246 -0.0181988 -1.8019e-21)
(0.986234 -0.000229112 -1.82152e-21)
(0.997229 -0.000216922 -8.11377e-22)
(1.00988 0.00214588 7.42232e-21)
(0.99095 -0.000643822 8.70051e-22)
(1.01059 -0.0122577 -6.38883e-22)
(0.999986 -6.40179e-06 1.67419e-24)
(0.998276 -0.00152291 -3.13532e-22)
(1.00046 -0.000624242 1.88479e-22)
(1.03371 -0.06522 1.44589e-21)
(1.00309 -0.108715 7.60266e-21)
(0.999211 -7.07831e-05 1.33167e-22)
(1.00026 -0.00032891 -6.81656e-23)
(0.999263 -0.00332551 -3.03967e-23)
(1.00201 -0.00482771 -4.3483e-22)
(0.993687 -0.000353156 -1.58684e-21)
(0.999976 -2.34997e-05 -1.18919e-25)
(1.10649 -0.13722 -6.8976e-21)
(1.00003 -0.000282522 3.44404e-24)
(1.01832 0.000119056 -6.0872e-21)
(0.998063 -0.00133914 -1.62139e-22)
(1.00008 -0.000220201 4.20374e-24)
(1.02477 0.00788513 -5.8831e-21)
(0.976333 -0.0436194 -4.58859e-21)
(1.00014 -2.50106e-05 3.8555e-23)
(1 -5.11651e-06 -1.66826e-25)
(0.967125 -0.00190845 -4.02463e-21)
(0.999111 -0.0987706 -1.20909e-21)
(0.994936 -0.00475259 -1.21852e-22)
(1.00566 -0.0351839 -2.44738e-22)
(1.01911 -0.0135889 -3.2539e-22)
(1.0361 0.0691897 1.37937e-21)
(1.00004 -4.75338e-05 1.92466e-24)
(0.985538 -0.0178517 1.8496e-21)
(1.14804 -0.0859282 2.42916e-21)
(0.967022 0.0461953 6.43666e-22)
(0.995737 -0.0073748 3.67209e-22)
(1.02391 0.0330394 1.19716e-20)
(1.07315 -0.0418965 2.54545e-22)
(0.999906 -0.00144489 -7.97105e-24)
(0.860077 0.0409816 3.475e-20)
(0.999689 -0.000254047 -8.13379e-23)
(1.01238 -0.0724758 -1.55635e-21)
(0.96241 -0.00983974 3.99835e-21)
(1.00132 -0.00153531 -1.67326e-22)
(1.14675 -0.0329244 1.92512e-21)
(0.995031 -0.000544949 -9.42352e-22)
(1.00657 0.120135 2.19916e-20)
(0.997988 -0.000155869 7.25066e-23)
(0.989624 -0.00940086 -7.37145e-23)
(0.999871 -0.00131267 -6.16986e-23)
(1.10906 0.111873 3.34104e-21)
(0.999781 -0.0102535 7.16314e-23)
(1.03557 0.0867355 9.29618e-22)
(0.999715 -2.42412e-05 -3.14139e-23)
(0.996598 -0.0011051 -3.55356e-22)
(0.967553 0.10877 -1.32452e-20)
(1.02147 -0.000530568 -7.18747e-21)
(1.01747 -0.000722466 4.98459e-21)
(0.982263 -0.0228232 4.4734e-21)
(0.999919 -1.72857e-05 7.46754e-24)
(1.00196 -0.00463329 -5.06798e-23)
(0.999902 -0.00055268 -1.99534e-23)
(0.999999 -2.76413e-05 -3.14544e-25)
(1.03948 0.000580386 2.0033e-21)
(1.00002 -2.95344e-06 6.87877e-26)
(0.988338 -0.00831379 3.29309e-21)
(1.14347 -0.0854316 -2.39383e-21)
(0.90901 0.0911775 -3.23121e-20)
(1.00725 0.110973 -4.91134e-20)
(0.979001 -0.0381351 1.43222e-21)
(0.991247 -0.017185 1.12088e-21)
(0.986891 -0.000869373 8.72729e-22)
(1.01929 -0.0251717 1.3367e-21)
(1.00363 -0.0108122 -2.7177e-22)
(0.989274 -0.00912415 -1.94674e-21)
(0.978861 -0.0417922 6.28677e-22)
(1.03479 0.0712668 -2.08137e-20)
(0.99946 0.0252451 4.3443e-20)
(0.999263 -8.69193e-05 7.32427e-23)
(1.00398 0.055546 -4.10924e-20)
(1.03862 -0.00038399 6.97392e-22)
(1.11136 -0.0673891 3.86701e-22)
(1.0081 -0.00993997 3.0295e-22)
(1.0004 -0.00950284 -2.95818e-22)
(1.01077 -0.0331618 -5.12454e-22)
(0.996844 -0.00106782 -8.42482e-22)
(0.99845 -0.000388609 -5.49457e-23)
(0.99997 -4.35786e-06 8.45195e-24)
(0.999373 -0.00518733 2.34533e-22)
(1.05896 -0.0392662 2.08203e-22)
(1.11011 0.116601 -5.41821e-21)
(1.00094 -0.000810746 7.98954e-23)
(0.983852 -0.0148775 -2.63337e-21)
(1.0092 -0.010286 -9.62323e-22)
(0.999981 -8.51528e-06 -6.81156e-25)
(0.978933 -0.0399005 -2.2747e-21)
(0.889394 0.070761 -1.61389e-20)
(0.996325 -0.00282843 1.25557e-21)
(0.999318 -0.00272086 7.80838e-23)
(1.00844 -0.00987546 -1.88208e-22)
(1.00028 -0.0279806 1.68352e-21)
(1.06618 0.0165974 2.49823e-21)
(0.999624 -0.00588906 -4.23897e-23)
(0.999983 -3.09837e-05 3.35492e-24)
(1.00001 -8.1002e-07 3.12142e-25)
(0.998431 -0.000353717 -6.06665e-23)
(0.965846 0.107875 1.91156e-20)
(1.03037 -0.0219469 9.65431e-22)
(1.00575 -0.10895 -2.07001e-21)
(1 -5.02908e-06 -4.94461e-26)
(0.996874 -0.100193 7.8684e-22)
(1.0563 -0.00819773 -2.9608e-21)
(0.996977 -9.51712e-05 -3.81192e-22)
(0.963849 -0.0035925 -4.94977e-21)
(0.999367 -0.00267372 -7.79553e-23)
(0.999749 -0.000115036 -5.0774e-24)
(0.986062 -0.0161724 -5.64365e-22)
(1.00054 -0.000691249 -8.36503e-23)
(1.1179 -0.0617285 -1.24353e-22)
(1.00561 -0.000759889 -2.31738e-21)
(1.18143 0.0637364 -4.50012e-21)
(0.999919 -0.00142568 1.03549e-23)
(1.00242 -0.0085245 8.65706e-23)
(1.00525 0.00780451 -1.93996e-20)
(1.18228 -0.0976009 -2.68056e-21)
(1.00024 -0.000345279 -5.2248e-23)
(1.00026 -0.000307683 5.18109e-24)
(0.99419 0.0729292 1.95701e-21)
(0.994884 -0.0314024 -5.38068e-22)
(0.999532 -0.00579574 5.175e-23)
(1.01034 0.0244129 2.34608e-21)
(0.973531 0.0164208 5.14751e-20)
(1.06343 -0.0744544 -1.32099e-21)
(0.998837 -0.015691 -2.39851e-22)
(1.18301 -0.0023457 2.61169e-21)
(0.999559 -4.28931e-05 -5.4753e-23)
(0.994845 -0.00248643 3.37672e-22)
(0.99803 -0.000162242 -2.06756e-22)
(1.01201 0.0205343 2.28173e-23)
(0.99999 -0.000454573 -1.18926e-24)
(1.00544 -0.000900867 2.36786e-21)
(1.06763 -0.112837 1.18741e-22)
(1.00241 0.104003 4.75456e-20)
(0.929507 0.10514 -7.61322e-21)
(0.996412 -0.00164958 4.3087e-23)
(0.994796 -0.00464546 3.65625e-22)
(1.04969 0.0830446 -1.30572e-20)
(1.00361 -0.0364126 1.85389e-21)
(0.999971 -4.92496e-06 -8.25305e-24)
(1.22134 0.054236 7.27817e-21)
(1.01827 0.000590912 -2.58634e-21)
(1.01789 0.000716249 -1.74922e-21)
(0.996408 -0.00807187 -5.22119e-22)
(1.01176 -0.00148965 -3.60015e-21)
(0.958642 0.0958914 7.47793e-21)
(1.04557 -0.113754 -1.30606e-21)
(0.983511 0.0948252 7.60357e-21)
(0.995607 0.0937317 -1.34506e-20)
(0.999997 -3.75801e-05 -3.60122e-25)
(1.05697 -0.0380372 -5.49187e-22)
(1.04766 -0.110894 8.43538e-22)
(0.998366 -0.00233285 1.42016e-22)
(1.00097 -0.000879361 -1.31396e-22)
(0.969593 0.0189633 1.22545e-20)
(1.03147 -0.0226553 -1.24308e-21)
(1.00017 -4.51349e-05 8.62736e-24)
(0.986546 -0.0346952 -5.31427e-21)
(0.97805 -0.0470517 -2.11115e-21)
(0.99667 -0.00113743 4.99793e-22)
(0.999929 -0.000126178 -8.52288e-24)
(1.04545 0.104141 -2.19801e-21)
(1.03237 0.038709 1.87368e-20)
(1.00003 -0.000308044 -2.78384e-25)
(1.00248 -0.00226742 1.01322e-22)
(1.00318 -0.00225933 5.48563e-22)
(1.1064 -0.106867 4.53285e-21)
(0.982328 -0.0222166 -4.06102e-21)
(1.00004 -0.000366083 -6.46796e-24)
(0.999993 -1.11565e-06 -1.26489e-25)
(1.00029 -0.000105646 1.31786e-23)
(1.06505 0.01793 -2.47626e-22)
(0.983223 -0.0152835 -2.09722e-21)
(1.0023 0.0445953 9.52286e-21)
(0.967897 -0.0253361 2.35807e-21)
(0.99171 -0.0171301 -1.19771e-21)
(0.985855 -0.000681937 -3.52209e-21)
(1.01147 0.0233796 -1.15512e-20)
(1.18317 -0.0257178 4.65049e-23)
(0.999286 -9.30771e-05 1.33966e-22)
(1.00481 -0.00374654 -5.83238e-22)
(1.00051 -0.000685738 9.48919e-23)
(0.982582 0.10484 -1.92013e-20)
(0.98446 -0.0139289 1.13451e-21)
(1.00065 -0.000174198 -4.47103e-23)
(0.995458 -0.0022151 -4.56923e-22)
(1.11174 -0.043454 1.17393e-21)
(0.999658 -0.00632843 -1.06861e-22)
(0.992912 -0.0075927 -2.51899e-22)
(1.00014 -8.67759e-05 -2.68003e-23)
(1.00014 -3.17365e-05 -1.19439e-24)
(0.886428 0.0756656 2.43425e-20)
(0.995057 -0.00081151 -5.84904e-22)
(0.997069 -0.00293481 5.11279e-22)
(0.999762 -0.0011591 -5.60214e-23)
(0.999571 -3.27099e-05 -7.48153e-24)
(1.0417 0.0670196 -7.07341e-21)
(1.07099 -0.115784 3.27612e-22)
(0.989688 -0.0254791 6.95099e-22)
(1.00001 -7.98179e-07 -2.88583e-25)
(0.999999 -2.20325e-05 -2.78068e-25)
(0.983868 -0.0143806 2.97208e-21)
(0.995905 -0.001183 1.20321e-22)
(0.996861 -0.00135416 -6.89918e-23)
(1.009 -0.00341064 1.12119e-21)
(1.00355 -0.00149626 1.97637e-22)
(0.999926 -0.0105218 -1.24828e-22)
(1.08951 -0.0290065 3.03032e-21)
(0.988874 -0.00265741 -7.30777e-22)
(0.985122 0.0927909 -6.47274e-21)
(1.00821 -0.0172205 -2.81913e-22)
(1.00015 -8.72783e-05 2.9713e-23)
(0.978635 -0.0373687 2.14795e-22)
(0.988963 -0.0224843 -2.48725e-21)
(1.13975 -0.0256491 1.5642e-21)
(0.998189 -0.0038527 -1.50751e-22)
(0.99139 -0.0300646 -8.19857e-22)
(0.999988 -4.0588e-06 1.02346e-24)
(0.940268 0.0759039 -2.57295e-20)
(1.00974 -0.00142857 2.02944e-21)
(1.00005 -0.000148271 -1.12908e-23)
(0.925232 0.0199537 -3.42537e-20)
(0.989075 -0.0255608 1.5652e-21)
(0.999988 -4.50925e-06 1.75488e-25)
(1.00088 -0.000800321 3.87014e-23)
(0.978492 -0.039052 -1.26102e-21)
(1.02336 -0.0270103 4.37538e-22)
(1.03268 -0.0112756 2.533e-21)
(0.999996 -1.74927e-06 8.38467e-26)
(0.995047 -0.00040962 4.63677e-22)
(1.01143 -0.0325227 7.9052e-22)
(0.996763 -0.00104343 6.91478e-22)
(0.999727 -2.84755e-05 -1.68786e-22)
(0.994942 -0.002569 1.0695e-23)
(0.977509 0.0333947 3.07267e-21)
(0.995497 -0.00789377 -6.54536e-22)
(0.993202 -0.00744598 1.85585e-22)
(1.00242 0.0284913 -9.5862e-21)
(0.998315 -0.00143762 1.64181e-22)
(0.977782 0.106421 -2.37191e-21)
(0.999988 -4.5487e-06 -5.34768e-25)
(0.99295 -0.0173212 4.83088e-22)
(0.984692 -0.0472075 4.96632e-21)
(0.991928 -0.0303381 1.39091e-21)
(1.13447 -0.0925458 8.12767e-22)
(0.999239 -0.00356394 2.01197e-22)
(1.00521 -0.0158597 1.36275e-22)
(0.999949 -0.00153401 2.50621e-24)
(0.989288 -0.0132829 -1.44151e-21)
(1.02395 -0.0293626 1.58426e-22)
(0.999982 -7.79775e-06 3.36302e-24)
(1.00001 6.5078e-07 -4.93625e-25)
(0.996125 -0.00026283 3.17091e-22)
(0.982997 0.0637734 1.97107e-20)
(1.00763 -0.0133247 1.17249e-21)
(1.00159 -0.00228975 -1.61896e-22)
(0.961018 -0.0183405 3.44124e-21)
(1 -4.55965e-06 -1.70395e-25)
(1.0006 -0.000753976 -1.51059e-22)
(0.999975 -0.000432948 -1.92165e-24)
(1.00861 -0.0128471 1.27587e-21)
(0.989563 -0.00981516 2.58842e-22)
(0.999769 -0.00017983 2.10101e-23)
(0.99577 -0.00705767 2.38306e-22)
(0.992382 -0.004374 -2.71296e-22)
(1.00062 -0.000103054 -1.22846e-23)
(0.999987 -4.85852e-06 -3.39846e-25)
(1.16157 -0.0653845 -1.44633e-21)
(0.999785 -0.00114106 6.00287e-23)
(1.05386 -0.0113908 2.29957e-21)
(1.01544 0.101116 4.95387e-20)
(1.04542 0.0820976 -1.19003e-20)
(0.999921 -0.013319 -4.59472e-22)
(1.00345 -0.00133525 -6.5616e-23)
(1.01196 -0.00119335 2.20878e-21)
(0.999977 -0.0015709 -2.84561e-24)
(0.998502 -0.00669305 2.42843e-22)
(1 -8.80355e-06 -3.89296e-25)
(0.993277 0.0940638 -1.00595e-21)
(0.99228 -0.00995941 3.57514e-22)
(1.00876 -0.0031014 -8.01696e-22)
(0.989126 -0.0027622 1.52579e-21)
(1.00213 -0.00835859 8.60481e-24)
(0.998298 -0.00379504 3.30948e-22)
(0.999937 -0.00012853 1.8773e-24)
(1.00001 -7.98548e-08 -2.60772e-24)
(0.99717 -0.00292367 -3.72357e-22)
(1.03823 -0.011441 -1.40568e-21)
(1.0052 0.039565 1.53728e-21)
(1.00075 -0.000313264 -1.82014e-22)
(0.981647 -0.0352322 -1.161e-21)
(0.984451 -0.0135036 -5.01461e-22)
(0.995164 -0.000326433 -1.7449e-21)
(1.222 0.0171394 -1.93825e-21)
(0.999201 -0.000621043 -8.08832e-23)
(1.0021 -0.00946911 -2.47001e-22)
(0.996609 -0.00177893 3.51094e-22)
(0.999942 -0.000123728 1.63037e-24)
(0.978374 -0.0408354 1.42522e-21)
(1.00268 0.041714 -1.50175e-20)
(1.02439 0.0298009 -1.23287e-20)
(0.986071 -0.00912403 -2.39765e-22)
(1.0019 0.0403854 -6.5753e-22)
(1.00005 -0.000138479 2.23669e-23)
(1.00001 2.68542e-07 8.31573e-25)
(1.21496 0.0516005 -2.86943e-21)
(1.14574 -0.0277406 -1.08377e-21)
(0.927592 0.0773451 -1.25671e-21)
(0.994059 -0.0512754 3.54848e-21)
(0.985997 -0.000939192 -1.111e-21)
(1.11198 -0.0386388 -1.60256e-21)
(1.00072 -0.000332095 2.06147e-22)
(0.996478 -0.00240011 2.01604e-22)
(1.00028 -0.000113323 -1.25004e-23)
(0.99342 -0.000455054 -3.76254e-22)
(0.992586 -0.00815861 -5.25157e-22)
(0.999996 -1.94189e-05 7.05431e-25)
(0.999464 -2.11731e-05 3.13706e-23)
(1.00204 0.101447 -4.65081e-20)
(0.999917 -0.000449874 1.82546e-23)
(0.946896 0.0696978 3.24879e-20)
(1 -7.83849e-06 2.93977e-25)
(1.21018 -0.0586086 -1.44789e-21)
(1.05371 -0.0129327 -4.85284e-21)
(1.08985 -0.0261748 -3.339e-21)
(1.00064 -0.000320616 1.24277e-23)
(1.00011 -2.60093e-05 2.41457e-23)
(0.986317 0.0596231 -2.99986e-20)
(1.05619 -0.0100026 9.65833e-21)
(0.984198 -0.0479831 -4.50118e-21)
(1.01759 0.0293164 5.59707e-21)
(0.998198 -0.0133931 2.05285e-22)
(0.991738 -0.00332364 -3.93992e-22)
(0.997503 -0.000142484 -2.08992e-22)
(1.11927 0.143563 -2.47324e-20)
(0.984922 -0.0161978 1.82436e-21)
(1.01976 -0.0242006 -8.89013e-22)
(0.995937 -0.00700878 -1.36599e-22)
(1 -4.57017e-06 -4.34754e-28)
(0.999209 -0.000584771 -6.85128e-23)
(1.00371 -0.00390789 3.45671e-22)
(0.988693 -0.00490501 1.96527e-21)
(0.986421 -0.00920999 3.58392e-22)
(0.973285 -0.0233462 -5.33791e-22)
(0.988573 -0.00520459 -1.49053e-21)
(1.01409 0.00187026 1.00656e-21)
(0.998699 -8.79271e-05 4.27954e-24)
(0.963848 -0.0211869 1.76095e-21)
(0.991355 -0.000562721 -5.41775e-22)
(1.00002 -0.000133571 4.78301e-24)
(0.992441 -0.000451662 -3.75208e-22)
(1.01988 -0.0261293 -1.4643e-21)
(1.01351 0.00204143 -5.56601e-21)
(0.983729 -0.0162162 -4.54899e-22)
(0.999995 -4.94951e-07 -3.22736e-27)
(0.98909 -0.0100119 3.86766e-22)
(1.00111 -0.00961106 2.10211e-23)
(1.00086 -0.00074839 4.96835e-23)
(1.05758 -0.121432 -3.8555e-21)
(1.00188 0.0419131 -3.47871e-20)
(1.00056 -0.000745835 1.40313e-22)
(0.992567 -0.000338191 5.47167e-24)
(1.05766 -0.0722017 2.58561e-23)
(1.0187 9.05058e-05 8.67738e-21)
(0.98871 0.0275444 -3.29963e-21)
(1.00115 -0.00159807 4.40184e-23)
(0.999776 -0.0138651 1.4429e-22)
(1.08848 0.100659 -3.83216e-21)
(1.0128 0.0182437 -2.87624e-20)
(0.993595 -0.017312 1.27785e-21)
(1.00301 -0.00227444 -6.13672e-23)
(0.970294 -0.0273681 2.42538e-21)
(0.999998 -1.45774e-06 -1.32863e-25)
(0.971042 -0.0011834 -1.82268e-21)
(1.00005 -4.36151e-05 3.78547e-24)
(1.05552 -0.0719832 -3.3639e-21)
(0.999983 -1.01829e-06 -3.83522e-25)
(1.00001 -3.76058e-05 3.09292e-24)
(0.999406 -0.0154499 -1.71752e-22)
(1.19567 -0.0233035 -9.20325e-22)
(1.02891 0.13115 2.10025e-20)
(1.022 -0.0271681 -2.30558e-21)
(1.00877 -0.010356 6.41059e-22)
(0.999999 -7.42105e-07 5.26604e-26)
(0.996191 -0.00284671 -6.77964e-22)
(1.00005 -1.38042e-05 -2.70528e-24)
(0.998045 -0.00153443 2.34833e-22)
(1.00001 -3.49359e-05 -2.41779e-24)
(1.03303 -0.00993186 -7.90002e-21)
(0.999711 -0.000298729 -8.31306e-23)
(1.04547 0.0398758 1.22199e-20)
(0.999926 -0.000138273 -1.35547e-23)
(0.992039 -0.0032522 -6.6998e-22)
(0.975407 -0.000638497 4.19685e-21)
(0.997374 -0.000184317 -2.69941e-22)
(0.983428 0.034935 3.16887e-20)
(0.989427 -0.000450873 1.03003e-21)
(1.00602 -0.0679972 2.70993e-22)
(0.996568 -0.00251715 1.04249e-21)
(1.0172 -0.00198782 -1.8223e-21)
(0.980105 -0.0355579 4.95152e-21)
(1.01289 -0.00106733 -6.12783e-21)
(1.0203 -0.0499333 -1.02552e-22)
(0.999993 -8.64979e-07 3.32649e-26)
(0.999125 -0.0130634 1.60861e-22)
(0.997545 -0.000187906 3.27989e-23)
(1.00015 -5.98853e-05 1.76786e-23)
(1.00005 -1.15152e-05 4.64529e-24)
(1.12443 0.145935 2.68708e-20)
(0.996963 -0.00135962 5.82486e-22)
(1.01881 0.000675164 9.89362e-21)
(1.00014 -0.0142112 1.73582e-22)
(1.00053 -0.000197751 4.78902e-23)
(1.01554 -0.00587473 -6.74024e-21)
(1.0001 -2.31398e-05 -5.4563e-23)
(0.999989 -3.1884e-06 -4.99471e-26)
(0.971377 -0.00157507 1.40952e-21)
(0.99784 -0.000777127 2.62526e-22)
(1.00002 -3.41213e-05 3.32423e-24)
(1.05542 0.0803333 8.89828e-21)
(0.899266 0.0615841 -4.55734e-20)
(0.999873 -0.000146669 3.6237e-23)
(0.976454 -0.0012957 -1.1618e-21)
(1.00001 4.15819e-07 5.84756e-25)
(0.955689 0.0937173 -3.03215e-20)
(1.21774 -0.0613758 -2.37008e-21)
(0.980992 -0.0286518 -4.15977e-21)
(1.00003 -0.000354628 -7.6781e-24)
(1.0191 -0.0232992 2.06935e-21)
(1.02091 -0.00235242 -2.50918e-21)
(1.02196 -0.000613838 7.36079e-22)
(1.03342 -0.0118869 -9.85532e-22)
(0.999778 -0.00122298 -1.00616e-23)
(0.999915 -0.000539856 1.55212e-23)
(0.991182 -0.00985707 -1.14679e-21)
(1 -4.13457e-06 -7.34751e-25)
(1.00001 -3.70207e-07 -1.43483e-25)
(0.984441 -0.0158841 -1.07798e-21)
(0.995263 -0.0394226 -1.98431e-21)
(0.974024 -0.0229695 -1.38428e-22)
(0.915972 0.0877168 -9.00622e-22)
(1.00012 -1.53208e-05 -2.21944e-23)
(1.00505 -0.0512043 -3.87083e-21)
(1.00466 -0.00351213 -6.00242e-22)
(0.999989 -3.21875e-06 5.63012e-25)
(0.999342 -0.00253208 -1.71426e-22)
(1.00002 -0.000300326 -5.40879e-24)
(0.997057 -0.00820543 3.96776e-22)
(1.00002 -6.09859e-06 2.99186e-24)
(1.02154 -0.0493282 -2.15668e-22)
(1.01264 -0.00130231 5.94465e-21)
(0.979176 0.104303 6.67553e-21)
(1.01672 -0.00184311 6.84613e-21)
(0.999835 -0.000142173 2.97957e-23)
(1.00028 -0.000252001 -4.93886e-23)
(1.10345 -0.110976 -4.59004e-21)
(1.01865 0.00064651 -7.9588e-21)
(0.998095 -0.000251646 2.33944e-22)
(1.00001 -9.74339e-07 1.22645e-24)
(1.06838 0.0676667 -1.46047e-20)
(1.02743 -0.124904 -1.73944e-21)
(0.99435 -0.0502813 -1.55834e-21)
(0.991123 -0.000478585 -2.88484e-22)
(0.999991 -1.01714e-05 8.68768e-25)
(0.999836 -0.00013374 -1.74048e-23)
(1.02945 -0.128432 4.87219e-21)
(0.996554 -0.0317754 -5.58767e-22)
(1.02917 0.0203166 1.75141e-21)
(0.984607 0.0893326 2.79365e-20)
(1.00572 -0.0662267 2.09939e-21)
(0.999232 -5.19394e-05 -4.18601e-23)
(0.999991 -5.48588e-06 -1.15183e-24)
(0.976215 -0.0300735 4.06568e-21)
(0.979123 -0.0602805 -5.09965e-21)
(0.999878 -0.000151665 1.93298e-23)
(1.00569 -0.0154914 5.76308e-22)
(0.993821 -0.0168665 -2.20918e-22)
(0.997119 -0.00145818 2.29579e-22)
(0.997711 0.0363217 -2.524e-20)
(0.999212 -0.000353464 1.48397e-22)
(1.03135 -0.0393007 1.94202e-22)
(1.19489 0.105019 -9.64996e-21)
(0.995213 -0.0020913 -6.66474e-22)
(0.925852 0.0728433 -4.59933e-21)
(0.931966 0.0341841 1.43704e-20)
(0.999984 -3.25796e-05 -3.30078e-24)
(0.999982 -0.000473646 2.22974e-25)
(0.989554 -0.000597142 -6.60605e-22)
(1.00842 -0.0032987 -1.44634e-21)
(0.977404 -0.00119701 2.40451e-21)
(1.00326 -0.00282312 -6.29893e-22)
(0.995384 -0.00209927 6.24298e-22)
(0.999653 -0.000321883 -6.35825e-23)
(0.96338 0.0940689 -5.38585e-21)
(1.04567 0.0378491 -1.90574e-20)
(1.00142 -0.00155062 1.1256e-22)
(0.865864 0.038777 -8.92143e-21)
(1.00001 5.96737e-07 -8.54159e-25)
(1.0182 0.00405928 -1.3779e-20)
(0.988414 -0.0605554 3.50629e-21)
(1.00651 -0.0515291 1.50683e-21)
(1.00005 -0.000134209 -1.17525e-24)
(0.976362 -0.000660665 1.9797e-21)
(1.01626 0.00355696 7.73555e-21)
(1.00823 -0.003578 1.19766e-21)
(1.02068 -0.00165844 3.48538e-21)
(0.999735 -2.2048e-05 1.18807e-22)
(0.999706 -0.000319308 7.53737e-23)
(1.01358 -0.0320188 1.51299e-22)
(0.997874 -0.000839543 -7.50622e-22)
(0.992088 -0.0074172 -1.23402e-21)
(0.999425 -0.00230028 1.01446e-23)
(1.06457 0.0236501 9.58532e-21)
(0.998949 -0.0136015 -1.12258e-22)
(0.996896 -0.00309905 1.14945e-23)
(0.959281 -0.0154653 -5.1163e-21)
(0.996274 0.0728015 3.20272e-21)
(1.07641 -0.0401768 -2.09124e-21)
(1.0151 -0.00556988 5.41977e-21)
(0.99976 -0.000115651 2.24719e-23)
(0.99969 -0.000208529 1.01743e-23)
(0.98885 -0.0131051 2.90916e-21)
(1.00062 -0.000813082 -1.11934e-22)
(0.998406 -0.000443778 -4.2415e-23)
(0.999992 -9.61009e-06 -3.10467e-25)
(0.999798 -0.0012459 2.28112e-24)
(1.01586 0.00332807 -3.00476e-21)
(0.98578 0.0625213 -2.8766e-20)
(0.999928 -9.62379e-06 4.37889e-24)
(1.14691 0.126597 -2.16604e-20)
(0.999996 -2.45649e-05 -2.92268e-25)
(0.99798 -0.00181611 3.19891e-22)
(0.999996 -6.00872e-05 -2.94962e-26)
(1.00329 -0.00243677 -2.79388e-22)
(1.16111 -0.0710852 1.15099e-21)
(0.999979 -2.59067e-05 3.85439e-25)
(0.999977 -2.82746e-05 2.48657e-24)
(0.967272 -0.025566 -2.2511e-21)
(1 -4.25341e-06 -2.35858e-26)
(1.03576 -0.0120857 8.2187e-21)
(0.991016 -0.0262104 2.22502e-21)
(0.999983 -0.00041559 1.26187e-24)
(1.0656 0.0497374 -1.1189e-20)
(0.999999 -1.82018e-05 4.85915e-25)
(0.999766 -2.43534e-05 1.0344e-22)
(0.999951 -2.24352e-05 1.80005e-25)
(0.99701 -0.00311275 -1.91769e-22)
(0.999785 -0.000991296 -2.90722e-23)
(0.996197 -0.000196647 -2.13075e-22)
(0.991617 -0.0735239 -4.13573e-22)
(0.999808 -0.000965588 1.92302e-23)
(1.00263 -0.00227493 -2.17308e-22)
(0.999989 -2.48153e-06 -2.19105e-25)
(1.03082 0.128363 -4.07915e-20)
(1.03012 -0.0397859 4.61316e-22)
(1.07893 -0.0413573 -1.73799e-22)
(0.978929 -0.00360126 2.60907e-21)
(0.98623 -0.00262784 -4.78827e-22)
(0.999399 -0.00247852 2.82392e-22)
(1.00182 -0.00172322 3.04777e-22)
(1.03757 0.0501075 5.13987e-21)
(0.988509 -0.0231 3.38518e-22)
(1.10555 0.0818622 5.42937e-21)
(0.973895 -0.00804283 -4.68811e-21)
(0.99791 -0.00175278 -3.01573e-22)
(0.999995 -1.84507e-06 -1.75261e-25)
(0.996493 -0.00178465 -4.23338e-22)
(1.00954 0.121707 1.0165e-20)
(1.05923 0.0582544 -2.63106e-21)
(0.987482 -0.0345525 1.79119e-21)
(0.965276 -0.00335755 1.08787e-21)
(1.03518 0.121246 1.11521e-20)
(0.994794 -0.000370189 5.55401e-22)
(0.986604 -0.055137 2.74839e-22)
(0.999997 -5.68504e-05 -9.98702e-25)
(0.990333 -0.0262757 2.78048e-21)
(0.999499 -0.000144356 -1.55303e-22)
(0.875399 0.0661441 -2.57098e-20)
(0.984415 -0.0448715 -3.85157e-21)
(0.999953 -1.99784e-05 7.57858e-24)
(0.96307 -0.0108653 -2.90869e-22)
(0.988316 -0.0244794 1.69425e-22)
(1.02665 0.0558667 1.82515e-20)
(0.998427 -0.000483871 -4.01808e-22)
(0.987252 -0.0235173 -1.00713e-21)
(0.99838 -0.00685538 -3.36789e-22)
(0.999492 -0.0149318 -3.59421e-22)
(0.999233 -0.000358572 -1.0142e-22)
(1.02565 0.0546171 -2.21699e-20)
(1.00145 -0.10513 3.39646e-21)
(0.989032 -0.0104177 -8.59579e-22)
(0.991535 -0.00917598 1.80449e-23)
(0.992109 -0.00306891 -2.68366e-22)
(1.00329 -0.00138094 -2.5596e-22)
(1.03669 0.117635 4.38929e-20)
(0.989081 -0.00846956 3.93045e-22)
(1.01233 0.02783 1.22116e-20)
(1.00168 -0.00139168 2.32569e-22)
(1.14 -0.0925712 -1.10244e-22)
(0.944479 0.0748752 4.74719e-21)
(0.994693 -0.000290806 -1.91214e-21)
(0.999869 -2.50591e-05 1.94447e-23)
(1.04017 0.0693007 5.52566e-21)
(0.99948 0.0969707 -3.76071e-20)
(1.01325 -0.0308452 -1.22453e-22)
(1.05225 -0.0383299 2.63868e-22)
(0.996903 -0.00852745 -4.36464e-22)
(0.979244 -0.00325667 -1.54398e-21)
(1.08565 0.0981059 1.56411e-20)
(0.975438 -0.0301213 7.23472e-22)
(0.99999 -1.00051e-05 1.19911e-24)
(0.995486 -7.00104e-05 -9.83506e-22)
(1.00002 -3.4292e-06 3.09166e-24)
(0.997282 -0.000164783 7.3218e-22)
(0.99999 -1.14106e-05 -1.86925e-24)