/*--------------------------------*- C++ -*----------------------------------*\
  =========                 |
  \\      /  F ield         | OpenFOAM: The Open Source CFD Toolbox
   \\    /   O peration     | Website:  https://openfoam.org
    \\  /    A nd           | Version:  7
     \\/     M anipulation  |
\*---------------------------------------------------------------------------*/
FoamFile
{
    version     2.0;
    format      ascii;
    class       volVectorField;
    location    "33";
    object      U;
}
// * * * * * * * * * * * * * * * * * * * * * * * * * * * * * * * * * * * * * //

dimensions      [0 1 -1 0 0 0 0];

internalField   nonuniform List<vector> 
7807
(
(1.08878 0.117954 2.97658e-20)
(1.07949 -0.0217519 9.21956e-20)
(1.0568 0.102208 -4.81771e-20)
(1.06084 0.0807533 9.58956e-20)
(1.03619 -0.00162874 1.48252e-20)
(0.926359 -0.0070359 1.13044e-20)
(1.05801 0.101926 -9.57184e-20)
(1.00944 -0.000993788 3.682e-22)
(1.03422 -0.00139865 1.31525e-20)
(1.03933 0.00379999 -8.23232e-21)
(0.986605 -0.00753325 -1.25819e-20)
(1.03658 -0.00204162 -2.35364e-20)
(0.960686 -0.00186813 -2.26718e-20)
(1.04274 -0.000505167 -9.75636e-20)
(1.0379 0.00380751 3.43654e-20)
(1.03071 -0.00880081 3.64692e-20)
(1.08939 0.121873 -6.31736e-20)
(0.93608 0.00152431 6.34402e-21)
(1.03774 -0.00559802 -1.84931e-20)
(1.02227 -0.076002 7.84111e-21)
(1.05552 0.00605623 -2.62894e-20)
(1.03628 0.000185444 6.69432e-20)
(1.04429 -0.00131179 1.2626e-20)
(1.01658 0.0474654 -5.84302e-20)
(0.897396 0.00425605 2.26331e-20)
(1.08615 0.11628 -2.98765e-20)
(1.03643 -0.00142966 1.23923e-20)
(1.04551 0.000899983 3.21532e-20)
(1.00732 0.0227941 -8.49784e-21)
(1.03793 -0.00572852 1.65034e-20)
(1.02681 -0.00904025 5.20553e-20)
(0.488069 0.00906388 9.90372e-21)
(1.04381 -0.00144891 6.80608e-20)
(1.03424 -0.00232905 -2.83369e-20)
(0.454734 0.000807631 -9.66429e-23)
(1.04187 0.00334069 1.3121e-20)
(1.03862 -0.00681072 1.21542e-20)
(1.05678 0.101696 -1.62592e-20)
(1.03321 -0.00508217 -6.59076e-20)
(0.845273 -0.00334016 -3.50442e-20)
(1.03355 -0.00513004 6.63198e-21)
(1.03078 -0.00835375 1.36085e-20)
(1.04783 -0.0839092 -3.72355e-20)
(1.16376 -0.0122959 -1.30913e-20)
(0.424681 -0.0012419 -1.66608e-20)
(0.879042 0.00843947 7.23744e-21)
(1.03528 0.000335331 -4.07213e-20)
(1.03396 -0.00460152 3.87969e-20)
(1.03134 -0.0032951 7.18423e-21)
(1.02627 -0.0765806 -1.15465e-20)
(1.03699 -0.00159249 1.87687e-20)
(1.04619 0.00140875 -3.47229e-20)
(0.842595 0.00371971 6.15304e-20)
(1.04419 -0.0189931 1.32277e-20)
(1.04235 0.0028358 -1.00964e-20)
(1.03236 -0.00274156 6.72938e-21)
(1.03688 -0.0047933 2.91715e-20)
(0.978863 -0.000978863 -4.33277e-20)
(1.01869 -0.010702 5.95019e-20)
(1.03396 -0.00271634 3.44252e-20)
(1.03251 -0.00128668 -1.73544e-20)
(1.03829 -0.000201323 1.78322e-20)
(1.04323 -0.000130691 -2.20548e-20)
(1.03606 -0.00138965 2.40325e-20)
(0.864376 -0.00906397 -2.50431e-20)
(1.02721 -0.00947806 -8.31022e-21)
(1.03339 -0.00172875 -1.22297e-20)
(1.03049 0.000224522 1.76915e-21)
(1.14885 0.0833014 2.99058e-20)
(1.03416 -0.00416196 1.56306e-20)
(0.968617 -0.00228896 -6.56152e-21)
(1.01343 -0.0410955 6.97078e-20)
(0.948435 -2.00021e-05 -1.11498e-20)
(0.752177 -0.00277958 -9.45886e-21)
(0.976876 0.000340695 -1.98962e-20)
(1.00543 -0.0181883 9.50829e-21)
(1.05702 0.10299 7.71876e-20)
(1.0541 0.00546967 3.30371e-20)
(1.10053 0.0186697 -6.75874e-20)
(0.999195 -0.0319236 7.88362e-20)
(0.993935 -0.00333211 3.49609e-20)
(1.02877 0.111668 1.09899e-19)
(1.05706 0.0178159 5.78566e-20)
(0.952049 -0.00266941 -4.25166e-20)
(1.03406 -0.00211863 2.00249e-20)
(0.719453 -0.00249047 -1.06644e-20)
(1.02564 -0.00291215 -5.79141e-20)
(0.899833 -0.000648355 -3.92856e-20)
(1.03532 -0.00140525 -1.69594e-20)
(0.716293 -0.0055224 -2.07274e-20)
(1.0077 0.0258501 6.03144e-20)
(1.18854 0.00639465 2.03017e-20)
(1.02454 -0.00277729 1.21989e-20)
(1.03674 -0.00443702 1.36305e-20)
(0.984639 -0.00350291 -2.48066e-20)
(0.485942 -0.00348234 7.32694e-20)
(1.01542 -0.0409059 -4.19735e-21)
(1.04538 -0.0178967 -2.27946e-20)
(1.0338 -0.00205516 -4.00534e-21)
(0.807289 0.00933551 -7.22716e-21)
(0.82559 -0.0111315 -2.00431e-20)
(1.1007 0.0231879 5.08367e-20)
(1.01163 -0.00115651 6.13298e-20)
(0.472517 -0.000907789 1.06703e-21)
(1.18941 0.017055 1.28074e-20)
(1.04357 0.0454005 -5.7968e-20)
(0.720462 0.042808 1.3435e-20)
(1.03058 -0.00289229 2.56893e-20)
(1.02904 -0.00130211 -5.92252e-22)
(1.05157 -0.00481711 -2.78919e-20)
(1.06206 0.0775154 -1.11299e-19)
(1.06079 -0.0573794 7.0516e-20)
(1.03006 -0.00134374 7.44684e-22)
(1.05295 -0.00466602 -6.05159e-21)
(1.0393 0.0440003 6.05121e-20)
(1.03478 -0.000340151 -9.11411e-21)
(1.10405 -0.0652041 5.14722e-21)
(1.04355 0.0287767 -1.6031e-20)
(1.02357 -0.0317583 -4.27401e-20)
(0.837046 9.24899e-05 1.01264e-20)
(0.607504 -0.00498059 4.72586e-20)
(1.00842 0.0563402 -7.32035e-20)
(1.05375 -0.0822373 5.11572e-20)
(1.04093 -0.00354984 7.79891e-21)
(0.687217 -0.0069038 -1.85497e-20)
(1.03516 -0.00155496 -3.60292e-20)
(1.02851 -0.00639391 -1.90956e-20)
(1.03696 -0.00489646 -2.23895e-20)
(0.710584 0.0111446 5.81657e-20)
(1.02739 -0.00804937 -1.25477e-21)
(1.22183 -0.00205287 5.85675e-21)
(1.09576 0.0160484 1.13398e-20)
(1.03497 -0.00291212 -2.66118e-21)
(1.035 -0.00149466 3.76593e-20)
(0.909655 -0.00332215 -1.21747e-20)
(1.05852 0.0726097 4.42685e-20)
(1.03333 0.118216 1.24822e-19)
(0.703605 0.0106164 1.91522e-21)
(1.04072 -0.00173828 4.27728e-21)
(0.505797 0.0052688 5.12517e-20)
(0.631431 -0.00322585 4.18494e-20)
(1.0277 -0.046053 5.35165e-20)
(1.00748 -0.0198602 -1.27437e-20)
(0.742442 0.000211765 7.44383e-22)
(0.572802 0.00296339 5.32462e-20)
(1.04699 -0.0312832 3.49467e-21)
(1.01607 0.0289372 -3.2183e-20)
(1.02098 -0.0138144 3.1957e-20)
(0.537357 0.00374983 -9.08203e-21)
(1.01192 0.083729 -3.65248e-20)
(1.04343 0.00347907 3.83311e-20)
(1.17776 0.00179199 8.92687e-21)
(1.03507 -0.00135181 5.64504e-20)
(1.15394 0.0774362 7.1011e-21)
(1.05501 0.0169083 -6.13047e-20)
(1.05685 0.100398 -8.3885e-20)
(1.00034 -0.0221645 -3.43153e-20)
(0.870561 -0.00566455 -8.66975e-21)
(1.0492 0.0805138 1.2202e-19)
(1.02907 -0.00973934 7.80793e-21)
(1.03674 -0.00455146 -3.40142e-20)
(1.01712 0.0521459 4.016e-20)
(1.03026 -0.00207014 -9.36259e-21)
(1.03447 -0.00332343 6.81876e-20)
(0.93563 0.00212783 1.08877e-20)
(1.00681 0.05616 -1.2117e-20)
(1.00369 0.0388181 4.36242e-20)
(1.03491 0.0736469 3.78984e-20)
(1.03424 -0.00351446 2.94923e-20)
(0.648509 0.00112767 1.40448e-20)
(1.0316 0.000895948 -1.77077e-21)
(0.381921 -0.00299904 7.5457e-20)
(1.03505 -0.000529955 1.21823e-20)
(1.08065 -0.018318 -1.07873e-19)
(1.04055 -0.00197019 2.78797e-20)
(0.628183 -0.00231145 -1.76114e-20)
(1.17989 0.024512 2.39539e-20)
(1.11313 0.0797422 2.43293e-21)
(1.03205 -0.00285418 -7.08973e-21)
(1.03518 -0.001838 3.48319e-20)
(1.06308 0.0828225 -1.59538e-20)
(0.979818 -0.00343588 3.12703e-21)
(0.643518 -0.0127085 -4.06218e-21)
(1.0577 0.101046 -7.85929e-20)
(1.08193 -0.0243359 4.67021e-20)
(1.04763 -0.0478472 4.50452e-20)
(1.02511 -0.0306112 6.1344e-20)
(0.909861 -0.00217016 -3.07525e-20)
(1.04464 -0.0326034 -8.62337e-21)
(0.462657 -0.0028921 -2.73624e-20)
(1.02959 -0.00235858 2.95772e-21)
(1.0161 -0.0380164 1.71604e-20)
(1.11469 0.0855428 -4.52802e-20)
(1.0262 -0.0011943 -8.80396e-21)
(1.03362 -0.000433226 -8.65233e-21)
(1.09155 0.0820477 3.56838e-21)
(1.01046 0.00241674 -5.65394e-20)
(1.02804 -0.00766621 -2.84748e-20)
(1.04209 -0.0307692 -3.09081e-20)
(1.03204 -0.000694646 -7.42869e-22)
(1.03539 -0.00147416 -2.93735e-20)
(1.05525 0.0735447 5.0193e-20)
(1.10446 0.0894442 -5.12805e-20)
(1.05415 0.101489 -1.10074e-20)
(1.09935 -0.0596899 -2.90253e-20)
(1.06387 -0.0537815 -1.45071e-20)
(1.15154 -0.0863615 7.40541e-21)
(1.0445 -0.000293933 8.67708e-20)
(1.05098 0.0715122 -1.85674e-20)
(0.601668 -0.0169675 1.70324e-20)
(1.03333 -0.000749346 5.02054e-21)
(0.434731 0.0438121 -5.6115e-20)
(1.03144 -0.00816186 1.47781e-20)
(1.03481 -0.00322465 2.3639e-20)
(1.01801 -0.0374003 -3.97231e-20)
(1.02809 -0.00675872 2.1181e-20)
(1.05715 0.0965097 -1.00544e-19)
(1.05515 0.0973759 -2.24012e-20)
(1.02542 -0.0473207 -1.38141e-20)
(0.758941 0.0253721 -4.02583e-20)
(1.02937 0.00157749 4.28538e-20)
(0.872467 -0.00167828 -2.23692e-20)
(0.76785 -0.00949448 -2.59678e-20)
(1.05237 0.00950191 -1.71626e-20)
(1.05375 -0.108933 3.42962e-21)
(1.10264 0.119081 -7.13531e-20)
(1.04502 0.0781864 -1.0645e-19)
(1.0329 -0.00137078 1.25866e-20)
(1.04044 -0.00349539 1.02846e-20)
(1.04072 0.0317945 8.38269e-20)
(1.034 -0.00382817 5.17328e-20)
(1.0469 0.0294054 -1.10498e-20)
(1.03518 -0.00138057 1.23005e-20)
(0.974619 0.0610399 7.42466e-20)
(1.05567 0.099843 1.73123e-20)
(1.01384 -0.00175937 -3.53581e-20)
(1.03781 -0.00499012 -2.04076e-21)
(0.913522 -0.00342614 6.68528e-20)
(1.13013 0.103913 2.4254e-20)
(0.625999 0.0111838 -1.21252e-20)
(1.03294 -0.00625546 -1.4476e-20)
(0.894735 -0.018807 -2.98434e-20)
(1.02386 -0.00561998 2.71624e-21)
(1.03421 -0.00228632 1.48562e-20)
(1.03517 -0.00147186 -1.36449e-20)
(1.08419 0.0585095 5.6163e-20)
(1.03117 -0.00216829 -1.22425e-20)
(0.584359 0.00384179 -7.67184e-23)
(1.00184 -0.0320079 -9.19775e-20)
(0.378421 0.0132217 -2.1626e-20)
(1.09546 0.0116137 -1.6722e-20)
(0.968825 0.0552636 5.93724e-20)
(0.848336 6.66212e-05 8.83824e-21)
(1.04011 -0.0315529 -2.63453e-21)
(1.03421 -0.0021788 2.72014e-20)
(1.05703 0.101167 -8.00281e-20)
(1.03716 0.000342858 -2.20198e-20)
(1.04464 0.147707 3.93349e-20)
(1.03755 -0.00623105 -5.47837e-20)
(1.03602 -0.00127502 3.7392e-20)
(1.05933 -0.0193807 -4.19623e-20)
(1.04388 0.000548266 -8.0897e-20)
(1.03502 -0.00053694 1.88224e-20)
(0.931601 -0.00558622 -1.246e-21)
(1.03501 -0.000731472 4.75297e-20)
(1.03405 -0.00402351 4.36978e-20)
(1.05417 -0.0495007 -5.60395e-20)
(0.951181 -0.0075927 -5.79367e-21)
(1.00211 -0.0210917 -2.51035e-20)
(0.985106 0.000156482 2.34152e-21)
(1.01021 -0.00419838 -1.29044e-20)
(1.03518 -0.00300785 -7.0993e-21)
(1.05824 0.132115 9.36565e-20)
(0.53527 -0.00257505 -1.04286e-20)
(0.694968 0.00531787 6.39213e-21)
(0.28417 0.0238814 9.1768e-20)
(1.03408 -0.00247928 2.81893e-20)
(1.08217 0.0980015 -3.85598e-20)
(1.03415 -0.00220343 -3.9666e-20)
(1.04122 -0.0139137 4.03457e-20)
(1.03277 0.000905473 -5.54826e-22)
(1.02312 -0.0248061 2.6339e-20)
(1.05229 0.00871529 2.47814e-20)
(1.1803 0.0331601 -5.54372e-20)
(1.01915 -0.0119993 -5.09898e-20)
(1.03466 -0.00189649 -4.34713e-20)
(1.02124 -0.0629989 -1.98059e-20)
(0.13584 0.000272931 -2.80533e-20)
(0.595231 0.0159667 -1.92724e-21)
(1.03508 -0.000687581 -4.21733e-20)
(1.03461 -0.00251108 -3.27142e-20)
(0.817309 -0.00999399 3.33941e-20)
(1.03794 -0.000895417 -3.63232e-20)
(1.03477 -0.0014836 -1.88072e-20)
(0.95428 -0.0020021 -7.17773e-21)
(1.05802 -0.047205 3.76596e-20)
(0.907776 -0.000162812 -3.11998e-20)
(1.15662 -0.0059461 3.74974e-21)
(0.804669 -0.00271607 3.3092e-20)
(1.0614 0.102732 9.04694e-21)
(1.06024 0.103629 -6.7979e-20)
(1.03463 -0.000481258 2.97225e-20)
(1.19922 0.0344583 6.97926e-20)
(1.00427 -0.00185774 8.72638e-22)
(1.03477 -0.0030694 3.48119e-20)
(0.346467 0.00372376 -7.55526e-20)
(1.0122 0.0423753 3.43981e-20)
(1.05758 0.02294 -5.1052e-20)
(1.03293 -0.00162955 1.7178e-20)
(1.03478 -0.00259348 5.07059e-21)
(0.864662 -0.00275765 -2.49781e-20)
(1.06979 0.0541082 -2.27367e-20)
(1.03527 -0.00154203 -2.04009e-20)
(1.03619 -0.000933275 1.6698e-20)
(1.03582 -0.000516076 -3.90776e-21)
(1.13624 0.0423219 5.80805e-20)
(1.22245 -0.0135976 3.60863e-20)
(1.06893 0.111346 4.48612e-20)
(0.778212 0.00319768 2.80827e-20)
(1.08987 -0.0214615 -9.13378e-20)
(1.03257 -0.00234332 1.24997e-20)
(1.03847 -0.00458907 -5.73534e-20)
(0.986013 -0.00323956 2.74327e-21)
(1.02557 -0.013462 -8.77348e-21)
(0.926248 -0.00293553 1.1417e-20)
(1.04451 -0.0130048 5.64245e-21)
(1.21798 0.0397811 -5.89237e-20)
(1.01533 -0.0191431 -4.97861e-20)
(1.0421 -0.0131996 -1.17738e-20)
(1.03971 -0.00294113 -1.69484e-20)
(0.831689 -0.00801813 -2.98445e-20)
(1.05407 -0.00789316 1.8508e-20)
(1.03391 -0.0119001 -2.57763e-20)
(1.09506 0.0270572 -2.53321e-20)
(1.07961 0.0569554 2.72606e-20)
(1.19834 -0.0885994 -4.80832e-22)
(1.16218 -0.0213541 3.27281e-20)
(0.243706 -0.0016679 3.00148e-20)
(1.03848 -0.00196198 4.01553e-20)
(0.898311 -0.0175439 1.22358e-20)
(1.00952 0.0662687 -1.18711e-19)
(1.14464 -0.0246302 -5.78381e-20)
(1.05186 -0.00198915 -5.48242e-20)
(0.845908 0.0373033 -5.60994e-20)
(0.678939 -0.0123444 -1.38598e-20)
(1.03465 -0.000299336 8.1262e-21)
(1.17604 -0.0078273 3.24444e-20)
(1.03502 -0.00180691 1.66727e-20)
(1.04703 -0.0286525 -1.19679e-20)
(1.0388 -0.00193462 1.2804e-20)
(0.731547 -0.00187587 1.29845e-20)
(0.784543 -0.0004213 2.71171e-20)
(1.04738 0.0393088 4.60111e-20)
(1.03337 -0.00165565 5.33156e-21)
(1.03507 -0.000263818 -1.65726e-20)
(1.03286 -0.000329764 1.49246e-20)
(0.834396 0.00583859 -5.92544e-20)
(1.03242 -0.00567598 -3.9088e-20)
(0.948391 -0.000908389 -3.42672e-22)
(0.939055 0.00443815 -4.08363e-21)
(1.0198 -0.00991935 -1.84846e-20)
(0.652501 0.0133516 3.15951e-20)
(1.04358 -0.0139227 -2.53449e-20)
(1.03163 -0.00762154 -5.46792e-20)
(1.07399 0.0938431 1.56075e-20)
(1.00424 0.0449271 7.02703e-20)
(1.08614 0.0159946 -2.42945e-20)
(1.19117 0.0383804 -2.66067e-20)
(0.281421 0.00504677 -4.11023e-20)
(1.0385 -0.00233043 -2.09918e-20)
(1.01886 0.071403 -3.49495e-21)
(0.781992 -0.00285499 4.8124e-20)
(1.07109 0.0984584 1.85456e-21)
(1.0445 -0.0354029 -1.48495e-21)
(1.07537 -0.0934048 1.64731e-20)
(1.10101 0.0868586 3.16213e-20)
(1.07267 0.101186 -4.39137e-20)
(1.0004 -0.0176783 -5.92735e-20)
(1.05905 0.0207931 -3.60272e-20)
(1.10539 0.122828 6.701e-20)
(1.07856 0.0984275 6.87266e-20)
(1.04601 0.00186904 2.79307e-20)
(1.03051 -0.00103258 -1.45347e-20)
(1.03227 -0.00280633 -9.97444e-21)
(0.998356 -5.43902e-05 6.34842e-21)
(1.04871 -0.0170659 1.74467e-20)
(0.685182 0.00413853 -1.068e-20)
(1.03527 -0.00211248 -2.13172e-20)
(0.928249 -0.000720383 1.11051e-20)
(1.0315 -0.000420889 -1.12646e-20)
(1.01875 -0.0618188 3.27035e-20)
(1.12113 0.0508579 2.15238e-20)
(0.960875 -0.0027693 4.62817e-20)
(1.03494 -0.00759001 -6.2298e-20)
(0.836096 0.00295571 3.1097e-20)
(1.0877 -0.0243282 3.22002e-21)
(0.85361 -0.00643465 5.94449e-20)
(1.03675 -0.00431212 4.07117e-20)
(1.11529 0.120374 1.05863e-20)
(0.823735 0.00396109 6.74909e-20)
(1.03206 -0.00226371 1.03285e-20)
(1.0337 -0.00167252 3.7108e-21)
(1.03294 -0.00156103 2.37887e-20)
(0.95578 -0.00189201 -1.7669e-20)
(1.04523 0.0365752 -5.78566e-20)
(0.693586 -0.00548413 -8.05355e-22)
(1.04905 -0.002771 3.74737e-20)
(1.0622 -0.113797 -2.43765e-20)
(1.05652 0.102951 -1.84762e-21)
(1.03795 -0.00480959 2.17644e-20)
(1.03998 -0.00286772 -3.77971e-21)
(1.03041 -0.00263734 2.88834e-20)
(1.04565 0.129317 -9.23793e-20)
(0.692178 -0.000742115 -1.5086e-20)
(1.0704 0.113591 -2.32755e-20)
(1.0125 0.0297849 -5.9236e-20)
(0.960252 -0.00330935 -1.21161e-20)
(1.04273 -0.0362918 3.3858e-20)
(0.911007 -0.00367088 2.87055e-20)
(1.03078 -0.0468345 -6.72406e-20)
(1.03469 0.000180109 1.59235e-20)
(1.08136 0.0181436 3.28786e-20)
(1.04048 -0.00979769 -1.21875e-21)
(1.0396 -0.00226753 6.30377e-21)
(0.86729 -0.00551199 3.8342e-20)
(1.08846 0.0560293 2.93551e-20)
(1.06522 0.0530669 8.54605e-21)
(1.04605 -0.0502879 -3.8083e-20)
(1.02075 -0.0124876 3.31227e-21)
(1.03474 -0.00269975 2.30157e-20)
(1.03766 -0.0282683 7.81987e-20)
(1.15085 0.0690308 -4.36949e-20)
(0.587233 0.0188227 -4.94105e-20)
(1.11558 -0.0517257 2.68579e-20)
(1.03896 -0.00482431 -1.19318e-20)
(1.03009 -0.00124553 5.90887e-22)
(0.991782 -0.00205953 4.52549e-20)
(0.794336 -0.00210395 -5.42362e-20)
(1.05342 -0.0082716 3.06245e-20)
(1.04482 -0.0888311 1.33466e-20)
(1.19985 0.0229641 -2.6398e-20)
(1.06137 0.105957 -1.05512e-19)
(1.07338 0.0507576 4.08942e-20)
(1.15169 -0.0752364 -2.72226e-20)
(1.09171 0.0868356 1.21814e-20)
(1.0142 0.0789226 1.14838e-19)
(1.04624 -0.00143055 3.20476e-20)
(1.03549 -0.00143809 4.69926e-20)
(1.05033 0.0802163 2.50822e-20)
(1.03505 -0.00179664 -3.54763e-20)
(1.03372 -0.00239163 -1.06465e-20)
(0.492213 -0.00115388 -1.18869e-20)
(1.03441 -0.00146224 3.61919e-21)
(1.16141 -0.0926881 -9.68775e-21)
(1.03868 -0.0111045 2.87775e-20)
(1.02474 -0.0244347 -4.77173e-20)
(1.03586 -0.00096706 1.50649e-20)
(1.0872 0.079955 6.74732e-20)
(0.831144 -0.000666662 5.5543e-21)
(1.03184 -0.00243091 7.0179e-23)
(1.06895 -0.0988002 -1.70338e-20)
(1.03576 -0.000383356 -9.30648e-21)
(1.12329 0.0153675 -6.35867e-21)
(0.8288 -0.0109111 -1.00326e-20)
(0.673008 -0.00325352 -2.97764e-21)
(1.19622 0.0764742 -4.99162e-21)
(1.03734 0.030539 -2.14355e-20)
(1.03399 0.0103413 1.47628e-20)
(1.03178 0.00946798 -6.943e-21)
(0.896481 -0.00278186 -3.28443e-21)
(1.128 0.0507226 1.69944e-20)
(1.09521 0.0308992 3.05992e-20)
(1.03558 -0.00232291 -1.41167e-20)
(0.988199 -0.00273093 -5.34692e-20)
(1.03538 -0.000404585 -1.76509e-20)
(1.04432 -0.0117335 -6.64946e-20)
(1.0432 -0.0185801 1.23773e-20)
(1.0387 -0.00108619 -3.97021e-22)
(1.03511 -0.00164495 4.44964e-20)
(1.12996 0.0976215 -7.18454e-20)
(1.03089 -0.00278076 1.25891e-20)
(1.0346 -2.80293e-05 -1.04042e-20)
(1.03742 -0.00111669 -2.2165e-22)
(0.589486 -0.00238032 -2.90923e-20)
(1.04717 -0.00466124 3.74251e-20)
(1.02404 -0.0199857 7.08536e-20)
(0.662874 0.00160316 1.45237e-20)
(1.05065 -0.0469697 -2.52755e-20)
(1.0824 -0.121653 2.67922e-20)
(1.05753 -0.0174722 2.24106e-20)
(1.05422 0.0787297 -1.44343e-19)
(1.20938 0.0436927 3.53152e-20)
(1.0171 -0.00310338 3.52411e-21)
(0.948898 0.0554569 8.56939e-20)
(1.01761 -0.0428148 -6.37298e-20)
(1.03223 -0.00615844 -1.16919e-20)
(0.60133 0.00417112 -2.51131e-20)
(1.03448 -0.0115816 5.37196e-21)
(0.495382 0.00536947 -4.69094e-20)
(1.00844 -0.00238315 1.65131e-20)
(1.05265 -0.00372626 -4.16279e-20)
(1.15274 -0.0270654 1.25546e-20)
(1.03199 -0.00236828 9.93326e-22)
(1.05012 -0.00428524 -2.98591e-21)
(0.998536 0.00405306 6.35109e-21)
(1.05829 0.0998902 2.26418e-20)
(1.1494 0.0887984 6.64701e-20)
(1.02308 -0.00212155 -9.93176e-21)
(0.558371 0.000176194 5.57664e-20)
(0.979908 0.00216801 2.20158e-20)
(1.02064 0.108026 7.28361e-20)
(1.06654 0.10125 5.58119e-20)
(1.13072 0.0436262 -3.16379e-20)
(1.13158 0.118649 -5.67235e-20)
(1.01753 -0.0457838 2.723e-20)
(1.0233 0.0719201 -1.11059e-19)
(1.03336 -0.0016664 -1.1142e-20)
(1.07417 -0.0105284 7.25484e-20)
(0.375652 0.0100565 1.40951e-21)
(1.10706 0.0775783 -1.70784e-20)
(1.0044 0.0673986 -7.48787e-20)
(1.15478 0.0634647 6.64394e-20)
(1.06742 0.0446666 6.65709e-21)
(1.03541 -0.00755148 1.88143e-20)
(1.02573 -0.00275961 1.90028e-20)
(1.13553 0.107208 2.5207e-20)
(1.21008 0.00343672 -1.10713e-20)
(1.04137 0.123113 -2.75664e-21)
(1.11681 0.0135116 7.8415e-20)
(1.05118 0.0669793 4.51117e-20)
(0.994473 -0.00465775 1.07918e-20)
(1.05703 0.106013 2.89621e-20)
(1.06797 0.0986022 2.10665e-20)
(1.00548 -1.38955e-05 5.03344e-20)
(1.02089 -0.00343586 2.24035e-20)
(1.14543 0.10048 1.81578e-21)
(0.616283 0.00435357 5.00971e-20)
(1.03332 -0.00165941 1.47333e-20)
(1.01005 -0.0024542 -5.91295e-20)
(0.805073 -0.0137552 -3.79314e-20)
(1.02862 -0.0603408 6.8721e-21)
(1.04058 -0.00155166 -5.84702e-20)
(1.03968 -0.00250652 5.23912e-21)
(1.03461 -0.00209388 1.892e-20)
(1.06765 0.103634 -8.28135e-20)
(1.03621 -0.0072772 -4.82376e-21)
(1.03234 -0.00212975 -5.76997e-21)
(1.05732 -0.0424464 -4.50368e-20)
(1.03467 -0.00273162 -1.1154e-20)
(1.00776 -0.00529358 -1.88747e-21)
(1.03855 -0.00714489 -1.2861e-20)
(1.07891 0.0809487 8.66516e-20)
(1.05979 -0.0867303 -2.55955e-20)
(1.06244 0.0847135 4.59458e-20)
(1.03306 -0.00088764 -1.16886e-20)
(1.08297 0.0829935 -9.1786e-20)
(1.05004 -0.0358151 -3.52121e-20)
(1.03376 -0.00192066 3.86944e-21)
(1.03241 2.06992e-05 -5.88897e-21)
(1.00387 0.016417 -1.0118e-20)
(1.07403 0.0740254 3.29567e-20)
(1.03297 -0.00268328 -1.06784e-20)
(1.06777 0.0627091 -4.6924e-20)
(1.03221 -0.00017641 4.36287e-21)
(1.069 0.0675936 -6.32497e-20)
(1.18564 -0.0932793 -2.64988e-20)
(0.976361 -0.000131638 -5.45498e-20)
(1.00533 0.0479155 -1.46379e-19)
(1.01832 -0.0349072 -4.81397e-20)
(1.13561 0.114494 5.81506e-20)
(0.623742 -0.00258631 -1.47121e-20)
(1.07337 0.0692709 8.11407e-20)
(1.07839 0.0758251 -2.37997e-20)
(1.01736 -0.00336544 -8.06071e-20)
(1.0025 -0.0029662 4.79919e-20)
(1.03307 -0.00600083 -4.49134e-20)
(0.957107 0.000843804 1.21209e-20)
(1.03387 -0.00220764 -2.40333e-20)
(1.03609 -0.0071386 7.94678e-21)
(1.07265 0.09505 -1.07566e-20)
(1.03176 -0.00246702 -2.77797e-21)
(1.06302 0.0614558 6.16765e-20)
(1.07352 -0.0852096 -4.39697e-20)
(1.03887 0.0975198 2.84772e-20)
(1.06181 0.0568661 -7.21752e-20)
(0.757645 -0.010704 5.15769e-21)
(1.06626 0.0912394 -9.92149e-20)
(1.0352 -0.000866159 2.17679e-23)
(1.0482 -0.0154236 2.60959e-20)
(1.08748 -0.0548919 -1.60271e-20)
(0.500709 0.00118783 2.82185e-21)
(1.03132 -0.00308721 -3.33896e-20)
(1.04783 -0.0372258 2.79942e-20)
(1.07851 -0.00182422 -6.40167e-21)
(0.877311 0.0428572 1.09028e-19)
(1.03171 -0.000753779 1.6236e-20)
(1.03471 -0.000592083 -1.86151e-20)
(1.05661 -0.0572086 1.29508e-22)
(1.03297 -0.000951755 9.48785e-22)
(1.05896 0.100971 1.0949e-20)
(1.03587 -0.000171813 0)
(1.03209 0.000479382 8.28844e-22)
(1.03313 -0.000214314 2.56826e-20)
(1.0358 -6.16169e-05 3.10557e-22)
(1.02583 -0.0124933 -5.97697e-20)
(1.05075 -0.00756329 -2.10997e-20)
(1.03544 -0.000968479 -3.66089e-20)
(0.899892 0.00207785 -1.31241e-20)
(1.02781 -0.00321543 -1.74715e-20)
(1.0382 -0.00731608 -1.4154e-20)
(1.03396 -0.0960546 3.32727e-20)
(0.382671 -0.000207914 -4.15281e-21)
(1.04653 -0.00414337 5.78067e-20)
(0.71002 -0.0100464 -8.29574e-21)
(1.1444 -0.120466 -3.3547e-20)
(0.947562 -0.0031501 2.48419e-20)
(1.13589 0.0925038 -5.02669e-21)
(1.00162 0.0201176 -2.33363e-20)
(1.03533 -0.00204505 1.36613e-20)
(1.12711 0.0829484 -7.46411e-20)
(1.03292 -0.000474037 -4.97394e-22)
(0.986334 -0.00281222 -5.02853e-22)
(1.04124 0.00301752 -4.12241e-20)
(1.03262 -0.00316877 1.3489e-20)
(1.08129 0.090056 -5.43265e-21)
(1.02598 -0.00318505 4.58485e-20)
(1.07473 -0.00799445 -5.6255e-20)
(1.0412 0.00462526 -4.16699e-20)
(1.07845 0.0523044 -1.59146e-20)
(1.04058 -0.00893403 -3.6861e-20)
(1.02029 -0.0018417 -1.33224e-21)
(1.09642 0.0790001 4.57429e-20)
(1.0225 -0.0672369 3.44316e-20)
(1.05748 0.101331 8.86986e-20)
(1.03022 -0.00235907 6.18731e-20)
(1.08362 0.105425 2.62776e-22)
(1.0277 -0.00148621 -1.64988e-20)
(1.03471 -0.00038638 3.20634e-21)
(1.06673 0.0413635 1.96157e-20)
(1.04764 -0.0184755 -1.94461e-20)
(1.05487 0.0137256 5.9604e-20)
(1.03473 -0.000687812 1.03793e-20)
(1.03254 0.000947215 3.83763e-22)
(1.04717 -0.111854 -1.22366e-20)
(1.11497 0.11559 -6.59817e-20)
(1.03553 -0.00198353 -1.22406e-20)
(1.13417 0.0851669 8.27325e-21)
(1.02646 -0.0033041 3.26922e-20)
(1.13625 -0.12881 1.11769e-20)
(1.0752 -0.0227768 8.55984e-21)
(1.02376 -0.0214992 -3.83472e-20)
(1.03536 -0.000637404 1.46206e-20)
(0.620476 -0.00370092 1.30787e-20)
(1.01676 -0.0558376 2.36815e-20)
(0.910147 -0.00389066 -5.40098e-20)
(1.021 -0.00128721 -4.16198e-20)
(1.03435 -0.00176708 -1.74469e-20)
(1.057 0.101351 -9.65102e-21)
(1.12521 0.0761797 4.73578e-20)
(1.05029 -0.00293129 -1.34835e-20)
(1.03375 -0.00262693 -1.63762e-20)
(1.06627 0.0963197 -3.97288e-20)
(1.03181 -0.000971363 4.72889e-21)
(1.03353 -0.00253763 -3.40073e-20)
(1.11841 0.0745557 4.0447e-20)
(1.04373 -0.0154046 3.61449e-20)
(1.12314 0.108041 6.04902e-20)
(1.04596 0.000391196 2.34676e-20)
(1.04604 -0.0061524 -7.19502e-21)
(1.12231 -0.0380372 -2.40272e-20)
(1.09775 -0.107257 -3.25499e-20)
(1.19741 0.0695858 -2.39535e-20)
(1.03586 -0.000483554 -2.79282e-20)
(0.879361 -0.0114417 3.51312e-21)
(1.0324 -0.00173592 3.37939e-21)
(1.03848 -0.00695004 9.24794e-21)
(1.08357 0.0872746 3.12406e-20)
(1.01836 -0.00292577 -6.01222e-20)
(1.03235 -0.000792413 -1.86744e-20)
(1.04927 -0.0272473 3.85327e-20)
(1.03457 -0.000344261 -1.03341e-21)
(1.03519 -0.00158367 -2.49394e-20)
(0.298826 0.00724771 1.95945e-20)
(1.02968 -0.00269783 3.2229e-20)
(1.03487 -0.00240291 4.68555e-20)
(0.455915 -0.0028898 1.76686e-21)
(1.0266 0.0111395 6.23229e-20)
(1.01581 -0.0176612 7.27652e-21)
(1.03454 -0.00192717 -2.19033e-20)
(1.00125 0.00241878 -2.50101e-20)
(1.0344 0.0332823 2.27131e-20)
(1.08527 0.0260592 5.69921e-21)
(0.995528 -0.0157432 3.74887e-20)
(1.0314 -0.000974063 5.33138e-21)
(1.00158 0.0157203 1.39651e-19)
(1.02674 -0.0105936 4.32396e-20)
(1.08671 0.0750289 -7.00967e-20)
(1.04207 -0.000761095 -6.31142e-20)
(1.04284 -0.000410759 1.27767e-19)
(0.948844 -0.00467788 -6.98683e-20)
(1.03292 -0.00182997 4.06662e-21)
(1.04073 0.00157576 -5.09529e-21)
(1.09014 0.0240105 -1.05465e-20)
(1.17871 0.0714384 5.02093e-20)
(1.07902 -0.0795593 -1.40061e-20)
(1.07028 0.092489 3.39652e-20)
(1.03987 -0.00132425 -1.53068e-21)
(1.10146 0.0818148 -6.27602e-20)
(1.03563 -0.00910129 2.4025e-20)
(1.05358 -0.0408445 6.88251e-20)
(1.02999 -0.002252 1.82438e-20)
(1.03843 -0.011893 -5.83736e-20)
(1.03435 -0.00167902 -1.54363e-20)
(1.0634 0.0478445 -5.33772e-20)
(1.09448 0.111972 -1.03287e-19)
(1.03539 -0.00100508 -1.12442e-20)
(1.04707 -0.00561272 4.63685e-21)
(0.899507 -0.000893902 -1.99137e-20)
(1.08099 -0.0666789 -8.24666e-21)
(1.07649 -0.0725132 2.20279e-20)
(1.03315 -0.000507009 -1.97757e-20)
(1.07131 -0.011554 -2.89255e-20)
(0.125352 -0.00425448 -3.27536e-20)
(1.17759 0.0555268 4.49101e-20)
(1.03351 -0.00162521 -2.81348e-20)
(1.08108 0.0230131 -2.26782e-20)
(1.03423 -0.00568605 3.43628e-20)
(0.587842 0.0330607 1.40762e-19)
(1.021 -0.00300147 -4.42648e-20)
(1.03351 -0.0176199 1.56358e-20)
(1.05076 -0.0231873 -1.62433e-21)
(1.03267 -0.0182307 6.00261e-22)
(1.03516 -0.0135288 6.04396e-20)
(1.02791 -0.00297844 -1.08404e-20)
(1.03509 -0.00915007 -5.20274e-20)
(1.03673 -0.00392386 -1.23718e-20)
(1.08049 -0.00498084 1.28968e-20)
(1.03218 -0.00110438 -2.4823e-20)
(1.21499 -0.0528327 1.57407e-20)
(1.16937 0.0193998 1.89752e-20)
(1.06294 0.10303 6.46929e-20)
(0.998168 -0.0145383 -5.89195e-20)
(1.11726 0.103994 -3.03103e-20)
(1.03558 -0.000343416 3.11258e-20)
(1.1018 -0.0517031 -1.13227e-21)
(1.04092 -0.0264973 3.50138e-20)
(1.03196 0.0554936 5.42193e-20)
(1.03255 -0.00306977 -3.05814e-20)
(1.03369 -0.00113064 1.85035e-20)
(1.02725 -0.0111807 -5.99404e-20)
(1.03347 -0.00598907 1.75657e-20)
(1.06816 -0.0100536 4.7819e-20)
(0.841616 -0.000998941 4.73698e-20)
(0.985286 -0.00253775 -1.59715e-20)
(1.14606 -0.00809746 1.49795e-20)
(0.805975 0.0025249 3.79313e-20)
(1.04892 -0.0248313 -3.23284e-20)
(1.03027 -0.0644911 -2.85439e-20)
(1.03191 -0.00136377 8.30134e-22)
(1.08052 0.00221504 5.54077e-20)
(1.03156 -0.056767 8.67883e-20)
(1.12283 0.0942592 3.35288e-20)
(1.12368 -0.0445616 3.92415e-20)
(1.05338 0.0127019 6.12145e-21)
(1.06608 -0.0825596 5.9043e-20)
(1.07198 0.106984 1.92544e-20)
(1.06446 -0.0205182 4.34794e-20)
(0.913121 -0.00388324 4.15236e-20)
(1.04979 -0.0328139 4.99137e-20)
(0.284028 0.0270091 3.52007e-20)
(1.18377 -0.0621969 -1.55117e-20)
(1.01037 -0.00309663 1.37307e-20)
(1.07024 -0.107996 3.45604e-21)
(1.06209 -0.0487539 -4.17964e-20)
(1.08411 -0.0960024 2.13507e-21)
(1.07789 -0.0605832 3.35485e-20)
(1.09584 0.0738127 6.00069e-20)
(1.0332 -0.00114325 -9.27517e-22)
(1.01525 0.0670298 1.90192e-20)
(1.0399 -0.000888619 1.38907e-20)
(1.0346 -0.0017912 2.71731e-20)
(1.03505 -0.00163957 -7.93185e-20)
(1.07774 0.0161657 -1.15426e-20)
(0.0739371 0.00499261 7.67195e-22)
(1.03662 -0.00406249 1.77991e-20)
(1.05323 -0.0373123 -9.00275e-21)
(1.03473 0.0375713 -3.70498e-20)
(1.03209 -0.000851111 -8.43696e-22)
(1.00447 -0.00296181 -4.08748e-20)
(1.0483 -0.00332422 3.72713e-20)
(1.09989 -0.0194722 5.49234e-20)
(1.03984 -0.000654462 7.26983e-20)
(1.03504 -0.00188742 -1.10277e-20)
(1.02479 -0.0282841 1.65508e-22)
(1.0347 -0.00549183 1.77844e-20)
(1.03171 0.000723424 9.82622e-21)
(1.0201 -0.0341458 8.23309e-20)
(1.07484 0.0874561 -1.35381e-20)
(1.05142 -0.0193035 -6.41076e-21)
(0.95414 0.000393754 3.68742e-20)
(1.03631 4.29435e-05 -1.17641e-20)
(1.03888 0.0397521 4.92565e-20)
(1.03503 -0.00204105 1.06054e-20)
(1.0357 -0.00141115 2.37169e-21)
(1.03329 -0.00203651 1.82996e-20)
(1.03513 -0.00173016 3.19867e-20)
(1.16799 0.0710324 3.47458e-20)
(1.05884 -0.0216396 1.04244e-19)
(1.04129 -0.011415 2.54579e-20)
(1.00782 -0.00317835 1.64475e-20)
(1.03292 -0.00069011 9.75282e-21)
(1.11551 -0.0986999 -4.58721e-20)
(1.20933 0.0175929 9.40932e-22)
(1.12275 -0.107215 2.08125e-20)
(1.03473 -0.023122 2.39177e-20)
(1.04322 -0.00484869 5.7647e-20)
(1.03223 -0.00311236 -1.21462e-20)
(1.02918 -0.00668838 2.69486e-20)
(1.00423 -0.0342452 3.71814e-20)
(1.16839 0.0561161 1.51738e-22)
(1.03537 0.0995411 -1.38399e-21)
(1.03479 -0.00245601 -1.84838e-20)
(0.965571 -0.0228241 -1.89061e-20)
(1.03308 -0.00280168 4.19756e-20)
(1.06222 -0.0185548 -1.7081e-20)
(1.10573 0.0715945 7.01749e-21)
(1.03549 -0.000668115 -3.22179e-20)
(1.03414 -0.00242526 7.47612e-21)
(1.143 0.105421 7.96325e-21)
(1.16611 0.0398242 -1.04617e-20)
(1.04756 -0.00831269 1.93182e-20)
(1.03307 -0.00145544 -3.09917e-20)
(0.92912 -0.00609314 4.21548e-21)
(1.01035 -0.0353824 -9.36657e-21)
(1.03406 -0.00205364 2.23057e-20)
(1.05003 -0.0209965 5.99513e-20)
(0.542475 -0.00231047 -8.52652e-20)
(1.0012 0.0205315 -1.88934e-20)
(1.07802 0.0903547 -6.57716e-21)
(1.0963 -0.0470953 -2.39849e-20)
(1.03524 -0.0570929 -3.06398e-20)
(1.03815 -0.00158973 4.51527e-20)
(1.04638 -0.0149534 -5.32685e-20)
(1.16077 0.0245143 5.20696e-20)
(1.03508 -0.0647859 1.73582e-20)
(1.0521 -0.0310684 -3.04437e-20)
(1.03126 -0.000769278 -1.05768e-21)
(1.15092 0.0100245 4.48531e-20)
(0.491398 -0.00585466 -4.58408e-21)
(1.03443 -0.0734735 -3.15402e-20)
(1.05064 -0.0174574 -8.28848e-20)
(0.885222 -0.0091382 7.07745e-21)
(1.03411 -0.00198316 8.87235e-21)
(1.03049 -0.000882743 1.46581e-20)
(1.05727 0.0556466 5.51834e-20)
(0.950848 -0.00445291 1.6486e-20)
(1.03574 0.00316564 -1.79984e-21)
(0.87259 -0.00388537 3.35419e-20)
(1.17866 -0.0492798 5.70991e-20)
(1.01715 -0.000609053 -3.65255e-20)
(1.05566 -0.0353019 1.2263e-20)
(1.03332 -0.00160785 1.38873e-21)
(1.03963 -0.00838071 3.81052e-21)
(1.03384 -0.0911167 -1.54227e-20)
(1.08984 -0.0486381 1.80452e-20)
(1.03329 -0.00146969 1.1415e-20)
(1.0319 0.000398253 -5.88593e-21)
(1.03336 0.00278274 1.77524e-21)
(1.04741 -0.0546755 -6.58145e-21)
(1.00356 0.0307135 -1.70398e-21)
(1.08479 0.101404 7.79122e-22)
(1.14034 -0.00110823 -1.94401e-20)
(1.03518 -0.00179956 -2.4168e-21)