/*--------------------------------*- C++ -*----------------------------------*\
  =========                 |
  \\      /  F ield         | OpenFOAM: The Open Source CFD Toolbox
   \\    /   O peration     | Website:  https://openfoam.org
    \\  /    A nd           | Version:  7
     \\/     M anipulation  |
\*---------------------------------------------------------------------------*/
FoamFile
{
    version     2.0;
    format      ascii;
    class       volVectorField;
    location    "36";
    object      U;
}
// * * * * * * * * * * * * * * * * * * * * * * * * * * * * * * * * * * * * * //

dimensions      [0 1 -1 0 0 0 0];

internalField   nonuniform List<vector> 
7639
(
(1.14339 0.186221 3.7705e-21)
(1.0485 -0.0516105 -3.16676e-22)
(0.999516 0.153761 -1.1455e-20)
(1.05687 0.0869019 1.42474e-20)
(0.99921 -0.000973475 -2.28342e-23)
(0.999963 -8.27915e-06 -2.60766e-24)
(0.991674 0.125959 -2.33576e-20)
(0.994914 -0.00182251 -4.45176e-24)
(0.999887 -0.000178921 -4.34887e-24)
(1.02668 0.00112761 -6.34491e-22)
(0.999966 -1.00234e-05 2.87645e-24)
(1.00216 -0.0012116 -9.09401e-23)
(0.992247 -0.00228667 2.2598e-22)
(1.02122 -0.00207524 -3.81984e-21)
(1.02592 0.00155974 2.69451e-21)
(0.991379 -0.0145298 -4.6659e-22)
(1.14994 0.197399 -7.88364e-21)
(0.989599 -0.00291369 -7.81311e-23)
(1.00214 -0.00949741 -2.29376e-23)
(0.973644 -0.0858369 -3.91902e-22)
(1.03809 -0.00769922 -1.25537e-21)
(1.00143 -0.000750258 1.70274e-22)
(1.01884 -0.00361296 3.21105e-22)
(1.01341 0.0378804 -7.58181e-21)
(0.986196 -0.00362563 -3.52776e-22)
(1.13401 0.184711 -3.96903e-21)
(0.999252 -0.000927137 -1.59881e-23)
(1.0251 -0.0024405 1.53393e-21)
(1.00551 0.017105 -9.48398e-22)
(1.00353 -0.0101517 1.78906e-23)
(0.986847 -0.0151381 -8.16173e-22)
(0.828703 0.052308 3.79586e-21)
(1.01863 -0.00445265 1.98823e-21)
(0.999546 -0.000388654 2.83892e-23)
(0.999903 -6.65755e-06 5.4227e-26)
(1.02621 -0.000127085 9.29432e-22)
(1.00401 -0.0111085 2.33133e-23)
(0.998301 0.122117 -3.68945e-21)
(0.996334 -0.00776325 3.82804e-22)
(0.999685 -5.7638e-05 2.73718e-23)
(0.996728 -0.00800369 -4.28748e-23)
(0.991523 -0.0136423 -1.68758e-22)
(0.993493 -0.0978925 1.92174e-21)
(1.135 -0.10508 7.94354e-22)
(0.999813 -1.21501e-05 8.87703e-24)
(0.999926 -1.50313e-05 -2.57307e-24)
(1.00137 -0.000606792 -1.03905e-22)
(0.996184 -0.00711223 -2.27121e-22)
(0.999937 -2.859e-05 -2.08357e-24)
(0.976878 -0.0870201 5.74128e-22)
(1.00317 -0.00106041 9.89924e-23)
(1.02461 -0.00165098 -1.58795e-21)
(0.982067 -0.00430518 -1.18328e-21)
(1.0092 -0.0311672 1.47185e-23)
(1.02679 -0.000809785 -5.32921e-22)
(0.995534 -0.00251194 -4.18017e-23)
(1.00209 -0.00882124 5.31662e-23)
(0.99488 -0.00157916 3.09462e-22)
(0.97796 -0.0178721 -1.42981e-21)
(0.999528 -0.000346049 -3.63051e-23)
(1.00004 -2.20435e-05 -3.65801e-24)
(1.00414 -0.00120887 1.10816e-22)
(1.02141 -0.00135134 -9.05142e-22)
(1.00234 -0.00106252 9.2066e-23)
(0.999089 -0.000185318 5.12896e-23)
(0.98738 -0.0157304 1.36883e-22)
(0.999909 -0.000178434 3.35023e-24)
(1.00001 -2.5226e-06 2.32232e-25)
(1.23283 0.0244567 -1.13475e-22)
(0.996377 -0.00675093 -7.01791e-23)
(0.999931 -1.84416e-05 2.2804e-24)
(0.96918 -0.0516634 -2.74789e-21)
(0.986779 -0.0040302 1.7283e-22)
(0.975359 -0.0053054 2.30402e-22)
(0.990056 -0.00322176 2.45317e-22)
(0.966294 -0.0250975 -3.05895e-22)
(1.00535 0.155752 1.84611e-20)
(1.03606 -0.00738637 1.60861e-21)
(1.09678 -0.0195258 -1.57952e-21)
(0.956 -0.0415249 -3.30682e-21)
(0.992611 -0.00253219 -3.4689e-22)
(1.00108 0.0737524 2.2813e-20)
(1.04627 0.00343591 3.82461e-21)
(0.974863 -0.00936245 1.06311e-21)
(0.998682 -0.00244741 -3.74565e-23)
(0.997863 -0.000311106 3.79261e-23)
(0.994572 -0.00240064 4.26287e-22)
(0.98275 -0.00482195 7.60841e-22)
(0.999391 -0.00114617 2.44346e-23)
(0.995741 -0.00064777 1.33421e-22)
(1.00588 0.0194743 7.07462e-21)
(1.17507 -0.118524 -1.51307e-21)
(0.999874 -5.17257e-05 -5.3746e-24)
(1.00171 -0.00745759 2.30356e-23)
(0.996622 -0.000997106 1.21318e-22)
(0.975091 -0.002944 -1.84586e-21)
(0.971322 -0.051521 1.86243e-22)
(1.01107 -0.030263 1.10185e-22)
(0.998544 -0.00235914 1.22355e-23)
(0.998914 -0.000187913 1.70478e-23)
(0.95329 -0.0149013 7.69482e-22)
(1.09996 -0.0141429 1.42646e-21)
(0.996811 -0.00113426 -3.02158e-22)
(0.999976 -1.30427e-06 -2.21748e-25)
(1.18877 -0.111086 -1.25621e-21)
(1.03917 0.0360362 -6.54654e-21)
(0.91529 0.0387376 4.25545e-21)
(0.995236 -0.00237077 -1.73898e-22)
(0.999992 -2.46547e-06 4.67891e-26)
(1.02536 -0.0160982 -6.22877e-22)
(1.06039 0.0812383 -1.6548e-20)
(1.01305 -0.0788448 -2.53362e-21)
(0.999991 -3.00756e-06 -7.78917e-26)
(1.02713 -0.0167803 -1.34488e-22)
(1.03463 0.0345153 6.89413e-21)
(1.00041 -0.000559296 -7.92218e-24)
(1.04726 -0.105295 -2.08024e-22)
(1.03662 0.018928 -1.55071e-21)
(0.981165 -0.0422742 1.22963e-21)
(0.975063 -0.00644486 -2.42227e-22)
(0.950422 -0.00971324 -1.84699e-21)
(1.00153 0.0309817 -1.48758e-20)
(0.998621 -0.0981127 -2.64355e-21)
(1.0096 -0.00825299 5.37056e-23)
(0.952007 -0.0111361 7.2751e-22)
(0.999106 -0.00133401 5.42933e-23)
(0.988139 -0.0115401 2.76461e-22)
(1.00267 -0.00840565 -3.60398e-23)
(0.99904 -0.000136991 -1.14383e-22)
(0.98699 -0.013968 1.50819e-23)
(1.1822 -0.164476 -8.876e-22)
(1.08913 -0.0193888 2.87807e-22)
(0.999435 -0.000531331 3.0899e-24)
(0.999286 -0.0011723 -4.75382e-23)
(0.973722 -0.00854364 3.15576e-22)
(1.05542 0.072548 5.97037e-21)
(0.996224 0.027595 2.76217e-20)
(0.999978 -2.35866e-06 -2.62252e-25)
(1.00714 -0.0032253 4.67619e-23)
(0.933565 -0.0118888 -2.27039e-21)
(0.976908 -0.00385407 -9.43351e-22)
(0.983509 -0.0584097 -1.87901e-21)
(0.96663 -0.0270261 4.14628e-22)
(0.976726 -0.00479369 -2.03679e-23)
(0.906057 0.0301925 1.67891e-20)
(1.00807 -0.0469717 -7.56405e-23)
(1.01256 0.022294 -3.56703e-21)
(0.979923 -0.0214251 -7.53676e-22)
(0.965967 -0.00498424 2.56499e-22)
(1.00158 0.051846 -7.36163e-21)
(1.02632 0.000351245 2.30724e-21)
(1.16078 -0.10906 -1.76718e-22)
(0.998613 -0.00195972 -1.29008e-22)
(1.23262 0.00742661 -4.54137e-22)
(1.04377 0.00336256 -4.0173e-21)
(1.01547 0.125807 -1.81294e-20)
(0.96131 -0.0291024 1.26622e-21)
(0.992247 -0.00176816 7.72792e-23)
(0.92716 0.103338 3.67445e-20)
(0.999942 -2.44298e-05 -1.96302e-24)
(1.00124 -0.00787741 -8.88554e-24)
(1.01356 0.0417007 5.49974e-21)
(0.99998 -1.89594e-05 1.2693e-24)
(0.998302 -0.00497056 -1.82697e-22)
(0.996184 -0.00096465 -5.80094e-23)
(1.00419 0.0417939 -1.83845e-21)
(1.00204 0.0271134 6.91618e-21)
(0.915662 0.113035 1.22278e-20)
(0.998025 -0.00480633 -1.12238e-22)
(0.997057 -0.00036865 -6.62401e-23)
(1.00001 -3.41991e-06 -2.16559e-25)
(0.947615 -0.00587582 -3.15112e-21)
(1.0004 -0.000500566 1.09411e-23)
(1.0514 -0.0481665 3.56594e-22)
(1.00749 -0.00346825 3.12603e-22)
(0.966753 -0.00591575 5.30852e-22)
(1.18943 -0.0918897 -1.75044e-21)
(1.16552 0.0650693 -5.54908e-24)
(0.999875 -6.45418e-05 2.93443e-24)
(0.999528 -0.000607599 -3.27603e-23)
(1.06022 0.0923076 -2.50975e-21)
(0.999943 -1.7071e-05 -9.52878e-25)
(0.999896 -1.2238e-05 1.40876e-24)
(0.992184 0.134234 -1.91647e-20)
(1.04935 -0.0556772 -4.74645e-22)
(1.00367 -0.0649809 -1.3264e-21)
(0.983081 -0.041198 -1.7469e-21)
(0.977503 -0.00691234 6.96208e-22)
(1.00504 -0.0477103 1.46478e-22)
(0.935098 -0.0100618 1.1971e-21)
(0.999978 -1.73346e-05 -4.52239e-25)
(0.972248 -0.0484691 -6.65197e-22)
(1.1748 0.075078 -2.07101e-21)
(0.996796 -0.00138266 4.34056e-23)
(1.00007 -6.57785e-06 -2.7233e-24)
(1.12275 0.0875053 3.54912e-22)
(0.998821 -0.000380948 1.20725e-22)
(0.987811 -0.0134609 4.40881e-22)
(1.00274 -0.0448869 4.71006e-22)
(1.00002 -1.97025e-06 -9.24347e-26)
(1.00086 -0.00193645 -4.40138e-23)
(1.05005 0.0725977 7.66315e-21)
(1.15765 0.0943222 -3.87409e-21)
(1.00822 0.111167 -2.45071e-21)
(1.04652 -0.0986809 1.36319e-21)
(1.0173 -0.0765313 5.58189e-22)
(1.06904 -0.148712 -5.46435e-22)
(1.02581 -0.0022911 4.58443e-21)
(1.04528 0.0676031 -2.49817e-21)
(0.9998 -2.15706e-05 -1.03921e-23)
(1.00004 -1.98987e-05 9.62501e-25)
(0.937578 0.0160171 -1.62959e-20)
(0.992679 -0.013113 -1.60861e-22)
(0.999412 -0.000472749 -3.05463e-23)
(0.974362 -0.0479314 1.38876e-21)
(0.987573 -0.0121483 -3.23785e-22)
(1.02894 0.115056 -1.97237e-20)
(1.02331 0.111747 -4.1621e-21)
(0.980846 -0.0594316 5.05569e-22)
(0.862083 0.0740065 -1.4315e-20)
(0.998906 -0.000430364 -8.89257e-23)
(0.989641 -0.0025211 2.79907e-22)
(0.951598 -0.0135591 1.00736e-21)
(1.03683 -0.00220902 -9.33713e-22)
(0.990849 -0.119043 -2.27711e-22)
(1.18591 0.171021 -6.06589e-21)
(0.927812 0.0906385 -3.14248e-20)
(1.00006 -0.000105241 3.05212e-24)
(1.00964 -0.00757701 1.53865e-22)
(1.03455 0.0223535 8.44292e-21)
(0.996319 -0.00585508 -2.87617e-22)
(1.04002 0.0187135 -1.04953e-21)
(0.999495 -0.00124882 -7.93379e-24)
(0.882891 0.125918 2.49715e-20)
(1.01565 0.116116 4.08842e-21)
(0.994569 -0.00207465 2.70377e-22)
(1.00347 -0.00850921 -6.73768e-24)
(0.999705 -6.47381e-05 -5.08282e-23)
(1.23311 0.0925815 5.08127e-22)
(0.99991 -1.00435e-05 4.18334e-24)
(0.994854 -0.0106844 1.39278e-22)
(0.941564 -0.0264232 1.3811e-21)
(0.999931 -2.53505e-05 -9.4551e-25)
(0.998782 -0.0028611 -3.10456e-23)
(0.999604 -0.0012127 1.44023e-23)
(1.09772 0.046405 5.17314e-21)
(0.99998 -2.45917e-05 1.5359e-24)
(0.995561 -0.000497597 1.57226e-25)
(0.958127 -0.041391 3.83916e-21)
(0.830831 0.0392408 -8.39399e-21)
(1.08601 -0.0242922 -4.21392e-22)
(0.901368 0.0856256 1.91499e-20)
(0.999956 -7.67626e-06 -2.39448e-24)
(1.00036 -0.0453133 -2.93402e-23)
(0.999821 -0.000309977 -1.1574e-23)
(1.00809 0.129348 -1.85237e-20)
(1.00389 -0.000826504 -1.42744e-22)
(0.99423 0.041478 8.91041e-21)
(1.0026 -0.0101689 -9.85234e-23)
(1.00076 -0.00208553 4.65665e-23)
(1.02729 -0.0384516 -2.50496e-23)
(1.02582 -0.00126922 -4.2457e-21)
(1.00056 -0.000335211 2.29903e-23)
(0.999781 -5.33082e-05 2.70523e-25)
(1.0005 -0.000451325 5.14208e-23)
(0.996124 -0.00620789 -2.58442e-22)
(1.00942 -0.0689123 1.61946e-21)
(0.999958 -1.01593e-05 1.61766e-24)
(0.962826 -0.0279876 8.97419e-22)
(0.996377 -0.00110641 -1.10811e-23)
(0.999864 -4.49682e-05 5.70582e-24)
(0.999393 -0.000587547 9.90212e-24)
(0.987768 0.077936 2.15346e-20)
(0.992218 -0.000825131 1.10753e-22)
(0.999259 -0.000102836 -1.03387e-23)
(0.87226 0.0178102 3.20068e-20)
(0.998632 -0.00274765 -7.04388e-23)
(1.10733 0.132247 -5.0989e-21)
(0.9998 -0.000285942 2.08629e-23)
(1.00702 -0.0233045 -3.1873e-23)
(1.00002 -1.98782e-06 -8.32445e-26)
(0.981456 -0.034354 -6.85135e-22)
(1.03587 -0.00253822 1.46107e-21)
(1.19993 -0.0856652 3.68157e-21)
(0.978141 -0.0192428 1.21529e-21)
(0.999602 -0.000614367 3.78298e-23)
(0.974551 -0.0740836 8.69291e-22)
(0.983867 -0.00047095 5.01346e-22)
(0.999826 -1.89472e-05 5.45702e-25)
(1.00048 -0.000396046 -4.54923e-23)
(0.997983 -0.0035793 9.74051e-23)
(0.992581 -0.00148101 -3.32762e-22)
(1.00295 -0.000969082 -1.68783e-22)
(0.99881 -0.0019723 4.67927e-23)
(0.976117 -0.00877096 1.67838e-22)
(1.01401 -0.0677952 -1.16246e-21)
(0.976252 -0.00737444 7.40068e-22)
(1.13564 -0.0924499 -2.1858e-22)
(0.968708 -0.00805634 -9.30597e-22)
(1.03536 0.150455 2.01606e-21)
(1.02896 0.154917 -1.46994e-20)
(0.998532 -0.000784824 -7.74644e-23)
(1.21814 -0.110481 -7.51692e-21)
(0.999984 -3.1809e-06 -1.46636e-25)
(0.997925 -0.00442598 -1.19635e-22)
(0.974457 -0.00205237 1.88334e-21)
(1.00972 0.0333616 4.54943e-21)
(1.04874 0.00912729 -3.83629e-21)
(1.0001 -3.26004e-05 6.2395e-24)
(0.998061 -0.00417927 -7.91857e-24)
(0.969768 -0.00893633 7.016e-22)
(1.07348 0.0438571 -2.3205e-21)
(0.999033 -0.00122758 4.03871e-23)
(1.00339 -0.000781608 9.55106e-23)
(1.00122 -0.0010243 -8.38547e-24)
(1.16293 -0.0201531 -4.1633e-22)
(1.17305 -0.171387 -4.72999e-21)
(1.07157 0.183852 8.71546e-21)
(0.998444 -0.000256113 -7.52038e-23)
(1.05892 -0.0570129 8.01794e-22)
(0.999889 -6.89577e-05 -4.69151e-24)
(1.00471 -0.00756683 -3.19103e-22)
(0.999948 -1.39841e-05 -6.77728e-25)
(0.985133 -0.0209675 2.16868e-22)
(0.999664 -7.70459e-05 -9.72608e-24)
(1.0116 -0.0234424 6.89911e-23)
(1.2357 -0.137355 7.85356e-21)
(0.973322 -0.0269614 1.46229e-21)
(1.0083 -0.0228093 -1.4465e-23)
(1.00862 -0.00676838 -1.99257e-22)
(0.999288 -0.000134597 4.64633e-23)
(1.02712 -0.0209768 4.30126e-22)
(0.996195 -0.0192511 2.29201e-22)
(1.09508 -0.00536085 -1.0365e-21)
(1.08952 0.0451968 2.46449e-21)
(1.09368 -0.184726 7.70939e-23)
(1.12636 -0.110954 -2.4196e-21)
(0.983172 -0.000949683 -5.34939e-22)
(1.00508 -0.00379056 3.03773e-22)
(0.943699 -0.0251227 -5.35564e-22)
(0.903558 0.111402 -3.82599e-20)
(1.10939 -0.0990707 2.91057e-21)
(1.02876 -0.0135027 -1.80971e-21)
(0.874189 0.0804989 -1.93439e-20)
(0.998498 -0.000196194 3.72178e-23)
(0.998282 -0.000966746 -2.3862e-23)
(1.14955 -0.114568 -2.63459e-21)
(0.998955 -0.00213937 -2.50498e-23)
(1.00891 -0.0440214 1.40833e-22)
(1.00587 -0.00181795 1.06793e-22)
(0.997201 -0.000428372 -5.91141e-23)
(0.997953 -0.000357963 -9.33289e-23)
(1.04268 0.0286253 4.9232e-21)
(0.999934 -0.00015242 -3.78651e-25)
(1.00054 -0.00027627 -2.04534e-23)
(1.00008 -1.32146e-05 4.66429e-24)
(0.996562 -0.000670423 3.10994e-22)
(0.9937 -0.0093582 3.58094e-22)
(0.999984 -2.51644e-06 1.12177e-25)
(0.998922 -0.000254954 9.54347e-24)
(0.979015 -0.0169838 4.2607e-22)
(0.93569 0.0239121 1.02282e-20)
(1.01005 -0.024139 3.14956e-23)
(0.992759 -0.0123006 5.80957e-22)
(0.952154 0.0891422 4.31963e-21)
(1.00125 0.0290642 1.29082e-20)
(1.0777 -0.0132512 -9.1381e-22)
(1.2169 -0.0955388 2.57813e-21)
(0.946375 -0.00432643 1.71768e-21)
(1.00503 -0.00439367 -1.50045e-22)
(1.01304 0.0577312 -7.16294e-22)
(0.988762 -0.00222194 -6.6772e-22)
(1.07445 0.136637 1.55975e-22)
(1.00407 -0.0508725 2.23815e-23)
(1.01197 -0.114555 -9.88636e-22)
(1.14742 0.090498 2.55434e-21)
(1.08006 0.145482 -7.45204e-21)
(0.964339 -0.0242498 1.98254e-21)
(1.04939 0.00643708 -2.41592e-21)
(1.19843 0.178617 5.41184e-21)
(1.09719 0.135172 1.02167e-20)
(1.02679 -0.00310474 1.43357e-21)
(0.996996 -0.00149356 6.83193e-23)
(0.995823 -0.00230538 5.95109e-23)
(0.999914 -2.48612e-05 -2.21044e-24)
(1.01538 -0.0305812 1.97294e-23)
(0.988444 -0.00186206 1.57019e-22)
(1.00102 -0.00241875 -3.84667e-23)
(0.999896 -2.47364e-05 -4.15063e-24)
(0.998411 -0.000716796 3.02787e-23)
(0.972476 -0.0726148 -1.44265e-21)
(1.15089 0.00786625 5.66202e-22)
(0.982623 -0.00594459 -8.56645e-22)
(0.999089 -0.0127689 2.54635e-22)
(0.99621 -0.000741727 -1.67576e-22)
(1.05513 -0.058466 -6.61259e-23)
(0.992911 -0.00155347 -5.33171e-22)
(1.00239 -0.00761733 1.14685e-22)
(1.22193 0.155918 9.88873e-22)
(0.998171 -0.000341821 -2.16478e-22)
(0.999978 -4.7034e-05 -1.07099e-24)
(0.999946 -0.000184731 -5.95478e-25)
(1.00005 -0.000107585 3.95733e-24)
(0.978484 -0.00770859 3.91742e-22)
(1.04003 0.0261554 -5.79096e-21)
(0.995981 -0.000564374 6.65803e-24)
(1.02436 -0.0112985 1.1847e-21)
(0.995556 -0.125203 1.83921e-21)
(0.999574 0.114064 -4.4063e-22)
(1.00396 -0.00769845 1.04593e-22)
(1.00671 -0.00489856 -5.01359e-23)
(0.994909 -0.00258115 -2.15124e-22)
(0.993374 0.0762626 -2.10183e-20)
(0.998959 -0.000135608 3.09817e-23)
(1.07841 0.190717 -4.30769e-21)
(1.00967 0.0229842 -6.95165e-21)
(0.999886 -3.0399e-05 4.85588e-24)
(1.00194 -0.051425 -7.88375e-22)
(0.996681 -0.000776571 -1.53747e-22)
(0.986451 -0.0597043 2.31016e-21)
(1.00056 -0.000149246 2.05119e-23)
(1.07337 -0.00830352 1.33869e-21)
(1.00683 -0.0170878 -2.88146e-24)
(1.00628 -0.00446833 2.52392e-23)
(0.999161 -0.000164536 -6.16993e-23)
(1.10304 0.0405889 2.34303e-21)
(1.06673 0.0430348 8.69682e-22)
(1.00105 -0.0671068 1.28929e-21)
(0.979685 -0.0198462 -8.12425e-23)
(0.997868 -0.00382027 -8.39459e-23)
(0.997964 -0.0410167 -1.44382e-21)
(1.21551 -0.000390777 6.52258e-22)
(0.8384 0.0608347 -1.83937e-20)
(1.06518 -0.10113 -1.50136e-21)
(1.00521 -0.00820059 -4.69427e-23)
(0.999993 -3.2804e-06 -3.49881e-26)
(0.98671 -0.00490355 -6.90781e-22)
(0.997753 -0.000393251 2.01378e-22)
(1.02565 -0.0209574 6.22674e-22)
(0.989567 -0.101182 -7.61574e-22)
(1.20373 -0.120559 2.75036e-21)
(0.984524 0.107971 -2.57973e-20)
(1.07767 0.037974 3.66621e-21)
(1.07634 -0.14178 2.21821e-21)
(1.12597 0.0980931 1.19502e-21)
(0.999696 0.0327077 2.47411e-20)
(1.02043 -0.00282363 1.02712e-21)
(1.00122 -0.00234633 8.86657e-23)
(1.0398 0.0797335 3.95104e-21)
(0.99915 -0.00208656 5.57017e-23)
(0.99982 -0.000171405 4.59775e-24)
(0.981837 -0.00197125 2.38428e-22)
(1.00009 -3.23666e-05 1.16906e-24)
(1.07067 -0.159092 9.81711e-22)
(1.00354 -0.0186483 -6.96172e-23)
(0.983511 -0.0340138 1.16419e-21)
(1.00189 -0.00160803 4.60105e-23)
(1.11209 0.0853021 7.23232e-21)
(0.998251 -0.000325529 -1.78556e-23)
(0.999976 -3.76725e-05 -9.8876e-26)
(1.00522 -0.11623 1.05807e-21)
(1.00168 -0.00139569 -2.70011e-23)
(1.1214 -0.0413878 -2.16577e-22)
(0.955592 -0.0140397 3.61449e-22)
(0.936564 -0.0163902 1.72606e-22)
(1.27709 -0.074426 5.51274e-22)
(1.03116 0.0218089 -2.20008e-21)
(1.02469 0.00607954 1.36187e-21)
(1.02312 0.00588415 -5.3043e-22)
(0.999799 -4.38729e-05 1.62494e-24)
(1.16084 0.000852922 2.67359e-22)
(1.09767 -0.000659273 1.21069e-21)
(0.999487 -0.000660559 1.45116e-23)
(0.983388 -0.00647018 9.94927e-22)
(1.00061 -0.000211086 -2.28306e-23)
(1.01174 -0.0215978 -3.84455e-22)
(1.00749 -0.0300381 -5.81929e-23)
(1.00452 -0.00141877 6.47691e-25)
(0.999244 -0.00131417 -6.58882e-23)
(1.22195 0.0796044 -1.5104e-21)
(0.999979 -2.25342e-05 -1.77015e-24)
(1.0002 -0.000113255 -6.03173e-24)
(1.00198 -0.00109438 -2.02799e-24)
(0.977665 -0.00333316 6.56311e-22)
(1.01999 -0.0128333 8.14174e-22)
(0.9831 -0.0286893 -1.63174e-21)
(0.972535 -0.00511518 -3.81413e-22)
(1.00676 -0.065028 7.43329e-22)
(1.00651 -0.137072 -1.97107e-21)
(1.02593 -0.0352664 6.53153e-23)
(1.04605 0.0798276 -2.2183e-20)
(1.23812 -0.118788 -5.22621e-21)
(0.993434 -0.00262496 -2.77744e-23)
(0.876776 0.117414 2.99463e-20)
(0.973393 -0.053646 2.40034e-21)
(0.993376 -0.00991758 1.12047e-22)
(0.973241 -0.0042474 6.25972e-22)
(0.997372 -0.0186585 -6.52294e-23)
(0.97905 -0.00242924 1.00675e-21)
(0.989994 -0.00392911 -2.02399e-22)
(1.0288 -0.0155057 -1.21408e-21)
(1.11396 -0.10732 -7.25728e-22)
(0.999974 -4.38001e-05 -1.47675e-25)
(1.02455 -0.0146056 -1.43995e-22)
(0.999905 -3.01518e-05 -2.36212e-24)
(1.02271 0.129498 4.84328e-21)
(1.24376 0.030978 -1.12002e-21)
(0.995217 -0.0019729 6.83472e-23)
(0.985892 -0.00174529 -9.15588e-22)
(0.999816 -5.45065e-05 -1.18896e-23)
(0.999748 0.0645715 1.54027e-20)
(1.05845 0.146049 1.03493e-20)
(1.15786 -0.0122187 3.1806e-22)
(1.25829 0.123352 -2.53597e-22)
(0.973022 -0.0567852 -1.05169e-21)
(0.998421 0.00977947 -2.4125e-20)
(0.999938 -0.000135032 2.23321e-24)
(1.04851 -0.0361239 8.75996e-22)
(0.981472 -0.00150259 -3.66507e-23)
(1.15134 0.0664314 -1.10781e-21)
(0.915189 0.0818093 -2.32503e-20)
(1.21337 -0.0142903 -2.25748e-21)
(1.06757 0.0310806 5.95759e-22)
(0.99979 -0.01267 -4.49477e-23)
(0.999801 -8.50696e-05 -1.08681e-23)
(1.24915 0.091048 4.75433e-23)
(1.18492 -0.146732 1.10555e-21)
(0.996921 0.0806777 -4.3946e-22)
(1.11246 -0.0383358 9.46803e-23)
(1.04669 0.0618304 6.54168e-21)
(0.993044 -0.00234264 -9.52236e-23)
(0.993891 0.107838 6.92136e-21)
(1.06421 0.136921 3.52701e-21)
(0.991116 -0.0033303 -5.67771e-22)
(0.992578 -0.00311292 -2.11613e-22)
(1.25662 0.0596097 -1.50404e-22)
(0.934289 -0.0151489 -2.40399e-21)
(0.999917 -0.000156737 -3.47146e-24)
(0.98734 -0.00530597 8.89478e-22)
(0.939039 -0.0213779 1.7798e-21)
(0.981875 -0.0727601 -3.04582e-22)
(1.00991 -0.00255452 -8.7073e-22)
(1.00865 -0.00614701 5.33311e-23)
(0.999878 -0.00019562 -6.50843e-24)
(1.06288 0.155099 -1.55583e-20)
(1.00018 -0.0115495 7.24786e-24)
(0.999899 -5.9778e-05 2.09348e-24)
(1.01505 -0.062682 1.00063e-21)
(0.999513 -0.000435132 1.28944e-23)
(0.999781 -7.57524e-05 8.24766e-25)
(1.00514 -0.0125152 -5.1624e-23)
(1.09392 0.0903555 1.0596e-20)
(1.00219 -0.103767 1.44754e-21)
(0.940061 0.0832753 1.3518e-20)
(1.00006 -9.5188e-06 -3.25053e-24)
(1.10391 0.0938333 -1.08475e-20)
(1.0099 -0.0529998 6.9614e-22)
(0.999924 -0.000193193 -9.82214e-25)
(1.00002 -6.31066e-06 -9.84994e-25)
(1.00278 0.0119738 -1.13998e-21)
(1.08319 0.0764775 4.07965e-21)
(0.996115 -0.00243457 5.93491e-23)
(1.07156 0.0572366 -5.44809e-21)
(1.00003 -2.02124e-05 7.14016e-25)
(1.07351 0.0650976 -7.35909e-21)
(1.08385 -0.176492 2.88735e-21)
(0.990644 -0.00298224 6.24086e-22)
(0.999242 0.0155727 -3.23259e-20)
(0.974936 -0.0452241 1.60492e-21)
(1.2609 0.106153 -3.20355e-22)
(0.974447 -0.00424639 3.85205e-22)
(1.08147 0.067878 9.62572e-21)
(1.09213 0.0796628 -2.97379e-21)
(0.984182 -0.00800257 1.44262e-21)
(0.979379 -0.00967423 -1.05438e-21)
(0.995011 -0.00994992 3.37897e-22)
(0.997242 -0.000730765 -5.07232e-23)
(0.999805 -0.000190343 1.24817e-23)
(0.999963 -0.0110508 -1.33294e-23)
(1.07936 0.126356 -1.80201e-21)
(0.999973 -3.44367e-05 4.49044e-25)
(1.0643 0.0553938 7.19412e-21)
(1.01361 -0.107415 2.42158e-21)
(1.0121 0.084095 5.8845e-21)
(1.06232 0.0488719 -8.30783e-21)
(0.936731 -0.0199847 -2.20886e-22)
(0.948986 0.107067 -2.79706e-20)
(0.998469 -0.00115593 4.29515e-24)
(1.01539 -0.0281696 1.40998e-22)
(1.03849 -0.0883314 7.35408e-22)
(0.979939 -0.00229437 -6.25278e-23)
(0.993814 -0.003303 2.82529e-22)
(1.00708 -0.053777 -5.99619e-22)
(1.05856 -0.0292149 -8.47637e-23)
(0.888998 0.0734171 3.66898e-20)
(1.00004 -1.86495e-05 3.49381e-24)
(0.998191 -0.00123178 5.78919e-23)
(1.0092 -0.0771076 3.12717e-23)
(1.00001 -5.14842e-06 1.15834e-25)
(1.02442 0.138734 2.38452e-21)
(1.00171 -0.00121085 0)
(1.00001 -6.9609e-06 8.84347e-26)
(1.00019 -8.76691e-05 1.41791e-23)
(1.00039 -0.000123428 2.83851e-25)
(0.985484 -0.0196499 1.09646e-21)
(1.02338 -0.0194849 -4.41821e-22)
(0.998539 -0.000903191 9.13056e-23)
(0.999917 -1.73693e-05 4.38424e-24)
(0.993412 -0.00309078 1.56717e-22)
(1.00445 -0.0129984 -3.34442e-23)
(0.9794 -0.104272 -2.05941e-21)
(0.942052 -0.0068169 1.72894e-22)
(1.01934 -0.011429 1.4614e-21)
(0.999974 -2.68189e-06 1.39546e-24)
(1.04485 -0.165667 2.87788e-21)
(0.987555 -0.00370394 -3.56375e-22)
(1.2262 0.0606457 1.40255e-22)
(1.00039 0.0117501 -4.22737e-21)
(1.00124 -0.0035365 2.02844e-23)
(1.1964 0.0551488 -1.96018e-21)
(1.00015 -9.42169e-05 -2.38287e-27)
(0.98814 -0.00415872 1.02303e-23)
(1.02663 0.000536023 -2.6664e-21)
(0.993842 -0.00375972 -1.15688e-22)
(1.10172 0.111675 -6.57622e-22)
(0.988034 -0.00649042 -6.73049e-22)
(1.05089 -0.0337236 -8.4009e-22)
(1.02712 0.00113988 -2.88049e-21)
(1.08575 0.0384189 -1.45497e-21)
(1.00724 -0.0157171 -1.9853e-22)
(0.990498 -0.00424058 1.67987e-23)
(1.131 0.0776126 3.8043e-21)
(0.975033 -0.0781555 -1.74422e-21)
(1.0068 0.137704 2.02659e-20)
(0.991593 -0.00481633 -6.5951e-22)
(1.1161 0.152686 -2.77312e-22)
(0.991577 -0.00422152 1.76221e-22)
(0.998912 -0.00051846 -5.95818e-24)
(1.06572 0.0267485 1.75352e-21)
(1.01338 -0.0317275 2.26711e-23)
(1.04199 0.000116527 3.76476e-21)
(1.00177 -0.00083889 3.00933e-23)
(1.00001 -5.70101e-06 4.03548e-26)
(0.985576 -0.119472 7.48715e-22)
(1.21399 0.143877 -3.82176e-21)
(1.00148 -0.00343573 -2.85709e-23)
(1.21225 0.0493073 3.77303e-23)
(0.988692 -0.00606342 -4.41553e-22)
(1.03692 -0.166467 -1.1025e-21)
(1.04315 -0.0504921 -1.00403e-22)
(0.982642 -0.030448 9.19538e-22)
(0.998429 -0.00100697 -3.86271e-23)
(0.991838 -0.00106717 -1.33338e-22)
(0.971418 -0.066638 -1.00069e-21)
(0.97238 -0.00911647 1.43651e-21)
(0.991069 -0.00392944 4.64801e-22)
(0.999862 -0.00044398 5.5403e-24)
(0.996647 0.14616 -2.57136e-21)
(1.18447 0.0449797 1.00871e-21)
(1.02562 -0.0126316 -4.61974e-22)
(0.999812 -0.000148322 8.36806e-24)
(1.05923 0.128402 -6.96221e-21)
(1 -2.41139e-05 1.64598e-25)
(0.999827 -0.000132387 1.65691e-23)
(1.17013 0.0497834 1.44025e-21)
(1.00957 -0.0262054 6.01627e-23)
(1.22262 0.113814 2.4143e-21)
(1.02548 -0.00348852 1.07718e-21)
(1.01723 -0.013927 -9.0316e-23)
(1.07968 -0.093509 1.08505e-21)
(1.02275 -0.134098 2.42061e-21)
(1.26775 -0.0807651 2.37971e-21)
(1.00124 -0.000862193 -6.61748e-23)
(0.957257 -0.0153582 -1.38074e-22)
(0.999982 -5.76555e-05 -3.15682e-25)
(1.00487 -0.0113421 3.77821e-23)
(1.10665 0.103387 3.82658e-21)
(0.985024 -0.00751056 1.00888e-21)
(0.997389 -0.00146392 8.01678e-23)
(1.01199 -0.0431483 -4.29015e-22)
(0.99816 -0.00108675 5.5111e-24)
(0.999628 -0.00109214 1.70864e-23)
(0.880284 0.0170232 6.5679e-21)
(0.991087 -0.00517498 -3.7275e-22)
(0.999487 -0.000720494 -5.01747e-23)
(0.999984 -6.5471e-07 -2.90379e-25)
(1.01965 0.00760797 5.97746e-21)
(0.974097 -0.025276 -2.17564e-22)
(0.999694 -0.000544163 1.50534e-23)
(0.997398 -0.000851578 1.03371e-22)
(1.02875 0.0247364 2.45699e-21)
(1.08261 -0.000763909 3.51551e-22)
(0.964249 -0.0221416 -1.23369e-21)
(1 -1.52518e-05 4.20602e-26)
(1.00111 0.0109886 1.6662e-20)
(0.986782 -0.0171431 -7.43929e-22)
(1.10888 0.0752989 -7.25794e-21)
(1.01297 -0.00128948 -1.33244e-21)
(1.01513 -0.00136125 3.0501e-21)
(0.970788 -0.0113177 1.9531e-21)
(0.99991 -6.33501e-05 -1.37054e-24)
(1.02632 0.000237353 -5.46679e-22)
(1.08727 -0.00609903 -3.65061e-22)
(1.25388 -0.0435588 -3.38169e-21)
(1.02021 -0.105097 5.80725e-22)
(1.07292 0.118399 5.22388e-21)
(1.00556 -0.00170196 -2.14569e-23)
(1.14346 0.0795229 -5.1921e-21)
(0.999789 -0.014813 -7.60759e-23)
(1.01181 -0.0595804 -1.63797e-21)
(0.999635 -0.000163177 -1.62741e-23)
(1.00282 -0.0198324 1.36615e-22)
(0.999903 -0.000425347 2.09759e-24)
(1.06342 0.0363752 -5.37927e-21)
(1.15381 0.161633 -1.20082e-20)
(0.998615 -0.00118942 3.0694e-23)
(1.01879 -0.0142714 8.95744e-24)
(0.983691 -0.00450601 3.46671e-22)
(1.02722 -0.0953477 2.81929e-22)
(1.02102 -0.0982964 -1.22028e-21)
(0.998252 -0.000858572 6.07989e-23)
(1.04478 -0.0358262 -2.75345e-22)
(0.890881 0.00505191 -1.10772e-20)
(1.2286 -0.058047 -2.8733e-21)
(0.999949 -0.000164283 4.83152e-24)
(1.07583 -0.00225527 -1.21323e-21)
(0.997207 -0.00911389 -1.66536e-22)
(0.994845 0.0026017 2.30497e-20)
(0.988693 -0.005304 6.12916e-22)
(0.995253 -0.0268186 -2.15474e-22)
(1.01519 -0.0389555 -1.71214e-23)
(0.993852 -0.0276063 -2.91497e-23)
(0.998127 -0.0215839 -4.93872e-22)
(0.992976 -0.00334336 1.07866e-22)
(0.998923 -0.0146459 2.62907e-22)
(1.00189 -0.00642555 -3.15156e-23)
(1.05877 -0.0336709 2.22614e-22)
(1.0001 -2.40757e-05 -9.08898e-24)
(1.13019 -0.181351 -1.74847e-21)
(1.17353 -0.0834377 -1.14252e-21)
(1.0427 0.152595 1.31903e-20)
(0.966006 -0.0210285 1.87015e-21)
(1.20292 0.112739 -1.36559e-21)
(1.00188 -0.000651568 1.07487e-22)
(1.05308 -0.0929983 -2.61873e-24)
(1.00241 -0.0395192 -5.52917e-22)
(1.02699 0.0460759 7.35853e-21)
(0.993455 -0.00405553 2.68615e-22)
(1.0001 -0.000181961 5.99188e-24)
(0.987415 -0.0178775 9.71516e-22)
(0.995834 -0.00970536 -1.28249e-22)
(1.04239 -0.0324391 7.82639e-22)
(0.973838 -0.00700813 -1.21695e-21)
(0.978343 -0.00900865 3.48517e-22)
(1.12416 -0.0851744 -5.12399e-22)
(0.986219 -0.00295187 -6.03893e-22)
(1.01243 -0.040159 2.97442e-22)
(0.982686 -0.0769336 1.29493e-21)
(1.00001 -8.10007e-06 7.46154e-26)
(1.06321 -0.025932 1.43899e-21)
(0.985328 -0.0698496 -3.4491e-21)
(1.20234 0.0830477 9.08193e-22)
(1.07629 -0.0999479 -1.95992e-21)
(1.04003 -7.95758e-05 3.11789e-22)
(1.00862 -0.102563 -3.04057e-21)
(1.07955 0.1659 3.17735e-21)
(1.03237 -0.0421514 6.39641e-23)
(0.969564 -0.0104314 -1.15592e-21)
(1.01066 -0.0496077 -8.37216e-22)
(0.951812 0.00718572 1.03926e-20)
(1.1045 -0.158845 9.34456e-22)
(0.988073 -0.00492386 -1.86498e-22)
(1.0031 -0.123525 -2.26267e-22)
(1.01752 -0.0709637 1.18541e-21)
(1.01764 -0.11996 -3.55574e-22)
(1.02722 -0.0887092 -1.38201e-21)
(1.12631 0.0676441 5.07618e-21)
(0.997413 -0.00168325 5.27135e-24)
(1.01081 0.0537185 2.8121e-21)
(1.00756 -0.00166447 1.55839e-22)
(0.999633 -0.000550571 -2.15764e-23)
(0.998893 -0.00236632 1.53346e-22)
(1.06778 -0.00857388 -3.63803e-22)
(0.82868 0.00586657 3.22242e-22)
(1.00153 -0.00686266 1.47779e-23)
(1.01279 -0.0557292 2.32133e-22)
(1.02952 0.028684 -4.07079e-21)
(1.00003 -7.12772e-06 -1.72474e-25)
(0.980415 -0.00911765 8.42674e-22)
(1.0228 -0.0113716 1.04888e-21)
(1.0705 -0.0613356 -5.77866e-22)
(1.0077 -0.000828812 8.75185e-22)
(0.998512 -0.0021127 2.78595e-23)
(0.983055 -0.0385449 9.87265e-24)
(0.99787 -0.00877659 -5.09591e-23)
(1.00003 -5.82967e-06 1.89025e-24)
(0.976985 -0.0445465 -2.71409e-21)
(1.08538 0.105683 -1.80159e-21)
(1.01781 -0.0346593 1.24607e-22)
(0.984402 -0.00510906 -6.4674e-22)
(1.00171 -0.000446098 -3.85275e-23)
(1.03372 0.030334 5.34829e-21)
(0.999641 -0.000670989 -9.92807e-24)
(0.998837 -0.000679643 -3.10418e-24)
(0.999666 -0.000178269 -1.48479e-23)
(0.999309 -0.00223564 -3.86265e-23)
(1.24177 -0.0256171 -1.3007e-21)
(1.02569 -0.0406629 -2.25137e-22)
(1.00743 -0.0197973 4.08639e-23)
(0.983329 -0.00750767 -2.95929e-22)
(1.00004 -5.34308e-05 1.83728e-24)
(1.03889 -0.136208 3.41644e-21)
(1.20244 -0.137765 1.39867e-23)
(1.039 -0.145472 -1.61643e-21)
(0.995634 -0.034071 -4.06685e-22)
(1.01365 -0.0101414 9.76006e-22)
(0.999802 -0.00010423 6.86091e-24)
(0.989211 -0.0117644 -3.88101e-22)
(0.960043 -0.0439009 -1.51409e-21)
(1.22009 -0.0431754 4.93564e-22)
(1.00972 0.0812741 -2.08396e-22)
(0.998911 -0.00335312 3.12181e-23)
(0.948824 -0.0304237 8.24801e-22)
(0.995581 -0.00287876 -2.58165e-22)
(1.03098 -0.0387684 7.53226e-23)
(1.14363 0.0559612 2.79256e-22)
(1.00041 -0.000140277 -3.22392e-23)
(0.999852 -0.000226014 -2.55267e-24)
(1.25973 0.0727955 -1.89186e-22)
(1.1959 -0.0592501 8.02401e-22)
(1.01761 -0.0172876 3.38642e-22)
(0.997235 -0.0018336 1.36549e-22)
(0.998038 -0.000489692 -1.35153e-23)
(0.96619 -0.0451673 3.71425e-22)
(0.999836 -0.000371278 -8.41119e-24)
(1.01531 -0.0360341 -1.48791e-22)
(0.987476 -0.00145917 1.24328e-21)
(1.00051 0.0136376 -3.53097e-21)
(1.09367 0.113342 -9.64877e-22)
(1.05074 -0.085872 7.57797e-22)
(0.988807 -0.070922 1.26105e-21)
(1.00628 -0.00148512 4.31542e-22)
(1.01329 -0.0268628 -1.81104e-22)
(1.17161 -0.0679712 -2.14971e-21)
(0.987088 -0.0781267 -7.92676e-22)
(1.01385 -0.0485413 4.81716e-22)
(0.999999 -7.60882e-06 3.71963e-26)
(1.14605 -0.0723261 -1.94016e-21)
(0.975917 -0.0028759 1.15996e-22)
(0.984651 -0.0858584 1.55111e-21)
(1.01767 -0.0319176 -1.44433e-22)
(0.959214 -0.0146109 -2.54521e-22)
(0.999623 -0.00031341 -7.25136e-24)
(0.997195 -0.00137006 -6.09489e-23)
(1.05587 0.0473078 6.42838e-21)
(0.972257 -0.0106312 -4.39272e-22)
(0.999986 -2.30151e-06 3.11147e-25)
(0.997303 -0.00056908 -1.42731e-22)
(1.11262 -0.146873 -5.42009e-21)
(0.999845 -5.4647e-05 1.73869e-23)
(1.01613 -0.0545591 -1.79257e-22)
(0.999953 -0.000130373 -3.66799e-25)