/*--------------------------------*- C++ -*----------------------------------*\
  =========                 |
  \\      /  F ield         | OpenFOAM: The Open Source CFD Toolbox
   \\    /   O peration     | Website:  https://openfoam.org
    \\  /    A nd           | Version:  7
     \\/     M anipulation  |
\*---------------------------------------------------------------------------*/
FoamFile
{
    version     2.0;
    format      ascii;
    class       volVectorField;
    location    "21";
    object      U;
}
// * * * * * * * * * * * * * * * * * * * * * * * * * * * * * * * * * * * * * //

dimensions      [0 1 -1 0 0 0 0];

internalField   nonuniform List<vector> 
115545
(
(1.03703 -0.0516014 5.25083e-23)
(0.999995 5.1214e-07 -1.20582e-24)
(0.984249 -0.013194 4.44586e-22)
(0.996066 -0.00428228 -7.98558e-23)
(1.00197 -0.00470556 1.24378e-23)
(0.998946 -0.00157579 2.47747e-23)
(1.02628 0.137737 -1.51071e-20)
(1.06263 -0.0967297 3.95095e-22)
(0.999653 -0.000528801 -1.18813e-24)
(0.999995 4.7327e-07 2.52343e-25)
(0.999736 -2.91179e-05 8.3089e-24)
(1.00017 -0.000142525 4.69206e-24)
(0.998486 -0.00514751 -2.80371e-23)
(0.90296 -0.00682254 -1.63358e-21)
(0.999651 -0.000541952 1.10692e-23)
(0.915854 -0.0306373 -3.73232e-21)
(0.999853 -0.000409539 4.47195e-24)
(0.999577 -0.000291552 -1.34403e-23)
(0.989821 0.139537 1.89537e-20)
(1.00203 -0.00476299 6.05363e-23)
(1.06885 -0.0968742 3.49181e-21)
(0.993562 -0.000194334 -3.78454e-23)
(0.999504 -0.000387571 -1.31218e-23)
(0.993958 -0.00616204 -5.33741e-23)
(0.88292 0.0422255 1.87254e-20)
(1.12875 0.0247812 4.75769e-21)
(1.2564 0.00831023 5.0897e-22)
(1.02008 -0.00476579 1.57948e-21)
(0.999982 -5.61467e-05 6.80196e-25)
(1.05781 0.237851 -1.63662e-20)
(0.999862 -5.69016e-05 5.54441e-24)
(1.05543 0.0115497 1.38493e-21)
(1.00826 -0.0123862 -4.37505e-23)
(0.983692 -0.00692057 -4.13833e-22)
(0.868292 0.117134 8.52366e-21)
(0.997783 -0.0013302 1.53817e-22)
(1.03578 0.151429 2.57927e-21)
(0.999852 -0.000419029 -1.88564e-24)
(1.25679 -0.0914765 4.24887e-22)
(1.03059 0.0760835 2.38154e-20)
(1.05603 0.0121447 -2.69542e-21)
(0.999571 -0.000301865 -2.64756e-24)
(0.98034 -0.0245408 -8.31011e-22)
(0.99779 -0.00128878 -1.09374e-22)
(0.961407 -0.0683062 -1.42131e-22)
(0.903564 -0.00612982 1.70197e-21)
(1.00689 -0.0151837 2.4562e-22)
(1.00628 -0.0007604 1.41365e-22)
(1.00018 -0.0075596 -5.02199e-24)
(1.00015 -1.55967e-05 -2.24068e-23)
(1 -6.55362e-08 -1.4851e-25)
(0.996 -0.000181753 1.20978e-22)
(1.04123 0.0133383 4.53044e-21)
(0.999995 -2.79232e-07 -1.94705e-25)
(0.997945 -0.00896396 1.14605e-22)
(1.04081 0.0136912 -1.17679e-21)
(1.03306 0.000751542 3.24292e-21)
(0.954322 -0.0479973 -4.53553e-22)
(1.21842 0.019152 5.40809e-22)
(0.988091 -0.0162298 9.58516e-22)
(0.99992 -0.000233556 -1.79907e-24)
(0.993865 -0.00652003 4.60082e-23)
(0.999116 -5.15232e-05 -2.40114e-23)
(0.979139 -0.0115911 1.21277e-22)
(0.999937 -6.09973e-05 -4.61472e-24)
(1.00108 -9.09463e-05 -6.94239e-24)
(0.998737 -0.00471135 1.16805e-22)
(1.04296 -0.00404293 2.7271e-21)
(1.27179 0.0203072 -1.42231e-21)
(1.03366 0.000334703 1.33375e-21)
(1.09415 0.132883 6.17616e-21)
(1.22912 0.0607676 -2.0603e-21)
(1.03061 0.0748902 1.05506e-20)
(0.948617 -0.00450704 -3.112e-22)
(1.02607 -0.0659993 -3.06532e-22)
(0.966669 -0.0112967 -1.67016e-22)
(1.16166 -0.0246036 -2.59301e-22)
(0.999181 -0.00274328 -4.368e-23)
(0.998309 0.0904077 -6.14675e-21)
(1.12398 -0.0058495 7.45266e-23)
(1.12467 -0.0041752 7.09564e-22)
(0.999968 -1.14541e-06 1.58893e-25)
(0.977603 -0.150762 2.22455e-21)
(1.01922 -0.00110273 -7.09461e-22)
(0.99602 -0.00114739 7.44942e-23)
(1.00016 -0.000138119 4.67324e-24)
(0.979014 -0.0182962 -5.59797e-22)
(0.999993 -1.60584e-05 -7.91313e-26)
(0.963254 -0.0120112 -5.17884e-24)
(0.999991 -3.0349e-05 1.44875e-25)
(1.24165 -0.0552447 3.0371e-22)
(0.987149 -0.00687875 2.57496e-22)
(0.99998 -5.60379e-05 -9.36315e-25)
(0.998335 -0.00117769 1.1423e-22)
(0.999473 -0.000366101 -2.23822e-23)
(1.00037 -5.8036e-05 8.11203e-24)
(0.999579 -2.02071e-05 -4.32226e-24)
(0.978415 -0.149669 1.06802e-22)
(1.17985 -0.0825406 3.57188e-22)
(0.96344 -0.0116637 -2.64394e-22)
(0.999918 -0.000238692 1.94418e-24)
(1.02467 -0.0081864 -1.62768e-21)
(1.00299 -0.0138452 -3.21972e-23)
(1.0029 -0.000193556 -5.93137e-25)
(1.09217 0.131078 4.15336e-21)
(1.01607 -0.0985068 1.59299e-21)
(1.01697 0.0801025 -7.06135e-21)
(0.976504 -0.0932108 1.53624e-21)
(0.99412 -0.0328079 1.48839e-22)
(0.999981 -6.79603e-05 -5.59579e-26)
(1.1425 0.00262196 -1.47178e-21)
(0.999584 -2.65298e-05 1.71292e-24)
(1.16272 -0.0228782 1.69478e-22)
(0.995566 -0.0232019 -6.5451e-22)
(0.710167 0.103375 -3.93997e-21)
(0.999771 -0.0136138 -2.68319e-22)
(0.999732 -2.46268e-05 -1.54022e-23)
(1.11199 0.127215 -7.45859e-21)
(1.00001 -1.47999e-05 4.80001e-25)
(1.2289 0.058592 1.52121e-21)
(1.11236 0.130088 1.06105e-20)
(0.914983 -0.0312948 1.53662e-21)
(0.98478 -0.0138933 3.83878e-22)
(1.19161 0.00612348 4.74352e-22)
(0.999994 -1.28507e-06 -2.30469e-25)
(1.05707 0.234978 1.88493e-20)
(0.993904 -0.00669375 -4.91044e-23)
(0.863238 0.257567 -1.10685e-20)
(0.997947 -0.000120168 2.22265e-24)
(1.02994 -0.000696031 -2.069e-21)
(1.05369 -0.0608016 3.12955e-23)
(1.00025 -3.62867e-05 6.9516e-24)
(1.14898 0.129939 -4.13125e-21)
(1.00016 -0.000130553 -1.41645e-23)
(1.00001 -1.24636e-05 2.38875e-25)
(0.992897 0.162344 3.01208e-20)
(0.900055 0.11149 -5.09136e-21)
(1.00824 -0.0126176 -5.13192e-23)
(0.998079 -0.00902951 -1.62215e-22)
(0.993932 -0.00643962 4.55782e-22)
(1.24863 0.185007 2.83711e-21)
(1.00012 -0.0129791 -9.32063e-23)
(1.00005 -4.63561e-06 -8.62701e-24)
(1.0502 0.0186961 5.86424e-22)
(1.05417 -0.0592584 -1.73346e-22)
(1 -1.51382e-07 1.47311e-25)
(1.01331 -0.0175006 -5.47335e-25)
(0.993818 -0.00678346 -1.47153e-22)
(1.04261 -0.00367628 -4.21499e-21)
(1.00096 -0.00232194 -4.83108e-23)
(1.01472 -0.0977409 -1.2045e-21)
(0.960692 -0.0683811 1.01319e-21)
(0.987226 -0.00670826 1.64942e-22)
(0.999994 -9.59201e-07 1.07219e-25)
(0.996057 -0.000171472 7.03811e-23)
(1.00929 -0.00990147 3.41213e-22)
(0.99998 -6.98163e-05 1.63516e-26)
(1.12045 -0.0282444 1.28719e-21)
(0.968348 -0.000811995 -1.68482e-23)
(1.02208 -0.135259 -9.45248e-22)
(0.967063 -0.0115941 9.08717e-22)
(1.01315 -0.0172218 3.57323e-22)
(0.999132 -4.78647e-05 -1.76687e-23)
(1.00137 -0.072458 1.39811e-22)
(0.992806 -0.0198094 -3.15541e-22)
(0.998949 -0.000621303 -7.24143e-23)
(1.03232 -0.0147377 8.16818e-22)
(0.988133 -0.0396492 -7.80307e-23)
(1.12221 -0.0286008 -1.73125e-21)
(0.99178 -0.0198345 3.86026e-22)
(0.989304 -0.0173336 6.91943e-22)
(1.00691 -0.0149223 -1.37708e-22)
(1.25029 -0.0581224 1.9524e-21)
(0.907344 -0.0247953 -2.66899e-21)
(0.999341 -0.062202 8.82372e-23)
(1.03651 -0.00373835 -9.60992e-23)
(0.907452 -0.0233389 5.91085e-22)
(0.997513 -0.00310433 9.02918e-23)
(1.00981 -0.0178718 6.32482e-22)
(1.00014 -0.00743663 -1.29707e-23)
(1.01582 -0.0118777 1.10053e-22)
(1.02678 -0.0654092 -3.90151e-22)
(0.979052 0.147854 -8.44223e-21)
(1.04521 0.0182383 2.61425e-21)
(1.01572 0.0796583 1.66767e-20)
(0.999576 -0.000972722 -1.49739e-24)
(0.995536 -0.00361081 9.74474e-23)
(1.00005 0.000844699 -3.06023e-21)
(1.03352 -0.0261527 1.57136e-21)
(1.24043 -0.0564766 -1.5737e-21)
(0.997593 -0.00310419 2.79384e-23)
(1.00022 -0.0123256 6.52388e-23)
(0.989842 0.0743141 -1.28027e-20)
(0.973616 -0.0241736 1.66026e-21)
(1.12702 0.0249709 -6.35372e-21)
(1.00113 -0.120181 -1.09775e-21)
(0.906655 -0.0227457 -1.78635e-22)
(0.988096 -0.000310762 -4.44389e-22)
(0.969756 -0.0197618 -1.2125e-21)
(1.00811 -0.0447507 -3.21315e-22)
(1.03417 0.0187104 3.53814e-21)
(1.00658 0.105431 1.01201e-20)
(1.01814 -0.0116299 3.1834e-22)
(0.999991 -2.55342e-05 -5.5632e-25)
(0.995688 -0.00309473 8.18414e-24)
(0.961662 -0.0222742 -6.40157e-22)
(0.999224 -0.00107487 -3.65029e-23)
(0.999938 -6.10095e-05 3.55908e-24)
(1.03333 -0.00785322 -5.09094e-22)
(1.02359 -0.0774701 2.60033e-21)
(0.906734 -0.0213311 1.47782e-21)
(1.01862 0.0790919 -4.3232e-21)
(0.887574 0.0445124 -1.38768e-20)
(0.999991 -3.0519e-05 1.50533e-26)
(1.00024 -0.0338279 -7.25343e-22)
(0.973367 -0.0245137 -8.23953e-22)
(1.08729 -0.0272232 1.04908e-21)
(1.00735 -0.0145366 3.34866e-22)
(0.903115 -0.00471257 9.91403e-22)
(0.999836 -0.000270705 1.21611e-24)
(0.975975 -0.0484664 -4.14386e-23)
(0.977334 -0.0230091 5.24169e-23)
(1.00003 -0.00953413 1.0931e-23)
(0.96704 -0.00104687 5.23743e-22)
(0.999995 -3.11743e-07 2.78924e-25)
(0.939311 0.14609 1.30944e-20)
(1.0062 -0.0220628 -3.38223e-23)
(0.968167 -0.0173052 -1.24195e-21)
(1.00151 -0.118555 -6.12107e-22)
(0.948337 0.0664438 7.33867e-21)
(1.02245 -0.00573168 -1.61571e-22)
(0.964553 -0.0527285 1.73029e-22)
(1.23347 0.187499 -2.70288e-21)
(0.981848 -0.038279 -7.42748e-22)
(1.05718 -0.0628588 1.55854e-22)
(1.03379 0.0189752 5.34947e-21)
(1.00043 -4.28442e-05 8.707e-24)
(1.00101 -0.0111804 -1.35124e-23)
(0.984374 -0.0415733 2.702e-22)
(0.995913 -0.000267645 -1.57341e-22)
(1.22084 -0.0528805 2.81935e-21)
(1.02334 -0.0471422 1.33343e-23)
(1.02324 -0.136657 1.24217e-21)
(1.18105 -0.0845255 -1.7963e-21)
(0.997877 -0.000104064 -1.07828e-22)
(1.00096 -0.00269245 -4.60343e-24)
(1.05034 0.00300641 3.52014e-21)
(0.964526 -0.0027602 -1.06579e-21)
(0.98865 -0.0397185 -2.40851e-23)
(0.927035 -0.0517832 -8.0621e-22)
(0.998503 0.0254697 -7.01037e-21)
(0.998497 -0.00162262 -8.50138e-24)
(1.02876 0.00196598 -1.62153e-20)
(1.00006 -0.00317036 -1.7378e-24)
(0.855591 0.241207 -2.01595e-20)
(1.01612 -0.0117263 -6.60284e-22)
(1.18012 -0.0229356 5.25589e-23)
(1.02009 -0.00111356 6.66797e-22)
(1.00028 -6.29686e-06 4.62696e-23)
(1.06353 -0.0985372 7.06552e-23)
(1.01625 -0.0113449 -1.58924e-21)
(0.903742 -0.00400279 -6.07985e-22)
(1.04581 0.0190474 -3.69755e-21)
(1.25538 -0.104771 -1.00674e-21)
(0.993826 -0.0331331 1.18288e-22)
(0.996157 -0.00431572 2.76321e-22)
(1.18931 0.00600187 1.05315e-21)
(0.997967 -0.000277722 1.17007e-22)
(1.1583 -0.0102205 -5.49367e-22)
(1.16404 -0.0355812 -2.45918e-23)
(0.999945 -3.28235e-05 -7.37719e-26)
(1.0337 -0.0255661 -3.90023e-22)
(1.00025 -0.0072848 -1.57282e-23)
(1.02387 -0.0476222 1.21522e-22)
(0.998646 -0.00394112 -1.06973e-22)
(0.97794 -0.0185003 -2.75847e-22)
(0.962204 -0.064092 1.01422e-21)
(1.0002 -0.0620288 6.14233e-23)
(0.997878 -0.0119614 1.94354e-22)
(0.977614 -0.0930722 -1.28851e-21)
(1.00202 -0.0729377 -3.27193e-22)
(0.99791 -9.1233e-05 -8.09772e-23)
(1.00004 -0.00179604 1.76129e-24)
(0.962023 -0.0218595 3.49135e-22)
(1.00002 -0.000849324 3.99275e-24)
(1.01268 -0.00882085 9.90095e-22)
(0.9421 0.143632 7.50529e-21)
(1.03052 0.000805367 -8.033e-21)
(0.981926 -0.155447 -1.307e-21)
(1.25155 -0.0898311 3.98923e-22)
(0.961476 -0.0638051 2.25263e-22)
(0.999993 -2.13216e-05 -3.77203e-25)
(1.21774 0.00897421 2.66618e-22)
(1.01855 0.077849 -4.16716e-21)
(0.999883 -0.000526088 1.27323e-24)
(1.01968 -0.0112343 -9.09297e-22)
(0.998451 -0.00182976 -7.18992e-23)
(1.05847 0.0103473 2.10027e-21)
(1.0002 -0.00491935 2.57499e-25)
(1.16682 -0.0352902 -1.06044e-22)
(0.905466 -0.0173599 -7.90906e-22)
(0.992467 -0.0569477 2.9356e-22)
(1.26509 -0.029813 -7.14826e-22)
(0.993222 -0.00896259 -2.76643e-22)
(0.976059 -0.0603162 -1.69606e-22)
(1.10806 -0.00504741 7.58031e-22)
(1.02986 -0.0573043 4.49198e-23)
(0.968343 -0.0170309 8.38273e-22)
(1.2214 -0.1715 -4.22086e-21)
(1.00994 -0.0176562 -6.0512e-24)
(0.996891 -0.00208686 -8.60094e-23)
(1.14511 0.164825 7.98337e-21)
(1.18873 0.178103 4.88592e-21)
(0.984896 -0.0416207 -7.58844e-22)
(0.998371 -0.00518599 1.42202e-22)
(1.00302 -0.0133497 1.47187e-23)
(0.988167 0.0797072 -2.02187e-20)
(1.00092 -0.00272698 3.40892e-23)
(0.994113 -0.00619092 2.35283e-22)
(1.21647 0.000358143 -6.07196e-23)
(1.08931 -0.0451707 1.28553e-22)
(0.99984 -0.000277512 -9.37236e-24)
(1.01786 -0.0118263 -2.48163e-22)
(0.715508 0.0981825 6.97316e-21)
(1.11367 0.00428316 -3.44486e-21)
(0.967973 -0.00675637 -1.31445e-21)
(1.00951 -0.00983038 -4.97277e-22)
(1.05383 0.00744189 2.59083e-21)
(0.904652 -0.0166755 1.53362e-21)
(1.21859 0.0107143 -4.40495e-22)
(0.996907 -0.00216889 6.10442e-23)
(0.999993 -2.22798e-05 6.91676e-25)
(0.999602 -0.00103091 2.28106e-23)
(0.998475 -0.00180273 1.12611e-22)
(0.763822 0.0293857 4.55101e-21)
(0.99642 -0.00506127 -1.97158e-22)
(1.12631 -0.0213335 8.61788e-22)
(0.99995 -3.17291e-05 3.12053e-25)
(0.998927 -0.00154713 -3.33395e-24)
(0.995506 -0.00353619 -1.21352e-22)
(0.986139 -0.0143809 -3.62958e-22)
(1.07948 -0.000787292 -6.90349e-21)
(1.25809 0.00729383 -2.18255e-22)
(0.979653 -0.010844 1.17849e-21)
(0.990615 -0.0111183 1.4542e-22)
(1.00193 -0.0035276 -1.98179e-23)
(0.997781 -0.0121081 -1.19265e-22)
(0.837812 0.253451 -3.56295e-22)
(0.964811 -0.0312601 2.16414e-21)
(0.99845 -0.0116048 5.15849e-23)
(1.14616 0.129435 2.1184e-21)
(1.02491 0.0296473 -4.88594e-21)
(1.01607 -0.0110683 1.43849e-21)
(0.997002 -0.00338694 1.62825e-22)
(1.00752 -0.0450026 -4.39089e-23)
(1.00682 -0.0254219 -1.32987e-24)
(1.0363 -0.0506776 -9.62106e-23)
(1 -1.33236e-06 4.62904e-27)
(0.999279 -0.00172896 7.56011e-23)
(1.04085 -0.0379664 -4.21506e-22)
(1.10576 0.0579109 5.89681e-21)
(0.976079 -0.068841 3.50811e-22)
(1.0328 0.150326 4.81433e-21)
(0.754644 0.0587518 -5.18837e-21)
(1.14688 -0.0327587 -3.84408e-22)
(1 -1.20023e-06 3.53024e-26)
(0.984197 -0.000404571 -7.12673e-22)
(0.982867 -0.025859 4.54107e-22)
(1.00018 -0.00947172 4.0979e-23)
(1 -2.05099e-06 -5.96846e-26)
(1.11143 -0.114883 -1.19105e-21)
(1.27356 0.10111 -8.86555e-22)
(0.964992 -0.00271726 -1.05829e-21)
(0.999376 -3.30516e-05 -2.44686e-23)
(1.15977 -0.00193612 -8.9185e-22)
(1.00463 -0.0063794 3.84828e-23)
(1.00287 -0.0135656 -2.04404e-23)
(1.00015 -1.13847e-05 1.98969e-23)
(0.998565 -0.00175533 -6.29873e-23)
(1.0442 -0.0379511 -8.83018e-23)
(0.964021 -0.0523387 1.28067e-21)
(0.995873 -0.0333117 -2.48509e-22)
(0.994741 -0.0225343 -9.76342e-22)
(1.04128 -0.0386403 -4.77018e-22)
(1.01268 -0.00860414 -5.1732e-22)
(0.999895 -7.82431e-06 -7.6913e-24)
(1.23068 0.183859 5.55495e-21)
(0.922837 -0.0478046 1.76939e-22)
(1.00201 -0.00454405 -6.55582e-23)
(1.0486 -0.0853213 -3.82935e-22)
(1.05271 0.0100028 -9.51263e-21)
(1.03 0.0599658 -1.23935e-20)
(0.978649 -0.018245 4.17229e-22)
(1.02022 -0.00508484 8.45493e-22)
(0.97765 -0.022957 5.84807e-23)
(0.997958 -0.00232904 -1.59084e-22)
(1.21827 -0.172191 2.60287e-21)
(1.00064 -0.00127948 4.84511e-23)
(1.00022 -0.007171 3.18363e-23)
(0.978909 -0.0133098 1.28152e-21)
(0.967309 -0.0242877 5.62722e-22)
(0.99791 -0.00250997 1.7789e-22)
(1.10971 0.252792 -4.20775e-21)
(1.033 0.0724145 9.436e-22)
(1.23857 -0.133761 1.15909e-21)
(1.1083 -0.0608678 2.71828e-22)
(1.00001 -1.33016e-05 -4.68003e-25)
(0.994687 -0.0128616 9.25948e-23)
(1.08388 -0.0307403 3.9691e-22)
(0.992206 -0.000306227 1.04938e-22)
(0.996734 -0.0261239 -4.67034e-22)
(0.996833 -0.00206572 2.1542e-23)
(1.00203 -0.00351663 -5.85272e-23)
(0.996317 -0.00442179 -1.91204e-22)
(0.995975 -0.0011052 -5.83108e-23)
(0.997848 -0.0117522 -6.39092e-23)
(1.00033 -0.00702228 -1.17589e-23)
(1.10166 -0.173163 4.89594e-22)
(1.00003 -2.3621e-05 4.51006e-24)
(1.0123 -0.00812163 -8.83128e-23)
(0.999993 1.13788e-07 -3.5514e-26)
(0.905963 -0.0207236 -2.02316e-21)
(1.00024 -0.000228579 1.18227e-23)
(1.03817 0.186924 1.11606e-20)
(1.185 0.176711 -2.57586e-21)
(1.04643 0.0442928 -4.30212e-21)
(1.1067 -0.0600005 -2.00186e-22)
(1.04036 0.0509418 -4.32332e-22)
(1.03321 0.000698811 4.57274e-21)
(0.99813 -0.0040751 2.15634e-23)
(1.00187 -0.00183135 -7.27176e-23)
(0.999768 -0.000734757 1.94505e-25)
(0.994867 -0.00264049 1.36097e-22)
(0.968915 -0.0171643 4.96636e-22)
(0.993315 -0.0088072 -1.12043e-22)
(0.994472 -0.0129234 2.48494e-22)
(1.03855 -0.0495765 4.62488e-23)
(1.00024 -0.000221796 -1.44574e-23)
(0.999834 -9.86144e-05 -2.21321e-24)
(1.00014 -0.000127857 -1.05034e-23)
(0.999138 -0.00269777 4.64472e-23)
(1.0302 -0.000821626 1.95782e-21)
(1.03476 -0.0491053 -3.1329e-23)
(0.978624 -0.0131697 -1.36787e-21)
(1.00002 -0.000827352 -8.17377e-24)
(1.12137 -0.10731 2.43508e-21)
(1.00093 -0.00260205 1.0675e-22)
(0.999853 -9.73115e-05 -8.72988e-24)
(1.03039 0.0587267 1.76678e-20)
(1.03668 -0.00402817 3.57792e-22)
(1.00238 0.0477416 3.00176e-20)
(1.00004 -3.24811e-05 -4.2442e-24)
(1.00006 -0.000624526 0)
(1.00196 -0.00199161 1.08728e-22)
(0.988918 -0.040469 3.65623e-22)
(0.994533 -0.00743645 -1.20654e-22)
(1.05798 -0.122664 -9.01051e-22)
(0.964836 -0.00120291 7.06213e-22)
(1.08681 0.0377963 7.49936e-21)
(0.990756 -0.000234383 9.4678e-22)
(1.11337 0.250693 -2.19688e-21)
(1.00096 -0.00256345 -7.77609e-23)
(1.00196 -0.00448045 7.67801e-23)
(1.00303 0.0723844 -7.99077e-21)
(1.14573 0.161844 -3.34142e-21)
(1.06976 -0.0984889 -2.11881e-21)
(1.00287 -0.0025013 1.94958e-23)
(0.908149 -0.0253679 2.92034e-21)
(0.990665 -0.000295114 -5.43444e-22)
(1.00004 -3.47095e-05 1.8194e-24)
(1.01231 -0.00836287 1.04231e-22)
(0.924185 -0.0491594 -4.46868e-22)
(0.984012 -0.0409822 -6.19762e-23)
(0.948119 -0.00451874 5.47994e-22)
(1.03901 -0.0506009 7.27827e-23)
(1.11215 0.0036291 5.65087e-21)
(0.999993 6.52146e-07 -3.2547e-26)
(1.00295 -0.00245335 -3.88167e-23)
(1.02452 -0.00853215 1.16376e-21)
(1.04804 -0.0223389 -1.42643e-21)
(1.02908 0.210258 -5.67918e-21)
(1 -5.30939e-07 1.64617e-28)
(0.99995 -3.3152e-05 1.07934e-25)
(1.00194 -0.000174164 -1.89407e-22)
(0.984082 -0.0404253 -7.488e-22)
(0.999308 -0.00106103 3.11323e-23)
(0.999879 -0.000570932 3.6568e-24)
(1.12718 -0.0289349 -8.66353e-22)
(0.839711 0.0288153 -1.86508e-20)
(1.16785 -0.0330555 2.34546e-23)
(1.00465 0.0581362 -7.5669e-21)
(0.977482 -0.00419005 3.04589e-22)
(0.997703 0.0238197 4.5202e-21)
(1.03072 0.012488 5.51488e-21)
(0.996378 -0.00447215 7.55705e-23)
(1.10893 -0.116047 1.67271e-21)
(0.922548 -0.0293209 2.51042e-21)
(0.995892 -0.0229447 4.66274e-22)
(1.00095 -0.0110278 1.12586e-23)
(0.9965 -0.00819566 1.49254e-22)
(0.998404 -0.00115906 3.45622e-23)
(0.999118 0.068999 -3.55734e-20)
(0.982459 -0.0379839 -1.09504e-21)
(1.05938 0.176957 5.47635e-21)
(1.03071 -0.05779 2.73253e-22)
(1.04661 0.0432219 2.39546e-21)
(0.978481 -0.0110212 5.17654e-22)
(0.986419 -0.014457 -9.45599e-22)
(1.22336 -0.0528882 2.16551e-22)
(1.03133 0.019115 5.78876e-21)
(0.997083 -0.00340264 -1.83385e-22)
(1.00005 -0.00307706 -8.86897e-25)
(1.00001 -0.00319692 7.24358e-24)
(0.999995 1.0465e-07 -1.84338e-24)
(1.03268 -0.0497556 1.73283e-22)
(0.966385 -0.0770667 -1.32699e-21)
(1.00024 -0.000538343 -1.77082e-23)
(1.07739 -0.0329456 -8.44665e-23)
(0.999662 -0.000858108 3.76287e-24)
(0.999659 -0.000876184 -2.3637e-23)
(1.00227 -0.000290876 -1.48979e-23)
(1.03176 -0.05701 -1.54786e-22)
(1.00073 -6.35645e-05 -3.37996e-23)
(1.0015 -0.00889595 -2.98071e-25)
(0.974191 -0.00486791 6.60121e-22)
(0.995666 -0.00642429 9.85423e-23)
(0.994878 -0.00272633 -4.74183e-22)
(0.98862 0.105936 -4.81544e-20)
(1.13545 -0.0682015 -1.95657e-21)
(1.0111 -0.0158649 4.31892e-22)
(0.989234 -0.0176675 5.21595e-22)
(0.969082 -0.0474641 -1.67581e-22)
(1.00029 -0.00691719 4.62371e-24)
(1.00002 -3.04191e-05 -1.3868e-24)
(0.999999 -2.00209e-06 -1.69598e-26)
(0.954026 -0.00936544 1.06322e-22)
(0.922923 -0.028648 -2.56094e-21)
(0.968263 -0.0330107 -3.89295e-23)
(1.00002 -2.92738e-05 -3.86994e-24)
(0.983674 -0.00714559 7.80763e-22)
(1.07848 -0.0002424 6.42305e-21)
(1.27296 0.0190438 1.73548e-21)
(1.14637 -0.0347972 -2.63959e-22)
(0.999969 -1.52107e-06 -1.54912e-24)
(0.969107 -0.016897 1.65489e-21)
(1.00741 -0.042685 5.36534e-22)
(1.0001 -1.19728e-05 -1.10905e-24)
(0.999918 -0.00028103 8.96929e-25)
(0.965038 -0.000897482 -1.29635e-22)
(1.00189 -0.000171374 -6.23192e-23)
(1.0007 -0.00578446 -7.32095e-24)
(1.03396 -0.113735 -4.00023e-22)
(1.00044 -4.39207e-05 -2.60333e-23)
(0.946085 -0.0637059 1.88616e-21)
(0.974042 -0.00508129 -6.68043e-22)
(0.977566 -0.00436786 5.43396e-22)
(0.979946 -0.0109905 1.92355e-22)
(1.0017 -0.008932 -2.58366e-23)
(0.957573 -0.0347466 1.98947e-21)
(1.00029 -0.00050407 2.23396e-23)
(1.00001 -1.13438e-05 -1.95887e-25)
(1.0055 -0.00555138 1.30693e-22)
(1.11879 0.177541 -3.7466e-21)
(0.951656 0.0627704 3.63492e-20)
(1.01462 0.0535207 6.31369e-21)
(1.03439 -0.0497787 2.05885e-23)
(0.98841 -0.0150394 -1.87608e-22)
(1.01282 0.0632546 3.3927e-20)
(1.01519 -0.00998259 -2.0078e-21)
(1.00025 -0.000451008 -1.54468e-23)
(1.027 -0.00139858 -1.51758e-21)
(0.984584 -0.0141275 2.13601e-22)
(1.16005 -0.0112772 -8.03292e-22)
(0.996539 -0.00807238 1.87009e-22)
(1.03261 -0.000742354 -4.88394e-21)
(1.00108 -0.000117403 6.23582e-23)
(1.0151 0.0524429 4.27318e-21)
(1.00057 -5.46199e-05 -4.076e-23)
(0.994453 -0.00800379 6.67417e-23)
(0.978761 -0.0111104 -1.41635e-22)
(1.02088 0.0757631 4.33924e-21)
(1.00027 -1.11201e-05 -4.11817e-23)
(0.985132 -0.0424506 1.00534e-21)
(1.05743 -0.120954 1.70529e-21)
(1.08881 0.0378099 -5.91378e-21)
(0.996771 -0.0502626 -6.88082e-22)
(0.994355 -0.00736641 1.72366e-22)
(1.17762 -0.0720737 6.85076e-22)
(1.00006 -1.94045e-06 -3.40331e-24)
(1.23796 -0.131273 -4.80371e-22)
(0.99546 -0.00655829 1.05643e-22)
(1.02001 -0.0113298 -1.4355e-21)
(0.989393 -0.0405161 3.41462e-22)
(1.00296 -0.000238926 -2.31044e-22)
(1.26996 0.0990958 -2.93267e-21)
(1.03288 0.0737725 -9.65997e-21)
(0.941942 0.11492 1.67729e-20)
(1.03935 0.0505127 1.29109e-21)
(1.11072 0.0928545 4.23857e-21)
(1.16288 -0.0381754 2.3037e-22)
(1.25306 0.18464 -5.83072e-23)
(1.01543 -0.0098829 2.22978e-21)
(1.0698 0.102306 5.14035e-21)
(1.00262 0.0427918 -2.32736e-20)
(1.00061 -0.0058406 -3.15328e-24)
(0.998539 -0.00374508 -5.65103e-23)
(0.960706 0.0560593 -3.92464e-20)
(1.00002 -2.02991e-05 -8.26739e-25)
(1.25494 -0.102189 1.22798e-21)
(1.27487 0.0274235 4.7616e-22)
(0.980258 -0.0184492 8.73593e-22)
(1.00113 -0.00237963 -7.26856e-24)
(1.04742 -0.0218511 -4.90016e-22)
(0.998464 -0.00174359 -5.83078e-23)
(1.00191 -0.00185747 -2.06824e-24)
(0.992164 0.137154 -8.44187e-21)
(0.873724 0.119094 1.49571e-20)
(0.999862 -9.26459e-06 -4.91132e-25)
(1.0003 -0.000504293 -2.22625e-23)
(1.09076 -0.0406264 -1.93639e-22)
(1.00014 -0.00292741 1.41197e-24)
(1.26642 -0.0293337 1.66263e-21)
(1.14186 0.159424 -5.58353e-21)
(1.06631 0.0371747 1.25693e-21)
(0.999922 -0.000282792 -2.94851e-24)
(0.993802 -0.0704039 2.85596e-22)
(0.995006 -0.0588356 1.56186e-21)
(1.00062 -5.42943e-05 2.6335e-23)
(1.01917 -0.036757 6.99563e-23)
(1.05036 0.0023008 1.87428e-21)
(0.884146 0.114829 -9.59575e-21)
(1.0001 -0.00304243 7.62664e-25)
(1 -7.79931e-07 -6.96635e-27)
(1.06962 0.100588 3.79688e-21)
(1.01872 -0.0363792 1.02461e-22)
(0.999858 -1.08631e-05 -1.121e-23)
(1.03816 -0.0162535 -3.42926e-22)
(1.00763 -0.0135097 -7.60574e-23)
(0.996405 -0.00484531 -1.7454e-23)
(0.997444 -9.02603e-05 4.74874e-23)
(1.259 -0.0817648 8.11304e-22)
(0.981705 -0.00662054 3.16415e-22)
(0.998486 -0.0017139 3.73723e-24)
(0.96774 -0.0243135 1.15228e-23)
(1.00031 -0.000486698 3.2083e-23)
(0.999864 -0.000102174 5.94802e-24)
(0.99994 -0.0134754 1.51558e-22)
(1.17598 -0.0126409 -3.45339e-23)
(0.999753 -7.91817e-05 5.08794e-24)
(0.974228 -0.00543605 -8.00572e-22)
(1.00083 -0.00113247 6.8351e-24)
(0.997149 -0.0495695 -2.98611e-22)
(1.02077 0.0769278 -5.65682e-21)
(0.999871 -0.00053193 -2.24939e-24)
(0.724716 0.0468286 -1.16009e-20)
(1.08578 -0.0736773 5.36863e-22)
(0.995666 0.0322189 5.03117e-21)
(1.17318 -0.0133954 2.77353e-22)
(0.999395 -0.000341007 1.05284e-23)
(0.999968 -8.68412e-05 -5.61952e-25)
(0.999513 -0.000376374 -2.07035e-23)
(0.994614 -0.00737678 1.01065e-23)
(1.02619 0.00287207 0)
(0.999452 -0.0111737 1.00077e-22)
(0.984043 -0.000509948 1.69451e-22)
(0.994326 0.159877 -2.87423e-20)
(0.924976 -0.032195 -2.29211e-21)
(0.924266 -0.0319031 1.9793e-21)
(1.0445 -0.0368373 3.69248e-22)
(1.07649 -0.0369206 1.32249e-21)
(0.986826 0.118798 2.97539e-20)
(0.999423 -0.000401464 1.03375e-23)
(0.98562 -0.0425256 2.06021e-22)
(0.979862 -0.0184132 -8.35386e-22)
(1.00022 -0.000225349 1.6762e-23)
(1.02487 -0.047449 -7.56983e-23)
(1.00084 -0.00108898 -3.33293e-24)
(1.03337 -0.0501408 5.30218e-23)
(0.976 -0.0867753 2.68955e-22)
(0.814948 0.152767 -1.92044e-20)
(0.943517 -0.0631638 -1.78553e-21)
(0.99763 -0.00277598 2.63398e-23)
(0.978073 -0.0177235 -1.47909e-21)
(1.00696 -0.0249914 5.34091e-24)
(1.11923 -0.0121797 -2.64391e-21)
(1.03363 0.0004429 -7.73557e-22)
(1.01262 -0.0468096 6.84132e-23)
(1.00001 -1.58239e-07 -4.93631e-25)
(1.00473 0.0582552 9.49308e-21)
(0.985214 -0.0079137 -8.6089e-23)
(0.904882 -0.0151564 1.42232e-21)
(0.998937 -0.0105417 7.04021e-23)
(1.03787 -0.0380684 -1.45102e-21)
(0.97931 -0.0559314 1.63866e-21)
(1.00557 -0.00544179 5.73837e-23)
(1.25101 -0.012242 1.9501e-21)
(0.999007 -4.05568e-05 7.01067e-23)
(1.02625 0.135123 1.52711e-20)
(0.999731 -0.0197507 -1.66525e-22)
(1.05294 0.00412694 -9.29283e-22)
(0.949809 -0.00926153 1.28093e-21)
(1.02298 -0.00378301 2.36244e-22)
(0.999992 -1.62055e-05 -2.80309e-25)
(0.976396 -0.048101 -1.00874e-22)
(0.974089 -0.00564043 7.55359e-22)
(0.983517 -0.0393714 1.00813e-21)
(1.0381 -0.0168554 -2.46944e-22)
(1.03258 -0.115131 -4.14636e-22)
(1.00032 -0.000486496 -3.64486e-23)
(1.05679 -0.204039 -8.6023e-22)
(0.99837 -0.00118776 -1.41501e-22)
(0.999981 -7.7998e-05 1.4125e-25)
(0.999477 -0.0109854 -1.10511e-22)
(1.00027 -0.000521463 9.14153e-24)
(0.879362 0.113578 1.29975e-20)
(1.00023 -0.000221167 -1.48426e-23)
(1.03851 0.184949 -3.40874e-21)
(0.977647 -0.0187639 -2.33158e-22)
(1.02217 -0.00306809 -4.44239e-22)
(1.00324 -0.00251414 -2.08188e-22)
(1.09538 0.0229968 7.42675e-21)
(1.0045 -0.00645731 -2.42122e-22)
(1.02391 0.0303025 -4.20827e-21)
(1 -2.11769e-06 -2.94791e-26)
(1.02898 -0.0650486 -4.45195e-22)
(0.998641 -0.00542836 5.20395e-23)
(1.00194 -0.00434264 1.13525e-23)
(0.971002 -0.0197822 -3.54529e-22)
(1.00002 -1.54577e-05 1.97042e-24)
(1.21779 -0.00460016 2.82355e-22)
(0.916957 0.252895 4.30221e-21)
(1.27379 0.028641 -9.831e-22)
(1.00025 -0.000439513 3.00474e-23)
(1.1566 -0.100608 -9.42345e-22)
(1.02656 0.003222 -1.32741e-21)
(0.982239 0.148092 2.07956e-20)
(1.00012 -0.00495982 -2.8555e-24)
(0.999711 -3.65938e-06 -4.16347e-24)
(1.08888 -0.0400889 -2.74336e-22)
(1.00018 -0.000163256 -1.02642e-23)
(0.945999 0.0547143 -8.152e-21)
(1.00777 -0.042303 2.78932e-23)
(1.28055 0.105122 -8.25818e-25)
(1.1039 0.0578094 -7.8306e-21)
(1.00017 -0.000149558 8.19794e-24)
(0.981158 -0.153545 -1.20071e-21)
(1.01095 0.0405291 -9.37779e-21)
(0.999864 -9.75546e-05 2.72419e-25)
(1.08864 -0.0276088 2.61932e-21)
(0.996862 0.0118107 2.42532e-20)
(0.997413 -0.000114487 3.84106e-23)
(1.00284 -0.0140607 3.09692e-23)
(1.00041 -5.89953e-05 1.9675e-23)
(1.00727 -0.0148218 -1.90026e-22)
(0.978849 -0.0114668 6.50187e-23)
(0.992875 -0.00012115 6.32852e-23)
(1.07202 0.178192 -7.29353e-21)
(0.99583 -0.0224822 3.1341e-22)
(0.803084 0.218784 3.3907e-20)
(0.672474 0.0214794 3.18126e-20)
(0.996769 -0.000107505 -1.14292e-22)
(1.00005 -0.000481201 -1.36158e-24)
(1.05838 0.174256 -3.10352e-21)
(0.996335 -0.00459982 6.78437e-23)
(0.981314 -0.00452502 1.69902e-22)
(1.00028 -0.000521631 -5.18467e-24)
(1.06939 0.0417459 2.8646e-22)
(0.950235 -0.00925631 -1.83517e-21)
(0.836072 0.119123 2.39056e-20)
(0.998711 -0.00481727 -7.48567e-23)
(0.999955 -0.00137353 -2.63565e-24)
(0.985255 -0.00810739 2.95852e-22)
(1.27001 0.00877662 1.94966e-21)
(0.994576 -0.0704264 6.18889e-23)
(1.1312 -0.025134 -2.79395e-22)
(1.05618 -0.0362128 -9.29901e-22)
(1.03261 0.012387 -4.59615e-21)
(0.999787 -0.000145146 -3.37312e-24)
(1.2275 -0.0350301 -8.30442e-22)
(1.00001 -2.8064e-05 -2.50475e-24)
(1.00176 -0.00152503 1.36551e-22)
(0.999993 3.01261e-07 6.88561e-26)
(1.23374 -0.130694 -2.78034e-21)
(1.07192 -0.0986949 1.76566e-21)
(1.02902 0.0573381 7.84114e-22)
(0.999995 2.16927e-07 1.85904e-25)
(0.94369 0.111402 -4.47248e-20)
(0.999536 -0.000150375 1.25284e-23)
(1.02532 -0.0469571 -8.87166e-23)
(0.999293 -0.000385635 3.59153e-23)
(0.923061 -0.0488029 8.85418e-23)
(0.989482 -0.0179441 -8.23668e-22)
(1.11475 0.0175468 3.13112e-21)
(0.999868 -1.18321e-05 1.48847e-23)
(1.02357 -0.0760872 -8.28434e-22)
(1.02004 -0.0364601 2.7493e-23)
(0.988396 -0.016217 -7.07837e-22)
(0.999976 -8.43431e-05 2.21396e-25)
(0.999927 -0.00136273 -1.13126e-24)
(0.999765 -1.29279e-05 1.82361e-24)
(0.971123 -0.0572972 -1.15353e-21)
(1.00189 -0.00361875 5.82095e-23)
(0.998706 -0.000753177 -3.3978e-24)
(0.964498 -0.000289483 1.08412e-21)
(1.0001 -0.000243874 -1.10782e-25)
(1.00033 -0.000472386 2.91303e-23)
(1.00656 -0.0220417 2.5447e-23)
(0.999405 -0.000343932 6.20403e-24)
(1.01382 0.0631435 -1.49763e-20)
(1.0635 -0.00503903 5.58653e-21)
(1.26768 -0.0106172 1.57201e-22)
(0.971508 -0.000861931 -1.39079e-22)
(1.01947 -0.0953905 1.11923e-21)
(0.999994 -8.16203e-07 -1.10542e-25)
(1.18049 -0.072252 -8.22106e-22)
(0.974985 -0.0866652 -1.11279e-21)
(1.00038 -5.84533e-05 2.9621e-23)
(0.968645 -0.0335654 -4.94353e-22)
(0.998503 -0.00503451 -5.79011e-23)
(0.9608 -0.0240276 5.69132e-22)
(1.17901 -0.140941 -8.16659e-22)
(1.00056 -5.51975e-05 -3.04352e-23)
(1.03254 -0.0573834 4.62863e-22)
(0.999981 -8.05936e-05 -5.08066e-25)
(0.994294 -0.00693164 -1.10328e-22)
(0.999564 -0.000154908 1.19051e-24)
(1.06367 0.0908201 -6.84667e-22)
(0.991308 -0.00213306 -3.19279e-22)
(1.00016 -0.000290641 -2.58108e-25)
(0.999815 -9.95907e-05 5.40612e-24)
(1.0264 -0.0120244 1.41944e-21)
(0.954053 -0.0486684 1.74917e-22)
(0.996391 -0.00464851 -1.07982e-22)
(0.999989 -0.00142275 -5.48325e-24)
(1.07091 0.180911 -8.79825e-22)
(1.00696 0.104194 6.24416e-21)
(1.002 -0.00429399 3.31927e-23)
(1.24227 0.0815084 -4.90829e-23)
(1.13943 -0.117457 2.5514e-21)
(0.927281 -0.0526752 7.38841e-22)
(1.00006 -0.000474382 5.39493e-24)
(0.999995 -5.36862e-07 3.88276e-25)
(1.11887 0.174245 4.77038e-21)
(0.961359 -0.0204889 1.71725e-22)
(1.00011 -0.000243161 -4.80264e-24)
(1.22073 0.0398594 1.24883e-21)
(0.99895 -0.000598357 4.39132e-23)
(0.999995 -3.65644e-06 6.95823e-25)
(1.08973 -0.00531936 5.05222e-22)
(0.988061 -0.109911 -4.19726e-22)
(0.944317 -0.0629391 2.37868e-21)
(0.91946 -0.047894 3.19832e-22)
(0.987729 -0.0378269 -7.38882e-22)
(0.992495 -0.000257053 1.11971e-22)
(0.981515 -0.00471373 -1.36725e-21)
(1.00109 -0.0107568 4.72828e-24)
(1.08918 0.0637766 -4.03624e-21)
(0.999757 -0.00074348 -7.94029e-24)
(0.990071 -0.0575158 3.1317e-22)
(1.09905 -0.0106522 3.72261e-22)
(0.999858 -0.000702887 -2.72362e-24)
(1.13662 -0.116412 -3.34551e-21)
(1.02181 -0.0472636 -2.96374e-22)