/*--------------------------------*- C++ -*----------------------------------*\
  =========                 |
  \\      /  F ield         | OpenFOAM: The Open Source CFD Toolbox
   \\    /   O peration     | Website:  https://openfoam.org
    \\  /    A nd           | Version:  7
     \\/     M anipulation  |
\*---------------------------------------------------------------------------*/
FoamFile
{
    version     2.0;
    format      ascii;
    class       volScalarField;
    location    "19";
    object      p;
}
// * * * * * * * * * * * * * * * * * * * * * * * * * * * * * * * * * * * * * //

dimensions      [0 2 -2 0 0 0 0];

internalField   nonuniform List<scalar> 
30084
(
0.0199629
0.213362
-0.019562
-0.0750328
-0.00548911
-0.0821658
-0.0179563
0.0199498
0.00451819
0.000397516
0.0143362
-0.00978949
-0.00111364
-6.44897e-05
0.258339
-0.0132627
-0.000416068
0.119792
-0.0048561
-0.0230078
-0.00196727
0.00424229
-0.0198031
-0.0047977
0.695895
0.212053
-0.00119661
0.59799
0.251371
-0.0035325
0.0350376
0.106071
-0.114779
-0.0136103
0.604518
-0.0135713
0.246989
-0.0590248
0.0126065
0.0121417
0.000956909
-0.0353735
-0.000371956
-0.0333907
6.32626e-05
-0.00313019
-0.00877976
0.000152343
0.00742641
0.241256
-0.0143514
-0.0662615
0.109253
-0.0794868
-0.0129763
0.240085
-0.00767672
-0.00202503
-0.00927843
-0.0317805
-0.000154362
-0.0047111
0.119974
-0.0117431
0.368478
0.660358
-0.0157454
-0.0183907
0.632597
0.00100167
0.210143
0.510196
0.00534303
0.659796
-0.0171788
0.0472169
0.269226
-0.0528514
-0.000116037
-0.0290292
-0.0739615
0.279414
0.0199566
-5.43442e-06
-0.0136035
-0.104105
0.391282
-0.00115676
-0.00107654
-0.108451
-0.0456048
-0.0533838
0.00684836
0.110329
-0.112315
0.401213
-0.0586371
0.00104109
-0.0837185
0.291408
-0.000122346
-0.049963
-0.000149488
0.0797391
-0.0679208
0.184362
0.44648
-0.00103526
-2.47367e-05
-0.106319
-0.114854
0.0302163
5.37139e-06
-0.00334851
-0.000378968
0.499773
0.304174
-0.0249559
4.16645e-05
0.00619066
0.0265314
0.226214
0.0293989
0.657985
0.00245371
0.0572541
0.126447
-0.0245961
0.00903865
1.85833e-05
-0.0307351
0.260761
0.500476
0.00260733
0.0787161
0.0339996
0.436715
-0.0510774
-0.152351
0.283523
0.0666395
-0.094403
-0.0933647
3.90826e-06
-5.42321e-06
-0.0056181
-0.00820399
-0.0888247
-0.0987182
0.177847
0.0582814
0.0293332
0.000941321
-0.000321863
0.291169
0.00112327
-0.0166178
0.420403
0.342635
-0.00878425
-0.070992
-0.0731555
0.247258
-0.000121483
-5.97173e-06
-0.0251177
-0.0903238
9.72728e-05
-8.57269e-06
-0.0151203
4.84117e-05
0.0126723
0.425897
-0.0501841
-0.0781662
-0.0110184
0.00463606
-0.0516802
-0.00269845
0.0430412
-3.91653e-05
-0.00516919
0.389121
-0.017232
-0.152569
0.295009
-0.0137193
-0.0381286
0.00848256
-0.00332782
-0.000645959
0.00532921
0.667737
0.28694
-0.0293834
-0.0159327
0.569035
0.261876
-0.110951
0.00256875
-0.0414206
-0.0995211
-0.00934288
0.00185737
0.435629
-0.0145705
0.0152449
-0.0888205
-0.108512
-7.868e-05
0.539967
-0.00232968
-1.02476e-05
-0.0012455
-0.0425614
0.145368
-0.00273281
0.0148501
-0.00475709
-0.11116
4.07908e-05
0.000991913
-0.00512345
0.151703
-0.00619891
-0.00319496
0.104784
0.000255927
5.88185e-05
0.0116075
-0.0576489
-0.0458479
-0.0103279
0.208106
-0.0313944
0.0307667
-6.74785e-05
-0.00659526
0.00173027
-0.0367972
-0.159427
-0.00308944
0.00100849
-0.00337121
0.00644004
-0.0223865
-0.000115691
-0.0926025
7.37056e-05
0.153919
-0.00741862
0.000296547
0.18681
-0.100471
0.000543283
-2.74985e-06
-0.0945753
-0.153063
-0.0190355
-0.027119
0.0582662
0.375442
0.000160278
-0.0550965
0.0327971
0.582293
-0.0173421
0.290921
0.0534628
-0.000510941
0.784582
-0.00124047
-0.0836014
-0.10979
0.0049715
0.101508
-0.0179011
0.505686
-0.00763918
-0.0376841
-0.000616179
0.346067
-0.00586753
0.407655
-0.00116288
-0.0126637
0.57382
0.134103
0.10456
-0.0663423
-0.000357019
0.00625231
-0.000439406
-7.34232e-06
0.152027
7.55646e-05
-0.0410758
0.0286362
0.702844
0.496323
-0.08896
-0.0391147
-0.0437301
0.026431
0.00690009
-0.0386566
-0.0938782
0.382698
0.513397
-0.00287867
0.440271
0.148015
0.033732
0.0252973
-0.00317599
-0.0123254
-0.0117591
-0.0058921
-0.000140287
-0.00387954
0.0525294
0.353032
0.00362578
-0.0565402
0.0294241
-8.78646e-05
-0.0913756
0.735612
-0.0138081
-0.00308724
0.0269649
-0.0273512
0.199955
-0.00305961
-8.12652e-05
4.8297e-06
-0.00594692
0.577168
0.0594569
-0.158824
-1.33695e-06
-0.16132
0.129872
-0.0112388
-0.103177
-0.00282395
-0.00101304
-0.0518646
0.00205802
0.0486947
0.0232459
0.239858
-0.000382118
0.00516359
0.224369
0.0299108
0.000925004
0.000983459
0.496406
-0.045175
-0.00336491
0.272764
0.591124
-0.0231839
-0.0146555
0.150244
-0.00175994
-0.0185955
-0.00747113
0.25698
-7.33499e-05
0.0223711
-0.081536
0.504001
0.651963
-0.0133179
-0.019519
0.377872
-0.0331324
-0.000135941
0.222484
0.159483
0.162021
-0.0158101
0.0552423
0.591807
-0.120872
0.541316
0.508882
-2.01315e-05
0.0525199
-0.111862
-0.00652795
0.00369695
0.595834
0.0597993
0.000626715
-0.0694101
-0.101891
-0.0124134
-0.000298024
0.417602
0.298528
8.37042e-05
0.00934886
0.0123427
-0.0460969
-0.0661403
0.000118905
-6.29244e-06
0.00112024
0.205597
-0.0585631
0.405515
-0.103774
-0.0377389
-0.0461473
0.26781
0.123553
-0.00279294
0.0184484
0.00191612
0.546574
-0.0542814
0.00249213
-0.0166264
0.0756088
-0.00322724
-0.0268184
0.000522459
0.000536068
0.74434
-0.0179627
-0.0112865
-0.00106443
-0.00171839
0.3604
-0.0810092
-0.0519041
9.72945e-06
-7.85185e-06
-0.0560262
-0.0150579
-0.0116932
0.0384678
0.0141332
-0.00548599
0.0911657
-0.0381526
0.533744
0.0129833
0.000555428
-0.0887633
-0.0498742
0.115222
-0.00760461
-0.0508692
-3.72366e-05
0.634867
0.0433632
0.000173215
0.667773
-0.0537863
-3.96611e-05
0.00335837
-0.0908324
0.0315453
0.0996359
-4.30424e-06
-0.0178224
-0.00922804
-0.0120542
-0.00111645
-0.0183693
0.574346
-0.0183674
-0.0259127
0.303811
-0.00642196
0.561275
-4.37952e-05
-0.0342787
-0.0922726
-0.0496409
0.00618398
-0.003519
0.00547308
-0.000390647
-0.040962
0.0262125
-8.27276e-05
1.3192e-05
-0.0141825
0.52963
0.0179088
0.00583904
-0.111317
-4.60865e-07
0.00227355
-0.000127321
0.0225288
-0.0380263
-0.000930305
-0.0176874
-0.0273277
0.00239234
-4.63281e-05
0.0545868
-0.000951
0.11871
0.47231
0.382828
-0.00862075
0.0139074
0.0567552
-0.000252324
-0.00778266
-5.47757e-06
0.51345
-0.0299709
0.0379363
-0.0371187
0.00422895
-0.00708906
-0.000268178
1.59762e-05
-0.0109267
0.105207
0.348289
0.00289817
-0.0799092
-0.053692
-0.0176376
0.178582
-0.00310229
0.00304647
-0.0126248
-0.000248082
-0.0933567
0.381995
0.277932
-0.0484062
0.375466
0.00017539
8.18678e-06
0.220786
0.110737
0.657043
-0.0791634
-0.046221
0.0842466
0.00275559
-0.0131701
0.00106775
-0.0235119
-0.0281228
-1.80283e-05
-0.00211584
0.500105
-0.000356492
0.616678
-3.9173e-06
0.0869051
0.11354
0.0967552
0.00245385
0.000422488
0.51966
0.124308
-0.0939941
0.284518
-0.0139947
-0.0289776
-0.00935728
0.367888
-0.054867
0.0300364
-0.016938
7.65353e-07
-0.00306949
0.0137853
-0.0386216
-0.0473186
-0.0886679
-0.0390336
0.193377
-0.00500142
-0.108551
-0.0300401
6.84905e-05
-0.0264697
0.0255163
0.196343
-0.0579239
-1.08383e-05
-0.0395285
-0.000522189
0.00328543
-0.115269
0.404276
0.00211616
-0.0261152
-0.0150652
0.135586
0.564286
0.00427763
-0.00969404
0.354987
0.247111
-0.032155
0.0115386
-0.0972447
-2.75697e-06
-0.0848399
0.00018581
-0.0173488
-7.45728e-05
4.99314e-05
-0.0127289
0.127128
0.476077
0.0276545
0.0275956
-1.19235e-06
-0.0142772
0.000195331
-0.00748023
5.05527e-05
0.105084
-0.00115092
0.283984
-0.000321598
-0.027929
-0.0747127
-0.00980031
0.560702
-0.0358609
-0.0832248
-0.0128746
0.0934897
-0.0862471
0.0617779
-0.0256316
-4.48327e-06
-0.010892
-0.00917387
0.000571551
0.000187077
0.366152
-0.0113324
0.146835
-0.00885543
0.00203277
0.0691351
0.000375481
-4.68938e-05
-0.0836713
-0.00811753
5.78926e-05
0.36279
0.711513
-0.000521882
-0.0719803
1.18901e-05
0.600097
0.0848259
-0.0741095
8.25271e-05
0.0307551
0.115931
0.134084
0.0984225
-0.000978701
-0.000375527
-0.033206
1.30955e-06
4.65735e-06
-0.0559209
-0.0569327
-0.0870477
0.683747
0.000459309
-0.0555406
0.0179566
-4.25687e-05
-0.00287087
5.71559e-05
-0.0135046
9.09726e-05
-0.0220575
0.0598481
0.555358
0.090899
-0.000683812
0.00106551
-0.0562461
0.143947
-0.00722844
1.77244e-05
0.321484
-0.155428
-0.0772504
-0.0306413
-5.11244e-05
-0.000677074
-0.161272
-0.0419018
0.23596
0.531533
-0.0816021
-0.00300494
-4.10125e-05
-0.0882469
-0.114141
-0.000502326
0.00762111
-0.0310786
-0.0107907
0.513182
-0.00308048
0.0163948
0.280187
-0.0174085
0.660005
0.656865
-8.13641e-05
-0.0001087
-0.0353431
0.0356481
-0.0698111
0.0124194
-0.016852
-0.00138225
0.583651
0.278003
0.00534398
0.775703
9.18881e-06
0.180467
-0.100738
-0.0535902
0.000204408
-0.072353
0.186236
0.0341696
0.121739
-0.00108742
-0.00116897
-0.00248699
-0.00802164
-0.0293056
-0.00249665
0.221736
-0.012139
-0.0119989
-0.113074
0.488914
0.0668596
0.0679029
-0.000972198
-0.00123744
-0.042209
0.00232953
-0.00604192
-4.87356e-05
-0.000850071
0.186764
0.52178
-0.00031782
0.326311
-2.04103e-05
-0.00772474
-3.49552e-05
0.0127032
0.0432712
-0.000101826
-0.000105108
-0.106203
2.34149e-06
0.101047
-0.0488764
-9.83137e-05
0.28961
-8.73157e-06
-0.0009667
-0.000222256
-0.0115315
-0.000911136
-0.0139583
-0.114288
-0.000810995
0.0100022
-4.75669e-05
0.469792
0.013263
0.0663658
-0.0656017
-0.0466265
-0.00264598
0.00687934
0.325191
-0.0516825
0.308556
-0.0799179
-0.00798151
-6.42412e-06
-0.013023
0.499797
0.312275
-0.067675
-0.0994607
0.455337
-0.0187774
-0.0958371
-3.46909e-05
-0.0509836
-0.00198035
0.755809
-0.0871986
-0.000217077
-0.107599
-0.0528925
0.363865
-0.00596884
-0.0554221
-0.00833406
-0.0118379
-0.00299985
0.362603
-0.157244
-0.0400626
-0.0316742
-0.0276809
0.0130457
0.448638
-0.0388797
0.2852
0.00639657
0.0114643
0.62581
-0.019087
-0.000557589
0.368238
0.503524
-0.000688419
0.047288
-0.0144519
-0.0648423
0.354675
-0.0887351
-5.57232e-05
-0.0164185
7.12465e-05
-0.0101503
-5.90809e-05
-0.00982641
-0.00226045
-0.00709893
-0.0264503
-0.00141978
-0.001193
-0.00249217
0.307533
-0.00474509
-0.00738801
-0.00673005
0.265286
0.0121079
-0.0008675
0.496002
0.648609
-0.040385
0.583757
-0.0356779
0.46979
0.0124349
-0.0207984
0.00589541
-0.00107576
3.09987e-05
0.00586326
-0.0247493
-0.0403099
0.279592
-0.0465576
-0.0409358
-0.00211282
-0.0109534
-0.0480834
0.0148533
-8.8349e-06
0.0287205
0.237045
0.503054
0.0605974
-0.0273197
0.226349
-0.000781226
0.0749053
-0.0364336
0.00144997
-0.106304
0.00758553
0.470206
-0.00457095
-0.00122
-0.000270918
-0.0917689
-0.00268914
0.760595
0.784679
0.0257237
-8.35091e-05
0.0179479
-4.09285e-05
0.134404
-0.00120526
0.0463116
0.701847
0.12052
3.31651e-05
-0.0167647
-2.43629e-05
-0.159898
-0.0687446
0.584123
0.000482812
0.0247745
0.00745198
0.000603685
-0.00485276
-0.000669062
-0.0123571
-0.0690944
-0.0458424
0.016425
0.283805
-0.0266597
0.0134231
-0.0402772
-0.00356121
-0.0532525
2.05468e-05
8.51634e-05
-0.00458082
0.0584232
-0.0530453
-0.0316281
-0.00749959
0.00561736
-0.023035
0.379623
-0.0254672
-6.95525e-06
-0.101445
0.542897
0.00137288
-0.0239574
0.161042
-1.32976e-05
-0.00142624
-0.0560749
-6.73955e-05
-0.000940851
-4.19308e-05
0.776014
0.0181713
0.00741796
6.24166e-07
3.63257e-06
-2.23549e-05
-2.57547e-06
-0.0444632
0.505612
-0.0683511
-0.000976681
-0.000342345
-0.00997331
0.580875
-0.091276
0.537969
0.0702316
0.218706
-0.000248884
0.574734
-0.0044602
-0.018472
0.0466104
0.0188188
0.0211197
0.282181
-0.0785615
0.5678
0.415781
-0.0157405
-0.0526048
0.0131635
-0.056795
-1.04796e-05
-0.00187854
0.00547344
0.122371
-0.0127945
-0.0446735
-0.00637239
0.679735
-0.112029
-7.05082e-05
-5.98509e-05
0.590214
-0.00965989
0.00569432
-0.0254708
-0.0044429
-0.0291305
-0.018706
0.0109528
0.184095
0.0758125
-0.019266
-0.0271284
0.000143174
-0.0111405
-0.00164934
-0.0153003
-5.73124e-05
9.37912e-05
-0.0287046
-0.0381706
0.562615
-0.0265655
-0.000401572
-0.00293312
-0.000618905
0.493161
0.00562347
-7.18912e-05
-0.0490398
-0.00866046
-0.00672892
-0.0523388
-0.0612419
0.0128315
0.10626
-0.10307
0.00012017
0.0112056
-0.0252996
-2.15968e-05
-0.000126808
0.181764
0.141725
0.061773
-0.0909803
-0.089392
0.000972871
0.611263
0.000125915
-0.027215
0.517646
-0.0321125
-0.0676445
5.93942e-06
0.000274415
-0.0671232
-0.017559
0.00258052
-0.060506
0.336373
0.405201
0.00125433
0.000449379
0.326069
-0.0233826
-2.2513e-05
-0.00275767
-0.0521914
-0.0392769
-0.0174743
-0.00292509
0.330382
2.22575e-05
0.125608
0.396473
5.30516e-05
0.023215
-0.000839926
-0.116946
-0.0251319
-0.00124775
0.0475154
0.000343866
0.331711
0.00255915
0.0387647
0.0541152
0.704042
0.481057
-0.0979364
-0.0127216
5.86166e-06
0.0770538
-0.0232694
0.239146
0.450065
-0.0602492
0.00496029
-0.0275915
-0.0105713
0.216245
-0.000346437
0.576262
0.0429594
7.75484e-05
5.52854e-05
0.000163346
-0.0210073
-0.0288465
0.0012021
0.133781
0.204208
-0.0901405
0.000984513
0.000105794
-0.0370306
-6.98737e-05
-0.00459036
-0.0176117
-0.00102506
0.0979593
0.00731749
-0.00218298
-0.00602456
-0.0250762
0.481478
0.493288
0.0607678
-1.87029e-05
-0.000877404
0.352261
-0.000734196
-0.104359
-0.000331621
-0.0309762
-0.114847
-0.000340579
-0.000373345
-0.0496667
0.0022286
-0.000123095
-0.00208103
0.305687
-0.0538302
-6.73408e-05
0.145028
0.468942
0.484916
0.000996986
-0.110312
-0.0144009
0.539782
-0.0984467
-0.100776
0.00148953
-0.0198542
0.0450968
-0.0393116
0.484647
0.139384
-0.000284719
-0.0826129
-0.111095
-0.00580935
-2.72234e-06
-0.00272515
0.298555
-0.000310218
0.0100713
-0.00608783
-0.0018298
0.0137861
0.0437932
-0.000294507
-0.000200369
-0.00875156
-0.113844
-0.0539298
-0.108155
0.337127
-0.00213916
-0.000435458
-0.0539645
-0.0362332
0.0153291
0.020409
9.22671e-05
0.108384
0.215069
0.0284128
0.037553
-0.000978396
-0.0202307
0.0960447
0.00198095
-0.000102558
-0.0136982
-0.00610785
-0.00113393
-0.0165628
-0.00130413
0.376321
-0.0136272
-0.158982
-0.0356951
-0.0161901
0.0176777
0.597635
-0.0661487
-0.000200873
0.571784
0.238479
0.0116541
-0.00885171
0.0113316
0.0598333
0.228384
0.000516231
-0.0037575
0.700577
0.392461
0.44399
-0.0664413
-0.0021317
-0.00187371
-6.69344e-05
-0.0019785
0.411356
0.122171
0.0030798
-0.00501885
-0.000562818
0.018189
0.664376
0.517839
0.118178
-0.00427674
-0.095983
-0.00583243
-0.00111086
-0.0286507
0.0243384
-0.0408998
-0.00532178
0.0013661
-0.124659
-0.116762
0.0449053
-0.0366939
-0.00342004
-0.038818
-0.000315284
-0.010338
-0.00105719
0.463571
6.14678e-05
3.00998e-06
-0.0309853
-0.029508
-0.0429471
0.0578105
4.90739e-05
-0.122607
0.102472
0.279753
0.747082
-0.00690255
-0.118048
0.0458505
-0.003115
0.133166
-0.000916872
0.0157139
-0.000302285
0.369966
-0.0363179
0.0159779
0.205319
0.169794
0.00221664
0.00485563
4.77604e-06
0.54202
-4.6186e-06
-0.0675388
0.000492304
0.00255839
0.262245
0.150229
-0.104159
-0.0581923
-0.0060243
0.782063
-0.109351
5.88147e-06
-0.0229642
-7.76349e-05
-0.0188207
0.153234
0.27951
0.00131851
-0.0521776
-0.0139498
0.214308
0.115573
-0.0481397
0.685121
-0.0146588
9.20512e-05
-0.139137
0.70858
0.00339873
0.135931
-0.0641389
0.221932
0.0028142
0.0551403
-0.113927
0.00885388
0.0810858
-0.0293667
0.302291
-0.0386627
-0.0285429
-0.0012074
-0.00121553
0.623147
-1.62003e-05
-0.00759579
-5.37151e-05
-0.0119598
0.000516883
-0.0107128
0.361442
-3.66448e-06
-0.00153515
0.197113
-0.159077
-0.0330963
0.00171032
0.523633
-0.0729215
0.245412
-0.017565
0.224373
0.010772
-0.00112854
-0.00625225
0.00113764
0.637537
-0.0391992
-0.000189159
0.00336331
0.205994
-0.016609
-0.00105622
-0.000206533
-0.112845
-0.00386753
-0.0142905
-0.106596
2.75871e-06
-0.102761
0.000606251
0.466906
-0.0149474
0.216402
0.00683927
-0.00544402
0.378881
-0.0760464
-0.132329
-0.00636455
-0.119091
0.389465
0.410979
-0.0207659
-3.81662e-05
-0.0227928
0.00687353
6.72234e-06
0.116015
0.500152
0.0186822
0.00236204
0.0168548
-0.104536
-0.00026342
0.124998
0.0751974
0.116575
0.0197158
0.0411191
-0.000589607
0.252357
-0.0211076
-0.165301
-0.00150705
0.0341839
0.213411
0.00118963
-0.107837
0.307635
-0.0558169
-0.109482
-0.11213
-0.0998979
-0.104033
0.0781549
0.30775
-0.127758
-1.01093e-05
0.00130051
0.00449169
-0.00267595
0.0172837
-1.57059e-05
-0.00849238
0.00589058
-0.000113735
0.0843921
-0.000783729
0.176592
-0.047999
-0.0072542
-0.0102129
-0.0127038
-0.0977222
-0.00871574
-0.001516
0.0315094
0.117289
0.00697946
-0.0491781
-0.00441284
0.0442145
-0.0140414
-0.0285064
-0.110636
-0.023556
-6.13388e-05
-0.0225429
0.569843
3.73609e-05
0.229419
-0.0502824
0.67205
0.0723168
-0.0698316
-1.52923e-06
0.00250336
-0.123483
-3.21839e-05
-0.00404746
-7.3251e-06
-0.106664
0.00672561
-0.107451
-0.0341784
-0.000199686
0.376846
0.363535
-0.0528016
0.000665497
-0.000271784
-1.05993e-05
-9.46534e-05
0.613846
-0.00199094
0.00339885
0.0323226
0.00140636
-0.000902469
-0.112763
-0.00038765
0.071883
0.00507286
-0.00312515
-0.00112585
-0.0382791
-0.06178
0.26076
0.165325
-0.000257011
-0.0195405
0.000798171
-0.0553776
-0.000796888
0.203623
-0.011564
0.780231
-0.0190987
-0.00219533
0.110934
-0.0282313
0.461717
-0.0627289
-0.016847
-0.019389
0.0272429
-0.00538603
4.39995e-06
-0.0124174
0.417092
-0.0655679
-0.00489167
-0.0624396
-0.040466
0.219016
-0.000778836
0.385121
-0.000658593
-0.0954868
-0.000814621
0.0198418
0.0691839
-0.00299577
0.451423
-0.000727069
0.048998
0.130085
0.000724191
-0.000218827
0.657962
0.110334
-0.000883032
0.0449441
0.0355957
0.000179384
-0.0576346
-0.032959
-0.153212
-0.0153486
0.445196
0.00654587
0.269368
-0.000614637
0.518625
-0.106532
-0.00800522
0.00931034
0.0467274
-0.0958012
-0.114854
-0.0129242
6.26711e-05
0.718451
-0.0338802
0.00121371
-0.0195979
-0.0595244
0.459295
0.0045049
-0.0245192
-9.12357e-05
0.147546
0.0121163
-0.0577013
0.00120563
-0.00528788
-0.0422106
4.9424e-05
-0.0782208
-0.00238964
-0.0222661
-0.0966012
0.391896
-0.0154748
0.0968333
-0.0516672
-0.0465858
-5.94507e-05
0.000205112
-0.00568728
5.16018e-05
-0.0169639
0.0675788
-0.003143
-9.4493e-06
0.643786
0.00755907
0.000485382
-7.21044e-05
-0.00326411
0.445119
-0.0798663
0.719759
0.266543
0.0338273
0.387212
-1.7946e-05
-0.0213314
-0.00130402
-0.00379796
0.27836
-0.0150978
0.722176
0.358339
-0.085314
0.369853
0.0137663
-0.0214524
0.00336905
-0.0506545
-0.00607219
-0.0784113
-0.0850487
-0.00463048
0.36639
-0.015068
0.000201832
-0.00658009
-0.0010378
-0.0518699
-0.000267701
-0.00194576
-4.50666e-05
0.232866
-0.109488
0.37713
0.043243
-0.00421042
-0.0483246
-0.0301844
0.10858
-0.00471347
-0.00164999
-0.0995561
-0.0680222
0.0178801
-0.0650562
-0.0069017
0.0219187
0.00453738
3.99513e-05
0.205271
-7.43287e-05
0.0850143
-0.00126055
4.35417e-06
0.00300655
-0.00105252
-0.00189802
-0.0241623
0.267124
0.217386
-0.0303492
-0.0191983
0.00438967
-0.00788972
-0.0156279
2.29765e-06
-0.00077628
0.00103009
0.169014
-0.0129665
-0.0853232
-0.0713238
-0.00328194
-0.0319317
-0.0164027
-0.00266506
0.00805191
-0.0190622
0.34287
-0.101281
0.0093563
0.0035193
-0.0570214
0.707855
-0.0152712
-0.00664141
0.0118229
0.122669
0.00609515
-0.00108707
0.368201
-0.00058139
0.068115
-0.0342324
-0.0762732
0.00962785
-0.00572998
-0.00851025
0.0626234
-0.0055955
-0.000983879
0.00194469
0.00388638
-0.000378278
0.0549131
-0.0143743
-0.00316874
-1.71935e-05
0.235457
-7.31009e-05
-0.0461242
0.118705
-0.0352502
0.000193182
0.166982
-0.055609
0.252474
-9.71191e-05
-0.00603022
0.175192
0.000255534
0.007522
-0.00696928
0.0158794
-0.0315044
-0.049331
-0.0129766
-0.00416365
0.015057
0.0313594
0.184393
-0.000301586
0.173735
-0.0612756
-0.0050716
-0.0107095
0.000600785
-0.0800245
0.000104949
0.574776
0.324666
-0.000774592
-0.0323229
0.000246457
-0.00335248
-0.00799613
-0.0206881
0.233919
0.255254
0.0415784
0.0154936
-0.11147
0.0584445
0.103455
0.124069
-0.0779147
0.0275233
0.313865
-0.01466
0.503178
-0.00144429
-0.0167483
-0.073692
-0.000158639
-0.00117912
-6.63165e-05
0.499615
-0.0158307
0.0003891
-0.0235865
-0.00686092
-0.00051498
-0.020109
0.399909
0.00148193
0.0167452
-0.0431422
-0.00073683
-0.00705058
-0.00125331
0.730487
0.000307183
3.68269e-05
-0.00289659
-0.0213846
0.181329
0.000800398
0.0260437
0.117826
-0.000255468
0.00317135
-0.110897
0.134593
-0.0537514
1.27154e-06
0.000498809
0.0124904
0.0488584
0.424749
0.13876
-0.0520693
1.55144e-06
-0.0746218
-0.0040298
-0.0188796
-0.018243
0.257014
0.553804
-0.000173976
0.218628
0.336619
-0.0147357
-0.0133564
-0.0338472
-0.0164697
0.000154414
-0.0603966
-0.012885
-0.000199911
-0.000845755
-0.00241416
-0.00290402
-0.00103944
0.417904
0.448688
0.303142
-7.01213e-06
-0.0349628
0.0884959
0.157719
0.581525
-0.000756297
-0.0302118
-0.0276935
0.426977
-0.0285756
-0.0141053
0.0102186
0.223738
0.000435406
-0.000766204
-0.0370243
-0.0568369
0.222996
0.0837571
-0.0582698
-0.0343405
0.186975
0.0309248
-0.0722938
0.010504
0.0857915
0.23688
-0.000542159
-0.000960956
0.170016
0.000296866
0.0635784
0.0472972
-1.89828e-05
0.404514
-0.0157335
-0.00671572
0.748102
-0.0547548
-0.0125398
-0.0564037
-0.00374305
0.549369
0.00171591
0.709796
-0.000216654
-0.0101203
0.722501
0.0102824
0.547482
-0.00864974
-1.34916e-05
-0.0318577
0.559924
-0.00239873
-0.00998567
-0.0121242
-0.00152649
-0.0314575
0.560016
0.171068
2.65971e-06
0.0306009
-0.0056353
0.0450169
-0.00135511
0.0345404
-0.00397045
-0.000720141
0.534272
0.572489
0.539312
-0.0765986
0.105127
0.000205062
-0.0842884
0.385633
0.0259515
0.000345376
-0.0837612
0.000873861
-0.00016706
0.568588
0.000177503
0.00634606
-0.00291081
-0.0133677
0.544201
0.561823
0.575568
0.017893
0.000703363
0.302737
0.0113231
0.0409759
-0.0136231
9.76752e-05
-0.00442911
-3.54862e-05
-0.00682004
-0.00113293
-0.00853815
-0.000112862
0.216373
0.00317076
-0.099451
-0.0135559
-0.105379
-0.0242043
-0.0011743
0.465231
-0.0160628
-1.86204e-05
-5.02837e-05
0.699181
3.90801e-05
0.0170706
0.0893291
-0.0266444
0.4108
-0.00781213
-0.0638751
-0.0541169
-0.000739467
0.000177766
0.349647
0.572467
-0.00232482
-0.0307782
-0.000360872
0.567513
0.675804
-0.00216695
-0.00961015
0.0288117
0.00466041
-0.036044
8.70815e-05
0.0151239
-0.0553554
0.0903525
0.47036
-0.00225672
0.0425435
0.185386
0.088625
-0.0651696
0.0423725
0.657335
0.273637
-0.0787169
0.57516
-0.00089203
0.580665
-0.0103238
0.48757
0.120395
-0.00753954
0.0592459
0.00360798
0.026297
-0.107086
-0.00101141
-0.0342945
0.489573
-0.0383054
0.0433044
-0.00221851
0.0449738
0.265973
-0.0135595
0.0332022
0.00104658
-0.00535763
-0.0350816
-0.00322273
0.00297006
-0.0130903
-0.00075672
0.00362645
0.484124
0.00329927
-0.0234678
-0.0847406
-0.0424106
-0.0930848
-0.1131
0.00625529
-3.91084e-06
-2.3535e-05
0.356457
-0.0764996
8.32767e-05
-0.0453664
0.24771
-0.0863887
-0.021845
0.000164765
-0.00282769
-0.0675038
0.215791
-0.0120356
-0.000722814
-0.0673429
-0.0282005
0.725259
0.157707
0.103639
-0.0721552
-3.01294e-06
-0.00990542
0.0941938
-0.000561166
2.53662e-05
0.238466
0.147986
0.000906923
-0.00128261
0.0131099
-0.0507769
0.0153417
0.0124847
-0.0220162
7.33799e-05
0.400638
0.000853108
-0.000908149
-0.000356849
-0.000332274
-0.00023815
0.117003
0.00139313
-0.00412433
-0.0139161
-0.00669441
0.0423572
-0.00787954
-0.0600992
-0.0151183
0.52432
0.441107
-0.00073131
-0.00215777
0.143236
-0.00121206
-0.0286608
0.114589
0.16515
-0.00142912
0.0299445
0.0581833
0.00192215
0.168399
-0.000159876
0.0108117
0.000836113
0.0203045
-0.0208548
0.0699465
0.000100402
0.00114137
0.000391446
-7.81365e-05
-0.00213783
-0.0139734
-0.0183733
-0.0414825
0.106349
0.0581256
0.0132687
-0.0885392
0.0177498
0.0118211
0.0190182
8.03062e-05
0.56
-0.0118106
-0.0047177
0.0106373
0.734277
8.29978e-06
0.136267
-6.05611e-06
-0.0261414
-0.0091805
-0.030534
0.236901
-0.00570741
-6.05867e-05
0.273596
0.100644
-0.000807422
0.0732378
-1.7e-05
0.218858
0.0107729
-0.0394084
-0.00021554
0.327417
0.040728
-0.0288118
4.81236e-05
0.227417
0.406983
-0.00160979
-5.84592e-05
-0.0507433
-0.0127342
0.0159614
0.0376176
0.583406
0.349888
0.00067414
0.444094
0.335396
-0.00402852
-0.0785844
-0.0464502
-0.0211399
-0.0731899
0.224427
0.00114893
0.606134
0.208893
0.0177174
0.000123818
0.000886603
1.18003e-05
-0.000803275
-0.00391664
0.647535
4.18807e-06
0.108574
0.0380322
-0.000329464
0.604585
0.676409
0.263747
0.301344
0.0488155
0.00347492
-0.000412191
-0.0153571
-1.86421e-05
-0.00155203
-0.15912
-4.03356e-05
-0.00233923
0.617562
-0.0161162
-2.87082e-05
0.63967
0.000638287
-0.049157
-0.0974312
-0.00184658
-0.10574
-0.000335764
0.228241
0.0046662
-0.0225043
0.00270439
-0.000924094
-0.000554368
-0.000318693
-0.167394
-0.0835724
0.203674
0.00393815
-0.00263846
0.316568
9.77539e-05
0.706655
-0.000737557
-0.119323
0.00313301
0.00227486
0.0701166
0.0741119
-2.9059e-06
-0.00569094
0.000140685
-0.000944324
0.00116648
0.114063
0.0671119
0.412988
-0.0541734
-0.000144007
0.000227879
0.132305
0.454221
-0.00616249
-0.00867616
0.70535
-0.003857
-0.0283498
0.00131502
0.119192
-0.0503896
-0.0117344
0.208067
0.00183973
-0.000352899
0.00229687
0.0406843
0.697485
0.557912
-0.0331134
-0.0494303
-0.00877928
0.00216851
3.15496e-05
0.101862
0.272265
2.20187e-06
-0.0100179
-2.68339e-05
0.000178369
0.529006
-3.66934e-07
-0.103133
-0.0753909
-0.11799
0.0950359
3.29627e-06
0.0137642
-0.00832753
0.491839
0.0263121
0.00689538
-0.0412777
0.00086583
0.45422
0.270331
0.0154111
0.0845982
0.624485
-0.0878925
-0.0787668
-0.0026383
-0.00963952
-0.000534909
0.0391826
-9.98693e-05
0.217943
0.00401008
0.269521
-0.0465011
-1.93973e-06
0.0811565
-0.000238001
-1.05668e-05
-0.00105021
0.690203
0.663949
0.415425
7.58182e-05
0.261299
0.579192
-0.00134845
0.00295905
-0.011574
0.132446
0.564446
-0.0375894
0.161713
-0.00342091
-0.0893062
-0.101178
0.758904
-0.00083207
0.557242
0.118326
0.248178
0.00014929
0.000284301
0.00744556
-0.0122171
0.11357
-7.9467e-05
8.64632e-05
0.547008
-0.12134
0.000393528
0.571477
-0.00318355
0.000203648
0.475158
-0.00883786
-0.00208171
0.0645596
0.227415
0.000429628
-0.000186249
0.0048294
-0.00554943
0.543886
0.686451
0.376757
0.740783
0.197876
-0.0631688
0.630123
-0.000114019
-0.00438121
0.225145
-0.00467535
-0.000899774
-0.000141743
0.570453
0.052726
-0.000894951
0.668819
0.100735
0.341892
0.0593006
-0.00372747
-0.0279752
0.222203
0.102487
0.570517
-0.0311922
-0.00107784
0.52633
0.496207
0.018426
0.4191
-0.0516018
-0.010634
-0.0124728
-0.00087966
-0.000196718
0.531532
-0.0846755
0.055912
0.00125257
0.207091
-0.0429085
-0.0197545
-0.00132344
-0.00484972
0.589936
-0.00109936
-0.0234647
-0.00408573
0.582734
-0.0258371
0.0271203
-0.0101812
0.0018905
0.200097
-0.0298727
0.60101
0.208213
0.738212
0.31527
-0.0823736
0.0419188
-0.00242931
0.0270966
0.0126984
0.551163
0.585709
0.650006
0.413902
0.536543
-0.00051186
0.617506
-4.57783e-05
8.87665e-05
-0.0651665
0.664698
0.0671001
0.320625
-6.54646e-06
-0.00294188
-0.0325348
-0.0454504
0.541915
-0.000933224
-0.0104326
0.415065
0.00140172
-0.00573347
0.716544
0.0631441
-0.0495732
-0.115577
-0.000740613
0.129763
0.203762
0.747082
0.170284
0.0998737
0.00592384
-0.000327545
-0.00134985
0.245374
0.00901508
0.000171583
-0.0761648
0.303434
-0.00201546
0.559619
-0.0921356
0.565035
-0.0181803
-0.03063
0.626843
-0.00721121
0.0985654
-0.00055808
-0.00179337
-0.0874793
-0.0302419
-0.0490741
-0.0130505
0.0220992
-0.0859792
-0.0962522
0.564241
0.00034308
0.00101228
-0.0269787
0.158514
-0.100883
-0.0794125
4.26425e-07
-0.0796674
0.0629667
-0.000147901
-0.10222
0.0467293
0.568874
-0.112069
0.559077
-0.0182678
0.165329
0.309185
-0.046968
0.407504
-0.00233774
0.155673
0.00183155
0.110704
0.249454
0.218865
-0.0375713
0.00821888
-0.000884685
0.223634
-0.000115656
-0.000181209
-0.00140952
0.0176137
0.0234859
0.0199182
0.482167
0.207452
0.69816
0.449428
-0.00206483
-0.0437083
-0.000233173
-0.0631508
-0.0015678
0.0076631
0.000844447
-0.0414289
0.4046
0.555142
-0.000398101
2.73965e-05
0.0914613
-2.06002e-05
-0.0121359
-0.000251637
0.179996
-0.0472566
0.231947
-0.109205
4.60465e-05
-0.0184493
-0.0528364
-0.031582
-0.0217154
-0.0701934
0.0884869
-0.000225542
-4.90967e-05
0.00274748
-0.000191961
0.11214
0.162578
0.0526033
0.651958
0.0591969
-0.146984
-0.116754
-0.000594755
0.0662466
-0.000172859
0.529186
0.125775
0.611855
0.000179909
-0.0429942
-0.00900407
0.0665412
0.277873
0.490939
-0.00998019
0.0470013
-0.00255607
-0.0238526
-0.0105729
-0.00805318
0.134193
0.00207928
-0.0096839
-0.0266806
0.330038
0.0926115
4.09073e-06
-0.00118567
-0.00819379
-0.000814212
0.155559
-0.000894066
-0.0323063
0.196351
9.85044e-05
0.318746
0.000111525
-4.3895e-06
-0.114149
-0.0201594
0.000211381
-0.0295526
0.000210837
0.637264
0.0163076
-0.0319931
0.593141
0.157785
-0.0414179
0.474662
-0.00365161
-0.0024815
-0.00276106
0.112164
0.783966
-0.00198107
-0.000808616
-6.27353e-06
0.0102755
-0.00166362
0.0328693
0.00800572
-0.027525
-0.0778243
0.0241579
0.0141499
-0.0243954
-0.000722873
0.00979064
0.476781
-0.00239315
-0.0180538
-0.000313841
0.483168
0.0722331
0.471401
0.000559726
-0.00113275
-0.0309051
0.653259
0.180408
-0.0370411
-0.0001805
0.0411029
0.148936
-0.0165027
0.252074
-0.0628971
0.0267382
-0.152822
0.490584
-0.0199522
0.299482
-0.00417052
0.745809
-0.054093
-0.0144165
0.60085
-0.0563822
0.202487
-0.1663
0.222406
0.00839691
0.0644189
0.387972
0.0639573
-0.0633941
-0.0126871
-0.00979161
-0.0129812
0.0206582
-0.00190176
-0.0731793
-0.0371622
0.00258123
-0.0866727
-0.108956
-5.38632e-05
0.197909
-0.0119279
0.209332
0.608155
0.442285
-0.0706482
-0.0932895
0.000588608
-0.0857566
-0.00538248
0.722355
-0.0461669
-0.0397349
0.436367
0.0611277
-0.0513792
0.297887
-0.0483839
-0.000859101
-0.0153389
0.0131084
0.000852897
0.457352
-0.00356579
0.173487
0.412721
-0.00750216
0.286268
-0.117361
-0.000500285
0.00873991
0.126695
0.423747
-0.00333194
0.11314
-0.0912314
0.0962867
-0.0299424
0.445231
0.0189647
-0.0534196
-0.00376686
0.000234553
0.556127
-0.00322948
-0.0341251
-0.000149347
0.25079
-8.86136e-05
-0.0571164
-0.0013756
-0.128216
0.000842368
-0.0130764
0.25957
-0.00511368
0.00120439
0.000813631
-0.00538876
0.091081
-0.000111384
-3.52839e-05
-0.0111329
-0.0138003
-0.0292884
0.0105796
-0.00252115
0.0950986
0.0996465
-0.00168435
0.00132331
-0.000271554
0.549345
-0.00553062
-0.00901287
0.483659
-0.0238711
0.450453
0.0694036
0.564133
0.274676
0.143368
-0.00197464
0.00192216
0.102071
0.0309437
-0.00573763
0.000237998
0.0109798
-0.0665806
-0.00126566
-0.0108712
-0.0105012
-0.0117994
-4.27498e-05
-0.00430148
7.79641e-05
-0.000103441
0.0011289
0.398315
0.267842
-0.0144576
-0.00370194
-0.0665676
-0.0272253