/*--------------------------------*- C++ -*----------------------------------*\
  =========                 |
  \\      /  F ield         | OpenFOAM: The Open Source CFD Toolbox
   \\    /   O peration     | Website:  https://openfoam.org
    \\  /    A nd           | Version:  7
     \\/     M anipulation  |
\*---------------------------------------------------------------------------*/
FoamFile
{
    version     2.0;
    format      ascii;
    class       surfaceScalarField;
    location    "18";
    object      phi;
}
// * * * * * * * * * * * * * * * * * * * * * * * * * * * * * * * * * * * * * //

dimensions      [0 3 -1 0 0 0 0];

internalField   nonuniform List<scalar> 
44078
(
-594.992
670.154
-75.1623
1069.03
-1076.08
7.05011
-334.332
381.047
-46.7156
222.038
-257.916
35.8779
-498.064
498.064
215.799
-260.83
45.0312
-383.576
371.586
11.9903
31.3652
-568.901
537.536
664.461
-833.945
169.484
-1009.37
1102.33
-92.9562
561.001
-151.312
-409.689
-533.398
535.574
-2.17588
-687.698
582.59
105.107
-859.806
868.864
-9.05759
278.849
58.9082
-337.757
384.762
-10.1298
-374.633
814.405
-666.908
-147.498
-417.742
414.501
3.24153
160.649
314.813
-475.462
289.571
-355.792
66.2212
-593.911
81.7032
512.208
724.809
-60.348
49.3163
-383.648
136.397
-489.1
352.703
210.227
-86.0751
-124.152
1072.39
-3.35469
659.743
-680.867
21.1241
-296.166
28.7677
267.398
314.548
-35.6995
-443.595
543.828
-100.233
956.171
-247.08
-709.09
-681.72
769.452
-87.7317
249.752
-221.444
-28.3073
481.446
-74.6238
-406.822
100.995
-397.161
262.228
-430.992
168.763
451.363
-599.958
148.595
290.8
-41.2588
-249.542
825.759
-980.856
155.098
1063.66
-237.902
-1018.34
1035.83
-17.4825
399.298
-87.7499
-311.548
704.072
110.333
184.789
-311.614
126.825
1228.49
-777.717
-450.772
-591.047
147.452
536.45
-538.678
2.22781
230.479
645.566
-876.045
225.929
537.167
-763.097
-106.527
557.89
-387.633
179.082
208.551
-9.58363
-225.803
235.387
-673.676
-8.04399
237.5
-21.701
423.396
-38.6338
-281.528
-61.572
343.1
523.848
-499.375
-24.4727
-34.3332
-559.578
-465.629
45.9746
419.654
-295.02
-34.9339
329.954
799.486
17.579
-817.065
-409.145
569.794
-15.7362
-241.386
257.122
-221.489
483.717
-348.386
456.957
-108.571
255.424
213.537
-468.961
494.742
-121.594
-373.147
429.19
-50.2313
-378.959
-431.929
-17.8485
449.778
-986.816
-31.5288
1067.26
5.12669
326.184
253.63
-579.813
-245.538
548.122
-302.584
187.805
50.1747
-237.98
-430.73
380.747
49.9829
-386.748
389.228
-2.4798
301.549
-157.573
-143.976
-250.208
-58.802
309.01
-699.28
16.5336
682.746
405.168
-86.8521
-318.316
-250.602
250.602
71.9439
-763.026
691.082
-665.88
70.8878
-947.213
848.237
98.976
-318.716
-64.8598
-40.8912
227.623
-186.732
531.976
-123.615
-408.361
-644.448
-43.2498
652.351
-69.7604
94.7577
82.0471
-176.805
-358.236
96.8839
261.353
-306.765
56.5562
847.186
-621.256
577.584
-604.281
26.6967
220.205
-92.2433
-127.962
-385.12
154.187
230.932
-28.9429
256.705
-227.762
-846.774
847.604
-0.829291
-35.5051
-155.539
191.044
282.186
10.1593
-292.345
-711.439
12.1592
-263.218
281.487
-18.2693
778.721
20.7645
430.857
-641.257
210.4
203.631
-213.214
-764.383
829.278
-64.8952
665.881
-714.851
48.9702
74.6279
577.723
943.831
-846.98
-96.851
-210.536
242.449
-31.9128
195.821
53.9303
352.215
128.186
-480.401
1009.1
-256.887
-752.213
17.4212
564.25
-581.672
-12.3154
-587.7
600.015
541.396
-215.212
122.8
427.916
-550.716
-302.777
406.344
-103.567
76.7229
-814.822
738.099
-700.182
454.644
-13.2697
-202.246
215.516
25.2445
-861.349
836.105
-317.282
332.473
-15.1918
-20.8339
276.258
23.983
-891.039
867.056
-368.402
349.089
19.3132
-91.0379
-326.704
18.5446
-292.916
274.372
705.344
-787.228
81.8837
726.061
-860.292
134.232
-157.981
342.77
177.234
124.315
216.176
-209.461
-6.71488
295.304
-319.539
24.2351
-133.622
564.479
629.858
326.312
158.954
92.2653
-251.219
274.403
-313.398
38.995
207.899
-251.012
43.1134
-30.9854
313.171
-355.933
-12.4688
1.89121
-184.08
182.189
218.729
-57.7711
-160.957
181.125
827.975
-198.073
-739.273
937.346
-101.09
-396.973
522.961
13.489
233.662
-223.149
-10.5129
273.879
-212.549
-61.3295
8.68054
-224.285
215.605
-396.411
638.982
-242.571
47.4693
513.023
-560.492
984.13
-886.677
-97.4533
790.852
-787.079
-3.77254
-561.43
-248.453
809.883
-145.535
722.046
-576.511
453.14
-443.109
-10.0307
-248.345
6.79578
241.549
6.63291
-750.23
743.597
-179.623
-208.01
-244.111
230.734
13.3772
241.177
-19.1389
33.0201
1020.86
-572.447
-448.411
735.192
-933.265
-397.802
95.0246
11.3392
207.389
16.5526
-778.305
761.752
-90.3639
-856.849
416.045
-451.32
35.2749
-106.789
832.85
52.7322
-736.727
683.995
-234.583
-13.7619
274.403
13.7767
242.741
-256.518
-431.981
431.981
82.2392
680.331
-762.57
-312.238
49.0208
-580.011
597.432
336.79
-306.425
-30.3655
-777.829
-63.2667
841.095
-153.028
452.072
-299.044
456.878
75.0979
429.857
-441.657
11.8009
263.665
-55.7665
-197.83
-344.019
541.85
500.082
-380.842
-119.24
-327.695
19.7627
307.932
786.18
-80.836
-519.191
-81.3025
600.494
-661.022
661.022
-131.489
504.908
-373.419
96.374
-322.265
225.891
-920.265
358.834
305.892
-356.532
50.6395
436.471
16.6684
793.341
-463.327
-330.013
928.626
-78.5024
-850.123
74.1008
146.105
-847.514
614.61
232.904
-31.7456
275.002
-243.257
-205.422
222.643
-17.2209
-45.6559
-487.742
875.469
-890.335
14.8662
-75.6294
429.066
-13.0206
789.149
-794.255
5.10597
244.27
-10.6078
28.6914
-239.228
822.121
-963.805
141.684
271.199
-339.335
68.1361
570.479
-570.479
899.936
-93.2235
-806.713
594.122
73.1012
-667.224
62.4193
-330.433
268.014
-207.578
278.717
-71.1387
-477.529
324.502
52.4048
736.744
-392.791
529.188
249.259
-175.158
-684.125
-176.168
484.921
-630.456
453.268
-500.78
47.5116
-905.171
1041.3
-136.126
-579.359
555.441
23.9183
506.657
-581.776
75.1197
129.684
739.656
-869.34
211.198
530.816
-742.014
723.353
505.136
322.473
741.188
321.504
-231.225
-90.2793
-293.216
293.216
370.565
-401.454
30.8886
-27.5067
1094.77
268.646
-321.953
53.3065
531.017
-483.548
-297.429
-562.377
551.418
-564.874
13.4562
-29.0711
904.54
257.568
-289.313
-230.349
198.261
32.088
498.791
-587.494
88.7025
-197.552
959.114
-761.561
588.555
-81.8986
772.265
-382.595
-389.669
337.895
-48.3238
471.981
548.877
-215.109
174.218
-743.838
59.7136
-942.189
37.0185
477.278
46.5696
-679.968
891.166
-703.309
-61.0746
184.1
-202.411
18.3111
-73.9968
915.27
-841.274
-38.0575
-817.79
855.848
180.505
-178.614
54.4294
164.992
-219.421
-7.6242
-365.816
373.44
327.296
-308.751
-612.049
215.637
-266.781
460.825
-194.045
908.565
-678.087
303.592
17.9124
291.826
10.1638
-301.99
-562.625
186.2
376.426
459.829
-29.9726
538.662
-736.492
-373.384
-13.3643
646.337
-746.157
99.8207
-188.299
138.425
49.8743
-656.074
638.908
17.1655
228.867
-215.09
71.1651
178.094
-744.002
826.241
-333.65
328.707
4.94348
67.9579
-362.367
294.409
253.409
-205.631
-47.7775
525.94
-328.316
-197.624
10.3194
-346.106
335.786
-496.899
484.584
-78.9635
304.452
-225.489
-662.609
160.883
501.727
-356.876
-28.2438
653.697
6.04649
444.517
-21.1205
-185.245
36.9568
148.288
-22.0038
732.22
-710.216
-861.187
990.871
319.382
-152.048
-167.334
677.298
-775.074
97.7763
425.394
346.87
706.178
59.7984
-765.976
818.108
81.828
560.172
-536.406
-23.7653
1093.73
-1012.33
-81.4081
2.72802
-293.034
290.306
296.389
-4.56307
70.5838
139.643
214.174
2.00236
196.662
-196.728
0.0668411
140.017
150.847
-290.864
-302.42
282.448
19.9715
-169.458
-295.205
464.664
418.767
-550.256
-317.376
197.678
-189.804
-7.87408
190.098
1011.12
-573.874
-437.251
525.675
-109.067
-416.608
157.895
507.986
79.4894
480.682
19.5084
-697.998
715.197
-17.1991
42.9386
-545.875
502.936
-97.0833
-245.089
342.173
-447.919
38.7935
409.126
-140.253
-335.838
476.091
779.985
-1.26353
24.6373
185.812
-382.139
196.328
176.481
-255.444
-920.927
849.84
71.0873
-292.963
305.323
-12.3597
675.133
-88.3871
-586.746
1047
-603.802
-443.198
195.99
-188.896
-7.09446
231.271
-119.747
-111.523
-420.391
417.707
2.684
662.316
-30.7495
-631.567
-696.175
-1.82278
377.704
27.4642
-581.802
460.402
121.401
584.826
-577.903
-6.92246
-855.761
44.4098
811.351
856.376
33.1976
-889.574
-424.208
283.956
-206.067
20.8224
-323.739
538.512
-214.773
-175.261
-55.0873
754.992
-793.05
-138.712
193.142
551.608
-179.173
-372.435
-123.395
-308.586
216.079
-216.471
0.392356
619.571
42.7452
683.333
-608.705
24.2057
-301.467
277.262
837.979
-876.566
38.5867
-317.84
11.4156
958.357
-961.334
2.97663
44.1227
224.667
-268.79
680.169
-33.832
571.171
-592.191
21.02
-828.362
853.607
194.162
-207.432
786.578
212.018
747.095
183.812
172.726
-356.538
-295.817
-6.22166
835.051
-83.4638
-751.587
585.949
-137.681
-448.268
251.618
-72.5357
79.866
414.876
71.4577
-279.036
473.729
-503.764
30.0351
141.373
-347.655
206.282
137.496
388.444
67.4393
861.186
653.156
-773.169
120.012
-22.2782
980.635
-265.557
-35.017
300.574
-214.564
218.47
-3.90625
29.7451
158.06
47.9509
452.131
334.711
-342.335
-372.485
24.0991
-342.217
47.1972
838.33
-58.3451
61.6816
-240.875
179.194
-964.361
22.172
-927.978
-36.3831
-486.035
58.8479
427.187
-737.419
906.598
-169.179
-227.366
-31.1115
258.477
-128.285
-75.9349
204.22
-135.262
-68.0297
203.292
-162.817
236.268
-73.4507
853.467
420.971
-235.159
145.593
-11.856
-567.503
-879.851
-41.0764
426.884
159.065
198.432
-522.17
200.8
-1107.16
906.356
20.6954
205.714
-226.41
-2.66965
-202.753
418.037
26.4801
89.0915
701.76
290.371
28.5043
-318.876
-475.154
597.954
728.865
72.7264
-801.591
-780.166
-7.06181
802.815
-856.217
53.4019
311.723
-274.776
-36.9473
85.7026
233.679
850.897
-864.918
14.0205
978.824
-862.143
-116.681
939.319
-943.827
4.50805
-407.976
-173.826
-2.16303
-872.04
565.226
306.814
-179.002
160.622
18.3802
-245.443
385.461
139.413
91.1056
-230.518
756.549
263.525
-279.261
431.516
94.1583
784.034
-699.075
-84.959
-52.356
-126.784
-72.1598
198.944
-305.014
260.787
44.2279
862.782
-838.799
-21.0775
378.481
-357.403
-346.219
-9.71464
572.071
-582.95
10.8785
366.11
-327.158
-38.9522
-828.596
731.249
97.3475
-905.856
831.859
143.249
88.0213
-405.202
276.007
129.195
466.851
-453.4
-13.4508
620.874
-622.614
1.74084
517.983
-44.2538
-343.237
-126.611
469.848
24.4727
-290.029
-66.6274
-248.542
315.169
544.289
563.934
-1108.22
-900.861
849.223
51.6386
0.308741
-404.224
417.877
-13.653
431.089
-399.272
-31.817
673.639
-849.423
175.784
711.851
-883.432
171.581
-501.642
-160.967
-454.282
79.3784
374.904
303.04
-5.96371
-297.076
-327.384
192.122
475.986
85.0148
-719.739
-108.857
11.7481
184.913
-298.767
301.687
-2.91936
52.5657
-359.621
307.055
489.026
40.3341
-529.36
-235.573
300.638
-65.0649
-896.189
-19.6374
915.827
-162.516
-64.5479
227.064
5.92972
-849.908
843.978
804.703
-118.355
-686.348
309.911
144.191
-210.818
-874.869
-21.32
808.764
41.0756
-0.738337
549.825
-197.609
-518.259
-11.0782
529.337
-801.989
913.792
-111.803
313.001
-245.043
-403.047
305.964
-29.8826
590.624
63.0728
382.591
-241.218
280.238
513.102
-12.467
24.4892
341.621
-768.139
69.1936
698.945
456.086
95.3315
-110.847
-54.8998
165.747
-851.801
-23.0683
66.7661
332.532
-190.553
228.887
-38.3344
43.5351
-279.108
-272.316
286.263
-13.9472
-17.5259
23.7336
-512.112
488.378
-611.696
-134.461
-19.9712
299.713
-279.741
-331.883
460.069
599.383
447.617
-1102.78
430.491
672.294
328.774
0.259468
-329.033
-203.788
-193.677
397.465
-524.15
555.515
-661.265
-19.4264
680.691
99.419
83.7911
-183.21
-44.2553
799.248
839.435
-862.733
23.2973
807.398
-154.241
35.15
-604.051
-322.634
-23.4717
556.779
57.7174
-614.497
437.152
22.6771
-348.546
391.012
-42.466
-853.969
-3.70939
857.679
-27.8208
-823.98
303.732
-283.621
-20.111
625.215
-4.34156
584.289
-417.513
-166.776
-211.85
288.343
-76.4932
-81.079
-291.406
-418.994
-46.635
896.301
-184.45
-826.573
89.1538
-629.176
17.4799
-537.998
48.3049
489.693
820.546
-39.6229
-780.923
-273.95
111.132
2.77777
-356.214
353.437
863.139
-189.5
306.083
-3.04333
636.748
-65.5772
494.246
-5.21959
801.333
-712.242
-1045.14
-57.6424
444.465
22.3853
538.572
39.0124
723.344
-716.711
796.517
-38.6872
-757.83
190.311
-225.816
273.02
-12.2339
-117.728
208.121
-199.441
474.887
15.3305
-490.218
575.626
-94.9382
-480.688
-458.324
421.384
36.9398
128.827
672.506
8.78252
-69.6714
-779.164
848.835
68.6312
-673.712
605.081
223.658
-301.609
77.9505
-728.343
658.672
91.6905
713.013
-504.412
1048.7
236.915
-175.233
-281.085
-188.747
231.195
-42.4479
202.963
-262.925
59.9622
-178.749
318.162
-8.43691
-337.782
-50.9971
4.8566
-409.721
404.865
-47.4964
-161.32
-194.472
-27.9449
365.425
-337.48
-870.858
944.46
-73.6019
45.4752
-527.95
482.475
52.2942
-266.858
-755.7
105.987
649.713
344.667
-243.672
819.408
1.13845
-8.92066
221.612
-212.692
443.739
140.55
-121.623
-332.659
816.242
-201.632
-95.2283
-914.143
606.119
-352.489
134.095
53.7168
656.918
-584.974
494.624
-13.1777
340.783
-34.8908
338.538
-420.861
82.3236
225.12
-270.069
44.9491
50.8575
245.983
-296.84
335.737
-505.195
-5.95706
761.956
-806.211
537.426
-62.5385
-107.712
739.216
-631.504
-268.409
301.969
-33.56
-69.8258
293.484
200.439
-189.1
-279.483
11.0738
-1066.86
592.231
474.626
-35.832
-77.5796
172.337
-308.116
293.742
14.374
-675.989
692.541
267.372
-272.112
4.74062
-482.313
187.107
-507.364
-559.493
236.43
-277.689
847.158
-946.588
99.4304
-343.042
20.4077
488.28
-626.191
137.91
-2.78401
811.548
246.606
-280.674
34.068
-301.35
-570.689
-37.1307
292.504
-25.1324
356.077
-116.735
-239.342
-20.3822
-849.139
869.521
-870.305
464.21
406.095
-55.4822
735.813
-460.15
41.1558
-153.123
-136.873
289.996
879.63
-832.166
-47.4644
390.431
-323.665
797.72
5.09539
107.785
80.586
-188.371
-580.552
1024.4
-443.845
143.05
-190.936
47.8861
-759.016
-144.967
903.983
132.399
223.677
853.501
-31.3795
813.469
-736.746
501.471
-421.605
7.3676
-248.753
67.1146
151.556
-218.671
306.211
243.614
-21.0422
-1098.2
619.196
479.003
8.67468
891.72
-60.5389
-831.181
-430.485
622.138
-191.653
57.1274
756.342
21.6634
-539.922
-590.497
-18.1841
608.681
431.472
143.53
-575.002
-264.777
-522.302
278.327
62.4561
-175.622
-74.9801
-405.751
352.317
53.4337
-781.332
318.004
199.785
-260.649
60.864
218.79
-257.518
38.7281
429
-424.143
732.447
53.2981
-785.745
-201.633
46.094
826.711
20.5952
-847.306
-369.742
25.3253
344.417
118.639
860.185
-407.565
453.54
410.922
-72.3845
-954.591
99.7432
854.847
789.129
102.59
-32.6158
257.736
50.1122
380.977
906.624
134.673
23.4729
-483.623
28.8213
-827.181
798.36
700.923
-771.921
70.9975
636.358
465.969
769.004
-56.0308
-712.973
192.213
-49.1624
76.0559
339.186
-415.242
-735.265
792.392
283.348
173.609
-244.359
167.748
76.6104
-111.244
-426.756
538
-31.4888
-212.622
1004.42
-573.93
53.5528
-280.918
204.405
-213.326
-105.404
-152.512
30.8018
820.095
-171.343
507.08
-606.21
763.08
-156.87
691.066
-713.069
-397.8
386.722
-443.04
-179.574
39.2701
348.628
-14.6494
-333.979
-46.2929
808.249
-505.251
-623.37
1128.62
287.287
-240.875
211.932
4.32891
196.11
-227.227
141.152
-885.361
909.031
-23.6695
-279.22
254.978
24.2416
72.8065
711.227
3.36247
765.641
634.968
-15.3967
-14.9737
-510.901
471.954
38.9467
933.098
17.1502
-950.248
-316.849
-52.8933
0.137834
-237.631
803.166
-70.7192
529.008
-623.052
94.0444
-762.162
-84.6122
33.5598
278.164
895.945
10.6794
-490.249
440.436
49.8133
-950.463
-94.6797
42.2909
-399.418
357.127
-203.39
237.237
-33.8462
249.815
-46.8518
-39.4691
1050.29
-313.212
-737.076
579.534
-50.5258
60.2745
-261.428
-69.0049
-698.692
789.506
-90.8147
-56.185
-19.4793
238.269
504.562
-5.77042
92.7858
-870.614
-87.093
209.26
-122.167
-200.179
213.917
-13.7379
-681.776
570.532
-455.106
478.839
343.536
46.8954
-459.687
424.376
35.3109
559.322
451.803
498.159
-459.761
-38.3977
490.799
-312.264
-178.535
-206.045
48.4714
349.379
-20.9081
-328.471
-234.558
45.8106
-294.044
273.21
-219.052
-636.709
-691.65
-81.5182
258.304
-58.5193
666.388
196.751
7.01994
223.714
817.088
-83.727
-733.361
328.301
-141.962
646.848
-504.885
257.787
-288.898
-93.5777
525.05
-751.102
7.10062
-90.6242
-97.6753
500.009
-97.6835
791.261
-693.578
-194.459
224.772
-30.3122
-38.1885
-241.031
829.586
-737.895
219.113
-429.936
-411.76
841.695
865.931
-199.542
-44.948
796.869
-751.921
597.292
-6.66795
17.6004
-608.098
278.851
145.525
-424.376
-403.788
479.844
-24.2102
-315.026
339.236
-616.371
65.0071
551.363
-145.256
528.072
-382.816
-482.189
408.203
-482.344
74.1415
104.647
-173.56
68.9132
-166.229
350.041
-179.613
-193.771
735.354
-34.431
102.229
581.104
-610.978
648.741
-37.7632
269.216
-289.187
-810.961
-51.7717
96.8613
-432.7
590.118
460.17
-615.742
172.702
422.061
-851.997
402.331
-681.854
28.6461
653.208
-222.182
264.605
-42.4224
-816.303
886.696
-70.3931
-47.7748
-432.054
479.829
1005.36
-405.639
-599.721
-67.8728
-788.344
4.9932
298.738
-950.457
207.432
743.024
-857.688
-92.7683
-170.637
-8.36482
-777.771
731.478
-136.12
-298.918
435.038
-9.53967
-269.123
278.662
160.183
647.215
248.566
156.2
-404.766
-902.864
154.566
748.298
541.112
-580.868
39.7561
604.527
58.5837
-663.111
-45.197
673.539
-639.902
-33.6373
352.418
-23.6441
-34.7438
234.058
-199.314
608.467
65.0726
13.0216
-793.188
721.532
-777.563
-180.367
247.482
327.182
163.618
146.671
-326.284
201.528
-204.813
3.28498
338.981
-198.257
-140.724
592.202
42.7652
-748.715
801.46
-52.7453
-425.022
-92.221
517.243
-8.5461
-290.221
266.223
58.069
-324.292
245.611
-97.2114
-148.399
418.167
-465.942
-61.7139
-740.275
-410.373
112.758
140.651
526.304
-454.131
-72.1734
-231.583
252.278
-198.307
191.257
7.04983
36.4081
-246.676
210.268
-321.578
378.297
-56.7184
216.93
-18.0399
-198.89
450.464
554.897
-258.082
555.395
-473.692
137.536
-199.131
61.5947
-196.562
-18.7447
215.307
701.256
-96.729
237.143
-165.978
-357.197
272.57
84.6271
-424.305
-31.1891
455.494
-351.841
448.703
307.484
-323.448
15.9644
-15.0372
28.7503
472.721
462.624
35.5341
49.3546
-473.66
206.462
-8.20145
-335.664
-7.37816
-367.99
297.929
70.0611
340.765
-62.4377
675.337
220.964
-239.552
275.96
-286.219
305.982
114.284
655.539
-769.823
-737.599
-25.1321
762.731
24.0727
182.151
16.7729
-338.351
-690.63
621.065
69.5643
117.589
-192.108
167.387
24.7211
433.131
-154.28
-242.899
-183.976
426.875
-162.943
-347.958
217.993
-16.4656
-277.927
124.804
95.2611
-182.354
-1009.53
696.316
-347.016
347.016
851.476
242.258
-35.1857
-509.086
-500.442
208.452
327.122
527.95
42.5289
544.551
-50.3051
279.504
-258.435
-21.0694
-629.326
662.131
-32.8046
-50.3254
-531.901
-48.1103
-637.196
729.598
-92.4017
83.8036
-492.948
-352.753
539.345
5.20557
535.817
28.3535
-564.17
749.215
-646.939
7.03705
-104.697
-83.8521
188.549
-394.548
100.505
309.677
-31.7735
-277.904
-143.768
-62.2994
-300.115
287.955
12.1592
-302.844
90.994
870.753
-195.416
-337.345
44.4282
769.076
-2.14097
-766.935
584.139
-658.887
74.7478
-922.864
830.383
92.4807
-22.6648
-638.6
110.286
296.058
-22.0016
-260.426
282.428
-798.777
35.7516
-202.11
-288.392
266.39
-465.996
511.471
-252.84
274.667
-21.8275
-299.951
300.845
-0.894509
-813.199
705.487
995.972
-148.814
-176.102
307.142
-263.02
360.435
-187.708
427.863
-317.436
-110.427
285.813
54.9522
816.985
-86.2643
-730.72
184.586
-681.486
-760.045
678.11
81.9352
5.96869
-617.019
624.808
-7.7892
61.5034
175.639
-102.36
521.128
-267.308
305.835
-38.5265
378.896
-458.006
79.1104
-608.552
649.096
-40.5444
586.042
43.7834
-629.825
249.321
-218.908
-30.4136
557.052
-25.6046
-531.448
200.768
-91.8407
-108.927
-103.126
-44.1106
147.237
958.595
-949.253
-9.34198
-575.49
-388.315
-45.7314
-758.668
804.399
-897.631
834.364
-599.403
369.162
230.24
605.046
-623.23
-12.1962
676.045
-663.849
49.8028
119.297
-169.1
-71.931
-287.69
-855.986
-66.8782
15.4676
365.279
334.046
-739.686
207.36
-0.897682
-226.133
226.133
396.266
-112.659
-283.608
-911.337
25.9757
-2.73895
-22.9594
-480.795
503.755
-753.791
-80.5344
486.706
-406.172
-252.381
-408.641
431.445
-10.0608
-51.0833
256.798
154.058
184.922
-547.758
396.446
-169.243
417.809
338.294
-52.4809
763.325
-710.593
-283.491
-5.83223
270.188
-946.902
-3.5613
5.61553
927.482
532.487
-448.683
-844.778
576.274
268.504
10.0177
256.7
-266.717
350.327
-9.65641
-340.67
-461.352
30.8667
-835.586
749.31
86.2759
-125.473
-191.376
219.124
40.7069
-259.83
212.798
125.495
-800.987
17.7721
-583.337
334.113
249.224
42.0901
253.214
360.547
-324.331
-36.2162
-395.665
406.872
-11.2073
847.406
-513.36
-454.89
312.928
-319.674
189.929
129.744
423.371
-720.801
568.329
-27.2171
811.239
-807.877
81.8253
118.942
-830.205
814.121
16.0834
-795.095
46.3806
-472.164
-527.849
1042.66
-186.28
931.089
-835.187
-95.9011
-521.121
-463.312
984.433
-48.1569
-254.263
44.1603
224.39
-229.666
5.2766
-21.7239
-56.0601
733.358
470.267
-36.8496
-433.418
-351.85
-210.775
26.1723
-67.2494
-272.086
-161.669
433.318
-271.649
-926.78
926.78
92.469
-795.273
465.26
-510.513
69.0809
441.433
-211.001
-194.202
178.073
-170.492
-377.266
-558.533
388.041
607.293
55.7654
189.845
432.501
-928.168
495.667
-37.5703
327.942
-224.754
-261.282
-213.006
427.822
-100.641
-179.73
-139.943
-65.4751
-835.386
452.396
-517.964
65.5684
17.9742
-702.15
784.043
-81.8927
415.698
-419.798
4.10042
245.059
-566.851
529.697
37.1541
71.8492
133.189
-205.039
192.863
-227.607
378.943
-708.781
329.838
110.535
758.329
151.018
245.248
-68.5445
-492.012
469.053
291.859
-305.972
14.1129
416.282
-37.3862
353.692
-381.637
-21.2099
-367.433
388.643
-37.2539
-282.285
328.937
11.488
-340.425
-435.359
273.69
-387.025
38.2668
631.166
-749.522
-409.575
531.219
-312.439
-91.7848
976.639
-866.104
-492.776
-312.284
805.06
292.362
36.0925
290.533
-326.625
-437.805
150.742
-276.215
-51.6286
450.574
-563.699
113.125
47.4164
613.606
-198.446
93.7488
338.548
-296.457
708.74
-329.797
271.377
-174.494
23.6307
364.587
-388.217
-27.5057
-292.999
-8.46817
-252.867
249.479
3.38806
2.48926
561.524
-539.86
47.9899
-891.585
113.281
800.715
-2.99521
328.542
-115.744
525.493
328.7
-854.193
598.389
239.941
675.85
-773.534
-756.957
105.837
651.121
286.965
61.3953
-348.36
183.803
-176.424
-7.37852
32.3247
274.662
572.942
-207.044
56.1259
150.918
-156.666
-607.061
763.727
-337.391
363.895
-26.5047
-271.17
289.342
-18.1717
-147.644
-174.309
-254.745
208.57
46.175
920.099
-920.099
-87.1468
727.01
-639.863
293.455
-207.752
344.17
-68.1628
-658.134
188.538
26.9565
-215.495
29.5909
-588.962
559.371
38.5884
-262.621
224.032
908.475
-914.127
5.65211
301.287
-674.628
373.341
359.153
-316.862
51.0214
309.525
-350.74
876.233
556.89
-106.315
-72.2907
-241.108
-399.604
319.395
80.2094
223.518
-345.113
330.396
-500.112
169.717
-262.742
40.5604
-873.303
-73.599
33.1753
-735.325
332.755
-178.568
796.376
-773.257
-23.1186
431.047
56.7251
-487.772
-685.487
610.618
74.8687
-263.397
214.824
48.5729
319.526
-27.6665
-426.054
-254.813
882.298
-837.718
-44.5799
-357.503
658.79
124.211
-549.233
-865.013
11.0442
-53.6886
-605.486
659.174
45.7236
-140.818
-103.54
-920.789
389.632
531.157
188.205
3.05217
449.115
-33.4174
543.45
275.474
-269.286
-6.1884
-333.643
-5.82372
339.467
-560.674
454.146
7.02196
-226.311
219.289
229.332
-40.7939
-101.728
368.788
-267.06
-353.849
5.30299
434.109
-9.73296
56.4958
-813.43
756.934
-664.26
664.26
74.9003
182.886
-93.2944
-506.115
599.41
-854.493
938.118
-83.6252
741.141
55.2347
-14.1168
-834.57
848.687
323.356
-340.515
17.1592
324.411
13.3212
-337.732
584.798
-636.774
51.9758
46.9998
317.142
-364.142
-219.418
-121.237
340.655
192.595
-8.79209
107.844
-711.138
603.294
-760.033
267.257
347.86
-311.767
793.728
59.7723
-77.2862
-433.227
340.688
-390.919
-681.923
102.879
579.044
324.197
-285.8
-38.3963
-530.439
616.187
-85.7478
-81.6855
-362.741
444.426
406.527
-382.037
-615.549
-305.24
617.386
-721.046
103.66
-408.618
-436.16
837.865
-39.7051
-645.782
110.967
474.474
-585.441
563.549
-644.712
81.1637
42.5329
-255.082
11.1115
-692.966
-318.698
321.475
-4.35743
570.452
-692.691
122.239
-344.48
-430.594
1.73592
-685.567
697.893
-12.326
763.059
-164.67
645.318
-102.698
-542.62
225.325
300.979
286.52
-295.883
9.36279
807.725
-935.864
128.139
-658.363
-98.5947
-309.231
41.9229
-330.209
69.9278
260.281
-55.7944
640.593
98.3308
-268.493
170.163
357.017
-335.14
-21.8774
-357.926
-225.411
-20.4518
204.552
-33.3309
-169.08
228.438
144.921
-373.359
-270.794
318.738
-47.944
590.623
-683.917
22.3069
287.37
-284.286
-45.9228
-297.784
-301.618
-711.308
540.738
170.571
-111.989
-148.841
-158.135
65.8916
-577.487
536.234
41.2527
576.953
-1098.07
-24.1681
-1016.59
-140.856
371.725
56.0971
-22.0458
-51.3689
-760.191
128.686
855.59
-849.66
617.358
-76.6209
1.85896
589.225
-591.084
-287.327
-162.182
449.509
-54.4304
-208.966
10.5926
190.936
-211.031
20.0953
-999.813
249.583
448.918
-118.522
19.6126
-627.908
608.295
298.938
-364.797
29.4174
335.38
63.4551
573.544
-636.999
-101.742
772.709
-670.967
-669.575
-195.342
-733.792
37.8313
695.961
-30.1434
576.088
-545.945
926.78
-918.048
-8.73158
567.494
-621.182
-611.182
-23.5229
634.705
-394.702
123.908
274.59
-273.166
-1.42401
801.586
-772.764
-95.8156
730.767
-634.952
457.876
14.0778
-433.527
-669.702
604.132
65.5707
399.536
-92.1097
-563.964
-50.946
-10.6294
-399.092
-37.3603
230.907
-193.546
20.4554
327.404
-359.53
363.595
-4.06543
748.163
-793.895
101.532
156.945
211.464
-222.927
11.4628
684.162
-775.242
91.0795
-331.063
-691.087
-7.60516
795.704
75.0489
290.693
120.229
812.787
-17.0825
-30.8752
-1031.05
169.7
3.93348
22.3984
-568.273
152.552
-102.75
-1080.51
-255.893
262.915
73.6703
219.784
-107.468
-467.097
574.565
-2.40621
-477.423
479.829
838.914
-31.1887
570.013
75.3044
-46.9177
-220.402
267.32
748.963
-793.911
-158.537
386.975
-410.318
445.666
-35.3476
-679.336
723.052
-43.7154
295.219
-335.275
13.0098
391.064
-122.928
-268.136
177.832
-511.245
465.879
45.366
4.12472
-460.147
464.079
-3.93195
613.621
-596.021
40.3137
-168.229
599.276
-292.2
57.4242
440.639
40.657
608.029
-648.686
-71.2759
-150.168
210.614
4.2101
32.3905
-388.544
23.7471
-414.711
4.39356
249.528
-251.42
1.89238
711.216
-682.57
-483.88
83.1614
400.718
-42.2007
626.34
-35.0349
-211.641
914.259
-141.747
-772.512
518.883
537.489
-1056.37
-300.249
-11.3642
289.517
4.22499
10.2801
272.168
-694.306
-4.9913
699.297
592.258
-748.925
-216.36
189.755
26.6048
-533.92
-15.4674
-658.245
24.7851
112.751
-136.778
-428.096
-107.802
206.133
20.0737
-640.589
620.515
-38.2891
-497.89
536.179
-263.547
310.547
-69.2397
626.019
-731.064
754.715
-23.6505
217.666
-482.443
262.24
-275.191
12.9513
4.72796
-839.429
26.2302
247.815
-467.233
917.093
-927.662
10.5685
637.517
12.8734
-650.391
-50.7497
-541.442
-807.256
840.453
136.028
-208.188
897.67
-78.2619
237.821
-13.4316
-60.4454
-716.015
776.461
-88.8944
-596.673
-26.6125
562.429
-680.329
21.966
203.917
-237.602
33.6848
-233.807
1.02239
232.785
-557.656
533.496
24.1608
-181.539
78.4128
52.9751
93.0819
-146.057
-880.257
314.406
18.6382
-333.044
54.9208
637.904
-692.825
-338.415
371.243
-32.8279
-657.93
-22.3989
-664.122
778.406
-896.884
127.718
769.166
-143.995
-168.243
-444.222
63.3804
-458.023
-618.061
265.991
-2.46678
-287.247
289.018
-1.77097
164.035
-92.1853
-421.603
393.152
28.451
-954.9
972.05
-311.418
107.605
203.813
106.525
46.0273
524.876
864.667
-885.049
276.481
-42.8017
377.662
-522.919
-789.764
811.597
-21.8331
-348.939
-191.381
540.32
130.136
-169.385
39.2482
425.391
-527.752
753.683
-687.482
-66.2007
-261.309
-38.94
346.328
-80.105
313.29
-290.983
329.482
-652.025
-17.6768
5.61206
633.296
-355.745
112.073
20.6401
-891.498
549.305
-388.423
608.14
368.499
423.126
8.31818
744.676
-805.121
-39.4144
-15.6871
827.285
70.3848
421.043
-499.728
78.6844
234.595
-185.868
-48.7279
-193.869
226.563
-32.6942
-5.69698
340.452
-334.755
-618.146
658.803
426.126
252.926
-214.209
-38.7167
361.139
518.491
312.47
-333.378
718.202
98.7828
81.5079
-604.51
523.002
639.634
-35.5027
33.4238
-930.674
114.122
816.552
199.062
-263.61
-248.758
-793.252
732.273
60.9793
5.15835
814.76
-819.918
933.518
-933.518
-377.179
17.649
602.819
36.8155
-109.09
-34.7242
-190.009
224.734
437.42
27.6725
-465.093
-433.529
19.6964
413.833
188.266
972.172
-453.29
-223.363
37.0116
186.352
-627.499
630.69
-3.19098
447.559
-472.453
24.8945
-430.526
-3.00316
42.0081
-769.725
727.717
-636.149
-64.0325
-548.682
518.391
30.2903
-387.14
306.061
33.6049
-246.02
212.415
-169.55
-141.868
-27.9594
231.332
-20.7184
41.3487
316.657
-288.153
-71.346
791.602
365.355
-50.949
-769.768
32.1683
-890.021
814.44
75.5812
124.404
290.097
362.983
178.412
-757.398
859.072
327.962
194.797
-522.759
-161.86
594.436
-644.008
49.5724
490.905
55.2532
-546.158
646.17
-349.947
-296.224
-487.495
-116.786
-783.062
681.32
24.9144
-688.211
663.297
-711.254
108.493
602.761
-764.727
16.2323
43.3674
508.485
-87.4421
-525.784
354.441
564.525
-594.668
-35.3521
-65.3627
224.945
-159.583
62.7019
-699.898
-230.858
-228.384
163.022
-27.9985
281.413
-109.785
-171.628
173.61
-6.3622
-646.265
715.458
-41.6219
210.697
-169.075
869.863
-630.057
13.0385
142.413
196.135
0.996499
397.41
-398.406
-220.963
-204.634
425.597
180.924
763.536
379.009
-355.378
-843.288
7.70258
626.392
-609.858
-1.39662
-817.438
818.834
589.527
16.0114
-605.538
851.788
46.9349
-898.723
307.606
-6.76006
120.963
-408.289
425.504
8.60574
-254.74
334.422
-79.6819
189.312
381.094
-90.4004
610.795
-54.4267
-556.369
-758.191
785.449
-27.2581
12.0445
656.225
-668.27
-646.71
116.271
-5.7603
-442.164
610.696
34.2693
322.748
-29.4382
185.379
-85.9604
-335.213
1.56957
95.9465
742.967
2.81914
-276.42
273.601
-427.326
-500.842
-57.4315
-757.768
815.199
266.796
-42.1293
189.586
-269.17
79.5841
183.364
-93.811
-219.113
-516.875
-581.324
-792.151
-18.8098
-162.43
-815.75
776.439
39.3102
-34.3155
469.426
-435.11
59.7808
821.333
-881.114
193.508
-140.532
775.926
25.5337
-231.563
196.839
19.7582
-304.902
285.144
575.706
-573.847
-649.667
119.094
530.573
-580.15
589.61
-9.45956
29.3903
257.13
-665.264
-441.892
608.533
45.7875
-654.32
-721.94
606.748
-679.202
72.4543
-138.597
-68.4474
449.89
-484.224
-846.986
852.144
107.739
-307.997
-588.887
-642.312
593.227
49.0851
177.595
-72.9479
-43.1339
462.347
183.823
-574.417
62.305
514.347
-526.784
12.4368
73.3282
-717.644
644.316
265.833
-16.3046
-309.697
165.14
144.557
-575.888
604.242
-135.245
484.994
-349.75
681.393
-86.9574
-0.150593
-316.48
316.631
-447.054
-442.737
889.791
-146.409
257.103
-110.694
-103.087
-578.836
-582.908
428.968
153.94
406.998
-42.7274
-364.27