/*--------------------------------*- C++ -*----------------------------------*\
  =========                 |
  \\      /  F ield         | OpenFOAM: The Open Source CFD Toolbox
   \\    /   O peration     | Website:  https://openfoam.org
    \\  /    A nd           | Version:  7
     \\/     M anipulation  |
\*---------------------------------------------------------------------------*/
FoamFile
{
    version     2.0;
    format      ascii;
    class       surfaceScalarField;
    location    "35";
    object      phi;
}
// * * * * * * * * * * * * * * * * * * * * * * * * * * * * * * * * * * * * * //

dimensions      [0 3 -1 0 0 0 0];

internalField   nonuniform List<scalar> 
29574
(
588.129
-435.487
-152.642
270.997
43.1802
-314.177
949.001
-1140.93
191.926
-395.178
994.336
-599.157
-631.61
671.188
-39.5782
-687.215
55.6051
221.645
-45.7927
-175.852
648.404
-504.301
-144.103
204.597
-288.7
84.1025
87.0552
561.349
-93.1435
262.067
-168.923
-294.106
295.127
-1.02048
-230.607
-22.2541
252.861
34.6803
553.449
620.584
-649.638
29.0544
-965.125
569.946
-319.93
359.969
-40.0398
-92.6612
-1042.19
1134.85
-261.201
229.244
31.9568
305.518
-34.5218
-308.667
294.251
14.4155
-31.6038
-262.503
-507.752
594.807
265.12
-327.838
62.7184
949.001
-351.231
59.1773
292.054
893.21
-977.026
83.8161
338.626
-144.751
-193.875
-160.758
-112.741
273.499
-117.448
-143.753
-592.3
740.698
-148.398
336.187
-281.376
-54.811
413.809
-87.7182
-326.091
555.13
-294.627
-260.503
-716.959
780.475
-63.5167
-730.908
138.609
168.843
-400.105
231.262
932.362
-932.362
785.125
-343.598
-441.528
280.474
455.951
-736.425
1.13877
806.234
-807.373
-325.181
98.2907
226.89
-886.022
732.301
153.722
974.292
-81.0819
-97.2603
-253.971
116.477
72.5383
-189.016
1157.92
-494.034
-663.887
344.653
-247.181
-97.4725
842.874
-30.4364
-812.437
238.745
-227.195
-11.5497
-787.769
70.81
45.3624
-763.17
717.807
-306.899
-128.657
435.556
763.153
-835.285
72.1318
180.047
-402.029
221.982
14.7772
-208.281
193.504
377.994
-107.898
-270.095
694.697
-751.112
56.4156
-62.9795
-291.655
354.635
-87.8316
-232.098
-645.337
401.991
243.346
-50.3052
244.397
-194.091
479.468
-482.032
2.56375
-206.45
-380.377
586.827
-697.644
828.097
-130.453
-714.041
106.544
607.497
543.417
-566.934
23.5172
-650.231
-63.81
-183.548
-357.668
541.216
-107.094
-103.842
210.936
358.891
-555.81
196.919
337.241
-230.225
-107.017
674.906
-54.3219
-269.198
-38.6342
307.833
1062.97
-561.404
-501.566
-87.1628
483.498
-396.336
333.901
-105.999
-227.902
-226.672
15.4147
211.258
944.744
-664.269
591.646
-832.424
240.777
632.038
-525.494
816.742
-193.927
-622.815
308.104
-111.536
-196.568
297.578
-92.9806
133.96
-184.266
-633.039
-252.983
235.801
-281.979
46.1785
-32.0927
134.756
-102.663
-687.824
481.374
112.174
-300.607
188.434
-440.269
731.945
-291.676
738.998
148.802
-887.8
904.459
-130.125
-774.334
174.225
-285.025
110.801
203.932
140.721
423.891
55.5772
250.781
-76.5566
-779.404
789.399
-9.99455
-329.447
236.303
1041.39
-933.33
-108.058
275.178
-163.005
404.374
-415.584
11.21
154.632
142.671
-297.303
471.762
-184.718
-287.044
1251.76
-1251.76
476.304
44.312
-520.616
-7.19135
254.519
-247.328
-490.9
253.233
237.666
265.376
8.93573
-274.312
-299.007
-56.1581
355.165
50.7475
-211.505
178.755
42.8901
393.411
-108.27
-285.141
-269.089
-401.156
670.245
-579.472
492.31
-568.703
-431.37
-422.797
-153.582
576.379
576.675
55.3631
-326.898
5.86287
321.035
-1028.73
239.819
788.913
-170.796
909.795
58.0195
255.255
-313.274
386.603
-639.395
252.793
230.306
-361.888
131.582
132.467
422.663
803.167
-895.829
15.6474
229.196
-244.843
184.631
153.995
243.027
93.1608
110.315
-533.112
-32.6915
-148.444
181.136
23.0429
215.702
861.499
-860.361
289.749
495.376
111.635
-361.46
249.825
272.346
979.411
307.519
-76.7722
-230.747
-276.323
-32.3439
-404.937
35.0639
369.873
98.3125
66.9757
-165.288
294.56
-236.54
32.566
-301.764
184.538
152.704
-298.508
184.268
114.24
-589.98
97.4538
492.526
-134.789
246.425
-312.881
92.0587
220.823
-94.045
-222.551
316.596
8.01627
317.86
-325.876
-765.977
-211.049
127.278
-221.323
226.807
971.75
-67.2911
-227.549
-54.9648
282.513
150.769
665.973
-290.595
-22.286
-754.152
121.113
71.8056
193.314
67.9063
-158.579
90.6727
-8.92429
-221.683
-173.674
353.721
-243.165
197.372
-36.2118
-414.86
-175.12
-205.316
-685.069
890.384
-142.469
110.377
345.095
59.2787
277.312
30.7918
443.122
40.376
-360.236
529.079
361.73
-54.211
-160.726
-155.514
316.24
20.5685
-232.289
211.72
397.413
-442.524
45.1112
98.0114
96.3754
-194.387
44.5347
369.274
-571.682
509.154
62.5281
-537.357
-31.3607
568.718
-441.242
-138.23
2.96538
217.386
-220.352
67.3404
-233.751
166.41
735.576
196.786
341.713
33.8361
-375.549
-62.0563
215.677
-153.621
267.236
38.2826
226.542
-123.497
-103.046
588.659
-229.768
32.0062
1009.38
144.864
206.392
117.469
-323.862
302.524
-286.877
251.184
-402.19
151.006
74.0137
-1007.34
-610.421
426.874
215.983
-148.076
-46.3556
317.254
-270.898
97.0282
244.684
-56.6569
328.064
-271.407
325.37
-58.1344
-6.77871
213.171
264.954
-406.006
141.053
-97.7997
338.837
-241.038
-491.618
143.738
-330.562
186.824
268.037
-374.351
106.314
-310.788
283.98
26.8081
-11.2299
-326.298
337.528
782.024
-736.661
196.396
-181.619
619.643
-634.923
15.2804
411.85
131.567
-852.821
511.449
341.373
-38.6076
302.584
-263.976
-84.5154
-150.054
234.569
-296.042
562.101
500.87
513.847
-513.847
-528.884
-499.848
-271.557
-219.342
900.169
-610.42
-3.95443
267.292
-263.337
-154.93
-283.9
438.83
59.6751
165.34
-225.015
536.239
-976.508
-348.49
292.332
-12.4531
-392.484
351.104
-362.334
-1068.65
499.95
-485.198
485.198
-641.05
-7.07446
648.125
669.152
-282.55
292.553
139.8
-432.353
-329.764
322.573
-215.907
208.433
7.47485
-563.898
844.144
-280.247
306.73
-70.9294
579.694
-103.391
-410.207
249.481
182.727
68.0546
-660.408
505.478
249.717
-355.716
88.0066
-172.522
283.115
109.29
-392.405
352.539
-122.233
-1004.7
-247.06
621.662
-44.9869
-84.4873
289.365
-204.878
558.781
-483.268
-75.5128
-82.5185
783.868
-701.35
-53.2179
896.091
263.649
1.72762
-119.635
179.31
-92.8291
580.484
-487.655
-543.028
199.431
-163.877
9.655
154.222
-139.75
432.304
-56.4696
235.383
-178.914
-68.6911
-256.49
192.147
-93.8347
-77.4247
193.902
23.0053
-250.019
227.013
36.112
454.597
-490.709
710.418
49.3833
-759.801
284.352
22.3779
-83.6465
-159.518
-143.876
45.5911
245.582
-291.173
33.0916
360.32
201.838
-765.736
301.873
-192.577
-89.402
122.518
-820.693
698.175
70.0291
-404.565
-162.368
-301.366
216.716
84.6507
-329.727
-315.61
567.79
-999.16
235.003
-48.5966
-186.406
-67.01
268.694
-201.684
-1039.06
342.799
696.266
-51.4908
381.964
-330.473
324.326
53.6673
-231.907
82.0294
149.878
368.108
-110.829
-257.28
395.859
-144.674
-152.843
295.514
261.208
-214.831
137.554
-204.564
-113.173
630.472
-517.299
752.881
-161.235
-111.126
-381.282
492.408
854.07
-731.552
266.264
-220.673
-22.8308
-337.406
-537.001
70.4449
90.2765
-160.721
374.497
-92.1218
-282.375
-97.8421
193.604
-95.7619
404.692
-139.738
-123.764
-359.259
483.023
7.68377
843.929
-851.613
-776.665
803.761
-27.0954
-239.756
43.7281
196.028
-753.879
439.279
314.6
45.5812
-163.03
-3.36546
176.708
-173.342
-303.502
271.898
6.19878
-230.713
224.514
249.439
-32.0524
183.642
-560.248
376.605
231.439
-208.433
-40.2945
-186.378
-59.7434
588.823
370.913
-81.3807
-289.532
-733.851
741.535
-458.897
364.707
94.1904
460.748
-350.433
481.554
-856.369
374.816
-298.215
-103.814
-726.567
28.9232
-178.588
-53.3194
-645.315
631.488
13.8272
-183.402
351.291
-167.889
324.557
317.84
262.096
-170.204
-91.8916
270.309
-256.129
-498.024
-199.548
-85.4775
270.051
-214.097
-55.9537
-575.084
18.0222
557.062
175.52
-77.5084
1006.25
-1006.25
433.525
-498.434
-540.631
164.226
193.689
-357.916
-496.433
473.602
-331.972
293.338
-325.162
425.777
173.438
-599.215
50.9063
712.247
574.382
-148.606
449.229
-602.812
110.529
210.819
-321.348
-208.921
-215.295
424.216
327.181
69.0674
-396.248
-297.326
-544.638
841.963
492.214
-761.303
393.701
25.4214
-419.123
-1042.19
417.716
96.1311
299.711
-279.142
299.515
-362.495
-11.1192
121.091
-109.972
18.2369
-261.158
-254.535
11.8379
242.697
253.798
16.2534
329.925
-391.981
227.088
-93.1275
-564.045
-201.93
-98.6776
-392.03
-361.849
-979.742
-186.492
1166.23
-494.529
964.199
-469.67
-131.32
-4.42085
135.741
-668.206
636.728
31.478
-254.426
388.091
-133.665
246.675
312.106
2.49431
-210.776
873.972
-912.519
38.5474
438.596
-127.169
225.46
-386.058
168.588
217.471
-258.084
74.3735
183.71
-508.358
-66.7253
135.534
-243.433
364.389
-81.2738
-1134.28
928.965
-571.57
478.741
-98.5011
211.863
-113.362
-77.1347
386.376
-309.241
390.961
-367.02
-23.9413
-371.268
46.921
-210.798
-321.876
704.946
-383.07
-76.2139
-253.233
-89.7224
483.424
4.42928
192.242
-196.671
953.288
204.633
-370.871
-15.1872
174.227
216.734
-372.396
-456.571
828.967
-878.506
384.472
438.673
-950.191
511.518
108.297
-445.071
336.774
-286.871
189.029
-13.9073
468.504
-131.559
-199.003
-429.618
148.241
616.023
5.63931
23.1799
211.823
436.753
-72.0906
-364.663
-113.137
-85.2348
198.372
138.453
242.847
-311.539
9.11413
-108.72
-41.8994
150.62
-383.961
-23.9915
407.953
-26.4103
336.608
-310.197
-102.493
492.955
-390.462
-417.696
393.922
-66.7407
-914.866
832.347
368.066
-323.754
-70.9239
-331.266
-74.6059
-331.401
-655.146
-124.258
-538.238
303.845
234.393
-296.715
66.49
-126.475
123.637
40.6228
200.668
411.597
-612.266
30.1375
-296.062
48.8806
28.5625
299.502
151.033
-259.304
-47.6689
-297.671
345.34
-810.613
796.29
14.3235
230.045
-252.112
22.0675
361.818
538.351
279.214
-390.042
-22.0289
306.381
-724.58
694.144
287.491
-211.244
-76.247
303.718
13.5355
-176.342
-172.086
-310.624
482.709
-213.715
-97.0731
308.315
-400.437
448.213
-571.978
120.015
74.8609
-194.876
205.983
-128.315
-77.6681
278.372
-650.768
164.057
-521.725
244.8
-89.661
-155.139
47.4324
-813.41
-435.452
317.61
-398.991
-594.586
702.883
-515.105
100.245
368.298
-665.624
112.901
-228.712
115.81
-851.364
898.797
-30.1379
-5.59636
811.83
-216.774
215.834
0.940067
-313.346
195.846
117.5
-241.976
-132.376
-61.0988
428.651
-367.552
562.108
-675.282
50.6764
-231.354
180.677
176.468
-125.792
352.137
80.3274
-263.73
175.631
16.5166
-145.463
766.853
107.119
-460.188
173.144
-208.911
176.475
32.4362
190.302
-246.772
-4.08975
190.939
-186.849
-355.96
308.291
-220.802
-16.6904
237.493
-550.777
439.651
212.644
-204.628
-580.79
-64.5258
614.909
4.73348
-324.959
-208.153
172.807
-88.4615
-84.3453
-111.323
-105.075
216.397
177.752
-244.973
67.2214
-44.0898
297.201
-253.111
-225.062
211.657
13.4045
-193.698
-31.364
358.446
78.3078
1000.62
-728.277
-287.878
-315.854
239.64
191.221
33.0346
-224.256
-990.553
809.22
181.334
-367.133
170.013
197.12
-514.664
-150.243
664.907
-158.911
-806.213
-16.3586
-280.945
-473.047
449.055
-101.004
-212.342
258.525
10.1691
661.741
-104.375
-557.367
347.145
-449.638
-159.199
756.227
-597.028
-237.388
-209.801
447.189
-284.867
268.507
16.3605
5.95029
-71.9315
249.683
-117.775
-183.591
-525.486
-12.7512
-16.1494
-90.3229
-744.962
41.2937
-432.205
-215.776
104.453
-286.323
173.582
699.076
253.756
-308.72
163.266
63.2767
-331.837
-10.2273
342.064
-262.512
4.4289
-36.718
-997.291
778.758
218.533
-17.264
225.697
-81.566
270
492.129
-524.585
32.4565
-304.239
-154.658
-360.584
395.648
-45.1565
136.639
-91.4824
1006.16
-824.332
-181.824
41.7546
-588.774
547.02
-27.4551
-123.153
150.608
-158.774
-137.94
487.273
-63.3819
-265.422
512.097
-560.145
123.75
436.395
-211.885
271.062
519.714
-395.321
-124.394
294.123
8.39211
-302.515
-285.366
200.879
685.433
-106.587
-578.846
439.524
-238.856
-433.413
389.703
43.7098
274.35
15.0144
-297.853
-33.9839
-179.747
56.2499
198.747
-500.673
68.0459
432.627
-263.55
259.596
-402.775
376.365
-331.462
-67.4829
-417.716
-460.265
399.166
-530.625
1001.79
-471.162
-119.076
73.9191
-175.741
-191.392
488.219
-50.2407
-437.978
-17.5782
-298.041
315.62
-510.104
564.683
-54.5782
447.624
202.335
-99.9198
-102.415
201.721
-245.811
196.621
-200.711
-309.892
95.7949
475.282
-433.528
-11.6908
-273.177
66.7997
-910.512
910.512
119.008
2.40737
420.404
-422.811
-168.613
182.183
-13.5696
-514.463
305.542
-427.206
72.107
355.099
56.4805
116.326
-511.53
412.082
99.4481
-208.828
436.36
50.9122
308.327
42.0324
-350.359
341.585
-86.3305
-431.42
-51.8484
118.713
-361.082
283.947
337.029
-256.804
-80.2253
-26.452
143.088
-116.636
-979.742
-293.451
-182.755
79.8738
102.881
-346.574
258.856
-428.391
-521.801
242.195
568.898
-811.093
-143.315
-532.791
676.107
-487.417
162.458
-17.124
192.755
213.77
-17.1491
-657.211
640.477
16.7349
87.8826
351.642
297.319
-78.1438
-219.176
-97.9072
-570.993
668.9
-582.129
824.879
-242.75
-592.604
60.8841
-821.203
211.344
609.859
-984.305
431.554
552.751
-290.131
-270.013
-115.501
483.567
-968.569
437.944
-675.579
814.404
-138.826
664.942
-762.849
-211.799
250.587
-227.544
124.298
-799.876
-163.997
-694.504
858.501
685.019
0.414169
501.274
326.823
-94.0341
297.966
-92.7874
88.3665
-152.914
220.656
-601.034
253.928
-226.719
-27.2085
-116.073
344.607
-228.535
-173.009
-123.053
524.143
-32.0138
-290.413
272.834
13.4105
623.318
-703.836
-650.498
-256.421
-244.252
44.5329
217.534
20.5228
496.001
-516.524
-393.871
353.834
40.0372
-141.213
156.628
561.644
440.143
-383.687
-163.94
547.627
175.748
-263.579
-108.619
293.157
-74.8017
-352.405
185.561
-262.334
-231.957
319.839
202.647
-130.108
-450.285
-534.02
-291.189
-11.3458
302.535
-338.045
203.336
134.71
-173.965
178.394
-252.688
-85.3574
225.306
-219.107
248.484
-282.349
33.865
323.174
-85.1443
-238.03
-805.212
646.301
-310.057
-336.725
82.2989
-331.733
357.154
272.289
-69.3924
517.016
177.72
-12.3801
259.789
564.326
-824.115
-193.594
165.819
40.1638
-579.394
407.309
-993.584
308.515
321.586
-816.115
-472.952
-73.0369
545.989
-530.497
452.82
77.6765
280.361
-207.349
38.7363
-659.866
394.443
-41.9297
154.831
-366.422
386.945
131.57
-526.891
-122.096
-36.9001
219.627
-7.9815
276.488
270.862
-81.3831
177.759
779.722
4.1462
296.527
-287.159
-9.36815
-281.075
-80.3847
-83.0848
-35.2278
265.272
719.019
245.18
48.333
221.667
339.889
-90.1717
-57.3124
316.512
-259.2
-459.601
78.3189
494.505
-230.316
-264.188
286.684
-294.666
-15.8542
-674.714
690.568
222.05
-829.374
458.106
-238.929
77.1649
-366.697
-125.454
-404.375
529.829
-125.145
134.8
250.898
-344.932
334.808
-16.9481
-871.384
334.027
90.7388
-373.114
-725.759
-525.705
-464.848
236.171
106.827
-364.106
233.807
-342.426
156.589
88.2113
154.943
-219.314
64.3712
-524.245
164.986
505.736
-923.432
-146.171
57.7096
458.369
26.8296
-574.919
-422.372
17.6467
-598.436
-3.65716
297.78
-96.6903
416.3
-319.61
-108.756
-85.6309
154.488
-234.208
-61.8338
-343.191
376.283
-271.76
-48.5648
320.324
-60.9847
264.32
-291.45
-259.427
241.371
18.0559
43.7555
-255.973
333.138
371.622
-67.4038
-326.468
-23.0096
234.667
203.591
-29.1145
-174.476
-79.9393
-466.521
53.798
412.723
-288.969
-139.294
428.263
187.775
-214.227
341.636
-235.702
57.1147
-193.247
-126.975
320.222
819.663
340.633
-42.8569
-208.379
251.235
-22.5142
-507.983
-291.189
-733.568
342.747
390.821
0.991699
-295.618
-9.15726
252.184
-11.4422
227.276
284.2
-327.774
43.5738
-469.528
-140.893
-541.57
175.34
366.23
209.257
28.2359
237.899
347.972
-611.436
263.465
243.773
-407.434
163.661
-354.773
409.93
-664.237
254.308
999.382
-967.376
-786.071
464.195
-460.434
-108.623
569.057
177.183
119.344
-317.856
578.49
-419.369
-159.121
394.45
-218.703
-839.127
256.998
250.418
244.087
-241.941
83.1667
401.909
-79.3365
178.356
-179.723
1.36664
232.858
11.5387
581.383
-612.744
-500.791
167.805
332.987
72.6596
-365.68
-120.467
486.147
92.5215
400.198
-214.636
265.395
59.9753
-453.408
149.168
313.243
103.07
-416.314
118.25
-216.751
-191.423
-229.27
-206.217
-359.372
16.1813
-28.4651
-628.746
-38.809
232.398
-193.589
-295.356
184.992
110.365
-399.531
-119.53
519.061
-282.774
-65.7168
186.66
16.9309
-352.391
78.5544
182.83
71.4167
-254.247
-265.142
-148.76
413.902
-365.649
-291.753
271.945
19.8082
108.532
-337.547
229.015
162.655
-226.276
63.6206
-35.0459
-124.595
-291.455
416.05
-362.792
231.233
211.62
-440.891
-249.573
107.447
142.126
-466.575
155.951
35.1261
-440.367
405.241
-196.333
-63.0935
186.349
435.323
-361.346
-73.9769
-212.039
200.995
11.0432
-262.121
117.55
144.571
-73.0875
-135.824
-332.744
-119.064
928.284
-213.986
-36.0329
274.71
-475.931
321.273
108.234
-307.173
198.939
-411.94
-142.814
554.755
-472.363
-214.852
220.341
-29.1195
285.837
690.399
-706.253
-49.0687
-272.03
321.099
83.6518
-712.17
628.518
207.951
104.035
-311.985
314.219
-120.53
-238.962
222.603
-362.03
-51.8674
413.898
-710.409
39.2165
671.193
-509.097
-151.311
-96.6249
-306.15
522.931
-42.4627
-774.56
-19.8699
794.43
-207.528
573.057
-365.529
-216.98
476.769
142.944
-508.624
331.18
-120.361
125.49
454.994
-426.001
428.409
-323.781
-153.989
477.77
-523.462
50.5094
313.609
51.0976
15.6789
-254.641
270.881
-77.1096
-193.772
-114.296
-117.981
307.01
-89.8629
-271.219
40.8458
230.217
-298.04
-105.132
403.172
-280.488
355.856
-75.3683
-91.2578
281.56
-336.844
-146.21
483.055
-233.162
103.704
129.458
-134.234
-53.0312
55.1878
-652.144
596.957
-181.184
-252.229
-309.61
-250.638
-333.383
-102.069
-209.243
-86.9392
296.183
415.182
639.764
169.924
-226.334
56.41
171.074
531.809
229.799
41.0819
179.321
-258.434
79.1124
-413.976
-136.801
-525.033
-102.805
373.114
-179.128
316.646
-36.2849
657.6
-152.123
-4.59554
229.901
-239.656
279.376
-39.7196
713.635
-0.0907703
286.775
-601.89
492.296
109.594
222.017
75.3025
204.028
-50.8551
223.024
-321.701
70.4273
-324.398
20.0724
-354.726
356.583
-1.85689
83.2045
-185.868
162.403
51.6031
-320.256
317.657
2.59902
302.912
-351.476
248.954
-21.9409
-380.805
-115.628
-59.545
286.435
11.9598
241.968
300.31
7.52262
-394.065
-110.692
504.757
-76.6258
-150.569
-194.349
-37.0048
52.1194
249.754
257.657
-292.884
323.526
-53.0482
-266.975
292.76
-25.7856
-1061.26
714.417
346.845
-422.926
133.957
341.146
3.68085
-344.826
-72.6985
356.646
566.636
-176.485
-42.9495
219.435
-72.6625
-230.839
-259.401
-67.1892
326.59
-282.718
-64.7357
347.454
-69.9326
-510.025
-91.8654
-798.031
785.638
12.3928
28.0047
249.542
-277.547
31.9739
325.592
-197.985
485.827
-287.842
-231.133
-84.7206
-489.253
104.333
-213.089
185.663
-238.982
-316.972
-120.723
437.695
-118.99
477.448
-358.458
-380.641
-92.4059
-239.788
-105.144
2.14494
-447.603
-123.967
-198.651
683.324
17.0646
647.416
-664.481
-197.025
48.5806
231.64
-817.33
585.69
143.405
-385.381
307.948
-53.4288
83.7551
-1029.58
-227.529
-114.897
437.085
-3.56045
-531.47
-395.005
-125.611
-657.411
206.452
-400.965
194.513
-7.71483
304.915
-351.119
-93.0157
444.135
-17.4022
-285.835
303.237
830.063
-116.428
-492.236
478.328
-59.1509
-715.409
-92.9171
469.282
-846.83
783.314
294.617
-476.31
401.508
-96.3823
-114.861
161.879
175.637
-337.516
-438.209
-247.188
183.354
18.9881
-202.342
-210.894
917.362
31.6392
-991.984
559.779
-213.199
-108.67
321.869
764.554
38.6134
359.036
-66.7037
371.016
-354.834
-401.695
405.313
-3.61826
332.459
-323.928
-8.53063
363.763
-77.9266
-19.9463
-444.013
-144.761
-225.629
-132.287
-199.923
-121.425
-621.385
832.567
-211.181
-242.754
-9.93376
-223.963
-447.744
-462.396
412.156
71.0199
-305.228
-89.7673
-125.001
214.768
-42.4748
387.601
-345.126
358.521
-50.2303
218.687
-72.9263
-145.76
98.2966
-221.449
134.262
126.946
318.073
-110.122
-337.26
-91.5131
232.234
572.39
-132.739
26.1709
-773.503
747.332
-275.462
111.827
-193.21
-30.1606
-78.498
350.396
56.1993
771.654
-699.523
856.493
-110.882
-745.611
375.486
-74.1421
-301.344
104.495
-217.857
-88.9959
506.443
-417.447
-233.35
-55.3493
21.5027
-733.673
463.767
-70.5725
-290.223
283.521
6.7013
-211.879
-37.686
249.565
201.154
27.9917
-229.146
-37.0692
-84.0012
-450.294
-610.968
-427.27
198.671
-0.117385
-193.598
-25.5089
247.558
59.6083
-539.005
479.397
-334.471
223.166
-398.907
148.225
-347.227
684.12
-334.546
67.4459
-267.4
199.954
-146.467
315.055
598.166
-148.937
-201.507
-141.339
227.577
921.214
88.1678
-302.535
225.979
46.0875
725.567
-11.0116
189.368
-322.317
-93.2667
407.396
-89.7854
-463.531
-520.853
153.531
367.322
-164.244
-546.108
710.352
-571.609
1010.21
-763.895
142.51
-490.833
-273.416
278.871
116.988
-935.053
52.8445
882.209
-358.632
406.856
-98.5409
-12.4813
363.586
335.482
20.3741
231.326
-194.357
-36.9685
-309.465
98.5711
-191.415
-20.6233
243.122
383.432
-104.218
682.385
-135.365
294.496
110.196
579.758
-131.545
523.353
-111.756
258.32
-43.803
-214.517
449.447
-503.712
-342.283
845.995
543.763
-239.918
-302.739
-553.882
80.9281
472.954
317.43
-77.7901
-711.458
677.334
34.1237
528.492
-79.437
-27.4155
634.689
-607.274
-386.243
301.098
301.21
86.881
434.433
139.949
-387.903
219.866
-39.1889
374.014
-15.4924
-438.515
-125.715
-45.0973
593.458
320.187
-315.003
-5.18419
-538.327
68.7992
-392.34
-333.638
297.353
56.128
325.836
-300.501
351.876
-50.7777
-145.293
-272.479
-274.557
-14.7953
289.352
-401.459
-112.388
-36.41
547.283
-38.1294
-3.68604
472.19
588.016
-26.3581
-153.364
-266.575
332.049
-65.4743
-52.872
219.77
31.852
-743.31
-325.452
-237.371
364.933
-389.198
-71.067
474.856
645.319
209.445
-854.764
-154.859
588.968
-125.201
332.654
-244.313
-88.3411
-69.2554
-608.604
-212.6
37.504
199.135
136.347
-138.764
202.385
-285.603
-312.155
356.354
-44.1998
213.667
323.584
-439.085
734.373
431.861
-316.592
377.943
-61.3504
-267.145
-481.359
-219.388
837.505
18.9876
421.483
-47.469
-969.002
33.9493
395.39
-65.4647
-745.831
-14.11
-317.156
633.669
205.679
-85.6637
-90.4425
13.3061
293.075
-388.901
-10.4257
399.327
-241.628
-150.776
201.454
-119.956
-474.893
-104.502
503.033
-95.7237
353.825
-5.80461
-325.596
-111.171
-137.545
-518.232
374.917
-113.046
652.619
-631.117
-280.627
384.309
-103.682
-240.851
67.8422
280.683
21.9012
-445.233
-478.199
-404.854
972.91
-466.745
-506.164
589.624
-110.883
-527.91
-131.956
-97.7816
17.7431
533.286
-138.842
24.5272
57.8485
174.549
-230.148
-230.04
52.2343
-105.941
567.84
-140.966
-403.059
-343.368
288.557
262.191
3.08127
448.427
-94.602
-50.7128
-147.938
-142.394
-304.883
31.7067
82.3404
-276.689
441.768
-652.817
623.609
-116.158
-507.45
758.762
-726.91
439.98
-75.0471
-244.626
-281.135
48.4606
601.931
-127.075
-758.33
784.501
213.883
-0.544357
-213.338
-151.975
222.995
466.151
-66.9843
627.268
-145.894
-279.641
279.55
-108.704
-74.0514
-207.66
271.88
-64.2195
-91.7628
268.946
301.114
-47.3587
-35.7945
249.645
-473.515
-277.597
271.579
-235.782
-35.7969
-437.076
425.566
11.5094
-17.3587
-139.543
313.77
295.866
-301.2
5.33346
-252.57
-84.2085
-14.1191
135.21
-318.666
426.377
-42.817
787.081
-744.264
-507.85
351.856
-28.2722
37.2496
343.114
14.2071
-357.321
7.15124
382.552
232.794
499.507
39.9106
506
11.0162
356.309
-47.9826
-71.1391
250.461
271.328
45.1837
-870.851
887.916
-303.384
281.47
21.9133
-546.055
246.52
3.12423
813.846
-604.386
-209.461
258.908
-181.312
-77.5959
433.399
227.287
32.5629
491.58
-196.992
616.779
-419.787
99.5958
-51.9946
847.779
-795.785
-435.355
310.761
475.948
198.957
231.987
2.67993
221.316
-193.13
-488.861
681.991
42.3862
206.568
66.6206
-558.005
571.024
-508.496
815.325
-259.079
-556.247
-292.593
-199.024
70.229
271.15
0.79438
-222.1
-289.43
-361.629
-516.877
2.32748
184.441
-186.768
289.457
261.854
188.252
-792.382
768.527
23.8548
-29.7229
407.378
-458.317
50.9392
279.784
81.2651
-0.569091
796.005
-795.436
102.917
229.132
62.2396
79.413
-290.714
303.301
-12.5868
-921.865
-57.8768
193.266
-134.801
-489.512
624.313
-291.26
860.158
-146.682
-401.466
-136.861
-560.207
99.4571
386.69
22.6532
-252.529
-27.1121
199.695
-141.847
19.6077
860.361
50.1511
-14.0374
300.813
471.864
-356.303
-115.561
-629.831
231.88
397.951
142.48
164.53
365.104
-355.437
275.212
155.3
282.395
229.39
261.911
30.8494
69.6118
-483.421
413.809
838.662
-235.28
-603.382
169.252
222.675
-391.927
368.778
401.752
247.934
3.90808
-626.341
-306.021
274.145
-889.647
367.397
81.7812
-486.156
86.7135
-636.989
-96.6839
243.343
-356.691
400.071
554.767
-568.168
645.009
-76.8406
-9.91374
370.234
410.627
-356.928
-43.517
173.776
-130.259
-303.024
293.558
-17.0691
675.539
-345.417
-22.3898
375.617
-353.228
91.7157
-175.906
256.039
-80.1327
-295.194
239.575
55.6192
268.35
546.976
132.509
-400.835
461.366
-1134.85
1134.28
131.819
-11.1635
442.229
168.054
-56.2266
414.283
354.435
213.76
20.8089
298.047
363.563
-25.6833
-337.88
-649.4
649.067
0.333064
228.227
194.139
-9.69758
501.344
-431.732
-211.054
765.821
311.257
77.3293
275.951
-366.122
-170.796
26.8584
244.721
794.469
-174.86
-619.61
-893.362
967.376
301.96
384.433
255.901
-252.22
554.151
-992.359
473.34
351.218
340.209
-33.1351
475.003
291.044
59.3209
-416.268
356.947
-220.944
335.617
-13.5983
-23.3518
-824.303
694.178
866.151
-201.209
333.2
292.592
124.966
338.906
-19.9524
-318.953
268.892
324.895
300.438
-186.965
87.0447
-271.781
281.045
-9.26438
449.576
-566.187
-244.906
-2.08697
215.847
466.615
-577.307
-274.906
22.3765
477.964
-135.066
-237.201
372.268
-332.023
-188.83
634.382
106.316
426.314
-943.892
517.578
-459.137
417.716
41.4216
-2.78467
251.597
-248.813
361.015
-269.299
259.456
-236.627
-22.8285
328.649
46.6937
-222.6
-851.364
80.4703
367.54
-448.01
-33.3393
724.994
-691.655
322.106
-295.116
-26.9899
-445.641
482.506
329.4
-273.201
-399.981
978.651
-578.67
272.476
-13.7423
197.096
540.032
459.968
-185.77
205.716
13.2028
-218.919
-27.6158
397.489
-593.527
33.5971
559.93
200.457
262.918
-368.062
-42.1748
-394.901
-917.362
865.367
-493.836
1033.87
335.947
-62.0264
237.572
-1.70089
-235.871
488.44
-434.642
56.6985
-708.843
-459.213
0.0759046
-255.421
317.508
-469.446
-499.123
298.187
-18.8243
-279.363
-959.726
430.841
-798.031
155.584
31.9047
-187.489
28.9494
599.569
647.716
-633.889
-272.168
836.493
-73.6819
226.386
384.295
-558.497
174.201
-138.448
357.55
-219.102
-704.306
750.394
-384.99
222.029
-223.06
232.077
-9.01665
-275.91
702.223
313.222
649.602
27.6228
-785.953
-231.315
247.119
-362.015
-31.904
-228.851
240.689
-898.797
982.613
175.346
39.0759
-214.422
261.395
-325.052
-66.9294
-0.903002
393.122
210.754
-603.876
502.759
-902.74
532.221
-56.9381
-221.189
-1.92292
223.112
-114.018
-190.865
-310.998
72.968
-166.989
-134.775
302.153
291.409
-264.551
-118.444
-315.219
433.663
279.52
288.226
-17.5511
-292.723
310.274
-690.711
15.9976
861.499
-921.865
999.382
-1004.7
979.411
1022.23
-1022.23
-893.362
-1029.58
278.58
-255.927
-243.26
-257.121
-185.797
-1.05179
753.177
-964.14
210.963
-887.916
9.38084
-279.476
189.948
-34.3635
-763.522
791.145
227.392
-6.81219
-220.58
-284.315
266.912
-11.8951
-249.517
261.412
248.522
-14.2547
-234.268
201.125
-228.334
-23.6737
-253.25
276.924
-187.559
200.29
-12.7315
249.602
280.636
-346.787
406.108
103.05
-179.884
76.8347
-396.569
-610.775
-193.832
207.099
-13.2668
-419.537
-84.1102
503.648
193.22
-174.232
39.1176
201.301
-25.9553
-359.613
279.229
521.298
-121.227
208.795
463.678
-56.2996
314.064
-405.144
91.0806
18.3108
-637.608
666.557
263.513
-460.505
-783.653
730.266
53.3866
480.771
497.88
70.9183
450.38
-279.777
272.062
-73.0678
-710.585
238.035
-346.705
738.086
-949.267
346.391
-772.157
425.766
124.852
264.207
-206.008
-58.1983
-56.8093
-386.718
-868.52
592.61
-1.27522
254.474
3.75197
-308.54
304.788
15.0119
-54.2468
235.111
281.866
-37.1455
185.545
-58.3321
-127.213
738.846
19.9155
272.585
300.425
6.45806
177.158
-229.379
52.2202
238.677
-299.237
295.58
-338.653
-202.848
217.101
-14.2527
74.6249
-494.162
242.929
183.448
-82.1001
835.277
-609.407
450.286
578.608
-686.666
221.47
-341.831
309.105
-447.552
188.203
-320.489
217.901
-189.909
-338.116
217.586
-188.843
-7.00033
195.844
218.948
-340.373
368.412
-266.305
-102.107
-7.50296
486.9
-442.456
-560.385
1002.84
-767.799
661.213
-50.6172
-320.51
371.128
21.3823
61.4931
-293.891
284.733
-266.818
-8.08784
196.466
69.052
-265.518
-184.498
-216.466
-297.448
223.418
-208.941
-14.4769
-308.54
-410.027
410.027
185.119
-657.482
168.888
184.833
304.788
727.31
-235.014
-41.9801
-645.491
687.471
527.164
-90.7689
234.788
-364.005
314.936
400.102
242.333
4.25107
232.29
-172.249
-60.0403
-29.4293
-686.828
686.828
-177.072
-386.395
-93.1182
-119.971
206.796
20.2915
-142.994
211.048
-422.631
478.209
-145.286
-201.942
746.879
-505.27
-241.609
-111.664
-106.193
560.178
-183.573
-118.432
-46.4469
-489.691
536.137
-500.696
-287.073
512.555
-20.9756
-14.9733
-752.063
558.933
-457.793
-65.6691
767.92
19.1606
230.376
-112.914
773.647
-660.733
107.703
882.63
683.159
856.365
145.276
-218.202
-385.631
-73.5826
-232.632
249.952
-232.955
49.233
-167.504
-898.133
41.4897
856.643
10.5725
391.419
814.44
-260.441
245.686
14.7544
1066.44
-542.4
-524.042
-168.609
1.98387
476.345
202.621
-36.8021
262.697
284.93
420.73
-772.04
956.295
-184.255
-349.315
5.94677
230.907
16.965
666.359
-89.2305
-214.153
-161.905
-242.949
214.286
92.3307
634.98
689.758
-731.739
91.1106
-795.417
22.6056
654.729
752.274
-849.597
97.3233
-627.541
535.587
91.954
627.251
-563.543
-63.7078
-446.248
520.873
60.7108
-76.0037
-121.679
197.683
122.52
305.692
-603.729
452.419
189.079
-189.079
-198.461
218.376
-879.197
436.741
-675.13
540.329
-553.882
870.851
-952.951
23.484
-237.558
203.629
-162.306
-223.074
-246.902
19.5844
356.698
34.5399
340.946
-350.333
-365.519
41.5905
440.951
-680.868
-55.3159
-726.738
782.053
225.429
-263.115
55.0956
101.619
-226.619
-623.549
655.027
-196.693
-42.2886
8.16207
553.811
151.135
-307.11
-26.5276
-455.12
957.879
864.377
-864.377
332.573
43.0449
8.81176
463.379
-761.452
17.1884
651.854
14.7025
80.353
417.464
-497.817
213.925
301.664
-3.88309
8.94053
673.67
16.8977
-867.649
655.049
195.373
303.294
-498.667
-826.304
567.225
210.289
-413.316
18.1369
-649.254
-184.851
-60.1136
244.965
-78.2358
193.049
-114.813
15.1583
44.2613
355.426
40.2224
-199.855
17.4098
-297.198
522.625
660.45
64.5445
12.3735
144.462
-78.7274
-198.82
195.714
394.488
-499.758
-707.823
-64.2168
-196.103
-466.867
-477.025
-274.095
-360.828
624.529
-514.935
6.65673
798.751
-805.407
318.311
50.1007
391.692
-59.1193
622.864
-58.1199
-564.744
313.773
-20.4355
-573.062
-106.74
679.802
-27.5495
-259.328
-609.53
457.407
-171.882
-74.1685
246.05
241.905
611.322
66.346
-241.217
-80.4847
24.1669
202.57
-546.049
638.38
193.57
3.52543
-199.569
395.319
-195.75
318.95