/*--------------------------------*- C++ -*----------------------------------*\
  =========                 |
  \\      /  F ield         | OpenFOAM: The Open Source CFD Toolbox
   \\    /   O peration     | Website:  https://openfoam.org
    \\  /    A nd           | Version:  7
     \\/     M anipulation  |
\*---------------------------------------------------------------------------*/
FoamFile
{
    version     2.0;
    format      ascii;
    class       volVectorField;
    location    "5";
    object      U;
}
// * * * * * * * * * * * * * * * * * * * * * * * * * * * * * * * * * * * * * //

dimensions      [0 1 -1 0 0 0 0];

internalField   nonuniform List<vector> 
7724
(
(1.17455 0.1189 2.00345e-20)
(1.04598 -0.0479876 7.60001e-21)
(1.02465 0.168197 -4.84476e-20)
(1.06275 0.0767505 6.62644e-20)
(0.999142 -0.000927419 -1.29985e-22)
(0.999962 -1.24406e-05 -1.46103e-23)
(1.00236 0.137896 -9.71664e-20)
(0.995113 -0.00177799 -2.84923e-23)
(0.999871 -0.000180882 -2.38739e-23)
(1.02731 -0.00213716 -3.19967e-21)
(0.999965 -1.40328e-05 1.61069e-23)
(1.00216 -0.00136479 -5.2679e-22)
(0.99245 -0.00238331 1.35301e-21)
(1.0176 -0.00225096 -2.07019e-20)
(1.02613 -0.000135636 1.35197e-20)
(0.991315 -0.0139477 -2.60829e-21)
(1.18378 0.122822 -4.19922e-20)
(0.989895 -0.00297349 -4.74866e-22)
(1.00217 -0.00892165 -1.9442e-22)
(0.976842 -0.0849128 -2.01572e-21)
(1.03524 -0.0063683 -7.0947e-21)
(1.00141 -0.000615139 9.89903e-22)
(1.01778 -0.00407796 1.79958e-21)
(1.01599 0.0354126 -3.48981e-20)
(0.986605 -0.00367738 -2.1757e-21)
(1.1682 0.124737 -2.0701e-20)
(0.999131 -0.000873443 -9.41406e-23)
(1.02521 -0.00132475 8.15774e-21)
(1.0079 0.0181698 -4.47542e-21)
(1.00298 -0.00976114 1.62133e-22)
(0.987741 -0.0148148 -4.86005e-21)
(0.780848 0.0684167 1.52063e-20)
(1.01622 -0.00454392 1.11026e-20)
(0.999549 -0.000385013 1.62993e-22)
(0.999899 -2.19299e-06 3.15123e-25)
(1.02431 0.000137876 4.75172e-21)
(1.00418 -0.0106597 1.86721e-22)
(1.00759 0.128882 -1.54972e-20)
(0.996953 -0.00772082 2.16778e-21)
(0.999675 -5.04248e-05 1.55213e-22)
(0.997033 -0.00787237 -2.52581e-22)
(0.991667 -0.0127246 -9.92544e-22)
(0.99731 -0.0955707 8.09872e-21)
(1.12265 -0.0824194 -3.27077e-22)
(0.999806 -5.851e-06 5.05932e-23)
(0.999925 -1.83247e-05 -1.45227e-23)
(1.00121 -0.000547953 -6.05167e-22)
(0.996094 -0.00656871 -1.27824e-21)
(0.999937 -3.01177e-05 -1.17862e-23)
(0.980184 -0.0858806 2.90013e-21)
(1.00312 -0.00120124 5.67935e-22)
(1.02499 0.000305462 -8.48358e-21)
(0.982614 -0.00436471 -7.32606e-21)
(1.00935 -0.0306641 4.16135e-22)
(1.02298 -0.00235777 -2.80495e-21)
(0.99563 -0.0025068 -2.48665e-22)
(1.00153 -0.00883625 4.05143e-22)
(0.995134 -0.00149825 1.84567e-21)
(0.97859 -0.0174487 -8.67078e-21)
(0.999551 -0.000342969 -2.09497e-22)
(1.00004 -2.35714e-05 -2.1552e-23)
(1.00414 -0.000979125 6.36997e-22)
(1.01881 -0.00151278 -4.85807e-21)
(1.0023 -0.00121691 5.33208e-22)
(0.99912 -0.000217592 3.00476e-22)
(0.988062 -0.0154912 8.75938e-22)
(0.999913 -0.000188683 1.84914e-23)
(1.00001 -2.19452e-06 1.49076e-24)
(1.17771 0.00255996 1.03138e-20)
(0.996054 -0.0063668 -3.67699e-22)
(0.999931 -2.0259e-05 1.29011e-23)
(0.970512 -0.0510861 -1.53367e-20)
(0.987117 -0.00405685 1.0577e-21)
(0.97612 -0.00509712 1.45048e-21)
(0.990271 -0.00328296 1.48721e-21)
(0.96729 -0.0246622 -1.90576e-21)
(1.03283 0.167646 7.78126e-20)
(1.0328 -0.0059816 9.02978e-21)
(1.08677 -0.0194346 -1.75283e-20)
(0.957362 -0.0412967 -1.99486e-20)
(0.99276 -0.00261232 -2.07781e-21)
(1.00207 0.0743943 9.6682e-20)
(1.04178 0.00208202 2.10691e-20)
(0.975402 -0.0092585 6.64584e-21)
(0.998736 -0.00242997 -2.06433e-22)
(0.997843 -0.00030258 2.19479e-22)
(0.994799 -0.00234395 2.55201e-21)
(0.983252 -0.00488452 4.71371e-21)
(0.999366 -0.00114018 1.39912e-22)
(0.995831 -0.000673317 7.87553e-22)
(1.00824 0.0208241 3.30729e-20)
(1.15197 -0.0834604 6.35472e-22)
(0.999878 -5.60924e-05 -3.05984e-23)
(1.0017 -0.0074375 1.60962e-22)
(0.99669 -0.000995928 7.14654e-22)
(0.975547 -0.00299901 -1.15741e-20)
(0.972721 -0.0507786 1.02278e-21)
(1.01069 -0.0295931 3.79699e-23)
(0.998726 -0.00236835 7.00309e-23)
(0.998966 -0.000158453 1.01217e-22)
(0.95423 -0.014795 5.04973e-21)
(1.09014 -0.0146253 1.41885e-20)
(0.996902 -0.00114397 -1.78158e-21)
(0.999974 -4.18816e-07 -1.23295e-24)
(1.15976 -0.0764413 2.29922e-22)
(1.04024 0.0296732 -3.1534e-20)
(0.888171 0.0475298 1.7271e-20)
(0.995309 -0.00238162 -1.02713e-21)
(0.999991 -1.92259e-06 2.94658e-25)
(1.02431 -0.0141281 -3.92661e-21)
(1.06753 0.0717436 -7.6953e-20)
(1.01535 -0.0758432 -8.44822e-21)
(0.999989 -1.93566e-06 -4.43959e-25)
(1.02664 -0.0147831 -8.55204e-22)
(1.03483 0.0297198 3.31511e-20)
(1.00037 -0.000529569 -4.6879e-23)
(1.04872 -0.0957621 -1.50208e-22)
(1.03708 0.0153083 -7.63816e-21)
(0.982029 -0.0412865 6.53252e-21)
(0.975742 -0.00620665 -1.50661e-21)
(0.95139 -0.00972434 -1.2218e-20)
(1.00269 0.0629089 -6.31441e-20)
(1.00235 -0.0949622 -1.11484e-20)
(1.00859 -0.00749836 3.3022e-22)
(0.952983 -0.0111198 4.81641e-21)
(0.999125 -0.0012847 3.12513e-22)
(0.988195 -0.0110936 1.59286e-21)
(1.00278 -0.00860907 -2.79831e-22)
(0.99906 -0.000175282 -6.69847e-22)
(0.987275 -0.0134568 7.89769e-23)
(1.17139 -0.110166 -5.13839e-22)
(1.08007 -0.0193673 2.9774e-21)
(0.999445 -0.00049215 1.76532e-23)
(0.999282 -0.00117607 -2.72047e-22)
(0.974302 -0.00846693 1.97604e-21)
(1.06194 0.0593429 2.83963e-20)
(0.98909 0.0525962 1.13719e-19)
(0.999976 -3.5491e-06 -1.44863e-24)
(1.00782 -0.00283337 2.6797e-22)
(0.934607 -0.0115705 -1.53705e-20)
(0.97747 -0.00364279 -5.93067e-21)
(0.985059 -0.0570743 -9.26481e-21)
(0.967632 -0.0265614 2.58107e-21)
(0.977358 -0.004613 -1.30465e-22)
(0.877837 0.0380235 6.6936e-20)
(1.00819 -0.0451791 -2.95708e-22)
(1.01625 0.0197756 -1.68923e-20)
(0.980514 -0.0211875 -4.42971e-21)
(0.966806 -0.00507147 1.64655e-21)
(1.00196 0.067302 -3.13207e-20)
(1.02556 0.00270986 1.19198e-20)
(1.14103 -0.0796514 1.4223e-21)
(0.998494 -0.00188476 -7.23186e-22)
(1.17728 -0.00666716 1.70291e-21)
(1.04067 0.00171477 -2.19004e-20)
(1.03142 0.129012 -7.72327e-20)
(0.962216 -0.0286594 7.94168e-21)
(0.992455 -0.00169635 4.56278e-22)
(0.915054 0.124202 1.49384e-19)
(0.999941 -2.31608e-05 -1.10907e-23)
(1.00115 -0.00764583 -1.20172e-22)
(1.01778 0.0399817 2.50745e-20)
(0.99998 -1.88786e-05 7.07832e-24)
(0.998347 -0.00498339 -9.98035e-22)
(0.996323 -0.000966515 -3.41646e-22)
(1.00794 0.0488988 -8.24308e-21)
(1.00522 0.0512286 3.05534e-20)
(0.900226 0.141916 4.98273e-20)
(0.998277 -0.00484641 -6.34846e-22)
(0.997047 -0.000325741 -3.81245e-22)
(1.00001 -8.60392e-07 -1.36911e-24)
(0.948579 -0.0060834 -2.10972e-20)
(1.00033 -0.000476494 6.45895e-23)
(1.04948 -0.0450773 -8.88715e-21)
(1.008 -0.00324254 1.7744e-21)
(0.967495 -0.00597068 3.40939e-21)
(1.15675 -0.0644766 2.41502e-21)
(1.14372 0.0345571 8.02268e-22)
(0.999874 -5.91901e-05 1.67408e-23)
(0.999494 -0.000617513 -1.83958e-22)
(1.06585 0.0800026 -1.16216e-20)
(0.999942 -1.98095e-05 -5.37572e-24)
(0.999893 -1.05569e-05 8.01634e-24)
(1.00653 0.147128 -7.99251e-20)
(1.04599 -0.0515113 2.63711e-21)
(1.00565 -0.0626211 -5.07227e-21)
(0.983966 -0.0402549 -9.26415e-21)
(0.978037 -0.00677093 4.33118e-21)
(1.00536 -0.0462957 4.96247e-22)
(0.936115 -0.00974708 8.0616e-21)
(0.999979 -1.78191e-05 -2.52032e-24)
(0.973436 -0.0477059 -3.65474e-21)
(1.15298 0.0398248 -2.06619e-20)
(0.996866 -0.00138408 2.55883e-22)
(1.00008 -4.61915e-06 -1.59465e-23)
(1.11999 0.0603298 2.1505e-21)
(0.998849 -0.000360093 7.11604e-22)
(0.987944 -0.0131616 2.54577e-21)
(1.00347 -0.0436761 1.67733e-21)
(1.00002 -2.91215e-06 -6.12414e-25)
(1.00073 -0.00196905 -2.69254e-22)
(1.05674 0.061093 3.53031e-20)
(1.14428 0.054684 -2.70796e-20)
(1.01705 0.113234 -1.03908e-20)
(1.04704 -0.0900603 2.62396e-21)
(1.01867 -0.0732823 2.00647e-21)
(1.07765 -0.132293 -9.0885e-22)
(1.02437 -0.00491942 2.41498e-20)
(1.04929 0.0615858 -1.1532e-20)
(0.999795 -1.8866e-05 -5.90806e-23)
(1.00004 -1.86297e-05 5.70333e-24)
(0.917068 0.0186321 -6.5949e-20)
(0.99298 -0.0123594 -9.28808e-22)
(0.999432 -0.000449651 -1.76787e-22)
(0.975522 -0.0470647 7.56306e-21)
(0.987592 -0.0116697 -1.84909e-21)
(1.0436 0.110325 -8.58628e-20)
(1.03506 0.108876 -1.82157e-20)
(0.98219 -0.0583258 2.56964e-21)
(0.824519 0.0970134 -5.73243e-20)
(0.998934 -0.000427038 -5.22147e-22)
(0.989955 -0.00245956 1.6897e-21)
(0.952552 -0.0134764 6.66237e-21)
(1.0359 -0.000858727 -5.07471e-21)
(0.997005 -0.116793 -1.09185e-21)
(1.19132 0.089721 -4.11868e-20)
(0.913238 0.108389 -1.27771e-19)
(1.00006 -0.000105661 1.77797e-23)
(1.0086 -0.0075183 8.81846e-22)
(1.03471 0.019409 4.12782e-20)
(0.99634 -0.00565974 -1.66616e-21)
(1.03945 0.0155467 -5.21579e-21)
(0.99949 -0.00121669 -4.51953e-23)
(0.857703 0.165963 1.01327e-19)
(1.02831 0.116629 1.71015e-20)
(0.994831 -0.00197312 1.6221e-21)
(1.00373 -0.0081051 -3.88352e-23)
(0.999691 -8.15522e-05 -2.89167e-22)
(1.18816 0.0357236 1.02038e-20)
(0.999906 -1.67498e-05 2.37748e-23)
(0.994674 -0.0105307 7.43685e-22)
(0.942608 -0.02633 9.04059e-21)
(0.99993 -2.43799e-05 -5.35277e-24)
(0.998882 -0.0027849 -1.79628e-22)
(0.999606 -0.00120514 8.21907e-23)
(1.0901 0.0310539 2.92188e-20)
(0.999981 -2.38079e-05 8.52429e-24)
(0.995662 -0.000525484 8.22374e-25)
(0.959421 -0.0410684 2.31277e-20)
(0.782789 0.0508269 -3.34849e-20)
(1.07795 -0.0230921 -4.05986e-21)
(0.875535 0.107219 7.70479e-20)
(0.999957 -1.08193e-05 -1.33732e-23)
(1.00151 -0.0440799 -1.41854e-22)
(0.999824 -0.000298331 -6.62764e-23)
(1.02376 0.135819 -7.78391e-20)
(1.00342 -0.000617322 -8.20931e-22)
(0.985448 0.0518791 3.70644e-20)
(1.00286 -0.0102882 -7.79174e-22)
(1.00063 -0.00191093 2.89739e-22)
(1.02579 -0.0373402 -2.20659e-21)
(1.02437 -0.00290054 -2.2364e-20)
(1.00053 -0.000322932 1.34412e-22)
(0.999782 -5.63374e-05 1.55969e-24)
(1.00045 -0.000440826 3.03663e-22)
(0.996126 -0.00598937 -1.4666e-21)
(1.01078 -0.0662872 5.40182e-21)
(0.999958 -1.42286e-05 9.04404e-24)
(0.963724 -0.0275747 5.54157e-21)
(0.996487 -0.00115701 -6.48895e-23)
(0.999856 -5.26757e-05 3.247e-23)
(0.999439 -0.000554856 5.76829e-23)
(0.981487 0.0839153 8.89382e-20)
(0.99237 -0.000815925 6.61315e-22)
(0.999292 -0.000143338 -6.0007e-23)
(0.834072 0.0228658 1.27248e-19)
(0.998773 -0.00273055 -4.05639e-22)
(1.12338 0.0988898 -2.59393e-20)
(0.999805 -0.000285994 1.19698e-22)
(1.00719 -0.0235951 4.05019e-22)
(1.00002 -7.74032e-07 -5.01688e-25)
(0.982023 -0.033613 -3.80279e-21)
(1.0354 0.000229669 7.8335e-21)
(1.16285 -0.0594961 -6.90775e-21)
(0.97872 -0.0187224 7.32587e-21)
(0.999628 -0.000640197 2.13504e-22)
(0.976872 -0.072735 4.74154e-21)
(0.984231 -0.000410728 3.08412e-21)
(0.999819 -2.92762e-05 3.23951e-24)
(1.00041 -0.000372954 -2.68822e-22)
(0.997972 -0.00342742 5.53198e-22)
(0.992623 -0.00139544 -1.97735e-21)
(1.00319 -0.000857854 -9.73714e-22)
(0.998818 -0.00199966 2.59282e-22)
(0.976666 -0.00862768 1.04233e-21)
(1.01523 -0.0641662 -4.04369e-21)
(0.976864 -0.00721255 4.64286e-21)
(1.12049 -0.0741648 1.87856e-22)
(0.969356 -0.00793038 -5.95052e-21)
(1.06405 0.148743 8.59608e-21)
(1.05904 0.156454 -6.31075e-20)
(0.998607 -0.000773772 -4.52032e-22)
(1.17846 -0.071728 4.98734e-21)
(0.999983 -3.88918e-06 -8.3357e-25)
(0.997915 -0.00415593 -6.62627e-22)
(0.97504 -0.00206955 1.19e-20)
(1.01198 0.0300433 2.08654e-20)
(1.04728 0.00530346 -2.04249e-20)
(1.0001 -4.11331e-05 3.62419e-23)
(0.99791 -0.00404336 -4.32746e-23)
(0.970449 -0.0087893 4.48431e-21)
(1.07106 0.0338864 -1.19337e-20)
(0.999074 -0.00121887 2.34136e-22)
(1.00326 -0.00095441 5.46816e-22)
(1.00121 -0.000946038 -4.91009e-23)
(1.1336 -0.0221041 1.5608e-20)
(1.16772 -0.118138 -3.66086e-21)
(1.11865 0.162061 3.84253e-20)
(0.998497 -0.00017973 -4.46937e-22)
(1.05588 -0.0525651 -6.96497e-21)
(0.99989 -7.09481e-05 -2.65671e-23)
(1.00476 -0.00733534 -1.9103e-21)
(0.999947 -1.2455e-05 -3.81693e-24)
(0.985384 -0.0205285 1.23758e-21)
(0.999671 -7.45193e-05 -5.5374e-23)
(1.01118 -0.0226133 4.56548e-22)
(1.195 -0.0813815 -2.62422e-21)
(0.973912 -0.026395 8.68757e-21)
(1.00809 -0.0229896 -2.62293e-22)
(1.00819 -0.00645093 -1.14955e-21)
(0.999296 -0.000177118 2.6891e-22)
(1.02641 -0.0209893 2.77913e-21)
(0.995925 -0.0186214 1.09975e-21)
(1.08635 -0.00654495 -8.16657e-21)
(1.08283 0.0321003 1.34265e-20)
(1.11164 -0.155903 -9.17446e-23)
(1.11767 -0.0876604 -4.70929e-22)
(0.983643 -0.000884084 -3.30407e-21)
(1.00493 -0.00367118 1.75953e-21)
(0.944691 -0.0250147 -3.50283e-21)
(0.884351 0.142381 -1.55308e-19)
(1.10092 -0.0821179 -1.7718e-21)
(1.02666 -0.0131824 -1.06433e-20)
(0.839843 0.104354 -7.78082e-20)
(0.998511 -0.000102425 2.20424e-22)
(0.99833 -0.000973439 -1.39634e-22)
(1.13488 -0.0854723 -6.15653e-23)
(0.998943 -0.00204708 -1.40629e-22)
(1.0088 -0.0424154 3.34685e-22)
(1.00584 -0.00212012 6.16675e-22)
(0.997206 -0.000472434 -3.39284e-22)
(0.997912 -0.000430479 -5.43181e-22)
(1.04014 0.0257199 2.41102e-20)
(0.999934 -0.000156668 -1.87166e-24)
(1.00048 -0.000240269 -1.19663e-22)
(1.00008 -1.87474e-05 2.72244e-23)
(0.996654 -0.000772116 1.83655e-21)
(0.993617 -0.0088919 2.05639e-21)
(0.999983 -4.01315e-06 6.44578e-25)
(0.998966 -0.000260456 5.73257e-23)
(0.979557 -0.0165718 2.58699e-21)
(0.916452 0.0268375 4.12877e-20)
(1.01002 -0.024124 -2.82919e-22)
(0.993023 -0.0113343 3.2829e-21)
(0.944643 0.103445 1.75953e-20)
(1.00332 0.0588504 5.55247e-20)
(1.07119 -0.0155519 -6.83773e-21)
(1.17474 -0.0639208 -2.31751e-21)
(0.947441 -0.00451098 1.15147e-20)
(1.005 -0.00405662 -8.69362e-22)
(1.01495 0.0536407 -3.06929e-21)
(0.989023 -0.00234462 -4.03587e-21)
(1.096 0.116162 9.78333e-22)
(1.00473 -0.049685 3.98426e-23)
(1.017 -0.109958 -3.58105e-21)
(1.13674 0.0551877 1.68549e-20)
(1.10501 0.121993 -3.4275e-20)
(0.965269 -0.0238952 1.24572e-20)
(1.05023 0.00357502 -1.33147e-20)
(1.20072 0.0876509 3.81748e-20)
(1.11599 0.106014 4.93786e-20)
(1.02455 -0.00357516 7.66662e-21)
(0.997091 -0.00149719 4.03998e-22)
(0.99591 -0.00226844 3.5329e-22)
(0.999911 -1.93514e-05 -1.27269e-23)
(1.01498 -0.029594 5.82314e-22)
(0.98878 -0.00195985 9.52648e-22)
(1.00098 -0.00253756 -2.37861e-22)
(0.999894 -2.47162e-05 -2.36239e-23)
(0.998378 -0.000740278 1.75795e-22)
(0.974774 -0.0714441 -7.77354e-21)
(1.12725 -0.00221118 7.2286e-21)
(0.983057 -0.00589575 -5.2947e-21)
(0.99906 -0.0128115 1.14438e-21)
(0.996341 -0.000651958 -9.78741e-22)
(1.05341 -0.0531305 1.94448e-22)
(0.993001 -0.00154303 -3.19554e-21)
(1.00223 -0.00733947 7.4699e-22)
(1.20245 0.0688934 6.35097e-21)
(0.998158 -0.000361541 -1.27454e-21)
(0.999979 -4.50442e-05 -5.86994e-24)
(0.999947 -0.000187578 -3.22047e-24)
(1.00005 -0.000110736 2.32706e-23)
(0.978985 -0.00760799 2.42653e-21)
(1.03757 0.0215856 -2.85958e-20)
(0.996078 -0.000501102 3.77868e-23)
(1.02284 -0.0109601 6.88604e-21)
(1.00199 -0.122655 7.30016e-21)
(1.00796 0.118266 -1.87848e-21)
(1.00398 -0.00792069 6.36708e-22)
(1.00698 -0.00447778 -2.86389e-22)
(0.995102 -0.00260231 -1.28867e-21)
(0.992332 0.08312 -8.7029e-20)
(0.998983 -7.05438e-05 1.82802e-22)
(1.12885 0.163616 -1.93435e-20)
(1.01429 0.0206836 -3.25447e-20)
(0.999886 -3.09992e-05 2.76548e-23)
(1.00297 -0.0503513 -3.21521e-21)
(0.996831 -0.000883317 -9.02576e-22)
(0.987998 -0.0580054 1.13294e-20)
(1.00052 -0.000112505 1.1982e-22)
(1.06666 -0.0105558 9.57363e-21)
(1.00678 -0.0166409 -2.78079e-23)
(1.00628 -0.00381835 1.45061e-22)
(0.999163 -0.000154245 -3.60514e-22)
(1.09719 0.0255671 1.42264e-20)
(1.06452 0.0346728 4.62586e-21)
(1.00273 -0.0649323 5.17292e-21)
(0.980214 -0.0194303 -4.98841e-22)
(0.997854 -0.00366471 -4.77594e-22)
(0.99793 -0.0394491 -5.92593e-21)
(1.16754 -0.0103115 -1.33534e-20)
(0.793711 0.0802687 -7.35139e-20)
(1.06416 -0.0909358 -2.03827e-21)
(1.00494 -0.0081234 -3.04659e-22)
(0.999993 -1.53191e-06 -2.30268e-25)
(0.98701 -0.00485706 -4.23143e-21)
(0.997777 -0.000364398 1.1682e-21)
(1.02602 -0.019058 4.05955e-21)
(0.99338 -0.0992476 -3.41616e-21)
(1.17143 -0.0801098 -1.15558e-21)
(0.988096 0.117407 -1.0704e-19)
(1.07438 0.0278399 1.96617e-20)
(1.08253 -0.123904 4.18672e-21)
(1.12606 0.0677759 7.21463e-21)
(0.998812 0.0631362 1.03448e-19)
(1.02123 -0.00350322 5.6526e-21)
(1.00114 -0.00235255 5.43304e-22)
(1.04525 0.070156 1.77891e-20)
(0.999143 -0.0020699 3.136e-22)
(0.999823 -0.000161644 2.61182e-23)
(0.982297 -0.00212938 1.48533e-21)
(1.0001 -3.62906e-05 6.79708e-24)
(1.08215 -0.141097 2.68662e-21)
(1.0034 -0.0183519 -1.11631e-22)
(0.984348 -0.0331416 6.36469e-21)
(1.00182 -0.00169536 2.72592e-22)
(1.11038 0.0609429 3.97262e-20)
(0.998219 -0.000313702 -1.05601e-22)
(0.999976 -3.57694e-05 -5.79928e-25)
(1.01063 -0.112534 4.00832e-21)
(1.00163 -0.00129131 -1.58382e-22)
(1.10571 -0.0360218 -1.94721e-21)
(0.956475 -0.0139182 2.34402e-21)
(0.937552 -0.0164099 1.19824e-21)
(1.20491 -0.0438749 -8.11594e-22)
(1.03216 0.0175127 -1.07662e-20)
(1.02552 0.00421488 6.6698e-21)
(1.0239 0.00414942 -2.68581e-21)
(0.999798 -4.617e-05 9.23906e-24)
(1.13336 -0.00729022 5.57097e-21)
(1.08863 -0.00404597 9.52582e-21)
(0.999514 -0.000640381 8.44825e-23)
(0.983814 -0.00639094 6.14965e-21)
(1.00062 -0.000199666 -1.33345e-22)
(1.01116 -0.0208107 -3.18372e-21)
(1.008 -0.0284655 -4.75105e-23)
(1.00466 -0.00148881 7.43921e-24)
(0.999273 -0.00130636 -3.79013e-22)
(1.17953 0.0317417 -3.09416e-20)
(0.999979 -2.28625e-05 -9.90146e-24)
(1.00021 -9.85741e-05 -3.53141e-23)
(1.00214 -0.000977761 -1.0819e-23)
(0.978044 -0.00321488 4.1335e-21)
(1.01902 -0.0123061 4.89072e-21)
(0.983617 -0.0279 -9.15505e-21)
(0.973186 -0.00486922 -2.39429e-21)
(1.00854 -0.0623952 2.84598e-21)
(1.01517 -0.133105 -7.67226e-21)
(1.0245 -0.033304 1.40144e-21)
(1.05388 0.0688092 -1.01441e-19)
(1.19199 -0.0721075 1.0326e-21)
(0.993615 -0.00254785 -1.71934e-22)
(0.84815 0.154847 1.2097e-19)
(0.974671 -0.0526347 1.32826e-20)
(0.993503 -0.00938172 6.46045e-22)
(0.973727 -0.00401267 3.96551e-21)
(0.99756 -0.0183228 -3.2135e-22)
(0.979404 -0.00246324 6.30599e-21)
(0.990203 -0.00394967 -1.22582e-21)
(1.02757 -0.0172207 -7.43199e-21)
(1.10561 -0.0874608 4.54111e-22)
(0.999975 -4.40509e-05 -8.1011e-25)
(1.02281 -0.0151971 -8.11657e-22)
(0.999902 -3.09086e-05 -1.34158e-23)
(1.04144 0.129898 2.07144e-20)
(1.18378 0.00470262 2.2046e-20)
(0.995262 -0.00197656 4.02778e-22)
(0.986204 -0.00183182 -5.60911e-21)
(0.999811 -5.64647e-05 -6.75059e-23)
(0.997393 0.0729416 6.48124e-20)
(1.08497 0.131708 4.62456e-20)
(1.13122 -0.0165991 -8.41123e-21)
(1.2094 0.0428134 -2.48656e-20)
(0.974332 -0.0559328 -5.58992e-21)
(0.998282 0.0297615 -9.85066e-20)
(0.999938 -0.000131272 1.23549e-23)
(1.04638 -0.0339634 9.94803e-21)
(0.982015 -0.00162065 -2.34786e-22)
(1.13535 0.0381065 -8.12042e-21)
(0.893864 0.101446 -9.36934e-20)
(1.16617 -0.017973 1.68332e-20)
(1.06607 0.0244998 3.28176e-21)
(0.999856 -0.0126569 -1.6947e-22)
(0.999808 -8.44484e-05 -6.22081e-23)
(1.19594 0.0308612 1.03828e-20)
(1.16592 -0.0993071 5.64476e-23)
(0.998341 0.0836835 -2.00801e-21)
(1.09823 -0.0347061 1.61482e-20)
(1.05138 0.0544411 2.98915e-20)
(0.993152 -0.00227618 -5.70081e-22)
(1.00089 0.115017 2.89089e-20)
(1.08663 0.120662 1.62354e-20)
(0.99139 -0.00328981 -3.43699e-21)
(0.992721 -0.00312737 -1.27737e-21)
(1.19422 0.0171172 4.50907e-22)
(0.935341 -0.0151604 -1.61613e-20)
(0.999914 -0.000154164 -1.91725e-23)
(0.987642 -0.00524373 5.4466e-21)
(0.9401 -0.0213721 1.17974e-20)
(0.984102 -0.0710855 -1.65745e-21)
(1.00958 -0.00310751 -4.92463e-21)
(1.00747 -0.0059046 3.25931e-22)
(0.999874 -0.000188286 -3.62317e-23)
(1.0931 0.13902 -6.91738e-20)
(1.00035 -0.0108277 2.65938e-23)
(0.999898 -5.80099e-05 1.18455e-23)
(1.01564 -0.0599555 2.49326e-21)
(0.999515 -0.000425099 7.41991e-23)
(0.999782 -7.98694e-05 4.7357e-24)
(1.0051 -0.0123888 -3.64629e-22)
(1.09897 0.0686905 5.45759e-20)
(1.00604 -0.100418 5.63524e-21)
(0.926168 0.0983674 5.48621e-20)
(1.00007 -1.51614e-05 -1.89208e-23)
(1.10631 0.0695209 -5.68072e-20)
(1.01019 -0.0510921 2.223e-21)
(0.999929 -0.000182891 -5.4736e-24)
(1.00002 -5.21811e-06 -5.87139e-24)
(1.00499 0.0135092 -5.41631e-21)
(1.085 0.0602748 2.05654e-20)
(0.996229 -0.00240582 3.52015e-22)
(1.07208 0.0459019 -2.70708e-20)
(1.00003 -1.89685e-05 4.22121e-24)
(1.07621 0.0522911 -3.73188e-20)
(1.09946 -0.152189 5.79888e-21)
(0.990894 -0.00291995 3.77475e-21)
(0.99917 0.0439144 -1.33796e-19)
(0.975984 -0.0443569 8.83746e-21)
(1.20592 0.0358098 2.40975e-20)
(0.974927 -0.00420594 2.37443e-21)
(1.08243 0.0531375 4.85976e-20)
(1.09398 0.0607511 -1.48942e-20)
(0.984554 -0.00784237 8.83887e-21)
(0.979867 -0.0095199 -6.52355e-21)
(0.995121 -0.00948274 1.89066e-21)
(0.997276 -0.000703702 -2.96752e-22)
(0.999815 -0.000187481 7.18559e-23)
(1.00031 -0.0101421 -4.75682e-23)
(1.09647 0.104934 -8.25256e-21)
(0.999973 -3.44888e-05 2.50095e-24)
(1.06457 0.045713 3.57969e-20)
(1.01766 -0.102864 8.28205e-21)
(1.0168 0.0749028 2.5198e-20)
(1.06224 0.0407655 -4.09602e-20)
(0.937796 -0.0199997 -1.45609e-21)
(0.942101 0.125309 -1.1395e-19)
(0.998492 -0.00111431 2.51621e-23)
(1.01481 -0.027429 1.42527e-21)
(1.03941 -0.0818364 1.68171e-21)
(0.980318 -0.00224328 -3.68415e-22)
(0.99401 -0.0032413 1.70091e-21)
(1.00778 -0.0523425 -2.04939e-21)
(1.05363 -0.0280849 -1.03124e-21)
(0.858687 0.0920816 1.47641e-19)
(1.00004 -2.16705e-05 2.05763e-23)
(0.998232 -0.0011962 3.39526e-22)
(1.01145 -0.0740402 8.39209e-23)
(1.00002 -4.54935e-06 7.23706e-25)
(1.04577 0.140322 1.01423e-20)
(1.00153 -0.00114693 0)
(1.00001 -5.02834e-06 5.45793e-25)
(1.00017 -8.3117e-05 8.26565e-23)
(1.00041 -9.40338e-05 1.67917e-24)
(0.985822 -0.0189914 6.33235e-21)
(1.02067 -0.0189821 -2.92106e-21)
(0.998566 -0.00082959 5.3254e-22)
(0.999925 -1.40408e-05 2.51502e-23)
(0.993556 -0.00304483 9.43464e-22)
(1.00397 -0.0129807 -2.78305e-22)
(0.983341 -0.102896 -9.28188e-21)
(0.94296 -0.00679292 1.16778e-21)
(1.01819 -0.0109577 8.48608e-21)
(0.999974 -2.62243e-06 7.76918e-24)
(1.05979 -0.154155 9.26834e-21)
(0.98789 -0.00358524 -2.17932e-21)
(1.1792 0.0210769 -1.7547e-21)
(1.00097 0.0416447 -1.81532e-20)
(1.00111 -0.00359751 1.29492e-22)
(1.16205 0.023171 -3.07371e-20)
(1.00014 -9.43759e-05 -2.60129e-26)
(0.988485 -0.00407604 6.18844e-23)
(1.02544 0.000471906 -1.3696e-20)
(0.993988 -0.00364576 -6.96967e-22)
(1.11205 0.0834952 -3.35261e-21)
(0.988309 -0.0063649 -4.10717e-21)
(1.04826 -0.033626 -8.4131e-21)
(1.02762 0.00306049 -1.4751e-20)
(1.08046 0.0292877 -8.25026e-21)
(1.00703 -0.0154834 -1.39838e-21)
(0.99073 -0.00422718 1.01715e-22)
(1.12324 0.0508892 2.42507e-20)
(0.977079 -0.0769973 -8.64495e-21)
(1.02612 0.145917 8.54056e-20)
(0.991776 -0.00469167 -3.98309e-21)
(1.13885 0.111579 -7.40762e-22)
(0.991806 -0.00415856 1.06432e-21)
(0.998927 -0.00050483 -3.47766e-23)
(1.06264 0.0229532 9.26779e-21)
(1.01313 -0.0309942 -4.04241e-22)
(1.03845 -0.00045703 2.06407e-20)
(1.00152 -0.000886914 1.76405e-22)
(1.00001 -3.49799e-06 2.51842e-25)
(0.991682 -0.117998 3.32103e-21)
(1.19335 0.065431 -3.44915e-20)
(1.00142 -0.00348467 -1.69094e-22)
(1.1699 0.0171294 2.9913e-21)
(0.988927 -0.00592894 -2.68316e-21)
(1.05189 -0.156738 -2.81674e-21)
(1.04035 -0.04701 2.69717e-22)
(0.983298 -0.0296385 5.13528e-21)
(0.998438 -0.000991086 -2.2439e-22)
(0.992006 -0.00102292 -7.94349e-22)
(0.973479 -0.0655936 -5.46867e-21)
(0.97305 -0.0090193 9.07302e-21)
(0.991268 -0.00388245 2.81518e-21)
(0.999864 -0.000429948 3.136e-23)
(1.017 0.160088 -1.05732e-20)
(1.15282 0.0187501 1.88335e-20)
(1.02524 -0.0121887 -2.60446e-21)
(0.999817 -0.000144529 4.75994e-23)
(1.0787 0.114602 -3.14961e-20)
(1.00001 -2.30816e-05 1.11142e-24)
(0.999828 -0.000124688 9.40613e-23)
(1.14415 0.0239051 1.65834e-20)
(1.00997 -0.0251983 9.58227e-22)
(1.18776 0.0493665 2.86978e-20)
(1.02466 -0.00503809 5.78205e-21)
(1.01708 -0.0136921 -6.09808e-22)
(1.07617 -0.0819774 3.61533e-22)
(1.03019 -0.127733 7.58658e-21)
(1.20063 -0.047644 -3.52895e-21)
(1.00117 -0.000863651 -3.84493e-22)
(0.958129 -0.0151955 -9.3217e-22)
(0.999983 -5.55839e-05 -1.71094e-24)
(1.00495 -0.0116401 2.54668e-22)
(1.11222 0.0770558 2.01194e-20)
(0.985326 -0.00735096 6.16752e-21)
(0.997471 -0.00144214 4.72509e-22)
(1.01186 -0.0411893 -9.1608e-22)
(0.998224 -0.00106122 3.21747e-23)
(0.999638 -0.00105313 9.76928e-23)
(0.844331 0.0207799 2.61512e-20)
(0.991302 -0.00506554 -2.25694e-21)
(0.999554 -0.000732309 -2.92566e-22)
(0.999982 -1.0937e-06 -1.65995e-24)
(1.0211 0.00630825 2.9014e-20)
(0.974828 -0.0245547 -1.37275e-21)
(0.9997 -0.00055409 8.52357e-23)
(0.997472 -0.00083473 6.05955e-22)
(1.03054 0.0216581 1.17873e-20)
(1.07601 -0.00404292 2.13807e-21)
(0.965152 -0.0217977 -7.72057e-21)
(1 -1.43967e-05 4.11557e-25)
(1.00344 0.0212119 7.78028e-20)
(0.987493 -0.0166879 -4.36307e-21)
(1.10579 0.0540563 -4.01506e-20)
(1.01263 -0.0017694 -7.44412e-21)
(1.01453 -0.00135921 1.69488e-20)
(0.971482 -0.0111388 1.23727e-20)
(0.999911 -6.56172e-05 -7.74689e-24)
(1.02608 -0.000549413 -2.6694e-21)
(1.07815 -0.00893135 -3.07949e-21)
(1.18877 -0.0317105 1.09451e-20)
(1.02383 -0.0996321 1.54983e-21)
(1.08734 0.100283 2.46317e-20)
(1.006 -0.00154842 -1.16417e-22)
(1.1319 0.0497932 -3.32488e-20)
(1.00009 -0.0145408 -3.15795e-22)
(1.01257 -0.0572731 -5.3331e-21)
(0.999642 -0.000162085 -9.37671e-23)
(1.00265 -0.019172 2.04115e-22)
(0.999904 -0.00042656 1.15536e-23)
(1.06066 0.0280909 -2.74061e-20)
(1.16686 0.0994348 -6.59899e-20)
(0.998641 -0.00118022 1.79116e-22)
(1.01755 -0.0136433 1.90067e-22)
(0.984088 -0.00445878 2.11868e-21)
(1.0297 -0.0895893 4.99505e-22)
(1.02396 -0.0930547 -4.15501e-21)
(0.998353 -0.000836781 3.55833e-22)
(1.04174 -0.0331089 -3.51938e-21)
(0.862564 0.00502677 -4.42392e-20)
(1.17645 -0.0416655 8.53392e-21)
(0.999949 -0.000158539 2.62435e-23)
(1.06975 -0.00513968 -7.8269e-21)
(0.997252 -0.00878934 -8.98664e-22)
(0.984434 0.00515422 9.34093e-20)
(0.988968 -0.0052176 3.73724e-21)
(0.995702 -0.0261901 -1.03963e-21)
(1.01465 -0.0370771 -1.5444e-22)
(0.993926 -0.027009 -1.66028e-22)
(0.998104 -0.0213782 -2.24462e-21)
(0.993147 -0.0033332 6.48403e-22)
(0.999375 -0.0143502 1.2519e-21)
(1.00183 -0.00640473 -1.97871e-22)
(1.05407 -0.0326583 2.29035e-21)
(1.0001 -3.51159e-05 -5.2847e-23)
(1.13937 -0.13948 -1.38292e-21)
(1.14492 -0.0617698 2.11604e-21)
(1.07281 0.146439 5.7413e-20)
(0.966836 -0.0206508 1.17651e-20)
(1.1775 0.0537269 -1.47263e-20)
(1.00183 -0.000717351 6.20587e-22)
(1.05311 -0.0840916 -1.45324e-22)
(1.00267 -0.0380945 -2.18087e-21)
(1.03063 0.041362 3.37284e-20)
(0.993617 -0.00395874 1.61341e-21)
(1.00011 -0.000178274 3.48715e-23)
(0.988023 -0.017304 5.68741e-21)
(0.995936 -0.00934257 -7.16474e-22)
(1.03967 -0.031416 7.01825e-21)
(0.974378 -0.0068616 -7.65902e-21)
(0.978818 -0.00888357 2.15042e-21)
(1.1109 -0.0691891 1.70277e-21)
(0.986591 -0.00284045 -3.64995e-21)
(1.0121 -0.0384642 4.3928e-22)
(0.984816 -0.0752809 6.05576e-21)
(1.00001 -8.14238e-06 4.44997e-25)
(1.05642 -0.0253857 1.24044e-20)
(0.987448 -0.0683116 -1.64907e-20)
(1.17055 0.0374522 1.4324e-20)
(1.07441 -0.0882527 -1.25188e-21)
(1.03625 -0.000725772 1.73876e-21)
(1.01237 -0.0985593 -1.12326e-20)
(1.11594 0.141506 1.49459e-20)
(1.031 -0.0399387 2.84478e-21)
(0.970243 -0.0102905 -7.32046e-21)
(1.01079 -0.0477192 -2.35751e-21)
(0.930459 0.00783955 4.19614e-20)
(1.11073 -0.130062 6.0611e-22)
(0.988335 -0.00483533 -1.13589e-21)
(1.00943 -0.120083 -8.61419e-22)
(1.01822 -0.0671878 3.25244e-21)
(1.02313 -0.114536 -1.61959e-21)
(1.02909 -0.0835215 -3.72034e-21)
(1.11756 0.0449546 3.13174e-20)
(0.997474 -0.00162745 3.14305e-23)
(1.01156 0.0518004 1.26515e-20)
(1.00764 -0.00143867 8.83319e-22)
(0.999633 -0.000547446 -1.22274e-22)
(0.998823 -0.00236635 8.61567e-22)
(1.06194 -0.00930197 -2.96234e-21)
(0.77952 0.00742517 1.27745e-21)
(1.00147 -0.00667765 1.1374e-22)
(1.01324 -0.0536072 7.87157e-22)
(1.03106 0.0237827 -1.95739e-20)
(1.00003 -8.09309e-06 -1.04656e-24)
(0.98084 -0.00896178 5.20324e-21)
(1.02214 -0.0107925 6.10829e-21)
(1.06589 -0.0552071 4.99176e-21)
(1.00765 -0.00110321 4.94513e-21)
(0.998496 -0.00191719 1.59851e-22)
(0.983899 -0.0377997 2.02419e-22)
(0.997859 -0.00855211 -2.37229e-22)
(1.00003 -4.5977e-06 1.12768e-23)
(0.978006 -0.0436601 -1.48562e-20)
(1.09471 0.0848403 -8.77378e-21)
(1.01713 -0.0333764 3.94831e-22)
(0.984795 -0.00503244 -3.97843e-21)
(1.00171 -0.000325715 -2.2365e-22)
(1.03536 0.0272313 2.58131e-20)
(0.999653 -0.000624699 -5.65086e-23)
(0.998846 -0.000654762 -1.78876e-23)
(0.999673 -0.000183163 -8.5671e-23)
(0.999294 -0.00216807 -2.15615e-22)
(1.18102 -0.0235506 9.32765e-21)
(1.02517 -0.0399976 4.09819e-21)
(1.00738 -0.01916 5.22165e-22)
(0.983715 -0.00734949 -1.81844e-21)
(1.00004 -5.2534e-05 1.09309e-23)
(1.04631 -0.126742 9.39727e-21)
(1.17478 -0.0900877 2.91968e-22)
(1.04864 -0.136052 -4.5203e-21)
(0.996 -0.033102 -1.92905e-21)
(1.0131 -0.00958233 5.63225e-21)
(0.999807 -9.93006e-05 3.93213e-23)
(0.989292 -0.0114902 -2.26231e-21)
(0.961395 -0.0434478 -9.05647e-21)
(1.17008 -0.0340559 8.29718e-22)
(1.01279 0.074348 -8.81971e-22)
(0.998933 -0.00327215 1.73139e-22)
(0.949826 -0.0302007 5.29662e-21)
(0.995669 -0.00284697 -1.53428e-21)
(1.02966 -0.0371895 -6.70793e-22)
(1.12789 0.0324817 3.11458e-21)
(1.00044 -0.000139555 -1.8566e-22)
(0.999862 -0.000205121 -1.45161e-23)
(1.19822 0.0221768 2.8787e-21)
(1.15638 -0.0453074 -1.40468e-21)
(1.01888 -0.0170063 2.09527e-21)
(0.997325 -0.00179693 8.0756e-22)
(0.99811 -0.00041407 -7.99194e-23)
(0.967334 -0.0444593 2.20339e-21)
(0.999844 -0.000360411 -4.82172e-23)
(1.01471 -0.034711 1.29399e-21)
(0.987823 -0.00144547 7.61441e-21)
(1.00135 0.0421304 -1.51192e-20)
(1.10518 0.0877914 -4.51465e-21)
(1.05027 -0.0780587 5.48836e-22)
(0.990793 -0.069109 6.17632e-21)
(1.00589 -0.00166874 2.47152e-21)
(1.0128 -0.025967 -2.1257e-21)
(1.14227 -0.0520775 8.19472e-21)
(0.989297 -0.0762869 -3.74849e-21)
(1.01376 -0.0463284 1.27923e-21)
(0.999998 -7.16371e-06 1.92993e-25)
(1.12527 -0.058184 5.17241e-21)
(0.976227 -0.00287851 7.12365e-22)
(0.987515 -0.0842171 7.53716e-21)
(1.01692 -0.030999 -3.52023e-21)
(0.960013 -0.0144158 -1.65499e-21)
(0.999643 -0.000327993 -4.1815e-23)
(0.997248 -0.00135586 -3.59538e-22)
(1.05632 0.0400424 3.16006e-20)
(0.972902 -0.0104764 -2.78419e-21)
(0.999985 -1.69807e-06 1.72561e-24)
(0.997406 -0.000522759 -8.34378e-22)
(1.11404 -0.118487 -6.67077e-21)
(0.999849 -4.31025e-05 9.96628e-23)
(1.01621 -0.0519479 -3.04328e-22)
(0.999954 -0.000131891 -2.04087e-24)