/*--------------------------------*- C++ -*----------------------------------*\
  =========                 |
  \\      /  F ield         | OpenFOAM: The Open Source CFD Toolbox
   \\    /   O peration     | Website:  https://openfoam.org
    \\  /    A nd           | Version:  7
     \\/     M anipulation  |
\*---------------------------------------------------------------------------*/
FoamFile
{
    version     2.0;
    format      ascii;
    class       volVectorField;
    location    "8";
    object      U;
}
// * * * * * * * * * * * * * * * * * * * * * * * * * * * * * * * * * * * * * //

dimensions      [0 1 -1 0 0 0 0];

internalField   nonuniform List<vector> 
117990
(
(1.02064 -0.0253963 -5.79535e-19)
(0.9997 -7.11657e-06 -2.99881e-21)
(0.953852 0.00285785 -1.9257e-19)
(0.973515 -0.017638 4.36093e-20)
(1.01887 -0.0122702 5.49168e-20)
(0.985854 -0.020565 5.11868e-22)
(0.935299 0.00555653 -1.44095e-18)
(1.07623 -0.0389402 -1.3469e-19)
(0.993327 -0.00897451 -7.18104e-22)
(0.999647 4.20596e-05 6.34142e-22)
(0.994425 -0.000571993 9.58005e-21)
(1.00346 -0.00299042 5.30167e-21)
(1.00071 -0.021231 5.92947e-20)
(0.806732 -0.00734224 1.45997e-18)
(0.993212 -0.00924582 7.09527e-21)
(0.852164 -0.0487537 3.28615e-18)
(0.997186 -0.00728637 2.23235e-21)
(0.991878 -0.00500821 -1.20558e-20)
(1.00135 -0.048503 1.45055e-18)
(1.01864 -0.0113 1.97986e-19)
(1.07893 -0.0315841 -1.28614e-18)
(0.918811 -0.00336507 -2.12028e-20)
(0.990637 -0.00668554 -1.0703e-20)
(0.969735 -0.0131759 2.59099e-20)
(1.08325 -0.0150211 1.03305e-18)
(0.976319 0.0858085 1.61332e-18)
(0.677622 0.138945 -1.96739e-19)
(1.04641 -0.0013741 1.02403e-18)
(0.99962 -0.00128894 3.40149e-21)
(0.998561 0.0278395 -1.33583e-18)
(0.996718 -0.00116085 7.91884e-21)
(1.02551 0.0358237 3.75595e-19)
(1.0284 -0.00653447 -7.46698e-20)
(0.928173 -0.00252858 1.03653e-19)
(1.09447 -0.0249293 4.32188e-19)
(0.968311 -0.0166989 8.5388e-20)
(0.94145 0.0364083 2.41997e-19)
(0.997248 -0.00742404 -1.12111e-21)
(0.965557 0.60592 2.47736e-20)
(0.963851 0.0189078 3.27629e-18)
(1.02847 0.0343398 -7.30033e-19)
(0.991732 -0.00518502 -2.24574e-21)
(0.955314 0.00131194 4.33905e-19)
(0.968059 -0.0163964 -6.00027e-20)
(0.993405 -0.0664356 5.42151e-20)
(0.807599 -0.00771751 -1.52112e-18)
(1.01933 -0.00322027 7.13102e-19)
(1.04032 -0.00235235 1.7473e-19)
(1.01119 -0.0141061 7.79104e-20)
(1.00353 -0.000264907 -2.41653e-20)
(1.00008 9.86856e-06 9.02584e-24)
(0.940671 -0.00221798 7.79723e-20)
(1.02288 0.0215745 1.13699e-18)
(0.999772 3.23893e-05 -4.86835e-22)
(0.998662 -0.0130328 -2.78513e-19)
(1.02229 0.0213254 -2.8256e-19)
(1.03484 0.00208826 9.32467e-19)
(0.947908 -0.0700843 3.03191e-19)
(0.758046 0.130022 7.54299e-19)
(0.966683 -0.00116889 -5.53236e-19)
(0.998139 -0.00439015 -2.5805e-21)
(0.969001 -0.0103496 -2.38982e-20)
(0.983489 -0.000932801 -1.94506e-20)
(0.938987 0.00776503 -5.05162e-20)
(0.998509 -0.00124053 -8.72662e-21)
(1.01817 0.000316762 -1.49464e-20)
(1.00068 -0.0153024 -3.16664e-19)
(1.03537 0.0152575 9.78251e-19)
(0.709716 0.0814926 4.85793e-19)
(1.03856 0.0033217 4.06911e-19)
(0.924655 0.0664306 8.36296e-19)
(0.751414 0.0723809 -1.00106e-18)
(0.96671 0.0188061 1.47513e-18)
(0.904286 -0.00796406 3.54634e-19)
(1.02595 -0.0399298 2.80725e-19)
(0.928075 0.00158653 1.08514e-19)
(0.951102 0.121135 -3.73573e-19)
(1.0011 -0.0181788 1.20182e-19)
(0.999776 -0.0672963 -5.18296e-19)
(1.0065 0.0706365 9.58582e-20)
(1.00377 0.0764132 3.40132e-19)
(0.998764 -3.35015e-06 2.99196e-22)
(1.04835 -0.157331 -4.47911e-19)
(1.05148 -0.00157745 -4.62494e-19)
(0.943992 -0.0126782 4.28708e-20)
(1.00337 -0.00289929 5.2114e-21)
(0.948453 0.00969685 2.61951e-19)
(0.999728 -0.000488609 -3.9136e-22)
(0.922767 -0.0179332 1.38256e-21)
(0.999726 -0.000759038 1.68608e-21)
(0.793787 0.392234 3.22797e-21)
(0.93997 -0.00371576 -6.55537e-20)
(0.999495 -0.0012009 -4.32228e-21)
(0.973402 -0.0164144 6.4531e-20)
(0.989929 -0.00623851 -1.84357e-20)
(1.00818 -0.00100536 1.02703e-20)
(0.991528 -0.00045592 -4.26852e-21)
(1.05115 -0.156175 -3.41969e-20)
(1.03654 0.192866 -3.39623e-20)
(0.920618 -0.017165 2.15421e-19)
(0.998125 -0.00452322 2.58285e-21)
(1.04232 0.00262067 -9.47345e-19)
(1.01666 -0.009457 -5.72705e-19)
(1.03101 -0.00122923 -1.88809e-21)
(0.923995 0.06604 5.58471e-19)
(1.06065 -0.0777395 -4.76751e-19)
(0.970411 -0.00129832 -9.06399e-19)
(1.02067 -0.0908666 -3.71208e-19)
(0.982675 0.000787195 -1.35368e-19)
(0.999638 -0.0014212 -2.03444e-21)
(0.975856 0.0802412 -7.64262e-19)
(0.991577 -0.000592151 1.71152e-21)
(0.941661 0.131436 2.34593e-19)
(0.991046 0.00300964 8.10009e-19)
(1.11294 -0.0121534 -1.40821e-19)
(1.00415 -0.00596796 1.03212e-18)
(0.994374 -0.000480947 -1.76828e-20)
(0.921004 0.0641751 -1.08933e-18)
(1.00041 -0.000404641 1.9304e-22)
(0.752318 0.0770671 6.92372e-19)
(0.91846 0.0646532 1.56113e-18)
(0.850657 -0.049513 -1.31707e-18)
(0.957196 0.00343251 -1.7418e-19)
(0.833949 0.130559 5.49819e-19)
(0.999722 -3.11653e-05 -6.00168e-22)
(0.995192 0.0310248 1.54257e-18)
(0.968829 -0.0110013 2.09939e-20)
(1.05218 -0.00173036 -4.51595e-19)
(0.96576 -0.00139012 1.46482e-21)
(1.0502 0.000755278 -8.51705e-19)
(1.03484 -0.0340152 -6.40579e-20)
(1.00549 -0.000899833 8.17532e-21)
(0.902523 0.0602784 -7.08437e-19)
(1.00338 -0.00272115 -1.5908e-20)
(1.00048 -0.000364155 9.05024e-23)
(0.998902 -0.00825908 2.26114e-18)
(1.08907 -0.034871 -2.79897e-19)
(1.02565 -0.0040649 -9.50239e-20)
(0.999473 -0.0131752 3.82933e-19)
(0.969969 -0.0118721 -2.18485e-19)
(0.879019 -0.0186364 4.79392e-19)
(1.01007 -0.00878477 5.23444e-19)
(1.00126 -5.42794e-05 -6.42799e-21)
(1.01848 0.0282456 1.41628e-19)
(1.03106 -0.0345218 9.44262e-19)
(0.99997 -1.64605e-05 -8.74437e-24)
(1.02534 -0.000693765 6.76811e-23)
(0.967595 -0.00835262 7.3658e-20)
(1.0372 0.0159976 -1.51e-18)
(1.01594 -0.0138815 -1.9041e-19)
(1.05813 -0.0750588 3.64639e-19)
(0.990607 -0.0639097 -3.89383e-19)
(0.938794 -0.00381728 -4.14004e-20)
(0.999549 -3.01778e-05 2.70802e-22)
(0.941362 -0.00183334 4.601e-20)
(1.03438 -0.00781472 4.51283e-19)
(0.999641 -0.00144536 2.59458e-21)
(1.02362 0.0622449 1.16979e-18)
(0.918119 0.00192697 9.42973e-21)
(1.10627 -0.100193 1.8139e-19)
(0.928147 0.00554987 -5.91669e-19)
(1.02547 0.00096978 5.39146e-19)
(0.983751 -0.000734575 -1.43607e-20)
(1.01762 -0.0548255 -5.17562e-20)
(0.988564 -0.00311136 3.05778e-19)
(0.981698 -0.00975504 -5.01805e-20)
(1.0372 -0.00194633 4.65581e-19)
(0.979432 -0.00998213 4.7154e-20)
(1.01254 0.0649961 -1.70703e-18)
(0.982747 -0.00297631 -3.51845e-19)
(0.974076 -0.00485253 -4.57049e-19)
(1.02173 -0.00603216 -4.02718e-19)
(0.786537 0.437481 5.46391e-20)
(0.833978 -0.0380868 2.30106e-18)
(1.00198 -0.0489692 -4.37912e-20)
(1.03956 0.0106403 -4.27898e-20)
(0.836396 -0.0376899 -5.08029e-19)
(0.981572 -0.0206485 -5.20503e-20)
(1.01978 -0.00382995 1.49272e-18)
(1.01095 -0.0154036 1.27633e-19)
(1.0353 -0.00198848 9.078e-20)
(1.02301 -0.040474 3.20421e-19)
(1.01851 -0.0338248 -6.27253e-19)
(1.01925 0.0243823 6.09456e-19)
(0.97073 -0.00460172 2.13038e-18)
(0.993101 -0.0157572 -2.87266e-22)
(0.966471 -0.0146895 -2.2878e-20)
(1.00014 0.00154648 -6.344e-19)
(1.02755 -0.00927375 1.3632e-18)
(0.805655 0.388138 -8.83526e-21)
(0.982999 -0.0198183 -1.72822e-20)
(1.01057 -0.00750896 -3.50999e-19)
(1.01386 -0.066661 -9.12557e-19)
(0.948708 -0.00468138 -8.16676e-19)
(0.980399 0.0847401 -2.13562e-18)
(1.0691 -0.103989 2.1911e-19)
(0.83295 -0.0357639 1.51273e-19)
(0.897141 -0.000158735 -5.77157e-20)
(0.930932 -0.00480641 5.96217e-19)
(0.999701 -0.0165379 4.46635e-19)
(1.01644 0.0217867 7.98694e-19)
(0.967453 -0.0560969 9.30324e-19)
(1.03924 -0.000319357 2.69004e-19)
(0.999689 -0.00045139 -2.67005e-21)
(0.965308 -0.0148313 -2.51637e-21)
(0.927607 -0.0282789 3.97348e-19)
(0.986657 -0.0164721 -1.46918e-20)
(0.998519 -0.00124608 6.72087e-21)
(1.04211 0.00199387 -2.26194e-19)
(1.03816 -0.0472684 -1.36936e-18)
(0.833932 -0.0352076 -1.28126e-18)
(0.970334 0.000222086 -5.64023e-19)
(1.08368 -0.0133274 -7.66085e-19)
(0.999752 -0.000753827 2.21162e-22)
(0.988933 -0.00366844 9.90941e-19)
(0.949078 -0.00627466 4.05586e-19)
(1.0284 0.0364688 6.7174e-19)
(1.02009 -0.00838605 8.06721e-19)
(0.804965 -0.00665434 -8.79458e-19)
(0.996649 -0.00514771 1.3141e-21)
(0.985701 -0.0447869 1.65022e-20)
(0.948162 0.000770008 -2.86343e-20)
(1.01146 -0.0121566 -3.67642e-20)
(0.920024 0.003588 -4.93395e-19)
(0.999781 -4.38848e-06 6.99634e-22)
(1.0633 -0.0330021 8.11092e-19)
(1.0109 -0.000650421 -6.82128e-19)
(0.924346 -0.00766268 6.42735e-19)
(1.06924 -0.103153 1.2658e-19)
(1.05868 -0.0329833 4.46891e-19)
(1.04344 0.00205376 -9.30129e-20)
(0.986853 -0.0668091 -7.098e-20)
(0.880293 -0.0125413 -4.01608e-19)
(0.973744 -0.0126035 3.89958e-19)
(1.03835 -0.0341022 -4.30045e-19)
(1.01624 0.0222838 1.19743e-18)
(1.00964 -0.000599221 1.14899e-20)
(1.01462 -0.00945367 6.24964e-19)
(0.980943 -0.0158031 -1.41659e-19)
(0.940131 -0.00307665 -1.01399e-19)
(0.859176 0.291156 -3.17714e-19)
(1.01195 -0.0213385 8.90425e-21)
(1.10884 -0.0995419 -2.32026e-19)
(1.04476 0.200294 2.51103e-19)
(0.964594 -0.00147906 -7.50737e-20)
(1.01457 -0.0124668 -3.78603e-20)
(1.02971 0.0226608 1.08496e-18)
(0.924861 0.00318121 1.09347e-18)
(0.979376 -0.00978847 1.71249e-20)
(0.896482 -0.0597566 5.85557e-19)
(1.00404 -0.0692541 -4.72638e-19)
(0.979135 -0.0216676 -2.88205e-21)
(1.02545 0.00304086 -4.09627e-18)
(1.00777 -0.0176345 1.97055e-20)
(1.05975 -0.00307166 -8.72027e-19)
(1.03437 -0.0036432 -6.22726e-19)
(0.901295 0.143587 -8.56007e-19)
(1.05167 0.000822687 4.22804e-19)
(1.00655 -0.000163539 5.55292e-20)
(1.07965 -0.0386378 -1.38726e-20)
(1.03642 1.45805e-05 -1.45465e-18)
(0.807457 -0.00328571 5.40141e-19)
(1.01792 0.0271229 -8.74605e-19)
(1.05435 0.623995 -4.70444e-20)
(0.981505 0.00125764 -1.04428e-19)
(0.974085 -0.0183044 -1.38729e-19)
(0.831179 0.128024 8.87855e-19)
(0.965991 -0.00411525 8.16167e-20)
(0.951059 0.111222 -4.41802e-19)
(0.966371 0.112501 8.20011e-20)
(0.998582 -0.000668371 -5.89172e-23)
(1.02867 -0.00843332 -3.3228e-19)
(1.01207 -0.0152888 3.3051e-19)
(1.01254 -0.020235 -5.16575e-19)
(0.996807 -0.021483 2.29545e-19)
(0.947355 0.00895014 1.30171e-19)
(0.988037 -0.0688635 -4.13402e-19)
(1.00106 -0.0487353 -2.18556e-20)
(1.00019 -0.00697081 -4.2075e-19)
(1.02143 -0.0901264 2.98949e-19)
(1.01656 -0.0585626 1.36838e-19)
(0.964968 -0.00102704 -5.67721e-20)
(1.0026 -0.0179187 3.03336e-20)
(0.923632 -0.024258 -2.09113e-19)
(0.999362 -0.0137563 1.32565e-20)
(1.03305 -0.00198003 1.02538e-18)
(1.06019 -0.0390015 4.73539e-19)
(1.02913 0.00182282 -2.11478e-18)
(1.0549 -0.165312 2.59811e-19)
(0.963404 0.565436 1.73675e-20)
(0.989157 -0.0676005 -1.01334e-19)
(0.999784 -0.000524439 -2.01355e-21)
(0.75958 0.152644 4.97875e-19)
(0.97247 0.00131438 -5.49966e-19)
(0.997617 -0.00940516 -3.35134e-22)
(1.03672 0.00209886 -7.04926e-19)
(0.976535 -0.0167328 -3.22832e-21)
(1.02878 0.031885 5.86109e-19)
(1.00969 -0.0174779 -2.49189e-19)
(0.958285 0.125934 2.09773e-19)
(0.82726 -0.0288269 6.86846e-19)
(0.994171 -0.045353 -1.45238e-19)
(0.650674 0.312001 -1.50011e-20)
(0.968416 -0.00409444 1.81944e-19)
(1.00375 -0.0614489 5.49121e-20)
(1.03232 0.0510096 3.38421e-19)
(1.01186 -0.031038 -6.96928e-20)
(0.923577 -0.00466033 -4.44588e-19)
(1.40846 0.330205 -1.25644e-20)
(1.02004 -0.00370749 5.63057e-21)
(0.966157 -0.019852 -1.49291e-20)
(0.905596 0.0398005 1.10202e-18)
(0.891907 0.011967 7.21695e-19)
(0.980016 -0.0154315 4.29048e-19)
(0.996253 -0.0185935 -3.05631e-19)
(1.01739 -0.00900986 1.56194e-19)
(1.01483 -0.0641856 -1.42999e-18)
(1.01364 -0.0120425 1.61927e-19)
(0.970759 -0.0144561 -1.14513e-19)
(0.772872 0.154837 -1.25517e-19)
(1.04952 0.0226983 2.33457e-19)
(0.99672 -0.00520433 -9.96406e-21)
(1.03871 -0.00138957 -2.11193e-19)
(1.11282 -0.0141115 2.54179e-19)
(1.01461 0.0637039 -1.3138e-18)
(0.919624 0.00405826 1.01271e-18)
(1.03446 -0.00888698 -6.63583e-19)
(1.0281 0.0267196 7.50666e-19)
(0.824614 -0.0260287 -1.33709e-18)
(0.755295 0.146342 -7.81464e-19)
(0.966964 -0.0197167 1.05571e-20)
(0.999751 -0.000565613 3.7994e-21)
(0.993908 -0.0163213 -3.77876e-21)
(0.977798 -0.0212397 1.04109e-20)
(1.10034 -0.00533184 1.9062e-19)
(0.984915 -0.0154283 1.51869e-19)
(1.01337 0.0609066 6.80187e-19)
(0.998818 -0.000762887 6.74233e-22)
(0.984257 -0.0205663 -4.76303e-22)
(0.965267 -0.0144124 3.19714e-20)
(0.955193 0.00192962 1.70015e-19)
(1.02363 0.0414587 -2.53882e-18)
(0.677669 0.135649 7.77179e-20)
(0.938515 0.00846035 -4.59445e-19)
(0.968018 -0.00725907 -7.18238e-20)
(1.02144 -0.0124667 -5.89804e-20)
(0.998061 -0.006551 2.61626e-19)
(1.05869 -0.0118682 -1.06732e-20)
(0.951415 -0.033366 -1.1269e-18)
(1.00402 -0.00933095 -1.32419e-19)
(0.903528 0.0601113 3.73028e-19)
(1.00508 0.0211806 -9.58006e-19)
(1.03667 -0.000640016 1.32605e-18)
(0.976075 -0.0193646 -7.83192e-20)
(0.999885 -0.016458 4.90811e-20)
(1.00606 0.000894431 9.26698e-20)
(1.02073 -0.0239028 9.21796e-19)
(1.00018 -4.92777e-05 -1.50703e-24)
(0.991496 -0.0209853 -7.10629e-20)
(1.02845 -0.0094837 -5.83969e-19)
(0.959511 0.0881291 1.29705e-18)
(1.01111 -0.0710139 -9.31429e-20)
(0.940386 0.0339187 4.60016e-19)
(1.11188 -0.00618456 -2.00639e-19)
(1.01092 0.0776068 -8.60492e-19)
(1.00005 -7.70939e-05 -1.09887e-23)
(0.900083 -0.000226105 1.0979e-19)
(0.959802 0.00263261 -2.52815e-19)
(1.01258 -0.0124824 -3.27726e-19)
(1.00007 -9.1138e-05 6.85315e-23)
(1.12853 0.0213479 2.3076e-19)
(0.784335 -0.0278045 -5.49247e-19)
(0.925252 0.0034015 1.06885e-18)
(0.98797 -0.000511746 -2.21715e-20)
(0.943609 0.101342 -6.66799e-19)
(1.02436 -0.00959579 8.44398e-20)
(1.01653 -0.00914927 -3.19544e-19)
(1.00337 -0.000144036 2.14357e-20)
(0.981576 -0.026124 -4.14707e-21)
(1.02866 -0.0121431 -8.52881e-20)
(0.98755 -0.0661091 -5.39507e-19)
(0.983242 -0.000798713 2.57269e-19)
(0.987732 0.00262535 1.13291e-18)
(1.02769 -0.00834263 -7.10647e-19)
(1.03779 -0.00417053 -5.47564e-19)
(0.997591 -0.000128068 -1.16964e-20)
(0.880256 -0.0090794 8.50111e-19)
(0.883566 -0.0618049 -1.33275e-19)
(1.02019 -0.0130688 -2.12941e-19)
(1.05398 -0.0399427 1.95026e-19)
(1.0261 0.0321182 -2.6e-18)
(0.981253 0.0229159 -1.94098e-18)
(0.94805 0.00952717 -1.9524e-19)
(1.04419 0.000507639 5.49929e-19)
(0.948892 0.000428206 -2.63345e-20)
(0.980867 -0.0253998 4.40072e-20)
(1.40788 0.310512 5.45946e-21)
(1.01384 -0.0128522 1.60336e-19)
(1.01185 -0.0151417 -5.98874e-19)
(0.939108 0.00586286 -5.64794e-19)
(0.938837 -0.0192011 -2.84765e-19)
(0.985857 -0.017852 -6.86491e-20)
(0.967821 0.0107575 -3.48274e-19)
(0.969248 0.0211422 1.37337e-19)
(1.24873 0.496687 2.67814e-20)
(1.04645 0.0262815 -7.68166e-19)
(1.00048 -0.000385691 -1.96878e-22)
(0.994667 -0.00852787 -1.08993e-19)
(1.02961 0.0244572 2.8645e-19)
(0.909137 -0.0021904 5.11569e-20)
(0.988154 0.00306354 6.27817e-19)
(0.964745 -0.0195655 4.25171e-21)
(1.02276 -0.0115068 -1.65024e-19)
(0.976773 -0.0170284 1.1195e-19)
(0.941523 -0.011119 -3.40282e-20)
(1.00044 -0.00883371 1.49071e-19)
(1.01205 -0.0146045 3.62625e-19)
(1.2497 -0.0396834 -3.70572e-20)
(1.00084 -0.000596313 2.89831e-21)
(1.03989 -0.00288846 -9.20514e-20)
(0.999717 6.59903e-05 -5.03995e-23)
(0.830718 -0.033013 1.75351e-18)
(1.005 -0.00435375 1.45214e-20)
(0.972567 0.0604056 9.76493e-19)
(0.89273 0.0134138 -3.84299e-19)
(0.997083 0.041303 -8.00735e-19)
(1.05535 0.0211884 5.2649e-19)
(0.988782 0.0356181 -7.63515e-20)
(1.03634 0.00320805 1.33717e-18)
(0.990218 -0.0161389 -3.13251e-20)
(1.02225 -0.00934564 -1.6914e-19)
(0.995368 -0.01182 7.38462e-23)
(0.951861 -0.0171034 6.9342e-22)
(0.926466 -0.00306907 -2.58745e-19)
(0.968842 -0.00776923 6.88121e-20)
(0.993897 -0.00731508 -2.61287e-19)
(1.02241 -0.0265085 -3.45665e-19)
(1.00493 -0.00415733 -1.76084e-20)
(0.996536 -0.00188897 -2.93828e-21)
(1.00306 -0.00263784 -1.1482e-20)
(0.998225 -0.0181777 -1.13155e-19)
(1.04894 0.000888942 8.03822e-19)
(1.01812 -0.0205471 7.34732e-19)
(0.935884 0.00796348 6.00328e-19)
(0.999229 -0.0131392 -2.75158e-20)
(1.11879 0.043923 -5.10939e-19)
(1.01471 -0.0126813 4.79686e-19)
(0.996807 -0.0019393 -1.2216e-20)
(0.981706 0.0241857 2.78325e-18)
(1.03673 0.00847351 1.29917e-19)
(0.986362 -0.0273466 3.57091e-18)
(1.00097 -0.000750512 -2.88226e-21)
(1.00058 -0.0110791 0)
(1.02297 -0.00863166 2.51865e-19)
(0.980289 -0.010855 -2.42806e-19)
(0.978852 -0.0122279 7.17073e-20)
(1.12147 -0.0522769 1.94003e-19)
(0.925229 0.0017498 -7.30974e-19)
(1.00353 0.0674942 1.75483e-18)
(0.901032 -0.00140758 3.57874e-19)
(0.964298 0.00924956 -1.87045e-19)
(1.01503 -0.0122185 -3.48779e-19)
(1.0203 -0.0122012 2.51035e-19)
(0.983947 -0.048154 -8.13094e-19)
(0.906705 0.0407463 -4.59798e-19)
(1.08165 -0.0309358 7.43952e-19)
(1.02328 -0.00981839 3.87811e-20)
(0.838085 -0.0395972 -2.51714e-18)
(0.901095 -0.00286995 -2.05508e-19)
(1.00098 -0.000789981 1.22515e-21)
(1.0381 -0.00287778 1.10273e-19)
(0.887675 -0.0616223 3.31824e-19)
(0.978274 -0.0136488 3.79906e-20)
(0.903068 -0.00952006 -6.21761e-19)
(1.02306 -0.0288297 -1.24733e-19)
(1.02038 0.0609514 2.16993e-18)
(0.999689 4.28307e-06 -1.53587e-22)
(1.02564 -0.00770842 -7.64734e-20)
(1.03985 0.0009032 6.94082e-19)
(1.03521 0.00164369 -8.50765e-19)
(0.998962 0.0536087 -4.6772e-19)
(0.99992 5.29821e-06 1.33151e-24)
(0.998868 -0.000873427 2.26751e-22)
(1.02603 -6.81699e-05 -3.73344e-19)
(0.977854 -0.0137355 4.1149e-19)
(0.988242 -0.0164973 1.15006e-20)
(0.997592 -0.0100503 -5.79201e-21)
(1.01148 0.0717125 -8.44777e-19)
(1.07635 -0.00345055 -9.39171e-19)
(0.952875 0.138778 -9.1381e-20)
(0.987343 -0.0134603 -9.79895e-19)
(0.914021 0.00563502 -1.18861e-19)
(1.00933 -0.0581828 2.95438e-19)
(1.01965 0.0150214 1.29132e-18)
(0.979451 -0.01685 -4.7482e-20)
(1.13045 0.012319 -3.13974e-19)
(0.861913 -0.0490162 -2.32355e-18)
(0.992749 0.00195089 -5.84971e-19)
(1.01481 -0.00950216 -3.35602e-19)
(0.992527 -0.0113535 -1.96037e-19)
(0.974684 -0.0168123 1.89827e-20)
(1.00016 -0.0707922 -2.91052e-18)
(0.974587 -0.0109006 5.95463e-19)
(0.956657 0.0578264 5.36617e-19)
(1.0135 -0.0365574 -5.00001e-19)
(0.998284 0.0414989 4.45331e-19)
(0.931349 0.0114949 -2.10877e-19)
(0.957965 0.0012733 4.60694e-19)
(0.844703 0.303285 -1.2562e-20)
(1.01549 0.0208303 1.2758e-18)
(0.980708 -0.021618 9.59122e-20)
(1.00833 -0.0173637 3.86783e-19)
(1.00597 -0.0160428 -2.99745e-19)
(0.999646 -0.000139537 -4.31787e-21)
(1.01744 -0.0230108 -1.27321e-18)
(0.997663 -0.0758228 4.12435e-19)
(1.00358 -0.0100993 -2.65296e-20)
(1.04 0.0169259 -8.01049e-20)
(0.994018 -0.0136213 7.39044e-22)
(0.994033 -0.0139494 -3.03638e-22)
(1.02757 -0.000830337 -2.86884e-20)
(1.01402 -0.0331438 3.05964e-19)
(1.01511 -0.00214156 -6.15885e-20)
(1.01682 -0.00961278 4.6856e-21)
(0.916983 0.00230975 -3.56051e-19)
(0.981581 -0.0167435 -6.94806e-20)
(0.953132 -0.0165765 -1.21136e-20)
(1.01021 -0.0706531 -3.64608e-18)
(1.04968 0.0758944 1.28272e-18)
(1.02453 -0.00484347 7.07094e-19)
(0.974074 -0.00700056 -3.51573e-19)
(0.985378 -0.0569557 7.14201e-20)
(1.0119 -0.0136076 -2.14985e-19)
(1.00046 -0.000729012 -3.53905e-22)
(0.999935 -7.78112e-05 4.4139e-23)
(0.914284 -0.0103883 -1.22451e-19)
(0.860321 -0.0492662 2.37059e-18)
(0.957214 -0.0285291 1.88423e-20)
(1.00045 -0.000676943 -9.29334e-22)
(0.930026 -0.00207825 -1.96691e-19)
(1.02605 0.041308 2.34542e-18)
(0.710164 0.0764535 -5.83495e-19)
(1.01471 0.0875202 -6.01479e-19)
(0.998862 -5.92315e-05 -3.0377e-21)
(0.92481 -0.00230304 -8.47735e-19)
(1.00071 -0.0112045 -7.39566e-19)
(1.00237 -0.000243055 -1.0526e-21)
(0.998242 -0.00544586 1.2767e-21)
(0.919781 -0.0057004 1.32655e-19)
(1.02567 0.000355954 -1.23917e-19)
(1.016 -0.0129963 -2.74513e-20)
(1.08711 -0.0680846 1.08893e-19)
(1.00984 -0.000854652 -3.49645e-20)
(0.950704 -0.0550768 -1.04566e-18)
(0.923394 0.00890656 3.60604e-19)
(0.913913 0.0058171 -2.01442e-19)
(0.939725 0.00885559 -7.59774e-20)
(1.01813 -0.0102548 -2.5104e-19)
(0.94854 -0.0496497 -1.24023e-18)
(1.00553 -0.0100257 3.26333e-20)
(1.00044 -0.000327974 -7.04234e-23)
(1.02741 -0.010209 2.11676e-19)
(0.928316 0.0402153 -4.37714e-19)
(1.05657 -0.0354988 2.25558e-18)
(0.989999 0.0124064 9.8957e-19)
(1.0202 -0.0216259 -2.37201e-19)
(0.969686 -0.00194184 1.05756e-19)
(0.983867 0.0051611 4.93375e-18)
(1.03503 -0.00107085 -1.83327e-18)
(1.00406 -0.00837529 -2.18511e-20)
(1.04935 0.00092674 -7.07479e-19)
(0.956899 0.00415768 -1.00137e-19)
(0.943084 0.111856 -8.39069e-19)
(0.992594 -0.0138315 -2.35036e-19)
(1.04462 0.00190754 -1.76911e-18)
(1.01773 0.00025436 1.35356e-19)
(0.990376 0.0130728 6.82012e-19)
(1.01248 -0.00139935 -6.26315e-20)
(0.981157 -0.0100207 -4.62703e-20)
(0.935984 0.00861356 5.69979e-20)
(0.971615 0.00652432 5.75303e-19)
(1.00621 -0.000377469 -4.93237e-20)
(0.981684 -0.0164831 -5.57593e-19)
(1.11748 -0.051723 -3.85882e-19)
(1.00112 0.0673627 -1.3824e-18)
(0.985763 -0.0267817 4.31734e-19)
(0.978005 -0.0137325 -1.0627e-19)
(1.00528 0.177146 -1.57505e-19)
(1.00131 -3.63197e-05 -2.75834e-21)
(1.23343 0.493295 -1.15439e-20)
(0.980338 -0.0166743 -7.40969e-20)
(1.03721 0.00192244 -1.09233e-18)
(0.980261 -0.0104393 -2.32688e-19)
(1.03014 -0.000247154 -4.00135e-19)
(0.786198 -0.0216369 -1.3801e-18)
(0.967312 0.0207904 -1.35915e-18)
(1.06135 -0.0461976 1.0473e-18)
(0.988861 0.0347874 2.23567e-19)
(0.925964 0.0859395 7.49125e-19)
(0.974182 0.112144 -6.38504e-19)
(0.878808 -0.0228968 -1.04745e-20)
(1.03523 -0.00173724 2.0305e-18)
(0.935452 0.0591012 7.09718e-19)
(0.988971 -0.0318503 -2.77459e-18)
(1.01072 -0.0110075 -1.1868e-20)
(0.994417 -0.0219353 1.06672e-19)
(1.05066 -0.0357478 -2.44629e-18)
(1.00057 -0.000498328 -3.88832e-22)
(1.04313 0.618089 5.79223e-20)
(0.728786 0.0512034 -2.45223e-19)
(0.949766 0.0085038 -4.11911e-19)
(1.01671 -0.0148216 -2.21559e-20)
(1.03803 -0.00110327 -2.87073e-19)
(0.977688 -0.0211681 -5.95678e-21)
(1.02237 -0.00921737 -5.04102e-21)
(0.993484 -0.0537051 -6.63206e-19)
(1.09261 -0.0260412 7.82908e-19)
(0.996777 -0.000108653 -7.02377e-22)
(1.00585 -0.00992424 -3.25414e-20)
(1.04483 0.0191484 -2.73195e-19)
(1.00888 -0.0168756 2.62838e-20)
(0.638687 0.310853 3.49815e-20)
(0.906776 0.0421477 -7.73239e-19)
(1.00914 0.0507117 2.72615e-19)
(0.998336 -0.00550202 -3.38615e-21)
(1.01363 -0.0580575 -9.90878e-20)
(0.997496 -0.0492497 -7.68177e-19)
(1.0128 -0.000670448 4.17795e-20)
(1.01028 -0.0143921 6.57902e-19)
(1.0301 0.025338 5.85835e-19)
(1.08963 -0.0296254 -5.07748e-19)
(1.00867 -0.0166984 -9.76574e-20)
(0.999823 -1.45798e-05 2.04607e-23)
(0.937696 0.0590951 5.33938e-19)
(1.00954 -0.0150546 1.16832e-18)
(0.996755 -8.07309e-05 -1.56189e-20)
(1.03793 -0.00340975 -1.807e-19)
(1.02602 -0.0113411 -1.38199e-19)
(0.983364 -0.0164309 1.31901e-20)
(0.958724 0.000414441 3.24968e-20)
(0.891499 0.593446 4.16882e-20)
(0.920146 0.00203181 -8.02709e-20)
(0.978533 -0.0225024 -6.57509e-22)
(0.939858 -0.0184202 -5.67829e-21)
(1.00594 -0.00975147 4.66819e-20)
(0.99708 -0.00208546 8.55977e-21)
(1.00641 -0.00824469 -5.81673e-19)
(0.91074 0.123599 -1.23118e-19)
(0.994801 -0.00146901 6.0016e-21)
(0.922527 0.00814772 4.27495e-19)
(1.01702 -0.0117881 1.92779e-20)
(0.984779 -0.0256394 2.02155e-19)
(0.971209 0.00515572 -7.60626e-19)
(0.997487 -0.00939603 2.23732e-21)
(1.10785 -0.0058239 -4.292e-19)
(1.04993 0.00464954 -5.18597e-19)
(1.01285 -0.0541042 3.38316e-19)
(0.921699 0.12205 3.44325e-19)
(0.98857 -0.00586653 8.56177e-21)
(0.999249 -0.00182436 -2.26249e-21)
(0.990788 -0.00654061 -1.71279e-20)
(0.97716 -0.0111675 -2.19998e-21)
(1.0205 0.0035384 0)
(1.00649 -0.0107663 -4.06528e-19)
(0.900248 2.1864e-05 -2.54445e-20)
(0.9937 -0.0128078 -2.17568e-18)
(0.871753 -0.0532772 1.9995e-18)
(0.871767 -0.0519657 -1.7297e-18)
(1.02827 -0.0123896 4.5617e-19)
(1.04247 0.00830896 1.26853e-18)
(1.00635 -0.0675262 2.26963e-18)
(0.989424 -0.00663873 8.32067e-21)
(0.981373 -0.0159637 -1.16329e-19)
(0.949177 0.00870951 3.92752e-19)
(1.00435 -0.00467364 2.06182e-20)
(1.0145 -0.0238702 3.03207e-19)
(1.01812 -0.0109776 -9.37741e-21)
(1.01633 -0.0161329 -6.75111e-19)
(1.01421 -0.085557 -7.57379e-20)
(1.09383 -0.00663481 -8.87694e-19)
(0.945946 -0.0521251 1.01865e-18)
(0.97843 -0.0186118 -1.55112e-20)
(0.946632 0.00967192 6.90896e-19)
(1.00948 -0.000525421 -4.91662e-20)
(1.02279 0.0630919 -1.4607e-18)
(1.03864 0.00322891 -2.37303e-19)
(1.00086 -0.0235214 -9.11714e-20)
(1.00028 -1.261e-05 -2.69858e-23)
(0.988063 -0.0119619 1.22184e-18)
(0.935542 -0.000517864 2.43903e-20)
(0.820712 -0.0250652 -1.2418e-18)
(1.00648 -0.0104415 -2.10921e-19)
(1.02779 -0.0120964 -2.26257e-18)
(0.997851 -0.0527619 -6.03723e-19)
(1.02872 -0.0105911 9.24711e-20)
(0.678176 0.219962 -3.00504e-19)
(0.981579 -0.000691076 5.50221e-20)
(0.932785 0.000828051 1.46351e-18)
(0.997342 -0.00188216 4.09924e-19)
(1.03008 0.025354 -2.83253e-19)
(0.906729 -0.0159579 -1.40194e-18)
(1.0477 0.000951644 1.36839e-19)
(0.999722 -0.000534588 -1.12491e-21)
(0.985053 -0.0437607 4.07844e-20)
(0.918538 0.00239871 -4.04809e-19)
(0.977025 -0.0119159 -5.50694e-19)
(1.03787 -0.00426207 -1.33688e-19)
(1.09037 -0.0694388 1.0384e-19)
(1.00583 -0.00981673 -5.31866e-20)
(1.21 -0.14893 8.25902e-20)
(0.974207 -0.0170398 -7.85715e-20)
(0.999516 -0.00172218 -9.69054e-22)
(1.00699 -0.011194 4.52215e-19)
(1.00462 -0.0101445 1.34815e-20)
(1.09248 -0.0291709 6.97718e-19)
(1.00452 -0.00460728 -1.81703e-20)
(0.969062 0.0607819 -3.09073e-19)
(0.946737 0.00693588 1.10015e-19)
(1.04983 -0.000586553 -2.60241e-19)
(1.02851 -0.00795266 -3.89928e-19)
(1.01911 0.0577508 2.08599e-18)
(1.0227 -0.0087724 -4.85948e-19)
(1.0044 0.0205122 -8.22674e-19)
(0.999963 -0.000144835 3.13414e-23)
(1.02214 -0.039225 4.37087e-19)
(1.00879 -0.0174095 -1.43846e-19)
(1.01688 -0.0122347 4.24791e-20)
(0.935144 -0.00206707 1.74755e-19)
(1.0005 -0.00041925 8.71914e-22)
(0.773258 0.166975 -3.95643e-19)
(1.04398 0.0226224 1.89342e-19)
(0.725405 0.054129 5.48313e-19)
(1.00392 -0.00813638 4.24076e-20)
(1.10566 0.134939 1.34874e-19)
(1.02071 0.00368921 -3.22386e-19)
(1.01833 -0.0348078 1.53603e-18)
(1.00486 -0.0149992 6.6471e-20)
(0.993861 -5.00577e-05 -4.68672e-21)
(1.04198 0.01786 -3.2089e-19)
(1.00371 -0.00328132 -1.1798e-20)
(1.06273 -0.0315664 -4.94994e-19)
(0.999395 -0.010422 -7.82878e-20)
(0.788077 -0.0366303 -1.21408e-20)
(0.960559 0.0878576 -1.7257e-18)
(1.00347 -0.00311778 9.34856e-21)
(1.05401 -0.157576 2.52337e-19)
(0.997264 0.0137383 -1.63754e-18)
(0.997085 -0.00197467 4.1972e-22)
(1.02742 0.0401158 1.82762e-18)
(1.01264 -0.0276191 1.51957e-18)
(0.95788 -0.00161104 2.64073e-20)
(1.01551 -0.0092364 4.01366e-19)
(1.00891 -0.00109216 2.57247e-20)
(1.02002 -0.00685006 -4.80048e-19)
(0.937072 0.00768557 -2.77428e-20)
(0.914106 -0.00144375 3.47592e-20)
(0.952441 0.0573395 -7.37388e-19)
(0.993282 0.00110139 -4.02797e-19)
(1.07257 -0.0130029 1.37712e-18)
(1.11619 -0.00510136 1.10405e-18)
(0.949664 -0.00134829 -7.55254e-20)
(1.00044 -0.00888726 -2.26631e-21)
(0.955092 0.0575442 -3.00576e-19)
(0.98007 -0.017006 -4.6555e-20)
(0.914482 0.00177394 -3.65306e-20)
(1.00516 -0.0102605 -7.56125e-21)
(1.00315 0.0577135 6.74666e-20)
(0.908275 -0.0141614 1.99775e-18)
(1.10081 -0.0158812 1.1507e-18)
(1.00005 -0.0189507 1.96322e-19)
(1.00116 -0.0208147 -3.48826e-20)
(0.938166 0.000482002 -8.54025e-20)
(0.687252 0.123804 -3.54108e-19)
(1.01493 -0.0568541 -1.97282e-20)
(1.01411 0.0629602 -2.65901e-19)
(1.04165 -0.00285217 -8.8842e-19)
(1.02094 0.0158526 -1.08439e-18)
(0.995517 -0.00265979 -4.01068e-21)
(0.77664 0.268568 1.41882e-19)
(1.00039 -0.000644435 -4.59959e-22)
(1.0211 -0.00853754 3.18308e-19)
(0.999645 -1.01366e-06 3.28765e-22)
(1.22782 0.467667 -6.37591e-20)
(1.08296 -0.028612 -6.08752e-19)
(0.983536 0.0234416 1.31918e-19)
(0.999612 -0.00021337 4.34074e-22)
(1.06256 -0.0491253 -2.82083e-18)
(0.990924 -0.00268741 1.19727e-20)
(1.01474 -0.0241432 3.04828e-19)
(0.986896 -0.00641965 2.81492e-20)
(0.884929 -0.0616087 -6.62092e-20)
(0.971965 -0.00808134 5.76632e-19)
(1.00736 0.0680176 1.05032e-18)
(0.996928 -0.000234196 2.132e-20)
(1.03675 -0.0458065 4.35184e-19)
(1.01109 -0.0137523 1.18504e-19)
(0.970022 -0.00331692 4.08215e-19)
(0.999491 -0.00185714 4.50504e-21)
(1.00029 -0.0210558 -3.68371e-20)
(0.994872 -0.000275426 2.3232e-21)
(1.0031 -0.066382 3.92074e-19)
(1.02067 -0.0130296 1.80844e-19)
(0.978235 -0.0116603 -2.09288e-21)
(0.93054 -0.00210609 -1.11306e-18)
(1.0019 -0.00483678 -1.24718e-22)
(1.00585 -0.00842951 4.32594e-20)
(1.01232 -0.000167469 5.15041e-19)
(0.988731 -0.00586763 5.11813e-21)
(0.982504 0.00827187 -2.19454e-18)
(1.03474 0.0301966 2.0802e-18)
(0.659968 0.194657 -1.15879e-21)
(0.909666 0.00136668 9.56653e-20)
(1.05488 -0.0713913 -3.78163e-19)
(0.999543 -3.49856e-05 -2.76848e-22)
(1.00238 0.186603 1.7394e-19)
(1.01459 -0.0845779 2.78014e-19)
(1.00846 -0.00119082 3.79911e-20)
(0.958109 -0.0288815 2.39687e-19)
(1.00018 -0.0217868 1.42276e-19)
(0.929858 -0.0342784 -3.4161e-19)
(1.24781 0.19195 1.96056e-20)
(1.01252 -0.00104826 -4.53022e-20)
(1.01552 -0.031978 -9.53217e-19)
(0.99952 -0.00172604 3.86879e-21)
(0.976627 -0.0159686 6.2996e-20)
(0.991396 -0.00282784 1.17793e-21)
(0.945746 0.0529954 -1.01083e-19)
(0.925932 -0.0109656 -4.22343e-20)
(1.00274 -0.00567177 -3.25115e-22)
(0.996209 -0.00210404 7.01721e-21)
(1.03861 0.00117477 8.67563e-19)
(0.951322 -0.0706145 -1.15838e-19)
(0.981572 -0.0168409 7.3504e-20)
(1.00232 -0.0205022 -8.75868e-20)
(0.95201 0.0557597 -8.56376e-20)
(0.96642 -0.0559158 5.87476e-19)
(1.01908 -0.0119502 1.17545e-19)
(0.772818 0.026524 -2.1326e-20)
(1.14955 0.0813779 -3.40714e-19)
(0.898279 -0.0579963 -5.36248e-19)
(1.00066 -0.00877025 8.96185e-21)
(0.999858 -1.45218e-05 9.99873e-22)
(0.928016 0.0422046 5.73039e-19)
(0.925687 -0.0228868 -1.22303e-19)
(1.00205 -0.00482097 -5.54969e-21)
(0.753842 0.100095 8.29001e-19)
(0.98171 -0.00956471 3.07921e-20)
(0.999735 -0.000136281 2.34438e-21)
(1.02815 0.0438831 2.22357e-19)
(1.04819 -0.105225 8.80786e-20)
(0.945872 -0.0538108 -1.35431e-18)
(0.878555 -0.0596553 -2.44689e-19)
(0.979626 -0.00491956 4.85024e-19)
(0.911554 -0.00172697 5.69202e-20)
(0.916427 0.000432866 2.93676e-19)
(1.0153 -0.00959517 -4.93199e-19)
(0.967159 0.0829839 -7.86025e-19)
(0.994986 -0.0119922 1.3532e-21)
(0.996973 -0.0474644 -1.44984e-19)
(1.0378 0.0517468 1.55483e-19)
(0.997217 -0.0117572 4.03889e-21)
(1.14603 0.0741944 4.71825e-19)
(1.01162 -0.0185386 9.28296e-19)
(1.00576 0.0473399 -2.10288e-18)
(1.01201 -0.00761583 3.45328e-19)