/*--------------------------------*- C++ -*----------------------------------*\
  =========                 |
  \\      /  F ield         | OpenFOAM: The Open Source CFD Toolbox
   \\    /   O peration     | Website:  https://openfoam.org
    \\  /    A nd           | Version:  7
     \\/     M anipulation  |
\*---------------------------------------------------------------------------*/
FoamFile
{
    version     2.0;
    format      ascii;
    class       volScalarField;
    location    "30";
    object      p;
}
// * * * * * * * * * * * * * * * * * * * * * * * * * * * * * * * * * * * * * //

dimensions      [0 2 -2 0 0 0 0];

internalField   nonuniform List<scalar> 
7807
(
0.237023
-0.0199567
0.349884
0.218197
-0.00077568
-7.5195e-06
0.344096
-0.00423949
-9.01349e-05
0.0841481
-7.27865e-06
0.00145445
-0.0064757
0.038479
0.087979
-0.0140626
0.248943
-0.0087284
-0.00170408
-0.0885648
0.052294
0.000875071
0.0268236
0.169166
-0.01144
0.245557
-0.000723368
0.0488567
0.140886
-0.000636147
-0.0171886
0.475493
0.0261775
-0.000339874
-2.83515e-05
0.0676328
-0.000496446
0.333376
-0.00589859
-0.000149085
-0.00570855
-0.0132151
-0.0995571
-0.0772848
-6.7553e-05
-2.18276e-05
0.000853712
-0.00591962
-2.28822e-05
-0.0884033
0.00243084
0.0459955
-0.014446
-0.0141801
0.0668005
-0.00409839
-0.00150289
-0.00407615
-0.0252546
-0.000331787
4.7352e-06
0.00328762
0.0388173
0.0016621
-0.000503543
-0.0173404
-7.725e-05
-3.20862e-07
0.0620547
-0.00557268
-1.98769e-05
-0.0596722
-0.0111258
-0.0191211
-0.00849666
-0.0362794
0.345854
0.0511787
0.0367821
-0.0559304
-0.00627545
0.294922
0.0794139
-0.0218423
-0.00162243
-0.00146691
-0.00477215
-0.0141229
-0.000683065
-0.00298933
0.144212
-0.0872781
-5.22566e-05
-0.000958991
-0.00264066
-0.017616
-0.0569001
-0.0115173
-0.0016953
-0.000639085
-0.0350902
0.0447873
-0.00253927
-2.39702e-06
-0.0767639
0.148662
0.402396
-0.00428308
-1.70504e-08
0.0212493
0.204829
-0.069309
-5.06085e-07
0.0228424
0.148843
0.000143724
-0.0919114
0.117197
-0.0435079
-0.020573
-0.0339041
0.280566
-0.0948352
0.00746587
-0.0328438
-0.000948363
-0.0148051
-0.000531916
-0.000534069
-0.0171815
-0.142433
0.0378289
-0.000456682
-0.000766505
-0.0224187
0.197436
0.338528
-1.92901e-06
0.00633563
-0.0460206
-0.0175824
-0.0580614
-0.0378366
-0.0183857
0.401709
-0.0325503
0.141875
-0.0267951
-0.0231437
0.280174
0.0641951
-0.0756272
-0.00155457
0.0410983
0.0790771
0.311076
-0.0430408
-0.00618409
0.412187
-1.9819e-05
-0.00166253
0.175522
-7.00683e-06
-0.00297649
-0.00295503
0.218916
0.219443
0.429614
-0.00311489
-0.00212219
-3.02939e-07
-0.0295494
0.000143036
-0.0131287
0.00700204
-0.0229091
-0.0538546
0.123615
-5.81766e-05
-0.000427308
0.223644
-1.56474e-05
-3.01544e-05
0.348793
-0.025319
-0.0556497
-0.0414665
-0.0191387
-0.0353285
-0.0467649
-6.87637e-06
-0.0544212
0.129899
-0.00267492
1.36708e-05
0.169389
-0.000805542
-0.0161838
-0.0328034
2.36329e-07
0.000237978
0.202532
0.159512
0.308638
-0.0851465
-0.0644346
-0.149842
0.0537795
0.199287
-7.35699e-05
4.13791e-06
0.376948
-0.0119942
-0.000449079
-0.052546
-0.0155768
0.28321
0.288071
-0.0628679
0.462309
-0.000754778
-0.00834226
-0.0355602
0.0655422
-0.123778
0.20601
0.407228
1.47962e-06
0.00813813
0.125623
-0.00505588
0.114406
-0.000647517
0.463832
0.302983
-0.00456111
0.000294841
-0.000137671
0.122291
-2.42676e-05
-0.00897244
-0.0487085
-2.40848e-05
-0.00171566
-0.000560379
0.132978
-8.72396e-06
-0.00309521
-0.0550432
0.47077
0.0298015
0.434825
-8.93695e-06
-0.0348852
-0.000159535
0.325503
0.00311504
0.339605
-0.0015686
9.40469e-05
-0.0101337
0.0566147
0.000267861
-9.59806e-05
0.000211554
-0.00537483
-0.0581132
-8.68245e-06
-0.0414584
-0.00282984
-5.72748e-05
-0.000495929
0.332586
-0.00574528
-0.000392098
0.426172
-0.00176813
0.224439
-0.000163529
-0.00773262
3.67575e-07
-0.0368713
0.0625593
-0.0445943
-0.0262585
-0.000375538
-0.0748385
-0.0118364
-5.72572e-05
0.000202754
-0.0026715
-0.00592531
0.00214101
-0.00137489
-0.0209763
-0.0528712
-0.0197511
-0.0636522
-0.02492
0.307369
0.320099
-0.00113992
-0.0780785
-7.88324e-07
-0.00314331
-0.0174397
0.164474
0.0903337
2.18641e-05
-0.0029143
-0.0242872
0.140934
-0.000959583
0.00273664
0.000670361
0.025735
-0.158053
0.300995
-0.00104115
-0.0236695
-5.46736e-05
0.00204581
-1.53433e-05
-0.0231741
-0.00016293
-0.00350394
-0.109901
-0.0350702
-0.00602484
0.00725244
-0.000375871
0.0157958
-0.0138481
0.0578885
0.135909
-0.191436
-0.0846785
-0.0120974
0.0038936
-0.0482921
0.437055
-0.0739704
0.030807
0.45401
-0.00100944
-0.00139971
-0.0858807
-0.0013202
-0.0289934
0.00540054
-0.00194251
-0.00137327
0.133425
-6.13327e-05
0.000252347
1.44717e-05
-0.002405
-0.0090921
-1.15905e-06
-0.000671968
-0.024181
0.383222
-0.00590836
-0.011501
0.381165
0.249809
0.0468379
-0.0650748
-0.0297414
0.00361931
0.212265
-0.00871616
0.25778
-0.0399555
-0.113798
0.161828
0.261064
-0.0373046
0.0837615
0.204498
0.235171
0.0520386
-0.00256172
-0.00379377
-3.17791e-05
-0.0081461
-0.008843
0.000233698
-3.84798e-05
-0.0012226
-0.0730505
0.0623568
-0.0151252
-0.00658715
-0.00286258
-0.025274
-0.00570396
-0.000391953
0.176265
-0.00123797
-1.58667e-05
-6.41325e-05
-3.86152e-06
-0.0186738
0.129189
-0.0030571
0.0285526
-0.136247
0.324552
0.00112911
0.00543779
-0.00459764
0.321459
-0.000611925
0.29824
0.145143
-4.14746e-05
-0.0420717
-0.00237242
-0.0569732
0.00026704
0.0552736
-0.00200746
0.00496499
-0.000505907
0.119613
0.143788
-0.0623671
-0.0257721
-0.00286185
-0.032796
0.0385869
0.466551
-0.0843974
0.00229763
-3.02131e-07
-0.0118104
-0.00156558
0.0137576
-0.107535
-0.090673
0.343457
0.129428
-0.136916
0.179223
0.311851
0.0299961
0.000434685
0.224624
-0.00117144
-0.000119279
-0.0122075
2.00942e-05
-0.164708
-0.00654695
-0.0339537
0.00114724
0.173689
-0.00122774
-1.39963e-05
-0.119666
0.00103446
0.00706554
-0.0344268
-0.0410981
-0.037524
0.126974
0.10262
0.10573
-9.04008e-05
0.0535045
0.0651202
-0.000467324
-0.0147747
0.000296257
-0.00140116
-0.0136984
0.00377555
-0.000840864
0.115339
-8.35178e-06
6.37258e-05
0.00128293
-0.0172356
0.0191265
-0.0303339
-0.0210524
-0.0528828
-0.141627
-0.00591996
0.217736
-0.0941836
-0.00571992
0.464107
-0.0572132
-0.00956513
-0.0209069
-0.0120842
-0.0154687
-0.00901654
0.0266613
-0.0812596
-1.62197e-05
0.022804
-3.43387e-05
0.304948
0.0720599
-0.00411148
-0.0101345
-8.21506e-05
0.295108
0.282006
0.0351986
0.126798
-0.0624456
0.344401
-5.4512e-05
0.00537075
-0.01288
0.129591
0.418691
0.0246741
0.123524
-0.00565352
-9.88552e-05
0.111342
-0.120641
0.30921
0.00967276
0.187679
-0.00597401
0.327618
0.267498
-0.0077999
-0.00665963
0.0868365
-0.0421961
-6.9463e-05
-0.0114824
-0.0455127
-0.0725779
0.0102933
0.00763713
-9.88567e-05
0.286204
-0.00439181
-4.81834e-05
-0.0482639
-0.000373047
-0.000106211
-0.000360247
0.190144
-0.105253
0.394234
1.20757e-05
0.188802
-0.0387782
-7.4522e-05
1.62024e-06
0.13868
0.181855
-0.00362879
0.162548
2.35385e-06
0.172527
-0.183132
-0.00808189
0.323947
-0.0495916
0.117789
-0.019411
0.170955
0.17948
-0.0151666
-0.0192745
-0.0082205
-0.00210574
-0.000132511
-0.0042699
0.242424
-1.40208e-05
0.164937
-0.10537
0.27285
0.155709
-0.0453225
0.393451
-0.00134154
-0.0054006
-0.0718863
-0.0156862
-0.00576822
-0.0417683
0.0183573
0.440214
6.26436e-06
-0.0015702
-0.06557
-4.18617e-08
0.312971
0.00107316
-5.62232e-07
5.81412e-05
0.000159214
-0.021611
0.0132181
-0.00119589
-2.47012e-05
-0.0060012
-0.00168
-0.114378
-0.0376228
0.0199469
-2.8192e-06
-0.177534
-0.010668
0.0931173
0.264196
5.09964e-05
0.0998761
4.06069e-05
-0.0103173
0.0753504
-0.00600668
0.206716
-0.0116851
0.00855635
0.0784193
0.126732
-0.000503144
-0.0087126
0.154097
-0.0848101
0.333165
-0.0082593
0.236722
-0.00791948
-0.000791819
0.116677
-0.0110865
0.0719339
0.00112833
-4.5832e-07
-0.130029
0.169821
0.000360025
0.0883973
-0.0110443
-0.177418
-0.018102
-0.0317733
-0.00131781
-0.0060978
-0.0695868
-0.0229489
-0.00820069
-0.000175844
0.353488
0.0946364
0.0278671
-0.000115664
0.264363
-3.75896e-06
-0.000103834
0.104644
-0.00810264
0.143676
0.0477957
0.0136239
-0.0709423
-0.143208
-0.0402199
0.000704843
-0.0340845
-1.75572e-05
0.000319119
0.198978
-0.014455
-0.00225724
-0.0254451
-0.0015276
-0.000507264
0.423376
-0.00877879
-0.000477831
8.81461e-08
0.114387
-0.0325059
-0.000302681
-0.0019954
0.134044
0.0655179
-0.0354914
-2.54244e-06
0.148827
-0.0186992
0.163657
0.0155019
0.0197667
-0.0251607
-4.42699e-05
0.0763626
0.0572509
-0.00432271
-0.0988075
0.241162
0.00477672
0.149756
-0.00708334
-0.0454393
-0.000214919
-0.00818497
-0.000148077
0.134767
0.220455
-0.00124542
0.015658
-0.013964
-0.0836114
-0.0908259
-0.0013548
0.00378461
0.411259
-0.022685
-5.82024e-05
0.0649938
-0.0059017
0.353709
-0.010566
-0.0203243
-0.0181498
-0.0225483
-0.0138527
-0.00642166
-0.00774558
-0.000348545
0.0111742
2.38465e-05
-0.174035
-0.047182
0.302586
-0.0341807
0.149358
0.00125734
-0.0729375
-0.0273219
0.17442
-0.006425
9.22933e-06
-0.0188544
-0.00741867
0.00715378
-0.0210279
-0.019832
-0.0498586
-0.0110146
-0.0218488
-0.0793593
-3.58348e-07
0.0252422
-0.068868
0.124271
-0.0814499
0.0716149
-0.0990101
0.276668
-0.0120849
-0.0256782
-0.0343486
0.369404
-0.14643
-0.0108712
-0.12919
-0.0563103
-0.121303
-0.0761585
0.144885
-0.00234047
0.206732
0.00733121
-0.000340755
-0.0014609
0.0552243
0.461501
-0.00088766
-0.0408328
0.140981
2.2367e-06
-0.0184726
0.0255437
-0.0261374
0.00747647
-0.00168475
-0.0390198
-0.00516539
2.86842e-06
-0.0477226
0.2169
-0.0111963
-0.0134478
0.00115836
0.140795
-0.000370665
-0.000903514
-0.000201434
-0.0010976
0.0128996
-0.0147947
-0.00365359
-0.0155365
2.90935e-06
-0.136821
-0.108196
-0.154968
-0.0267221
0.0121518
-0.000106081
-0.0138971
-0.0552975
-0.00533747
0.273647
-0.00180491
-0.0491457
-0.0042562
-0.00841181
0.122698
0.000182664
-0.000118364
0.0956615
-0.0191369
0.00989593
-0.00252743
-0.00135967
-0.0534228
-0.000169176
-0.014772
-0.00921839
0.234674
0.216717
-0.0651217
-0.0680874
0.00579757
-0.00574256
-0.0315185
-0.0783182
-0.0307844
-1.23811e-06
-0.0348984
-0.0181983
-0.0858218
-0.00805991
-0.0337437
-0.000264249
-0.00237591
0.157384
-0.0242784
-7.72966e-07
-0.00192177
-0.134057
-6.79609e-05
-0.036869
-4.71154e-05
-0.000669899
-0.110982
-0.0635296
-3.65e-05
3.53891e-06
0.0980261
-0.0607517
0.295357
0.226744
-0.0373108
-0.000935871
-0.0270837
6.95676e-05
-0.140807
-0.112932
-0.0453303
-0.0138032
0.219975
-0.000225045
3.9701e-05
-0.00333617
-0.147323
0.00120123
-0.0438413
-0.0541229
-0.0086897
0.0130648
0.0515935
-0.00197798
-0.0224039
-0.0954235
0.147838
-0.0513685
-1.0757e-07
-0.129212
-0.0471711
-0.0602141
-0.00201029
0.000361313
-0.00413519
-0.116219
0.0204607
-0.0201843
0.0986392
-0.0694592
-6.55511e-05
0.0105952
-0.00297334
-0.0216297
-0.151263
-0.00013467
0.113185
0.163106
0.00438536
0.17407
-0.0916948
0.0314454
-0.0616196
0.156304
0.0754702
0.441164
-3.64384e-07
0.072697
0.137574
0.00930265
-0.000844272
-0.00986339
-0.0495552
1.01331e-06
-0.0120261
-0.0604168
-0.0106288
-0.0142299
3.17968e-05
-0.123096
-0.000292604
-0.000349955
0.187012
0.000633525
0.0360449
0.0105976
0.161056
0.00135384
-0.000429559
-0.137923
0.00118705
0.284139
0.000493118
-0.0616517
-0.00023046
-0.000253873
-0.00156171
-0.0792817
-1.81048e-05
-0.00545265
0.016008
-0.000788691
2.58147e-06
-4.39405e-05
0.116582
-0.0656523
0.00199257
-0.00047265
0.00294219
0.00973781
0.00226432
-0.000250267
0.29543
-0.124361
0.171993
0.252385
-6.5693e-05
0.0257995
0.0790616
-0.00041161
-0.00017596
-0.000508142
-0.0374664
-0.0010518
-0.023803
-0.0297533
-0.0697939
0.131349
-0.127548
4.26088e-07
-0.0132837
-0.0178308
-0.0212874
-0.0022221
0.00163962
0.000469617
0.0177229
-0.000199456
-0.000251776
-0.0133031
-0.00267122
-0.0171377
-1.77434e-06
-0.0100484
0.0215989
-0.0508407
-0.0563356
-0.00537928
-0.00744632
-0.00538429
-0.00301344
-0.00675767
-0.00524647
-4.28025e-05
-0.000321401
0.0122151
-0.0073543
-0.00302498
0.00325958
-0.00361103
-0.153305
-0.00742616
0.119555
-0.00719743
-0.0466171
-0.0258231
-0.0158551
-0.00999857
-0.00210799
0.000345879
-0.00209368
-0.00789011
-0.00980143
0.15088
0.112864
0.0279906
0.264503
-1.86367e-05
-0.00376435
-0.00945996
-0.00535198
0.0598593
-0.0131573
0.0235643
-0.00463285
0.166546
-0.00126807
-0.00115886
-0.00461072
-0.0295477
-0.000128689
-0.027434
-0.00334385
-0.0129383
-6.2751e-06
-0.00370031
0.000773131
-0.0121521
0.0142576
0.0249596
0.0122696
-0.00909361
-0.0216617
0.0873027
-0.00101858
-0.00104876
-0.00105786
0.382849
-0.000111752
0.0466682
-0.0125732
-0.0140095
-0.0152668
-0.0429852
-0.0175707
-0.0231178
-0.014031
-0.00298061
-3.78992e-05
-0.00236703
-0.0126707
0.0737562
0.000687844
0.117621
-0.0225455
-0.00910154
-0.000375368
-0.0201834
-3.59739e-05
0.112618
-0.0211094
-0.0179885
-0.0166823
-0.00477126
-0.0283189
-0.000752829
-0.0274316
0.0762223
-0.0168688
-0.0859986
-0.00068196
-0.0175413
-0.0128573
0.00955515
-0.00203519
0.108077
-0.00119368
-0.0106055
-0.000467001
0.12233
-0.0264787
-0.0164675
-0.00164996
-0.00664601
-0.00175085
0.149371
-0.0183994
0.16629
-0.00481195
-0.000611702
-0.000589388
-0.00149538
0.140601
-0.0464993
-0.00472638
8.52957e-05
-0.0121894
-0.0266846
-0.000848817
-0.0247526
-0.0106585
0.0414607
-0.00288847
-0.00389818
0.352998
-0.0446532
-0.0157473
-0.0425576
2.27993e-06
0.0556946
-0.00200877
-0.0159113
-0.00376065
-0.0238805
0.000225499
-0.000307716
-0.00149852
0.00153319
0.154114
-0.00313878
-0.00102139
-0.00288088
-0.0509734
-0.00515168
-0.0127826
0.000997279
-0.00507971
-0.00477673
-0.00197422
0.157457
-0.0314367
0.00142829
-0.00219418
-0.0169355
-0.00770589
-0.0329089
-0.00103577
0.0676029
0.0138161
-0.00516172
-0.00115861
-0.00966587
0.40271
0.155248
-0.00711847
-0.000235086
-0.00146298
-0.0116195
-0.00260124
0.0126486
-0.000272476
-0.0251738
-0.000999518
-0.00980108
-0.120297
-0.000895998
-0.0146655
-0.000679022
0.249916
-0.00497835
-0.00695253
-0.0590966
-0.000846318
-0.0178138
0.0275483
0.354069
-0.00715305
-0.0079157
-0.000987134
-0.000385003
-4.30944e-06
-9.31565e-07
-0.00669546
-0.000377102
0.0776744
-0.000537655
-0.000987521
0.00347319
-9.78028e-05
-0.0304995
-0.0736334
0.0109288
0.0278052
0.0176259
0.0115659
-0.0656185
0.0666377
0.0512751
0.0717634
0.0926428
-0.00757841
-0.000492589
-0.00617752
-0.0822937
-0.00186415
-0.00952666
-0.00481601
0.275496
-0.0642058
-0.00021314
-3.30129e-05
-0.000640018
-2.73701e-06
0.000171081
-0.000410347
-0.00506957
-0.0320256
0.000159897
0.0009973
-9.35197e-05
0.0384982
-0.00919781
-0.0715206
-0.00107497
0.250721
0.234124
-0.00709333
-0.103852
-0.0180273
-0.0141004
-0.00965523
-0.00113856
-0.0953515
-0.0480242
-0.036022
-0.106742
-5.76027e-05
0.148332
-0.0322649
-0.00545516
-0.04563
0.011083
-0.000277985
-0.00572726
-0.0006461
0.00191342
-0.0015223
0.129073
8.92957e-05
0.00579172
-0.000153093
-0.130514
0.00478279
-0.00085769
-0.0107791
6.07515e-05
-0.0153869
0.0859101
-0.00521418
-0.000773253
-4.70688e-05
-0.000308556
-0.000242591
-0.0414215
0.0944669
-0.0231369
-8.93289e-05
0.00146767
-0.000275256
0.176592
-0.0432927
0.203014
-0.0299672
-0.000181235
-0.000227556
-0.00507346
-0.00322963
-0.000493733
-2.37268e-06
0.0147489
0.0183688
-8.71783e-05
-0.000297538
-0.0125134
-2.48481e-06
0.129001
-0.000592459
-0.0357937
-0.0127386
-0.00356258
-0.0389537
-0.0483109
0.115827
-0.0387764
-0.0121325
-0.000119749
-0.03729
-0.0119669
-0.0269368
0.0669165
0.280338
-0.000512875
-0.0408039
0.000467164
0.251192
0.0261151
-3.901e-05
-0.0040459
-0.00226068
-0.00320683
-0.02403
0.0625186
-1.41842e-05
0.000516965
0.000229152
0.04792
-0.000235243
-0.000100593
-0.121224
0.227895
-0.0365322
0.111893
-0.00141598
-8.37184e-05
-3.62055e-07
-0.119546
-0.0208841
-0.000238328
0.0738523
0.00656531
-0.00338688
0.312104
-0.000392331
-0.00270718
-0.0448337
-0.0459166
-0.00114373
0.102757
-0.0856748
-4.67976e-05
-0.00139966
-0.000130974
-4.40351e-05
0.105619
-0.0152456
-0.000168616
-0.0304554
-0.0163815
-0.00172778
-0.0533783
0.00101647
-0.013073
0.000467871
-0.00220015
-0.0456179
-0.0260245
-0.0011275
-0.000610003
0.11963
0.160911
-0.131924
0.00256393
0.0115244
-0.00280484
0.128096
0.0768202
-0.0161262
-6.81088e-05
0.00336857
-0.0293125
-0.0035739
-0.0225452
-0.00137968
0.0209845
-0.0196862
-3.86432e-05
-3.89741e-05
-0.0623775
-0.0273331
-0.0153952
0.0038264
-0.0290792
-0.0333068
-0.000105637
-0.00111943
-0.000136613
-0.0371052
-5.54735e-06
-0.00111277
-0.0650494
-0.131534
0.0780964
-0.00189724
0.00200991
-0.0166766
-0.0159895
-5.4894e-05
-0.0235721
0.0725359
0.120785
1.15471e-06
-3.13003e-05
0.123246
-0.00162381
-0.113218
-0.0202767
0.0015799
-2.71562e-05
-0.0375282
-0.0550867
0.12653
-0.0296169
-0.000745408
-0.0145681
-0.0477516
-0.000338046
-8.12658e-05
-0.000558484
-0.0462242
-0.0315985
0.106629
-8.00907e-05
0.372498
-0.057968
-2.50283e-06
-0.000926429
1.36327e-05
2.05041e-05
-5.69107e-06
1.09855e-05
-0.0313828
-0.000510427
0.000116564
-6.69921e-05
0.107531
-0.00340807
-7.11226e-05
-3.23779e-05
0.301499
-0.0153757
-0.073535
0.000201876
-0.000414879
0.0342919
-4.96936e-05
-0.0172059
-0.170053
0.000927934
-0.00713191
-3.16679e-05
-9.51914e-05
-0.0233985
-0.085682
0.00392306
-0.15488
-0.0925765
-5.03748e-06
0.0138848
0.0224026
0.082014
-0.000866613
-5.78278e-05
-0.0411352
-0.00363876
-0.000422153
-0.0308147
-5.30794e-05
0.01849
-0.000101643
-0.000554012
-0.038258
-0.00233788
-0.037811
0.359242
-0.00125531
6.06153e-05
-0.0500818
-0.0650986
0.0039462
0.00235039
-4.41143e-05
-0.0205498
-3.91846e-05
0.152239
0.426353
0.0454614
0.00138539
0.00159625
-6.56641e-06
-0.0217007
-3.38483e-05
-0.0111727
-0.00104748
5.42684e-05
-0.00178124
-0.0099242
-3.57822e-05
0.000256135
-0.0111986
-0.000126493
-0.0097383
-0.0117191
-0.0227218
-0.00120344
0.386437
-0.000720572
0.00105993
5.01867e-05
0.00845251
-0.0290787
0.0052082
-7.62886e-05
-2.93165e-05
0.000640559
-4.93238e-05
-2.45021e-05
-0.0117615
0.000218346
-4.59169e-06
-0.0348666
-0.00257584
-0.0308873
-0.00094827
-1.63482e-05
-0.00157005
-0.0207516
-0.0133411
-0.0306847
0.000999431
0.000111077
-0.000250471
-0.000839216
-4.35642e-05
0.220551
0.000611126
-4.68029e-06
4.0217e-05
-0.00138978
-0.000326681
-0.0343684
-0.0317888
-0.00011157
-0.00457729
-1.77339e-06
-0.00323311
-2.06753e-05
0.0244875
-6.14273e-05
-0.000144981
-0.00405041
-1.37358e-05
0.00813481
-0.000105121
-0.000637606
0.0120592
-2.31845e-06
0.300597
-0.0377864
-0.028876
-1.05133e-05
-3.88639e-06
0.000542001
-0.000556181
-0.0446776
-3.93582e-06
-2.25517e-06
0.000190889
-3.42334e-07
9.38221e-05
0.000123705
-0.0002241
0.000254145
-0.0323569
0.383003
-0.0388207
0.274923
0.00510026
-0.0167445
-5.04661e-06
-0.000358333
-0.00870694
1.43645e-05
6.42171e-05
2.78094e-05
0.0324258
-0.00154764
-0.000193061
0.351422
-0.000178584
7.55092e-05
0.000142586
-7.71609e-07
-0.000857439
-0.00151082
0.00040521
1.08447e-05
-0.000709624
-1.41747e-05
-0.00119408
-0.0315154
-0.000168811
-0.00198751
1.82011e-07
-0.00327203
-8.05141e-05
0.149103
-0.000196482
-0.000324481
-0.0343463
0.0017824
-8.41344e-05
-0.000719926
-1.23497e-05
0.1353
-0.0499537
-0.000417442
-0.000143022
-0.00254881
-0.000190085
0.0387222
0.0837726
0.00079335
2.41093e-05
-1.17512e-06
-1.38499e-08
0.0320218
5.38592e-05
-0.0293288
-0.0341377
-0.0130741
-0.0614734
0.398861
0.00080431
0.156458
-0.0123479
-0.0214742
0.137766
-0.000117753
-0.0438012
-3.77932e-06
-0.00631697
-0.0247803
5.47525e-06
-0.0527802
-0.000415355
-0.0236311
-0.00633795
-0.0214373
-0.0278981
-0.00414205
-0.0514609
-0.022449
-3.67395e-05
-0.00637167
-4.865e-05
-0.0197286
-4.03941e-06
-4.47257e-05
-0.00308636
0.130343
-5.97427e-08
-0.0325832
0.00151676
6.88069e-06
-0.0202025
-1.82651e-06
-0.00698807
-0.000186757
-0.0199242
1.81712e-05
-3.42084e-05
-0.00189233
-8.25783e-05
0.126896
-0.0219798
0.044723
-2.72444e-05
0.000189268
-0.0166397
-4.49962e-07
-0.0396109
-0.0418354
-0.0322871
0.378339
-0.00446507
-3.4056e-06
0.0163159
-0.0222853
-0.00299145
-4.68684e-05
-2.89431e-05
-0.0301506
1.24638e-05
0.000286503
-2.65351e-07
1.44939e-05
-0.0148575
0.0819292
-0.0956769
0.0715469
-0.00354463
4.13833e-08
0.00116365
-0.0555602
-1.99347e-06
-3.45818e-06
7.65569e-05
7.26466e-06
0.000107127
0.194483
0.0233461
5.81524e-06
-1.61024e-06
-0.0386468
0.161317
0.141337
-3.60556e-06
-0.0250652
-0.0190512
-0.0108689
-0.0287636
-0.009114
-0.00170653
0.111715
-2.6093e-05
-0.0187549
0.13444
-0.0342965
-2.04169e-05
-0.0345249
-6.55501e-05
0.250382
0.0155785
-2.69739e-05
-1.22019e-05
0.149032
-5.56455e-07
-8.66307e-05
-0.00642156
-4.71851e-06
0.205603
0.000248157
-0.00399512
-0.0347189
-0.00243316
-0.08935
0.147152
-0.0224055
-0.0609741
0.000342939
-9.15911e-06
-0.000814246
-1.52497e-05
-1.038e-05
0.00505576
0.144814
0.119181
-0.000249758
0.198399
-0.0163773
-2.15032e-06
-0.0239789
-1.83828e-05
-0.0204871
0.0167405
-0.0145725
0.00169839
0.000739054
-0.00516379
-1.08112e-06
-0.00106027
0.00918282
-0.00130551
-3.60874e-05
1.55901e-06
-1.52295e-05
0.0213983
2.13563e-06
-0.0242024
0.208744
-0.00462482
5.09933e-06
-0.00186947
-1.11727e-05
0.0436777
-0.000102595
-1.90713e-05
-1.13933e-05
-4.73548e-06
0.169312
-9.67696e-05
0.196164
-0.0521443
9.7878e-06
-0.0445366
-0.000553767
0.124934
0.356934
-0.000585081
-3.02944e-08
-3.59932e-06
-7.70434e-06
0.107858
-2.59488e-07
0.000285976
-0.0124601
0.183428
-1.3782e-06
-2.53767e-06
5.95334e-08
1.11151e-06
-0.0145831
-2.32938e-07
0.231827
-0.0156324
-2.16708e-05
2.19206e-06
-0.00092695
-0.0161544
-5.78122e-08
-1.1654e-05
0.132515
2.61265e-06
-0.0229643
-0.0786984
1.87229e-05
-2.61473e-07
-0.179709
-1.0796e-07
0.130956
7.86837e-07
-0.00022849
-1.25301e-06
-3.24874e-05
0.0709267
-1.29176e-06
-0.000964512
-3.01126e-06
0.00303947
-0.00248419
-0.00326591
-0.00183286
0.12242
-0.000297279
-3.48834e-05
-0.00478595
-0.0048593
-5.54817e-05
-6.38032e-05
-0.000582268
-1.72439e-07
0.142427
-0.00988806
0.394688
-2.20547e-06
-0.00478898
-0.000174411
0.103787
3.05486e-06
-0.0216901
9.76281e-07
-0.000868747
-0.0235165
-7.18205e-05
-0.0110504
-0.0360557
0.00153514
-1.36884e-05
-0.063551
-7.81228e-05
-0.000382493
-0.00325359
-0.0232239
0.00029453
-7.5143e-05
-0.000202096
-0.00109677
-0.000659986
-3.30671e-06
-0.000582185
0.353606
1.20569e-05
-0.00167173
-0.0244797
-0.0352837
-0.0426561
-0.0258834
-0.0159143
-0.000652518
-0.0232735
7.43911e-06
-3.02567e-05
0.371607
-2.5534e-05
0.14382
-0.000117955
6.79841e-05
-0.000508696
-0.101188
-0.000177278
-0.00140663
-9.05159e-06
-0.000151547
-2.44139e-05
-2.54131e-05
-0.00798374
-5.54891e-05
-4.26578e-05
-2.36747e-05
-3.43515e-05
-9.8405e-06
-0.0343218
0.200046
-3.15205e-06
-0.000172716
-8.27433e-05
1.59069e-06
-0.000327977
-1.08822e-06
-0.000380207
2.89782e-05
-0.000129272
-0.0405643
-0.000313752
-0.00125498
-1.15452e-06
-0.00183365
7.67774e-05
-2.27319e-06
-4.07508e-06
3.04898e-08
-0.000247077
0.000117835
-0.0346875
-0.0244082
-0.0383684
-0.00052841
-0.00235831
-0.0551164
-0.0361293
-1.61299e-05
0.00620106
0.00261343
-0.00033479
-0.00817971
-0.0276215
0.352889
-0.000131537
-4.54757e-06
0.000115319
2.18154e-06
1.45624e-07
0.0560445
0.000713019
0.0659008
-0.0410688
0.332513
-0.000145271
-8.56506e-07
2.01478e-05
-7.86824e-06
-0.00047243
0.121363
0.176511
-4.79014e-06
-7.80073e-05
-1.31933e-05
0.166796
0.00195284
-0.00976061
1.82898e-08
7.19684e-07
0.0036012
-0.000208437
-0.0556607
-0.0121253
-5.20552e-06
0.00132383
-0.0281548
-1.66408e-05
0.000549202
-4.23038e-05
-0.0295267
-0.0006399
0.114437
1.26545e-07
0.00061805
-0.00198188
-6.26695e-07
2.35531e-05
-0.0167718
-4.17965e-07
-0.000294094
-2.24228e-06
-0.00984043
-0.0266599
-0.00381329
-0.0100242
-0.00461298
0.0048299
-0.00590499
-0.000985335
6.04572e-06
3.55214e-06
-1.46812e-06
-9.36594e-07
-1.31613e-05
0.00401551
-0.0548283
0.000122419
-0.0543503
-0.00124496
-0.0561853
1.02095e-05
-1.00792e-05
0.00043773
-0.106158
-6.23809e-07
-0.0516453
-0.0125678
-0.0250846
-0.0571319
2.869e-07
-0.00143342
2.61172e-05
-0.178311
0.104242
-6.73744e-06
-0.0479212
-0.0202428
-0.00184051
-1.24615e-06
-3.35385e-06
0.0082813
-0.00816161
-3.41653e-06
-0.00380251
-1.80185e-05
2.79867e-05
0.0948603
-2.50267e-06
-1.31795e-05
-7.66766e-05
-4.56473e-07
0.000268177
1.06805e-05
-0.00232609
2.67005e-05
-0.00896353
0.000321302
-0.000123981
-0.034294
-0.0322385
-0.00415549
-2.74451e-06
-9.09374e-07
-0.0718587
0.00264393
-0.0331784
-5.53974e-06
-0.00329723
-3.0093e-06
-1.45196e-06
0.04805
-0.00311308
-0.00113039
-1.12555e-05
-0.0148192
2.57557e-06
-0.0470685
-2.28062e-06
-0.0543311
-1.15317e-05
-1.99203e-06
9.91539e-06
0.000329437
-0.122131
-0.00909086
-0.0584941
-5.16621e-06
3.74312e-06
-0.0511629
-0.0325965
-0.00393007
-3.43742e-06
-0.0565799
-0.0462002
-0.0484814
-8.20295e-06
-4.13103e-06
-2.26372e-05
-0.116103
-0.0591514
0.000164618
-0.00510488
-3.02949e-05
0.189779
1.27804e-05
-7.3767e-06
2.05937e-05
-3.14008e-05
-4.93816e-06
-0.00225337
1.52401e-06
-0.00164199
-0.0593139
-0.0062987
-0.0265919
-5.37981e-06
-9.92366e-06
0.0300198
-0.0748622
-0.00207985
0.0849053
-3.90142e-05
-6.76932e-06
-5.77824e-06
0.0819603
2.47107e-05
-6.88615e-05
-8.25075e-06
-0.0666674
-0.00762198
-1.44821e-05
-5.89657e-05
-0.00647133
-0.00287973
5.47837e-05
0.178693
-0.0583762
-0.000832811
0.464395
-5.47307e-05
-0.000660527
-0.00857796
-0.0443385
-5.90769e-06
-1.9804e-05
3.30062e-07
0.00193999
-0.0364417
-0.000216845
-0.0394182
-0.0035436
-8.48071e-06
-1.44177e-06
-0.00476035
-0.0188266
-0.0430196
-0.107979
-0.0277539
-0.0272441
-0.029234
-0.0226593
-2.03139e-05
5.67391e-05
-0.0136002
0.000142011
-0.000163285
0.00015555
-1.87749e-05
-0.000130633
-0.00570431
-2.76353e-06
-1.9828e-05
0.0172608
-0.0486529
-0.00028192
-9.61036e-05
-5.61061e-06
0.194722
-0.0045699
0.000131815
-0.0235443
4.42754e-05
2.91187e-05
2.76422e-05
-1.88856e-05
0.000102005
-0.0303111
0.00410576
-2.25895e-06
-0.00022235
-0.036797
-0.0320794
0.0341161
-0.000129079
0.000709565
0.0104186
-7.31775e-06
-1.71187e-06
-0.0536237
2.14007e-07
0.128169
-2.46878e-05
0.00188552
2.69281e-05
3.25353e-05
-0.0424891
-0.00533638
-0.0128529
-0.00103988
4.6915e-07
0.000732982
0.0438622
-0.00928331
-6.25525e-05
0.0704992
0.125055
-2.0586e-06
-0.0373858
-3.08502e-05
-7.72558e-06
-1.03021e-05
-0.000158129
0.0119297
-3.42593e-05
3.43339e-05
-0.0135205
-0.0182309
-0.0104667
0.244196
-1.76556e-05
-2.31181e-05
0.132224
-0.0176021
-0.0024782
-0.000185976
0.130136
-1.33277e-05
-0.000485976
-3.21974e-05
-2.98723e-05
5.9733e-07
2.73762e-07
8.80852e-06
-0.00940786
-9.48683e-06
-0.00249442
-0.0288904
0.195027
-0.000352737
-1.20802e-05
0.00211716
0.0626464
-0.0543117
-0.000228584
-0.0356193
0.244712
1.95711e-06
0.318364
-2.78304e-06
0.0011551
0.0148105
9.87421e-05
0.336042
-5.97422e-05
-2.77346e-06
0.000252425
2.39303e-08
-0.000257842
4.72131e-05
-1.04101e-05
-0.000918232
-4.25988e-05
-6.94649e-05
-0.00176533
0.191453
0.0325365
0.013372
-0.0253309
-2.13122e-06
-1.49616e-05
0.00104854
-0.0617856
-6.65482e-06
-0.0285206
-1.83274e-05
0.0777997
0.0439753
-0.0289847
-0.000738033
-0.010884
-0.000309061
-0.00718816
-0.00196017
-0.00700616
0.0445608
-6.30871e-07
0.208967
0.00593542
-0.000829981
0.167809
-0.00953066
-2.40533e-06
-1.24639e-05
5.99671e-06
-4.12064e-05
-8.39718e-05
0.193031
-0.000436234
0.199085
-0.00141224
0.128543
0.178158
0.085951
-0.00489972
-7.24834e-06
-5.56917e-05
-0.00488539
-0.167008
-0.0432065
0.000529854
-2.75621e-05
-0.0232964
-0.000613038
-7.46108e-05
0.000326788
-0.000438049
-0.00105891
0.0212351
8.46687e-06
-0.0262875
0.0391721
4.73067e-06
3.29135e-05
-0.0137483
-0.0605789
-0.000289609
-0.000177843
-1.6302e-05
2.21462e-05
0.0560814
-0.0142625
-0.0440312
0.000424883
0.0685361
-0.0315535
-1.28639e-05
-7.85484e-06
-0.00429592
-0.000141822
0.054017
-0.00567161
-0.00662106
-0.000222702
0.00047513
-0.0319623
-0.000104394
0.000109444
-0.0155303
-0.0505465
0.120053
-0.0376029
-0.0206536
-0.000241747
-9.21673e-06
0.0034374
-2.71945e-06
-0.0466402
-0.05708
0.000140784
0.000877643
0.00171173
-0.135653
0.000160737
-5.17816e-07
-2.01209e-05
-0.0332732
-3.55389e-06
0.000143095
0.0932263
0.140528
-0.15454
0.034448
0.0325957
-0.00363884
-0.000306134
0.00244135
1.70072e-05
3.13251e-07
-0.00017655
-8.35772e-07
-0.00013993
-0.00014041
-0.00520727
-0.0868291
-0.00691402
-0.0289384
0.0360145
0.0295697
0.00166419
-0.057696
-1.5855e-05
0.00135992
0.00531473
-0.000183423
0.053727
-0.00180435
-0.0089217
0.00492619
0.00270737
-0.000764688
-0.00267049
0.026766
0.000194415
-0.0140718
-0.0126693
0.402117
-0.0214159
0.058978
-0.00368595
-0.0385227
0.000768604
-3.69848e-05
-0.00106533
-3.43636e-05
-0.00100452
-0.0205644
-2.71875e-05
-0.000219354
0.232384
-0.00132149
-0.0308273
-0.00913164
-5.81528e-05
-0.00231276
-1.20099e-05
-4.25382e-06
0.0223208
-2.74352e-06
-0.00120276
0.053967
0.00230998
0.000380338
0.0094289
-0.00389585
0.00189023
-0.15826
0.000184048
-0.00286797
-0.0442095
-0.000713368
-0.00557891
2.15271e-05
-0.00256577
0.000276712
0.0206279
-0.000526407
0.00249282
-0.0299127
-0.015921
-0.000112691
-0.0271278
-0.0106088
-0.00847498
-9.76415e-05
0.00319438
-0.0780387
-0.000357433
-0.00368438
-0.0258232
-0.00359533
-0.000608102
0.177709
-0.0241143
-2.87179e-06
0.00424874
-0.0492661
-0.00047652
0.153499
-0.00300307
0.000297907
0.0430602
-0.000790903
0.00361995
0.0986632
-0.000299334
0.000378324
1.30815e-05
-5.16289e-05
-0.00194966
-0.00768874
-0.000381203
-0.0173044
0.0730979
-0.0219595
-0.0834702
0.000380225
-0.00182624
-0.000902656
-0.0724891
-4.78685e-05
0.00546176
-8.80124e-05
-0.00796837
-0.000869068
-0.00217641
-0.0713966
0.0890442
-0.0924904
-2.13791e-05
0.159194
-0.00197174
-0.00379695
-0.0387628
-0.0997788
-0.0119599
-1.03404e-05
-0.00153358
0.00347913
-0.00164076
-0.00308883
-0.000103914
0.0639498
-0.0452084
-0.00779727
-0.00297054
0.00591835
-0.00680505
-0.00509155
0.000616248
-0.000535591
-0.00157529
0.0868748
9.10101e-05
-0.173952
-0.000202764
-0.00334122
-0.00481756
-0.111344
-0.00871677
-0.140514
-2.40265e-05
-2.74854e-05
-0.0087749
0.00513408
1.89023e-05
-0.169544
0.0622462
-0.0411645
8.25778e-06
-0.191035
-0.000265826
-0.204328
-0.0189038
-0.232186
-0.234359
-0.227516
-0.18921
-0.104605
-0.0704471
-0.0384571
-0.00620285
0.0263833
0.119849
0.150294
0.178247
0.225409
-0.00373283
-0.00617963
0.0383497
-0.0243467
0.000161871
0.000710388
-0.0315937
-0.000229025
-0.00115137
-1.01267e-06
-0.0115656
0.010242
-9.9128e-07
-0.000663118
-0.00477825
-0.0171188
-0.231267
-0.0197331
-0.0456061
-0.000125849
-1.66587e-05
-4.50037e-06
-0.0720836
-0.0072308
-0.0315428
-0.0163671