/*--------------------------------*- C++ -*----------------------------------*\
  =========                 |
  \\      /  F ield         | OpenFOAM: The Open Source CFD Toolbox
   \\    /   O peration     | Website:  https://openfoam.org
    \\  /    A nd           | Version:  7
     \\/     M anipulation  |
\*---------------------------------------------------------------------------*/
FoamFile
{
    version     2.0;
    format      ascii;
    class       surfaceScalarField;
    location    "20.5";
    object      phi;
}
// * * * * * * * * * * * * * * * * * * * * * * * * * * * * * * * * * * * * * //

dimensions      [0 3 -1 0 0 0 0];

internalField   nonuniform List<scalar> 
11512
(
155.262
-511.111
355.849
-762.148
-16.3163
778.464
428.187
-392.195
-35.9917
654.293
267.882
-922.174
1552.15
-1100.05
-452.103
1200.8
-1503.05
302.25
-53.7869
499.035
-445.248
172.77
-863.622
690.852
982.847
-1650.88
668.033
-1779.63
1690.51
89.128
-568.2
1769
-1170.8
1985.88
-815.083
616.792
180.703
-797.495
-23.0118
-1341.14
1364.15
226.553
-2006.19
1053.83
-391.109
-662.718
-176.515
331.777
490.58
183.618
-674.198
1188.69
-1348.79
160.097
-315.43
389.802
-74.3721
1030.36
-1336.53
306.171
1253.41
820.689
-2074.1
70.5433
-1672.43
1601.88
-507.23
-1153.41
1660.64
475.363
168.711
-644.074
-198.76
-312.351
510.204
1041.95
1678.82
-1834.89
156.068
-106.837
-1686.39
1793.23
-1601.08
666.331
934.751
-313.78
672.709
-358.928
-111.793
-105.735
217.528
1309.6
-1239.05
368.427
-1445.36
1076.94
-1152.63
1152.63
96.3048
1557.95
-1654.25
-1105.02
-496.06
670.75
-724.537
-393.722
968.166
-574.445
1264.5
-1257.48
-7.01519
-1131.58
737.861
647.544
406.283
-394.47
-46.8588
441.329
-438.75
780.444
-341.694
-1011.08
1011.08
1223.86
-1367.87
144.014
-501.627
1755.04
1291.88
-323.715
1701.77
-1187.59
-514.175
86.4572
-401.887
2119.13
-1164.21
-954.924
1845.3
-166.476
440.18
136.86
-577.041
-460.626
994.455
-533.829
-1190.78
1287.08
-583.966
999.02
-415.054
415.168
773.523
666.495
-493.725
-449.959
614.285
-164.327
1223.7
-855.269
2361.78
-1106.36
-1255.41
1194.18
-2061.12
866.941
-1631.77
1608.75
452.642
-1623.44
-671.151
1174.66
-503.508
-692.919
379.139
1702.69
-719.845
-1131.68
-890.655
2022.33
681.207
-371.367
-309.84
709.075
582.806
-267.093
1490.95
122.126
-331.083
208.957
-289.154
764.518
-302.735
489.328
-186.593
-331.39
821.971
-327.163
-155.509
482.672
339.949
88.2382
1482.68
-452.315
-993.854
499.976
493.878
290.296
91.4339
-381.73
968.736
-351.944
-1741.96
620.712
1121.24
29.5056
-872.868
843.362
-283.752
602.829
-319.077
162.351
-1124.53
962.179
904.786
-919.56
14.7732
384.247
533.004
-917.251
-244.638
684.818
-1132.02
-496.836
1628.85
-517.611
772.565
-254.953
1351.99
-1458.83
-638.894
290.327
348.567
-485.128
-1028.01
1513.14
-555.884
-813.106
1368.99
587.471
-1009.64
422.166
-133.005
-216.221
349.227
421.972
-299.846
-1063.37
602.742
982.383
-820.033
-102.361
800.717
-698.356
-194.082
395.474
-201.392
-629.112
-364.741
-397.243
984.714
1291.13
-1291.13
-462.99
-175.904
-947.409
1574.78
-627.368
362.687
-795.305
432.618
-950.583
366.617
-959.329
-1081.31
-1525.53
362.26
1163.27
-276.492
930.785
-309.999
629.258
-319.26
-1982.82
1023.49
-1159.01
-366.523
574.169
-1521.58
1771.77
-1770.49
-1.28784
226.037
-620.32
394.283
-1477.8
976.262
501.538
300.505
217.224
-517.729
303.46
-606.195
190.957
-311.301
120.344
2037.23
-840.448
-1196.78
-562.402
167.932
636.759
853.051
-1489.81
-160.305
351.262
444.57
899.681
-1344.25
-936.519
407.661
528.858
-1071.28
1486.45
-872.077
200.926
776.307
-103.598
551.295
-277.841
-273.453
1019.96
-519.987
612.667
-1442.45
829.778
-1379.25
247.231
-541.265
257.513
-1202.38
925.888
2002.81
-1132.54
-870.272
267.947
1023.18
-2147.36
916.317
1231.04
223.256
-16.8488
-206.408
-179.432
353.374
-173.942
-119.624
-386.77
506.394
-482.46
155.297
309.896
-60.9681
423.655
418.825
403.067
-821.892
-2050.29
1134.24
916.048
474.087
-550.256
76.1698
158.499
-238.775
80.2767
974.129
1063.1
1812.2
-254.253
731
-440.673
817.825
-1428.08
610.254
352.333
328.874
1071.39
-1041.89
-514.083
-248.332
762.415
494.494
-142.303
-352.191
746.967
-566.264
613.362
-803.749
190.388
519.591
1182.18
-1274.57
718.681
1032.92
-1540.15
2.17759
-1474.68
1472.5
334.137
848.205
-1182.34
627.614
259.146
-886.76
-2276.37
1174.09
1102.28
-1127.69
-1148.68
218.226
395.135
985.487
-651.35
710.762
-723.346
12.5841
-2147.09
1015.42
-95.7664
-109.64
205.406
-44.4157
1816.19
-845.656
83.5082
-1052.95
-1094.41
-186.579
345.078
-676.182
213.193
-273.896
-427.618
701.514
1127.09
-1612.22
801.346
-1411.56
610.218
707.908
-440.026
1953.7
-1434.11
-351.226
-801.399
77.9278
421.107
-546.497
530.181
3.42047
-577.572
574.151
588.475
-287.97
-596.895
282.093
314.802
802.052
-383.227
18.7021
204.554
1218.14
-1215.96
187.154
234.818
396.126
-670.022
635.876
-1033.12
-2075.61
2075.61
-259.891
-452.968
712.859
720.087
409.652
-1129.74
596.04
180.267
404.73
397.323
-2249.91
1359.25
-950.648
-697.435
1648.08
-484.058
-718.322
-261.593
554.811
-293.218
864.408
-217.41
-646.997
-437.377
663.415
389.112
-699.111
-353.71
-146.913
500.622
-1348.14
-486.752
652.345
-1136.4
-342.569
-668.51
863.795
1497.98
239.563
-440.083
200.52
994.505
-346.961
1429.59
-816.92
460.458
-273.304
-340.48
-903.232
590.222
313.01
-350.325
-552.908
315.081
-434.705
-203.764
-132.355
336.119
-404.43
1124.52
410.793
-227.176
-354.387
1379.74
-182.505
-1197.23
-482.338
278.228
204.11
234.343
251.283
-485.626
8.44239
-812.192
608.403
-1771.8
1163.39
1520.25
-883.49
-1049.56
-428.238
-1087.88
589.537
498.34
1398.08
-421.815
953.082
-1449.92
-170.783
-220.965
391.749
-479.375
599.109
-1670.39
422.346
842.15
282.386
300.562
-582.948
508.21
644.416
1136.23
-737.431
-398.8
405.489
-217.377
-188.112
-1454.69
457.99
758.432
-1216.42
1513.31
-560.225
-489.211
938.982
-449.77
440.093
1211.12
-1651.21
20.3349
-537.946
-148.385
438.681
84.6747
-196.468
530.006
489.957
-659.104
57.3539
601.75
982.801
-1219.7
236.899
680.694
-275.964
483.498
-1485.35
1001.85
422.419
1730.38
-536.198
842.451
1160.36
-682.458
-1729.35
778.705
587.166
396.149
-983.315
464.059
82.6657
1793.34
-1876
1396.46
-389.866
-1006.59
1741.51
-1785.92
-378.802
-525.224
740.23
-215.007
-520.244
192.2
302.294
-382.023
-1248.12
220.111
-788.098
-654.347
-617.7
1047.42
-429.721
-455.298
448.86
6.43798
566.072
-743.727
177.655
-272.736
80.7922
191.944
-666.54
-701.855
359.574
342.281
-953.76
1437.26
-419.01
906.577
-487.567
-2255.79
5.8832
190.007
-555.127
365.12
153.037
1226.7
-104.855
-571.327
166.828
-616.787
1526.69
-725.341
385.258
-480.458
95.2001
-133.81
133.81
663.703
347.376
1824.17
-1263.21
605.765
657.444
784.576
-37.6096
1325.77
793.356
-555.932
1373.76
293.436
309.393
292.289
-817.513
253.129
-691.88
219.604
-407.91
188.306
-245.343
598.914
-353.571
130.371
-375.714
-607.994
-581.267
1189.26
-364.917
539.186
-174.268
-1192.07
2058.89
-866.814
1325.97
-340.485
-174.878
41.8723
-1988.25
834.848
1551.31
-848.981
-702.327
2035.66
-899.7
-1135.96
733.5
592.472
-234.285
453.889
-676.715
1157.39
-480.673
-790.323
1234.89
566.171
948.719
-1770.4
821.686
-542.808
-82.4073
625.215
302.997
248.298
425.812
-106.322
-319.49
749.006
-71.8277
-677.179
929.964
-558.352
-371.612
1614.09
-487.002
910.27
-1669.17
758.901
1095.61
858.093
772.335
-459.631
-312.704
-992.466
-265.014
568.443
600.54
-1168.98
-451.833
509.453
-57.6202
595.875
-358.201
-237.674
-1008.66
589.646
613.892
906.357
-442.563
1008.64
1441.57
-785.314
-656.259
412.112
-953.291
541.179
-1040.95
411.833
568.172
-1057.38
469.124
-528.424
59.2999
484.716
295.728
-112.817
-20.993
-816.38
-899.664
1716.04
196.983
208.506
-238.735
456.961
-43.4805
-550.311
593.791
493.392
893.462
-1386.85
-521.913
318.15
790.971
-41.9647
858.95
-1094.89
235.944
389.306
868.727
-1424.66
-452.211
855.278
2029.16
-1316.7
-712.458
240.427
470.335
236.703
668.084
101.573
-986.396
884.824
1715.08
-1112.96
-602.117
-142.954
1936.29
-1911.53
-164.078
454.266
-571.095
116.829
-1044.56
541.113
503.444
-1695.25
503.18
-956.483
854.122
402.889
211.397
487.397
-247.834
-440.212
733.244
261.261
54.7323
784.526
-839.259
-1159.55
-872.313
2031.86
-536.065
1116.85
-580.786
-469.773
-121.918
26.1514
-1697.82
881.444
-838.081
-635.448
1473.53
-281.818
-278.016
559.835
369.14
-664.6
295.46
239.081
-622.308
314.753
221.139
-535.893
352.206
-613.799
633.957
-264.817
323.647
-479.156
678.44
412.17
-177.827
-393.641
-308.214
1243.22
-8.77377
-1234.45
1068.15
-432.273
575.231
423.789
-1796.58
859.665
936.92
512.462
554.166
-1066.63
-427.961
146.143
-270.005
1212.43
-942.43
-1563.1
1211.88
518.327
-1126.32
400.32
-15.0615
426.157
312.045
-738.201
380.808
-625.446
-28.8597
775.282
-746.422
-462.543
721.69
383.467
310.643
473.934
673.344
88.8073
-402.827
314.02
962.368
-563.12
-399.248
509.11
-1705.02
1195.91
-1166.05
1796.76
-630.711
1758.22
-1149.82
-339.823
621.917
-1184.37
1285.94
310.021
-821.319
1636.72
-815.406
-253.28
-229.058
-941.948
1509.38
1859.41
-628.223
-1231.19
-417.579
740.72
-1358.42
-71.3598
-41.2285
467.041
-698.301
-363.425
-1199.68
-233.754
472.835
876.432
-579.198
192.428
-1717.04
-73.8121
1790.86
-1081.32
545.252
588.767
-1213.16
624.391
925.63
933.779
620.47
554.189
698.516
240.466
-1153.12
476.404
-418.305
421.725
640.915
-529.709
261.066
-757.52
496.454
694.227
-341.894
-255.245
149.51
-609.194
227.194
382
-913.697
-755.475
1110.55
-2191.86
411.29
-700.444
-327.063
-592.497
857.72
583.853
-361.239
314.38
363.282
248.414
676.809
-925.222
527.056
630.331
-543.62
189.91
364.749
-624.64
-1129.73
-803.222
1932.95
-1834.32
161.897
1136.48
-1406.49
1181.52
-723.905
-457.613
-518.307
1387.03
-1533.2
647.277
885.919
-158.478
-148.193
306.671
1463.24
572.414
335.756
-482.669
-502.404
-577.645
1080.05
-428.46
618.467
1624.34
-1158.47
-465.866
-788.546
335.578
569.772
392.596
-1663.34
430.002
1233.34
-208.647
523.4
819.222
805.115
210.61
-696.53
485.92
199.942
195.532
-233.611
-93.5079
327.118
488.748
-4.26
-484.488
-1655.32
605.763
-1618.1
1691.93
-73.8346
16.361
-1634.46
1053.89
769.572
-343.416
-816.678
-224.267
-1166.79
-244.77
-319.293
700.101
-1860
-637.957
1238.5
212.034
782.42
-1364.74
-696.381
-479.566
613.852
-331.466
-1034.59
1383.78
-1981.63
597.852
663.284
1322.6
354.627
-1.25322
739.643
713.77
-1453.41
-659.793
350.429
309.363
332.829
-80.2224
-252.607
162.659
295.559
175.819
-471.378
-588.029
1175.2
463.195
-626.101
-472.515
-414.772
887.287
-353.077
182.294
-474.518
174.672
-315.603
-728.953
402.814
-69.9845
-583.523
995.634
351.21
-182.616
-168.593
469.533
-800.924
-665.615
441.236
-1154.23
-847.102
1209.36
-584.708
469.608
292.806
-454.672
83.3052
1057.47
-192.497
404.055
-211.558
-524.456
1578.35
-767.826
244.073
386.832
-630.904
226.764
483.728
-24.9664
-458.761
-260.592
-213.926
867.459
1133.51
581.569
-886.241
963.78
-77.5394
-212.894
54.4157
-740.318
312.7
-650.662
320.091
374.136
846.29
-1251.79
405.496
800.632
-829.492
-964.32
-569.162
1533.48
-164.679
465.241
-546.088
268.247
1361.43
786.592
-575.982
1337.03
-684.684
496.222
-693.534
-420.527
-434.336
-388.629
822.965
517.324
-869.269
-455.584
93.0054
362.579
-250.459
589.731
750.409
-339.119
-225.802
-168.179
393.981
-507.768
153.197
354.57
1494.77
81.4504
-1576.23
-768.033
1381.92
-1175.52
-475.357
555.002
-168.17
1181.53
-380.896
1106.64
507.445
714.255
-421.966
-906.033
-539.33
-1354.19
-31.8043
1012.41
-980.607
604.197
339.914
-944.111
-327.845
-234.557
-757.46
415.309
1660.3
-184.349
370.942
366.201
-737.143
-1885.89
-2155.6
1553.8
601.8
-2042.05
355.653
375.423
540.697
-916.12
-474.199
1049.43
-410.084
-675.079
1085.16
-2077.47
1422.41
655.06
602.52
-1012.6
60.2738
408.851
387.634
208.207
252.252
319.048
977.943
880.611
701.333
-337.272
-364.062
-303.981
640.216
-336.235
591.879
544.352
574.999
503.762
-1078.76
-813.405
-719.79
774.719
406.809
-423.923
719.383
-1219.08
1649.08
437.292
-1112.37
-330.636
551.775
-1414.3
912.403
501.902
-715.827
-319.309
-847.595
382.547
465.048
460.447
737.69
-1198.14
1097.8
-585.342
-404.974
676.88
-271.906
179.124
172.086
-481.611
-445.676
927.287
-251.366
559.012
-969.826
410.814
-464.559
614.785
-1721.15
436.245
689.266
-1125.51
540.117
89.1407
116.223
-2263.32
559.861
-90.253
1482.51
1817.36
-221.694
-1595.67
-449.593
1833.37
-2037.99
1224.67
813.319
418.085
354.25
-27.5881
885.308
-1319.4
738.13
-896.384
-847.145
815.341
322.146
54.612
-376.758
95.803
105.334
-201.137
1588.46
-848.813
-973.468
-317.663
487.45
-201.311
-286.139
400.789
363.729
252.185
361.667
-8.00736
1027.96
-1019.95
377.598
284.951
-662.549
-751.812
1861.56
-1109.75
-351.908
752.697
-1238.61
-415.642
-943.421
497.745
585.345
-795.955
210.611
785.936
-393.787
-392.149
-425.332
-460.909
451.898
1095.23
1269.67
-680.9
825.053
-355.519
388.112
324.747
-262.292
-218.167
-218.98
641.399
420.015
-874.022
454.007
218.775
362.392
-581.167
-436.424
856.439
775.596
-1180.03
896.339
-50.0488
-509.202
291.725
779.667
-98.0515
1420.65
1933.59
-74.0018
352.23
-323.046
411.853
-1114.31
1106.3
629.784
387.517
398.419
60.8108
426.639
279.273
499.192
-380.42
-279.373
-379.756
-75.5419
-366.913
380.322
-13.4092
-257.544
-283.722
1034.85
-1581.1
546.25
-202.127
-190.068
-387.3
672.251
-1668.42
1630.51
-983.238
269.335
-689.863
599.534
1251.47
-1851
626.377
1004.14
314.213
-1149.86
709.647
-290.096
-292.852
1399.29
-1479.34
840.018
639.323
417.084
-638.804
221.72
-368.35
490.548
-122.198
373.877
114.871
1769.41
450.987
-251.045
573.659
-1746.17
1172.51
-92.6099
400.996
351.958
349.376
-461.398
-632.252
1093.65
436.503
-888.714
-658.65
925.701
587.607
-139.552
-133.184
-453.1
-420.922
-318.037
-848.755
1253.06
-1253.06
-99.167
-1607.41
1706.58
300.466
295.408
-938.936
-572.813
1511.75
-417.837
992.837
-616.725
-1038.6
688.94
406.622
-1095.56
492.597
-168.95
587.605
1247.32
-1834.93
-1050.49
2114.89
-1064.41
-383.644
-309.274
-494.004
829.581
-1792.38
1639.39
152.989
1792.38
-1641.48
-150.896
-249.062
531.253
-282.191
-552.831
1659.48
1588.44
-2004.08
1100.77
-287.291
-262.294
549.585
252.631
-583.267
-718.313
294.391
1376.87
652.291
592.262
500.913
-1093.18
294.619
419.635
895.036
515.751
-1410.79
544.14
-1046.54
1615.8
-580.954
-775.382
-372.731
-120.956
493.687
-504.57
1242.26
-765.57
334.816
350.003
365.826
268.428
-634.254
618.457
855.753
-619.808
280.757
683.023
-139.552
-322.187
-238.34
560.527
1194.64
-674.695
629.009
477.588
-1106.6
-1003.36
1003.36
-398.5
786.018
-297.365
-486.037
783.402
494.402
464.919
-959.32
398.14
-695.505
632.55
-893.375
260.824
-379.059
-511.544
1103.81
-681.141
-727.813
1408.95
-392.523
951.535
-1590.98
691.28
47.7259
-426.844
379.118
-506.602
719.795
261.252
337.662
177.691
314.907
-524.918
234.822
1918.51
-2016.56
283
-720.377
455.971
-845.512
389.541
-908.039
1434.59
-526.548
-442.968
-500.453
617.367
1150.91
-1768.27
-737.176
353.532
-472.431
1064.31
-785.971
1066.73
-348.682
-643.804
-485.586
738.716
480.647
-311.936
930.905
-308.793
-198.974
1636.57
-1858.27
-363.322
-606.504
-341.143
494.34
266.423
-597.889
-192.11
1082.12
-790.391
223.93
-294.236
-290.184
584.42
411.457
-899.626
488.168
-483.347
-455.691
-440.083
-342.753
586.825
-244.073
-461.927
-428.401
-331.453
-204.44
-390.004
658.432
-450.359
775.107
-1102.51
641.108
-1410.94
572.863
-28.1186
-1882.02
1910.14
587.751
-462.48
1238.26
-693.01
52.1734
-52.1734
687.85
-442.523
1038.44
-1655.16
-1185
-970.602
303.36
336.856
899.876
736.849
-494.95
-317.731
812.681
1699.77
-1727.89
-445.696
362.507
225.968
1167.24
-538.227
-965.428
1586.85
-621.418
459.639
-251.433
384.786
395.458
-780.244
537.365
491.611
-1028.98
-335.967
670.782
-39.1304
1957.64
1612.61
1016.85
-1742.19
746.384
-1210.62
464.239
-508.865
1403.9
859.92
-1378.23
-562.806
275.516
813.755
-417.606
572.002
-1220.02
648.021
-656.565
-1243.26
-713.258
1956.52
-212.47
562.513
-350.043
-182.807
296.79
-509.26
333.921
386.219
-720.139
-1518.5
779.124
739.377
901.785
-1470.95
850.843
-443.182
228.315
-376.7
-595.607
273.42
-691.088
-723.217
718.04
520.333
-1238.37
404.274
-209.864
-194.41
571.376
-986.429
-571.858
-428.852
741.552
-851.724
-1186.26
-1475.41
514.996
960.414
9.6564
-640.939
350.45
290.489
-1342.17
1074.2
267.975
-633.13
-469.375
-669.962
906.665
415.284
-211.89
-203.394
524.551
1003.56
-1528.12
1002.28
-350.156
118.686
231.469
-411.169
689.967
-406.968
-524.459
183.315
240.632
-1557.33
550.687
547.117
-761.751
255.148
164.502
-473.295
386.704
-842.395
1997.05
-1221.27
-775.781
412.758
-683.108
270.351
175.285
330.684
130.544
-461.228
-575.017
194.945
256.042
-713.001
1410.33
-697.326
435.897
484.48
-1200.31
273.71
1915.6
-1040.63
-874.974
744.189
-539.122
196.369
1427.97
-988.311
-439.663
350.679
-793.202
-634.127
1767.64
631.988
637.679
331.403
-9.25768
284.993
-1163.98
1768.06
-604.086
-1805.01
839.582
1777.52
-1704.29
-73.2352
-678.153
259.848
578.349
-724.95
239.364
1440.97
-581.054
407.089
448.189
-1904.94
1455.34
557.694
-425.796
-131.898
222.253
-553.706
-279.688
-190.084
-364.134
716.092
-588.674
215.943
618.296
571.783
-1190.08
1140.59
-1997.31
856.719
174.307
326.315
-1744.36
1705.23
331.824
-753.79
-168.552
396.867
767.783
700.288
-1468.07
1092.81
-1101.59
546.581
-1131.92
-651.015
263.411
387.605
529.982
-302.789
-628.144
-1027.02
311.475
-739.875
-932.458
194.162
171.209
233.065
390.156
309.834
-699.99
-641.155
-856.402
-1003.6
510.551
-1085.57
-288.843
492.953
553.538
655.825
-140.9
-33.9775
-412.286
726.499
286.875
-1229.94
588.783
1340.42
-572.633
463.103
-1034.96
-210.885
170.309
387.385
1047.36
568.443
-1727.09
1627.92
1648.79
-591.491
-1057.3
1952.53
-1940.4
-12.1294
209.63
-532.676
-345.915
569.845
-774.959
-325.111
-353.042
1020.65
720.283
-1526.59
806.302
363.015
-25.9208
1662.49
-1102.65
427.957
-1258.7
483.319
-60.9245
1555.7
1231.71
-485.328
-320.297
-29.8592
-279.122
754.657
-1997.92
-732.906
356.977
-551.422
194.445
71.9342
-264.431
1167.78
688.68
-1856.46
-616.814
191.017
964.602
-1537.42
-216.389
665.801
-449.412
888.29
1111.71
-753.029
1385.02
612.099
-485.89
-126.209
-361.529
1201.55
1061.52
-1982.08
920.562
-1201.57
563.618
1528.79
-603.086
-379.19
-164.43
-1273.44
592.538
1193.71
-72.4612
971.176
796.02
-1767.2
-222.221
596.122
-1582.59
986.467
503.213
937.637
-1440.85
630.377
608.12
391.509
-1131.36
411.25
1135.68
595.21
-319.665
-275.545
-1213.68
-1798.1
-3.84167
-1723.24
-219.363
-419.441
1649.34
-641.884
-1007.45
-505.479
1125.95
-1351.7
656.043
695.652
-1396.1
1477.55
-1364.57
611.545
1560.72
-400.558
-580.78
201.59
-1499.53
240.316
179.851
233.932
378.166
434.464
413.831
-848.296
523.553
-960.796
923.814
-1484.04
-709.235
247.22
462.015
-1067.29
479.257
-480.543
887.632
717.037
33.4067
-538.123
188.08
-906.279
-1349.51
-738.308
362.49
375.818
418.846
-745.16
326.314
-428.904
-170.765
-552.581
735.64
1579.78
-608.599
828.748
759.708
1372.58
-856.833
-994.969
-587.62
-822.342
439.932
382.41
-1065.4
-662.99
315.672
347.318
-1421.95
-273.3
-815.54
411.357
404.183
-662.847
399.981
262.866
-692.406
285.439
425.995
501.292
401.57
454.869
491.256
396.031
611.349
-993.372
687.162
488.033
455.851
351.013
-806.864
1670.26
-1103.46
-566.8
-520.569
-285.852
-1056.32
467.698
355.267
421.77
609.813
-1031.58
-1416.51
774.626
-552.19
1176.58
365.831
-70.2717
424.644
-892.228
467.583
-1904.59
297.183
442.228
-716.233
274.005
-191.142
418.833
-227.691
-682.849
320.252
362.597
-696.017
331.956
381.581
404.437
629.679
-1047.52
774.516
678.717
-1453.23
451.088
642.562
328.598
346.512
-675.11
419.343
333.354
604.489
675.581
419.647
596.444
-1040.84
444.399
-1701.44
1183.77
517.669
1737.85
-555.669
639.352
-1179.83
540.477
-618.86
340.843
450.849
-963.099
512.25
761.256
-449.211
359.004
357.088
571.688
-935.01
668.828
-1288.77
619.946
386.607
754.401
-1258.97
789.991
524.607
-1314.6
486.841
424.863
-911.703
-517.494
-957.916
-314.828
648.748
361.517
551.86
-913.377
341.44
329.342
-516.659
1989.16
441.988
-849.624
407.636
-941.346
-829.058
-772.679
380.529
-1242.71
456.74
-1770.65
1641.48
129.172
1788.81
-1639.39
-149.427
-808.62
-610.669
276.258
334.411
-1777.52
2004.08
554.259
812.434
-1366.69
453.648
735.613
708.484
394.802
-1103.29
-63.0684
1658.6
-611.242
401.745
836.517
-597.119
314.732
282.387
-388.932
-243.748
422.873
-232.112
449.336
273.472
-624.698
351.226
274.237
-593.314
-293.484
455.59
-1062.54
606.947
553.291
1116.97
373.095
611.619
241.107
208.995
-450.102
1650.13
-929.845
1736.08
-1560.47
-175.618
-336.432
-848.914
427.992
871.642
-1088.03
-626.594
290.359
-1114.57
1667.86
-1604.71
-72.1188
1676.82
-350.336
-359.631
-380.345
550.913
616.323
-518.338
-31.9186
-546.831
518.451
-289.282
-229.169
1772.81
-1320.91
-640.505
309.247
331.259
417.141
369.909
754.608
-303.649
-410.189
-1788.81
1727.89
472.77
-1131.56
658.792
-40.6632
1668.58
584.96
476.015
-1060.97
83.7587
1173.43
-1491.46
-8.11941
-1896.47
236.26
-591.74
297.553
294.187
-941.428
614.365
-925.745
482.777
-1160.06
691.649
468.414
379.222
282.563
-777.513
-315.288
1251.63
908.977
719.874
-1218.98
475.616
743.364
508.871
719.659
-1228.53
-363.067
-255.094
426.302
-988.931
451.867
537.063
21.3008
-1926.24
1110.9
-478.347
-502.01
574.314
-1415.97
841.657
-431.512
821.053
-417.121
504.156
-996.637
1864.1
423.283
-190.218
172.011
-176.793
-252.787
429.58
1938.99
-516.572
-1721.2
1080.77
-523.237
279.488
-1043.01
568.806
-319.604
561.753
926.663
-1488.42
-1117.34
447.381
-20.7801
-1995.78
1717.59
-656.066
-525.243
475.01
-1224.24
749.225
195.635
219.648
-247.116
788.399
720.98
851.882
767.206
-416.193
1115.33
-500.93
489
-198.361
-290.639
-1973.55
-705.667
-318.268
-427.912
-1.9989
429.911
470.507
-275.562
580.928
1069.2
-818.214
952.141
1279.01
-437.557
-205.014
-249.429
454.442
949.513
-907.574
-341.813
-1097.74
628.369
1594.04
-814.916
554.677
957.072
-397.613
757.193
-359.58
1162.13
-255.131
326.646
1386.75
-723.802
-229.489
464.372
-1234.14
769.764
-991.916
-144.323
1136.24
454.928
-983.741
528.813
188.405
259.153
336.057
785.983
-109.175
879.513
-438.221
1191.59
-796.783
568.761
-1504.96
936.195
-1243.29
1842.82
-438.644
-1544.18
900.665
-1440
-318.98
-419.221
1496.58
-1563.2
807.73
1528.16
209.148
279.852
-359.957
-1770.65
-308.955
-1019.57
1600.5
-1798.24
1798.24
1588.44
-1032.87
-653.995
-342.751
373.658
619.178
-367.519
-368.107
-1426.47
917.601
1150.5
617.561
1224.03
1830.48
-1242.88
-621.819
272.147
1700.55
-1964.8
264.254
835.921
-1301.79
1583.48
-579.339
801.52
315.332
-338.377
570.874
816.16
638.34
1393.52
-226.282
-458.161
-361.014
411.54
-274.68
486.105
756.155
-300.843
-160.385
-330.928
583.651
-252.723
26.2037
-384.405
1132.84
-1763.56
-452.894
-491.717
-582.294
888.41
705.63
-1638.69
925.689
-465.354
-629.792
-528.291
1286.72
346.255
1766.43
-1745.13
-1699.77
1940.4
-1598.11
857.798
740.309
-368.813
-1841.95
942.283
599.81
841.164
-412.785
1840.28
-699.683
-411.301
681.732
448.162
-1129.89
-1129.84
458.541
773.172
-1656.29
488.828
921.498
179.93
-403.56
223.63
-1611.71
-394.481
-427.96
1009.03
-684.655
1481.34
-967.429
1855.72
246.49
-548.653
511.513
-302.365
490.537
913.364
560.097
1000.63
-476.681
-441.512
591.082
905.502
-1382.75
-39.2059
1608.86
-849.154
536.651
991.511
-1515.54
-1114.8
1785.1
-1243.14
-541.955
1240.25
-329.697
-910.551
-195.359
463.391
-268.032
-471.389
-256.796
442.891
-186.095
153.214
-408.308
1744.95
-1748.79
-461.378
-548.886
-922.062
446.404
-206.079
-240.325
523.494
-454.599
-358.708
-319.944
678.651
-965.372
412.465
-1196.14
690.66
426.42
-643.499
-448.978
1609.59
-872.745
544.903
-471.63
-586.204
-476.333
59.1401
-56.1959
-2.94423
-1121.03
428.018
-683.368
-1058.54
1741.91
-604.183
-1461.74
733.93
578.725
-1636.99
1058.27
-384.41
-485.853
160.958
537.558
-1293.19
764.903
556.091
1027.39
-2177.08
1014.75
1162.32
-359.544
74.4836
-66.5861
-7.89748
1517.17
-382.214
463.226
1165.12
599.455
929.333
583.506
542.519
-1126.03
173.516
-442.315
-1704.29
272.542
1149.72
-621.372
534.7
1037.31
-1572.01
1116.99
-1683.79
182.597
713.742
552.909
-894.722
-1107.57
-135.488
355.857
-220.369
-567.77
-430.041
-653.448
-505.575
258.459
-1661.65
964.219
-490.454
216.875
-407.093
550.931
-314.671
-610.098
1230.08
-1297.35
928.654
368.694
-1032.57
-363.816
-772.036
-841.087
1729.5
-490.797
1798.71
-1590.98
-207.735
-1595.02
1040.82
554.195
-740.15
-173.148
314.912
-141.764
-597.534
394.109
285.571
-679.68
-539.312
1007.26
651.034
-360.675
-1657.16
1072.45
588.149
1128.1
-1716.25
-413.115
-305.585
-377.264
-760.466
-469.872
-340.014
517.705
1597.78
-1019.05
-795.819
1536.55
682.259
-319.752
745.137
1174.18
-1919.32
286.108
313.543
-501.272
-1982.5
1765.14
217.368
762.409
-487.79
-274.619
547.698
1084.07
-1631.76
59.1401
-1731.36
-238.959
1792.76
-1617.35
1099.59
517.766
-1735.19
3.82627
-536.881
74.4836
1744.36
-1765.14
963.688
642.112
-1605.8
281.144
-170.23
-110.914
-409.082
-283.324
63.5242
48.5262
-221.675
-447.473
-445.901
-421.874
230.731
1545.68
391.492
-230.979
-431.868
440.703
-184.661
329.266
1547.6
1099.52
-217.467
-882.057
-1130.22
1747.58
-1773.16
1089.79
-726.702
-1046.46
-1291.72
1887.23
-595.514
1182.29
-1815.15
632.855
179.425
-900.382
1717.51
44.5795
-1762.09
-506.202
-1106.01
-1744.95
-1009.87
568.356
1041.4
606.944
1158.34
-1765.28
295.863
-464.033
726.756
-394.8
374.429
948.701
699.381
-398.194
-642.65
599.725
1096.33
-1696.05
-407.608
-384.072
791.68
435.111
-1705.23
1560.47
144.759
601.89
-1074.32
559.265
1108.6
-1594.63
1015.3
-248.127
246.068
323.777
1952.53
422.395
-90.3374
1012.96
742.06
-1755.02
-715.787
1108.59
-1595.6
172.783
-586.08
194.29
246.413
-660.784
-581.926
599.684
1058.92
-720.523
-280.838
-1406.58
694.903
711.68
-407.471
808.344
95.7359
-904.08
577.937
-140.772
1596.12
-226.238
272.119
-788.579
-1982.5
1705.14
1019.29
80.7922
311.572
449.684
-955.573
-1017.98
-1808.38
657.52
1735.04
527.375
-488.685
1244.84
1113.57
-436.978
1056.16
-1007.45
509.67
497.784
719.058
1074.46
-1793.51
502.501
493.134
-1532.12
-769.08
31.6491
805.109
-424.579
-908.421
406.411
-553.983
-824.243
200.52
-593.86
1435.52
1081.56
171.262
184.594
-567.633
1658.85
-792.225
1566.74
-1769.86
591.498
1178.36
562.516
-909.477
-1777.05
1964.8
-187.758
1758.1
187.829
-558.379
162.409
-113.882
-496.168
1245.39
583.122
1154.72
-502.978
450.361
884.424
-478.141
-797.291
434.608
362.683
1456.02
1116.51
-534.947
1460.64
-508.193
-471.307
979.499
-619.918
504.238
-1228.14
1736.08
1880.25
-706.069
1627.6
-663.911
-1275.97
736.661
-579.343
139.635
-249.275
405.03
-209.498
-534.562
-1274.37
1914.17
-639.797
1206.31
-566.957
1145.07
-1700.74
1731.06
-590.941
-559.883
-565.449
1761.36
-326.32
-708.716
-489.296
1259.06
-1725.65
-1903.34
628.964
332.423
-979.421
174.859
222.231
-1760.23
1229.97
530.265
1187.11
570.984
-525.174
-482.645
1226.01
182.852
235.981
603.827
1276.43
-552.926
-1265.13
1818.06
-1051.43
1047.62
867.979
-208.733
-1700.55
1745.13
-526.697
1448.2
-1777.05
-379.774
15.0547
364.719
-276.448
604.32
-327.872
87.7662
502.456
805.162
-386.317
1283.09
1299.04
-427.4
878.496
-450.505
1862.12
-679.829
1625.66
-1766.43
-423.204
-754.976
301.416
453.56
-575.154
-580.473
66.8739
-1059.34
-1010.46
-688.007
1698.47
-959.509
-1217.57
155.681
-417.975
-665.718
723.373
1194.72
667.403
1448.69
-607.524
1678.73
1354.21
-589.305
-508.025
205.66
-520.074
1433.44
1274.56
-579.652
-964.128
920.117
53.7699
-973.887
590.036
-522.666
1440.27
1535.07
-605.733
-59.6029
59.6029
-606.552
1664.82
1274.92
-501.748
1158.49
-60.0708
1853.3
-385.556
1529.56
-605.75
-525.185
1382.98
-671.72
1252.62
-580.895
1595.65
-609.183
757.554
594.727
-1352.28
-654.49
293.189
493.403
617.136
-2000.14
-1004.7
1625.66
59.6395
-59.6395
-76.8255
402.173
448.67
390.069
-16.1923
-307.907
911.656
-525.049
-437.173
839.346
-253.6
641.205
-422.657
1556.9
-460.922
-893.264
186.685
217.219
-403.905
617.139
1276.48
-1893.62
954.982
-472.204
-56.1959
129.088
-1989.29
1860.21
-467.03
193.726
1212.26
-456.665
-755.598
-319.56
-588.861
-504.707
-66.5861
-486.279
257.11
1191.15
-574.822
237.275
-396.092
158.817
-7.44594
-103.006
801.399
-698.393
16.9985
-396.754
-603.459
-85.8768
85.8768
-1260.54
2002.6
-1302.68
-228.68
-1826.89
235.909
-1047.81
-995.997
-193.118
-1681.22
725.649
1257.55
-1970.8
383.597
319.091
-702.689
-1892.7
1261.82
630.88
-136.492
136.492
-981.865
-11.3932
-1911.53
-574.039
1691.01
-696.089
1677.88
-618.96
-187.502
-1708.97
-603.937
-443.404
-611.52
-93.7715
93.7715
-1573.63
199.852
1373.78
160.875
194.596
-355.471
570.323
529.201
1026.01
-488.945
1790.94
790.649
-208.135
200.237
534.589
1744.56
-611.712
-568.522
1677.12
466.437
1856.89
-662.168
-1850.86
-1980.26
-664.241
-99.2097
99.2097
-603.759
242.745
-693.07
1048.51
-479.7
-1100.06
-292.358
1023.18
1893.56
1674.55
-1674.55
-281.392
760.781
1803.63
610.806
1303.37
137.204
143.94
603.335
588.38
1022.81
-1022.81
231.326
-361.562
-444.938
417.676
979.352
-469.683
-657.096
-1156.25
1747.75
291.403
-1668.45
629.855
-295.929
483.757
1786.91
-608.552
-171.666
-425.042
395.597
740.084
1780.99
-630.492
-526.892
-774.221
2004.37
-890.495
-1113.87
1683.33
-641.806
1251.21
-1868
616.797
348.658
-897.312
-183.129
-26.1148
1128.86
-500.496
127.51
638.618
-1665.64
456.12
621.701
-1850.86
-599.338
1829.31
907.182
-1188.87
1802.84
-613.977
1825.86
-591.393
-1234.46
456.63
935.593
-1748.79
946.393
-1478.55
236.854
1241.7
-855.082
-1281.9
-176.375
41.0709
135.304
598.044
280.53
1051.42
-460.373
872.03
-411.657
843.749
757.331
-1601.08
660.644
1094.39
-5.50666
-477.303
482.81
-1789.28
742.825
712.668
104.964
-1147.72
1981.65
-691.186
-1290.46
-553.375
1708.1
845.87
988.727
-1834.6
1255.79
700.729
-412.653
732.904
851.316
1058.04
-603.113
1803.63
643.788
1815.65
-1211.65
-604.007
-377.647
-336.758
714.404
112.357
-1118.95
1701.38
-556.316
-845.273
845.273
1276.7
610.53
1382.67
215.109
-567.462
291.421
-199.987
717.03
1139.86
498.699
-315.847
-892.781
-591.258
1744.97
-1744.97
573.098
-573.098
1010.1
1048.41
-2058.51
1881.02
-629.817
-597.263
836.54
-969.026
-1076.11
1023.81
709.377
-1733.19
-112.817
-363.323
-649.281
-827.432
2089.26
-1274.07
-629.273
1025.45
996.885
1319.07
662.574
337.824
1035.34
234.893
344.789
644.416
1798.46
-1798.46
683.393
27.1738
-195.767
-1019.65
-559.213
1717.7
988.146
1011.85
-1876.19
-232.687
-371.25
622.019
-349.477
1894.18
-1103.45
-790.728
384.255
-48.4989
-814.029