/*--------------------------------*- C++ -*----------------------------------*\
  =========                 |
  \\      /  F ield         | OpenFOAM: The Open Source CFD Toolbox
   \\    /   O peration     | Website:  https://openfoam.org
    \\  /    A nd           | Version:  7
     \\/     M anipulation  |
\*---------------------------------------------------------------------------*/
FoamFile
{
    version     2.0;
    format      ascii;
    class       volScalarField;
    location    "19";
    object      p;
}
// * * * * * * * * * * * * * * * * * * * * * * * * * * * * * * * * * * * * * //

dimensions      [0 2 -2 0 0 0 0];

internalField   nonuniform List<scalar> 
7807
(
0.366328
0.0215766
0.520291
0.348821
-0.00198036
-7.73104e-05
0.521612
-0.0123567
-0.00025773
0.156275
-7.25487e-05
0.00561868
-0.0185123
0.0816582
0.161961
-0.0236659
0.37716
-0.0242348
0.00290588
-0.105024
0.111552
0.00370667
0.0608886
0.282193
-0.0315286
0.376588
-0.00182335
0.0993875
0.240175
0.00627081
-0.0328882
0.769118
0.0600804
-0.00110928
-0.000230345
0.130014
0.00708005
0.506337
-0.0102598
-0.000769709
-0.00931086
-0.022829
-0.0994426
-0.00651527
-0.000453314
-0.000178413
0.0036506
-0.010522
-0.000145651
-0.101898
0.00839473
0.0943618
-0.0398517
-0.00148436
0.129043
-0.0109874
0.00314834
-0.0123743
-0.0508988
-0.00115973
0.000106168
0.0107249
0.0819631
0.00619297
-0.00225609
-0.0320917
-0.000204754
1.18428e-05
0.166643
-0.00983609
-0.000162973
-0.0862046
-0.0304531
-0.0519239
-0.0233992
-0.0727798
0.512926
0.108949
0.112769
-0.0970992
-0.0177423
0.469746
0.154824
-0.0540987
-0.00333002
-0.00531273
-0.0132078
-0.0386284
-0.00150062
-0.0103993
0.245663
-0.00651555
-0.000296451
0.00304758
-0.0082732
-0.053402
-0.0817507
0.00333559
-0.00368212
-0.00269505
-0.0898872
0.123562
-0.0078478
-4.06024e-05
0.00742368
0.25414
0.670019
-0.0116813
-8.84398e-07
0.0582701
0.33166
-0.0563998
-2.56184e-06
0.061949
0.253911
0.00111298
-0.058008
0.208142
-0.0603779
-0.0530449
-0.0935341
0.450148
-0.091542
0.0238763
-0.0911361
-0.00223003
-0.0294723
0.00493609
-0.00238066
-0.0328944
-0.0587586
0.111641
-0.00139415
-0.00177577
-0.0560514
0.322205
0.548429
-3.48203e-05
0.018571
-0.117738
-0.0491683
-0.0704686
-0.0732578
-0.0497897
0.677159
-0.0230583
0.242352
-0.0491132
-0.0684216
0.448781
0.124211
0.00190929
-0.00345883
0.143823
0.153827
0.47394
-0.0831432
-0.0184443
0.635107
-0.00013125
0.00163721
0.291723
-3.59806e-05
-0.00473668
-0.00932953
0.355195
0.35612
0.656569
-0.00541278
-0.00722176
1.35802e-05
-0.0970705
0.00109801
0.0310457
0.0201591
-0.0674334
0.0313239
0.232418
-0.000293784
-0.00115391
0.355492
-0.000130975
-0.000248559
0.524299
0.0162071
-0.0503947
-0.0566457
-0.0488868
-0.0286573
-0.115131
-4.01469e-05
-0.0787185
0.240854
-0.00791379
0.000187611
0.286231
-0.00292067
-0.0309154
-0.0283507
1.55583e-05
0.00227316
0.32923
0.27479
0.475362
-0.0510256
-0.0484336
-0.103416
0.107675
0.324464
-0.000487025
9.43594e-05
0.637981
-0.0202111
-0.00145311
-0.075059
-0.0308748
0.436436
0.444515
-0.077096
0.731217
-0.00270636
-0.0238715
-0.0922641
0.130699
-0.12225
0.329619
0.636487
0.000169366
0.0249462
0.220151
-0.00970354
0.204435
-0.00126608
0.698559
0.464842
-0.013138
0.00701975
-0.000713088
0.235989
-0.000210515
-0.014616
-0.110444
-0.000162268
-0.00315967
-0.000995826
0.238301
-3.52541e-05
-0.0108052
-0.0941779
0.76778
0.10055
0.680467
-9.70188e-05
-0.0327735
-0.000427721
0.492729
0.0103247
0.550112
0.00379105
0.0019408
0.0192613
0.112122
0.00149033
-0.000531308
0.00132678
-0.0102241
-0.0477753
-9.02348e-05
-0.0804351
-0.00888114
-0.000326124
-0.00150896
0.527363
-0.0184599
-0.00184666
0.730008
-0.0034925
0.353241
-0.000479803
0.00321983
2.18032e-05
-0.0547078
0.125587
0.0436174
-0.0512138
-0.000974975
-0.0922172
-0.0361533
-0.000418505
0.00128795
-0.00522132
-0.0177732
0.00752429
-0.00295722
-0.051704
-0.0393602
-0.0510595
0.008325
-0.0644675
0.461343
0.476823
-0.00363192
0.0124401
-1.46925e-05
-0.00565237
-0.053916
0.275177
0.171469
0.000257026
-0.00519361
-0.0626572
0.246383
-0.0024085
0.00918853
0.0031536
0.115572
-0.0772579
0.443341
-0.00388492
0.0230112
-0.000262213
0.0106017
-0.000116374
-0.0393541
-0.00082357
0.0131153
-0.0164558
-0.0632438
0.00656934
0.0224382
-0.00178391
0.0522401
-0.0166063
0.138856
0.241166
-0.132054
-0.0174567
-0.0371945
0.0131277
-0.107372
0.669838
-0.0113996
0.0749634
0.71731
-0.00374429
-0.00425753
-0.0116264
-0.00261115
-0.0182822
0.0161335
-0.00682928
-0.00506454
0.232172
-0.000146991
0.00142994
0.000208643
-0.0083345
-0.0167521
-1.78935e-05
-0.00267684
-0.0487988
0.633484
0.00855879
-0.0198404
0.598164
0.401428
0.119854
0.0259052
-0.098275
0.0126601
0.344751
-0.0261564
0.395464
-0.0343159
-0.0998195
0.277048
0.398333
-0.0760184
0.162291
0.327514
0.366774
0.105622
-0.00744211
-0.0102862
-0.000201832
0.0114659
-0.0267094
0.00255741
-0.000247516
-0.00392923
-0.0930035
0.157034
-0.0390315
-0.00598889
-0.00927089
0.0183194
-0.0169493
0.0047119
0.296294
-0.00458677
-4.15812e-05
-0.000114638
0.000139117
-0.0470844
0.225905
-0.00978305
0.0683469
-0.129549
0.497072
0.00851455
0.0171306
-0.0124603
0.511331
-0.00258454
0.439198
0.247022
-0.000271093
-0.0383428
-0.00806477
-0.0665372
0.00146791
0.129791
0.00936507
0.0159192
-0.00208253
0.221987
0.2496
-0.058766
-0.0487148
-0.00554104
-0.0325785
0.138604
0.756612
-0.0404051
0.0117262
-1.15314e-06
-0.0307036
-0.00555979
0.0478629
-0.108955
-0.00342026
0.528795
0.23125
-0.0878539
0.298419
0.500757
0.0662775
0.00311871
0.359497
-0.00217415
-0.000432426
-0.0398839
0.000234112
-0.116225
0.000403604
-0.0498238
0.00490325
0.2912
-0.00434366
-4.77291e-05
-0.109271
0.00444296
0.0829872
-0.0865905
-0.115002
0.064731
0.221766
0.184412
0.188996
-0.000488611
0.147548
0.14905
-0.00127654
-0.0375956
0.00157138
0.0158654
-0.00310693
0.0120332
-0.00189083
0.22705
-3.9304e-05
0.000522995
0.00503584
-0.0486986
0.0510593
-0.0473895
-0.0571655
-0.0450359
-0.128108
0.023337
0.349633
-0.000285349
-0.0158577
0.70681
-0.0793839
-0.0175981
-0.0568336
-0.0134403
-0.0459097
-0.0236746
0.0689574
-0.0180016
-5.15447e-05
0.0603132
-0.000222218
0.463272
0.178273
-0.0116863
-0.0319531
-0.00044727
0.471232
0.4261
0.126101
0.244391
-0.0841414
0.564558
-0.000136026
0.0521971
-0.0406249
0.239223
0.660281
0.122653
0.221633
-0.00407829
-0.000485116
0.225063
-0.0376928
0.490796
0.0841068
0.308959
-0.0167056
0.505949
0.408654
-0.021099
-0.0178952
0.196845
-0.117386
-0.000188689
-0.029425
-0.112374
-0.0842327
0.0276008
0.0230349
-0.000287092
0.429579
-0.00225093
-0.000238617
-0.0334879
-0.00118798
-0.000533144
0.00889556
0.312084
-0.0980438
0.619752
0.000169346
0.309584
-0.0280128
-0.000164731
5.1909e-05
0.2371
0.301038
-0.0096271
0.275383
7.39817e-05
0.288927
-0.128148
-0.0220715
0.523042
-0.0719419
0.233201
-0.0544799
0.287012
0.298185
-0.036309
-0.0459043
-0.0137884
-0.00676879
-0.000473182
-0.00260512
0.377063
-5.5543e-05
0.278122
-0.0908345
0.431185
0.265525
-0.11505
0.603268
-0.00380438
0.0148019
-0.0421132
-0.0439365
-0.015087
-0.0335696
0.0749705
0.695882
0.000118406
-0.00449171
-0.0559837
1.80819e-05
0.470913
0.00451776
1.79967e-05
0.000501951
0.000970087
-0.0376075
0.0460794
-0.00361639
-0.000196081
-0.0159846
0.00660563
-0.121669
-0.1057
0.0516081
-4.63484e-05
-0.138991
-0.0287622
0.2027
0.424334
0.00289593
0.207652
0.000399756
-0.0275805
0.14231
-0.0151052
0.332777
-0.0282101
0.0581056
0.147376
0.228371
0.0115777
-0.0225889
0.267491
-0.100126
0.500729
-0.0203182
0.367005
-0.0202356
-0.00269923
0.211645
0.0061067
0.142647
0.00465982
1.55979e-05
-0.131313
0.289086
0.00356817
0.195739
-0.0267818
-0.143116
0.0204062
-0.0490696
-0.00389831
-0.0192642
-0.091378
-0.0583767
-0.0213181
-0.000328239
0.525299
0.199981
0.0681596
-0.000452131
0.405871
1.83131e-05
-0.000414674
0.210512
0.00547661
0.259446
0.0981152
0.0406697
-0.0197645
-0.119936
0.0595762
0.00321289
-0.0842649
-3.11677e-05
0.00926801
0.322025
-0.034617
-0.00648511
-0.0116425
-0.00455549
-0.00093083
0.716285
-0.0214662
-0.00127347
-1.14456e-05
0.201688
-0.0602766
-0.000750235
-0.00641744
0.23181
0.146337
-0.0751742
9.18705e-06
0.252066
-0.0338403
0.278443
0.0383543
0.0468857
-0.0615576
-0.000209521
0.143906
0.136256
0.0956289
-0.0806199
0.376094
0.0145231
0.262648
-0.00539357
-0.0333367
-0.000905539
-0.00226575
-0.000225617
0.236828
0.345301
-0.00343878
0.0452193
-0.0367596
-0.0613298
-0.0722075
-0.00431845
0.0481202
0.688651
0.0727658
-0.000108969
0.143541
-0.00848974
0.595001
-0.0266099
-0.0237211
-0.000381773
-0.0274582
-0.0140544
-0.0170048
-0.00729326
0.0038074
0.0657112
0.000272977
-0.104119
0.0352893
0.453003
-0.072246
0.265806
0.004934
-0.0352708
-0.0228524
0.290114
-0.0160192
0.000279062
-0.0329795
-0.0119296
0.0515099
-0.0557135
-0.0478318
0.018974
-0.0312088
-0.00708202
-0.0894788
1.70048e-05
0.0862431
-0.07824
0.236506
-0.0323978
0.141449
-0.0883785
0.416772
0.0204755
-0.0636068
-0.022538
0.626442
-0.0860475
-0.0278701
-0.119139
-0.0398648
-0.103058
-0.053544
0.255759
-0.00644458
0.336424
0.0206882
-0.00089634
-0.00280056
0.127607
0.774078
0.00274545
-0.0276479
0.242133
6.18032e-05
-0.043913
0.0625648
0.0256395
0.0209785
-0.00376306
-0.0546494
-0.00683306
7.88144e-05
-0.068332
0.345106
0.0101439
-0.035348
0.0045457
0.242168
-0.000869127
-0.00288522
-0.000825168
-0.00178548
0.112866
0.0123462
0.00823992
-0.0379144
0.000122541
-0.105641
-0.021299
-0.121902
-0.0291499
0.0347467
-0.000481501
-0.0271471
-0.0919928
0.090019
0.433776
-0.0029005
-0.101553
-0.0109539
0.0240352
0.229785
0.00107201
-0.000347896
0.207701
0.070557
0.035664
-0.00688918
-0.0048361
-0.0840813
-0.000391708
0.00376344
-0.028595
0.379225
0.345051
-0.027966
-0.0745099
0.0171534
0.012254
0.0522571
-0.0851876
-0.015909
1.65925e-06
0.0421631
-0.052134
-0.0936825
0.013828
-0.0814078
-0.000920861
-0.00695506
0.267518
-0.0590603
-8.07856e-06
-0.00656862
-0.0709824
-0.000373964
-0.0206444
-9.9711e-05
0.0101173
-0.117927
-0.0302663
-3.20725e-05
8.25263e-05
0.176975
-0.0577238
0.474123
0.354736
0.0334932
-0.00133628
-0.0182343
0.000541159
-0.0661863
-0.0910671
0.0477708
-0.0343425
0.34638
0.0208647
0.000673919
0.0152739
-0.106052
0.00467506
-0.0258983
-0.0889766
0.00685802
0.0378988
0.105136
0.0207682
-0.0467808
-0.0531125
0.251801
-0.0313408
-2.52685e-07
-0.102903
-0.097991
-0.0374525
0.0106627
0.00182159
0.0204535
-0.113765
0.0552303
-0.0557716
0.202043
-0.043337
0.0145599
0.0335406
0.0321909
-0.0567874
-0.0806776
-0.000217608
0.19971
0.273747
0.013573
0.294431
-0.0801238
0.0747695
-0.0567543
0.264195
0.145583
0.682052
1.32989e-05
0.152963
0.240149
0.0252775
-0.00263589
-0.0297703
0.0262753
0.000116384
-0.029624
-0.0659458
-0.0326028
-0.0358359
0.000324775
-0.0469237
-0.000648996
-0.00156389
0.308291
0.0121418
0.142889
0.0355917
0.27013
0.0209919
-0.00068358
-0.0840899
0.0150087
0.452589
0.00233199
-0.0701351
-0.000376112
-0.00097145
0.0139993
-0.0495129
-4.38476e-05
-0.0178528
0.0498533
-0.00345782
8.33301e-05
-6.57662e-05
0.204715
-0.00949434
0.0122119
-0.00196755
0.0154616
0.0266367
0.0154941
-0.000499194
0.437803
-0.0680314
0.286572
0.386429
-0.000362544
0.130354
0.166213
-0.00136043
-0.000456148
-0.000737074
0.0272218
0.0311289
-0.0137286
-0.0278875
-0.0897046
0.22893
-0.0926925
2.68122e-05
-0.0313754
-0.0291514
-0.0572801
-0.00753401
0.0107314
0.00226316
0.0469143
-0.000901667
-0.000390532
-0.0279574
-0.00743172
-0.0401435
-2.39003e-05
-0.0240332
0.0561931
0.00142282
-0.0159934
-0.0141826
-0.0191277
-0.0149754
-0.00897633
0.0197991
-0.0154832
-0.000171594
-0.000690038
0.0401246
-0.0199153
-0.00850316
0.0149125
0.00600296
-0.142233
-0.0180483
0.209372
-0.0205154
-0.0808992
-0.0377077
-0.0365558
-0.0252468
-0.00647698
0.00402083
-0.00606815
-0.0226692
-0.0261165
0.26011
0.210805
0.0855752
0.42226
-0.000116369
-0.00552938
-0.0266447
-0.0132854
0.151671
-0.0327134
0.085588
-0.00719851
0.281918
-0.00332367
-0.00277847
0.0338717
-0.0235826
-0.000366335
-0.0319894
-0.0101106
-0.0337026
-2.80863e-05
-0.0113729
0.00353382
-0.0282894
0.061373
0.0568334
0.0315307
-0.022686
-0.0504865
0.160706
-0.00217383
-0.00337298
-0.00363002
0.592351
-0.000131388
0.115428
-0.0343497
-0.0329625
-0.0426176
-0.0620058
-0.0462013
-0.0548164
-0.0293559
-0.00787814
-0.000156823
-0.00733448
-0.0350703
0.142221
0.00299682
0.227848
-0.0526785
-0.0214524
-0.00157428
-0.0462977
-0.000166365
0.19953
-0.048379
-0.0420435
-0.03832
-0.00653304
-0.0518167
-0.00289438
-0.0648372
0.144206
-0.0415409
-0.0970248
-0.00250411
-0.0434058
-0.0297614
0.0256807
-0.00554097
0.192107
-0.00412128
-0.0309487
-0.0011408
0.213409
-0.0622322
-0.042569
-0.00557638
-0.0159486
-0.00471668
0.260858
0.0356368
0.28483
-0.00813516
-0.00138549
-0.0021542
-0.00397702
0.255245
-0.0947861
-0.0115957
0.000617414
-0.0112381
-0.0107796
-0.00151862
-0.0189186
-0.0253428
0.0869015
-0.00848129
0.00940988
0.582686
-0.0972793
-0.0464043
-0.0908243
7.14001e-05
0.111277
-0.00607226
-0.0432893
-0.0095688
-0.0570837
0.00774065
-0.000900771
-0.00497224
0.00568265
0.260191
-0.0100032
-0.00305352
-0.00793756
-0.0814597
-0.0141257
-0.0358351
0.00769403
-0.0148009
-0.0152467
-0.00560983
0.266088
-0.0733216
0.00561295
-0.00724605
-0.0444104
-0.0234872
-0.0787101
-0.00238692
0.132681
0.0385408
-0.0133247
-0.00294777
-0.0226406
0.607825
0.261739
-0.0189944
-0.000978089
-0.00408054
0.0120979
-0.00679682
0.0350633
-0.000692527
-0.023076
-0.00337823
-0.0280973
-0.0305872
-0.00179629
-0.0175365
-0.00231146
0.397218
-0.0109166
-0.0196805
0.00586241
-0.00329272
-0.0483109
0.129947
0.541197
-0.0180468
-0.0190942
-0.00361981
-0.000773615
1.10829e-05
-5.07259e-06
-0.0170401
-0.0011242
0.175436
-0.00112935
-0.00310213
0.0142778
-0.000426353
-0.0706262
-0.0785053
0.0286383
0.0621318
0.042568
0.109347
-0.0461279
0.130504
0.102923
0.136527
0.168821
-0.0217119
-0.00146198
-0.00968095
-0.0878339
-0.00602221
-0.0250202
0.0878648
0.415605
-0.0685177
-0.000812709
-3.30443e-05
-0.00250324
5.00772e-06
0.0163779
-0.000934297
-0.00769882
-0.0758597
0.000972535
0.00461097
-0.000357658
0.108348
-0.0256823
-0.0296398
-0.00204784
0.403032
0.363311
-0.0168848
-0.0818485
-0.0450845
-0.0393608
-0.0239521
-0.00319517
-0.10066
-0.0429393
-0.0662678
-0.0269492
-6.52121e-05
0.257371
-0.0150829
-0.0162616
-0.0384874
0.0315295
-0.000895432
-0.0141006
-0.00232128
0.0234895
-0.00257321
0.236792
0.0006352
0.017046
-0.000694504
-0.0632115
0.0151419
-0.0012694
0.024764
0.00074041
0.0713694
0.172166
0.00354857
-0.00245527
-0.000200189
-0.00096746
-0.000850526
-0.0957538
0.171792
0.0576135
-0.000445176
0.0166775
-0.000766417
0.292916
-0.0938844
0.32837
-0.0681866
-0.000756992
-0.000469086
-0.0123287
-0.00958893
-0.00105886
-2.6994e-05
0.0417891
0.0473206
-0.000388931
-0.000546865
-0.0323469
-3.26808e-05
0.223555
-0.00157704
-0.0827081
-0.0311957
-0.0107871
-0.0867047
-0.0948983
0.203566
-0.0200482
-0.0331696
-0.000526928
-0.0886496
-0.0338551
0.0475054
0.169322
0.435599
-0.00199217
-0.092797
0.0236815
0.389711
0.0626754
-0.000190651
-0.0102004
-0.00691856
-0.00839445
-0.0753711
0.136919
0.000338923
0.0355801
0.00533781
0.12352
-0.000877544
-0.000187777
-0.0607141
0.359782
-0.0855528
0.210615
-0.00210329
-0.000328793
-3.32245e-06
-0.0933379
-0.0659502
-0.000563042
0.16072
0.0188771
-0.00904768
0.49974
-0.000645843
-0.00624931
-0.0915698
-0.0251843
-0.00387723
0.184073
-0.0705835
-0.000269732
0.0235861
-0.000277932
-0.000157282
0.197238
0.00762128
-0.000759833
-0.0807822
-0.0398063
-0.00594397
-0.0302575
0.00416479
-0.037097
0.00291315
-0.00592472
-0.100536
-0.0600764
0.0371663
-0.00151533
0.215022
0.270039
-0.0924386
0.0169906
0.0318414
-0.00725297
0.221643
0.161353
-0.0450466
-0.000261209
0.0171315
-0.0863471
0.0233919
-0.0443667
-0.00356482
0.0763075
-0.0442944
-0.000220887
-0.000109765
-0.0361198
-0.0393084
-0.0418981
0.0167131
0.0394485
-0.069182
-0.0002411
-0.002343
-0.000335711
-0.0508821
-3.39579e-05
-0.00327857
-0.0561979
-0.113348
0.180763
-0.00504746
0.00717303
-0.0342957
-0.041013
-0.000204263
-0.0726678
0.177426
0.210944
4.70208e-05
-0.000177491
0.214539
-0.00425879
-0.10714
-0.0637332
0.00581714
0.000866447
-0.106449
-0.0108378
0.219344
-0.0882662
-0.00248945
-0.013959
-0.0800445
-0.000966878
-0.000395997
-0.00152441
0.0103613
-0.0801076
0.210672
-0.00034317
0.606747
0.0209672
0.000222461
-0.00161658
0.000458843
0.000522502
-1.71311e-05
0.000257829
-0.0827684
-0.00120681
0.000769811
-0.000323241
0.191226
-0.0096663
-0.000314115
-5.9585e-05
0.447126
-0.0347473
-0.0158944
0.00200798
-0.00120869
0.0957154
-0.000151169
-0.0195775
-0.101351
0.00378213
-0.0106198
-0.000151499
-0.000333042
-0.0487304
-0.0773517
0.0123041
-0.0984258
-0.0552971
-4.10332e-05
0.0349225
0.0519154
0.152613
-0.002907
-0.000251825
-0.0875964
-0.0102775
-0.000824838
-0.07725
-0.000219122
0.0688592
-0.000128423
-0.00214846
0.0519819
-0.00351181
-0.0913105
0.557415
-0.00275811
0.000494514
-0.082708
-0.0758269
0.015841
0.00805934
-0.00024354
-0.0499095
-0.000128486
0.257172
0.730319
0.134107
0.00523836
0.00621537
-2.39422e-05
-0.0443411
-8.21152e-05
-0.0107615
-0.00286309
0.000663607
-0.00567643
-0.015548
-0.00019574
0.00152653
-0.0127678
-0.000515905
-0.01621
-0.0267136
-0.00371847
-0.00189949
0.656455
-0.00114298
0.00421924
0.000440024
0.0231945
-0.0779604
0.0163342
-0.000284029
-0.000157058
0.0046257
-0.000170887
-3.38699e-05
-0.0187086
0.00122203
-3.46197e-05
-0.0797399
-0.00374662
-0.0880386
-0.00276603
-0.000104839
-0.00527715
-0.00788785
-0.0242897
-0.0339166
0.00400566
0.000920965
-0.000771159
-0.00331202
-0.000118306
0.354185
0.00270504
-2.71508e-05
0.00104022
-0.00340253
-0.000579234
-0.0994269
-0.0854354
-0.000199518
-0.0116879
3.04762e-05
-0.00430098
-0.000112993
0.0561165
-0.000221942
-0.000295053
-0.00580622
-2.7777e-05
0.0226607
-0.000363245
-0.0021172
0.0311328
2.88885e-05
0.466042
-0.0835944
-0.0655587
-3.26246e-05
-3.00274e-05
0.00329952
-0.00198501
-0.0784862
-2.32682e-05
4.80499e-07
0.00130704
-4.32792e-06
0.000672554
0.00079407
-0.000756956
0.00137711
-0.0824384
0.57461
-0.0498357
0.424547
0.0153015
-0.0266483
-2.4624e-05
-0.00146774
-0.0201023
0.00026637
0.000507964
0.000309179
0.114699
-0.00222445
-0.000344613
0.588569
-0.000896039
0.00103863
0.000887494
-6.31616e-06
0.10084
-0.00364
0.00197532
0.000233028
-0.000855688
-0.00010522
-0.0015145
-0.0689287
-0.000684895
-0.0026135
-2.30541e-06
-0.0002188
-0.000419869
0.25256
-0.000726123
-0.000431235
-0.108639
0.006447
-0.000121421
-0.0022286
-9.36331e-05
0.232464
-0.113822
-0.000466473
-0.000635465
-0.00305725
-0.000237295
0.0910493
0.167957
0.0714476
0.000906509
-9.47863e-06
-1.20751e-06
0.0950144
0.000455018
-0.0956617
-0.0337563
-0.0257504
0.037115
0.659069
0.00338814
0.26882
-0.0237896
-0.0465081
0.236171
-0.000583848
-0.102588
-1.61024e-05
-0.0148327
-0.0776138
0.000105232
-0.0728372
-0.00157832
-0.00256379
-0.00884987
-0.067867
-0.0670512
-0.00508408
-0.0941876
-0.0698747
-0.000299372
-0.0200551
-6.75658e-05
-0.059738
-4.05858e-05
-0.000297564
0.0383153
0.224975
3.38433e-07
-0.0715315
0.00612126
0.0001454
-0.033198
1.52961e-05
-0.022566
-0.000413889
-0.0612568
0.000232058
-0.000132066
-0.00335662
-5.6257e-05
0.22
-0.0486844
0.130574
-3.42434e-05
0.00110015
-0.0521337
2.32527e-06
-0.0895871
-0.104103
-0.0877247
0.612629
-0.0107024
-2.4326e-05
0.0429622
-0.0662126
-0.00412348
-2.02299e-05
-0.000130221
-0.0747891
0.000236644
0.00152358
6.97402e-08
0.000294201
-0.0451675
0.190985
-0.0700231
0.149682
-0.00882675
-1.67558e-06
0.0111952
-0.0755215
-3.02875e-05
-1.81121e-05
0.00057136
0.000122107
0.000717158
0.316671
0.0572995
0.000107365
2.5199e-05
-0.104154
0.270982
0.244123
-6.59865e-05
-0.0576558
-0.0304953
-0.016616
-0.0758829
-0.013627
-0.00480942
0.197448
-5.40994e-05
-0.0423176
0.232097
-0.0770807
-1.35124e-05
-0.0968824
-0.00027587
0.380851
0.0475986
-5.63712e-06
-3.52296e-05
0.255811
7.83838e-06
-0.000282412
-0.0193337
3.26402e-05
0.331808
0.00591762
-0.0121244
-0.10178
-0.00620547
-0.106383
0.250524
-0.0139098
-0.0112598
0.00171855
-2.2901e-05
-0.00166928
1.05983e-06
-1.59418e-05
0.0462232
0.246382
0.208522
-0.000711603
0.323589
-0.0170391
1.91673e-05
-0.0725124
-1.50672e-05
-0.0445119
0.0490356
-0.0229742
0.00757211
0.00320219
-0.015289
0.000453155
-0.0027445
0.0337881
-0.00473947
-6.26144e-05
5.84538e-05
-9.18094e-05
0.0507353
0.000108355
-0.0343514
0.340134
-0.00983477
9.69878e-05
-0.00570088
-4.831e-06
0.140797
-0.00057408
-9.74574e-05
-0.000129467
-1.52553e-05
0.282328
-0.000230741
0.319333
-0.0956781
0.000208768
-0.0802936
-0.000768006
0.216927
0.602659
-0.00230322
5.03839e-06
3.74403e-05
-2.64858e-05
0.20466
1.58039e-06
0.00181203
-0.0391434
0.303395
1.59602e-05
3.45096e-05
5.87575e-06
4.9533e-05
-0.0330981
3.92635e-06
0.357685
-0.0253948
-0.000192127
5.77658e-05
-0.00337632
-0.0463099
2.87217e-06
-8.40108e-05
0.228033
6.57289e-05
-0.0508102
-0.0629581
0.000243424
1.80733e-06
-0.13346
2.58411e-06
0.230401
2.91631e-05
-0.000717245
2.55719e-05
-0.000274342
0.136037
8.86084e-06
-0.00267563
2.15015e-05
0.0231347
-0.00554643
-0.0105005
0.00171453
0.213277
-0.000414625
-0.000118419
-0.0144961
-0.0139964
-0.000386964
-6.53702e-05
-0.00144886
8.07938e-05
0.256369
-0.0164834
0.595969
3.48038e-06
-0.0124763
-0.000232848
0.195814
0.000110464
-0.041782
4.65313e-05
-0.0025786
-0.053083
-0.000364014
-0.0253515
-0.0779246
0.00863549
-1.37383e-06
-0.0826671
-0.000531082
-0.000453683
-0.00905691
-0.0186877
0.00221796
-5.87123e-05
-0.000698525
-0.00143881
-0.00207907
3.15486e-05
-0.00196767
0.584249
0.000180952
-0.00533615
-0.0553617
-0.114913
-0.0992909
-0.0756898
-0.0347844
-0.000822649
-0.0222168
0.000145427
-0.000120928
0.587182
-0.000142644
0.252775
-0.000723138
0.000700546
-0.00184385
-0.0714281
-0.000669648
0.00128208
-1.52154e-05
-0.000628757
-8.60212e-06
-0.000118634
-0.0241805
-0.000163291
-2.41135e-05
-0.000124649
0.000272751
-5.72358e-06
-0.0668639
0.32277
-1.14896e-05
-0.00097044
7.82376e-05
6.10232e-05
-0.0013524
2.05061e-05
-0.00146591
0.000504337
-0.000585342
-0.100797
-0.00111497
-0.00296698
1.19582e-05
-0.00248454
0.000590717
-2.08593e-05
-1.01328e-05
2.73274e-05
-0.00128872
0.000934793
-0.0696174
-0.042207
-0.101869
0.00108597
-0.00293136
0.00326069
-0.102696
-0.000143216
0.0268103
0.0115525
-0.0016968
-0.0190193
-0.0882935
0.536139
-0.000673339
-1.86158e-05
0.00153659
9.64106e-05
3.59883e-05
0.110886
0.00623001
0.127253
-0.0538784
0.521174
-0.000839465
6.31453e-06
0.000274337
-2.10737e-05
-0.00221337
0.219725
0.292585
-1.35262e-06
-0.000261084
-1.62579e-05
0.278816
0.0342041
-0.00809725
2.3802e-05
3.85385e-05
0.0120842
-0.00112365
-0.111028
-0.0266558
5.40733e-05
0.00588253
-0.0482448
-8.81662e-05
0.00308673
-9.34053e-05
-0.0721293
-0.00283523
0.208288
3.36046e-05
0.00284983
9.07865e-05
3.15546e-05
0.000311124
-0.0365021
3.05557e-05
-0.00147996
4.87432e-05
-0.0313802
-0.071664
-0.00480226
-0.0104443
-0.0138568
0.0151188
-0.0139876
-0.00400932
0.000128276
0.000196282
4.37406e-05
3.7917e-05
-8.26402e-05
0.0150685
-0.0874369
0.000853415
-0.0617639
-0.00500726
-0.0736245
0.000162775
8.14287e-06
0.00222996
-0.0332841
3.77915e-05
-0.0624538
-0.0231734
0.0728136
-0.0606469
5.39088e-05
-0.00558843
0.000348772
-0.10435
0.186443
3.14187e-05
-0.0922149
-0.0345542
-0.00687624
7.73286e-05
-8.94573e-06
0.0490715
-0.0264852
5.24466e-05
-0.0109276
8.58703e-06
0.000386251
0.175758
-9.71668e-06
2.00732e-05
-0.000118106
7.01671e-05
0.00154367
0.000162542
-0.00845781
0.000417652
-0.0199656
0.00189048
-0.000318936
-0.0481758
-0.0667469
-0.0100605
-2.05733e-05
4.48481e-05
-0.0862696
0.00958446
-0.0742207
6.2615e-05
-0.00828833
-5.23572e-05
5.12591e-05
0.115106
-0.011251
-0.00449191
1.11771e-05
-0.0278059
9.62105e-05
-0.104027
5.67931e-05
-0.11736
4.77412e-05
-6.33254e-06
0.000158073
0.00174593
-0.0751174
-0.0287165
-0.106803
3.85611e-05
0.000176323
-0.12027
-0.0352037
-0.0135005
-2.03168e-06
-0.023528
-0.0764974
-0.120954
1.77037e-05
-6.22939e-06
2.62197e-05
-0.0819528
-0.102718
0.0012472
-0.0176104
-7.6872e-05
0.311
0.000173471
3.72637e-05
0.000271682
5.31048e-06
-6.63325e-06
-0.00581021
0.00021154
-0.00410226
-0.098264
-0.0208045
-0.0910246
8.27579e-05
-7.47878e-05
0.0863962
-0.0622285
-0.00761381
0.160501
3.01652e-05
-1.33903e-05
-1.2301e-05
0.182464
0.000311487
2.26793e-05
3.20759e-06
-0.0880336
-0.024551
2.53192e-05
0.000158509
-0.0146475
-0.0102662
0.000747149
0.296089
-0.0887356
0.000387319
0.737358
-6.9296e-06
-0.00108379
-0.0130554
-0.121365
2.129e-05
1.29672e-05
4.31679e-05
0.00800667
-0.0478976
-0.000527508
-0.0762058
-0.012347
6.10802e-05
-5.00785e-06
-0.0161459
0.00103282
0.00788529
-0.0541512
-0.0710595
-0.0606456
0.033465
-0.0417017
-9.14166e-05
0.000618385
0.0250306
0.000922293
-9.93374e-05
0.001316
7.17213e-05
-0.000123606
-0.0192149
-1.53385e-05
-3.2324e-05
0.0637266
-0.00897541
-0.000229247
-4.04416e-05
-6.37739e-07
0.319733
-0.0105048
0.00135496
-0.0434192
0.000403421
0.000354784
0.000305946
-6.75263e-05
0.000833009
-0.0586317
0.0298637
-1.11989e-05
-0.000236102
-0.0637278
-0.0476413
0.0737557
-0.000778258
0.00310577
0.0288577
1.42307e-05
0.000117605
-0.0690321
4.48265e-05
0.221696
3.38536e-05
0.00696492
0.000297572
0.000397553
-0.109854
-0.0116079
-0.0280648
-0.0038501
5.28983e-05
0.0113138
0.0916092
-0.0193306
-0.000200905
0.136063
0.217777
1.09475e-05
-0.0810064
-9.4226e-05
-6.96365e-06
-6.36435e-05
-0.000899955
0.0317503
1.15273e-05
0.000438088
-0.0387822
-0.0403414
-0.0347844
0.391866
4.79522e-05
-0.000100365
0.227694
-0.0037681
-0.00604382
-0.00104056
0.224862
9.35327e-05
-0.000467757
9.99493e-05
6.67653e-05
6.28199e-05
7.17724e-05
0.00013632
-0.0280973
2.74416e-05
-0.00527133
-0.0697453
0.31822
-0.000190075
-7.12028e-05
0.00779993
0.123305
-0.0670673
-0.00120156
-0.110089
0.390686
8.39095e-05
0.494913
-2.28652e-06
0.00557054
0.0390082
0.000751703
0.529945
3.91278e-07
-5.20847e-06
0.0019785
6.24014e-05
-0.00138154
0.000461256
3.31005e-05
-0.0031413
4.02904e-05
-0.000217231
-0.0052891
0.314227
0.0823338
0.0353074
-0.0687925
-4.55267e-06
-1.63171e-05
0.0056822
-0.0810671
-6.97078e-06
-0.073261
-7.58818e-05
0.148074
0.0924308
-0.0510237
-0.00215513
-0.018467
-0.00157576
-0.0235155
0.00731151
-0.0114591
0.0974464
5.672e-06
0.333452
0.0746943
-0.000896322
0.281595
-0.0210934
-1.63018e-05
5.58999e-05
0.000125566
-0.000326813
-0.000174887
0.316378
-0.00156667
0.325051
-0.00166122
0.222389
0.295565
0.184334
-0.011167
1.65363e-06
0.000131793
-0.0168746
-0.136347
-0.0750291
0.00251848
5.46031e-05
-0.0601648
-0.000459592
3.62632e-05
0.00171643
-0.00170998
-0.000974487
0.0522771
0.000140265
-0.0764554
0.090773
0.000109958
0.00047354
-0.0220331
-0.0877759
-0.00116566
-0.000822915
3.89202e-05
0.000442617
0.153135
-0.0265814
-0.0739938
0.00221432
0.161102
-0.06087
7.78728e-05
5.27177e-05
0.050485
-0.000119535
0.140833
0.00418034
-0.0216147
-0.000599717
0.00275749
-0.0561804
-3.11118e-05
0.000845447
0.00910612
-0.116838
0.222716
-0.098612
-0.0424354
-0.000237119
-6.55534e-05
0.0110034
9.3067e-05
-0.11815
-0.102832
0.000964409
0.00570771
0.00627008
-0.121348
0.00108873
0.000343887
8.41097e-05
-0.0646245
6.08551e-05
0.000957156
0.17107
0.240798
-0.131406
0.0748499
0.0747467
0.046552
-0.000222929
0.0206676
0.000222997
1.71493e-05
-8.76268e-05
1.14636e-06
7.69831e-05
-0.00056139
-0.0121706
-0.061107
-0.0155224
-0.0443408
0.0818823
0.0682877
0.0067605
-0.0990231
0.000294957
0.00780304
0.0186168
-0.000610532
0.116181
-0.00190419
-0.0172917
0.0202283
0.00904824
0.00183328
-0.00644923
0.0701843
0.00141
-0.0312935
-0.026059
0.617969
-0.0388429
0.123376
0.0562093
-0.0568588
0.00370094
0.000195867
-0.00414146
0.000118113
-0.0042328
-0.0399316
-9.98973e-05
-3.89951e-05
0.363977
-0.00530435
-0.0662504
-0.0300787
0.000371585
-0.00217005
-2.63087e-05
2.2334e-05
0.0636576
8.20373e-05
-0.00473039
0.118031
0.0104316
0.00189343
0.0304279
-0.00921536
0.00693407
-0.119908
0.00148283
-0.00711529
-0.0885819
-0.0013558
-0.012925
0.00130834
0.00213424
0.00168211
0.0624453
-0.000469947
0.00935344
-0.0863432
-0.0327876
0.000561544
-0.0859368
-0.0238353
-0.0275529
0.000208412
0.0109051
-0.102399
-0.00134149
-0.00774777
-0.0797614
0.000897624
-0.00187547
0.295233
-0.0324176
-5.88374e-05
0.0135471
-0.0777733
-0.00168362
0.259558
-0.00337864
0.00172445
0.0891817
-0.00228986
0.0137309
0.178051
0.000153205
0.00198047
0.000319652
8.49485e-05
-0.00723343
-0.0111615
-0.000170715
-0.0384599
0.146285
-0.0596219
-0.10624
0.00196647
-0.00525101
-0.000926682
-0.0532661
6.87202e-05
0.0295144
0.000101869
-0.0254942
-0.00313702
-0.00800403
0.0252083
0.174495
-0.113885
-7.36157e-05
0.271931
-0.00307817
-0.00384359
-0.0945387
-0.117844
-0.0247598
-3.8867e-05
-0.00173625
0.0119301
-0.00496631
-0.00758407
0.00077203
0.129425
-0.0658333
-0.0177493
-0.0107461
0.043693
-0.0030381
-0.000912972
0.00286586
2.38268e-05
-0.00497184
0.170108
0.00136276
-0.133337
-5.82976e-05
-0.0118102
-0.0055279
-0.126149
-0.0182923
-0.141883
-9.15857e-05
-8.72271e-05
-0.00536919
0.0174148
0.00310947
-0.156726
0.134776
-0.076227
0.000336396
-0.169274
5.84489e-05
-0.174019
-0.040446
-0.174909
-0.168803
-0.154289
-0.103207
-0.0052607
0.0328865
0.0677686
0.103183
0.138288
0.237855
0.270026
0.300118
0.351994
-0.0129382
-0.0117106
0.104989
-0.0254401
0.00153626
0.0303634
-0.0640376
0.000948884
-0.00100201
-2.69301e-06
-0.0225146
0.0288412
8.85013e-05
-0.000451031
-0.016849
-0.00509352
-0.182595
-0.0183319
-0.0886421
2.34005e-05
0.000996473
-7.44642e-05
-0.073709
-0.0139002
-0.0572609
-0.0145063
0.00290894
0.000419755
0.00778851
-4.64505e-05
-0.00803438
3.65366e-06
0.000641423
-0.00813991
-0.0184273
-0.000345792
0.00056642
0.0740226
-0.0163715
0.104802
-0.178945
-0.0111135
0.205936
-0.0297961
0.00614607
-0.0340973
-0.00519534
-0.0200344
-0.01961
0.42576
-0.0020024
0.000137582
-0.00924515
-0.0140627
7.51005e-06
0.118802
-0.00639002
0.40134
-0.0448459
-0.0711669
-0.0423878
0.0781032
-0.00750605
-6.89474e-05
-1.03467e-05
-0.00666372
-0.0851614
0.000116593
0.43631
-0.00439156
-0.00784531
-8.25348e-05
-0.000594202
-0.00975607
0.172127
-0.0448857
0.170701
0.00108008
-0.0225748
-8.36121e-06
0.0430589
-0.0122254
0.0311553
-0.0167567
-0.00865843
-0.00117164
0.00219271
0.0193205
-1.63833e-05
-0.0150388
0.000968483
-0.00061288
0.000799463
-0.0260228
0.000438704
0.20088
-0.0167515
0.00628483
-0.0779856
0.0619367
-0.0814196
-0.0181442
0.0671179