/*--------------------------------*- C++ -*----------------------------------*\
  =========                 |
  \\      /  F ield         | OpenFOAM: The Open Source CFD Toolbox
   \\    /   O peration     | Website:  https://openfoam.org
    \\  /    A nd           | Version:  7
     \\/     M anipulation  |
\*---------------------------------------------------------------------------*/
FoamFile
{
    version     2.0;
    format      ascii;
    class       volVectorField;
    location    "6";
    object      U;
}
// * * * * * * * * * * * * * * * * * * * * * * * * * * * * * * * * * * * * * //

dimensions      [0 1 -1 0 0 0 0];

internalField   nonuniform List<vector> 
30084
(
(1.00728 -0.00889637 6.16714e-22)
(1.00705 0.00251331 2.14149e-21)
(0.993699 -0.00231574 -3.45159e-21)
(0.979903 -0.0371477 1.02126e-21)
(0.998372 -3.47298e-05 4.8821e-22)
(0.969179 -0.0231653 -1.61403e-21)
(1.04756 -0.0486461 -2.48612e-22)
(1.00983 -0.0135007 -6.5425e-23)
(1.00136 -0.00129981 8.19227e-23)
(1.00012 -3.12126e-05 2.2471e-23)
(1.01145 -0.0181191 3.43747e-23)
(0.998877 -0.0113372 -1.09187e-21)
(0.99969 -0.000130068 6.6403e-23)
(0.999984 -6.7377e-06 1.61567e-24)
(1.07359 0.0683727 7.53593e-21)
(0.995884 -0.00135389 5.22661e-22)
(0.999884 -0.000571008 -2.68574e-23)
(1.08356 0.013867 -7.70253e-22)
(0.998579 -0.00123728 -1.66898e-22)
(0.992497 -0.000574186 -7.58968e-22)
(0.999437 -0.000178832 -2.28728e-22)
(1.00129 -0.00130535 2.87535e-22)
(0.993626 -0.00245646 3.79319e-21)
(0.998586 -0.000114447 2.15734e-22)
(0.937445 0.0591553 6.61134e-22)
(1.00751 0.00201896 1.1535e-20)
(0.999669 -3.55069e-05 1.51353e-22)
(0.966621 0.050079 -4.84495e-20)
(1.07613 0.0693009 -1.88723e-20)
(0.999584 -0.00619052 -2.13507e-22)
(1.01039 -0.0069032 4.12843e-22)
(1.02416 -0.00361914 -2.9204e-21)
(0.992845 -0.0877835 9.11316e-21)
(0.999309 -0.0158298 5.14802e-22)
(0.96549 0.0474912 3.98096e-20)
(1.00344 -0.0223163 1.06768e-21)
(1.03766 0.0308626 -3.84367e-21)
(0.98062 -0.0206341 4.47112e-21)
(1.00366 -0.000541106 -1.10399e-21)
(1.00348 -0.000315913 2.08722e-21)
(1.00028 -0.000118334 -6.69622e-23)
(0.992987 -0.0215881 -3.96263e-21)
(0.999898 -0.000553614 -4.83762e-25)
(1.02327 -0.0479651 -2.84121e-21)
(1.00002 -2.19733e-06 -4.68646e-24)
(0.99968 -0.0062833 1.69475e-22)
(0.998436 -0.00841772 -3.0941e-22)
(1.00004 -5.74001e-05 1.21514e-23)
(1.00221 -0.00246193 -1.16973e-21)
(1.03772 0.0293657 -1.59249e-21)
(1.09215 -0.0438044 -3.66382e-22)
(0.982151 -0.0324638 -4.81278e-21)
(1.02373 -0.00296695 1.02332e-21)
(0.970241 -0.0229468 -2.70717e-21)
(0.995983 -0.00139782 -4.61148e-22)
(1.08013 0.0653771 -1.22835e-20)
(0.997718 -0.00153682 1.63319e-22)
(0.999419 -0.00020011 2.89498e-22)
(1.00048 -0.0148249 -6.52155e-22)
(1.01056 -0.0399689 -1.84779e-21)
(0.999963 -5.62915e-06 3.9585e-24)
(0.998621 -0.00126208 -3.4475e-23)
(1.13512 0.0560928 4.95817e-21)
(1.00363 -0.0217592 -5.51497e-22)
(1.02814 0.0632921 2.77933e-20)
(0.950653 0.0162619 9.72809e-20)
(1.00001 -0.0188161 -1.30297e-21)
(0.995238 -0.00962185 1.54865e-21)
(0.961978 0.0105783 3.94364e-20)
(1.0003 -0.000114967 4.33715e-23)
(1.00836 0.0026434 -1.57276e-20)
(0.99016 0.0419963 2.92537e-20)
(1.00224 -0.00613739 -5.03559e-22)
(0.947938 0.0685308 2.45712e-20)
(0.994539 -0.000447043 2.43548e-21)
(1.08162 -0.0167425 1.76752e-21)
(1.0917 0.102788 2.52178e-20)
(0.981086 -0.011621 1.08544e-21)
(0.999973 -1.26553e-05 -1.12098e-23)
(1.00473 -0.0333016 -2.0363e-21)
(0.969856 -0.000547696 -1.82636e-21)
(1.01265 0.0234342 8.83882e-21)
(1.00753 -0.00929156 -1.84626e-21)
(0.999999 -3.78475e-05 -1.12342e-24)
(1.04895 -0.0469078 6.18388e-22)
(1.18642 -0.0516765 -5.55485e-22)
(1.01567 0.0535827 -5.09887e-20)
(0.999677 -0.000129256 -5.99267e-23)
(0.999699 -0.000115209 -1.75953e-23)
(0.95334 -0.0305245 -6.79024e-21)
(0.997961 -0.0373796 4.74812e-21)
(0.981016 -0.0121828 1.2011e-21)
(1.00207 -0.00255471 2.0291e-22)
(1.03786 -0.00353789 -1.83243e-21)
(0.948149 -0.0131176 -5.67234e-21)
(1.01919 0.0648386 2.46684e-20)
(1.00084 -0.048694 7.29223e-21)
(1.00031 -0.000257114 1.09769e-22)
(0.981332 -0.0468756 -8.4778e-21)
(1.06675 0.078394 3.00399e-20)
(0.999972 -1.32815e-05 1.63605e-23)
(0.981937 -0.00758848 -6.49325e-21)
(0.999965 -6.39928e-06 -2.04042e-24)
(1.03101 -0.0102295 -9.54074e-21)
(0.981124 -0.0324212 3.21181e-21)
(1.02242 0.00848216 1.67527e-20)
(1.00018 0.0400659 4.63365e-20)
(0.999711 -0.000116574 -1.48875e-22)
(0.999997 -4.47886e-05 -5.57773e-26)
(1.00476 -0.0823403 -3.88743e-22)
(0.991002 -0.0869539 -8.20073e-21)
(1.03072 -0.0248407 1.33242e-21)
(1.00001 -9.58992e-07 8.63029e-25)
(0.999274 -0.00417347 -5.92794e-22)
(0.99994 -0.00149585 2.10448e-23)
(0.991874 0.0430511 7.15318e-23)
(1.02212 0.034762 -1.88173e-20)
(0.991995 -0.00506553 -2.5916e-21)
(1.00001 -4.3046e-05 1.41806e-24)
(1.00248 -0.00603572 -3.76317e-22)
(1.17782 0.0319481 -1.64959e-20)
(1.00498 0.00769377 2.49012e-20)
(1.12044 -0.0112724 1.11448e-20)
(0.949794 0.0199241 -9.01188e-20)
(1.00072 -0.000239834 -2.70686e-22)
(1.10851 -0.00035603 -3.58987e-21)
(1.08157 0.0156327 -4.14445e-21)
(1.01358 -0.0381735 1.0905e-21)
(1.00267 -0.00235053 -1.03574e-21)
(1.00001 -0.000288587 4.19574e-24)
(1.02273 -0.046547 1.01166e-21)
(1.09406 0.101306 1.40826e-20)
(0.996417 0.0764203 4.75372e-20)
(1.12919 -0.0210772 2.25305e-21)
(1.0298 -0.0102055 8.08644e-21)
(1.01012 -0.00647144 7.80956e-21)
(1.02677 0.100301 3.83548e-21)
(0.981067 -0.000532248 9.1882e-21)
(1.12212 -0.128458 1.17932e-20)
(1.06831 0.0761602 -2.28142e-20)
(1.10635 0.00222663 3.9826e-21)
(0.95777 -0.00378373 -7.55219e-21)
(0.96622 -0.0325444 2.03457e-21)
(1.00001 -5.03752e-07 -3.59481e-25)
(0.999993 -1.76876e-06 7.06223e-25)
(0.998331 -5.58997e-05 -3.82499e-22)
(0.998549 -0.00824922 6.39701e-22)
(0.992823 -0.0656831 -6.4241e-21)
(1.11383 -0.0892286 3.12547e-21)
(1.1281 0.0868786 1.98386e-20)
(1.02069 -0.0114858 4.1636e-21)
(1.01218 -0.012754 1.4528e-21)
(1.00028 -0.000409661 1.70881e-22)
(0.999914 -0.000145916 1.60115e-23)
(1.00107 0.0219714 -5.18498e-20)
(1.00035 -0.00104185 1.95034e-23)
(0.995517 -0.00781937 2.71744e-24)
(1.03308 0.102471 -1.17805e-20)
(1.00304 0.0298938 -5.40778e-20)
(1.09348 -0.0405548 1.83868e-21)
(0.971324 -0.00203555 3.137e-21)
(0.980594 -0.0363463 7.30351e-21)
(1.07936 0.0680604 3.09605e-21)
(0.999972 -2.90466e-05 3.50622e-24)
(0.999992 -1.54523e-06 -2.54157e-25)
(0.991969 -0.00533834 9.37065e-22)
(0.967105 -0.0318067 -1.14905e-20)
(1.00003 -0.000148603 -1.28919e-23)
(0.999999 -4.02481e-05 -8.86259e-25)
(0.995421 -0.00351797 -3.01413e-22)
(1.00001 -0.00028113 -3.50695e-24)
(1.00379 -0.00392213 -5.86562e-22)
(1.03105 0.103723 1.33465e-20)
(0.981356 -0.000253106 -7.78214e-21)
(1.03979 -0.0777573 -1.39957e-21)
(0.99661 -6.49485e-05 1.57074e-21)
(1.00141 -0.0018105 6.09304e-23)
(0.981407 -0.0074589 1.07336e-20)
(0.99947 -0.00416612 -5.20668e-23)
(1.1207 -0.00326916 -9.21298e-21)
(0.999989 -6.21771e-06 5.21286e-24)
(1.01028 -0.0259262 -1.22213e-23)
(1.01674 0.0547476 1.80793e-20)
(0.995441 -0.00889343 -9.52711e-23)
(1.11603 -0.126334 -1.13287e-20)
(1.01747 0.0293869 -1.65497e-20)
(0.995753 -0.00193647 -2.2832e-21)
(0.987726 -0.01084 2.87218e-21)
(1.00259 -0.00235421 1.57401e-21)
(0.99952 -0.00576206 -2.95938e-22)
(0.999827 -4.76029e-06 1.70642e-23)
(1.00432 -0.0120732 4.42075e-22)
(0.947141 0.00989659 3.76092e-20)
(1.00105 0.0205746 4.00076e-20)
(0.990252 -0.00429893 7.62242e-23)
(0.995731 -0.00769719 -9.64487e-22)
(0.984696 0.0227499 -3.87722e-20)
(1.00894 0.0184142 7.63159e-21)
(0.949266 -0.0129354 7.08616e-21)
(1.00074 -0.000346832 -2.12214e-22)
(1.06009 -0.061178 6.83346e-22)
(0.981898 -0.062522 8.62174e-21)
(0.999075 -0.0115874 5.30895e-22)
(1.00056 -0.000714742 -3.41544e-22)
(1.02779 0.10236 5.46369e-21)
(0.995576 -0.00353116 -2.08513e-22)
(1.0045 -0.00353194 -6.48716e-22)
(0.991484 -0.0653779 8.34282e-21)
(1.00518 -0.0844627 9.67113e-22)
(0.999978 -1.46894e-06 1.27842e-24)
(0.983444 0.0607125 -4.65127e-20)
(0.999334 -1.62609e-05 -3.72057e-24)
(0.999998 -3.25517e-05 -2.22559e-25)
(0.999653 -0.000136475 2.54217e-23)
(1.00004 -0.0373883 -1.70009e-21)
(1.12337 0.0624251 -1.71913e-20)
(1.01083 -0.0253369 1.54254e-22)
(1.00432 -0.00328272 -4.46086e-22)
(0.998599 -0.000162076 5.35785e-22)
(0.950264 -0.0144193 -1.21438e-21)
(1.00003 -0.00030908 -3.05141e-24)
(1.00032 -0.00106777 1.78772e-24)
(0.998486 -0.000133434 -3.52431e-22)
(1.01732 0.000142282 1.57166e-20)
(0.998242 -0.00265677 -1.09056e-22)
(0.999295 -0.0038907 1.76234e-22)
(1.01737 -0.000942123 8.0581e-21)
(1.00008 -0.000260928 1.84998e-23)
(1.00002 -1.36945e-06 1.21899e-24)
(1.00332 -0.00040369 2.32406e-22)
(0.983589 -0.0234161 -3.6066e-21)
(0.983442 -0.000296116 -3.76954e-21)
(0.996827 -0.000248269 -1.66667e-21)
(1.00902 0.0019567 1.30493e-20)
(0.989341 -0.000787596 1.7855e-21)
(1.01236 -0.0124011 -1.35888e-21)
(0.999984 -7.12125e-06 4.57786e-24)
(0.998042 -0.00174713 -6.39837e-22)
(1.00053 -0.000703397 3.6961e-22)
(1.05904 -0.0585386 5.63507e-22)
(1.05635 -0.134813 1.1776e-20)
(0.999108 -7.87508e-05 2.76016e-22)
(1.00029 -0.00036937 -1.31894e-22)
(0.99924 -0.00378133 -6.04543e-23)
(1.00239 -0.00532521 -9.07467e-22)
(0.992665 -0.00042198 -3.25011e-21)
(0.999972 -2.61391e-05 -2.41602e-25)
(1.18033 -0.0505155 -1.26414e-22)
(1.00003 -0.000319473 4.33372e-24)
(1.01713 6.10543e-05 -1.10725e-20)
(0.997792 -0.00154599 -3.30948e-22)
(1.00009 -0.000249261 7.56055e-24)
(1.02173 0.00866544 -1.06575e-20)
(0.977824 -0.0600488 -9.04061e-21)
(1.00015 -2.86892e-05 7.2881e-23)
(1 -5.8378e-06 3.1475e-26)
(0.957641 -0.00271397 -8.62249e-21)
(1.04156 -0.124703 -1.84755e-21)
(0.994252 -0.00563907 -2.47037e-22)
(1.01298 -0.0390886 -3.19069e-22)
(1.02132 -0.0119101 -6.82572e-22)
(1.02011 0.0542376 2.21126e-21)
(1.00004 -5.40189e-05 3.33189e-24)
(0.983932 -0.0228885 3.70767e-21)
(1.15301 0.0100106 -1.05654e-20)
(0.975475 0.0319751 9.58909e-22)
(0.995399 -0.00868576 7.32047e-22)
(1.01696 0.028302 2.0215e-20)
(1.0809 -0.0142459 1.29542e-21)
(0.999883 -0.00163538 -1.63558e-23)
(0.902545 0.0283352 4.84561e-20)
(0.999648 -0.000286213 -1.72494e-22)
(1.03966 -0.080483 -2.0968e-21)
(0.951129 -0.0143866 8.56429e-21)
(1.0015 -0.00171238 -3.34369e-22)
(1.12023 0.0317574 1.28643e-20)
(0.994261 -0.000646249 -1.92976e-21)
(0.997071 0.0821924 3.38555e-20)
(0.997702 -0.00018223 1.48517e-22)
(0.988105 -0.0116615 -1.49636e-22)
(0.999861 -0.00149382 -1.30751e-22)
(1.05339 0.090035 6.56008e-21)
(1.00038 -0.0116288 1.20012e-22)
(1.01742 0.0648492 1.48083e-21)
(0.99968 -2.45371e-05 -6.6347e-23)
(0.996096 -0.00129854 -7.26566e-22)
(0.973883 0.0735912 -1.96018e-20)
(1.02053 0.000635275 -1.33682e-20)
(1.01732 -0.000424114 9.35112e-21)
(0.980512 -0.0299585 8.98863e-21)
(0.999908 -1.94166e-05 1.70986e-23)
(1.00235 -0.00508571 -1.06551e-22)
(0.999891 -0.000623371 -4.66394e-23)
(0.999999 -3.08781e-05 -9.27649e-26)
(1.0358 0.00618879 4.00778e-21)
(1.00002 -3.31318e-06 1.39328e-25)
(0.98641 -0.0104239 6.73106e-21)
(1.15156 0.00655687 9.60089e-21)
(0.936169 0.0617512 -4.58708e-20)
(0.998049 0.076816 -7.57133e-20)
(0.979923 -0.0515492 2.81363e-21)
(0.991081 -0.0211735 2.17527e-21)
(0.984291 -0.00109865 1.80436e-21)
(1.0247 -0.0235536 3.84101e-21)
(1.00475 -0.0118793 -6.59833e-22)
(0.987642 -0.0113518 -3.96397e-21)
(0.98084 -0.0566129 1.22764e-21)
(1.01905 0.0553353 -3.42615e-20)
(0.999475 0.0219516 6.4579e-20)
(0.999167 -9.83653e-05 1.51926e-22)
(1.00117 0.0407639 -6.36015e-20)
(1.03531 0.00511352 1.47842e-21)
(1.12278 -0.00765075 -3.09432e-21)
(1.00956 -0.0103151 6.32455e-22)
(1.00094 -0.0107385 -4.19129e-22)
(1.01822 -0.0351069 -2.43629e-22)
(0.996385 -0.00125009 -1.72362e-21)
(0.998241 -0.00044901 -1.1327e-22)
(0.999966 -5.97178e-06 2.10177e-23)
(0.999402 -0.00589578 4.3559e-22)
(1.06766 -0.0196581 6.35544e-22)
(1.05292 0.0924847 -1.03041e-20)
(1.00105 -0.000890784 1.59373e-22)
(0.981348 -0.0192628 -5.38182e-21)
(1.01067 -0.0105189 -2.02143e-21)
(0.999978 -9.6359e-06 -1.78509e-24)
(0.980342 -0.0539786 -4.4672e-21)
(0.922908 0.0483123 -2.2639e-20)
(0.995811 -0.00331017 2.55271e-21)
(0.999252 -0.00308279 1.54875e-22)
(1.00988 -0.0102164 -3.93536e-22)
(1.00443 -0.032259 2.64336e-21)
(1.05098 0.0256252 5.10845e-21)
(0.99979 -0.00667738 -7.87546e-23)
(0.999981 -3.43049e-05 1.08266e-23)
(1.00001 -6.60528e-07 4.59668e-25)
(0.99822 -0.000408367 -1.24955e-22)
(0.972847 0.072939 2.82716e-20)
(1.0346 -0.0165668 2.36512e-21)
(1.0604 -0.132681 -3.35579e-21)
(1 -5.66681e-06 -1.82882e-26)
(1.03969 -0.128354 1.29297e-21)
(1.05215 0.00425134 -6.84529e-21)
(0.996534 -0.000108318 -7.83219e-22)
(0.952961 -0.00518709 -1.06278e-20)
(0.999304 -0.00302908 -1.54815e-22)
(0.999717 -0.000129406 -1.0872e-23)
(0.984385 -0.0206623 -1.13745e-21)
(1.00061 -0.000777379 -1.64595e-22)
(1.12261 0.000130686 8.68485e-21)
(1.00616 -0.000878833 -4.59284e-21)
(1.09626 0.0862911 -1.28042e-20)
(0.999887 -0.00161452 2.1281e-23)
(1.00314 -0.00942589 2.06774e-22)
(1.0047 0.00681589 -3.38107e-20)
(1.17305 0.030089 7.51272e-21)
(1.00027 -0.000384407 -1.00665e-22)
(1.00029 -0.0003443 9.97405e-24)
(0.992778 0.0519074 2.98038e-21)
(0.998828 -0.0379911 -9.73702e-22)
(0.999685 -0.00657898 9.53747e-23)
(1.00818 0.0204543 3.98057e-21)
(0.980444 0.0113887 7.47791e-20)
(1.09337 -0.0467981 1.45287e-21)
(0.999974 -0.0181013 -4.30605e-22)
(1.12021 0.0616093 1.72202e-20)
(0.999505 -4.78109e-05 -1.14764e-22)
(0.994069 -0.00295019 6.91953e-22)
(0.997749 -0.000187713 -4.25156e-22)
(1.00961 0.0174719 6.71014e-23)
(0.999987 -0.000512586 4.58714e-25)
(1.00598 -0.00103439 4.69328e-21)
(1.13051 -0.0747859 1.31231e-22)
(0.995475 0.0722467 7.28018e-20)
(0.94967 0.0708676 -1.09577e-20)
(0.995883 -0.00192403 8.68e-23)
(0.994083 -0.00552652 7.42539e-22)
(1.02641 0.0646858 -2.2042e-20)
(1.01104 -0.0412407 2.62226e-21)
(0.999968 -6.361e-06 -2.05064e-23)
(1.1128 0.0952161 2.97953e-20)
(1.01709 0.000557662 -4.68045e-21)
(1.0166 0.000723757 -3.14417e-21)
(0.996205 -0.00946903 -1.02353e-21)
(1.01237 -0.00165607 -6.98541e-21)
(0.968579 0.0649985 1.09526e-20)
(1.11143 -0.0984624 -1.12404e-21)
(0.984335 0.0653099 1.1378e-20)
(0.992031 0.0653766 -2.04896e-20)
(0.999997 -4.18435e-05 1.94379e-25)
(1.06533 -0.0194885 -2.32672e-21)
(1.11084 -0.093971 6.72129e-22)
(0.998157 -0.00267741 2.86737e-22)
(1.00109 -0.000969428 -2.61862e-22)
(0.977621 0.0131112 1.77574e-20)
(1.03596 -0.0168687 -3.08652e-21)
(1.00019 -5.01757e-05 1.63772e-23)
(0.989091 -0.044674 -1.01217e-20)
(0.981421 -0.0643053 -4.10557e-21)
(0.99618 -0.00133779 1.022e-21)
(0.99992 -0.000142091 -2.02167e-23)
(1.02092 0.0763531 -3.79778e-21)
(1.02233 0.0336081 3.20298e-20)
(1.00003 -0.000346096 -8.52966e-25)
(1.00281 -0.00249563 2.03255e-22)
(1.00356 -0.00244138 1.09918e-21)
(1.15103 -0.0349174 -2.56903e-21)
(0.980492 -0.0291412 -8.17473e-21)
(1.00004 -0.000410611 -9.56696e-24)
(0.999992 -1.0608e-06 -4.2176e-25)
(1.00033 -0.000122868 2.54867e-23)
(1.04972 0.0261347 -5.21372e-22)
(0.980563 -0.0198797 -4.28339e-21)
(1.00119 0.034083 1.49942e-20)
(0.961035 -0.0361894 4.92908e-21)
(0.991625 -0.0210172 -2.33743e-21)
(0.982978 -0.000878503 -7.31078e-21)
(1.00913 0.0197137 -1.95771e-20)
(1.1315 0.053377 1.0667e-21)
(0.999194 -0.00010623 2.78154e-22)
(1.0054 -0.00402366 -1.1694e-21)
(1.00057 -0.000773768 1.86629e-22)
(0.983285 0.0715958 -2.87157e-20)
(0.982029 -0.0179659 2.32009e-21)
(1.00073 -0.000197207 -8.82682e-23)
(0.994782 -0.00260716 -9.33821e-22)
(1.10786 0.0067749 7.17469e-21)
(0.999845 -0.00717456 -1.92124e-22)
(0.99199 -0.00918701 -5.06682e-22)
(1.00016 -9.82156e-05 -5.03942e-23)
(1.00015 -3.49367e-05 -2.2412e-24)
(0.920941 0.0516806 3.41273e-20)
(0.994283 -0.0009622 -1.19738e-21)
(0.996675 -0.00341969 1.03456e-21)
(0.999732 -0.00131461 -1.16665e-22)
(0.999518 -3.63776e-05 -1.56899e-23)
(1.02393 0.0536039 -1.18651e-20)
(1.13543 -0.0739566 1.1289e-22)
(0.990719 -0.0318998 1.32157e-21)
(1.00001 -7.72834e-07 -4.38812e-25)
(0.999999 -2.46073e-05 -7.74502e-26)
(0.981311 -0.0186166 6.07196e-21)
(0.995285 -0.00138515 2.4638e-22)
(0.996406 -0.00157528 -1.41189e-22)
(1.00965 -0.00329472 2.21639e-21)
(1.0039 -0.00156595 3.94872e-22)
(1.00057 -0.0119163 -2.00849e-22)
(1.0856 0.00368507 1.09382e-20)
(0.986798 -0.00331964 -1.50278e-21)
(0.985475 0.0640223 -9.6984e-21)
(1.01095 -0.0181191 -7.54028e-22)
(1.00016 -9.87224e-05 5.59424e-23)
(0.979184 -0.0506422 4.23212e-22)
(0.989176 -0.0282151 -4.83445e-21)
(1.11284 0.031467 8.04057e-21)
(0.997999 -0.0044345 -3.00187e-22)
(0.99406 -0.0373091 -1.52412e-21)
(0.999986 -4.79115e-06 2.89175e-24)
(0.956827 0.051673 -3.71017e-20)
(1.01038 -0.00137589 3.97053e-21)
(1.00005 -0.000167509 -1.90777e-23)
(0.947187 0.0136619 -4.88616e-20)
(0.98998 -0.0321508 3.00438e-21)
(0.999986 -5.29538e-06 4.83317e-25)
(1.001 -0.000890578 7.70651e-23)
(0.97948 -0.0529477 -2.48903e-21)
(1.02951 -0.0239991 1.27743e-21)
(1.03313 -0.00594674 5.27211e-21)
(0.999995 -1.87315e-06 5.5733e-25)
(0.994281 -0.000479503 9.48937e-22)
(1.01867 -0.0341725 -9.07246e-23)
(0.996287 -0.0012252 1.41478e-21)
(0.999692 -2.99835e-05 -3.58677e-22)
(0.994182 -0.00304714 2.25765e-23)
(0.982952 0.0231684 4.48152e-21)
(0.995127 -0.00931998 -1.3005e-21)
(0.992325 -0.00898703 3.75059e-22)
(1.0018 0.0240311 -1.58784e-20)
(0.998096 -0.00164866 3.35848e-22)
(0.98023 0.0724185 -3.5271e-21)
(0.999985 -5.31897e-06 -1.49835e-24)
(0.993187 -0.0210229 9.27748e-22)
(0.990715 -0.0620826 9.24944e-21)
(0.994845 -0.0374983 2.55647e-21)
(1.15321 -0.00369947 -2.00608e-21)
(0.999216 -0.00405447 3.97232e-22)
(1.00727 -0.0171567 4.79228e-22)
(0.999974 -0.00173329 5.72724e-24)
(0.988089 -0.0165628 -2.89016e-21)
(1.03098 -0.0263041 5.93456e-22)
(0.999979 -8.69453e-06 9.04322e-24)
(1.00001 1.04192e-06 -7.56057e-25)
(0.995542 -0.000305334 6.50623e-22)
(0.985818 0.0449486 2.9438e-20)
(1.00945 -0.013965 2.69585e-21)
(1.00181 -0.00254347 -3.26387e-22)
(0.94995 -0.027064 7.37382e-21)
(1 -5.29746e-06 -9.97941e-26)
(1.00068 -0.000845988 -2.98073e-22)
(0.999971 -0.000487828 -4.13838e-24)
(1.01051 -0.0132888 2.82562e-21)
(0.988065 -0.0121802 5.25713e-22)
(0.99974 -0.000202564 4.51045e-23)
(0.995338 -0.00832028 4.71407e-22)
(0.991165 -0.00529897 -5.54839e-22)
(1.0007 -0.000115426 -2.42817e-23)
(0.999985 -5.75043e-06 -9.4314e-25)
(1.14534 0.0262107 1.20039e-20)
(0.999756 -0.00129556 1.25103e-22)
(1.0513 0.000657117 5.37673e-21)
(1.00365 0.0714732 7.72617e-20)
(1.02397 0.0634661 -1.98652e-20)
(1.0009 -0.0151897 -7.52257e-22)
(1.00377 -0.00138371 -1.31175e-22)
(1.01251 -0.00129647 4.28756e-21)
(1 -0.00177916 -6.51933e-24)
(0.998526 -0.00768733 4.63162e-22)
(1 -9.43187e-06 -3.87251e-26)
(0.990616 0.0654238 -1.56442e-21)
(0.991435 -0.0121203 7.17015e-22)
(1.00933 -0.0029636 -1.58323e-21)
(0.987124 -0.00344566 3.13814e-21)
(1.00282 -0.00925596 1.7275e-23)
(0.998123 -0.00436838 6.60371e-22)
(0.999929 -0.000144255 4.6076e-24)
(1.00001 -1.03127e-09 -4.00113e-24)
(0.996795 -0.00340238 -7.53455e-22)
(1.03824 -0.00464865 -3.00148e-21)
(1.00375 0.0312121 2.45634e-21)
(1.00084 -0.000355389 -3.60323e-22)
(0.982693 -0.0468182 -2.26512e-21)
(0.981974 -0.0174221 -1.02614e-21)
(0.994411 -0.000389022 -3.57359e-21)
(1.12603 0.0841 -1.25831e-20)
(0.999098 -0.000709138 -1.67372e-22)
(1.00286 -0.0105199 -6.54226e-22)
(0.996116 -0.00207215 7.16555e-22)
(0.999934 -0.000138725 3.97296e-24)
(0.979858 -0.0554531 2.79578e-21)
(1.00186 0.0330711 -2.3784e-20)
(1.0179 0.0259851 -2.10458e-20)
(0.983593 -0.0116324 -4.92381e-22)
(1.00095 0.032398 -1.09416e-21)
(1.00005 -0.000155956 3.72818e-23)
(1.00001 3.5997e-07 1.26749e-24)
(1.11195 0.0928069 -1.10413e-20)
(1.117 0.0334044 -8.85862e-21)
(0.948514 0.0525219 -1.84914e-21)
(1.00497 -0.0636746 6.05556e-21)
(0.983154 -0.00120607 -2.29409e-21)
(1.10517 0.00978032 -1.01279e-20)
(1.00081 -0.00038347 4.07953e-22)
(0.99598 -0.00280337 4.10798e-22)
(1.00031 -0.000133462 -2.42792e-23)
(0.992341 -0.000552192 -7.7043e-22)
(0.991637 -0.00989296 -1.0579e-21)
(0.999996 -2.17199e-05 -8.56384e-25)
(0.999395 -2.4083e-05 6.54867e-23)
(0.99545 0.0706785 -7.12219e-20)
(0.999906 -0.000508278 4.42006e-23)
(0.961452 0.0474856 4.70206e-20)
(1 -8.37438e-06 2.65474e-26)
(1.15644 0.0568193 1.33694e-20)
(1.0517 -0.000525759 -1.1203e-20)
(1.08459 0.00545192 -1.20645e-20)
(1.00072 -0.00037734 2.45595e-23)
(1.00012 -2.89125e-05 4.51485e-23)
(0.988199 0.042124 -4.48992e-20)
(1.05278 0.00274729 2.21154e-20)
(0.990374 -0.0634052 -8.37969e-21)
(1.01321 0.0249317 9.44227e-21)
(0.998947 -0.0155087 3.68694e-22)
(0.990355 -0.00403854 -8.07302e-22)
(0.997145 -0.000171247 -4.29772e-22)
(1.05314 0.106142 -4.70817e-20)
(0.982927 -0.0208665 3.69536e-21)
(1.02488 -0.0223939 -2.45737e-21)
(0.995529 -0.00826135 -2.69891e-22)
(1 -5.20685e-06 3.13306e-27)
(0.999107 -0.000665176 -1.41895e-22)
(1.00418 -0.00421947 7.01211e-22)
(0.986659 -0.00612096 4.04229e-21)
(0.984043 -0.0117175 7.33926e-22)
(0.968364 -0.0323751 -1.1016e-21)
(0.986526 -0.0065076 -3.0655e-21)
(1.01304 0.00181075 1.77999e-21)
(0.998524 -9.92207e-05 8.82028e-24)
(0.954491 -0.0308686 3.74455e-21)
(0.989841 -0.000683249 -1.11169e-21)
(1.00002 -0.000151075 6.60413e-24)
(0.991167 -0.000544684 -7.69632e-22)
(1.02563 -0.0243612 -4.37551e-21)
(1.01243 0.00196137 -9.84529e-21)
(0.981366 -0.0210563 -9.26316e-22)
(0.999994 -8.93116e-07 -9.66745e-27)
(0.987492 -0.012467 7.84058e-22)
(1.00176 -0.0107554 -7.424e-24)
(1.00097 -0.00083563 9.86896e-23)
(1.13052 -0.0928045 -2.71394e-21)
(1.00113 0.0331579 -5.45953e-20)
(1.00064 -0.000839223 2.76707e-22)
(0.991317 -0.000403687 1.13389e-23)
(1.087 -0.0487152 -2.74006e-22)
(1.01786 0.000416137 1.59346e-20)
(0.991044 0.01957 -4.82779e-21)
(1.00131 -0.00178622 8.80124e-23)
(1.00082 -0.0158517 2.38824e-22)
(1.04488 0.0807001 -6.93821e-21)
(1.01068 0.0157672 -4.93796e-20)
(0.993977 -0.0209038 2.43169e-21)
(1.00338 -0.00248264 -1.22983e-22)
(0.964922 -0.038674 5.01423e-21)
(0.999997 -1.55535e-06 1.80219e-25)
(0.963166 -0.00167114 -3.88281e-21)
(1.00005 -4.91217e-05 6.6472e-24)
(1.08514 -0.0503708 2.30555e-21)
(0.99998 -8.38963e-07 -1.01862e-24)
(1.00002 -4.21458e-05 4.53083e-24)
(1.0006 -0.0177116 -2.81316e-22)
(1.13453 0.06036 -1.10276e-20)
(1.00923 0.0900801 3.31332e-20)
(1.02815 -0.0247037 -7.04677e-21)
(1.01026 -0.0106734 1.34445e-21)
(0.999999 -7.99286e-07 -4.02238e-26)
(0.995652 -0.00333528 -1.37848e-21)
(1.00006 -1.55597e-05 -4.83167e-24)
(0.99778 -0.00176973 4.79702e-22)
(1.00002 -3.91603e-05 -3.53503e-24)
(1.03317 -0.0047629 -1.64759e-20)
(0.999673 -0.00033724 -1.7706e-22)
(1.03132 0.0366814 2.15762e-20)
(0.999919 -0.00015636 -3.18912e-23)
(0.990724 -0.00394394 -1.37343e-21)
(0.969189 -0.000868563 8.87727e-21)
(0.996996 -0.000207648 -5.54842e-22)
(0.987124 0.0246336 4.64185e-20)
(0.987468 -0.000572039 2.12244e-21)
(1.02895 -0.0786941 3.74094e-22)
(0.996089 -0.00293579 2.12188e-21)
(1.01737 -0.00154245 -3.46232e-21)
(0.980667 -0.0477025 9.72387e-21)
(1.01352 -0.00108498 -1.18381e-20)
(1.03595 -0.0496846 -6.98773e-23)
(0.999991 -5.72158e-07 1.17017e-25)
(0.99994 -0.0150075 2.75202e-22)
(0.997195 -0.000225358 6.74258e-23)
(1.00017 -6.84352e-05 3.34515e-23)
(1.00006 -1.28206e-05 8.21706e-24)
(1.05515 0.10791 5.12538e-20)
(0.996524 -0.00158127 1.1914e-21)
(1.01781 0.00120195 1.80697e-20)
(1.00127 -0.016171 2.79205e-22)
(1.0006 -0.000225926 9.42098e-23)
(1.01628 -0.00503687 -1.31915e-20)
(1.00011 -2.46968e-05 -1.01113e-22)
(0.999987 -3.89235e-06 -1.37203e-25)
(0.96364 -0.00221822 3.00301e-21)
(0.99754 -0.000897312 5.39247e-22)
(1.00002 -3.8427e-05 5.05715e-24)
(1.0301 0.063837 1.53797e-20)
(0.929523 0.0419743 -6.43693e-20)
(0.999858 -0.00016598 8.05162e-23)
(0.970614 -0.00175207 -2.44911e-21)
(1.00001 6.73398e-07 8.93884e-25)
(0.96669 0.0635569 -4.42211e-20)
(1.15982 0.0599741 1.57758e-20)
(0.980056 -0.0380212 -8.29075e-21)
(1.00003 -0.000399308 -1.08858e-23)
(1.02391 -0.0216666 5.49735e-21)
(1.02043 -0.00085306 -4.7451e-21)
(1.02098 0.000677717 1.35923e-21)
(1.03395 -0.00632041 -2.08812e-21)
(0.999771 -0.00138935 -2.13764e-23)
(0.999904 -0.000611911 3.64649e-23)
(0.990086 -0.0120941 -2.31294e-21)
(1 -4.75057e-06 -6.31572e-25)
(1.00001 -4.2512e-07 -2.2084e-25)
(0.982252 -0.0205261 -2.19172e-21)
(1.00188 -0.0479654 -3.41804e-21)
(0.969328 -0.0317158 -2.87544e-22)
(0.940772 0.0594601 -1.19896e-21)
(1.00013 -1.65759e-05 -4.16238e-23)
(1.01889 -0.0585743 -5.59134e-21)
(1.00523 -0.00377106 -1.20474e-21)
(0.999988 -3.87929e-06 1.54655e-24)
(0.999283 -0.00287431 -3.43348e-22)
(1.00003 -0.00033857 -7.04515e-24)
(0.996974 -0.00955249 7.72906e-22)
(1.00003 -6.7041e-06 5.02433e-24)
(1.03718 -0.0484191 -7.60535e-23)
(1.01333 -0.00133616 1.14894e-20)
(0.98117 0.0711034 9.95316e-21)
(1.01686 -0.00145822 1.29932e-20)
(0.999815 -0.00015903 6.50624e-23)
(1.00031 -0.000285672 -9.55991e-23)
(1.15257 -0.0395245 2.36504e-21)
(1.01763 0.00109588 -1.45399e-20)
(0.997826 -0.000291044 4.81152e-22)
(1.00001 -1.2332e-06 1.88367e-24)
(1.03999 0.0588654 -2.61468e-20)
(1.10431 -0.130031 -2.05716e-21)
(1.00487 -0.062178 -2.63029e-21)
(0.98956 -0.00058149 -5.92977e-22)
(0.99999 -1.08047e-05 2.80219e-24)
(0.999818 -0.000149103 -3.80316e-23)
(1.11071 -0.131742 5.96005e-21)
(1.001 -0.0379711 -9.57611e-22)
(1.02317 0.0193994 3.01318e-21)
(0.985381 0.0617538 4.18105e-20)
(1.02752 -0.0766338 3.09632e-21)
(0.999133 -5.70161e-05 -8.66935e-23)
(0.999989 -5.54308e-06 -3.3809e-24)
(0.973841 -0.0411397 8.2381e-21)
(0.988442 -0.0828581 -9.6036e-21)
(0.999863 -0.000171142 4.3399e-23)
(1.00776 -0.0167248 1.59176e-21)
(0.994187 -0.0203187 -4.13825e-22)
(0.996708 -0.00169279 4.69372e-22)
(0.99789 0.0278881 -3.76455e-20)
(0.999108 -0.000408897 3.07201e-22)
(1.04263 -0.0332216 1.39839e-21)
(1.09092 0.105404 -2.49914e-20)
(0.99449 -0.00247048 -1.36269e-21)
(0.947403 0.049513 -6.63715e-21)
(0.951542 0.0235475 2.05493e-20)
(0.999983 -3.60845e-05 -1.0789e-23)
(0.999979 -0.000534276 -1.58416e-24)
(0.987629 -0.000754445 -1.36144e-21)
(1.00913 -0.00349241 -2.85783e-21)
(0.971894 -0.00160648 5.06419e-21)
(1.00366 -0.00306813 -1.26551e-21)
(0.994693 -0.0024763 1.2768e-21)
(0.999608 -0.00036798 -1.34511e-22)
(0.971613 0.0639056 -7.91048e-21)
(1.03179 0.0353702 -3.36582e-20)
(1.00161 -0.00172459 2.25212e-22)
(0.906491 0.0267932 -1.25083e-20)
(1.00001 6.9605e-07 -1.30474e-24)
(1.01659 0.00418642 -2.46826e-20)
(1.00177 -0.0785634 6.22982e-21)
(1.02081 -0.0582725 2.15164e-21)
(1.00006 -0.000150924 -1.92435e-24)
(0.970484 -0.000901883 4.17687e-21)
(1.01458 0.00338938 1.37762e-20)
(1.00897 -0.00384707 2.36939e-21)
(1.02012 -0.000462262 6.53019e-21)
(0.999701 -2.29983e-05 2.52761e-22)
(0.999667 -0.000361548 1.60489e-22)
(1.02093 -0.0328126 -3.64872e-22)
(0.997578 -0.000971584 -1.53967e-21)
(0.990983 -0.00904147 -2.49699e-21)
(0.999374 -0.00261404 2.03432e-23)
(1.04797 0.0300791 1.86557e-20)
(0.999837 -0.0156756 -1.96324e-22)
(0.996479 -0.00361277 2.26401e-23)
(0.947023 -0.022989 -1.10235e-20)
(0.99416 0.0519653 4.8936e-21)
(1.0822 -0.010605 -9.78155e-21)
(1.01578 -0.00478143 1.06063e-20)
(0.999729 -0.000130327 4.80908e-23)
(0.99965 -0.000234746 2.1653e-23)
(0.987516 -0.0163946 5.8586e-21)
(1.0007 -0.000914189 -2.21408e-22)
(0.998189 -0.000511117 -8.73032e-23)
(0.999991 -1.03537e-05 -1.02227e-24)
(0.999788 -0.00141496 4.88493e-24)
(1.01423 0.00316916 -5.34226e-21)
(0.987744 0.0440382 -4.29804e-20)
(0.999919 -1.12157e-05 1.01058e-23)
(1.06774 0.103249 -4.56219e-20)
(0.999996 -2.7456e-05 3.71413e-25)
(0.997712 -0.00209269 6.51882e-22)
(0.999996 -6.68009e-05 8.41525e-25)
(1.00368 -0.00264072 -5.59964e-22)
(1.14865 0.0245798 -8.87609e-21)
(0.999977 -2.89467e-05 9.98636e-25)
(0.999974 -3.19043e-05 6.86396e-24)
(0.960183 -0.036644 -4.70358e-21)
(1 -4.84206e-06 -1.88193e-26)
(1.03626 -0.00570554 1.7635e-20)
(0.992588 -0.0325302 4.17877e-21)
(0.99998 -0.000467499 3.51317e-24)
(1.04212 0.0475598 -2.04542e-20)
(0.999999 -2.06048e-05 1.50271e-26)
(0.999736 -2.62892e-05 2.2137e-22)
(0.999945 -2.50466e-05 3.92598e-25)
(0.996613 -0.00363265 -3.87925e-22)
(0.999759 -0.00112216 -6.19853e-23)
(0.995625 -0.000224597 -4.37119e-22)
(1.01332 -0.0947702 -7.29641e-22)
(0.999786 -0.00109289 4.08644e-23)
(1.00297 -0.002493 -4.35992e-22)
(0.999987 -3.04279e-06 -5.9448e-25)
(1.01048 0.0886434 -6.46709e-20)
(1.04159 -0.0343137 3.56464e-21)
(1.08447 -0.0104538 -1.44578e-21)
(0.973991 -0.00479677 5.4812e-21)
(0.983457 -0.00334329 -9.93212e-22)
(0.999347 -0.00281487 5.65165e-22)
(1.00206 -0.00190341 6.10443e-22)
(1.0241 0.0421126 8.71684e-21)
(0.988722 -0.0290915 6.58457e-22)
(1.05741 0.0744328 1.05095e-20)
(0.967357 -0.0110901 -9.90723e-21)
(0.997629 -0.00202073 -6.15408e-22)
(0.999995 -1.96418e-06 -1.03727e-24)
(0.995981 -0.00208046 -8.64192e-22)
(0.998762 0.0833694 1.56728e-20)
(1.03648 0.0510779 -4.69721e-21)
(0.990262 -0.0442162 3.37739e-21)
(0.955018 -0.00480914 2.33206e-21)
(1.0135 0.084991 1.77946e-20)
(0.993977 -0.000438443 1.13816e-21)
(0.996729 -0.0720643 4.89617e-22)
(0.999997 -6.26341e-05 6.95518e-25)
(0.991748 -0.032773 5.26614e-21)
(0.999436 -0.000164286 -3.24391e-22)
(0.913392 0.0454084 -3.60853e-20)
(0.98952 -0.0589396 -7.2413e-21)
(0.999947 -2.2039e-05 1.82021e-23)
(0.952165 -0.015843 -6.29016e-22)
(0.988792 -0.0308835 3.18738e-22)
(1.0157 0.0440734 2.98867e-20)
(0.998213 -0.000556529 -8.27897e-22)
(0.987203 -0.0298963 -1.96777e-21)
(0.998397 -0.00788087 -6.40481e-22)
(1.00063 -0.0170872 -5.95765e-22)
(0.999134 -0.000413361 -2.09948e-22)
(1.01522 0.0431712 -3.62798e-20)
(1.05072 -0.131717 5.38535e-21)
(0.98745 -0.0129726 -1.7433e-21)
(0.990455 -0.0112231 3.60514e-23)
(0.990805 -0.00371768 -5.49829e-22)
(1.00367 -0.00156169 -5.10772e-22)
(1.01468 0.0830751 7.06928e-20)
(0.987354 -0.0105629 8.01927e-22)
(1.00944 0.0231719 2.04982e-20)
(1.00189 -0.0015472 4.65171e-22)
(1.15537 0.00056976 -1.87779e-22)
(0.959608 0.0509573 6.74045e-21)
(0.99386 -0.000347358 -3.91551e-21)
(0.999852 -2.83718e-05 4.28203e-23)
(1.02265 0.054881 9.21519e-21)
(0.994195 0.0677274 -5.73865e-20)
(1.02015 -0.0316131 7.17856e-22)
(1.06157 -0.0221061 1.19901e-21)
(0.996812 -0.00997053 -8.43506e-22)
(0.974399 -0.0043259 -3.23973e-21)
(1.04377 0.0790183 2.84021e-20)
(0.972792 -0.0413916 1.49585e-21)
(0.999989 -1.0318e-05 3.69908e-24)
(0.994791 -8.1232e-05 -2.01599e-21)
(1.00002 -3.79405e-06 5.093e-24)
(0.996887 -0.000184542 1.50403e-21)
(0.999989 -1.21599e-05 -5.74645e-24)
(0.9988 -0.0110008 1.02758e-21)