/*--------------------------------*- C++ -*----------------------------------*\
  =========                 |
  \\      /  F ield         | OpenFOAM: The Open Source CFD Toolbox
   \\    /   O peration     | Website:  https://openfoam.org
    \\  /    A nd           | Version:  7
     \\/     M anipulation  |
\*---------------------------------------------------------------------------*/
FoamFile
{
    version     2.0;
    format      ascii;
    class       volVectorField;
    location    "23";
    object      U;
}
// * * * * * * * * * * * * * * * * * * * * * * * * * * * * * * * * * * * * * //

dimensions      [0 1 -1 0 0 0 0];

internalField   nonuniform List<vector> 
115545
(
(1.03796 -0.0525816 7.68331e-23)
(0.999994 4.53024e-07 -1.15948e-24)
(0.983899 -0.0135047 4.22444e-22)
(0.995979 -0.00437593 -7.60786e-23)
(1.00202 -0.00480727 1.16693e-23)
(0.998923 -0.00161048 2.3684e-23)
(1.02681 0.140783 -1.46526e-20)
(1.06441 -0.0984601 3.98347e-22)
(0.999644 -0.000540645 -1.13655e-24)
(0.999994 4.09691e-07 2.43218e-25)
(0.999728 -2.98986e-05 7.94653e-24)
(1.00017 -0.000146047 4.4339e-24)
(0.998454 -0.00526 -2.68127e-23)
(0.900484 -0.00701724 -1.53777e-21)
(0.999642 -0.000554053 1.06411e-23)
(0.913763 -0.0314919 -3.52525e-21)
(0.999849 -0.000419017 4.371e-24)
(0.999567 -0.000298292 -1.2876e-23)
(0.989838 0.14255 1.84281e-20)
(1.00208 -0.00486592 5.74108e-23)
(1.07074 -0.0985538 3.54353e-21)
(0.993417 -0.000198548 -3.60563e-23)
(0.999492 -0.000396451 -1.25741e-23)
(0.993825 -0.00629783 -5.08368e-23)
(0.881749 0.0430146 1.82716e-20)
(1.1312 0.0255855 4.44108e-21)
(1.26021 0.00817494 6.31237e-22)
(1.0205 -0.00485707 1.50632e-21)
(0.999981 -5.78892e-05 6.8034e-25)
(1.05853 0.242697 -1.58405e-20)
(0.999858 -5.82817e-05 5.35682e-24)
(1.05646 0.0119529 1.32746e-21)
(1.00844 -0.0126471 -4.13072e-23)
(0.983325 -0.00708401 -3.92345e-22)
(0.866621 0.119169 8.31695e-21)
(0.997733 -0.00136017 1.46527e-22)
(1.03645 0.154699 2.50086e-21)
(0.999848 -0.00042869 -1.8364e-24)
(1.25973 -0.0916213 4.33641e-22)
(1.03098 0.0779655 2.30492e-20)
(1.05707 0.0125631 -2.58288e-21)
(0.999561 -0.000308818 -2.54045e-24)
(0.979913 -0.0251244 -7.9055e-22)
(0.997739 -0.00131789 -1.04175e-22)
(0.960647 -0.0700486 -1.36782e-22)
(0.901105 -0.0063046 1.60211e-21)
(1.00705 -0.0155055 2.29266e-22)
(1.00641 -0.000776012 1.34426e-22)
(1.00018 -0.00772508 -4.94843e-24)
(1.00016 -1.59246e-05 -2.12862e-23)
(1 -9.97238e-08 -1.41936e-25)
(0.995908 -0.000185605 1.15294e-22)
(1.04194 0.0137378 4.35562e-21)
(0.999994 -2.59775e-07 -1.91738e-25)
(0.997902 -0.00916088 1.09553e-22)
(1.04151 0.0140962 -1.13224e-21)
(1.03363 0.00078644 3.11718e-21)
(0.953305 -0.0492309 -4.29544e-22)
(1.22231 0.0195885 3.09384e-22)
(0.987832 -0.0166056 9.13361e-22)
(0.999918 -0.000238836 -1.80543e-24)
(0.99373 -0.00666429 4.37905e-23)
(0.999093 -5.27233e-05 -2.29525e-23)
(0.978667 -0.0118688 1.15231e-22)
(0.999935 -6.26154e-05 -4.47976e-24)
(1.00111 -9.28626e-05 -6.57136e-24)
(0.99871 -0.004814 1.11696e-22)
(1.0438 -0.00402457 2.60801e-21)
(1.27527 0.0200058 -1.72804e-21)
(1.03426 0.000356636 1.28102e-21)
(1.09591 0.135872 5.9426e-21)
(1.23354 0.0618511 -1.78021e-21)
(1.031 0.076743 1.02114e-20)
(0.947383 -0.00462314 -2.94497e-22)
(1.02686 -0.0673479 -3.0557e-22)
(0.965896 -0.011577 -1.58429e-22)
(1.16467 -0.0245948 -1.82333e-22)
(0.999163 -0.00280314 -4.18335e-23)
(0.998443 0.0902506 -5.97628e-21)
(1.12638 -0.0056001 5.87468e-23)
(1.12708 -0.00389441 6.52412e-22)
(0.999967 -1.57182e-06 1.52878e-25)
(0.977896 -0.154597 2.1657e-21)
(1.01962 -0.00112311 -6.76952e-22)
(0.99593 -0.00117204 7.09601e-23)
(1.00016 -0.0001415 4.41889e-24)
(0.978546 -0.0187332 -5.32335e-22)
(0.999993 -1.65751e-05 -7.68705e-26)
(0.962396 -0.0123116 -4.60824e-24)
(0.999991 -3.12243e-05 1.4684e-25)
(1.24509 -0.0554712 3.23251e-22)
(0.986861 -0.00703672 2.44366e-22)
(0.999979 -5.78106e-05 -9.28464e-25)
(0.998297 -0.00120365 1.08998e-22)
(0.999461 -0.000374556 -2.14462e-23)
(1.00038 -5.93183e-05 7.65702e-24)
(0.999567 -2.06066e-05 -4.13089e-24)
(0.978716 -0.153465 9.8993e-23)
(1.18325 -0.0831484 3.72016e-22)
(0.962587 -0.0119554 -2.50394e-22)
(0.999916 -0.000244079 1.95952e-24)
(1.02518 -0.00833375 -1.55235e-21)
(1.00307 -0.0141459 -2.75823e-23)
(1.00297 -0.000198049 -5.53858e-25)
(1.0939 0.134028 3.99994e-21)
(1.01685 -0.10066 1.56191e-21)
(1.01704 0.0818934 -6.84142e-21)
(0.976272 -0.0955187 1.48063e-21)
(0.994037 -0.0335518 1.43604e-22)
(0.99998 -6.97369e-05 -8.6876e-26)
(1.14521 0.00303899 -1.32548e-21)
(0.999573 -2.70594e-05 1.63681e-24)
(1.16574 -0.0228439 1.21589e-22)
(0.995491 -0.0237236 -6.29352e-22)
(0.706218 0.104788 -3.84638e-21)
(0.999774 -0.0139135 -2.60798e-22)
(0.999724 -2.53043e-05 -1.47387e-23)
(1.11412 0.130099 -7.1632e-21)
(1.00001 -1.52946e-05 4.53345e-25)
(1.23329 0.0596381 1.33098e-21)
(1.1145 0.133031 1.01827e-20)
(0.912869 -0.0321694 1.45347e-21)
(0.984443 -0.0142197 3.64873e-22)
(1.19506 0.00652697 3.2881e-22)
(0.999994 -1.17158e-06 -2.31845e-25)
(1.05779 0.239773 1.82405e-20)
(0.99377 -0.00684192 -4.68183e-23)
(0.860831 0.261595 -1.07718e-20)
(0.997898 -0.000122685 2.12474e-24)
(1.03053 -0.000705114 -1.98065e-21)
(1.05502 -0.0618767 3.49602e-23)
(1.00025 -3.7229e-05 6.57622e-24)
(1.15191 0.132892 -3.93026e-21)
(1.00016 -0.000133781 -1.33812e-23)
(1.00002 -1.28276e-05 2.25344e-25)
(0.992873 0.16568 2.92738e-20)
(0.898936 0.113576 -4.96527e-21)
(1.00843 -0.0128834 -4.84913e-23)
(0.998039 -0.00922771 -1.55063e-22)
(0.993799 -0.00658192 4.3409e-22)
(1.25295 0.189301 2.6011e-21)
(1.00013 -0.0132647 -9.06902e-23)
(1.00005 -4.77891e-06 -8.23298e-24)
(1.0511 0.0192439 5.6378e-22)
(1.0555 -0.0603003 -2.30676e-22)
(1 -1.89048e-07 1.40899e-25)
(1.01361 -0.0178595 -5.06247e-25)
(0.993681 -0.00693382 -1.40019e-22)
(1.04343 -0.00365269 -4.03158e-21)
(1.00098 -0.00237274 -4.5638e-23)
(1.01546 -0.099888 -1.18111e-21)
(0.959915 -0.0701283 9.70525e-22)
(0.98694 -0.00686211 1.56532e-22)
(0.999994 -8.868e-07 1.06958e-25)
(0.995966 -0.000175128 6.70219e-23)
(1.0095 -0.0101077 3.24007e-22)
(0.99998 -7.15565e-05 6.20871e-26)
(1.12284 -0.0283896 1.10843e-21)
(0.967611 -0.000832155 -1.60043e-23)
(1.02334 -0.138216 -9.26972e-22)
(0.9663 -0.0118814 8.61976e-22)
(1.01345 -0.0175757 3.37072e-22)
(0.99911 -4.89731e-05 -1.68964e-23)
(1.00162 -0.0741025 1.36122e-22)
(0.992661 -0.020261 -3.01798e-22)
(0.998924 -0.000635312 -6.91822e-23)
(1.03299 -0.0149839 7.7695e-22)
(0.987929 -0.0405688 -7.51395e-23)
(1.12464 -0.0287471 -1.47019e-21)
(0.991612 -0.0202883 3.6931e-22)
(0.989074 -0.0177337 6.59929e-22)
(1.00708 -0.0152386 -1.28448e-22)
(1.25354 -0.0583449 2.05225e-21)
(0.905005 -0.0254974 -2.51696e-21)
(0.999492 -0.0636131 8.55825e-23)
(1.03721 -0.00375561 -9.13444e-23)
(0.905115 -0.0239994 5.57418e-22)
(0.997458 -0.00317204 8.60185e-23)
(1.01004 -0.0182452 5.91092e-22)
(1.00014 -0.00759949 -1.26384e-23)
(1.01617 -0.0121154 1.04783e-22)
(1.02757 -0.0667422 -3.92257e-22)
(0.978888 0.150932 -8.20661e-21)
(1.04599 0.0187616 2.5143e-21)
(1.01575 0.0813199 1.61587e-20)
(0.999567 -0.000994341 -1.43553e-24)
(0.995437 -0.00368986 9.26331e-23)
(1.00004 0.000799121 -2.95598e-21)
(1.03427 -0.0266224 1.47396e-21)
(1.24389 -0.0567091 -1.66751e-21)
(0.99754 -0.00317185 2.66476e-23)
(1.00023 -0.0125968 6.34438e-23)
(0.990128 0.0739055 -1.24645e-20)
(0.973027 -0.0247588 1.5778e-21)
(1.12944 0.0257788 -5.93561e-21)
(1.00173 -0.122985 -1.0703e-21)
(0.904295 -0.0233902 -1.68694e-22)
(0.987832 -0.000317492 -4.21679e-22)
(0.969067 -0.0202456 -1.15273e-21)
(1.00839 -0.0457199 -3.17026e-22)
(1.03468 0.0192109 3.40831e-21)
(1.00678 0.107606 9.83214e-21)
(1.01853 -0.0118562 3.02628e-22)
(0.99999 -2.64484e-05 -5.34271e-25)
(0.995592 -0.00316221 7.79949e-24)
(0.960777 -0.0228325 -6.07791e-22)
(0.999206 -0.00109898 -3.49974e-23)
(0.999936 -6.26548e-05 3.45544e-24)
(1.034 -0.00796696 -4.86297e-22)
(1.02439 -0.0790902 2.57494e-21)
(0.904374 -0.0219354 1.39338e-21)
(1.01872 0.0809375 -4.18756e-21)
(0.886487 0.0453553 -1.35418e-20)
(0.999991 -3.14245e-05 1.53692e-26)
(1.00029 -0.0345771 -7.05569e-22)
(0.972773 -0.0251077 -7.83336e-22)
(1.08909 -0.0274736 9.65115e-22)
(1.00752 -0.0148437 3.14277e-22)
(0.900643 -0.00484689 9.33913e-22)
(0.999832 -0.000276976 1.18061e-24)
(0.975507 -0.0496406 -3.96844e-23)
(0.976833 -0.0235605 4.94109e-23)
(1.00004 -0.00974153 1.0355e-23)
(0.966271 -0.00107281 4.96524e-22)
(0.999994 -2.9026e-07 2.75044e-25)
(0.938616 0.14893 1.27531e-20)
(1.00636 -0.0225347 -2.59489e-23)
(0.967437 -0.0177317 -1.18079e-21)
(1.0021 -0.121315 -5.96859e-22)
(0.948331 0.0678215 7.15588e-21)
(1.02291 -0.00583715 -1.5422e-22)
(0.963813 -0.054051 1.64816e-22)
(1.23773 0.191872 -2.51781e-21)
(0.981489 -0.0391861 -7.10826e-22)
(1.05859 -0.0639554 1.82396e-22)
(1.0343 0.0194799 5.15255e-21)
(1.00044 -4.37839e-05 8.21782e-24)
(1.00104 -0.0114245 -1.47052e-23)
(0.984085 -0.04255 2.59122e-22)
(0.995819 -0.000273348 -1.49874e-22)
(1.22439 -0.0531183 3.03893e-21)
(1.02396 -0.0480975 1.2232e-23)
(1.02455 -0.139632 1.21999e-21)
(1.18447 -0.0851433 -1.88446e-21)
(0.997826 -0.000106218 -1.02798e-22)
(1.00098 -0.00275092 -4.20276e-24)
(1.0513 0.00321346 3.36955e-21)
(0.963695 -0.00282915 -1.00944e-21)
(0.988459 -0.0406382 -2.31234e-23)
(0.9253 -0.0532034 -7.62653e-22)
(0.998564 0.0245982 -6.82829e-21)
(0.998463 -0.00165877 -8.12025e-24)
(1.02919 0.00202079 -1.56144e-20)
(1.00006 -0.0032394 -1.73641e-24)
(0.853162 0.244982 -1.96324e-20)
(1.01647 -0.0119597 -6.27497e-22)
(1.18337 -0.022896 2.6636e-22)
(1.02051 -0.00113556 6.36191e-22)
(1.00029 -6.45484e-06 4.37517e-23)
(1.06534 -0.100296 7.10567e-23)
(1.0166 -0.0115716 -1.51009e-21)
(0.901288 -0.00411694 -5.72707e-22)
(1.04661 0.0195915 -3.55596e-21)
(1.25833 -0.104904 -1.03177e-21)
(0.993737 -0.0338852 1.13967e-22)
(0.996073 -0.00441008 2.63347e-22)
(1.19274 0.00640931 8.28333e-22)
(0.997919 -0.000283495 1.1157e-22)
(1.16126 -0.0100037 -4.62688e-22)
(1.1671 -0.035718 -4.3162e-23)
(0.999943 -3.35138e-05 -7.26786e-26)
(1.03445 -0.0260236 -3.65596e-22)
(1.00026 -0.00744437 -1.55058e-23)
(1.0245 -0.048585 1.33955e-22)
(0.998617 -0.00402709 -1.02345e-22)
(0.977447 -0.0189435 -2.62215e-22)
(0.961447 -0.0657194 9.67531e-22)
(1.00037 -0.0634318 5.98833e-23)
(0.997837 -0.0122267 1.86426e-22)
(0.977411 -0.0953704 -1.24314e-21)
(1.0023 -0.0745885 -3.18636e-22)
(0.99786 -9.31461e-05 -7.71761e-23)
(1.00004 -0.00183549 1.60405e-24)
(0.961147 -0.022407 3.31173e-22)
(1.00003 -0.000867976 3.6763e-24)
(1.01296 -0.0090015 9.40469e-22)
(0.941458 0.146456 7.30934e-21)
(1.031 0.000830476 -7.73082e-21)
(0.982385 -0.159359 -1.26998e-21)
(1.2547 -0.0900197 4.11496e-22)
(0.9607 -0.0654279 2.14673e-22)
(0.999993 -2.21642e-05 -3.6317e-25)
(1.22154 0.00927702 1.08126e-22)
(1.01865 0.0796643 -4.03705e-21)
(0.999881 -0.000537996 1.2604e-24)
(1.0201 -0.0114512 -8.64959e-22)
(0.998416 -0.00187026 -6.869e-23)
(1.05957 0.0107386 2.0109e-21)
(1.00021 -0.00502636 7.57367e-25)
(1.16992 -0.0354185 -1.54539e-22)
(0.903067 -0.0178525 -7.46158e-22)
(0.99243 -0.0582673 2.83563e-22)
(1.26782 -0.0301316 -7.71104e-22)
(0.993072 -0.00916415 -2.62628e-22)
(0.97564 -0.0617888 -1.6234e-22)
(1.11018 -0.00481878 7.03273e-22)
(1.03068 -0.0584459 4.61088e-23)
(0.967617 -0.0174506 7.9594e-22)
(1.22524 -0.172155 -4.26742e-21)
(1.01017 -0.0180245 -5.88668e-24)
(0.996822 -0.00213228 -8.1947e-23)
(1.14789 0.168558 7.63434e-21)
(1.19241 0.182224 4.61421e-21)
(0.98462 -0.0425969 -7.27611e-22)
(0.998336 -0.00529939 1.36016e-22)
(1.0031 -0.0136398 1.32323e-23)
(0.988452 0.0797385 -1.96866e-20)
(1.00094 -0.0027862 3.20776e-23)
(0.993983 -0.00632715 2.23946e-22)
(1.2202 0.000564679 -2.00548e-23)
(1.09124 -0.0457417 1.02971e-22)
(0.999836 -0.00028397 -9.09807e-24)
(1.01824 -0.0120568 -2.35936e-22)
(0.711637 0.099536 6.80582e-21)
(1.11587 0.00469444 -3.22217e-21)
(0.967229 -0.00692377 -1.24671e-21)
(1.00972 -0.0100347 -4.72051e-22)
(1.05484 0.00775684 2.48096e-21)
(0.902229 -0.0171493 1.44623e-21)
(1.22241 0.0110303 -1.94926e-22)
(0.996839 -0.00221608 5.81624e-23)
(0.999992 -2.31653e-05 6.68311e-25)
(0.999593 -0.00105381 2.19925e-23)
(0.998441 -0.00184266 1.07641e-22)
(0.760727 0.0298215 4.44414e-21)
(0.996342 -0.00517186 -1.87767e-22)
(1.12878 -0.0213444 7.52472e-22)
(0.999948 -3.22542e-05 2.98547e-25)
(0.998902 -0.00158125 -3.18527e-24)
(0.995407 -0.00361356 -1.15354e-22)
(0.985834 -0.0147164 -3.45267e-22)
(1.08105 -0.000552232 -6.53095e-21)
(1.26184 0.00712208 -2.67148e-22)
(0.979193 -0.0111038 1.11922e-21)
(0.990408 -0.0113718 1.38498e-22)
(1.00197 -0.00360362 -1.87573e-23)
(0.997737 -0.0123765 -1.14486e-22)
(0.835076 0.257274 -3.47763e-22)
(0.96402 -0.0320382 2.05585e-21)
(0.998421 -0.0118617 4.9532e-23)
(1.14902 0.132376 2.01188e-21)
(1.02517 0.0303877 -4.71574e-21)
(1.01641 -0.0112897 1.36676e-21)
(0.996936 -0.00346103 1.55251e-22)
(1.00778 -0.0459797 -4.3506e-23)
(1.007 -0.0259654 -2.44425e-24)
(1.03722 -0.0516417 -1.34731e-22)
(1 -1.33541e-06 4.14635e-27)
(0.999263 -0.00176701 7.23958e-23)
(1.0418 -0.038645 -3.82196e-22)
(1.10777 0.0593557 5.62767e-21)
(0.975697 -0.0705293 3.36664e-22)
(1.03342 0.153573 4.66783e-21)
(0.751382 0.0596102 -5.05961e-21)
(1.1497 -0.0328933 -2.24111e-22)
(1 -1.21402e-06 3.19867e-26)
(0.983846 -0.000413959 -6.76109e-22)
(0.982503 -0.0264692 4.33019e-22)
(1.00018 -0.0096775 4.01475e-23)
(1 -2.15894e-06 -5.4859e-26)
(1.11424 -0.116477 -1.21216e-21)
(1.27845 0.102868 -6.7895e-22)
(0.964173 -0.00278511 -1.0027e-21)
(0.99936 -3.38027e-05 -2.33708e-23)
(1.16275 -0.00159303 -7.53572e-22)
(1.00474 -0.00651514 3.6318e-23)
(1.00294 -0.0138605 -1.78416e-23)
(1.00016 -1.16447e-05 1.89033e-23)
(0.998533 -0.00179428 -6.01529e-23)
(1.04522 -0.0386122 -8.16798e-23)
(0.963266 -0.0536532 1.22043e-21)
(0.995832 -0.0340624 -2.40332e-22)
(0.994645 -0.0230427 -9.36599e-22)
(1.04224 -0.0393315 -4.3055e-22)
(1.01296 -0.00878017 -4.91056e-22)
(0.999891 -7.88933e-06 -7.45004e-24)
(1.23497 0.188142 5.17427e-21)
(0.920975 -0.049125 1.67348e-22)
(1.00206 -0.00464238 -6.22338e-23)
(1.05 -0.0869301 -3.86693e-22)
(1.05368 0.0103649 -9.12083e-21)
(1.03035 0.0614537 -1.19823e-20)
(0.978172 -0.0186812 3.96708e-22)
(1.02064 -0.00518249 8.06472e-22)
(0.977156 -0.0235069 5.58985e-23)
(0.997913 -0.00238011 -1.51779e-22)
(1.22218 -0.172913 2.63156e-21)
(1.00066 -0.00130727 4.57602e-23)
(1.00023 -0.00732812 3.13014e-23)
(0.978433 -0.0136283 1.21689e-21)
(0.966568 -0.0248868 5.34621e-22)
(0.997864 -0.00256487 1.69755e-22)
(1.11125 0.258188 -4.04244e-21)
(1.03344 0.0742039 9.12633e-22)
(1.24207 -0.134093 1.17859e-21)
(1.11064 -0.0616134 3.68586e-22)
(1.00002 -1.37155e-05 -4.42191e-25)
(0.994574 -0.0131494 8.84232e-23)
(1.08564 -0.0310698 3.62359e-22)
(0.992031 -0.000312903 9.97055e-23)
(0.996692 -0.0267086 -4.50142e-22)
(0.996762 -0.00211065 2.05208e-23)
(1.00207 -0.0035925 -5.53905e-23)
(0.996235 -0.00451853 -1.82056e-22)
(0.995884 -0.00112891 -5.55108e-23)
(0.997805 -0.0120129 -6.12661e-23)
(1.00033 -0.00717585 -1.1719e-23)
(1.10503 -0.175822 4.88922e-22)
(1.00003 -2.41935e-05 4.28574e-24)
(1.01257 -0.00828849 -8.39629e-23)
(0.999993 5.58158e-08 -3.47996e-26)
(0.903581 -0.0213114 -1.90758e-21)
(1.00025 -0.000233724 1.11436e-23)
(1.03879 0.190799 1.08118e-20)
(1.18861 0.180794 -2.43371e-21)
(1.04719 0.0454161 -4.14836e-21)
(1.10901 -0.0607381 -2.66195e-22)
(1.04097 0.0522162 -4.17057e-22)
(1.03378 0.000731115 4.39448e-21)
(0.99809 -0.00416395 2.06007e-23)
(1.00191 -0.00187126 -6.89716e-23)
(0.999762 -0.000751144 1.89194e-25)
(0.994753 -0.0026982 1.29359e-22)
(0.968203 -0.0175864 4.71571e-22)
(0.993167 -0.00900506 -1.06492e-22)
(0.994355 -0.013213 2.37336e-22)
(1.03951 -0.0505064 6.17709e-23)
(1.00025 -0.000226764 -1.36309e-23)
(0.999829 -0.000101188 -2.13421e-24)
(1.00014 -0.000130866 -9.93202e-24)
(0.999119 -0.00275657 4.44825e-23)
(1.03079 -0.000832619 1.87424e-21)
(1.03563 -0.0500443 -6.13972e-23)
(0.978141 -0.0134849 -1.2991e-21)
(1.00002 -0.000845564 -7.49377e-24)
(1.12426 -0.108684 2.49974e-21)
(1.00095 -0.00265867 1.00524e-22)
(0.999849 -9.98147e-05 -8.45096e-24)
(1.03075 0.0601819 1.70814e-20)
(1.03739 -0.00404877 3.42728e-22)
(1.00231 0.0461203 2.90973e-20)
(1.00004 -3.3454e-05 -4.02712e-24)
(1.00006 -0.000638448 0)
(1.00201 -0.00203474 1.03077e-22)
(0.988735 -0.0414052 3.50976e-22)
(0.994412 -0.00760122 -1.15092e-22)
(1.05991 -0.124962 -8.97263e-22)
(0.964012 -0.00123308 6.68688e-22)
(1.08844 0.0388232 7.16754e-21)
(0.990549 -0.000239521 8.98997e-22)
(1.11499 0.256067 -2.11044e-21)
(1.00098 -0.0026193 -7.3223e-23)
(1.002 -0.0045776 7.28362e-23)
(1.00299 0.0710446 -7.76034e-21)
(1.14853 0.165509 -3.19669e-21)
(1.07169 -0.100193 -2.14715e-21)
(1.00294 -0.00255472 1.85338e-23)
(0.905834 -0.0260851 2.75396e-21)
(0.990457 -0.000301577 -5.16086e-22)
(1.00004 -3.57238e-05 1.72689e-24)
(1.01257 -0.00853477 9.90139e-23)
(0.922364 -0.0505141 -4.2266e-22)
(0.983713 -0.041947 -5.94063e-23)
(0.946872 -0.00463542 5.18217e-22)
(1.03998 -0.0515496 7.70747e-23)
(1.11432 0.00402555 5.2816e-21)
(0.999993 5.28544e-07 -3.37473e-26)
(1.00301 -0.00250574 -3.68282e-23)
(1.02503 -0.00868579 1.10999e-21)
(1.04906 -0.0226694 -1.34448e-21)
(1.02945 0.214493 -5.50552e-21)
(1 -5.76572e-07 5.06133e-28)
(0.999948 -3.36532e-05 1.03508e-25)
(1.00198 -0.000177765 -1.79532e-22)
(0.983784 -0.0413764 -7.18682e-22)
(0.999292 -0.00108482 2.98301e-23)
(0.999877 -0.000584004 3.74486e-24)
(1.12968 -0.02907 -7.32962e-22)
(0.837804 0.029303 -1.82054e-20)
(1.17095 -0.0331525 4.4985e-23)
(1.00456 0.0568962 -7.33044e-21)
(0.976969 -0.00429203 2.88803e-22)
(0.997789 0.023033 4.40347e-21)
(1.03117 0.012825 5.31223e-21)
(0.996298 -0.00456994 7.18971e-23)
(1.11171 -0.117686 1.69934e-21)
(0.920641 -0.0301278 2.36653e-21)
(0.995824 -0.0234599 4.48503e-22)
(1.00098 -0.0112686 1.15631e-23)
(0.996424 -0.00837682 1.42586e-22)
(0.998368 -0.00118467 3.30117e-23)
(0.999223 0.0675265 -3.45959e-20)
(0.982114 -0.0388823 -1.04838e-21)
(1.0604 0.180728 5.29701e-21)
(1.03154 -0.0589366 2.84487e-22)
(1.04736 0.04432 2.31009e-21)
(0.977993 -0.0112858 4.91604e-22)
(0.98612 -0.0147938 -8.99762e-22)
(1.22691 -0.0531243 2.32273e-22)
(1.03178 0.0196168 5.57806e-21)
(0.997019 -0.00347708 -1.74811e-22)
(1.00005 -0.00314408 -1.67844e-24)
(1.00001 -0.00326658 7.60001e-24)
(0.999994 4.08688e-08 -1.74549e-24)
(1.03351 -0.0507198 2.18484e-22)
(0.965796 -0.0790137 -1.27066e-21)
(1.00025 -0.00055042 -1.66451e-23)
(1.07904 -0.0333451 -7.5696e-23)
(0.999654 -0.000877226 3.63265e-24)
(0.999651 -0.000895683 -2.28144e-23)
(1.00232 -0.000297345 -1.41188e-23)
(1.03261 -0.0581343 -1.62248e-22)
(1.00075 -6.49367e-05 -3.19396e-23)
(1.00153 -0.00908854 -3.18161e-25)
(0.973599 -0.00498686 6.25556e-22)
(0.99557 -0.00656511 9.3889e-23)
(0.994764 -0.0027859 -4.50948e-22)
(0.988799 0.108088 -4.68664e-20)
(1.13825 -0.0689015 -2.17801e-21)
(1.01135 -0.0161941 4.07317e-22)
(0.989004 -0.0180754 4.97206e-22)
(0.968439 -0.0486372 -1.59622e-22)
(1.0003 -0.00706855 4.64485e-24)
(1.00002 -3.1401e-05 -1.30506e-24)
(0.999999 -2.00595e-06 -1.57634e-26)
(0.952933 -0.00960365 1.00493e-22)
(0.921025 -0.0294362 -2.41408e-21)
(0.96756 -0.033825 -3.70563e-23)
(1.00002 -3.0246e-05 -3.64357e-24)
(0.983306 -0.00731436 7.40283e-22)
(1.08002 4.88526e-07 6.07993e-21)
(1.2763 0.0186881 2.10533e-21)
(1.14918 -0.0349639 -1.53601e-22)
(0.999968 -1.96923e-06 -1.48783e-24)
(0.968399 -0.0173123 1.57216e-21)
(1.00766 -0.0436099 5.29839e-22)
(1.0001 -1.21037e-05 -1.05815e-24)
(0.999916 -0.000287413 9.23752e-25)
(0.964218 -0.000920116 -1.22728e-22)
(1.00193 -0.000174975 -5.90446e-23)
(1.00072 -0.00590957 -7.02925e-24)
(1.03528 -0.116077 -3.94974e-22)
(1.00045 -4.48934e-05 -2.45715e-23)
(0.944904 -0.0653886 1.7996e-21)
(0.973446 -0.00520537 -6.3308e-22)
(0.977056 -0.00447412 5.15106e-22)
(0.979493 -0.0112536 1.82674e-22)
(1.00174 -0.00912522 -2.38952e-23)
(0.956607 -0.0356284 1.89017e-21)
(1.00029 -0.000515529 2.1035e-23)
(1.00001 -1.16376e-05 -1.84643e-25)
(1.00562 -0.00566978 1.23927e-22)
(1.12097 0.181486 -3.60096e-21)
(0.951728 0.0640297 3.54327e-20)
(1.01459 0.0546326 6.10862e-21)
(1.03526 -0.0507327 3.03517e-23)
(0.988157 -0.0153869 -1.78612e-22)
(1.01275 0.0642985 3.2834e-20)
(1.01552 -0.0101819 -1.90999e-21)
(1.00025 -0.000461184 -1.45074e-23)
(1.02754 -0.00142337 -1.45125e-21)
(0.984243 -0.0144597 2.0282e-22)
(1.16303 -0.0110755 -6.32037e-22)
(0.996464 -0.00825069 1.7847e-22)
(1.03323 -0.000750044 -4.6812e-21)
(1.00111 -0.000119944 5.89749e-23)
(1.01508 0.0535698 4.1337e-21)
(1.00059 -5.57957e-05 -3.8456e-23)
(0.99433 -0.00818181 6.35057e-23)
(0.97828 -0.011377 -1.34477e-22)
(1.02102 0.0775908 4.2038e-21)
(1.00028 -1.13952e-05 -3.89388e-23)
(0.984865 -0.0434457 9.63563e-22)
(1.05932 -0.123221 1.70002e-21)
(1.09048 0.0388403 -5.65134e-21)
(0.996807 -0.0514046 -6.67084e-22)
(0.994231 -0.0075298 1.64157e-22)
(1.18095 -0.0725925 7.32166e-22)
(1.00006 -1.97887e-06 -3.24974e-24)
(1.24148 -0.131615 -4.88433e-22)
(0.99536 -0.00670217 1.00666e-22)
(1.02043 -0.0115469 -1.36596e-21)
(0.989222 -0.0414521 3.28551e-22)
(1.00303 -0.000244432 -2.19302e-22)
(1.2749 0.100819 -2.42509e-21)
(1.03331 0.075594 -9.34812e-21)
(0.941477 0.117285 1.63414e-20)
(1.03993 0.0517759 1.24615e-21)
(1.11283 0.0950204 4.0594e-21)
(1.16593 -0.0383487 3.70315e-22)
(1.25737 0.188906 -5.41498e-23)
(1.01576 -0.0100796 2.12118e-21)
(1.07107 0.104676 4.96108e-21)
(1.00256 0.0412165 -2.25597e-20)
(1.00063 -0.00596697 -2.93148e-24)
(0.998507 -0.0038268 -5.39906e-23)
(0.960965 0.0569837 -3.82576e-20)
(1.00002 -2.09915e-05 -7.82123e-25)
(1.25793 -0.10233 1.25775e-21)
(1.27837 0.0271488 6.07306e-22)
(0.97982 -0.0188884 8.30769e-22)
(1.00116 -0.00243168 -6.87671e-24)
(1.04842 -0.022173 -4.6233e-22)
(0.998429 -0.00178233 -5.57525e-23)
(1.00196 -0.00189781 -1.93699e-24)
(0.992221 0.140145 -8.20505e-21)
(0.872135 0.121177 1.45879e-20)
(0.999857 -9.60337e-06 -4.73017e-25)
(1.0003 -0.000515744 -2.09677e-23)
(1.09269 -0.0411079 -1.6222e-22)
(1.00015 -0.00299112 1.29466e-24)
(1.26904 -0.0296585 1.79048e-21)
(1.14458 0.163028 -5.3464e-21)
(1.06752 0.0381648 1.20681e-21)
(0.99992 -0.000289232 -3.02302e-24)
(0.993864 -0.0720412 2.75925e-22)
(0.995038 -0.0601886 1.51235e-21)
(1.00063 -5.54855e-05 2.48519e-23)
(1.01966 -0.0375076 5.21696e-23)
(1.05131 0.00249143 1.7947e-21)
(0.882749 0.116892 -9.36081e-21)
(1.00011 -0.00310868 9.63777e-25)
(1 -8.2682e-07 -6.39211e-27)
(1.07089 0.102923 3.6645e-21)
(1.0192 -0.0371231 7.22103e-23)
(0.999854 -1.12617e-05 -1.0819e-23)
(1.03895 -0.0165048 -3.25915e-22)
(1.00781 -0.0137951 -7.17861e-23)
(0.996326 -0.00495122 -1.66779e-23)
(0.997384 -9.23479e-05 4.52658e-23)
(1.26184 -0.0819067 8.39901e-22)
(0.981292 -0.00677877 3.00157e-22)
(0.998452 -0.00175203 3.55583e-24)
(0.967009 -0.0249125 1.08361e-23)
(1.00031 -0.000497709 3.02306e-23)
(0.99986 -0.000104661 5.77242e-24)
(0.999947 -0.0137717 1.47483e-22)
(1.17918 -0.0124639 -4.21498e-24)
(0.999747 -8.10871e-05 4.87784e-24)
(0.973637 -0.00556879 -7.58658e-22)
(1.00085 -0.00115751 6.46566e-24)
(0.997191 -0.0506938 -2.89623e-22)
(1.02091 0.0787807 -5.4776e-21)
(0.999868 -0.000544004 -2.2775e-24)
(0.721046 0.0474897 -1.13287e-20)
(1.08781 -0.0747888 5.83939e-22)
(0.995819 0.0312904 4.90041e-21)
(1.17634 -0.0132273 2.00952e-22)
(0.99938 -0.00034866 1.00852e-23)
(0.999968 -8.91109e-05 -5.90981e-25)
(0.999501 -0.000385011 -1.98379e-23)
(0.994495 -0.00754003 9.84499e-24)
(1.02655 0.00295015 0)
(0.999445 -0.0114197 9.6603e-23)
(0.983689 -0.000521851 1.60729e-22)
(0.994332 0.163183 -2.79326e-20)
(0.923141 -0.0330769 -2.16904e-21)
(0.922411 -0.0327781 1.87312e-21)
(1.04551 -0.0374747 3.36384e-22)
(1.07814 -0.0373992 1.18555e-21)
(0.986913 0.121508 2.89452e-20)
(0.999409 -0.000410593 9.89998e-24)
(0.985365 -0.0435212 1.97235e-22)
(0.979415 -0.018852 -7.94417e-22)
(1.00023 -0.000230392 1.57745e-23)
(1.02552 -0.0484013 -8.24136e-23)
(1.00086 -0.0011131 -3.15297e-24)
(1.03422 -0.051109 7.73725e-23)
(0.975715 -0.088921 2.58152e-22)
(0.812323 0.155142 -1.87275e-20)
(0.942266 -0.0648415 -1.70141e-21)
(0.997578 -0.0028365 2.51249e-23)
(0.977583 -0.018148 -1.40613e-21)
(1.00714 -0.0255253 5.73723e-24)
(1.12156 -0.0120516 -2.40677e-21)
(1.03422 0.00046766 -7.42918e-22)
(1.013 -0.0478058 6.78492e-23)
(1.00001 -2.34382e-07 -4.75906e-25)
(1.00464 0.0570822 9.19703e-21)
(0.984883 -0.00809889 -8.16274e-23)
(0.902465 -0.0155868 1.34159e-21)
(0.998918 -0.0107737 6.75077e-23)
(1.03876 -0.0387634 -1.31125e-21)
(0.978952 -0.0572801 1.57142e-21)
(1.00569 -0.00555782 5.4416e-23)
(1.2546 -0.0124333 2.226e-21)
(0.998982 -4.15811e-05 6.70157e-23)
(1.02678 0.138128 1.4812e-20)
(0.999743 -0.0201861 -1.62099e-22)
(1.05394 0.00436934 -8.887e-22)
(0.948608 -0.0094997 1.21324e-21)
(1.02345 -0.0038526 2.25477e-22)
(0.999992 -1.67132e-05 -2.70396e-25)
(0.975938 -0.0492644 -9.6669e-23)
(0.973495 -0.00577819 7.15797e-22)
(0.983202 -0.0402993 9.65724e-22)
(1.0389 -0.0171187 -2.3438e-22)
(1.03389 -0.117515 -4.09439e-22)
(1.00032 -0.000497474 -3.43403e-23)
(1.05971 -0.208012 -8.4993e-22)
(0.998333 -0.00121397 -1.35079e-22)
(0.999981 -7.98144e-05 1.0674e-25)
(0.999471 -0.0112271 -1.06693e-22)
(1.00027 -0.000533286 8.60149e-24)
(0.877891 0.115599 1.26761e-20)
(1.00023 -0.000226081 -1.39763e-23)
(1.03914 0.188792 -3.30027e-21)
(0.977147 -0.019214 -2.21616e-22)
(1.02262 -0.00312522 -4.23973e-22)
(1.00331 -0.00256772 -1.97564e-22)
(1.09721 0.0237371 7.04929e-21)
(1.0046 -0.00659486 -2.29431e-22)
(1.02415 0.0310551 -4.06248e-21)
(1 -2.21614e-06 -2.71781e-26)
(1.02982 -0.0663605 -4.5011e-22)
(0.998612 -0.00554717 4.97736e-23)
(1.00198 -0.00443655 1.08068e-23)
(0.970343 -0.0202649 -3.36659e-22)
(1.00002 -1.60413e-05 1.86377e-24)
(1.2215 -0.00445682 4.24413e-22)
(0.915349 0.257174 4.18601e-21)
(1.27743 0.0284242 -1.27466e-21)
(1.00025 -0.000449371 2.82213e-23)
(1.15988 -0.101578 -9.74478e-22)
(1.02693 0.00330994 -1.27877e-21)
(0.982116 0.151187 2.02192e-20)
(1.00013 -0.00506771 -2.88924e-24)
(0.999702 -3.76794e-06 -3.98057e-24)
(1.09077 -0.0405693 -2.37156e-22)
(1.00018 -0.000167091 -9.6858e-24)
(0.946013 0.055826 -7.948e-21)
(1.00803 -0.043218 2.69786e-23)
(1.28524 0.106933 5.3395e-24)
(1.10587 0.0592517 -7.47289e-21)
(1.00017 -0.000153181 7.73712e-24)
(0.981579 -0.157416 -1.16484e-21)
(1.01085 0.0412264 -9.06554e-21)
(0.999861 -9.9945e-05 2.66747e-25)
(1.09047 -0.0278617 2.39149e-21)
(0.996971 0.0114311 2.36344e-20)
(0.997352 -0.000117147 3.6585e-23)
(1.00291 -0.0143663 2.73302e-23)
(1.00042 -6.02426e-05 1.85666e-23)
(1.00744 -0.015135 -1.78127e-22)
(0.97837 -0.0117418 6.1755e-23)
(0.992715 -0.000123771 6.00461e-23)
(1.07327 0.182024 -7.04794e-21)
(0.995759 -0.0229872 3.01477e-22)
(0.800038 0.221998 3.30462e-20)
(0.668112 0.021762 3.10444e-20)
(0.996694 -0.000109911 -1.08984e-22)
(1.00005 -0.00049198 -1.26303e-24)
(1.05939 0.177975 -3.00192e-21)
(0.996255 -0.00470038 6.45296e-23)
(0.980893 -0.00463358 1.60986e-22)
(1.00028 -0.000533459 -4.88056e-24)
(1.07066 0.0428382 2.74368e-22)
(0.949045 -0.00949399 -1.73908e-21)
(0.833877 0.121063 2.33198e-20)
(0.998683 -0.00492225 -7.16815e-23)
(0.999954 -0.00140395 -2.39359e-24)
(0.984924 -0.00829706 2.80663e-22)
(1.27324 0.00838891 2.24926e-21)
(0.994656 -0.07206 5.93028e-23)
(1.13376 -0.0251925 -2.35265e-22)
(1.05743 -0.0367849 -8.51179e-22)
(1.03311 0.0127271 -4.4264e-21)
(0.999781 -0.000148504 -3.24142e-24)
(1.23109 -0.0351785 -9.22278e-22)
(1.00001 -2.90207e-05 -2.35666e-24)
(1.0018 -0.00155858 1.29369e-22)
(0.999993 2.01858e-07 7.15046e-26)
(1.23735 -0.131086 -2.82891e-21)
(1.07389 -0.100384 1.79171e-21)
(1.02935 0.05876 7.57692e-22)
(0.999994 9.67631e-08 1.76136e-25)
(0.943276 0.113719 -4.3578e-20)
(0.999525 -0.000154008 1.19791e-23)
(1.02598 -0.0478969 -9.77548e-23)
(0.999276 -0.000394157 3.44083e-23)
(0.921208 -0.0501505 8.37427e-23)
(0.989258 -0.018358 -7.85614e-22)
(1.11695 0.0182065 2.93756e-21)
(0.999863 -1.22197e-05 1.43845e-23)
(1.02436 -0.0776757 -8.20147e-22)
(1.02054 -0.0372006 2.31992e-23)
(0.988145 -0.0165921 -6.74527e-22)
(0.999976 -8.63271e-05 3.4436e-25)
(0.999926 -0.00139296 -9.46249e-25)
(0.999757 -1.32637e-05 1.75539e-24)
(0.970566 -0.0587129 -1.10449e-21)
(1.00193 -0.00369675 5.50906e-23)
(0.998676 -0.000769961 -3.25244e-24)
(0.963665 -0.0002968 1.02803e-21)
(1.0001 -0.000249401 -1.03867e-25)
(1.00034 -0.000483062 2.74184e-23)
(1.00672 -0.0225122 1.95461e-23)
(0.999391 -0.000351688 5.94194e-24)
(1.01375 0.0643326 -1.44921e-20)
(1.06475 -0.00494854 5.30951e-21)
(1.27054 -0.011015 1.77491e-22)
(0.97085 -0.000883021 -1.31783e-22)
(1.02031 -0.0974448 1.09999e-21)
(0.999994 -7.62416e-07 -1.09697e-25)
(1.18384 -0.0727587 -8.76275e-22)
(0.974672 -0.0888137 -1.0704e-21)
(1.00039 -5.96938e-05 2.79655e-23)
(0.967953 -0.0343927 -4.70567e-22)
(0.998471 -0.00514445 -5.54226e-23)
(0.959896 -0.0246313 5.40118e-22)
(1.18289 -0.142075 -8.28681e-22)
(1.00057 -5.64346e-05 -2.87134e-23)
(1.03341 -0.0585104 4.88133e-22)
(0.999981 -8.24904e-05 -3.63259e-25)
(0.994168 -0.00708494 -1.04963e-22)
(0.999553 -0.000158623 1.1383e-24)
(1.06481 0.0929663 -6.60294e-22)
(0.991115 -0.00217959 -3.03064e-22)
(1.00016 -0.000297365 -2.41994e-25)
(0.99981 -0.000102108 5.20649e-24)
(1.02695 -0.0122393 1.35152e-21)
(0.953031 -0.0499206 1.66659e-22)
(0.996311 -0.00475013 -1.02643e-22)
(0.999989 -0.00145414 -4.9485e-24)
(1.07214 0.18479 -8.49151e-22)
(1.00714 0.106252 6.06663e-21)
(1.00204 -0.00438675 3.12695e-23)
(1.24705 0.082971 -4.18005e-23)
(1.14266 -0.118793 2.60802e-21)
(0.925555 -0.0541195 6.9888e-22)
(1.00006 -0.000485007 5.00523e-24)
(0.999995 -4.89245e-07 3.89032e-25)
(1.12107 0.178121 4.58165e-21)
(0.960464 -0.0210029 1.62608e-22)
(1.00011 -0.000248661 -4.49442e-24)
(1.22483 0.0406083 1.01708e-21)
(0.998925 -0.000611887 4.19446e-23)
(0.999995 -3.92461e-06 6.81531e-25)
(1.09151 -0.00514565 4.72661e-22)
(0.98825 -0.112572 -4.06303e-22)
(0.943086 -0.0646076 2.26671e-21)
(0.917504 -0.0492253 3.02208e-22)
(0.98751 -0.0387055 -7.09e-22)
(0.992327 -0.000262775 1.06365e-22)
(0.981098 -0.00482666 -1.29721e-21)
(1.00112 -0.010991 5.64192e-24)
(1.09085 0.0653405 -3.87145e-21)
(0.999752 -0.000760042 -7.74655e-24)
(0.989979 -0.0588594 3.02184e-22)
(1.10102 -0.0105522 3.49817e-22)
(0.999855 -0.00071865 -2.74838e-24)
(1.1398 -0.117763 -3.42144e-21)
(1.02239 -0.0482292 -3.13422e-22)
(1.06356 0.039604 -9.6465e-21)