/*--------------------------------*- C++ -*----------------------------------*\
  =========                 |
  \\      /  F ield         | OpenFOAM: The Open Source CFD Toolbox
   \\    /   O peration     | Website:  https://openfoam.org
    \\  /    A nd           | Version:  7
     \\/     M anipulation  |
\*---------------------------------------------------------------------------*/
FoamFile
{
    version     2.0;
    format      ascii;
    class       surfaceScalarField;
    location    "7";
    object      phi;
}
// * * * * * * * * * * * * * * * * * * * * * * * * * * * * * * * * * * * * * //

dimensions      [0 3 -1 0 0 0 0];

internalField   nonuniform List<scalar> 
11265
(
153.762
-521.286
367.524
-743.716
-4.16478
747.881
417.056
-375.235
-41.8209
636.106
275.932
-912.038
1511.19
-1069.47
-441.723
1216.29
-1527.14
310.842
-52.2346
475.761
-423.526
168.658
-843.016
674.358
962.159
-1610.85
648.694
-1757.55
1663.56
93.9933
-542.947
1759.24
-1139.77
1933.68
-793.902
609.298
181.149
-790.447
-24.4728
-1309.76
1334.23
219.182
-1976.73
1024.7
-380.644
-644.052
-188.535
342.298
486.929
190.688
-677.617
1156.22
-1312.27
156.05
-298.584
376.646
-78.062
994.658
-1306.57
311.915
1221.48
798.869
-2020.35
71.5768
-1634.01
1562.44
-470.044
-1175.3
1645.35
478.372
182.094
-660.465
-197.664
-323.622
498.34
1012.85
1641.09
-1798.15
157.063
-86.8866
-1693.45
1780.34
-1558.16
648.908
909.254
-305.461
654.293
-348.832
-192.742
-134.755
327.497
1279.63
-1208.06
355.151
-1407.5
1052.35
-1754.34
1754.34
101.325
1525.56
-1626.89
-1076.03
-482.131
645.6
-697.835
-382.752
941.513
-558.76
1331.98
-1317.36
-14.6237
-1100.58
717.824
629.444
395.253
-371.811
-51.8517
423.663
-447.848
739.228
-291.38
-1618.52
1618.52
1253.6
-1437.9
184.307
-488.289
1709.77
1256.74
-315.228
1660.76
-1161.27
-499.492
89.476
-388.06
2064.14
-1134.03
-930.11
1806.1
-165.016
457.797
156.229
-614.026
-449.594
965.832
-516.239
-1165.36
1266.69
-569.179
971.687
-402.508
403.295
752.925
661.869
-493.21
-438.118
597.921
-159.803
1190.74
-835.586
2308.18
-1080.65
-1227.53
1163.12
-2007.17
844.051
-1596.09
1571.62
440.796
-1580.57
-759.242
1250.9
-491.656
-673.829
368.368
1661.48
-699.326
-1106.93
-870.892
1977.82
686.035
-342.105
-343.931
689.452
567.288
-258.205
1511.8
121.999
-323.212
201.213
-284.994
763.366
-335.799
568.103
-232.304
-324.699
811.628
-318.26
-152.678
470.938
324.246
92.8093
1449.57
-454.915
-966.214
466.361
499.853
285.168
87.325
-372.492
950.795
-341.497
-1703.06
647.265
1055.8
10.6695
-847.861
837.191
-283.323
598.886
-315.563
156.474
-1093.83
937.357
1051.94
-1067.48
15.5399
373.034
519.655
-892.69
-245.615
703.412
-1104.1
-481.931
1586.03
-678.716
951.676
-272.96
1359.49
-1446.38
-597.288
234.85
362.438
-470.187
-1011.59
1481.77
-540.507
-791.726
1332.23
576.73
-996.996
420.266
-267.048
-318.197
585.244
410.925
-288.926
-1032.25
582.658
955.375
-798.902
-110.301
944.122
-833.821
-213.675
423.026
-209.351
-631.022
-335.192
-386.743
963.473
1856.38
-1856.38
-474.574
-122.714
-958.256
1560.19
-601.93
473.647
-908.37
434.722
-924.583
355.404
-941.912
-1058.08
-1482.85
345.26
1137.59
-285.951
922.057
-296.538
603.042
-306.504
-1941.91
999.994
-1132.92
-349.93
546.213
-1504.47
1728.53
-1725.48
-3.04987
206.885
-581.192
374.307
-1456.96
978.019
478.941
293.356
209.412
-502.768
312.49
-648.289
245.854
-423.262
177.408
2017.72
-852.27
-1165.45
-536.616
164.805
618.603
831.752
-1450.36
-185.096
430.951
431.056
877.19
-1308.25
-910.505
396.053
514.452
-1043.73
1447.03
-1068.9
309.658
754.762
-100.469
509.845
-302.834
-207.011
991.809
-525.448
593.286
-1404
810.716
-1342.42
238.328
-550.021
266.698
-1193.24
907.289
1939.84
-998.925
-940.911
276.804
1579.57
-2091.64
893.08
1198.56
370.038
-30.5225
-339.515
-224.45
484.502
-260.052
-119.293
-371.923
491.216
-470.638
152.378
343.653
-130.404
604.051
405.579
389.013
-794.592
-2038.57
1112.87
925.696
461.351
-535.589
74.2386
224.205
-366.505
142.301
1010.79
1006.93
1777.6
-252.043
683.697
-448.847
797.45
-1390.25
592.798
320.59
365.445
1045.97
-1035.3
-500.152
-240.543
740.695
483.018
-140.187
-342.831
798.403
-617.254
555.563
-732.846
177.283
503.33
1157.43
-1239.97
699.46
1047.82
-1517.87
-3.13745
-1439.43
1442.57
324.546
825.773
-1150.32
623.76
269.981
-893.741
-2273.13
1146.32
1126.82
-1118.61
-1154.52
188.768
366.795
958.551
-634.006
879.561
-899.267
19.7069
-2099.38
992.451
-228.562
-191.385
419.946
-41.6272
1770.16
-814.129
70.4128
-1026.05
-1065.59
-230.69
454.895
-633.321
158.748
-253.603
-450.731
704.334
1104.06
-1574.25
783.198
-1374.59
591.396
704.261
-428.329
1947.88
-1444.55
-378.289
-1376.05
70.9655
404.796
-520.317
516.152
1.31897
-555.383
554.064
571.597
-278.241
-607.644
281.767
325.877
776.175
-370.596
33.6965
336.342
1188.47
-1191.61
184.411
226.514
420.28
-673.883
620.18
-1006.92
-2026.7
2026.7
-250.49
-464.679
715.17
699.399
405.886
-1105.28
579.74
175.022
391.683
384.492
-2199.75
1328.85
-927.008
-678.362
1605.37
-494.489
-698.751
-282.481
570.846
-288.365
835.427
-201.313
-634.114
-420.471
627.355
372.699
-669.237
-334.207
-125.503
459.71
-1324.85
-473.302
625.578
-1120.07
-374.155
-1244.37
844.321
1463.86
301.889
-917.265
615.376
967.023
-337.58
1391.52
-798.233
447.899
-263.488
-330.766
-880.992
574.27
306.721
-335.275
-545.717
303.263
-422.556
-197.983
-156.449
354.433
-392.741
1092.14
435.779
-245.091
-398.771
1343.41
-165.415
-1177.99
-456.664
255.627
201.036
246.365
257.945
-504.31
8.9484
-741.794
592.064
-1728.99
1136.92
1480.46
-861.861
-1053.27
-403.691
-1057.96
573.082
484.877
1375.94
-397.926
929.612
-1411.54
-169.469
-191.668
361.137
-469.982
582.242
-1625.97
427.977
904.003
264.931
338.927
-603.858
568.075
1186.27
1105
-716.992
-388.011
411.631
-223.874
-187.757
-1419.47
444.618
738.99
-1183.61
1473.45
-543.842
-507.746
937.197
-429.451
426.142
1186.17
-1612.31
47.3411
-726.057
-142.728
427.895
202.225
-394.967
532.214
459.596
-604.865
48.2042
556.661
1024.54
-1307.68
283.133
659.278
-267.595
468.218
-1447.27
979.049
405.057
1685.5
-522.382
895.315
1044.52
-663.362
-1684.46
757.456
563.179
389.357
-952.536
452.755
78.6978
1749.88
-1828.57
1443.78
-379.491
-1064.29
1699.1
-1740.72
-368.508
-504.693
712.362
-207.669
-502.593
188.789
294.229
-373.236
-1226.02
214.432
-764.563
-639.439
-645.213
998.941
-353.727
-654.049
644.098
9.95036
655.116
-923.784
268.668
-719.461
356.934
362.527
-649.212
-704.883
363.083
341.8
-932.39
1400.61
-409.37
881.879
-472.51
-2205.3
5.55809
185.747
-540.013
354.266
138.932
1204.48
-63.7961
-569.525
162.362
-600.48
1487.27
-704.069
369.097
-464.891
95.7933
-566.746
566.746
1223.07
395.454
1777.79
-1229.3
588.959
640.341
850.726
-52.3232
1291.18
772.963
-539.81
1337.26
295.154
303.732
280.53
-785.223
210.421
-658.268
233.346
-447.381
214.035
-246.095
588.708
-342.613
121.233
-367.328
-592.174
-564.562
1156.74
-385.59
506.657
-121.067
-1192.16
2032.05
-839.886
1290.5
-331.951
-403.858
136.81
-1984.2
808.891
1526.34
-850.981
-675.363
1986.93
-877.413
-1109.52
713.37
577.133
-241.357
474.703
-687.117
1145.45
-458.328
-770.394
1201.45
551.472
924.711
-1724.73
800.018
-565.441
-44.2449
609.686
260.964
248.881
419.673
-97.3741
-322.299
896.975
-83.4493
-813.526
896.998
-551.007
-345.99
1576.22
-472.162
886.721
-1624.9
738.18
1068.49
879.395
751.104
-447.039
-304.065
-1059.07
-258.282
554.905
581.091
-1136
-480.483
470.204
10.2795
580.181
-349.496
-230.686
-980.367
570.998
596.678
883.786
-441.852
1096.97
1403.55
-771.116
-632.436
400.161
-926.537
526.376
-1009.59
378.566
541.842
-1049.59
411.985
-479.44
67.455
439.118
300.11
-518.05
-48.6959
-794.648
-876.624
1671.27
199.017
212.614
-228.873
417.64
-11.7729
-542.066
553.839
489.836
863.711
-1353.55
-510.744
312.761
985.971
-88.9966
836.659
-1065.14
228.481
392.317
846.809
-1386.62
-438.986
828
1975.92
-1282.47
-693.444
270.19
609.371
255.996
795.941
75.4091
-962.612
887.202
1673.75
-1089.09
-584.662
-137.782
1887.66
-1866.04
-160.66
483.759
-621.954
138.194
-1015.57
526.052
489.52
-1730.48
538.319
-955.978
845.677
392.381
205.54
579.407
-277.518
-425.463
712.851
254.172
60.4427
716.731
-777.174
-1147.73
-881.385
2029.12
-544.506
1092.2
-547.693
-449.386
-337.783
109.221
-1653.34
858.692
-868.423
-598.261
1466.68
-332.331
-295.476
627.807
365.332
-659.869
294.537
230.701
-601.296
292.727
212.997
-505.724
338.952
-621.433
633.446
-268.113
315.477
-468.155
678.484
433.736
-187.37
-395.786
-309.097
1215.07
-2.10229
-1212.96
1040.26
-420.081
560.987
410.7
-1782.39
869.83
912.556
494.2
540.8
-1035
-536.187
203.856
-262.287
1180.37
-918.087
-1590.9
1212.62
504.697
-1096.87
388.091
-18.9931
450.017
282.906
-732.922
374.464
-620.079
-28.9009
754.525
-725.624
-526.322
796.303
376.681
322.975
527.751
655.301
83.3901
-420.436
337.046
1059.14
-645.358
-413.784
494.005
-1664.27
1170.27
-1140.47
1753.25
-612.781
1715.8
-1123.74
-335.434
617.201
-1188.25
1263.66
425.354
-795.004
1596.2
-801.192
-231.669
-224.994
-899.148
1468.96
1810.86
-611.549
-1199.31
-404.927
657.474
-1302.69
-124.778
-52.7569
472.43
-679.079
-354.173
-1236.73
-226.404
457.105
904.026
-560.597
188.674
-1674.48
-71.165
1745.65
-1056.43
511.919
571.127
-1179.93
608.801
901.15
909.707
630.845
620.053
681.886
255.311
-1138.44
451.319
-404.033
405.352
623.713
-515.93
253.27
-734.3
481.03
693.478
-372.888
-318.013
183.258
-575.999
225.314
350.685
-888.663
-736.238
1087.67
-2145.75
400.899
-685.893
-342.974
-724.503
830.747
572.805
-349.187
297.335
383.943
224.758
646.054
-870.812
540.302
605.143
-498.679
164.472
376.533
-627.023
-1059.09
-834.551
1893.64
-1790.92
156.903
1107.35
-1369.64
1167
-730.56
-436.439
-503.277
1350.09
-1495.57
627.869
867.697
-288.028
-210.898
498.925
1428.39
558.544
310.783
-436.287
-487.225
-562.889
1050.11
-415.457
601.205
1582
-1128.49
-453.501
-786.915
322.236
654.989
404.153
-1623.43
416.155
1207.27
-203.26
495.987
797.951
784.044
174.819
-665.473
490.654
210.542
212.484
-297.331
-109.581
406.912
452.384
47.845
-500.229
-1636.03
582.766
-1604.89
1668.54
-63.6522
9.18513
-1614.07
1069.62
760.204
-310.187
-810.893
-198.695
-1134.58
-240.016
-312.362
686.826
-1812.27
-623.061
1204.15
206.952
758.88
-1328.8
-678.367
-465.233
625.696
-360.765
-1013.29
1350.75
-1932.8
582.045
645.77
1287.91
487.625
-3.12277
716.602
699.704
-1416.31
-641.599
341.268
300.33
442.007
-100.121
-341.886
156.979
268.694
171.527
-440.221
-575.933
1139.11
468.248
-601.55
-462.681
-401.993
864.674
-329.497
160.028
-461.069
172.143
-306.834
-708.738
550.5
-108.493
-567.834
967.994
580.428
-270.346
-310.082
457.097
-781.796
-643.081
427.345
-1129.42
-831.949
1177.21
-569.77
455.142
285.553
-461.081
118.977
1029.76
-317.064
594.32
-277.256
-509.043
1578.67
-692.273
244.862
378.5
-623.362
194.763
501.173
-9.42997
-491.743
-250.33
-210.738
1001.08
1108.97
564.786
-863.676
929.275
-65.5988
-457.126
169.098
-744.545
293.814
-595.917
352.071
341.407
817.87
-1237.79
419.921
778.418
-807.319
-948.993
-550.377
1499.37
-150.694
489.62
-507.276
204.441
1304.74
757.268
-582.448
1319.6
-694.021
488.114
-674.39
-415.007
-424.547
-378.814
803.36
503.864
-845.361
-453.32
64.1156
389.204
-327.854
572.393
730.991
-330.092
-249.868
-176.259
426.128
-490.837
151.506
339.331
1456.06
79.9413
-1536
-748.814
1345.49
-1144.75
-466.099
551.949
-173.449
1149.38
-370.962
1083.52
492.701
687.866
-407.335
-885.203
-522.302
-1328.48
-29.3873
984.832
-955.444
611.372
327.261
-938.633
-307.406
-229.21
-681.351
405.514
1621.18
-175.543
358.514
352.935
-711.449
-1839.79
-2106.67
1519.14
587.537
-2039.28
345.829
359.157
548.095
-907.252
-460.21
1021.2
-390.591
-682.862
1073.45
-2030.52
1391.21
639.315
610.081
-1000.67
39.5996
372.385
387.081
204.298
243.601
350.479
969.238
875.356
682.445
-327.812
-354.633
-296.25
624.629
-328.379
575.532
529.47
565.707
515.024
-1080.73
-796.274
-699.293
753.41
395.97
-422.817
717.353
-1193.43
1609.58
414.542
-1097.4
-310.709
523.705
-1388.02
877.424
510.592
-723.895
-359.449
-782.127
350.731
431.397
447.001
718.672
-1165.67
1066.09
-571.886
-389.986
644.062
-254.076
254.993
325.435
-469.217
-432.136
901.353
-242.782
556.7
-940.88
384.18
-462.54
600.599
-1681.25
423.707
671.402
-1095.11
519.101
83.9406
113.406
-2212.78
547.707
-92.5655
1443.72
1777.09
-217.554
-1559.54
-438.398
1789.15
-1986.86
1194.43
792.424
406.53
344.574
-34.1594
864.906
-1283.66
719.099
-871.21
-823.494
794.106
314.494
44.6335
-359.128
230.573
186.032
-416.605
1548.23
-831.623
-1530.95
-325.432
443.071
-184.641
-258.431
396.196
367.17
228.731
396.966
-8.09376
1000.98
-992.885
408.312
261.989
-670.301
-734.014
1817.26
-1083.25
-343.154
739.35
-1214.45
-412.435
-916.787
484.651
582.544
-797.301
214.757
763.634
-382.337
-381.297
-425.008
-438.668
449.107
1082.14
1235.28
-664.158
802.78
-345.683
405.593
309.577
-258.331
-206.56
-215.223
620.28
408.132
-849.336
441.204
222.047
365.824
-587.872
-423.966
832.098
754.777
-1147.52
887.988
-70.1182
-491.452
270.206
775.765
-95.5066
1383.41
1890.5
-79.3665
334.994
-344.65
428.04
-1085.17
1077.08
637.043
376.589
387.045
51.5299
391.541
261.023
486.858
-369.189
-272.41
-564.494
-89.5548
-352.344
369.764
-17.4193
-258.623
-291.397
1011.14
-1540.73
529.596
-189.572
-185.662
-413.33
675.319
-1626.95
1591.08
-963.21
265.849
-680.857
584.308
1224.42
-1808.73
607.405
983.674
291.005
-1116.75
691.285
-314.203
-289.655
1372.13
-1440.87
821.683
619.19
409.101
-603.111
194.011
-341.121
459.796
-118.675
382.753
69.6307
1723.58
464.477
-253.935
557.615
-1704.8
1147.18
-91.1996
407
343.403
339.042
-448.512
-616.174
1064.69
420.757
-859.743
-641.434
903.19
570.265
-484.973
-234.488
-440.32
-409.016
-307.136
-827.441
1821.11
-1821.11
-105.698
-1588.8
1694.5
292.022
288.159
-917.406
-555.258
1472.66
-408.266
973.973
-592.122
-1043.91
694.575
377.363
-1071.94
481.514
-166.037
573.058
1220.35
-1793.41
-1048.39
2116.53
-1068.15
-373.242
-300.586
-504.79
827.026
-1747.87
1598.04
149.832
1747.87
-1601.33
-146.546
-248.502
527.979
-279.477
-537.278
1620.8
1560.4
-1972.83
1073.14
-322.184
-215.283
537.467
240.951
-551.66
-711.685
288.869
1340.64
635.275
576.639
486.439
-1063.08
283.342
404.523
875.493
500.113
-1375.61
529.835
-1017.06
1574.97
-563.831
-786.472
-381.406
-126.173
507.579
-489.91
1208.58
-741.168
334.809
368.603
347.289
254.234
-601.523
588.24
832.092
-603.61
260.529
668.746
-484.973
-354.63
-194.999
549.629
1168.59
-679.062
611.783
464.496
-1076.28
-1283.95
1283.95
-387.837
764.426
-288.824
-472.337
761.161
480.978
447.677
-928.656
386.716
-675.54
614.276
-868.304
254.028
-367.346
-496.918
1073.56
-662.766
-708.527
1371.29
-366.703
923.403
-1552.68
675.265
9.78245
-361.695
351.912
-522.715
681.463
262.079
326.629
173.992
307.522
-540.618
226.415
1869.11
-1964.62
260.837
-681.307
442.077
-819.227
377.15
-920.175
1417.1
-496.929
-429.824
-486.963
600.673
1124.21
-1724.89
-716.813
343.571
-459.532
1035.06
-772.697
1033.23
-381.592
-631.683
-487.849
698.269
541.453
-359.359
901.735
-294.1
-196.738
1599.02
-1816.57
-334.844
-606.036
-326.319
477.825
250.021
-610.786
-166.899
1057.78
-787.57
216.299
-300.288
-283.836
584.124
392.014
-869.564
477.55
-489.859
-441.658
-917.265
-332.455
531.512
-199.057
-434.93
-412.524
-309.33
-196.394
-373.484
627.717
-464.6
774.177
-1073.27
624.759
-1411.27
542.847
-27.601
-1833.43
1861.03
569.861
-449.262
1206.34
-694.424
301.325
-301.325
669.467
-428.106
1045.73
-1637.85
-1158.73
-947.944
294.789
329.84
882.289
713.907
-489.367
-290.297
779.664
1655.71
-1683.31
-434.873
353.364
218.233
1135.33
-523.542
-943.331
1550.47
-607.139
446.783
-242.485
389.045
386.168
-775.213
524.054
473.122
-997.176
-332.245
667.054
-37.7734
1906.89
1591.94
993.009
-1697.08
727.336
-1177.32
449.988
-492.459
1367.95
838.198
-1341.48
-555.598
233.413
789.778
-400.421
554.463
-1186.09
631.63
-640.174
-1215.54
-695.637
1911.18
-197.001
523.78
-326.779
-123.333
271.839
-468.841
323.964
374.88
-698.844
-1479.61
757.065
722.549
884.129
-1434.51
827.102
-431.049
224.505
-367.232
-585.484
230.854
-649.604
-738.411
699.444
505.636
-1205.08
397.57
-204.705
-192.865
556.882
-959.39
-560.522
-446.955
740.769
-831.27
-1155.59
-1437.98
499.616
938.367
36.3003
-626.41
302.032
324.378
-1308.22
1043.91
264.307
-617.184
-456.087
-666.016
922.012
404.304
-208.25
-196.053
508.14
980.745
-1488.89
971.731
-564.182
167.243
396.939
-408.256
655.829
-394.993
-506.251
179.932
234.502
-1516.97
531.996
534.089
-733.373
210.659
162.439
-456.539
371.994
-813.652
1954.16
-1195.39
-758.768
425.653
-653.617
227.964
325.192
313.821
130.484
-444.305
-561.877
197.678
266.799
-691.697
1374.43
-682.731
424.088
459.477
-1183.37
269.356
1866.78
-1013.59
-853.189
785.214
-491.58
159.125
1402.4
-975.216
-427.184
336.57
-764.677
-616.484
1725.45
613.467
621.818
317.021
-2.52641
265.844
-1138.46
1725.72
-587.258
-1763.52
820.186
1753.65
-1685.16
-68.4945
-651.91
247.877
585.131
-690.793
202.945
1402.81
-564.616
393.264
434.735
-1858.5
1420.1
505.47
-423.862
-81.6081
210.825
-520.155
-304.481
-144.905
-354.581
697.984
-600.158
218.752
603.999
552.468
-1156.47
1113.7
-1947.39
833.693
155.725
303.985
-1698.49
1660.71
317.643
-724.978
-162.221
386.726
750.547
679.594
-1430.14
1073.19
-1075.3
527.319
-1099.21
-633.559
255.94
377.619
501.942
-276.627
-602.184
-1035.66
297.101
-709.625
-912.32
182.66
169.346
228.224
374.856
294.252
-669.109
-625.466
-833.871
-978.395
491.421
-1053.3
-266.777
467.814
534.017
643.192
-280.835
-123.023
-434.346
725.35
270.578
-1196.25
570.786
1305.36
-554.81
441.616
-1002.14
-389.328
127.101
378.369
1023.45
551.521
-1715.42
1609.72
1632.74
-562.994
-1069.74
1902.05
-1890.21
-11.8388
207.359
-552.009
-327.296
543.595
-763.243
-311.432
-340.478
1030.55
694.809
-1499.38
804.569
327.788
-26.1919
1625.21
-1079.05
399.99
-1241.28
454.805
-59.9216
1515.98
1197.61
-470.27
-489.62
-74.5617
-232.615
736.003
-1951.54
-712.429
342.559
-532.711
190.152
191.74
-508.804
1139.9
671.538
-1811.44
-566.88
143.018
942.162
-1497.42
-210.496
678.946
-468.45
886.162
1113.84
-734.337
1347.8
603.673
-515.947
-87.7264
-347.883
1169.57
1042.98
-1982.08
939.092
-1168.27
545.205
1488.85
-585.66
-363.854
-134.825
-1238.97
574.811
1164.29
-108.487
946.031
775.383
-1721.41
-218.039
578.398
-1541.77
963.374
486.986
916.742
-1403.73
615.096
589.056
373.279
-1106.66
591.775
1103.43
1216.1
-452.409
-763.689
-1186.2
-1754.95
-7.94157
-1707.48
-185.797
-417.315
1605.38
-625.872
-979.51
-490.88
1121.73
-1315.76
637.41
678.35
-1360.21
1440.15
-1328.1
593.763
1520.56
-397.662
-534.636
170.782
-1483.17
237.66
176.381
190.152
413.521
452.126
384.587
-836.713
506.316
-939.127
901.058
-1444.9
-676.206
214.767
461.439
-1034.77
458.841
-467.033
860.297
695.347
35.7461
-499
172.221
-886.565
-1318.74
-717.648
351.722
365.926
407.108
-724.461
317.353
-481.713
-189.391
-709.876
716.719
1539.44
-593.414
810.951
737.274
1344.87
-844.753
-971.467
-570.305
-799.317
427.913
371.404
-1037.27
-645.359
306.436
338.923
-1433.7
-296.782
-792.46
399.722
392.737
-629.943
394.386
235.557
-658.542
263.549
412.795
488.558
390.01
442.088
479.895
384.78
597.256
-970.492
670.589
468.523
454.355
356.734
-811.089
1630.78
-1079.92
-550.856
-504.412
-282.41
-1025.81
455.352
348.009
409.667
594.764
-1004.43
-1378.86
752.983
-535.587
1144.39
343.854
-75.1602
412.221
-866.904
454.683
-1895.35
306.55
442.438
-727.623
285.185
-184.713
408.117
-223.404
-663.702
311.49
352.212
-676.855
322.222
371.161
393.266
613.198
-1021.46
753.897
660.623
-1414.52
438.787
625.899
340.542
393.394
-733.935
410.635
328.714
615.125
685.796
396.348
593.134
-1011.72
418.585
-1673.59
1193.18
480.414
1696.6
-539.173
622.141
-1147.66
525.52
-644.378
348.902
437.314
-936.26
498.946
750.997
-468.091
351.48
346.503
568.172
-903.016
650.458
-1253.67
603.209
370.566
735.145
-1225.05
769.953
509.42
-1279.37
477.787
402.89
-880.677
-501.612
-936.371
-305.874
629.837
352.696
542.458
-895.154
334.412
332.642
-502.177
1944.74
437.639
-847.974
410.336
-917.942
-806.787
-750.767
369.47
-1205.87
433.174
-1728.52
1601.33
127.198
1743.23
-1598.04
-145.187
-786.003
-596.486
268.534
327.952
-1753.65
1972.83
538.293
791.982
-1330.28
440.1
716.635
690.575
385.648
-1076.22
-65.3966
1617.15
-593.705
375.108
831.235
-651.666
327.824
323.843
-378.605
-298.494
553.487
-227.007
436.419
282.578
-669.53
386.952
267.565
-583.128
-284.865
442.502
-1034.18
591.678
538.038
1092.74
366.097
597.376
312.773
353.211
-665.984
1617.46
-922.655
1691.63
-1520.22
-171.407
-328.921
-824.961
415.945
857.628
-1068.12
-610.322
281.942
-1090.62
1628.66
-1582.3
-80.4226
1662.73
-341.788
-350.57
-370.419
535.843
599.482
-504.379
-31.2105
-550.092
510.554
-284.381
-226.174
1743.46
-1294.36
-627.992
301.251
326.741
403.297
357.283
734.857
-298.151
-399.045
-1743.23
1683.31
459.502
-1101.46
641.954
-44.0609
1653.78
571.526
476.479
-1048.01
104.7
1145.07
-1452.21
-16.2577
-1879.09
231.077
-601.627
308.289
293.338
-955.82
612.845
-899.61
469.786
-1129
673.989
455.006
362.426
258.576
-747.943
-333.259
1217.75
887.076
698.95
-1183.15
456.163
726.984
494.271
701.261
-1195.53
-384.371
-248.309
417.655
-961.65
438.446
523.204
21.2632
-1879.77
1079.93
-465.652
-487.749
557.901
-1378.36
820.463
-419.143
796.294
-405.415
496.349
-716.051
1717.13
418.161
-189.937
217.279
-175.299
-246.525
421.825
1895.31
-504.107
-1686.27
1051.98
-604.231
305.737
-1014.66
554.449
-313.772
544.245
905.426
-1449.67
-1104.22
438.208
-20.6461
-1943.97
1713.14
-670.157
-541.045
460.688
-1190.8
730.107
188.805
215.498
-283.064
767.51
701.452
839.134
819.218
-462.483
1085.4
-473.916
483.116
-196.986
-286.13
-1922.4
-714.634
-319.049
-644.393
-6.74463
651.138
471.778
-274.1
560.818
1056.65
-800.019
925.872
1244.56
-425.239
-184.626
-236.398
421.024
951.612
-888.619
-326.587
-1068.49
612.405
1553.49
-796.421
537.589
935.075
-386.16
734.804
-348.644
1130.67
-277.208
346.871
1349.88
-703.732
-222.804
448.29
-1198.86
750.567
-997.253
-113.816
1111.07
442.918
-956.619
513.701
156.203
732.677
483.42
744.787
-98.7329
854.309
-425.7
1182.83
-797.183
552.006
-1465.56
913.554
-1216.66
1800.97
-431.713
-1510.19
879.81
-1402.11
-292.65
-440.272
1457.34
-1521.73
785.491
1491.53
205.404
277.712
-343.812
-1728.52
-294.38
-1008.17
1568.99
-1761.11
1761.11
1560.4
-1004.58
-636.08
-326.055
368.485
605.488
-395.556
-352.779
-1389.92
897.464
1125.17
600.549
1202.96
1789.48
-1216.43
-607.195
274.792
1658.91
-1916.34
257.431
813.917
-1267.42
1545.28
-561.601
769.175
323.024
-330.622
554.552
795.534
666.665
1362.45
-234.334
-444.927
-340.835
498.818
-342.589
471.697
736.885
-284.198
-160.107
-318.719
563.632
-244.912
24.7035
-374.199
1107.5
-1720.28
-434.462
-477.081
-561.502
863.716
689.77
-1596.6
904.902
-451.608
-615.798
-513.352
1252.34
327.222
1723.64
-1702.37
-1655.71
1890.21
-1560.9
840.332
720.569
-364.479
-1794.23
917.606
582.831
819.983
-391.777
1794.23
-680.525
-431.341
687.352
416.781
-1104.13
-1098.48
444.08
753.526
-1617.2
473.18
901.248
181.403
-408.118
226.715
-1594.47
-382.262
-442.959
990.327
-668.182
1443.01
-969.535
1855.7
242.862
-552.466
501.478
-296.074
474.318
893.633
543.024
977.537
-462.705
-428.034
573.83
883.511
-1392.71
-40.9882
1568.23
-830.957
519.949
971.585
-1475.88
-1115.9
1771.29
-1244.38
-526.907
1206.21
-318.913
-887.302
-196.077
459.928
-263.851
-457.516
-251.278
436.644
-185.366
151.126
-399.435
1729.22
-1737.16
-447.034
-530.843
-903.663
450.012
-211.113
-238.9
636.616
-462.829
-388.003
-293.112
681.115
-936.497
390.78
-1167.47
676.587
424.265
-629.147
-445.836
1569.8
-855.893
530.181
-457.777
-571.678
-462.502
367.149
-356.998
-10.1504
-1095.73
401.305
-664.646
-1033.73
1698.38
-593.157
-1422.81
714.284
562.148
-1596.28
1034.14
-375.511
-486.344
136.739
545.147
-1258.59
745.235
539.216
1006.06
-2133.18
999.991
1133.19
-337.496
414.9
-389.808
-25.0923
1478.1
-358.767
449.519
1201.37
582.049
906.801
568.492
527.31
-1095.8
171.13
-427.877
-1685.16
260.944
1127.6
-607.784
518.424
1013.84
-1532.27
1092.88
-1643.74
201.746
686.242
538.196
-864.783
-1086.58
-174.161
433.002
-258.841
-587.334
-415.373
-636.934
-630.505
347.441
-1618.37
940.009
-476.697
216.5
-406.437
539.017
-307.94
-599.248
1197.29
-1274.28
930.102
344.179
-1030.46
-343.275
-753.289
-821.384
1685.1
-476.814
1794.69
-1582.83
-211.856
-1556.66
1018.76
537.898
-721.997
-263.644
447.43
-183.786
-584.776
383.69
277.616
-661.306
-523.794
977.314
633.426
-351.483
-1620.3
1050.53
571.752
1103.57
-1675.32
-398.531
-297.468
-366.234
-741.446
-473.261
-331.137
505.129
1558.01
-995.862
-775.723
1497.47
662.842
-309.478
725.881
1152.37
-1878.25
263.402
287.316
-487.042
-1931.14
1719.13
212.002
741.247
-474.559
-266.688
531.819
1060.86
-1592.68
367.149
-1723.73
-233.208
1752.35
-1580.71
1073.8
506.916
-1723.32
-0.417398
-521.542
414.9
1698.49
-1719.13
939.882
624.225
-1564.11
388.346
-221.246
-167.1
-400.768
-257.774
71.3694
95.3797
-359.024
-434.408
-433.896
-410.927
226.214
1510.28
378.774
-200.327
-429.615
467.607
-200.808
306.423
1510.8
993.304
-162.294
-831.011
-1104.13
1704.8
-1728.73
1064.08
-707.047
-1021.68
-1265.09
1844.99
-579.899
1155.08
-1771.11
616.033
273.269
-878.378
1675.62
43.461
-1719.08
-491.157
-1083.09
-1729.22
-982.946
554.912
1019.64
590.206
1133.06
-1723.27
285.968
-459.418
706.48
-384.258
368.042
925.145
680.225
-371.261
-640.457
582.877
1072.59
-1655.47
-396.389
-372.992
769.381
388.151
-1660.71
1520.22
140.493
585.332
-1044.86
544.742
1083.91
-1555.71
994.114
-241.178
237.546
306.049
1902.05
396.687
-79.2499
995.865
722.753
-1718.62
-697.531
1085.38
-1557.54
170.547
-572.246
200.682
266.926
-653.565
-552.306
582.441
1034.71
-711.304
-245.148
-1368.82
676.651
692.167
-420.464
760.245
73.9059
-834.151
561.536
-137.139
1557.24
-222.122
259.787
-768.745
-1931.14
1664.64
1034.06
356.934
281.872
469.125
-930.275
-992.121
-1767.27
639.63
1693.78
512.095
-474.171
1211.06
1087.18
-424.974
1030.46
-979.708
495.485
484.223
700
1047.98
-1747.98
488.048
479.946
-1494.05
-747.896
30.9045
782.319
-412.85
-878.209
390.459
-538.395
-803.08
615.376
-576.983
1397.45
1055.14
197.093
235.909
-550.601
1618.54
-771.435
1525.33
-1727.84
575.236
1152.6
546.705
-884.285
-1732.62
1916.34
-183.72
1721.75
185.828
-543.046
371.199
-275.82
-481.336
1211.44
568.271
1128.33
-491.378
434.703
859.988
-464.735
-773.35
421.209
352.141
1418.6
1089.64
-518.147
1423.05
-510.69
-533.563
1044.25
-602.734
477.605
-1208.16
1691.63
1839.58
-687.21
1585.54
-645.655
-1241.63
717.837
-562.324
205.91
-397.294
459.649
-247.165
-520.944
-1246.71
1870.94
-624.227
1173.55
-551.413
1120.3
-1659.47
1689.64
-573.921
-544.451
-549.806
1720.07
-317.45
-688.018
-473.284
1223.85
-1681.19
-1860.1
613.388
308.061
-942.174
172.793
217.098
-1719.03
1204.16
514.868
1162.86
558.888
-511.022
-465.369
1192.35
176.894
231.223
588.443
1251.14
-539.173
-1238.59
1777.76
-1025.48
999.991
866.791
-204.144
-1658.91
1702.37
-510.042
1411.29
-1732.62
-353.878
9.45263
344.425
-269.583
586.616
-317.033
80.5391
493.731
782.877
-375.769
1257.53
1270.98
-413.356
853.724
-437.779
1817.42
-662.338
1586.5
-1723.64
-412.777
-740.752
324.248
416.505
-559.143
-563.197
79.7299
-1138.8
-985.623
-669.463
1655.09
-943.709
-1189.47
196.846
-412.129
-648.833
705.574
1167.45
649.964
1410.38
-590.393
1636.76
1318.2
-572.961
-497.064
200.99
-503.267
1396.9
1240.28
-563.627
-999.99
894.617
52.6673
-947.284
603.449
-506.11
1403.57
1495.1
-588.299
-371.763
371.763
-589.372
1623.51
1239.7
-486.172
1134.16
-72.2195
1852.56
-400.133
1489.51
-588.447
-507.671
1348
-653.709
1218.76
-565.055
1554.82
-591.445
746.976
569.267
-1316.24
-662.271
260.684
496.584
599.914
-1957.3
-977.297
1586.5
373.774
-373.774
-75.0218
390.677
436.426
334.356
48.3968
-328.963
905.342
-534.775
-425.355
816.031
-246.259
623.878
-434.376
1547.25
-444.34
-884.144
191.618
227.877
-419.496
601.167
1250.78
-1851.95
928.282
-458.496
-356.998
126.153
-1943.01
1816.85
-453.744
190.256
1181.38
-440.446
-740.931
-305.819
-572.39
-490.948
-389.808
-484.538
258.365
1158.64
-559.158
230.442
-387.348
156.905
-22.6594
-107.675
1376.05
-1268.38
34.5433
-599.037
-586.36
-454.866
454.866
-1262.36
1985.11
-1344.41
-211.931
-1824.99
242.163
-1025.76
-974.241
-189.542
-1637.01
706.737
1229.32
-1924.96
372.893
310.283
-683.176
-1850.01
1234.27
615.738
-562.548
562.548
-959.29
-39.9663
-1866.04
-558.133
1650.87
-677.972
1636.18
-601.466
-173.801
-1705.29
-588.046
-458.88
-594.777
-468.654
468.654
-1537.81
194.524
1343.28
177.231
227.681
-404.912
494.777
498.527
997.955
-474.751
1751.3
768.211
-425.75
400.658
519.845
1702.05
-594.555
-552.957
1636.87
475.474
1812.72
-645.261
-1803.79
-1938.08
-646.901
-480.642
480.642
-569.078
228.243
-695.739
1020.2
-465.746
-1070.71
-281.602
1579.57
1852.31
1635.33
-1635.33
-294.064
738.177
1761.48
595.782
1275.16
177.084
211.262
575.605
597.575
1603.52
-1603.52
225.245
-351.568
-433.003
464.019
952.434
-456.949
-640.103
-1131.03
1706.27
282.855
-1651.55
607.64
-289.844
475.672
1744.64
-592.044
-217.352
-431.998
380.386
723.041
1738.57
-613.399
-511.757
-781.799
1960.53
-870.451
-1090.08
1642.81
-706.809
1223.98
-1824.94
600.962
333.015
-885.481
-186.106
-107.209
1098.81
-486.406
118.315
614.807
-1650.47
441.154
588.396
-1803.79
-583.27
1787.43
884.65
-1162.94
1760.49
-597.552
1783.84
-575.519
-1208.32
433.977
931.853
-1737.16
924.868
-1496.29
264.953
1231.34
-830.797
-1254.23
-382.837
76.7283
306.109
581.708
272.395
1023.58
-447.355
847.872
-400.517
821.541
737.395
-1558.94
643.543
1066.22
-24.305
-663.898
688.203
-1744.27
722.584
696.032
150.583
-1122.72
1936.75
-674.544
-1262.21
-537.174
1665.51
826.904
962.483
-1789.39
1227.87
683.309
-400.845
712.335
845.481
1029.17
-586.249
1761.48
627.01
1773.56
-1185.63
-587.929
-409.829
-308.227
718.056
121.444
-1185.73
1660.56
-540.263
-1437.82
1437.82
1250.58
594.413
1351.62
206.387
-574.237
283.723
-196.398
699.047
1113.67
486.107
-309.212
-870.554
-574.347
1737.58
-1737.58
995.434
-995.434
987.329
1025.17
-2012.5
1837.94
-613.962
-581.103
822.534
-947.848
-1052.16
998.443
690.278
-1688.72
-518.05
-347.82
-652.851
-808.419
2042.69
-1246.43
-613.674
1002.97
974.85
1289.77
646.982
327.875
1012.69
241.351
335.522
1186.27
1756.87
-1756.87
672.141
80.0145
-390.096
-997.05
-539.99
1674.15
988.49
1011.51
-1833.27
-226.087
-361.959
594.281