/*--------------------------------*- C++ -*----------------------------------*\
  =========                 |
  \\      /  F ield         | OpenFOAM: The Open Source CFD Toolbox
   \\    /   O peration     | Website:  https://openfoam.org
    \\  /    A nd           | Version:  7
     \\/     M anipulation  |
\*---------------------------------------------------------------------------*/
FoamFile
{
    version     2.0;
    format      ascii;
    class       volVectorField;
    location    "7";
    object      U;
}
// * * * * * * * * * * * * * * * * * * * * * * * * * * * * * * * * * * * * * //

dimensions      [0 1 -1 0 0 0 0];

internalField   nonuniform List<vector> 
7639
(
(1.10492 0.123828 2.6961e-21)
(1.02916 -0.0347441 6.19373e-22)
(0.99961 0.104092 -5.78891e-21)
(1.03908 0.0561514 7.46813e-21)
(0.999457 -0.000607652 -1.37927e-23)
(0.999976 -7.68692e-06 -1.67533e-24)
(0.992708 0.0843738 -1.09354e-20)
(0.996816 -0.00114398 -2.95511e-24)
(0.999918 -0.000116889 -2.65385e-24)
(1.01823 -0.000838236 -3.44288e-22)
(0.999977 -8.72635e-06 1.84707e-24)
(1.0014 -0.000874893 -5.48562e-23)
(0.995116 -0.0014931 1.419e-22)
(1.0124 -0.00152369 -2.19453e-21)
(1.01758 0.000160341 1.45305e-21)
(0.994337 -0.00897778 -2.77936e-22)
(1.11014 0.132293 -5.73633e-21)
(0.993468 -0.00186761 -5.00213e-23)
(1.00133 -0.00591822 -1.90619e-23)
(0.981249 -0.0517458 -2.26278e-22)
(1.02405 -0.00517154 -7.51171e-22)
(1.00092 -0.000413911 1.02919e-22)
(1.01182 -0.00260839 1.90267e-22)
(1.01049 0.0239643 -3.79379e-21)
(0.991366 -0.0022972 -2.28495e-22)
(1.09805 0.123291 -2.693e-21)
(0.999456 -0.000571593 -1.00019e-23)
(1.01674 -0.00121497 8.69252e-22)
(1.00518 0.0120361 -4.83661e-22)
(1.00196 -0.00639247 1.56656e-23)
(0.991855 -0.00940469 -5.1564e-22)
(0.878568 0.0358799 1.68028e-21)
(1.01108 -0.00300313 1.17027e-21)
(0.999708 -0.00024988 1.73965e-23)
(0.999935 -1.97455e-06 3.33043e-26)
(1.01689 -9.96294e-05 5.11124e-22)
(1.00261 -0.00705101 1.84103e-23)
(0.996947 0.0807308 -1.72788e-21)
(0.99788 -0.00495486 2.29737e-22)
(0.999791 -3.37481e-05 1.66765e-23)
(0.998003 -0.00507261 -2.6546e-23)
(0.994515 -0.00827121 -1.0443e-22)
(0.992329 -0.0601361 9.3855e-22)
(1.08037 -0.0752105 7.65212e-23)
(0.999875 -4.64141e-06 5.47218e-24)
(0.999952 -1.14081e-05 -1.61251e-24)
(1.0008 -0.000359889 -6.29178e-23)
(0.997484 -0.0043283 -1.3551e-22)
(0.999959 -1.93373e-05 -1.31656e-24)
(0.983058 -0.052662 3.24946e-22)
(1.00203 -0.000771666 5.91882e-23)
(1.01644 -0.000100551 -9.04071e-22)
(0.98883 -0.00271326 -7.7003e-22)
(1.00537 -0.0201244 3.80386e-23)
(1.01627 -0.0012727 -2.96346e-22)
(0.997161 -0.00160659 -2.60653e-23)
(1.00107 -0.00571625 4.04219e-23)
(0.996813 -0.000975029 1.94536e-22)
(0.986153 -0.010895 -9.18352e-22)
(0.999705 -0.000221746 -2.23494e-23)
(1.00003 -1.52511e-05 -2.02229e-24)
(1.00271 -0.000666095 6.64101e-23)
(1.01289 -0.000967989 -5.16226e-22)
(1.00149 -0.000771602 5.55515e-23)
(0.999425 -0.000136817 3.16743e-23)
(0.992096 -0.00980809 9.19078e-23)
(0.999943 -0.000120849 2.08021e-24)
(1.00001 -1.4343e-06 1.2851e-25)
(1.15744 0.00210113 1.01036e-21)
(0.997496 -0.00414652 -3.94981e-23)
(0.999955 -1.30636e-05 1.43177e-24)
(0.979947 -0.0311906 -1.69669e-21)
(0.991706 -0.00254425 1.10624e-22)
(0.984749 -0.00318442 1.52032e-22)
(0.993725 -0.00206246 1.55852e-22)
(0.979019 -0.0150668 -2.02492e-22)
(1.00375 0.105493 9.24265e-21)
(1.0224 -0.0048443 9.561e-22)
(1.06232 -0.0167646 -1.74155e-21)
(0.972526 -0.0247184 -2.17459e-21)
(0.995324 -0.00164516 -2.17552e-22)
(0.999581 0.0479248 1.05402e-20)
(1.02955 0.000976669 2.24914e-21)
(0.984321 -0.00573092 6.98752e-22)
(0.999176 -0.00156326 -2.1884e-23)
(0.998613 -0.000196154 2.31642e-23)
(0.996606 -0.00150997 2.67298e-22)
(0.98924 -0.00303729 4.93585e-22)
(0.999591 -0.000738522 1.4839e-23)
(0.997296 -0.00042529 8.28791e-23)
(1.00545 0.0138682 3.58307e-21)
(1.1053 -0.0875785 -1.51338e-22)
(0.99992 -3.62332e-05 -3.33821e-24)
(1.00106 -0.00482732 1.61127e-23)
(0.997856 -0.000642008 7.50941e-23)
(0.984469 -0.0018263 -1.22239e-21)
(0.981283 -0.0311139 1.08266e-22)
(1.0064 -0.0195349 1.56741e-23)
(0.999142 -0.00151881 7.38954e-24)
(0.999321 -0.000108221 1.06453e-23)
(0.97135 -0.00884848 5.35671e-22)
(1.06504 -0.0132398 1.43361e-21)
(0.997984 -0.000731324 -1.87282e-22)
(0.999983 -3.62296e-07 -1.4229e-25)
(1.11528 -0.0842742 -1.52274e-22)
(1.0271 0.0212786 -3.43386e-21)
(0.936176 0.0258094 1.84689e-21)
(0.996963 -0.00152409 -1.07786e-22)
(0.999994 -1.23709e-06 3.99044e-26)
(1.01607 -0.0100662 -4.05806e-22)
(1.04262 0.0525016 -8.66597e-21)
(1.00561 -0.0499561 -1.02852e-21)
(0.999993 -1.33652e-06 -5.8404e-26)
(1.01744 -0.0107851 -8.81558e-23)
(1.02365 0.0208285 3.60937e-21)
(1.00024 -0.000344907 -4.75988e-24)
(1.02435 -0.0679914 -3.92208e-23)
(1.02525 0.0108463 -8.27205e-22)
(0.987491 -0.0258234 7.13249e-22)
(0.984527 -0.00387766 -1.57908e-22)
(0.969716 -0.00578222 -1.29731e-21)
(1.00109 0.039452 -6.8518e-21)
(0.995318 -0.0604288 -1.28053e-21)
(1.00571 -0.00504824 3.40678e-23)
(0.970648 -0.00662904 5.09116e-22)
(0.999431 -0.000838229 3.31463e-23)
(0.992371 -0.00709557 1.68189e-22)
(1.00175 -0.00554207 -2.77634e-23)
(0.999388 -0.000105094 -7.07773e-23)
(0.991725 -0.00859288 8.60956e-24)
(1.10691 -0.119033 -1.76964e-22)
(1.05707 -0.0162327 2.96908e-22)
(0.999639 -0.000323413 1.87975e-24)
(0.999536 -0.000760541 -2.89336e-23)
(0.983644 -0.00522548 2.0784e-22)
(1.03903 0.0444861 3.17573e-21)
(0.993812 0.0314815 1.22267e-20)
(0.999985 -2.16186e-06 -1.7025e-25)
(1.00497 -0.00191486 2.81831e-23)
(0.959808 -0.00676717 -1.64823e-21)
(0.985635 -0.00229559 -6.3027e-22)
(0.988422 -0.0357269 -1.02693e-21)
(0.979178 -0.016234 2.74815e-22)
(0.985543 -0.00289062 -1.36795e-23)
(0.930294 0.0206025 7.19872e-21)
(1.00384 -0.0297667 -3.40744e-23)
(1.01047 0.0134311 -1.83191e-21)
(0.987291 -0.0132106 -4.71263e-22)
(0.979033 -0.00306907 1.76442e-22)
(1.00077 0.0431915 -3.40617e-21)
(1.01753 0.00113251 1.27586e-21)
(1.09668 -0.0798798 1.07786e-22)
(0.999045 -0.00122264 -7.64948e-23)
(1.15612 -0.00993464 1.07935e-22)
(1.02838 0.00105968 -2.33631e-21)
(1.01041 0.0836256 -8.7475e-21)
(0.975868 -0.0173703 8.54423e-22)
(0.995119 -0.00109529 4.7923e-23)
(0.946573 0.0685675 1.62281e-20)
(0.999962 -1.52596e-05 -1.24942e-24)
(1.00072 -0.00499704 -1.07078e-23)
(1.01096 0.0264413 2.74263e-21)
(0.999987 -1.21869e-05 8.62266e-25)
(0.998914 -0.00321155 -1.06771e-22)
(0.997602 -0.000616279 -3.59482e-23)
(1.00434 0.0329391 -8.99038e-22)
(1.00292 0.0329506 3.33571e-21)
(0.938297 0.0764946 5.46551e-21)
(0.998824 -0.00311079 -6.74244e-23)
(0.998101 -0.000215097 -4.04023e-23)
(1.00001 -7.94516e-07 -1.15583e-25)
(0.968074 -0.00356528 -2.24421e-21)
(1.00022 -0.000314252 6.57019e-24)
(1.0315 -0.0327973 -7.2567e-22)
(1.00508 -0.00217671 1.85513e-22)
(0.979463 -0.00362252 3.62738e-22)
(1.11711 -0.0717365 -2.36495e-23)
(1.11357 0.0357512 7.95589e-23)
(0.999919 -3.91781e-05 1.82988e-24)
(0.999677 -0.000398135 -1.9716e-23)
(1.04089 0.0594644 -1.32528e-21)
(0.999962 -1.25635e-05 -6.0182e-25)
(0.999931 -7.03785e-06 8.78013e-25)
(0.993412 0.0900918 -9.22141e-21)
(1.02908 -0.0373692 1.70081e-22)
(1.00068 -0.0406908 -5.95925e-22)
(0.988734 -0.0252536 -1.0071e-21)
(0.985978 -0.00422091 4.54675e-22)
(1.00196 -0.0301918 5.94732e-23)
(0.960706 -0.00571084 8.64803e-22)
(0.999986 -1.13565e-05 -3.01649e-25)
(0.9819 -0.0293085 -3.99902e-22)
(1.12138 0.0424006 -2.30971e-21)
(0.997965 -0.000889353 2.68925e-23)
(1.00005 -3.30763e-06 -1.54594e-24)
(1.08549 0.0543004 2.55204e-22)
(0.999252 -0.000235862 7.51115e-23)
(0.992197 -0.00834824 2.68977e-22)
(1.0008 -0.0283158 1.98656e-22)
(1.00001 -1.77097e-06 -5.24739e-26)
(1.00049 -0.00126865 -2.77614e-23)
(1.03538 0.0448474 3.95477e-21)
(1.10941 0.056609 -3.16858e-21)
(1.00441 0.0728543 -1.1689e-21)
(1.02444 -0.0639838 3.89689e-22)
(1.00816 -0.0487264 2.36797e-22)
(1.03488 -0.0972693 -1.49977e-22)
(1.01652 -0.00280034 2.57675e-21)
(1.03134 0.0433033 -1.27422e-21)
(0.999868 -1.25354e-05 -6.37715e-24)
(1.00003 -1.22622e-05 5.2768e-25)
(0.951879 0.0106385 -7.07482e-21)
(0.995332 -0.00800742 -9.82723e-23)
(0.999629 -0.000293824 -1.87793e-23)
(0.983196 -0.0290293 8.27912e-22)
(0.991999 -0.00745205 -1.95822e-22)
(1.02002 0.0749771 -9.80829e-21)
(1.01546 0.0728179 -2.0506e-21)
(0.986616 -0.0363084 2.84423e-22)
(0.901175 0.0508603 -6.30979e-21)
(0.999305 -0.000276172 -5.51224e-23)
(0.993508 -0.00157099 1.81179e-22)
(0.970366 -0.00803944 7.07214e-22)
(1.0243 -0.00145188 -5.4102e-22)
(0.989346 -0.0725508 -1.21928e-22)
(1.13582 0.110606 -5.36643e-21)
(0.946638 0.060079 -1.38065e-20)
(1.00004 -6.86202e-05 1.69312e-24)
(1.00575 -0.00493259 9.27134e-23)
(1.02371 0.0135941 4.47375e-21)
(0.997614 -0.00367125 -1.7587e-22)
(1.0271 0.0108225 -5.64955e-22)
(0.999669 -0.000792812 -4.89781e-24)
(0.915889 0.0862739 1.14174e-20)
(1.01025 0.0762597 1.91695e-21)
(0.99662 -0.00128284 1.70017e-22)
(1.00233 -0.00534463 -3.99926e-24)
(0.999802 -4.9438e-05 -3.11201e-23)
(1.16428 0.049807 1.11736e-21)
(0.999939 -9.83787e-06 2.62134e-24)
(0.996555 -0.00677383 7.93574e-23)
(0.964262 -0.0154785 9.69e-22)
(0.999954 -1.59797e-05 -5.94247e-25)
(0.99926 -0.00181138 -1.89846e-23)
(0.999743 -0.000780125 8.776e-24)
(1.06537 0.0261107 3.23587e-21)
(0.999988 -1.55624e-05 1.04877e-24)
(0.997187 -0.000329545 9.52954e-26)
(0.973769 -0.0246674 2.49915e-21)
(0.879668 0.0267524 -3.6933e-21)
(1.05503 -0.0191152 -4.04968e-22)
(0.927436 0.0575938 8.33446e-21)
(0.999972 -6.59273e-06 -1.52061e-24)
(0.999457 -0.0285072 -1.50746e-23)
(0.999886 -0.000195144 -7.27283e-24)
(1.005 0.0864867 -8.82189e-21)
(1.00228 -0.000424071 -8.58081e-23)
(0.991638 0.0324542 3.99779e-21)
(1.00172 -0.00665396 -7.70453e-23)
(1.00043 -0.00125776 2.98026e-23)
(1.01618 -0.0255633 -1.93007e-22)
(1.01662 -0.00170727 -2.38457e-21)
(1.00035 -0.000212616 1.3809e-23)
(0.999858 -3.60696e-05 1.72484e-25)
(1.0003 -0.000290596 3.10905e-23)
(0.997474 -0.00387956 -1.55353e-22)
(1.00376 -0.04351 6.56014e-22)
(0.999973 -8.83734e-06 1.02648e-24)
(0.976809 -0.0167567 5.90397e-22)
(0.997715 -0.00073106 -6.79495e-24)
(0.999907 -3.25184e-05 3.54846e-24)
(0.999631 -0.000362874 6.12262e-24)
(0.98771 0.0512371 9.67684e-21)
(0.995075 -0.000518359 7.00338e-23)
(0.999536 -8.50784e-05 -6.37986e-24)
(0.907181 0.0122 1.37846e-20)
(0.999183 -0.00176081 -4.2806e-23)
(1.07674 0.0861128 -3.1002e-21)
(0.999873 -0.000184787 1.30177e-23)
(1.00424 -0.0153098 3.07995e-23)
(1.00001 -5.44177e-07 -4.38232e-26)
(0.987857 -0.0210535 -4.10587e-22)
(1.0238 -0.000898735 8.37204e-22)
(1.12505 -0.0691886 -1.3101e-22)
(0.986221 -0.0117111 7.76434e-22)
(0.999755 -0.000409861 2.29024e-23)
(0.982293 -0.0446865 5.25657e-22)
(0.989897 -0.000270771 3.24505e-22)
(0.999883 -1.72768e-05 3.64083e-25)
(1.00028 -0.000246219 -2.75119e-23)
(0.998683 -0.00223508 5.85927e-23)
(0.995268 -0.000905022 -2.085e-22)
(1.00204 -0.000575311 -1.01525e-22)
(0.999229 -0.0012815 2.74048e-23)
(0.985104 -0.00536156 1.09477e-22)
(1.00667 -0.0427435 -4.83265e-22)
(0.985228 -0.00449276 4.86468e-22)
(1.0817 -0.0675099 -1.17956e-23)
(0.980599 -0.0048679 -6.33505e-22)
(1.02524 0.101432 1.01599e-21)
(1.02072 0.105003 -7.6457e-21)
(0.999085 -0.00050059 -4.7663e-23)
(1.13569 -0.087888 -5.80921e-22)
(0.999989 -2.47621e-06 -1.01729e-25)
(0.998653 -0.00273421 -7.04255e-23)
(0.984131 -0.00126732 1.26891e-21)
(1.00786 0.0208092 2.26962e-21)
(1.03245 0.00381105 -2.1917e-21)
(1.00006 -2.60876e-05 3.55949e-24)
(0.99867 -0.00262351 -4.69565e-24)
(0.981252 -0.00540384 4.7494e-22)
(1.04976 0.0259744 -1.31207e-21)
(0.999393 -0.0007871 2.47421e-23)
(1.00213 -0.000599075 5.69911e-23)
(1.00079 -0.00062459 -5.0901e-24)
(1.10523 -0.0227121 1.40516e-21)
(1.10076 -0.121894 -1.04163e-21)
(1.05188 0.12486 4.91913e-21)
(0.999019 -0.000129963 -4.71149e-23)
(1.03549 -0.0389171 -5.05886e-22)
(0.999929 -4.55863e-05 -2.92009e-24)
(1.00305 -0.00482555 -1.9724e-22)
(0.999965 -8.27108e-06 -4.30257e-25)
(0.990417 -0.0129629 1.31191e-22)
(0.999786 -4.83269e-05 -5.93479e-24)
(1.00696 -0.0151114 4.68368e-23)
(1.14653 -0.108265 8.66292e-22)
(0.983086 -0.016319 9.27934e-22)
(1.00492 -0.014983 -2.42746e-23)
(1.00539 -0.00426761 -1.198e-22)
(0.999543 -0.000107814 2.85722e-23)
(1.01716 -0.0144336 2.86539e-22)
(0.99723 -0.0120414 1.20841e-22)
(1.06228 -0.006784 -8.49602e-22)
(1.05959 0.0259025 1.47448e-21)
(1.04744 -0.121882 7.09038e-24)
(1.07471 -0.0777289 -3.65101e-22)
(0.989502 -0.000574634 -3.4878e-22)
(1.00323 -0.0024312 1.83552e-22)
(0.96552 -0.0147481 -3.75125e-22)
(0.93017 0.0757633 -1.70699e-20)
(1.06428 -0.0692593 2.13485e-22)
(1.01797 -0.00927777 -1.11316e-21)
(0.909102 0.0549226 -8.4958e-21)
(0.999036 -8.26438e-05 2.3253e-23)
(0.998914 -0.000625967 -1.47187e-23)
(1.08914 -0.0821825 -3.61632e-22)
(0.999311 -0.00133663 -1.49352e-23)
(1.00445 -0.027994 4.49838e-23)
(1.00381 -0.00133931 6.46276e-23)
(0.9982 -0.000288846 -3.60183e-23)
(0.998663 -0.000258869 -5.742e-23)
(1.02806 0.0176905 2.6298e-21)
(0.999957 -0.000100995 -2.62957e-25)
(1.00032 -0.000160099 -1.22987e-23)
(1.00005 -1.16034e-05 2.63898e-24)
(0.997823 -0.000471754 1.96084e-22)
(0.995881 -0.00576 2.17155e-22)
(0.999989 -2.38828e-06 7.98023e-26)
(0.999325 -0.000167269 6.03872e-24)
(0.986787 -0.0103699 2.7333e-22)
(0.95097 0.0152755 4.45112e-21)
(1.00612 -0.015846 -2.06331e-23)
(0.995377 -0.00741872 3.49761e-22)
(0.963921 0.0589645 1.90715e-21)
(1.00199 0.037234 6.0615e-21)
(1.05012 -0.0122434 -7.02895e-22)
(1.13593 -0.0780846 1.40204e-22)
(0.967392 -0.00263453 1.2342e-21)
(1.00324 -0.00271157 -9.05883e-23)
(1.00944 0.0360867 -3.38113e-22)
(0.992925 -0.00145215 -4.27224e-22)
(1.0527 0.0903765 1.30931e-22)
(1.00131 -0.0322277 6.04374e-24)
(1.00222 -0.0714135 -4.28518e-22)
(1.1021 0.0547744 1.95293e-21)
(1.05701 0.0966964 -4.11656e-21)
(0.977828 -0.0145454 1.32148e-21)
(1.03394 0.00233328 -1.42231e-21)
(1.14591 0.115505 5.06553e-21)
(1.06956 0.0887682 5.89015e-21)
(1.0169 -0.00235645 8.17889e-22)
(0.998103 -0.000961262 4.24037e-23)
(0.997346 -0.00146078 3.70457e-23)
(0.999942 -1.32399e-05 -1.40038e-24)
(1.0092 -0.0198795 5.22216e-23)
(0.992751 -0.00121796 1.01123e-22)
(1.00064 -0.00162346 -2.46332e-23)
(0.999931 -1.6118e-05 -2.58256e-24)
(0.998958 -0.00047184 1.85785e-23)
(0.981176 -0.0437251 -8.68136e-22)
(1.09972 -0.0027309 7.3745e-22)
(0.989127 -0.00369615 -5.5509e-22)
(0.999298 -0.00821494 1.2837e-22)
(0.997613 -0.000434054 -1.03289e-22)
(1.03338 -0.0391751 7.06457e-24)
(0.995494 -0.000979101 -3.36255e-22)
(1.00143 -0.00482816 7.61193e-23)
(1.16239 0.0975316 8.45871e-22)
(0.998814 -0.000229375 -1.34599e-22)
(0.999986 -2.94973e-05 -7.39563e-25)
(0.999966 -0.000120861 -3.82622e-25)
(1.00003 -7.14479e-05 2.12988e-24)
(0.986564 -0.00473854 2.54953e-22)
(1.02615 0.0153121 -3.10189e-21)
(0.997453 -0.000334515 3.97421e-24)
(1.01535 -0.00763435 7.21142e-22)
(0.991553 -0.0766763 8.49414e-22)
(0.998247 0.0747448 -1.85257e-22)
(1.00256 -0.00512525 6.54862e-23)
(1.00447 -0.00303664 -3.00465e-23)
(0.996806 -0.00166007 -1.34885e-22)
(0.993789 0.0507325 -9.44699e-21)
(0.999338 -5.93866e-05 1.92822e-23)
(1.05722 0.129711 -2.46797e-21)
(1.0092 0.0143273 -3.52843e-21)
(0.999926 -2.00828e-05 3.02201e-24)
(1.00011 -0.0325647 -3.7565e-22)
(0.997925 -0.000543264 -9.53762e-23)
(0.990123 -0.0365511 1.25512e-21)
(1.00034 -7.57942e-05 1.23465e-23)
(1.04721 -0.00850509 9.89478e-22)
(1.00421 -0.0109846 -2.68901e-24)
(1.00408 -0.00260615 1.47781e-23)
(0.99946 -0.000102293 -3.81408e-23)
(1.07025 0.0218342 1.5704e-21)
(1.04488 0.0259682 5.11465e-22)
(0.998693 -0.0419686 6.02117e-22)
(0.987155 -0.0121553 -5.26434e-23)
(0.998603 -0.00238515 -5.05095e-23)
(0.997678 -0.0255401 -6.78097e-22)
(1.14323 -0.013703 -1.21955e-21)
(0.885256 0.0420009 -8.15594e-21)
(1.036 -0.0672836 -3.5679e-22)
(1.00322 -0.00531177 -3.09728e-23)
(0.999995 -1.13513e-06 -3.28319e-26)
(0.991638 -0.00306727 -4.43014e-22)
(0.99856 -0.000240234 1.23432e-22)
(1.0167 -0.01346 4.18727e-22)
(0.98958 -0.0619424 -3.90989e-22)
(1.12484 -0.0927041 2.76595e-22)
(0.987342 0.071296 -1.17928e-20)
(1.05255 0.0216552 2.14944e-21)
(1.04007 -0.0933836 6.46579e-22)
(1.0885 0.0617074 8.54583e-22)
(0.998508 0.0385945 1.11742e-20)
(1.01397 -0.00232882 5.96251e-22)
(1.00074 -0.00152603 5.62389e-23)
(1.02736 0.0499965 1.9847e-21)
(0.999444 -0.00133511 3.33105e-23)
(0.999885 -0.0001062 2.85648e-24)
(0.988652 -0.00129915 1.58718e-22)
(1.00007 -2.33379e-05 6.63742e-25)
(1.035 -0.103888 3.54405e-22)
(1.002 -0.0119735 -1.81037e-23)
(0.989257 -0.0208552 6.86129e-22)
(1.00119 -0.00108587 2.83861e-23)
(1.07755 0.0529539 4.5468e-21)
(0.998856 -0.000206282 -1.11261e-23)
(0.999985 -2.34524e-05 -5.99755e-26)
(0.998031 -0.0719697 4.73891e-22)
(1.00106 -0.000856152 -1.64952e-23)
(1.07671 -0.0326775 -2.04025e-22)
(0.972712 -0.00835315 2.48567e-22)
(0.961478 -0.00956553 1.26419e-22)
(1.18294 -0.0716593 -2.52784e-24)
(1.02183 0.0124072 -1.16763e-21)
(1.01727 0.00313712 7.19966e-22)
(1.01621 0.00302028 -2.884e-22)
(0.999869 -2.97396e-05 1.00433e-24)
(1.10575 -0.00804957 5.52728e-22)
(1.06432 -0.00436591 9.9124e-22)
(0.999683 -0.000419756 9.00466e-24)
(0.989595 -0.00401836 6.43862e-22)
(1.0004 -0.000132824 -1.37471e-23)
(1.00705 -0.0139452 -3.16649e-22)
(1.00446 -0.0189355 -1.10964e-23)
(1.00301 -0.000965061 7.76246e-25)
(0.999524 -0.000844991 -4.01953e-23)
(1.15481 0.0415931 -3.42692e-21)
(0.999986 -1.47505e-05 -1.19726e-24)
(1.00014 -6.55696e-05 -3.55358e-24)
(1.00137 -0.000655318 -1.13096e-24)
(0.986023 -0.00201686 4.41807e-22)
(1.0126 -0.00847912 5.09083e-22)
(0.989041 -0.017579 -9.81101e-22)
(0.98297 -0.00303662 -2.548e-22)
(1.00249 -0.040821 3.33995e-22)
(0.997256 -0.0845856 -9.13029e-22)
(1.01545 -0.0230512 1.27723e-22)
(1.03264 0.0499937 -1.13666e-20)
(1.14947 -0.0957848 -6.49314e-22)
(0.995856 -0.00163624 -1.7906e-23)
(0.911721 0.0803855 1.36396e-20)
(0.982369 -0.0323904 1.44913e-21)
(0.995747 -0.00611165 6.86474e-23)
(0.983335 -0.0025109 4.2165e-22)
(0.998168 -0.0117892 -3.47888e-23)
(0.986872 -0.0015228 6.69455e-22)
(0.993678 -0.00249757 -1.28364e-22)
(1.01837 -0.0115825 -7.7442e-22)
(1.06628 -0.0746446 -5.57663e-23)
(0.999983 -2.84882e-05 -9.61144e-26)
(1.01531 -0.0102619 -8.56933e-23)
(0.999937 -1.99424e-05 -1.47302e-24)
(1.0158 0.0860925 2.35907e-21)
(1.16609 0.00544728 2.12445e-21)
(0.996944 -0.00126412 4.22411e-23)
(0.991137 -0.0011296 -5.96936e-22)
(0.999878 -3.61679e-05 -7.30674e-24)
(0.998019 0.0467925 7.03324e-21)
(1.04136 0.0974206 5.50155e-21)
(1.10302 -0.0169026 -7.42956e-22)
(1.1883 0.0703314 -2.89344e-21)
(0.982002 -0.0343376 -6.18389e-22)
(0.998828 0.0161631 -1.05861e-20)
(0.99996 -8.5828e-05 1.42669e-24)
(1.0303 -0.0248446 9.62692e-22)
(0.988459 -0.000989373 -2.50171e-23)
(1.10409 0.0375539 -9.01551e-22)
(0.937215 0.0551381 -1.00849e-20)
(1.14066 -0.0229661 1.32231e-21)
(1.04591 0.0178947 3.58894e-22)
(0.999778 -0.00814089 -2.01472e-23)
(0.999874 -5.4717e-05 -6.7286e-24)
(1.17647 0.0470787 1.14199e-21)
(1.10967 -0.107515 1.59583e-22)
(0.996579 0.0522283 -2.22588e-22)
(1.07083 -0.030337 1.45009e-21)
(1.03289 0.0386069 3.31889e-21)
(0.995583 -0.00146452 -5.96271e-23)
(0.994646 0.0710294 3.2062e-21)
(1.04541 0.0907853 1.91594e-21)
(0.994419 -0.002092 -3.59795e-22)
(0.995295 -0.00198875 -1.3357e-22)
(1.17914 0.0246988 2.65178e-23)
(0.960199 -0.00882453 -1.73526e-21)
(0.999945 -0.000100751 -2.18415e-24)
(0.992029 -0.00331872 5.6973e-22)
(0.962883 -0.0125131 1.25871e-21)
(0.986738 -0.0442552 -1.8183e-22)
(1.0063 -0.00196389 -5.16069e-22)
(1.00506 -0.00394479 3.37122e-23)
(0.999919 -0.000123829 -4.01503e-24)
(1.04465 0.104084 -8.33275e-21)
(1.0001 -0.00714239 3.41228e-24)
(0.999934 -3.8021e-05 1.3042e-24)
(1.00747 -0.0399032 3.3061e-22)
(0.999685 -0.000276241 7.89879e-24)
(0.999858 -5.14779e-05 5.15613e-25)
(1.00322 -0.00808202 -3.69734e-23)
(1.0657 0.0564968 6.25051e-21)
(0.996996 -0.0641827 6.566e-22)
(0.95445 0.0553232 5.91997e-21)
(1.00004 -9.18893e-06 -1.8218e-24)
(1.0722 0.059052 -6.52502e-21)
(1.00474 -0.0336787 2.71523e-22)
(0.999953 -0.000119736 -6.1863e-25)
(1.00002 -3.50663e-06 -5.25712e-25)
(1.00327 0.00933668 -5.85618e-22)
(1.05729 0.0476342 2.32846e-21)
(0.997543 -0.00154677 3.6906e-23)
(1.04921 0.0350651 -3.00254e-21)
(1.00002 -1.24176e-05 3.81626e-25)
(1.0512 0.0402765 -4.17198e-21)
(1.04159 -0.115755 8.86612e-22)
(0.994113 -0.00186236 3.95572e-22)
(0.999262 0.0244716 -1.44337e-20)
(0.983617 -0.0274148 9.66139e-22)
(1.18822 0.0577029 2.70939e-21)
(0.984078 -0.00259236 2.50212e-22)
(1.05618 0.0418462 5.44674e-21)
(1.06383 0.0494958 -1.68918e-21)
(0.990056 -0.0049498 9.27001e-22)
(0.987089 -0.00594924 -6.84986e-22)
(0.996772 -0.0061669 2.00834e-22)
(0.998239 -0.000458262 -3.12543e-23)
(0.999879 -0.000121664 7.80751e-24)
(1.00004 -0.00672386 -6.00764e-24)
(1.05606 0.0828093 -9.66327e-22)
(0.999982 -2.22999e-05 2.95284e-25)
(1.04384 0.0341092 3.96805e-21)
(1.00368 -0.0672164 1.00702e-21)
(1.00782 0.0508467 2.77808e-21)
(1.04253 0.0301151 -4.51729e-21)
(0.961549 -0.0116675 -1.56429e-22)
(0.961246 0.0711195 -1.25238e-20)
(0.99902 -0.000726541 2.62902e-24)
(1.00923 -0.0184043 1.38257e-22)
(1.02047 -0.057161 2.33865e-22)
(0.987436 -0.00140955 -3.90226e-23)
(0.996101 -0.00207995 1.77851e-22)
(1.00306 -0.0341763 -2.46255e-22)
(1.03662 -0.0210299 -9.9187e-23)
(0.919022 0.0492134 1.59669e-20)
(1.00003 -1.37237e-05 1.93574e-24)
(0.99885 -0.000777847 3.57592e-23)
(1.00333 -0.0484571 1.14522e-23)
(1.00001 -2.99583e-06 6.08836e-26)
(1.0168 0.0931462 1.1704e-21)
(1.00102 -0.000749933 0)
(1.00001 -3.44994e-06 4.42728e-26)
(1.00011 -5.444e-05 8.29761e-24)
(1.00027 -6.46563e-05 1.71727e-25)
(0.990696 -0.0120597 6.71357e-22)
(1.01392 -0.0129745 -3.00854e-22)
(0.999069 -0.000548019 5.61468e-23)
(0.99995 -9.5585e-06 2.77259e-24)
(0.995825 -0.00194955 9.87065e-23)
(1.00258 -0.00844964 -2.73963e-23)
(0.983326 -0.0630198 -1.07091e-21)
(0.964764 -0.00398649 1.23873e-22)
(1.01213 -0.00752854 8.88829e-22)
(0.999983 -1.70978e-06 9.13689e-25)
(1.01847 -0.105705 1.20092e-21)
(0.992194 -0.00228638 -2.27923e-22)
(1.15656 0.0275632 -1.67452e-22)
(1.00045 0.023922 -1.99055e-21)
(1.00074 -0.00230897 1.32257e-23)
(1.13493 0.0263965 -3.29688e-21)
(1.00009 -6.13588e-05 4.27764e-27)
(0.992562 -0.00258821 6.51441e-24)
(1.01763 0.000213732 -1.46898e-21)
(0.996097 -0.00235094 -7.2846e-23)
(1.07213 0.0711281 -3.7704e-22)
(0.992447 -0.00404554 -4.29557e-22)
(1.0319 -0.0241589 -8.26925e-22)
(1.01864 0.00150795 -1.58583e-21)
(1.05759 0.0226114 -9.10179e-22)
(1.00446 -0.0101971 -1.41412e-22)
(0.994002 -0.00268276 1.06429e-23)
(1.09055 0.0469408 2.76615e-21)
(0.982197 -0.0472188 -9.64028e-22)
(1.00425 0.0923326 9.77815e-21)
(0.994674 -0.00300872 -4.16491e-22)
(1.08385 0.100964 -7.65629e-23)
(0.994686 -0.00265422 1.11303e-22)
(0.999304 -0.000328808 -3.67938e-24)
(1.04408 0.0159579 1.01189e-21)
(1.00792 -0.0206185 -3.20193e-23)
(1.02695 -0.000829354 2.19919e-21)
(1.00102 -0.00056446 1.83578e-23)
(1.00001 -2.40228e-06 2.04401e-26)
(0.986254 -0.0725111 3.88392e-22)
(1.15464 0.0887822 -4.32492e-21)
(1.00092 -0.00223712 -1.75145e-23)
(1.14543 0.0208137 3.0108e-22)
(0.992849 -0.00377644 -2.8076e-22)
(1.01361 -0.105317 -3.91349e-22)
(1.02552 -0.0336643 1.03672e-23)
(0.988758 -0.0186427 5.51542e-22)
(0.998989 -0.000642331 -2.36565e-23)
(0.99484 -0.000658113 -8.41565e-23)
(0.980817 -0.0401081 -6.08066e-22)
(0.982845 -0.00555691 9.55707e-22)
(0.994354 -0.00247237 2.94605e-22)
(0.999912 -0.00028067 3.51181e-24)
(0.996996 0.0987688 -1.25629e-21)
(1.12549 0.0202729 1.98557e-21)
(1.01664 -0.00843971 -2.74123e-22)
(0.999881 -9.39012e-05 5.17256e-24)
(1.04175 0.0848739 -3.68336e-21)
(1 -1.50998e-05 4.93619e-26)
(0.999888 -8.19272e-05 1.02357e-23)
(1.11574 0.0246658 1.77083e-21)
(1.00587 -0.0167111 8.94851e-23)
(1.15848 0.0665566 3.39619e-21)
(1.01672 -0.00312555 6.13979e-22)
(1.01111 -0.00923823 -6.26699e-23)
(1.04585 -0.0633863 1.64847e-22)
(1.00734 -0.0843049 9.49501e-22)
(1.17449 -0.0740055 -7.39755e-24)
(1.00077 -0.000557808 -3.99245e-23)
(0.973686 -0.00914631 -9.80163e-23)
(0.999989 -3.63618e-05 -2.19918e-25)
(1.0031 -0.00754126 2.59468e-23)
(1.07488 0.0659585 2.36998e-21)
(0.990558 -0.00464809 6.4675e-22)
(0.99835 -0.000931167 4.96282e-23)
(1.00648 -0.0274492 -1.28359e-22)
(0.99884 -0.000688423 3.37904e-24)
(0.999763 -0.00068776 1.05581e-23)
(0.912596 0.0112921 2.82783e-21)
(0.994363 -0.00324009 -2.35914e-22)
(0.999699 -0.000471095 -3.11667e-23)
(0.999988 -6.22827e-07 -2.05928e-25)
(1.01423 0.00443995 3.1324e-21)
(0.983659 -0.0152415 -1.44491e-22)
(0.999805 -0.000357198 9.21396e-24)
(0.998353 -0.000536388 6.3825e-23)
(1.02059 0.0150403 1.27903e-21)
(1.05416 -0.00370816 2.28977e-22)
(0.977803 -0.01327 -8.19571e-22)
(1 -9.43371e-06 -3.52955e-26)
(1.0022 0.0139254 8.42221e-21)
(0.991709 -0.0105975 -4.61497e-22)
(1.07501 0.0462693 -4.55312e-21)
(1.00833 -0.00107243 -7.82968e-22)
(1.00964 -0.000925601 1.7842e-21)
(0.981857 -0.00685701 1.30409e-21)
(0.999942 -4.22466e-05 -8.56379e-25)
(1.01763 -0.000222171 -2.88067e-22)
(1.05625 -0.00760578 -3.14625e-22)
(1.16635 -0.0469396 6.12905e-22)
(1.00789 -0.0661629 2.05421e-22)
(1.05107 0.0774394 2.875e-21)
(1.00386 -0.00103636 -1.22012e-23)
(1.09917 0.0478282 -3.79654e-21)
(0.99985 -0.00942164 -3.61805e-23)
(1.00568 -0.0378286 -6.50663e-22)
(0.999767 -0.000105442 -1.00335e-23)
(1.00148 -0.0125567 3.42338e-23)
(0.999937 -0.000275713 1.41469e-24)
(1.04236 0.0210727 -2.99245e-21)
(1.11112 0.105651 -8.39552e-21)
(0.999115 -0.000762411 1.88733e-23)
(1.01161 -0.00936814 1.71746e-23)
(0.98979 -0.0028043 2.21806e-22)
(1.01298 -0.060706 7.847e-23)
(1.00892 -0.0621028 -5.03299e-22)
(0.998914 -0.000542889 3.76122e-23)
(1.02742 -0.0241151 -3.33894e-22)
(0.92161 0.00298052 -4.74833e-21)
(1.14708 -0.0540939 4.33692e-22)
(0.999967 -0.000103704 3.09024e-24)
(1.04952 -0.00446479 -8.26849e-22)
(0.998174 -0.00571685 -9.64806e-23)
(0.991623 0.00311228 9.99771e-21)
(0.992871 -0.00331446 3.90923e-22)
(0.996716 -0.0168168 -1.14302e-22)
(1.0086 -0.0249014 -1.51321e-23)
(0.995655 -0.0173027 -1.72274e-23)
(0.998502 -0.0137445 -2.50081e-22)
(0.995556 -0.00212588 6.7847e-23)
(0.99936 -0.00928435 1.38094e-22)
(1.00117 -0.00415796 -2.02015e-23)
(1.03653 -0.0242054 2.24584e-22)
(1.00006 -2.15407e-05 -5.19209e-24)
(1.07059 -0.123218 -3.99679e-22)
(1.10696 -0.0648444 3.89793e-23)
(1.03043 0.102629 6.85252e-21)
(0.97886 -0.0126166 1.24625e-21)
(1.14379 0.0669088 -1.74873e-21)
(1.00119 -0.000452505 6.45162e-23)
(1.02921 -0.0608259 -1.21577e-23)
(1.00065 -0.0248272 -2.51539e-22)
(1.01984 0.0283786 3.69091e-21)
(0.995854 -0.0025453 1.68755e-22)
(1.00007 -0.000116214 3.40432e-24)
(0.992046 -0.0110254 6.02275e-22)
(0.99731 -0.00605106 -7.61417e-23)
(1.02614 -0.0223255 6.94193e-22)
(0.983711 -0.0042528 -8.04293e-22)
(0.986448 -0.00553532 2.25882e-22)
(1.07486 -0.0614613 8.49546e-23)
(0.991369 -0.00181067 -3.86481e-22)
(1.00685 -0.0256355 7.24266e-23)
(0.98692 -0.0468397 6.81688e-22)
(1.00001 -5.23257e-06 3.3901e-26)
(1.03922 -0.0192343 1.24101e-21)
(0.988987 -0.0427598 -1.85294e-21)
(1.14134 0.0454593 1.57296e-21)
(1.04331 -0.0673644 -3.53446e-22)
(1.0256 -0.000869833 1.83973e-22)
(1.00102 -0.0638734 -1.33456e-21)
(1.0576 0.111592 1.83283e-21)
(1.01939 -0.0278497 2.52427e-22)
(0.981111 -0.00631761 -7.73983e-22)
(1.00536 -0.0315738 -2.9919e-22)
(0.959971 0.00458921 4.47916e-21)
(1.05611 -0.106757 1.82905e-22)
(0.992478 -0.00306915 -1.1887e-22)
(0.996223 -0.0762298 -1.02279e-22)
(1.0085 -0.0450137 4.18769e-22)
(1.00527 -0.0751339 -1.7773e-22)
(1.01349 -0.0567355 -4.86653e-22)
(1.08681 0.0404484 3.52564e-21)
(0.998357 -0.00105819 3.29093e-24)
(1.00783 0.0349232 1.3847e-21)
(1.00494 -0.000938336 9.24109e-23)
(0.999763 -0.000356164 -1.31532e-23)
(0.999243 -0.00152849 9.1177e-23)
(1.04352 -0.00778557 -3.00106e-22)
(0.878023 0.00391262 1.39745e-22)
(1.00094 -0.00436845 1.10592e-23)
(1.00646 -0.0355299 9.45976e-23)
(1.0209 0.0168088 -2.12668e-21)
(1.00002 -5.19554e-06 -9.70431e-26)
(0.987715 -0.00561332 5.46671e-22)
(1.01472 -0.00751591 6.39094e-22)
(1.04257 -0.0423099 3.65146e-22)
(1.005 -0.000684447 5.18036e-22)
(0.999036 -0.00127349 1.68609e-23)
(0.9888 -0.0236895 1.9813e-23)
(0.998578 -0.00554882 -2.65064e-23)
(1.00002 -3.12781e-06 1.04225e-24)
(0.984889 -0.0270798 -1.62293e-21)
(1.05974 0.0680266 -1.00094e-21)
(1.01045 -0.0225016 4.88023e-23)
(0.990228 -0.00317312 -4.17201e-22)
(1.00111 -0.000226054 -2.32412e-23)
(1.02373 0.0188233 2.80362e-21)
(0.999773 -0.000409845 -6.04581e-24)
(0.999253 -0.000427621 -1.90558e-24)
(0.999787 -0.000117817 -9.19084e-24)
(0.999541 -0.00141316 -2.30392e-23)
(1.15915 -0.0333616 7.54249e-22)
(1.01539 -0.0271281 3.27241e-22)
(1.0045 -0.0126667 4.89092e-23)
(0.989532 -0.00463493 -1.90778e-22)
(1.00003 -3.41344e-05 1.0206e-24)
(1.0171 -0.0867487 1.23094e-21)
(1.12261 -0.103954 3.0637e-23)
(1.01644 -0.0926766 -5.9014e-22)
(0.99665 -0.0213158 -2.13946e-22)
(1.00862 -0.00647544 5.9032e-22)
(0.999874 -6.51003e-05 4.2558e-24)
(0.993061 -0.00731303 -2.38147e-22)
(0.974833 -0.0261787 -9.87428e-22)
(1.14236 -0.0430298 1.48477e-22)
(1.00603 0.0500751 -9.48117e-23)
(0.999302 -0.00213154 1.85044e-23)
(0.968423 -0.0179444 5.72353e-22)
(0.997189 -0.00183142 -1.60801e-22)
(1.01872 -0.0258047 -4.86928e-23)
(1.09807 0.0309129 3.43598e-22)
(1.00028 -9.12865e-05 -1.8996e-23)
(0.999909 -0.000136163 -1.60866e-24)
(1.18326 0.0335019 2.90743e-22)
(1.12427 -0.0516132 -2.54473e-23)
(1.01183 -0.0114368 2.16478e-22)
(0.998254 -0.00116183 8.47452e-23)
(0.998764 -0.000283678 -8.43859e-24)
(0.978376 -0.0270718 2.4035e-22)
(0.999898 -0.000235211 -5.32838e-24)
(1.0088 -0.0232508 9.32202e-23)
(0.992143 -0.000918443 8.07309e-22)
(1.00092 0.0246832 -1.65505e-21)
(1.06617 0.0726654 -5.20386e-22)
(1.02827 -0.0562889 1.39088e-22)
(0.990987 -0.0435505 6.87446e-22)
(1.0039 -0.00106454 2.58532e-22)
(1.00793 -0.0173887 -2.03723e-22)
(1.10732 -0.0544393 4.66089e-22)
(0.989523 -0.0478055 -4.20062e-22)
(1.00739 -0.030951 1.65598e-22)
(0.999999 -4.63976e-06 3.60188e-26)
(1.09012 -0.0553107 2.11191e-22)
(0.984914 -0.00176872 7.59105e-23)
(0.98768 -0.0523874 8.44596e-22)
(1.01048 -0.0208861 -3.18531e-22)
(0.974841 -0.00870971 -1.74825e-22)
(0.999765 -0.000210889 -4.4915e-24)
(0.998213 -0.000875417 -3.77737e-23)
(1.03819 0.0291448 3.48492e-21)
(0.982745 -0.00646327 -2.93077e-22)
(0.99999 -1.10451e-06 2.16793e-25)