/*--------------------------------*- C++ -*----------------------------------*\
  =========                 |
  \\      /  F ield         | OpenFOAM: The Open Source CFD Toolbox
   \\    /   O peration     | Website:  https://openfoam.org
    \\  /    A nd           | Version:  7
     \\/     M anipulation  |
\*---------------------------------------------------------------------------*/
FoamFile
{
    version     2.0;
    format      ascii;
    class       volScalarField;
    location    "27";
    object      p;
}
// * * * * * * * * * * * * * * * * * * * * * * * * * * * * * * * * * * * * * //

dimensions      [0 2 -2 0 0 0 0];

internalField   nonuniform List<scalar> 
30084
(
0.0160987
0.18225
-0.0159212
-0.0625807
-0.00449981
-0.0670589
-0.024392
0.0156352
0.00370089
0.000325581
0.0104638
-0.00822626
-0.000915006
-5.39383e-05
0.209631
-0.0108488
-0.00034658
0.0889568
-0.00397123
-0.0187901
-0.00161154
0.00347734
-0.0161522
-0.00392241
0.617773
0.181145
-0.000982807
0.526541
0.20245
-0.00293431
0.0287136
0.0878618
-0.10021
-0.011702
0.533115
-0.0126769
0.208023
-0.0482337
0.0103809
0.00998
0.000786786
-0.0298282
-0.00031014
-0.0338287
5.17646e-05
-0.00262955
-0.00743757
0.000124024
0.00606853
0.203115
-0.0297508
-0.0550378
0.0906447
-0.0647094
-0.0106205
0.193277
-0.00631145
-0.00166049
-0.00815505
-0.0299171
-0.000127677
-0.00385728
0.0781719
-0.0111006
0.31455
0.586059
-0.0138393
-0.015172
0.560678
0.000824232
0.179444
0.447372
0.00425594
0.582533
-0.0140394
0.0258543
0.212947
-0.0428477
-9.6177e-05
-0.026427
-0.0597949
0.2399
0.0161126
-4.94196e-06
-0.0208333
-0.126352
0.337268
-0.000950972
-0.000884052
-0.0874883
-0.0395723
-0.0433819
0.00558498
0.0892498
-0.0905886
0.344735
-0.051859
0.000853327
-0.070984
0.239109
-0.000101414
-0.0405833
-0.000123492
0.0641402
-0.0563188
0.155839
0.38935
-0.000850287
-2.09377e-05
-0.0962731
-0.0999363
0.0209111
4.24814e-06
-0.00277563
-0.000304687
0.437608
0.260529
-0.0203546
3.35218e-05
0.00497218
-0.00946877
0.193614
0.00402825
0.583027
0.00201427
0.0292854
0.0949941
-0.0243471
0.00740075
1.21492e-05
-0.0314061
0.205077
0.434794
-0.0213
0.0633485
0.0278894
0.372581
-0.041455
-0.157942
0.232046
0.0382637
-0.0757132
-0.0768394
3.11258e-06
-4.71904e-06
-0.00460089
-0.00696947
-0.0768806
-0.108471
0.128506
0.0471295
0.023306
0.000771227
-0.000264768
0.25097
0.000915012
-0.0137836
0.356746
0.296817
-0.0251108
-0.0573347
-0.0610958
0.199528
-0.000100539
-5.19036e-06
-0.0205015
-0.0739745
7.99735e-05
-7.35464e-06
-0.0124333
3.60524e-05
0.0103392
0.361406
-0.0406303
-0.0771529
-0.00901698
0.00379427
-0.0421667
-0.00224774
0.0157481
-3.29675e-05
-0.00640925
0.334985
-0.014127
-0.157691
0.253217
-0.011233
-0.0311175
0.00695994
-0.00285938
-0.000531194
0.0037487
0.592394
0.247233
-0.0239455
-0.0132063
0.502032
0.224679
-0.0896789
0.00210545
-0.0475496
-0.0852122
-0.00789292
0.00152622
0.370929
-0.0119558
0.0124862
-0.0763577
-0.0980367
-6.56176e-05
0.473195
-0.00191284
-8.97068e-06
-0.00102474
-0.0373152
0.101411
-0.00437858
0.0121623
-0.00389149
-0.0903235
3.55418e-05
0.000807114
-0.00419651
0.12816
-0.0051185
-0.00264062
0.087761
0.000208955
4.80718e-05
0.00953743
-0.0481223
-0.0373136
-0.00844007
0.17762
-0.0255811
0.0245067
-5.63224e-05
-0.00540782
0.00142314
-0.0433356
-0.155591
-0.00253531
0.000824621
-0.00276414
0.0052048
-0.0182269
-9.59658e-05
-0.114255
6.20897e-05
0.130099
-0.00609546
0.00024223
0.15802
-0.0850077
0.000444687
-3.07235e-06
-0.0758232
-0.147523
-0.0155584
-0.0263621
0.0470169
0.322925
0.000130565
-0.0456776
0.00128593
0.514008
-0.014177
0.24956
0.0311124
-0.000449556
0.699722
-0.00101872
-0.0822662
-0.0892824
0.00407385
0.0651529
-0.0145816
0.439093
-0.00626362
-0.0308137
-0.00051314
0.288846
-0.00509177
0.350592
-0.000954492
-0.0103741
0.5022
0.112631
0.0876003
-0.0546733
-0.000293204
0.00506495
-0.000365255
-6.67597e-06
0.126001
6.18339e-05
-0.0335497
-0.00193074
0.624329
0.431122
-0.0750065
-0.0328049
-0.0355092
0.0186987
0.00512552
-0.0315998
-0.0797655
0.329348
0.450538
-0.00235962
0.38357
0.122578
0.00760103
0.0204489
-0.00299756
-0.0143836
-0.00962625
-0.00481029
-0.000116007
-0.00332776
0.0342684
0.295084
0.00296535
-0.0461229
0.0237549
-7.32536e-05
-0.0773311
0.654881
-0.0113208
-0.00259412
0.0218189
-0.0247484
0.164071
-0.00256295
-6.71079e-05
3.72696e-06
-0.00485007
0.505227
0.0457887
-0.155774
-1.88919e-06
-0.154837
0.103805
-0.00918194
-0.0830448
-0.00237328
-0.000832082
-0.0426305
0.00169011
0.0206012
0.0191547
0.188213
-0.00035015
0.00394493
0.192163
-0.00572785
0.000756317
0.000804113
0.433949
-0.0393603
-0.00279561
0.234383
0.522082
-0.0379977
-0.0128063
0.106315
-0.00144319
-0.0151296
-0.00612804
0.220343
-6.27474e-05
0.0184264
-0.09496
0.43924
0.574566
-0.0109077
-0.0159688
0.323297
-0.0310965
-0.000112457
0.170099
0.134913
0.137139
-0.0131305
0.0457816
0.519909
-0.129131
0.474509
0.44422
-1.71936e-05
0.0344032
-0.121296
-0.00539822
0.00302676
0.526524
0.0460623
0.000515522
-0.0592964
-0.0873097
-0.0101704
-0.000245365
0.358261
0.255563
6.94098e-05
0.00766081
0.0101201
-0.0692716
-0.05461
9.79795e-05
-5.44494e-06
0.000921024
0.169463
-0.0478006
0.352865
-0.08544
-0.0317223
-0.037254
0.2299
0.0822993
-0.0022903
0.0151166
0.00157455
0.478351
-0.0442105
0.00204561
-0.0135671
0.0462344
-0.00275323
-0.0220029
0.000428262
0.000438738
0.663184
-0.0146871
-0.00929108
-0.000892695
-0.00140918
0.30896
-0.0950889
-0.0441976
7.78018e-06
-7.19434e-06
-0.0455737
-0.0123198
-0.00956126
0.0316904
0.0115799
-0.00481167
0.0631982
-0.0311227
0.46733
0.00953499
0.000455315
-0.074566
-0.0418755
0.0791046
-0.00631545
-0.0432558
-3.14502e-05
0.561351
0.0358564
0.000141675
0.592477
-0.0457738
-3.34371e-05
0.00275468
-0.076519
0.0224279
0.0808008
-3.71416e-06
-0.0145099
-0.0116573
-0.0098774
-0.000917109
-0.0149664
0.507116
-0.0151068
-0.0212935
0.261997
-0.00524471
0.492386
-3.68212e-05
-0.0289082
-0.0810189
-0.0423119
-0.0225792
-0.00290501
0.00344167
-0.000313762
-0.0337076
0.0173723
-6.90145e-05
1.05446e-05
-0.0115688
0.464798
0.0138931
0.00476738
-0.0893909
-1.16702e-06
0.00186666
-0.000106158
0.0178626
-0.0311155
-0.000763163
-0.014729
-0.022308
0.00196374
-3.89122e-05
0.0194001
-0.000799369
0.0940112
0.410097
0.328037
-0.00767125
0.011386
0.0470478
-0.00020209
-0.00656966
-5.51818e-06
0.448198
-0.0246351
0.0312472
-0.0301929
0.00322546
-0.00587127
-0.000220453
1.27909e-05
-0.00899264
0.0846161
0.30111
0.00237592
-0.067311
-0.04353
-0.0144257
0.12971
-0.00253871
0.00212443
-0.0103353
-0.000204245
-0.0789927
0.332022
0.23806
-0.0396412
0.32582
0.00014356
6.51157e-06
0.169038
0.0740375
0.581242
-0.0715184
-0.0374648
0.0541538
0.00226184
-0.0107801
0.000877801
-0.0191996
-0.0230916
-1.55898e-05
-0.00173518
0.435516
-0.000295242
0.544214
-4.16849e-06
0.0453833
0.0893043
0.0681857
0.00201277
0.000345892
0.456019
0.0988197
-0.0822354
0.244451
-0.0119089
-0.0235783
-0.00764827
0.305858
-0.0449887
0.0218101
-0.0141076
-1.26897e-07
-0.00251238
0.0112297
-0.0313671
-0.0387624
-0.0726493
-0.0316985
0.164565
-0.00409652
-0.0881847
-0.0244494
5.53159e-05
-0.0215274
0.0177426
0.167201
-0.0473986
-9.28317e-06
-0.0323344
-0.000776256
0.002693
-0.126871
0.351884
0.00173882
-0.0212577
-0.0280619
0.114254
0.497306
0.0035009
-0.00859121
0.299103
0.211631
-0.0271274
0.00946225
-0.0795096
-2.61325e-06
-0.0679947
0.000151732
-0.0295422
-6.21026e-05
4.0341e-05
-0.011253
0.0842383
0.410861
0.0191514
0.0222731
-1.24245e-06
-0.0117085
0.000159727
-0.00613101
4.08112e-05
0.0855817
-0.000943644
0.241258
-0.000262623
-0.0226916
-0.060183
-0.00800433
0.494129
-0.0290917
-0.0792671
-0.0105419
0.0780846
-0.0731798
0.0513107
-0.0291166
-3.86595e-06
-0.00949721
-0.0074899
0.000469096
0.000152695
0.304034
-0.00927017
0.123987
-0.00796535
0.00166934
0.0572059
0.000306904
-3.93925e-05
-0.0669389
-0.00662892
4.6871e-05
0.309115
0.631821
-0.000427197
-0.0580131
9.4387e-06
0.528046
0.0428432
-0.0614191
6.95966e-05
0.0226046
0.0969788
0.112547
0.0795885
-0.000791985
-0.000313318
-0.0272391
3.46722e-07
3.62672e-06
-0.0458137
-0.0506961
-0.0714494
0.606108
0.00037617
-0.0524784
0.014721
-3.58114e-05
-0.00239068
4.90002e-05
-0.0112395
7.4373e-05
-0.0261413
0.0496773
0.486834
0.0758916
-0.00056076
0.000872456
-0.078801
0.121542
-0.00592475
1.4212e-05
0.271634
-0.159049
-0.070019
-0.0248983
-4.31374e-05
-0.00055472
-0.165552
-0.0369028
0.200604
0.465149
-0.0777729
-0.0024622
-3.45749e-05
-0.0735108
-0.0990472
-0.000411065
0.00525366
-0.0262158
-0.00883311
0.450689
-0.00253029
0.00690619
0.223443
-0.0142068
0.584049
0.582838
-6.69219e-05
-9.10563e-05
-0.0286344
0.0293863
-0.0563696
0.0101716
-0.0137513
-0.00113465
0.512832
0.236083
0.00437492
0.691929
7.34239e-06
0.153145
-0.0900523
-0.0511185
0.000167284
-0.0583737
0.158344
0.0281388
0.102015
-0.000892867
-0.000958831
-0.00590494
-0.0065609
-0.0240209
-0.0020749
0.184053
-0.0105513
-0.00988276
-0.0902537
0.426981
0.0444368
0.0561741
-0.000798664
-0.00101556
-0.0347331
0.00191302
-0.00493532
-4.12579e-05
-0.000685523
0.158808
0.457856
-0.000260662
0.266779
-1.74213e-05
-0.00632597
-2.92116e-05
0.0104152
0.00819922
-8.40174e-05
-8.68888e-05
-0.0876098
1.20029e-06
0.0817426
-0.0416621
-8.31453e-05
0.244476
-8.02536e-06
-0.000793318
-0.000182345
-0.00948588
-0.000757221
-0.0113965
-0.104516
-0.000674194
0.00819707
-3.99753e-05
0.405159
0.00433392
0.0436229
-0.0528993
-0.038088
-0.0022071
0.00563409
0.278522
-0.0434083
0.256315
-0.0646161
-0.00653652
-5.56106e-06
-0.0106568
0.433362
0.264231
-0.0580883
-0.0799444
0.392231
-0.0153289
-0.0845775
-2.89003e-05
-0.0434467
-0.0016214
0.67256
-0.0755996
-0.000178127
-0.0872002
-0.0442657
0.313637
-0.00487523
-0.0463992
-0.00702878
-0.0104658
-0.00246185
0.312625
-0.153004
-0.0328519
-0.0259354
-0.0224749
0.0107143
0.386249
-0.0317289
0.245275
0.00523986
-0.0181468
0.553235
-0.01557
-0.000457734
0.316076
0.439252
-0.00415587
0.0305808
-0.0120924
-0.0523231
0.299179
-0.0734551
-4.68472e-05
-0.0133997
5.83506e-05
-0.00829911
-4.96602e-05
-0.00839521
-0.00185472
-0.00586702
-0.0515074
-0.00116551
-0.000980047
-0.00208178
0.264165
-0.00388487
-0.0060579
-0.00557168
0.225648
0.00991914
-0.000723178
0.430399
0.575416
-0.0328599
0.512514
-0.0290445
0.407999
0.0102049
-0.0207394
0.00482837
-0.000883122
2.49424e-05
0.00478925
-0.0202722
-0.0327318
0.240105
-0.0378387
-0.0332633
-0.00173247
-0.0378478
-0.0402602
0.0121588
-7.55099e-06
0.0202684
0.186246
0.440111
0.0403306
-0.0223202
0.193225
-0.000654539
0.0620263
-0.0296521
0.0011586
-0.0862675
0.00573873
0.408483
-0.00374528
-0.00100204
-0.000227179
-0.0800038
-0.00225578
0.677381
0.699536
0.0212153
-6.95763e-05
0.0147472
-3.44739e-05
0.10686
-0.000988842
0.0379881
0.62038
0.0836526
2.67697e-05
-0.013687
-2.09838e-05
-0.154777
-0.0555091
0.51487
0.000395848
0.0204244
0.00543624
0.000495684
-0.00396991
-0.000549445
-0.010105
-0.0585143
-0.0374599
0.0121823
0.239355
-0.0217619
0.010975
-0.0328618
-0.00299349
-0.0437843
1.64899e-05
6.95982e-05
-0.00375217
0.0477464
-0.0476853
-0.0260751
-0.00613526
0.00460593
-0.0275785
0.317152
-0.0206588
-6.01932e-06
-0.0814846
0.477623
-0.0215078
-0.0195613
0.125623
-1.17402e-05
-0.00116833
-0.0458124
-5.62404e-05
-0.000771765
-3.52852e-05
0.692462
0.014915
0.00607516
3.83518e-07
2.78506e-06
-1.88927e-05
-2.28838e-06
-0.0360408
0.440744
-0.0553078
-0.000813701
-0.000280494
-0.00855046
0.512757
-0.0790563
0.471491
0.0482691
0.187185
-0.000201333
0.506999
-0.00365511
-0.0151246
0.0295742
0.0141382
0.0160839
0.241766
-0.0635992
0.500456
0.356022
-0.0130318
-0.0438954
0.0045307
-0.0463708
-9.28537e-06
-0.00154044
0.00448417
0.102349
-0.0104774
-0.0362327
-0.00527238
0.601537
-0.103297
-5.84535e-05
-5.00523e-05
0.520833
-0.00789406
0.00396303
-0.0207347
-0.00363088
-0.0239566
-0.0153255
-0.0138852
0.14338
0.0536723
-0.0157738
-0.0223052
0.00011667
-0.0091151
-0.0016903
-0.0124843
-4.79044e-05
7.67089e-05
-0.0273678
-0.0314297
0.495927
-0.0310474
-0.000331622
-0.00242073
-0.000507818
0.427958
-0.0170239
-5.95933e-05
-0.0427292
-0.00708719
-0.00556394
-0.0431064
-0.0497106
0.0104686
0.0867839
-0.0920942
9.85557e-05
0.0091889
-0.0205006
-1.85369e-05
-0.000104801
0.154236
0.118753
0.0316962
-0.0728813
-0.0775015
0.000799031
0.537073
0.000101759
-0.024417
0.452682
-0.0261695
-0.0554947
4.82424e-06
0.000224405
-0.055176
-0.014318
0.00211478
-0.0486652
0.289524
0.341842
0.00103065
0.000369797
0.275566
-0.019092
-1.92791e-05
-0.0022743
-0.0424467
-0.03266
-0.0152546
-0.00295641
0.271129
1.78917e-05
0.105201
0.340846
4.30079e-05
0.0168152
-0.000689866
-0.11428
-0.0204683
-0.00102386
0.0393245
0.000282047
0.28428
0.00210069
0.031682
0.0346709
0.625441
0.420934
-0.0786183
-0.0104106
4.65682e-06
0.0401837
-0.0189746
0.201375
0.386178
-0.0485745
-0.00748047
-0.0225159
-0.00864781
0.184461
-0.000284197
0.505397
0.0348273
6.33026e-05
4.47503e-05
0.000133506
-0.017146
-0.0235408
0.000973511
0.0987902
0.166464
-0.0723618
0.000744434
8.68418e-05
-0.0305419
-5.82297e-05
-0.00376231
-0.0145584
-0.000879352
0.0655764
0.00581339
-0.00179107
-0.0049216
-0.0206206
0.421338
0.431629
0.0496917
-1.59891e-05
-0.000720547
0.303801
-0.000602272
-0.114658
-0.000271959
-0.0254688
-0.100546
-0.000281752
-0.000306678
-0.0415491
0.00179722
-0.000101578
-0.0017075
0.25818
-0.0440217
-5.63779e-05
0.121586
0.407634
0.421255
0.000808673
-0.117167
-0.0117576
0.474592
-0.0833583
-0.0854788
-0.00467622
-0.0161623
0.0366716
-0.032033
0.421159
0.111132
-0.000232086
-0.0672502
-0.0887558
-0.00478628
-2.44158e-06
-0.00226353
0.257439
-0.000256465
0.00209208
-0.00501456
-0.00149776
0.0112375
0.036215
-0.000239707
-0.000164468
-0.00821912
-0.111665
-0.0443407
-0.0926928
0.291866
-0.00231915
-0.000357391
-0.0452792
-0.0296782
0.0122965
0.0167344
7.48403e-05
0.0905063
0.182017
0.0234338
0.0306407
-0.000802033
-0.0165033
0.0575384
0.00162518
-8.61141e-05
-0.0113611
-0.00499038
-0.000931142
-0.0137144
-0.00107099
0.313636
-0.0111491
-0.157493
-0.0294419
-0.0132198
0.0145219
0.525775
-0.0534099
-0.000165416
0.504473
0.203002
0.00956006
-0.00722568
0.00928184
0.0308113
0.195596
0.000423011
-0.00347676
0.620085
0.341067
0.38082
-0.0544929
-0.00174495
-0.00153471
-5.56039e-05
-0.00162472
0.349414
0.102426
-0.00311717
-0.00555834
-0.00046236
-0.00632955
0.590091
0.453702
0.0988722
-0.00350416
-0.0770899
-0.00551077
-0.000910564
-0.0256834
0.0180576
-0.0332454
-0.0043577
0.00110931
-0.110908
-0.113555
0.0371527
-0.0301623
-0.00425779
-0.0314901
-0.000258586
-0.00849649
-0.000867134
0.399894
4.98355e-05
2.16409e-06
-0.0317157
-0.0240103
-0.0348663
0.0477199
3.83039e-05
-0.106816
0.0828834
0.239753
0.662856
-0.00566391
-0.124395
0.0374103
-0.00255492
0.0979329
-0.000751977
0.0128317
-0.000245817
0.313422
-0.0605001
0.0130868
0.167582
0.143924
0.00180065
0.00366609
3.66573e-06
0.47434
-4.68293e-06
-0.0545987
0.000403456
0.00206663
0.222749
0.12615
-0.0916943
-0.047145
-0.00497631
0.698198
-0.0949429
4.59317e-06
-0.0187715
-6.41733e-05
-0.0180955
0.128749
0.24029
0.00108336
-0.0424233
-0.011413
0.183043
0.0754366
-0.0391587
0.605725
-0.0119986
7.52931e-05
-0.153609
0.628107
0.00244996
0.114562
-0.053097
0.184668
0.00230728
0.0424462
-0.0909007
0.0068024
0.0672593
-0.0308218
0.249732
-0.0315041
-0.023359
-0.000989858
-0.000997303
0.550486
-1.40711e-05
-0.00656002
-4.51254e-05
-0.00978549
0.000423828
-0.00881283
0.305497
-3.91927e-06
-0.00125753
0.146301
-0.160827
-0.028484
0.00139286
0.459976
-0.0650836
0.210044
-0.0143246
0.191449
0.00847376
-0.000925428
-0.0341049
0.000933877
0.563066
-0.0325075
-0.0001557
0.00275894
0.175785
-0.01358
-0.000866548
-0.000169855
-0.106325
-0.00316564
-0.0117988
-0.0916755
2.00969e-06
-0.0831993
0.000491977
0.407048
-0.0123408
0.18438
0.00547282
-0.00447678
0.324792
-0.0719799
-0.148314
-0.00525259
-0.115173
0.33408
0.352564
-0.016982
-3.22349e-05
-0.0186286
0.00563031
4.97553e-06
0.0863663
0.438045
0.0153292
0.00193888
0.0117367
-0.0846488
-0.000215968
0.101594
0.0607561
0.0947562
0.016158
0.0337153
-0.000484125
0.216382
-0.047067
-0.167868
-0.0012357
0.0255573
0.180693
0.000977681
-0.0870455
0.264496
-0.0500037
-0.0887343
-0.0891165
-0.105881
-0.109411
0.0647567
0.26575
-0.127253
-9.02837e-06
0.00103844
-0.0170761
-0.00219192
0.0105019
-1.37955e-05
-0.00694826
0.0048339
-9.41591e-05
0.070376
-0.000642739
0.149889
-0.040042
-0.00701974
-0.00835641
-0.0103555
-0.0829993
-0.00710861
-0.00126173
0.025932
0.0975691
0.00553426
-0.0399752
-0.00361497
0.036002
-0.0114668
-0.0232556
-0.088572
-0.0192054
-5.10456e-05
-0.018388
0.502258
3.02675e-05
0.177507
-0.0530551
0.594056
0.059812
-0.0563674
-1.59086e-06
0.00205484
-0.108272
-2.72991e-05
-0.00331327
-6.30296e-06
-0.0925598
0.00550931
-0.101767
-0.027806
-0.000163874
0.326058
0.314892
-0.0432527
0.000548004
-0.000223161
-9.55691e-06
-7.85828e-05
0.539562
-0.00163039
0.00278876
0.0266246
0.0011569
-0.000740876
-0.0899535
-0.000318122
0.0580054
0.00311723
-0.00256108
-0.000922832
-0.0310778
-0.0504971
0.22179
0.130769
-0.000210734
-0.0159747
0.000654395
-0.0647811
-0.000697567
0.169801
-0.0108922
0.694377
-0.0186725
-0.0017965
0.0926635
-0.0230368
0.402237
-0.0512544
-0.0137177
-0.015825
0.0224651
-0.00443025
2.83052e-06
-0.0101697
0.361529
-0.0529553
-0.00400131
-0.0505512
-0.0328461
0.187489
-0.000639438
0.332034
-0.00264588
-0.0809699
-0.00066875
0.0162683
0.0569029
-0.00598133
0.389971
-0.000595963
0.040565
0.109184
0.000588446
-0.000179906
0.581458
0.0877402
-0.0011216
0.0368107
0.0258589
0.000146566
-0.067207
-0.0269918
-0.152093
-0.0127861
0.388368
0.00520285
0.216826
-0.000504273
0.454195
-0.0860416
-0.00653529
0.00763213
0.0385998
-0.0840137
-0.125648
-0.0105474
5.05843e-05
0.638926
-0.0275511
0.000996035
-0.0325275
-0.0482065
0.397431
0.00369279
-0.0199873
-7.57e-05
0.113329
0.00991369
-0.0467695
0.000987641
-0.00432891
-0.0342528
4.00732e-05
-0.0635275
-0.00196246
-0.0181708
-0.0785303
0.340761
-0.0126451
0.0664014
-0.052499
-0.0389076
-4.84865e-05
0.000167834
-0.00469196
4.18745e-05
-0.0138059
0.031162
-0.00257424
-8.14629e-06
0.571084
0.00618902
0.000396765
-5.94954e-05
-0.00267856
0.384438
-0.0642548
0.640344
0.228728
0.0276124
0.33572
-1.53895e-05
-0.0177634
-0.00107002
-0.00310944
0.239277
-0.0124918
0.639822
0.309258
-0.0699912
0.320667
0.0109903
-0.0175707
0.00276061
-0.0537491
-0.00496679
-0.0636422
-0.0683566
-0.00379622
0.316929
-0.0123296
0.000164794
-0.00539119
-0.000851449
-0.0416563
-0.000219714
-0.00159588
-3.78945e-05
0.198922
-0.122449
0.326468
0.0350864
-0.0034534
-0.041341
-0.0248674
0.0910368
-0.00385753
-0.0013533
-0.0805105
-0.0558091
0.0125932
-0.0525192
-0.00564912
0.013384
0.00307109
3.22224e-05
0.173643
-6.12515e-05
0.0709158
-0.00103422
3.51198e-06
0.00246744
-0.000863044
-0.00155428
-0.0198839
0.223976
0.185897
-0.0246594
-0.0157119
0.00359777
-0.00643398
-0.0127602
-3.38613e-05
-0.000636428
0.000845016
0.14312
-0.0107978
-0.0706345
-0.0633342
-0.00284788
-0.0289728
-0.0167494
-0.00218192
0.00658453
-0.0155463
0.295298
-0.0868946
0.00725621
0.00232996
-0.0468892
0.629068
-0.0125075
-0.00622381
0.00967166
0.102969
0.00499057
-0.00415763
0.31854
-0.000477226
0.0559566
-0.0291572
-0.0696895
0.00789764
-0.00471123
-0.00695917
0.0517543
-0.00458004
-0.000807241
-0.000507258
0.00315632
-0.000309951
0.0419953
-0.0117634
-0.00259606
-1.48554e-05
0.201201
-6.13014e-05
-0.0395378
0.0995394
-0.0302214
0.000157209
0.141459
-0.0519974
0.21625
-7.98682e-05
-0.00497355
0.134562
0.000208822
0.00615792
-0.00571081
0.0130283
-0.0257045
-0.0400206
-0.0110501
-0.00340972
0.0123446
0.0258777
0.134022
-0.000247346
0.147376
-0.0497954
-0.00417543
-0.00875532
0.000492538
-0.0751844
8.58367e-05
0.507056
0.274684
-0.000634947
-0.0265514
0.000154632
-0.00275119
-0.00687307
-0.0200714
0.200405
0.207497
0.0261447
0.0126996
-0.0901851
0.0468541
0.0720422
0.0876953
-0.0631576
0.0207151
0.266695
-0.0119891
0.440677
-0.00118529
-0.0136619
-0.0629742
-0.000130345
-0.000968184
-5.53473e-05
0.43748
-0.0129373
0.000319142
-0.0192888
-0.00631115
-0.000422484
-0.0164242
0.34219
0.00119674
0.0136857
-0.0372333
-0.000619494
-0.0057733
-0.00102934
0.648444
0.000250671
2.97365e-05
-0.00241466
-0.0177598
0.136139
0.000657579
0.0170197
0.0981451
-0.000210541
0.00256603
-0.0898574
0.0931392
-0.0547581
8.88719e-07
0.000407486
0.0002742
0.039945
0.368602
0.116997
-0.0419054
1.12985e-06
-0.0674617
-0.00329355
-0.0154867
-0.0149684
0.220271
0.48759
-0.00014335
0.186508
0.289835
-0.0120357
-0.0210473
-0.0289521
-0.0164564
0.000126143
-0.0490263
-0.0106247
-0.000165659
-0.000694242
-0.00198382
-0.00237568
-0.000852661
0.361924
0.386479
0.251795
-6.06646e-06
-0.0284458
0.0570154
0.133118
0.513258
-0.000619213
-0.0245632
-0.0225438
0.363547
-0.023332
-0.0116814
-0.00248986
0.191133
0.000356885
-0.000634223
-0.0311695
-0.0528242
0.183652
0.060646
-0.0509988
-0.0289562
0.138279
0.0249823
-0.0601124
0.00861324
0.0478017
0.190445
-0.000444289
-0.000788837
0.135678
0.000241747
0.0425597
0.039091
-1.60897e-05
0.339876
-0.0130063
-0.00549658
0.665851
-0.0444851
-0.0115186
-0.046157
-0.00320676
0.483638
0.00140336
0.631194
-0.000177752
-0.0185664
0.641634
0.00843069
0.481679
-0.00707282
-1.17812e-05
-0.0303023
0.490909
-0.00196919
-0.00816806
-0.00991796
-0.00125157
-0.0258914
0.492855
0.141284
1.54445e-06
0.0247631
-0.00461287
0.036944
-0.00111286
0.0285211
-0.00324207
-0.000595001
0.469609
0.50307
0.474406
-0.0621436
0.0655359
0.000167557
-0.0677856
0.334141
0.020101
0.000283085
-0.0808979
0.000714575
-0.000137563
0.500298
0.000144811
0.00518542
-0.00239017
-0.0110828
0.478871
0.493635
0.507226
0.0146521
0.000577267
0.258843
0.00930937
0.0312764
-0.0111345
7.98696e-05
-0.0036311
-3.00639e-05
-0.00558821
-0.000929839
-0.00705238
-9.253e-05
0.183687
0.00260241
-0.0901553
-0.0111769
-0.0849434
-0.0197327
-0.000964724
0.402791
-0.0131156
-1.63385e-05
-4.20029e-05
0.621112
3.16194e-05
0.0140064
0.0721513
-0.0216976
0.353981
-0.00639963
-0.0515796
-0.044017
-0.000624811
0.000145319
0.302856
0.504003
-0.00190451
-0.0263327
-0.00029604
0.49842
0.599133
-0.00177679
-0.00794704
0.0237199
0.0037896
-0.0294099
7.2635e-05
0.0124246
-0.0452083
0.0728661
0.406099
-0.00185456
0.035093
0.145431
0.0589923
-0.0526339
0.0347884
0.582229
0.230347
-0.0629106
0.504672
-0.000732881
0.512492
-0.00877173
0.42617
0.0974073
-0.00617535
0.0460375
0.00296009
0.021634
-0.0857993
-0.000829484
-0.0279426
0.426659
-0.0315625
0.0324045
-0.00182313
0.0154957
0.223213
-0.0111139
-0.00396331
0.000856568
-0.00441253
-0.0285948
-0.00263852
0.00242109
-0.0106922
-0.00062105
0.00297614
0.423422
0.00265934
-0.0190699
-0.0699642
-0.0346965
-0.0746094
-0.102323
0.0051247
-3.65849e-06
-1.99135e-05
0.305667
-0.06929
6.79737e-05
-0.0579153
0.211312
-0.0713131
-0.0178385
0.000134667
-0.00232069
-0.0545043
0.178533
-0.0103053
-0.000593344
-0.0543604
-0.0233114
0.644721
0.133063
0.0848199
-0.0617785
-2.57775e-06
-0.0080946
0.0783874
-0.000462217
2.03702e-05
0.202004
0.122698
0.000743425
-0.00105451
0.00953627
-0.0455422
0.0125183
0.00993606
-0.0179566
5.98717e-05
0.338198
0.000698537
-0.000757808
-0.000292004
-0.000272473
-0.000195536
0.0978899
0.00112412
-0.00337744
-0.0113661
-0.00563646
0.0347064
-0.00644849
-0.04875
-0.0123526
0.458878
0.383474
-0.000600289
-0.00177702
0.118617
-0.000993287
-0.024652
0.0862943
0.122005
-0.00117207
0.0247057
0.0481193
0.00156289
0.132513
-0.000131217
0.00889798
-0.0107715
0.0166024
-0.0171286
0.0581791
8.17934e-05
0.00042244
0.000319155
-6.43539e-05
-0.00181085
-0.0114174
-0.0149831
-0.0339301
0.0790741
0.046614
0.0109435
-0.077668
0.0137589
0.00842821
0.0155904
6.56093e-05
0.493179
-0.0096748
-0.00386451
-0.00660524
0.652868
6.54506e-06
0.0997792
-5.56883e-06
-0.0387281
-0.00751245
-0.0251956
0.200609
-0.00467353
-5.21533e-05
0.220843
0.0842579
-0.000662076
0.060741
-1.47127e-05
0.186469
0.00814896
-0.0324008
-0.000177003
0.277732
0.0336024
-0.0234446
3.88606e-05
0.193554
0.351315
-0.00131983
-4.82819e-05
-0.0416482
-0.0103964
0.00925055
0.028385
0.514693
0.303215
0.000551634
0.380985
0.284803
-0.00330002
-0.0630521
-0.0415124
-0.0181469
-0.0649397
0.17458
0.00094017
0.535134
0.174387
0.0145047
0.000103063
0.000726392
9.42955e-06
-0.000659278
-0.00321068
0.571949
2.96472e-06
0.0910423
0.0314293
-0.000270291
0.531903
0.599397
0.224609
0.258607
0.0167947
0.00284966
-0.00033776
-0.0125606
-1.61005e-05
-0.00127292
-0.159108
-3.51226e-05
-0.00206123
0.544452
-0.0131695
-2.46746e-05
0.566113
0.000521471
-0.039719
-0.0804058
-0.00151541
-0.0966282
-0.000275305
0.182985
0.00382627
-0.019151
0.00221954
-0.000760882
-0.000454793
-0.000261606
-0.165226
-0.0686377
0.173717
0.00319665
-0.00526344
0.268638
7.95651e-05
0.626482
-0.000618503
-0.0953595
0.00256802
0.00186786
0.0583424
0.0615077
-2.79775e-06
-0.00468376
0.000115083
-0.000774889
0.00095574
0.0954733
0.0558196
0.35681
-0.0510769
-0.00011866
0.00018614
0.111456
0.389562
-0.00503819
-0.00709681
0.62663
-0.00315949
-0.0230755
0.00103424
0.0908164
-0.04925
-0.00959832
0.177626
0.00150861
-0.000288804
0.00188612
0.0121346
0.616844
0.491723
-0.0269412
-0.0439591
-0.00723548
0.00177965
2.54022e-05
0.0852564
0.229409
1.3091e-06
-0.00819436
-2.31549e-05
0.000145919
0.464681
-3.32937e-07
-0.0910872
-0.0673798
-0.112863
0.0791423
1.95299e-06
0.0112697
-0.00689739
0.430555
0.00913994
0.00565813
-0.0337965
0.000708889
0.390764
0.232115
0.0123856
0.0658473
0.550416
-0.0729532
-0.0665945
-0.00216442
-0.007881
-0.000439173
0.0288097
-8.19179e-05
0.185982
0.00328437
0.225121
-0.0387238
-1.82795e-06
0.0654299
-0.000195436
-9.28355e-06
-0.00086287
0.612237
0.588488
0.352388
6.16931e-05
0.213279
0.510804
-0.00110543
0.00200812
-0.00945406
0.101431
0.494317
-0.0306578
0.136667
-0.00285369
-0.072176
-0.0817636
0.675517
-0.000681676
0.490578
0.0991719
0.212603
0.000120894
0.000232362
0.00607815
-0.0100005
0.0943171
-6.53273e-05
7.03552e-05
0.48156
-0.121405
0.000323427
0.503771
-0.00261431
0.000166462
0.413353
-0.00765416
-0.00172449
0.0301981
0.182844
0.000351481
-0.000153166
0.00392136
-0.0045404
0.478382
0.608605
0.31998
0.659682
0.151327
-0.0511932
0.555759
-9.39888e-05
-0.00360938
0.176152
-0.00384823
-0.000738066
-0.000116853
0.502444
0.0353667
-0.00073378
0.592935
0.0843422
0.282021
0.0489482
-0.00305233
-0.0229432
0.182474
0.0836787
0.501453
-0.0265628
-0.000884243
0.462235
0.430707
0.0148489
0.363305
-0.0434508
-0.00868676
-0.0103492
-0.000721627
-0.0001615
0.467194
-0.0700006
0.0299254
0.000947238
0.175135
-0.0348042
-0.0193948
-0.00110632
-0.00417835
0.520255
-0.000902329
-0.0192497
-0.00334891
0.512595
-0.0213719
0.0223186
-0.00832782
0.00155288
0.169767
-0.024304
0.531151
0.157742
0.656894
0.27227
-0.0662773
0.0346575
-0.00199695
0.0149259
-0.0156567
0.485139
0.516485
0.575585
0.352146
0.471828
-0.000422301
0.545623
-3.83773e-05
7.23023e-05
-0.0530674
0.587882
0.0557995
0.27155
-5.3568e-06
-0.00240989
-0.054882
-0.0390819
0.476946
-0.000765976
-0.00852809
0.35211
0.00115122
-0.00470299
0.636953
0.0522753
-0.0458681
-0.137151
-0.000608584
0.0927825
0.152075
0.664922
0.124969
0.0680333
0.00475061
-0.000268501
-0.00577746
0.209138
0.00667451
0.000140133
-0.0892462
0.261397
-0.00165623
0.491708
-0.0815799
0.496948
-0.0238968
-0.025205
0.552864
-0.00591023
0.0635544
-0.000457552
-0.00147535
-0.069993
-0.0246655
-0.0397373
-0.0106988
0.0105267
-0.0979542
-0.0777588
0.495136
0.000280678
0.000829268
-0.0223084
0.131805
-0.108706
-0.0645093
-2.23283e-07
-0.0936886
0.0517042
-0.000121656
-0.0940404
0.00884429
0.500867
-0.111853
0.490305
-0.0149614
0.13175
0.266517
-0.03807
0.343029
-0.00194563
0.121345
0.00111149
0.0926358
0.211432
0.186607
-0.0308481
0.00670892
-0.000735672
0.190905
-9.5776e-05
-0.000148867
-0.00115533
0.00472251
0.0180142
0.0162576
0.42109
0.171831
0.619369
0.391307
-0.00169698
-0.0352887
-0.000191913
-0.0520258
-0.00133412
0.00627532
0.000692704
-0.0357523
0.349814
0.488801
-0.000326016
2.20211e-05
0.0603881
-1.71391e-05
-0.00992307
-0.000206886
0.147701
-0.0384075
0.198721
-0.100965
3.72385e-05
-0.015036
-0.0430634
-0.0271746
-0.0177532
-0.0566004
0.0651203
-0.000184945
-4.10252e-05
0.00225241
-0.000157571
0.0892323
0.119699
0.0427674
0.57687
0.0484361
-0.146701
-0.0938433
-0.000487953
0.0549079
-0.00014205
0.463622
0.105448
0.539168
0.000147072
-0.0351326
-0.00736479
0.0539823
0.222535
0.426961
-0.00818244
0.0354907
-0.0020832
-0.0203061
-0.00865067
-0.00658794
0.112823
0.00170395
-0.00868607
-0.0218227
0.27197
0.072636
2.75354e-06
-0.000972698
-0.00670358
-0.000667717
0.126371
-0.000733893
-0.0316995
0.161801
8.05522e-05
0.271218
9.11696e-05
-3.8014e-06
-0.0991735
-0.0193095
0.000172609
-0.0241258
0.000170793
0.561766
0.0133661
-0.0259297
0.523827
0.133272
-0.0336179
0.414436
-0.00299035
-0.00203864
-0.00226115
0.0912444
0.697709
-0.0016247
-0.000667071
-5.69513e-06
0.00842218
-0.00136516
0.0271301
0.00656766
-0.0223912
-0.0632413
0.0197588
0.0114165
-0.0200009
-0.000592968
-0.00782618
0.412153
-0.00196656
-0.0147284
-0.000257554
0.422538
0.0584121
0.407771
0.000458705
-0.000928835
-0.0254168
0.578624
0.1524
-0.030195
-0.000148192
0.0336225
0.115132
-0.0225673
0.212415
-0.0507951
0.0212129
-0.153363
0.427009
-0.0171697
0.256528
-0.00341807
0.662156
-0.0438497
-0.0117745
0.530159
-0.0457339
0.171777
-0.167066
0.189918
0.00688588
0.0529421
0.334781
0.0528519
-0.0511632
-0.0103653
-0.0080797
-0.013873
0.00423452
-0.00160154
-0.0604932
-0.0301095
0.00210056
-0.0701726
-0.0886948
-4.4809e-05
0.152077
-0.00975473
0.159581
0.534716
0.381108
-0.0569858
-0.0762273
0.000481743
-0.0824983
-0.00460541
0.641705
-0.0375322
-0.0322338
0.376235
0.0506111
-0.0425386
0.246068
-0.0392787
-0.000709411
-0.0125267
0.0107221
0.000685713
0.394897
-0.00292133
0.147054
0.348708
-0.00612058
0.24618
-0.111655
-0.00041045
0.00714269
0.0965295
0.36141
-0.00272887
0.0901191
-0.0755484
0.076032
-0.0244646
0.384724
0.00847302
-0.0662421
-0.00328521
0.000191358
0.488042
-0.00265476
-0.0324429
-0.000122684
0.214962
-7.32592e-05
-0.0500333
-0.00220665
-0.142593
0.000681523
-0.0108621
0.21229
-0.00420072
0.000988595
0.000660185
-0.00442434
0.0648002
-9.21833e-05
-2.97606e-05
-0.00910947
-0.0112824
-0.024193
0.00867769
-0.00206634
0.0787458
0.0831561
-0.00138247
0.00108709
-0.000221654
0.481756
-0.0045288
-0.00742975
0.420798
-0.0195988
0.389421
0.05409