/*--------------------------------*- C++ -*----------------------------------*\
  =========                 |
  \\      /  F ield         | OpenFOAM: The Open Source CFD Toolbox
   \\    /   O peration     | Website:  https://openfoam.org
    \\  /    A nd           | Version:  7
     \\/     M anipulation  |
\*---------------------------------------------------------------------------*/
FoamFile
{
    version     2.0;
    format      ascii;
    class       volVectorField;
    location    "36.5";
    object      U;
}
// * * * * * * * * * * * * * * * * * * * * * * * * * * * * * * * * * * * * * //

dimensions      [0 1 -1 0 0 0 0];

internalField   nonuniform List<vector> 
7807
(
(1.09167 0.120219 2.82472e-20)
(1.08252 -0.0215288 8.73727e-20)
(1.0612 0.105063 -4.58109e-20)
(1.06328 0.083676 9.1124e-20)
(1.03823 -0.00153992 1.40526e-20)
(0.910437 -0.00497823 1.06074e-20)
(1.0628 0.10578 -9.10651e-20)
(1.00375 -0.000668462 3.50172e-22)
(1.03639 -0.00133246 1.24753e-20)
(1.04065 0.0041545 -7.81746e-21)
(0.977916 -0.0075016 -1.18272e-20)
(1.03859 -0.00196428 -2.23247e-20)
(0.947357 -0.00158219 -2.14694e-20)
(1.04472 -0.000425974 -9.25946e-20)
(1.03914 0.00409304 3.26347e-20)
(1.03255 -0.00877648 3.46118e-20)
(1.0922 0.124095 -5.99486e-20)
(0.920462 0.00194937 6.01313e-21)
(1.03967 -0.00558803 -1.7546e-20)
(1.02402 -0.0782374 7.43912e-21)
(1.05755 0.00660076 -2.49498e-20)
(1.0383 0.000160171 6.34906e-20)
(1.04624 -0.00125148 1.19812e-20)
(1.0168 0.0492267 -5.55468e-20)
(0.878632 0.00473309 2.14808e-20)
(1.08908 0.118548 -2.83563e-20)
(1.03845 -0.00136458 1.17463e-20)
(1.04726 0.000994799 3.05195e-20)
(1.00728 0.023209 -8.07599e-21)
(1.0399 -0.00572834 1.56587e-20)
(1.02858 -0.00897472 4.94147e-20)
(0.46974 0.00877891 9.41153e-21)
(1.0458 -0.00139058 6.45884e-20)
(1.03627 -0.0022082 -2.68601e-20)
(0.434734 0.00116514 -1.13116e-22)
(1.04352 0.00347721 1.24584e-20)
(1.04057 -0.00676825 1.15325e-20)
(1.06124 0.105712 -1.547e-20)
(1.03518 -0.00500555 -6.25279e-20)
(0.824697 -0.00310086 -3.3226e-20)
(1.03551 -0.00506201 6.29202e-21)
(1.03263 -0.00831396 1.29148e-20)
(1.05078 -0.0861414 -3.52826e-20)
(1.16823 -0.0104765 -1.23658e-20)
(0.405307 -0.000703228 -1.57739e-20)
(0.860216 0.00863807 6.81381e-21)
(1.03736 0.00030384 -3.86209e-20)
(1.0359 -0.00452842 3.6807e-20)
(1.03184 -0.00378842 6.80984e-21)
(1.0282 -0.0788017 -1.09535e-20)
(1.039 -0.00152769 1.78039e-20)
(1.04791 0.00140648 -3.29574e-20)
(0.821443 0.00404686 5.83069e-20)
(1.04634 -0.019135 1.25491e-20)
(1.04405 0.00309228 -9.58417e-21)
(1.03368 -0.00269356 6.38131e-21)
(1.03886 -0.0048005 2.7677e-20)
(0.967828 -0.000700514 -4.11026e-20)
(1.01971 -0.0106662 5.65148e-20)
(1.03593 -0.00255307 3.26308e-20)
(1.03465 -0.00125326 -1.64601e-20)
(1.04027 -0.000216046 1.69161e-20)
(1.04519 -9.64723e-05 -2.09321e-20)
(1.03812 -0.0013306 2.27953e-20)
(0.843678 -0.00919263 -2.35391e-20)
(1.02899 -0.00943278 -7.88966e-21)
(1.03559 -0.00164602 -1.15994e-20)
(1.03267 0.000214929 1.67634e-21)
(1.15195 0.085801 2.83074e-20)
(1.03609 -0.00410591 1.48284e-20)
(0.957158 -0.00251596 -6.17715e-21)
(1.01469 -0.0419403 6.61935e-20)
(0.933875 0.00022778 -1.05709e-20)
(0.729345 -0.00269071 -8.97764e-21)
(0.965873 0.000478149 -1.88661e-20)
(1.00471 -0.0183993 9.03392e-21)
(1.06129 0.105804 7.33957e-20)
(1.05612 0.00596346 3.13543e-20)
(1.10352 0.020077 -6.40533e-20)
(0.99874 -0.0322948 7.48911e-20)
(0.98523 -0.00330589 3.31243e-20)
(1.02997 0.11603 1.04651e-19)
(1.05899 0.0187912 5.49165e-20)
(0.939353 -0.00250321 -4.03991e-20)
(1.0361 -0.001998 1.89887e-20)
(0.695883 -0.00202788 -1.00769e-20)
(1.02448 -0.00288425 -5.49427e-20)
(0.881725 -0.000465785 -3.72161e-20)
(1.03738 -0.00133125 -1.60774e-20)
(0.692244 -0.00528211 -1.96472e-20)
(1.00767 0.0263037 5.73219e-20)
(1.19268 0.00888725 1.91675e-20)
(1.02354 -0.00303467 1.15312e-20)
(1.03871 -0.00440111 1.29317e-20)
(0.974238 -0.00351037 -2.35194e-20)
(0.466201 -0.00338206 6.9579e-20)
(1.01678 -0.0417506 -3.98652e-21)
(1.04755 -0.0180142 -2.16264e-20)
(1.03584 -0.00193155 -3.79815e-21)
(0.78336 0.01014 -6.82883e-21)
(0.804971 -0.0108949 -1.90477e-20)
(1.10366 0.0246831 4.81824e-20)
(1.00652 -0.0011503 5.8149e-20)
(0.452031 -0.000682438 1.08637e-21)
(1.19334 0.0196451 1.20818e-20)
(1.0449 0.0473931 -5.50737e-20)
(0.700099 0.0425947 1.27613e-20)
(1.03103 -0.00291234 2.43566e-20)
(1.03118 -0.00141584 -5.55558e-22)
(1.05366 -0.00466104 -2.64644e-20)
(1.06439 0.0803232 -1.05761e-19)
(1.06382 -0.0584295 6.68279e-20)
(1.03229 -0.0015051 6.99292e-22)
(1.05504 -0.00445575 -5.74186e-21)
(1.04049 0.0459013 5.74917e-20)
(1.03686 -0.000336029 -8.64339e-21)
(1.10851 -0.0657173 4.87144e-21)
(1.04487 0.0300971 -1.52271e-20)
(1.02521 -0.0323353 -4.05744e-20)
(0.815988 0.000251471 9.61577e-21)
(0.5851 -0.00473153 4.49104e-20)
(1.00838 0.0548547 -6.97343e-20)
(1.05692 -0.0843083 4.84753e-20)
(1.04294 -0.00358056 7.39981e-21)
(0.664208 -0.00664144 -1.76261e-20)
(1.03723 -0.00144184 -3.41566e-20)
(1.03032 -0.00630143 -1.81234e-20)
(1.03894 -0.00487537 -2.12422e-20)
(0.685426 0.0120295 5.48587e-20)
(1.02916 -0.00796865 -1.19096e-21)
(1.2252 0.000988277 5.51251e-21)
(1.09869 0.0173579 1.07478e-20)
(1.03702 -0.0028331 -2.52223e-21)
(1.03709 -0.00140849 3.57018e-20)
(0.892843 -0.00317662 -1.15706e-20)
(1.06066 0.075452 4.20584e-20)
(1.03485 0.11879 1.19222e-19)
(0.67798 0.0109838 1.84635e-21)
(1.04263 -0.00172636 4.05798e-21)
(0.485591 0.00526592 4.88034e-20)
(0.608744 -0.00301048 3.97704e-20)
(1.02951 -0.0470666 5.07862e-20)
(1.00745 -0.0201208 -1.21077e-20)
(0.719346 0.000389055 7.06305e-22)
(0.553928 0.00293707 5.06427e-20)
(1.0493 -0.0317311 3.31521e-21)
(1.01619 0.0301129 -3.05824e-20)
(1.02248 -0.0138897 3.03471e-20)
(0.516315 0.00363676 -8.64801e-21)
(1.01209 0.0839067 -3.47873e-20)
(1.04502 0.00353557 3.63896e-20)
(1.18204 0.00404303 8.44726e-21)
(1.03706 -0.00124144 5.35242e-20)
(1.15709 0.0799525 6.713e-21)
(1.05688 0.0178374 -5.81923e-20)
(1.06068 0.104026 -7.97788e-20)
(0.998917 -0.022435 -3.26111e-20)
(0.85013 -0.00551982 -8.23641e-21)
(1.04919 0.0828606 1.16049e-19)
(1.02903 -0.010985 7.44869e-21)
(1.0387 -0.00452803 -3.22701e-20)
(1.01727 0.0539454 3.81784e-20)
(1.03237 -0.00198196 -8.88945e-21)
(1.03645 -0.00325777 6.46781e-20)
(0.919776 0.00246792 1.03035e-20)
(1.00673 0.0560259 -1.15223e-20)
(1.00358 0.0374572 4.14956e-20)
(1.03298 0.075337 3.60372e-20)
(1.03623 -0.00343206 2.79746e-20)
(0.624727 0.00125601 1.33578e-20)
(1.03375 0.000816893 -1.67847e-21)
(0.365514 -0.00287808 7.17216e-20)
(1.03712 -0.000499002 1.15531e-20)
(1.08365 -0.0180009 -1.02231e-19)
(1.04249 -0.00194159 2.64525e-20)
(0.6055 -0.00232622 -1.67167e-20)
(1.18376 0.0269835 2.26187e-20)
(1.11608 0.0820574 2.30331e-21)
(1.03387 -0.00305662 -6.71295e-21)
(1.03723 -0.00178825 3.3018e-20)
(1.06566 0.0857323 -1.51591e-20)
(0.970756 -0.00408953 2.95381e-21)
(0.618562 -0.012214 -3.87975e-21)
(1.06242 0.104532 -7.47541e-20)
(1.08507 -0.0241585 4.4252e-20)
(1.05011 -0.0487672 4.27169e-20)
(1.0268 -0.0311547 5.8235e-20)
(0.892668 -0.00184245 -2.92134e-20)
(1.0469 -0.0331036 -8.18026e-21)
(0.443599 -0.00271432 -2.6074e-20)
(1.03172 -0.00223543 2.809e-21)
(1.01749 -0.0387732 1.62939e-20)
(1.11764 0.087889 -4.29125e-20)
(1.02529 -0.0012258 -8.34358e-21)
(1.03571 -0.00041921 -8.20608e-21)
(1.09437 0.0844337 3.38502e-21)
(1.00408 0.00282191 -5.36039e-20)
(1.02984 -0.00759243 -2.70264e-20)
(1.04427 -0.0312379 -2.93236e-20)
(1.03417 -0.000630693 -7.03509e-22)
(1.03744 -0.0014312 -2.78585e-20)
(1.05732 0.0764883 4.76998e-20)
(1.10739 0.0918101 -4.863e-20)
(1.05793 0.105812 -1.04689e-20)
(1.10357 -0.0601347 -2.74678e-20)
(1.06694 -0.0546826 -1.37482e-20)
(1.15727 -0.0860364 6.9937e-21)
(1.04624 -6.55167e-05 8.2368e-20)
(1.05284 0.0743951 -1.76479e-20)
(0.57702 -0.0160364 1.62277e-20)
(1.03543 -0.000760367 4.76121e-21)
(0.41986 0.0433291 -5.31796e-20)
(1.03331 -0.00811722 1.40239e-20)
(1.03685 -0.00315766 2.24028e-20)
(1.01947 -0.0381408 -3.77144e-20)
(1.02988 -0.00666039 2.0103e-20)
(1.0604 0.100116 -9.56006e-20)
(1.05844 0.101212 -2.13033e-20)
(1.02715 -0.0483897 -1.31109e-20)
(0.738593 0.0250934 -3.82793e-20)
(1.02753 0.00184541 4.06127e-20)
(0.85244 -0.00152562 -2.12445e-20)
(0.745571 -0.00921303 -2.46792e-20)
(1.05416 0.0101006 -1.62903e-20)
(1.05733 -0.111988 3.24746e-21)
(1.10542 0.121411 -6.76714e-20)
(1.04339 0.0805633 -1.01224e-19)
(1.03507 -0.00133219 1.1938e-20)
(1.04247 -0.00350159 9.75852e-21)
(1.04193 0.0332215 7.96289e-20)
(1.03595 -0.00376325 4.90737e-20)
(1.04836 0.0307494 -1.04949e-20)
(1.03724 -0.00130792 1.16625e-20)
(0.965327 0.0614238 7.06243e-20)
(1.0593 0.103791 1.64699e-20)
(1.00938 -0.00166159 -3.35461e-20)
(1.03977 -0.00496874 -1.93612e-21)
(0.895455 -0.00338101 6.3375e-20)
(1.13301 0.106379 2.29752e-20)
(0.599826 0.010554 -1.14125e-20)
(1.03485 -0.00621684 -1.3736e-20)
(0.878726 -0.0186568 -2.83627e-20)
(1.02186 -0.00610933 2.55561e-21)
(1.03623 -0.0021855 1.40881e-20)
(1.03723 -0.00139828 -1.29362e-20)
(1.08679 0.0606599 5.33001e-20)
(1.03328 -0.00212916 -1.16199e-20)
(0.561449 0.00364648 -7.092e-23)
(1.00183 -0.0324461 -8.73744e-20)
(0.363288 0.0127617 -2.05477e-20)
(1.09843 0.0128184 -1.58518e-20)
(0.957342 0.0560965 5.64872e-20)
(0.826198 0.000835566 8.34793e-21)
(1.04223 -0.032049 -2.49966e-21)
(1.03632 -0.00204645 2.57937e-20)
(1.06117 0.104778 -7.61101e-20)
(1.03921 0.000312054 -2.08883e-20)
(1.04701 0.152709 3.748e-20)
(1.03951 -0.00620572 -5.19797e-20)
(1.03803 -0.00125299 3.54633e-20)
(1.06184 -0.0193939 -3.97965e-20)
(1.0456 0.000706394 -7.6792e-20)
(1.0371 -0.000516724 1.78508e-20)
(0.916695 -0.00541063 -1.19861e-21)
(1.03708 -0.000693978 4.50753e-20)
(1.03599 -0.00395577 4.14539e-20)
(1.05687 -0.0503916 -5.31291e-20)
(0.937131 -0.00744707 -5.46412e-21)
(1.00098 -0.0213618 -2.38487e-20)
(0.975227 0.000152882 2.22793e-21)
(1.00547 -0.00405795 -1.22069e-20)
(1.03725 -0.00291784 -6.72768e-21)
(1.06279 0.139362 8.92793e-20)
(0.513711 -0.00248426 -9.89461e-21)
(0.669909 0.00586337 6.03292e-21)
(0.272945 0.0231938 8.71974e-20)
(1.0361 -0.00235901 2.6731e-20)
(1.08513 0.100481 -3.66056e-20)
(1.03627 -0.00206285 -3.76115e-20)
(1.04328 -0.0139711 3.8283e-20)
(1.03487 0.000902135 -5.26099e-22)
(1.02475 -0.0251974 2.5008e-20)
(1.05409 0.00922562 2.35236e-20)
(1.18402 0.0357154 -5.23629e-20)
(1.02039 -0.0120103 -4.84277e-20)
(1.03673 -0.00182604 -4.12086e-20)
(1.02284 -0.0646811 -1.88017e-20)
(0.129497 0.000234472 -2.66166e-20)
(0.569597 0.01603 -1.79932e-21)
(1.03715 -0.000656022 -3.99956e-20)
(1.03657 -0.00244422 -3.10258e-20)
(0.795137 -0.00979936 3.16815e-20)
(1.03989 -0.00088881 -3.44542e-20)
(1.03679 -0.00137825 -1.7832e-20)
(0.941633 -0.00173824 -6.81573e-21)
(1.06081 -0.0479871 3.57033e-20)
(0.890685 5.94495e-05 -2.96414e-20)
(1.1609 -0.00419052 3.54265e-21)
(0.782803 -0.00270736 3.14466e-20)
(1.06504 0.105564 8.60048e-21)
(1.06403 0.106408 -6.46205e-20)
(1.03607 -0.00031707 2.81681e-20)
(1.20265 0.037283 6.58398e-20)
(0.998642 -0.00165565 7.41643e-22)
(1.03673 -0.00299923 3.30187e-20)
(0.33153 0.0035471 -7.17508e-20)
(1.01226 0.0437195 3.27025e-20)
(1.05943 0.0241426 -4.84652e-20)
(1.03507 -0.00157088 1.6293e-20)
(1.03674 -0.00254429 4.80903e-21)
(0.84513 -0.00276265 -2.37355e-20)
(1.07202 0.0562243 -2.15891e-20)
(1.03734 -0.00142273 -1.93391e-20)
(1.03826 -0.000880725 1.58399e-20)
(1.03787 -0.000507612 -3.70628e-21)
(1.13964 0.0444291 5.49785e-20)
(1.22593 -0.0105733 3.39839e-20)
(1.07223 0.113642 4.26162e-20)
(0.754792 0.00355254 2.66873e-20)
(1.09315 -0.0210785 -8.65306e-20)
(1.03472 -0.00238406 1.18579e-20)
(1.04044 -0.00454645 -5.44161e-20)
(0.976309 -0.00282413 2.60899e-21)
(1.02725 -0.0135264 -8.33117e-21)
(0.909518 -0.00265991 1.08243e-20)
(1.04662 -0.0130503 5.35364e-21)
(1.22055 0.0428209 -5.5552e-20)
(1.01653 -0.01939 -4.72855e-20)
(1.04417 -0.0132553 -1.11714e-20)
(1.04174 -0.00295601 -1.60815e-20)
(0.809689 -0.00783192 -2.82235e-20)
(1.05625 -0.0076648 1.75598e-20)
(1.0358 -0.0119702 -2.44618e-20)
(1.09788 0.0285725 -2.40168e-20)
(1.0821 0.059084 2.58751e-20)
(1.20326 -0.086658 -4.43325e-22)
(1.16677 -0.0196954 3.08979e-20)
(0.232567 -0.00159218 2.84851e-20)
(1.04046 -0.00195531 3.80955e-20)
(0.88244 -0.0173545 1.16345e-20)
(1.00371 0.067263 -1.12871e-19)
(1.1491 -0.023374 -5.46738e-20)
(1.05394 -0.00172087 -5.20236e-20)
(0.827206 0.0373533 -5.33009e-20)
(0.655245 -0.0121214 -1.31913e-20)
(1.03636 -9.34825e-06 7.7031e-21)
(1.18048 -0.00571153 3.06232e-20)
(1.03702 -0.001698 1.58101e-20)
(1.04931 -0.0290365 -1.13527e-20)
(1.04078 -0.00188039 1.21466e-20)
(0.707152 -0.00206706 1.22547e-20)
(0.761316 -0.000327033 2.56295e-20)
(1.0489 0.0409908 4.3707e-20)
(1.03556 -0.00159566 5.05655e-21)
(1.03715 -0.000262396 -1.57171e-20)
(1.035 -0.000313493 1.41549e-20)
(0.812369 0.00600611 -5.58602e-20)
(1.03432 -0.00560354 -3.70878e-20)
(0.934241 0.00154732 -1.67122e-22)
(0.92228 0.00533399 -3.8838e-21)
(1.02092 -0.00985617 -1.75545e-20)
(0.634771 0.0131256 2.98793e-20)
(1.04568 -0.0139763 -2.40478e-20)
(1.03351 -0.00756984 -5.18896e-20)
(1.07903 0.0981368 1.48514e-20)
(1.00416 0.043397 6.68873e-20)
(1.08887 0.0172269 -2.30381e-20)
(1.19469 0.0410994 -2.51092e-20)
(0.268913 0.00483321 -3.90644e-20)
(1.04049 -0.00232871 -1.99152e-20)
(1.01928 0.0739287 -3.3248e-21)
(0.758916 -0.00267443 4.55824e-20)
(1.0742 0.10111 1.75805e-21)
(1.04678 -0.0359808 -1.40809e-21)
(1.07954 -0.0954138 1.55926e-20)
(1.10391 0.089214 2.99914e-20)
(1.07581 0.103749 -4.17124e-20)
(0.998401 -0.0178631 -5.63233e-20)
(1.06093 0.0219298 -3.41964e-20)
(1.10807 0.125149 6.35489e-20)
(1.08156 0.100945 6.52625e-20)
(1.04778 0.00205146 2.65121e-20)
(1.03117 -0.000984771 -1.37796e-20)
(1.03357 -0.00275914 -9.46015e-21)
(0.991041 0.00068722 6.06033e-21)
(1.05093 -0.0171439 1.65516e-20)
(0.661232 0.00441428 -1.00647e-20)
(1.03732 -0.00204438 -2.02187e-20)
(0.913504 0.00104854 1.06029e-20)
(1.03153 -0.000300961 -1.06793e-20)
(1.02024 -0.0634634 3.10434e-20)
(1.12427 0.052934 2.03932e-20)
(0.948457 -0.00255876 4.39055e-20)
(1.0369 -0.00758193 -5.91129e-20)
(0.814033 0.00295031 2.95392e-20)
(1.09095 -0.0240558 3.04677e-21)
(0.832281 -0.00620459 5.64696e-20)
(1.03874 -0.00429325 3.86245e-20)
(1.11798 0.12275 1.00389e-20)
(0.801842 0.00413713 6.39675e-20)
(1.03422 -0.00227476 9.79777e-21)
(1.03587 -0.00160864 3.51946e-21)
(1.0351 -0.00151724 2.25625e-20)
(0.943163 -0.00153815 -1.6784e-20)
(1.04669 0.0381868 -5.49553e-20)
(0.668782 -0.00535135 -7.62902e-22)
(1.05105 -0.00258374 3.55598e-20)
(1.06618 -0.116804 -2.3057e-20)
(1.06083 0.107351 -1.77006e-21)
(1.03992 -0.00476024 2.06497e-20)
(1.04193 -0.00283712 -3.58651e-21)
(1.03095 -0.00257784 2.7406e-20)
(1.04878 0.135483 -8.80613e-20)
(0.667382 -0.000131566 -1.43229e-20)
(1.07363 0.115828 -2.21083e-20)
(1.0125 0.0308032 -5.62982e-20)
(0.948785 -0.00333858 -1.14868e-20)
(1.04497 -0.036899 3.21216e-20)
(0.892964 -0.00431068 2.70155e-20)
(1.03269 -0.0478617 -6.38094e-20)
(1.03678 0.000147661 1.51014e-20)
(1.08397 0.0193663 3.11815e-20)
(1.04249 -0.00981223 -1.15643e-21)
(1.04157 -0.0022747 5.98069e-21)
(0.845579 -0.00518057 3.6355e-20)
(1.09109 0.058126 2.78496e-20)
(1.06734 0.0551763 8.11261e-21)
(1.04851 -0.0513126 -3.6115e-20)
(1.02219 -0.0125109 3.14638e-21)
(1.0367 -0.00263279 2.18289e-20)
(1.0397 -0.028721 7.41999e-20)
(1.15409 0.0714845 -4.13495e-20)
(0.566909 0.0184246 -4.69943e-20)
(1.12002 -0.0516291 2.53899e-20)
(1.04093 -0.00478848 -1.13209e-20)
(1.03226 -0.00130462 5.56508e-22)
(0.98308 -0.00189535 4.29173e-20)
(0.771024 -0.00181876 -5.14427e-20)
(1.05557 -0.00809802 2.90566e-20)
(1.04772 -0.0913116 1.26485e-20)
(1.2035 0.0257584 -2.49007e-20)
(1.06665 0.110928 -1.0041e-19)
(1.07568 0.0527756 3.88199e-20)
(1.15725 -0.0747211 -2.5696e-20)
(1.09456 0.0892372 1.1556e-20)
(1.01418 0.0777391 1.09506e-19)
(1.04804 -0.0013286 3.04144e-20)
(1.03754 -0.0014128 4.45707e-20)
(1.05243 0.0835376 2.38443e-20)
(1.03706 -0.00169405 -3.36398e-20)
(1.03592 -0.00221383 -1.00976e-20)
(0.47228 -0.00107583 -1.12602e-20)
(1.03647 -0.00143615 3.43245e-21)
(1.16721 -0.0921373 -9.12827e-21)
(1.04067 -0.0111506 2.73072e-20)
(1.02641 -0.0248076 -4.53021e-20)
(1.0379 -0.00095496 1.42888e-20)
(1.08998 0.0823667 6.40362e-20)
(0.808938 -0.000696502 5.24817e-21)
(1.03397 -0.00244032 6.61277e-23)
(1.07298 -0.10115 -1.61233e-20)
(1.03781 -0.000394907 -8.82702e-21)
(1.12676 0.0169532 -6.02821e-21)
(0.808252 -0.0107145 -9.53659e-21)
(0.650285 -0.00308089 -2.82375e-21)
(1.19864 0.0792677 -4.71143e-21)
(1.0384 0.0319305 -2.03618e-20)
(1.03502 0.010862 1.4023e-20)
(1.0327 0.00994818 -6.59297e-21)
(0.878614 -0.000873051 -3.07158e-21)
(1.13122 0.0528435 1.60961e-20)
(1.09801 0.0325085 2.90112e-20)
(1.03763 -0.0022448 -1.33817e-20)
(0.979772 -0.00259436 -5.07187e-20)
(1.03743 -0.000402924 -1.67395e-20)
(1.04641 -0.011763 -6.30908e-20)
(1.04529 -0.018728 1.17435e-20)
(1.04066 -0.00105788 -3.76583e-22)
(1.03718 -0.00153923 4.21841e-20)
(1.13291 0.100075 -6.80596e-20)
(1.03298 -0.00271451 1.19517e-20)
(1.03669 -4.95255e-05 -9.86689e-21)
(1.03938 -0.00110792 -2.10362e-22)
(0.567396 -0.00220996 -2.76655e-20)
(1.0492 -0.0045545 3.55116e-20)
(1.02569 -0.0202385 6.72721e-20)
(0.639836 0.00169941 1.38169e-20)
(1.05321 -0.0478272 -2.39686e-20)
(1.08723 -0.12433 2.53336e-20)
(1.05996 -0.0174643 2.1255e-20)
(1.05638 0.0819 -1.37188e-19)
(1.21228 0.0466456 3.32816e-20)
(1.01317 -0.00296946 3.33096e-21)
(0.93678 0.0556899 8.14885e-20)
(1.01905 -0.0437268 -6.05122e-20)
(1.03412 -0.00607939 -1.10946e-20)
(0.579007 0.00399601 -2.38837e-20)
(1.0364 -0.0116367 5.09816e-21)
(0.475258 0.00525258 -4.4565e-20)
(1.00306 -0.00232474 1.56615e-20)
(1.05476 -0.00343115 -3.94982e-20)
(1.15736 -0.0257041 1.18615e-20)
(1.03414 -0.00239191 9.41725e-22)
(1.0522 -0.00411797 -2.83369e-21)
(0.992178 0.00464216 6.0074e-21)
(1.06198 0.103289 2.15338e-20)
(1.15242 0.0913223 6.29093e-20)
(1.02075 -0.00202261 -9.4163e-21)
(0.536525 0.000253253 5.28964e-20)
(0.970551 0.00285267 2.08766e-20)
(1.02138 0.110601 6.94077e-20)
(1.06986 0.103953 5.30294e-20)
(1.13403 0.0456995 -2.99458e-20)
(1.13418 0.121103 -5.37195e-20)
(1.01895 -0.046801 2.58492e-20)
(1.02448 0.0722457 -1.06386e-19)
(1.03555 -0.00162013 -1.0568e-20)
(1.07688 -0.010125 6.87877e-20)
(0.359496 0.00979364 1.32619e-21)
(1.10997 0.0798735 -1.61939e-20)
(0.996169 0.0688483 -7.12542e-20)
(1.15809 0.0659175 6.28389e-20)
(1.06954 0.0465364 6.31811e-21)
(1.03738 -0.00754148 1.78522e-20)
(1.02495 -0.00241246 1.80455e-20)
(1.13835 0.109697 2.38723e-20)
(1.21386 0.00630096 -1.04447e-20)
(1.04393 0.129039 -2.61822e-21)
(1.1202 0.0150037 7.42602e-20)
(1.05294 0.0697125 4.28798e-20)
(0.98571 -0.00456989 1.02371e-20)
(1.06158 0.110919 2.75539e-20)
(1.07116 0.101337 2.00128e-20)
(0.999101 0.000146358 4.77611e-20)
(1.01789 -0.00338428 2.12552e-20)
(1.14831 0.102999 1.71662e-21)
(0.594055 0.00437363 4.75973e-20)
(1.03552 -0.0015899 1.39744e-20)
(1.00509 -0.00233511 -5.60848e-20)
(0.784185 -0.0135017 -3.60393e-20)
(1.03053 -0.061873 6.52355e-21)
(1.04258 -0.00151617 -5.54791e-20)
(1.04171 -0.00252682 4.97121e-21)
(1.03674 -0.00197442 1.79446e-20)
(1.07097 0.106221 -7.86809e-20)
(1.03816 -0.00724291 -4.57698e-21)
(1.03435 -0.00216338 -5.47478e-21)
(1.06003 -0.0430965 -4.26974e-20)
(1.03669 -0.00263067 -1.05716e-20)
(1.00274 -0.00514906 -1.79894e-21)
(1.04056 -0.00713844 -1.22032e-20)
(1.08162 0.0834799 8.22644e-20)
(1.06327 -0.0888544 -2.42392e-20)
(1.06365 0.0879712 4.36889e-20)
(1.03518 -0.000854013 -1.10862e-20)
(1.08575 0.0854763 -8.71303e-20)
(1.05247 -0.0363583 -3.33966e-20)
(1.03592 -0.00182749 3.66999e-21)
(1.03454 -9.60985e-06 -5.58509e-21)
(1.00374 0.0163802 -9.61539e-21)
(1.07656 0.0765424 3.12937e-20)
(1.0347 -0.0026136 -1.01261e-20)
(1.07001 0.0650663 -4.45651e-20)
(1.03436 -0.000183411 4.13825e-21)
(1.07131 0.0700561 -6.00601e-20)
(1.19103 -0.0918729 -2.4963e-20)
(0.965028 3.66009e-05 -5.17738e-20)
(1.00567 0.0470968 -1.39689e-19)
(1.0198 -0.035575 -4.57079e-20)
(1.13828 0.116968 5.50612e-20)
(0.601049 -0.00251717 -1.39685e-20)
(1.07581 0.0717094 7.70508e-20)
(1.08102 0.0783062 -2.25998e-20)
(1.01542 -0.00318545 -7.65027e-20)
(0.997496 -0.00261807 4.55785e-20)
(1.03499 -0.00594979 -4.2615e-20)
(0.943089 0.00106728 1.14881e-20)
(1.03604 -0.00202737 -2.27937e-20)
(1.03803 -0.00709408 7.54027e-21)
(1.07565 0.0977143 -1.02194e-20)
(1.03388 -0.00248776 -2.63578e-21)
(1.06514 0.0638329 5.85754e-20)
(1.07747 -0.0869882 -4.16263e-20)
(1.04081 0.102303 2.71043e-20)
(1.06384 0.0591081 -6.85539e-20)
(0.735585 -0.0104166 4.90523e-21)
(1.07125 0.0947151 -9.44168e-20)
(1.03726 -0.000673234 2.14154e-23)
(1.05038 -0.0154701 2.47576e-20)
(1.09127 -0.055436 -1.51713e-20)
(0.480381 0.00114476 2.68356e-21)
(1.03214 -0.00297243 -3.16722e-20)
(1.05021 -0.037823 2.65513e-20)
(1.08127 -0.00114251 -6.06859e-21)
(0.860029 0.0429427 1.03568e-19)
(1.03391 -0.00071655 1.53993e-20)
(1.03666 -0.000350966 -1.76468e-20)
(1.05948 -0.0583192 1.26909e-22)
(1.03506 -0.000952071 8.99346e-22)
(1.06272 0.104129 1.04112e-20)
(1.03792 -0.000201135 0)
(1.03423 0.000424484 7.86193e-22)
(1.0353 -0.000217631 2.43569e-20)
(1.03784 -7.05146e-05 2.94498e-22)
(1.02753 -0.0125251 -5.6743e-20)
(1.05293 -0.00744117 -2.00184e-20)
(1.03743 -0.000795928 -3.46963e-20)
(0.883132 0.00041578 -1.24969e-20)
(1.02713 -0.00312868 -1.65704e-20)
(1.0402 -0.00732106 -1.34303e-20)
(1.03646 -0.0990188 3.15274e-20)
(0.3662 -0.000212174 -3.94994e-21)
(1.04854 -0.00404637 5.48532e-20)
(0.685007 -0.010051 -7.99891e-21)
(1.15028 -0.120819 -3.16522e-20)
(0.93272 -0.00282259 2.3567e-20)
(1.13888 0.0949721 -4.75726e-21)
(1.00162 0.0192848 -2.22114e-20)
(1.03738 -0.00201411 1.2958e-20)
(1.13013 0.0853324 -7.07093e-20)
(1.03508 -0.00045089 -4.71685e-22)
(0.976717 -0.0026358 -4.74991e-22)
(1.04269 0.00316342 -3.91389e-20)
(1.0342 -0.00307006 1.27938e-20)
(1.08415 0.0925895 -5.15909e-21)
(1.02593 -0.00307393 4.34993e-20)
(1.07744 -0.00749854 -5.33423e-20)
(1.04258 0.00482043 -3.95639e-20)
(1.08088 0.0543196 -1.51028e-20)
(1.04259 -0.00893242 -3.49761e-20)
(1.01789 -0.00174456 -1.26418e-21)
(1.09925 0.0813291 4.33885e-20)
(1.02418 -0.0690936 3.26633e-20)
(1.06171 0.104668 8.43543e-20)
(1.03121 -0.00221075 5.8701e-20)
(1.08662 0.107816 2.43567e-22)
(1.02742 -0.00128117 -1.565e-20)
(1.03558 -0.000241178 3.04106e-21)
(1.06884 0.0431141 1.86227e-20)
(1.04984 -0.0185856 -1.84486e-20)
(1.0568 0.0145268 5.6576e-20)
(1.03684 -0.0006769 9.84421e-21)
(1.03467 0.000888377 3.6392e-22)
(1.05048 -0.11516 -1.1589e-20)
(1.11776 0.117982 -6.25494e-20)
(1.03757 -0.00195412 -1.16108e-20)
(1.13721 0.0876012 7.8333e-21)
(1.02645 -0.00320844 3.10188e-20)
(1.14205 -0.12957 1.05164e-20)
(1.07814 -0.0226539 8.11239e-21)
(1.0254 -0.0217942 -3.64089e-20)
(1.03735 -0.000404784 1.38582e-20)
(0.597188 -0.00368642 1.2396e-20)
(1.01815 -0.0572425 2.24823e-20)
(0.893491 -0.00384067 -5.13103e-20)
(1.01857 -0.00114382 -3.94917e-20)
(1.03645 -0.00167517 -1.65428e-20)
(1.06153 0.104421 -9.17652e-21)
(1.12826 0.0785142 4.48582e-20)
(1.05231 -0.00273238 -1.27954e-20)
(1.03595 -0.00243192 -1.55345e-20)
(1.06941 0.0991726 -3.77496e-20)
(1.03396 -0.000968641 4.48568e-21)
(1.03575 -0.00236281 -3.22654e-20)
(1.12142 0.0768482 3.83258e-20)
(1.04583 -0.01549 3.42947e-20)
(1.12599 0.110473 5.73206e-20)
(1.04775 0.000572757 2.22741e-20)
(1.04808 -0.00606784 -6.82658e-21)
(1.12663 -0.0375012 -2.27234e-20)
(1.10287 -0.109049 -3.07643e-20)
(1.20002 0.072386 -2.26127e-20)
(1.03791 -0.000464987 -2.64881e-20)
(0.861464 -0.0113277 3.33478e-21)
(1.03457 -0.00175243 3.20561e-21)
(1.04047 -0.00690422 8.77487e-21)
(1.0864 0.0897557 2.96542e-20)
(1.01652 -0.00276466 -5.7063e-20)
(1.03371 -0.000681427 -1.77053e-20)
(1.0516 -0.0275721 3.65514e-20)
(1.03632 -2.79194e-05 -9.82136e-22)
(1.03725 -0.00150843 -2.36448e-20)
(0.287203 0.00724579 1.86307e-20)
(1.03065 -0.00258677 3.05752e-20)
(1.03696 -0.00230533 4.44146e-20)
(0.435272 -0.0025711 1.61405e-21)
(1.02731 0.0116605 5.92055e-20)
(1.017 -0.0178682 6.91272e-21)
(1.03661 -0.00183557 -2.07646e-20)
(0.993696 0.00260695 -2.37108e-20)
(1.03533 0.0347498 2.15799e-20)
(1.0879 0.0275002 5.40707e-21)
(0.992136 -0.0158725 3.56201e-20)
(1.03356 -0.000972251 5.05651e-21)
(1.00149 0.0151078 1.32732e-19)
(1.02849 -0.0105715 4.10486e-20)
(1.08943 0.077399 -6.65257e-20)
(1.04403 -0.000742682 -5.989e-20)
(1.0448 -0.000415257 1.21244e-19)
(0.936123 -0.00465999 -6.63837e-20)
(1.03516 -0.00182948 3.85763e-21)
(1.04214 0.00167774 -4.84099e-21)
(1.0929 0.0254446 -9.9984e-21)
(1.18179 0.0741139 4.74548e-20)
(1.08304 -0.0810333 -1.32651e-20)
(1.07323 0.0952374 3.22619e-20)
(1.04178 -0.00131526 -1.45244e-21)
(1.10433 0.0841387 -5.95294e-20)
(1.03759 -0.00909692 2.27971e-20)
(1.05617 -0.0414915 6.52645e-20)
(1.0301 -0.00218881 1.7291e-20)
(1.04041 -0.0119595 -5.53912e-20)
(1.03646 -0.00159355 -1.46372e-20)
(1.06546 0.0498297 -5.06873e-20)
(1.0974 0.114305 -9.80047e-20)
(1.03746 -0.000839685 -1.06584e-20)
(1.04911 -0.0055275 4.39919e-21)
(0.881105 -0.000722243 -1.88952e-20)
(1.08482 -0.067702 -7.80962e-21)
(1.08029 -0.0738097 2.08541e-20)
(1.03398 -0.000210914 -1.87559e-20)
(1.07399 -0.0112267 -2.74268e-20)
(0.120103 -0.00408022 -3.11288e-20)
(1.18097 0.0581484 4.24385e-20)
(1.03569 -0.00157179 -2.66847e-20)
(1.08363 0.0243544 -2.15123e-20)
(1.03617 -0.00563209 3.26022e-20)
(0.586692 0.0354614 1.36471e-19)
(1.01898 -0.00288349 -4.19992e-20)
(1.03541 -0.0177955 1.48396e-20)
(1.05308 -0.0233987 -1.54077e-21)
(1.03454 -0.0184314 5.70204e-22)
(1.03709 -0.0136201 5.7357e-20)
(1.02725 -0.00286637 -1.02851e-20)
(1.03704 -0.00913711 -4.93697e-20)
(1.03871 -0.00388366 -1.17371e-20)
(1.08332 -0.00434289 1.22271e-20)
(1.03436 -0.00104928 -2.35442e-20)
(1.21927 -0.0502026 1.48281e-20)
(1.17333 0.021671 1.79281e-20)
(1.06649 0.105771 6.1481e-20)
(0.995145 -0.0146618 -5.59885e-20)
(1.12016 0.106403 -2.87247e-20)
(1.03764 -0.000325951 2.9522e-20)
(1.10591 -0.0518902 -1.07322e-21)
(1.04304 -0.026873 3.32226e-20)
(1.03279 0.0579023 5.15428e-20)
(1.03412 -0.00294675 -2.90067e-20)
(1.03583 -0.00108794 1.75487e-20)
(1.02901 -0.0111805 -5.69008e-20)
(1.0354 -0.00593346 1.66667e-20)
(1.07075 -0.00971 4.53485e-20)
(0.820953 -0.000934657 4.49971e-20)
(0.97688 -0.00218587 -1.51647e-20)
(1.15024 -0.00655556 1.41681e-20)
(0.783303 0.00294657 3.60211e-20)
(1.05121 -0.0250988 -3.06663e-20)
(1.03227 -0.0661764 -2.70732e-20)
(1.03405 -0.0013064 7.87211e-22)
(1.08329 0.00303211 5.25366e-20)
(1.03356 -0.0581414 8.23376e-20)
(1.12579 0.0966738 3.17644e-20)
(1.12816 -0.0441331 3.7103e-20)
(1.05525 0.0134641 5.80979e-21)
(1.06972 -0.0844039 5.59213e-20)
(1.07521 0.109418 1.82871e-20)
(1.0671 -0.0204975 4.12306e-20)
(0.896841 -0.00384213 3.94503e-20)
(1.05219 -0.0332746 4.7341e-20)
(0.274742 0.0273878 3.33675e-20)
(1.18911 -0.0605099 -1.46456e-20)
(1.00539 -0.00297508 1.30307e-20)
(1.07446 -0.110616 3.27057e-21)
(1.06502 -0.0495304 -3.96156e-20)
(1.08862 -0.0978712 2.00968e-21)
(1.08151 -0.0614709 3.17716e-20)
(1.09865 0.0760972 5.69257e-20)
(1.03497 -0.00104434 -8.78589e-22)
(1.01544 0.0690369 1.80862e-20)
(1.04186 -0.000883341 1.31791e-20)
(1.03667 -0.00171535 2.57593e-20)
(1.03704 -0.00154911 -7.52152e-20)
(1.08027 0.017301 -1.09445e-20)
(0.070732 0.00479593 7.28828e-22)
(1.03859 -0.00402644 1.68858e-20)
(1.05577 -0.0378643 -8.53681e-21)
(1.03567 0.0392374 -3.52006e-20)
(1.03422 -0.000827752 -8.00321e-22)
(0.999695 -0.00260381 -3.88114e-20)
(1.0503 -0.00317073 3.53671e-20)
(1.10338 -0.0189049 5.202e-20)
(1.04181 -0.000637546 6.89756e-20)
(1.03701 -0.00174814 -1.04566e-20)
(1.02647 -0.0287653 1.54126e-22)
(1.03664 -0.00543896 1.68733e-20)
(1.03389 0.000686504 9.31951e-21)
(1.02164 -0.0347914 7.81695e-20)
(1.07765 0.0900867 -1.28576e-20)
(1.05373 -0.0194103 -6.08052e-21)
(0.940729 0.000530027 3.50073e-20)
(1.03831 3.45221e-05 -1.11578e-20)
(1.04 0.0414537 4.67965e-20)
(1.03708 -0.00195112 1.00532e-20)
(1.03752 -0.00132842 2.25125e-21)
(1.0347 -0.00184932 1.73511e-20)
(1.03714 -0.00164498 3.03315e-20)
(1.17119 0.0736261 3.28657e-20)
(1.06136 -0.0216989 9.88606e-20)
(1.04332 -0.0114517 2.41562e-20)
(1.00333 -0.00298048 1.56111e-20)
(1.03506 -0.000688712 9.24965e-21)
(1.12092 -0.0997439 -4.3339e-20)
(1.21284 0.0205248 8.91172e-22)
(1.12843 -0.108222 1.96586e-20)
(1.03667 -0.0234435 2.26995e-20)
(1.04524 -0.00480101 5.47007e-20)
(1.03382 -0.00288113 -1.15271e-20)
(1.03102 -0.0066106 2.55761e-20)
(1.00468 -0.0347847 3.532e-20)
(1.1718 0.0586443 1.5948e-22)
(1.03711 0.104286 -1.32009e-21)
(1.03678 -0.0023728 -1.75298e-20)
(0.957656 -0.0228588 -1.7967e-20)
(1.03488 -0.00275178 3.98116e-20)
(1.06478 -0.018508 -1.61958e-20)
(1.10862 0.0738369 6.64943e-21)
(1.03754 -0.000632364 -3.05555e-20)
(1.03629 -0.00227964 7.08987e-21)
(1.1458 0.107937 7.53605e-21)
(1.16975 0.0422265 -9.88064e-21)
(1.0496 -0.00822174 1.83301e-20)
(1.03486 -0.00137265 -2.93846e-20)
(0.913833 -0.00623084 4.00626e-21)
(1.01143 -0.0360214 -8.89725e-21)
(1.03618 -0.00193752 2.11507e-20)
(1.05232 -0.0211563 5.68696e-20)
(0.520555 -0.00204434 -8.08625e-20)
(1.00116 0.0196619 -1.79848e-20)
(1.0809 0.0929402 -6.24781e-21)
(1.10017 -0.0472685 -2.27089e-20)
(1.03737 -0.0584548 -2.90707e-20)
(1.04017 -0.00154259 4.28373e-20)
(1.04853 -0.0150149 -5.05391e-20)
(1.1646 0.0267078 4.92288e-20)
(1.03728 -0.0664415 1.64648e-20)
(1.05454 -0.0314596 -2.88745e-20)
(1.03342 -0.000788049 -1.00225e-21)
(1.15488 0.0119082 4.24053e-20)
(0.471483 -0.00565376 -4.35309e-21)
(1.03669 -0.0754759 -2.99146e-20)
(1.05291 -0.0175246 -7.86263e-20)
(0.867592 -0.00904462 6.72957e-21)
(1.0362 -0.00183091 8.4106e-21)
(1.03105 -0.00087539 1.39006e-20)
(1.05914 0.0578919 5.24158e-20)
(0.938186 -0.00438337 1.56657e-20)
(1.03675 0.00385597 -1.6484e-21)
(0.852696 -0.00415239 3.17918e-20)
(1.18385 -0.047586 5.38536e-20)
(1.01342 -0.000201568 -3.47027e-20)
(1.05825 -0.0357732 1.16288e-20)
(1.03552 -0.00157255 1.3172e-21)
(1.04164 -0.00837527 3.61576e-21)
(1.03628 -0.093871 -1.46126e-20)
(1.09357 -0.0489674 1.70896e-20)
(1.03547 -0.00144089 1.08265e-20)
(1.03406 0.000360099 -5.5824e-21)
(1.03438 0.00289313 1.68751e-21)
(1.04994 -0.0558416 -6.24137e-21)
(1.00361 0.0298271 -1.65561e-21)
(1.08777 0.103829 7.38022e-22)
(1.14433 0.00044693 -1.83795e-20)
(1.0372 -0.00171417 -2.29148e-21)
(1.0471 -0.0275371 -2.52531e-20)