/*--------------------------------*- C++ -*----------------------------------*\
  =========                 |
  \\      /  F ield         | OpenFOAM: The Open Source CFD Toolbox
   \\    /   O peration     | Website:  https://openfoam.org
    \\  /    A nd           | Version:  7
     \\/     M anipulation  |
\*---------------------------------------------------------------------------*/
FoamFile
{
    version     2.0;
    format      ascii;
    class       volVectorField;
    location    "22";
    object      U;
}
// * * * * * * * * * * * * * * * * * * * * * * * * * * * * * * * * * * * * * //

dimensions      [0 1 -1 0 0 0 0];

internalField   nonuniform List<vector> 
20933
(
(0.997484 -0.000256208 -3.12282e-24)
(0.989903 -0.000768588 3.98149e-22)
(1.02607 -0.00346536 -5.69707e-23)
(1.00028 -3.95308e-05 -1.61284e-24)
(1.00075 -0.00883659 6.327e-23)
(1.00041 -0.00938607 -6.1742e-23)
(1.04213 -0.163544 -7.93707e-22)
(1.09934 0.0674205 -1.61406e-20)
(1.00729 -0.0808434 -2.00061e-21)
(1.10459 0.0683574 1.15684e-20)
(1.05311 -0.14663 -2.28474e-21)
(1.19885 0.121205 -5.80813e-22)
(0.987109 -0.0522037 -3.34999e-22)
(0.997337 -0.000305225 5.56181e-25)
(0.995972 -0.00326492 7.86232e-23)
(1.00027 -4.97603e-05 -1.44566e-24)
(1.27254 -0.0155064 1.56201e-23)
(1.11203 0.00156736 -8.75102e-21)
(1.0063 -0.122337 -1.47241e-21)
(0.992104 -0.000370955 -3.48968e-22)
(1.01952 -0.0930048 2.57534e-21)
(1.19447 0.12044 -1.03278e-21)
(1.10681 0.0741991 -8.72885e-21)
(1.1393 -0.186561 -1.49237e-21)
(1.0242 -0.00155887 6.02461e-24)
(0.993405 0.0816557 -2.5587e-20)
(1.00899 -0.00261503 -1.07094e-23)
(0.995407 -0.0562996 1.0917e-21)
(1.1907 -0.173014 -1.30098e-21)
(1.00891 -0.12365 5.10297e-21)
(0.998783 -0.0021424 -1.19626e-24)
(0.945107 0.0147475 3.93227e-20)
(1.13743 0.114067 7.02753e-21)
(0.992889 -0.0325975 1.17451e-22)
(1.00006 -0.00160117 7.03398e-24)
(0.99884 -0.00231263 -4.10914e-24)
(1.09207 0.0853103 -1.74743e-20)
(0.999912 -3.38625e-06 -2.26121e-24)
(1.01481 -0.0190309 3.59421e-23)
(1.12214 0.00314689 -3.0166e-21)
(1.0407 -0.00808893 4.05177e-23)
(1.10531 0.138021 1.23865e-20)
(1.03299 0.0419158 -7.33859e-21)
(1.00803 -0.00304074 8.98344e-24)
(0.993109 0.0784325 1.01115e-20)
(0.978448 -0.00150722 2.25542e-22)
(1.09443 0.00988481 -2.46704e-20)
(1.24835 0.062928 -2.50746e-21)
(0.999614 -9.93613e-05 -1.19316e-24)
(0.975087 -0.0458433 1.79246e-22)
(0.999967 -0.00170444 -1.75758e-23)
(1.07492 -0.00854173 2.08359e-21)
(1.19153 -0.107919 2.65382e-21)
(1.00037 -0.0037899 -2.41104e-23)
(1.23101 -0.108753 -7.70687e-22)
(0.951138 -0.0178843 -1.64746e-22)
(0.979868 -0.030571 4.85876e-23)
(0.998659 -0.00278051 1.9937e-24)
(1.01056 -0.0470121 -1.11228e-21)
(1.26815 -0.0112414 7.05729e-23)
(0.974794 0.0287463 2.1345e-20)
(0.96935 -0.00432614 4.22205e-22)
(0.989437 -0.00330523 -1.12405e-22)
(1.11733 0.0677367 -7.52361e-22)
(0.999422 -8.93651e-05 7.74423e-24)
(0.99575 -0.00794431 3.18376e-24)
(0.99547 0.0562557 6.48991e-22)
(0.995242 -0.00829802 5.5788e-23)
(1.12171 -0.0734335 1.00877e-21)
(0.999027 0.0829619 9.55004e-21)
(1.04069 -0.0415614 1.60248e-22)
(1.27966 -0.0462678 -6.51363e-22)
(0.996351 -0.00327082 -1.79276e-23)
(0.98515 -0.0381876 1.0918e-21)
(0.999733 0.0105751 -9.57841e-21)
(1.07646 -0.0834221 4.22561e-22)
(0.999241 0.0775238 4.43409e-21)
(0.960714 -0.00493857 1.35295e-22)
(1.12008 0.00190114 1.90737e-21)
(1.00322 0.0321141 1.40372e-20)
(0.996615 -0.00826059 1.60189e-22)
(1.00221 -0.00446931 -1.79782e-23)
(1.17162 -0.17565 1.04746e-21)
(1.00818 -0.0782397 1.6648e-21)
(0.972323 -0.00342843 -4.65581e-22)
(1.03073 0.039477 3.53884e-20)
(0.989791 -0.0486544 -6.21953e-22)
(0.902514 0.0511974 3.70151e-21)
(1.11369 0.0632627 -7.06449e-21)
(0.979955 0.0828309 1.62122e-20)
(1.10751 0.0257216 -9.54491e-21)
(1.00034 -6.94775e-05 1.50092e-24)
(1.00004 -0.000308842 7.89216e-24)
(0.95335 0.0047695 -1.09578e-20)
(1.25387 0.0573923 1.26732e-21)
(0.989876 -0.00347741 -6.18681e-23)
(0.96222 0.00308058 1.68004e-20)
(0.999495 -0.00451941 2.05551e-23)
(1.05721 -0.141489 -9.66339e-22)
(1.06881 0.0145936 -9.45504e-21)
(0.976983 0.0851127 -4.80053e-20)
(0.976733 -0.0104156 4.46871e-23)
(0.968525 0.078088 -5.24682e-20)
(1.17693 -0.0982839 1.8817e-21)
(1.10015 -0.00289267 -5.4272e-21)
(1.1023 -0.0800449 -3.22634e-22)
(1.0224 0.0924085 1.80931e-20)
(1.16312 -0.0811305 -2.81792e-22)
(0.989676 -0.000441785 -3.23886e-22)
(1.0383 0.105065 4.10888e-21)
(1.19914 -0.176218 -4.332e-21)
(1.03707 -0.163128 -1.81655e-21)
(0.97901 -0.0239908 4.12512e-22)
(1.03353 -0.021528 -2.81713e-22)
(1.07809 -0.0768927 1.75391e-23)
(1.00008 -9.16869e-05 -1.90226e-24)
(1.04762 0.0681612 1.73816e-20)
(0.99715 -0.00772717 -6.1259e-23)
(1.17011 -0.110461 5.5482e-22)
(1.00275 0.0257128 -3.31427e-20)
(1.00033 -5.09672e-05 2.81449e-25)
(1.03145 -0.0966377 1.56507e-21)
(1.13864 0.0203088 -4.05263e-21)
(1.01154 -0.0538159 -1.53228e-21)
(0.992753 -0.0309225 -1.09077e-22)
(1.11302 0.00340416 4.54171e-21)
(1.16647 0.12669 -1.6647e-20)
(0.995126 -0.054184 8.92872e-22)
(0.938973 0.0175226 -1.14605e-20)
(1.0436 0.070253 9.29046e-21)
(0.991559 -0.0625889 -8.63852e-22)
(0.974714 -0.0440848 -5.6847e-22)
(1.04081 -0.00420578 2.37288e-22)
(1.01395 -0.0175102 3.49058e-23)
(1.01771 0.0867216 -2.45837e-20)
(1.09671 -0.00551746 -1.46477e-21)
(1.22576 0.077465 -3.58782e-21)
(1.02269 -0.0935052 -1.09473e-21)
(0.981709 -0.010538 4.1533e-22)
(0.994055 -0.0830258 3.83627e-21)
(1.02767 -0.0997739 2.85091e-22)
(0.983638 -0.039485 -1.07486e-21)
(1.28058 -0.0577972 -7.52218e-22)
(0.96543 0.0853337 -1.65482e-20)
(1.20192 -0.00297691 1.71965e-21)
(1.01677 0.089314 2.22144e-20)
(1.14195 0.140284 -1.78082e-21)
(0.970083 -0.0109945 -3.53772e-22)
(1.17363 0.118374 -1.16877e-20)
(1.01016 -0.00350128 2.76338e-23)
(0.969799 -0.0100278 7.03176e-22)
(1.0005 0.0813794 1.12705e-21)
(1.00006 -0.000265925 -5.03533e-24)
(1.00643 -0.0723931 6.38383e-22)
(1.00215 -0.00401791 3.00055e-23)
(1.1385 0.14307 9.75185e-21)
(1.02691 0.0411905 -3.7813e-21)
(1.13417 -0.182831 6.69794e-21)
(0.946848 -0.0208626 3.34496e-22)
(0.986284 -0.0534982 7.05504e-22)
(1.2378 -0.117536 1.08046e-21)
(1.04624 -0.157802 1.2176e-21)
(0.998613 -0.00256767 -4.25548e-24)
(1.19915 0.00223062 -2.79847e-21)
(1.11408 -0.0027128 -8.58833e-22)
(0.905211 0.0533226 8.79861e-21)
(0.977876 -0.0105691 2.94996e-22)
(1.16494 -0.183108 4.01704e-22)
(1.07207 -0.0854218 -4.84722e-22)
(1.09293 0.0816827 -1.03003e-20)
(1.23052 0.0772816 1.17573e-21)
(0.988588 0.0625111 9.99944e-21)
(1.05797 0.122823 2.78492e-20)
(0.990114 -0.0284414 2.13026e-23)
(0.9191 0.0143249 -1.3078e-20)
(1.14182 0.115327 8.51466e-21)
(0.996827 -0.00064619 4.351e-24)
(0.990074 0.00713995 -2.51452e-20)
(1.0842 -0.0750886 -6.42494e-23)
(1.03184 0.109085 7.85839e-21)
(1.01256 0.0947131 -1.12587e-20)
(0.999867 -2.79743e-06 2.73893e-24)
(0.96317 0.0595866 7.12584e-22)
(1.05602 0.107064 2.36854e-20)
(0.991509 -0.000617422 2.34359e-23)
(0.945709 -0.0147672 1.79791e-21)
(1.04017 -0.0387884 -7.88501e-23)
(1.07465 0.0111247 -2.41823e-21)
(1.171 -0.103879 -7.84272e-22)
(0.933614 0.0454244 1.16699e-20)
(1.16458 0.122748 -5.71e-21)
(1.24129 -0.0335137 5.66546e-22)
(1.06463 0.0109344 1.90249e-20)
(1.12035 -0.0671676 1.27665e-21)
(0.947476 -0.021936 8.48415e-22)
(1.19859 0.0912722 -7.19112e-21)
(0.964048 0.0627541 -7.83324e-22)
(1.24703 0.02422 -3.34529e-21)
(0.993442 -0.000239749 -3.7476e-24)
(0.929819 0.0448837 -1.14027e-20)
(1.21922 0.0518675 -8.4795e-21)
(1.2437 -0.0829945 6.34638e-22)
(1.18977 -0.10101 -1.88545e-21)
(0.940506 0.05209 -1.409e-20)
(0.956197 0.0548051 3.30353e-20)
(0.966168 -0.0246906 -3.66534e-22)
(1.00097 -0.0398845 -9.67177e-23)
(1.07485 -0.00505371 -2.83807e-22)
(0.951333 -0.0193902 -8.35699e-22)
(0.998755 -0.00011768 6.84275e-24)
(0.996924 0.0577414 -4.76296e-21)
(0.988308 0.0221086 -9.05778e-21)
(0.969328 -0.0139956 5.90427e-22)
(0.957732 -0.0340767 5.16729e-22)
(1.03364 0.106033 1.21221e-20)
(0.999103 0.0181653 1.45002e-20)
(0.998752 -5.70651e-05 -1.12309e-23)
(1.00159 0.0208317 -2.24524e-20)
(1.16733 -0.075753 -1.72559e-22)
(1.01497 -0.0153954 -4.13012e-23)
(1.00569 -0.0581438 1.08443e-22)
(1.03033 0.0648666 -1.87941e-21)
(0.956971 0.0945184 1.54553e-20)
(1.10462 0.0230734 1.26191e-20)
(1.0395 0.100787 -1.98156e-20)
(0.980551 -0.0104949 -7.05016e-22)
(1.00305 -0.0393423 -4.57532e-22)
(1.00011 -9.90401e-05 6.54233e-26)
(0.999128 -4.06114e-05 -3.66502e-24)
(1.0006 -0.00739112 1.25284e-22)
(1.13663 0.0175751 1.9168e-21)
(1.13594 -0.114501 -5.79992e-22)
(1.02428 0.0898091 -2.30715e-20)
(1.00259 -0.0971881 1.03593e-21)
(1.02162 0.0334401 1.36199e-20)
(0.991163 -0.0469052 -1.10601e-22)
(1.09602 -0.0767114 1.96338e-22)
(0.990778 0.06126 1.78531e-20)
(0.955923 0.00375966 5.66849e-20)
(1.03135 0.0614684 3.2305e-20)
(1.00153 0.0752009 -2.7317e-20)
(0.956112 -0.033347 -4.58302e-22)
(1.09998 0.123773 -7.51965e-21)
(1.01247 -0.0521098 1.67346e-21)
(1.10361 -0.00461589 1.11204e-20)
(0.99698 -0.00696353 -1.09108e-22)
(1.27031 -0.0957687 -3.11657e-21)
(1.17165 -0.0489717 3.22835e-21)
(1.08305 -0.025266 3.20147e-21)
(0.99964 -7.59738e-05 1.41473e-24)
(0.987929 -0.00061363 3.89564e-22)
(0.953262 0.096457 -2.37684e-20)
(1.16278 0.045594 2.81926e-20)
(1.01424 -0.0205024 -4.85403e-23)
(0.972058 -0.0497374 -1.06515e-21)
(1.13009 -0.110191 1.58431e-22)
(1.07902 -0.173138 3.08624e-21)
(1.10099 0.137097 -1.55815e-21)
(0.995165 -0.0820316 -1.07014e-21)
(0.974506 -0.00183234 -4.33258e-22)
(0.997876 -0.0640432 1.25849e-21)
(0.993527 -0.0273788 -1.29489e-22)
(0.999367 -6.76791e-05 -2.23627e-26)
(0.990195 -0.0447468 5.66251e-22)
(1.05016 -0.157721 -5.7598e-22)
(0.964677 0.0819234 3.12839e-20)
(1.263 0.0294408 1.44441e-21)
(0.980637 -0.0228805 -7.7558e-22)
(1.01933 0.0350629 -2.10188e-20)
(0.957861 0.0588872 -3.92521e-21)
(0.990461 -0.0505925 1.22432e-22)
(1.00063 -0.000263637 -9.00399e-24)
(1.00571 -0.0752894 -1.15394e-21)
(0.995754 0.0530468 5.5061e-21)
(1.25262 -0.135469 -2.06349e-21)
(0.976822 0.0266638 -3.22134e-20)
(1.00004 -0.000105998 9.24454e-25)
(0.959619 -0.0374569 9.02208e-22)
(1.04681 0.122896 2.24136e-21)
(0.99942 0.017389 2.9511e-20)
(1.03164 -0.0718966 -2.55391e-22)
(0.981203 -0.029178 5.12476e-22)
(0.940285 0.0868893 2.52844e-20)
(1.23571 -0.0675398 2.85289e-23)
(1.23454 -0.0376544 -3.34958e-22)
(0.972225 0.0792018 2.16394e-20)
(0.935753 0.0513976 -2.38289e-21)
(0.989193 -0.0523305 -3.74304e-22)
(1.04529 0.12547 -1.44451e-20)
(1.14375 -0.00693804 -5.24946e-21)
(1.00472 0.0327243 -3.83481e-20)
(1.06167 0.0748685 1.06121e-20)
(1.00065 -0.000193335 1.10667e-23)
(1.26996 0.0319939 -1.11772e-21)
(1.0866 0.0786583 6.23195e-21)
(0.996723 -0.000560336 2.07538e-23)
(1.00131 -0.102589 -4.20995e-22)
(1.23315 0.0280382 -1.57183e-21)
(1.15043 -0.175528 -1.17125e-21)
(1.21733 0.0459505 4.84526e-21)
(1.17575 -0.0291731 -2.01765e-21)
(1.00011 -0.00017336 -1.60921e-24)
(0.999588 -0.00318384 5.46499e-23)
(0.981378 0.0940939 -3.84052e-20)
(1.00132 -0.0133085 -2.76092e-23)
(1.01303 -0.122668 -1.19931e-21)
(0.992461 -0.0676003 1.28276e-22)
(1.1914 0.11543 -6.17187e-21)
(0.9718 -0.00421499 -8.28581e-23)
(1.03305 0.111843 1.38964e-20)
(1.19138 0.0162895 6.41081e-21)
(0.995515 -0.0645879 7.4165e-22)
(0.958054 -0.00598008 -3.71683e-22)
(1.09743 0.0781082 1.1229e-21)
(1.1881 0.088682 5.30659e-21)
(1.00007 -0.000177264 -1.61014e-24)
(0.977673 0.0584626 3.20201e-20)
(1.0429 0.0737842 4.6798e-21)
(0.992666 0.0152588 -7.81592e-21)
(1.23335 -0.0988439 -9.27763e-22)
(0.999459 -6.47893e-05 -6.27811e-24)
(0.941514 0.0835246 -1.66134e-21)
(0.997147 -0.00480097 -9.56388e-23)
(0.994379 -0.0495132 2.385e-22)
(1.19453 0.0868909 -2.23358e-21)
(1.23934 0.0218813 4.19228e-22)
(0.982949 -0.052596 -9.1739e-22)
(1.23549 -0.0776327 8.00702e-22)
(1.02458 0.0391681 5.4266e-21)
(0.954999 0.00461988 2.06278e-20)
(1.01006 0.0858324 -2.9154e-20)
(1.16581 0.0220994 -8.27163e-21)
(0.909567 0.0192618 2.82041e-21)
(1.0003 -8.85792e-06 -9.42306e-25)
(0.991466 -0.0269495 -1.43714e-22)
(0.999949 0.0100379 3.8995e-20)
(1.19635 -0.145688 4.09596e-22)
(1.08593 0.0750084 -1.47081e-20)
(0.987192 -0.0386385 -4.39812e-22)
(0.995603 0.0764874 2.72008e-20)
(1.17712 -0.00137055 4.14209e-21)
(1.00014 -0.00346669 3.12926e-23)
(1.17247 -0.00595925 -3.60976e-21)
(1.04776 0.0633517 -2.23984e-20)
(1.15921 -0.155115 -4.15407e-24)
(0.972802 0.00672325 -5.84459e-21)
(1.06185 0.111792 3.34564e-21)
(0.999362 -0.000300786 -1.42254e-24)
(1.03545 -0.0194558 -6.51526e-22)
(1.1284 0.0958858 7.5388e-21)
(1.11067 0.000914485 1.67875e-20)
(0.998152 -9.41678e-05 1.45829e-23)
(1.05875 0.119476 -2.48844e-20)
(1.01279 -0.0462645 -1.29422e-22)
(0.893831 0.0518032 -1.51249e-21)
(1.02382 -0.09836 -2.07667e-21)
(0.968826 -0.0126892 2.4467e-22)
(0.988576 -0.000715228 -3.91689e-22)
(1.01117 0.0889362 3.25208e-20)
(1.05594 0.104348 -3.76785e-20)
(0.975526 -0.00263239 2.00609e-22)
(1.09563 0.0721008 3.96679e-21)
(0.97959 0.0788766 -9.36461e-21)
(1.0014 -0.0142807 -3.70363e-23)
(1.04492 0.00593156 5.5211e-21)
(1.02343 0.0166235 -1.53376e-20)
(0.898636 0.0292113 1.86459e-20)
(0.997534 -0.00401579 2.89703e-23)
(1.16982 0.0957172 -1.25433e-20)
(1.16657 -0.0540885 -8.62066e-22)
(0.949783 -0.0174299 -2.96207e-22)
(0.999637 -5.98742e-05 -1.01138e-24)
(0.999765 0.00560324 2.34801e-20)
(1.10702 0.141352 7.24796e-21)
(1.24256 -0.000742987 -6.29498e-21)
(0.989609 0.0940125 -9.86209e-21)
(1.16092 0.0253083 4.10296e-21)
(0.978186 -0.0301811 3.63665e-22)
(1.10298 0.119623 -5.60819e-21)
(1.11303 -0.0015294 -2.84012e-21)
(1.15686 0.0421956 8.10236e-21)
(0.903154 0.0314778 -4.87841e-20)
(1.0257 -0.085982 7.06278e-22)
(1.20309 0.0787265 2.86194e-21)
(0.991211 0.0198136 -2.04929e-20)
(0.970741 -0.0505737 9.67006e-22)
(1.13822 -0.017412 4.18383e-22)
(1.06411 -0.141603 2.24704e-21)
(1.1309 0.0915025 -3.34367e-21)
(0.994662 -0.000179454 -5.64093e-22)
(1.09857 0.0108811 -2.77824e-21)
(1.24317 0.00687214 2.79945e-21)
(1.20563 0.0734737 7.042e-21)
(1.00121 -0.0044303 8.10605e-23)
(1.09198 0.00743007 2.61223e-20)
(0.997459 0.0121062 -1.96206e-20)
(1.04959 0.0446081 4.01782e-20)
(1.15021 -0.170871 -4.7216e-21)
(0.994698 -0.0258153 2.8732e-22)
(0.94393 0.0479592 -1.64072e-20)
(0.94571 0.0169823 -4.21874e-20)
(0.997471 -0.00651703 -2.39601e-23)
(0.961283 -0.0366068 4.12624e-22)
(1.0167 0.0651953 4.29144e-21)
(1.01759 -0.128632 -9.79564e-22)
(1.08992 -0.0798642 -8.1338e-23)
(1.09949 0.132492 2.34175e-20)
(0.990325 -0.000475262 4.88579e-22)
(0.894695 0.0264075 3.1763e-20)
(1.03312 -0.0641799 -5.81956e-23)
(1.15996 0.102989 4.11613e-21)
(0.991158 -0.00945249 3.71883e-23)
(0.995831 0.0121849 -8.3651e-21)
(1.06521 0.109026 -6.94472e-21)
(1.0832 -0.0197654 -3.33032e-21)
(1.10335 -0.0862219 -1.19405e-22)
(1.24216 -0.0268605 -7.51329e-22)
(1.21675 0.0565355 8.83095e-22)
(0.99965 -0.00490782 1.09395e-25)
(1.01365 0.0538046 -7.91536e-21)
(1.28626 -0.0399081 1.35616e-21)
(1.1084 0.063097 1.73223e-20)
(0.896084 0.0545378 4.88482e-20)
(1.24339 -0.0940115 6.17307e-22)
(1.06824 -0.0735001 -1.2844e-22)
(1.00028 -0.00802927 -1.25918e-22)
(1.24889 0.0699854 5.48856e-21)
(1.25351 0.0184816 1.82554e-21)
(0.9776 -0.023394 1.32529e-21)
(1.08379 0.122036 -2.22948e-21)
(1.00004 -0.00129702 -2.75708e-23)
(0.976262 -0.0406728 -1.97933e-22)
(1.01408 -0.0139749 6.64771e-23)
(1.22754 -0.0628042 -6.78015e-23)
(0.99135 -0.0429399 4.76115e-22)
(0.999624 -0.000128119 1.23578e-25)
(0.990454 -0.0557045 1.43079e-21)
(1.20479 0.0903652 -3.73307e-21)
(1.16053 -0.163868 -1.68651e-21)
(1.04692 -0.06763 -7.70767e-23)
(0.964694 -0.0253203 -7.53541e-22)
(1.22559 0.0264445 -5.35984e-21)
(1.16945 -0.0261793 3.55372e-21)
(0.97779 -0.0523636 -4.85194e-22)
(0.952245 -0.00858142 1.1624e-21)
(1.00091 -0.00463315 -1.33614e-23)
(1.12763 -0.0765946 -1.03344e-21)
(1.02876 -0.138436 -1.52264e-22)
(1.01146 -0.00293523 -2.50024e-23)
(1.03478 -0.0685861 7.41373e-22)
(1.18355 0.0847704 -8.3552e-21)
(1.05103 0.0412951 -2.45359e-20)
(1.20317 0.010738 1.4224e-21)
(0.999324 -0.000255221 6.16864e-25)
(0.934068 0.0919132 -3.68994e-20)
(1.01161 -0.00150828 -1.1393e-22)
(0.999974 -0.00140501 3.3004e-23)
(1.03832 -0.00972881 6.766e-22)
(0.96503 -0.0368744 -6.70421e-22)
(1.01139 -0.0891825 1.32493e-22)
(0.959022 0.0509948 -1.94852e-20)
(1.0238 -0.052786 6.44889e-23)
(1.13917 -0.00619969 -2.44005e-21)
(1.0237 -0.119831 2.19903e-21)
(1.02077 -0.121943 -2.87045e-21)
(1.10232 0.128761 -1.62685e-20)
(0.996329 -0.050068 -3.89945e-22)
(0.994526 -0.0782746 6.52493e-22)
(1.00307 -0.100888 9.57163e-22)
(0.999684 -4.23778e-05 2.61896e-24)
(1.17522 -0.0901691 -8.03175e-22)
(0.924472 0.0877777 -3.51979e-21)
(1.08126 -0.167027 7.84471e-22)
(0.963196 -0.0464789 -1.57454e-22)
(1.08321 0.116979 -2.98629e-22)
(0.983903 -0.0495731 -9.6348e-23)
(1.06146 0.0704664 -8.83017e-21)
(1.17603 0.121629 -1.27653e-21)
(0.996714 -0.00513688 1.5183e-22)
(0.998635 -0.000171395 -5.88264e-24)
(1.03897 0.0671684 2.75359e-21)
(0.901556 0.066924 1.59295e-20)
(1.06496 -0.165982 2.06842e-22)
(1.1473 0.133268 2.17306e-21)
(1.21531 0.0942305 -1.00776e-20)
(0.968758 -0.0412358 -2.91869e-22)
(0.96878 -0.0433043 -6.87623e-22)
(1.01812 0.0680752 -1.17865e-21)
(1.09711 -0.0102051 2.22005e-21)
(1.17067 -0.167133 3.5624e-21)
(1.06779 -0.135112 -1.76183e-21)
(0.979544 -0.00155844 4.62311e-23)
(1.05989 -0.0141094 1.48089e-21)
(0.94425 0.0259741 -7.31262e-21)
(1.13777 0.00869879 -1.53611e-20)
(1.00028 -7.95543e-05 1.5002e-24)
(0.967214 0.0750634 3.38186e-20)
(1.03582 -0.0610535 -5.78484e-22)
(1.01275 -0.0907851 1.62005e-21)
(1.05012 0.121564 -1.30762e-20)
(1.01676 -0.0227125 2.87048e-23)
(0.990421 -0.00903618 -1.2e-22)
(0.999387 -0.000438188 -1.01079e-24)
(1.15732 -0.066524 7.52936e-22)
(0.966336 -0.0193571 -5.69775e-22)
(1.00029 -1.42112e-05 1.62199e-24)
(1.15013 0.135411 -5.34003e-21)
(1.25476 -0.126932 -1.37852e-21)
(1.0117 0.0524988 -1.36722e-20)
(0.999319 -9.70464e-05 -1.94274e-24)
(1.00024 -0.00414926 -1.37606e-23)
(0.98286 -0.0508882 -4.58787e-22)
(1.00001 -8.93685e-05 1.59773e-25)
(1.06617 -0.171129 -1.05707e-21)
(1.18902 -0.162496 -1.62654e-21)
(0.999697 -0.00415856 1.12457e-23)
(1.00955 -0.0713333 -4.79206e-22)
(0.946972 -0.0145864 4.35912e-22)
(1.04936 0.11023 -1.42334e-21)
(0.987718 0.0928603 8.00682e-21)
(0.997109 -0.00437365 3.02421e-23)
(1.00304 -0.00107488 4.59875e-24)
(0.999546 -0.0956126 -2.50839e-21)
(0.983807 0.0844446 2.55678e-20)
(1.00489 -0.0324493 4.16003e-22)
(0.979066 0.0548358 -8.92716e-22)
(0.982565 -0.0115637 -4.92456e-23)
(0.893155 0.0424415 -1.328e-20)
(1.03925 0.0133857 -3.00711e-21)
(1.1327 0.0594469 -1.76688e-20)
(0.913558 0.0534174 -1.45178e-20)
(1.28307 -0.0283892 8.63623e-25)
(0.990623 -0.00282259 -3.31842e-23)
(1.15905 -0.0533706 8.14622e-22)
(1.00908 -0.0335248 -4.71191e-23)
(0.990139 0.0839577 6.47545e-21)
(1.01698 0.0589683 1.85823e-20)
(0.972159 -0.0078001 2.77092e-22)
(1.26245 -0.0914642 3.08961e-21)
(1.12361 -0.0231312 -3.68866e-22)
(1.06553 -0.0778533 -4.59511e-22)
(0.995827 -0.000286307 -4.15062e-23)
(1.27072 -0.106101 3.08287e-21)
(1.00027 -3.13139e-05 2.4454e-24)
(1.04663 0.106879 8.17485e-21)
(0.945827 -0.0137006 -1.6364e-21)
(0.993629 -0.0624213 -2.49905e-22)
(0.996629 -0.0297881 2.79862e-22)
(1.0078 -0.0571518 1.71768e-21)
(1.15697 0.0982714 1.26079e-21)
(1.19985 0.0161974 -5.35793e-21)
(0.998426 -5.45947e-05 9.79422e-25)
(1.02659 -0.0506685 -4.3434e-22)
(0.999891 -0.000133212 8.57298e-25)
(0.894726 0.0394751 9.93511e-21)
(0.948765 0.0234134 1.50444e-20)
(0.995296 -0.00101591 -2.2053e-23)
(0.973418 -0.0125748 -3.0816e-22)
(1.03443 -0.0371594 2.13692e-22)
(1.01875 0.0619542 7.9886e-21)
(0.94368 -0.0221111 -8.88385e-22)
(1.21787 0.0980952 -2.21478e-21)
(0.965261 -0.0475284 1.88295e-22)
(1.00594 0.0853862 -5.82988e-22)
(1.13629 0.0636842 -1.99846e-21)
(0.965434 -0.0211122 -3.95995e-22)
(0.903025 0.0212287 -2.03659e-20)
(1.05263 -0.00243891 -1.36608e-21)
(1.01412 0.0902867 -1.73718e-20)
(0.993073 -0.0135765 1.8878e-23)
(1.03097 -0.147103 4.55311e-21)
(0.977928 0.00406171 -4.89523e-20)
(1.01517 -0.0420947 4.1807e-22)
(0.899401 0.0714745 -7.22599e-21)
(1.02757 0.0721952 1.02184e-21)
(0.905943 0.0237984 -4.88005e-21)
(0.991092 -0.00292024 2.27889e-23)
(0.992562 -0.000537377 1.22379e-22)
(1.03077 -0.0921128 -4.58897e-22)
(1.17017 -0.0414662 -4.53017e-21)
(1.01549 -0.02254 -3.45996e-23)
(1.02962 -0.0831215 -1.51e-22)
(1.0102 0.0798505 1.57563e-21)
(1.00494 0.0923914 5.39013e-21)
(1.04092 0.00249225 4.45824e-24)
(0.986645 0.0823913 -1.82718e-20)
(0.907193 0.0765837 3.95491e-21)
(1.13479 0.109929 1.37894e-20)
(0.999082 0.00630722 -3.36048e-20)
(1.04603 0.034688 -7.73265e-21)
(1.00536 -0.0171763 -2.46503e-22)
(1.03594 0.0690508 -9.06045e-22)
(0.992955 -0.0777593 -5.64469e-22)
(0.966906 -0.0463894 4.9384e-22)
(0.998773 -0.00120944 2.43465e-24)
(1.05901 -0.0780231 1.0507e-21)
(1.11956 -0.149279 -5.2142e-22)
(1.08279 0.0407701 6.47149e-21)
(1.08538 -0.00919063 4.12482e-21)
(1.00244 0.0290091 2.75641e-21)
(1.00998 -0.0490591 1.02143e-21)
(1.12635 -0.0140274 2.25586e-21)
(1.00368 0.0227623 -3.2153e-21)
(1.0103 -0.0351329 5.29402e-22)
(1.09989 -0.0904799 3.0515e-22)
(0.999923 -0.000159333 -8.65867e-26)
(1.00045 -0.000219396 2.02362e-24)
(1.08161 0.0368162 -3.21587e-23)
(0.994618 -0.0671558 -7.23814e-22)
(0.972661 -0.0432825 7.7872e-22)
(1.0005 -0.000209134 -2.94392e-24)
(1.00009 -0.00287971 1.96626e-23)
(1.1229 -0.0273196 -6.39998e-22)
(0.999478 -6.46489e-05 3.48861e-24)
(1.25177 0.0491183 -3.01573e-22)
(0.896796 0.0318212 2.56661e-20)
(1.14208 0.135677 8.19562e-22)
(1.11603 0.0728945 -5.31828e-22)
(0.968361 -0.00758807 -4.30808e-22)
(1.0295 0.095906 6.33195e-21)
(1.24214 0.0749249 -2.93396e-21)
(1.00535 -0.0302343 -2.44894e-23)
(0.974 -0.014031 -3.02041e-22)
(0.997528 -0.00371633 1.17179e-25)
(0.999333 -0.000389277 -9.02873e-26)
(1.00182 -0.00471169 -3.05862e-23)
(0.9973 -0.0316465 2.42733e-22)
(1.04692 -0.145929 2.44663e-21)
(1.10076 0.0900878 2.02443e-20)
(1.19679 -0.0403473 7.04732e-22)
(0.9658 -0.00348718 1.04185e-22)
(0.999899 -9.77037e-05 6.34037e-27)
(1.00115 0.0527848 1.83907e-20)
(1.26043 -0.011749 -1.33378e-21)
(1.27104 -0.064239 5.46101e-22)
(1.01758 -0.0432647 -4.64477e-22)
(1.22126 0.0746336 4.43488e-21)
(1.05715 -0.0810521 -3.61234e-22)
(0.984274 -0.000837986 -8.00886e-23)
(1.00223 0.0186597 1.61606e-20)
(0.979827 0.000765574 -6.29457e-20)
(1.06842 0.133089 -1.71352e-20)
(0.990375 -0.000386317 -3.28511e-22)
(1.06569 0.132345 1.32963e-20)
(0.969331 -0.00542453 1.63536e-22)
(0.98665 -0.0463009 -5.84892e-22)
(1.12716 0.128255 -1.55263e-20)
(1.00026 -9.81258e-05 2.82634e-24)
(0.990506 -0.0301521 -7.80399e-23)
(1.16901 0.100477 4.31165e-21)
(1.13073 0.100153 1.59112e-20)
(0.966714 -0.0228368 -9.66935e-23)
(1.02256 0.062084 1.22072e-21)
(0.960614 0.0969661 -1.60712e-21)
(1.01525 0.0299983 -3.72511e-20)
(0.963201 -0.0378149 1.04724e-21)
(0.953326 -0.0084927 -5.59077e-22)
(1.05046 -0.0639512 -4.09246e-23)
(1.11679 -0.00203963 4.46136e-22)
(1.02206 0.0137874 -9.09795e-21)
(0.99546 -0.00139413 -9.12737e-24)
(0.974868 0.00956698 -1.83281e-20)
(0.993668 -0.0472568 1.28989e-21)
(1.03587 -0.146736 -3.08921e-21)
(1.15513 -0.0476596 1.03086e-21)
(0.930707 0.0937002 5.24575e-20)
(1.10229 0.0953872 -1.67281e-20)
(1.01393 0.0592027 -1.95316e-20)
(1.19806 -0.155616 8.03152e-22)
(0.963788 0.00224926 -2.7983e-20)
(0.968186 -0.0191099 5.7235e-22)
(0.987993 -0.0445436 4.22735e-22)
(0.925245 0.0110352 9.76941e-21)
(1.07988 -0.0278368 -1.01882e-21)
(1.04686 -0.135122 -4.27347e-22)
(1.01557 0.0834479 -3.99778e-21)
(1.00442 0.0820161 -1.22575e-20)
(0.977961 -0.0392881 -7.07481e-22)
(1.02688 0.018015 -2.05817e-20)
(0.984267 0.0880219 -3.39496e-21)
(1.00524 0.0759868 1.60134e-20)
(1.04007 0.112752 5.24485e-21)
(1.01188 0.0834693 2.5825e-20)
(1.05768 0.0773255 -1.38029e-20)
(0.986974 -0.00358557 1.48112e-22)
(0.969332 -0.0207276 6.93034e-22)
(1.00282 -0.00756531 -1.57982e-23)
(1.01509 -0.120326 3.22179e-21)
(0.993643 0.0211814 -4.73714e-21)
(1.02095 -0.127198 1.88046e-21)
(1.18662 0.0950488 -3.92434e-22)
(1.1565 0.0547613 -1.04213e-20)
(0.973549 -0.0501709 5.4787e-22)
(1.24465 0.0468891 2.31046e-23)
(1.17627 0.113558 -4.19038e-21)
(0.992457 0.0087249 -1.44859e-21)
(1.23535 0.0363186 2.05259e-21)
(0.999715 -0.00347863 -6.01448e-24)
(1.06335 -0.0137516 8.05997e-23)
(0.986132 -0.0499776 2.85853e-22)
(1.24452 -0.0621931 1.08313e-22)
(1.2622 -0.059983 -9.77147e-22)
(1.02486 -0.135128 6.18459e-22)
(1.04115 0.10824 2.96767e-21)
(0.975208 0.0949689 2.70613e-20)
(1.18247 -0.0244655 2.44718e-21)
(0.99712 0.00763695 1.48731e-20)
(0.90004 0.0627802 -1.77644e-20)
(0.998533 -0.000103501 2.7794e-24)
(1.00337 -0.00109764 7.30156e-25)
(0.996751 -0.00566706 -6.76404e-23)
(0.973014 -0.00825394 9.44907e-23)
(1.08309 0.0855179 -1.0758e-20)
(0.925161 0.0125858 -2.12115e-20)
(1.13985 0.0123499 1.32424e-20)
(1.0311 0.102704 3.80013e-21)
(0.982411 -0.0237582 -3.92052e-22)
(1.07521 0.122798 2.25886e-20)
(1.07174 0.129866 7.21945e-21)
(1.24798 -0.117818 4.83598e-22)
(0.958698 -0.0119772 5.5357e-22)
(0.945045 -0.0208606 5.49004e-22)
(1.19083 0.0991076 1.05554e-21)
(1.01313 -0.0431411 1.99748e-22)
(1.19519 -0.0351713 1.19208e-21)
(0.970596 -0.0401012 1.55783e-22)
(0.951702 -0.0393126 -1.47879e-21)
(1.02171 0.0862949 2.85622e-20)
(0.99212 -0.00247339 6.76421e-23)
(1.02763 -0.0580066 -1.15596e-22)
(1.00636 0.0909746 1.33698e-20)
(1.2429 0.0385328 8.35699e-21)
(0.938899 0.0793973 5.97399e-21)
(1.01824 -0.0858195 -8.12677e-22)
(1.04364 0.0118052 9.86181e-21)
(1.25325 -0.0666152 1.27272e-21)
(1.00131 -0.0709345 2.84742e-22)
(0.978099 0.00719518 -6.7353e-21)
(0.989879 0.000477086 4.07993e-20)
(0.990298 0.0279743 -7.35772e-21)
(0.994347 -0.0336572 -5.69926e-22)
(0.938395 0.0157985 2.31244e-20)
(0.965148 -0.0347545 5.30304e-22)
(0.973282 0.0704804 8.47879e-22)
(1.12522 -0.0618126 -4.28742e-22)
(0.986936 0.0446149 -4.17715e-21)
(0.983192 -0.0476371 3.59613e-22)
(1.00004 -0.000225497 -2.23298e-25)
(0.98691 0.0391716 1.38571e-20)
(0.971241 0.0632594 1.613e-20)
(0.975602 0.0767985 -2.59062e-20)
(0.988048 0.0338449 -1.61305e-20)
(1.07488 0.00587807 -3.48411e-20)
(1.13484 -0.0147221 -1.64526e-22)
(1.07095 0.0746355 -2.67421e-20)
(1.04362 -0.130989 1.07145e-21)
(0.996456 0.0171316 4.85296e-20)
(1.02218 0.0555538 -2.42284e-20)
(1.25386 -0.0168281 1.65675e-21)
(1.08857 -0.0119448 -4.36322e-21)
(0.987379 -0.00340096 8.21629e-23)
(1.28903 -0.0224869 -4.22414e-23)
(1.02798 0.0891468 -4.83677e-21)
(0.952378 -0.0305001 3.77543e-23)
(0.969351 -0.00460427 -4.83329e-22)
(0.99147 0.00458 -9.63178e-21)
(0.982015 0.0479492 -2.97235e-20)
(0.990663 -0.054268 -5.80492e-22)
(0.98984 0.052275 2.1737e-20)
(1.02776 -0.143381 1.08244e-21)
(1.22019 0.0686015 -7.3335e-21)
(0.993833 -0.000306568 -7.33578e-23)
(0.976669 0.0515929 -1.67132e-20)
(0.970508 0.0560188 4.2529e-20)
(0.904415 0.0352442 3.96701e-20)
(0.980975 0.0904375 3.52671e-20)
(0.996966 -0.000360266 -6.51854e-24)
(0.982609 -0.0257751 2.58172e-22)
(0.998609 -0.00124598 -2.04092e-23)
(0.997698 -0.0744281 -2.3264e-21)
(0.939393 0.0616916 -8.50437e-21)
(1.12971 0.0810841 -2.30644e-20)
(1.03655 0.0977869 -2.83868e-22)
(0.952173 -0.0376865 9.5401e-22)
(1.0464 0.0378488 2.42842e-20)
(1.03671 -0.0362098 -2.80278e-22)
(0.938768 0.0708905 1.23168e-20)
(1.09031 -0.0980736 -2.9593e-22)
(0.995336 0.00668181 1.64512e-20)
(0.994006 -0.000303174 -4.82192e-23)
(0.947792 0.0581168 -2.85034e-20)
(0.930748 0.0751215 -3.43418e-20)
(0.98087 -0.0269944 -6.74608e-22)
(1.18484 0.0418827 4.98585e-21)
(0.949219 0.049139 -2.84293e-20)
(0.996399 -0.000550693 1.95192e-23)
(0.920688 0.0353244 -4.46419e-21)
(1.04785 -0.0717121 1.17419e-22)
(0.996464 -0.000370591 9.22593e-25)
(0.956993 -0.0132423 -3.88619e-22)
(1.01424 0.0937077 -1.69745e-20)
(1.1542 0.0719234 -1.35228e-20)
(1.00979 -0.100932 1.46084e-21)
(0.993943 0.0910082 1.38621e-21)
(0.926004 0.0842452 2.27953e-21)
(1.07134 0.125427 -2.44987e-20)
(1.0564 -0.0106104 -7.65377e-22)
(0.999938 -0.0660011 4.50304e-22)
(1.1545 -0.0605232 -9.94537e-22)
(0.982859 0.0541845 2.44904e-20)
(0.92924 0.0355619 -2.58045e-21)
(0.899584 0.0340192 2.56489e-21)
(1.12819 0.0705047 3.56574e-21)
(1.00059 -0.0101672 2.66371e-23)
(0.97742 -0.00173989 9.67718e-24)
(1.03048 0.0920239 -1.7179e-20)
(1.00198 -0.00787377 1.88338e-23)
(0.984584 -0.00526148 -1.11903e-24)
(1.00315 -0.0123836 -1.18288e-23)
(0.994213 -0.0293821 -2.80721e-22)
(1.09111 -0.145898 1.86944e-21)
(1.18543 -0.143099 -1.07523e-21)
(0.962322 0.0757691 -3.77202e-20)
(1.02048 -0.0479086 1.72777e-23)
(0.998952 -0.00100131 1.26445e-23)
(1.02848 0.0581251 -3.78945e-22)
(1.15042 0.0991369 1.12026e-20)
(1.00199 -0.0125467 -3.01649e-23)
(1.19657 0.0797247 -6.0692e-21)
(1.00183 -0.00131946 2.27248e-24)
(1.14509 0.0550915 1.21047e-21)
(1.01534 0.0315927 2.61091e-20)
(0.987613 0.0500257 -4.21534e-20)
(1.15044 -0.150709 1.26953e-21)
(1.16807 0.0422803 -6.95324e-21)
(0.993947 -0.0139016 -4.74438e-23)
(1.12271 -0.0975521 2.50896e-23)
(0.995129 -0.00173289 -3.80164e-24)
(0.979336 0.0611402 -4.3387e-20)
(0.960754 0.0737191 1.16627e-20)
(1.21843 -0.146896 9.35335e-22)
(1.17956 -0.159481 1.04516e-21)
(1.14088 -0.165771 3.89942e-21)
(1.034 -0.0850673 6.46261e-22)
(0.990518 0.087266 2.92168e-21)
(1.03667 -0.0775028 3.75084e-22)
(1.1129 -0.135797 5.6927e-22)
(1.07682 -0.160578 -9.39996e-22)
(1.11546 -0.0856769 -3.9007e-23)
(0.912529 0.0353694 2.17361e-20)
(1.14426 -0.183237 -7.18752e-21)
(1.23684 0.0125535 -4.99948e-22)
(0.985158 0.0165965 8.42618e-21)
(0.99504 -0.000422806 4.57354e-23)
(1.18929 0.0215131 2.76247e-21)
(1.03902 -0.0695801 -5.07817e-22)
(1.07653 -0.147327 1.60302e-21)
(0.995552 -0.00105723 -1.7163e-24)
(0.99972 -0.00294579 -1.72907e-23)
(0.912984 0.044736 -3.70558e-20)
(1.05398 0.0400864 1.86007e-20)
(1.21468 -0.155865 3.96642e-21)
(1.28404 0.00508544 4.08333e-22)
(1.05648 0.0681468 -1.00373e-20)
(0.993138 0.0511867 -3.41504e-21)
(1.02461 0.0589077 7.37937e-21)
(1.22566 -0.082826 -1.07691e-21)
(0.984075 -0.05355 9.92231e-22)
(0.994897 -0.045246 -3.38978e-22)
(0.987394 -0.0483226 -9.07047e-23)
(1.03587 0.0599924 -2.45758e-20)
(0.969439 -0.00585875 4.545e-22)
(1.00468 -0.0672331 6.65875e-22)
(0.999679 -4.31564e-05 -1.07024e-24)
(0.97112 -0.0203537 -1.15243e-21)
(0.997715 -0.000626133 4.75506e-25)
(1.1128 -0.152404 1.36715e-21)
(1.00907 0.0912836 -1.58901e-20)
(1.05335 -0.134564 6.12048e-22)