/*--------------------------------*- C++ -*----------------------------------*\
  =========                 |
  \\      /  F ield         | OpenFOAM: The Open Source CFD Toolbox
   \\    /   O peration     | Website:  https://openfoam.org
    \\  /    A nd           | Version:  7
     \\/     M anipulation  |
\*---------------------------------------------------------------------------*/
FoamFile
{
    version     2.0;
    format      ascii;
    class       surfaceScalarField;
    location    "32";
    object      phi;
}
// * * * * * * * * * * * * * * * * * * * * * * * * * * * * * * * * * * * * * //

dimensions      [0 3 -1 0 0 0 0];

internalField   nonuniform List<scalar> 
11380
(
161.536
-586.785
425.25
-795.529
24.5301
770.999
475.674
-374.011
-101.663
716.554
236.281
-952.835
1509.87
-1069.36
-440.509
1216.24
-1527.08
310.841
38.6896
455.049
-493.739
169.393
-839.598
670.205
961.836
-1610.66
648.825
-1789.23
1696.58
92.6494
-542.947
1759.19
-1143.59
1937.22
-793.633
603.524
181.449
-784.973
-27.9763
-1330.91
1358.89
225.946
-2015.17
1020.29
-388.057
-632.23
-229.098
390.633
480.666
190.553
-671.22
1152.96
-1317.09
164.133
-331.91
373.628
-41.7187
1016.74
-1343.95
327.211
1221.83
800.85
-2022.68
79.1828
-1661.85
1582.66
-543.379
-1133.97
1677.35
470.244
181.83
-652.075
-202.552
-384.234
497.133
1012.73
1670.11
-1833.6
163.487
-118.874
-1682.34
1801.22
-1561.53
661.576
899.957
-314.187
651.267
-337.081
-181.607
-73.2777
254.885
1302.12
-1222.94
355.456
-1407.06
1051.61
-1754.19
1754.19
103.015
1556.33
-1659.34
-1088.98
-472.555
687.15
-648.461
-390.549
942.188
-551.639
1331.6
-1317.03
-14.5748
-1099.91
709.361
618.659
401.628
-416.872
-6.30094
423.173
-502.42
813.845
-311.424
-1618.26
1618.26
1253.5
-1437.81
184.308
-489.793
1711.63
1250.94
-308.755
1660.68
-1161.17
-499.51
50.4419
-382.352
2069.59
-1138.53
-931.056
1839.81
-169.702
447.747
155.93
-603.677
-484.239
983.546
-499.307
-1190.39
1293.41
-565.114
968.149
-403.035
393.28
759.678
659.633
-490.24
-437.433
585.267
-147.833
1190.44
-834.989
2308.26
-1080.72
-1227.54
1165.59
-2014.27
848.681
-1625.22
1597.24
440.328
-1583.92
-758.462
1249.96
-491.499
-668.954
354.767
1661.38
-699.547
-1106.93
-870.907
1977.84
743.275
-372.684
-370.591
691.173
559.77
-258.222
1511.72
91.6353
-304.8
213.165
-284.448
754.693
-331.558
555.968
-224.41
-324.126
804.792
-319.515
-135.684
455.199
310.061
165.613
1488.51
-471.776
-1026.66
490.926
535.739
257.156
100.285
-357.441
944.797
-341.273
-1713.48
574.286
1139.19
16.6312
-880.585
863.953
-272.23
585.234
-313.004
159.594
-1093.88
934.287
1049.89
-1065.57
15.6822
373.145
515.377
-888.522
-244.961
692.708
-1102.26
-483.083
1585.34
-675.776
948.308
-272.532
1346.72
-1465.59
-660.453
255.607
404.846
-470.219
-1011.41
1481.63
-533.543
-800.142
1333.69
574.268
-994.013
419.744
-259.648
-312.37
572.019
395.363
-303.728
-1050.34
566.105
955.675
-796.082
-110.458
943.374
-832.916
-197.503
403.957
-206.454
-670.765
-355.899
-386.713
960.981
1856.34
-1856.34
-522.512
-137.941
-949.23
1604.36
-655.127
396.506
-824.52
428.013
-920.701
355.587
-941.898
-1058.08
-1506.64
335.087
1171.55
-256.675
973.228
-346.715
630.072
-283.357
-1941.89
999.99
-1163.35
-343.295
597.688
-1546.92
1728.48
-1726.31
-2.16882
173.807
-603.639
429.832
-1499.34
988.948
510.397
269.554
226.313
-495.866
301.832
-633.39
229.375
-401.6
172.225
2025.35
-848.957
-1176.39
-546.884
130.011
611.368
846.522
-1457.89
-181.644
411.019
432.147
875.315
-1307.46
-899.341
384.348
514.993
-1055.13
1448.41
-1067.95
309.493
742.539
-91.2715
576.594
-339.04
-237.554
1049.77
-558.839
593.562
-1403.42
809.854
-1341.86
239.6
-536.315
264.085
-1234.56
977.885
1933.2
-1009.45
-923.752
276.794
1579.55
-2104.46
901.942
1202.51
348.653
-34.2851
-314.368
-221.988
475.202
-253.214
-85.9937
-395.384
481.378
-454.626
135.111
333.981
-135.092
531.599
440.494
365.404
-805.898
-2059.52
1150.39
909.128
461.134
-520.876
59.7423
214.389
-353.961
139.572
952.268
1073.08
1813.12
-256.791
753.412
-497.805
794.338
-1388.14
593.8
350.83
392.445
1080.17
-1063.54
-459.41
-334.966
794.376
462.252
-123.581
-338.67
793.541
-612.092
482.212
-737.721
255.509
503.333
1157.35
-1240.21
706.666
1018.3
-1561.68
-3.10463
-1439.42
1442.52
329.258
820.622
-1149.88
620.943
269.846
-890.789
-2275.15
1192.93
1082.22
-1124.08
-1151.07
95.4465
386.766
959.345
-630.087
877.238
-897.092
19.8539
-2099.4
992.466
-214.14
-184.049
398.189
-42.3423
1770.82
-848.414
52.885
-1035.59
-1068.87
-226.153
440.542
-696.032
173.52
-287.145
-479.595
766.74
1103.88
-1574.1
782.172
-1373.96
591.783
729.842
-493.561
1947.79
-1444.46
-378.279
-1375.92
14.6661
440.383
-532.091
556.621
41.7908
-594.675
552.884
564.7
-295.147
-594.76
272.274
322.486
786.816
-346.322
35.0382
313.615
1188.47
-1191.57
157.318
238.045
453.418
-740.562
617.364
-1004.08
-2026.82
2026.82
-294.663
-482.93
777.593
698.396
405.813
-1104.21
579.398
163.141
425.993
360.823
-2199.78
1328.87
-925.042
-681.505
1606.55
-466.125
-768.434
-292.123
619.952
-327.83
878.968
-295.3
-583.668
-478.495
652.302
347.938
-694.653
-397.899
-103.792
501.691
-1352.78
-480.819
703.939
-1170.06
-374.128
-1244.13
844.378
1463.88
309.657
-873.258
563.601
965.134
-346.476
1390.99
-797.429
435.275
-277.957
-319.943
-922.062
646.805
275.258
-419.558
-502.504
319.248
-405.241
-120.267
-171.873
292.14
-392.853
1091.25
432.498
-241.945
-379.147
1378.59
-168.945
-1209.65
-472.939
307.138
165.802
278.159
294.565
-572.724
-74.0517
-663.67
592.262
-1729.14
1136.87
1488.88
-877.512
-1057.27
-442.072
-1054.5
575.183
479.312
1420.08
-431.13
927.928
-1411.01
-208.026
-116.904
324.929
-466.453
575.568
-1630.7
427.791
903.809
289.367
372.554
-661.921
568.013
1186.18
1100.85
-706.122
-394.731
387.175
-200.69
-186.485
-1419.39
447.849
735.331
-1183.18
1473.08
-545.152
-514.347
993.968
-479.621
426.173
1186.12
-1612.29
47.4571
-723.233
-154.284
411.44
146.647
-328.254
570.427
479.339
-511.191
-16.5832
527.774
1024.49
-1307.62
283.129
672.284
-246.291
468.514
-1447.16
978.645
352.184
1690.73
-525.14
847.532
1085.67
-655.514
-1685.08
760.039
553.877
425.606
-979.483
460.34
79.2826
1750.32
-1829.6
1443.53
-379.491
-1064.04
1699.28
-1741.62
-363.322
-548.875
725.256
-176.381
-502.589
168.826
293.426
-373.069
-1225.86
214.449
-764.829
-638.587
-556.246
980.398
-424.152
-649.69
639.411
10.2784
654.595
-923.156
268.561
-618.64
297.789
320.85
-646.032
-775.3
374.343
400.956
-931.954
1400.47
-433.722
896.536
-462.815
-2205.33
5.55555
163.994
-525.305
361.311
141.151
1237.44
-73.5389
-622.493
149.453
-586.887
1486.81
-704.634
391.083
-459.291
68.208
-558.543
558.543
1222.9
395.36
1778.56
-1227.05
590.636
636.414
844.819
-51.2782
1293.38
776.209
-541.639
1335.98
292.927
292.306
255.359
-804.234
216.999
-719.419
222.863
-433.67
210.807
-320.261
645.814
-325.553
81.667
-401.928
-590.669
-564.753
1155.42
-420.114
560.625
-140.512
-1192.14
2032.02
-839.881
1286.98
-327.633
-393.986
134.338
-1991.5
857.527
1579.58
-870.064
-709.518
1987.1
-877.53
-1109.57
714.906
572.072
-238.881
461.744
-695.632
1206.15
-510.515
-768.581
1200.73
552.194
924.441
-1726.48
802.035
-610.079
-49.7816
659.86
293.309
283.285
446.721
-65.7485
-380.973
895.938
-83.6156
-812.322
947.819
-603.033
-344.786
1576.1
-472.222
898.744
-1632.4
733.66
1068.42
879.37
743.829
-431.246
-312.584
-1058.7
-258.324
581.237
568.103
-1149.34
-521.129
524.789
-3.66012
568.888
-330.86
-238.028
-991.33
557.608
591.99
896.89
-441.713
1096.31
1436.72
-803.477
-633.241
383.869
-919.672
535.803
-1072.69
401.927
597.491
-1111.84
448.901
-552.877
103.976
470.185
343.66
-509.717
-48.8266
-793.195
-884.515
1677.71
178.42
208.754
-284.092
379.539
9.20081
-603.892
594.691
514.456
870.571
-1385.03
-428.951
308.684
984.707
-88.7695
834.689
-1063.76
229.066
441.988
844.046
-1385.68
-470.115
835.519
1985.6
-1291.12
-694.479
269.17
608.069
255.239
794.654
113.249
-1012.42
899.175
1673.69
-1088.84
-584.851
-138.214
1888.53
-1866.18
-160.636
481.763
-619.886
138.123
-1009.3
528.931
480.364
-1730.45
538.314
-955.143
844.685
392.346
192.921
550.042
-240.385
-410.093
704.566
260.569
-24.7062
744.52
-719.814
-1151.04
-875.918
2026.96
-574.863
1150.43
-575.569
-493.653
-318.948
104.808
-1660.05
866.859
-804.41
-672.91
1477.32
-327.709
-293.868
621.577
359.28
-722.416
363.136
266.226
-612.548
345.781
180.53
-526.311
386.451
-678.573
696.169
-336.888
314.272
-449.956
698.998
488.396
-210.238
-471.203
-304.097
1238.5
1.63714
-1240.13
1037.71
-420.348
557.224
410.925
-1782.26
869.794
912.462
480.418
571.461
-1051.88
-530.36
202.651
-265.794
1182.97
-917.175
-1590.76
1212.48
504.542
-1095.21
380.994
10.0889
482.114
308.715
-790.828
365.066
-610.027
-42.7394
761.865
-719.126
-524.099
793.945
415.728
319.71
525.109
648.267
88.5019
-466.177
377.675
1057.51
-644.142
-413.365
494.071
-1664.27
1170.2
-1140.19
1753.21
-613.019
1715.92
-1123.66
-332.896
605.17
-1197.04
1310.29
424.209
-799.186
1625.26
-826.074
-285.707
-187.232
-943.761
1474.31
1819.29
-609.739
-1209.56
-405.324
753.72
-1309.97
-124.581
-103.769
550.49
-712.802
-354.188
-1236.58
-206.804
473.03
901.507
-555.4
160.016
-1675.09
-71.4094
1746.5
-1110.18
535.322
560.787
-1188.66
627.871
900.716
918.579
630.233
619.728
734.772
259.196
-1197
501.367
-386.677
428.467
610.587
-512.143
226.072
-725.054
498.983
752.182
-401.352
-249.005
175.727
-620.996
278.378
342.618
-883.931
-748.473
1087.66
-2145.74
393.122
-677.57
-342.697
-722.878
836.985
599.733
-330.32
324.019
422.684
322.107
575.816
-897.923
549.558
656.588
-545.781
147.883
394.253
-688.916
-1076.25
-823.61
1899.86
-1819.05
157.2
1106.22
-1372.01
1211.32
-700.257
-511.068
-505.246
1349.29
-1495.36
627.963
867.396
-282.314
-208.327
490.641
1428.47
558.631
373.937
-477.729
-474.307
-580.179
1054.49
-427.94
591.934
1584.04
-1132.51
-451.534
-856.558
373.628
654.192
403.315
-1623.41
416.206
1207.21
-168.301
514.082
797.353
786.687
180.244
-713.566
533.321
195.04
208.916
-272.158
-109.831
381.989
496.735
39.9761
-536.711
-1675.96
618.685
-1626.83
1701.45
-74.6246
17.1495
-1643.98
1069.4
821.534
-339.42
-858.675
-214.017
-1134.57
-239.381
-311.71
676.776
-1813.3
-647.691
1215.79
228.468
755.078
-1335.24
-679.03
-466.544
681.748
-392.381
-1013.25
1350.84
-1933.15
582.314
648.278
1288.94
477.213
-2.01095
715.837
723.389
-1439.23
-631.863
322.213
309.65
432.451
-100.693
-331.758
130.581
327.699
136.059
-463.757
-611.176
1165.05
442.89
-661.641
-458.213
-401.719
859.932
-301.195
93.1699
-450.06
146.331
-298.6
-710.695
536.781
-104.33
-581.858
965.727
569.502
-266.238
-303.264
450.469
-774.595
-648.891
479.386
-1129.34
-860.43
1195.52
-569.771
432.385
361.992
-499.497
126.813
1025.79
-312.289
586.792
-274.503
-509.038
1578.44
-761.212
316.642
367.87
-684.512
211.456
541.593
-0.0466267
-541.546
-267.48
-182.579
990.551
1108.76
564.928
-904.779
957.166
-52.3866
-449.138
166.824
-810.671
331.076
-585.242
378.895
373.287
874.199
-1294.36
420.16
774.045
-816.784
-948.744
-550.405
1499.15
-158.911
531.465
-566.432
227.392
1328.01
809.107
-628.863
1380.37
-676.431
486.584
-621.654
-405.773
-419.013
-378.258
797.271
498.397
-839.67
-489.03
69.0557
419.974
-306.443
572.544
723.055
-329.934
-226.09
-173.82
399.91
-485.493
121.978
363.514
1465.78
85.1987
-1550.98
-760.156
1352.15
-1144.79
-465.867
609.743
-241.873
1154.91
-380.861
1083.37
492.732
702.248
-446.889
-884.471
-522.59
-1328.24
-15.2225
985.5
-970.278
633.323
384.738
-1018.06
-357.547
-189.337
-688.376
405.558
1621.26
-223.235
394.04
329.392
-723.432
-1839.73
-2106.72
1519.16
587.56
-2041.94
359.6
416.173
557.812
-973.985
-460.691
1017.92
-446.711
-688.779
1135.49
-2030.58
1391.22
639.363
617.67
-1064.38
9.12486
439.776
385.779
180.013
255.263
382.681
1033.84
942.55
672.967
-318.636
-354.331
-285.485
612.941
-327.455
566.566
534.287
563.79
514.29
-1078.08
-795.947
-699.412
749.295
405.611
-418.578
781.714
-1193.36
1609.56
470.08
-1158.86
-361.989
542.518
-1398.45
945.952
452.499
-726.918
-335.921
-737.724
267.268
470.456
447.512
716.784
-1164.3
1081.28
-600.861
-439.077
669.813
-230.736
249.036
320.466
-464.353
-432.4
896.754
-218.509
596.351
-982.562
386.211
-445.534
600.597
-1681.32
424.13
669.422
-1093.55
515.163
114.909
113.416
-2212.82
600.993
-168.608
1445.63
1777.1
-217.545
-1559.56
-438.621
1789.46
-1987.51
1194.68
792.83
392.208
351.621
-54.8345
891.82
-1282.2
717.448
-866.073
-820.34
805.118
287.154
84.2418
-371.396
219.557
171.96
-391.517
1571.24
-855.404
-1530.91
-325.431
511.929
-245.565
-266.364
389.391
365.302
251.307
430.441
-13.0837
1004.8
-991.717
440.854
290.366
-731.22
-734.263
1817.52
-1083.25
-342.363
731.753
-1239.71
-419.631
-911.86
479.46
651.389
-861.463
210.075
755.802
-374.349
-381.452
-457.899
-446.88
456.867
1147.05
1244.03
-683.244
796.312
-345.843
424.221
353.372
-225.976
-233.315
-297.779
649.963
408.172
-842.996
434.824
278.114
388.958
-667.072
-418.055
826.226
753.643
-1146.5
926.79
-52.5908
-478.883
280.34
799.835
-97.2166
1386.16
1890.52
-38.0587
345.196
-384.444
472.946
-1090
1076.91
692.161
376.336
379.466
102.754
409.176
247.212
523.786
-379.037
-252.826
-559.967
-89.7228
-371.032
357.617
13.414
-256.776
-279.539
1010.57
-1540.65
530.077
-142.604
-231.407
-443.018
733.384
-1659.62
1590.86
-962.897
335.829
-741.603
584.348
1224.4
-1808.75
607.462
983.397
323.722
-1129.38
719.285
-345.735
-316.186
1401.98
-1462.06
847.253
614.812
467.78
-647.029
179.248
-403.661
479.878
-76.2176
413.107
83.6286
1725.29
445.214
-250.174
557.692
-1704.79
1147.1
-103.477
428.154
342.755
330.212
-448.849
-613.627
1062.48
401.609
-871.724
-639.625
901.816
571.265
-428.508
-190.131
-433.536
-409.46
-307.94
-826.634
1821.09
-1821.09
-97.2514
-1617.03
1714.28
298.274
270.615
-916.561
-555.817
1472.38
-408.116
971.906
-635.034
-1040.92
732.481
399.471
-1131.95
464.43
-150.158
573.083
1220.34
-1793.42
-1048.06
2114.19
-1066.12
-381.424
-287.53
-519.68
893.308
-1767.77
1613.46
154.307
1767.77
-1622.54
-145.229
-236.308
513.85
-277.542
-537.329
1620.69
1591.37
-2011
1134.41
-344.794
-239.901
584.695
211.545
-573.534
-774.412
355.834
1345.19
640.411
591.888
474.129
-1066.02
258.569
443.68
875.065
500.114
-1375.18
545.763
-1020.07
1574.93
-564.354
-792.993
-413.51
-158.538
572.048
-490.558
1207.34
-738.675
327.243
365.464
396.39
229.129
-625.519
607.935
831.296
-602.229
248.08
709.086
-428.508
-382.036
-217.657
599.693
1168.35
-710.714
603.821
471.137
-1074.96
-1280.85
1280.85
-380.693
757.029
-269.206
-489.517
758.723
512.056
431.282
-943.338
399.618
-668.824
599.136
-870.388
271.252
-367.676
-484.928
1076.82
-657.008
-716.485
1373.49
-369.665
966.016
-1552.83
675.301
-6.66765
-403.714
410.382
-573.28
746.8
335.805
310.009
158.296
306.134
-598.271
252.536
1871.37
-1968.59
241.945
-720.44
468.613
-824.351
355.738
-897.793
1459.92
-562.128
-430.448
-481.412
600.986
1124.13
-1725.11
-711.668
330.245
-465.896
1032.46
-816.804
1064.88
-369.305
-618.381
-539.673
756.672
535.629
-353.799
913.665
-322.627
-162.865
1599.04
-1816.59
-338.094
-644.468
-353.653
475.631
277.803
-670.184
-153.216
1088.8
-808.462
184.972
-372.534
-272.854
645.388
381.138
-895.549
514.411
-475.189
-476.506
-873.258
-388.924
589.895
-200.972
-454.008
-456.296
-364.381
-161.929
-421.712
650.841
-484.431
837.804
-1070.92
622.071
-1407.52
603.108
-29.6281
-1844.09
1873.72
570.246
-451.397
1262.63
-727.313
240.402
-240.402
676.678
-464.863
1041.43
-1676.46
-1158.74
-947.975
284.678
328.262
909.079
716.181
-535.542
-287.932
823.474
1665.4
-1695.02
-432.463
329.101
235.6
1134.3
-530.475
-943.346
1550.51
-607.163
437.579
-257.566
383.847
457.348
-841.194
555.502
458.732
-1014.23
-330.674
657.918
-38.3762
1909.75
1639.12
992.052
-1696.69
726.069
-1176.22
450.146
-492.537
1367.6
835.592
-1340.84
-602.617
257.823
819.391
-393.784
542.4
-1195.51
653.11
-630.347
-1215.52
-695.738
1911.25
-167.273
555.298
-388.025
-143.748
341.28
-508.553
341.44
356.379
-697.819
-1497.61
755.339
742.268
883.877
-1434.28
818.911
-434.563
199.811
-354.095
-636.718
254.682
-720.831
-677.619
695.913
508.521
-1204.43
377.52
-204.956
-172.564
552.583
-955.618
-598.345
-471.334
802.41
-831.387
-1156.13
-1437.92
499.804
938.112
42.4351
-682.454
330.672
351.782
-1334.88
1051
283.884
-614.251
-456.67
-665.261
920.5
392.79
-185.363
-207.427
508.557
980.245
-1488.8
986.784
-557.392
164.406
392.986
-477.617
685.971
-444.026
-503.258
149.606
233.824
-1524.95
518.007
563.273
-799.911
226.632
130.026
-452.653
350.895
-827.401
1954.16
-1195.38
-758.781
470.425
-710.702
240.277
318.804
345.738
95.5056
-441.244
-593.147
183.35
261.865
-691.88
1374.04
-682.161
424.085
513.744
-1240.66
257.074
1866.76
-1013.59
-853.175
783.46
-544.936
156.012
1402.25
-975.046
-427.209
314.914
-779.777
-616.648
1725.41
603.203
640.828
326.207
-39.0525
246.894
-1138.28
1725.72
-587.443
-1763.57
820.22
1785.06
-1711.77
-73.2847
-665.546
278.87
652.457
-747.452
207.779
1402.41
-566.823
371.99
463.528
-1858.91
1420.29
567.019
-481.594
-85.4248
181.026
-545.407
-328.981
-164.671
-346.102
688.857
-677.293
263.783
631.333
541.381
-1172.71
1113.34
-1947.79
834.45
131.114
370.577
-1701.35
1662.97
295.127
-742.017
-174.061
373.872
772.043
676.794
-1448.84
1098.1
-1096.46
516.046
-1116.91
-621.174
243.753
377.422
551.408
-273.03
-651.941
-1024.52
273.884
-730.18
-912.323
151.637
149.906
227.614
421.688
271.595
-693.284
-646.258
-834.655
-978.649
479.424
-1072.57
-324.744
490.546
530.147
665.37
-274.947
-119.039
-461.876
785.598
248.1
-1207.16
560.902
1320.07
-548.03
432.062
-1030.41
-379.276
127.045
439.974
1022.97
551.951
-1733.05
1635.8
1669.59
-621.116
-1048.48
1909.17
-1899.22
-9.95284
233.554
-617.998
-373.906
558.878
-789.045
-338.782
-326.764
1017.65
715.449
-1539.28
823.833
243.682
-26.1793
1625.22
-1133.42
422.703
-1297.57
504.576
-62.6504
1528.43
1196.67
-470.599
-484.348
-73.0439
-248.994
736.115
-1951.63
-704.283
368.444
-530.328
161.883
189.74
-502.029
1139.98
671.662
-1811.64
-632.239
150.645
941.364
-1497.18
-210.554
678.653
-468.1
885.429
1114.57
-751.622
1354.83
651.831
-554.692
-97.1396
-335.348
1182.6
1071.91
-1981.83
909.917
-1182.88
535.191
1488.63
-586.818
-424.49
-121.291
-1249.34
566.098
1176.7
-37.5022
946.391
776.356
-1722.75
-186.956
579.037
-1541.68
962.647
487.044
916.231
-1403.28
637.902
577.891
421.566
-1106.57
588.133
1116.72
1214.7
-451.971
-762.733
-1186.2
-1754.93
-2.11978
-1730.93
-176.097
-470.932
1614.67
-639.64
-975.032
-490.778
1121.01
-1325
631.039
693.962
-1367.6
1452.79
-1337.93
586.308
1520.4
-438.282
-587.062
162.572
-1518.91
224.966
176.391
210.172
441.659
472.446
412.765
-885.211
506.52
-938.603
899.57
-1444.72
-727.439
215.465
511.974
-1060.3
449.12
-495.918
867.909
694.685
9.96249
-534.147
146.123
-886.57
-1318.76
-708.875
343.172
365.703
392.772
-719.578
326.806
-469.998
-189.339
-707.753
730.741
1540.5
-594.108
834.026
737.215
1344.48
-844.369
-970.593
-571.09
-790.644
429.066
361.578
-1034.6
-634.709
296.554
338.155
-1433.68
-296.775
-785.328
392.469
392.858
-671.569
443.975
227.595
-693.542
249.516
412.841
483.913
389.754
436.473
475.681
384.251
594.288
-967.357
709.13
455.923
450.642
355.652
-806.294
1630.7
-1079.76
-550.932
-505.128
-300.062
-1034.82
449.916
347.355
409.789
591.662
-1001.45
-1387.78
748.14
-523.574
1151.44
359.744
-32.0451
412.615
-861.237
448.622
-1910.45
293.419
437.618
-721.896
284.278
-193.618
395.602
-201.984
-656.585
294.505
362.08
-666.891
312.56
370.508
386.521
611.039
-1019.15
750.551
666.828
-1417.38
438.897
623.579
336.116
391.15
-727.266
404.087
327.666
624.976
714.122
432.927
629.443
-1052.9
423.452
-1695.2
1151.51
543.681
1696.54
-539.19
616.495
-1146.39
529.896
-637.422
343.554
437.802
-931.878
494.076
807.923
-499.208
350.277
338.58
607.041
-945.135
655.266
-1251.69
596.426
422.87
733.187
-1223.75
767.957
510.312
-1278.27
513.46
393.715
-907.176
-501.9
-936.016
-287.994
629.434
352.378
539.561
-891.938
327.293
330.624
-502.2
1944.72
434.776
-844.254
409.478
-917.371
-809.104
-742.625
361.173
-1248.13
431.331
-1754.44
1622.54
131.897
1757.67
-1613.46
-144.209
-779.379
-583.32
257.245
326.075
-1785.06
2011
539.505
789.903
-1329.41
440.196
715.226
689.282
385.594
-1074.88
6.79619
1617.14
-594.162
387.016
875.619
-642.407
321.451
320.957
-378.662
-294.978
544.014
-205.885
432.197
274.325
-656.466
382.142
255.807
-568.81
-275.651
442.937
-1031.38
588.445
538.089
1092.61
365.912
595.069
307.345
349.144
-656.489
1658.28
-942.831
1693.08
-1521.88
-171.199
-327.514
-818.445
408.986
857.008
-1067.56
-598.316
270.861
-1090.48
1628.57
-1616.97
-70.3077
1687.27
-341.071
-350.031
-370.337
542.331
591.965
-499.694
-21.1823
-549.33
495.953
-282.632
-213.321
1780.37
-1323.51
-617.007
292.191
324.816
396.18
357.335
733.914
-288.744
-399.453
-1757.67
1695.02
459.936
-1099.41
639.475
-40.1363
1675.93
570.334
476.181
-1046.51
102.444
1143.95
-1451.89
-3.87573
-1906.58
218.411
-590.75
305.539
285.211
-953.967
611.271
-894.505
464.057
-1127.27
671.682
455.588
408.877
255.803
-791.345
-364.717
1215.04
885.647
699.696
-1182.3
456.157
726.144
494.874
699.121
-1193.99
-417.648
-248.237
398.143
-957.823
439.228
518.595
21.1906
-1880.1
1080.33
-481.194
-520.829
559.323
-1377.84
818.521
-444.354
800.092
-405.862
508.9
-719.155
1709.71
397.573
-169.96
210.975
-156.651
-246.227
402.878
1895.36
-504.144
-1720.95
1049.94
-593.116
298.138
-1011.26
550.568
-311.737
544.569
904.723
-1449.29
-1102.3
437.037
-21.36
-1947.23
1720.51
-648.595
-538.411
460.989
-1189.63
728.638
198.97
193.82
-276.943
777.739
696.573
834.893
814.852
-459.2
1083.51
-529.267
466.761
-183.123
-283.638
-1926.14
-712.168
-316.425
-638.898
-6.22686
645.125
454.149
-270.8
574.411
1083.87
-820.813
921.714
1243.5
-425.976
-111.108
-294.232
405.34
951.939
-888.135
-305.105
-1066.07
609.399
1570.09
-814.755
537.999
934.379
-408.429
735.578
-327.15
1129.48
-272.12
381.042
1349.23
-709.592
-210.079
448.386
-1197.95
749.563
-956.617
-205.891
1162.51
437.97
-953.076
515.106
152.78
731.895
482.809
749.208
-173.392
849.088
-426.413
1181.47
-795.88
552.741
-1465.28
912.537
-1216.63
1800.98
-431.703
-1510.19
879.047
-1401.64
-322.38
-468.448
1456.91
-1530.37
781.9
1491.34
191.723
275.038
-373.233
-1754.44
-272.964
-1031.63
1606.04
-1794.92
1794.92
1591.37
-1004.21
-628.774
-357.148
368.254
603.652
-427.772
-380.722
-1389.55
897.011
1125.03
600.694
1202.02
1789.49
-1216.4
-629.269
271.026
1659.38
-1917.02
257.633
816.821
-1268.36
1545.11
-561.715
804.542
345.89
-377.822
556.048
793.243
622.116
1404.84
-288.335
-445.883
-392.508
491.617
-335.687
472.178
735.164
-318.523
-122.72
-355.752
573.165
-217.413
37.1703
-368.031
1107.26
-1720.28
-486.863
-512.487
-574.261
863.378
706.716
-1596.18
904.295
-452.418
-641.501
-516.112
1251.44
366.47
1723.96
-1702.77
-1665.4
1899.22
-1560.51
840.018
720.492
-417.891
-1802.66
918.143
584.601
817.813
-382.089
1794.69
-681.343
-469.239
719.187
447.457
-1166.64
-1103.75
444.307
752.361
-1617.09
473.317
900.723
163.655
-387.285
223.631
-1619.8
-395.376
-484.071
990.11
-688.441
1442.72
-970.11
1855.54
240.922
-560.714
486.089
-294.365
474.352
893.251
543.539
976.862
-463.746
-427.797
574.592
882.32
-1392.68
-40.995
1589.51
-852.295
519.985
971.354
-1475.72
-1115.89
1794.77
-1243.13
-551.639
1205.92
-319.535
-886.386
-180.061
441.568
-261.507
-457.162
-250.036
418.059
-168.022
132.518
-380.755
1751.91
-1754.03
-484.65
-530.902
-903.38
430.235
-193.68
-236.554
628.302
-507.175
-417.096
-321.57
738.667
-987.212
484.707
-1166.68
675.9
404.577
-656.668
-438.583
1595.94
-879.763
530.21
-458.676
-568.222
-463.16
354.239
-343.285
-10.9534
-1146.24
418.931
-665.23
-1033.39
1698.62
-628.234
-1426.01
709.522
562.439
-1596.22
1033.79
-431.05
-485.36
161.404
573.368
-1258.16
742.047
539.292
1005.82
-2133.16
999.977
1133.18
-393.77
402.694
-377.311
-25.3831
1477.92
-386.229
449.694
1138.65
582.959
905.675
565.146
528.391
-1093.54
151.916
-468.132
-1711.77
234.029
1127.45
-637.483
518.782
1013.41
-1532.2
1092.73
-1643.66
196.279
730.511
570.723
-875.828
-1086.16
-163.371
415.894
-252.523
-585.714
-458.585
-636.526
-620.207
343.264
-1620.38
938.88
-477.34
214.151
-384.111
524.917
-306.506
-636.692
1196.83
-1334.09
955.112
378.982
-1029.89
-403.034
-771.832
-837.546
1700.92
-477.624
1799.7
-1594.58
-205.125
-1556.53
1018.56
537.978
-738.693
-248.558
428.37
-179.812
-616.647
384.746
264.452
-649.198
-524.624
1015.65
622.297
-351.436
-1620.18
1050.41
571.849
1103.42
-1675.27
-445.184
-279
-377.585
-756.741
-519.66
-331.272
489.569
1557.97
-995.527
-773.359
1497.43
654.492
-325.391
725.884
1152.33
-1878.22
317.949
316.288
-487.795
-1936.23
1722.71
213.519
731.729
-475.446
-256.283
531.898
1060.68
-1592.58
354.239
-1734.8
-233.219
1752.38
-1580.62
1073.69
506.93
-1741.04
6.23628
-522.313
402.694
1701.35
-1722.71
938.996
625.83
-1564.83
365.231
-213.412
-151.82
-448.141
-245.401
58.6636
93.867
-342.425
-419.335
-451.053
-398.574
204.956
1510.1
379.287
-193.822
-477.748
449.464
-187.6
340.534
1510.65
965.995
-198.947
-767.048
-1103.99
1704.98
-1729.06
1063.83
-707.725
-1021.33
-1265.05
1844.98
-579.925
1155.03
-1771.33
616.293
264.999
-877.294
1676.09
43.3844
-1719.47
-491.209
-1082.89
-1751.91
-979.554
551.758
1019.44
590.322
1132.92
-1723.25
270.454
-512.327
697.279
-384.719
418.595
923.905
682.641
-377.914
-674.981
582.978
1072.41
-1655.39
-412.652
-356.933
769.585
433.306
-1662.97
1521.88
141.096
576.589
-1042.48
544.773
1083.8
-1555.55
993.836
-228.828
211.324
347.554
1909.17
468.604
-52.2308
995.835
722.749
-1718.58
-696.35
1085.19
-1557.41
152.842
-568.629
187.795
261.669
-690.38
-557.755
582.81
1034.33
-710.521
-270.711
-1368.04
672.23
695.812
-400.134
702.461
156.632
-859.092
562.617
-137.224
1557.51
-199.604
288.675
-782.233
-1936.23
1664.58
1007.7
297.789
304.096
503.826
-929.613
-996.525
-1767.25
628.498
1693.75
498.473
-474.918
1210.08
1086.96
-424.919
1028.57
-975.438
484.378
491.06
701.182
1047.84
-1749.02
475.193
490.533
-1493.8
-743.939
37.817
774.849
-413.676
-893.443
372.614
-540.792
-800.046
563.601
-578.632
1397.15
1055.2
185.596
230.298
-550.713
1618.46
-777.224
1527.78
-1727.83
575.338
1152.49
534.167
-880.642
-1733.4
1917.02
-183.615
1721.72
170.768
-547.42
355.752
-261.885
-481.799
1210.44
568.275
1128.26
-491.027
417.747
853.572
-451.945
-770.076
439.793
330.283
1419.95
1089.48
-518.452
1422.75
-510.393
-532.736
1043.13
-602.859
557.14
-1257.4
1693.08
1839.56
-687.225
1586.3
-647.301
-1240.28
715.652
-563.184
191.102
-375.151
440.123
-231.206
-516.39
-1246.7
1870.96
-624.264
1173.12
-556.624
1120.21
-1659.4
1714.56
-574.027
-549.965
-549.87
1720.07
-315.666
-688.155
-473.499
1223.06
-1695.19
-1860.12
613.428
401.004
-984.672
156.551
203.457
-1719.02
1204.11
514.906
1162.83
558.89
-514.169
-465.486
1191.63
184.899
210.703
588.45
1251.11
-539.193
-1238.57
1777.76
-1025.13
999.982
866.778
-204.01
-1659.38
1702.77
-510.262
1410.99
-1733.4
-304.139
-52.0124
356.152
-246.461
581.279
-334.818
152.551
494.254
777.65
-384.879
1257.5
1270.39
-413.384
847.846
-438.86
1817.61
-662.58
1586.74
-1723.96
-412.852
-794.589
350.317
444.272
-562.247
-563.786
79.755
-1138.46
-984.977
-670.841
1655.82
-943.693
-1189.47
205.834
-445.736
-646.476
705.844
1167.42
650.191
1410.2
-592.391
1636.69
1317.85
-575.806
-480.862
186.496
-503.358
1396.61
1239.77
-567.54
-999.976
888.562
62.6868
-951.248
603.392
-506.26
1403.27
1495.02
-589.342
-349.243
349.243
-589.702
1623.49
1238.87
-486.507
1134.11
-51.9792
1853.2
-374.51
1489.43
-589.864
-507.716
1347.73
-648.484
1218.37
-569.884
1554.8
-592.149
776.834
574.975
-1351.81
-685.96
268.549
540.558
601.319
-1957.28
-1022.38
1586.74
354.66
-354.66
-52.7705
380.149
438.762
375.645
37.4615
-274.478
969.851
-546.981
-429.339
809.488
-234.823
612.244
-414.209
1564.6
-444.355
-883.881
173.134
222.765
-395.9
601.178
1250.75
-1851.93
923.731
-459.674
-343.285
126.144
-1943.07
1816.93
-443.409
165.452
1180.81
-440.537
-740.275
-286.445
-606.998
-498.369
-377.311
-469.263
255.941
1157.5
-565.54
231.742
-365.52
133.778
-23.0725
-107.688
1375.92
-1268.23
34.6731
-594.64
-586.572
-442.736
442.736
-1262.33
1985.08
-1344.26
-198.09
-1826.84
232.259
-1025.75
-974.246
-174.728
-1640.84
711.227
1229.32
-1925.06
358.335
319.46
-677.795
-1850.03
1234.26
615.763
-557.729
557.729
-958.725
-40.042
-1866.18
-558.204
1650.81
-674.66
1636.2
-601.87
-195.856
-1710.72
-575.893
-490.493
-594.909
-458.035
458.035
-1537.82
194.533
1343.28
160.789
220.553
-381.342
524.892
441.103
994.546
-475.951
1751.28
768.697
-412.903
387.52
524.635
1702.07
-594.815
-553.006
1636.81
458.821
1812.87
-645.451
-1804.81
-1938.07
-647.2
-471.564
471.564
-596.46
203.953
-723.541
1017.33
-466.759
-1078.51
-297.078
1579.55
1852.29
1635.39
-1635.39
-323.432
740.54
1761.54
595.813
1275.15
162.041
203.191
628.876
591.933
1603.47
-1603.47
213.181
-361.243
-441.271
447.266
949.095
-464.716
-637.964
-1130.91
1706.25
272.266
-1685.44
644.517
-287.598
458.366
1744.65
-592.157
-210.498
-490.886
373.368
743.352
1738.58
-613.558
-511.809
-783.825
1960.55
-870.467
-1090.08
1642.66
-701.815
1223.95
-1824.97
601.02
405.059
-965.773
-184.621
-99.3914
1096.71
-487.307
147.652
657.837
-1682.36
423.555
623.223
-1804.81
-583.31
1787.42
882.682
-1162.85
1760.5
-597.648
1783.83
-575.572
-1208.26
428.192
933.875
-1754.03
924.27
-1465.07
214.589
1250.48
-831.988
-1254.21
-368.179
71.775
296.404
581.801
260.808
1038.74
-433.872
843.14
-409.268
819.531
743.775
-1563.31
644.994
1066.63
-23.8143
-660.483
684.297
-1744.58
723.246
715.648
150.512
-1122.55
1936.79
-674.576
-1262.22
-537.193
1665.45
843.866
969.835
-1813.7
1227.85
683.401
-411.807
706.312
848.928
1026.02
-588.052
1761.54
625.017
1773.56
-1185.57
-587.997
-440.085
-337.314
777.4
121.458
-1185.5
1660.51
-540.295
-1437.75
1437.75
1250.55
594.432
1351.28
206.682
-568.926
278.4
-178.115
699.216
1113.66
471.433
-286.534
-868.824
-575.898
1747.79
-1747.79
975.602
-975.602
987.342
1025.17
-2012.52
1837.97
-614.019
-581.134
875.526
-947.859
-1052.16
998.033
691.888
-1689.92
-509.717
-404.303
-660.078
-808.447
2042.71
-1246.4
-613.72
1002.98
974.863
1289.78
647.011
318.617
1012.69
266.711
343.779
1186.18
1756.91
-1756.91
671.081
79.2408
-382.505
-997.065
-539.998
1674.1
989.17
1010.83
-1833.32
-214.556
-361.338
611.906
-377.877
1849.62