/*--------------------------------*- C++ -*----------------------------------*\
  =========                 |
  \\      /  F ield         | OpenFOAM: The Open Source CFD Toolbox
   \\    /   O peration     | Website:  https://openfoam.org
    \\  /    A nd           | Version:  7
     \\/     M anipulation  |
\*---------------------------------------------------------------------------*/
FoamFile
{
    version     2.0;
    format      ascii;
    class       surfaceScalarField;
    location    "2";
    object      phi;
}
// * * * * * * * * * * * * * * * * * * * * * * * * * * * * * * * * * * * * * //

dimensions      [0 3 -1 0 0 0 0];

internalField   nonuniform List<scalar> 
44730
(
-595.311
663.925
-68.6139
1058.99
-1070.09
11.0952
-335.485
383.227
-47.742
230.919
-260.824
29.9051
-498.839
498.839
224.584
-266.536
41.9522
-360.697
367.206
-6.50856
21.4779
-558.799
537.321
662.987
-833.161
170.174
-1009.22
1102.2
-92.9817
550.182
-137.995
-412.188
-530.23
537.414
-7.18372
-687.971
582.734
105.237
-859.825
868.887
-9.06234
245.071
51.2877
-296.359
386.558
-10.6675
-375.89
814.741
-666.841
-147.9
-381.05
388.345
-7.29522
161.605
314.768
-476.373
291.442
-358.307
66.8655
-594.164
81.6331
512.531
724.155
-61.1679
50.4407
-385.926
136.665
-489.804
353.139
252.7
-153.093
-99.6065
1064.3
-5.30683
659.95
-681.111
21.1605
-267.6
-23.8903
291.49
276.849
-31.7779
-440.446
543.91
-103.464
949.205
-250.539
-698.666
-662.162
751.648
-89.4855
243.452
-229.511
-13.9408
477.119
-66.3747
-410.744
153.927
-421.526
271.63
-432.282
160.652
415.829
-565.952
150.123
292.634
-36.1375
-256.496
823.386
-977.409
154.023
1060.3
-236.915
-1017.95
1035.55
-17.6007
406.127
-96.0566
-310.071
704.002
110.739
198.104
-309.638
111.535
1228.46
-777.691
-450.766
-591.339
150.893
540.543
-538.899
-1.64377
230.521
645.494
-876.015
223.365
537.333
-760.699
-111.768
527.596
-362.731
154.223
208.508
-17.0619
-225.148
242.21
-658.572
-3.59045
241.536
-16.9527
424.847
-38.2897
-249.871
-52.3625
302.233
525.416
-500.221
-25.195
-34.2159
-559.949
-461.951
38.8225
423.128
-302.492
-21.0641
323.557
799.531
17.5771
-817.109
-409.169
570.774
1.19243
-224.109
222.916
-211.951
483.58
-295.56
419.574
-124.014
266.447
258.185
-524.632
498.423
-129.544
-368.879
428.253
-45.7576
-382.496
-462.056
-37.4194
499.475
-986.521
-31.4327
1055.61
8.6929
277.419
308.345
-585.764
-240.538
545.597
-305.058
160.161
103.325
-263.487
-433.002
382.574
50.4275
-353.931
371.593
-17.6627
256.03
-138.362
-117.668
-251.839
-62.6789
314.518
-699.317
16.5531
682.764
410.534
-97.3862
-313.148
-257.24
257.24
99.7726
-763.427
663.654
-660.398
65.0861
-947.226
848.213
99.0131
-314.682
-46.0156
-16.5064
198.608
-182.101
517.46
-154.205
-363.255
-644.637
-43.334
652.585
-69.851
103.771
80.4334
-184.204
-354.173
85.6082
268.565
-312.35
60.5108
844.94
-621.574
551.136
-584.147
33.0109
230.661
-98.4447
-132.216
-339.584
111.64
227.943
-15.204
249.263
-234.059
-846.652
847.274
-0.621777
-26.7603
-164.763
191.523
243.449
12.3473
-255.796
-711.463
12.146
-268.84
285.201
-16.361
778.757
20.7745
426.9
-623.716
196.816
203.072
-220.134
-747.237
805.576
-58.339
626.158
-720.733
94.5748
74.7301
577.855
943.861
-846.971
-96.8893
-225.41
240.05
-14.6405
203.861
39.5903
355.019
111.244
-466.263
1009.09
-256.884
-752.205
19.6962
563.095
-582.791
-13.4477
-586.995
600.443
538.431
-261.012
88.4933
426.951
-515.445
-303.661
409.204
-105.543
76.7686
-814.832
738.064
-697.034
456.496
8.4868
-197.389
188.902
14.5122
-850.703
836.191
-304.374
301.175
3.19922
-47.5854
314.032
24.1904
-890.543
866.352
-329.954
327.182
2.77211
-74.5183
-306.532
3.64289
-280.346
276.703
702.331
-786.014
83.6827
726.248
-860.26
134.012
-140.461
338.565
156.326
99.7035
183.842
-206.625
22.7825
283.675
-288.622
4.9471
-121.126
548.026
621.429
327.775
157.347
50.1695
-207.517
278.921
-318.737
39.8164
215.215
-236.395
21.18
-30.2739
273.723
-334.769
4.81499
1.35042
-190.413
189.063
227.847
-65.1943
-162.652
181.123
827.966
-198.078
-739.276
937.354
-101.215
-397.624
522.866
17.6773
225.161
-228.586
3.42434
253.333
-215.982
-37.351
23.3673
-205.087
181.72
-395.45
627.072
-231.622
56.9299
503.11
-560.04
984.021
-886.252
-97.7691
790.981
-787.105
-3.87555
-577.768
-233.96
811.728
-146.388
722.179
-575.791
457.486
-444.323
-13.1626
-189.411
-19.7524
209.163
52.7888
-772.618
719.83
-153.232
-209.499
-250.495
236.286
14.2087
242.342
-11.4239
26.9786
1020.9
-572.445
-448.453
735.194
-933.272
-401.283
97.6219
17.8219
210.025
16.3961
-778.17
761.774
-90.4092
-856.817
418.83
-453.149
34.3189
-106.548
832.796
55.7668
-736.12
680.354
-198.67
9.25866
278.921
-7.51038
249.071
-241.561
-433.347
433.347
83.3754
678.681
-762.057
-317.175
48.3354
-578.835
598.531
305.539
-292.979
-12.5591
-777.838
-63.2729
841.111
-138.277
443.321
-305.044
417.026
100.434
428.073
-444.14
16.0671
245.891
-30.676
-222.275
-310.132
532.408
502.382
-381.91
-120.471
-329.189
16.1805
313.008
784.61
-82.2781
-522.015
-77.7587
599.774
-661.145
661.145
-122.422
499.96
-377.538
93.8608
-358.964
265.103
-920.004
342.236
307.62
-360.083
52.4637
437.188
20.2977
822.249
-514.208
-308.04
903.956
-53.2634
-850.692
79.4989
151.162
-846.938
613.91
233.028
-12.5051
256.697
-244.192
-216.215
222.75
-6.53478
-40.3576
-489.873
874.51
-889.951
15.4412
-41.3222
430.35
-11.5195
787.347
-789.43
2.08273
247.566
-22.4044
13.8145
-239.224
822.14
-963.833
141.693
230.144
-347.074
116.93
570.859
-570.859
899.949
-93.2569
-806.692
594.387
73.0572
-667.445
51.5693
-326.127
274.557
-171.911
246.406
-74.495
-468.656
330.379
54.7919
732.555
-393.264
529.929
261.025
-181.526
-683.871
-176.389
484.152
-630.54
453.888
-501.545
47.6571
-888.339
1021.36
-133.019
-581.482
555.982
25.5003
505.285
-582.762
77.4771
128.357
725.708
-854.065
211.393
530.609
-742.001
723.33
505.127
321.699
738.602
328.693
-233.259
-95.4341
-297.577
297.577
371.592
-402.696
31.1039
-29.0249
1084.63
271.074
-325.156
54.0815
530.3
-473.37
-297.43
-562.395
551.936
-566.327
14.3908
-29.6645
904.174
257.802
-270.307
-210.992
198.451
12.5412
499.2
-588.03
88.8303
-197.807
958.97
-761.163
588.966
-83.6812
771.283
-384.732
-386.551
340.205
-48.7634
472.019
548.879
-189.545
173.038
-743.853
59.9815
-924.34
36.0013
478.039
47.377
-679.759
891.152
-683.087
-64.1492
193.121
-202.367
9.24609
-74.0178
915.136
-841.118
-38.0446
-817.797
855.842
186.821
-185.47
30.1974
174.787
-204.984
-10.3214
-366.136
376.457
318.837
-315.194
-599.701
204.251
-215.536
428.753
-213.217
908.532
-678.011
304.2
24.4931
282.941
-7.91623
-275.025
-570.185
149.66
420.525
461.66
-33.5869
504.157
-726.433
-355.197
1.26652
647.506
-746.15
98.6439
-249.722
165.165
84.557
-656.39
639.031
17.3597
211.332
-218.843
76.6256
184.399
-742.121
825.496
-292.713
302.385
-9.6715
68.1205
-364.29
296.17
226.019
-213.795
-12.2233
527.089
-328.984
-198.105
6.61317
-347.545
340.932
-497.746
484.299
-55.6313
255.986
-200.355
-659.581
155.105
504.476
-343.965
4.38086
653.916
6.0343
446.529
-21.6813
-152.556
-2.63747
155.194
-22.2451
716.934
-694.689
-845.45
973.807
323.001
-148.693
-174.308
677.356
-775.162
97.8057
422.525
348.758
706.574
59.4092
-765.983
818.09
81.8583
539.52
-515.402
-24.1176
1093.7
-1012.29
-81.404
6.28364
-298.654
292.371
267.519
15.4219
110.483
142.217
212.727
-28.8853
195.292
-203.719
8.42693
147.821
147.224
-295.045
-306.854
286.258
20.5956
-154.244
-299.719
453.964
422.317
-544.739
-322.575
196.715
-198.385
1.67018
201.49
1008.36
-565.485
-442.877
526.116
-109.2
-416.916
113.263
512.896
78.0395
461.48
1.16456
-686.77
710.486
-23.7161
49.3544
-549.584
500.23
-78.9828
-251.686
330.669
-449.827
39.5095
410.317
-140.738
-336.225
476.963
780.024
-1.26698
21.8945
192.466
-368.026
175.56
157.418
-213.05
-920.547
848.72
71.8272
-299.552
306.792
-7.23963
664.413
-79.8718
-584.542
1047.03
-603.812
-443.219
194.818
-196.834
2.01601
279.053
-106.534
-172.519
-422.794
418.751
4.04268
664.216
-32.4674
-631.748
-691.952
5.18188
371.908
38.6261
-545.743
430.621
115.122
581.733
-578.556
-3.17644
-855.761
44.3836
811.378
856.364
33.1999
-889.564
-425.024
284.287
-202.789
50.2326
-324.912
522.437
-197.526
-180.068
-30.9241
754.997
-793.042
-153.822
184.019
521.581
-164.745
-356.836
-123.733
-309.614
224.28
-225.736
1.45585
619.58
44.6362
683.568
-608.838
18.644
-302.55
283.906
837.029
-876.188
39.1592
-288.115
-4.86494
952.1
-955.59
3.49035
45.9247
187.994
-233.919
680.318
-32.8124
566.43
-593.458
27.0284
-830.91
845.423
187.861
-179.374
786.215
212.235
746.735
134.333
208.946
-343.279
-302.604
-9.6061
811.201
-54.4483
-756.753
601.738
-125.698
-476.04
238.299
-84.0759
88.059
410.364
75.0349
-246.946
473.949
-504.029
30.0805
143.499
-349.988
206.489
137.87
389.219
41.7588
862.197
652.962
-773.363
120.4
-23.3398
975.44
-267.138
-10.7762
277.914
-226.458
203.373
23.0854
-21.1157
181.277
48.9632
453.419
335.505
-345.826
-345.325
49.7656
-336.853
34.361
838.364
-58.3405
67.9434
-211.874
143.931
-947.021
22.6805
-910.598
-36.4227
-486.296
54.6989
431.598
-727.502
895.965
-168.464
-186.778
-77.8784
264.656
-103.991
-90.2226
194.214
-169.611
-31.2217
200.833
-114.455
226.764
-112.31
853.451
402.709
-210.243
149.341
-13.1769
-568.305
-878.71
-41.8374
457.498
144.24
183.567
-508.479
200.71
-1106.93
906.219
32.3766
200.785
-233.161
-15.3119
-200.903
419.412
27.117
89.2198
701.761
283.841
-7.48821
-276.353
-471.826
560.319
728.672
72.9601
-801.632
-776.936
-9.07792
799.139
-854.295
55.156
276.198
-262.874
-13.324
81.1919
241.809
850.659
-864.996
14.3373
978.836
-862.154
-116.682
938.925
-943.529
4.60352
-379.294
-166.449
-6.91837
-873.436
536.644
336.792
-188.458
163.39
25.068
-243.359
391.18
141.758
92.358
-234.116
757.938
244.66
-243.467
431.826
94.2901
781.679
-693.916
-87.7631
-52.9215
-91.6876
-104.608
196.295
-311.115
261.046
50.069
862.29
-838.099
-22.2648
380.762
-358.497
-311.724
-23.045
569.122
-584.319
15.1963
370.475
-327.615
-42.8608
-828.416
731.175
97.241
-905.729
831.711
141.933
137.12
-407.388
277.771
129.618
469.478
-454.572
-14.906
621.701
-622.708
1.00694
518.238
-44.2897
-291.048
-147.984
439.032
2.1149
-269.253
-76.8387
-245.661
322.5
544.282
563.925
-1108.21
-900.871
849.209
51.6626
-4.32283
-405.782
419.972
-14.1906
432.819
-400.254
-32.5656
670.584
-841.688
171.105
710.641
-880.175
169.534
-504.73
-154.851
-415.518
61.7056
353.812
307.278
-6.85768
-300.42
-328.844
159.233
474.568
75.6139
-719.659
-108.757
3.63503
191.657
-306.163
300.947
5.21574
32.3262
-319.246
286.919
491.456
38.6774
-530.133
-229.074
302.413
-73.3394
-896.202
-19.6391
915.841
-218.335
-21.4484
239.783
7.10996
-842.182
835.073
804.707
-118.489
-686.217
352.046
139.854
-216.692
-874.885
-21.3171
808.374
40.3456
-8.90036
536.143
-181.124
-497.448
-19.6938
517.142
-801.996
913.798
-111.802
314.567
-246.447
-392.78
313.797
-30.415
590.797
63.1189
385.111
-241.613
316.538
505.711
-15.8871
28.0863
342.389
-781.368
94.3063
687.062
457.3
94.6356
-144.038
-14.8784
158.917
-851.813
-23.0713
74.1156
332.012
-204.096
229.604
-25.5086
52.9397
-282.013
-262.29
257.092
5.19811
-19.6672
33.2537
-514.96
481.706
-610.645
-135.505
-25.1615
304.889
-279.728
-332.82
444.064
599.39
447.641
-1102.76
430.48
672.285
330.052
0.402814
-330.455
-257.121
-147.633
404.754
-526.046
547.524
-661.189
-17.5713
678.76
99.6342
91.7896
-191.424
-44.2446
799.242
838.436
-862.354
23.9186
807.577
-154.615
42.7045
-601.504
-327.977
-19.5675
556.836
57.874
-614.71
442.097
19.5625
-350.18
394.651
-44.4709
-853.327
-3.84761
857.174
-27.8178
-823.995
262.851
-263.119
0.268289
625.238
-3.53628
551.696
-400.102
-151.593
-228.046
270.286
-42.24
-101.838
-243.488
-422.755
-39.1951
893.152
-182.511
-816.48
88.9777
-629.407
18.7615
-541.544
52.5613
488.983
820.559
-39.636
-780.923
-251.39
136.935
-1.99543
-356.272
358.267
855.519
-184.936
309.235
-1.95705
636.757
-70.3275
494.19
-2.73409
801.439
-712.219
-1045.13
-57.639
445.432
24.0465
520.705
30.4307
737.035
-684.247
795.648
-38.3097
-757.339
198.199
-224.96
277.526
-16.4799
-118.434
189.938
-166.57
475.017
15.7783
-490.795
577.313
-100.862
-476.451
-460.414
422.452
37.9619
128.947
672.492
-0.119547
-109.006
-753.798
862.804
92.9092
-665.652
572.743
229.68
-306.352
76.6728
-747.818
638.812
91.8173
712.889
-504.401
1048.68
210.187
-142.244
-260.387
-170.369
264.223
-93.8539
216.682
-264.532
47.8497
-181.238
322.997
6.23965
-317.963
-51.2893
6.04261
-411.857
405.815
-47.5962
-162.57
-195.737
-31.9518
369.964
-338.012
-870.847
944.472
-73.6247
45.527
-528.277
482.75
12.7915
-239.25
-755.981
106.367
649.614
365.904
-211.978
819.403
1.1563
-25.6887
205.985
-180.296
424.875
126.82
-102.066
-313.452
815.677
-201.767
-95.1867
-914.035
622.169
-313.824
121.479
43.4701
652.864
-553.091
496.467
-19.3486
343.936
-36.3164
339.512
-422.012
82.5006
192.158
-220.353
28.1955
45.3433
253.091
-298.434
338.798
-493.042
-2.22567
761.958
-806.203
537.957
-62.9402
-103.986
735.722
-631.736
-270.33
305.962
-35.6327
-67.8192
297.499
209.187
-191.365
-283.678
13.348
-1052.19
582.608
469.584
-35.9161
-76.3425
180.113
-311.062
296.318
14.7443
-676.063
692.459
269.41
-274.39
4.97997
-470.967
171.247
-498.622
-553.57
243.563
-279.7
847.174
-946.607
99.4325
-344.68
16.7028
484.074
-627.852
143.778
-2.12202
810.496
244.208
-256.586
12.3776
-328.385
-545.051
-37.7529
294.828
-25.418
342.692
-126.091
-216.601
-20.1396
-832.631
852.77
-878.188
498.387
379.801
-56.7439
735.425
-456.086
33.3308
-150.91
-104.628
255.537
872.78
-807.555
-65.2243
396.094
-321.979
796.119
3.01996
105.174
89.3947
-194.568
-580.558
1024.4
-443.839
147.96
-197.171
49.211
-758.934
-145.007
903.941
139.574
203.118
853.522
-31.3825
813.475
-736.706
505.629
-417.57
-8.41677
-215.692
23.0593
157.381
-180.441
311.122
225.021
-27.5386
-1098.2
619.2
479
7.55575
891.672
-60.5479
-831.124
-430.712
623.606
-192.894
57.1705
756.304
27.8124
-525.261
-590.553
-18.413
608.966
391.792
151.266
-543.058
-264.681
-522.424
279.514
64.4224
-180.485
-76.7554
-406.934
353.236
53.6987
-796.559
282.351
202.195
-263.651
61.4558
229.282
-251.279
21.9973
431.144
-425.101
721.003
50.5544
-771.557
-205.263
40.5007
815.477
20.9814
-836.458
-347.89
7.70315
340.187
118.641
860.195
-412.028
450.851
411.987
-72.4753
-954.388
99.6629
854.725
789.077
102.595
-18.274
210.432
50.9757
381.844
888.629
132.729
30.9705
-487.057
28.5978
-826.605
798.008
694.343
-759.833
65.49
636.266
465.938
769.018
-56.0324
-712.986
198.229
-50.2688
76.6897
339.666
-416.355
-735.226
792.396
240.342
179.232
-294.984
168.576
126.408
-111.131
-426.916
538.046
-32.5933
-217.902
1004.4
-573.923
108.956
-295.734
172.467
-198.155
-102.078
-158.745
30.4944
820.165
-156.254
495.052
-595.355
746.434
-151.079
675.135
-697.38
-388.273
368.579
-442.334
-180.374
39.7326
349.16
-10.1549
-339.005
-46.2842
808.242
-505.241
-623.361
1128.6
288.906
-234.423
219.219
10.6161
198.571
-265.54
112.447
-885.244
908.896
-23.6524
-267.582
258.776
8.80569
75.2692
706.41
3.36374
765.655
636.546
-16.9667
-15.1807
-513.842
470.455
43.3866
933.061
17.156
-950.217
-312.902
-34.9886
-1.00246
-235.726
788.984
-67.9814
529.028
-623.204
94.1767
-761.79
-84.8622
11.7361
264.462
878.689
9.93957
-491.319
441.28
50.0393
-950.446
-94.6794
56.4036
-372.443
316.04
-207.369
219.082
-11.7127
247.379
-30.6969
-39.988
1050.32
-313.235
-737.081
579.664
-50.6362
38.5222
-267.782
-58.345
-685.032
759.259
-74.2266
-98.6995
0.0473567
229.235
504.997
-5.7971
92.7961
-870.634
-95.8521
216.509
-120.657
-193.872
220.156
-26.2842
-681.812
570.681
-446.816
480.07
342.363
53.7318
-461.461
425.297
36.1644
588.34
420.023
498.744
-460.144
-38.6001
471.025
-311.954
-159.071
-173.099
34.7366
351.64
-21.9569
-329.684
-266.363
95.9937
-347.772
300.187
-219.023
-636.738
-691.477
-81.886
261.15
-58.9549
657.623
197.897
6.95594
229.33
815.514
-85.9601
-729.554
329.376
-142.244
647.196
-504.951
227.461
-305.34
-106.217
498.008
-750.583
8.46247
-139.415
-110.307
500.002
-92.0793
775.081
-683.002
-205.007
220.371
-15.3638
-21.5018
-246.08
829.59
-737.773
224.647
-426.741
-401.351
828.092
858.624
-201.002
-42.1292
779.432
-737.303
597.478
-6.68112
17.8642
-608.418
284.858
130.288
-415.146
-404.445
481.135
-20.5325
-320.08
340.612
-617.721
66.6802
551.041
-141.242
494.832
-353.59
-478.403
410.926
-483.962
73.0359
106.119
-181.797
75.6778
-197.202
331.536
-185.176
-170.021
723.159
-28.8152
102.35
581.219
-611.106
649.02
-37.9139
269.557
-294.719
-809.922
-52.4323
97.3244
-433.55
590.122
460.194
-615.838
173.504
412.522
-839.263
365.048
-681.922
28.6585
653.264
-187.427
220.525
-33.0978
-816.288
886.709
-70.4209
-48.885
-432.354
481.239
1005.36
-405.597
-599.767
-69.8624
-784.432
-11.8232
274.674
-950.474
207.415
743.059
-857.731
-92.7422
-175.17
-13.2881
-777.764
731.48
-124.19
-295.581
419.771
-20.441
-265.207
285.648
160.519
647.058
214.56
154.024
-368.585
-902.873
154.586
748.288
541.249
-581.036
39.787
604.553
58.6088
-663.162
-43.6461
674.187
-639.878
-34.3086
353.853
-23.8007
-15.7423
222.105
-206.363
608.314
65.8732
14.9096
-791.846
721.547
-777.579
-182.741
205.801
325.248
145.777
124.207
-309.382
205.496
-209.955
4.45974
344.034
-200.644
-143.391
592.103
44.4434
-746.476
800.588
-54.1115
-376.756
-114.941
491.697
-16.8904
-289.272
238.64
41.7383
-280.378
253.341
-102.126
-151.215
418.495
-467.38
-61.7186
-740.277
-411.451
71.9011
154.117
481.486
-430.673
-50.813
-228.613
260.989
-206.422
198.131
8.2908
-2.25646
-205.281
207.538
-323.485
380.335
-56.8501
211.951
-4.54933
-207.401
450.43
554.934
-266.102
555.663
-474.03
143.349
-255.387
112.039
-206.755
-7.14474
213.9
701.305
-96.752
248.068
-171.443
-359.065
280.549
78.5163
-433.508
1.02619
432.482
-352.231
449.555
315.841
-324.456
8.6148
-18.6786
36.3946
469.234
462.955
35.7888
16.7478
-450.256
184.822
13.6287
-341.092
-3.58839
-372.305
297.336
74.9689
343.51
-63.996
671.74
221.412
-233.522
231.266
-291.469
307.649
82.9932
661.385
-744.378
-735.585
-26.4016
761.987
5.22855
147.569
16.7798
-340.265
-690.752
621.153
69.5986
137.706
-160.491
174.719
-14.2289
424.544
-139.686
-245.885
-162.292
408.177
-167.881
-345.96
223.168
-17.6723
-245.183
94.2732
91.1105
-186.963
-1009.55
696.32
-348.685
348.685
851.451
242.247
-35.3423
-509.112
-500.443
211.604
325.81
528.277
42.5818
546.835
-52.6449
249.751
-248.816
-0.935263
-629.486
662.462
-32.9765
-50.2496
-533.167
-45.6683
-639.294
700.182
-60.888
84.6927
-493.862
-353.449
539.603
7.2316
520.68
9.77416
-530.455
745.651
-647.748
7.87013
-126.3
-50.477
176.777
-428.288
80.5157
314.646
-34.7344
-279.912
-165.096
-37.6933
-303.956
290.718
13.2382
-285.997
57.9513
867.913
-196.173
-334.034
53.6883
766.998
-0.646074
-766.352
584.219
-659.151
74.9319
-922.847
830.367
92.4802
-24.4419
-636.747
109.952
299.252
-24.5156
-262.189
286.705
-770.898
7.4711
-205.219
-293.017
268.501
-466.268
511.795
-243.569
245.788
-2.21872
-306.768
300.012
6.75691
-808.216
704.23
995.99
-148.816
-159.844
269.714
-223.79
365.351
-156.405
399.565
-309.405
-90.1603
289.181
54.3288
808.503
-98.0011
-710.502
183.961
-681.707
-748.31
662.871
85.4383
5.27899
-617.672
623.635
-5.96295
66.6781
181.39
-94.2779
516.595
-277.15
282.786
-5.63656
379.417
-458.609
79.192
-608.733
649.351
-40.6181
585.28
44.906
-630.186
243.136
-226.192
-16.9439
555.712
-22.8315
-532.88
256.434
-144.131
-112.303
-144.631
-52.658
197.289
951.888
-943.145
-8.74335
-575.504
-388.33
-47.0312
-754.259
801.29
-897.647
834.375
-565.272
353.64
211.633
605.133
-623.546
-17.9378
670.739
-652.801
4.0264
162.866
-166.893
-53.7024
-265.543
-855.968
-66.8791
15.4629
367.111
334.111
-739.708
204.228
-19.4056
-231.603
231.603
420.661
-165.837
-254.824
-911.188
25.9441
-3.70256
-30.7021
-473.764
504.466
-753.678
-80.7711
487.429
-406.658
-252.423
-408.722
433.319
-10.867
-60.8938
261.679
156.95
187.084
-538.226
400.231
-171.257
385.818
340.819
-51.6383
762.08
-706.313
-285.185
-9.43422
271.735
-946.886
-3.56014
5.60629
927.455
533.485
-448.793
-829.853
571.999
257.854
-3.90279
265.024
-261.121
350.464
-4.71985
-345.744
-462.651
31.9391
-834.366
748.13
86.2356
-138.67
-174.232
188.307
22.238
-210.545
213.266
127.553
-800.994
17.8581
-596.902
317.743
279.159
55.9614
227.713
363.712
-326.276
-37.4356
-360.198
376.735
-16.5363
847.425
-513.314
-455.131
312.886
-325.62
193.365
132.256
423.39
-720.82
568.483
-27.2342
811.254
-807.89
77.5663
178.868
-827.49
808.985
18.5043
-794.164
47.6875
-472.161
-527.845
1042.64
-186.28
931.106
-835.17
-95.9358
-521.119
-463.317
984.436
-49.0523
-257.801
66.2736
227.642
-236.251
8.60895
-22.5108
-56.0795
733.436
467.331
-30.5811
-436.749
-382.25
-187.935
14.5501
-110.923
-236.151
-139.356
405.615
-266.259
-926.157
926.157
93.3234
-810.868
502.827
-511.222
69.298
441.924
-212.359
-195.029
156.824
-157.847
-380.379
-548.8
390.953
597.066
59.5703
193.771
415.465
-928.962
513.497
-6.71012
290.551
-221.564
-264.733
-219.211
408.571
-83.3228
-183.161
-142.46
-65.5017
-835.37
452.614
-518.247
65.6332
16.4146
-685.111
767.096
-81.9846
415.879
-422.011
6.13213
248.525
-569.053
529.822
39.2317
127.962
105.413
-233.375
202.354
-218.096
378.932
-708.795
329.863
110.547
758.341
184.816
235.846
-68.7768
-493.282
462.58
293.714
-308.568
14.8546
416.785
-37.3675
354.401
-386.352
-23.8598
-367.818
391.678
-17.3957
-271.226
291.551
17.2396
-308.791
-408.609
269.253
-389.995
42.349
631.049
-749.538
-410.486
533.428
-314.185
-91.5974
976.661
-866.114
-492.701
-312.325
805.026
297.773
41.4241
290.435
-331.859
-462.723
133.041
-271.711
-51.9789
451.631
-564.146
112.515
47.4358
613.71
-179.551
53.2514
321.675
-265.713
708.756
-329.823
268.83
-183.222
24.4091
365.097
-389.506
-29.4505
-299.714
-2.83541
-259.653
253.131
6.52203
-0.398571
547.45
-519.638
35.0429
-891.585
113.415
797.296
-1.17697
330.885
-117.619
525.487
328.712
-854.199
598.41
239.955
665.079
-757.158
-736.765
103.237
633.528
276.244
42.0356
-318.279
189.917
-182.888
-7.02894
22.8487
274.389
572.885
-190.979
19.1546
171.825
-157.073
-606.781
763.854
-343.428
359.444
-16.0162
-237.45
300.34
-62.8902
-149.254
-175.902
-256.945
215.406
41.5388
920.087
-920.087
-87.526
727.087
-639.561
295.898
-214.706
345.909
-68.1381
-657.515
191.761
28.5994
-220.36
63.6765
-585.674
521.997
13.5243
-208.959
195.435
908.066
-913.821
5.75521
300.722
-674.391
373.669
330.963
-274.559
52.5036
311.208
-350.753
876.24
557.255
-105.623
-73.3927
-245.344
-401.447
326.536
74.9113
217.283
-346.827
335.817
-500.476
164.66
-217.82
30.3927
-873.287
-73.5992
34.4587
-719.57
303.93
-192.29
796.39
-773.227
-23.1631
433.173
43.7686
-476.942
-685.692
610.726
74.9662
-243.599
214.377
29.2224
322.06
-28.3459
-426.187
-254.924
872.531
-829.735
-42.7967
-357.878
658.601
141.715
-518.471
-864.434
11.107
-59.0018
-595.328
654.33
31.5398
-134.439
-160.545
-914.519
426.323
488.196
195.586
2.54519
451.053
-35.1743
543.442
240.26
-250.73
10.4699
-335.626
-6.26922
341.895
-535.621
423.854
-25.0875
-176.587
201.674
233.987
-42.2261
-79.0016
343.666
-264.664
-357.437
7.25648
435.703
-10.4062
67.1865
-805.982
738.795
-664.327
664.327
32.0824
195.379
-84.374
-505.862
590.236
-854.46
938.094
-83.6345
741.107
55.2831
-14.1651
-834.49
848.655
325.208
-342.775
17.5666
325.961
15.457
-341.418
583.775
-637.042
53.2667
31.2814
295.981
-327.263
-203.112
-111.331
314.443
199.272
-9.3552
105.097
-709.98
604.883
-759.992
267.292
353.528
-312.104
793.746
59.7766
-77.4836
-433.738
344.253
-390.011
-680.536
100.2
580.336
304.404
-254.457
-49.9475
-532.312
613.475
-81.163
-82.1803
-363.121
445.302
410.95
-382.863
-584.083
-330.435
585.49
-727.008
141.519
-406.618
-423.235
837.849
-39.7825
-645.91
142.087
436.535
-578.622
563.58
-644.874
81.294
17.9686
-233.95
11.1074
-693.03
-323.673
321.678
9.98932
570.649
-692.752
122.103
-344.532
-430.631
-5.82163
-684.071
698.359
-14.288
763.087
-164.677
645.848
-103.128
-542.72
195.764
285.722
293.118
-299.224
6.10582
807.725
-935.902
128.177
-640.876
-95.8889
-276.135
-1.01462
-330.697
101.233
229.464
-57.0289
640.804
70.8182
-248.311
177.492
358.607
-336.426
-22.1807
-321.994
-274.908
-11.3469
204.468
-24.1595
-178.208
235.628
128.702
-364.33
-272.706
320.569
-47.8636
587.02
-671.394
25.1438
289.502
-250.554
-80.1427
-277.764
-287.508
-711.36
540.663
170.697
-111.352
-155.184
-165.701
67.2564
-579.267
536.596
42.6707
576.958
-1098.08
-25.6186
-1015.33
-140.711
366.566
42.0048
-23.2854
-51.4154
-757.15
125.414
847.696
-840.586
617.428
-76.765
1.86208
589.259
-591.121
-278.589
-168.515
447.103
-32.6651
-210.934
4.48591
203.223
-213.406
10.1828
-991.609
218.99
448.479
-112.663
19.7429
-628.051
608.308
298.951
-365.416
24.6708
340.746
57.4605
573.711
-631.171
-104.638
770.263
-665.626
-669.347
-195.649
-720.362
39.7547
680.608
-39.5902
559.652
-520.062
919.779
-911.709
-8.06973
557.962
-616.964
-611.192
-23.7842
634.977
-397.17
124.464
239.474
-253.815
14.3413
801.048
-772.45
-96.2685
730.984
-634.716
461.292
9.16304
-434.411
-670.039
604.147
65.892
398.952
-92.316
-564.074
-32.0465
-11.7859
-400.071
-15.5034
211.781
-196.278
25.7405
327.788
-361.454
365.184
-3.72908
743.863
-790.894
143.499
121.157
216.128
-228.287
12.1585
684.139
-775.331
91.192
-312.48
-662.448
-22.5846
794.253
73.6604
291.36
120.627
810.102
-15.8487
-11.8709
-1030.28
179.579
3.94789
17.223
-566.808
163.613
-159.587
-1082.18
-241.303
216.216
69.3739
226.524
-107.892
-467.15
575.042
-2.55509
-477.587
480.142
838.941
-31.2161
570.141
75.7074
-15.9623
-202.494
218.456
734.73
-776.859
-142.5
378.128
-399.166
444.022
-44.8561
-679.217
723.326
-44.1086
283.779
-379
20.0366
399.618
-167.489
-232.13
171.742
-511.939
466.363
45.5766
5.17279
-463.184
459.453
3.73144
613.917
-596.053
28.4801
-154.782
587.956
-296.924
57.5551
441.284
42.1038
606.798
-648.902
-86.8781
-142.633
189.493
24.8834
30.349
-394.275
28.8586
-413.041
13.8751
252.457
-254.653
2.19689
711.286
-682.627
-486.211
84.9619
401.249
-42.3545
626.573
4.13145
-209.413
914.271
-141.799
-772.472
518.88
537.482
-1056.36
-285.23
-24.4079
292.17
4.14785
10.2706
275.987
-687.682
-0.157904
687.84
592.003
-749.076
-212.576
199.028
13.5478
-512.463
-39.5997
-626.052
-10.9766
154.325
-137.909
-428.418
-120.452
191.27
12.7839
-629.021
616.237
-39.2759
-497.692
536.968
-247.358
278.639
-69.3735
626.21
-725.458
752.704
-27.246
217.763
-482.444
214.471
-246.88
32.4088
-13.1228
-837.446
29.2296
229.046
-432.158
901.37
-910.608
9.23835
636.089
14.6118
-650.701
-56.3454
-537.113
-807.244
840.444
103.995
-208.603
897.679
-78.2757
244.112
-16.47
-60.33
-715.961
776.291
-86.7274
-597.343
-8.95858
529.639
-661.532
20.6558
213.648
-234.241
20.5928
-239.494
3.33082
236.164
-559.61
533.598
26.0122
-237.757
93.1261
65.8861
86.0794
-151.965
-880.245
314.91
21.3349
-336.245
55.0096
637.87
-692.879
-345.18
364.798
-19.6176
-640.443
-21.0893
-671.503
754.496
-896.419
127.372
769.047
-147.682
-169.493
-446.433
64.5229
-456.701
-613.389
231.137
13.5222
-292.751
292.625
0.126018
185.571
-57.6091
-423.856
394.395
29.4614
-954.861
972.017
-297.217
117.356
179.861
157.736
5.87708
520.968
848.369
-868.509
277.956
-36.1468
350.72
-491.962
-789.02
811.084
-22.0645
-348.67
-176.026
524.695
134.547
-177.546
42.999
427.931
-522.209
737.577
-677.266
-60.3107
-263.294
-21.9359
302.866
-64.2264
318.132
-292.988
333.868
-652.057
-17.9821
5.45454
633.576
-384.712
172.735
20.6633
-891.51
547.118
-392.013
608.147
368.514
424.145
9.17457
744.609
-804.939
-40.7797
-30.7119
827.282
70.3967
421.212
-499.958
78.7461
199.176
-171.956
-27.2198
-198.337
208.907
-10.5694
-14.781
345.811
-331.03
-616.861
658.965
434.515
250.235
-224.484
-25.7509
371.788
500.992
313.575
-335.532
697.405
111.098
73.9759
-597.989
524.013
639.942
-35.7954
13.5228
-930.205
113.77
816.435
230.735
-252.183
-254.223
-793.335
732.255
61.0802
5.34076
813.901
-819.241
924.074
-924.074
-378.967
17.5121
602.83
37.1121
-109.197
-16.0865
-199.012
215.098
437.74
27.9631
-465.703
-436.858
22.8029
414.055
187.911
972.163
-453.283
-233.438
41.4024
192.035
-626.925
630.918
-3.99328
408.423
-470.368
61.9453
-431.127
-5.73146
52.888
-759.786
706.898
-637.314
-59.7204
-550.192
518.614
31.5783
-361.001
259.163
16.6658
-236.942
220.276
-147.329
-149.888
-29.7883
226.71
-37.2172
60.4424
270.549
-278.037
-71.9615
791.614
368.384
-53.4743
-768.906
33.3203
-890.031
814.415
75.6155
124.836
263.509
395.083
143.348
-752.221
858.442
334.7
181.938
-516.637
-166.76
594.466
-644.068
49.6017
467.84
57.6225
-525.463
629.207
-334.976
-294.231
-465.367
-118.78
-780.17
675.533
30.3277
-683.457
653.129
-711.383
108.528
602.855
-765.797
-3.02784
20.7448
508.701
-87.4894
-512.716
356.463
539.945
-579.535
-35.4628
-68.5456
234.731
-166.185
27.7064
-667.001
-238.326
-238.478
169.933
-31.1543
273.394
-121.103
-152.29
152.942
-10.7329
-631.443
725.749
-19.8848
194.658
-174.773
869.872
-628.715
11.0435
147.63
174.045
1.01439
397.701
-398.715
-227.043
-189.54
416.584
180.946
763.526
380.193
-355.784
-841.839
7.47323
626.424
-609.871
0.360934
-805.159
804.798
589.57
16.1348
-605.705
837.882
44.8317
-882.713
313.713
-13.7009
128.149
-406.737
426.375
9.32776
-255.765
335.637
-79.8722
198.59
382.032
-90.6722
611.682
-56.0981
-555.584
-754.475
778.675
-24.1998
14.899
637.827
-652.726
-645.084
112.772
-7.54985
-442.641
599.803
34.6812
323.926
-31.4759
192.427
-92.7933
-337.726
2.10013
95.9777
742.964
4.41421
-278.967
274.553
-424.128
-504.835
-57.4596
-757.739
815.199
230.345
-42.3508
200.351
-263.362
63.0114
208.739
-96.962
-224.647
-516.88
-581.32
-791.817
-18.1053
-172.986
-815.763
776.451
39.3125
-34.6202
470.053
-435.433
59.7829
821.341
-881.124
202.672
-136.786
773.758
26.8294
-221.392
205.305
20.9033
-308.623
287.719
575.743
-573.881
-645.415
152.145
493.269
-536.37
588.367
-51.9973
33.498
259.62
-665.153
-441.776
608.55
45.8399
-654.39
-721.928
606.769
-679.224
72.4545
-165.921
-25.0586
450.201
-484.417
-846.084
851.425
104.149
-307.615
-588.804
-642.522
593.328
49.194
184.951
-78.8318
-44.1274
457.397
171.809
-567.807
52.847
514.185
-527.597
13.4111
73.0232
-717.69
644.667
269.083
-16.6268
-316.11
167.468
148.641
-561.484
571.258
-120.617
446.957
-326.34
681.45
-86.9844
1.92319
-319.39
317.467
-446.763
-442.787
889.55
-160.97
247.653
-86.6832
-100.507
-580.029
-553.242
403.449
149.793
400.344
-31.9899
-368.354
-4.97914
170.144
-257.566
352.254