/*--------------------------------*- C++ -*----------------------------------*\
  =========                 |
  \\      /  F ield         | OpenFOAM: The Open Source CFD Toolbox
   \\    /   O peration     | Website:  https://openfoam.org
    \\  /    A nd           | Version:  7
     \\/     M anipulation  |
\*---------------------------------------------------------------------------*/
FoamFile
{
    version     2.0;
    format      ascii;
    class       volScalarField;
    location    "32";
    object      p;
}
// * * * * * * * * * * * * * * * * * * * * * * * * * * * * * * * * * * * * * //

dimensions      [0 2 -2 0 0 0 0];

internalField   nonuniform List<scalar> 
29659
(
0.0125264
0.18001
-0.0127671
-0.053284
-0.00358474
-0.0540088
-0.046232
0.0107959
0.00313049
0.00032227
0.00488655
-0.00739009
-0.000682677
-2.27059e-05
0.0751659
-0.00874636
-0.000213668
0.0134383
-0.00314533
-0.0151667
-0.00123533
0.0029514
-0.0130113
-0.00309539
0.841839
0.178871
-0.000737802
0.676409
0.0601052
-0.00250581
0.0236155
0.0744916
-0.0920625
-0.0110578
0.690478
-0.0142801
0.178135
-0.0393145
0.00876431
0.00839793
0.000719904
-0.0263334
-0.000184082
-0.0440695
6.74221e-05
-0.00230541
-0.00664612
0.000145858
0.00504547
0.173561
-0.0760504
-0.0464956
0.0773293
-0.0518549
-0.00857072
0.0631146
-0.00511216
-0.00127756
-0.0081592
-0.0339828
-7.05849e-05
-0.00306185
-0.07971
-0.0128047
0.279266
0.797516
-0.0137021
-0.0127291
0.755999
0.000751534
0.176918
0.548728
0.00326032
0.763086
-0.0113139
-0.0287925
-0.00441693
-0.0342527
-4.67093e-05
-0.0282029
-0.0470844
0.245731
0.0125248
3.10527e-05
-0.0437087
-0.204618
0.341202
-0.000712476
-0.000657169
-0.0685205
-0.0373692
-0.0348382
0.00462477
0.0646231
-0.0703741
0.329825
-0.0503442
0.000775737
-0.0616802
0.0999149
-5.05143e-05
-0.0324453
-6.72188e-05
0.0460059
-0.0473609
0.145002
0.454449
-0.000630425
1.9115e-05
-0.0945007
-0.0908613
0.00406912
6.86116e-06
-0.00229949
-0.00015458
0.530093
0.256462
-0.0164717
6.47062e-05
0.00388347
-0.151069
0.193349
-0.078271
0.789283
0.00174113
-0.0535237
0.0190653
-0.0298917
0.00616913
7.26065e-05
-0.0414458
-0.00954635
0.465982
-0.101128
0.0456628
0.0229974
0.258002
-0.0330209
-0.188352
0.0957353
-0.0460409
-0.0585324
-0.0625563
5.06279e-06
-4.9604e-07
-0.00365892
-0.0062505
-0.0702616
-0.14841
-0.0764302
0.0359788
0.0169223
0.000711709
-0.000160716
0.264133
0.000827535
-0.0116338
0.229152
0.324955
-0.0745102
-0.0451027
-0.0519536
0.0682902
-4.69514e-05
-7.06448e-07
-0.0166144
-0.0598997
0.000122338
3.01658e-05
-0.0101866
9.05837e-05
0.00848382
0.237079
-0.0322285
-0.089983
-0.00724895
0.00319446
-0.0339781
-0.0018738
-0.0718173
-1.0771e-05
-0.0109942
0.333929
-0.0117044
-0.187028
0.256022
-0.00908732
-0.0252989
0.00583208
-0.00258839
-0.000379729
0.00157807
0.807369
0.25939
-0.0193125
-0.0111306
0.652467
0.229562
-0.0699145
0.00181376
-0.0736378
-0.0755998
-0.00718544
0.0013469
0.240499
-0.0097503
0.0103557
-0.0690254
-0.0965369
-3.0356e-05
0.570345
-0.00148653
2.53193e-05
-0.000773076
-0.0362193
-0.0662704
-0.00931876
0.0100906
-0.00307453
-0.0710723
0.000102119
0.000739091
-0.00333143
0.119931
-0.00418843
-0.00216278
0.0788732
0.000236808
6.33531e-05
0.00803245
-0.0409707
-0.029894
-0.00675943
0.174813
-0.0205851
0.0181009
-2.35923e-05
-0.00434921
0.00126443
-0.0695488
-0.16044
-0.00199014
0.000753032
-0.00222614
0.0041373
-0.0146206
-4.42511e-05
-0.194419
0.000123488
0.122009
-0.00492764
0.000263806
0.147689
-0.0740407
0.000423672
8.91423e-06
-0.0585618
-0.150893
-0.0126611
-0.0318159
0.0355367
0.319548
0.000150994
-0.0384227
-0.109006
0.668732
-0.0116712
0.252017
-0.0232857
-0.000337696
0.979397
-0.000762195
-0.094115
-0.0703408
0.00343523
-0.0549258
-0.011678
0.457717
-0.00502727
-0.0251842
-0.000349727
0.145933
-0.00500003
0.339259
-0.000714135
-0.00838393
0.601437
0.102085
0.0788297
-0.0455923
-0.000193211
0.00405233
-0.000227015
2.62567e-05
0.10237
7.81934e-05
-0.0272403
-0.111353
0.853715
0.458313
-0.064807
-0.0284305
-0.0283452
0.00556889
0.00287536
-0.0257774
-0.0698264
0.327884
0.562675
-0.00184217
0.444172
0.0994202
-0.0788304
0.0159426
-0.00342023
-0.0225812
-0.00776148
-0.0038042
-6.20925e-05
-0.00301317
-0.01095
0.140865
0.00251412
-0.0375512
0.0184262
-3.32003e-05
-0.067261
0.909068
-0.00921288
-0.00217906
0.0170433
-0.0262575
0.113703
-0.0022613
-2.01229e-05
6.59379e-06
-0.00382724
0.606642
0.0252225
-0.163434
9.94325e-06
-0.157853
0.0641326
-0.00735715
-0.0644033
-0.00198654
-0.000615682
-0.0352978
0.00148049
-0.071344
0.0161701
-0.00583284
-0.000267317
0.00250311
0.191817
-0.146184
0.000696135
0.000734869
0.514735
-0.0377046
-0.00241627
0.241761
0.688281
-0.0871751
-0.0125998
-0.0582864
-0.00110381
-0.0121224
-0.00492033
0.223995
2.23779e-05
0.0155568
-0.148362
0.484191
0.744577
-0.00882747
-0.0130053
0.292646
-0.0352274
-5.96295e-05
-0.0543043
0.127159
0.129569
-0.0112007
0.0395052
0.647729
-0.165574
0.567362
0.51104
2.14487e-05
-0.00936643
-0.155215
-0.00443643
0.0025703
0.695967
0.0249306
0.000487926
-0.0530676
-0.0772341
-0.00822045
-0.000145742
0.317263
0.251564
0.000129398
0.00639092
0.0084372
-0.147485
-0.0456612
0.000155549
-1.11535e-06
0.000831781
0.121231
-0.0389162
0.405189
-0.0692859
-0.0276896
-0.0293984
0.235725
-0.0706582
-0.00178765
0.0125223
0.00138687
0.562276
-0.0358623
0.00176641
-0.0109271
-0.0424355
-0.0025308
-0.0181181
0.000412521
0.000418669
0.924153
-0.0118545
-0.00762011
-0.000680605
-0.00107683
0.295614
-0.150474
-0.0394716
1.19431e-05
2.24142e-05
-0.0369894
-0.009948
-0.00769737
0.0267066
0.0096511
-0.00485253
-0.00622745
-0.0250927
0.553769
0.0045267
0.000435381
-0.0639888
-0.0364757
-0.0378736
-0.00529193
-0.0390599
-1.13031e-05
0.741002
0.030646
0.000174589
0.80757
-0.0406095
-1.2105e-05
0.00235489
-0.0662112
0.00642137
0.0597157
2.84113e-07
-0.0116077
-0.020291
-0.00798185
-0.000685589
-0.0120285
0.660931
-0.012602
-0.0175901
0.278201
-0.00417862
0.5911
-1.38799e-05
-0.0255634
-0.0751263
-0.0385291
-0.123653
-0.00238407
-9.31971e-05
-0.000160856
-0.028015
0.000790548
-3.07201e-05
1.56435e-05
-0.00926706
0.575311
0.00914075
0.00396609
-0.0693815
9.42999e-06
0.00162543
-1.29332e-05
0.012769
-0.0254676
-0.000556277
-0.0125327
-0.018079
0.00169779
-1.47779e-05
-0.10596
-0.000603513
0.0562436
0.430916
0.30416
-0.00789572
0.00947566
0.0406346
-7.33888e-05
-0.00580921
1.16358e-05
0.518189
-0.020436
0.0263302
-0.0242176
0.00200242
-0.00488516
-0.000124569
1.88008e-05
-0.00736971
0.059571
0.329713
0.0020393
-0.0583378
-0.0350549
-0.0116476
-0.0732199
-0.00198173
0.00079619
-0.00835552
-0.000112583
-0.0685965
0.375226
0.238315
-0.0322586
0.365801
0.000175271
9.91933e-06
-0.0519049
-0.0475954
0.774423
-0.0716115
-0.0297977
-0.0350228
0.00195041
-0.00873024
0.000796085
-0.015498
-0.0190649
1.39809e-05
-0.00133874
0.48116
-0.000169741
0.710186
1.20535e-05
-0.119533
0.0515101
-0.00149311
0.00174087
0.000339306
0.562429
0.0592333
-0.0761928
0.251237
-0.0110385
-0.0189595
-0.00611816
0.103497
-0.0369812
0.00854029
-0.0119986
1.03317e-05
-0.0019611
0.00916975
-0.025139
-0.0315667
-0.05895
-0.025395
0.159816
-0.00325009
-0.0695854
-0.0196327
0.000100286
-0.0172545
0.00420926
0.162857
-0.0387462
-3.1251e-06
-0.0264536
-0.00156022
0.00230229
-0.16966
0.404139
0.00152229
-0.0170669
-0.0714347
0.105543
0.64448
0.002954
-0.00874642
0.187137
0.213421
-0.0240765
0.00789347
-0.0642132
2.37796e-06
-0.0525883
0.000169564
-0.0702844
-2.80256e-05
7.03606e-05
-0.0113697
-0.0786657
0.382442
0.00415436
0.0172453
2.1936e-06
-0.00953605
0.000173131
-0.00493615
6.97599e-05
0.0649012
-0.000697364
0.220427
-0.000154795
-0.0181899
-0.047096
-0.00639742
0.638068
-0.0232042
-0.0876847
-0.00854657
0.0693425
-0.0639138
0.0445688
-0.0438532
-6.92053e-07
-0.0092901
-0.00597537
0.000447034
0.000166154
0.0931227
-0.00746676
0.115634
-0.00841405
0.00145568
0.048657
0.000305144
-1.57943e-05
-0.0516501
-0.00528575
7.47654e-05
0.26462
0.866686
-0.000286808
-0.0454647
1.41929e-05
0.666941
-0.1257
-0.0519686
0.000133964
0.00981654
0.0861181
0.101675
0.0576863
-0.000544846
-0.000185403
-0.0224597
9.59322e-06
5.63136e-06
-0.0375231
-0.0497649
-0.0581353
0.817135
0.000365181
-0.0581689
0.0122153
-1.38395e-05
-0.00196276
0.000114388
-0.0096664
9.12983e-05
-0.0417956
0.0430949
0.58091
0.067292
-0.000395178
0.000790784
-0.153369
0.113192
-0.00474708
2.0989e-05
0.213019
-0.182257
-0.0699958
-0.0199304
-1.18012e-05
-0.000389817
-0.18874
-0.036231
0.191471
0.552596
-0.0858716
-0.00192393
-1.14268e-05
-0.0617295
-0.0902001
-0.000273441
0.00159779
-0.0232811
-0.00712329
0.563371
-0.00199016
-0.0153525
-0.00739431
-0.0114436
0.780063
0.791622
-1.88999e-05
9.53136e-07
-0.0227872
0.0248254
-0.0443425
0.00844106
-0.0110716
-0.00085392
0.636589
0.214936
0.00367582
0.967279
1.11006e-05
0.146335
-0.0868203
-0.0579259
0.000194644
-0.0458181
0.152553
0.0236955
0.0915582
-0.000665764
-0.000710007
-0.0157405
-0.00524942
-0.0196911
-0.0016826
0.13764
-0.010216
-0.00812108
-0.0690278
0.50225
-0.0166297
0.0477785
-0.000589168
-0.000759502
-0.028821
0.00166417
-0.00391076
-1.1192e-05
-0.000456267
0.15313
0.563672
-0.000167659
0.0464414
1.59204e-05
-0.0050925
1.92464e-05
0.00867773
-0.113418
-3.3753e-05
-3.58624e-05
-0.0713381
1.03028e-05
0.0584238
-0.037481
3.78531e-06
0.199132
1.81314e-05
-0.000585392
-0.000107371
-0.00777147
-0.000553779
-0.00914541
-0.103159
-0.000484008
0.00683413
-1.62434e-05
0.375488
-0.016726
-0.0197622
-0.0415679
-0.0307475
-0.00181198
0.0047149
0.271346
-0.0377855
0.137373
-0.0508818
-0.00526326
-1.14736e-07
-0.00861065
0.446696
0.222224
-0.0525375
-0.0619359
0.359566
-0.0123378
-0.0797296
1.89276e-05
-0.038952
-0.00124196
0.933182
-0.069119
-0.000104522
-0.0684199
-0.0386077
0.322635
-0.00386165
-0.0401214
-0.00620837
-0.0106076
-0.00193048
0.322813
-0.156806
-0.0270136
-0.021306
-0.0179935
0.00898125
0.354936
-0.0257598
0.254593
0.00439815
-0.12347
0.72696
-0.0125143
-0.00032008
0.305495
0.497022
-0.0137633
-0.00877302
-0.0104953
-0.0411752
0.192715
-0.0610116
-1.45497e-05
-0.0107637
7.46404e-05
-0.00665216
-1.61027e-05
-0.00777145
-0.00143711
-0.00485739
-0.138141
-0.00088028
-0.000734258
-0.00174704
0.270327
-0.00308525
-0.00485981
-0.00462537
0.212057
0.00824042
-0.0005285
0.433419
0.779094
-0.0264514
0.625869
-0.0233402
0.430294
0.0085412
-0.0264125
0.00405022
-0.000652909
3.55737e-05
0.0039856
-0.0165321
-0.0262322
0.246687
-0.0302423
-0.0266741
-0.00133609
-0.131929
-0.0348385
0.0100531
-2.41168e-06
0.0056569
0.0041712
0.522713
-0.00706142
-0.0180694
0.190765
-0.000477626
0.0530892
-0.0238157
0.000958455
-0.0678255
0.0034951
0.440107
-0.00296658
-0.000752033
-0.000114242
-0.0741799
-0.00192182
0.943086
0.975415
0.0179465
-3.27206e-05
0.0123718
-1.20653e-05
0.0618032
-0.000735395
0.0313476
0.834059
-0.0317659
3.80425e-05
-0.0110047
2.56556e-05
-0.15587
-0.0436738
0.659654
0.000382641
0.0172755
0.00259851
0.000469724
-0.00313876
-0.000392675
-0.00814768
-0.0517882
-0.0302526
0.00633251
0.193556
-0.0175881
0.00906065
-0.0266613
-0.00266393
-0.0361667
2.41814e-05
8.65548e-05
-0.00298102
0.0384494
-0.0481435
-0.0217918
-0.00492123
0.00388887
-0.0466392
0.130003
-0.0165012
-4.48188e-07
-0.0630432
0.599126
-0.0978884
-0.0158104
0.0437936
3.31955e-05
-0.000876784
-0.0368906
-2.31095e-05
-0.000567758
-1.34245e-05
0.968501
0.012434
0.00508014
7.86828e-07
4.95451e-06
1.79623e-05
7.47789e-07
-0.0286726
0.498322
-0.0438526
-0.000604475
-0.000182177
-0.00799221
0.667053
-0.0724494
0.569697
-0.0032906
0.185843
-7.60459e-05
0.661389
-0.00289518
-0.0122482
-0.0113499
0.00779822
0.00955791
0.24209
-0.0502125
0.650571
0.305452
-0.0110664
-0.0381943
-0.015679
-0.0373046
2.16711e-05
-0.00118215
0.00377008
0.0910468
-0.00852891
-0.0288515
-0.00436361
0.802201
-0.103228
-1.78014e-05
-2.02539e-05
0.669263
-0.00631561
0.00129713
-0.0166534
-0.00285679
-0.0198158
-0.0125472
-0.0960546
0.0310576
0.00315266
-0.0128897
-0.0184571
0.000153521
-0.00734635
-0.00223513
-0.0100278
-1.84173e-05
0.00010816
-0.0318252
-0.0261284
0.642497
-0.0503933
-0.000197969
-0.00192515
-0.000359131
0.435772
-0.0904719
-1.90032e-05
-0.0401522
-0.00569531
-0.00460408
-0.0358551
-0.0396843
0.00857989
0.0669148
-0.0887969
0.000138026
0.00767097
-0.0163371
2.30788e-06
-5.3931e-05
0.147309
0.105596
-0.0627952
-0.0562664
-0.0709449
0.000733219
0.668487
0.00015823
-0.0252852
0.530766
-0.0210657
-0.0455975
7.31262e-06
0.000261149
-0.0456729
-0.0114919
0.00181921
-0.0381019
0.298155
0.188692
0.000923275
0.000390363
0.215241
-0.0154287
1.24153e-06
-0.00180091
-0.0339328
-0.0279605
-0.0148076
-0.0037928
0.05991
2.63025e-05
0.0941249
0.325913
7.64548e-05
0.00685133
-0.000502367
-0.122783
-0.0164539
-0.000769058
0.0337163
0.000315852
0.278723
0.00181235
0.0258097
-0.0109794
0.85841
0.512374
-0.0608169
-0.00846014
7.10585e-06
-0.0926773
-0.0152799
0.173033
0.327681
-0.0382093
-0.0427731
-0.0182382
-0.00696114
0.181162
-0.000185686
0.618876
0.0273183
8.05739e-05
7.71353e-05
0.000152843
-0.0138139
-0.0190733
0.000858784
-0.000724346
0.0973822
-0.0560808
0.00051996
0.000117304
-0.0255069
-2.5902e-05
-0.00298311
-0.0122682
-0.000765453
-0.037963
0.00438757
-0.00138535
-0.00390177
-0.0170809
0.513212
0.528418
0.0401153
1.94651e-05
-0.000526737
0.317413
-0.000428158
-0.157958
-0.000176197
-0.0211042
-0.0922149
-0.000173173
-0.000203698
-0.0359087
0.00148082
-5.14319e-05
-0.00131572
0.214939
-0.0358807
-1.27567e-05
0.10826
0.444341
0.449316
0.000730114
-0.146536
-0.00944048
0.595208
-0.0726602
-0.0746341
-0.0215685
-0.0129437
0.0291873
-0.0258583
0.452672
0.0660616
-0.00012699
-0.0540289
-0.0678866
-0.00389248
1.29754e-06
-0.00184149
0.272292
-0.000152286
-0.0169777
-0.00408029
-0.00114289
0.00917641
0.0309732
-0.000132934
-9.59559e-05
-0.00952695
-0.122334
-0.036766
-0.082292
0.31814
-0.00324634
-0.000233827
-0.0392538
-0.0244178
0.00939344
0.0138778
0.000135057
0.0798557
0.16796
0.0198352
0.024786
-0.000581481
-0.0132731
-0.0823848
0.00141728
6.29914e-06
-0.0096762
-0.00395843
-0.000686773
-0.011599
-0.000804326
0.116008
-0.00902356
-0.168095
-0.0245999
-0.0106307
0.0121727
0.658515
-0.0420423
-8.12749e-05
0.657598
0.195313
0.00799692
-0.00575866
0.00774216
-0.0631861
0.195718
0.000405604
-0.00384923
0.836235
0.388181
0.320525
-0.044945
-0.00133898
-0.00117249
-1.20525e-05
-0.00125072
0.240401
0.0922006
-0.019635
-0.00849316
-0.000299886
-0.0866891
0.806421
0.54735
0.08782
-0.00277161
-0.0597069
-0.00648364
-0.000669549
-0.0264527
0.0086773
-0.026694
-0.00346017
0.000970429
-0.103592
-0.121994
0.0317978
-0.0250006
-0.00753549
-0.0251113
-0.000166045
-0.00693667
-0.000639136
0.376876
8.34753e-05
4.86527e-06
-0.0415162
-0.0192708
-0.0278266
0.0403514
0.000105586
-0.0963682
0.0602512
0.241685
0.910393
-0.00456602
-0.154062
0.0301958
-0.00201421
-0.00541478
-0.000547425
0.0104904
-0.000139105
0.228238
-0.144354
0.0108254
0.101859
0.13693
0.00152593
0.00220038
6.40561e-06
0.557171
1.05454e-05
-0.0432351
0.000392407
0.00169901
0.206666
0.113358
-0.0857767
-0.0374701
-0.00409635
0.978345
-0.0848156
7.2436e-06
-0.0152874
-1.9037e-06
-0.0216836
0.115873
0.248606
0.000975804
-0.0339946
-0.00922109
0.180804
-0.071689
-0.0314032
0.806354
-0.00970996
9.20177e-05
-0.19696
0.851277
0.00114612
0.105924
-0.0444244
0.141306
0.00198048
0.0237365
-0.069434
0.00442983
0.0578865
-0.041844
0.122631
-0.0254524
-0.0191238
-0.000731582
-0.000743527
0.724033
1.60255e-05
-0.00626729
-1.74486e-05
-0.00789624
0.000409647
-0.00721224
0.221812
1.02738e-05
-0.000952332
-0.0674023
-0.179753
-0.0266283
0.00120678
0.579366
-0.064016
0.211003
-0.0115196
0.188328
0.00603494
-0.000680552
-0.132341
0.000850409
0.741585
-0.027754
-7.47038e-05
0.0023574
0.172788
-0.0109529
-0.000633709
-8.53831e-05
-0.11122
-0.00249053
-0.00984743
-0.0812284
4.17046e-06
-0.0653017
0.000481817
0.47018
-0.0103037
0.179675
0.00422031
-0.00361881
0.303611
-0.0784538
-0.198801
-0.00432084
-0.121384
0.314292
0.317522
-0.0137325
-1.19024e-05
-0.0151629
0.00472006
3.82482e-05
0.0146789
0.529126
0.0127615
0.00167695
0.00301772
-0.0664373
-0.000132319
0.0745008
0.0455165
0.0691298
0.0133705
0.0278128
-0.000341104
0.219519
-0.138702
-0.187092
-0.000937168
0.0126599
0.167432
0.000879673
-0.0677451
0.272504
-0.0499071
-0.0694317
-0.0676736
-0.138768
-0.139802
0.0555148
0.283488
-0.142471
2.01771e-05
0.000861104
-0.0869593
-0.0017036
-0.00287022
1.44112e-05
-0.00558157
0.00408495
-4.47318e-05
0.0620861
-0.000459563
0.1435
-0.0344329
-0.00863065
-0.00672649
-0.00827191
-0.0728069
-0.00565331
-0.00100086
0.0217807
0.0840933
0.00413294
-0.032012
-0.0028604
0.0287955
-0.00920903
-0.0188277
-0.0684121
-0.0154617
-9.09429e-06
-0.0148543
0.653762
5.5958e-05
-0.0198306
-0.0739779
0.786301
0.0509757
-0.0443113
3.08928e-06
0.00177975
-0.098066
-9.73036e-06
-0.00261145
-1.69224e-06
-0.0831085
0.00461621
-0.10752
-0.0223198
-9.53967e-05
0.351988
0.345835
-0.0353291
0.000516482
-0.000134691
1.77661e-05
-3.77004e-05
0.67587
-0.0012491
0.00238313
0.0224069
0.0010395
-0.00054166
-0.0689285
-0.000179641
0.043187
-0.000431707
-0.00201307
-0.000675607
-0.0248233
-0.0407093
0.209039
0.0581607
-0.000128658
-0.0130022
0.000609923
-0.108686
-0.000631104
0.137837
-0.0126932
0.965192
-0.0230293
-0.00137957
0.0817969
-0.0186771
0.461498
-0.0413029
-0.0109739
-0.0127364
0.0190098
-0.0035948
2.66877e-05
-0.00824534
0.389039
-0.0418543
-0.0031633
-0.0401747
-0.0262147
0.186205
-0.000461886
0.338553
-0.00808423
-0.0707861
-0.00048514
0.0134963
0.0468974
-0.0148044
0.386633
-0.000422757
0.0348069
0.0987413
0.000560537
-9.19922e-05
0.766401
0.0521203
-0.00196082
0.0301719
0.00971303
0.000174693
-0.112196
-0.0221919
-0.164103
-0.0109808
0.454663
0.00393305
0.0484519
-0.000356148
0.545177
-0.0670375
-0.00520002
0.00639358
0.0328433
-0.0783748
-0.166215
-0.00844697
8.30957e-05
0.883088
-0.0221034
0.000901304
-0.0735123
-0.0382866
0.406928
0.00312442
-0.0160925
-3.571e-05
0.0270588
0.00819953
-0.0372336
0.000888583
-0.00343512
-0.027315
5.41741e-05
-0.050771
-0.00152619
-0.0147001
-0.0629128
0.387811
-0.0101797
-0.0200157
-0.0668826
-0.0335284
2.40616e-05
0.000192585
-0.00384312
5.61645e-05
-0.0110337
-0.100415
-0.00202055
2.7839e-05
0.774455
0.00516891
0.00040369
-1.06272e-05
-0.00210662
0.380963
-0.0501353
0.886536
0.235363
0.0224433
0.370459
1.83644e-05
-0.0152889
-0.000800985
-0.00244617
0.247645
-0.010481
0.871655
0.324101
-0.0570207
0.354865
0.00824332
-0.0143606
0.0023574
-0.0737776
-0.00395067
-0.050759
-0.0532794
-0.00301224
0.343265
-0.00997378
0.000181115
-0.00431965
-0.000631352
-0.0326118
-0.000132347
-0.00122398
-1.39694e-05
0.196884
-0.167505
0.354721
0.0274966
-0.00274676
-0.037583
-0.0207302
0.0822303
-0.00304993
-0.00103212
-0.0631627
-0.0458765
0.00402873
-0.0413412
-0.00450786
-0.00407635
0.000792114
6.45862e-05
0.160562
-1.24874e-05
0.0626426
-0.000773681
5.33151e-06
0.00211736
-0.000630684
-0.00118771
-0.0164932
0.17343
0.184259
-0.0199246
-0.0127904
0.00304617
-0.00510564
-0.0102543
-6.86615e-05
-0.000454664
0.000775156
0.13533
-0.00927
-0.0589451
-0.0615401
-0.00271768
-0.0302541
-0.0225701
-0.00169358
0.00547944
-0.0124913
0.304749
-0.077415
0.00491547
0.000383356
-0.0390176
0.86616
-0.0101732
-0.00719267
0.00799834
0.0933035
0.00418596
-0.0127565
0.344513
-0.000335248
0.046007
-0.0265474
-0.0710916
0.00662174
-0.00381202
-0.00557501
0.0439236
-0.00363832
-0.00058643
-0.00632009
0.00260585
-0.000194594
0.0224749
-0.00951248
-0.00203194
1.70851e-05
0.19937
-1.65258e-05
-0.0362122
0.0897459
-0.0279545
0.000205127
0.134221
-0.0563693
0.218292
-3.9659e-06
-0.00407745
0.0209902
0.000221283
0.00513921
-0.00458345
0.0108947
-0.0209778
-0.031962
-0.0101616
-0.0026916
0.0102816
0.0219446
-0.0755053
-0.000157485
0.14069
-0.0397966
-0.00338952
-0.00702089
0.000465884
-0.0809959
0.000102383
0.662376
0.222168
-0.000458068
-0.0219699
6.11534e-05
-0.0021773
-0.00648314
-0.0244771
0.201323
0.0849196
-0.00948458
0.0105671
-0.0706436
0.0340429
-0.0187552
-0.0226445
-0.050015
0.0110645
0.233541
-0.00966988
0.528154
-0.000895258
-0.0109645
-0.0557927
-5.96664e-05
-0.00072227
-2.43626e-05
0.524969
-0.0104193
0.000331526
-0.015743
-0.00701691
-0.000292122
-0.0132434
0.291956
0.00103817
0.011206
-0.0347505
-0.000460842
-0.00461333
-0.000773569
0.888234
0.000254907
4.16827e-05
-0.00202766
-0.0151914
-0.0234567
0.000626275
-0.000357367
0.0851683
-9.67632e-05
0.00210524
-0.0703444
-0.0562809
-0.0696337
1.84705e-06
0.000411169
-0.033563
0.0324395
0.405994
0.10832
-0.0329522
2.03139e-06
-0.0675762
-0.00258439
-0.0127173
-0.0123079
0.223387
0.627553
-7.94252e-05
0.183261
0.300334
-0.0096747
-0.0456428
-0.0264004
-0.0213684
0.000146796
-0.0391523
-0.00884256
-5.84519e-05
-0.000489524
-0.00154701
-0.00184762
-0.000623913
0.386577
0.359722
0.143064
-1.59798e-06
-0.0228348
-0.0412877
0.123469
0.67302
-0.0004442
-0.0198879
-0.0181057
0.257777
-0.0189406
-0.0098712
-0.038307
0.189432
0.000363703
-0.000445827
-0.0273364
-0.057439
0.119163
0.00898447
-0.0487295
-0.0258918
-0.0569474
0.0194985
-0.0507891
0.00719404
-0.0913836
0.0635695
-0.000293655
-0.0005684
0.0659495
0.000246101
-0.00724172
0.0333365
2.1109e-05
0.149883
-0.0108959
-0.00438312
0.923516
-0.0356518
-0.0128762
-0.0381133
-0.00296895
0.619933
0.00123427
0.871969
-9.33635e-05
-0.044726
0.879048
0.00706966
0.609447
-0.00566536
4.37621e-05
-0.035241
0.592801
-0.00153166
-0.00656406
-0.00804744
-0.000947905
-0.0215585
0.626359
0.109141
3.20627e-05
0.0194826
-0.00366639
0.0305529
-0.000838559
0.0242384
-0.00253728
-0.000411278
0.590321
0.62558
0.601102
-0.0492881
-0.0808904
0.000193596
-0.052912
0.366648
0.0128958
0.000300845
-0.0909692
0.000650924
-7.47498e-05
0.629765
0.000163854
0.00431614
-0.00187443
-0.00938334
0.610526
0.61252
0.650277
0.0120748
0.00055916
0.251211
0.00784666
0.0175561
-0.00895641
9.65345e-05
-0.00288989
-1.10522e-05
-0.00448154
-0.000690135
-0.00585786
-1.45561e-05
0.174111
0.00223011
-0.088471
-0.00929174
-0.0660108
-0.0158892
-0.000722415
0.416365
-0.0105431
5.62164e-05
-3.23872e-06
0.849143
4.41148e-05
0.0116707
0.0519943
-0.0174436
0.348661
-0.00515804
-0.040629
-0.0353992
-0.000473921
0.000163405
0.333318
0.640348
-0.00147071
-0.0243511
-0.000194713
0.611787
0.81006
-0.0013701
-0.00661796
0.0199484
0.00309222
-0.0238208
0.000127359
0.0104204
-0.0365909
0.0521717
0.383198
-0.00144044
0.029734
0.0388472
-0.0274607
-0.0416349
0.0288629
0.78163
0.186787
-0.0485044
0.611805
-0.00052438
0.671193
-0.00805521
0.518515
0.0694426
-0.00497488
0.0274807
0.00252531
0.0181619
-0.0665499
-0.000613443
-0.0225218
0.480828
-0.0262399
0.0153527
-0.00141489
-0.0834305
0.175544
-0.00907445
-0.150031
0.0007791
-0.00359291
-0.0230625
-0.00206564
0.00204476
-0.00858266
-0.000447078
0.00253958
0.505084
0.00216661
-0.0152425
-0.0579203
-0.0282489
-0.0576257
-0.0996965
0.00430014
2.01836e-06
3.80779e-05
0.293729
-0.0696392
8.51656e-05
-0.104947
0.206444
-0.058927
-0.0144879
0.00014973
-0.00181568
-0.0428901
0.129812
-0.00960349
-0.000425258
-0.0427628
-0.0196482
0.889285
0.123137
0.0665006
-0.0549968
2.848e-07
-0.00647957
0.0682401
-0.000320028
2.95973e-05
0.183954
0.100395
0.000677627
-0.000795488
0.00446434
-0.0460331
0.0102242
0.00739079
-0.0144518
7.68155e-05
0.193539
0.000644996
-0.000572429
-0.000179167
-0.000176534
-0.000108874
0.0872189
0.000978223
-0.0026656
-0.00914593
-0.00497235
0.0285562
-0.00518205
-0.0388478
-0.00993939
0.543868
0.429841
-0.000424704
-0.00138436
0.0968932
-0.000733169
-0.0230677
0.0219143
-0.0350936
-0.000885041
0.0209387
0.0410568
0.00133802
0.0513359
-6.06561e-05
0.00752087
-0.0438716
0.0136509
-0.0140757
0.0507884
0.000103209
-0.00100389
0.000338998
-1.29749e-05
-0.00156783
-0.00918072
-0.0120738
-0.0277583
0.0159363
0.0340346
0.00926346
-0.0724406
0.00893979
0.00331394
0.0128865
8.20732e-05
0.631809
-0.00784094
-0.0030626
-0.0646429
0.90079
1.02999e-05
-0.00466787
3.2753e-05
-0.0806125
-0.00603686
-0.0211249
0.183384
-0.0037182
3.27086e-05
0.0558643
0.0756129
-0.000473962
0.0522882
9.00014e-06
0.181654
0.00479726
-0.0268667
-9.23959e-05
0.236549
0.0284672
-0.0188168
7.07827e-05
0.186839
0.362301
-0.00100459
1.13606e-05
-0.0341685
-0.00833423
-0.00445509
0.0147337
0.675623
0.334312
0.000520359
0.326909
0.236839
-0.00260419
-0.0489623
-0.0418146
-0.0168829
-0.0630937
-0.000975761
0.000848649
0.698976
0.143176
0.0119776
0.000153271
0.000671937
1.44457e-05
-0.000462578
-0.00254252
0.749013
3.75287e-05
0.0822804
0.0267821
-0.00016897
0.668879
0.80734
0.21412
0.262481
-0.103758
0.00243484
-0.00021678
-0.0101546
7.41893e-06
-0.000965935
-0.173856
3.97339e-05
-0.00201462
0.699654
-0.0106347
-2.17859e-06
0.754657
0.000494164
-0.0314074
-0.0659142
-0.00116021
-0.0965284
-0.000177133
0.0618707
0.00323969
-0.0176214
0.00191109
-0.000547768
-0.000304551
-0.00016347
-0.172864
-0.0560324
0.170406
0.00263738
-0.0131103
0.230608
0.000100473
0.854611
-0.000454661
-0.0729711
0.00219999
0.0016187
0.0510081
0.0531305
3.45229e-05
-0.0038142
0.000138957
-0.000568205
0.000861221
0.0853194
0.0487171
0.372061
-0.0563326
-6.12494e-05
0.00020073
0.102819
0.334539
-0.00400386
-0.00569158
0.860301
-0.0024894
-0.018531
0.000786857
0.0283935
-0.0581924
-0.00773768
0.17488
0.00132701
-0.000170442
0.00163493
-0.082384
0.825875
0.634534
-0.0216348
-0.0437294
-0.00595248
0.00154476
5.1923e-05
0.0764104
0.188906
3.45629e-05
-0.0065888
-1.92306e-06
0.000175256
0.578961
3.93897e-07
-0.085528
-0.0662172
-0.120307
0.0691816
2.6941e-05
0.00934412
-0.00575866
0.519775
-0.0364995
0.00476712
-0.0277009
0.000655978
0.35108
0.239593
0.00953615
0.0372181
0.705565
-0.0606724
-0.0581078
-0.00168711
-0.00631263
-0.000279689
0.0117634
-3.85675e-06
0.18315
0.00278773
0.162429
-0.0331296
1.72515e-06
0.0480837
-0.000108202
2.34063e-05
-0.00062955
0.833026
0.795602
0.232776
8.21762e-05
0.094743
0.66903
-0.00083229
0.000501861
-0.00758948
0.0287038
0.593074
-0.0248127
0.127786
-0.00238254
-0.0568448
-0.0640587
0.937764
-0.00049434
0.624769
0.089156
0.214256
0.000172731
0.000243209
0.0050245
-0.00809557
0.0806324
-1.41197e-05
9.1112e-05
0.616763
-0.136785
0.000337148
0.652305
-0.00205751
0.000190391
0.456539
-0.00730739
-0.00137696
-0.0937054
0.0671031
0.000343536
-7.60306e-05
0.00318427
-0.00360309
0.605114
0.826094
0.242277
0.917137
-0.0093246
-0.0406716
0.717049
-3.37056e-05
-0.00292508
0.00659144
-0.00311838
-0.000540802
-6.02259e-05
0.643146
-0.00320993
-0.000531636
0.801649
0.0757181
0.0847678
0.0413561
-0.00240049
-0.0188386
0.114097
0.0647082
0.625291
-0.0242338
-0.000653986
0.576198
0.454364
0.0115342
0.396286
-0.0380393
-0.00695365
-0.00879224
-0.000525601
-8.68031e-05
0.587529
-0.0579839
-0.0471215
0.000669447
0.161408
-0.0277292
-0.023858
-0.000876028
-0.0039271
0.671081
-0.000668959
-0.0158344
-0.00265419
0.642147
-0.0180248
0.018742
-0.00669512
0.00136743
0.161147
-0.0195035
0.704512
-0.0361726
0.910751
0.291724
-0.0517448
0.029608
-0.00155834
-0.0129736
-0.1157
0.618163
0.666371
0.771784
0.252105
0.597512
-0.000270881
0.718051
-1.16019e-06
9.36355e-05
-0.0424979
0.779827
0.0486669
0.227427
7.2149e-05
-0.00188598
-0.134536
-0.0361227
0.608012
-0.000562501
-0.00683658
0.223696
0.00102359
-0.00379257
0.878226
0.0447657
-0.0494011
-0.210829
-0.000422942
-0.0169186
-0.063028
0.92267
-0.0365056
-0.0259655
0.00370893
-0.000172114
-0.0182282
0.202863
0.00348764
0.000154788
-0.138941
0.274724
-0.00128146
0.611611
-0.0775145
0.62511
-0.0451007
-0.0208189
0.714532
-0.00474866
-0.0499964
-0.000306965
-0.00113498
-0.053965
-0.0199246
-0.0315539
-0.00874257
-0.0173325
-0.143997
-0.0610661
0.607678
0.000296811
0.00075646
-0.0187944
0.108876
-0.145879
-0.0515034
3.15946e-05
-0.145984
0.042492
-5.40097e-05
-0.0947653
-0.144025
0.637147
-0.127611
0.594324
-0.0122208
0.0650079
0.281486
-0.030271
0.165661
-0.00158961
0.0428511
-6.57343e-05
0.0827101
0.19436
0.182679
-0.0254305
0.00553368
-0.000546206
0.1884
-4.83432e-05
-7.79502e-05
-0.000870132
-0.0290337
0.0109988
0.0133013
0.495246
0.127145
0.84176
0.446599
-0.00131458
-0.0278887
-0.000103851
-0.0432462
-0.00114491
0.00525793
0.000640584
-0.0334281
0.366692
0.629692
-0.000216508
3.19018e-05
-0.0338489
2.38427e-05
-0.0080416
-0.000115085
0.104359
-0.0307609
0.199305
-0.102207
7.02304e-05
-0.01206
-0.0345488
-0.0254006
-0.0143577
-0.0444472
0.0146959
-0.00011075
-1.7243e-06
0.00193737
-7.62194e-05
0.0526371
-0.0299987
0.0337485
0.769998
0.0393558
-0.161691
-0.0724387
-0.000330317
0.0472127
-6.80735e-05
0.557437
0.0947515
0.688587
0.000172978
-0.0285373
-0.00590967
0.0416841
0.0122855
0.467904
-0.00663552
0.0176565
-0.00159887
-0.0185361
-0.00695654
-0.00527596
0.102915
0.00148482
-0.00911159
-0.017749
0.0883135
0.0418255
9.15838e-06
-0.000722627
-0.00536984
-0.000484574
0.0846855
-0.000536996
-0.038562
0.114566
9.71291e-05
0.242242
0.000107625
-4.14383e-07
-0.0909279
-0.0230869
0.000188753
-0.0195795
0.000200939
0.725227
0.0110972
-0.0206501
0.691443
0.124325
-0.0268242
0.486164
-0.00235379
-0.0015907
-0.00175957
0.067765
0.974634
-0.00124669
-0.00046951
2.88149e-05
0.00701685
-0.00103759
0.0230272
0.00552179
-0.0179604
-0.0506718
0.0162477
0.00895248
-0.0164382
-0.000418634
-0.0667869
0.401328
-0.00153209
-0.0118522
-0.000160681
0.505217
0.044309
0.404799
0.000436749
-0.000680563
-0.0210638
0.777799
0.141419
-0.0244117
-7.78068e-05
0.0274744
0.0313723
-0.0434016
0.183777
-0.0400281
0.0153259
-0.16884
0.472749
-0.0161119
0.254498
-0.00271222
0.910349
-0.0349363
-0.00947287
0.688461
-0.036461
0.16281
-0.182168
0.187795
0.00577781
0.0437683
0.345587
0.0447995
-0.0402828
-0.00832279
-0.00672822
-0.0201857
-0.0396483
-0.00135851
-0.0505123
-0.0239579
0.0017756
-0.0555739
-0.070323
-3.85334e-06
-0.00208964
-0.00785886
-0.0276467
0.672318
0.362331
-0.0447535
-0.0612447
0.000473253
-0.0932153
-0.00424508
0.883272
-0.0300763
-0.0257012
0.364308
0.0433552
-0.0357598
0.124839
-0.0313166
-0.000505716
-0.0100688
0.00886126
0.000625068
0.383289
-0.00230048
0.139576
0.199808
-0.00486045
0.255276
-0.119545
-0.000282969
0.00590879
0.0285182
0.269506
-0.00214065
0.0558177
-0.0625201
0.0460617
-0.0198903
0.385374
-0.0165601
-0.113238
-0.00318557
0.000201165
0.597199
-0.00209528
-0.0374584
-5.51792e-05
0.218428
-2.5338e-05
-0.0477792
-0.0047887
-0.195213
0.000628001
-0.00927062
0.0997218
-0.00338098
0.000885028
0.000615039
-0.00356197
-7.67598e-05
-4.56846e-05