/*--------------------------------*- C++ -*----------------------------------*\
  =========                 |
  \\      /  F ield         | OpenFOAM: The Open Source CFD Toolbox
   \\    /   O peration     | Website:  https://openfoam.org
    \\  /    A nd           | Version:  7
     \\/     M anipulation  |
\*---------------------------------------------------------------------------*/
FoamFile
{
    version     2.0;
    format      ascii;
    class       volScalarField;
    location    "3.5";
    object      p;
}
// * * * * * * * * * * * * * * * * * * * * * * * * * * * * * * * * * * * * * //

dimensions      [0 2 -2 0 0 0 0];

internalField   nonuniform List<scalar> 
20933
(
-0.0155929
-0.0869007
0.105962
0.000157105
0.000502007
-0.00144388
-0.113953
1.83079
-0.0520721
1.8
-0.0560535
1.54996
-0.0793406
-0.0147031
-0.0155894
0.000155145
0.671503
1.20356
-0.118639
-0.0839173
-0.0284215
1.57162
1.81643
0.00815975
0.0986413
2.58373
0.0345854
-0.0546069
0.0875109
-0.113593
-0.0047453
2.90939
1.83297
-0.0400484
-4.95595e-05
-0.00454371
1.96455
-0.000366851
0.0535709
1.08993
0.176767
2.10918
2.22438
0.0307572
2.58113
-0.214888
1.59734
1.08793
-0.000889843
-0.112175
-0.000457123
0.386451
0.315561
0.000823476
0.327155
-0.183158
-0.0865411
-0.00526882
0.010679
0.698417
2.69939
-0.160034
-0.0415863
1.71155
-0.00226932
-0.0177858
2.53905
-0.0199322
0.374035
2.55402
0.139499
0.545802
-0.0141566
-0.0729242
2.552
0.186713
2.53941
-0.215582
1.07296
2.41453
-0.0144587
0.00755226
0.0601556
-0.0433154
-0.160778
2.23424
-0.0658859
3.06796
1.7082
2.66495
1.52686
0.000544712
5.49309e-05
3.04737
1.04144
-0.0391289
3.0685
-0.00267308
-0.0294145
1.88434
2.6848
-0.0891045
2.72457
0.35755
0.632336
0.287363
2.42977
0.42052
-0.123699
2.36414
0.0828837
-0.12416
-0.0851923
0.13256
0.213625
2.59726e-05
2.19512
-0.0126626
0.2934
2.38931
0.000485036
0.0016544
1.22734
0.00336286
-0.0400609
1.21711
1.74495
-0.0531609
2.93446
2.22914
-0.0753495
-0.112184
0.175874
0.0506042
2.44251
0.582799
1.23472
-0.020151
-0.0697079
-0.0990153
-0.0166989
-0.0797895
0.492807
2.74633
0.868948
2.45756
1.93032
-0.114334
1.66353
0.0390571
-0.116367
2.53834
0.000103599
-0.0393117
0.00738172
1.9593
2.26453
0.00376776
-0.196609
-0.0846832
0.295924
-0.0908387
-0.00539291
0.908278
0.907538
3.05082
-0.0842613
0.0413847
0.166091
1.94132
1.20933
2.59253
2.31391
-0.0484906
3.17758
1.81045
-0.013455
2.67823
0.242203
2.41574
2.49181
-0.000280392
2.74601
2.27401
-0.0795073
-0.214794
0.143004
1.82615
0.327572
2.90565
1.73109
0.6568
1.91852
0.403604
-0.193894
1.41459
2.73933
0.912935
-0.0776687
2.9284
1.13771
0.428488
0.348477
2.86791
2.78373
-0.129414
-0.0177584
0.392474
-0.180646
-0.00741437
2.52642
2.65087
-0.115851
-0.162973
2.39413
2.55139
-0.0267027
2.38878
0.452303
0.055648
-0.0209533
2.30604
2.80016
1.54021
2.34556
-0.0746218
-0.00940466
6.95058e-05
-0.021031
0.000524688
1.20603
0.23454
2.40958
-0.0882036
2.27439
-0.0593979
0.279796
2.57718
3.09456
2.2868
2.52197
-0.167408
2.07612
0.0100526
0.683526
-0.0130973
0.358995
0.605037
0.410378
-0.000793339
-0.120871
2.82093
1.3142
0.0494979
-0.126885
0.237333
-0.0665454
2.12853
-0.091585
-0.209742
-0.0562668
-0.0348089
-0.00296352
-0.060823
-0.0796472
2.74688
0.897178
-0.0785927
2.29374
2.77432
-0.0646295
0.00186585
-0.0458968
2.53439
0.230082
2.69117
1.33344e-05
-0.159006
2.36946
2.50059
0.0515133
-0.0804578
2.87908
0.500678
0.640868
2.70554
2.89312
-0.0709774
2.38822
0.927629
2.39723
2.12164
0.00188994
0.88783
1.9681
-0.0146356
-0.104818
0.970559
0.0212833
1.11125
0.734649
0.000148654
-0.00205241
2.67077
0.0011661
-0.108915
-0.0786196
1.56678
-0.14332
2.41644
1.01385
-0.0651715
-0.22146
1.8942
1.44928
9.3244e-05
2.66016
2.24535
2.65057
0.368952
-0.00243154
2.86982
-0.0118131
-0.0499223
1.41052
0.922442
-0.0921215
0.454112
2.27386
3.03147
2.49002
1.12909
3.18912
0.00014238
-0.0425806
2.50437
0.182689
1.95504
-0.0656426
2.56153
0.928523
9.96826e-05
0.902423
2.18058
0.117512
2.76855
2.24488
-0.00201071
0.143187
1.79159
1.25973
-0.0250084
2.29488
0.019947
3.11643
-0.0256108
-0.117859
-0.112911
2.48791
2.25668
-0.15893
1.87852
2.66232
0.00142254
2.07238
2.21771
3.17114
-0.00999769
1.57163
0.57107
-0.190991
-0.00118971
2.57143
2.11945
0.804382
2.6213
1.17533
-0.091967
2.04301
0.91991
1.3188
3.11757
0.00411647
1.32783
2.64277
-0.132099
0.807927
-0.0132973
1.754
-0.149579
1.54672
0.836764
1.29128
0.00385317
1.61229
2.62962
2.11484
0.0479046
-0.0295637
2.84948
2.88849
-0.0111785
-0.152497
2.40022
-0.104184
0.245794
2.11848
-0.116745
3.23464
0.0716054
1.65763
-0.0349156
2.64405
2.21766
0.423108
0.26306
0.680945
1.16358
-0.00209331
2.39572
0.562446
1.7452
3.09781
0.386217
0.185914
-0.000858977
1.12
0.869666
-0.089637
2.16037
-8.09787e-05
-0.105228
0.0518826
0.527031
-0.0549006
-0.000848252
-0.0725791
1.38206
0.0875728
0.116974
-0.135551
0.984357
0.757285
-0.109717
-0.217879
0.00265246
0.376845
-0.0940052
0.0441627
0.069696
1.45017
2.09517
0.950125
-0.00215906
2.9136
0.0447196
-0.000327141
0.163347
-0.140318
-0.0450879
2.76826
0.0538851
0.938188
-0.0714926
-0.0853927
2.08538
-0.0438416
-0.0833799
-0.0949548
-0.00110709
0.388175
2.9598
-0.0461642
-0.15345
2.14415
-0.087624
2.10803
1.67679
-0.0136186
-0.00693189
2.25198
3.06266
-0.0782533
1.8758
1.35912
-0.130714
-0.132065
2.39748
0.574006
0.0839558
0.0109605
-0.169337
0.274555
2.86616
1.11007
0.000308029
2.72998
0.0871694
-0.043551
2.34653
0.0593717
-0.0373821
-0.00201505
0.487723
-0.126863
5.76701e-05
1.86881
0.258053
2.40757
-0.00277872
0.000241568
-0.0929347
1.19608e-06
-0.0902257
0.118547
-0.00182184
-0.0262936
-0.209639
2.31514
2.63327
-0.0118099
0.0105815
-0.0950003
2.6448
0.0031518
2.6513
-0.0667157
3.13262
2.11734
1.56508
3.01
0.608939
-0.0369218
0.566
0.0187011
2.6065
2.3831
-0.111409
0.379095
0.708924
0.160661
-0.0366849
0.327141
5.96169e-05
2.32289
-0.217441
-0.068277
-0.0248361
-0.0123413
1.64916
0.989863
-0.022438
0.068182
-0.000118876
3.13889
2.84494
-0.0195606
-0.10104
0.119762
2.37785
-0.20853
1.37022
-0.146259
2.51249
1.57194
-0.130463
3.22416
0.242429
2.47276
-0.0290442
-0.105644
2.76404
0.0332978
3.07411
2.33938
3.16358
-0.0346928
-0.056785
0.00847274
0.650441
0.0537952
0.0227574
2.47499
2.53283
2.09861
2.62559
3.03936
1.82824
2.62734
2.11191
0.0153471
2.2778
-0.087479
-0.140482
-0.0045682
0.13862
0.0812124
1.83935
0.473921
2.41381
0.00549371
0.8189
2.34467
0.022854
0.240709
-0.000104956
0.00117106
1.83174
-0.0715472
-0.119473
0.00134161
0.000117926
0.665737
-0.00203979
1.01415
3.15892
1.91116
1.74883
-0.13098
2.39275
1.16065
0.00714962
-0.0987058
-0.00998815
-0.00216863
0.00596454
-0.0233459
-0.0657935
1.92595
0.652006
-0.21254
-5.66398e-05
2.48879
0.718314
0.482872
0.0412166
1.24155
0.122497
-0.211905
2.34901
2.99861
2.28287
-0.151348
2.2973
-0.142906
-0.0742208
1.95405
0.000302056
-0.0480047
1.60105
1.80206
-0.126099
2.35208
2.78509
2.30044
-0.146773
-0.212576
0.140659
0.948666
2.21859
-0.017502
2.74009
-0.0512201
-0.0936999
0.597776
2.93459
1.94298
2.40501
0.144557
3.1163
-0.120522
-0.0685212
3.20079
0.381791
-0.0381414
2.44821
2.51487
-0.098532
2.20025
2.64673
2.4993
2.37596
2.47205
2.15684
-0.0529914
-0.11685
0.00920921
-0.0973672
2.62454
-0.0921287
1.48884
1.40389
-0.121199
1.02612
1.62532
2.66928
1.006
-0.00164433
0.298526
-0.0797743
0.518125
0.509062
-0.0980726
2.35702
2.70638
0.765043
2.65241
3.07396
-0.019549
0.011978
-0.0136622
-0.105826
2.02128
3.14729
1.13985
2.40031
-0.0730899
2.21271
2.25934
0.298635
-0.162871
-0.205128
1.48946
0.0243667
0.686194
-0.123856
-0.183247
2.41732
-0.0306705
0.0596368
2.52018
0.993364
2.88251
-0.0227268
2.0851
0.491237
-0.0548757
2.73138
2.97603
2.62027
-0.0357294
2.95389
-0.138408
2.69091
0.448212
2.60137
-0.0875153
7.30667e-05
2.60932
2.69967
2.68334
2.61459
1.81856
0.833381
2.05705
-0.0393352
2.61767
2.33808
0.708116
0.490043
-0.0508902
0.625084
2.384
-0.177581
-0.154827
2.68159
2.63305
-0.069722
2.57767
-0.109096
1.20672
-0.0719945
2.66658
2.7029
3.08917
2.6683
-0.0168312
-0.0737054
-0.00517381
-0.0710425
2.87447
1.7077
2.3546
-0.180896
2.11988
0.132293
2.8796
0.185193
2.66247
-0.0659885
2.82928
2.9218
-0.0800918
1.20146
2.82136
-0.0173322
2.98596
0.110729
-0.0215607
-0.167058
2.48106
1.51961
-0.0750318
2.59378
2.95157
2.24404
0.258689
-0.0521576
0.51878
2.62589
2.93714
3.14529
1.65843
-0.000586296
-0.164595
2.37565
0.00579585
-0.0594462
0.00904141
-0.0335414
0.0365272
0.184617
2.75396
0.0469378
-0.00385343
2.29907
1.68532
0.00392587
1.3652
0.00628399
1.4648
2.31154
2.59362
0.124465
1.26776
-0.0259694
0.273151
-0.0185456
2.6479
2.76349
0.186877
0.119621
0.0635707
0.0338234
2.60891
0.0592143
0.111696
-0.033715
0.301353
3.03604
0.025649
0.881701
2.67646
-0.0383941
1.0522
0.0833617
-0.00223162
-0.0179276
-0.00139757
3.01643
2.06774
0.157161
0.755868
2.13466
2.55267
2.3286
0.435248
-0.0888312
-0.0448204
-0.0736317
2.25289
-0.137348
-0.0377072
-0.000887622
-0.110498
-0.00881375
0.0599978
2.50427
-0.0233552
2.64135
2.60133
-0.138989
-0.061734
3.06733
2.17031
0.68423
-0.0673692
2.19657
-0.0502935
1.9859
3.01932
2.07465
-0.126458
-0.0730943
2.44693
-0.118753
-0.0614853
-0.043934
2.79153
-0.092152
0.672668
2.1622
1.89433
2.28479
0.0534859
2.00416
0.0290249
2.6646
-0.0466611
1.59613
0.00283623
-0.0212034
-0.00433114
-0.00965978
0.00369742
2.79934
-0.0322759
2.1002
1.17248
0.210097
0.0309282
1.74901
3.12419
2.84229
0.148221
1.67476
0.104907
1.06686
-0.148729
1.36917
-0.163401
0.00382329
2.21725
-0.0821773
0.0593425
2.77809
2.42932
2.68615
0.267098
0.5532
-0.0435515
1.70293
0.324278
0.000477923
2.85639
1.31109
1.64066
0.780992
-0.000796482
-0.0217637
0.00664837
1.60681
0.000772456
-0.0470935
0.0521714
-0.0683635
2.8873
-3.33503e-05
-0.0612548
-0.198516
3.004
0.0877167
-1.86752e-05
0.101185
1.16904
2.31374
-0.067907
-0.055727
0.0148976
2.34665
-0.067044
1.61183
0.221067
0.152538
0.974291
2.32226
0.895412
1.68137
-0.0198712
2.42652
2.94192
-0.0654052
2.10774
-0.0792545
2.98691
2.91034
0.0429278
1.09923
1.02894
2.06994
-7.77897e-05
2.61282
3.18615
-0.0328409
1.52635
1.92659
0.00253173
0.0027909
-0.0815969
3.1092
-0.0117345
-0.0486599
2.62228
0.0120843
2.0429
2.67651
-0.0857147
2.82568
-0.099092
-0.0613767
2.68326
1.65765
2.28421
-0.0214931
2.69043
1.63258
2.5942
-0.087475
-0.010849
1.52609
2.84412
2.68908
2.85647
2.63819
0.570171
-0.158215
0.791724
2.14379
2.60105
2.96017
-0.118169
1.78883
3.05413
2.49738
0.00283976
-0.174449
-0.0925405
1.41082
0.273318
2.82207
1.64304
2.59327
1.01493
0.30532
2.6069
0.594377
2.16709
0.111514
0.951302
-0.00538204
0.0895878
-0.0661257
2.98141
-0.0671942
-0.081059
0.509408
1.5159
1.06539
-0.0859324
0.729053
0.185477
-0.0333862
2.2369
1.45154
2.37291
0.219809
2.71503
0.0181374
0.00167081
-0.0192755
0.090373
0.0961653
0.149385
0.0272294
1.94256
2.85766
1.52795
0.842854
0.0532315
-0.0634926
2.09068
0.0790586
3.00944
1.9666
0.0534233
-0.0923633
0.465533
0.143428
-0.0360534
0.0405585
0.331555
-0.00868816
1.90372
2.91185
2.73024
1.81771
-0.0285614
-0.105583
-0.012538
-0.0314352
2.25927
-0.0693429
2.20057
0.00703703
-0.0555449
2.8684
2.91019
0.00232954
2.62431
2.71731
1.36646
0.0801556
1.46948
2.24799
2.90601
2.00239
0.0765806
2.8633
0.87585
-0.00447327
-0.0289619
0.0796673
2.94858
0.102035
2.6569
1.97959
2.83091
0.226263
2.04388
2.16548
0.023843
2.69134
0.490032
2.80423
0.00248933
2.04945
2.18149
2.21964
0.00472031
0.723469
-0.0113429
-0.112503
1.91107
-0.056809
2.1057
2.10066
3.0907
0.211467
2.81246
0.16029
0.141848
0.898755
2.61816
1.2014
0.575417
0.814367
2.38247
0.0105534
3.06144
0.0177266
0.446921
1.18818
-0.110166
2.65107
-0.00328206
2.74178
2.33349
1.27298
0.648304
1.4911
0.000747626
0.577443
2.78614
-0.0743059
0.421017
2.01632
1.03235
0.39222
0.674205
-0.0687515
2.91023
-0.0981864
0.869509
0.462428
-0.169097
2.58655
3.13418
-0.137304
-0.0675262
0.0381658
0.979868
0.00336792
1.32941
2.91727
2.83562
0.159909
1.42169
0.000304876
-0.14319
2.44358
0.0703399
1.65517
-0.10669
3.02705
2.41631
-0.0630518
0.0771343
-0.020232
3.05011
-0.111466
-0.00619383
-0.108688
1.333
-0.00113071
-0.106218
1.2729
2.93392
-0.0647072
2.98803
3.1452
-0.0646407
0.388232
0.00207398
-0.0232571
0.198843
-0.0585732
3.0378
-0.0884672
-0.034371
2.19927
-0.0733749
2.35014
-0.053757
0.742723
2.36626
2.21296
-0.0881567
-0.0245617
-0.0731478
2.51021
-0.110598
1.69607
-0.127176
-0.0382999
-0.136483
0.00213938
-0.0158544
-0.0479158
-0.0227418
0.446475
0.0684461
1.20888
-0.0132012
-0.122699
-0.0446718
-0.0855995
0.0473254
2.88284
0.538476
-0.0524856
0.0438945
2.46743
-0.0131414
2.23995
0.393342
0.950002
-0.0636978
2.3444
1.70063
-0.156098
0.0188607
-0.00511903
2.03218
-8.33693e-05
2.20337
2.50308
0.0453753
0.241823
1.22467
1.05611
-0.00612358
1.45612
2.41557
-0.0978865
2.12918
-0.151242
0.239581
2.07462
2.90711
0.510444
0.0210736
2.58368
2.19849
-0.109242
-0.0828694
-0.0793632
0.21909
-0.107612
-0.0428088
2.45224
0.0394696
0.183797
2.45693
0.123649
-0.0937912
1.87058
-0.0270357
1.41073
2.18833
0.518391
2.26291
-0.0501239
2.86621
0.0554537
-0.000315882
-0.000519577
0.862789
0.00125796
-0.0619574
1.44316
0.179916
0.0108261
-0.0420988
-0.0680808
1.67059
2.65728
-0.00512752
-0.0771095
0.12382
2.11852
-0.100582
-0.0739953
-0.117123
0.799863
1.87916
-0.019143
-0.0600287
0.403767
2.33249
2.47359
1.43113
2.22419
2.70514
0.00773329
2.1209
1.05969
0.529993
-0.100368
0.35172
3.20517
0.0593826
0.087976
-0.155172
2.33675
-0.0732592
0.000496996
-0.13493
-0.154762
-0.0262833
2.66272
1.95474
2.19805
2.48108
2.23458
-0.10455
1.28483
1.91194
0.815149
2.60901
1.6366
2.02136
-8.95801e-05
1.97391
-0.0421122
1.6042
2.02878
-0.0573548
0.915776
0.922849
-0.0794161
-0.0494588
0.940824
1.57032
2.95787
1.69097
-6.50236e-05
1.78801
-0.0817129
2.0624
1.71467
-0.0793484
-0.0919209
2.14658
2.63053
1.28143
-0.20929
-0.126207
1.48167
2.13586
-0.152269
2.42534
-0.115654
1.37333
0.440979
2.81723
-0.00447248
0.00946276
-0.0280501
-0.135077
0.37527
-0.117818
2.20148
2.47028
0.0502535
1.82262
0.0573619
-0.0853985
-4.74893e-05
1.6103
-0.00720701
1.93418
-0.000263788
2.16895
-0.192885
2.39056
0.421721
2.5278
-0.164769
-0.0667577
-0.00584767
2.65626
-0.126368
1.07778
1.35945
0.0711776
2.36971
-0.068679
0.0613433
-0.143558
-0.0298285
2.67551
-0.0302898
-0.129822
-0.0918679
-0.00015542
-0.0989819
2.41257
0.00421537
-0.187726
0.0101587
-0.00969858
2.27683
0.462116
0.847065
0.0369772
0.00423098
-0.00643797
0.641191
-0.151389
0.00939455
-0.0749096
1.64455
0.000553105
-0.136862
0.579776
1.35867
2.59271
-0.113444
0.0349765
-0.206657
-0.0259234
2.26968
2.44756
2.70349
-0.000350668
1.53711
-0.141062
-0.140419
1.98231
-0.0798513
-0.0808175
-0.104207
-0.0286438
-0.111094
-0.101432
-0.0933113
0.0119388
0.156525
2.15157
0.0805832
1.76507
0.743438
0.536186
1.52162
1.12637
1.95668
0.296458
2.21686
0.00200139
-0.0308453
2.11168
-0.159769
2.2536
2.17554
-0.0854218
-0.18361
0.000960542
-0.158746
0.79229
-0.122371
-0.127976
-0.130122
-0.112866
-0.188486
-0.104242
-0.0944142
-0.048048
-0.196777
1.95926
-0.176871
-0.0224835
-0.196749
0.0159647
-0.200033
2.43028
2.36403
1.62412
2.76512
0.0469568
0.311526
-0.155992
0.0144411
-0.0183921
-0.00129381
-0.000131849
1.58856
1.30951
-0.00154021
0.132303
0.996651
1.4985
-0.0803502
-0.132358
0.054072
-0.0199665
0.0102944
-0.000730003
-0.194247
-0.0274585
2.90316
0.0182099
-0.0206997
-0.120102
-0.116307
-0.100325
-0.154204
0.0034675
-0.0997884
-0.0795646
-0.182334
-0.0647265
1.17607
-0.104229
1.82747
-0.165137
-0.0237748
0.354173
2.24355
2.32005
1.89961
0.195338
0.155953
0.0619159
0.251385
-0.106483
0.215296
-0.174238
0.183563
-0.0611336
-0.0066566
-0.000280776
0.725456
-0.0505869
-0.00632345
0.0380424
2.95664
-0.118375
-0.0014513
2.83528
2.91067
-0.142824
2.88093
2.76199
2.30312
0.00237732
0.252684
2.92755
-0.00820027
-0.00422799
0.0229174
-0.137232
-0.0589907
0.138894
-0.1285
-0.170669
-0.178129
0.00669238
-0.00254368
-0.0778387
-0.0618406
3.09665
-0.153437
-0.113181
3.10823
-0.037943
3.02547
2.83652
2.16415
-0.122664
3.08098
0.982525
2.52594
0.170966
-0.000284714
0.00567744
0.0590203
0.565669
2.6385
-0.0201819
0.00214417
-0.145399
-0.00192528
0.139633
1.48598
-0.00171139
2.23431
-0.0694714
-0.031889
-0.143759
-0.128447
1.45845
-0.039846
2.86456
0.0100438
2.71741
0.0608128
-0.148673
-0.000529769
-0.221005
-0.0174298
-0.206136
2.48825
2.60912
-0.000466256
2.89287
-0.128406
0.00473359
-0.021161
2.72879
0.00889897
-0.00749394
-0.00359108
0.00558209
0.00184202
-0.00188576
-0.00683933
2.95079
-0.00422408
-0.0230913
0.0502935
2.98445
3.15733
-0.0509636
-0.1483
2.28066
3.12604
-0.135055
-0.1527
-0.000388645
0.260963
2.70361
2.24061
0.00434932
-0.126893
-0.156726
2.76267
-0.0787486
-0.0673034
-0.0760038
-0.0762197
0.0111637
2.35589
-0.00155738
2.79942
-0.0242738
2.95194
-0.00823824
2.8303
-0.117294
0.751039
-0.032094
-0.000292201
0.00548285
-0.0559014
-0.108401
-0.0267887
0.00275528
0.0148643
-0.0261257
-0.145362
0.00266689
-0.101711
-0.0968526
0.00968226
0.894654
-0.000424303
2.23128
-0.159582
0.00281482
0.0224589
-0.0124421
3.01917
-0.0885576
-0.0624009
-0.0618895
-0.178213
-0.137941
2.18214
2.33343
0.050574
-0.108276
0.206994
0.990681
2.79183
-0.191112
2.14377
2.4115
-0.000525882
-0.160706
-0.147758
0.010496
-0.00805816
-0.00852504
0.00774387
-0.0587044
-0.0536713
0.0795878
-0.0596989
0.180925
1.75684
0.0708859
2.2354
1.2888
-0.0854169
-0.000383123
0.00481244
2.63649
-0.00809348
-0.167686
-0.00723489
-0.18676
-0.0852877
1.86719
0.640042
2.93419
0.00168116
0.0038447
-0.177493
1.8569
0.0275984
2.82295
1.31048
-0.152986
-0.103684
-0.0477394
0.117015
2.17137
0.413593
2.6702
-0.196192
-0.00210504
-0.0163887
-0.0805816
0.000955124
-0.00488418
-0.0290629
-0.0711779
0.0694392
-0.175357
-0.00122889
-0.177201
-0.0300612
-3.77137e-05
-0.00164038
0.0274598
0.00386382
-0.00296719
-0.0187461
0.310499
0.00639541
0.614189
-0.0965107
2.26751
-0.154307
-0.0499717
-0.000327659
-0.0528754
-0.136816
0.0309441
-0.0500076
-0.000144791
-0.0447195
-0.00171918
-0.0125085
0.834021
1.17288
-0.0940211
0.00161852
0.537555
0.077387
2.40061
2.01119
2.33757
-0.0169318
-0.0354174
-0.00551794
-0.0530743
2.70564
2.18571
-0.0156666
-0.0137176
1.73944
2.17979
2.90001
0.000747056
-0.0276454
-0.0605115
-0.000471678
0.00059296
-0.00132187
0.00645287
-0.0157942
2.26305
0.0186365
0.000187522
0.0638904
0.00553818
0.818246
0.0395351
1.9074
0.00717672
1.22571
-0.144647
-0.200878
1.52554
1.33968
0.00130184
1.48421
2.78977
-0.167833
2.31922
-0.208247
-0.0480251
2.45481
-0.00956497
2.26239
-0.0212934
0.217012
0.0421754
-0.0561987
-0.107553
0.0044249
-0.00252831
0.287382
-6.03966e-05
-0.0870165
-0.183342
2.81918
0.156201
0.0243983
2.22755
-0.000114626
0.0027829
0.10861
-0.00684188
2.76674
-0.0161042
0.0034979
-0.111643
1.086
-0.0592546
0.0079378
-0.00280292
1.04885
0.065475
0.00219826
2.598
2.97609
0.00747727
0.523052
-0.000504838
2.35155
-0.00408809
-0.0256253
-0.00120851
-5.37118e-05
0.0310266
0.0278005
0.00672755
-0.0189118
-0.00587249
0.103232
-0.00228894
-0.00301359
0.0736578
2.47658
2.569
0.0950173
2.20808
0.818979
-0.000499886
2.1942
-0.0239363
0.0113928
0.0286517
0.564096
-0.00300997
0.307534
-0.0120325
-0.00670885
1.5923
-0.115679
-0.0902206
1.38858
1.89655
1.26305
0.000123566
-1.65623e-05
-0.117887
1.80657
-0.0312507
-0.117892
-0.00377648
2.17632
0.317101
2.4752
2.02838
-0.107595
1.32961
-0.00771847
2.24969
0.744606
-0.150295
-0.00214066
0.00705514
-0.101801
-0.117893
-0.0875854
-0.136546
1.12329
-0.0670977
1.78604
0.00108546
0.0311963
-0.00655209
1.1469
0.269767
0.0275249
-0.000261654
0.237086
1.71676
-0.164858
0.207704
0.182701
0.836332
0.160784
-0.00365453
0.00392907
2.40615
2.53604
2.62842
0.00125858
2.54807
2.36987
2.55657
-0.0228918
-0.00344935
0.00171795
1.89313
2.05743
-0.0616688
-0.184654
-0.186602
-0.072351
0.931644
-0.105439
-0.0583587
2.12991
0.00973165
-0.0909766
-0.00100506
-0.121509
2.56415
-0.0806173
0.00033551
-6.12877e-05
2.72299
2.36637
0.667479
1.74677
-0.0978648
0.600991
-0.113973
0.534632
0.473253
0.42362
1.68285
-0.132282
1.20487
-0.000265439
2.5057
-0.0096816
-0.0244888
2.33044
0.169548
-0.0670203
-0.207463
0.620527
1.27878
0.0839188
-0.00207157
2.13776
0.00323625
-0.0739773
0.751749
-0.00252455
-0.0392542
0.00897672
-0.195203
-0.170356
0.674147
-0.00459153
0.601387
-0.0512199
0.53514
0.473669
-0.0722819
-0.120684
0.4187
-0.17376
-0.109457
-0.094003
1.8997
-0.126336
-0.0561774
-0.00135061
-0.136135
-0.181471
-0.00163116
1.96691
2.45996
-0.163601
-0.132814
-0.0865521
-0.0644927
-0.00311803
0.00128386
-0.0244819
0.465003
-0.00211808
0.134349
-0.181309
-0.180312
0.00620623
-0.00174998
1.88544
-0.0279822
1.12299
1.99066
0.0259889
-0.188572
-0.175157
-0.00151084
1.04517
-0.195946
-0.1923
0.965686
1.49144
-1.50418e-06
0.887642
1.51707
-0.00245928
1.18155
-0.0811151
0.11956
2.12845
-0.0337016
0.00116414
0.00042265
2.09235
0.254891
-0.0708566
-0.197438
-0.0960573
-0.0611666
-0.0451468
-0.165546
1.08472
2.66244
2.88902
2.29739
-0.00172516
1.86965
0.995514
-0.0988589
-0.202784
1.82193
-0.185575
0.217011
-0.00342895
-0.172656
2.24779
-0.00102955
-0.0563021
-0.0598753
0.309383
0.00407764
2.32955
-0.186946
2.29614
-0.122981
-0.154869
0.0734561
-0.00692755
2.07122
-0.0796789
-0.0591881
-0.000196931
0.136223
0.360299
1.41306
-0.0542617
0.000222955
1.42477
-0.000269999
1.73795
1.33436
0.00272369
1.73451
-0.0680155
-0.0014285
-0.0737974
-0.00383544
0.00544346
0.0171024
2.03448
-0.0923445
0.00685669
-0.0757519
-0.0929119
2.00819
2.56019
0.00214544
-0.0617602
-0.0418918
-0.0623712
2.14984
0.185387
0.00342316
1.6524
1.43731
2.27772
-0.0392736
0.00524506
1.86202
0.00563516
-0.201411
0.195939
2.71864
-0.057304
-0.0848059
0.00431245
-0.0347758
2.70275
-0.164053
2.95853
1.2933
-0.0589437
-0.00557566
-0.0588161
0.0661106
0.00118111
-0.0697905
2.66774
3.42416e-05
-0.0260017
2.68747
-0.0031162
-0.0663817
0.00137713
-0.011272
0.00135289
0.437208
0.0383147
-0.0114934
0.00848206
-0.00504627
0.00077562
0.000847553
-0.00100483
-0.0409685
0.00101316
-0.00777261
0.122177
-0.0416619
2.93902
0.488973
-0.010091
-0.033782
5.93034e-05
-0.0833803
0.000700281
1.00051
2.25239
-0.0139712
-0.00522906
-0.0199885
0.827853
0.0115229
3.05696
0.0128699
-0.010654
1.69913
0.0863672
0.000944193
-0.134448
2.21852
-0.00465662
2.20447
2.24617
-0.0987259
-0.131883
2.5081
-0.0826735
-0.0141164
-0.167398
2.0041
1.01418
-0.104846
-0.00236681
2.59772
-0.00661591
0.162136
-0.0375427
-0.018596
2.83426
0.00591123
0.000380522
-0.124506
1.61951
2.97816
2.19846
3.15559
-0.0313567
2.81116
-0.00321816
1.88746
-0.023782
-0.00612112
1.33288
-0.0604575
0.957145
0.000410607
-0.192592
2.997
-0.0733738
0.350829
0.012473
-0.00913485
1.55841
0.0158293
-0.157358
0.000862832
-0.0375492
-0.00146683
3.07419
-0.102628
-0.147575
0.781849
0.159959
1.25152
2.21388
0.00160139
0.317293
1.46488
2.32869
3.08687
-0.000236374
0.251277
0.187368
-0.0123085
1.58672
1.71343
0.216005
2.73051
1.07705
1.4984
-0.0822067
2.13152
-0.190221
0.000976172
0.000457055
0.000797046
-0.00343211
0.00896608
-0.138011
0.000407175
0.00605131
0.0607914
-0.000983946
1.78199
0.0269349
-0.000180271
2.95886
0.00270227
-0.00139522
2.56796
3.0733
-0.203678
-0.0214435
2.49002
-0.0539917
2.8262
0.690487
-0.00264085
-0.0927847
-0.00740853
0.0186473
0.00467911
2.30504
3.7056e-05
0.00185289
2.70424
-0.00421397
0.01525
-0.0617669
-0.132386
-0.172256
0.000998036
0.901499
-0.19053
0.000905502
-0.153423
-0.0126481
1.79055
-0.000923632
-0.000924035
-0.0117341
2.6828
-0.05273
-0.0321696
-0.00897558
0.0141371
2.5885
0.0873821
1.22099
2.49912
-0.00582916
2.84171
2.43445
-0.0605449
-0.0917732
0.00251308
-0.116533
2.81861
0.0227162
-0.00510152
0.000571372
-0.189058
-0.0394663
-0.00606669
0.00167551
2.84057
0.000420902
2.29149
-0.0306239
-0.105244
0.000678543
0.0466595
0.00392242
2.54448
2.58042
1.51915
-0.00458233
-0.173415
-0.037575
1.24456
1.00189
1.73958
-0.116542
-0.0545166
-0.229682
-0.00287262
-0.00388942
-0.00715271
-0.00734082
-0.00526907
-0.00618807
-0.0130777
-0.0356488
-0.20503
-0.0116346
-0.0151733
-0.201909
-0.0019925
-0.00858968
0.000161532
3.21521
0.862085
-0.010854
0.0277373
-0.00978593
0.000109093
-0.00235318
-0.0199143
-0.0172896
-0.161629
0.000374182
-0.229023
-0.00342056
-0.00838433
0.000729624
-0.175031
-0.0998883
-0.0226167
2.65286
-0.0104808
2.24987
-0.129888
2.73938
-0.229452
-0.228183
-0.225825
-0.222655
-0.218173
-0.214346
-0.208723
-0.00168125
-0.203024
-0.195966
2.56397
-0.183003
0.246316
-0.157703
-0.00279148
0.000316086
-0.095246
0.000596259
-0.0134902
-0.000705856
-0.0118963
0.41928
-0.00983363
1.72476
2.33984
-0.0471796
0.0118607
-0.195768
0.033338
-0.0286179
-0.0410682
-0.15413
-0.00210234
2.99286
-0.0918847
-0.0907336
-0.0151338
-0.0114328
-0.0252298
-0.0204896
-0.231989
-0.0323093
-0.0135056
-0.0809588
0.763347
0.000421342
-0.00139719
-0.0164611
0.1976
-0.0155871
-0.0233695
-0.0179075
0.00066889
0.00200864
0.00314185
0.00211465
-0.0116469
-0.026592
-0.0279186
2.53146
-0.00625335
-0.0207169
-0.0131227
0.00781489
0.0013327
0.00189988
2.05423
-0.0180812
2.4559
-0.0340189
-0.00737584
0.000597457
2.20238
0.0613362
0.00197257
-0.00114077
-0.00110541
-0.0660398
-0.0301343
0.810085
-0.00118491
0.000827396
-0.00527388
-0.0152074
-0.00867291
-0.0382875
0.0150569
-0.0659144
2.49403
-0.174465
-0.0765618
-0.00365237
-0.00085711
-0.177673
0.000226734
0.124711
-0.0343754
-0.0384975
0.0032062
-0.0284727
-0.0538271
-0.076158
-0.00440983
0.000559885
-0.124557
-0.00364796
-0.0430718
-0.0475368
-0.0429361
-0.000757445
2.84253
-0.00301105
3.16383
-0.0495492
-0.0526883
0.056779
0.000435937
0.000220164
0.459548
0.00214387
0.126548
-0.00189186
0.647589
-0.0482068
-0.00135096
-0.000771056
0.0219267
2.80429
-0.00160705
-0.091573
0.0471939
2.48374
-0.120145
-0.0408509
0.000304744
0.340747
-0.0781381
-0.0254226
0.0329293
0.00160088
0.074938
2.97637
-0.0444089
0.00737035
-0.0676072
-0.00114535
2.26357
2.46752
-0.000552245
-0.0135608
2.13866
-0.00135156
-0.0362659
-0.000897028
-0.00221827
-0.0621796
-0.143032
0.0476487
0.34341
-0.00364662
-0.000228134
-0.00111378
0.0273875
0.0236446
1.76489
-0.0772875
-0.000704745
2.40641
0.013803
-0.00826179
-0.176324
-0.0581215
-0.00427032
-0.000937552
0.0649002
-0.0116147
-0.0550748
-7.48414e-05
-0.00317051
1.73097
-0.0397072
2.15982
2.72321
0.0411916
0.0204036
-0.11567
-0.0437181
2.95035
0.0825981
-0.0156502
0.000305681
2.35096
2.87091
1.82871
0.79242
-0.164149
-0.000552226
-0.183988
-0.00268459
0.00634255
-0.0856055
2.15194
-0.103507
-0.00125023
0.015149
-0.00489493
0.890175
2.23559
-0.00454731
-0.17913
-0.00578672
-0.00795314
-0.0100173
2.83378
0.0228971
-0.0063163
-0.00306506
-0.029942
-0.102
0.87645
-0.0255279
0.01428
-0.0191815
-0.00125025
0.0818059
2.25957
-0.225037
-0.00907257
0.0989032
2.20737
-0.00692575
1.13019
2.522
0.00543688
0.000149462
1.24844
2.14532
1.32739
1.91829
-0.142886
-0.0103185
0.00240584
2.15155
-0.145472
0.0124253
-0.109975
-0.0632122
0.0481485
-0.163672
-0.00800266
0.0025429
2.08325
0.018463
-0.173845
2.57373
-0.0935753
2.46907
-9.75911e-05
-0.169813
2.38004
2.98013
0.109278
-0.0218913
-0.057016
-0.00561013
-0.0096972
2.46043
0.0764726
-0.126722
-0.00896113
-0.00663413
-0.0110398
0.0224615
-0.00393182
1.93061
-0.00324019
0.0963052
-0.013604
-0.0316879
-0.0052672
1.59477
2.34184
-0.224869
-0.223613
-0.220934
-0.00471817
0.0292111
-0.00265144
-0.216426
-0.212902
1.59461
2.31914
-0.208204
1.56302
-0.0885006
0.0621177
-0.0792137
-0.20263
1.97775
1.52954
-0.196631
-0.0531269
2.34291
1.99019
-0.0105506
0.000762799
-0.00985091
2.79316
-0.00190701
0.000582131
-0.0155
-0.0123255
-0.007811
0.0150395
-0.0142532
0.0708649
1.09224
-0.0674573
0.000554074
-0.139767
-0.137001
-0.0910261
-0.132374
-0.227306
-0.0105992
-0.0198087
-0.0177043
-0.0177036
2.39879
-0.0164625
-0.0202988
0.301279
0.000301283
2.74959
2.33868
-0.129792
-0.0187951
-0.0025142
-0.0214607
-0.000678713
2.27823
0.626286
-0.00653664
0.265557
-0.00145792
0.23382
-0.00731432
0.205777
0.181159
2.6156
-0.0891625
-0.00158607
-0.0123252
0.0273306
1.55423
2.1123
-0.179223
2.09727
2.85997
0.00421992
-0.0527132
2.03355
-0.0244659
0.718577
2.75792
2.01904
-0.0675286
2.0383
-0.0228409
-0.0488744
-0.00860753
-0.0101491
-0.176586
-0.000267502
0.647172
0.581196
0.519289
0.460814
-0.0894568
0.805317
0.00303106
-0.01343
1.76906
-0.05569
-0.00075797
-0.0156907
-0.0277614
-0.167485
-0.000899499
-0.0744886
0.188378
3.13587
0.724706
2.30869
0.975927
3.26592
0.650641
0.580741
2.66171
2.7248
-0.0828747
1.70861
-0.000910833
0.419202
0.517035
-0.0313858
0.45872
0.0749738
-0.124581
-0.0146001
-0.0255433
-0.0354043
0.0100902
-0.0289157
2.28707
0.084833
0.0392181
0.00690652
-0.155297
0.033233
2.52637
-0.00354331
2.16824
-0.0545082
-0.106217
1.16852
1.23417
-0.0901993
-0.219954
0.0186249
2.25892
1.85586
1.85505
0.142023
0.00422908
1.08947
1.01214
0.0164238
-0.00186793
-0.00917172
-0.0362415
0.934487
0.0157748
1.55833
-0.039802
2.42735
2.30744
-0.000722808
2.29468
-0.000684336
2.69392
2.60722
-0.0204753
1.13913
-0.183704
0.0331493
3.25527
0.0173991
-0.071203
0.973739
-0.000625385
-0.0402987
1.96899
2.30103
-0.0362326
-0.123135
1.04777
-0.00999279
1.77573
2.02989
-0.0448537
0.325602
-0.00571468
-0.0499065
0.00148281
0.00213092
-0.0118646
-0.0325103
0.216519
-0.0447473
1.21938
-0.00354929
-0.0742946
0.16065
1.47301
-0.212425
0.0240822
1.99199
0.0147823
-6.14388e-05
-0.0178497
-0.0160151
-0.172777
-0.0760637
-0.0499691
0.0179801
1.69352
1.45262
0.726006
-0.0642295
2.37476
-0.0549656
-0.0470322
1.48525
3.2471
2.30913
0.0252473
-0.141712
0.0568864
-0.0965395
-0.0737153
1.37645
3.20245
-0.0644729
-0.105513
1.19877
-0.000672989
-0.0453339
0.00215697
-0.0265882
2.48746
1.60344
0.000782498
2.27879
-0.147214
-0.00437272
-0.103537
-0.03411
-0.00200711
-0.0356443
-0.0928252
-0.0339849
1.65407
3.12231
2.46293
0.166469
0.340206
3.15374
2.57839
3.09825
0.00157388
-0.0817422
-0.0187409
3.18816
3.06418
1.08829
2.05634
0.111658
3.02892
0.361793
0.016703
0.794471
2.99177
-0.0442347
-0.0638341
1.74845
2.9585
2.33985
1.96529
0.490452
2.92075
-0.00432718
-0.193994
2.91222
0.0042891
-0.0504288
0.109348
2.88405
-0.00951587
2.36205
2.84704
-0.000108553
0.384972
-0.0364867
-0.00822606
0.0197085
2.27698
2.7834
0.554131
2.30724
1.55918
-0.167771
-0.000814668
-0.00110774
-0.0973279
0.000192426
1.85326
0.0481831
-0.0259431
-0.0880439
0.884173
0.0542008
-0.132553
-0.0269873
2.42487
-0.127716
0.168753
-0.122789
-0.104225
1.26403
-0.121533
2.16638
2.36227
2.47412