/*--------------------------------*- C++ -*----------------------------------*\
  =========                 |
  \\      /  F ield         | OpenFOAM: The Open Source CFD Toolbox
   \\    /   O peration     | Website:  https://openfoam.org
    \\  /    A nd           | Version:  7
     \\/     M anipulation  |
\*---------------------------------------------------------------------------*/
FoamFile
{
    version     2.0;
    format      ascii;
    class       volVectorField;
    location    "26";
    object      U;
}
// * * * * * * * * * * * * * * * * * * * * * * * * * * * * * * * * * * * * * //

dimensions      [0 1 -1 0 0 0 0];

internalField   nonuniform List<vector> 
7724
(
(1.24893 0.169254 3.35333e-21)
(1.06805 -0.0651716 -7.59974e-23)
(1.03159 0.238919 -1.60904e-20)
(1.08918 0.110138 2.00004e-20)
(0.998888 -0.00136791 -3.29689e-23)
(0.999946 -1.26462e-05 -3.06175e-24)
(1.00543 0.194828 -3.43359e-20)
(0.992835 -0.00257827 -6.72737e-24)
(0.999839 -0.000252684 -5.52444e-24)
(1.03659 0.00112436 -9.33481e-22)
(0.99995 -1.51406e-05 3.37815e-24)
(1.00304 -0.00172457 -1.38817e-22)
(0.989051 -0.00325336 3.39516e-22)
(1.02878 -0.00287621 -5.6899e-21)
(1.03567 0.00182424 3.96174e-21)
(0.988079 -0.0206841 -6.98189e-22)
(1.26307 0.173292 -6.99706e-21)
(0.98528 -0.00416606 -1.17798e-22)
(1.00312 -0.0132369 -3.78077e-23)
(0.97135 -0.127234 -6.07839e-22)
(1.05135 -0.0101648 -1.87372e-21)
(1.00201 -0.00103415 2.62699e-22)
(1.02586 -0.00495006 4.80788e-22)
(1.02013 0.0517314 -1.10898e-20)
(0.980409 -0.005214 -5.33841e-22)
(1.23979 0.178471 -4.09106e-21)
(0.998943 -0.00129968 -2.30546e-23)
(1.03438 -0.00329032 2.27176e-21)
(1.00845 0.0244244 -1.38412e-21)
(1.00506 -0.0141243 3.01602e-23)
(0.981635 -0.0217453 -1.23101e-21)
(0.708055 0.0902666 6.01298e-21)
(1.02554 -0.0060458 2.96494e-21)
(0.99936 -0.00054605 4.03888e-23)
(0.99986 -9.06799e-06 7.49323e-26)
(1.03565 -6.6949e-05 1.37275e-21)
(1.00578 -0.0154866 3.79067e-23)
(1.01487 0.18561 -5.42357e-21)
(0.994937 -0.0109673 5.68379e-22)
(0.999552 -8.06205e-05 3.84855e-23)
(0.995498 -0.0112959 -6.39507e-23)
(0.988261 -0.0194029 -2.53703e-22)
(1.004 -0.140118 2.92337e-21)
(1.17544 -0.102468 8.93682e-22)
(0.999732 -1.6755e-05 1.21737e-23)
(0.999893 -2.15272e-05 -3.30176e-24)
(1.00191 -0.000839912 -1.60368e-22)
(0.994697 -0.0100409 -3.37057e-22)
(0.99991 -4.08176e-05 -2.6133e-24)
(0.976623 -0.128178 8.87494e-22)
(1.00444 -0.0015165 1.49882e-22)
(1.03386 -0.00194434 -2.35507e-21)
(0.974462 -0.00623764 -1.79585e-21)
(1.01409 -0.042913 3.44534e-23)
(1.03637 -0.00122382 -7.89037e-22)
(0.993714 -0.00355326 -6.24216e-23)
(1.00302 -0.0123026 8.45393e-23)
(0.992783 -0.00223348 4.6305e-22)
(0.968862 -0.0260488 -2.1733e-21)
(0.999335 -0.000485837 -5.18245e-23)
(1.00006 -3.19122e-05 -6.85729e-24)
(1.00582 -0.00165534 1.67231e-22)
(1.02908 -0.00183716 -1.34768e-21)
(1.00328 -0.00149952 1.40564e-22)
(0.998714 -0.000263446 7.47527e-23)
(0.982428 -0.0225751 2.07981e-22)
(0.999872 -0.00025234 4.12553e-24)
(1.00002 -3.46557e-06 4.86803e-25)
(1.24162 0.00592318 4.73164e-22)
(0.994954 -0.00951604 -1.03234e-22)
(0.9999 -2.65606e-05 2.92285e-24)
(0.958792 -0.076581 -4.22017e-21)
(0.98125 -0.00578927 2.61279e-22)
(0.964704 -0.00775761 3.51578e-22)
(0.985934 -0.0046024 3.69741e-22)
(0.952026 -0.0372863 -4.69371e-22)
(1.04319 0.238591 2.58929e-20)
(1.04862 -0.00968208 2.39912e-21)
(1.12177 -0.0230433 -2.74198e-21)
(0.937791 -0.0627787 -5.12901e-21)
(0.989571 -0.00360073 -5.21162e-22)
(1.00407 0.112342 3.41894e-20)
(1.06193 0.00400903 5.65759e-21)
(0.964039 -0.0137158 1.62196e-21)
(0.998164 -0.00344727 -5.38832e-23)
(0.996986 -0.000438679 5.6053e-23)
(0.992354 -0.00339789 6.38223e-22)
(0.975457 -0.00697922 1.15489e-21)
(0.999144 -0.00161182 3.51738e-23)
(0.993991 -0.000917008 1.99207e-22)
(1.00905 0.0278704 1.03399e-20)
(1.21295 -0.100597 -1.59739e-21)
(0.99982 -7.3956e-05 -7.17328e-24)
(1.00246 -0.0104325 3.65184e-23)
(0.995243 -0.00140926 1.80523e-22)
(0.964285 -0.00430673 -2.81658e-21)
(0.961943 -0.0761569 2.9181e-22)
(1.01657 -0.0415355 1.4415e-22)
(0.997969 -0.00332369 1.80155e-23)
(0.998467 -0.000264019 2.5023e-23)
(0.932066 -0.0225644 1.19237e-21)
(1.12517 -0.0170969 2.38491e-21)
(0.995511 -0.00160234 -4.49668e-22)
(0.999965 -1.75102e-06 -2.57592e-25)
(1.22105 -0.0909099 -1.26986e-21)
(1.05497 0.0463989 -9.53124e-21)
(0.858074 0.0651223 6.67972e-21)
(0.993293 -0.00335554 -2.59856e-22)
(0.999989 -3.355e-06 2.28725e-26)
(1.03501 -0.0213944 -9.4878e-22)
(1.09198 0.101996 -2.32211e-20)
(1.02699 -0.107787 -3.68798e-21)
(0.999986 -3.98527e-06 -5.80262e-26)
(1.03739 -0.0223609 -2.0504e-22)
(1.04873 0.0448918 1.00316e-20)
(1.00058 -0.00078432 -1.26076e-23)
(1.07986 -0.132776 -2.60324e-22)
(1.05032 0.0242445 -2.26819e-21)
(0.975397 -0.0613793 1.8559e-21)
(0.964284 -0.00942988 -3.69136e-22)
(0.92757 -0.0147733 -2.86565e-21)
(1.00302 0.0557882 -2.23781e-20)
(1.01169 -0.138916 -4.01919e-21)
(1.01338 -0.0113034 8.11102e-23)
(0.930012 -0.0169006 1.12907e-21)
(0.998748 -0.00187432 7.83749e-23)
(0.983351 -0.0165177 4.15518e-22)
(1.00383 -0.0117289 -5.77086e-23)
(0.998644 -0.000193977 -1.66688e-22)
(0.98179 -0.0200567 2.25086e-23)
(1.23853 -0.129157 -9.24675e-22)
(1.11327 -0.0231136 4.88448e-22)
(0.999205 -0.00074426 4.41812e-24)
(0.998999 -0.0016498 -6.81194e-23)
(0.962349 -0.0125384 4.81882e-22)
(1.08339 0.0917934 8.43007e-21)
(0.99319 0.0507296 4.24522e-20)
(0.999968 -3.33473e-06 -3.01356e-25)
(1.01005 -0.00442653 7.02347e-23)
(0.901747 -0.0183759 -3.56327e-21)
(0.96695 -0.005619 -1.43714e-21)
(0.980902 -0.0846458 -2.83674e-21)
(0.952644 -0.0401364 6.36463e-22)
(0.966697 -0.00699327 -3.11709e-23)
(0.84196 0.0510042 2.65034e-20)
(1.01421 -0.0648702 -1.10241e-22)
(1.01864 0.029968 -5.21619e-21)
(0.971893 -0.0311245 -1.1428e-21)
(0.950854 -0.00740574 3.94006e-22)
(1.00354 0.0855198 -1.10353e-20)
(1.03606 0.000708415 3.41208e-21)
(1.19886 -0.0975395 -1.24364e-22)
(0.99805 -0.00274955 -1.87738e-22)
(1.23988 -0.00479211 -2.83692e-22)
(1.05874 0.00398531 -5.94391e-21)
(1.04399 0.184664 -2.58744e-20)
(0.94482 -0.0435937 1.95133e-21)
(0.989047 -0.00251362 1.15831e-22)
(0.886359 0.175508 5.67568e-20)
(0.999917 -3.47747e-05 -2.41382e-24)
(1.00181 -0.0110127 -1.8233e-23)
(1.02078 0.0574314 8.05071e-21)
(0.999971 -2.6897e-05 1.25628e-24)
(0.997653 -0.0070043 -2.67247e-22)
(0.994622 -0.001363 -8.64141e-23)
(1.00724 0.0657765 -2.69797e-21)
(1.0038 0.0468676 1.0181e-20)
(0.867074 0.195038 1.88581e-20)
(0.997263 -0.00677676 -1.65726e-22)
(0.995849 -0.000518987 -9.84057e-23)
(1.00002 -4.34931e-06 -4.61506e-25)
(0.923217 -0.00897985 -4.90323e-21)
(1.00056 -0.000699534 1.73986e-23)
(1.07128 -0.0605335 7.24431e-23)
(1.01048 -0.00480254 4.67626e-22)
(0.952028 -0.00877936 8.14594e-22)
(1.21665 -0.0766898 -1.6065e-21)
(1.20037 0.0508538 2.61534e-23)
(0.999823 -9.11967e-05 3.88701e-24)
(0.999335 -0.000855263 -4.6294e-23)
(1.09578 0.116416 -3.46861e-21)
(0.999917 -2.45658e-05 -1.18742e-24)
(0.99985 -1.71981e-05 1.85065e-24)
(1.00994 0.208693 -2.77783e-20)
(1.06981 -0.0701068 -4.82815e-22)
(1.01096 -0.090608 -1.95381e-21)
(0.978076 -0.0596105 -2.6355e-21)
(0.967859 -0.0100782 1.05986e-21)
(1.01008 -0.0663117 2.09563e-22)
(0.904079 -0.0155418 1.87862e-21)
(0.999968 -2.45006e-05 -4.76535e-25)
(0.962944 -0.0714996 -1.02088e-21)
(1.2116 0.0564925 -2.85996e-21)
(0.995491 -0.00195261 6.45941e-23)
(1.0001 -9.32314e-06 -4.68028e-24)
(1.1683 0.0865904 4.21391e-22)
(0.998339 -0.000535679 1.76887e-22)
(0.982947 -0.0192968 6.63372e-22)
(1.00653 -0.0626356 6.7533e-22)
(1.00002 -2.95914e-06 -1.95348e-25)
(1.0012 -0.00270665 -6.961e-23)
(1.07629 0.093421 1.0858e-20)
(1.20448 0.0791056 -4.78812e-21)
(1.02654 0.163902 -3.50448e-21)
(1.07649 -0.124492 1.86112e-21)
(1.03227 -0.1037 8.25085e-22)
(1.12577 -0.176229 -7.30896e-22)
(1.03526 -0.00341689 6.77691e-21)
(1.06829 0.0877633 -3.62182e-21)
(0.999714 -3.03652e-05 -1.43491e-23)
(1.00005 -2.83922e-05 1.84147e-24)
(0.894317 0.0267038 -2.55231e-20)
(0.989891 -0.0186067 -2.4065e-22)
(0.999172 -0.000662707 -4.40076e-23)
(0.966017 -0.0704663 2.11401e-21)
(0.982558 -0.0174144 -4.86697e-22)
(1.06053 0.161666 -2.77793e-20)
(1.05054 0.159072 -5.94995e-21)
(0.977176 -0.0865248 7.68869e-22)
(0.76671 0.128916 -2.26064e-20)
(0.99846 -0.00060595 -1.30142e-22)
(0.985337 -0.00360334 4.21979e-22)
(0.929461 -0.0205804 1.56236e-21)
(1.04987 -0.00300504 -1.38464e-21)
(1.00709 -0.171999 -3.68377e-22)
(1.27155 0.122637 -5.14303e-21)
(0.88532 0.153005 -4.85818e-20)
(1.00009 -0.000148953 5.43146e-24)
(1.01337 -0.0103979 2.313e-22)
(1.04777 0.0288217 1.23372e-20)
(0.994858 -0.00825437 -4.27954e-22)
(1.05461 0.023769 -1.53312e-21)
(0.999292 -0.00175435 -1.0971e-23)
(0.807522 0.222947 3.8839e-20)
(1.04025 0.169034 5.93237e-21)
(0.992348 -0.00293541 4.05086e-22)
(1.00494 -0.0118295 -1.01672e-23)
(0.99958 -9.13187e-05 -7.13807e-23)
(1.25979 0.0481447 8.38245e-22)
(0.99987 -1.44259e-05 5.45555e-24)
(0.992895 -0.01513 2.07225e-22)
(0.914635 -0.040537 2.15841e-21)
(0.9999 -3.60431e-05 -1.20827e-24)
(0.998309 -0.00402628 -4.52488e-23)
(0.999446 -0.00170301 2.05116e-23)
(1.12854 0.0497126 7.23517e-21)
(0.999972 -3.48116e-05 1.4515e-24)
(0.993736 -0.000704685 2.21948e-25)
(0.941005 -0.0623957 5.94992e-21)
(0.712215 0.0675916 -1.33059e-20)
(1.11 -0.0287827 -7.01311e-22)
(0.837586 0.14754 2.99661e-20)
(0.999937 -1.11151e-05 -2.88112e-24)
(1.00322 -0.0634727 -4.1197e-23)
(0.999748 -0.000436116 -1.54306e-23)
(1.03388 0.193443 -2.65148e-20)
(1.00542 -0.00112299 -2.15711e-22)
(0.989932 0.071071 1.36247e-20)
(1.00379 -0.0141801 -1.58637e-22)
(1.00107 -0.0029065 7.45119e-23)
(1.03913 -0.0510173 -1.20517e-22)
(1.03528 -0.00186549 -6.27661e-21)
(1.00079 -0.000469032 3.58976e-23)
(0.999688 -7.58042e-05 3.44367e-25)
(1.00069 -0.000632257 8.07914e-23)
(0.994589 -0.00875647 -3.84044e-22)
(1.01978 -0.0948528 2.33804e-21)
(0.99994 -1.4929e-05 1.94973e-24)
(0.947027 -0.0418126 1.38069e-21)
(0.994897 -0.00156417 -1.64482e-23)
(0.999804 -6.34799e-05 7.63087e-24)
(0.999148 -0.000824419 1.43202e-23)
(0.983121 0.12098 3.26925e-20)
(0.988999 -0.00117292 1.66565e-22)
(0.998953 -0.000147004 -1.49873e-23)
(0.784093 0.0306065 5.06979e-20)
(0.998097 -0.0038684 -1.03069e-22)
(1.17359 0.142337 -6.35685e-21)
(0.999719 -0.000402666 2.84862e-23)
(1.01048 -0.0322586 -2.42506e-23)
(1.00002 -2.40821e-06 -1.68198e-25)
(0.97503 -0.049808 -1.03582e-21)
(1.04864 -0.00324762 2.16246e-21)
(1.22292 -0.069483 3.22478e-21)
(0.96919 -0.0280359 1.8461e-21)
(0.999441 -0.000864275 5.32891e-23)
(0.970246 -0.109246 1.336e-21)
(0.977033 -0.000680381 7.59903e-22)
(0.999751 -2.7042e-05 7.13643e-25)
(1.00067 -0.000553149 -7.14874e-23)
(0.997177 -0.00503067 1.43188e-22)
(0.989519 -0.00210349 -4.9978e-22)
(1.00417 -0.00135586 -2.55766e-22)
(0.998329 -0.0027693 6.8189e-23)
(0.965864 -0.012822 2.55602e-22)
(1.02594 -0.0924516 -1.68811e-21)
(0.966039 -0.0107739 1.12837e-21)
(1.17213 -0.0911316 -2.32811e-22)
(0.954953 -0.0119153 -1.42602e-21)
(1.08882 0.213043 2.76709e-21)
(1.08129 0.223122 -1.99876e-20)
(0.997936 -0.00110389 -1.13891e-22)
(1.24168 -0.0820621 -6.70209e-21)
(0.999977 -4.58514e-06 -1.59906e-25)
(0.997113 -0.00623307 -1.76013e-22)
(0.963354 -0.00300544 2.87513e-21)
(1.01486 0.046228 6.65754e-21)
(1.06535 0.011027 -5.64488e-21)
(1.00014 -4.755e-05 1.05708e-23)
(0.997296 -0.00587631 -1.14286e-23)
(0.956537 -0.0131951 1.07507e-21)
(1.09967 0.0515297 -3.32848e-21)
(0.998645 -0.00172571 5.8902e-23)
(1.00471 -0.00110819 1.44665e-22)
(1.00172 -0.00142952 -1.29626e-23)
(1.18626 -0.0227206 5.29997e-22)
(1.23458 -0.140122 -5.37748e-21)
(1.16754 0.234259 1.02356e-20)
(0.997804 -0.000357985 -1.10841e-22)
(1.08196 -0.0701029 6.8673e-22)
(0.999843 -9.77704e-05 -6.14405e-24)
(1.00667 -0.0105103 -4.82246e-22)
(0.999925 -1.96586e-05 -8.31872e-25)
(0.979425 -0.0302006 3.28634e-22)
(0.999523 -0.000108267 -1.37404e-23)
(1.01679 -0.0321281 1.06774e-22)
(1.26084 -0.0915642 6.90286e-21)
(0.962541 -0.0396136 2.22946e-21)
(1.01222 -0.0315031 -2.90778e-23)
(1.01198 -0.00930814 -2.98884e-22)
(0.998993 -0.000191778 6.73247e-23)
(1.03759 -0.0279792 6.57477e-22)
(0.995132 -0.0271634 3.36199e-22)
(1.11982 -0.00746578 -1.61e-21)
(1.11904 0.0499985 3.51534e-21)
(1.175 -0.200011 1.30084e-22)
(1.16906 -0.111113 -2.79344e-21)
(0.97603 -0.00137506 -8.11285e-22)
(1.00711 -0.00526012 4.59009e-22)
(0.91785 -0.0384492 -8.34098e-22)
(0.844601 0.193788 -5.94799e-20)
(1.14811 -0.105064 3.26679e-21)
(1.03932 -0.0180033 -2.72325e-21)
(0.788493 0.140229 -3.04051e-20)
(0.997881 -0.000272352 5.48431e-23)
(0.997584 -0.00136095 -3.51726e-23)
(1.19121 -0.105954 -2.89925e-21)
(0.998534 -0.00300367 -3.5972e-23)
(1.01498 -0.0606665 1.95091e-22)
(1.00819 -0.00257261 1.62558e-22)
(0.996054 -0.000603902 -8.77105e-23)
(0.997112 -0.000505622 -1.37932e-22)
(1.05869 0.0364329 7.15817e-21)
(0.999908 -0.000216045 -2.04413e-25)
(1.00075 -0.000381614 -3.19416e-23)
(1.00011 -1.90392e-05 8.03204e-24)
(0.995153 -0.000948602 4.63112e-22)
(0.991226 -0.0132718 5.35063e-22)
(0.999975 -3.4099e-06 1.16139e-25)
(0.998481 -0.000359041 1.40455e-23)
(0.970362 -0.0247125 6.47252e-22)
(0.891488 0.0395619 1.60653e-20)
(1.01472 -0.033205 2.83101e-23)
(0.989984 -0.0174504 8.67802e-22)
(0.927026 0.146065 6.64892e-21)
(1.00266 0.0514131 1.91902e-20)
(1.10005 -0.0165037 -1.4242e-21)
(1.23707 -0.0728377 2.27309e-21)
(0.921301 -0.00662253 2.67229e-21)
(1.00704 -0.0060801 -2.26381e-22)
(1.02088 0.0810044 -1.06805e-21)
(0.984076 -0.00318337 -1.00763e-21)
(1.13637 0.168069 9.93725e-23)
(1.00919 -0.0708645 2.96735e-23)
(1.03606 -0.157809 -1.48386e-21)
(1.19399 0.0792194 3.19172e-21)
(1.14931 0.175992 -9.41657e-21)
(0.949065 -0.0361328 3.04757e-21)
(1.06617 0.00765836 -3.57236e-21)
(1.28374 0.118552 4.30842e-21)
(1.16334 0.152449 1.28954e-20)
(1.03662 -0.00413011 2.1243e-21)
(0.995774 -0.00210797 1.01605e-22)
(0.994122 -0.00325775 8.8816e-23)
(0.999876 -3.50478e-05 -2.87843e-24)
(1.02247 -0.0415882 4.8637e-23)
(0.98362 -0.00266909 2.36927e-22)
(1.00143 -0.00339822 -6.07539e-23)
(0.99985 -3.53685e-05 -5.48096e-24)
(0.997761 -0.00100863 4.45379e-23)
(0.966742 -0.10752 -2.21547e-21)
(1.17672 0.00274074 1.00519e-21)
(0.975289 -0.00860236 -1.2991e-21)
(0.998936 -0.0179435 3.67845e-22)
(0.994656 -0.00104619 -2.49645e-22)
(1.07757 -0.0725683 -7.42722e-23)
(0.989988 -0.00220527 -8.00445e-22)
(1.00341 -0.0106445 1.77382e-22)
(1.28288 0.0893325 9.52907e-22)
(0.997419 -0.000482458 -3.1972e-22)
(0.999969 -6.65539e-05 -8.75204e-25)
(0.999926 -0.000260249 -6.32493e-25)
(1.00007 -0.000152355 7.60334e-24)
(0.969303 -0.0112247 5.95894e-22)
(1.05493 0.0333572 -8.44363e-21)
(0.99433 -0.000796829 9.92406e-24)
(1.0335 -0.0151081 1.78008e-21)
(1.01622 -0.179355 2.85527e-21)
(1.01391 0.171775 -7.80112e-22)
(1.00563 -0.0107245 1.58543e-22)
(1.00941 -0.00680726 -7.46983e-23)
(0.992832 -0.0036542 -3.22147e-22)
(0.991537 0.118505 -3.18719e-20)
(0.998529 -0.000189752 4.52849e-23)
(1.18181 0.236808 -4.93622e-21)
(1.01468 0.0315218 -1.01557e-20)
(0.999836 -4.34134e-05 6.42431e-24)
(1.00629 -0.0718795 -1.15494e-21)
(0.995324 -0.00109912 -2.28936e-22)
(0.985448 -0.0860734 3.48179e-21)
(1.00079 -0.000204662 3.1877e-23)
(1.09492 -0.0107497 2.06672e-21)
(1.0099 -0.0236373 -4.84212e-24)
(1.00881 -0.00615812 3.78305e-23)
(0.998816 -0.00023282 -8.96882e-23)
(1.13334 0.0422667 3.31787e-21)
(1.0912 0.0517327 1.22872e-21)
(1.00778 -0.0940415 1.90197e-21)
(0.971468 -0.0288385 -1.23563e-22)
(0.997018 -0.00537079 -1.23897e-22)
(0.999356 -0.057667 -2.10569e-21)
(1.22774 -0.00868923 -1.57413e-22)
(0.72473 0.105314 -2.91393e-20)
(1.10002 -0.121673 -2.00533e-21)
(1.00735 -0.011363 -7.23512e-23)
(0.99999 -4.4648e-06 -7.33844e-27)
(0.98116 -0.00704417 -1.04416e-21)
(0.996832 -0.000554218 2.98103e-22)
(1.03568 -0.027976 9.52647e-22)
(0.999238 -0.145998 -1.17098e-21)
(1.23471 -0.092935 2.61471e-21)
(0.986699 0.16733 -3.84598e-20)
(1.10375 0.0437406 5.28637e-21)
(1.13049 -0.164278 3.04652e-21)
(1.17633 0.0962079 1.46123e-21)
(0.99987 0.0592791 3.76098e-20)
(1.02837 -0.00393656 1.52112e-21)
(1.00172 -0.00329124 1.39427e-22)
(1.06395 0.105964 5.66443e-21)
(0.998812 -0.00292571 8.02003e-23)
(0.999745 -0.000241617 6.09601e-24)
(0.974101 -0.00286136 3.62061e-22)
(1.00013 -4.67096e-05 2.01918e-24)
(1.13376 -0.187199 1.516e-21)
(1.0054 -0.0259389 -9.2056e-23)
(0.977985 -0.0491387 1.75373e-21)
(1.00266 -0.00225081 7.09692e-23)
(1.15587 0.0885015 9.57015e-21)
(0.997532 -0.000458895 -2.63648e-23)
(0.999965 -5.32491e-05 -1.45429e-25)
(1.02709 -0.162735 1.60407e-21)
(1.00235 -0.00194781 -4.17155e-23)
(1.14874 -0.0444577 -3.49427e-22)
(0.935512 -0.0211968 5.58356e-22)
(0.906536 -0.0252887 2.74994e-22)
(1.26903 -0.0492536 3.9707e-22)
(1.04334 0.0282939 -3.21212e-21)
(1.03413 0.00788084 1.99681e-21)
(1.03211 0.00762831 -7.80998e-22)
(0.999713 -6.24373e-05 2.19606e-24)
(1.18501 -0.00427546 5.85757e-22)
(1.12279 -0.00240677 1.88693e-21)
(0.999281 -0.000930095 2.06374e-23)
(0.976402 -0.00935068 1.50895e-21)
(1.00086 -0.000297284 -3.54754e-23)
(1.01686 -0.0295886 -6.20177e-22)
(1.01165 -0.0414874 -7.65261e-23)
(1.00633 -0.00197668 9.28877e-25)
(0.998942 -0.00184747 -9.50516e-23)
(1.24761 0.0435908 -2.3533e-21)
(0.999969 -3.18634e-05 -1.78465e-24)
(1.00029 -0.000157942 -9.77649e-24)
(1.0028 -0.00153351 -3.05006e-24)
(0.968047 -0.00485478 1.00004e-21)
(1.02767 -0.0173205 1.23123e-21)
(0.976971 -0.0414631 -2.46144e-21)
(0.960556 -0.00751441 -5.82894e-22)
(1.0154 -0.0900435 1.09607e-21)
(1.03768 -0.192302 -3.07711e-21)
(1.037 -0.0468976 1.40498e-22)
(1.07269 0.104337 -3.15198e-20)
(1.25677 -0.0814584 -4.56791e-21)
(0.990739 -0.00372238 -4.16587e-23)
(0.79528 0.207436 4.68982e-20)
(0.965289 -0.0790451 3.67191e-21)
(0.990782 -0.014084 1.67529e-22)
(0.961584 -0.00623111 9.56521e-22)
(0.996757 -0.0262656 -9.63771e-23)
(0.970056 -0.00353286 1.53224e-21)
(0.985852 -0.00561281 -3.04979e-22)
(1.03951 -0.0207147 -1.83871e-21)
(1.15555 -0.112013 -8.05375e-22)
(0.999963 -6.20554e-05 -1.5127e-25)
(1.03381 -0.0195033 -2.14701e-22)
(0.999864 -4.31916e-05 -3.08553e-24)
(1.05729 0.186779 6.90325e-21)
(1.24978 0.0082212 -2.01397e-24)
(0.993264 -0.00279173 1.02127e-22)
(0.979956 -0.00251238 -1.38544e-21)
(0.999737 -7.71081e-05 -1.63056e-23)
(1.001 0.102401 2.32313e-20)
(1.12062 0.190732 1.34368e-20)
(1.18191 -0.0157233 -1.97295e-22)
(1.28445 0.0531346 -7.87819e-22)
(0.965118 -0.0837562 -1.60348e-21)
(0.997104 0.0184118 -3.73647e-20)
(0.999913 -0.000191156 2.56904e-24)
(1.06625 -0.0458176 1.53145e-21)
(0.97357 -0.00218184 -5.57396e-23)
(1.18845 0.0562242 -1.54036e-21)
(0.861528 0.139215 -3.63335e-20)
(1.22581 -0.0182606 -1.0937e-21)
(1.0905 0.0368196 8.53104e-22)
(0.999912 -0.0177861 -6.30486e-23)
(0.999718 -0.000120291 -1.49722e-23)
(1.26806 0.0412775 3.23177e-22)
(1.23154 -0.117157 1.13717e-21)
(0.99843 0.122703 -6.31354e-22)
(1.13941 -0.0421542 1.01227e-21)
(1.06894 0.0797878 9.40204e-21)
(0.990184 -0.00332527 -1.42853e-22)
(1.00222 0.164241 1.01595e-20)
(1.12296 0.174633 4.61426e-21)
(0.987447 -0.00474529 -8.54751e-22)
(0.989527 -0.00442565 -3.17841e-22)
(1.26298 0.0223355 -9.34868e-23)
(0.902965 -0.0234073 -3.77366e-21)
(0.999882 -0.00022205 -4.16367e-24)
(0.982068 -0.00761344 1.34413e-21)
(0.910572 -0.0328981 2.7863e-21)
(0.980984 -0.105892 -4.68229e-22)
(1.01375 -0.00355427 -1.30038e-21)
(1.01202 -0.00845569 8.08355e-23)
(0.999827 -0.000276384 -8.30913e-24)
(1.13253 0.200509 -1.98576e-20)
(1.00044 -0.0161777 9.96905e-24)
(0.999856 -8.51938e-05 2.72908e-24)
(1.02638 -0.0852909 1.40242e-21)
(0.999313 -0.00061096 1.84611e-23)
(0.999689 -0.000107837 1.10525e-24)
(1.00738 -0.0173765 -8.07946e-23)
(1.13761 0.101426 1.41135e-20)
(1.01845 -0.145925 2.18834e-21)
(0.905276 0.138122 2.09536e-20)
(1.00009 -1.4061e-05 -5.76307e-24)
(1.15017 0.101016 -1.43957e-20)
(1.01762 -0.0729579 9.94216e-22)
(0.999894 -0.00027166 -1.19335e-24)
(1.00003 -8.82129e-06 -1.94697e-24)
(1.00461 0.0181825 -1.66092e-21)
(1.1195 0.088863 5.57196e-21)
(0.994535 -0.00343818 8.84781e-23)
(1.10006 0.068376 -7.73924e-21)
(1.00004 -2.85106e-05 1.42847e-24)
(1.10452 0.077654 -1.02915e-20)
(1.15953 -0.19844 4.02733e-21)
(0.986772 -0.00425266 9.3982e-22)
(0.998645 0.0286813 -4.94845e-20)
(0.966557 -0.0663825 2.44256e-21)
(1.27954 0.0443801 3.30825e-22)
(0.963353 -0.00621852 5.8739e-22)
(1.11485 0.0788276 1.3429e-20)
(1.13135 0.0894977 -4.06802e-21)
(0.977573 -0.0115473 2.18481e-21)
(0.970644 -0.0140725 -1.60339e-21)
(0.9931 -0.0140764 5.02657e-22)
(0.996116 -0.00103085 -7.5269e-23)
(0.999724 -0.000268636 1.70286e-23)
(1.00012 -0.0154777 -1.84205e-23)
(1.13666 0.152213 -2.38919e-21)
(0.999961 -4.86939e-05 4.80824e-25)
(1.09045 0.0676101 1.01987e-20)
(1.03586 -0.147264 3.58296e-21)
(1.02394 0.120234 8.67239e-21)
(1.08667 0.0597372 -1.19005e-20)
(0.906967 -0.0308406 -3.44867e-22)
(0.926007 0.177267 -4.26814e-20)
(0.997848 -0.0016261 6.46861e-24)
(1.02229 -0.0383304 2.37618e-22)
(1.06329 -0.113674 1.02093e-21)
(0.971348 -0.00333267 -9.47271e-23)
(0.991283 -0.00468273 4.23731e-22)
(1.01385 -0.0744787 -8.64334e-22)
(1.07802 -0.0363751 -1.52007e-22)
(0.814622 0.126934 5.77232e-20)
(1.00006 -2.69879e-05 6.52344e-24)
(0.997457 -0.00173283 8.54402e-23)
(1.02118 -0.10632 5.32591e-23)
(1.00002 -7.08297e-06 2.46322e-25)
(1.06463 0.200526 3.36808e-21)
(1.00239 -0.00168097 0)
(1.00002 -9.34436e-06 1.96587e-25)
(1.00027 -0.000122852 2.30649e-23)
(1.00055 -0.00017096 4.4836e-25)
(0.97987 -0.0282792 1.65148e-21)
(1.03244 -0.0260704 -6.7805e-22)
(0.997946 -0.0012692 1.34078e-22)
(0.999881 -2.44411e-05 5.68574e-24)
(0.99071 -0.00438529 2.35231e-22)
(1.00644 -0.0180738 -5.4473e-23)
(0.984786 -0.153603 -3.17457e-21)
(0.914713 -0.0104709 2.69858e-22)
(1.02675 -0.0154298 2.19829e-21)
(0.999963 -3.88081e-06 1.59248e-24)
(1.10564 -0.210664 4.46766e-21)
(0.982362 -0.00531095 -5.38308e-22)
(1.24512 0.0303703 5.10718e-23)
(1.00079 0.0212351 -6.27031e-21)
(1.00176 -0.00495237 3.20285e-23)
(1.22284 0.0345337 -3.29181e-21)
(1.00021 -0.00013314 -3.1602e-26)
(0.983204 -0.0059578 1.55474e-23)
(1.03654 0.000724094 -3.9406e-21)
(0.991326 -0.00533028 -1.73533e-22)
(1.1561 0.122516 -9.3761e-22)
(0.983079 -0.00930112 -1.01639e-21)
(1.06896 -0.0426209 -1.42047e-21)
(1.03726 0.00150878 -4.25214e-21)
(1.1132 0.0428767 -2.03245e-21)
(1.0104 -0.0217379 -3.10517e-22)
(0.986574 -0.00605191 2.5325e-23)
(1.17282 0.0733635 4.96923e-21)
(0.971715 -0.115299 -2.6792e-21)
(1.0361 0.208369 2.8897e-20)
(0.98814 -0.00685814 -9.91655e-22)
(1.1965 0.158826 -4.28826e-22)
(0.988111 -0.00601152 2.64955e-22)
(0.998467 -0.000729993 -8.69211e-24)
(1.08763 0.0317821 2.53538e-21)
(1.01986 -0.0433246 1.29263e-23)
(1.05633 -0.000117569 5.57715e-21)
(1.00247 -0.0011773 4.63065e-23)
(1.00002 -7.27253e-06 9.01255e-26)
(0.99908 -0.174559 1.176e-21)
(1.27127 0.0868567 -3.65589e-21)
(1.00209 -0.00480723 -4.40149e-23)
(1.23285 0.0262622 1.87199e-22)
(0.984014 -0.00867918 -6.65913e-22)
(1.09489 -0.216823 -1.74279e-21)
(1.06114 -0.0644867 -1.15847e-22)
(0.976434 -0.0440438 1.38734e-21)
(0.997791 -0.00141742 -5.67641e-23)
(0.98846 -0.00151745 -2.00355e-22)
(0.964077 -0.0987657 -1.53577e-21)
(0.960389 -0.0134084 2.19626e-21)
(0.987385 -0.00560076 6.99596e-22)
(0.999807 -0.0006239 7.09068e-24)
(1.02297 0.227095 -3.66683e-21)
(1.21105 0.0294287 1.86242e-21)
(1.0352 -0.0168091 -6.91525e-22)
(0.999734 -0.000208994 1.13645e-23)
(1.11133 0.165817 -9.30995e-21)
(1.00001 -3.41535e-05 5.94788e-25)
(0.999755 -0.000186437 2.2385e-23)
(1.20037 0.0367501 2.26365e-21)
(1.01421 -0.0360514 1.16411e-22)
(1.26082 0.0651791 2.75501e-21)
(1.0349 -0.00476432 1.59903e-21)
(1.02398 -0.0188951 -1.39591e-22)
(1.11466 -0.108258 1.35037e-21)
(1.05872 -0.180452 3.60972e-21)
(1.26508 -0.0539433 1.83294e-21)
(1.00173 -0.0012002 -1.02062e-22)
(0.938061 -0.0231293 -2.14521e-22)
(0.999975 -8.15388e-05 -2.33526e-25)
(1.00696 -0.0158017 5.87163e-23)
(1.15755 0.110549 4.90192e-21)
(0.978774 -0.01082 1.52635e-21)
(0.996326 -0.00206343 1.19031e-22)
(1.01911 -0.0590666 -5.90278e-22)
(0.997413 -0.001529 8.21178e-24)
(0.99948 -0.00153232 2.37491e-23)
(0.797788 0.0291327 1.03854e-20)
(0.987424 -0.00737623 -5.61065e-22)
(0.999281 -0.00101478 -7.16031e-23)
(0.999976 -8.6761e-07 -2.99e-25)
(1.02749 0.0100135 8.75393e-21)
(0.963587 -0.0370793 -3.33564e-22)
(0.999571 -0.000766708 2.09659e-23)
(0.996337 -0.00119903 1.5338e-22)
(1.04031 0.0323814 3.58915e-21)
(1.10583 -0.00205578 5.20669e-22)
(0.948821 -0.0329929 -1.89477e-21)
(1 -2.1663e-05 4.53763e-25)
(1.00203 0.0186035 2.43135e-20)
(0.981629 -0.0246175 -1.12095e-21)
(1.1487 0.0786371 -9.77315e-21)
(1.01795 -0.00179948 -1.98382e-21)
(1.02086 -0.00186185 4.54149e-21)
(0.958097 -0.0166868 2.98987e-21)
(0.999872 -9.0382e-05 -1.76646e-24)
(1.03614 0.000252629 -7.97696e-22)
(1.11098 -0.00822721 -5.79594e-22)
(1.25308 -0.0356922 -2.24281e-21)
(1.0442 -0.141798 8.1686e-22)
(1.12429 0.145382 6.90609e-21)
(1.00784 -0.00237753 -3.24025e-23)
(1.18534 0.0705049 -6.7464e-21)
(1 -0.0207826 -1.08158e-22)
(1.0214 -0.0816713 -2.35862e-21)
(0.999482 -0.000230753 -2.30971e-23)
(1.00444 -0.0276177 1.80072e-22)
(0.999865 -0.000598019 2.075e-24)
(1.08601 0.0438051 -7.76505e-21)
(1.23832 0.139351 -1.23808e-20)
(0.998052 -0.00167345 4.51508e-23)
(1.02607 -0.019296 1.94144e-23)
(0.97681 -0.00651091 5.24886e-22)
(1.05062 -0.126286 3.82827e-22)
(1.0431 -0.132233 -1.79944e-21)
(0.997541 -0.00120812 8.97129e-23)
(1.06148 -0.0457663 -4.98001e-22)
(0.815801 0.00856847 -1.75016e-20)
(1.23845 -0.0467026 -2.07259e-21)
(0.999929 -0.000231827 5.27168e-24)
(1.09789 -0.00362165 -1.82544e-21)
(0.996185 -0.0128389 -2.45666e-22)
(0.990022 0.00497582 3.59262e-20)
(0.984006 -0.00759222 9.24977e-22)
(0.99427 -0.0379267 -3.18031e-22)
(1.02301 -0.0529352 -2.82572e-23)
(0.992342 -0.0391421 -4.4673e-23)
(0.997987 -0.0303672 -7.20153e-22)
(0.990093 -0.00474959 1.62105e-22)
(0.998784 -0.0205792 3.82077e-22)
(1.0027 -0.00898349 -4.8557e-23)
(1.0787 -0.0417848 3.79282e-22)
(1.00014 -3.50497e-05 -1.53651e-23)
(1.20728 -0.172424 -2.04097e-21)
(1.20249 -0.0738262 -1.03758e-21)
(1.10166 0.21094 1.7365e-20)
(0.951383 -0.031247 2.87029e-21)
(1.24773 0.0732449 -1.56194e-21)
(1.00264 -0.000916721 1.64232e-22)
(1.08296 -0.115449 -1.2743e-23)
(1.00543 -0.0551257 -8.02336e-22)
(1.03962 0.0612834 1.07331e-20)
(0.99078 -0.00575504 4.02889e-22)
(1.00015 -0.000256233 1.02441e-23)
(0.982573 -0.0256416 1.46269e-21)
(0.99426 -0.0137047 -1.90688e-22)
(1.05811 -0.041668 1.28187e-21)
(0.962493 -0.0102787 -1.8586e-21)
(0.96912 -0.0131242 5.29789e-22)
(1.15916 -0.0870396 -4.61497e-22)
(0.980435 -0.00424258 -9.12831e-22)
(1.01937 -0.0549012 4.00917e-22)
(0.982931 -0.111931 1.9653e-21)
(1.00002 -1.13075e-05 1.74835e-25)
(1.08338 -0.0320648 2.33196e-21)
(0.985564 -0.101018 -5.21674e-21)
(1.23547 0.0527389 1.41917e-21)
(1.11292 -0.116641 -2.48349e-21)
(1.05387 -0.000362282 4.63632e-22)
(1.02726 -0.142112 -4.53457e-21)
(1.16335 0.204126 3.8963e-21)
(1.04626 -0.0552227 1.98834e-22)
(0.956267 -0.0154087 -1.76939e-21)
(1.01815 -0.0681565 -1.17928e-21)
(0.917522 0.0118323 1.62986e-20)
(1.16978 -0.166193 1.20563e-21)
(0.983113 -0.00705536 -2.81337e-22)
(1.02672 -0.174039 -3.44775e-22)
(1.0313 -0.0960489 1.67523e-21)
(1.04592 -0.163223 -5.86992e-22)
(1.04871 -0.117419 -1.96409e-21)
(1.16459 0.0648835 6.87331e-21)
(0.996362 -0.00237192 7.8662e-24)
(1.01754 0.0761708 4.12579e-21)
(1.01056 -0.00227569 2.33312e-22)
(0.999486 -0.000775594 -3.02908e-23)
(0.99845 -0.00333142 2.21741e-22)
(1.08829 -0.0110279 -5.78224e-22)
(0.709027 0.0100976 5.11271e-22)
(1.0022 -0.0096005 2.43625e-23)
(1.02203 -0.0762415 3.35219e-22)
(1.04159 0.037525 -5.93983e-21)
(1.00004 -1.04838e-05 -3.29276e-25)
(0.972139 -0.0132403 1.27982e-21)
(1.03143 -0.0152557 1.57785e-21)
(1.09644 -0.0732092 -4.61738e-22)
(1.01074 -0.0011684 1.30795e-21)
(0.997917 -0.00296905 4.06958e-23)
(0.977769 -0.055766 2.01793e-23)
(0.99711 -0.0123531 -7.35346e-23)
(1.00004 -8.32293e-06 3.63659e-24)
(0.969505 -0.0651621 -4.12664e-21)
(1.13371 0.123262 -2.47839e-21)
(1.02609 -0.0468442 1.76358e-22)
(0.977844 -0.00737155 -9.80048e-22)
(1.0024 -0.000613534 -5.89949e-23)
(1.04719 0.0395247 7.80555e-21)
(0.999497 -0.000939836 -1.40457e-23)
(0.998364 -0.000956828 -4.46431e-24)
(0.999527 -0.000252343 -2.09806e-23)
(0.999034 -0.00313752 -5.50415e-23)
(1.24471 -0.0257671 -6.51575e-22)
(1.03731 -0.0541296 -1.26164e-22)
(1.01083 -0.0273499 7.37244e-23)
(0.976333 -0.0108495 -4.48328e-22)
(1.00006 -7.53119e-05 3.51896e-24)
(1.0815 -0.176126 5.00443e-21)
(1.23978 -0.104304 3.07345e-23)
(1.08657 -0.188127 -2.38488e-21)
(0.995387 -0.0481143 -6.00594e-22)
(1.01902 -0.0138627 1.46716e-21)
(0.999719 -0.000147011 9.43983e-24)
(0.984896 -0.0168057 -5.83741e-22)
(0.944184 -0.0659937 -2.33883e-21)
(1.23126 -0.0379703 4.6719e-22)
(1.0195 0.11709 -3.1975e-22)
(0.998489 -0.00471612 4.50832e-23)
(0.925924 -0.0463368 1.28367e-21)
(0.993783 -0.00407133 -3.85437e-22)
(1.04405 -0.050999 6.80556e-23)
(1.17827 0.0486211 3.89241e-22)
(1.00059 -0.00019788 -5.04514e-23)
(0.999792 -0.000317535 -3.27471e-24)
(1.26805 0.028166 -3.26847e-23)
(1.2154 -0.0516825 6.65502e-22)
(1.02471 -0.0234532 5.15183e-22)
(0.996112 -0.00258496 2.02858e-22)
(0.997234 -0.000688979 -1.99805e-23)
(0.953535 -0.0672643 5.73919e-22)
(0.999771 -0.000522113 -1.10704e-23)
(1.02284 -0.0489493 -1.40152e-22)
(0.98223 -0.00209341 1.87886e-21)
(1.00109 0.0240517 -5.25176e-21)
(1.14753 0.128859 -1.31784e-21)
(1.07804 -0.107271 9.81326e-22)
(0.990837 -0.101928 1.91527e-21)
(1.00875 -0.00211241 6.50093e-22)
(1.01933 -0.0366929 -3.17319e-22)
(1.19787 -0.0619695 -1.72278e-21)
(0.989684 -0.112819 -1.20435e-21)
(1.02237 -0.0662149 6.74953e-22)
(0.999998 -1.08719e-05 -2.15698e-26)
(1.17671 -0.0703208 -1.77327e-21)
(0.96549 -0.00419986 1.76757e-22)
(0.987844 -0.124661 2.38236e-21)
(1.02567 -0.0431826 -3.25725e-22)
(0.940974 -0.0219388 -3.93211e-22)
(0.999469 -0.000442253 -1.02296e-23)
(0.996052 -0.00193267 -9.04505e-23)
(1.07829 0.0589122 9.2021e-21)
(0.960242 -0.0156398 -6.71836e-22)
(0.999979 -3.02993e-06 3.24341e-25)
(0.996201 -0.0008015 -2.11824e-22)
(1.17096 -0.150425 -6.80852e-21)
(0.999778 -7.59964e-05 2.35374e-23)
(1.02639 -0.0740555 -2.43762e-22)
(0.999935 -0.000184418 -4.52622e-25)
(1.009 -0.0203 -4.5223e-24)
(0.985119 -0.147471 1.46621e-21)
(1.069 -0.10655 -7.07492e-22)