/*--------------------------------*- C++ -*----------------------------------*\
  =========                 |
  \\      /  F ield         | OpenFOAM: The Open Source CFD Toolbox
   \\    /   O peration     | Website:  https://openfoam.org
    \\  /    A nd           | Version:  7
     \\/     M anipulation  |
\*---------------------------------------------------------------------------*/
FoamFile
{
    version     2.0;
    format      ascii;
    class       volScalarField;
    location    "3";
    object      p;
}
// * * * * * * * * * * * * * * * * * * * * * * * * * * * * * * * * * * * * * //

dimensions      [0 2 -2 0 0 0 0];

internalField   nonuniform List<scalar> 
115546
(
0.0475329
-7.67152e-05
-0.092176
-0.0236802
0.0113263
-0.00628593
1.4004
-0.0675756
-0.0021031
-8.06899e-05
-0.00196705
0.0013758
-0.0101314
-0.385482
-0.00210456
-0.355181
-0.000810512
-0.00268599
1.56946
0.0117266
-0.0581617
-0.0367655
-0.0030824
-0.0366117
1.93591
0.593623
0.468626
0.147255
-0.000111353
1.60097
-0.00105318
0.530262
0.04355
-0.0910331
1.96591
-0.0131762
1.41214
-0.000802721
-0.117644
1.02547
0.535656
-0.00271572
-0.120614
-0.0131603
-0.251914
-0.38411
0.0298618
0.0407219
-0.00161429
0.00131667
8.54447e-06
-0.0234108
0.564935
-4.1006e-05
-0.0159652
0.570022
0.462136
-0.24653
0.542166
-0.0756171
-0.000440057
-0.03742
-0.0057214
-0.115348
-0.000497467
0.00722842
-0.00843753
0.374151
0.557347
0.429339
1.18908
0.776449
1.01542
-0.238801
-0.0404951
-0.16975
0.327671
-0.00502212
1.47829
0.428424
0.437063
-0.000446734
-0.36468
0.142988
-0.0231961
0.00132552
-0.120779
-7.58507e-05
-0.183826
-3.72184e-05
0.103105
-0.0735327
-0.000121488
-0.00998311
-0.0032972
0.00271959
-0.00294731
-0.36072
0.042289
-0.182968
-0.000455931
0.182098
0.00838213
0.0186993
1.18494
-0.165677
1.0871
-0.252152
-0.0707131
-6.26074e-05
0.471126
-0.00291245
0.337136
-0.0467998
2.32205
-0.0103541
-0.00199072
1.13367
0.00026699
0.764377
1.1453
-0.358954
-0.0901082
0.480502
-1.49369e-05
1.59392
-0.0372207
2.03952
-0.0125173
0.277158
0.055685
0.00194513
1.10544
0.0013241
0.000270348
1.59836
1.88484
0.0428373
-0.0152181
-0.0369337
1.29039
-0.00751372
0.000556894
0.594361
0.0635528
1.11288e-05
0.0660721
-0.0377964
0.377563
0.00598924
-0.166836
-0.254877
-0.0730462
-1.38495e-05
-0.0230648
0.0540185
-5.47195e-05
0.306769
-0.16017
-0.249701
-0.168125
0.0653735
-0.00561751
-0.135079
-0.0558129
-0.00640331
0.211869
-0.108939
0.306082
-0.0611639
-0.0707251
0.0307137
0.050758
-0.377631
-0.115951
0.347463
-0.376859
-0.0149275
0.042356
-0.00180357
0.0967951
-0.0367071
1.62454
0.597955
1.08834
-0.00244153
-0.0264108
0.692531
0.152131
0.0987319
-0.0144945
-0.00618476
1.62672
-0.149596
0.596484
-0.253115
-0.378848
-0.066444
-0.161859
-0.0375303
0.630264
1.3721
0.114792
-8.05918e-05
-0.0253523
-0.196353
-0.00467531
-0.000478657
0.271277
-0.0851855
-0.377925
1.07396
1.9255
-3.11649e-05
-0.0442935
-0.151216
0.28937
0.0339817
-0.385681
-0.000994579
-0.172244
-0.132856
-0.00421547
-0.165687
-4.34626e-05
1.77515
0.0122181
-0.167118
-0.248304
1.77893
0.168003
-0.217489
1.2956
-0.132807
0.0548887
0.634265
0.00312984
9.55512e-05
-0.127324
-0.0238934
0.137656
0.0168205
-0.250788
0.0322694
-0.0129225
0.00582556
0.456737
-0.176347
-0.107046
-0.335916
1.65575
-0.0090145
0.547864
0.000153972
2.047
0.0995212
0.326743
0.150791
0.0021883
-0.0727871
0.101335
-0.383801
0.603353
-0.160031
-0.0729225
-0.0231495
0.48053
-0.0123374
0.399902
0.270239
-0.000505609
0.156302
-0.000991641
0.017659
-0.0086512
-0.125806
-0.241743
-0.112705
-0.0191136
-0.249466
-0.134225
-0.0127229
0.00037761
-0.194276
0.000362282
0.0792029
1.76232
0.519883
-0.362832
-0.0948094
-0.243676
-6.66522e-05
0.489126
1.0623
-0.000530233
0.127842
-0.00929932
0.519386
0.0001959
0.271484
-0.380563
-0.127763
0.190979
-0.0424926
-0.191449
0.429577
0.00259822
-0.16611
-0.306619
0.0438073
-0.018318
1.24795
1.26587
-0.125515
-0.0108453
0.00930066
1.62539
0.00557044
-0.0357054
0.438012
0.194873
-0.000961661
0.112111
2.30957
0.485005
-0.16261
0.0557288
0.496142
-0.382914
0.499027
-0.0182555
-6.5985e-05
-0.00226252
-0.00911832
2.20056
-0.0220653
0.344203
-0.000473483
-0.00642176
-0.0265589
-0.0836314
0.443775
0.454083
-0.112496
-0.0581438
0.0115392
-0.0198616
2.08947
-0.191591
-0.0155123
1.10604
0.726676
0.10058
-0.0180074
-0.0407374
0.00778161
0.048813
9.14498e-06
-0.00425362
0.123202
0.794465
-0.206426
1.41894
2.22045
0.287102
1.02995e-05
-0.0867279
-0.110996
-0.00329153
1.19465e-05
-0.0803823
1.01067
-0.174451
-0.0041714
0.44388
0.0270441
0.00804599
0.00129595
-0.00856768
0.13508
-0.218938
-0.0637958
-0.0497982
0.121054
0.0798471
-0.000929002
1.28196
-0.345038
0.0116569
-0.0529502
0.518693
0.914715
-0.122364
0.147681
-0.13117
-0.0121783
-0.307054
0.00421823
-0.00112449
-0.117308
-0.175757
-0.0124965
1.54687
0.993975
-0.226799
0.136516
0.00027288
-0.0378778
0.264699
-0.0442736
-0.0457597
-0.0186345
0.0121897
-0.0222646
-0.0234374
-0.0191055
-0.000327934
-0.269273
0.000435676
0.0779117
-6.83486e-07
-0.380052
0.00186976
1.51596
1.26431
0.782565
0.139055
0.836198
0.456385
-0.0117339
0.0117479
-0.00125481
-0.0298406
-0.163703
-0.0418045
-0.0391762
0.0618078
0.00183372
-0.00118133
0.00120603
-0.00527963
0.282088
0.0504495
-0.118582
0.000322031
-0.0487003
0.00566009
-0.00104016
0.905867
0.344573
1.14588
0.000459527
0.000615485
0.0123894
-0.107251
-0.0343538
-0.161056
-0.174518
0.693086
-0.0522514
1.53982
0.00587444
0.0112678
1.28432
1.2348
-0.0628054
0.0180816
-0.37552
-0.0527241
0.000462324
0.0775446
-0.342182
-0.12829
-0.240868
0.0583698
0.480067
-3.17086e-06
0.0185232
0.179665
0.239115
1.59251
-2.03069e-07
-0.000467694
0.0126005
-0.127144
-0.00413656
-0.000550582
0.308396
2.03219
0.281673
1.07993
-0.119238
1.69566
0.599588
-0.0219455
-0.0865458
-0.333715
-0.0447174
-0.000132809
-0.0237393
-0.00957408
1.49539
-0.129763
1.4297
0.0032142
0.774289
-0.118016
-0.0823406
0.137975
0.64319
-0.017525
0.000145751
-0.000187567
-0.000168188
0.0406696
-0.249801
0.00176474
0.243542
-0.00191364
-0.0019235
0.0146158
0.00946074
0.00501136
0.00506539
-0.134837
-0.0272073
-0.0297685
1.55852
0.116776
0.0550872
-0.0713199
-0.194918
-0.000559024
0.000237898
2.43179e-06
-0.219068
-0.332428
-0.180243
0.000232852
-0.0912682
0.447556
0.543282
0.279603
-0.000434441
-0.162777
-0.0352293
0.000913431
-0.000425908
-0.173576
0.012268
0.0027858
-0.17156
0.00321053
-0.291992
-0.135563
-0.118952
-0.111167
0.00625692
-0.222087
0.00205997
0.000257424
0.033245
1.32371
1.77356
0.893504
0.0460434
-0.0728696
0.968586
0.0961369
0.00180056
0.230173
-0.0912661
0.391707
-0.0233973
0.339172
0.00721472
0.885887
0.00401977
-0.0349188
-0.116728
1.0408
0.00213065
-0.126003
-0.156508
0.690544
-0.0969129
-0.0350607
0.0907429
0.00063878
-0.216993
-0.0284611
0.130465
-0.105589
0.0191144
0.999435
1.00409
1.76181
0.836681
0.976268
0.257889
1.29369
0.0984444
1.09382
1.15533
0.00210392
-0.0091822
1.76289
0.0003229
-0.150842
0.609099
-0.115287
0.00701872
0.240499
-0.00920542
0.0120937
1.55348
1.95266
-0.00114896
0.00212371
0.220146
0.000764597
0.19006
1.23053
0.707337
-0.000396568
-0.154046
-0.122907
0.00429227
0.0364751
0.450581
1.92552
0.000456601
4.10771e-07
1.08335
0.035444
-0.00117188
0.237985
0.0374017
-0.0220151
-0.0153997
-0.0820096
-0.100498
-0.00905344
-0.173931
0.00219637
-0.000950314
-0.00908379
0.382592
-0.0017534
-0.134697
0.00545068
-0.0935969
1.05128
-0.000614261
2.28917
0.0568959
1.69665
0.380366
-0.00381532
-0.000144955
-0.00302974
-0.0337183
0.578183
-0.00945164
-0.0874563
1.58762
-0.328835
-0.330833
0.141715
0.219335
1.56255
-0.00359252
-0.124428
-0.117068
0.0017155
0.0213716
0.00553832
0.0422065
-0.240597
2.09943
-0.299119
-0.0141751
-0.124511
0.00972497
0.39245
0.434757
-0.0251531
3.7514e-05
1.06748
-0.0839808
-0.38207
-0.0115612
0.111157
-0.172393
0.0339161
0.33171
-0.00637323
1.38966
-0.0194965
0.467647
-0.235824
0.177831
-8.03362e-05
-0.169853
-0.135289
-0.127592
0.233335
-0.177686
0.00226797
-0.372887
-0.00978679
-2.27154e-05
-0.00893811
0.00191376
1.93847
0.00175586
1.50698
-0.127391
0.170667
0.0203643
0.595175
0.0261526
0.732943
1.37427e-05
-0.0290527
-0.00934872
0.0112316
-0.156758
0.000296032
0.406565
1.92231
0.614957
0.00181583
-0.0202302
0.576216
1.61329
-0.00033496
-0.00213164
0.22067
0.00142065
1.7938
-0.0320125
1.03171
0.796083
0.00137886
-0.360763
0.817542
-0.000955982
0.288625
1.74756
-0.0155604
0.00715
0.00298115
0.0330434
-0.116552
-0.0405077
1.40305
-0.0442763
2.14787
2.3941
-0.0191739
0.000521945
1.42405
-0.0222129
-0.101597
0.00198419
0.733952
-0.234325
2.04254
-0.00865511
-8.13647e-05
-0.0838989
0.463341
-0.151595
0.325009
0.181204
0.589269
-0.00142836
0.230839
0.000215195
0.011211
-3.80738e-06
-0.207558
-0.0605051
0.898225
-0.0001745
1.75733
-0.00306182
0.0250698
-0.00442914
-0.345149
-0.0703028
0.559922
-0.00110441
-0.080946
0.0415216
-0.0740024
-6.53189e-05
-0.00025176
-0.00179156
-0.203064
0.0112571
-0.00782604
-0.176478
0.000871822
0.00233861
0.0141293
-0.0037474
0.963648
0.402638
0.325381
-0.146261
-0.148937
-1.54497e-05
0.0876442
-0.243145
0.0027989
-0.179336
-0.0099844
-0.200971
-0.178207
0.00390273
0.0108769
-2.05322e-05
-0.0350886
-0.00288652
1.04237
-0.0494082
0.00123164
-0.00131171
0.180968
-0.248728
-0.0219604
0.000128067
1.41421
1.35977
0.0116698
0.883414
-0.0840638
-0.335797
0.00056917
-2.34598e-05
1.31151
-0.196123
0.000920223
0.659471
-0.00640619
-4.91644e-05
0.422706
-0.260853
-0.296465
-0.354552
-0.10756
-0.042674
-0.100625
0.00107465
0.845642
-0.00133662
-0.137467
0.394353
-0.000669962
-0.078113
0.0100672
0.721459
0.00567266
-0.0476276
1.72047
0.276159
-0.0595911
-0.117808
1.13801
0.438701
-0.0762129
-0.138083
1.22029
-0.00856406
-0.00251626
-0.343781
-0.0575924
-0.0729438
2.19301
-0.0410116
-4.64104e-05
-0.134645
0.0179532
0.0408726
0.731331
-0.394274
0.450106
-0.0141009
0.737671
-0.120387
0.418338
-0.018096
0.58967
0.472379
-0.158255
0.545708
1.08502
-0.00288391
0.46214
1.93709
-0.337999
0.00289644
-0.0788006
0.672345
0.0459511
0.18108
1.12398
-0.0227614
-0.0120188
-0.034914
-0.0257619
0.702889
0.394759
0.00232492
1.55939
2.09317
-0.19931
-0.0130918
0.532829
-0.237414
-0.142063
1.01354
1.46233
-0.0142657
-0.187776
-0.235424
-0.00558248
0.604331
-0.350805
-0.0189977
0.502475
0.00184764
0.737034
0.101092
0.645396
0.69296
-0.19842
1.46473
-0.00939519
-0.0576827
-0.0702575
-0.00128833
-0.129375
-0.0643598
-0.30918
-0.0651745
-0.0279711
-0.0805102
0.297536
-0.406264
-0.00255269
-0.0634712
-0.384092
0.965973
-0.273051
-0.295075
-0.0581261
0.0111616
0.889855
0.0503659
-0.000112192
-0.0167236
0.0165569
-0.0753982
-0.112356
-0.0121926
0.48281
-0.192898
0.185589
-0.21797
0.785439
0.245569
0.0108203
0.0209535
-0.0251466
2.26478
-0.133143
1.27013e-05
-0.0187312
-0.00271236
1.46925
-0.0804151
-6.47637e-06
-0.0423132
-0.00320167
-0.0274025
0.606395
0.608718
0.0747913
-0.105459
0.00720956
1.68513
-0.15153
0.49531
-0.0354053
-0.345837
0.0665545
0.0216371
-0.00109206
-0.072923
-0.00168307
-0.0349028
-0.00772652
-0.276966
-4.71006e-05
0.888392
0.000251928
-0.0172035
0.000709021
0.624999
-0.128111
1.49147
0.191565
0.601214
0.0666349
0.00758018
1.48617
-0.212991
-0.117321
2.41511
-0.0041114
-0.0540456
-0.0769251
0.202177
0.000256919
0.0412202
0.0400674
-0.149936
-0.156757
1.74837
0.0180453
-0.103099
0.604346
-0.294705
0.026974
0.011812
-1.1254e-05
-0.00103063
-0.0121949
0.243903
-0.00321005
-0.0195069
-0.00613723
1.58663
1.59776
0.106563
0.000215185
-0.0707358
0.280363
0.452699
0.000175367
0.0633654
-0.21503
0.000400011
-0.031064
0.249077
-0.176444
0.000646463
-0.327999
2.19999
-0.083843
0.00188807
-0.354466
0.206089
0.00309155
0.000517852
-0.0858754
-0.0127387
-0.317246
-7.71111e-05
-0.0566507
-0.21704
2.07702
-0.045444
0.0425098
-0.12161
-0.00178114
0.640348
-0.00282734
0.154584
0.662988
-0.00038762
0.207789
0.0129855
2.02446
2.42196
0.0855455
1.87688
1.72416
0.229104
0.533734
0.00132615
-0.0809348
-0.271021
-0.0125141
-0.00112505
0.0568543
-0.00501646
-0.000310979
-0.0714114
-0.00462438
-0.123633
-0.25692
0.000315613
-0.00157159
0.0622351
0.000355814
-0.000185363
0.609141
0.318602
-0.0597383
-0.00740622
-0.351037
0.0876705
0.915912
-0.014285
0.0271914
0.727243
0.432868
-0.215071
0.0210363
0.00414609
-0.000632119
-0.156877
1.38476
0.174055
-0.00012665
-0.0657118
0.000260453
-0.000656052
0.632525
0.00422773
2.04895
-0.0122074
1.11102
-0.00507096
0.0264277
-0.00264083
-0.00177101
0.711655
-0.00585988
0.0108808
1.93432
1.75565
2.2757
-0.0150677
-0.262052
0.788699
9.23628e-05
-0.223817
-0.0305011
1.10593
1.42683
0.0228055
0.417784
0.000430805
0.452487
0.0090488
-0.0482733
0.0393098
-0.00312458
-0.0262302
0.0171092
-0.0221335
1.0026
0.61743
0.0151034
0.709678
-0.16654
-0.11198
-0.0422564
0.244098
-0.127024
2.2762
1.56072
0.263861
-0.117077
0.000220926
-0.000137962
-0.155629
-0.233878
-0.0633222
0.41918
1.05819
0.268164
0.761058
-0.00233929
0.067393
-0.0348881
0.932069
-0.373773
-0.000377319
0.769159
-0.000892717
0.000450625
-0.000182539
1.96199e-06
1.37747e-06
0.929469
0.0222438
-0.108757
0.00386196
-0.329806
-0.246506
1.59453
0.0157667
-0.00525729
-0.0193697
-0.000182708
-0.00440804
-0.348753
0.191785
0.690369
-0.0363075
0.607192
-0.114824
0.060177
0.168974
0.00413457
1.92166
0.000337849
-0.0204714
-0.00413324
-0.118636
-0.056961
1.0755
-0.0223093
0.000185307
-0.0687859
-0.0291717
1.01263
-0.000390938
0.000751778
0.000531259
-0.173355
0.0419396
-0.141692
-0.358044
0.497302
1.54216
-0.0127398
0.00107608
0.0228044
-0.0090139
0.595772
-0.236446
-0.0223458
0.20794
-0.201307
0.00438262
-0.0625508
-0.0179358
0.0191576
-0.244698
-0.000185616
0.244428
1.06795
1.47369
0.889014
-0.00178323
-0.255732
0.000324465
-0.18941
-0.19085
0.770122
-0.0504444
-0.351111
-0.177365
-0.14503
0.0196257
-0.0498702
-0.171362
-0.331443
0.000259968
0.460493
-0.00447223
1.3614
0.298862
0.212167
0.000236273
0.00490892
0.0684139
0.00014152
0.598449
-0.0535161
-0.352625
-0.326829
0.304599
1.54083
-0.0418264
-0.17727
0.646798
0.130571
-0.00799616
0.190667
2.29507
0.0117721
0.307649
0.07746
0.0241554
-0.166401
-0.0178073
1.41511
0.000577116
0.630151
1.62768
-8.2432e-05
-0.0804035
0.000496553
0.512632
-0.0718073
0.0592619
-0.0371066
0.0251848
-0.165569
0.00113245
0.0164066
-0.0814284
0.0620983
-0.0154275
-3.35517e-05
-0.0143327
-0.179552
-0.342259
-0.0159974
-0.000356838
0.1106
-0.00796785
0.00572637
0.177738
0.853975
-0.109809
-0.0335526
0.769649
-0.000777603
0.00199621
-0.184568
-0.00044415
0.000425706
-0.0264655
0.98981
0.018312
-0.0424242
-0.0148598
0.130148
0.000329635
-0.00301317
0.000489005
0.491912
-0.00814915
-0.0214997
0.12734
-1.84157e-05
0.00215629
-0.000803097
0.920398
-0.00831262
-0.0347787
-0.000499825
0.443465
0.875927
-0.0141961
-0.337277
-0.000458461
-8.43788e-05
0.0689458
0.00154315
-0.00112611
1.50397
0.0394804
-0.0146926
-0.360474
0.00119825
0.00427851
-0.050339
-0.00308223
-0.00664896
1.88248
-0.00167775
-0.0132029
1.21536
-0.00117013
-0.176057
-0.00362994
-0.107217
-0.233551
0.173042
-0.0446074
-0.00350537
-0.0342758
0.142992
-0.0128962
0.0185069
0.00611145
-0.00552372
-0.000486632
-0.00163851
0.0590462
-0.141227
0.514652
0.0192616
-0.0805425
2.24842
0.589601
-0.272931
-0.0015659
-0.12866
-0.18675
0.26102
-0.249668
-0.0659765
0.515119
0.524348
-0.0850533
-0.246771
1.56762
-0.0785514
0.00120531
-0.358747
-0.381185
0.0694342
0.0434062
-0.125978
-0.00898162
0.244906
-0.158412
1.37132
-0.146333
1.39737
-0.229389
-0.00457512
0.0231572
0.000786893
0.000297884
-0.000426835
0.964246
-0.000267466
-0.166706
0.00706464
0.0710325
-0.231707
-0.00276885
-0.00912604
-0.173675
-0.00104474
0.878788
0.0437178
-0.00676248
-0.167617
0.580606
-6.41653e-06
0.277305
0.0045379
1.26619
0.334396
-0.234433
-0.173397
-0.00670327
-0.0049151
0.647797
0.913088
0.910196
-0.0305487
-0.177902
1.36378
0.544321
0.0559724
-1.519e-05
0.586127
0.119182
0.00387205
0.0977259
1.63666
-0.114286
0.0044953
2.13565
-0.000946771
-0.0104032
0.479839
0.972494
0.593824
0.576219
1.70973
1.44593
-0.0016744
-0.00433255
-0.00744073
-0.00661956
0.557487
-0.166265
1.51581
0.05169
-0.0426677
-0.084151
-0.0541517
0.00340928
0.00594605
-0.00424502
-0.212722
-0.00227451
0.189305
9.76285e-05
0.000264876
0.000855682
-0.000639469
0.00421856
0.295702
0.071898
0.279158
0.0126912
2.17863
-0.230692
-0.000987434
-0.013273
-0.183371
-0.00655715
-0.0010772
-0.0800606
-0.00611204
-0.00408598
-0.0402937
0.20801
-0.000138991
0.194994
0.0565846
0.00299024
-0.00219455
0.020286
0.189729
-0.19316
0.489991
0.423008
-0.0722825
0.0956717
-0.20537
-0.0081603
0.000104396
0.000573575
-0.0236729
0.719103
0.31963
-0.0340898
-0.0560402
-0.0666769
-0.00335619
1.56975
-0.0671114
0.612842
0.00440547
-0.00415604
0.000303467
0.0482177
-0.368116
1.58276
1.68398
0.592287
-0.0804089
-0.16866
-0.000266612
0.000156665
-0.0490182
0.0179575
0.869608
-0.379291
-0.19886
-0.159298
0.890545
0.666113
-0.37998
1.03595e-05
0.921046
0.756
0.108985
-0.00013114
-0.0495801
-0.0260179
0.902777
0.732345
0.0533564
0.0975886
2.22009
-0.0709676
-0.000125414
-3.54524e-05
0.194256
-0.0790728
0.439902
9.17531e-05
-0.323954
0.0165953
0.000541917
1.78572
-0.0120826
0.445327
-0.0535742
0.00454638
0.236578
-0.315696
1.3665
-0.116834
-0.0731095
1.88044
0.00420904
0.149319
0.757405
1.50474
-0.00806566
0.591611
1.65404e-06
0.00306591
0.683916
-0.0558685
0.203757
0.272213
0.00151042
0.876826
-0.296361
-3.00306e-05
-0.32891
-0.0103981
-0.0398303
-0.00175898
-0.000443754
-0.211358
0.353027
0.00472517
-0.014622
0.0124592
0.600426
1.50448
0.000959603
-0.0137938
-0.00314281
-0.193529
-0.00192877
0.000311533
-0.000190487
1.59041
0.0111056
0.005778
-0.0525276
-0.165194
-0.326477
1.53319
1.35744
0.951891
-2.38669e-05
-0.0823782
-0.214274
-0.041294
-0.23892
-0.00827899
0.748399
-0.0969214
0.0572603
-0.0051153
0.223755
-0.324301
0.190258
1.4849e-05
0.397916
-0.000390841
-0.0023742
0.86806
-0.0100717
-0.172224
2.18717
-0.0484769
0.00852263
-0.0167659
0.65719
0.983253
1.52863
1.06039
-0.332766
-0.0139867
-0.00540467
0.0844125
-0.147381
0.0167307
-0.000575073
0.179624
0.011373
-0.134817
-0.055578
-6.2526e-05
0.465125
0.115933
1.67164
0.598141
-7.60997e-05
0.479417
0.00462377
-0.315526
-0.331369
-0.0621791
1.49398
-0.00370895
-0.212036
0.308194
-0.00321411
0.000797715
-0.166726
0.561933
-0.165227
-0.194913
0.408536
-0.0313734
-2.14447e-05
0.000145754
0.365889
0.0625592
-0.160217
-0.00540688
1.27311
-0.00111181
-9.41567e-06
-0.00579373
0.0190797
-0.05516
-0.000115364
-0.141199
0.506568
0.649486
-0.0148769
1.46286
-0.0997923
0.657577
-0.0565128
0.0601562
0.000509534
0.211142
0.354473
0.30731
2.01045
0.801966
-0.0485027
0.0252534
0.95913
-0.0532132
1.2268
1.30699e-05
0.813767
1.16448
1.69867
0.00124031
-6.47156e-05
1.41159
1.66672
0.561403
0.000276511
-0.252882
0.409256
-0.0201096
-0.00868172
0.228167
0.144984
0.0595846
1.40362
-0.0135302
-0.211532
-0.0128491
0.297285
-0.00915772
1.58595
0.523257
0.45434
-0.00580538
0.615871
-0.137406
0.100689
-0.1928
0.00145552
-0.170298
0.118375
-0.00360104
-0.0167976
-0.241337
-0.0409738
-7.80365e-05
-0.244017
-0.0207144
0.00192629
0.0632152
-0.0114633
-0.0210498
0.184191
-0.000750507
0.420054
-0.268881
1.33838
-0.00160219
2.14188
-0.00014554
-0.0436868
0.0437548
-0.000333321
-0.0337613
-0.00948271
-0.33341
0.805492
-0.104093
0.168419
-0.221475
1.18885
-0.000141718
-0.343463
0.220926
0.29974
-5.69253e-05
2.20856
0.0422672
0.131178
-0.0246372
-0.00752027
-0.000423773
1.34915
-0.0360581
0.624569
0.00128593
-0.270406
-0.00802903
-3.93651e-05
1.27166
-0.000498985
0.738428
1.91374
1.35932
-0.0491622
0.678633
0.882669
1.1088
1.3876
0.907464
1.7464
-7.73361e-05
-0.150045
0.760252
-0.00362474
1.35134
-0.220063
-6.8796e-05
-0.00210893
-0.173458
2.1651
0.334098
0.0390025
0.483905
-0.00179059
0.000256629
0.0547467
-0.149046
0.0561132
1.04867
2.04918
-0.100124
1.41592
-0.208869
0.20032
1.53881
0.000931397
1.10049
-0.0325561
0.211557
0.0109097
-0.255084
-0.0578172
-0.0371338
-7.11769e-05
-0.0707364
-0.000109805
0.731431
2.13261
0.0441481
0.00539844
-0.0373148
-0.18963
-0.000457008
0.0394906
-0.159236
0.041393
-0.0986455
-0.138412
-0.0044701
0.0070963
0.251744
0.00112525
-0.18088
-0.00030237
0.549517
-0.00884067
-0.187079
0.00109279
-0.0352907
-0.1722
-0.0711792
0.354417
0.00496852
0.337459
-0.169692
-0.359122
-0.00118142
0.233781
0.252068
0.00129718
1.39137
-0.0418117
-0.365646
0.062006
-0.0220615
0.0546611
0.000491315
-0.303421
-0.115333
-0.0235439
-0.00114716
-0.00600402
0.499929
-1.56489e-06
-0.00369027
0.000620961
-0.000195929
-0.0137346
1.54466
2.30863
-0.00293557
0.0328879
-0.000196336
-0.249662
0.0247369
-0.0584288
0.184688
-0.0113599
0.600444
0.0226205
-0.00755535
-0.00227771
-0.0359472
0.0522704
-0.00220051
1.19615
-0.0110371
2.10996
-0.113535
-7.27127e-05
0.505205
-0.00575944
-0.144791
0.7166
-0.021448
-0.105926
2.00584
-0.21107
0.0260855
-0.00097753
0.272813
-0.0414629
0.54316
-0.000360509
-0.146871
0.00499351
1.60375
0.0166514
-0.161415
0.188714
-0.0423096
0.44634
0.0813598
0.0590205
0.663298
0.00837606
-0.382002
-0.0420435
-0.0128599
-0.00386395
0.0532513
-0.220848
-0.00860309
-0.00566647
0.0432798
0.00563641
-0.1627
-0.00249171
-0.00346104
-0.0115103
-0.000493487
-0.339314
0.00798519
0.605074
0.000161356
-0.00399721
0.000499203
1.96617
-0.000502785
-0.275812
0.701964
0.671265
0.00234658
-0.0178762
0.0210331
0.0134264
-0.0857434
-0.217129
-0.175152
-0.111542
-0.0349004
-0.00311623
0.572606
0.179191
-0.0790341
-0.00784015
-0.322833
-0.2138
-0.0012441
-0.0376516
0.26549
2.00587
1.58406
-0.0224966
0.288506
-0.0592379
-0.0039809
-0.0019897
-0.12336
-7.71001e-06
-0.118451
-0.130061
-7.20156e-05
0.000282925
-0.218379
0.0815178
-0.130456
0.250494
0.000360001
-0.217281
0.1118
-0.105198
0.00108885
-0.207217
-0.00360272
0.937704
-0.00440241
-0.234406
-4.14927e-05
-0.00740787
-0.170429
-0.259756
-0.00288944
-0.145218
0.00089809
0.728085
-0.0696469
-0.14676
-0.261639
0.0340251
0.490139
2.17175
0.0590485
0.459802
0.00248401
0.000371431
-0.00146944
-0.138479
-0.000311667
-0.00875813
1.0404
1.88293
2.03727
-0.00537228
1.38865
-0.0354878
0.00511996
0.0564389
0.538523
0.0144996
0.00027577
0.389716
0.0685062
-0.382149
-0.36784
-0.379118
-0.134642
-9.56088e-06
0.00638927
-0.0456935
0.976493
-0.194213
0.245159
-0.178611
2.03091
0.0292922
0.649084
-0.000395797
-0.175247
-0.0214308
0.000190837
0.00706038
0.334608
-0.0223536
-0.368413
0.0565235
0.210637
1.49432
-0.0429629
8.57119e-06
-0.000522251
-0.134022
0.224165
-0.12507
-0.0571043
0.00867505
0.00351621
0.576292
-0.00036575
0.0725046
-0.00551744
-0.0372816
-0.0170563
-0.0226944
0.908844
0.0640227
0.0392129
0.166981
2.40409
-0.257594
0.949494
0.837461
-0.246582
-0.192598
0.0345902
-0.24709
0.0575787
0.611291
-0.0688933
0.000500016
-0.0371905
-6.82206e-06
-0.328974
-0.0163836
-0.0122845
-0.0394906
1.34883
-0.00186558
-0.000165584
0.876381
-0.356082
5.76872e-05
8.65774e-05
0.0082096
-0.259246
-0.000724021
-0.213265
-0.00208423
-0.160135
-0.160489
0.622873
-0.0242237
1.1879
-0.172278
0.00124952
-0.00540238
1.13677
-0.042784
0.0927023
0.000470997
-0.113395
-0.114449
0.000239972
0.0867394
-0.135981
0.0250958
1.53059
-0.000399505
-0.349404
-0.00597388
-0.00126466
-0.00299429
-0.024832
0.844152
0.0277325
-1.19963e-05
0.859772
-0.0683244
-0.00344257
0.0145145
-0.00798704
0.21981
-0.193108
-0.00143554
-0.0110139
0.357252
-0.154816
0.000404562
-0.400456
-0.150407
0.146386
-0.0845192
0.0761198
1.54852
-0.0363348
0.386896
0.596551
-0.00365632
0.00432779
1.07359
3.95213e-05
2.39005
-0.0142687
-4.78425e-06
0.663789
0.824632
-0.3438
0.316162
-0.199497
0.220966
-0.0335593
0.067208
-4.81021e-06
-0.0434249
0.419841
-0.137739
-0.0670632
-0.0161996
-0.248968
-0.0262442
-0.0172529
-0.00122237
0.26401
1.96677
-0.183717
-3.25329e-06
-0.000773951
0.00950227
-0.0101496
-0.402002
0.663923
-0.269793
-0.136405
-0.111457
0.143277
1.94562
0.000310885
0.217852
0.040461
-0.250304
0.0116967
0.35457
-0.0159972
-0.00596508
-0.0455775
-0.000814955
-0.000371601
0.385771
-0.0111259
1.27435
-0.000355908
0.268305
-0.0562847
-0.0976007
-0.12845
0.0783273
-0.370396
0.078975
-8.54991e-05
0.529489
-0.245436
0.0368606
0.486369
-0.271279
-0.063757
-0.142727
-0.184637
0.522727
-0.383901
0.543045
0.0111655
-0.104376
0.000913291
0.649659
0.102237
-0.00183529
-8.46776e-05
0.573161
-0.00633884
0.299159
1.25293
-0.338908
-0.000308564
-0.12418
1.58492
0.492806
-0.0351545
0.65652
0.903987
0.245655
0.00194251
-0.0116725
0.123839
0.824374
-0.145821
0.00824986
-0.00596372
0.000452013
-0.198124
0.34926
0.268951
0.702217
-0.113965
0.0106539
-0.137975
-0.140463
0.00268888
1.50829
0.176848
-0.319659
-0.00825518
-6.52249e-05
0.0408869
-0.240178
0.0120458
-0.00170936
0.580506
0.768845
-0.174686
0.516833
0.0405008
1.63978
-0.00876497
0.735556
0.104161
-0.00246895
-0.000122656
0.194133
-0.16728
-0.00596599
-0.0719079
0.963297
1.09787
-0.0975472
1.524
0.822498
-0.164191
-0.14449
-0.148488
-0.0223828
0.63922
-0.201076
-0.00216851
-2.0909e-05
-0.00525315
-0.128417
-0.0309493
-0.123512
0.0444435
0.315294
-0.007043
1.67597
-0.00828871
1.00255
2.15285
0.719896
0.139792
-6.47387e-05
-0.158665
0.0105554
-0.045789
1.60211
0.548698
0.556092
1.97396
0.0412615
0.214986
-0.141743
0.000201348
1.45642
-0.0275214
-0.0694801
-0.12589
0.0563493
8.79204e-05
0.010438
0.500309
1.02597e-05
2.13395
0.372539
-0.00266993
-0.00172006
-0.00763827
1.20487
0.539077
-1.19887e-05
-0.00787694
0.000450705
-0.00140512
0.00975562
-0.00774583
-0.0429698
-0.0217021
-0.0124279
-0.0459626
-0.00316699
-0.00262634
0.171994
-6.48566e-05
-4.56865e-05
0.149958
-0.0482629
0.0592674
1.29951
0.0594678
-0.00335796
-0.0440921
-1.46895e-06
0.0238739
-0.187607
-0.0159557
-0.266228
-0.00234417
1.02668
0.435993
0.68739
0.0874656
0.0714459
-0.103847
-0.0072339
0.000261622
0.0592465
-0.187384
0.0013904
-0.0790837
-0.000457709
-0.000114835
2.21004
0.566638
-0.00718152
-0.248416
1.11403
-0.124922
-0.0480465
-0.000145089
-0.16144
-0.0809956
-1.23618e-05
0.360635
-0.00014815
-0.00693565
-0.194658
-0.367584
-0.0305558
-0.03207
-4.32856e-05
-0.231839
0.0113791
0.716135
-0.168024
-0.000745493
-0.0322319
-0.00572471
-0.283889
-0.0548223
0.0998295
-0.0470529
-0.319549
0.552144
0.00670307
-0.000257625
-0.0167181
-0.0940016
0.460324
1.78111
0.0112326
2.32482
0.00170872
-0.199213
-0.360142
1.40248
1.49029
-0.0590483
-0.00922122
-0.124059
-0.000113723
1.87562
1.21446
0.426674
-0.204426
0.487066
0.513081
1.84759
0.867772
1.06423
-0.24215
0.128578
1.05208
-0.339567
-0.00850336
0.475098
0.138139
0.00426591
-0.102449
-0.00150403
0.0363251
0.00500586
0.0128195
-0.0560119
0.000287095
-0.159828
-0.0416956
-0.243645
-9.67925e-05
-0.0250016
-0.00044617
0.000119927
0.630237
-0.274755
-0.0722622
-0.00281629
0.0739998
-7.24604e-05
-0.000868094
-0.00324856
-0.00204624
0.0984602
-0.248996
0.00106924
0.55919
-0.0111637
-0.231875
0.246014
-0.0300926
-0.00881157
0.000169757
0.0947634
-0.208497
-0.0116912
0.000130609
0.0240055
-0.0787463
-0.129093
0.224757
0.00250204
-0.160751
2.13838
0.00531207
0.00693845
0.400215
-0.00318436
-0.00621685
-0.000240854
-1.24343e-05
-0.00091131
0.135046
-0.27206
1.64417
2.22167
-0.00249863
-0.000455285
-0.00220954
-0.154032
2.41389
0.720276
-0.345889
-0.209917
-0.000416953
0.00474783
-0.0640027
-0.00608179
-0.0208923
0.0680677
0.37854
0.163215
0.00978851
2.01701
0.0102495
0.00267147
-0.00819016
0.244691
-0.113813
-0.334148
-0.358917
-0.0447099
1.21715
1.57532
0.593882
1.10583
0.625687
-0.283374
-0.046437
0.0275492
0.810092
-0.170824
0.00212523
-8.08996e-05
-0.181139
-0.379527
-0.00463815
-0.0555362
-0.244687
-0.27578
1.53402
-0.0114534
-0.155808
-0.013428
-0.109054
0.891034
0.139407
0.0290596
0.0520125
-0.0787112
0.0176141
-0.0639398
-0.171927
-0.0272647
-0.275012
0.97353
-0.18087
-0.0862061
-0.0253615
0.948966
0.341079
-0.154894
-0.0532048
-6.71974e-05
1.09636
0.442545
0.0531165
0.0113749
-0.124683
-0.068972
-0.0118306
-0.271183
-0.0390963
-0.259333
-0.030921
0.0123376
0.000431804
-0.00164189
0.198764
-0.00010406
-0.0620139
-0.19245
-0.156829
-0.00153319
0.000363311
0.00109389
0.0116717
0.443346
0.0953423
-0.240193
-0.160763
0.230923
-0.0614646
-0.014275
1.87544
-0.063221
-0.0240884
1.46773
-0.0865904
1.33549
1.76499
-0.0565061
0.608657
-0.0746618
0.0580642
-0.0166837
-0.012566
0.0169177
-0.205132
-0.201258
-0.191663
0.0150266
0.753067
0.587449
-0.316756
-0.00217106
-0.00303734
1.02565
0.792492
-0.0474247
1.10371
-0.0523349
1.57095
-0.0283546
-0.0232214
0.384406
0.287499
-0.0011958
-0.00788524
0.875016
-0.14978
-0.000394103
1.99992
0.559812
-0.0122738
-0.299668
0.980737
1.95691
-0.0292509
-0.159853
0.00197749
0.0314536
0.00211535
0.0517884
-0.249525
0.00108538
-0.0826768
-0.364963
0.20558
0.618008
0.174038
0.856242
-0.207582
-0.0142785
-0.326081
0.178517
0.000624732
1.90056
-0.0303596
-0.0652141
1.84226
-0.173333
-0.236651
-0.00417034
0.372543
0.0562
-0.000104045
-0.0566714
-0.00117027
-0.0959475
0.92176
0.606687
1.55342
-0.377313
-0.163106
-0.00172962
-0.00870977
-0.00904152
1.06407
-0.00696174
-0.118335
-0.00106707
0.789285
0.303252
0.000627645
-0.00975557
0.471449
-0.00647261
-0.251184
-0.00529484
-0.0458441
0.0593365
1.64558
1.58782
2.03388
-0.056412
-0.0113399
-0.0677829
0.0698795
-0.00240704
-0.00455034
0.000277628
0.0561783
0.000548525
0.963472
-0.10066
-0.0837312
-0.230226
-0.000493218
1.02463
-0.0116068
0.870655
-0.00124994
1.93115
0.0100371
0.140165
0.0895476
2.30846
0.635987
1.78557
0.879884
-0.366167
0.312522
-0.094872
-0.153463
0.00152271
-0.204169
1.54574
-0.00208238
0.463685
0.315751
-0.00142192
0.70914
0.267491
-0.192502
-0.0519871
-0.0562694
0.0591726
-0.171379
0.173229
0.24318
-0.0104062
0.217407
0.1264
0.257473
0.227219
0.141598
0.0269647
-0.00225077
-0.21462
0.225243
-0.252242
-1.61225e-06
-0.0723079
1.77451
0.695263
-0.0810002
-0.163762
-0.219779
-0.00103682
0.245598
0.268285
0.656679
0.413614
0.0621284
1.42431
0.000346533
0.288742
0.863958
-0.00594234
0.00826033
0.227127
-0.00208939
-0.000591819
-0.112397
0.000172198
-0.014061
-0.00182367
-0.229582
-0.185835
-0.188804
-0.000808155
1.43493
-0.049742
-0.0322435
1.39449
-0.0826807
0.309445
0.0602422
0.969681
0.00154217
-0.000828234
-0.00648191
1.50029
1.29779
-0.411429
0.284028
1.43347
-0.0809951
0.1798
-0.23512
0.645094
0.174472
-0.00848614
0.00552179
-0.0661778
2.19933
-0.108588
-0.000911581
0.199617
0.483445
2.02645
0.322649
0.26184
0.629955
2.00717
-0.000342604
-0.128614
0.21552
0.426975