/*--------------------------------*- C++ -*----------------------------------*\
  =========                 |
  \\      /  F ield         | OpenFOAM: The Open Source CFD Toolbox
   \\    /   O peration     | Website:  https://openfoam.org
    \\  /    A nd           | Version:  7
     \\/     M anipulation  |
\*---------------------------------------------------------------------------*/
FoamFile
{
    version     2.0;
    format      ascii;
    class       surfaceScalarField;
    location    "3";
    object      phi;
}
// * * * * * * * * * * * * * * * * * * * * * * * * * * * * * * * * * * * * * //

dimensions      [0 3 -1 0 0 0 0];

internalField   nonuniform List<scalar> 
172549
(
202.157
49.1834
-251.34
-473.773
101.999
371.774
-110.959
-79.5777
190.536
113.841
-279.125
165.284
-435.014
323.753
111.261
138.053
-337.238
199.185
-162.903
282.556
-119.652
-86.0235
188.212
-102.188
-363.399
352.019
11.3797
-465.117
-8.65615
-230.017
354.536
-124.519
494.952
-360.239
-134.712
-170.456
341.34
-170.884
94.5579
-96.1139
1.55602
-43.9072
-319.492
-111.739
66.1121
45.6272
-456.086
86.4098
369.677
-411.639
76.9827
334.657
-139.752
286.908
-147.156
-332.001
-103.013
-77.9022
176.042
-98.1395
199.842
-197.758
-2.08414
392.9
-290.394
-102.507
161.107
-314.37
153.263
-254.259
216.689
37.5701
-113.563
213.824
-100.261
63.2344
67.5241
-130.759
-206.526
457.274
-250.747
-263.269
-175.886
439.155
-62.6292
96.9854
-34.3562
427.846
-342.06
-85.7864
-237.171
-68.0319
305.203
-268.586
404.083
-135.497
-101.347
-77.458
178.805
-101.47
-90.3725
191.843
182.207
95.7334
-277.941
-214.616
73.7441
140.872
-99.6072
-356.479
105.42
-131.744
26.324
96.8997
208.239
-305.139
155.152
-392.323
-57.5496
-354.09
-130.188
-38.6654
168.853
-119.351
301.559
-45.0371
105.757
-60.7198
-2.83918
97.3971
265.759
62.6606
-328.419
541.716
-302.261
-239.455
397.398
-147.096
-250.302
414.103
-534.033
119.931
-390.721
478.201
-87.4801
280.467
-101.927
-178.54
-463.735
321.759
141.976
-504.398
451.002
53.3963
-117.854
-167.321
285.174
-308.6
-155.135
544.954
-359.458
-185.496
-135.814
80.9917
54.8227
79.4639
69.9657
-149.43
130.603
-231.651
101.048
-515.38
327.452
187.927
-186.293
332.245
-145.953
346.177
-129.455
-216.722
-107.054
188.015
-80.9615
295.905
87.1669
-383.072
9.38943
-400.979
391.589
-351.968
196.714
155.253
-213.503
389.724
-176.221
72.8092
-135.769
62.9599
-526.249
250.055
276.195
-114.435
193.093
-78.6583
182.638
-139.982
-42.6562
356.227
-259.328
-139.06
69.8748
69.1851
-85.2115
-94.97
180.181
82.9621
-167.819
84.857
-192.718
46.382
146.336
202.123
-403.133
201.009
-261.593
-121.382
382.976
-276.933
205.967
70.9662
-73.2666
-203.666
429.788
-432.786
2.99802
49.9529
-85.7599
35.8071
-302.581
551.653
-249.072
-137.742
241.362
-103.62
342.48
152.472
-112.079
179.974
-67.895
-324.475
472.878
-148.403
107.223
-120.681
13.4577
-86.6876
441.521
-354.833
122.067
-2.98745
-119.079
203.457
-19.7018
-183.756
206.527
-469.796
221.68
50.0152
-271.695
-420.683
315.343
105.34
-574.841
416.809
158.033
262.04
-321.892
59.8519
98.3938
-48.441
77.4466
-149.002
71.5559
-0.485247
107.709
-314.456
-200.923
195.206
-428.354
233.148
327.55
-180.048
-147.502
-484.656
498.494
-13.8379
87.3478
-201.783
165.518
-83.7712
-81.7466
-502.831
302.394
200.437
-31.3884
99.9036
-68.5152
-146.086
225.724
-79.6379
-311.328
-71.149
382.477
-116.024
218.708
-102.684
-54.6675
316.708
-163.523
-29.1954
137.254
104.301
-241.555
-130.226
47.4774
82.7489
206.853
-345.943
139.09
-307.627
77.6102
-76.9604
202.757
-125.796
364.001
-541.565
177.565
45.3133
137.325
-194.174
117.214
-71.4687
-40.2705
-224.903
114.772
110.131
41.9652
-158.034
116.069
-230.663
532.609
-301.946
-107.091
44.4614
-265.873
79.5808
-121.791
63.0012
58.7896
-181.3
-41.7271
223.027
-498.694
501.281
-2.58765
-98.1479
227.059
-128.911
567.094
-287.713
-279.381
-166.136
169.846
-3.71014
538.912
-196.432
-329.441
480.845
-151.404
-138.058
228.082
-90.0232
-268.806
199.709
69.0976
59.9533
-328.539
149.171
-267.025
182.778
149.467
76.5543
42.2435
-118.798
-189.273
340.939
-151.666
502.972
-504.531
1.55971
370.542
-195.233
-175.309
-257.735
159.587
141.96
-532.681
436.184
-327.628
-108.556
-116.625
-149.249
-441.882
228.379
-227.107
-166.93
394.037
111.71
53.8079
52.7419
-97.779
7.07683
196.381
-567.956
273.278
294.678
133.415
147.052
-356.298
425.299
-69.0012
-412.196
100.869
-65.3893
208.558
-143.169
135.413
-135.543
0.129913
-151.515
103.483
48.0313
153.484
-70.5223
139.474
296.709
158.431
187.747
-185.841
149.438
36.4035
264.814
-146.596
-118.219
139.901
173.59
-313.491
436.541
-251.97
-184.571
-55.501
-110.3
165.801
-179.768
114.379
-243.038
127.162
115.876
-242.648
158.581
84.0675
-98.7543
364.513
-91.2117
-23.2295
114.441
26.6205
66.2164
-92.8369
-65.8805
-87.3623
153.243
214.514
-427.949
213.435
-77.9192
104.54
194.47
85.2958
-279.765
117.82
-332.946
215.127
278.043
119.356
-284.392
-132.657
417.049
-187.233
102.022
124.8
-249.998
125.198
-199.092
405.083
-205.991
-256.665
-246.167
-162.362
384.896
-222.535
95.0248
-262.364
167.339
311.805
188.195
-129.257
317.784
-188.527
116.378
5.68904
-105.673
300.142
-338.706
190.662
148.045
448.597
-149.237
-299.36
-206.226
116.46
89.7656
-220.344
106.781
77.815
-129.967
52.1525
21.0001
-98.9192
-173.991
164.818
9.17279
58.7829
-150.057
91.274
77.3946
140.952
-218.347
-559.98
380.032
179.947
-211.167
362.544
-151.377
357.275
58.6751
-415.95
481.28
-479.316
-1.96441
-339.346
169.091
170.255
138.382
-93.9869
-44.3956
370.061
-271.602
-98.4582
-87.2871
383.192
-207.975
-194.502
402.477
102.938
-206.738
103.8
-74.0969
95.097
26.5957
275.798
8.98464
-263.243
-384.202
297.514
-158.761
-68.4706
227.231
-88.5581
-117.668
-98.0503
242.596
-144.546
-185.136
-133.919
319.055
84.2179
-87.0571
-123.55
-261.509
385.059
136.24
3.97415
-140.215
138.597
-2.73091
-135.866
137.298
-330.142
192.843
-77.0821
141.76
-64.6779
-73.544
-430.854
-198.194
37.8645
160.329
-195.673
-84.4117
280.084
187.733
-68.5418
-119.191
137.684
-59.8691
-353.132
89.8918
263.24
-1.30192
-407.055
408.357
65.6617
-119.436
53.7742
38.4302
-112.392
73.9613
88.1092
-178.151
90.0421
-229.236
123.399
105.837
-225.181
-334.799
-641.705
285.413
356.292
391.849
-206.092
-185.757
-50.0257
158.891
-108.865
240.314
-166.731
-73.5832
-39.88
137.271
-97.3911
-290.527
159.777
130.75
-109.616
-41.8983
139.992
-62.5452
278.57
-217.53
-61.0398
-235.271
407.559
-172.288
435.528
-214.468
-221.06
137.544
-88.433
-49.1114
-161.8
106.299
-63.2539
-37.5533
100.807
206.196
279.052
-485.249
-370.834
241.375
129.459
222.863
-522.346
299.484
387.416
-237.409
-150.007
123.456
-94.7367
-28.7198
-3.85844
-280.534
-68.6966
164.834
-96.1373
-555.412
296.177
259.236
503.613
-503.613
-180.552
94.529
368.438
-372.297
-4.27227
88.4902
-467.37
268.278
-115.436
109.926
5.50988
37.0031
-183.089
258.703
-144.862
-98.0358
140.001
179.813
-280.28
100.467
97.2744
90.2125
-187.487
-94.4624
193.213
-98.7505
415.22
-131.522
-283.697
-319.936
190.679
427.649
-149.606
-215.999
-74.5282
141.167
178.288
-319.455
-191.021
104.136
86.8845
40.7115
-100.47
59.7584
-168.785
102.905
-249.635
297.888
-48.2533
81.7902
-113.179
-125.058
-60.783
97.2703
184.845
-404.835
219.989
69.3642
69.0183
456.517
-254.453
-202.064
173.645
203.282
-376.927
46.022
-244.216
489.478
-499.184
9.70524
118.702
-64.9811
-53.7212
92.024
-135.272
43.2484
109.961
-69.2498
-500.321
66.124
434.197
-155.364
26.7607
128.603
354.376
-327.78
-258.72
409.624
-150.904
-475.403
301.392
174.011
364.602
-244.511
-120.091
-133.348
-209.282
342.629
-162.505
345.22
-182.715
-214.855
120.392
-74.2649
-23.037
97.302
104.939
-192.442
87.5028
-54.6406
123.592
-68.9509
310.124
-192.992
-117.133
81.7163
44.2116
-125.928
-122.437
267.448
-145.011
-248.851
158.578
90.2731
114.775
72.9579
89.8209
-111.601
21.7798
-168.884
286.704
-91.8247
-188.12
279.945
104.86
24.2303
-129.09
-94.6036
146.258
-51.6544
-151.504
101.478
-330.618
160.162
-181.949
346.023
-164.074
351.749
96.8482
177.118
-412.389
273.684
-112.577
-165.898
114.37
51.5272
-8.50166
-167.894
176.396
262.832
-386.382
-59.6182
416.893
-32.5067
-97.7196
172.561
68.5638
-241.124
-145.7
61.263
84.4369
-365.992
9.69368
189.397
-400.849
211.452
30.1743
-104.439
-140.952
-14.4119
194.743
-286.567
-432.876
-67.4442
141.486
229.676
-371.162
219.082
145.52
147.486
-65.6032
-81.8832
173.354
101.36
-274.715
-241.793
156.967
84.8259
80.3478
-357.621
277.273
353.073
-215.02
243.727
-148.702
86.2288
107.391
-193.62
-127.319
257.912
-130.593
119.752
-56.5179
93.5166
-183.979
90.4622
267.01
-88.44
-178.57
-169.414
-213.352
382.766
-174.278
-75.3576
-88.8874
-16.1953
105.083
82.7323
47.8332
-130.566
320.688
-174.806
-145.882
-196.877
30.7414
-501.56
346.783
154.777
360.918
7.52033
171.096
-290.92
119.824
182.624
-105.229
184.784
85.81
-270.594
-42.844
245.001
-105.321
-299.56
404.881
-170.971
388.692
-217.721
-115.771
257.296
-141.525
-169.04
268.719
-99.6788
147.092
-94.9224
-52.1699
-155.282
-59.3341
-162.352
90.5588
71.7929
256.04
-145.828
-110.212
-438.081
332.76
-162.3
165.091
-2.79053
-187.598
110.354
77.2441
304.321
-167.023
-168.961
473.041
-304.08
186.719
-88.3844
-98.3342
59.9071
76.1463
-136.053
74.5228
63.0216
25.6906
229.977
-255.668
88.2025
98.8256
-187.028
61.4328
305.941
-367.373
145.601
510.39
-96.2871
226.294
95.5218
-321.816
-133.5
290.816
-157.316
137.676
-72.0147
213.722
-121.98
-91.742
-77.6322
201.998
-124.365
132.3
-248.071
393.776
-220.131
-371.349
369.359
1.99029
122.78
-84.3494
-57.7361
-42.2157
99.9518
488.041
-164.288
-69.0603
180.722
-111.662
-221.722
415.777
-194.055
258.497
182.007
-440.504
67.5906
-179.669
-449.801
243.274
-20.1842
158.781
-325.146
187.99
137.156
5.61046
84.2104
-316.621
-131.723
448.344
268.301
159.348
-77.6445
-83.8962
161.541
100.369
0.367871
-100.737
-242.758
354.987
-112.229
106.644
-110.311
3.66747
-143.521
378.184
-234.663
-111.675
116.233
-4.5585
57.7709
112.906
-170.677
142.044
-471.485
-172.014
262.18
-90.1656
-96.1141
239.196
-143.082
-134.027
198.613
-64.586
254.677
-159.658
-95.0183
-275.075
86.9548
237.827
-407.241
-38.711
214.143
-175.432
-226.362
88.6202
197.812
100.077
381.329
-113.028
67.0534
-124.466
57.4125
353.322
69.926
-423.248
-197.265
404.192
-206.927
-232.839
-267.158
22.8527
-96.9496
601.443
-379.218
-222.225
-55.1167
130.412
-75.2953
-144.369
49.7649
289.532
-381.796
92.2647
-125.512
183.282
-392.988
370.296
22.6921
324.252
220.702
147.367
157.883
-305.25
-504.068
382.363
121.705
-352.665
426.188
-73.5234
-99.2663
253.322
-154.056
182.623
-67.8481
130.366
179.758
124.598
-296.612
-128.188
265.756
-137.568
382.736
218.707
336.293
-330.44
-5.85301
325.16
-529.51
204.35
341.662
-139.539
-101.331
-397.362
56.8074
-210.347
153.54
80.5424
-158.187
357.516
99.0008
170.131
-81.4264
-88.7043
238.495
169.064
134.605
233.696
-368.301
-110.677
369.174
405.337
-190.824
-399.309
7.33493
391.974
-291.2
-180.969
472.169
421.5
-291.872
-129.627
489.14
-248.81
-240.33
-65.2133
-96.5867
-60.9404
273.645
-212.705
64.6324
72.7382
-137.371
85.4895
-144.106
58.6164
156.407
144.821
-301.228
-185.98
31.4661
154.514
19.7113
86.9327
412.003
-173.508
374.989
113.052
-278.85
-132.152
411.002
-37.5478
142.408
-169.059
91.1565
-160.287
-219.996
380.283
-25.1973
91.4137
-38.1295
-147.851
166.33
-457.53
196.511
-38.0106
-56.3909
94.4015
219.94
-61.0492
-93.0339
-46.0261
-254.897
126.709
-98.7793
271.34
-324.718
499.957
-175.239
261.38
-421.667
391.635
-196.43
105.601
188.151
-293.752
-136.406
76.3683
60.0377
-367.32
488.639
-121.32
307.418
-227.07
554.049
-227.297
-326.752
113.433
106.507
358.844
-116.759
-242.085
-271.872
434.54
-162.668
132.968
-231.779
98.811
-176.239
31.3701
144.869
-142.292
-72.563
137.838
-387.344
249.506
11.4856
-121.129
109.643
454.217
-196.578
-257.639
301.161
-469.523
168.361
-227.75
189.039
91.5917
95.1269
104.974
-4.02247
-100.951
254.279
-117.025
250.656
141.193
323.397
-180.389
-143.007
-327.151
217.691
109.46
-489.7
388.259
101.441
185.806
-97.6964
-117.824
182.953
-65.1289
-173.095
-75.7561
340.11
-50.578
121.137
9.9535
-131.091
-117.17
203.399
-119.696
79.8157
-520.817
358.23
162.588
311.962
-140.866
226.984
160.432
160.744
-398.153
-474.617
238.099
236.518
-244.808
156.772
88.0353
112.483
-37.8046
-74.6789
-218.906
-203.181
422.087
100.438
138.595
-239.033
-407.105
282.66
124.446
-272.326
-134.779
-560.899
373.077
187.821
-278.826
105.731
585.721
-299.652
-286.069
-147.043
-178.389
325.432
-134.1
139.532
-5.43225
-166.663
275.379
-108.716
-255.07
155.804
-412.717
323.788
88.9293
95.7506
89.4338
-185.184
-368.249
195.574
172.675
-110.887
-131.761
144.683
-103.428
-41.2554
276.766
104.562
573.965
-316.407
-257.558
253.319
-519.76
266.441
58.302
-120.943
62.6406
99.9727
5.0008
-60.93
147.951
-87.021
272.967
300.998
73.7744
-175.121
-278.16
150.841
111.546
-38.7364
107.142
148.897
347.274
82.5139
110.718
71.9049
44.7785
-188.507
143.729
365.253
-514.222
148.968
-60.852
326.09
-265.238
-34.7238
120.213
174.482
379.568
-147.939
358.98
-211.041
55.6603
-158.929
103.269
-340.903
-300.802
-69.6203
-32.4945
102.115
7.162
-141.262
-108.466
119.951
178.981
-85.4644
180.584
-327.627
-141.909
82.9648
58.9441
-351.684
-87.8112
439.496
-338.281
521.845
-183.564
109.541
-370.176
260.635
39.1325
-128.945
89.813
-100.983
-252.149
276.688
120.595
-397.283
171.397
-114.589
251.378
-140.856
-110.522
546.476
-175.705
-370.77
-365.384
49.88
315.504
331.69
90.6377
-422.328
-472.202
491.699
-19.4968
-146.099
-78.8043
-87.8867
185.161
142.019
181.377
245.556
-526.61
281.054
376.723
-367.334
455.873
-179.185
552.798
-298.712
-254.085
-223.918
246.279
-22.3614
-51.5244
172.662
-73.4148
-263.655
337.069
56.7692
446.844
-61.9553
-89.5486
139.233
-74.6004
308.228
-151.822
135.116
52.8739
-187.99
166.482
-227.422
-64.5168
-91.1081
155.625
552.654
-552.654
-2.70488
-108.97
281.845
-169.796
-112.049
-304.19
-171.213
-161.422
96.2087
-365.767
-118.889
-67.7578
127.665
212.706
-301.087
174.211
126.877
1.76268
-394.751
129.913
91.4247
-221.338
83.6072
109.606
116.076
-39.5219
-64.3973
-300.987
56.3466
-231.345
174.998
-6.5417
-392.767
-298.545
150.607
-131.711
-184.63
316.342
102.593
250.232
-352.825
-328.36
500.846
-172.486
-80.8175
-34.6185
-65.7158
97.3651
-31.6493
-102.345
183.44
-81.0946
228.135
168.863
-396.998
310.198
-204.598
406.16
-187.078
-304.338
-199.73
129.976
-269.728
-179.104
77.6336
-412.945
308.115
104.83
84.0538
-435.738
89.6338
140.279
-229.913
-222.567
-152.715
375.282
39.963
-94.6036
110.749
-148.297
-106.317
-223.017
329.334
-301.814
240.962
-95.1772
-57.089
152.266
-188.368
104.297
84.0719
358.113
-517.082
158.969
316.774
-207.347
-109.428
152.821
282.707
102.885
72.1336
-175.018
387.267
-160.283
146.879
-514.199
241.295
-184.948
151.929
164.846
-64.6934
-348.252
210.308
-369.397
159.089
406.493
-233.962
-172.531
74.5997
-260.623
186.024
-229.168
-10.134
239.302
57.1471
-142.588
85.4413
85.346
-163.121
77.7746
193.496
212.665
-47.6302
147.999
-334.119
418.173
135.766
234.137
-369.902
-102.714
309.567
72.1691
99.3306
-171.5
41.7694
-314.711
272.942
-140.998
148.16
278.73
-457.804
179.075
-87.7257
222.842
280.961
-455.258
196.537
-114.039
-4.87695
118.916
30.1015
120.987
-151.089
224.636
229.581
-106.552
178.721
340.056
-28.5158
-311.54
-124.012
444.718
-320.706
101.905
290.995
45.5505
228.095
313.168
132.022
-445.19
328.732
-267.389
-61.3424
-32.5848
-129.715
-207.739
69.6803
-82.5582
-30.1384
112.697
12.2343
-94.7924
-307.04
173.54
-76.3985
-165.949
242.347
211.478
104.35
-315.828
-222.594
-47.6639
270.258
-152.556
90.6002
81.0281
-183.374
-83.9352
-318.672
402.608
-71.02
-144.979
517.367
-238.637
-73.4107
67.8839
58.7908
-126.675
-185.316
76.2706
109.046
77.7695
-94.3879
16.6184
105.712
173.406
-279.118
-189.341
108.938
80.4033
-132.718
317.502
-93.6851
-119.038
212.723
-321.464
-204.785
-241.521
131.299
110.222
-229.281
527.003
-297.722
436.775
-298.937
-72.2226
-95.7961
168.019
-79.7286
109.903
-184.987
323.154
-138.167
-120.451
264.624
-144.173
163.041
-64.4046
-98.6367
-249.526
359.067
133.599
-80.8932
-52.7056
-274.272
280.19
-5.91813
-270.044
107.141
198.651
7.31178
-205.963
-193.111
377.539
-184.428
129.084
-63.3034
-65.7807
225.409
-462.911
237.502
-497.837
173.362
166.465
-30.2242
-142.267
1.2691
-191.709
92.241
99.4679
-148.956
359.264
139.241
-83.5812
80.9776
-415.096
-50.7137
-54.6695
105.383
-105.471
-509.239
357.386
151.853
248.079
80.653
-305.558
-160.86
466.418
-76.2195
298.801
84.8903
-140.007
-57.2202
-133.8
-230.923
-239.798
470.721
-197.31
-243.028
440.339
-275.321
260.822
14.4993
312.073
-250.64
-299.775
-201.785
340.839
-509.8
91.4357
100.01
-191.446
-383.422
211.537
171.884
158.328
216.661
-80.7856
145.327
-64.5412
-330.36
526.166
-195.805
-173.448
125.126
48.3221
-135.429
59.4352
75.9941
50.9246
-116.64
-63.7962
395.487
82.9114
62.9037
-145.815
496.432
-183.263
-135.053
259.853
-318.904
156.399
-287.078
287.078
-140.036
229.67
-548.793
281.521
267.271
-257.494
-86.2081
343.702
188.144
-143.366
-110.22
118.957
-8.73663
-239.269
70.2293
123.312
-483.551
50.0325
68.6698
-126.2
-318.53
444.729
-232.498
368.263
-238.983
140.933
500.565
-245.011
-255.554
-191.625
-37.5429
147.7
-327.748
-568.329
398.412
169.917
-283.89
-158.578
-204.367
38.0147
166.352
-32.4252
-118.439
150.864
136.983
117.296
-88.8298
120.321
-31.4908
-3.83825
83.0041
-79.1659
223.392
-222.429
-0.962742
212.943
-337.847
124.904
50.8918
-168.715
-72.1267
-155.623
106.588
-201.552
94.9642
-393.37
-260.41
321.87
-61.4603
86.1265
42.9576
-4.18664
-141.308
145.494
-149.791
-202.176
155.536
-386.608
231.072
-175.142
102.92
82.4595
45.3335
-127.793
42.6139
-137.791
-146.909
225.508
-78.5989
146.803
108.979
-255.782
-150.074
-285.17
435.243
171.125
-421.732
250.607
98.1878
-145.329
47.1412
-540.725
308.918
231.806
464.779
-323.383
-141.396
-501.517
176.799
-111.307
108.602
-73.1129
-95.9458
294.674
-405.351
-344.52
-130.096
-177.459
-123.628
-380.812
155.957
224.856
-207.99
136.97
-46.381
307.422
-261.041
-95.7467
-242.68
131.793
166.325
95.8236
-262.149
258.824
-454.505
195.681
193.867
-90.9298
-315.282
107.935
225.347
-94.7448
-327.587
-112.132
439.719
383.521
-227.985
-331.896
336.52
-4.62393
-68.8423
125.272
-56.4293
-379.903
166.552
-312.626
126.44
186.186
135.521
-135.521
-194.851
-256.13
450.981
471.535
-390.558
67.659
-263.332
4.03903
336.017
338.267
208.209
-232.89
-46.7128
279.603
118.788
6.72867
-125.517
-74.481
141.696
-67.2155
-179.1
104.437
74.6632
-323.009
-244.947
-151.686
87.1697
117.156
-49.2726
-272.59
-302.252
-147.347
86.4169
131.984
209.355
76.6778
33.489
-110.167
-45.1639
124.801
-79.6369
379.671
173.127
-162.371
-116.455
-336.307
-172.932
-155.824
-101.634
257.458
-69.3611
-272.757
342.118
-335.02
170.387
164.633
-91.8643
-104.669
196.533
337.853
-505.026
167.173
209.213
-354.665
145.452
229.088
-407.631
178.542
-84.1534
-51.661
-238.118
165.991
166.522
-395.054
228.532
-134.737
102.312
-378.94
167.774
-204.601
362.929
-68.9745
130.113
-61.1387
88.7497
-130.742
41.9925
31.6965
-94.9504
-153.909
366.851
483.498
-465.546
-17.9519
-98.7588
137.891
-78.6766
138.5
-59.8231
260.933
-455.784
-52.7008
151.806
-99.1047
-149.473
289.374
390.877
-507.238
116.36
221.713
72.7194
-294.432
58.1292
-104.006
45.8772
-33.1404
110.91
58.8189
37.7826
-96.6015
-37.9122
141.159
-103.246
-10.8038
161.503
-150.7
178.556
-71.9687
386.231
-135.575
-60.1651
261.657
-201.492
-303.719
-48.9459
182.531
-98.7336
-83.797
187.332
-289.744
102.412
-239.973
-147.081
387.054
-73.6061
162.356
-270.863
155.401
115.462
228.553
-344.975
116.422
-324.412
201.799
122.613
252.803
-136.212
-116.591
-130.498
59.3484
71.1494
182.012
-389.987
-99.704
-78.5332
178.237
-47.8456
-134.082
181.927
79.941
-228.847
148.906
-105.693
193.895
187.528
-99.1687
-88.3598
-64.1546
-105.467
169.621
-45.0706
155.82
-163.967
-117.538
281.505
-304.848
-8.65461
313.503
59.5958
-108.056
48.4602
170.828
96.1812
119.351
105.997
-108.264
109.069
-0.804676
-204.367
-55.6409
446.518
0.495391
104.924
377.618
12.3301
-389.948
385.635
-325.682
-470.812
171.036
42.4378
57.885
-100.323
-135.469
-30.4288
82.743
-260.093
177.35
108.262
-368.671
-178.034
-33.0015
254.714
-65.7342
264.385
253.96
151.123
-400.095
206.985
-146.476
65.6907
383.486
-160.623
224.315
-90.3882
-133.927
259.129
-328.49
289.219
-175.61
-113.61
196.566
-180.877
-15.6884
113.826
-54.2301
-215.021
-235.685
450.706
-188.924
38.8437
150.08
491.285
-484.229
-7.05651
231.159
-61.8259
-169.333
241.849
243.042
-484.891
256.264
-176.323
-165.894
301.542
-135.648
-160.293
307.659
-135.604
221.013
-85.4095
-189.809
-149.537
64.5683
-140.113
75.5448
99.2705
-192.956
352.027
119.509
-260.617
-152.1
-54.7479
-130.568
119.138
-42.4605
-172.707
275.887
-103.18
-60.4402
139.904
120.646
-45.4158
-75.2301
-139.029
74.8748
-581.739
366.934
214.805
65.6514
-126.342
60.6908
-179.314
262.057
-69.0176
134.495
-65.4776
73.9702
46.6757
-142.409
363.824
-221.415
-118.736
-93.1037
211.84
-57.5696
-42.3758
99.9455
338.443
-145.634
-192.809
228.518
-78.3638
-150.154
-379.765
-313.372
-157.44
-50.4073
-89.2156
139.623
113.228
-299.87
186.641
131.558
-66.9895
-108.623
-2.6837
153.158
-414.751
312.567
-94.8759
-160.8
91.7397
-159.597
82.4172
77.1794
338.898
-129.685
162.014
-130.072
-31.9418
-79.3662
-80.2305
49.3386
-118.437
69.0981
89.6254
-162.738
115.182
-64.5943
-105.119
169.713
-87.1836
212.8
-125.616
104.712
-24.2955
-80.4161
-269.378
-35.4708
125.691
88.031
-90.3941
10.6654
-100.758
202.839
-102.081
-95.9962
102.352
-6.35576
-102.761
-78.44
-96.5402
174.98
483.224
-385.691
-97.5324
414.616
-119.943
130.733
-100.631
-425.694
463.886
-38.1924
-179.353
305.84
-126.488
-232.749
300.408
100.011
87.5172
-73.5807
-114.017
-93.083
272.896
-138.879
282.474
-143.596
37.4036
50.3826
-87.7862
-285.292
154.887
130.405
120.242
-61.9403
-76.595
-63.3872
-214.36
-186.276
400.636
138.986
344.237
-455.327
258.016
240.375
-240.375
-92.6881
91.2956
1.39251
185.154
-101.509
-83.6447
246.001
-540.002
294.001
183.53
154.913
-252.78
356.542
-103.763
115.662
-50.0108
-205.668
130.653
75.0152
156.96
330.238
-487.198
254.891
-117.908
-317.288
159.968
157.32
80.2418
-174.017
93.7748
279.859
150.841
-430.7
-214.73
95.994
82.7249
-148.907
66.1826
141.203
-179.115
-169.447
397.582
-184.126
98.3851
85.7409
176.465
-105.931
-70.5339
-90.6545
361.232
-270.578
333.495
-167.013
-45.0412
106.059
-61.0179
181.458
175.285
-356.743
-206.483
-248.844
-90.7811
349.605
99.1603
-185.597
86.4366
-205.099
399.491
-194.391
148.391
-68.1497
318.891
-219.569
-99.3215
127.632
-60.5786
-220.086
-144.656
75.6811
-620.245
303.838
132.609
493.616
-501.535
7.91887
202.358
189.1
-391.458
116.186
45.8283
-366.165
-123.535
140.208
-148.71
11.2104
-286.532
-20.6911
-114.131
134.823
161.097
-295.503
134.406
105.863
282.396
-135.82
87.9087
47.911
50.5677
-184.649
52.7149
-92.9956
40.2806
263.534
95.3096
263.34
-175.221
-88.1196
131.544
-74.3965
-387.3
271.449
115.851
-260.078
-360.167
183.653
47.5057
143.47
-454.058
310.588
-55.4793
-83.4988
138.978
35.7099
-127.898
92.1877
291.288
209.276
-1.83018
379.448
-72.4501
-59.2937
420.72
-140.861
63.8269
-119.226
55.3987
-463.009
259.199
203.809
-201.855
-245.042
446.897
-366.487
566.486
-200
281
146.847
-173.792
250.019
-76.2275
-153.3
253.738
352.071
-277.155
-74.9161
-180.587
291.176
-110.589
-186.598
-152.108
-85.5443
-192.859
278.404
71.0307
43.8091
-114.84
175.381
-79.6309
440.396
-378.816
-61.5799
-172.107
101.089
71.0173
81.3118
264.674
-345.986
114.534
-32.0747
347.567
92.8283
-62.6488
145.374
-101.956
-33.864
-225.965
514.169
-288.204
5.29735
191.603
-196.901
217.988
-384.827
166.839
-82.8905
-42.0917
124.982
289.626
96.6045
-86.2317
-23.4039
109.636
-148.772
136.526
12.2462
-176.308
113.186
63.1223
182.823
384.271
102.319
-43.5005
-266.669
-120.631
228.684
-443.705
413.727
-509.852
96.1252
59.0934
223.375
-31.8311
-191.543
115.513
-66.1742
80.8916
-408.478
-77.9835
-89.1997
167.183
104.659
-11.2305
-93.4285
-117.483
28.596
123.371
131.306
154.859
-328.249
173.39
-93.3332
163.96
-70.6266
152.316
-357.416
346.66
-233.432
341.934
-82.8052
-356.844
-198.568
-288.341
465.205
-176.864
429.271
-324.308
-104.964
-8.98749
-337.427
346.414
-335.641
-176.591
512.232
-169.417
-6.82161
87.5008
-34.7858
-501.651
261.059
240.591
-184.359
-84.4476
-84.131
-46.3668
-45.0162
143.204
-88.7087
158.674
-554.636
382.76
171.876
98.4435
-163.038
-24.6646
92.5734
-67.9088
181.647
-146.39
189.014
-312.896
123.882
322.602
-255.605
-66.9973
87.413
-397.454
310.041
216.828
-97.4778
114.418
255.643
-95.3683
-93.0001
110.411
-52.2818
474.918
-299.091
-175.827
-267.334
364.041
-96.707
-111.903
192.316
282.602
-417.832
31.8678
385.965
-283.993
-183.377
132.792
-207.343
74.5506
-134.266
-71.2533
205.519
107.568
211.17
-318.738
44.7497
-264.341
-237.31
-82.2445
-32.0284
114.273
-205.147
326.282
-121.135
479.42
-173.479
406.406
-59.6225
-286.268
163.831
96.1328
8.52619
-268.993
-36.3039
305.297
56.9292
-373.55
-408.902
137.03
131.376
-17.1002
-114.276
177.557
-266.974
89.4169
-109.616
256.418
-458.718
334.706
-72.2308
-70.3576
497.229
-149.662
-240.628
406.778
-166.15
215.675
-333.982
118.307
469.944
-111.831
42.6303
80.8261
-309.526
135.734
343.478
-185.3
-158.178
-175.531
295.873
-120.342
132.217
347.202
163.178
-267.838
104.661
389.85
-107.191
361.928
128.368
-490.296
329.283
-226.251
-103.032
473.31
-502.232
28.922
125.902
-94.9512
-30.9508
343.044
-240.451
-9.0765
-104.962
-80.2297
-182.874
263.104
41.5411
-110.915
69.3738
-136.507
59.9118
-307.195
474.401
-167.206
-87.3498
-54.5591
-194.61
199.907
112.133
31.6364
-109.785
78.1489
289.164
2.03543
-291.199
-136.969
86.4958
50.4729
-100.806
454.128
173.07
116.149
-142.628
303.726
-236.893
159.26
334.898
50.7368
-160.502
-156.785
16.3821
227.345
-245.731
83.36
-141.589
241.555
-99.9659
53.7674
-121.525
406.429
-204.07
-369.365
376.358
-6.99263
-132.401
494.329
68.859
-141.141
72.2818
118.348
-68.6714
-142.418
211.089
-151.409
188.269
-72.0829
96.368
9.20696
-105.575
71.0317
-119.885
48.8532
-245.052
148.938
-100.872
-68.6504
169.522
-267.758
-294.272
128.358
165.914
120.25
-84.5396
47.6121
-113.083
65.4709
48.6812
-182.947
136.323
131.125
-96.0698
252.666
-156.596
-133.226
84.1809
49.0447
-70.5698
186.468
-115.898
-375.378
213.016
-178.588
360.046
153.152
-272.016
118.863
233.743
175.631
-409.374
-58.4415
-32.1439
90.5854
331.468
97.8033
324.403
-148.172
-176.23
-157.582
406.193
-248.611
164.7
-70.9647
325.726
-254.761
327.681
121.679
-449.36
474.56
318.548
148.339
-466.886
249.307
-455.79
193.057
-31.9294
-161.127
-338.153
185.743
152.409
-108.843
10.0565
98.7862
94.6974
17.6199
-112.317
-71.3825
-65.0236
13.7734
-383.138
-356.409
214
61.1001
193.306
-254.406
-377.993
307.028
222.816
122.942
-345.758
-63.4878
108.542
-45.0545
-101.839
-141.758
243.598
568.734
-256.93
63.4413
136.401
-133.317
-278.732
412.049
-121.533
172.1
-223.177
382.253
-159.076
-350.928
40.1637
310.764
-177.887
-279.179
457.066
-53.7674
-81.662
-564.247
366.72
197.527
301.216
-183.124
-118.091
-123.678
346.494
-169.421
68.5495
111.968
-189.952
134.506
89.8091
-163.518
-490.524
250.998
239.526
-158.779
79.413
-266.964
97.1683
-294.272
-287.467
-58.1291
-243.685
95.3543
-332.054
236.7
-203.736
-176.421
69.1035
107.318
-241.636
-73.646
-112.858
-41.7921
154.65
-53.0571
-45.8327
98.8898
-310.347
219.692
4.09756
-80.7415
76.6439
158.401
-190.232
153.281
-365.368
212.087
7.56985
-276.563
-191.968
316.702
-124.735
-232.379
243.589
106.403
-133.226
-89.6607
222.887
396.707
-405.694
100.812
-63.4086
285.397
189.508
-474.905
-80.2041
-78.5751
-78.2637
273.006
364.973
-366.803
97.757
-3.05962
409.289
-124.802
-284.487
105.416
157.386
-262.802
145.225
-33.2527
-129.341
162.593
263.62
-123.996
-139.625
347.881
41.9692
115.969
-74.4278
-501.726
173.366
68.2137
-137.231
-134.058
71.8296
62.2286
-52.4659
154.885
-102.419
-140.261
-78.9347
219.196
36.1943
-98.1036
61.9093
-126.826
43.9354
173.405
-187.808
14.4026
225.436
-280.083
54.6475
-219.377
79.1155
-88.7199
-79.0992
-62.1897
-56.1867
118.376
142.564
181.784
195.755
-225.64
179.259
166.409
-118.498
-47.9109
-370.383
262.861
107.522
224.444
-84.1649
336.251
160.978
335.218
102.731
-437.949
-131.123
-126.612
-537.843
251.045
286.797
217.471
-296.35
78.8792
143.86
119.481
-96.9218
51.8806
-30.7926
95.2328
-64.4402
-267.083
-216.605
483.688
-416.085
440.767
-24.682
-266.873
108.112
-130.525
-453.677
-21.7781
475.455
208.915
240.377
-449.292
-123.793
-188.833
-146.246
-139.046
114.432
-18.0637
-337.099
135.244
-29.2814
162.25
-117.119
-270.588
166.957
103.631
84.3046
69.1798
-129.764
-145.563
275.327
122.028
-90.3911
416.352
-294.573
-121.779
-127.975
343.651
-215.818
-34.1806
457.156
24.1241
-114.738
-76.5748
191.312
454.648
-0.198516
-454.449
-86.7123
315.451
-228.739
118.55
82.1009
-200.651
-372.874
219.2
153.674
-131.592
-111.075
-159.513
143.9
-75.041
-107.155
289.945
-182.79
141.131
137.761
-278.893
-151.325
-54.3431
-246.472
-175.006
421.478
115.54
476.439
-332.707
-143.732
-154.381
151.076
-94.2073
-56.8687
38.8515
-95.2425
205.811
-271.545
294.475
-352.604
-401.663
342.044
193.824
-317.617
231.237
180.767
432.582
-203.494
-220.731
160.566
96.5542
82.4268
-95.7974
101.157
-153.623
-271.352
288.917
-17.565
-276.689
-21.856
76.2656
-143.204
66.938
115.017
286.56
-158.201
245.253
-132.514
-112.738
-71.4413
125.209
-269.053
121.064
-189.736
311.445
-62.4365
-249.009
-256.553
465.469
484.75
-148.498
-370.183
267.322
102.861
-22.2814
476.929
-217.138
406.534
-86.0387
-203.386
289.425
104.592
-263.583
158.99
13.2091
288.183
-334.61
-247.386
581.997
146.879
-347.887
201.008
-292.795
392.833
-100.038
-126.85
445.397
352.636
-126.342
177.671
-89.5661
369.593
-280.027
-75.7986
-61.1701
-229.873
151.634
78.2389
178.001
148.281
51.6361
-59.647
-279.88
339.527
-386.13
-78.9871
-129.023
-198.605
-337.747
230.591
-412.913
412.913
149.196
-333.775
184.579
181.875
-339.474
157.599
232.118
79.3273
53.6138
42.9062
-96.5199
218.689
-371.404
287.709
-465.596
242.732
-40.734
146.708
157.613
72.7827
198.062
-270.845
124.947
-89.5574
-35.3896
-71.8517
-293.498
365.349
102.878
-175.766
72.8885
-54.3421
167.856
-113.514
331.95
4.34313
-80.1719
80.5398
-276.432
321.702
-45.2699
47.125
145.932
96.7556
16.7295
-113.485
-312.049
-38.8783
36.2393
-170.266