/*--------------------------------*- C++ -*----------------------------------*\
  =========                 |
  \\      /  F ield         | OpenFOAM: The Open Source CFD Toolbox
   \\    /   O peration     | Website:  https://openfoam.org
    \\  /    A nd           | Version:  7
     \\/     M anipulation  |
\*---------------------------------------------------------------------------*/
FoamFile
{
    version     2.0;
    format      ascii;
    class       surfaceScalarField;
    location    "8";
    object      phi;
}
// * * * * * * * * * * * * * * * * * * * * * * * * * * * * * * * * * * * * * //

dimensions      [0 3 -1 0 0 0 0];

internalField   nonuniform List<scalar> 
176195
(
203.814
49.6598
-253.474
-473.639
101.982
371.657
-105.202
-77.9174
183.119
106.304
-271.132
164.828
-443.462
326.936
116.526
143.1
-334.318
191.219
-162.267
263.627
-101.36
-92.3918
198.984
-106.592
-362.972
348.874
14.0981
-464.962
-8.67709
-228.619
352.614
-123.995
496.749
-360.146
-136.603
-165.34
342.041
-176.701
79.9085
-80.3113
0.402814
-46.9824
-315.99
-98.6747
54.3888
44.2859
-456.316
88.9544
367.362
-409.408
78.0853
331.323
-165.787
290.016
-124.228
-335.709
-107.753
-85.3506
186.299
-100.949
183.989
-182.367
-1.62156
389.904
-286.133
-103.771
154.005
-305.053
151.047
-293.495
244.588
48.9075
-84.2281
190.739
-106.511
21.151
54.2712
-75.4221
-214.459
475.024
-260.565
-262.651
-176.274
438.926
-68.417
96.6685
-28.2516
426.618
-340.679
-85.9395
-247.928
-57.4899
305.418
-274.547
414.468
-139.921
-94.5722
-72.4237
166.996
-132.851
-90.7574
223.608
181.399
88.3506
-269.749
-199.558
64.6586
134.899
-101.995
-354.321
22.4037
-114.641
92.2374
87.8508
200.367
-288.217
145.765
-393.692
-58.9797
-350.428
-123.75
-39.0559
162.806
-110.994
292.393
-39.4868
105.019
-65.5319
-1.59016
81.4987
270.994
63.1649
-334.159
562.116
-313.869
-248.247
402.319
-151.976
-250.343
415.37
-535.925
120.555
-390.761
478.226
-87.4651
264.431
-96.5618
-167.869
-461.664
325.911
135.753
-504.323
450.931
53.3922
-120.165
-165.435
285.6
-312.696
-148.968
555.369
-364.986
-190.384
-132.081
83.8984
48.1825
38.7478
62.5246
-101.272
127.804
-225.1
97.2953
-514.232
328.097
186.135
-182.395
322.297
-139.902
340.678
-127.667
-213.011
-103.065
178.108
-75.0429
295.072
87.5688
-382.641
9.12813
-408.431
399.303
-351.808
199.909
151.899
-209.008
394.2
-185.193
36.2993
-81.3927
45.0934
-538.245
256.711
281.533
-99.807
171.928
-72.1211
125.077
-93.3652
-31.7121
338.547
-250.696
-127.832
64.7794
63.0528
-88.9539
-94.9351
183.889
78.8076
-157.432
78.6249
-177.479
62.3141
115.165
207.538
-403.782
196.243
-291.781
-81.5461
373.327
-269.614
186.174
83.4401
-84.961
-184.653
429.3
-432.292
2.99244
41.8863
-90.4854
48.5991
-315.333
574.954
-259.621
-127.528
228.333
-100.805
342.438
154.311
-109.81
172.193
-62.3829
-324.203
472.769
-148.566
101.953
-113.171
11.2184
-87.1215
441.562
-354.441
121.733
-49.7995
-71.9338
192.055
-18.7691
-173.286
206.909
-469.56
211.351
54.1538
-265.505
-416.84
310.604
106.236
-579.471
419.614
159.857
259.743
-319.176
59.4328
101.049
-59.1627
38.0601
-135.952
97.8914
0.726995
101.226
-315.333
-198.899
198.234
-441.681
243.447
332.606
-181.602
-151.003
-498.065
513.032
-14.9668
81.0309
-180.838
176.283
-94.1703
-82.1127
-487.713
283.376
204.337
-40.7943
106.743
-65.9492
-146.535
222.384
-75.849
-311.798
-70.4762
382.274
-90.168
196.923
-106.755
-54.3765
314.12
-131.818
-45.6606
138.924
100.829
-239.754
-158.704
52.4631
106.241
207.373
-347.228
139.855
-305.908
77.2894
-69.9816
179.996
-110.014
363.993
-541.807
177.814
35.3343
89.7431
-172.454
102.472
-59.821
-38.8537
-216.374
108.924
107.45
57.7448
-129.232
71.4873
-230.651
532.498
-301.847
-105.922
37.5047
-257.738
75.3431
-134.232
60.5001
73.7316
-174.943
-40.8149
215.758
-516.425
518.597
-2.17261
-100.672
230.49
-129.818
570.164
-289.615
-280.549
-141.297
144.457
-3.16005
540.723
-198.285
-329.45
481.079
-151.63
-153.434
230.423
-76.9889
-297.329
237.296
60.033
61.723
-336.27
147.632
-267.797
179.256
143.041
73.8518
21.6339
-95.4857
-192.093
344.347
-152.253
503.612
-505.161
1.54961
369.648
-188.245
-181.402
-260.871
160.199
141.908
-532.669
445.101
-333.162
-111.939
-111.972
-145.766
-448.496
239.488
-225.655
-175.052
400.707
114.607
61.6763
56.8709
-96.3577
6.83918
185.216
-567.735
273.19
294.545
126.154
138.277
-367.172
437.892
-70.7197
-411.991
100.193
-83.7785
208.588
-124.81
125.651
-125.516
-0.134686
-166.947
118.402
48.545
144.004
-65.1959
144.091
301.01
156.096
184.581
-191.28
150.304
40.9756
262.532
-146.222
-116.31
140.463
167.962
-308.426
445.906
-255.374
-190.532
-53.3009
-109.383
162.684
-180.862
97.0838
-240.027
126.561
113.466
-237.265
155.303
81.9626
-100.854
371.849
-13.0395
-73.0618
86.1013
26.0836
54.0915
-80.1751
-70.311
-84.4262
154.737
213.604
-437.694
224.09
-63.8678
89.9514
186.209
90.0792
-276.288
121.479
-339.31
217.832
278.059
124.261
-291.277
-137.851
429.128
-190.167
101.213
104.264
-246.577
142.313
-205.689
406.061
-200.373
-235.819
-251.894
-167.397
383.99
-216.592
95.526
-254.712
159.186
311.622
188.378
-129.375
321.771
-192.396
68.7076
53.0257
-109.603
295.812
-342.136
191.934
150.202
445.516
-112.685
-332.83
-197.567
110.889
86.6783
-198.242
114.014
77.2628
-140.244
62.9813
21.2674
-85.1352
-156.896
148.503
8.3929
55.6841
-141.299
85.6144
76.6649
140.944
-217.608
-557.669
383.501
174.169
-240.021
353.992
-113.971
366.048
63.2791
-429.327
481.314
-479.135
-2.17895
-327.296
166.329
160.967
130.337
-86.1602
-44.1767
367.162
-264.942
-102.22
-87.6983
382.77
-211.917
-202.362
414.279
104.011
-213.373
109.362
-60.7443
82.0117
11.4313
271.945
2.14266
-295.638
-384.263
297.141
-154.859
-70.0851
224.944
-85.1571
-112.41
-110.822
243.303
-132.481
-188.03
-137.015
325.046
70.8448
-72.435
-125.178
-258.786
383.965
132.176
8.41492
-140.591
133.675
-3.90255
-129.772
135.601
-333.153
197.552
-71.8438
131.992
-60.1482
-73.5511
-430.772
-228.993
60.1448
168.848
-194.523
-88.1271
282.65
175.325
-63.8437
-111.482
147.406
-70.1432
-372.882
79.0018
293.88
-3.62223
-419.129
422.751
72.6099
-121.162
48.5518
18.8301
-86.5159
67.6857
86.8179
-174.976
88.1586
-233.16
124.423
108.737
-219.994
-337.675
-647.494
288.273
359.221
397.361
-207.793
-189.568
-49.1587
156.612
-107.453
226.422
-156.457
-69.9645
-76.5998
115.47
-38.8699
-291.788
160.898
130.89
-124.751
-42.1962
125.449
-87.3889
269.11
-209.747
-59.3634
-232.957
412.781
-179.824
438.131
-222.448
-215.683
128.865
-82.8062
-46.059
-158.745
105.444
-62.9829
-30.0387
93.0216
251.756
235.292
-487.048
-363.589
230.914
132.676
226.43
-528.938
302.507
390.196
-232.47
-157.726
135.083
-113.173
-21.9102
-2.87616
-288.401
-29.2106
126.688
-97.4773
-578.718
308.758
269.96
506.782
-506.782
-191.572
99.18
380.17
-383.046
-3.1713
74.0162
-468.043
262.354
-64.4943
133.073
-68.5784
33.5599
-180.095
251.243
-144.939
-59.2183
116.963
172.868
-270.833
97.9652
61.7842
100.848
-162.633
-107.441
175.14
-67.699
414.778
-131.687
-283.091
-323.957
194.583
433.044
-154.985
-217.273
-74.5147
147.314
171.875
-319.189
-182.954
97.281
85.6727
46.8408
-102.715
55.8741
-170.227
99.9158
-249.3
298.299
-48.9985
79.334
-120.128
-124.394
-66.8854
94.1665
178.241
-404.324
226.082
67.0245
63.3125
457.623
-249.989
-207.634
178.566
209.048
-387.614
28.9417
-257.935
496.167
-506.695
10.5277
125.772
-76.3826
-49.389
16.1983
-115.489
99.2902
112.151
-65.3106
-500.397
66.3629
434.034
-114.427
35.4839
78.9428
335.983
-324.552
-255.005
409.018
-154.013
-488.457
311.349
177.107
355.587
-241.973
-113.614
-145.245
-199.72
344.965
-158.539
348.224
-189.685
-194.058
86.6164
-61.138
-22.2349
83.3729
108.834
-192.778
83.9439
-64.234
76.4812
-12.2472
300.65
-187.174
-113.476
87.8759
39.5563
-127.432
-132.124
264.312
-132.188
-249.166
160.031
89.1354
107.802
67.5231
151.842
-130.687
-21.1544
-170.995
292.473
-93.9156
-177.226
271.142
86.332
25.7297
-112.062
-88.3847
123.018
-34.6329
-149.356
100.197
-329.418
164.078
-183.655
351.483
-167.828
381.235
64.2812
184.246
-417.202
266.408
-112.403
-119.953
63.1844
56.7683
-20.7413
-160.574
181.315
260.307
-385.485
-63.6859
429.734
-33.7358
-124.968
182.336
51.1542
-233.49
-135.368
57.8951
77.4729
-376.791
9.61813
198.322
-403.76
205.438
27.7264
-88.8644
-88.9012
-25.5255
183.734
-277.65
-432.678
-67.719
146.622
223.281
-369.903
219.419
136.169
177.09
-76.2025
-100.887
167.588
103.919
-271.507
-232.271
137.364
94.907
79.8586
-356.998
277.139
350.402
-207.302
236.93
-141.404
84.5094
101.966
-186.476
-112.836
250.183
-137.346
63.5882
-42.4373
90.3922
-174.087
83.6948
259.363
-86.6004
-172.763
-177.301
-213.859
391.161
-174.503
-74.7974
-106.573
-6.44316
113.016
76.639
49.516
-126.155
322.145
-174.372
-147.772
-168.457
27.1604
-498.783
340.974
157.81
371.359
8.81036
162.128
-283.661
121.532
181.812
-105.147
188.727
82.9023
-271.629
-43.0557
246.87
-105.382
-299.568
404.95
-176.706
387.347
-210.64
-119.825
261.101
-141.276
-141.494
244.761
-103.266
150.142
-101.839
-48.3033
-148.518
-51.0398
-196.018
105.253
90.7656
237.602
-120.506
-117.096
-438.093
332.711
-146.877
149.506
-2.62936
-181.394
104.693
76.7011
307.614
-172.014
-169.04
473.102
-304.062
202.79
-107.226
-95.564
30.1187
64.6716
-94.7904
70.2473
58.618
25.1701
227.369
-252.539
93.7606
68.8036
-162.564
65.3404
311.613
-376.953
148.95
512.076
-96.7065
214.573
102.926
-317.5
-133.606
293.539
-159.933
139.978
-67.3676
210.52
-122.462
-88.0575
-73.8785
198.716
-124.838
132.283
-252.108
407.418
-228.852
-370.527
368.501
2.02602
97.0385
-78.2083
-57.5169
-33.7577
91.2747
498.149
-171.213
-72.095
187.735
-115.64
-231.344
417.294
-185.95
250.589
176.217
-426.806
62.0883
-171.898
-465.875
251.416
-17.9649
151.639
-319.532
177.883
141.649
54.754
97.0878
-316.478
-138.999
455.477
268.54
164.504
-75.5422
-77.6605
153.203
94.0576
2.13313
-96.1907
-235.103
350.892
-115.79
95.4664
-106.855
11.3883
-133.866
360.676
-226.81
-65.7883
140.1
-74.3116
72.6706
104.84
-177.51
142.274
-471.724
-170.712
261.623
-90.911
-105.004
239.398
-134.394
-121.9
181.214
-59.3137
251.759
-155.282
-96.4771
-266.165
88.9388
239.194
-416.495
-42.2952
211.481
-169.186
-212.998
85.4697
197.047
101.252
386.475
-117.935
75.1821
-151.245
76.0631
353.398
70.2691
-423.667
-203.982
418.925
-214.944
-232.821
-267.036
22.2721
-83.0164
603.737
-382.335
-221.402
-54.8861
126.736
-71.8502
-121.418
33.0329
290.546
-372.89
82.3436
-115.342
188.013
-376.775
361.026
15.7489
331.659
223.711
150.677
152.056
-302.733
-515.242
387.98
127.263
-348.366
425.452
-77.0857
-98.6224
242.451
-143.829
170.678
-62.8758
125.476
175.174
124.747
-295.46
-128.283
268.025
-139.742
385.733
218.004
335.749
-329.1
-6.64958
325.128
-531.222
206.093
341.05
-133.511
-105.017
-411.407
56.3802
-211.219
154.839
74.5198
-150.062
353.7
103.922
183.284
-102.277
-81.0079
236.649
176.132
134.91
232.333
-367.243
-107.026
357.615
411.783
-198.179
-372.605
-16.2171
388.823
-291.158
-181.501
472.66
423.942
-289.491
-134.452
500.097
-257.198
-242.899
-63.0578
-95.687
-57.1573
267.172
-210.014
72.6417
79.6825
-152.324
79.735
-135.245
55.5105
135.903
155.385
-291.288
-168.282
28.6792
139.603
8.40274
87.0636
417.395
-180.746
379.762
118.387
-308.283
-87.3661
395.649
-36.5176
122.85
-179.951
94.6002
-167.077
-222.755
389.831
-24.8887
78.9802
-34.9982
-133.284
166.905
-458.063
203.436
-29.7766
-56.3389
86.1155
216.873
-60.2607
-86.064
-41.7682
-257.284
129.001
-82.9225
265.258
-324.622
499.79
-175.168
265.912
-432.989
402.09
-203.856
112.071
188.114
-300.185
-136.256
79.7977
56.4587
-367.304
488.597
-121.293
306.865
-227.007
567.331
-232.918
-334.413
111.611
105.262
356.867
-121.277
-235.59
-267.827
433.755
-165.928
142.657
-224.544
81.8871
-199.284
31.985
167.299
-107.048
-87.01
114.788
-371.292
256.505
11.7942
-112.631
100.837
460.669
-229.988
-230.681
298.694
-472.151
173.457
-225.3
183.005
110.857
91.9331
97.1139
-8.02736
-89.0866
252.943
-114.019
253.155
144.206
320.947
-181.166
-139.781
-318.91
207.677
111.233
-498.993
359.733
139.26
182.327
-95.5088
-112.574
172.734
-60.1605
-175.603
-73.5633
332.66
-42.1145
115.997
6.84376
-122.841
-111.843
196.352
-107.633
31.0332
-521.417
353.192
168.226
306.362
-144.233
223.019
167.178
167.109
-399.579
-474.475
238.084
236.391
-246.27
158.178
88.0924
116.185
-44.0484
-72.1366
-223.794
-200.219
424.013
108.837
131.335
-240.171
-406.384
278.367
128.017
-267.53
-138.854
-575.279
381.753
193.526
-279.871
104.268
593.912
-304.489
-289.423
-151.749
-179.125
330.874
-123.313
129.686
-6.37304
-160.358
270.989
-110.631
-244.397
145.774
-412.282
362.097
50.1851
74.9296
107.82
-182.749
-375.543
199.892
175.65
-108.4
-128.865
144.123
-107.515
-36.6087
278.022
108.454
574.251
-316.819
-257.431
253.294
-519.748
266.454
52.5258
-112.01
59.4843
88.8155
8.29843
-61.214
143.486
-82.2719
273.35
300.901
69.3613
-163.934
-273.454
160.618
65.2424
-28.9431
85.597
152.005
346.891
82.4087
104.272
66.4066
46.6558
-188.978
142.322
365.997
-515.44
149.443
-63.5197
326.542
-263.022
-32.8215
112.556
178.95
388.381
-146.509
364.486
-217.976
62.9043
-172.328
109.423
-344.318
-303.176
-63.9706
-35.1984
99.169
8.9573
-132.27
-99.7686
111.563
169.602
-79.2095
181.804
-333.553
-136.268
75.577
60.6913
-357.827
-84.347
442.174
-338.299
522.081
-183.781
108.479
-377.78
269.301
30.1918
-114.284
84.0923
-86.9326
-285.949
268.356
121.966
-390.322
172.143
-115.763
244.328
-136.134
-108.194
531.699
-162.596
-369.103
-374.25
49.0203
325.23
330.159
94.4491
-424.608
-489.435
509.35
-19.9154
-138.88
-77.4943
-91.5621
153.346
143.598
177.349
252.856
-542.073
289.217
383.394
-374.266
447.5
-179.145
559.447
-302.721
-256.726
-221.205
241.564
-20.3588
-46.7517
162.749
-59.4857
-259.787
319.272
57.3189
449.463
-61.085
-88.2711
153.741
-81.0996
294.183
-158.28
132.357
53.6619
-186.019
165.472
-222.629
-93.1997
-55.6876
148.887
553.383
-553.383
58.3555
-124.144
276.751
-163.272
-113.478
-310.041
-178.415
-158.511
95.4531
-376.692
-121.373
-55.7068
85.8255
204.681
-324.828
168.659
156.169
7.30789
-384.083
106.157
91.183
-197.34
95.7324
79.4077
91.6676
-17.8158
-64.3067
-309.943
58.0312
-213.889
155.858
22.9095
-395.515
-300.865
154.356
-137.855
-177.717
315.572
89.4988
283.027
-372.526
-328.321
501.126
-172.805
-97.0388
32.5444
-37.5895
59.4347
-21.8452
-100.393
175.593
-75.1996
227.436
177.068
-404.504
317.458
-205.388
397.271
-177.853
-307.994
-207.248
100.453
-266.24
-208.054
75.2036
-411.681
307.133
104.548
80.7419
-438.569
98.0854
132.266
-230.352
-218.723
-159.987
378.709
-6.49332
-57.7407
91.7338
-128.251
-115.785
-209.023
324.808
-302.489
238.969
-101.002
-54.6005
155.602
-188.73
108.666
80.0643
361.861
-523.521
161.66
317.961
-208.265
-109.697
147.386
290.745
133.017
66.7396
-199.756
390.181
-167.162
146.803
-514.107
223.024
-164.993
152.591
165.37
-64.5442
-347.137
212.946
-377.379
164.433
415.319
-240.7
-174.619
77.9381
-258.071
180.133
-220.007
-9.59728
229.604
106.326
-108.121
1.79477
79.8586
-151.314
71.4552
195.1
202.171
-46.7956
140.853
-339.942
420.684
136.13
232.79
-368.92
-104.573
311.946
82.2348
60.2232
-142.458
42.116
-313.304
271.188
-129.623
138.581
279.318
-465.938
186.62
-87.7259
220.083
276.498
-454.367
199.362
-137.343
-9.48922
146.832
21.5338
130.445
-151.979
254.488
206.181
-70.1699
152.405
334.89
-26.4544
-308.436
-124.708
444.624
-319.916
103.074
286.83
42.7367
224.435
314.368
134.55
-448.918
330.045
-270.132
-59.9129
-29.3918
-117.485
-207.928
54.4947
-69.42
-31.3196
100.74
15.1608
-84.5807
-310.201
176.594
-85.6647
-160.198
245.863
244.414
69.3794
-313.794
-222.238
-45.0042
267.242
-150.556
89.4711
75.0241
-175.417
-86.8965
-318.255
405.152
-71.7413
-145.532
526.065
-246.747
-74.1267
77.4622
55.064
-132.526
-212.9
79.5413
133.359
72.2273
-91.2751
19.0478
108.466
166.402
-274.868
-180.834
106.52
74.3139
-130.902
319.629
-104.896
-103.313
208.209
-327.822
-210.423
-240.984
130.206
110.779
-229.367
527.15
-297.783
424.26
-309.472
-67.3195
-90.5633
157.883
-66.0419
93.7683
-184.988
325.71
-140.722
-123.251
268.289
-145.038
165.919
-69.8807
-96.0387
-258.972
367.451
78.6941
-24.8358
-53.8583
-269.415
275.091
-5.67594
-248.921
86.6545
199.564
5.72403
-205.288
-187.781
380.697
-192.915
118.829
-57.1459
-61.6831
234.796
-480.573
245.777
-497.709
173.506
165.609
-33.4327
-132.354
2.73019
-188.827
91.2799
97.5469
-153.551
366.497
151.825
-88.9205
77.7477
-417.69
-56.4179
-71.1191
127.537
-107.559
-509.183
356.576
152.608
250.83
79.2144
-311.292
-157.753
469.045
-75.0377
298.836
80.3061
-135.192
-56.8498
-126.104
-240.738
-249.437
490.175
-205.67
-247.148
452.818
-258.323
257.819
0.503588
320.315
-254.975
-294.821
-203.962
340.755
-509.795
94.7574
99.2649
-194.022
-386.698
217.67
169.028
155.984
223.777
-76.8901
137.485
-60.595
-330.34
526.426
-196.087
-120.921
66.1484
54.7727
-146.262
70.4493
75.8132
34.1045
-71.694
-67.4761
397.635
58.075
93.2589
-151.334
500.381
-186.014
-158.13
262.394
-319.037
160.498
-285.351
285.351
-131.738
229.823
-550.524
283.823
266.701
-295.687
-75.7772
371.464
188.509
-141.853
-83.1738
77.3517
5.82216
-219.005
77.511
125.149
-485.295
43.1804
82.5913
-123.651
-316.911
440.563
-231.201
367.331
-241.844
131.022
509.295
-263.618
-245.677
-183.435
-36.5716
150.84
-332.442
-573.317
401.303
172.014
-288.885
-149.817
-187.191
34.558
152.633
-27.9459
-112.269
140.215
138.681
114.262
-109.385
134.915
-25.5304
-6.87952
105.892
-99.0127
212.343
-211.648
-0.694634
209.983
-338.013
128.029
46.4124
-158.986
-75.3331
-149.967
98.5599
-185.512
86.9516
-395.639
-244.319
318.017
-73.6971
80.1617
38.6673
6.92921
-173.067
166.137
-155.075
-196.733
163.739
-389.111
225.371
-165.246
97.9261
36.0269
38.047
-74.0739
39.706
-140.708
-127.861
216.701
-88.84
146.411
115.003
-261.414
-156.118
-282.627
438.745
171.455
-420.212
248.758
106.025
-102.214
-3.81137
-540.979
308.816
232.162
474.284
-326.925
-147.359
-501.343
176.721
-69.1769
127.532
-81.4411
-98.5097
286.892
-393.917
-344.321
-130.154
-211.148
-113.68
-377.469
155.326
222.143
-209.104
137.362
-43.7107
302.476
-258.765
-87.2936
-236.786
128.386
147.525
105.684
-253.209
258.155
-453.186
195.031
199.654
-95.6432
-316.958
108.694
219.75
-91.9452
-326.83
-112.831
439.66
385.629
-221.89
-330.293
334.824
-4.53109
-74.5626
126.753
-52.1902
-388.218
174.359
-306.68
127.618
179.062
127.157
-127.157
-197.588
-254.525
452.113
472.056
-394.308
71.1066
-265.629
2.10153
332.789
333.479
198.22
-225.324
-58.5019
283.826
77.9563
-15.005
-62.9513
-68.4451
130.359
-61.9136
-188.661
114.436
74.2252
-322.857
-244.878
-140.383
47.1831
121.537
-44.0747
-274.372
-305.099
-143.143
81.9288
137.925
204.116
69.3419
34.7689
-104.111
-93.3359
151.932
-58.5958
383.723
175.723
-164.375
-115.496
-335.574
-173.609
-155.95
-96.1607
252.111
-69.709
-269.698
339.407
-310.337
162.583
147.753
-87.3245
-95.4375
182.762
336.301
-506.252
169.951
207.628
-353.113
145.485
232.366
-418.583
186.217
-77.3119
-54.769
-235.73
160.397
175.168
-397.908
222.74
-125.17
97.2246
-366.914
126.893
-212.899
368.883
-50.003
89.0551
-39.0521
116.683
-138.25
21.5674
25.2529
-88.2358
-157.281
367.264
483.463
-465.502
-17.9613
-91.9833
122.175
-75.6058
130.054
-54.4482
259.444
-457.032
-45.9716
105.062
-59.0907
-143.949
284.412
390.749
-507.127
116.378
230.579
58.9981
-289.577
52.8193
-107.893
55.0733
-35.1124
107.34
58.1438
29.3744
-87.5182
-35.5529
138.082
-102.529
-10.2265
147.764
-137.538
164.772
-66.2123
392.031
-138.877
-72.1988
248.82
-176.622
-303.515
-44.8505
183.461
-103.06
-80.4008
173.135
-287.634
114.499
-235.34
-150.689
386.029
-60.2113
176.894
-272.043
155.868
116.175
214.283
-338.411
124.129
-327.562
204.329
123.233
250.902
-136.03
-114.872
-134.945
59.5787
75.3665
189.608
-401.525
-103.947
-81.0983
185.046
-48.2065
-127.281
175.487
77.0439
-208.997
131.953
-76.1748
169.935
172.926
-91.6468
-81.2792
-59.5545
-110.874
170.428
-42.0384
133.772
-158.566
-116.6
275.166
-302.751
-8.51941
311.27
63.6649
-126.246
62.5811
164.98
94.383
117.087
102.663
-133.43
126.939
6.49178
-187.19
-55.6709
446.42
-81.2174
103.621
383.041
15.7507
-398.791
394.271
-332.548
-467.92
173.099
58.2246
66.0571
-124.282
-83.3023
-36.6504
86.2026
-255.587
169.384
117.73
-362.049
-171.957
-20.8171
251.396
-64.9315
264.495
248.564
157.497
-402.968
215.187
-138.363
61.4728
388.44
-162.009
196.574
-80.926
-115.648
256.154
-325.863
285.855
-162.076
-123.779
223.105
-201.391
-21.7143
132.665
-69
-222.221
-232.745
454.967
-200.255
42.057
158.198
491.47
-484.601
-6.8689
233.697
-61.1882
-172.509
252.301
252.846
-505.147
233.258
-156.214
-161.797
300.048
-138.251
-154.504
305.181
-123.667
206.646
-82.9784
-185.807
-141.49
36.3193
-87.3645
51.0452
83.378
-188.274
355.147
116.908
-296.247
-116.035
-53.6016
-159.299
112.493
-43.151
-165.01
266.544
-101.534
-53.9353
92.683
110.659
-41.2422
-69.4165
-138.911
79.3564
-580.117
351.49
228.627
69.2306
-115.828
46.5972
-170.578
256.781
-63.4475
126.354
-62.9063
68.2172
42.4415
-147.986
364.264
-216.278
-85.9572
-97.1585
183.116
-57.0846
-33.2559
90.3406
323.575
-136.487
-187.088
216.405
-86.297
-130.108
-381.547
-308.814
-159.106
-83.1855
-34.1813
117.367
122.711
-300.368
177.657
80.3065
-43.9872
-123.673
54.4963
109.858
-401.639
305.044
-97.367
-167.409
95.3139
-173.875
104.885
68.9896
337.613
-129.985
149.283
-120.44
-28.8428
-103.175
-70.6993
52.7093
-147.991
95.2812
92.186
-173.627
116.392
-58.5795
-95.3593
153.939
-101.963
212.296
-110.334
135.34
-33.1693
-102.171
-267.351
-35.3994
126.254
84.2654
-76.5539
10.512
-78.0369
174.128
-96.0909
-100.064
101.667
-1.60213
-99.0829
-71.0755
-86.8923
157.968
493.45
-391.186
-102.265
402.63
-115.738
130.01
-108.476
-425.616
463.796
-38.1804
-171.343
300.791
-129.448
-232.443
303.549
92.3272
80.5987
-73.1231
-108.271
-91.2762
264.144
-148.781
278.443
-129.662
-31.1813
117.804
-86.6229
-288.806
161.246
127.561
111.477
-58.9512
-47.1201
-46.2451
-218.179
-193.458
411.637
145.374
348.077
-468.753
263.083
225.69
-225.69
-116.807
106.042
10.7649
185.861
-106.238
-79.6223
246.06
-540.126
294.065
171.711
151.864
-249.969
353.886
-103.918
108.343
-39.1121
-193.752
122.919
70.8323
156.921
330.128
-487.049
254.008
-115.327
-320.921
162.622
158.299
77.4676
-180.749
103.281
276.696
156.746
-433.443
-187.911
101.954
43.0494
-134.789
91.74
140.057
-175.61
-177.379
404.815
-191.543
100.257
91.285
168.221
-100.662
-67.559
-100.059
367.065
-267.006
327.134
-161.662
-40.9827
117.396
-76.4138
187.284
179.555
-366.839
-215.166
-253.586
-90.456
348.611
91.2212
-170.94
79.7185
-198.912
396.366
-197.453
154.552
-77.0843
313.459
-212.825
-100.635
154.891
-79.7086
-213.943
-100.612
50.6094
-620.529
303.709
135.019
494.502
-502.359
7.85702
207.597
180.892
-388.489
108.075
41.2084
-332.056
-166.937
134.706
-155.448
23.2157
-281.538
-64.2817
-33.828
98.1097
163.022
-298.064
135.042
56.1977
303.536
-131.958
90.3717
41.5866
50.8695
-178.15
69.8672
-117.902
48.0349
258.898
97.9686
255.982
-169.279
-86.7034
106.16
0.165811
-394.841
278.828
116.013
-259.932
-360.596
186.509
47.1874
150.184
-470.699
320.514
-62.7503
-83.1066
145.857
34.8337
-120.396
85.5619
308.98
200.315
-5.07617
388.117
2.59236
-117.233
423.893
-147.197
70.7138
-149.455
78.7407
-474.939
269.027
205.913
-203.305
-253.309
456.613
-366.449
566.432
-199.982
279.837
146.781
-173.635
243.328
-69.6926
-147.577
256.413
348.911
-274.489
-74.4222
-174.896
288.009
-113.113
-187.698
-154.439
-52.59
-225.326
277.916
65.3432
49.1596
-114.503
169.639
-94.7091
441.544
-375.79
-65.7535
-186.805
97.7648
89.0406
79.2431
274.752
-353.995
65.63
-29.6031
344.111
97.4329
-90.7749
133.824
-103.675
-28.2837
-226.231
514.639
-288.408
1.67164
189.307
-190.979
220.771
-393.034
172.263
-77.5022
-39.5066
117.009
292.999
99.0321
-79.1742
-17.5337
96.7079
-176.154
166.689
9.46528
-192.704
114.778
77.9264
184.164
386
93.0099
-34.8661
-273.669
-121.172
225.715
-447.936
414.081
-510.49
96.4086
108.753
216.05
-31.5451
-184.505
143.746
-91.0366
81.5568
-408.387
-70.8795
-80.9488
151.828
97.3027
-5.52107
-91.7816
-128.576
22.0027
124.427
127.332
157.484
-335.383
177.899
-87.5995
151.951
-64.3519
155.656
-354.569
344.981
-222.269
339.301
-83.1475
-371.553
-207.165
-283.491
464.728
-181.237
428.792
-323.629
-105.163
-9.17241
-350.685
359.858
-345.129
-178.27
523.399
-193.956
-5.32834
110.926
-41.059
-522.606
272.576
250.03
-222.009
-75.3205
-89.85
-45.0952
2.70235
103.323
-45.2989
107.823
-556.577
382.675
173.902
89.9679
-148.547
-22.8242
84.0656
-61.2414
175.236
-146.053
189.358
-314.277
124.919
318.089
-251.809
-66.2801
87.2117
-397.134
309.922
211.401
-94.3142
118.282
248.88
-91.5764
-97.1539
115.266
-62.447
473.024
-302.776
-170.248
-266.106
362.531
-96.4248
-77.3212
187.621
285.403
-417.662
31.8712
385.79
-279.889
-188.154
109.349
-194.875
85.5261
-137.219
-74.0926
211.311
109.16
203.582
-312.742
35.9253
-275.791
-246.815
-60.5182
-13.8775
74.3957
-204.804
328.111
-123.307
492.553
-180.94
404.206
-63.2323
-282.9
150.776
93.9594
3.3433
-269.369
-39.2878
308.657
61.7913
-378.269
-408.174
140.347
121.87
-15.3737
-106.496
169.216
-246.913
77.6963
-114.7
261.111
-458.593
333.885
0.318543
-108.439
498.211
-154.1
-236.423
405.861
-169.438
199.478
-327.798
128.32
475.789
-113.928
37.6258
97.4573
-301.212
127.577
312.027
-170.99
-141.037
-177.57
295.414
-117.844
138.182
354.37
161.503
-266.973
105.47
390.121
-111.754
361.206
128.93
-490.136
323.974
-222.233
-101.741
484.552
-513.739
29.1864
135.756
-108.953
-26.8035
362.561
-273.062
-8.06751
-129.276
-84.6742
-174.819
259.493
97.5978
-153.327
55.7292
-92.855
45.7348
-306.879
474.459
-167.58
-88.0236
-48.2447
-192.542
194.213
98.1374
15.7151
-90.2184
74.5033
293.321
4.54245
-297.863
-79.4898
37.0946
42.3952
-101.135
454.533
160.009
125.846
-143.653
306.675
-234.665
160.787
341.65
52.6203
-161.361
-159.56
18.5456
218.385
-247.254
82.879
-131.713
228.899
-97.1854
28.252
-83.9588
404.477
-196.88
-379.382
383.671
-4.28897
-132.912
494.119
65.2498
-132.236
66.9864
108.436
-63.7118
-129.894
193.605
-156.608
173.65
-65.5757
124.135
0.498523
-124.633
73.9962
-116.465
42.4685
-246.316
141.312
-97.9738
-63.0826
161.056
-267.628
-295.548
125.102
170.446
113.07
-78.2359
55.7996
-118.184
62.3841
51.1691
-188.388
124.001
140.311
-95.5016
233.85
-138.349
-71.5397
25.6452
45.8946
-74.3511
157.402
-83.0507
-374.615
207.218
-183.012
370.296
146.045
-264.444
118.399
225.411
169.681
-395.092
-47.2262
-31.4905
78.7168
330.802
97.9899
311.889
-132.491
-179.398
-160.555
405.793
-245.238
171.458
-70.9939
325.603
-254.609
327.727
121.612
-449.339
474.53
306.752
150.262
-457.014
254.321
-469.487
191.14
-29.9765
-161.164
-341.646
186.986
154.661
-125.947
-23.1092
149.056
84.9639
20.2634
-105.227
-73.5159
-62.7405
11.1422
-390.525
-357.127
209.141
63.7052
182.213
-245.918
-377.83
306.836
215.616
129.553
-345.169
-57.9375
114.805
-56.8679
-109.547
-139.434
248.982
568.668
-257.046
58.119
125.87
-140.252
-274.689
414.941
-115.393
166.262
-229.242
392.29
-163.048
-355.255
38.2829
316.972
-183.495
-279.034
462.529
-51.5864
-94.6761
-564.615
366.716
197.899
297.58
-177.458
-120.122
-130.719
346.335
-160.94
62.9664
102.009
-172.889
121.185
75.3893
-157.792
-490.713
250.845
239.868
-173.27
70.0943
-261.856
98.5843
-275.783
-304.335
-60.6733
-241.815
102.617
-335.903
233.286
-200.159
-174.856
65.4096
109.446
-242.28
-74.6782
-108.884
-40.8031
149.687
-44.5472
-39.423
83.9702
-316.395
216.336
3.34856
-78.7409
75.3924
152.534
-184.079
160.865
-369.76
208.895
10.036
-279.405
-183.263
309.776
-126.513
-216.883
240.099
110.864
-125.475
-85.0338
210.509
412.963
-422.135
65.9598
-97.1411
284.818
194.628
-479.447
-106.771
-66.4987
-81.2142
264.948
370.422
-375.498
91.9167
-6.95274
414.933
-129.27
-285.663
112.199
153.898
-266.097
127.523
-30.4258
-124.262
154.688
241.785
-102.98
-138.806
344.424
45.6965
155.352
-57.7547
-502.019
173.698
65.1521
-128.6
-126.046
65.8857
60.16
-25.9559
116.96
-91.0045
-137.676
-78.9233
216.599
36.8005
-113.959
77.1584
-118.693
41.1905
178.842
-189.608
10.7657
224.003
-280.51
56.5068
-217.066
79.3909
-82.4126
-75.0199
-66.493
-70.6763
137.169
142.78
190.191
190.505
-221.852
178.142
151.823
-104.06
-47.763
-379.651
264.458
115.193
227.195
-94.9286
332.959
165.252
335.512
109.295
-444.807
-131.825
-129.046
-537.976
251.351
286.625
203.162
-291.577
88.4151
138.56
117.422
-105.379
64.3968
-43.7106
103.715
-60.0042
-274.918
-224.278
499.196
-452.713
434.982
17.7302
-263.851
108.992
-122.313
-455.022
-21.4893
476.511
217.532
248.891
-466.423
-124.752
-181.928
-151.996
-136.81
137.546
-13.411
-343.057
139.752
-15.0366
157.693
-83.6274
-271.414
168.183
103.231
77.9424
66.0611
-131.918
-143.698
275.616
103.744
-88.029
417.524
-291.352
-126.172
-136.776
336.253
-227.268
-19.3089
456.957
24.3574
-107.418
-71.5743
178.992
455.081
-0.138402
-454.943
-98.3927
318.018
-219.626
112.898
78.4547
-191.352
-380.76
222.744
158.016
-125.796
-110.628
-160.786
134.868
-69.6179
-114.285
295.106
-180.822
144.746
136.045
-280.791
-142.343
-51.4082
-254.914
-182.263
437.176
117.341
476.371
-331.937
-144.434
-147.121
142.542
-90.147
-52.3946
31.0622
-87.4011
207.029
-271.961
292.083
-352.756
-413.473
349.787
186.668
-311.42
229.27
188.124
442.752
-210.386
-212.748
140.55
93.4687
76.1331
-95.4095
91.7722
-117.728
-273.411
292.807
-19.3964
-280.98
-19.8852
76.943
-139.402
62.4593
119.385
288.739
-163.637
244.996
-133.791
-111.205
-57.5999
85.8519
-271.731
110.347
-174.059
302.711
-64.3982
-238.313
-266.12
483.652
485.867
-152.908
-367.324
263.472
103.851
-22.3421
477.423
-211.307
409.629
-85.9335
-197.298
283.231
106.159
-257.63
151.472
15.5923
295.757
-334.54
-247.271
581.811
153.751
-353.614
199.864
-292.182
392.107
-99.9245
-128.496
435.247
345.62
-131.046
171.184
-89.93
369.238
-279.308
-55.5342
-23.9556
-203.705
121.725
81.9798
177.554
150.556
66.1719
-62.0791
-277.741
339.82
-386.045
-78.9169
-128.74
-204.422
-343.159
228.875
-411.608
411.608
115.181
-327.882
212.701
185.334
-345.33
159.996
221.721
80.9905
52.554
33.9482
-86.5021
215.51
-375.497
287.95
-471.445
241.191
-42.4749
145.17
162.445
71.8563
193.95
-265.807
131.952
-100.684
-31.2674
-72.1205
-291.536
363.656
101.086
-182.768
81.6819
-44.1402
145.37
-101.23
330.719
5.03015
-75.4448
77.5779
-272.15
318.824
-46.6748
45.3023
145.838
87.9312
19.5411
-107.472
-318.277