/*--------------------------------*- C++ -*----------------------------------*\
  =========                 |
  \\      /  F ield         | OpenFOAM: The Open Source CFD Toolbox
   \\    /   O peration     | Website:  https://openfoam.org
    \\  /    A nd           | Version:  7
     \\/     M anipulation  |
\*---------------------------------------------------------------------------*/
FoamFile
{
    version     2.0;
    format      ascii;
    class       volVectorField;
    location    "26";
    object      U;
}
// * * * * * * * * * * * * * * * * * * * * * * * * * * * * * * * * * * * * * //

dimensions      [0 1 -1 0 0 0 0];

internalField   nonuniform List<vector> 
30084
(
(1.01106 -0.0132588 4.22567e-23)
(1.00838 0.00381618 1.6973e-22)
(0.990394 -0.003579 -2.56916e-22)
(0.970586 -0.057661 8.64435e-23)
(0.997497 -5.38695e-05 3.61006e-23)
(0.953034 -0.0363208 -1.29317e-22)
(1.07353 -0.0681592 1.07309e-22)
(1.01499 -0.0198419 -4.42285e-24)
(1.00205 -0.00196481 5.784e-24)
(1.00019 -5.01702e-05 1.50961e-24)
(1.01757 -0.02654 7.45901e-25)
(0.998435 -0.01717 -8.71487e-23)
(0.999511 -0.000199551 4.9251e-24)
(0.999969 -1.09696e-05 1.38073e-25)
(1.10575 0.0958938 5.56386e-22)
(0.993744 -0.00205091 3.91963e-23)
(0.99984 -0.000870008 -2.20136e-24)
(1.11838 0.0231512 -4.75559e-23)
(0.997824 -0.00185461 -1.22832e-23)
(0.988569 -0.000866932 -5.74777e-23)
(0.999121 -0.00028136 -1.68107e-23)
(1.00193 -0.00196228 2.02672e-23)
(0.990301 -0.00378691 2.83934e-22)
(0.997807 -0.000176633 1.58722e-23)
(0.909682 0.0926236 6.87218e-23)
(1.00919 0.00302567 9.1195e-22)
(0.999472 -6.00426e-05 1.12276e-23)
(0.953742 0.0777258 -4.67663e-21)
(1.10907 0.0970211 -1.46363e-21)
(0.999365 -0.00931733 -1.65864e-23)
(1.01543 -0.0103842 2.91338e-23)
(1.03516 -0.00420003 -2.15107e-22)
(0.996475 -0.135571 8.9506e-22)
(0.999204 -0.0238171 4.34767e-23)
(0.95208 0.0741394 3.75423e-21)
(1.00597 -0.0334034 1.15989e-22)
(1.05447 0.0459941 -3.0213e-22)
(0.970773 -0.031918 3.43282e-22)
(1.00533 -0.000817029 -7.83291e-23)
(1.00515 -0.000581979 1.48877e-22)
(1.00044 -0.000166594 -4.6832e-24)
(0.98997 -0.032866 -3.21157e-22)
(0.999859 -0.000845408 -2.96776e-26)
(1.03798 -0.0701952 -4.5324e-22)
(1.00004 -5.68333e-06 -2.93941e-25)
(0.999577 -0.0094416 1.25231e-23)
(0.997791 -0.01275 -2.51907e-23)
(1.00008 -8.6266e-05 7.62656e-25)
(1.0034 -0.00365764 -8.24089e-23)
(1.05478 0.0437553 -1.2426e-22)
(1.13583 -0.0548763 6.58005e-23)
(0.973733 -0.0501831 -3.97986e-22)
(1.03489 -0.00341779 7.53558e-23)
(0.954652 -0.0358928 -2.11037e-22)
(0.9939 -0.0021032 -3.44295e-23)
(1.11401 0.0913705 -9.07652e-22)
(0.996552 -0.00232958 1.22214e-23)
(0.999097 -0.00031018 2.12952e-23)
(1.00103 -0.0222755 -5.91961e-23)
(1.01797 -0.059546 -2.13069e-22)
(0.999933 -7.25613e-06 3.20403e-25)
(0.997901 -0.00189933 -2.52885e-24)
(1.18282 0.0790008 2.56699e-22)
(1.00625 -0.0325599 -6.31604e-23)
(1.0432 0.0926999 2.36701e-21)
(0.929286 0.0257527 9.25758e-21)
(1.0006 -0.0282607 -1.16507e-22)
(0.99286 -0.0145838 1.16107e-22)
(0.947344 0.0164543 3.72495e-21)
(1.00046 -0.00015738 3.03002e-24)
(1.01061 0.00365839 -1.24335e-21)
(0.988651 0.0658387 2.62634e-21)
(1.00345 -0.00908383 -3.30604e-23)
(0.926407 0.106547 2.5618e-21)
(0.991666 -0.000670083 1.81621e-22)
(1.11797 -0.0187787 6.26733e-23)
(1.13141 0.138189 2.00556e-21)
(0.971223 -0.0180241 8.21524e-23)
(0.99995 -2.27087e-05 -9.11828e-25)
(1.00864 -0.0499507 -2.12046e-22)
(0.953629 -0.000839908 -1.40327e-22)
(1.01766 0.0362456 7.16954e-22)
(1.01131 -0.0138284 -1.27174e-22)
(1 -6.35947e-05 7.74607e-26)
(1.07538 -0.0653177 -1.57701e-22)
(1.25857 -0.0471006 -6.00115e-22)
(1.02517 0.0804666 -4.36553e-21)
(0.999492 -0.000196665 -4.46158e-24)
(0.999526 -0.000177823 -1.30766e-24)
(0.928215 -0.0485636 -5.65298e-22)
(0.998433 -0.0566512 4.26704e-22)
(0.971148 -0.018885 9.26075e-23)
(1.00319 -0.00378377 1.40994e-23)
(1.05545 -0.00341626 -1.31079e-22)
(0.919432 -0.0209024 -4.73125e-22)
(1.03073 0.0957079 2.19664e-21)
(1.00386 -0.0736576 6.95811e-22)
(1.00048 -0.000391446 7.55572e-24)
(0.973536 -0.0726163 -7.85322e-22)
(1.09722 0.109597 2.44246e-21)
(0.999947 -2.22718e-05 1.33418e-24)
(0.972447 -0.0116899 -4.93272e-22)
(0.999935 -8.90395e-06 -1.65469e-25)
(1.04583 -0.0140403 -6.58589e-22)
(0.972132 -0.0501722 2.64748e-22)
(1.03206 0.0135545 1.30736e-21)
(1.00155 0.0634735 4.03969e-21)
(0.999545 -0.00017996 -1.10573e-23)
(0.999995 -7.06399e-05 -1.90489e-26)
(1.01442 -0.12511 -4.19288e-23)
(0.993359 -0.134573 -8.06116e-22)
(1.04667 -0.0351606 6.39118e-23)
(1.00002 -2.06489e-06 5.1031e-26)
(0.998928 -0.00630396 -4.45068e-23)
(0.999896 -0.00223739 1.68646e-24)
(0.99081 0.0674424 1.21603e-23)
(1.03283 0.0523654 -1.55184e-21)
(0.987869 -0.0077563 -1.95554e-22)
(1.00003 -6.9467e-05 6.979e-26)
(1.00377 -0.00898052 -2.51478e-23)
(1.23489 0.0528598 8.90872e-23)
(1.00544 0.0114541 1.98853e-21)
(1.16982 -0.00748061 6.50909e-23)
(0.927782 0.0314839 -8.78046e-21)
(1.00111 -0.000362092 -1.91549e-23)
(1.1529 0.00599296 -1.1697e-22)
(1.11574 0.0255176 -2.62306e-22)
(1.02225 -0.056362 1.52186e-22)
(1.00404 -0.00345822 -7.34009e-23)
(1.00003 -0.000446896 1.17914e-25)
(1.03703 -0.0681126 1.59814e-22)
(1.13422 0.136069 1.1266e-21)
(0.999479 0.114381 4.99925e-21)
(1.18229 -0.0190903 -4.54394e-23)
(1.04434 -0.014019 5.56075e-22)
(1.01498 -0.0100196 5.53357e-22)
(1.04592 0.144469 3.65805e-22)
(0.970986 -0.000866902 7.24726e-22)
(1.19581 -0.164265 2.31856e-21)
(1.09914 0.106487 -1.84684e-21)
(1.14995 0.00915262 1.43743e-22)
(0.934605 -0.00603761 -6.01765e-22)
(0.948809 -0.0511763 1.75751e-22)
(1.00002 -1.85097e-06 -2.18884e-26)
(0.999989 -3.61684e-06 7.44748e-26)
(0.997432 -8.9279e-05 -2.85531e-23)
(0.997972 -0.0124808 5.1404e-23)
(0.9933 -0.100865 -5.97661e-22)
(1.17516 -0.113126 8.87947e-22)
(1.17424 0.116009 1.25143e-21)
(1.03087 -0.0164095 2.90027e-22)
(1.0187 -0.0186358 9.58826e-23)
(1.00044 -0.000634525 1.1652e-23)
(0.999867 -0.00022569 1.27257e-24)
(1.0014 0.0218055 -4.2632e-21)
(1.00055 -0.00155445 1.35404e-24)
(0.993373 -0.011836 7.98803e-26)
(1.05498 0.146497 -1.09192e-21)
(1.00373 0.0405985 -4.52058e-21)
(1.13735 -0.0501948 -8.81122e-23)
(0.955902 -0.00317767 2.42916e-22)
(0.971589 -0.0563299 6.12376e-22)
(1.11299 0.0948997 2.38077e-22)
(0.99995 -4.67177e-05 2.88279e-25)
(0.999988 -3.48867e-06 -2.79064e-26)
(0.987822 -0.00815358 6.92612e-23)
(0.950143 -0.0500085 -9.40454e-22)
(1.00005 -0.000229202 -7.47528e-25)
(1 -6.75134e-05 2.56919e-26)
(0.993096 -0.00534532 -2.29416e-23)
(1.00004 -0.000433735 -9.49651e-26)
(1.00583 -0.00589713 -4.11326e-23)
(1.05219 0.148575 1.28964e-21)
(0.971424 -0.000456399 -5.9691e-22)
(1.06681 -0.112109 -2.23714e-22)
(0.99483 -0.000102114 1.16525e-22)
(1.00214 -0.0027162 4.31486e-24)
(0.971665 -0.0115136 8.34184e-22)
(0.999231 -0.0062823 -4.01595e-24)
(1.16909 0.0031184 -1.85614e-22)
(0.999978 -1.0239e-05 4.52222e-25)
(1.01624 -0.0382881 -6.39257e-23)
(1.02677 0.0821686 1.56318e-21)
(0.993133 -0.0135342 -6.78371e-24)
(1.18749 -0.163316 -2.14828e-21)
(1.02579 0.0446764 -1.36202e-21)
(0.993562 -0.00294102 -1.68954e-22)
(0.981437 -0.0166116 2.13858e-22)
(1.00383 -0.00347944 1.1188e-22)
(0.999414 -0.00867982 -2.48896e-23)
(0.999719 -7.51935e-06 1.2769e-24)
(1.00678 -0.017869 2.13625e-23)
(0.923783 0.0157551 3.66208e-21)
(1.00091 0.0180017 3.28065e-21)
(0.985181 -0.00661389 5.48159e-24)
(0.993677 -0.0116469 -7.28878e-23)
(0.982727 0.0355231 -3.50578e-21)
(1.01141 0.0285583 6.15337e-22)
(0.921239 -0.0206324 5.73987e-22)
(1.00116 -0.000485804 -1.4988e-23)
(1.09349 -0.0842955 2.68577e-22)
(0.975899 -0.0972267 8.10512e-22)
(0.998739 -0.0175022 4.16125e-23)
(1.00085 -0.00106755 -2.39335e-23)
(1.04771 0.147321 5.34565e-22)
(0.993321 -0.00535319 -1.5351e-23)
(1.00675 -0.00525998 -4.60111e-23)
(0.991093 -0.100623 7.93329e-22)
(1.0154 -0.128444 1.06606e-22)
(0.999963 -5.22404e-06 1.09675e-25)
(0.979359 0.0928846 -4.36173e-21)
(0.998959 -2.36277e-05 -2.78103e-25)
(1 -5.42774e-05 2.28436e-26)
(0.999452 -0.000209574 1.90345e-24)
(1.00167 -0.0564951 -1.55576e-22)
(1.16853 0.0867624 -9.95759e-22)
(1.01713 -0.0373661 1.11168e-23)
(1.00654 -0.00491677 -3.15605e-23)
(0.997831 -0.000243247 3.93855e-23)
(0.922862 -0.0229742 -1.07938e-22)
(1.00003 -0.000475126 -1.84947e-25)
(1.00049 -0.00158558 1.37189e-25)
(0.997663 -0.00020637 -2.6024e-23)
(1.02514 0.00147191 1.20811e-21)
(0.997369 -0.00401595 -8.22208e-24)
(0.998941 -0.00585673 1.32229e-23)
(1.02558 -0.000988296 6.04221e-22)
(1.00013 -0.000388087 1.16588e-24)
(1.00004 -4.89542e-06 7.68586e-26)
(1.00492 -0.000590376 1.59642e-23)
(0.975641 -0.0360879 -3.13024e-22)
(0.974671 -0.000440745 -2.87497e-22)
(0.995148 -0.000387879 -1.2406e-22)
(1.01151 0.00287839 1.02951e-21)
(0.983726 -0.0012153 1.3621e-22)
(1.01884 -0.0179737 -9.21868e-23)
(0.999968 -1.22276e-05 3.88741e-25)
(0.997043 -0.00265304 -4.69736e-23)
(1.0008 -0.00105951 2.58743e-23)
(1.09156 -0.0806459 2.61092e-22)
(1.10427 -0.193234 1.77353e-21)
(0.998612 -0.000125599 2.05236e-23)
(1.00047 -0.000564367 -8.96434e-24)
(0.998839 -0.00571887 -4.5236e-24)
(1.00363 -0.00801675 -6.18741e-23)
(0.988802 -0.000639099 -2.43462e-22)
(0.999952 -4.4482e-05 -1.83778e-26)
(1.25111 -0.0469715 -1.19307e-21)
(1.00005 -0.000485898 2.13293e-25)
(1.02478 0.00134554 -8.50665e-22)
(0.996662 -0.00233207 -2.46031e-23)
(1.00015 -0.000376243 4.92476e-25)
(1.03109 0.0137858 -8.31223e-22)
(0.969246 -0.0937688 -8.48898e-22)
(1.00025 -4.25571e-05 4.96194e-24)
(1 -1.2624e-05 1.61252e-26)
(0.9344 -0.00432242 -6.85315e-22)
(1.07935 -0.182244 -2.62231e-22)
(0.991314 -0.00856976 -1.82482e-23)
(1.02153 -0.0578689 -4.08898e-23)
(1.03177 -0.0169494 -4.7588e-23)
(1.03127 0.0804963 1.9091e-22)
(1.00008 -8.14415e-05 2.10937e-25)
(0.976108 -0.035264 2.95271e-22)
(1.20792 0.0238337 -3.18477e-23)
(0.967526 0.0506455 8.66401e-23)
(0.993029 -0.0132378 5.41636e-23)
(1.02499 0.0432725 1.6532e-21)
(1.11686 -0.0155305 5.12988e-23)
(0.999895 -0.00246144 -1.89457e-24)
(0.853545 0.0452737 5.42191e-21)
(0.999455 -0.000440973 -1.28173e-23)
(1.06708 -0.116138 -3.02836e-22)
(0.924242 -0.0229096 7.05168e-22)
(1.00227 -0.0025656 -2.36968e-23)
(1.16552 0.0483978 6.17319e-22)
(0.991232 -0.000972342 -1.44776e-22)
(1.0011 0.12279 3.45617e-21)
(0.996486 -0.000269148 1.13719e-23)
(0.982059 -0.0178924 -1.11819e-23)
(0.999805 -0.00223742 -1.08617e-23)
(1.08078 0.126478 5.49914e-22)
(1.00069 -0.0176155 1.0279e-23)
(1.02826 0.0959877 1.33521e-22)
(0.999487 -4.62983e-05 -4.91903e-24)
(0.994063 -0.00194554 -5.42912e-23)
(0.966046 0.112189 -2.21627e-21)
(1.02981 0.00144973 -1.01581e-21)
(1.02539 -0.000687725 7.0126e-22)
(0.971038 -0.0464739 7.4224e-22)
(0.999847 -3.30387e-05 1.29143e-24)
(1.00352 -0.00774377 -7.07313e-24)
(0.999837 -0.000950423 -3.94288e-24)
(1 -5.14265e-05 1.90457e-26)
(1.05206 0.010169 2.95526e-22)
(1.00004 -5.36504e-06 7.64379e-27)
(0.979402 -0.0159621 5.07985e-22)
(1.20668 0.0192945 7.98095e-24)
(0.907835 0.0968353 -5.3651e-21)
(1.00189 0.114788 -7.69502e-21)
(0.971727 -0.0801714 2.59485e-22)
(0.987011 -0.0322076 1.80199e-22)
(0.975947 -0.001693 1.36716e-22)
(1.03767 -0.033739 1.9856e-22)
(1.00733 -0.0175871 -3.70894e-23)
(0.981343 -0.0174133 -2.95362e-22)
(0.973657 -0.0880579 1.14362e-22)
(1.0297 0.0822309 -2.95527e-21)
(0.999511 0.0148254 5.71635e-21)
(0.998703 -0.00015325 1.13172e-23)
(1.00266 0.0642051 -5.574e-21)
(1.05149 0.00869962 1.04324e-22)
(1.17232 -0.00239671 -1.51702e-23)
(1.01419 -0.0151923 4.37979e-23)
(1.00167 -0.0161351 -4.71156e-23)
(1.02896 -0.0512124 -8.8161e-23)
(0.994497 -0.00187802 -1.27999e-22)
(0.997291 -0.000673197 -8.31127e-24)
(0.999939 -7.02484e-06 1.69403e-24)
(0.999256 -0.00890038 3.68079e-23)
(1.09932 -0.0245 3.91089e-23)
(1.08059 0.129784 -9.05849e-22)
(1.00164 -0.00139563 1.11415e-23)
(0.971852 -0.0298108 -4.06875e-22)
(1.01611 -0.0153513 -1.38881e-22)
(0.999961 -1.68221e-05 -1.48257e-25)
(0.972614 -0.0839495 -4.12088e-22)
(0.886293 0.0763429 -2.41191e-21)
(0.993669 -0.00502336 1.89894e-22)
(0.998933 -0.00467942 1.20875e-23)
(1.01476 -0.0149538 -2.71431e-23)
(1.0081 -0.0484713 2.68172e-22)
(1.07348 0.0389248 3.82425e-22)
(0.999701 -0.0100825 -6.02673e-24)
(0.999967 -5.4093e-05 9.52029e-25)
(1.00001 -2.8997e-06 2.5134e-26)
(0.997254 -0.000613288 -9.2481e-24)
(0.964429 0.11141 3.20567e-21)
(1.05182 -0.0228357 1.47009e-22)
(1.10987 -0.188973 -4.56195e-22)
(1 -1.26452e-05 1.34694e-27)
(1.07755 -0.188239 1.77015e-22)
(1.0756 0.00857515 -4.60612e-22)
(0.994702 -0.000170828 -5.85625e-23)
(0.926975 -0.00830391 -8.47365e-22)
(0.999017 -0.0045958 -1.20863e-23)
(0.999557 -0.000201552 -8.07453e-25)
(0.976629 -0.0317943 -8.80836e-23)
(1.00094 -0.00117056 -1.15711e-23)
(1.17112 0.00781954 1.97841e-22)
(1.00922 -0.00105188 -3.28378e-22)
(1.13586 0.117282 -9.4992e-22)
(0.99993 -0.00242879 2.45629e-24)
(1.00486 -0.014105 1.21215e-23)
(1.00528 0.0101406 -2.69575e-21)
(1.22968 0.0502707 2.28667e-23)
(1.00043 -0.000597244 -6.85005e-24)
(1.00045 -0.000529221 6.71718e-25)
(0.992232 0.0793319 2.7322e-22)
(0.99986 -0.057549 -8.53001e-23)
(0.999516 -0.00993832 7.32786e-24)
(1.01031 0.0315664 3.22819e-22)
(0.97618 0.0179815 6.84983e-21)
(1.13822 -0.0587494 -2.14839e-22)
(1.00052 -0.0272549 -3.57653e-23)
(1.16466 0.0857554 9.89882e-22)
(0.999216 -7.54805e-05 -8.48061e-24)
(0.990965 -0.00448065 5.11144e-23)
(0.99656 -0.000282621 -3.18896e-23)
(1.01278 0.0272975 3.60036e-24)
(0.999989 -0.000780535 2.26543e-25)
(1.00892 -0.00128498 3.35565e-22)
(1.19424 -0.0897379 2.94213e-23)
(0.997915 0.108416 7.72742e-21)
(0.929155 0.109807 -1.18673e-21)
(0.993761 -0.00293183 6.71932e-24)
(0.991042 -0.00837556 5.48287e-23)
(1.04087 0.0946629 -1.89307e-21)
(1.01879 -0.0614436 3.06684e-22)
(0.999941 -8.37839e-06 -1.65239e-24)
(1.15659 0.126769 2.08977e-21)
(1.02439 0.00191469 -3.6125e-22)
(1.02391 0.00184595 -2.43688e-22)
(0.994394 -0.0143359 -7.82966e-23)
(1.01838 -0.00181917 -5.09524e-22)
(0.957451 0.100141 1.08349e-21)
(1.17419 -0.126137 -2.83308e-22)
(0.981055 0.0993993 1.1689e-21)
(0.992204 0.098819 -2.00572e-21)
(0.999997 -6.76623e-05 6.02922e-26)
(1.09611 -0.0244377 -1.03164e-22)
(1.17204 -0.120248 1.8309e-22)
(0.997245 -0.00405399 2.15898e-23)
(1.00168 -0.00149769 -1.83843e-23)
(0.971851 0.0209237 1.63888e-21)
(1.05365 -0.0232837 -1.91713e-22)
(1.00029 -7.81881e-05 1.13021e-24)
(0.985368 -0.0685712 -8.95815e-22)
(0.975341 -0.100045 -3.81022e-22)
(0.994195 -0.00199856 7.62995e-23)
(0.999876 -0.000219142 -1.59741e-24)
(1.0346 0.111768 -3.26917e-22)
(1.03283 0.0506166 2.61753e-21)
(1.00005 -0.000531988 -5.96164e-26)
(1.00421 -0.00372891 1.44237e-23)
(1.0054 -0.00371292 7.80135e-23)
(1.21212 -0.033397 7.05231e-22)
(0.970991 -0.0452023 -6.5759e-22)
(1.00007 -0.000631296 -5.18963e-25)
(0.999985 -2.32696e-06 -4.18146e-26)
(1.00051 -0.000172652 1.78563e-24)
(1.07186 0.0395443 -3.75685e-23)
(0.970685 -0.0307885 -3.285e-22)
(1.00179 0.0413079 1.28672e-21)
(0.940806 -0.0572427 4.38655e-22)
(0.987886 -0.0319876 -1.87393e-22)
(0.97391 -0.00132317 -5.73809e-22)
(1.01171 0.0305402 -1.58831e-21)
(1.17857 0.0755773 4.46794e-23)
(0.998744 -0.000162967 2.07259e-23)
(1.00811 -0.00596378 -8.34328e-23)
(1.00088 -0.00115905 1.3118e-23)
(0.979964 0.108578 -3.02759e-21)
(0.972874 -0.0277603 1.74683e-22)
(1.00112 -0.000294413 -6.27139e-24)
(0.992064 -0.0039767 -6.88637e-23)
(1.15145 0.015277 3.15067e-22)
(0.999833 -0.0108307 -1.57017e-23)
(0.98797 -0.0139697 -3.80743e-23)
(1.00025 -0.000149383 -3.444e-24)
(1.00025 -5.68635e-05 -1.52414e-25)
(0.883328 0.0817373 3.78632e-21)
(0.991299 -0.0014482 -9.02218e-23)
(0.995002 -0.00515431 7.75187e-23)
(0.999616 -0.00198352 -9.59252e-24)
(0.999236 -5.7601e-05 -1.16293e-24)
(1.03663 0.0794098 -1.00155e-21)
(1.20022 -0.0873486 5.42906e-23)
(0.987004 -0.0487132 1.12597e-22)
(1.00002 -2.27516e-06 -2.58651e-26)
(1 -4.133e-05 1.74795e-26)
(0.971764 -0.0288361 4.61417e-22)
(0.992834 -0.00211231 1.82812e-23)
(0.994546 -0.00239474 -1.04452e-23)
(1.0147 -0.00521975 1.59555e-22)
(1.00601 -0.00250908 2.79696e-23)
(1.00101 -0.0180174 -1.81215e-23)
(1.1217 0.00947024 5.65821e-22)
(0.979866 -0.00507218 -1.15258e-22)
(0.982609 0.0976135 -9.50635e-22)
(1.01667 -0.026685 -4.06659e-23)
(1.00026 -0.00014994 3.82972e-24)
(0.970479 -0.0788075 3.89163e-23)
(0.9844 -0.0432636 -3.92616e-22)
(1.15626 0.0476192 4.10329e-22)
(0.997053 -0.00669086 -2.29353e-23)
(0.992382 -0.0568513 -1.35479e-22)
(0.999978 -6.06898e-06 2.49104e-25)
(0.939261 0.0803854 -3.72379e-21)
(1.01553 -0.00215835 2.87944e-22)
(1.00009 -0.000255364 -1.19127e-24)
(0.923696 0.0215497 -4.71731e-21)
(0.985833 -0.0490755 2.62221e-22)
(0.999977 -7.05366e-06 3.94422e-26)
(1.00152 -0.00136522 5.42868e-24)
(0.971177 -0.0824124 -2.29479e-22)
(1.0448 -0.0341636 6.57617e-23)
(1.0491 -0.00743948 3.72891e-22)
(0.999991 -3.8767e-06 5.97607e-26)
(0.991251 -0.000739107 7.20318e-23)
(1.02963 -0.0498784 1.38197e-22)
(0.994357 -0.00183233 1.05642e-22)
(0.999508 -5.32528e-05 -2.66505e-23)
(0.991149 -0.00462472 1.45108e-24)
(0.979756 0.0370024 4.07566e-22)
(0.992698 -0.0141728 -9.71022e-23)
(0.988491 -0.0136597 2.79383e-23)
(1.0016 0.0250833 -1.31259e-21)
(0.997098 -0.00250539 2.45602e-23)
(0.975567 0.109959 -3.89349e-22)
(0.999976 -7.08887e-06 -1.26605e-25)
(0.990268 -0.0320063 7.4657e-23)
(0.98974 -0.0954885 9.08193e-22)
(0.993633 -0.0570739 2.28308e-22)
(1.20996 0.00671218 5.02661e-23)
(0.998821 -0.00612762 2.98505e-23)
(1.01144 -0.0255291 1.80984e-23)
(0.999923 -0.00261602 4.81793e-25)
(0.982205 -0.0253372 -2.23121e-22)
(1.04701 -0.0372003 2.36707e-23)
(0.999963 -1.60892e-05 7.52954e-25)
(1.00002 -1.27579e-06 -4.42699e-26)
(0.993188 -0.000472758 4.86543e-23)
(0.982279 0.0697079 2.6964e-21)
(1.01456 -0.020617 1.67739e-22)
(1.00276 -0.00382586 -2.29464e-23)
(0.92262 -0.0431739 6.07167e-22)
(1 -1.13594e-05 3.70962e-27)
(1.00104 -0.00127737 -2.10016e-23)
(0.999964 -0.000744293 -2.99437e-25)
(1.01591 -0.0195864 1.85247e-22)
(0.982011 -0.0186887 3.92356e-23)
(0.999593 -0.000313475 3.35259e-24)
(0.993144 -0.0126263 3.65238e-23)
(0.986615 -0.00812209 -4.09603e-23)
(1.00108 -0.000176522 -1.72557e-24)
(0.999975 -8.18569e-06 -7.90199e-26)
(1.19704 0.043098 1.99626e-22)
(0.999656 -0.00195044 1.02796e-23)
(1.07447 0.00354135 3.50844e-22)
(1.00959 0.106588 7.54656e-21)
(1.0374 0.0932134 -1.72962e-21)
(1.00169 -0.0227865 -6.93812e-23)
(1.00589 -0.00227399 -9.25459e-24)
(1.0187 -0.00143986 3.11805e-22)
(0.999976 -0.00267392 -5.44293e-25)
(0.997904 -0.0116176 3.65672e-23)
(1 -1.88937e-05 2.97151e-26)
(0.99004 0.099048 -1.5035e-22)
(0.987166 -0.0184663 5.39078e-23)
(1.0144 -0.00481618 -1.13825e-22)
(0.980338 -0.00525868 2.3556e-22)
(1.00434 -0.0139018 1.20474e-24)
(0.997233 -0.00657645 4.96564e-23)
(0.999889 -0.000224541 3.74032e-25)
(1.00002 -1.21851e-06 -2.39555e-25)
(0.995175 -0.00513053 -5.6394e-23)
(1.05597 -0.0048865 -2.08571e-22)
(1.00391 0.042255 2.02831e-22)
(1.0013 -0.000521836 -2.54684e-23)
(0.975605 -0.0724692 -2.01488e-22)
(0.972741 -0.0269376 -7.90188e-23)
(0.991469 -0.000579875 -2.69598e-22)
(1.17178 0.112807 -7.91048e-22)
(0.998613 -0.00107114 -1.22997e-23)
(1.00453 -0.0157355 -3.35848e-23)
(0.994119 -0.0031554 5.29626e-23)
(0.999898 -0.00021644 3.15332e-25)
(0.971999 -0.0863242 2.59751e-22)
(1.00172 0.036252 -2.01342e-21)
(1.02596 0.0397498 -1.71044e-21)
(0.975136 -0.0178587 -3.81654e-23)
(1.00123 0.0346252 -9.1097e-23)
(1.00009 -0.000239822 2.30126e-24)
(1.00002 -1.64676e-06 7.40598e-26)
(1.1554 0.123933 -7.91263e-22)
(1.16147 0.0503065 -3.80916e-22)
(0.926299 0.0820155 -1.84521e-22)
(1.01199 -0.0962516 6.5391e-22)
(0.974204 -0.0018256 -1.78714e-22)
(1.14768 0.0189619 -4.33527e-22)
(1.00124 -0.000544539 2.88441e-23)
(0.993915 -0.00425401 3.03605e-23)
(1.00049 -0.000183521 -1.70362e-24)
(0.988324 -0.000821274 -5.93445e-23)
(0.987449 -0.0150663 -7.91547e-23)
(0.999996 -3.70385e-05 -1.68286e-25)
(0.999051 -3.66201e-05 4.84786e-24)
(0.997657 0.106125 -7.03079e-21)
(0.999863 -0.000773251 3.57476e-24)
(0.945897 0.0742047 4.48036e-21)
(1 -1.7957e-05 -2.26692e-26)
(1.20794 0.0806466 4.68849e-22)
(1.07496 0.00180746 -7.51352e-22)
(1.12035 0.011831 -6.28755e-22)
(1.00111 -0.00051714 1.72789e-24)
(1.0002 -4.59646e-05 3.0534e-24)
(0.985981 0.0661869 -4.02692e-21)
(1.07643 0.0065135 1.50559e-21)
(0.98939 -0.0976718 -8.38706e-22)
(1.01821 0.0379334 7.73206e-22)
(0.998635 -0.023405 3.0581e-23)
(0.985323 -0.00622816 -6.04301e-23)
(0.99563 -0.000243797 -3.20966e-23)
(1.08283 0.148108 -4.18452e-21)
(0.974349 -0.0321479 2.84144e-22)
(1.03782 -0.0320351 -1.31605e-22)
(0.993427 -0.0124975 -2.08643e-23)
(1 -1.13039e-05 -6.16209e-28)
(0.998627 -0.00101118 -1.04519e-23)
(1.00641 -0.00635402 4.90699e-23)
(0.979676 -0.00939536 3.02827e-22)
(0.975822 -0.0179783 5.67494e-23)
(0.952151 -0.0508237 -9.16772e-23)
(0.979469 -0.00996914 -2.2914e-22)
(1.01726 0.00273441 1.40354e-22)
(0.99772 -0.00015577 6.52735e-25)
(0.930107 -0.049051 3.16401e-22)
(0.98448 -0.00106347 -8.40736e-23)
(1.00004 -0.000231728 3.20276e-25)
(0.986508 -0.000846343 -5.835e-23)
(1.0391 -0.0348607 -2.17091e-22)
(1.01654 0.00290979 -7.7619e-22)
(0.971943 -0.0325005 -7.12955e-23)
(0.999982 -8.17591e-07 -1.1606e-27)
(0.981139 -0.0191479 5.91377e-23)
(1.00291 -0.0161964 3.76351e-24)
(1.00149 -0.00126768 6.97141e-24)
(1.19828 -0.113419 -7.9907e-22)
(1.00135 0.0337395 -4.66341e-21)
(1.00097 -0.00126229 1.94974e-23)
(0.986745 -0.000637601 8.05354e-25)
(1.12959 -0.0625364 -6.38696e-24)
(1.02601 0.000644342 1.21836e-21)
(0.991524 0.0262108 -4.35516e-22)
(1.00199 -0.00267724 6.21783e-24)
(1.00158 -0.0237651 2.1746e-23)
(1.06845 0.115025 -6.16945e-22)
(1.01373 0.0244265 -3.9698e-21)
(0.991461 -0.0317884 1.97188e-22)
(1.00509 -0.00372323 -8.73447e-24)
(0.947059 -0.0609716 4.39043e-22)
(0.999997 -5.75514e-06 3.2951e-26)
(0.943121 -0.00257353 -3.14699e-22)
(1.00009 -7.60144e-05 4.27667e-25)
(1.12717 -0.0652817 -5.49285e-22)
(0.999964 -3.80803e-06 -8.35522e-26)
(1.00003 -6.79313e-05 2.43455e-25)
(1.00144 -0.0266683 -2.62305e-23)
(1.18195 0.084179 -5.63279e-22)
(1.01959 0.132597 3.31797e-21)
(1.04285 -0.0352245 -3.39213e-22)
(1.01542 -0.0155808 9.23672e-23)
(0.999999 -4.48753e-06 -8.73897e-27)
(0.993435 -0.00506371 -1.02762e-22)
(1.0001 -2.31932e-05 -3.18809e-25)
(0.996635 -0.00267278 3.51497e-23)
(1.00003 -6.32786e-05 -1.89113e-25)
(1.04878 -0.00565189 -1.16267e-21)
(0.999497 -0.000518924 -1.31484e-23)
(1.04547 0.0546935 1.75437e-21)
(0.999866 -0.000239448 -2.46392e-24)
(0.985874 -0.00607461 -1.01666e-22)
(0.95256 -0.00136289 6.96557e-22)
(0.995403 -0.000333527 -4.12396e-23)
(0.986033 0.0374124 4.19336e-21)
(0.980825 -0.000843786 1.64663e-22)
(1.05084 -0.115511 5.23079e-23)
(0.99408 -0.00445898 1.57088e-22)
(1.02524 -0.00212706 -2.58281e-22)
(0.97261 -0.0740095 9.39977e-22)
(1.01982 -0.00131973 -8.69062e-22)
(1.05666 -0.0710437 -1.68508e-23)
(0.999985 -1.86521e-06 1.08682e-26)
(1.00024 -0.0225451 2.4479e-23)
(0.995702 -0.00032159 5.03433e-24)
(1.00027 -0.000100949 2.30543e-24)
(1.00009 -1.95e-05 5.33107e-25)
(1.08575 0.150107 4.58296e-21)
(0.994729 -0.0024006 8.80256e-23)
(1.02559 0.00146943 1.3872e-21)
(1.00233 -0.0242772 2.63089e-23)
(1.00092 -0.000331416 6.6827e-24)
(1.02427 -0.00755256 -9.64227e-22)
(1.00018 -4.32727e-05 -6.74733e-24)
(0.999974 -3.79127e-06 -1.13083e-26)
(0.943857 -0.0034254 2.4185e-22)
(0.996241 -0.00135877 3.97665e-23)
(1.00003 -6.16348e-05 2.85104e-25)
(1.04614 0.0933617 1.29772e-21)
(0.89639 0.0663401 -6.67575e-21)
(0.999775 -0.000253647 6.17172e-24)
(0.95479 -0.00273857 -1.87589e-22)
(1.00002 -1.64589e-06 5.29051e-26)
(0.95461 0.0980288 -4.34003e-21)
(1.21159 0.0845061 5.26436e-22)
(0.970851 -0.0590175 -7.50161e-22)
(1.00005 -0.00061066 -6.03904e-25)
(1.03637 -0.0310271 3.0623e-22)
(1.03011 -0.00127137 -3.56472e-22)
(1.0305 0.00155502 1.04046e-22)
(1.05038 -0.00786025 -1.46739e-22)
(0.999623 -0.0020913 -1.58068e-24)
(0.999862 -0.000926634 3.10623e-24)
(0.985074 -0.0184707 -1.7299e-22)
(1 -9.98758e-06 -4.83705e-27)
(1.00002 -1.40462e-06 -1.35833e-26)
(0.973285 -0.0316417 -1.67998e-22)
(1.00541 -0.0724047 -3.40181e-22)
(0.953635 -0.049735 -2.34923e-23)
(0.914762 0.0929013 -1.37756e-22)
(1.00022 -2.79312e-05 -2.82024e-24)
(1.03241 -0.086533 -6.83123e-22)
(1.00785 -0.00560533 -8.57822e-23)
(0.999975 -4.02602e-06 1.29304e-25)
(0.998953 -0.00435559 -2.62784e-23)
(1.00004 -0.000517697 -3.70123e-25)
(0.995586 -0.0144748 5.87869e-23)
(1.00005 -1.142e-05 3.17425e-25)
(1.05841 -0.0690689 -3.79969e-23)
(1.01947 -0.00162135 8.44133e-22)
(0.976862 0.108052 1.03206e-21)
(1.02477 -0.00204778 9.67936e-22)
(0.999703 -0.000248377 4.87747e-24)
(1.00049 -0.000427394 -6.57962e-24)
(1.21481 -0.0388948 -7.3967e-22)
(1.0256 0.00117061 -1.11503e-21)
(0.996675 -0.000438249 3.60453e-23)
(1.00002 -1.69625e-06 1.12726e-25)
(1.05967 0.085368 -2.16155e-21)
(1.17231 -0.172128 -3.91314e-22)
(1.01162 -0.0938791 -2.8346e-22)
(0.984041 -0.00090652 -4.4322e-23)
(0.999977 -2.45291e-05 2.51222e-25)
(0.999706 -0.000234271 -2.85875e-24)
(1.18144 -0.172521 1.10706e-21)
(1.0032 -0.0572929 -9.06351e-23)
(1.03308 0.0300367 2.4456e-22)
(0.982201 0.0943553 3.95888e-21)
(1.04836 -0.112582 3.93237e-22)
(0.998645 -9.33372e-05 -6.45452e-24)
(0.999978 -1.14767e-05 -2.94893e-25)
(0.961377 -0.0642594 7.4762e-22)
(0.988824 -0.128492 -9.8261e-22)
(0.999784 -0.000262544 3.29659e-24)
(1.01203 -0.024736 8.16339e-23)
(0.991744 -0.0308892 -3.45564e-23)
(0.995007 -0.00257101 3.46581e-23)
(0.998404 0.0272594 -3.33585e-21)
(0.998623 -0.000605016 2.31167e-23)
(1.06469 -0.0462615 3.22822e-23)
(1.13081 0.141404 -2.12257e-21)
(0.991615 -0.00375725 -1.01269e-22)
(0.92441 0.0774359 -6.62166e-22)
(0.930978 0.0367249 2.01309e-21)
(0.999967 -5.72664e-05 -9.56891e-25)
(0.999974 -0.000813602 -2.46491e-25)
(0.981064 -0.00112043 -1.04832e-22)
(1.01371 -0.00479101 -2.06062e-22)
(0.956789 -0.00251541 3.95334e-22)
(1.00554 -0.00460879 -8.98515e-23)
(0.991922 -0.00376543 9.43906e-23)
(0.999394 -0.000552909 -1.00321e-23)
(0.962042 0.0984026 -7.78943e-22)
(1.04627 0.0526988 -2.72228e-21)
(1.00244 -0.00258937 1.59376e-23)
(0.859825 0.0426334 -1.35068e-21)
(1.00002 -1.41969e-06 -7.60634e-26)
(1.02325 0.00667771 -1.93244e-21)
(1.00912 -0.119681 6.56217e-22)
(1.03528 -0.0858088 2.65118e-22)
(1.0001 -0.000232927 -1.17997e-25)
(0.954591 -0.00138473 3.22207e-22)
(1.0209 0.00585366 1.08283e-21)
(1.01338 -0.00514613 1.70794e-22)
(1.02941 -0.00040204 4.91868e-22)
(0.999521 -4.17065e-05 1.88065e-23)
(0.999491 -0.00055285 1.19074e-23)
(1.03283 -0.0477312 2.7317e-23)
(0.996304 -0.00146408 -1.13442e-22)
(0.986402 -0.0137392 -1.87903e-22)
(0.999079 -0.0039444 1.55606e-24)
(1.06927 0.0448395 1.43432e-21)
(1.00004 -0.0235301 -1.69014e-23)
(0.994711 -0.00546193 1.86725e-24)
(0.917794 -0.0367598 -9.10803e-22)
(0.994173 0.0793613 4.49651e-22)
(1.11876 -0.0106606 -4.53434e-22)
(1.02373 -0.00727205 7.7258e-22)
(0.999575 -0.00020231 3.57036e-24)
(0.999457 -0.000361569 1.61408e-24)
(0.981312 -0.0250897 4.51633e-22)
(1.00107 -0.00137441 -1.56457e-23)
(0.99722 -0.000771155 -6.44268e-24)
(0.999978 -2.35242e-05 -9.47537e-26)
(0.999664 -0.00213022 3.23536e-25)
(1.02034 0.00537546 -4.20708e-22)
(0.985114 0.0689185 -3.87334e-21)
(0.999864 -1.72766e-05 7.66976e-25)
(1.10154 0.142041 -4.04363e-21)
(0.999995 -4.62487e-05 7.15765e-26)
(0.996534 -0.00316691 4.79063e-23)
(0.999991 -0.000105942 1.01442e-25)
(1.00557 -0.00398794 -3.97558e-23)
(1.20115 0.0414675 -1.4118e-22)
(0.999958 -4.80409e-05 8.10315e-26)
(0.999957 -5.15258e-05 5.71097e-25)
(0.939509 -0.0580385 -4.33783e-22)
(1.00001 -9.89518e-06 -2.30761e-27)
(1.0535 -0.00705559 1.24349e-21)
(0.989916 -0.0495876 3.56312e-22)
(0.999976 -0.000715294 2.96173e-25)
(1.06167 0.0692005 -1.68535e-21)
(1 -3.30547e-05 -4.41006e-26)
(0.999575 -4.32038e-05 1.64369e-23)
(0.999905 -3.96412e-05 2.70622e-26)
(0.994906 -0.00546961 -2.90328e-23)
(0.999649 -0.00169793 -4.92576e-24)
(0.99332 -0.000357916 -3.27964e-23)
(1.02968 -0.142866 -7.6122e-23)
(0.999689 -0.00165321 3.27785e-24)
(1.00447 -0.00373935 -3.09597e-23)
(0.999974 -2.76133e-06 -4.84333e-26)
(1.0212 0.130388 -6.30084e-21)
(1.06318 -0.0479771 7.12424e-23)
(1.12171 -0.0102429 -3.54732e-23)
(0.960046 -0.00747318 4.27983e-22)
(0.974761 -0.00513863 -7.72245e-23)
(0.999048 -0.00425767 4.33448e-23)
(1.00311 -0.00287363 4.32548e-23)
(1.03571 0.0628648 7.23735e-22)
(0.983763 -0.0446332 5.34083e-23)
(1.08467 0.105221 8.63907e-22)
(0.949812 -0.0173259 -7.87776e-22)
(0.996408 -0.0030593 -4.52545e-23)
(0.99999 -4.71201e-06 -1.07874e-25)
(0.993914 -0.00316898 -6.38091e-23)
(1.00362 0.124235 1.6058e-21)
(1.0539 0.075058 -3.86568e-22)
(0.987178 -0.067787 3.01826e-22)
(0.93025 -0.00770128 1.86056e-22)
(1.02502 0.124806 1.68615e-21)
(0.990803 -0.000662648 8.49753e-23)
(1.00029 -0.110225 5.22296e-23)
(0.999991 -0.00010127 1.80652e-25)
(0.988621 -0.0499966 4.47817e-22)
(0.999115 -0.0002503 -2.39576e-23)
(0.871068 0.0719954 -3.91461e-21)
(0.987494 -0.0907505 -6.95056e-22)
(0.999908 -3.55406e-05 1.41587e-24)
(0.92592 -0.025226 -4.88738e-23)
(0.983941 -0.0474248 2.40014e-23)
(1.02432 0.0668269 2.56893e-21)
(0.997259 -0.000841529 -6.07772e-23)
(0.98145 -0.0459951 -1.61509e-22)
(0.997717 -0.0119229 -5.1057e-23)
(1.00143 -0.0257423 -5.45376e-23)
(0.99866 -0.000615468 -1.5725e-23)
(1.02344 0.0654974 -3.10903e-21)
(1.09495 -0.19037 7.77928e-22)
(0.981111 -0.0199396 -1.31683e-22)
(0.985631 -0.0171363 2.75335e-24)
(0.985989 -0.00573596 -4.13603e-23)
(1.00553 -0.00217459 -3.63481e-23)
(1.02644 0.121966 6.60681e-21)
(0.980855 -0.0161686 5.96981e-23)
(1.01238 0.0358095 1.67764e-21)
(1.00286 -0.00231065 3.28808e-23)
(1.21199 0.0123334 -2.81889e-23)
(0.943537 0.0794096 6.66009e-22)
(0.990617 -0.000517289 -2.94655e-22)
(0.999758 -4.55603e-05 3.20388e-24)
(1.03487 0.0812182 7.81696e-22)
(0.995564 0.101947 -5.8639e-21)
(1.03157 -0.0460528 -2.37692e-23)
(1.09104 -0.0285175 4.93477e-23)
(0.995368 -0.0150313 -6.55944e-23)
(0.960682 -0.00674689 -2.53767e-22)
(1.06677 0.112763 2.48035e-21)
(0.959702 -0.064717 1.25608e-22)
(0.999975 -2.3556e-05 3.27391e-25)
(0.992042 -0.000127363 -1.50286e-22)
(1.00004 -6.21493e-06 3.21371e-25)
(0.995243 -0.000299748 1.12406e-22)
(0.999974 -2.47852e-05 -5.12083e-25)
(0.998434 -0.0166385 8.59654e-23)
(0.998988 -4.06703e-05 8.54816e-24)
(0.997181 -0.00623555 5.78362e-24)
(1.21238 -0.0189181 -1.06802e-22)
(0.999375 -0.000422875 8.58707e-24)