/*--------------------------------*- C++ -*----------------------------------*\
  =========                 |
  \\      /  F ield         | OpenFOAM: The Open Source CFD Toolbox
   \\    /   O peration     | Website:  https://openfoam.org
    \\  /    A nd           | Version:  7
     \\/     M anipulation  |
\*---------------------------------------------------------------------------*/
FoamFile
{
    version     2.0;
    format      ascii;
    class       surfaceScalarField;
    location    "13.5";
    object      phi;
}
// * * * * * * * * * * * * * * * * * * * * * * * * * * * * * * * * * * * * * //

dimensions      [0 3 -1 0 0 0 0];

internalField   nonuniform List<scalar> 
31093
(
587.951
-435.384
-152.567
270.699
43.1071
-313.806
939.758
-1127.68
187.923
-395.22
994.339
-599.119
-633.727
670.507
-36.7803
-687.329
53.6016
211.247
-30.6095
-180.638
577.622
-439.015
-138.607
215.072
-289.353
74.2815
84.3889
493.233
-72.8721
251.787
-178.915
-240.72
263.085
-22.3657
-236.898
-16.3599
253.257
34.6356
553.316
622.042
-650.692
28.6495
-965.12
569.9
-280.697
337.669
-56.9715
-89.544
-961.749
1051.29
-255.131
234.07
21.0611
305.167
-34.4677
-298.002
294.375
3.62756
-5.32918
-235.39
-439.916
524.304
268.908
-314.144
45.2356
939.758
-361.677
97.2389
264.438
889.402
-973.834
84.4322
341.208
-151.018
-190.19
-167.839
-91.2137
259.053
-105.163
-149.968
-592.218
741.063
-148.845
363.122
-311.249
-51.8731
341.916
-66.5131
-275.403
556.676
-291.238
-265.438
-717.392
780.419
-63.0267
-731.439
139.221
130.97
-342.931
211.962
932.299
-932.299
783.117
-347.607
-435.51
270.524
413.193
-683.717
4.07639
789.538
-793.615
-266.636
86.0079
180.628
-858.357
680.305
178.052
971.788
-82.3861
-141.307
-220.37
116.336
72.4274
-188.763
1065.36
-457.027
-608.336
308.637
-246.406
-62.2308
842.887
-30.4196
-812.467
239.271
-232.103
-7.16786
-787.829
70.4369
48.548
-739.866
691.318
-263.367
-144.053
407.421
762.707
-836.061
73.3544
147.846
-371.827
223.981
16.2477
-212.311
196.063
383.739
-113.335
-270.404
694.687
-751.745
57.0582
-52.3563
-298.905
351.261
-55.5312
-225.166
-665.106
434.902
230.204
-50.3819
244.848
-194.466
480.987
-483.458
2.47066
-183.853
-332.836
516.689
-697.597
828.062
-130.466
-716.838
108.757
608.08
509.843
-576.31
66.4669
-651.231
-65.6072
-148.624
-364.432
513.056
-148.195
-66.587
214.782
364.988
-548.625
183.637
315.365
-237.297
-78.0677
675.772
-53.73
-275.47
-32.7996
308.27
1062.43
-558.161
-504.267
-63.1665
458.63
-395.463
333.433
-146.443
-186.99
-227.125
15.3543
211.77
879.337
-608.813
564.186
-833.28
269.094
634.08
-525.323
816.955
-195.339
-621.616
286.322
-84.8729
-201.449
296.21
-81.1385
133.905
-184.287
-583.608
-274.75
241.785
-282.311
40.5266
-64.7841
169.116
-104.332
-610.739
426.886
154.843
-308.362
153.52
-401.323
667.074
-265.751
738.99
148.757
-887.747
904.526
-130.242
-774.284
184.124
-300.614
116.49
204.656
103.981
424.932
56.0555
262.434
-78.3099
-779.131
790.237
-11.1063
-315.79
242.918
963.473
-875.039
-88.4344
282.636
-127.793
408.544
-419.188
10.6445
186.731
99.1764
-285.907
445.958
-194.849
-251.109
1187.55
-1187.55
471.479
20.3963
-491.875
-50.0018
255.66
-205.658
-462.539
219.164
243.374
264.97
8.9324
-273.902
-242.936
-88.6506
331.587
32.5404
-200.379
183.144
28.1034
398.932
-112.962
-285.971
-256.721
-402.112
658.833
-554.253
491.086
-568.621
-431.464
-355.314
-178.332
533.646
576.726
57.3535
-292.032
-14.5195
306.552
-1030.11
260.203
769.911
-170.769
909.759
44.5173
261.837
-306.354
368.292
-585.205
216.913
239.791
-362.519
122.728
128.067
428.61
738.804
-828.348
31.4999
181.81
-213.31
180.068
161.14
271.463
91.6597
142.636
-497.95
-24.6231
-154.709
179.332
18.5076
220.763
847.64
-843.564
293.297
489.82
146.045
-347.816
201.771
252.219
935.328
256.231
-41.1016
-215.13
-280.763
-17.2393
-408.899
36.7745
372.125
107.854
60.6367
-168.491
287.246
-242.729
27.9972
-303.468
191.2
124.165
-297.336
221.799
75.5367
-529.033
66.2314
462.801
-89.9452
235.99
-260.143
84.0652
176.078
-95.5963
-224.474
320.07
-15.688
283.868
-268.18
-761.918
-211.915
127.959
-223.556
185.238
971.729
-67.2037
-234.473
-45.0968
279.57
151.873
665.082
-234.16
-25.9837
-732.115
148.507
88.2317
180.676
70.5254
-162.08
91.5543
-14.1962
-222.701
-186.467
334.313
-231.794
201.185
-36.7523
-395.008
-134.025
-185.794
-644.949
830.744
-174.676
109.892
347.575
60.9687
272.786
13.5367
434.844
23.7855
-325.569
456.538
325.002
-68.7711
-206.646
-112.441
319.087
-14.6428
-180.437
195.08
402.483
-442.95
40.467
104.92
110.577
-215.498
28.082
313.834
-571.829
509.269
62.5602
-544.42
-27.1691
571.589
-440.147
-114.106
-36.961
219.663
-182.702
22.768
-195.688
172.92
735.527
196.772
331.346
75.6667
-407.013
-90.7568
202.798
-112.041
266.95
38.2165
229.671
-125.477
-104.193
580.216
-215.228
24.4597
939.013
153.926
256.548
103.4
-359.948
265.626
-234.126
254.978
-379.922
124.945
63.7359
-938.774
-571.877
423.253
220.749
-150.224
-15.8649
265.656
-249.791
61.4761
269.87
-24.2542
289.039
-264.784
325.024
-58.0739
16.894
239.654
259.978
-369.524
109.546
-69.5567
311.138
-241.581
-458.217
191.2
-367.149
175.949
254.835
-405.714
150.879
-316.883
287.274
29.609
-3.96383
-330.634
334.598
757.192
-708.644
200.551
-184.303
619.537
-634.824
15.2869
418.007
91.8361
-862.978
536.832
326.146
-40.1318
306.863
-266.731
-89.2254
-151.294
240.519
-279.897
571.969
490.459
513.632
-513.632
-520.121
-509.993
-240.844
-221.695
896.486
-603.189
5.67825
261.504
-267.183
-190.296
-237.4
427.696
109.339
134.886
-244.226
491.01
-892.333
-325.751
237.101
-13.439
-395.46
354.783
-358.747
-1068.63
500.013
-485.027
485.027
-642.357
-4.96959
647.327
612.916
-244.624
302.188
115.179
-417.367
-316.399
266.397
-220.76
202.663
18.097
-510.498
814.916
-304.418
306.647
-64.8627
550.124
-78.645
-422.014
215.369
191.83
70.6047
-633.033
442.737
210.63
-357.073
87.658
-176.883
226.399
99.2081
-325.607
351.769
-111.978
-947.094
-240.454
623.34
-46.6138
-59.5382
266.117
-206.579
532.051
-438.222
-93.8295
-67.4811
747.525
-680.044
-53.22
896.107
263.269
1.70061
-81.9653
191.305
-65.2216
511.929
-446.707
-541.053
193.446
-169.81
14.4863
155.324
-111.365
413.553
-35.3644
218.898
-183.533
-65.276
-201.36
194.404
-86.5495
-77.3431
193.679
14.6192
-247.151
232.532
31.0838
459.557
-490.641
710.359
49.3859
-759.745
290.191
16.4562
-70.3773
-161.417
-110.605
14.7666
242.827
-257.593
37.1237
361.809
229.325
-739.823
330.501
-197.467
-84.8442
122.581
-820.595
698.014
61.7368
-371.807
-204.502
-279.782
215.561
64.2202
-357.701
-307.405
567.726
-999.189
241.381
-52.6639
-188.717
-24.8772
208.237
-183.36
-1038.29
334.001
704.29
-37.5733
372.586
-335.012
325.009
58.7306
-261.482
119.623
141.859
338.482
-79.3494
-259.132
365.527
-110.549
-199.316
298.492
294.6
-213.827
141.219
-166.096
-81.4725
572.324
-490.852
751.703
-187.517
-131.122
-321.983
453.105
853.958
-731.377
232.127
-217.36
-40.6441
-284.925
-537.194
80.9104
82.8359
-163.746
331.461
-55.2447
-276.217
-71.2416
175.668
-104.426
360.984
-101.006
-89.4288
-350.369
439.798
7.58134
843.979
-851.56
-776.478
804.357
-27.8793
-244.745
82.2685
162.476
-754.408
442.068
312.34
60.0601
-165.223
5.29568
173.105
-178.401
-253.982
248.653
6.27108
-231.041
224.77
220.548
-0.884881
145.937
-508.089
362.152
229.061
-214.441
-40.279
-186.846
-64.783
521.321
314.653
-47.3811
-267.272
-733.91
741.491
-478.56
339.222
139.338
441.082
-298.446
472.245
-860.722
388.477
-295.951
-75.8756
-726.525
28.9279
-165.264
-96.218
-646.65
631.715
14.9349
-177.685
351.726
-174.04
298.788
307.207
264.287
-167.747
-96.5399
268.925
-274.927
-457.188
-208.077
-92.5367
272.105
-173.339
-98.7658
-510.673
-4.23437
514.907
200.858
-95.9374
1006.23
-1006.23
433.566
-495.733
-542.557
137.008
200.688
-337.695
-448.215
407.571
-331.527
298.727
-328.297
412.542
136.486
-549.028
50.0379
712.669
524.741
-112.199
388.253
-566.585
83.8877
219.09
-302.978
-210.317
-227.773
438.09
255.748
86.624
-342.372
-297.403
-544.716
842.119
489.941
-746.662
340.412
17.2792
-357.691
-961.749
417.564
96.0677
234.624
-249.267
304.231
-356.587
-39.9795
159.704
-119.724
6.48307
-264.606
-254.158
11.7966
242.362
224.333
47.7728
264.967
-355.724
226.942
-93.0369
-503.798
-166.469
-141.894
-389.473
-364.935
-935.817
-168.344
1104.16
-498.869
940.121
-441.252
-143.291
-20.2073
163.498
-669.318
636.831
32.487
-235.056
331.831
-96.7742
256.047
276.004
1.84262
-214.154
873.925
-912.472
38.5468
441.839
-97.9969
184.005
-366.324
178.563
187.761
-228.702
39.1618
189.54
-471.307
-39.3662
133.942
-247.278
305.108
-78.7097
-1056.88
871.089
-506.516
441.295
-129.68
250.352
-120.672
-62.9402
379.343
-316.403
355.19
-309.676
-45.5134
-390.732
43.7233
-213.534
-278.226
655.224
-376.997
-54.7369
-261.053
-73.7506
414.162
4.41929
192.105
-196.524
876.342
189.02
-326.381
-39.9435
176.218
178.971
-373.667
-455.559
829.226
-810.018
352.991
446.516
-951.12
504.604
76.7297
-408.876
332.146
-268.259
197.017
-8.19653
467.754
-174.856
-192.293
-461.043
149.794
616.13
7.21048
27.0891
214.292
429.854
-107.808
-322.046
-99.8343
-92.6594
192.494
109.977
191.943
-257.219
9.11111
-118.391
-60.2489
178.64
-386.875
-8.28535
395.16
-6.68548
277.919
-271.234
-104.798
495.697
-390.899
-414.206
343.028
-87.2802
-874.72
807.239
339.804
-319.408
-83.5797
-296.342
-84.5745
-284.949
-656.066
-123.064
-509.35
259.09
250.26
-276.12
38.8235
-117.506
129.137
15.1871
175.177
413.437
-588.614
28.1501
-263.136
16.7296
-0.939589
289.978
150.353
-263.315
-58.5139
-236.359
294.873
-810.917
796.223
14.6939
235.338
-253.249
17.9105
363.586
532.9
278.821
-358.171
-15.3984
305.59
-724.626
694.206
292.644
-210.71
-81.9334
279.38
-13.7236
-184.371
-152.897
-318.084
470.981
-216.076
-100.808
300.755
-356
434.571
-523.999
117.021
80.6511
-197.672
207.213
-129.142
-78.071
277.311
-650.978
137.349
-501.781
242.735
-100.695
-142.041
48.1559
-810.074
-424.448
293.874
-341.255
-565.636
642.366
-463.219
68.211
368.337
-665.74
162.465
-258.342
95.8768
-846.994
895.15
-30.4975
-9.74853
799.287
-222.634
218.072
4.56126
-310.112
200.361
109.751
-228.519
-177.195
-49.2129
420.865
-371.652
535.43
-616.902
36.1517
-224.117
187.965
169.262
-133.111
291.151
87.3867
-265.072
169.551
24.853
-139.85
766.811
107.114
-431.486
180.376
-246.517
175.923
70.5942
198.898
-234.263
0.0282556
193.121
-193.15
-307.22
248.706
-226.639
-11.3225
237.962
-506.618
375.496
169.419
-185.107
-581.065
-65.5843
614.826
4.71052
-263.826
-234.124
197.639
-76.2191
-121.419
-126.184
-87.178
213.362
137.199
-203.162
65.9633
-67.6161
275.756
-208.14
-227.051
217.369
9.68241
-199.461
-27.5899
318.486
111.368
949.6
-697.381
-269.244
-302.234
247.497
190.973
32.9815
-223.955
-962.481
792.209
170.272
-398.149
169.31
228.839
-485.191
-121.912
607.103
-158.962
-806.158
17.8995
-303.807
-461.195
452.91
-91.5159
-218.596
231.575
-23.3375
653.299
-96.7751
-556.524
347.624
-452.422
-159.302
756.405
-597.103
-202.891
-217.124
420.016
-288.421
273.247
15.1732
5.93473
-69.2997
206.498
-94.5794
-185.202
-528.316
18.9658
-16.1656
-91.4252
-744.636
37.6477
-432.289
-214.108
87.9244
-272.567
181.353
698.812
259.888
-304.985
165.013
64.6572
-310.296
23.0389
287.257
-269.338
40.6362
-37.603
-996.109
778.201
217.908
-27.301
229.964
-123.103
276.623
496.095
-521.495
25.4004
-278.861
-199.699
-362.509
399.283
-36.1418
158.781
-122.64
953.342
-796.639
-156.703
28.1229
-519.347
491.224
-4.72481
-168.38
173.105
-168.165
-107.955
488.54
-63.6083
-224.567
480.614
-556.875
116.339
440.536
-178.91
276.149
508.206
-347.494
-160.712
296.519
8.2072
-304.726
-261.911
202.373
635.485
-81.3927
-554.092
422.022
-246.846
-433.147
389.456
43.6908
270.301
-4.18436
-241.584
-68.7114
-181.996
56.5187
204.438
-500.101
62.0313
438.07
-259.027
264.705
-340.291
333.605
-317.281
-67.4631
-417.564
-451.305
402.092
-530.58
1001.82
-471.243
-133.208
97.0665
-177.165
-220.985
488.577
-50.2463
-438.33
-16.7096
-301.75
318.46
-493.455
557.22
-63.7653
400.397
205.993
-100.913
-105.08
161.138
-228.754
202.533
-202.505
-306.87
133.531
413.906
-385.783
-9.82811
-278.592
82.4668
-889.314
889.314
134.387
5.5502
420.514
-426.065
-158.475
183.107
-24.6315
-522.915
312.598
-419.997
61.985
358.012
42.233
155.406
-485.567
360.893
124.674
-239.228
437.251
51.2886
308.085
41.9732
-350.059
333.642
-71.8055
-416.01
-22.2121
112.246
-353.556
290.616
331.482
-216.177
-115.305
-59.6005
147.601
-88.0004
-935.817
-302.013
-221.315
124.767
96.5475
-289.816
223.303
-430.106
-521.014
257.778
514.973
-772.751
-148.51
-528.737
677.247
-442.482
178.656
-24.4678
194.018
215.998
-13.4645
-657.676
640.698
16.9789
66.1426
355.88
280.375
-56.545
-223.83
-104.216
-511.554
615.77
-565.273
791.957
-226.684
-573.077
52.8645
-761.375
179.293
582.082
-981.934
413.378
568.556
-282.791
-274.084
-126.414
466.218
-968.608
438.027
-675.448
814.33
-138.882
599.001
-703.217
-209.146
252.336
-233.829
124.357
-799.805
-164.745
-693.994
858.739
650.45
-14.9653
501.257
326.806
-60.5857
265.241
-117.144
96.9365
-119.097
193.206
-526.041
255.335
-228.222
-27.1129
-144.59
320.479
-175.889
-176.09
-87.0461
520.714
-24.6197
-293.108
276.399
12.7922
624.039
-704.018
-650.898
-251.524
-248.577
29.3336
222.454
28.1869
421.217
-449.404
-352.521
334.928
17.5926
-141.246
156.6
561.6
440.223
-346.22
-200.073
546.293
181.383
-236.915
-80.2815
271.481
-64.7176
-355.279
184.134
-225.236
-238.975
305.117
202.346
-129.919
-458.262
-523.672
-295.376
-12.2914
307.667
-282.005
154.679
127.325
-173.697
178.117
-190.131
-91.8736
226.188
-219.917
253.732
-282.462
28.7292
265.378
-68.1871
-197.19
-805.212
646.25
-314.883
-291.343
56.2868
-282.743
300.023
277.446
-111.801
512.198
194.612
-59.7262
291.861
523.915
-815.776
-195.544
166.565
40.6488
-562.732
409.834
-926.045
281.096
299.98
-798.849
-473.514
-73.14
546.654
-539.852
468.483
71.3695
286.863
-210.151
51.6761
-611.462
386.895
-9.6572
172.123
-308.061
336.248
161.185
-508.679
-135.559
-37.5791
229.409
-6.28973
279.537
270.189
-86.1133
196.691
754.227
-6.70187
298.387
-272.981
-25.4065
-232.716
-115.099
-121.633
-31.1078
266.446
682.186
257.935
86.1917
190.431
337.81
-127.179
-90.0024
288.637
-198.635
-421.71
99.727
495.967
-230.993
-264.974
291.696
-297.986
-18.248
-672.88
691.128
229.323
-834.161
443.429
-232.945
45.0943
-312.366
-96.3179
-369.735
466.053
-124.466
138.952
246.345
-306.93
281.214
2.65398
-874.451
330.031
55.9451
-332.162
-726.44
-514.913
-447.568
241.935
76.7299
-335.862
235.949
-316.231
166.278
76.4571
122.426
-224.498
102.072
-477.944
127.575
509.967
-924.173
-174.196
97.977
458.227
26.8
-574.512
-421.596
18.9368
-600.002
-3.16418
299.683
-105.812
371.847
-266.035
-125.229
-90.2692
127.724
-188.562
-91.3346
-344.307
381.431
-212.698
-63.7895
276.487
-71.0723
225.752
-281.047
-262.143
244.331
17.8118
43.9129
-235.925
281.019
366.216
-38.7493
-313.771
-19.1056
236.474
206.927
-27.1972
-179.73
-114.628
-467.535
54.1151
413.42
-296.11
-124.889
420.998
152.299
-211.9
302.29
-267.93
102.666
-202.859
-112.712
315.571
784.998
312.679
-33.7707
-214.779
248.55
-19.0215
-520.831
-295.376
-742.896
371.712
371.184
7.81968
-299.057
-4.28907
275.752
-14.861
232.933
251.351
-342.965
91.6141
-460.299
-111.578
-553.367
215.951
337.416
214.114
23.8479
237.819
319.112
-623.612
304.5
214.812
-423.861
209.05
-365.785
383.743
-676.989
293.246
924.936
-900.476
-725.737
447.511
-393.363
-123.206
516.569
166.165
132.222
-329.557
561.889
-369.381
-192.508
371.317
-189.933
-804.062
238.789
251.318
244.649
-228.564
60.3986
378.055
-111.658
181.327
-184.854
3.52739
233.186
11.6612
586.166
-613.336
-514.582
210.031
304.551
78.8165
-335.321
-161.476
496.797
82.4118
362.135
-178
265.094
59.9308
-471.165
192.304
284.524
153.552
-438.076
123.356
-253.036
-158.553
-229.252
-206.132
-364.913
20.6056
-28.6733
-629.003
-30.2811
229.577
-199.296
-331.369
172.241
159.128
-348.423
-100.573
448.996
-229.145
-96.6065
192.081
14.8461
-307.858
86.7614
167.784
119.467
-287.251
-274.626
-123.965
398.591
-364.484
-291.457
271.659
19.7982
155.42
-371.87
216.45
150.218
-260.732
110.514
-39.9042
-87.3617
-279.091
366.453
-395.848
220.991
211.634
-440.886
-284.587
138.997
145.59
-460.716
142.632
35.082
-440.166
405.084
-198.911
-63.2318
157.155
377.364
-323.973
-53.3903
-206.304
206.9
-0.595795
-260.347
145.435
114.913
-114.165
-132.353
-283.77
-111.879
904.089
-219.687
-27.4639
277.723
-489.489
289.79
140.169
-347.181
207.012
-362.84
-121.842
484.682
-470.63
-216.699
220.077
-29.1037
233.465
689.182
-707.43
-48.9368
-273.485
322.421
79.977
-709.901
629.924
214.924
84.4711
-299.395
295.165
-94.4775
-216.7
234.6
-365.399
-40.8344
406.234
-710.813
39.4254
671.387
-450.088
-182.945
-70.7737
-269.517
522.045
-10.8885
-774.367
-19.464
793.831
-171.859
507.056
-335.198
-187.422
479.283
184.938
-520.259
314.251
-95.1612
89.725
422.204
-425.893
431.443
-326.784
-126.857
453.641
-524.26
50.746
330.473
8.74907
58.138
-274.838
251.212
-52.6789
-198.533
-87.891
-94.463
291.48
-74.0164
-279.54
78.9074
197.242
-303.571
-89.594
393.165
-282.632
334.006
-51.3744
-70.817
269.715
-337.164
-118.772
455.936
-268.754
134.978
133.777
-138.475
-19.1738
40.9268
-651.887
610.96
-181.096
-252.05
-265.567
-242.522
-338.531
-85.9168
-216.926
-66.054
282.98
415.437
639.612
179.401
-268.965
89.5639
139.173
503.193
225.531
25.6817
190.313
-243.668
53.3559
-349.333
-157.284
-533.283
-73.2205
342.145
-181.943
315.236
-28.3728
623.126
-180.389
-4.47254
230.661
-245.8
276.166
-30.3661
713.591
2.10626
289.59
-602.143
492.461
109.682
224.592
55.7829
200.072
-30.063
190.015
-331.908
111.998
-332.368
16.5366
-355.249
361.836
-6.58701
119.008
-223.34
184.313
23.7882
-320.619
322.864
-2.24586
240.399
-304.189
246.595
-14.0631
-324.045
-124.17
-54.7958
235.424
11.8937
243.441
305.842
2.42822
-358.635
-145.431
504.066
-81.0353
-151.068
-201.613
-22.5043
94.4445
236.057
263.194
-294.302
287.737
-66.8211
-224.103
239.837
-15.7345
-1061.06
709.127
351.938
-420.328
124.219
280.349
5.21565
-285.565
-58.1531
348.769
577.758
-182.537
-21.9272
204.465
-41.8701
-212.112
-266.631
-54.1105
320.741
-290.073
-52.8557
342.929
-70.1152
-510.261
-91.8822
-797.714
785.397
12.3171
78.4342
221.616
-300.05
59.742
277.56
-167.87
461.013
-293.143
-238.663
-63.5708
-422.174
111.163
-236.392
171.026
-267.244
-322.22
-95.7713
417.991
-95.6707
410.31
-314.64
-385.064
-76.1314
-235.429
-71.5011
2.14507
-410.738
-95.7778
-203.957
684.212
8.54211
636.752
-645.294
-198.898
44.1888
225.909
-810.349
584.44
185.448
-413.967
275.534
-19.8737
124.083
-1001.19
-229.862
-86.3688
441.868
-8.30141
-463.413
-394.284
-97.5907
-657.402
212.941
-422.149
209.208
18.9911
256.765
-309.764
-69.4726
379.237
8.97712
-278.671
269.694
830.01
-116.419
-490.686
482.489
-59.6594
-714.708
-65.7845
399.39
-846.573
783.546
299.837
-468.199
403.482
-90.0406
-120.67
202.454
169.524
-371.978
-438.282
-245.06
185.134
19.6866
-204.821
-220.369
910.118
29.64
-992.013
559.724
-219.788
-85.0475
304.836
707.602
31.2021
332.045
-94.9445
376.191
-355.586
-402.303
410.343
-8.04024
324.18
-328.075
3.89474
340.347
-106.881
-14.7768
-394.847
-124.5
-232.211
-105.485
-207.274
-95.7037
-586.699
768.216
-181.517
-203.653
13.522
-190.308
-380.538
-462.434
412.188
99.5837
-288.146
-138.749
-111.933
250.682
-44.6077
391.393
-346.785
308.888
-60.182
217.522
-63.7978
-153.724
85.9063
-254.287
120.886
173.714
304.717
-89.7931
-297.66
-105.327
209.308
523.22
-147.724
26.4076
-773.667
747.259
-299.467
121.353
-207.466
-30.2834
-46.7847
295.438
41.2748
772.01
-698.656
856.238
-110.795
-745.442
379.855
-76.6678
-303.187
128.065
-248.737
-96.2577
509.962
-413.704
-225.859
-63.494
25.448
-735.349
400.014
-114.434
-291.191
289.129
2.0629
-195.885
-82.7356
278.62
206.05
23.2763
-229.326
-32.3844
-128.153
-451.012
-610.053
-427.352
204.695
-13.4238
-234.255
-11.8926
241.215
52.6156
-535.74
483.125
-282.71
248.103
-425.268
190.425
-382.718
697.858
-307.93
69.3051
-271.451
202.146
-110.349
288.913
556.899
-168.646
-239.869
-144.418
233.231
850.042
88.9714
-307.667
229.357
47.0399
724.97
-13.1176
194.444
-325.952
-93.2361
351.43
-57.5562
-438.15
-527.62
156.19
371.43
-153.589
-492.957
646.545
-569.894
1011.73
-700.766
114.067
-464.021
-305.805
277.761
87.766
-912.069
68.4567
843.612
-339.177
364.912
-64.1572
-4.74214
359.525
329.713
4.29279
224.949
-201.175
-23.7743
-322.018
101.649
-197.457
-8.84754
242.843
352.726
-73.9052
603.933
-112.709
284.724
76.2604
533.375
-98.8048
504.716
-91.2789
250.645
-28.5447
-222.1
389.002
-463.885
-314.786
778.67
530.093
-271.003
-284.89
-555.576
80.2911
475.285
305.292
-57.7949
-710.988
677.611
33.377
517.977
-65.0667
-32.7685
635.67
-602.901
-319.427
251.24
275.595
56.2356
420.142
104.598
-377.588
213.067
-25.1022
305.52
3.36851
-428.125
-129.757
-39.078
589.495
325.875
-317.4
-8.47511
-501.798
41.4993
-373.594
-330.642
302.269
43.6602
328.925
-287.743
291.138
-39.8976
-144.727
-253.461
-233.563
-0.949151
234.512
-401.299
-112.332
-32.4857
547.367
-38.0979
-8.72161
476.475
539.989
-26.3637
-177.583
-275.229
322.455
-47.2258
-100.146
252.884
32.658
-743.646
-298.631
-212.193
340.541
-393.088
-58.2169
432.075
618.967
225.434
-844.4
-141.265
535.032
-135.018
317.968
-251.301
-66.6668
-115.01
-577.909
-183.467
25.498
210.405
119.308
-129.781
240.295
-261.133
-255.899
298.022
-42.1231
249.46
295.886
-422.3
691.805
412.356
-253.102
329.254
-76.1527
-245.772
-457.969
-210.399
837.347
18.8908
358.487
-52.9676
-936.732
24.6631
352.973
-88.0066
-744.21
12.4952
-308.838
635.067
207.55
-90.5287
-96.2277
7.31001
298.28
-361.594
11.7608
349.833
-210.361
-115.246
242.364
-97.5275
-476.767
-85.9644
488.935
-79.1006
345.739
20.1292
-305.079
-80.4096
-103.857
-519.399
370.889
-118.058
653.336
-627.888
-279.506
354.248
-74.7419
-216.995
40.9051
283.371
23.4921
-445.187
-478.986
-430.656
972.65
-468.037
-504.613
523.799
-82.5047
-511.163
-100.298
-65.6599
18.6754
494.714
-107.82
-22.6102
49.2944
180.283
-232.603
-198.883
49.2095
-71.276
536.52
-113.267
-407.116
-360.283
308.41
267.687
-1.2406
407.894
-62.1555
-54.8433
-149.114
-182.843
-309.442
30.8492
66.6668
-268.279
438.697
-650.613
566.22
-85.7023
-480.518
758.944
-726.286
384.94
-44.3985
-280.014
-310.894
27.9488
534.819
-102.745
-758.206
784.613
219.796
-4.23601
-215.56
-113.205
212.789
457.454
-55.3622
557.239
-130.353
-282.319
284.425
-107.115
-114.2
-201.846
228.544
-26.6977
-106.683
272.848
297.037
-37.1491
-64.304
251.141
-473.431
-278.314
271.604
-235.857
-35.747
-375.239
381.468
-6.22845
-18.3792
-100.268
276.486
308.697
-311.577
2.88006
-249.293
-123.375
-0.878713
160.583
-324.217
399.541
-43.3547
787.215
-743.86
-507.629
342.063
-46.1769
28.8628
348.502
11.9283
-360.43
7.11603
382.34
200.13
480.175
27.4925
467.997
44.2011
356.01
-47.925
-44.5276
234.84
213.924
74.7133
-855.639
864.181
-301.33
286.698
14.6319
-550.722
252.044
-0.903003
744.289
-546.352
-197.937
261.419
-187.13
-74.2888
433.146
229.479
25.7782
494.936
-199.896
619.027
-419.131
71.0979
-50.2877
841.433
-791.145
-382.773
295.412
476.92
198.853
237.57
-1.09563
228.141
-166.697
-477.964
644.661
36.6206
209.975
55.4656
-558.708
571.444
-508.884
792.081
-277.682
-514.399
-291.378
-166.839
37.5052
270.892
0.766934
-230.597
-254.97
-336.603
-473.414
5.90223
186.668
-192.57
294.659
267.885
192.524
-792.607
768.452
24.1549
4.3839
409.329
-450.744
41.4154
285.771
52.4924
5.59084
735.879
-741.47
85.31
237.145
31.2281
99.6445
-293.207
308.05
-14.8426
-888.845
-46.9728
199.024
-118.847
-486.16
605.007
-295.014
809.987
-138.719
-394.57
-107.229
-561.505
141.25
355.547
40.1278
-257.311
-25.0083
198.057
-148.763
4.78977
843.564
45.7507
-15.9751
305.565
473.951
-357.565
-116.385
-626.432
265.207
361.225
118.186
173.294
365.242
-348.651
233.346
130.689
287.302
229.898
223.006
16.8308
69.8972
-484.264
414.367
803.999
-251.27
-552.729
181.964
191.679
-373.643
321.248
402.042
254.397
3.61569
-626.305
-305.993
241.887
-889.927
368.151
56.3674
-426.103
67.4371
-633.715
-101.634
248.702
-362.173
353.325
554.813
-568.339
645.195
-76.856
-13.3593
375.168
412.804
-301.852
-31.6064
168.28
-136.673
-303.442
298.28
-18.7425
626.804
-347.781
-23.2365
378.305
-355.069
62.8696
-185.039
226.86
-41.8212
-246.06
221.864
24.1958
287.489
504.592
170.699
-405.156
399.614
-1051.29
1056.88
100.145
-8.78243
438.929
179.712
-58.3596
416.62
341.094
216.173
24.3457
243.74
366.396
-26.3892
-340.007
-650.381
648.335
2.04669
234.04
199.78
-13.1126
502.491
-432.594
-211.241
766.053
258.944
89.9267
234.585
-361.765
-179.882
26.871
244.733
722.166
-149.489
-572.677
-836.741
900.476
297.545
340.838
209.935
-204.719
554.119
-992.401
410.862
313.452
279.778
-44.8279
454.022
291.557
60.0588
-418.281
358.222
-220.088
302.616
-13.3213
-2.55399
-824.37
694.128
793.713
-194.712
335.143
236.355
99.5226
341.22
-20.3821
-320.838
269.75
262.433
284.672
-191.08
90.1675
-274.992
285.474
-10.4821
412.458
-516.064
-256.687
-5.08291
221.256
428.291
-573.723
-277.85
20.5398
439.041
-106.699
-242.629
349.328
-334.532
-193.088
634.978
106.084
426.526
-943.133
516.607
-461.391
418.667
42.724
-3.61249
255.267
-251.654
329.14
-266.27
259.565
-236.769
-22.7951
265.693
8.46424
-193.503
-846.994
69.402
316.127
-385.529
-30.9915
720.034
-689.043
323.826
-296.573
-27.2529
-445.705
432.738
269.865
-228.591
-400.018
978.686
-578.668
287.935
-14.1702
199.304
538.278
461.722
-190.813
211.429
11.2541
-222.683
-28.6196
400.744
-593.438
33.5787
559.859
203.113
255.901
-327.402
-19.346
-355.893
-910.118
859.83
-495.387
1033.67
337.777
-51.5795
240.673
-2.26045
-238.413
489.785
-435.67
66.6206
-718.507
-460.575
-0.815374
-259.818
319.978
-469.534
-499.074
299.421
-18.932
-280.489
-959.792
439.671
-797.714
158.015
34.1475
-192.163
32.271
597.653
648.911
-633.976
-294.902
818.817
-88.5084
212.674
373.345
-509.235
135.889
-121.357
351.345
-229.989
-703.571
750.611
-388.304
229.713
-225.117
234.592
-9.47462
-274.931
701.457
314.831
590.7
27.895
-786.101
-232.695
248.096
-334.465
-63.1058
-228.636
240.432
-895.15
979.582
176.591
39.8072
-216.398
266.671
-263.334
-92.3898
30.3316
399.019
208.565
-607.583
502.752
-902.77
472.145
-58.2395
-223.776
-4.73306
228.509
-114.515
-194.927
-255.055
57.8641
-164.415
-139.053
303.444
291.976
-265.105
-114.945
-319.526
434.471
282.304
290.723
-17.8125
-294.378
312.191
-691.348
18.4678
847.64
-888.845
924.936
-947.094
935.328
941.324
-941.324
-836.741
-1001.19
242.174
-202.046
-240.758
-206.992
-188.964
-4.18525
735.645
-956.76
221.115
-864.181
14.1311
-284.535
194.461
-36.4462
-763.323
791.218
229.271
-7.07732
-222.193
-250.035
259.012
-11.9281
-250.255
262.183
248.698
-14.23
-234.468
202.968
-230.08
-23.7072
-253.888
277.595
-188.724
201.7
-12.9762
250.804
281.609
-348.189
408.247
107.556
-184.593
77.0363
-361.075
-577.699
-194.895
208.374
-13.4785
-419.981
-84.1665
504.148
196.214
-176.528
43.5313
202.894
-26.3035
-349.954
234.855
452.224
-98.8995
199.189
456.9
-47.5718
316.401
-379.822
63.4216
19.2135
-634.916
667.187
262.403
-462.299
-783.82
730.324
53.496
480.821
497.865
51.4393
400.785
-233.866
252.857
-73.1658
-710.654
243.198
-328.246
695.831
-877.348
316.741
-708.316
391.575
130.972
263.96
-205.863
-58.0967
-47.2622
-388.828
-867.325
592.394
-3.05428
261.791
3.26146
-311.958
308.697
18.4199
-43.1946
236.667
281.816
-37.0827
185.265
-58.2249
-127.04
738.354
20.5907
273.044
305.688
6.80516
183.324
-226.795
43.471
237.956
-301.691
298.527
-288.289
-203.829
218.259
-14.4306
74.8435
-494.825
247.267
152.273
-89.5302
825.176
-593.973
401.466
545.189
-633.623
227.615
-322.776
315.33
-436.687
195.864
-301.348
218.711
-195.434
-317.598
223.12
-191.879
-8.68631
200.566
224.811
-320.514
368.42
-266.393
-102.027
-1.44887
484.573
-442.544
-560.348
1002.89
-714.789
633.396
-50.55
-320.464
371.013
21.3884
50.9545
-311.29
307.001
-272.202
-5.64857
203.272
49.4497
-252.722
-188.821
-233.328
-308.315
223.261
-208.818
-14.4432
-311.958
-412.658
412.658
188.317
-658.947
177.171
157.142
308.697
727.486
-235.024
-41.6789
-645.998
687.677
522.698
-82.1621
237.061
-365.776
316.839
383.829
244.785
4.54497
232.379
-172.341
-60.0379
-38.3382
-686.762
686.762
-174.443
-389.012
-98.0736
-138.318
206.673
20.2689
-156.558
227.163
-423.973
480.028
-184.12
-198.597
696.383
-488.065
-208.318
-136.592
-112.145
506.773
-144.622
-78.3689
-30.9291
-487.315
518.244
-500.347
-287.483
509.37
-14.4334
-25.1684
-709.845
543.147
-458.443
-65.8173
767.609
19.6062
232.331
-113.051
773.852
-660.801
89.9718
807.751
683.24
827.478
152.513
-216.311
-388.109
-72.4663
-238.637
249.73
-214.831
49.9779
-202.668
-897.117
41.2118
855.905
30.4668
404.435
810.441
-264.828
248.714
16.1142
1066.41
-542.391
-524.017
-169.421
7.60663
474.882
203.625
-37.0602
297.375
248.918
431.039
-772.063
956.353
-184.29
-368.289
8.0067
232.944
18.9203
665.292
-80.0616
-221.269
-203.997
-226.659
206.418
92.3798
635.106
690.207
-731.886
92.0813
-795.653
23.2486
654.362
752.346
-849.675
97.3296
-627.619
536.304
91.3146
627.384
-563.672
-63.7122
-447.005
521.848
49.3462
-120.901
-113.853
234.754
157.903
305.46
-583.866
400.921
191.778
-191.778
-200.594
219.796
-879.27
436.726
-653.569
534.723
-555.576
855.639
-945.17
24.3249
-238.362
206.346
-202.865
-211.102
-248.723
23.5194
357.912
36.8765
342.978
-353.446
-359.271
31.1964
395.038
-666.04
-55.3405
-726.825
782.165
206.687
-289.422
55.486
147.68
-259.612
-623.588
656.075
-178.474
-88.7697
8.2957
532.276
122.948
-311.725
-18.9167
-455.124
957.876
863.929
-863.929
334.086
44.2191
13.8769
462.598
-761.602
17.7419
649.588
17.5989
80.4579
417.634
-498.092
216.523
303.791
-4.10726
9.41262
672.165
18.9632
-803.712
620.245
195.86
302.987
-498.846
-809.039
531.356
211.182
-409.898
22.1047
-649.992
-191.588
-42.1086
233.696
-119.733
228.534
-108.801
15.6175
45.6753
357.215
42.0678
-204.997
17.3979
-237.397
514.388
658.262
61.7729
12.4896
120.411
-123.995
-176.055
198.057
388.524
-498.07
-707.887
-64.1754
-201.829
-467.144
-475.989
-274.078
-360.745
624.926
-515.244
6.8193
798.097
-804.916
318.311
50.1092
394.101
-60.0148
615.171
-51.8259
-563.345
313.702
-14.9746
-570.104
-93.1171
663.221
-9.00003
-225.126
-583.468
403.08
-177.494
-41.6355
219.13
230.519
611.283
66.2157
-210.387
-121.522
25.3237
205.698
-546.315
638.695
195.255
4.04956
-200.255
398.629
-198.374
284.198
-828.646
544.447