/*--------------------------------*- C++ -*----------------------------------*\
  =========                 |
  \\      /  F ield         | OpenFOAM: The Open Source CFD Toolbox
   \\    /   O peration     | Website:  https://openfoam.org
    \\  /    A nd           | Version:  7
     \\/     M anipulation  |
\*---------------------------------------------------------------------------*/
FoamFile
{
    version     2.0;
    format      ascii;
    class       volVectorField;
    location    "13.5";
    object      U;
}
// * * * * * * * * * * * * * * * * * * * * * * * * * * * * * * * * * * * * * //

dimensions      [0 1 -1 0 0 0 0];

internalField   nonuniform List<vector> 
20933
(
(0.997239 -0.000297642 -3.55172e-23)
(0.988914 -0.000835708 1.15359e-21)
(1.02303 -0.00297817 -1.55478e-22)
(1.00028 -2.71275e-05 -7.73794e-25)
(1.0008 -0.00783454 5.86142e-23)
(1.00052 -0.00831517 -5.69717e-23)
(1.03431 -0.139663 -7.99462e-22)
(1.08813 0.0593194 -2.34951e-20)
(1.00673 -0.0694903 -2.08314e-21)
(1.09277 0.0601555 1.68129e-20)
(1.04404 -0.125871 -2.14723e-21)
(1.1783 0.109239 -1.01454e-21)
(0.989671 -0.0452601 -4.20119e-22)
(0.997143 -0.00035248 2.53664e-23)
(0.996482 -0.00303425 1.67325e-22)
(1.00027 -3.65531e-05 -6.22776e-25)
(1.24399 -0.0198931 1.59281e-21)
(1.09889 0.0010474 -1.32874e-20)
(1.00547 -0.104314 -1.69698e-21)
(0.991183 -0.000410445 -1.01222e-21)
(1.01704 -0.0798953 2.47281e-21)
(1.17415 0.108445 -1.73604e-21)
(1.09468 0.0652923 -1.27333e-20)
(1.11544 -0.163965 -1.26308e-21)
(1.0213 -0.00122814 1.02713e-23)
(0.995215 0.0718206 -3.50581e-20)
(1.00801 -0.00230035 -7.52816e-23)
(0.996734 -0.0486851 1.29332e-21)
(1.16079 -0.155988 -9.06781e-22)
(1.00762 -0.10547 5.75043e-21)
(0.99896 -0.00196553 -2.32313e-24)
(0.946138 0.0147121 5.34402e-20)
(1.1217 0.101463 1.04769e-20)
(0.994408 -0.0284991 1.38868e-22)
(1.00008 -0.00145138 7.00769e-24)
(0.999015 -0.00211611 -8.12672e-24)
(1.08158 0.0751818 -2.51641e-20)
(0.999877 -3.62075e-06 -3.89186e-25)
(1.01315 -0.0165751 -6.07305e-23)
(1.10777 0.0024408 -4.71328e-21)
(1.0356 -0.00716994 5.34256e-23)
(1.09236 0.122039 1.79745e-20)
(1.0299 0.0365485 -1.02245e-20)
(1.00718 -0.00270123 6.2795e-23)
(0.994895 0.069034 1.3815e-20)
(0.976592 -0.00159202 6.63192e-22)
(1.08345 0.00797083 -3.60006e-20)
(1.22438 0.0542023 -5.33176e-21)
(0.999625 -9.64198e-05 1.7289e-24)
(0.979419 -0.0400125 2.77209e-22)
(1 -0.00154439 -1.77438e-23)
(1.06525 -0.00746572 3.99364e-21)
(1.16526 -0.0989806 -3.55218e-22)
(1.0004 -0.0033896 -2.1265e-23)
(1.20059 -0.10215 -1.99583e-22)
(0.956695 -0.0169413 -3.47878e-22)
(0.983208 -0.0270222 6.97356e-23)
(0.99886 -0.002535 4.76676e-24)
(1.00962 -0.0407534 -9.01176e-22)
(1.24006 -0.0156692 -1.11018e-21)
(0.977149 0.0261919 2.9121e-20)
(0.968945 -0.00444647 1.0526e-21)
(0.990354 -0.00325517 -2.77196e-22)
(1.10398 0.0596982 -1.11342e-21)
(0.999391 -0.000101525 -1.14378e-23)
(0.996404 -0.00713249 3.23483e-24)
(0.996615 0.0494662 8.85734e-22)
(0.995973 -0.00745676 9.34007e-23)
(1.10522 -0.0653193 4.03906e-21)
(1.0001 0.0729162 1.30759e-20)
(1.03551 -0.036078 1.12888e-21)
(1.249 -0.0485559 1.13918e-21)
(0.996817 -0.0030293 -3.39721e-23)
(0.987853 -0.0334077 1.53241e-21)
(0.999674 0.0131557 -1.31582e-20)
(1.06582 -0.0727815 -7.71805e-22)
(1.00023 0.0681701 6.09276e-21)
(0.960002 -0.00507717 2.97766e-22)
(1.1061 0.00127468 2.95063e-21)
(1.00337 0.028903 1.93821e-20)
(0.997173 -0.00739452 2.40271e-22)
(1.00203 -0.00396964 -1.34843e-24)
(1.14386 -0.156903 7.43447e-22)
(1.0075 -0.0673044 1.7295e-21)
(0.971366 -0.00353804 -1.15953e-21)
(1.02785 0.0343876 4.93429e-20)
(0.99193 -0.0422263 -7.91373e-22)
(0.912268 0.0482935 4.99461e-21)
(1.10078 0.0555886 -1.03839e-20)
(0.983583 0.0731031 2.20937e-20)
(1.09502 0.0224556 -1.41317e-20)
(1.00033 -5.84188e-05 2.86609e-25)
(1.00005 -0.000276961 6.71406e-24)
(0.950776 0.00500999 -1.48664e-20)
(1.22946 0.0488344 2.70442e-21)
(0.990847 -0.0034012 -1.68927e-22)
(0.959614 0.00323552 2.27873e-20)
(0.999643 -0.00405576 2.39165e-23)
(1.04771 -0.121658 -8.4132e-22)
(1.06122 0.0128617 -1.34074e-20)
(0.981075 0.0751373 -6.53976e-20)
(0.979676 -0.00982771 9.12224e-23)
(0.97366 0.0692695 -7.1421e-20)
(1.15293 -0.0895121 -2.73633e-21)
(1.08807 -0.00240767 -9.27673e-21)
(1.0882 -0.0704913 -2.61733e-21)
(1.02049 0.0809909 2.50266e-20)
(1.14148 -0.0736174 -2.80585e-21)
(0.988481 -0.00049512 -1.19219e-21)
(1.03432 0.0919903 5.74334e-21)
(1.16812 -0.15946 -2.92936e-21)
(1.03011 -0.139131 -1.87661e-21)
(0.982336 -0.0214196 6.62741e-22)
(1.02934 -0.0187516 -9.38925e-22)
(1.06733 -0.0671327 -6.44672e-22)
(1.00008 -6.79542e-05 -1.32752e-24)
(1.04259 0.0597932 2.43531e-20)
(0.997633 -0.00691399 -8.98654e-23)
(1.14631 -0.0999664 -2.17323e-22)
(1.00292 0.0248291 -4.58423e-20)
(1.00032 -4.04684e-05 4.86157e-26)
(1.02707 -0.0831299 1.28802e-21)
(1.12275 0.0174625 -6.32042e-21)
(1.01047 -0.0465639 -1.24693e-21)
(0.994264 -0.0270573 -1.58263e-22)
(1.09969 0.00257777 6.97033e-21)
(1.14793 0.113678 -2.59663e-20)
(0.996491 -0.0468912 1.0776e-21)
(0.940755 0.0174284 -1.55473e-20)
(1.03904 0.0616505 1.297e-20)
(0.993488 -0.0540414 -1.01503e-21)
(0.979081 -0.0385405 -8.46946e-22)
(1.03568 -0.00373369 5.26602e-22)
(1.01242 -0.015221 2.04714e-22)
(1.01638 0.0760194 -3.39359e-20)
(1.08494 -0.00496629 -2.6711e-21)
(1.20334 0.0682045 -6.74555e-21)
(1.01968 -0.0803659 -1.0699e-21)
(0.98421 -0.00978052 8.11663e-22)
(0.99558 -0.0712963 4.40277e-21)
(1.02381 -0.0857338 2.73872e-22)
(0.986578 -0.0345239 -1.5029e-21)
(1.24927 -0.059249 7.93918e-22)
(0.971135 0.0755446 -2.24604e-20)
(1.17941 -0.00536881 3.59586e-21)
(1.01557 0.0783018 3.06268e-20)
(1.12514 0.125389 -2.63697e-21)
(0.973496 -0.0105083 -7.77994e-22)
(1.15473 0.106188 -1.82841e-20)
(1.00901 -0.00308094 1.69592e-22)
(0.972925 -0.0096579 1.56503e-21)
(1.00136 0.0715087 1.56585e-21)
(1.00007 -0.000235633 -4.25725e-24)
(1.00606 -0.0623476 6.72906e-22)
(1.00197 -0.00356661 -1.87813e-24)
(1.12194 0.127754 1.46184e-20)
(1.02457 0.035959 -5.29027e-21)
(1.11112 -0.160364 5.391e-21)
(0.95331 -0.0195708 6.4897e-22)
(0.988981 -0.0463632 8.90586e-22)
(1.20613 -0.110383 2.09663e-22)
(1.03795 -0.134987 1.20913e-21)
(0.998819 -0.00234579 -7.39765e-24)
(1.17699 -0.000525159 -5.59909e-21)
(1.10026 -0.0026167 -1.40107e-21)
(0.915335 0.0500894 1.18445e-20)
(0.980743 -0.00992571 6.26605e-22)
(1.13772 -0.162913 2.9646e-22)
(1.06208 -0.0743875 8.91088e-22)
(1.08244 0.0719734 -1.48149e-20)
(1.20785 0.0679561 2.17888e-21)
(0.990646 0.0552454 1.36974e-20)
(1.05122 0.107606 3.90888e-20)
(0.991953 -0.0249851 3.0107e-23)
(0.917791 0.0144672 -1.76059e-20)
(1.1257 0.102691 1.28779e-20)
(0.996892 -0.000682336 4.05967e-23)
(0.989152 0.00736687 -3.44493e-20)
(1.07267 -0.0657069 -5.7088e-23)
(1.02868 0.0954833 1.08885e-20)
(1.01199 0.0830219 -1.5511e-20)
(0.999823 -4.986e-06 4.12733e-25)
(0.968436 0.0533925 9.845e-22)
(1.04967 0.0938816 3.30901e-20)
(0.99059 -0.000664552 6.60618e-23)
(0.950055 -0.0143424 3.69518e-21)
(1.03505 -0.0336838 -7.44031e-22)
(1.06633 0.00949277 -3.41329e-21)
(1.14747 -0.094117 6.60672e-22)
(0.941328 0.0422333 1.57829e-20)
(1.14629 0.110027 -8.84868e-21)
(1.21411 -0.0346531 2.11092e-21)
(1.0577 0.0095222 2.70676e-20)
(1.10433 -0.0598881 3.55373e-21)
(0.954207 -0.0205006 1.60562e-21)
(1.17808 0.081288 -1.18696e-20)
(0.969326 0.0560979 -1.07615e-21)
(1.22185 0.0180789 -8.25521e-21)
(0.992611 -0.000262448 3.88171e-24)
(0.937752 0.0419004 -1.54085e-20)
(1.19683 0.0445469 -1.57692e-20)
(1.21357 -0.0798416 -6.52732e-22)
(1.16416 -0.0927206 1.59021e-21)
(0.948156 0.0477392 -1.90737e-20)
(0.962164 0.0494976 4.48682e-20)
(0.971323 -0.0223123 -6.49195e-22)
(1.0014 -0.0346871 -1.00336e-22)
(1.06525 -0.00442921 -5.4821e-22)
(0.957311 -0.0182404 -1.62113e-21)
(0.998619 -0.000134937 -3.82651e-23)
(0.997968 0.0507547 -6.53724e-21)
(0.988622 0.0205055 -1.23964e-20)
(0.973364 -0.0131166 1.16786e-21)
(0.964457 -0.0304732 8.66657e-22)
(1.03028 0.0928487 1.68654e-20)
(0.999036 0.0199989 1.99037e-20)
(0.99851 -6.39656e-05 1.34097e-22)
(1.00176 0.0218838 -3.10191e-20)
(1.14546 -0.0690665 -1.37708e-21)
(1.0133 -0.0133806 -4.39146e-22)
(1.00549 -0.0502733 1.14435e-22)
(1.02737 0.0569069 -2.60787e-21)
(0.964072 0.0836458 2.09338e-20)
(1.0926 0.0200054 1.86815e-20)
(1.03539 0.088293 -2.76065e-20)
(0.983161 -0.00977324 -1.37467e-21)
(1.00318 -0.0342075 -4.44188e-22)
(1.00012 -7.58511e-05 3.14433e-26)
(0.998941 -4.74836e-05 -5.0093e-23)
(1.00066 -0.00657115 1.16161e-22)
(1.12085 0.0150772 3.01933e-21)
(1.11622 -0.101594 8.91663e-23)
(1.02215 0.0787222 -3.19384e-20)
(1.00268 -0.083241 1.21744e-21)
(1.01994 0.0290861 1.89248e-20)
(0.993086 -0.040734 -1.42426e-22)
(1.08286 -0.0674057 1.83937e-21)
(0.992514 0.0540672 2.44475e-20)
(0.953145 0.00392445 7.67965e-20)
(1.02831 0.0538795 4.49422e-20)
(1.0022 0.0661113 -3.75235e-20)
(0.963047 -0.0298942 -7.76644e-22)
(1.08805 0.109303 -1.08785e-20)
(1.01126 -0.0451209 1.3521e-21)
(1.09094 -0.00398704 1.868e-20)
(0.997473 -0.00625192 -1.68014e-22)
(1.23734 -0.0932033 -5.69289e-22)
(1.15039 -0.0455553 7.95158e-21)
(1.07259 -0.022368 6.20793e-21)
(0.999641 -7.27833e-05 -2.13514e-24)
(0.986668 -0.000689242 1.39072e-21)
(0.960954 0.0854126 -3.21931e-20)
(1.14492 0.0396497 4.52254e-20)
(1.01265 -0.0178862 2.13985e-22)
(0.976921 -0.043349 -1.49659e-21)
(1.11124 -0.0976325 -1.62954e-22)
(1.0648 -0.149226 2.86009e-21)
(1.08858 0.121087 -2.23761e-21)
(0.996517 -0.0704604 -1.20391e-21)
(0.972647 -0.0019392 -1.20987e-21)
(0.998834 -0.055255 1.43814e-21)
(0.994866 -0.0240013 -1.69962e-22)
(0.999306 -7.99694e-05 1.92864e-24)
(0.99224 -0.0389102 7.20713e-22)
(1.04122 -0.135066 -6.00086e-22)
(0.970426 0.0726399 4.25634e-20)
(1.23708 0.0223995 3.9874e-21)
(0.983702 -0.0204162 -1.29121e-21)
(1.01794 0.030507 -2.91923e-20)
(0.963786 0.0529766 -5.321e-21)
(0.992516 -0.043863 1.64845e-22)
(1.00059 -0.000237063 5.67969e-25)
(1.00543 -0.0647917 -1.22701e-21)
(0.996731 0.046643 7.55589e-21)
(1.21885 -0.127624 -9.49686e-22)
(0.978843 0.0242847 -4.40069e-20)
(1.00005 -8.08734e-05 7.2117e-25)
(0.966173 -0.0332625 1.44257e-21)
(1.04159 0.107535 3.15313e-21)
(0.999475 0.0197438 4.05805e-20)
(1.02757 -0.0620629 -1.31335e-22)
(0.984322 -0.0257975 8.0468e-22)
(0.949508 0.0775668 3.41126e-20)
(1.20716 -0.0653256 -4.65684e-22)
(1.20763 -0.0380994 -1.5504e-21)
(0.976858 0.0701565 2.94678e-20)
(0.943808 0.0473398 -3.21954e-21)
(0.991446 -0.0453531 -4.77132e-22)
(1.04022 0.109739 -2.0089e-20)
(1.12668 -0.00724541 -9.0131e-21)
(1.0048 0.0289609 -5.29577e-20)
(1.05491 0.0657436 1.49764e-20)
(1.00061 -0.000174847 -1.66077e-24)
(1.24381 0.0245405 -3.40295e-21)
(1.07676 0.0692821 8.93692e-21)
(0.996721 -0.000605999 1.35152e-22)
(1.00153 -0.0877749 -4.84533e-22)
(1.20906 0.0220764 -3.31593e-21)
(1.1254 -0.155371 -8.71304e-22)
(1.19489 0.0391009 8.91738e-21)
(1.15472 -0.0280095 -4.5068e-21)
(1.00011 -0.000149215 -9.43614e-25)
(0.999699 -0.00287164 6.4394e-23)
(0.98503 0.0828029 -5.24365e-20)
(1.00138 -0.0116984 -3.05224e-23)
(1.01104 -0.10474 -1.30534e-21)
(0.994261 -0.0582752 1.55639e-22)
(1.17131 0.103747 -9.9269e-21)
(0.971606 -0.00435911 -2.07473e-22)
(1.02972 0.0978504 1.92682e-20)
(1.17037 0.0125387 1.18613e-20)
(0.996831 -0.0557193 8.73951e-22)
(0.957639 -0.00607233 -8.33898e-22)
(1.08644 0.0687536 1.61243e-21)
(1.16832 0.0788874 8.71089e-21)
(1.00007 -0.000152699 -1.29941e-24)
(0.981015 0.0519338 4.37605e-20)
(1.03843 0.0646746 6.55705e-21)
(0.992368 0.0153796 -1.07069e-20)
(1.20323 -0.0933972 1.03228e-22)
(0.999408 -7.61584e-05 8.86107e-24)
(0.950485 0.0746758 -2.24007e-21)
(0.997567 -0.0043584 -1.72927e-22)
(0.995847 -0.0429344 2.91968e-22)
(1.1743 0.0772266 -3.65032e-21)
(1.21462 0.0161804 1.02777e-21)
(0.986162 -0.0456177 -1.27592e-21)
(1.2064 -0.0744447 -1.24703e-21)
(1.02251 0.0341437 7.52221e-21)
(0.952501 0.00483747 2.79753e-20)
(1.00972 0.0752988 -4.01426e-20)
(1.14728 0.0183537 -1.3698e-20)
(0.909555 0.0192415 3.79403e-21)
(1.0003 -1.09266e-05 -3.91609e-25)
(0.993084 -0.0236793 -2.02328e-22)
(1.00004 0.0125991 5.36462e-20)
(1.16745 -0.132455 1.73628e-22)
(1.07621 0.0660456 -2.1084e-20)
(0.98961 -0.0337584 -5.99315e-22)
(0.997034 0.0673302 3.72714e-20)
(1.15694 -0.00299435 7.57464e-21)
(1.0002 -0.00311162 2.80902e-23)
(1.15253 -0.00698877 -6.62145e-21)
(1.04272 0.055529 -3.13825e-20)
(1.13438 -0.138183 2.6638e-23)
(0.971923 0.00674338 -7.99286e-21)
(1.05481 0.0980449 4.73615e-21)
(0.999416 -0.000295387 -3.87985e-24)
(1.03105 -0.0169352 -1.75239e-21)
(1.11389 0.0850336 1.12087e-20)
(1.09825 0.000505767 2.53619e-20)
(0.997822 -0.000113123 -1.35617e-22)
(1.05197 0.104712 -3.4985e-20)
(1.01153 -0.0401208 -8.33397e-23)
(0.90358 0.0490206 -2.11122e-21)
(1.02057 -0.084481 -1.93255e-21)
(0.972685 -0.0120016 5.11024e-22)
(0.987367 -0.000785248 -1.25956e-21)
(1.01073 0.0779804 4.48239e-20)
(1.04966 0.0915078 -5.28152e-20)
(0.974252 -0.00274506 5.29136e-22)
(1.08487 0.0635071 5.75974e-21)
(0.983192 0.0696863 -1.27836e-20)
(1.00146 -0.0125601 -2.83914e-23)
(1.0406 0.00512652 7.7639e-21)
(1.02164 0.0143155 -2.13385e-20)
(0.901751 0.0286435 2.50814e-20)
(0.997894 -0.0036511 5.35236e-23)
(1.15147 0.0853032 -1.96682e-20)
(1.14559 -0.0498311 -2.34981e-21)
(0.955221 -0.0165588 -5.76538e-22)
(0.999606 -6.29716e-05 2.40351e-24)
(0.999719 0.00719844 3.2204e-20)
(1.09376 0.125045 1.05223e-20)
(1.21678 -0.00476183 -1.79621e-20)
(0.992149 0.0826042 -1.35225e-20)
(1.14284 0.0213253 6.90534e-21)
(0.981775 -0.026726 5.64403e-22)
(1.09077 0.105692 -8.11784e-21)
(1.09942 -0.0014682 -4.57418e-21)
(1.13947 0.0366727 1.28055e-20)
(0.907858 0.0307321 -6.55489e-20)
(1.02234 -0.0739935 5.81256e-22)
(1.18223 0.0696129 4.78809e-21)
(0.991179 0.0189842 -2.80669e-20)
(0.975826 -0.0440711 1.36817e-21)
(1.12145 -0.0163027 6.82123e-22)
(1.05351 -0.121981 1.93408e-21)
(1.1162 0.0811143 -4.95567e-21)
(0.99392 -0.000195989 -1.86662e-21)
(1.08761 0.00882031 -4.13304e-21)
(1.21763 0.00216949 7.72207e-21)
(1.18454 0.0647604 1.221e-20)
(1.00115 -0.00396404 3.79831e-23)
(1.08094 0.00627296 3.80669e-20)
(0.99714 0.0137442 -2.68869e-20)
(1.04444 0.0391212 5.64685e-20)
(1.12565 -0.151322 -3.36692e-21)
(0.995842 -0.0226411 3.75031e-22)
(0.950973 0.0440282 -2.22478e-20)
(0.947638 0.0167927 -5.73196e-20)
(0.997894 -0.00585476 -3.83422e-23)
(0.967558 -0.0325053 6.74891e-22)
(1.01547 0.0571851 5.92473e-21)
(1.01476 -0.109814 -1.05673e-21)
(1.0775 -0.0700142 -1.48662e-21)
(1.08739 0.116983 3.38407e-20)
(0.989189 -0.00053041 1.57057e-21)
(0.896381 0.0259903 4.26053e-20)
(1.0289 -0.0555075 -2.80017e-24)
(1.14238 0.0918133 6.22782e-21)
(0.992458 -0.00859315 7.60685e-23)
(0.995353 0.0133808 -1.14594e-20)
(1.05774 0.0956763 -9.81063e-21)
(1.07287 -0.0174004 -6.21917e-21)
(1.08895 -0.0759376 5.19192e-22)
(1.21527 -0.0286828 -3.40161e-21)
(1.19465 0.0488757 1.68379e-21)
(0.999789 -0.00440259 -1.76032e-24)
(1.01271 0.0471508 -1.09489e-20)
(1.25565 -0.0431322 -2.55401e-21)
(1.09621 0.0554415 2.54311e-20)
(0.906516 0.0513546 6.56081e-20)
(1.21264 -0.0897769 -2.82321e-22)
(1.05893 -0.0639999 1.99905e-21)
(1.00039 -0.00713013 -1.17192e-22)
(1.2251 0.0608286 1.12176e-20)
(1.22769 0.0125194 4.82373e-21)
(0.981123 -0.0209441 2.25014e-21)
(1.0738 0.107384 -3.09276e-21)
(1.00006 -0.00117832 -2.7006e-23)
(0.980334 -0.0356379 -2.94147e-22)
(1.01253 -0.0121135 6.32823e-22)
(1.19998 -0.0605802 -3.15312e-22)
(0.993207 -0.0373654 6.1366e-22)
(0.999644 -0.000124032 -1.00467e-24)
(0.992518 -0.0481988 1.7611e-21)
(1.18386 0.0804372 -6.26437e-21)
(1.135 -0.145858 -1.07733e-21)
(1.04066 -0.0585925 3.75851e-23)
(0.970073 -0.0228974 -1.3056e-21)
(1.20199 0.0208434 -1.09773e-20)
(1.14916 -0.0250642 7.02334e-21)
(0.981798 -0.0454873 -6.77073e-22)
(0.953403 -0.00862727 2.63713e-21)
(1.00089 -0.00415091 -6.74932e-24)
(1.11041 -0.0681842 -4.27366e-21)
(1.02387 -0.118251 -1.54097e-22)
(1.01015 -0.00258258 -1.37179e-22)
(1.0303 -0.0592608 9.7866e-23)
(1.16412 0.0752893 -1.35981e-20)
(1.04584 0.0362458 -3.45654e-20)
(1.18095 0.00709433 2.67481e-21)
(0.999373 -0.000254542 -1.17492e-23)
(0.944274 0.0820357 -4.95881e-20)
(1.01028 -0.00134888 -5.31003e-22)
(1 -0.00127599 3.23886e-23)
(1.03361 -0.00866157 1.57402e-21)
(0.970737 -0.0326494 -1.08607e-21)
(1.01018 -0.0765545 1.4282e-22)
(0.964469 0.0460999 -2.64916e-20)
(1.02095 -0.0457035 5.15643e-24)
(1.12258 -0.00645395 -4.07105e-21)
(1.02006 -0.102552 2.20926e-21)
(1.01755 -0.104284 -2.96581e-21)
(1.08999 0.113759 -2.34843e-20)
(0.997511 -0.0434051 -4.5206e-22)
(0.996009 -0.067286 8.16245e-22)
(1.00303 -0.0863633 1.05346e-21)
(0.999646 -4.29719e-05 -4.38476e-24)
(1.15181 -0.0822443 2.04766e-21)
(0.935778 0.0788466 -4.76403e-21)
(1.06698 -0.14416 6.96767e-22)
(0.9694 -0.0407636 -2.66613e-22)
(1.07337 0.102941 -4.24302e-22)
(0.986929 -0.0430581 -1.33784e-22)
(1.05475 0.0618856 -1.24694e-20)
(1.15686 0.109235 -2.10246e-21)
(0.997189 -0.00466535 2.67997e-22)
(0.998538 -0.00019597 3.05824e-23)
(1.03497 0.0589207 3.84904e-21)
(0.913714 0.0618376 2.14079e-20)
(1.05327 -0.14261 1.96931e-22)
(1.13017 0.119165 3.28868e-21)
(1.19374 0.0840295 -1.73575e-20)
(0.97399 -0.0362454 -4.54054e-22)
(0.97405 -0.0379859 -1.05555e-21)
(1.01674 0.0597132 -1.63407e-21)
(1.08525 -0.00918666 3.99742e-21)
(1.14356 -0.149386 2.35599e-21)
(1.05686 -0.116617 -1.35271e-21)
(0.977926 -0.00166328 6.70161e-23)
(1.05256 -0.012351 3.0517e-21)
(0.948628 0.0249103 -9.92594e-21)
(1.12168 0.00696498 -2.45123e-20)
(1.00028 -6.56787e-05 4.31076e-25)
(0.972432 0.0666826 4.60393e-20)
(1.03121 -0.0528242 3.31767e-22)
(1.0113 -0.0779218 1.64422e-21)
(1.04446 0.106405 -1.83092e-20)
(1.01492 -0.0197784 5.4273e-22)
(0.991806 -0.00824835 -2.31595e-22)
(0.999448 -0.000418873 -6.52644e-24)
(1.13685 -0.0605382 2.57969e-21)
(0.971179 -0.0177661 -1.05632e-21)
(1.00029 -1.61143e-05 5.86306e-25)
(1.13271 0.121187 -8.08004e-21)
(1.22121 -0.120086 -5.50175e-22)
(1.01096 0.0459361 -1.88875e-20)
(0.999282 -0.000113411 3.36654e-24)
(1.00029 -0.00371639 -1.10963e-23)
(0.98606 -0.0441759 -6.16106e-22)
(1.00001 -6.45225e-05 8.35238e-26)
(1.05408 -0.146943 -1.01958e-21)
(1.1599 -0.14666 -9.96406e-22)
(0.99981 -0.00373027 1.38305e-23)
(1.00872 -0.0614599 -4.70874e-22)
(0.951262 -0.014151 8.67951e-22)
(1.04393 0.0965209 -1.93056e-21)
(0.990485 0.081634 1.09832e-20)
(0.997523 -0.00397854 5.46244e-23)
(1.00277 -0.000958931 -2.61862e-23)
(1.00014 -0.0818882 -2.85992e-21)
(0.986945 0.0744321 3.49197e-20)
(1.00469 -0.0282294 3.41383e-22)
(0.982088 0.0487376 -1.24025e-21)
(0.985031 -0.0106422 -9.2295e-23)
(0.900815 0.0407229 -1.7876e-20)
(1.03547 0.0117295 -4.21773e-21)
(1.11782 0.052325 -2.67503e-20)
(0.923476 0.0498672 -1.95352e-20)
(1.25325 -0.0323386 -1.7569e-22)
(0.991388 -0.00278696 -9.58274e-23)
(1.13885 -0.0489854 2.16626e-21)
(1.0083 -0.029126 -4.26998e-23)
(0.992416 0.0738985 8.88447e-21)
(1.01567 0.0516871 2.57008e-20)
(0.974471 -0.00766332 6.11552e-22)
(1.23031 -0.0887122 -8.0211e-23)
(1.10844 -0.0212272 -6.61494e-22)
(1.05648 -0.0677615 3.1237e-22)
(0.995319 -0.000312877 -1.84461e-22)
(1.23719 -0.102664 5.69711e-22)
(1.00027 -1.67706e-05 1.15432e-24)
(1.04154 0.093604 1.1442e-20)
(0.949599 -0.0133625 -3.39092e-21)
(0.995236 -0.0538921 -2.94685e-22)
(0.997563 -0.0260347 3.28251e-22)
(1.00729 -0.049428 1.61146e-21)
(1.13971 0.087523 1.91604e-21)
(1.17808 0.0121669 -1.01956e-20)
(0.998133 -6.69646e-05 1.71078e-22)
(1.02337 -0.0438908 1.87002e-22)
(0.999903 -0.000111381 1.47698e-24)
(0.901164 0.0380988 1.34278e-20)
(0.952541 0.0224873 2.04612e-20)
(0.995469 -0.00105475 -9.81699e-23)
(0.97691 -0.011792 -6.11641e-22)
(1.03023 -0.0323337 9.36268e-22)
(1.01724 0.0543129 1.10451e-20)
(0.950491 -0.020706 -1.66379e-21)
(1.19619 0.0876492 -3.80918e-21)
(0.971165 -0.0416041 2.86332e-22)
(1.00614 0.0749328 -8.04891e-22)
(1.12107 0.0560681 -3.03315e-21)
(0.970497 -0.0192882 -7.0572e-22)
(0.903282 0.0211079 -2.73156e-20)
(1.04606 -0.00213912 -2.90645e-21)
(1.01331 0.0791691 -2.39721e-20)
(0.994222 -0.0121318 3.46777e-23)
(1.02551 -0.125541 4.68922e-21)
(0.976326 0.00413621 -6.69817e-20)
(1.01357 -0.0365287 1.23411e-22)
(0.912133 0.0657474 -9.6918e-21)
(1.02506 0.0632601 1.41373e-21)
(0.907456 0.0235796 -6.57639e-21)
(0.991896 -0.0028635 5.8979e-23)
(0.991859 -0.000599499 4.77364e-22)
(1.02657 -0.0792832 -4.04957e-22)
(1.14928 -0.0388436 -1.08597e-20)
(1.01384 -0.0196384 -5.97132e-22)
(1.02572 -0.0716168 -1.25789e-22)
(1.00982 0.0700806 2.17739e-21)
(1.00536 0.0810493 7.40247e-21)
(1.037 0.00203634 5.48414e-24)
(0.989361 0.0726014 -2.49454e-20)
(0.919752 0.0699046 5.31073e-21)
(1.11941 0.0977569 2.05109e-20)
(0.998851 0.00821752 -4.60327e-20)
(1.0412 0.0302789 -1.08369e-20)
(1.00493 -0.0150686 -6.46692e-23)
(1.03238 0.0606027 -1.26168e-21)
(0.994694 -0.0668462 -7.0648e-22)
(0.972529 -0.0406125 7.51052e-22)
(0.998917 -0.00113434 6.19462e-24)
(1.05089 -0.0677371 -8.53903e-22)
(1.10048 -0.130922 -3.93656e-22)
(1.07348 0.0356764 9.26657e-21)
(1.07431 -0.0077493 7.60946e-21)
(1.00265 0.0272603 3.79984e-21)
(1.00913 -0.0425012 8.25472e-22)
(1.11115 -0.0130099 3.87358e-21)
(1.00405 0.0217296 -4.44189e-21)
(1.00937 -0.0305266 2.26411e-22)
(1.08592 -0.079479 -1.12204e-21)
(0.999934 -0.00013548 -2.72685e-25)
(1.00043 -0.000199727 1.98911e-25)
(1.07243 0.0323435 -2.5821e-23)
(0.996076 -0.0578965 -8.56102e-22)
(0.977326 -0.0378991 1.16418e-21)
(1.00047 -0.000189206 -1.09814e-25)
(1.00014 -0.00259405 1.69343e-23)
(1.10789 -0.0249317 -1.17068e-21)
(0.999441 -7.29573e-05 -5.47551e-24)
(1.22719 0.0411259 -5.51007e-22)
(0.901145 0.0311181 3.44821e-20)
(1.12536 0.121208 1.22813e-21)
(1.1029 0.0643421 -7.4463e-22)
(0.970334 -0.00753747 -9.79463e-22)
(1.0267 0.0840427 8.78595e-21)
(1.2188 0.0655996 -5.73376e-21)
(1.00504 -0.0263117 -1.97542e-23)
(0.977584 -0.0130223 -5.84909e-22)
(0.997885 -0.00338449 3.21078e-25)
(0.999396 -0.00037672 3.30234e-24)
(1.00169 -0.00420204 -1.35429e-23)
(0.998173 -0.0276443 2.92257e-22)
(1.03888 -0.125045 2.29408e-21)
(1.08934 0.0794558 2.94095e-20)
(1.17326 -0.0389086 2.09433e-21)
(0.964439 -0.0036538 2.18872e-22)
(0.999909 -7.46869e-05 -2.9031e-25)
(1.00158 0.0463044 2.52932e-20)
(1.23282 -0.0157926 -6.28545e-21)
(1.23993 -0.0645625 -5.40419e-22)
(1.01564 -0.0375364 -1.28192e-22)
(1.19907 0.0656425 8.03131e-21)
(1.04924 -0.0703098 4.0884e-23)
(0.982658 -0.000886356 -1.68125e-22)
(1.00266 0.0194696 2.2366e-20)
(0.977997 0.000836797 -8.56702e-20)
(1.06019 0.116694 -2.42971e-20)
(0.989198 -0.000419751 -1.06266e-21)
(1.05784 0.11599 1.8805e-20)
(0.969861 -0.00552722 3.904e-22)
(0.989239 -0.040259 -7.76499e-22)
(1.11213 0.114018 -2.29018e-20)
(1.00026 -8.0961e-05 9.02243e-25)
(0.992325 -0.0264531 -1.19905e-22)
(1.15074 0.0896857 6.72016e-21)
(1.11591 0.0888244 2.38358e-20)
(0.971722 -0.0207209 -1.84676e-22)
(1.02055 0.0544066 1.68555e-21)
(0.967262 0.0856667 -2.17753e-21)
(1.01423 0.0260033 -5.16619e-20)
(0.969212 -0.0334811 1.6803e-21)
(0.9545 -0.00850407 -1.22928e-21)
(1.04379 -0.0554562 3.55997e-22)
(1.10316 -0.00179816 6.94332e-22)
(1.0204 0.011931 -1.26856e-20)
(0.995831 -0.00139992 -3.26233e-23)
(0.974791 0.00935457 -2.50474e-20)
(0.995219 -0.0410121 1.56145e-21)
(1.0296 -0.125367 -3.14915e-21)
(1.1357 -0.0438126 2.37042e-21)
(0.941424 0.0836809 7.05102e-20)
(1.09059 0.0841053 -2.43108e-20)
(1.01299 0.051907 -2.70082e-20)
(1.16832 -0.141323 4.67428e-22)
(0.961156 0.00235218 -3.79295e-20)
(0.972809 -0.017513 1.06591e-21)
(0.990361 -0.0387635 5.58927e-22)
(0.923033 0.0112108 1.31599e-20)
(1.06986 -0.0246496 -2.00708e-21)
(1.03919 -0.115952 -4.10144e-22)
(1.01453 0.0731776 -5.52163e-21)
(1.00478 0.0720157 -1.68408e-20)
(0.981753 -0.0344417 -1.05815e-21)
(1.0247 0.015606 -2.87147e-20)
(0.987419 0.077517 -4.63731e-21)
(1.00546 0.066755 2.20126e-20)
(1.03582 0.098691 7.30162e-21)
(1.0113 0.073227 3.55636e-20)
(1.05144 0.0679087 -1.94352e-20)
(0.987927 -0.00357336 3.83032e-22)
(0.973907 -0.0188601 1.2535e-21)
(1.00263 -0.00669372 -3.91797e-24)
(1.01281 -0.102817 3.35761e-21)
(0.993516 0.0206945 -6.49325e-21)
(1.01759 -0.108671 1.95599e-21)
(1.16697 0.084782 -6.07231e-22)
(1.1393 0.0480254 -1.63687e-20)
(0.978191 -0.0436959 7.96353e-22)
(1.22041 0.0392441 1.90179e-23)
(1.15727 0.101776 -6.70837e-21)
(0.991709 0.00919957 -1.97445e-21)
(1.21139 0.0296894 4.2212e-21)
(0.99982 -0.00313011 -6.63152e-24)
(1.05556 -0.0121641 1.33758e-22)
(0.988826 -0.043379 3.82122e-22)
(1.21553 -0.0610017 1.10629e-22)
(1.23195 -0.0601092 1.56013e-21)
(1.02068 -0.115385 6.5799e-22)
(1.03678 0.0947511 4.12803e-21)
(0.979737 0.0836643 3.68512e-20)
(1.16096 -0.0240104 5.07241e-21)
(0.996663 0.00905207 2.03741e-20)
(0.911685 0.0583573 -2.38417e-20)
(0.99826 -0.000118799 -3.58146e-23)
(1.00305 -0.000982226 4.88237e-24)
(0.997237 -0.00512942 -1.19836e-22)
(0.975518 -0.00805839 2.23114e-22)
(1.07364 0.0752527 -1.53332e-20)
(0.923648 0.0127821 -2.85901e-20)
(1.12369 0.0103556 2.11173e-20)
(1.02807 0.0899419 5.25195e-21)
(0.985245 -0.0211292 -6.2724e-22)
(1.06626 0.107885 3.20446e-20)
(1.0631 0.113985 1.02351e-20)
(1.21547 -0.111308 1.34106e-22)
(0.962267 -0.0115841 1.13977e-21)
(0.951557 -0.0196109 1.01217e-21)
(1.17087 0.0885481 1.71462e-21)
(1.01182 -0.0374373 1.22498e-22)
(1.17202 -0.0341202 3.06707e-21)
(0.975521 -0.0352557 2.39799e-22)
(0.959512 -0.0349795 -2.47483e-21)
(1.01988 0.0756442 3.9481e-20)
(0.992797 -0.00243356 1.96772e-22)
(1.02421 -0.0502008 1.03831e-23)
(1.00659 0.0798013 1.83971e-20)
(1.2185 0.0315075 1.86395e-20)
(0.94807 0.0712651 8.07112e-21)
(1.01599 -0.0738107 -7.37899e-22)
(1.03943 0.0102603 1.38535e-20)
(1.22329 -0.0655825 -1.1542e-21)
(1.00172 -0.0610965 3.14703e-22)
(0.977481 0.00714278 -9.23013e-21)
(0.988811 0.00051331 5.55837e-20)
(0.990694 0.0255054 -1.00805e-20)
(0.995684 -0.0294304 -7.3024e-22)
(0.939469 0.0158254 3.13765e-20)
(0.970784 -0.0308582 8.60718e-22)
(0.97756 0.062577 1.13145e-21)
(1.10882 -0.0553039 -1.38205e-21)
(0.988636 0.039508 -5.72732e-21)
(0.986312 -0.0414267 4.8324e-22)
(1.00005 -0.000197138 -1.02536e-26)
(0.988338 0.0347221 1.89795e-20)
(0.975521 0.0563273 2.19882e-20)
(0.97969 0.0679692 -3.52808e-20)
(0.98903 0.0301493 -2.21071e-20)
(1.06662 0.0052231 -4.99236e-20)
(1.11864 -0.0139247 -3.4816e-22)
(1.0631 0.0655699 -3.79659e-20)
(1.03654 -0.112362 9.75076e-22)
(0.996146 0.0181769 6.65117e-20)
(1.02024 0.0486779 -3.35646e-20)
(1.22649 -0.0201281 7.68149e-21)
(1.07737 -0.010084 -8.02507e-21)
(0.988292 -0.00339946 2.15848e-22)
(1.25928 -0.0271858 6.51884e-22)
(1.02538 0.0781146 -6.72852e-21)
(0.959665 -0.0275918 6.94814e-23)
(0.969216 -0.00472408 -1.20724e-21)
(0.990142 0.00484475 -1.32026e-20)
(0.984449 0.0426391 -4.06307e-20)
(0.992691 -0.0469754 -7.04329e-22)
(0.991481 0.0461559 2.97657e-20)
(1.02291 -0.122353 1.12433e-21)
(1.19807 0.0600335 -1.32869e-20)
(0.99303 -0.000345086 -4.0516e-22)
(0.979896 0.0460115 -2.28141e-20)
(0.974699 0.0500798 5.79693e-20)
(0.91042 0.0341134 5.32957e-20)
(0.984621 0.079662 4.80972e-20)
(0.996755 -0.000394776 -4.68406e-23)
(0.985458 -0.0228594 4.12598e-22)
(0.998772 -0.00117078 -5.295e-23)
(0.998668 -0.0640425 -2.69805e-21)
(0.947708 0.0560613 -1.14848e-20)
(1.1152 0.0716791 -3.44586e-20)
(1.03284 0.0856739 -3.90986e-22)
(0.959857 -0.0336179 1.62061e-21)
(1.04152 0.0330735 3.40635e-20)
(1.03218 -0.0315076 -1.09343e-21)
(0.947596 0.063996 1.6641e-20)
(1.07734 -0.0857054 2.16325e-22)
(0.994553 0.00767555 2.25383e-20)
(0.993236 -0.000339421 -2.43162e-22)
(0.954936 0.0526625 -3.86623e-20)
(0.940778 0.0678942 -4.63292e-20)
(0.984004 -0.0239443 -1.06142e-21)
(1.16487 0.0360033 8.30834e-21)
(0.955768 0.0448536 -3.85818e-20)
(0.996304 -0.000589974 2.13588e-22)
(0.927232 0.0338099 -6.02668e-21)
(1.04143 -0.062072 -8.89546e-23)
(0.996156 -0.000418035 -6.23381e-23)
(0.960985 -0.0127286 -7.96309e-22)
(1.01344 0.0821548 -2.3379e-20)
(1.13736 0.0635338 -2.08949e-20)
(1.00868 -0.0864689 1.53398e-21)
(0.995819 0.0799422 1.88654e-21)
(0.936978 0.0758012 3.06573e-21)
(1.06285 0.110106 -3.47279e-20)
(1.04935 -0.00920298 -1.50923e-21)
(1.00058 -0.0569188 5.05813e-22)
(1.1346 -0.0551297 -2.89501e-21)
(0.985394 0.0480616 3.34668e-20)
(0.935789 0.0338002 -3.48517e-21)
(0.904613 0.0331173 3.44918e-21)
(1.11382 0.0621859 5.3305e-21)
(1.0007 -0.00900413 2.11965e-23)
(0.975899 -0.00187627 1.23677e-22)
(1.02755 0.0806297 -2.38809e-20)
(1.00189 -0.00696866 1.05219e-23)
(0.98615 -0.00514111 -3.77016e-24)
(1.00298 -0.0108944 -2.4321e-24)
(0.995482 -0.0257164 -3.64043e-22)
(1.07629 -0.126646 1.33627e-21)
(1.15796 -0.129436 -5.38311e-22)
(0.968235 0.067431 -5.13362e-20)
(1.01812 -0.0415219 1.1939e-23)
(0.999072 -0.000940943 3.47969e-23)
(1.02582 0.0509274 -5.18288e-22)
(1.13374 0.0882263 1.70367e-20)
(1.00195 -0.011055 -2.29996e-23)
(1.17615 0.0705791 -1.02994e-20)
(1.00167 -0.0011767 -8.93947e-25)
(1.12892 0.0484063 1.81645e-21)
(1.01422 0.027398 3.61851e-20)
(0.989439 0.0442612 -5.77225e-20)
(1.12703 -0.13385 7.21396e-22)
(1.14962 0.0365548 -1.12292e-20)
(0.994991 -0.0123977 -6.86683e-23)
(1.10537 -0.0863757 -2.58474e-22)
(0.995598 -0.00171037 -1.474e-23)
(0.982576 0.0542497 -5.92963e-20)
(0.966792 0.0657218 1.59027e-20)
(1.18699 -0.135123 3.61139e-22)
(1.15178 -0.143349 6.0777e-22)
(1.11794 -0.146324 2.86022e-21)
(1.02942 -0.073335 4.31633e-22)
(0.99281 0.0767611 3.99264e-21)
(1.03182 -0.0669006 1.64952e-22)
(1.09539 -0.118995 2.73219e-22)
(1.06353 -0.138517 -8.22311e-22)
(1.09949 -0.0758093 1.36574e-21)
(0.918902 0.03406 2.92876e-20)
(1.1198 -0.161608 -5.56914e-21)
(1.21194 0.00764916 -1.2109e-21)
(0.985523 0.0155831 1.15357e-20)
(0.994517 -0.000451039 2.33835e-22)
(1.1686 0.0173139 4.92865e-21)
(1.0339 -0.0601495 -4.88514e-23)
(1.06382 -0.127277 1.36719e-21)
(0.995781 -0.00109327 5.96225e-24)
(0.999805 -0.00265786 -2.07292e-23)
(0.921515 0.0423325 -4.99496e-20)
(1.04847 0.0352182 2.62175e-20)
(1.18322 -0.14274 2.17767e-21)
(1.25605 -0.00122648 1.71827e-21)
(1.05036 0.0597957 -1.41205e-20)
(0.994374 0.0450955 -4.69413e-21)
(1.02239 0.0516586 1.02494e-20)
(1.19719 -0.0785179 1.26807e-21)
(0.987126 -0.0464211 1.38391e-21)
(0.996253 -0.039302 -4.05768e-22)
(0.989889 -0.0419632 -1.09875e-22)
(1.03231 0.0525531 -3.42471e-20)
(0.970334 -0.00594456 1.09488e-21)
(1.0046 -0.0579692 7.10238e-22)
(0.99965 -4.2238e-05 1.01276e-24)
(0.975448 -0.0184958 -2.10135e-21)
(0.997849 -0.000640895 3.58656e-24)
(1.09454 -0.133256 8.56e-22)