/*--------------------------------*- C++ -*----------------------------------*\
  =========                 |
  \\      /  F ield         | OpenFOAM: The Open Source CFD Toolbox
   \\    /   O peration     | Website:  https://openfoam.org
    \\  /    A nd           | Version:  7
     \\/     M anipulation  |
\*---------------------------------------------------------------------------*/
FoamFile
{
    version     2.0;
    format      ascii;
    class       volVectorField;
    location    "14";
    object      U;
}
// * * * * * * * * * * * * * * * * * * * * * * * * * * * * * * * * * * * * * //

dimensions      [0 1 -1 0 0 0 0];

internalField   nonuniform List<vector> 
115545
(
(1.03361 -0.047847 -1.92823e-23)
(0.999996 7.81518e-07 -2.28626e-24)
(0.985554 -0.0120471 5.96449e-22)
(0.99639 -0.00393436 -1.22195e-22)
(1.00181 -0.00432516 8.00619e-24)
(0.999035 -0.00144708 5.26537e-23)
(1.02405 0.126148 -1.72244e-20)
(1.05619 -0.0900157 3.94749e-22)
(0.999686 -0.00048455 -3.54355e-24)
(0.999996 8.17404e-07 4.75121e-25)
(0.999766 -2.60409e-05 1.74087e-23)
(1.00015 -0.000129202 1.49365e-24)
(0.998609 -0.00472886 -4.87864e-23)
(0.911946 -0.00612603 -2.16679e-21)
(0.999684 -0.000496785 3.14966e-23)
(0.923484 -0.0275837 -4.89963e-21)
(0.999868 -0.000373838 2.30304e-23)
(0.999617 -0.00026653 -3.03028e-23)
(0.989778 0.127918 2.14107e-20)
(1.00186 -0.00437795 4.76822e-23)
(1.06194 -0.0903217 3.38436e-21)
(0.9941 -0.000178899 -5.593e-23)
(0.999548 -0.000354393 -2.98284e-23)
(0.994454 -0.00565829 -7.68257e-23)
(0.888327 0.0390643 2.08687e-20)
(1.11943 0.0219856 6.1921e-21)
(1.2415 0.0086637 -4.49688e-23)
(1.01851 -0.00441601 1.86016e-21)
(0.999986 -4.96575e-05 5.33172e-24)
(1.05415 0.219059 -1.88251e-20)
(0.999877 -5.18611e-05 1.26774e-23)
(1.05147 0.010125 1.64141e-21)
(1.00756 -0.011404 -4.86821e-23)
(0.985051 -0.00631896 -5.59441e-22)
(0.875494 0.108842 9.49916e-21)
(0.997971 -0.00121857 2.70851e-22)
(1.03294 0.138968 2.94492e-21)
(0.999867 -0.000382657 -9.73017e-24)
(1.24336 -0.0909204 3.81486e-22)
(1.02893 0.0690747 2.73376e-20)
(1.05203 0.0106639 -3.19804e-21)
(0.999612 -0.000276082 -5.80292e-24)
(0.981938 -0.0223915 -1.09537e-21)
(0.997978 -0.00118029 -1.92838e-22)
(0.964314 -0.0619539 -1.73479e-22)
(0.912488 -0.00550406 2.25767e-21)
(1.00629 -0.0139777 2.55365e-22)
(1.00576 -0.000703196 1.56241e-22)
(1.00016 -0.00694199 -1.72494e-23)
(1.00014 -1.4276e-05 -7.51175e-24)
(1 -1.24776e-07 1.3384e-25)
(0.996344 -0.00016766 1.92823e-22)
(1.0385 0.0118806 5.30774e-21)
(0.999996 -3.76528e-07 -3.3856e-25)
(0.998109 -0.00823096 1.855e-22)
(1.03812 0.0122128 -1.37558e-21)
(1.03087 0.000619224 3.79087e-21)
(0.958113 -0.0435182 -5.9275e-22)
(1.20394 0.0176576 1.58673e-21)
(0.989056 -0.0148401 1.28248e-21)
(0.999929 -0.000213761 -1.00429e-23)
(0.994369 -0.0059845 6.63531e-23)
(0.999199 -4.71544e-05 -4.77515e-23)
(0.98089 -0.0105694 1.61683e-22)
(0.999945 -5.5077e-05 -1.23197e-23)
(1.00099 -8.42599e-05 -5.91484e-24)
(0.998838 -0.0043294 2.19692e-22)
(1.03979 -0.00406153 3.2434e-21)
(1.25701 0.0213458 -2.79571e-23)
(1.03136 0.000266956 1.56306e-21)
(1.08706 0.1218 7.25741e-21)
(1.21273 0.0571734 -3.33034e-21)
(1.02895 0.0679926 1.21103e-20)
(0.953145 -0.00408548 -4.15045e-22)
(1.02328 -0.0608935 -3.36962e-22)
(0.969522 -0.0102719 -2.23068e-22)
(1.15028 -0.0244255 -6.03855e-22)
(0.999246 -0.00252036 -9.9035e-23)
(0.997765 0.0882352 -6.94542e-21)
(1.11492 -0.00657121 1.44384e-22)
(1.11558 -0.00501518 9.66262e-22)
(0.999973 7.21707e-07 3.80899e-25)
(0.977079 -0.136642 2.56833e-21)
(1.01772 -0.00102829 -8.33735e-22)
(0.996355 -0.00105633 1.1782e-22)
(1.00014 -0.000125496 1.42576e-24)
(0.980753 -0.0166891 -7.41227e-22)
(0.999995 -1.41985e-05 -4.67668e-25)
(0.966415 -0.0109144 -8.68565e-24)
(0.999992 -2.72151e-05 2.28809e-24)
(1.22788 -0.0544545 2.15083e-22)
(0.988219 -0.006295 3.5251e-22)
(0.999984 -4.94447e-05 -6.62388e-24)
(0.998477 -0.00108174 2.13299e-22)
(0.99952 -0.000334352 -4.94719e-23)
(1.00033 -5.31945e-05 4.66645e-24)
(0.999623 -1.88899e-05 -8.85979e-24)
(0.977857 -0.135687 1.46011e-22)
(1.16684 -0.0799568 2.93007e-22)
(0.966585 -0.0105982 -3.55209e-22)
(0.999927 -0.00021849 1.17786e-23)
(1.02275 -0.00761985 -1.92751e-21)
(1.00272 -0.0127205 1.05773e-23)
(1.00266 -0.000175873 -4.6604e-25)
(1.08525 0.120136 4.86416e-21)
(1.01342 -0.0904142 1.79615e-21)
(1.01652 0.0727782 -8.0717e-21)
(0.977574 -0.0847394 1.85453e-21)
(0.994459 -0.0300468 1.8965e-22)
(0.999984 -6.11547e-05 -3.7826e-24)
(1.1323 0.00127631 -2.13088e-21)
(0.999628 -2.47577e-05 3.52206e-24)
(1.1513 -0.0227988 3.83954e-22)
(0.995863 -0.021263 -8.73055e-22)
(0.727128 0.0971761 -4.3889e-21)
(0.999764 -0.012496 -4.3657e-22)
(0.999762 -2.19019e-05 -3.22457e-23)
(1.10355 0.116628 -8.8265e-21)
(1.00001 -1.30855e-05 -1.46062e-25)
(1.21258 0.0551133 2.38539e-21)
(1.10388 0.119279 1.2591e-20)
(0.922697 -0.0281712 2.0055e-21)
(0.986035 -0.0126882 5.15178e-22)
(1.17863 0.00479396 1.1322e-21)
(0.999994 -1.7999e-06 -4.08769e-25)
(1.05342 0.216399 2.16961e-20)
(0.994405 -0.0061439 -6.98821e-23)
(0.872726 0.240569 -1.24646e-20)
(0.998131 -0.000110827 3.81172e-24)
(1.02773 -0.000659499 -2.43976e-21)
(1.0488 -0.0566379 1.89858e-23)
(1.00022 -3.26975e-05 3.30504e-24)
(1.13756 0.11933 -5.0591e-21)
(1.00014 -0.000118582 -3.96102e-24)
(1.00001 -1.12956e-05 -8.06093e-26)
(0.992876 0.149382 3.40772e-20)
(0.90499 0.103121 -5.68418e-21)
(1.00755 -0.0116174 -5.60416e-23)
(0.998231 -0.00829197 -2.60965e-22)
(0.994431 -0.00591137 6.55428e-22)
(1.22934 0.170203 3.91439e-21)
(1.00009 -0.0119129 -1.71669e-22)
(1.00004 -3.93871e-06 -3.10584e-25)
(1.04675 0.0167199 6.87966e-22)
(1.04927 -0.0552197 2.8588e-23)
(1 -1.85594e-07 -1.34677e-25)
(1.01219 -0.0161426 -7.74916e-25)
(0.994326 -0.00622533 -2.11925e-22)
(1.03946 -0.00371525 -5.00982e-21)
(1.00088 -0.00213249 -2.55037e-23)
(1.0122 -0.0896774 -1.35805e-21)
(0.963663 -0.0620135 1.25821e-21)
(0.988289 -0.00613964 2.26191e-22)
(0.999993 -1.34131e-06 1.9122e-25)
(0.996396 -0.00015799 1.13287e-22)
(1.00853 -0.00912723 3.83716e-22)
(0.999982 -6.32003e-05 4.94164e-24)
(1.1114 -0.0274716 2.08008e-21)
(0.971064 -0.0007382 -2.25781e-23)
(1.01781 -0.124091 -1.0573e-21)
(0.96988 -0.0105439 1.21362e-21)
(1.01205 -0.0158821 4.11908e-22)
(0.999214 -4.37858e-05 -3.52464e-23)
(1.00057 -0.0663327 1.63837e-22)
(0.993356 -0.0181337 -4.22278e-22)
(0.999041 -0.000568816 -1.47139e-22)
(1.02977 -0.0137771 9.79346e-22)
(0.988932 -0.0362483 -9.77453e-23)
(1.11305 -0.0278224 -2.88807e-21)
(0.992416 -0.0181524 5.14341e-22)
(0.990163 -0.0158528 9.24716e-22)
(1.00632 -0.013736 -1.43329e-22)
(1.23676 -0.0574086 1.49036e-21)
(0.915849 -0.0222928 -3.51715e-21)
(0.998889 -0.0569524 1.06109e-22)
(1.03383 -0.00364349 -1.16638e-22)
(0.915953 -0.0209849 7.78918e-22)
(0.997717 -0.00285286 1.49247e-22)
(1.00896 -0.0164682 7.02368e-22)
(1.00012 -0.00682867 -3.4591e-23)
(1.01455 -0.0109768 1.28856e-22)
(1.02393 -0.0603603 -4.10938e-22)
(0.979741 0.135891 -9.54266e-21)
(1.04216 0.0163403 3.0623e-21)
(1.0154 0.0725657 1.90576e-20)
(0.999611 -0.000892116 -3.92808e-24)
(0.995905 -0.00331733 1.47998e-22)
(1.00006 0.00110796 -3.51986e-21)
(1.03074 -0.0243423 1.94929e-21)
(1.22663 -0.0556554 -1.14639e-21)
(0.99779 -0.00285292 4.63108e-23)
(1.00018 -0.0113132 1.195e-22)
(0.988705 0.0737187 -1.43975e-20)
(0.975807 -0.0220272 2.19048e-21)
(1.11782 0.0221594 -8.24833e-21)
(0.99925 -0.109731 -1.25941e-21)
(0.915237 -0.0204486 -2.34253e-22)
(0.989075 -0.000285885 -6.12208e-22)
(0.972309 -0.0179922 -1.59959e-21)
(1.00715 -0.0411225 -3.83899e-22)
(1.03212 0.0168634 4.11808e-21)
(1.00579 0.0960782 1.14628e-20)
(1.01668 -0.0107716 3.74429e-22)
(0.999994 -2.18323e-05 -3.2978e-24)
(0.996042 -0.00284434 1.22966e-23)
(0.964931 -0.020239 -8.46634e-22)
(0.999291 -0.000984506 -8.37877e-23)
(0.999946 -5.49947e-05 9.50375e-24)
(1.0308 -0.00739398 -6.04621e-22)
(1.02076 -0.0713459 2.86446e-21)
(0.915313 -0.0191772 1.94913e-21)
(1.01804 0.0718228 -4.9454e-21)
(0.892641 0.0411413 -1.54598e-20)
(0.999992 -2.72611e-05 2.99817e-25)
(1.00005 -0.0310365 -9.22698e-22)
(0.975579 -0.0223357 -1.08497e-21)
(1.08048 -0.026111 1.41505e-21)
(1.00672 -0.0133847 3.57192e-22)
(0.912086 -0.00423185 1.31189e-21)
(0.999852 -0.000247128 4.22482e-24)
(0.977765 -0.044158 -5.21489e-23)
(0.979202 -0.020982 7.14145e-23)
(1.00002 -0.00876092 1.97469e-23)
(0.969875 -0.000952186 7.02608e-22)
(0.999996 -4.05399e-07 4.83298e-25)
(0.942258 0.134835 1.46942e-20)
(1.00562 -0.0202958 -6.56972e-24)
(0.970869 -0.0157455 -1.63978e-21)
(0.99964 -0.10827 -7.02082e-22)
(0.948971 0.0607172 8.20123e-21)
(1.02071 -0.00533101 -1.90717e-22)
(0.967347 -0.0479056 2.21046e-22)
(1.21507 0.172271 -3.54546e-21)
(0.983218 -0.0349349 -9.49759e-22)
(1.05198 -0.0586 6.28645e-23)
(1.03178 0.0171127 6.22869e-21)
(1.00039 -3.94299e-05 5.44264e-24)
(1.00091 -0.0102693 -8.71578e-23)
(0.985492 -0.0379702 3.42101e-22)
(0.996262 -0.000246707 -2.50388e-22)
(1.20713 -0.0519385 1.8291e-21)
(1.02109 -0.0435206 1.83184e-23)
(1.01884 -0.125406 1.38098e-21)
(1.16795 -0.0818991 -1.41512e-21)
(0.998066 -9.61845e-05 -1.92008e-22)
(1.00088 -0.00247448 9.21725e-25)
(1.0467 0.00230372 4.18461e-21)
(0.96759 -0.00250849 -1.43256e-21)
(0.989403 -0.0363163 -3.06915e-23)
(0.933423 -0.0466794 -1.0499e-21)
(0.998183 0.0298855 -7.87001e-21)
(0.998623 -0.00148789 -1.60615e-23)
(1.02703 0.00176963 -1.88666e-20)
(1.00005 -0.00291331 -6.47417e-24)
(0.865297 0.225316 -2.26427e-20)
(1.01482 -0.0108426 -7.71489e-22)
(1.16784 -0.0229061 -9.06216e-22)
(1.01853 -0.00102635 7.84734e-22)
(1.00025 -5.68174e-06 2.42359e-23)
(1.05697 -0.0917089 7.07366e-23)
(1.01494 -0.0104819 -1.86242e-21)
(0.91265 -0.00359391 -8.04665e-22)
(1.04274 0.0170724 -4.33199e-21)
(1.24165 -0.104162 -8.89216e-22)
(0.994187 -0.0303433 1.51138e-22)
(0.996474 -0.00396522 4.19829e-22)
(1.17645 0.00466136 2.06992e-21)
(0.998145 -0.000256444 2.10507e-22)
(1.14714 -0.0108227 -9.38044e-22)
(1.15247 -0.0348505 5.80361e-23)
(0.999952 -3.05699e-05 -1.25846e-25)
(1.03091 -0.023801 -4.85518e-22)
(1.00022 -0.00668861 -6.77396e-23)
(1.02157 -0.0439717 1.05068e-22)
(0.998756 -0.00362071 -1.99593e-22)
(0.979773 -0.016871 -3.65494e-22)
(0.965089 -0.0581582 1.28155e-21)
(0.999678 -0.0568067 7.14268e-23)
(0.998036 -0.0109728 2.93424e-22)
(0.97858 -0.0846322 -1.54946e-21)
(1.00115 -0.0667861 -3.83895e-22)
(0.998097 -8.41152e-05 -1.45349e-22)
(1.00003 -0.00164898 -9.13721e-24)
(0.965262 -0.019863 4.63645e-22)
(1.00002 -0.000779958 -1.36188e-23)
(1.01165 -0.00813598 1.14642e-21)
(0.944844 0.13247 8.42444e-21)
(1.02862 0.000712065 -9.3617e-21)
(0.980826 -0.141003 -1.52002e-21)
(1.23775 -0.0890877 3.40771e-22)
(0.964434 -0.0578902 2.85488e-22)
(0.999996 -1.82256e-05 -2.50795e-24)
(1.20355 0.00793723 9.85311e-22)
(1.01799 0.0707021 -4.76451e-21)
(0.999891 -0.000481901 8.53993e-24)
(1.01811 -0.0104056 -1.07271e-21)
(0.998581 -0.00167867 -1.33699e-22)
(1.05425 0.00897009 2.49937e-21)
(1.00018 -0.00452006 4.1698e-23)
(1.15512 -0.034596 1.0961e-22)
(0.914183 -0.0156035 -1.04085e-21)
(0.992693 -0.0520583 3.59213e-22)
(1.2527 -0.0289633 -4.57072e-22)
(0.993779 -0.00821408 -3.97001e-22)
(0.977705 -0.054913 -2.12484e-22)
(1.10004 -0.00571084 1.00361e-21)
(1.02692 -0.0529634 4.54647e-23)
(0.97103 -0.015496 1.11273e-21)
(1.20448 -0.168027 -4.04368e-21)
(1.00908 -0.0162719 -7.80374e-24)
(0.997148 -0.00191809 -1.39142e-22)
(1.13391 0.15129 9.60066e-21)
(1.17376 0.163477 6.1339e-21)
(0.985965 -0.0380186 -9.63538e-22)
(0.998503 -0.00476395 2.48166e-22)
(1.00275 -0.0122647 4.15027e-24)
(0.987099 0.0771744 -2.27255e-20)
(1.00084 -0.00250615 1.3892e-23)
(0.994597 -0.00568569 3.40337e-22)
(1.2025 -0.000341175 -2.4573e-22)
(1.08211 -0.0428293 2.36858e-22)
(0.999855 -0.00025312 -3.198e-23)
(1.01642 -0.010953 -2.91665e-22)
(0.732134 0.092265 7.77395e-21)
(1.10533 0.0029426 -4.448e-21)
(0.970716 -0.00614447 -1.7621e-21)
(1.00873 -0.00906315 -5.59362e-22)
(1.04996 0.0063376 3.07809e-21)
(0.913453 -0.0149862 2.02139e-21)
(1.20432 0.00962974 -1.5527e-21)
(0.997162 -0.00199362 9.8735e-23)
(0.999995 -1.88878e-05 4.73012e-24)
(0.999634 -0.000945583 7.71376e-23)
(0.998603 -0.00165392 2.09976e-22)
(0.777175 0.0275397 5.05982e-21)
(0.996713 -0.00464997 -3.0303e-22)
(1.11698 -0.0210684 1.34806e-21)
(0.999957 -3.02819e-05 8.32649e-25)
(0.999018 -0.00142044 -7.28931e-24)
(0.995878 -0.00324908 -1.83792e-22)
(0.987277 -0.0131427 -4.86618e-22)
(1.07353 -0.00153099 -8.56135e-21)
(1.24332 0.00775702 3.94507e-24)
(0.981361 -0.00988735 1.57419e-21)
(0.991387 -0.0101783 1.99821e-22)
(1.00177 -0.00324396 -1.61299e-23)
(0.997946 -0.0111088 -1.80021e-22)
(0.848775 0.237128 -3.97057e-22)
(0.967751 -0.02842 2.83711e-21)
(0.998562 -0.010647 8.03125e-23)
(1.13497 0.118845 2.60994e-21)
(1.02376 0.0268885 -5.6496e-21)
(1.01476 -0.0102254 1.68526e-21)
(0.997249 -0.00311166 2.5809e-22)
(1.0066 -0.0413479 -5.07914e-23)
(1.00616 -0.0233862 -4.35305e-24)
(1.03295 -0.0469865 1.68685e-23)
(1 -1.50365e-06 -9.87906e-27)
(0.999338 -0.00158717 1.86818e-22)
(1.03734 -0.0353418 -5.69656e-22)
(1.09805 0.0526954 7.13213e-21)
(0.97761 -0.0626389 4.33329e-22)
(1.03015 0.137944 5.49724e-21)
(0.768693 0.0550898 -5.80276e-21)
(1.13623 -0.0320215 -1.09627e-21)
(1 -1.34005e-06 -7.37032e-26)
(0.985495 -0.000370085 -9.6308e-22)
(0.984237 -0.0236082 5.94148e-22)
(1.00015 -0.00870469 9.08413e-23)
(1 -1.75437e-06 1.52218e-25)
(1.10098 -0.108449 -1.12247e-21)
(1.25334 0.0958583 -1.83119e-21)
(0.968013 -0.00246943 -1.42109e-21)
(0.999439 -3.01453e-05 -5.00257e-23)
(1.14853 -0.00300744 -1.51409e-21)
(1.00425 -0.00587273 3.90616e-23)
(1.00261 -0.0124626 3.66008e-24)
(1.00014 -1.02212e-05 6.64568e-24)
(0.998686 -0.00161016 -1.20854e-22)
(1.04044 -0.035386 -1.14396e-22)
(0.966869 -0.0475456 1.63234e-21)
(0.99606 -0.0305226 -3.16769e-22)
(0.995112 -0.0206463 -1.30573e-21)
(1.03772 -0.0359656 -6.50527e-22)
(1.01165 -0.00793736 -5.99232e-22)
(0.999909 -7.71231e-06 -1.72599e-23)
(1.21237 0.168967 7.29336e-21)
(0.929677 -0.0430668 2.30591e-22)
(1.00185 -0.00417597 -5.12713e-23)
(1.04355 -0.0791455 -3.8489e-22)
(1.04896 0.00872197 -1.1257e-20)
(1.0285 0.0544302 -1.4273e-20)
(0.98042 -0.0166412 5.52674e-22)
(1.01863 -0.00470919 9.94964e-22)
(0.97949 -0.0209351 7.54912e-23)
(0.998128 -0.0021391 -2.76387e-22)
(1.20125 -0.168453 2.49615e-21)
(1.00059 -0.00117561 2.05503e-23)
(1.0002 -0.00658373 1.27326e-22)
(0.980676 -0.012139 1.71123e-21)
(0.97006 -0.0220997 7.41572e-22)
(0.998082 -0.00230563 3.03498e-22)
(1.10235 0.232169 -4.97627e-21)
(1.03114 0.0657593 1.08593e-21)
(1.22316 -0.132062 1.07068e-21)
(1.09951 -0.0578123 -1.35689e-22)
(1.00001 -1.19531e-05 1.22183e-25)
(0.995109 -0.011792 1.3077e-22)
(1.07727 -0.0293347 5.46372e-22)
(0.992854 -0.000281429 1.50674e-22)
(0.996913 -0.0239495 -6.19173e-22)
(0.997095 -0.00189883 3.48081e-23)
(1.00186 -0.00323328 -4.93674e-23)
(0.99662 -0.00406209 -2.93304e-22)
(0.996313 -0.00101772 -9.2774e-23)
(0.99801 -0.0107807 -9.81315e-23)
(1.00029 -0.0064488 -6.80691e-23)
(1.08938 -0.162401 5.03304e-22)
(1.00003 -2.18458e-05 -5.30912e-25)
(1.0113 -0.00748951 -1.01645e-22)
(0.999992 3.04528e-07 -7.58249e-26)
(0.914621 -0.0186289 -2.66824e-21)
(1.00022 -0.000209454 4.74591e-24)
(1.03533 0.172003 1.27893e-20)
(1.17035 0.162201 -3.22914e-21)
(1.04345 0.0401559 -5.00148e-21)
(1.09804 -0.0569802 7.73407e-23)
(1.03787 0.046213 -5.01824e-22)
(1.031 0.000582116 5.34978e-21)
(0.998284 -0.0037442 3.71664e-23)
(1.00171 -0.00168212 -6.42073e-23)
(0.999788 -0.000673436 4.30528e-25)
(0.995293 -0.00242652 2.05145e-22)
(0.971551 -0.01562 6.59116e-22)
(0.993864 -0.0080724 -1.6003e-22)
(0.994912 -0.0118471 3.47536e-22)
(1.03504 -0.0460058 -1.12771e-24)
(1.00022 -0.000203378 -5.68431e-24)
(0.999852 -8.89201e-05 -5.20593e-24)
(1.00012 -0.000116748 -2.59607e-24)
(0.999207 -0.00247909 1.01587e-22)
(1.02796 -0.0007749 2.30856e-21)
(1.03156 -0.0455163 5.56065e-23)
(0.980415 -0.0120114 -1.82532e-21)
(1.00002 -0.000759388 2.92583e-23)
(1.11056 -0.101715 2.19481e-21)
(1.00085 -0.00239074 4.8053e-23)
(0.999869 -8.80177e-05 -2.13223e-23)
(1.02886 0.0533192 2.03472e-20)
(1.03399 -0.00392249 4.22041e-22)
(1.00276 0.0544139 3.42329e-20)
(1.00003 -2.88264e-05 5.38938e-25)
(1.00005 -0.000572797 0)
(1.0018 -0.00183104 9.71687e-23)
(0.989639 -0.0370063 4.65143e-22)
(0.994983 -0.00682514 -1.73136e-22)
(1.05109 -0.11378 -9.44466e-22)
(0.967873 -0.00109238 9.50278e-22)
(1.08053 0.0340979 9.01438e-21)
(0.991521 -0.000215296 1.33652e-21)
(1.10568 0.230198 -2.59833e-21)
(1.00088 -0.00235491 -3.51277e-23)
(1.0018 -0.00411629 6.00272e-23)
(1.00319 0.0760382 -9.0583e-21)
(1.13449 0.148558 -4.01143e-21)
(1.06274 -0.0918385 -2.0655e-21)
(1.00264 -0.00230213 1.88422e-23)
(0.916572 -0.022811 3.84845e-21)
(0.991438 -0.000271073 -7.66581e-22)
(1.00003 -3.08983e-05 -2.39815e-25)
(1.0113 -0.00771116 1.20373e-22)
(0.93088 -0.0442961 -5.82356e-22)
(0.985163 -0.0374214 -7.89642e-23)
(0.952693 -0.00409522 7.32074e-22)
(1.03545 -0.0469602 6.29619e-23)
(1.10391 0.002342 7.31383e-21)
(0.999992 1.07432e-06 -1.8006e-25)
(1.0027 -0.00225782 -3.81617e-23)
(1.02262 -0.00794368 1.37699e-21)
(1.0442 -0.0210133 -1.76897e-21)
(1.02712 0.193789 -6.49245e-21)
(1 -5.18437e-07 -2.04407e-27)
(0.999957 -3.19084e-05 2.79619e-25)
(1.00178 -0.000161174 -1.80232e-22)
(0.985232 -0.0369147 -9.47149e-22)
(0.999368 -0.000972291 7.56002e-23)
(0.999887 -0.000522237 3.96682e-23)
(1.11772 -0.028193 -1.4586e-21)
(0.848129 0.0268209 -2.07598e-20)
(1.15611 -0.0324843 -7.26203e-23)
(1.00504 0.0616009 -8.64878e-21)
(0.97938 -0.0038147 4.10123e-22)
(0.997244 0.0277342 5.07335e-21)
(1.02891 0.0112485 6.41547e-21)
(0.996676 -0.00410859 1.16846e-22)
(1.09859 -0.109441 1.59049e-21)
(0.92952 -0.0264288 3.3291e-21)
(0.996163 -0.0210292 6.22143e-22)
(1.00086 -0.0101289 5.27573e-23)
(0.996784 -0.00752128 2.22774e-22)
(0.998539 -0.00106403 6.49848e-23)
(0.998602 0.0737996 -4.01648e-20)
(0.983776 -0.034671 -1.39935e-21)
(1.05496 0.162587 6.31213e-21)
(1.02769 -0.0534263 2.62551e-22)
(1.04361 0.0391812 2.78384e-21)
(0.98029 -0.0100485 6.91086e-22)
(0.987534 -0.0132135 -1.26784e-21)
(1.20961 -0.051965 1.45451e-22)
(1.02952 0.0172586 6.73013e-21)
(0.997324 -0.00312604 -2.92082e-22)
(1.00005 -0.00282743 -8.6056e-23)
(1 -0.00293738 7.39826e-23)
(0.999997 3.06641e-08 -4.05659e-24)
(1.02963 -0.0460748 5.6883e-23)
(0.968705 -0.0699475 -1.64694e-21)
(1.00022 -0.000493286 -1.96591e-24)
(1.07122 -0.0312881 -1.21869e-22)
(0.999689 -0.000786708 1.19287e-23)
(0.999687 -0.000803416 -8.36484e-23)
(1.00208 -0.000266484 -1.45429e-23)
(1.02867 -0.0527261 -1.45156e-22)
(1.00067 -5.8539e-05 -2.56885e-23)
(1.00136 -0.00817649 -7.8763e-25)
(0.97638 -0.00443093 8.89231e-22)
(0.996022 -0.00590091 1.45589e-22)
(0.995302 -0.00250555 -7.12218e-22)
(0.988068 0.0966317 -5.42088e-20)
(1.12488 -0.0652741 -1.01639e-21)
(1.01016 -0.0146238 4.91146e-22)
(0.990099 -0.0161574 6.97639e-22)
(0.971512 -0.0431734 -2.151e-22)
(1.00027 -0.00635177 3.76119e-23)
(1.00002 -2.68909e-05 8.11407e-25)
(0.999999 -2.14885e-06 8.96585e-26)
(0.958045 -0.00850131 1.43291e-22)
(0.92986 -0.0258231 -3.3965e-21)
(0.970882 -0.0300335 -5.06844e-23)
(1.00001 -2.57482e-05 2.19553e-24)
(0.985035 -0.00652431 1.05514e-21)
(1.07261 -0.00101679 7.94912e-21)
(1.25853 0.0202494 4.8665e-23)
(1.13574 -0.0339355 -7.5381e-22)
(0.999974 3.01872e-07 -3.75517e-24)
(0.971726 -0.0153772 2.19263e-21)
(1.00652 -0.0392248 6.39226e-22)
(1.00009 -1.16847e-05 -2.22727e-25)
(0.999927 -0.000257507 9.0262e-24)
(0.968057 -0.000814253 -1.74597e-22)
(1.00173 -0.000158024 -5.89175e-23)
(1.00064 -0.00531824 -4.8749e-24)
(1.02934 -0.104835 -4.36518e-22)
(1.0004 -4.04234e-05 -1.66641e-23)
(0.950507 -0.0576135 2.37937e-21)
(0.976244 -0.00462586 -8.99817e-22)
(0.979457 -0.00397679 7.32268e-22)
(0.981628 -0.0100217 2.57011e-22)
(1.00155 -0.00821019 -2.5664e-24)
(0.961157 -0.0315388 2.5959e-21)
(1.00026 -0.000461083 5.75815e-24)
(1.00001 -1.03671e-05 6.52878e-26)
(1.00505 -0.0051074 1.40314e-22)
(1.1098 0.162951 -4.42353e-21)
(0.951974 0.057386 4.06746e-20)
(1.01458 0.048879 7.24358e-21)
(1.03121 -0.0461347 -7.62198e-24)
(0.989355 -0.0137541 -2.52833e-22)
(1.01296 0.0582037 3.88861e-20)
(1.01397 -0.0092304 -2.33994e-21)
(1.00022 -0.000413263 -2.95485e-24)
(1.02496 -0.00129715 -1.79202e-21)
(0.985855 -0.012901 2.87631e-22)
(1.14879 -0.0118263 -1.57006e-21)
(0.99682 -0.00740866 2.80277e-22)
(1.03025 -0.000695777 -5.75205e-21)
(1.00099 -0.000108219 5.23195e-23)
(1.01501 0.0478284 4.90507e-21)
(1.00052 -5.02914e-05 -2.85762e-23)
(0.994911 -0.00734327 9.66892e-23)
(0.980545 -0.0101299 -1.89226e-22)
(1.02014 0.0687552 4.96085e-21)
(1.00025 -1.0104e-05 -2.11635e-23)
(0.98617 -0.0387789 1.27746e-21)
(1.05064 -0.112192 1.7796e-21)
(1.08238 0.0340985 -7.11217e-21)
(0.996708 -0.046021 -8.38732e-22)
(0.994822 -0.00676017 2.49086e-22)
(1.16495 -0.0698566 4.80096e-22)
(1.00005 -1.82299e-06 -2.77513e-25)
(1.2226 -0.129555 -4.43378e-22)
(0.995834 -0.00602384 1.55478e-22)
(1.01842 -0.0105034 -1.69256e-21)
(0.990072 -0.0370533 4.31221e-22)
(1.00272 -0.000217327 -2.34703e-22)
(1.24987 0.0939034 -5.22626e-21)
(1.03102 0.0669986 -1.10937e-20)
(0.944155 0.10565 1.88019e-20)
(1.03696 0.0458231 1.49589e-21)
(1.1025 0.0849705 5.0662e-21)
(1.15135 -0.0373023 -3.9082e-22)
(1.23358 0.169954 -7.96169e-23)
(1.01419 -0.00914094 2.59921e-21)
(1.06472 0.0935064 5.9692e-21)
(1.00289 0.0497318 -2.65473e-20)
(1.00056 -0.00536973 -2.59576e-24)
(0.998658 -0.00344093 -1.0437e-22)
(0.960182 0.0515885 -4.39179e-20)
(1.00002 -1.7605e-05 2.34325e-25)
(1.24119 -0.101563 1.08801e-21)
(1.25978 0.0284637 -1.23134e-22)
(0.981887 -0.0168332 1.15769e-21)
(1.00104 -0.0021854 -5.4141e-24)
(1.04363 -0.0205613 -6.05689e-22)
(0.998593 -0.0015991 -1.08472e-22)
(1.00175 -0.00170714 -2.0103e-24)
(0.991964 0.125654 -9.54837e-21)
(0.880577 0.110618 1.6696e-20)
(0.999879 -7.84719e-06 -1.07426e-24)
(1.00027 -0.000461339 -6.01682e-24)
(1.08353 -0.0386266 -3.28023e-22)
(1.00013 -0.00269004 -3.87693e-24)
(1.25427 -0.0284657 1.0742e-21)
(1.13094 0.146339 -6.68333e-21)
(1.06164 0.0335732 1.48516e-21)
(0.999931 -0.000259028 -2.67351e-23)
(0.993706 -0.0643345 3.44769e-22)
(0.994984 -0.0538142 1.89145e-21)
(1.00056 -4.97799e-05 1.88259e-23)
(1.0174 -0.033916 1.03207e-22)
(1.04671 0.00166407 2.22522e-21)
(0.890224 0.106478 -1.07021e-20)
(1.00009 -0.00279563 2.22189e-23)
(1 -7.46436e-07 2.60704e-26)
(1.06456 0.0919238 4.4089e-21)
(1.01699 -0.0335646 1.54883e-22)
(0.999876 -9.15215e-06 -2.44049e-23)
(1.03515 -0.0152568 -4.13581e-22)
(1.00698 -0.0124376 -8.38165e-23)
(0.996699 -0.00445141 -2.67522e-23)
(0.997668 -8.24552e-05 8.15551e-23)
(1.24592 -0.0812874 6.79772e-22)
(0.983236 -0.00603869 4.25485e-22)
(0.998614 -0.00157166 7.58066e-24)
(0.970453 -0.0221254 1.58527e-23)
(1.00028 -0.000445536 1.01313e-23)
(0.999878 -9.3071e-05 1.50376e-23)
(0.999919 -0.0123705 2.45474e-22)
(1.16388 -0.0131139 -1.70736e-22)
(0.999778 -7.20552e-05 1.10652e-23)
(0.976413 -0.00494857 -1.07822e-21)
(1.00076 -0.00103898 4.20744e-24)
(0.997062 -0.0453918 -3.64771e-22)
(1.02001 0.0698161 -6.47912e-21)
(0.99988 -0.000487068 -2.17321e-23)
(0.740521 0.0439654 -1.29051e-20)
(1.07823 -0.0692636 3.56089e-22)
(0.994892 0.0363377 5.6502e-21)
(1.16123 -0.013831 6.20492e-22)
(0.999452 -0.000312444 2.25002e-23)
(0.99997 -7.8614e-05 -4.35776e-24)
(0.999556 -0.000344148 -4.70729e-23)
(0.995057 -0.00677105 1.26499e-23)
(1.02473 0.00257964 0)
(0.99948 -0.0102566 1.72745e-22)
(0.985354 -0.000466137 2.2917e-22)
(0.994189 0.147057 -3.25243e-20)
(0.931696 -0.0290317 -2.99927e-21)
(0.931056 -0.0287656 2.5895e-21)
(1.04072 -0.0343615 4.95743e-22)
(1.07032 -0.0349627 1.90232e-21)
(0.98664 0.108302 3.35402e-20)
(0.999474 -0.000367032 2.28197e-23)
(0.986613 -0.0388516 2.6293e-22)
(0.981526 -0.0167988 -1.10703e-21)
(1.0002 -0.000206695 5.73281e-24)
(1.02249 -0.0438387 -6.86345e-23)
(1.00077 -0.000998879 -2.09247e-24)
(1.03027 -0.0464425 -1.15944e-23)
(0.977241 -0.0788999 3.30452e-22)
(0.826027 0.14281 -2.14598e-20)
(0.94819 -0.0570956 -2.2636e-21)
(0.997826 -0.00255085 4.42218e-23)
(0.979897 -0.0161629 -1.9606e-21)
(1.00629 -0.0229901 7.94208e-24)
(1.11042 -0.012445 -3.70494e-21)
(1.03134 0.000367047 -9.06739e-22)
(1.01125 -0.0430677 7.97165e-23)
(1.00001 2.38379e-07 4.01261e-25)
(1.00512 0.061345 1.08484e-20)
(0.986446 -0.00723081 -1.16862e-22)
(0.913661 -0.0136211 1.87312e-21)
(0.999014 -0.0096778 1.15218e-22)
(1.03459 -0.03539 -1.96069e-21)
(0.980716 -0.0509741 2.04705e-21)
(1.00511 -0.00500686 6.15668e-23)
(1.2369 -0.0117402 6.93553e-22)
(0.999101 -3.66191e-05 1.37491e-22)
(1.02403 0.123708 1.74097e-20)
(0.999698 -0.0181283 -2.35952e-22)
(1.0491 0.00329737 -1.10888e-21)
(0.954217 -0.00839905 1.70272e-21)
(1.0212 -0.00351232 2.79015e-22)
(0.999994 -1.4385e-05 -1.30074e-24)
(0.978152 -0.0438303 -1.26712e-22)
(0.976287 -0.00513443 1.0174e-21)
(0.984728 -0.0359473 1.28502e-21)
(1.0351 -0.0158141 -2.99097e-22)
(1.02804 -0.106075 -4.51847e-22)
(1.00029 -0.00044547 -1.19365e-23)
(1.04659 -0.188414 -9.29655e-22)
(0.998508 -0.00109078 -2.63844e-22)
(0.999981 -7.12926e-05 -2.21703e-24)
(0.999504 -0.0100847 -1.91449e-22)
(1.00024 -0.00047714 1.6738e-24)
(0.885748 0.105383 1.45104e-20)
(1.00021 -0.00020307 -5.3624e-24)
(1.03562 0.170159 -3.91435e-21)
(0.979505 -0.0171093 -3.08916e-22)
(1.02044 -0.00284769 -5.24373e-22)
(1.00297 -0.00231426 -2.08688e-22)
(1.0884 0.0203926 9.14157e-21)
(1.00413 -0.00594365 -2.4785e-22)
(1.02286 0.0274981 -4.86151e-21)
(0.999999 -1.87008e-06 7.05981e-26)
(1.02596 -0.0600708 -4.62235e-22)
(0.998751 -0.00498552 9.50713e-23)
(1.00178 -0.00399161 7.59734e-24)
(0.973445 -0.0180152 -4.69959e-22)
(1.00001 -1.34175e-05 -5.10265e-25)
(1.20386 -0.00508277 -3.60502e-22)
(0.923 0.235286 4.84769e-21)
(1.2584 0.0295003 3.46753e-22)
(1.00023 -0.00040312 5.84595e-24)
(1.14412 -0.0965448 -8.10159e-22)
(1.02507 0.00289251 -1.54256e-21)
(0.982743 0.136081 2.34886e-20)
(1.00011 -0.00455733 -1.48024e-23)
(0.999743 -3.20077e-06 -8.70588e-24)
(1.08178 -0.0380982 -4.33545e-22)
(1.00016 -0.000148697 -3.12727e-24)
(0.946605 0.0500404 -9.11471e-21)
(1.00686 -0.0388793 3.92674e-23)
(1.2603 0.0998121 -2.9403e-23)
(1.09634 0.0526006 -9.47229e-21)
(1.00015 -0.000135834 2.38506e-24)
(0.980189 -0.139258 -1.40537e-21)
(1.01116 0.0373128 -1.07841e-20)
(0.999879 -8.87614e-05 7.8905e-25)
(1.08173 -0.0264831 3.61054e-21)
(0.996273 0.0137042 2.71888e-20)
(0.997639 -0.000104579 6.59613e-23)
(1.00258 -0.0129178 3.18681e-24)
(1.00037 -5.43915e-05 1.19823e-23)
(1.00665 -0.013648 -2.01451e-22)
(0.980626 -0.0104555 8.68076e-23)
(0.993469 -0.000111612 9.30821e-23)
(1.06668 0.163671 -8.43771e-21)
(0.996109 -0.0206046 4.19815e-22)
(0.815642 0.204997 3.79848e-20)
(0.691333 0.0202208 3.55086e-20)
(0.997051 -9.84688e-05 -1.888e-22)
(1.00005 -0.000440884 1.74571e-24)
(1.05401 0.160092 -3.57721e-21)
(0.996636 -0.00422599 1.05035e-22)
(0.982876 -0.00412583 2.29807e-22)
(1.00025 -0.000477279 -1.01619e-24)
(1.06448 0.0377678 3.41801e-22)
(0.954604 -0.00839545 -2.43601e-21)
(0.845464 0.111109 2.66719e-20)
(0.998813 -0.00442688 -1.37962e-22)
(0.999958 -0.00125996 1.75908e-23)
(0.986484 -0.00740807 4.01567e-22)
(1.25608 0.0099761 5.72411e-22)
(0.994409 -0.0643681 7.71461e-23)
(1.12154 -0.0246853 -4.75507e-22)
(1.05152 -0.0339515 -1.25023e-21)
(1.03062 0.0111414 -5.35098e-21)
(0.999808 -0.00013261 -7.86601e-24)
(1.21371 -0.0344947 -4.15523e-22)
(1.00001 -2.45673e-05 1.56225e-24)
(1.00162 -0.00139961 1.20151e-22)
(0.999992 6.23648e-07 3.87034e-25)
(1.21828 -0.128763 -2.55612e-21)
(1.06473 -0.0920891 1.7086e-21)
(1.02762 0.0520493 9.04068e-22)
(0.999998 4.8976e-07 4.08705e-25)
(0.945714 0.102333 -5.0119e-20)
(0.999581 -0.000136794 2.65271e-23)
(1.02291 -0.0433945 -7.10741e-23)
(0.999359 -0.000354042 7.58972e-23)
(0.929871 -0.0439673 1.15426e-22)
(0.990325 -0.0164118 -1.10054e-21)
(1.10641 0.0152783 4.00722e-21)
(0.999884 -1.03579e-05 3.26618e-23)
(1.02078 -0.0700831 -9.13368e-22)
(1.0182 -0.0336544 3.90158e-23)
(0.989336 -0.0148303 -9.46897e-22)
(0.999978 -7.72532e-05 9.95411e-24)
(0.999932 -0.00124978 2.35673e-23)
(0.999791 -1.17546e-05 3.87304e-24)
(0.97326 -0.0521173 -1.44322e-21)
(1.00173 -0.00332786 4.59127e-23)
(0.998817 -0.000690779 -6.63436e-24)
(0.967565 -0.00026256 1.44957e-21)
(1.00009 -0.000223224 7.02442e-27)
(1.0003 -0.000432456 1.03467e-23)
(1.00595 -0.0202792 4.66263e-24)
(0.999461 -0.000314846 1.33133e-23)
(1.01389 0.0578013 -1.71731e-20)
(1.05872 -0.00526718 6.80722e-21)
(1.25491 -0.00949712 6.77258e-23)
(0.973939 -0.000784973 -1.87721e-22)
(1.0166 -0.0876511 1.25272e-21)
(0.999994 -1.11956e-06 -1.98719e-25)
(1.16769 -0.070087 -5.86111e-22)
(0.976328 -0.0787833 -1.35573e-21)
(1.00034 -5.38443e-05 1.75648e-23)
(0.971227 -0.0305403 -6.43293e-22)
(0.998623 -0.0046255 -1.04357e-22)
(0.96414 -0.0218282 7.52717e-22)
(1.16396 -0.135983 -7.70149e-22)
(1.00051 -5.05175e-05 -2.0937e-23)
(1.02939 -0.0530869 4.22853e-22)
(0.999981 -7.35919e-05 9.16218e-24)
(0.994765 -0.00636282 -1.6013e-22)
(0.999605 -0.000141004 2.46755e-24)
(1.05914 0.0828549 -7.97337e-22)
(0.992027 -0.00196085 -4.53415e-22)
(1.00014 -0.000265737 -2.22511e-25)
(0.999837 -9.04304e-05 1.24342e-23)
(1.02432 -0.0111963 1.68952e-21)
(0.957864 -0.044123 2.23224e-22)
(0.996687 -0.00427068 -1.67232e-22)
(0.999988 -0.00130576 4.44211e-23)
(1.06567 0.166195 -1.02263e-21)
(1.00622 0.0951136 7.07343e-21)
(1.00183 -0.00394758 2.54192e-23)
(1.22424 0.0767793 -8.24498e-23)
(1.12725 -0.111929 2.3379e-21)
(0.933637 -0.0474849 9.62366e-22)
(1.00005 -0.000434659 -6.96358e-24)
(0.999997 -7.24544e-07 6.76869e-25)
(1.10986 0.159921 5.64707e-21)
(0.964663 -0.0186146 2.29639e-22)
(1.00009 -0.000222587 4.71461e-25)
(1.20552 0.0373258 2.29772e-21)
(0.999042 -0.000547753 8.89032e-23)
(0.999996 -2.65021e-06 2.11192e-24)
(1.08299 -0.00580313 6.50211e-22)
(0.987668 -0.10008 -4.9566e-22)
(0.948915 -0.0569021 3.01507e-21)
(0.926639 -0.0431245 4.18113e-22)
(0.988583 -0.0345771 -9.4154e-22)
(0.99312 -0.000235662 1.61832e-22)
(0.98306 -0.0042985 -1.83932e-21)
(1.00099 -0.0098826 6.34345e-23)
(1.08272 0.0580765 -4.79418e-21)
(0.999778 -0.000681599 -3.5054e-23)
(0.990503 -0.0525455 3.83866e-22)
(1.0916 -0.0108451 4.72177e-22)
(0.999868 -0.000643993 -2.25652e-23)
(1.12463 -0.110838 -3.05964e-21)
(1.01968 -0.04361 -2.952e-22)