/*--------------------------------*- C++ -*----------------------------------*\
  =========                 |
  \\      /  F ield         | OpenFOAM: The Open Source CFD Toolbox
   \\    /   O peration     | Website:  https://openfoam.org
    \\  /    A nd           | Version:  7
     \\/     M anipulation  |
\*---------------------------------------------------------------------------*/
FoamFile
{
    version     2.0;
    format      ascii;
    class       surfaceScalarField;
    location    "16";
    object      phi;
}
// * * * * * * * * * * * * * * * * * * * * * * * * * * * * * * * * * * * * * //

dimensions      [0 3 -1 0 0 0 0];

internalField   nonuniform List<scalar> 
11265
(
147.339
-526.289
378.95
-753.232
1.93329
751.298
423.985
-373.66
-50.3257
650.504
267.018
-917.523
1510.98
-1069.45
-441.532
1216.29
-1527.13
310.841
-38.602
471.551
-432.949
168.784
-842.473
673.69
962.11
-1610.83
648.715
-1762.86
1669.02
93.8417
-542.947
1759.23
-1140.4
1934.24
-793.846
608.371
181.201
-789.572
-25.1362
-1313.28
1338.41
220.406
-1983.27
1023.94
-381.768
-642.172
-200.002
347.342
485.939
190.658
-676.596
1155.63
-1312.99
157.357
-302.971
375.519
-72.5474
998.375
-1312.99
314.612
1221.53
799.18
-2020.71
72.9582
-1638.74
1565.78
-483.152
-1167.42
1650.57
477.083
182.046
-659.129
-191.77
-334.519
498.15
1012.83
1645.94
-1804.1
158.163
-93.0835
-1690.8
1783.89
-1558.64
650.934
907.707
-306.785
653.757
-346.973
-191.41
-126.471
317.881
1283.33
-1210.37
355.2
-1407.44
1052.24
-1754.32
1754.32
101.564
1530.83
-1632.39
-1078.12
-480.52
650.273
-688.875
-384.026
941.609
-557.582
1331.92
-1317.31
-14.6163
-1100.48
716.454
627.705
396.235
-378.06
-44.5024
422.562
-462.455
753.42
-290.966
-1618.48
1618.48
1253.58
-1437.89
184.308
-488.521
1710.05
1255.77
-314.161
1660.75
-1161.25
-499.495
83.3928
-386.364
2065.02
-1134.77
-930.249
1811.79
-165.855
456.21
156.177
-612.387
-455.482
968.574
-513.093
-1169.71
1271.27
-568.527
971.119
-402.592
401.67
753.964
661.521
-492.737
-437.922
595.901
-157.979
1190.69
-835.494
2308.19
-1080.66
-1227.53
1163.53
-2008.33
844.792
-1601.08
1575.95
440.719
-1581.11
-759.118
1250.75
-491.635
-673.017
366.232
1661.47
-699.358
-1106.93
-870.893
1977.82
705.182
-354.734
-350.447
689.702
566.068
-258.209
1511.79
117.408
-320.234
202.825
-284.902
761.985
-335.109
566.204
-231.096
-324.599
810.538
-318.323
-150.145
468.467
320.544
103.442
1456.21
-457.833
-978.504
470.785
507.72
280.97
89.0885
-370.059
949.831
-341.46
-1704.15
635.071
1069.08
11.6288
-853.668
842.039
-281.63
596.751
-315.121
157.009
-1093.88
936.87
1051.61
-1067.17
15.5619
373.052
518.969
-892.02
-245.503
701.713
-1103.79
-482.117
1585.91
-678.239
951.134
-272.896
1356.67
-1449.76
-610.359
233.916
376.443
-470.193
-1011.56
1481.76
-539.361
-793.084
1332.44
576.339
-996.517
420.179
-265.914
-317.284
583.198
408.308
-290.9
-1035.1
579.614
955.433
-798.424
-110.331
944.007
-833.676
-211.293
420.143
-208.85
-639.43
-339.074
-386.743
963.082
1856.37
-1856.37
-489.924
-120.435
-955.981
1567.55
-611.573
463.404
-897.583
434.18
-923.959
355.432
-941.91
-1058.08
-1486.64
343.31
1143.33
-279.314
929.819
-304.73
606.496
-301.765
-1941.9
999.994
-1137.99
-348.646
555.607
-1511.59
1728.52
-1725.6
-2.91696
198.747
-582.477
383.73
-1464.45
979.78
484.666
289.552
211.886
-501.438
310.843
-645.952
243.42
-420.018
176.597
2018.86
-857.431
-1161.43
-536.721
158.661
617.257
834.164
-1451.42
-184.527
427.947
431.24
876.881
-1308.12
-908.698
394.204
514.494
-1045.52
1447.19
-1068.75
309.635
752.774
-99.0164
522.968
-317.76
-205.208
1003.26
-532.476
593.331
-1403.91
810.579
-1342.33
238.537
-547.885
266.255
-1198.79
919.478
1939.95
-997.007
-942.944
276.802
1579.57
-2093.75
894.504
1199.24
366.866
-31.0175
-335.848
-224.055
483.056
-259.001
-114.057
-375.206
489.264
-468.112
149.789
342.15
-131.182
594.586
411.215
384.748
-795.964
-2041.98
1119.34
922.643
461.216
-533.248
72.032
222.727
-364.591
141.864
999.655
1019.21
1783.57
-252.744
696.854
-462.938
796.934
-1389.9
592.968
330.394
374.787
1052.01
-1040.38
-492.28
-254.652
746.932
479.795
-137.733
-342.062
797.623
-616.422
545.524
-733.168
187.644
503.331
1157.42
-1239.97
700.605
1041.98
-1525.13
-3.13231
-1439.43
1442.56
325.303
824.951
-1150.25
623.306
269.969
-893.275
-2272.68
1154.61
1118.07
-1114.51
-1158.17
176.517
369.007
958.672
-633.369
879.197
-898.926
19.7291
-2099.38
992.453
-226.447
-190.257
416.703
-41.7383
1770.26
-819.815
66.5834
-1027.57
-1066.17
-229.972
452.699
-647.378
157.454
-265.486
-454.059
719.545
1104.03
-1574.23
783.036
-1374.5
591.461
706.866
-439.848
1947.87
-1444.54
-378.287
-1376.03
62.68
408.871
-521.547
523.48
8.0436
-561.266
553.222
570.254
-280.703
-605.624
280.304
325.32
777.495
-366.28
33.8566
333.009
1188.47
-1191.61
180.236
228.073
424.993
-690.479
619.722
-1006.47
-2026.71
2026.71
-261.88
-465.113
726.994
699.243
405.877
-1105.12
579.649
173.125
397.13
380.365
-2199.75
1328.86
-926.692
-678.866
1605.56
-488.197
-710.595
-279.009
579.11
-300.101
840.542
-215.624
-624.918
-430.931
629.678
367.633
-672.363
-346.056
-117.982
464.038
-1329.62
-474.477
639.722
-1127.92
-374.15
-1244.33
844.329
1463.86
303.302
-911.88
608.578
966.684
-338.979
1391.44
-798.107
445.719
-265.483
-329.049
-885.491
585.077
300.414
-348.261
-537.229
305.416
-419.473
-187.771
-158.498
346.269
-392.763
1092.01
435.259
-244.601
-395.82
1349.39
-165.906
-1183.48
-457.315
262.644
194.671
241.888
273.481
-515.369
-2.18547
-730.983
592.095
-1729.01
1136.91
1481.71
-864.449
-1053.69
-410.754
-1057.4
573.394
484.005
1383.8
-404.018
929.332
-1411.45
-174.324
-182.08
356.404
-469.422
581.16
-1626.68
427.95
903.975
278.737
341.935
-620.671
568.066
1186.25
1104.3
-715.233
-389.064
407.965
-220.523
-187.442
-1419.46
445.186
738.377
-1183.56
1473.39
-544.055
-507.321
947.904
-440.582
426.147
1186.16
-1612.31
47.3675
-725.606
-144.277
425.247
194.762
-386.172
540.407
462.854
-592.377
39.578
552.799
1024.54
-1307.67
283.133
661.036
-263.907
468.266
-1447.25
978.987
395.621
1686.35
-522.813
888.568
1051.38
-662.056
-1684.57
757.874
561.136
395.672
-956.808
453.953
78.7868
1749.95
-1828.74
1443.74
-379.491
-1064.25
1699.12
-1740.86
-367.698
-511.596
713.6
-202.004
-502.593
185.805
293.99
-373.212
-1226
214.437
-764.605
-639.305
-630.944
995.705
-364.761
-653.361
643.355
10.0067
655.037
-923.688
268.652
-706.046
349.101
356.944
-648.693
-714.32
360.044
354.276
-932.323
1400.59
-413.348
884.162
-470.814
-2205.31
5.55836
182.338
-537.555
355.217
139.227
1210.16
-62.2876
-585.09
160.385
-598.307
1487.19
-704.154
371.859
-463.358
91.4995
-565.45
565.45
1223.04
395.44
1777.91
-1228.93
589.212
639.714
849.775
-52.1513
1291.51
773.509
-540.112
1337.05
294.781
301.97
275.731
-787.327
208.238
-670.693
231.755
-445.276
213.521
-256.968
594.919
-337.951
114
-370.967
-591.934
-564.597
1156.53
-399.042
519.345
-120.303
-1192.16
2032.04
-839.886
1289.91
-331.237
-402.338
136.424
-1984.94
817.523
1536.12
-854.342
-681.78
1986.96
-877.43
-1109.53
713.596
576.313
-240.943
472.698
-687.743
1156.64
-468.894
-770.097
1201.34
551.58
924.668
-1725
800.337
-577.252
-44.6447
621.896
263.616
259.351
418.905
-89.3141
-329.591
896.816
-83.4813
-813.335
905.691
-561.211
-344.479
1576.21
-472.171
888.696
-1626.14
737.443
1068.48
879.392
749.878
-444.548
-305.331
-1059.02
-258.29
559.302
578.701
-1138
-499.329
482.561
16.7686
578.33
-346.625
-231.705
-982.016
568.668
595.816
885.891
-441.832
1096.87
1409.27
-776.83
-632.436
397.468
-925.313
527.845
-1022.41
382.979
553.66
-1060.98
412.425
-490.381
77.9569
441.96
311.46
-516.734
-48.7158
-794.399
-877.91
1672.31
196.03
211.935
-235.963
412.48
-3.70198
-555.951
559.653
494.175
864.645
-1358.82
-500.001
312.23
985.774
-88.9579
836.345
-1064.92
228.578
405.888
846.361
-1386.47
-444.036
828.785
1977.51
-1283.92
-693.583
270.029
609.167
255.874
795.737
82.4839
-971.303
888.82
1673.74
-1089.05
-584.691
-137.846
1887.79
-1866.05
-160.656
483.445
-621.63
138.185
-1014.54
526.503
488.036
-1730.48
538.319
-955.855
845.523
392.309
203.592
575.83
-272.528
-422.714
711.493
255.191
48.7204
720.155
-768.876
-1142.57
-885.491
2028.06
-550.509
1103.45
-552.944
-461.329
-334.992
108.545
-1654.42
860.021
-856.051
-611.642
1467.69
-331.612
-295.216
626.827
360.347
-667.651
307.304
236.407
-602.686
300.538
206.517
-507.055
352.697
-631.705
640.748
-280.401
315.185
-465.33
682.454
442.208
-200.32
-410.039
-304.281
1219.2
-1.40151
-1217.79
1039.85
-420.127
560.379
410.74
-1782.37
869.825
912.543
491.611
545.958
-1037.57
-535.273
203.662
-262.859
1180.8
-917.937
-1590.89
1212.6
504.678
-1096.61
386.542
-14.6828
457.65
289.102
-746.752
372.994
-618.497
-31.1086
755.682
-724.573
-525.964
795.933
384.144
322.446
527.329
654.109
94.6568
-436.232
341.576
1058.89
-645.171
-413.717
494.016
-1664.27
1170.26
-1140.42
1753.24
-612.816
1715.82
-1123.73
-335.007
615.311
-1189.36
1271.84
425.171
-795.66
1601.17
-805.507
-239.46
-217.855
-904.499
1469.86
1812.24
-611.264
-1200.97
-404.99
672.77
-1303.71
-124.745
-63.0865
481.992
-685.308
-354.176
-1236.71
-222.974
459.381
903.624
-559.193
183.986
-1674.58
-71.201
1745.78
-1066.69
516.179
569.321
-1181.28
611.959
901.091
911.145
630.749
620.004
692.98
254.924
-1148.91
461.165
-400.566
408.61
621.601
-515.331
248.683
-732.404
483.721
711.378
-380.983
-308.866
182.395
-582.849
236.212
346.638
-887.935
-738.205
1087.67
-2145.75
399.677
-684.578
-342.923
-724.249
831.603
577.663
-345.185
300.683
398.909
238.855
634.956
-873.81
541.132
615.505
-503.962
157.906
376.243
-638.123
-1057.06
-838.57
1895.63
-1795.73
156.993
1107.16
-1370.02
1173
-723.726
-449.275
-503.594
1349.95
-1495.53
627.884
867.65
-287.144
-210.492
497.636
1428.4
558.559
321.628
-439.61
-485.072
-565.682
1050.75
-417.236
599.574
1582.31
-1129.14
-453.162
-799.525
334.411
654.865
404.023
-1623.43
416.163
1207.26
-196.534
497.072
797.842
784.464
174.341
-675.224
500.883
208.248
211.895
-293.68
-109.535
403.215
465.877
51.341
-517.218
-1643
589.312
-1608.63
1674.2
-65.5663
10.6512
-1619.28
1069.59
775.425
-317.775
-820.589
-201.82
-1134.57
-239.923
-312.245
685.239
-1812.42
-627.198
1205.9
210.559
758.015
-1329.82
-678.508
-465.449
643.274
-364.537
-1013.28
1350.76
-1932.85
582.086
646.186
1288.05
486.013
-2.95692
716.318
703.805
-1420.12
-639.915
338.239
301.676
440.527
-100.199
-340.328
152.334
276.946
164.514
-441.46
-582.109
1143.25
462.406
-619.632
-461.963
-401.952
863.915
-325.756
151.432
-459.047
168.146
-305.499
-709.039
548.38
-107.853
-570.061
967.529
578.73
-269.699
-309.031
456.047
-780.646
-643.817
438.258
-1129.41
-836.772
1180.08
-569.77
449.697
297.235
-474.602
119.868
1029.12
-316.319
593.136
-276.817
-509.043
1578.63
-704.492
257.387
373.107
-630.494
198.173
518.802
-16.3563
-502.446
-252.662
-206.384
1002.99
1108.94
564.807
-870.972
933.713
-62.7414
-455.878
168.733
-758.688
304.629
-594.562
361.452
349.926
828.687
-1247.95
419.26
777.743
-808.851
-948.956
-550.382
1499.34
-160.959
502.893
-519.593
201.833
1307.84
767.594
-593.253
1329.7
-689.976
487.868
-665.644
-410.264
-423.665
-378.72
802.385
502.991
-844.452
-469.802
70.3861
399.416
-324.698
572.416
729.736
-330.059
-246.431
-175.787
422.219
-489.291
146.742
342.548
1457.62
80.7898
-1538.41
-750.697
1346.51
-1144.76
-466.065
558.314
-185.207
1150.32
-372.581
1083.5
492.706
689.518
-413.786
-885.089
-522.347
-1328.45
-27.0733
984.965
-957.892
612.248
339.722
-951.97
-314.847
-221.873
-682.262
405.52
1621.19
-187.276
364.216
348.618
-712.835
-1839.78
-2106.68
1519.14
587.541
-2039.29
348.483
371.096
547.63
-918.726
-460.282
1020.66
-401.847
-682.655
1084.5
-2030.53
1391.21
639.322
609.707
-1011.55
29.4271
382.997
386.873
200.52
245.199
357.843
980.802
887.353
680.945
-326.38
-354.565
-294.585
622.786
-328.201
574.079
530.218
565.399
514.908
-1080.31
-796.224
-699.311
752.743
397.581
-418.638
725.942
-1193.42
1609.58
425.403
-1108.06
-318.614
525.131
-1388.42
887.802
500.622
-723.505
-355.966
-775.409
339.183
436.226
447.087
718.371
-1165.46
1068.41
-576.803
-398.509
646.949
-248.44
254.074
324.656
-468.439
-432.172
900.611
-238.47
564.516
-948.341
383.825
-460.423
600.599
-1681.26
423.775
671.089
-1094.86
517.499
88.997
113.408
-2212.79
554.081
-104.385
1444.03
1777.09
-217.552
-1559.54
-438.433
1789.2
-1986.96
1194.47
792.488
404.253
345.625
-37.879
869.482
-1283.43
718.836
-870.391
-822.955
795.882
309.501
50.4138
-359.915
228.918
183.985
-412.904
1552.1
-835.778
-1530.94
-325.432
452.048
-195.592
-256.457
395.111
366.873
239.058
404.216
-8.87312
1001.58
-992.704
414.413
272.205
-686.618
-734.054
1817.3
-1083.25
-343.026
738.137
-1218.65
-413.741
-915.991
483.819
595.495
-806.111
210.616
762.385
-381.079
-381.306
-431.223
-439.749
450.368
1094.79
1236.67
-667.353
801.751
-345.704
405.992
321.002
-253.093
-210.266
-226.853
622.474
408.128
-848.316
440.188
235.625
364.039
-599.664
-423.031
831.158
754.597
-1147.36
895.182
-66.495
-489.139
271.866
780.144
-95.7798
1383.83
1890.5
-72.7023
335.347
-345.975
440.632
-1085.95
1077.07
653.471
376.537
385.848
61.1896
390.859
257.827
493.472
-370.58
-269.336
-563.772
-89.5897
-354.69
367.557
-12.8673
-258.299
-289.586
1011.05
-1540.72
529.673
-182.018
-191.642
-418.496
690.7
-1632.43
1591.04
-963.161
278.36
-688.624
584.314
1224.42
-1808.73
607.414
983.631
301.05
-1118.65
695.94
-315.902
-304.769
1377.36
-1444.31
826.028
618.287
421.156
-609.884
188.728
-350.662
460.724
-110.062
395.976
69.9016
1723.85
461.546
-253.298
557.627
-1704.79
1147.17
-93.1564
408.218
343.286
337.659
-448.567
-615.761
1064.33
417.209
-861.246
-641.148
902.964
570.423
-477.396
-228.65
-439.242
-409.074
-307.263
-827.311
1821.11
-1821.11
-104.179
-1593.59
1697.77
292.887
285.443
-917.271
-555.347
1472.62
-408.246
973.645
-599.915
-1043.09
702.442
381.435
-1083.88
478.86
-163.675
573.061
1220.35
-1793.41
-1045.91
2115.33
-1069.42
-374.485
-298.532
-505.262
839.673
-1751.18
1600.57
150.607
1751.18
-1604.91
-146.269
-246.649
525.78
-279.131
-537.285
1620.79
1565.73
-1979.47
1085.42
-332.107
-221.232
553.339
234.773
-553.387
-720.431
301.793
1341.35
636.157
579.178
484.376
-1063.55
278.765
410.753
875.428
500.112
-1375.54
532.392
-1017.46
1574.96
-563.914
-786.783
-379.752
-139.296
519.048
-490.015
1208.39
-740.51
333.625
368.089
355.105
248.733
-603.838
589.877
831.97
-603.392
257.588
676.126
-477.396
-365.632
-199.058
564.69
1168.55
-685.253
610.499
465.563
-1076.06
-1285.22
1285.22
-386.71
763.247
-285.592
-475.039
760.631
486.116
444.609
-930.725
388.722
-674.314
611.772
-868.522
256.751
-367.4
-494.919
1074.1
-661.817
-709.819
1371.64
-366.513
931.029
-1552.7
675.27
-0.654746
-362.534
363.189
-538.052
695.506
273.682
321.236
171.637
307.224
-554.406
238.504
1869.46
-1965.24
255.541
-686.472
446.264
-819.688
373.423
-915.724
1424.12
-508.392
-429.916
-486.075
600.722
1124.2
-1724.92
-715.944
341.459
-460.545
1034.62
-780.902
1038.49
-379.697
-629.591
-500.538
708.776
540.534
-358.488
903.325
-298.053
-191.237
1599.02
-1816.57
-334.579
-613.762
-330.134
476.876
261.625
-626.162
-161.693
1063.21
-791.34
210.283
-311.808
-277.913
589.721
389.566
-873.634
484.068
-487.592
-447.345
-911.88
-344.991
538.057
-193.066
-435.994
-419.694
-317.811
-189.244
-381.452
630.185
-466.294
787.296
-1072.89
624.321
-1409.9
553.852
-27.9275
-1835.16
1863.09
569.919
-449.603
1217.03
-700.85
293.283
-293.283
670.628
-434.07
1044.51
-1644.42
-1158.73
-947.948
293.22
329.566
886.972
714.195
-498.678
-288.293
786.972
1657.3
-1685.23
-434.468
349.471
220.784
1135.16
-524.663
-943.333
1550.47
-607.142
445.147
-244.626
384.45
400.743
-785.193
529.304
470.409
-999.713
-331.986
665.61
-37.8683
1907.33
1600.11
992.856
-1697.01
727.135
-1177.15
450.016
-492.471
1367.9
837.771
-1341.36
-571.833
239.726
794.53
-398.858
552.356
-1187.54
635.183
-638.625
-1215.54
-695.652
1911.19
-189.303
526.186
-336.884
-120.684
283.178
-472.48
326.648
371.778
-698.426
-1482.6
756.583
726.012
884.091
-1434.47
825.784
-431.58
220.788
-365.065
-601.178
235.546
-660.655
-727.769
698.87
506.115
-1204.99
394.519
-204.604
-189.915
556.185
-958.778
-567.242
-450.033
754.662
-831.292
-1155.67
-1437.97
499.647
938.328
33.0913
-641.846
306.622
335.224
-1312.59
1044.9
267.683
-616.707
-456.182
-665.893
921.766
402.367
-204.776
-197.591
508.209
980.665
-1488.87
973.913
-563.111
166.795
396.317
-421.661
659.597
-404.056
-505.05
174.916
234.361
-1518.29
529.375
539.04
-749.547
211.495
157.096
-455.149
368.037
-815.382
1954.16
-1195.39
-758.77
438.124
-665.982
227.858
324.197
318.11
124.815
-442.925
-567.16
195.547
265.999
-691.726
1374.37
-682.643
424.087
469.82
-1193.33
267.481
1866.78
-1013.59
-853.187
784.937
-498.645
153.654
1402.38
-975.191
-427.188
332.439
-766.509
-616.509
1725.44
611.657
625.016
317.597
-8.09626
261.088
-1138.43
1725.72
-587.287
-1763.52
820.191
1759.06
-1689.67
-69.3885
-653.148
252.582
595.669
-701.989
201.451
1402.74
-564.974
389.463
439.322
-1858.56
1420.13
514.419
-439.689
-74.7307
204.287
-522.098
-314.824
-146.505
-353.254
696.54
-611.539
231.786
608.629
550.367
-1159
1113.65
-1947.46
833.81
148.454
315.583
-1698.94
1661.07
313.221
-727.007
-163.826
384.614
754.283
678.947
-1433.23
1077.41
-1078.81
525.152
-1101.96
-631.587
254.056
377.531
509.734
-273.522
-611.145
-1033.28
292.385
-712.079
-912.32
175.524
166.514
228.005
382.587
289.414
-672.001
-628.924
-833.989
-978.432
489.084
-1056.24
-275.199
469.869
533.151
646.93
-279.934
-122.404
-438.968
740.017
265.497
-1197.95
569.022
1307.8
-553.514
439.413
-1006.65
-387.787
121.02
393.399
1023.37
551.589
-1718.33
1614.15
1638.87
-573.437
-1065.43
1903.19
-1891.66
-11.5315
220.175
-566.15
-334.431
544.714
-767.786
-315.495
-337.653
1027.72
698.51
-1506.38
807.866
316.836
-26.1897
1625.21
-1089.48
404.223
-1251.4
464.613
-60.4069
1518.03
1197.46
-470.326
-488.787
-74.3239
-232.569
736.02
-1951.56
-711.138
346.222
-531.694
185.472
191.419
-507.738
1139.91
671.556
-1811.47
-578.276
138.587
942.034
-1497.38
-210.507
678.904
-468.397
882.425
1117.57
-737.236
1348.89
623.292
-530.635
-92.6578
-345.621
1171.65
1048.69
-1981.4
932.709
-1170.55
543.353
1488.81
-585.846
-376.088
-127.874
-1240.62
573.264
1165.71
-96.6341
946.081
775.534
-1721.62
-212.97
578.499
-1541.76
963.257
486.997
916.662
-1403.66
618.871
587.028
381.238
-1106.64
591.203
1105.45
1215.88
-452.339
-763.54
-1186.2
-1754.94
-6.89628
-1711.43
-180.762
-429.122
1606.91
-628.134
-978.777
-490.867
1121.62
-1317.24
636.304
680.932
-1361.4
1442.19
-1329.68
592.44
1520.53
-401.122
-541.486
165.398
-1489.16
230.709
176.38
197.046
426.246
456.122
390.286
-846.408
506.349
-939.044
900.814
-1444.87
-685.734
212.768
472.966
-1038.82
456.714
-471.714
861.176
694.947
31.8519
-502.259
165.375
-886.566
-1318.74
-716.253
350.379
365.874
404.79
-723.624
318.833
-479.896
-189.39
-709.536
718.976
1539.61
-593.527
814.943
737.153
1344.81
-844.696
-971.326
-570.43
-797.919
428.066
369.852
-1036.83
-643.672
304.893
338.78
-1433.7
-296.781
-791.317
398.574
392.743
-636.647
404.583
232.064
-663.508
259.452
412.797
487.814
389.959
441.199
479.224
384.691
596.778
-969.989
677.257
465.988
453.764
356.55
-810.314
1630.77
-1079.9
-550.868
-504.525
-285.41
-1027.18
454.493
347.892
409.688
594.263
-1003.95
-1380.31
752.177
-533.54
1145.5
344.598
-67.6518
412.275
-865.99
453.715
-1897.75
304.163
441.679
-726.711
285.032
-185.913
406.089
-220.176
-662.431
308.765
353.667
-675.272
320.707
371.044
392.203
612.851
-1021.1
753.325
661.651
-1414.98
438.803
625.525
339.838
393.039
-732.878
409.602
328.535
615.607
690.828
403.965
600.171
-1019.13
418.955
-1677.39
1185.78
491.605
1696.59
-539.175
621.252
-1147.46
526.205
-643.277
348.061
437.385
-935.549
498.164
764.156
-475.053
351.276
345.264
575.994
-910.573
651.221
-1253.35
602.128
382.09
734.83
-1224.84
769.631
509.563
-1279.19
484.196
400.682
-884.878
-501.658
-936.316
-302.932
629.58
352.647
541.999
-894.646
333.303
332.307
-502.18
1944.74
437.184
-847.386
410.202
-917.852
-807.153
-749.466
368.161
-1213.27
432.372
-1732.94
1604.91
128.03
1745.63
-1600.57
-145.063
-784.946
-594.42
266.799
327.621
-1759.06
1979.47
538.489
791.643
-1330.13
440.12
716.411
690.369
385.643
-1076.01
-55.2539
1617.15
-593.777
377.019
840.01
-650.203
326.821
323.382
-378.594
-297.931
552.005
-223.692
435.578
281.3
-667.47
386.17
265.766
-580.887
-283.425
442.57
-1033.72
591.155
538.046
1092.72
366.073
597.009
311.923
352.573
-664.496
1624.67
-926.161
1691.85
-1520.48
-171.371
-328.654
-823.913
414.84
857.531
-1068.04
-608.429
280.228
-1090.6
1628.65
-1588.39
-78.4835
1666.87
-341.631
-350.453
-370.379
536.896
598.266
-503.547
-29.7003
-549.978
508.285
-284.053
-224.232
1749.92
-1299.55
-626.261
299.845
326.416
401.503
357.296
734.711
-296.695
-399.088
-1745.63
1685.23
459.573
-1101.12
641.55
-43.3455
1657.49
571.334
476.433
-1047.77
104.349
1144.89
-1452.15
-14.0427
-1883.71
229.155
-599.916
307.835
292.081
-955.526
612.603
-898.784
468.869
-1128.72
673.615
455.104
373.379
256.926
-755.605
-334.231
1217.29
886.842
699.067
-1183.02
456.164
726.853
494.369
700.916
-1195.29
-387.658
-248.147
414.661
-961.031
438.569
522.462
21.2525
-1879.82
1079.9
-468.126
-493.209
558.128
-1378.28
820.15
-423.154
796.577
-405.469
498.514
-714.785
1717.78
415.032
-187.027
216.314
-172.569
-246.354
418.923
1895.32
-504.112
-1692.27
1051.65
-602.484
304.553
-1014.1
553.823
-313.406
544.297
905.316
-1449.61
-1103.92
438.024
-20.7547
-1944.49
1714.26
-665.572
-540.628
460.741
-1190.61
729.873
190.178
212.188
-282.114
769.209
700.647
838.455
818.52
-461.97
1085.1
-483.866
480.593
-194.914
-285.679
-1922.99
-714.234
-318.616
-643.515
-6.66719
650.182
469.077
-273.53
563.204
1061.47
-803.648
925.199
1244.39
-425.339
-174.663
-243.658
418.322
954.093
-888.542
-322.455
-1068.1
611.916
1556.15
-799.57
537.653
934.965
-389.65
734.662
-345.012
1130.49
-276.404
361.877
1349.77
-704.568
-220.745
448.306
-1198.72
750.409
-989.536
-129.021
1118.56
442.132
-956.047
513.915
152.825
732.553
483.326
744.143
-109.187
853.475
-425.802
1182.62
-796.975
552.119
-1465.51
913.391
-1216.65
1800.97
-431.712
-1510.19
879.693
-1402.04
-300.771
-445.981
1457.27
-1523.12
784.911
1491.5
203.348
277.245
-347.954
-1732.94
-289.776
-1012.36
1575.57
-1766.94
1766.94
1565.73
-1004.53
-634.917
-330.334
368.446
605.198
-406.3
-356.778
-1389.86
897.394
1125.15
600.571
1202.82
1789.48
-1216.42
-610.919
274.163
1658.98
-1916.44
257.461
814.385
-1267.55
1545.25
-561.621
775.585
327.868
-339.834
554.791
795.164
658.181
1369.88
-247.5
-445.07
-349.1
497.69
-341.513
471.778
736.608
-288.915
-154.01
-324.617
564.711
-240.093
26.5363
-373.162
1107.46
-1720.28
-445.374
-482.943
-563.087
863.583
692.569
-1596.53
904.807
-451.73
-620.184
-513.808
1252.18
337.263
1723.69
-1702.43
-1657.3
1891.66
-1560.84
840.284
720.558
-377.624
-1795.6
917.685
583.115
819.63
-389.438
1794.3
-680.645
-442.925
693.59
422.814
-1116.4
-1099.22
444.118
753.343
-1617.18
473.203
901.166
178.809
-404.973
226.164
-1598.76
-384.512
-454.487
990.295
-671.594
1442.97
-972.693
1855.12
242.463
-551.228
499.089
-295.741
474.323
893.575
543.106
977.428
-462.866
-427.99
573.947
883.318
-1392.71
-40.9896
1571.83
-834.673
519.955
971.55
-1475.85
-1115.9
1775.16
-1243.76
-531.392
1206.17
-319.011
-887.158
-193.706
457.118
-263.412
-457.462
-250.99
433.8
-182.811
148.407
-396.554
1733.02
-1739.92
-453.288
-530.853
-903.62
447.004
-208.543
-238.461
635.305
-474.13
-394.573
-303.023
697.596
-943.434
406.205
-1167.35
676.481
421.272
-633.844
-442.07
1574.26
-860.067
530.185
-457.92
-571.121
-462.604
365.185
-354.922
-10.2631
-1105.27
404.423
-664.737
-1033.68
1698.42
-599.411
-1423.32
713.499
562.191
-1596.27
1034.08
-387.832
-483.4
142.592
550.388
-1258.52
744.713
539.228
1006.02
-2133.18
999.989
1133.19
-346.574
413.024
-387.895
-25.1283
1478.07
-364.467
449.54
1191.13
582.192
906.618
567.953
527.477
-1095.43
168.307
-434.622
-1689.67
255.446
1127.58
-612.872
518.481
1013.77
-1532.25
1092.86
-1643.73
200.275
694.907
543.693
-866.149
-1086.52
-172.555
430.404
-257.849
-587.08
-422.666
-636.875
-628.893
346.779
-1618.7
939.833
-476.801
216.045
-403.072
536.814
-307.66
-605.972
1197.22
-1285.39
934.383
351.009
-1027.31
-353.805
-756.411
-824.121
1687.7
-476.943
1795.31
-1584.73
-210.582
-1556.64
1018.73
537.911
-724.797
-261.401
444.552
-183.151
-590.255
383.796
275.568
-659.364
-523.929
983.995
631.66
-351.432
-1620.28
1050.51
571.767
1103.55
-1675.32
-406.504
-294.515
-367.917
-744.007
-484.282
-331.056
502.693
1558
-995.81
-775.341
1497.47
661.287
-311.817
725.882
1152.37
-1878.25
271.48
296.128
-487.17
-1931.96
1719.7
212.26
739.719
-474.677
-265.042
531.831
1060.84
-1592.67
365.185
-1725.47
-233.21
1752.35
-1580.7
1073.78
506.919
-1726.27
0.794602
-521.67
413.024
1698.94
-1719.7
939.739
624.487
-1564.23
384.914
-220.018
-164.896
-410.031
-253.477
69.0396
95.1282
-356.529
-431.886
-436.637
-408.892
222.98
1510.25
378.859
-196.669
-439.979
464.842
-198.843
315.694
1510.78
989.862
-167.853
-822.009
-1104.11
1704.83
-1728.78
1064.04
-707.151
-1021.63
-1265.09
1844.99
-579.902
1155.07
-1771.15
616.074
271.996
-878.206
1675.7
43.45
-1719.15
-491.166
-1083.06
-1733.02
-982.4
554.41
1019.61
590.224
1133.04
-1723.26
279.994
-465.201
705.016
-384.309
378.891
924.947
680.612
-372.021
-647.105
582.892
1072.56
-1655.45
-398.972
-370.336
769.308
392.744
-1661.07
1520.48
140.593
583.907
-1044.45
544.747
1083.9
-1555.69
994.071
-239.278
232.525
312.189
1903.19
410.183
-72.7432
995.862
722.753
-1718.62
-697.344
1085.35
-1557.52
167.933
-571.66
198.757
266.085
-660.502
-552.772
582.498
1034.65
-711.184
-249.866
-1368.7
675.943
692.755
-417.393
751.401
85.8419
-837.243
561.705
-137.153
1557.28
-218.714
263.906
-770.939
-1931.96
1664.63
1028.95
349.101
286.567
477.589
-930.136
-992.853
-1767.27
637.852
1693.77
509.837
-474.296
1210.9
1087.15
-424.962
1030.16
-978.948
493.655
485.293
700.188
1047.96
-1748.14
485.955
481.574
-1494.01
-747.205
31.9722
781.12
-412.96
-880.24
387.031
-538.783
-802.581
608.578
-577.248
1397.4
1055.14
195.376
235.028
-550.619
1618.53
-772.383
1525.71
-1727.84
575.251
1152.58
544.658
-883.638
-1732.74
1916.44
-183.702
1721.74
183.588
-543.747
368.868
-273.74
-481.412
1211.28
568.272
1128.32
-491.314
431.612
858.911
-462.675
-772.516
424.025
348.491
1418.81
1089.61
-518.195
1423
-510.643
-533.435
1044.08
-602.753
491.687
-1215.41
1691.85
1839.58
-687.211
1585.66
-645.923
-1241.42
717.49
-562.461
203.745
-394.001
456.692
-244.797
-520.209
-1246.71
1870.94
-624.232
1173.5
-552.244
1120.29
-1659.46
1693.81
-573.937
-545.328
-549.816
1720.07
-317.136
-688.041
-473.317
1223.73
-1683.47
-1860.1
613.394
322.751
-947.669
170.388
215.037
-1719.03
1204.15
514.873
1162.86
558.889
-511.535
-465.387
1192.24
177.974
228.115
588.444
1251.13
-539.176
-1238.58
1777.76
-1025.42
999.99
866.789
-204.12
-1658.98
1702.43
-510.077
1411.24
-1732.74
-346.34
1.10591
345.235
-265.861
585.528
-319.668
92.9812
492.096
781.959
-377.169
1257.53
1270.89
-413.361
852.776
-437.936
1817.45
-662.376
1586.53
-1723.69
-412.787
-752.701
330.891
421.809
-559.65
-563.291
79.7345
-1138.75
-985.519
-669.686
1655.21
-943.707
-1189.47
203.932
-425.164
-648.45
705.619
1167.45
650
1410.35
-590.717
1636.75
1318.14
-573.424
-494.549
198.808
-503.281
1396.86
1240.2
-564.254
-999.988
893.646
54.2603
-947.906
603.443
-506.134
1403.53
1495.08
-588.465
-368.451
368.451
-589.422
1623.5
1239.57
-486.223
1134.16
-68.4282
1852.32
-396.31
1489.49
-588.677
-507.679
1347.96
-652.875
1218.7
-565.821
1554.81
-591.558
752.348
570.018
-1322.37
-666.662
260.957
506.637
600.144
-1957.3
-985.783
1586.53
370.922
-370.922
-71.368
389.022
436.762
341.955
54.0212
-321.753
917.518
-535.428
-425.937
814.958
-244.501
622.031
-430.799
1550.14
-444.342
-884.105
188.928
227.028
-415.955
601.168
1250.78
-1851.94
927.545
-458.677
-354.922
126.152
-1943.02
1816.86
-451.864
186.38
1181.29
-440.461
-740.829
-302.098
-578.142
-492.154
-387.895
-482.179
257.947
1158.44
-560.178
230.486
-384.001
153.516
-22.7106
-107.678
1376.03
-1268.36
34.5701
-598.342
-586.392
-452.993
452.993
-1262.36
1985.11
-1344.39
-208.753
-1824.91
240.18
-1025.76
-974.243
-187.325
-1637.61
707.478
1229.32
-1924.97
370.564
311.691
-682.255
-1850.01
1234.27
615.741
-561.784
561.784
-959.201
-39.9692
-1866.05
-558.144
1650.86
-677.447
1636.18
-601.529
-177.754
-1705.96
-586.131
-466.134
-594.797
-467.013
467.013
-1537.81
194.526
1343.28
174.845
226.551
-401.396
499.139
490.722
997.402
-474.94
1751.3
768.177
-423.777
398.649
520.621
1702.06
-594.595
-552.964
1636.86
472.919
1812.74
-645.29
-1803.94
-1938.08
-646.948
-479.222
479.222
-571.699
222.6
-701.05
1019.73
-465.908
-1071.93
-283.717
1579.57
1852.3
1635.34
-1635.34
-292.669
738.485
1761.49
595.786
1275.15
174.899
210.016
585.141
596.251
1603.51
-1603.51
223.409
-353.059
-434.29
461.461
951.839
-458.183
-639.76
-1131.01
1706.26
281.208
-1657.41
614.322
-289.416
473.004
1744.65
-592.061
-216.273
-439.27
378.99
726.459
1738.57
-613.423
-511.765
-781.576
1960.54
-870.453
-1090.08
1642.79
-706.012
1223.97
-1824.94
600.971
347.746
-898.974
-185.865
-106.074
1098.47
-486.55
122.426
622.517
-1655.79
438.022
593.312
-1803.94
-583.275
1787.43
884.322
-1162.92
1760.49
-597.566
1783.83
-575.527
-1208.31
432.517
930.578
-1739.92
924.774
-1489.59
255.292
1234.29
-830.858
-1254.23
-380.617
75.9934
304.624
581.722
270.599
1025.92
-445.181
847.043
-401.862
821.198
738.433
-1559.63
643.772
1066.28
-24.2218
-663.359
687.581
-1744.31
722.687
699.284
150.566
-1122.69
1936.76
-674.549
-1262.21
-537.177
1665.5
829.781
963.639
-1793.42
1227.87
683.323
-402.483
711.248
841.834
1028.65
-586.518
1761.49
626.692
1773.56
-1185.62
-587.94
-417.599
-316.613
734.212
121.447
-1185.7
1660.55
-540.268
-1437.82
1437.82
1250.57
594.415
1351.57
206.432
-570.98
282.77
-193.681
699.072
1113.67
483.756
-305.782
-870.271
-574.598
1739.12
-1739.12
993.699
-993.699
987.331
1025.17
-2012.5
1837.94
-613.97
-581.107
833.42
-947.849
-1052.16
998.375
690.538
-1688.91
-516.734
-358.839
-652.714
-808.423
2042.69
-1246.42
-613.68
1002.97
974.851
1289.77
646.986
326.421
1012.69
239.654
336.778
1186.25
1756.87
-1756.87
671.975
79.888
-388.919
-997.053
-539.991
1674.15
989.369
1010.63
-1833.28