/*--------------------------------*- C++ -*----------------------------------*\
  =========                 |
  \\      /  F ield         | OpenFOAM: The Open Source CFD Toolbox
   \\    /   O peration     | Website:  https://openfoam.org
    \\  /    A nd           | Version:  7
     \\/     M anipulation  |
\*---------------------------------------------------------------------------*/
FoamFile
{
    version     2.0;
    format      ascii;
    class       volScalarField;
    location    "37";
    object      p;
}
// * * * * * * * * * * * * * * * * * * * * * * * * * * * * * * * * * * * * * //

dimensions      [0 2 -2 0 0 0 0];

internalField   nonuniform List<scalar> 
7724
(
0.0948227
-0.0150992
0.460209
0.262293
-0.00125116
-5.32609e-05
0.495856
-0.00733095
-0.000175642
0.112081
-4.97351e-05
0.00337425
-0.0109585
0.0536091
0.117319
-0.0151121
0.0980918
-0.0140949
0.00111249
-0.0758744
0.069026
0.00222091
0.0390028
0.232025
-0.0182879
0.121032
-0.00116483
0.066966
0.191329
0.00294683
-0.019596
0.891831
0.0381642
-0.000691078
-0.00015041
0.090729
0.00349674
0.473783
-0.00634887
-0.000485375
-0.00586153
-0.0143204
-0.0848144
-0.0994666
-0.000289362
-0.00011704
0.00215736
-0.00670468
-9.64984e-05
-0.0753797
0.00508919
0.0634023
-0.0228839
-0.007715
0.0895495
-0.00658709
0.00114049
-0.00726363
-0.0299958
-0.000714127
5.75856e-05
0.00654106
0.0541143
0.00372863
-0.00137249
-0.0193675
-0.000137977
5.44014e-06
-0.0379371
-0.00636422
-0.000107195
-0.0571823
-0.0177624
-0.0289619
-0.0137427
-0.0419565
0.447335
0.0680607
0.0286237
-0.0586629
-0.010535
0.454131
0.0998973
-0.0308643
-0.00204297
-0.00324819
-0.00785115
-0.0222662
-0.0009429
-0.00624485
0.195503
-0.125129
-0.000189909
0.00144263
-0.0049641
-0.0305515
-0.053771
-0.00466985
-0.00224743
-0.0016328
-0.0492155
0.0354536
-0.00470336
-2.84984e-05
-0.122405
0.191768
0.763916
-0.00701441
-5.55518e-07
0.0329918
0.244141
-0.059149
-2.15921e-06
0.0349323
0.194297
0.000642384
-0.0853597
0.151681
-0.0409686
-0.0300919
-0.051024
0.431354
-0.0804913
0.013971
-0.0496382
-0.00138102
-0.0180759
0.00245646
-0.0014572
-0.0202302
-0.17696
0.0330114
-0.000865608
-0.00110769
-0.0318916
0.238216
0.575317
-2.44296e-05
0.0115124
-0.0634545
-0.0274649
-0.0516949
-0.0427414
-0.0280782
0.772254
-0.0254685
0.191541
-0.0300674
-0.0376805
0.429866
0.0864982
-0.108924
-0.00219529
-0.0511267
0.0999799
0.417308
-0.0488426
-0.0108887
0.687452
-8.76316e-05
0.000527139
0.240585
-2.65145e-05
-0.00302336
-0.0055717
0.313259
0.314327
0.721355
-0.0033719
-0.0043916
6.45554e-06
-0.0523582
0.000632276
-0.00793314
0.012526
-0.0373954
-0.102105
0.0555197
-0.000189411
-0.000733604
0.261885
-8.74489e-05
-0.000161481
0.489118
-0.0214921
-0.0467689
-0.0388203
-0.0280263
-0.0284814
-0.0618228
-2.89916e-05
-0.05204
0.0537257
-0.00476208
0.000106032
0.132665
-0.0017746
-0.0191007
-0.0263071
7.93091e-06
0.00128564
0.250869
0.079834
0.434269
-0.0789616
-0.0549987
-0.142266
0.07313
0.253993
-0.000309833
5.13409e-05
0.711573
-0.0127467
-0.000896036
-0.0498869
-0.0189054
0.364445
0.383156
-0.0570825
0.842441
-0.00164467
-0.0136342
-0.0504133
0.0860418
-0.104848
0.0454286
0.694065
9.30632e-05
0.0147296
0.163565
-0.00602058
0.146741
-0.000799978
0.778244
0.412051
-0.00775629
0.00377909
-0.00045067
-0.0137343
-0.000137536
-0.00955469
-0.0613952
-0.000106783
-0.00195023
-0.000633577
0.126817
-2.66176e-05
-0.00646911
-0.0575189
0.893283
0.0263873
0.768002
-6.56928e-05
-0.0286814
-0.00027337
0.445083
0.00622322
0.57615
0.00157472
0.00107528
-0.00209087
0.0767475
0.000880017
-0.000336769
0.000774612
-0.00635383
-0.0490048
-6.13311e-05
-0.0474278
-0.00531806
-0.000210696
-0.000921965
0.539173
-0.0109449
-0.00113194
0.858252
-0.00213033
0.182078
-0.000304839
-0.00207486
1.12847e-05
-0.0364583
0.082766
-0.098536
-0.030531
-0.000610282
-0.0646433
-0.0209553
-0.000266398
0.000749955
-0.0032646
-0.010637
0.00458804
-0.0018534
-0.0295612
-0.0436874
-0.0290413
-0.0880284
-0.0360895
0.360088
0.386082
-0.00219308
-0.138127
-1.03961e-05
-0.00360139
-0.0302123
0.225295
0.112666
0.000146218
-0.00335416
-0.0350676
0.157514
-0.00148109
0.00557195
0.00187477
-0.0253501
-0.176971
0.256784
-0.00235288
-0.0209014
-0.000169994
0.00611505
-7.82177e-05
-0.0248389
-0.000514388
0.00351984
-0.172434
-0.0385095
-6.70575e-06
0.0133972
-0.00109685
0.0266924
-0.0122347
0.05282
0.137108
-0.182169
-0.0997383
-0.021237
0.00787942
-0.0600146
0.737663
-0.0880292
0.0441507
0.824221
-0.00227546
-0.00257837
-0.111704
-0.00163893
-0.0221338
0.00986956
-0.00414119
-0.00310302
0.170233
-0.000102178
0.000840661
0.000117116
-0.00497482
-0.0104894
-1.27344e-05
-0.00162478
-0.028906
0.698268
0.000628721
-0.0124331
0.635021
0.369536
0.0482394
-0.127641
-0.0524709
0.00760861
0.298924
-0.015307
0.257365
-0.0331036
-0.0985124
0.0947509
0.248486
-0.0439192
0.104372
0.0217916
0.208738
0.0706959
-0.00447537
-0.00617326
-0.000131512
-0.000470465
-0.0155687
0.0014347
-0.000160575
-0.0024058
-0.0635325
0.0183618
-0.0225473
-0.00483817
-0.00552293
-0.0204097
-0.0101075
0.00238553
0.0119135
-0.00280724
-3.22229e-05
-8.32286e-05
7.39203e-05
-0.0269932
0.16537
-0.00587507
0.041577
-0.116809
0.465562
0.00476807
0.0104618
-0.00743063
0.51565
-0.00157884
0.241437
0.196631
-0.000175151
-0.03531
-0.00478842
-0.049709
0.000864612
0.0593512
0.00351708
0.00967422
-0.00127708
0.108745
0.165971
-0.0539504
-0.029476
-0.00346847
-0.0278511
-0.0431633
0.874235
-0.0824631
0.00666714
-1.02587e-06
-0.0179194
-0.00337094
0.0244693
-0.0932227
-0.141903
0.522423
0.140743
-0.132626
0.134823
0.503169
0.0431628
0.0017797
0.290491
-0.00136966
-0.000276715
-0.0226559
0.000134263
-0.155454
-0.00214814
-0.0327032
0.00288421
0.148482
-0.00266127
-3.54356e-05
-0.102919
0.00262638
-0.0143828
-0.0477553
-0.0629351
-0.132492
0.166537
0.136579
0.140984
-0.000310482
0.00472161
0.0586379
-0.000794364
-0.0217363
0.000932688
0.00570387
-0.00737727
0.00732547
-0.00117373
-0.00289513
-2.88279e-05
0.000305859
0.00303618
-0.0281205
0.0300483
-0.0305365
-0.0318098
-0.0437311
-0.120784
0.00253641
0.273769
-0.155334
-0.00939962
0.790677
-0.0527173
-0.0108989
-0.0325243
-0.0100085
-0.0264908
-0.0139633
0.0391634
-0.0971851
-3.82387e-05
0.0345754
-0.000144824
0.392901
-0.0408383
-0.00701741
-0.0185233
-0.000285398
0.459072
0.29896
-0.0101822
-0.038324
-0.0576153
0.599848
-9.455e-05
0.0125729
-0.0230905
0.0715347
0.738185
-0.0507176
0.142091
-0.00351881
-0.000306337
-0.0413027
-0.160462
0.482313
-0.00875994
0.238347
-0.00994539
0.484987
0.283388
-0.0124102
-0.010631
-0.039304
-0.0635354
-0.000127754
-0.0171714
-0.0618504
-0.0627983
0.0170875
0.0137912
-0.00019151
0.291137
-0.00204287
-0.00015565
-0.0399166
-0.000739039
-0.000337213
0.00415166
0.183719
-0.0906064
0.674806
9.51384e-05
0.170893
-0.0312168
-0.000113338
2.75468e-05
0.187972
0.190992
-0.00578263
0.1838
3.91902e-05
0.192332
-0.175714
-0.0129934
0.537253
-0.047453
-0.0361565
-0.0311895
0.183068
0.178804
-0.02115
-0.0264947
-0.00878022
-0.00408861
-0.000299795
-0.00211005
0.24224
-4.01594e-05
0.192982
-0.091359
0.393453
0.184458
-0.0628218
0.639666
-0.00231836
0.00229282
-0.0645046
-0.0253088
-0.0089673
-0.0343029
0.0237271
0.79265
6.462e-05
-0.00272527
-0.0549665
9.19895e-06
0.396925
0.00266234
8.62105e-06
0.000288429
0.000580752
-0.0233123
0.0232786
-0.00220034
-0.000125843
-0.00950768
0.00245249
-0.098142
-0.0575435
0.0309052
-3.24558e-05
-0.158098
-0.0168127
-0.0166626
0.399358
0.00155059
0.0119103
0.000229884
-0.0160968
0.100841
-0.00903054
0.181187
-0.0165944
0.0150661
0.104662
0.132475
0.00510919
-0.0132998
0.110711
-0.0746964
0.445721
-0.0120847
0.174025
-0.0119612
-0.00164594
0.136037
-0.00374165
0.0920411
0.00273416
7.42387e-06
-0.110098
0.0110376
0.00203194
-0.00907712
-0.0158152
-0.154631
-0.0120246
-0.0315834
-0.00237665
-0.011369
-0.0617411
-0.0329941
-0.0125962
-0.000215375
0.480283
0.0178107
0.0408174
-0.000288255
0.292072
6.36581e-06
-0.000266063
0.0376616
-0.0015194
0.00863618
0.065506
0.0232726
-0.0735949
-0.126161
-0.129591
0.00190918
-0.0466568
-2.67859e-05
0.00475341
0.176554
-0.020273
-0.00390987
-0.0182034
-0.00275158
-0.000588801
0.84041
-0.0127238
-0.000782194
-8.33592e-06
0.153065
-0.0358639
-0.000473834
-0.00386113
0.177156
0.0663968
-0.0429152
2.35406e-06
0.202434
-0.0205548
0.145672
0.0241676
0.029805
-0.0347805
-0.000137316
0.10214
0.0547788
-0.100039
-0.0862434
0.253732
0.00892475
0.0965016
-0.00449811
-0.0371593
-0.000563459
-0.00394153
-0.00015355
0.157778
0.104777
-0.00209913
0.0258534
-0.0213282
-0.0732338
-0.0792731
-0.00258767
0.0112256
0.784676
-0.0984046
-7.93584e-05
0.069005
-0.00557393
0.649297
-0.0156187
-0.017612
-0.0106236
-0.0202805
-0.0111063
-0.0100843
-0.00556659
0.00200076
0.0157015
0.000155451
-0.184145
-0.0912256
0.339536
-0.0414842
0.026577
0.00294923
-0.0676892
-0.0214344
0.234572
-0.00955234
0.00015752
-0.0202723
-0.00765697
0.0151299
-0.0318086
-0.0276465
-0.0704353
-0.0179345
-0.0146861
-0.0691655
8.4893e-06
0.0295063
-0.0596477
0.0180685
-0.0825499
0.0922418
-0.0851406
0.246358
-0.00425716
-0.0359245
-0.0269337
0.697403
-0.152295
-0.0163331
-0.111171
-0.0473034
-0.105886
-0.0665677
0.110625
-0.00390075
0.291334
0.0128154
-0.000564876
-0.00177736
0.0620835
0.907019
0.00132052
-0.0329539
0.185951
3.2922e-05
-0.0254827
0.0379311
-0.0268491
0.0129826
-0.0023514
-0.0369928
-0.00459534
4.15891e-05
-0.045378
0.218438
-0.00336509
-0.0204536
0.00273099
0.184356
-0.000548933
-0.00176103
-0.000512967
-0.00114168
-0.0791752
-0.00698449
0.00218557
-0.0220214
6.49226e-05
-0.12305
-0.15718
-0.138836
-0.0227966
0.0207223
-0.000304514
-0.0165618
-0.0561264
-0.0799481
0.399939
-0.0018407
-0.0577043
-0.00659232
-0.000374702
0.0754659
0.000642237
-0.000224822
-0.039792
-0.0796402
0.0192468
-0.0041551
-0.00289563
-0.0527157
-0.000251025
-0.00726093
-0.0166327
0.342508
0.203059
-0.0603944
-0.0585418
0.0104624
0.00158519
-0.0740123
-0.0677978
-0.0232054
-5.49544e-07
-0.0661736
-0.0303783
-0.0733465
-0.000199394
-0.0454819
-0.000567853
-0.00420158
0.191458
-0.0335851
-5.66013e-06
-0.00391459
-0.14235
-0.000237555
-0.0289348
-7.20771e-05
0.004525
-0.0959595
-0.0572088
-3.12549e-05
4.41507e-05
0.131025
-0.0504197
0.466459
0.172145
-0.0582835
-0.000867956
-0.0204986
0.000315574
-0.166007
-0.099361
-0.118454
-0.0200049
0.120664
0.00770998
0.000390301
0.00404846
-0.136757
0.0028032
-0.0356621
-0.0547704
-0.00186578
0.0222269
0.0701021
0.00621973
-0.0276537
-0.0920361
0.196832
-0.0428842
-2.71202e-07
-0.114499
-0.0553895
-0.0516377
0.00388028
0.00108329
0.00420362
-0.0988978
0.0317538
-0.0306398
0.0423128
-0.0610507
0.00635528
0.019145
0.00541479
-0.0314118
-0.164562
-0.000147223
0.151655
0.219751
0.00826906
0.034113
-0.0790093
0.0450554
-0.050755
0.208212
0.0986581
0.76092
6.59316e-06
0.0800625
0.16522
0.0156431
-0.00160735
-0.0172276
-0.0807887
6.16846e-05
-0.0173814
-0.0521157
-0.0187865
-0.0208661
0.000187827
-0.149449
-0.000412868
-0.00094223
0.261188
0.00592249
-0.0792491
0.0194792
0.220779
0.0090434
-0.000440196
-0.137577
0.00730915
0.428968
0.0013875
-0.0538256
-0.000246316
-0.000607904
0.00517834
-0.0713731
-3.42109e-05
-0.0106163
0.0266144
-0.0021313
4.41762e-05
-5.17524e-05
0.156491
-0.0734194
0.00668019
-0.00120187
0.00845172
0.016367
0.00810805
-0.000321096
0.275565
-0.126883
0.232544
0.224507
-0.00023151
-0.0808044
0.0746553
-0.000840956
-0.000290092
-0.000476217
-0.0506563
0.00774018
-0.0172812
-0.0246005
-0.0612279
0.16989
-0.116286
1.38414e-05
-0.0184599
-0.018536
-0.0320972
-0.00455607
0.0059765
0.00133253
0.0280919
-0.000561022
-0.000257964
-0.0168232
-0.00448568
-0.0234005
-1.68006e-05
-0.0142496
0.0331037
-0.0538882
-0.0527162
-0.0084632
-0.0113583
-0.0089308
-0.00539408
0.00173081
-0.0092127
-0.000114152
-0.000440234
0.0221272
-0.0117809
-0.005118
0.00840417
0.00139384
-0.130236
-0.0107749
0.160182
-0.0120995
-0.0488277
-0.0250631
-0.0214554
-0.0148835
-0.00390962
0.00231174
-0.00367284
-0.0134694
-0.0153258
0.165381
0.113707
0.0359381
0.394393
-7.79827e-05
-0.00358613
-0.0155921
-0.00797507
0.0240609
-0.019139
0.0267857
-0.00462371
0.158365
-0.00204073
-0.00171533
0.00301846
-0.0233361
-0.00023527
-0.0239164
-0.00605112
-0.0196161
-2.17241e-05
-0.00682242
0.00209428
-0.0167407
0.0232274
0.0365781
0.0197668
-0.0134168
-0.0291676
0.116621
-0.00135395
-0.00205272
-0.0022129
0.623625
-9.54043e-05
0.0536885
-0.0199204
-0.019315
-0.0244011
-0.0409032
-0.0265147
-0.0314961
-0.0175901
-0.0047593
-0.000104915
-0.00442179
-0.0205229
0.0971095
0.00178169
0.0267836
-0.0302847
-0.0127864
-0.000959299
-0.0268905
-0.000110342
0.150057
-0.0279655
-0.0244175
-0.0223973
-0.00431566
-0.0316941
-0.00174427
-0.0366743
0.101649
-0.0240712
-0.0737468
-0.0015272
-0.025025
-0.0175477
0.0159787
-0.00336373
0.144662
-0.00249277
-0.0180978
-0.000713659
0.164228
-0.0353807
-0.0245456
-0.00336305
-0.00956132
-0.00287224
0.12512
-0.0192923
0.0428922
-0.00516541
-0.000859648
-0.0013175
-0.00243172
0.0321891
-0.0539289
-0.00697794
0.000361994
-0.00926064
-0.0192496
-0.000957192
-0.0190136
-0.0149765
0.0575544
-0.00508536
0.00226114
0.629627
-0.054458
-0.0263907
-0.0512022
3.75745e-05
0.0755119
-0.00366214
-0.0248352
-0.005774
-0.0326013
0.00393387
-0.000564426
-0.00301451
0.00345183
0.210106
-0.00596691
-0.00186814
-0.00477568
-0.0507461
-0.00839142
-0.0205255
0.00434177
-0.00878086
-0.00908453
-0.00339084
0.208339
-0.0412251
0.00337805
-0.00437016
-0.0254335
-0.0138341
-0.043918
-0.0014729
0.0894578
0.0229534
-0.00795819
-0.00180984
-0.0134465
0.631954
0.212013
-0.0112396
-0.00060648
-0.00248035
-0.00374841
-0.00411675
0.0211513
-0.000438525
-0.0203862
-0.00204828
-0.0162214
-0.171794
-0.00112349
-0.0127874
-0.00141354
0.350558
-0.00662868
-0.0116011
-0.0733051
-0.00203161
-0.0276806
-0.0749714
0.53604
-0.0107095
-0.0113625
-0.00220814
-0.000492044
2.04276e-06
-4.05066e-06
-0.0101485
-0.000703963
0.0319229
-0.000706698
-0.0018896
0.00830255
-0.000270961
-0.0399813
-0.0635734
0.0178974
0.0402633
0.0270019
-0.0717195
-0.0562147
0.0885882
0.0701207
0.0961971
0.123787
-0.0127079
-0.000881849
-0.00620773
-0.0706153
-0.0036433
-0.0146964
-0.0717529
0.262821
-0.055132
-0.000507841
-3.09467e-05
-0.00152844
-1.1823e-07
0.00695707
-0.000593079
-0.00499764
-0.0425913
0.000574382
0.00266464
-0.000230778
0.0404067
-0.0149245
-0.0690554
-0.0012835
0.370447
0.152688
-0.0100894
-0.0914566
-0.0259829
-0.0223618
-0.0141117
-0.00195452
-0.0823048
-0.0402737
-0.039894
-0.14362
-5.27249e-05
0.156151
-0.0245363
-0.00955611
-0.0377461
0.0189951
-0.000559267
-0.0084345
-0.00141509
0.00993712
-0.00163657
0.0911277
0.000371267
0.0104449
-0.000437105
-0.145122
0.00915003
-0.000816502
-0.00339031
0.000427272
-0.0651468
0.0922558
-0.00033666
-0.00150135
-0.00013219
-0.000605807
-0.000530783
-0.0530472
0.126011
-0.0612361
-0.00028365
0.00796436
-0.00048186
0.244337
-0.0527332
0.207995
-0.0386984
-0.000473579
-0.000302225
-0.00739927
-0.00575085
-0.000667127
-1.89431e-05
0.0244505
0.0287127
-0.000249319
-0.000352452
-0.0188134
-2.26922e-05
0.173122
-0.000967557
-0.0462573
-0.0182357
-0.00640141
-0.0485893
-0.0542694
0.155518
-0.0308685
-0.0191908
-0.00033214
-0.0492227
-0.0196801
-0.053627
-0.0135412
0.380841
-0.00122018
-0.0515411
0.00874707
0.278175
0.0385082
-0.000125683
-0.00613759
-0.00416185
-0.00505784
-0.0416383
0.071844
0.000188384
0.00922604
0.00293169
0.0463676
-0.000547155
-0.000128905
-0.129232
0.240968
-0.0478411
0.103513
-0.00134903
-0.000213005
-2.36971e-06
-0.10652
-0.036884
-0.000358202
0.0657905
0.0116125
-0.00546007
0.502001
-0.000415868
-0.00381467
-0.0522242
-0.0378762
-0.0023563
0.137491
-0.0739309
-0.000174432
0.00703031
-0.000183375
-0.00010583
0.118876
-0.00754605
-0.000476615
-0.0443342
-0.0230459
-0.00358236
-0.0452157
0.00250215
-0.0215266
0.00170656
-0.00358619
-0.0562355
-0.0342719
0.00693978
-0.0009228
0.144221
0.220272
-0.122904
0.00876865
0.0193831
-0.00437938
0.172715
0.0780368
-0.0254414
-0.000170898
0.00926652
-0.0470756
0.00490566
-0.0266626
-0.00218284
0.0277411
-0.0257959
-0.00014423
-7.68107e-05
-0.054442
-0.0262955
-0.0240323
0.0093917
-0.0471473
-0.0396778
-0.000160665
-0.00145878
-0.000217586
-0.0349261
-2.52282e-05
-0.00199741
-0.0559451
-0.114666
0.00518454
-0.0030637
0.0043262
-0.020405
-0.0236284
-0.000135199
-0.039982
-0.0191525
0.162382
2.45397e-05
-0.000116638
0.165868
-0.00259861
-0.0972042
-0.0356377
0.00352106
0.000497065
-0.0556599
-0.0538086
0.170528
-0.0477579
-0.00151715
-0.011355
-0.0489875
-0.00060488
-0.000252523
-0.000936298
-0.0531637
-0.0444273
0.0585275
-0.000220776
0.664633
-0.0931834
0.000122001
-0.00102042
0.000263018
0.000298714
-1.47924e-05
0.000145789
-0.0452762
-0.00075439
0.000453661
-0.000208137
0.144001
-0.0058215
-0.000203002
-4.63251e-05
0.310097
-0.020435
-0.0823698
0.00115619
-0.000758357
0.0417254
-0.000102872
-0.0146134
-0.179308
0.0022608
-0.00693821
-0.000101008
-0.000217259
-0.0286909
-0.0731813
0.00751171
-0.152621
-0.085927
-2.91298e-05
0.0219589
0.033244
0.109647
-0.00176756
-0.000164188
-0.0496061
-0.00614911
-0.000523834
-0.0431073
-0.000143902
0.0271113
-9.27508e-05
-0.0013102
-0.0995784
-0.00223829
-0.0505766
0.57446
-0.00171769
0.000286623
-0.0508858
-0.0569239
0.00914241
0.00491611
-0.000158108
-0.0286568
-8.79291e-05
0.207377
0.842296
0.0119315
0.00315311
0.00372421
-1.92694e-05
-0.0263119
-5.97711e-05
-0.00843779
-0.00175109
0.000385989
-0.00342812
-0.0100122
-0.000128119
0.000903033
-0.00934916
-0.000326928
-0.0106254
-0.0158391
-0.0150554
-0.00122341
0.740941
-0.000729119
0.00252421
0.000255557
0.0143941
-0.0431808
0.0098745
-0.000185375
-0.000104003
0.00267905
-0.000114398
-2.99185e-05
-0.0120761
0.000724821
-2.48044e-05
-0.0448715
-0.00243906
-0.0477051
-0.00169298
-7.07144e-05
-0.00319277
-0.0137804
-0.0150984
-0.0263002
0.00241411
0.000543939
-0.000483271
-0.00199095
-8.24638e-05
0.290372
0.00161777
-2.02852e-05
0.000600443
-0.00209458
-0.000373369
-0.0541336
-0.046899
-0.000136385
-0.00699959
1.4074e-05
-0.00283113
-7.63272e-05
0.0360054
-0.000146316
-0.000193779
-0.00379277
-2.39854e-05
0.0140034
-0.000233856
-0.00129385
0.0195291
1.29409e-05
0.428492
-0.0471172
-0.0373994
-2.5711e-05
-2.15302e-05
0.00190444
-0.00121227
-0.0473722
-1.75008e-05
-2.18737e-06
0.000765478
-2.88845e-06
0.00039369
0.000467821
-0.000473668
0.000816845
-0.045697
0.577558
-0.0353321
0.350371
0.00938656
-0.0171622
-1.89122e-05
-0.000902747
-0.0119929
0.000150357
0.000295631
0.00017572
0.00756763
-0.00143601
-0.00022643
0.638022
-0.000561174
0.000604013
0.000522449
-4.56873e-06
-0.106055
-0.00224491
0.00117626
0.000131518
-0.000566128
-7.06833e-05
-0.000995633
-0.0395043
-0.000428044
-0.00171087
-1.27659e-06
-0.0010418
-0.000270295
0.202873
-0.000454157
-0.000286022
-0.0590142
0.00389967
-8.84772e-05
-0.00136305
-6.37233e-05
0.18257
-0.0632568
-0.000313166
-0.000397646
-0.00204649
-0.000162847
0.0529362
0.0921668
-0.0132203
0.000526564
-6.90347e-06
-7.43008e-07
0.0375511
0.00026344
-0.0525163
-0.0284392
-0.0157308
-0.151055
0.754417
0.00201675
0.153231
-0.0145641
-0.0271833
0.186117
-0.000366983
-0.0568067
-1.30658e-05
-0.0089006
-0.0425442
5.7466e-05
-0.0490629
-0.000967723
-0.0157838
-0.00588392
-0.0375404
-0.0378323
-0.00346108
-0.0563792
-0.038299
-0.000192796
-0.0118692
-5.38825e-05
-0.0338114
-2.8694e-05
-0.000191928
0.00404166
0.175855
6.61109e-08
-0.0406852
0.00365722
7.91991e-05
-0.0209751
6.18886e-06
-0.0131862
-0.000266057
-0.0341889
0.00013312
-8.93963e-05
-0.00209471
-4.92003e-05
0.17083
-0.0283126
0.0179809
-3.08099e-05
0.00065146
-0.0297688
7.05556e-07
-0.0500957
-0.0571369
-0.0481507
0.670612
-0.00644953
-1.78114e-05
0.0260543
-0.0372714
-0.00267358
-2.56245e-05
-8.75966e-05
-0.0416503
0.00013287
0.000904156
-2.93567e-07
0.000166044
-0.025966
-0.0409268
-0.0848431
0.0815016
-0.00532204
-9.00993e-07
0.00577255
-0.0511439
-2.12264e-05
-1.4091e-05
0.000333134
6.70976e-05
0.000420932
0.0569903
0.0350589
5.84872e-05
1.15344e-05
-0.0560901
0.218334
0.17995
-4.60682e-05
-0.0330859
-0.0195395
-0.0109198
-0.0419952
-0.00894177
-0.00291104
0.149819
-4.20686e-05
-0.0247373
0.178674
-0.0435063
-1.7474e-05
-0.0524749
-0.000179229
0.154681
0.0261114
-1.42417e-05
-2.78539e-05
0.182878
3.44168e-06
-0.000187467
-0.0114488
1.35629e-05
0.224219
0.00317748
-0.00728696
-0.0536117
-0.00376183
-0.0786144
0.196956
-0.0162018
-0.0633524
0.00103521
-1.96446e-05
-0.00104727
-7.89457e-06
-1.61152e-05
0.0135991
0.19667
0.160226
-0.000448344
0.279957
-0.0132966
7.91788e-06
-0.0400217
-1.76669e-05
-0.0261219
0.0273337
-0.0148489
0.00449961
0.00190905
-0.0090615
0.000259648
-0.00168852
0.0178943
-0.002853
-4.88511e-05
3.07142e-05
-6.23959e-05
0.0321637
5.72805e-05
-0.0231312
0.297169
-0.00598494
5.2628e-05
-0.00345322
-1.00622e-05
-0.021594
-0.000363117
-6.64484e-05
-8.64045e-05
-1.3114e-05
0.233376
-0.000155917
0.216172
-0.055002
0.000117463
-0.0486317
-0.0004988
0.168351
0.66051
-0.00140701
2.46621e-06
1.65903e-05
-2.11956e-05
0.10247
4.78982e-07
0.00107206
-0.0227024
0.210853
6.93361e-06
1.56536e-05
2.86719e-06
2.59433e-05
-0.019537
1.74619e-06
0.108706
-0.0162217
-0.000124099
3.10587e-05
-0.0020533
-0.0259771
1.17089e-06
-5.72276e-05
0.179002
3.52779e-05
-0.0293958
-0.0678351
0.0001379
5.73362e-07
-0.16549
1.07118e-06
0.159684
1.52272e-05
-0.000451425
1.19635e-05
-0.000177309
0.0947171
3.23383e-06
-0.00164421
8.51362e-06
0.0107519
-0.00339183
-0.00628202
0.000516947
0.164782
-0.00027414
-8.14123e-05
-0.00863785
-0.00833986
-0.000245113
-5.41662e-05
-0.000901381
4.13178e-05
0.0627498
-0.0103647
0.616557
-4.78088e-07
-0.00747061
-0.000158582
0.113327
5.84604e-05
-0.0252118
2.41937e-05
-0.00157841
-0.0306484
-0.000232372
-0.015074
-0.0443447
0.0049488
-8.68416e-06
-0.056528
-0.000336578
-0.000300986
-0.00544357
-0.0178406
0.00128804
-4.97764e-05
-0.000438398
-0.000943398
-0.00127416
1.37248e-05
-0.00120575
0.630362
0.000100416
-0.00323386
-0.0317679
-0.0612266
-0.0549195
-0.0422026
-0.0205762
-0.000539198
-0.0187939
7.88443e-05
-8.22693e-05
0.62149
-9.50756e-05
0.134531
-0.000452835
0.000407286
-0.00112981
-0.0915336
-0.000420507
0.000431761
-1.51365e-05
-0.000394403
-1.5218e-05
-8.02689e-05
-0.014005
-0.000110851
-2.69426e-05
-8.36301e-05
0.000150193
-9.98887e-06
-0.0391463
0.0782266
-9.84485e-06
-0.000604849
3.14825e-05
3.20903e-05
-0.000832207
9.54669e-06
-0.000903231
0.000289598
-0.000368981
-0.0550313
-0.000692369
-0.00182366
5.0381e-06
-0.00162063
0.000346911
-1.51792e-05
-9.6999e-06
1.38781e-05
-0.000794215
0.000550778
-0.0402917
-0.0264589
-0.0550928
0.000543292
-0.0019447
-0.0633925
-0.0553615
-9.50266e-05
0.0141291
0.00671241
-0.00104888
-0.0113829
-0.0477037
0.519753
-0.000417642
-1.50288e-05
0.000888165
5.09158e-05
1.84265e-05
0.0761225
0.00351412
0.0885844
-0.0376816
0.520536
-0.000526486
2.32792e-06
0.000156454
-1.80338e-05
-0.00137059
0.134749
0.244492
-5.10347e-06
-0.000172848
-1.71603e-05
0.228974
0.0109492
-0.00688433
1.21225e-05
2.00847e-05
0.00725961
-0.00069757
-0.0630228
-0.0159223
2.50768e-05
0.00350091
-0.0300369
-6.05021e-05
0.00181025
-6.76396e-05
-0.0405023
-0.00172775
0.134363
1.7114e-05
0.00169001
-0.000323473
1.55919e-05
0.000177958
-0.0214994
1.51961e-05
-0.000912191
2.34574e-05
-0.0184579
-0.0395987
-0.003236
-0.00798246
-0.00822938
0.00910313
-0.00841379
-0.00242713
6.95109e-05
0.000108127
2.12565e-05
1.85978e-05
-5.65866e-05
0.00886232
-0.0543072
0.000503833
-0.0474819
-0.00302264
-0.0510732
8.98075e-05
-2.20025e-06
0.00132063
-0.131533
1.86752e-05
-0.0459991
-0.0143848
-0.107893
-0.0492458
2.76214e-05
-0.00338764
0.000199764
-0.188608
0.139297
1.2009e-05
-0.0534077
-0.0215472
-0.00413969
3.92472e-05
-8.48046e-06
0.0173374
-0.0153983
2.48888e-05
-0.00654592
-4.16331e-06
0.000222162
0.121872
-8.26518e-06
3.57475e-06
-8.6333e-05
3.57607e-05
0.000910359
8.97913e-05
-0.00511098
0.000240544
-0.0119827
0.00111469
-0.000206503
-0.0323038
-0.0387259
-0.00607796
-1.51439e-05
2.20854e-05
-0.0623285
0.00574711
-0.0421216
2.9423e-05
-0.00501302
-3.6589e-05
2.50766e-05
0.0570148
-0.00670514
-0.00272822
-1.01749e-06
-0.0167581
5.07797e-05
-0.0582546
2.75627e-05
-0.0654183
1.97607e-05
-5.80318e-06
8.7032e-05
0.00103834
-0.118929
-0.0166615
-0.0622629
1.6415e-05
9.69791e-05
-0.065701
-0.0278477
-0.00800567
-4.58422e-06
-0.0505147
-0.0470618
-0.0652526
3.71526e-06
-7.46741e-06
5.23166e-06
-0.106205
-0.0610438
0.000733334
-0.0104076
-5.60724e-05
0.0841364
9.75927e-05
1.48155e-05
0.000154295
-8.38074e-06
-8.2565e-06
-0.00353287
0.000116462
-0.00251658
-0.0592562
-0.0122198
-0.0487153
4.12532e-05
-5.13036e-05
0.0392441
-0.0640168
-0.00457433
0.109934
5.53523e-06
-1.31203e-05
-1.19957e-05
0.0269357
0.000177279
-5.35435e-07
-4.38499e-06
-0.0598928
-0.0143909
5.95778e-06
7.96186e-05
-0.00882934
-0.00616815
0.000437006
0.244454
-0.0560827
0.000112729
0.854874
-1.78741e-05
-0.000689517
-0.00858574
-0.0630707
6.69414e-06
-2.22476e-06
2.20961e-05
0.00476313
-0.0334186
-0.000336113
-0.0442428
-0.00733454
2.78059e-05
-4.52774e-06
-0.00956157
-0.0112102
-0.0449627
-0.111054
-0.0396147
-0.0348441
-0.0400684
-0.0257121
-6.30733e-05
0.000361212
-0.00722906
0.000537884
-7.91325e-05
0.000773751
3.21012e-05
-9.14755e-05
-0.0113598
-1.18917e-05
-2.80716e-05
0.0268668
-0.0448371
-0.000162973
-3.97512e-05
-5.22372e-06
0.272968
-0.00637236
0.000792398
-0.0263632
0.000232639
0.000202588
0.000176221
-4.8504e-05
0.000491169
-0.0347128
0.0129916
-8.94996e-06
-0.000164233
-0.0389299
-0.0311877
0.0483068
-0.000488228
0.00183965
0.0176465
2.28007e-06
6.2626e-05
-0.0484668
2.29294e-05
0.172889
8.78909e-06
0.00420552
0.000170716
0.000227613
-0.059261
-0.00702911
-0.0167266
-0.00233692
2.70886e-05
0.00577473
0.0606056
-0.0116849
-0.000134401
0.0937783
0.167414
3.67497e-06
-0.0459373
-6.64431e-05
-9.89197e-06
-4.43852e-05
-0.000563114
0.0196207
-5.50897e-06
0.000251775
-0.022822
-0.0236391
-0.0202045
0.352357
1.8204e-05
-6.88073e-05
0.178609
-0.0106958
-0.00368312
-0.000647184
0.175212
4.51004e-05
-0.000318071
4.73521e-05
2.72701e-05
3.22482e-05
3.68065e-05
7.53455e-05
-0.0162635
8.82853e-06
-0.00325243
-0.0391496
0.220865
-0.000145003
-4.92614e-05
0.00470228
0.0839349
-0.0486188
-0.000744473
-0.0601585
0.345566
4.42523e-05
0.475928
-4.17769e-06
0.00331801
0.0238661
0.000443332
0.536434
-1.42411e-05
-5.85174e-06
0.00115917
3.18595e-05
-0.000851739
0.000267919
1.14925e-05
-0.00191004
1.04863e-05
-0.000144667
-0.00319585
0.262427
0.0453996
0.0217514
-0.0382817
-4.88188e-06
-1.77623e-05
0.00335606
-0.0560104
-9.32585e-06
-0.040936
-5.33085e-05
0.102582
0.0606724
-0.0311554
-0.00132722
-0.0118861
-0.000963257
-0.0137726
0.00281907
-0.00734106
0.0606051
2.2394e-06
0.126117
-0.00473882
-0.000602946
0.208592
-0.0126136
-1.21957e-05
2.40977e-05
6.79076e-05
-0.0002091
-0.000122269
0.270695
-0.00096399
0.274008
-0.00110588
0.173228
0.214746
0.0463488
-0.00675206
-4.73191e-06
6.53306e-05
-0.00997125
-0.147458
-0.0454182
0.00149946
2.11093e-05
-0.0338776
-0.000328699
6.20013e-06
0.00101899
-0.00104751
-0.00067659
0.0322483
7.71544e-05
-0.0420712
0.0535545
5.93851e-05
0.000272056
-0.0142216
-0.0566457
-0.00071986
-0.000514528
1.38046e-05
0.00025465
-0.00352479
-0.0164516
-0.0452881
0.00131765
0.037756
-0.0357904
3.70266e-05
2.34877e-05
-0.00322452
-9.04566e-05
0.0315136
-0.000493505
-0.0126406
-0.000379561
0.00162536
-0.0342416
-3.58449e-05
0.000496251
-0.00737136
-0.0645368
0.103711
-0.0537513
-0.0252369
-0.000166919
-4.52327e-05
0.00672826
4.72943e-05
-0.0638023
-0.0601247
0.00057104
0.00332687
0.00379026
-0.116529
0.00064692
0.000193101
3.88433e-05
-0.0384463
2.91763e-05
0.00056538
0.123116
0.188023
-0.137347
0.0486953
0.046493
0.000147387
-0.000162974
0.00976108
0.000126045
8.7229e-06
-7.50839e-05
-3.99764e-07
2.63031e-05
-0.000353171
-0.00734528
-0.0768887
-0.009329
-0.0288984
0.0505843
0.0427477
0.00405424
-0.0590933
0.000164377
0.0045169
0.0110112
-0.000383733
0.0693809
-0.00129439
-0.0106422
0.0113167
0.00550989
0.00090741
-0.00391594
0.0393858
0.00082627
-0.0185003
-0.0157013
0.657245
-0.0238679
0.0761529
-0.00657306
-0.0377709
0.00219658
0.000103153
-0.00248403
5.72556e-05
-0.00256283
-0.0240891
-6.91989e-05
-4.88628e-05
0.218691
-0.003212
-0.0380255
-0.0175135
0.000206628
-0.00153519
-2.25843e-05
8.13229e-06
0.0340168
4.13672e-05
-0.00285366
0.0687496
0.00610359
0.00113123
0.0175365
-0.00556874
0.00413259
-0.145163
0.000866959
-0.00431384
-0.0509029
-0.000856461
-0.00777783
0.000748307
0.000379584
0.000995261
0.0320083
-0.000325069
0.005612
-0.0477294
-0.0196712
0.000309163
-0.0469636
-0.0141981
-0.0159635
0.000104994
0.0065765
-0.0700701
-0.00082763
-0.00474782
-0.0431972
-0.000480301
-0.00114448
0.219139
-0.0224482
-4.09047e-05
0.00820916
-0.0487669
-0.00103066
0.207194
-0.00231503
0.00101574
0.0595539
-0.00139529
0.0081535
0.131767
5.71207e-05
0.00117761
0.000180352
3.65543e-05
-0.00436158
-0.00739267
-0.000139115
-0.0225963
0.0915687
-0.0333775
-0.0730136
0.00116463
-0.00318422
-0.000632002
-0.0624314
2.79742e-05
0.0141812
4.40156e-05
-0.0149123
-0.00190101
-0.0047962
-0.145095
0.100944
-0.0815225
-5.25284e-05
0.164308
-0.00196981
-0.0027505
-0.0518891
-0.0859893
-0.0149664
-2.92893e-05
-0.00116827
0.0071778
-0.00301264
-0.00458622
0.00043174
0.0832084
-0.0433879
-0.0106378
-0.00640547
0.0151565
-0.00351006
-0.00189175
0.00170835
-5.0185e-05
-0.00299882
0.10109
0.000790785
-0.159362
-5.68346e-05
-0.00701813
-0.00387202
-0.094999
-0.0110798
-0.118739
-6.37495e-05
-6.17382e-05
-0.00537861
0.0104291
0.00175795
-0.142345
0.0735091
-0.0449181
0.000189664
-0.16351
4.0187e-06
-0.17502
-0.0238801
-0.213605
-0.222613
-0.226989
-0.216071
-0.183637
-0.169834
-0.156683
-0.142896
-0.122203
-0.0752795
-0.0570714
-0.035845
0.0259326
-0.00770374
-0.00719193
0.042883
-0.0203069
0.000894148
0.00965419
-0.0373734
0.000500564
-0.000710461
-2.74463e-06
-0.0137677
0.017576
4.5153e-05
-0.000334258
-0.00994465
-0.0106331
-0.207345
-0.0155917
-0.051078
-5.53592e-06
0.000567176
-5.15833e-05
-0.0619072
-0.00857598
-0.0345631
-0.012419
0.00171359
0.000216744
0.00469047
-3.24993e-05
-0.0203813
-1.49559e-05
0.000373116
-0.00754609
-0.0108889
-0.000323667
0.00033003
0.0486547
-0.0100618
0.0504014
-0.19216
-0.00984484
-0.0937574
-0.0176974
0.00363527
-0.0202583
-0.0031911
-0.0118356
-0.0127541
0.398891
-0.00138111
6.96226e-05
-0.00565344
-0.00878248
3.20069e-06