/*--------------------------------*- C++ -*----------------------------------*\
  =========                 |
  \\      /  F ield         | OpenFOAM: The Open Source CFD Toolbox
   \\    /   O peration     | Website:  https://openfoam.org
    \\  /    A nd           | Version:  7
     \\/     M anipulation  |
\*---------------------------------------------------------------------------*/
FoamFile
{
    version     2.0;
    format      ascii;
    class       volVectorField;
    location    "9";
    object      U;
}
// * * * * * * * * * * * * * * * * * * * * * * * * * * * * * * * * * * * * * //

dimensions      [0 1 -1 0 0 0 0];

internalField   nonuniform List<vector> 
19930
(
(0.996625 -0.000382134 -6.84148e-23)
(0.986398 -0.00100768 1.98749e-21)
(1.02508 -0.00321074 -2.57247e-22)
(1.00032 -2.30251e-05 -3.42245e-25)
(1.00089 -0.00836071 6.8507e-23)
(1.00059 -0.00885799 -6.63006e-23)
(1.02037 -0.143089 -9.57931e-22)
(1.16791 0.0614172 -3.55779e-20)
(1.00362 -0.0718953 -2.52882e-21)
(1.17404 0.0578898 2.54825e-20)
(1.03166 -0.131978 -2.48061e-21)
(1.28642 0.0105445 -1.18284e-21)
(0.988415 -0.0465601 -5.57972e-22)
(0.996575 -0.000451532 5.03641e-23)
(0.996271 -0.00331436 2.72388e-22)
(1.00031 -3.31222e-05 -3.5148e-25)
(1.24688 -0.109265 1.96563e-21)
(1.13793 -0.00238974 -2.03746e-20)
(0.998416 -0.105563 -2.17004e-21)
(0.989004 -0.000504222 -1.74405e-21)
(1.01283 -0.0834157 2.88529e-21)
(1.28457 0.0138747 -1.97359e-21)
(1.18128 0.0621387 -1.89999e-20)
(1.08835 -0.181911 -1.53504e-21)
(1.02302 -0.00113938 1.47601e-23)
(1.00961 0.157797 -6.28465e-20)
(1.00863 -0.0024782 -1.38016e-22)
(0.995365 -0.0503635 1.67814e-21)
(1.12896 -0.187388 -9.37963e-22)
(1.00022 -0.107022 7.28088e-21)
(0.998916 -0.00214131 -3.70026e-24)
(0.872268 0.0366757 1.01835e-19)
(1.24863 0.0664465 1.38269e-20)
(0.993967 -0.0297694 1.8151e-22)
(1.0001 -0.00157396 8.85693e-24)
(0.998979 -0.00230179 -1.32182e-23)
(1.17496 0.0874956 -3.80131e-20)
(0.999825 -5.56956e-06 9.6856e-25)
(1.01389 -0.0177994 -1.45306e-22)
(1.14417 -0.0104293 -7.10058e-21)
(1.03873 -0.00822756 7.445e-23)
(1.25335 0.126903 2.41796e-20)
(1.06432 0.0650293 -1.75627e-20)
(1.00776 -0.00295275 1.1503e-22)
(1.00733 0.151218 2.50691e-20)
(0.97154 -0.00188943 1.16972e-21)
(1.13134 0.00516519 -5.69099e-20)
(1.27134 -0.0493806 -5.85238e-21)
(0.999581 -0.000110818 4.54669e-24)
(0.978407 -0.0409155 4.02867e-22)
(1.00002 -0.00166933 -2.27303e-23)
(1.0735 -0.00949515 6.16404e-21)
(1.1509 -0.140218 -1.34646e-21)
(1.00046 -0.00363106 -2.45924e-23)
(1.17992 -0.155323 -1.31295e-22)
(0.955668 -0.017914 -5.60851e-22)
(0.982534 -0.0280079 9.93101e-23)
(0.998813 -0.00274744 8.10504e-24)
(1.00907 -0.0431401 -9.14643e-22)
(1.24616 -0.104112 -1.38448e-21)
(0.950843 0.0596374 5.40882e-20)
(0.9649 -0.0050803 1.77424e-21)
(0.98971 -0.00364937 -4.61748e-22)
(1.1853 0.0470864 -1.62699e-21)
(0.999283 -0.000127267 -2.98469e-23)
(0.996241 -0.00760716 3.5453e-24)
(1.0014 0.10568 1.61032e-21)
(0.995797 -0.00795106 1.41211e-22)
(1.10593 -0.0871094 6.34682e-21)
(1.02197 0.157174 2.3316e-20)
(1.03683 -0.0401161 2.0207e-21)
(1.23811 -0.131868 1.3021e-21)
(0.996627 -0.00330523 -5.33006e-23)
(0.987077 -0.0345822 2.14607e-21)
(0.999281 0.0335907 -2.38437e-20)
(1.06338 -0.084236 -1.63956e-21)
(1.01901 0.145995 1.07977e-20)
(0.954684 -0.00596672 4.8889e-22)
(1.14178 -0.0099223 4.44509e-21)
(1.00883 0.0585166 3.4304e-20)
(0.997066 -0.00789094 3.52588e-22)
(1.00221 -0.00424405 1.01934e-23)
(1.11409 -0.183506 7.74425e-22)
(1.00465 -0.0698443 2.09705e-21)
(0.966992 -0.00406291 -1.9535e-21)
(1.05981 0.0617873 8.46269e-20)
(0.990852 -0.0436242 -1.06238e-21)
(0.796622 0.11763 9.67758e-21)
(1.17858 0.0450383 -1.55363e-20)
(0.981934 0.167309 4.03638e-20)
(1.14782 0.0151465 -2.18568e-20)
(1.00037 -5.92468e-05 -3.25029e-25)
(1.00007 -0.000300566 8.28479e-24)
(0.875967 0.0126725 -2.88159e-20)
(1.2717 -0.0557693 3.02252e-21)
(0.990283 -0.00379938 -2.86973e-22)
(0.89746 0.00815131 4.40782e-20)
(0.999673 -0.00434679 3.20724e-23)
(1.03596 -0.128617 -9.40386e-22)
(1.10654 0.0173527 -2.21511e-20)
(0.976693 0.173688 -1.19693e-19)
(0.978913 -0.0105635 1.45131e-22)
(0.955553 0.162081 -1.32087e-19)
(1.1437 -0.126758 -4.93358e-21)
(1.10583 -0.00364369 -1.40949e-20)
(1.08714 -0.0871887 -4.40849e-21)
(1.07469 0.160346 4.27753e-20)
(1.13902 -0.107455 -4.41506e-21)
(0.985691 -0.000611616 -2.14554e-21)
(1.11568 0.169382 9.41757e-21)
(1.13432 -0.192366 -3.06908e-21)
(1.01665 -0.141858 -2.27817e-21)
(0.981726 -0.0223274 9.79372e-22)
(1.0313 -0.0208082 -1.59724e-21)
(1.06617 -0.0785756 -1.17642e-21)
(1.0001 -6.51791e-05 -1.38271e-24)
(1.10036 0.0997881 4.06291e-20)
(0.997556 -0.00738322 -1.30606e-22)
(1.13424 -0.134272 -5.6486e-22)
(1.00728 0.051214 -8.08381e-20)
(1.00036 -3.75548e-05 -8.91418e-26)
(1.02233 -0.0879532 1.37374e-21)
(1.17015 -0.00845859 -9.2499e-21)
(1.00951 -0.0491293 -1.27177e-21)
(0.993846 -0.0282557 -2.25901e-22)
(1.13931 -0.00287783 1.06407e-20)
(1.27805 0.0426601 -3.05994e-20)
(0.995211 -0.0485565 1.41224e-21)
(0.860008 0.0434677 -2.98495e-20)
(1.09541 0.105504 2.16955e-20)
(0.99175 -0.0555352 -1.30297e-21)
(0.978121 -0.0394382 -1.21331e-21)
(1.03884 -0.00424806 8.39445e-22)
(1.01317 -0.0162895 3.67709e-22)
(1.06078 0.152726 -5.86415e-20)
(1.10084 -0.0073657 -4.12821e-21)
(1.26802 -0.0287163 -7.72032e-21)
(1.01532 -0.084235 -1.25907e-21)
(0.983603 -0.0104777 1.27859e-21)
(0.99234 -0.0727252 5.57885e-21)
(1.01873 -0.090103 3.23287e-22)
(0.985739 -0.0356543 -2.1018e-21)
(1.23452 -0.13996 1.10983e-21)
(0.951473 0.178973 -4.16677e-20)
(1.20548 -0.0655282 4.84222e-21)
(1.06098 0.158722 5.30585e-20)
(1.28274 0.0766572 -3.39698e-21)
(0.972523 -0.0113294 -1.26402e-21)
(1.27244 0.0313225 -2.19317e-20)
(1.00966 -0.00331403 3.07857e-22)
(0.971809 -0.0104696 2.55208e-21)
(1.02365 0.152996 2.71142e-21)
(1.00008 -0.000253382 -5.2286e-24)
(1.00367 -0.0647639 8.24281e-22)
(1.00214 -0.00381011 -2.51607e-23)
(1.28413 0.0825979 1.81156e-20)
(1.05412 0.0661816 -8.98904e-21)
(1.08505 -0.177516 6.232e-21)
(0.952489 -0.0204997 1.02118e-21)
(0.987661 -0.0476106 1.18699e-21)
(1.18115 -0.163879 2.76548e-23)
(1.02451 -0.139342 1.45323e-21)
(0.998773 -0.00254411 -1.16511e-23)
(1.20619 -0.0596993 -7.54533e-21)
(1.1281 -0.00804753 -2.11526e-21)
(0.804689 0.122213 2.30454e-20)
(0.980025 -0.0106557 1.00859e-21)
(1.10754 -0.187081 3.43073e-22)
(1.05937 -0.0851014 1.89737e-21)
(1.17228 0.0832085 -2.26251e-20)
(1.27001 -0.0319009 2.56231e-21)
(0.990278 0.121302 2.49199e-20)
(1.1703 0.177705 6.09808e-20)
(0.991513 -0.0260771 4.24703e-23)
(0.797434 0.035244 -3.46535e-20)
(1.25212 0.0623672 1.67393e-20)
(0.996535 -0.000812367 7.80425e-23)
(0.974075 0.017266 -6.35828e-20)
(1.07214 -0.0782801 -7.49768e-23)
(1.10791 0.182964 1.83858e-20)
(1.0574 0.17223 -2.69897e-20)
(0.999755 -9.90647e-06 -1.27068e-24)
(0.937314 0.124816 1.73661e-21)
(1.14815 0.1544 5.27594e-20)
(0.98834 -0.000794435 1.13103e-22)
(0.948094 -0.0153884 5.9333e-21)
(1.03653 -0.0375144 -1.34872e-21)
(1.11293 0.0113462 -5.66839e-21)
(1.13728 -0.128844 1.3667e-21)
(0.869143 0.102555 3.01482e-20)
(1.27247 0.0424508 -1.07491e-20)
(1.21833 -0.105816 2.67254e-21)
(1.10169 0.0130833 4.45088e-20)
(1.10723 -0.0812892 5.53733e-21)
(0.953498 -0.0214108 2.50479e-21)
(1.26336 -0.00320879 -1.41118e-20)
(0.94027 0.131047 -1.99012e-21)
(1.25006 -0.07165 -9.74421e-21)
(0.990698 -0.000319348 1.11962e-23)
(0.860335 0.101972 -2.95656e-20)
(1.24892 -0.0386838 -1.92144e-20)
(1.1987 -0.142014 -9.98992e-22)
(1.15267 -0.133913 3.10765e-21)
(0.886698 0.115158 -3.62391e-20)
(0.92114 0.11693 8.42191e-20)
(0.970636 -0.0231326 -9.91146e-22)
(1.00091 -0.0364251 -1.21493e-22)
(1.07375 -0.00563015 -8.47391e-22)
(0.956461 -0.0191874 -2.55101e-21)
(0.998301 -0.000172305 -8.28006e-23)
(1.00507 0.107873 -1.17204e-20)
(0.97486 0.0454373 -2.27949e-20)
(0.972573 -0.0139555 1.84524e-21)
(0.963785 -0.0311803 1.29483e-21)
(1.10783 0.175643 2.79994e-20)
(0.998076 0.0468287 3.61475e-20)
(0.998022 -8.10191e-05 2.78758e-22)
(1.00448 0.0472824 -5.47961e-20)
(1.14428 -0.104786 -2.11695e-21)
(1.0142 -0.0143489 -8.14938e-22)
(1.00414 -0.0525907 1.39821e-22)
(1.07014 0.104846 -4.39877e-21)
(0.935699 0.20306 3.91176e-20)
(1.14479 0.0138681 2.88798e-20)
(1.11361 0.160467 -4.56232e-20)
(0.982508 -0.0104701 -2.16449e-21)
(1.00277 -0.0360142 -5.17653e-22)
(1.00014 -7.44981e-05 4.42281e-26)
(0.998576 -6.21944e-05 -9.69228e-23)
(1.00075 -0.00702853 1.37176e-22)
(1.16602 -0.00921168 4.331e-21)
(1.10586 -0.125813 3.63832e-22)
(1.07576 0.15405 -5.45732e-20)
(0.998267 -0.0851117 1.57396e-21)
(1.04295 0.0545023 3.27963e-20)
(0.992099 -0.0421797 -1.92229e-22)
(1.08238 -0.0825439 3.12252e-21)
(0.9939 0.117745 4.41226e-20)
(0.881335 0.00982983 1.49443e-19)
(1.06979 0.0983508 7.66728e-20)
(1.02224 0.140143 -6.66515e-20)
(0.962408 -0.0305996 -1.16482e-21)
(1.22761 0.121161 -1.53712e-20)
(1.01048 -0.0477302 1.37077e-21)
(1.11016 -0.00661414 2.82818e-20)
(0.997389 -0.0066952 -2.50377e-22)
(1.21214 -0.161497 -2.79618e-22)
(1.15896 -0.0856228 1.14688e-20)
(1.08137 -0.0290997 9.59594e-21)
(0.999594 -8.24651e-05 -5.56704e-24)
(0.983595 -0.000851998 2.49176e-21)
(0.92785 0.208974 -6.02995e-20)
(1.20694 -0.00540525 6.20048e-20)
(1.01332 -0.0192192 4.49985e-22)
(0.975839 -0.0441695 -2.08708e-21)
(1.10202 -0.120795 -3.2221e-22)
(1.04641 -0.157454 3.27423e-21)
(1.24817 0.133234 -3.09152e-21)
(0.993389 -0.072 -1.50325e-21)
(0.967193 -0.00234646 -2.11308e-21)
(0.997011 -0.0570688 1.83159e-21)
(0.994524 -0.0251199 -2.32771e-22)
(0.999156 -0.000104888 3.88212e-24)
(0.991319 -0.0403012 9.67604e-22)
(1.02747 -0.140017 -7.31554e-22)
(0.948605 0.171867 7.8814e-20)
(1.26257 -0.0765032 4.56662e-21)
(0.983125 -0.0213059 -1.93202e-21)
(1.03945 0.0577331 -5.07077e-20)
(0.925877 0.125015 -1.00675e-20)
(0.991369 -0.0452989 2.26267e-22)
(1.00065 -0.000256466 6.37625e-24)
(1.0028 -0.0671397 -1.50955e-21)
(1.00054 0.0992423 1.36141e-20)
(1.18613 -0.182183 -8.74797e-22)
(0.954363 0.0550295 -8.14624e-20)
(1.00006 -7.7538e-05 7.94841e-25)
(0.965437 -0.0339465 2.12001e-21)
(1.15056 0.191709 4.98144e-21)
(0.999265 0.0465628 7.30087e-20)
(1.02564 -0.066702 -7.48411e-23)
(0.983686 -0.0267813 1.17913e-21)
(0.895172 0.190578 6.47414e-20)
(1.19932 -0.127413 -6.32659e-22)
(1.21126 -0.105566 -1.9762e-21)
(0.963919 0.163054 5.41446e-20)
(0.875938 0.114737 -6.16591e-21)
(0.990203 -0.0467464 -6.40324e-22)
(1.15155 0.197694 -3.24059e-20)
(1.15658 -0.0352286 -1.31295e-20)
(1.01196 0.0580604 -9.36833e-20)
(1.12655 0.0997918 2.42188e-20)
(1.00068 -0.00019113 -9.37926e-24)
(1.26808 -0.0782451 -3.77089e-21)
(1.16175 0.0844413 1.37151e-20)
(0.996287 -0.000736509 2.54074e-22)
(0.996632 -0.0893858 -6.17659e-22)
(1.24359 -0.0617283 -4.00156e-21)
(1.09842 -0.177301 -9.62017e-22)
(1.24383 -0.0409416 1.09685e-20)
(1.17187 -0.0717721 -6.36351e-21)
(1.00013 -0.000159095 -8.17728e-25)
(0.99972 -0.00309311 8.75217e-23)
(0.990819 0.191225 -9.50268e-20)
(1.0015 -0.0123848 -3.92892e-23)
(1.00354 -0.106764 -1.61749e-21)
(0.992206 -0.0597523 2.03671e-22)
(1.27932 0.0145652 -1.15568e-20)
(0.968054 -0.00499741 -3.4936e-22)
(1.11268 0.187274 3.19539e-20)
(1.20867 -0.0450084 1.58785e-20)
(0.994963 -0.0573869 1.1273e-21)
(0.952428 -0.00703764 -1.38067e-21)
(1.17493 0.0752592 2.42107e-21)
(1.25565 0.00367534 1.07178e-20)
(1.00009 -0.000162942 -1.42627e-24)
(0.966663 0.117273 8.0261e-20)
(1.09726 0.111402 1.08173e-20)
(0.98241 0.0350682 -1.97901e-20)
(1.18495 -0.148948 3.83026e-22)
(0.999283 -9.91864e-05 2.34089e-23)
(0.897266 0.18273 -4.30266e-21)
(0.997461 -0.00469899 -2.71973e-22)
(0.994812 -0.0445535 3.84276e-22)
(1.25786 -0.00231677 -4.47668e-21)
(1.2441 -0.0689331 1.25598e-21)
(0.984905 -0.0467272 -1.77746e-21)
(1.19495 -0.134559 -1.92726e-21)
(1.0496 0.0633952 1.31051e-20)
(0.880374 0.0122767 5.40062e-20)
(1.04545 0.156244 -7.01985e-20)
(1.19302 -0.0254328 -1.91217e-20)
(0.779212 0.0462897 7.48719e-21)
(1.00035 -1.87082e-05 -1.75931e-25)
(0.992692 -0.0247614 -2.85216e-22)
(1.00036 0.0321942 9.66307e-20)
(1.14187 -0.169485 1.38284e-22)
(1.15759 0.0805779 -3.27535e-20)
(0.988855 -0.0349889 -8.30201e-22)
(1.01117 0.14593 6.67846e-20)
(1.18798 -0.0499312 1.04935e-20)
(1.00027 -0.00334825 3.28746e-23)
(1.18138 -0.050862 -9.20726e-21)
(1.09749 0.0920464 -5.23463e-20)
(1.11174 -0.164485 3.8356e-23)
(0.932786 0.0165056 -1.49308e-20)
(1.16236 0.155091 7.54591e-21)
(0.999363 -0.000337601 -6.86052e-24)
(1.03332 -0.0188374 -2.89414e-21)
(1.22177 0.0616315 1.55572e-20)
(1.14045 -0.00120004 3.90029e-20)
(0.997142 -0.000153052 -2.84858e-22)
(1.16662 0.171322 -5.46694e-20)
(1.01112 -0.042603 -6.55992e-23)
(0.77429 0.118527 -3.93871e-21)
(1.01568 -0.0884349 -2.2234e-21)
(0.971815 -0.0128397 8.20144e-22)
(0.984427 -0.000952504 -2.21869e-21)
(1.04987 0.161811 7.81082e-20)
(1.14409 0.149481 -8.42324e-20)
(0.969833 -0.00318472 9.02677e-22)
(1.16752 0.069886 8.72475e-21)
(0.979301 0.158987 -2.3273e-20)
(1.00158 -0.0133135 -2.79271e-23)
(1.07556 0.00821918 1.30867e-20)
(1.04309 0.0259973 -3.68184e-20)
(0.763678 0.0685245 4.93856e-20)
(0.997805 -0.00393786 8.48143e-23)
(1.24992 0.0231262 -2.47421e-20)
(1.15233 -0.0872955 -3.40671e-21)
(0.954071 -0.0175415 -9.07465e-22)
(0.999526 -7.50115e-05 5.73358e-24)
(0.999377 0.0189531 5.86861e-20)
(1.25996 0.127849 1.39644e-20)
(1.23472 -0.0849547 -2.22476e-20)
(1.00902 0.1861 -2.43014e-20)
(1.19132 -0.0197295 9.6487e-21)
(0.981094 -0.0276909 8.21764e-22)
(1.22512 0.112779 -1.15438e-20)
(1.12808 -0.00455083 -6.92579e-21)
(1.19977 -0.00353978 1.79607e-20)
(0.78086 0.0746365 -1.2834e-19)
(1.01878 -0.0781703 6.15373e-22)
(1.25644 -0.0130656 5.83236e-21)
(0.980215 0.0422222 -5.16228e-20)
(0.974741 -0.0448484 1.91347e-21)
(1.14472 -0.0416039 9.9909e-22)
(1.04135 -0.130012 2.15259e-21)
(1.21928 0.056305 -6.89626e-21)
(0.992316 -0.000236931 -3.31709e-21)
(1.13692 0.00496837 -6.39448e-21)
(1.23864 -0.0805991 9.54424e-21)
(1.25456 -0.0176331 1.481e-20)
(1.00125 -0.00426775 1.61797e-23)
(1.12733 0.00494481 6.02643e-20)
(0.993107 0.0333164 -4.93086e-20)
(1.09083 0.0630247 9.43911e-20)
(1.10037 -0.173782 -3.39536e-21)
(0.995559 -0.0237504 5.12568e-22)
(0.893043 0.105747 -4.21606e-20)
(0.87767 0.0416521 -1.09299e-19)
(0.99783 -0.00627714 -5.81627e-23)
(0.966818 -0.0332161 1.00055e-21)
(1.04622 0.112916 1.03711e-20)
(1.00636 -0.112147 -1.30382e-21)
(1.07622 -0.0839766 -2.60315e-21)
(1.23946 0.131137 4.71856e-20)
(0.986545 -0.000652052 2.76626e-21)
(0.749815 0.0609364 8.49799e-20)
(1.02776 -0.0601204 3.20068e-23)
(1.25128 0.035747 8.02842e-21)
(0.992147 -0.00919923 1.21527e-22)
(0.988822 0.0317098 -2.10865e-20)
(1.16461 0.147023 -1.54062e-20)
(1.08264 -0.0227028 -9.56231e-21)
(1.08645 -0.0929511 9.72518e-22)
(1.22201 -0.101895 -4.38223e-21)
(1.25028 -0.0344518 2.04409e-21)
(0.999835 -0.00472538 -3.61007e-24)
(1.03511 0.0934389 -1.91603e-20)
(1.24535 -0.13083 -3.01116e-21)
(1.17407 0.0494799 3.81519e-20)
(0.782129 0.124494 1.28525e-19)
(1.19409 -0.14982 -4.86931e-22)
(1.05807 -0.0734741 3.72467e-21)
(1.00046 -0.00761394 -1.38544e-22)
(1.2755 -0.0461484 1.2506e-20)
(1.25101 -0.0785677 5.71405e-21)
(0.980505 -0.021842 3.38481e-21)
(1.2073 0.141248 -4.87556e-21)
(1.00008 -0.00127917 -3.48249e-23)
(0.979449 -0.0365749 -4.21052e-22)
(1.0134 -0.0129299 1.17142e-21)
(1.19544 -0.120527 -4.31114e-22)
(0.992375 -0.038787 8.29197e-22)
(0.999605 -0.000143707 -2.158e-24)
(0.991129 -0.0496284 2.32591e-21)
(1.26564 -0.0082835 -7.42299e-21)
(1.11004 -0.171302 -1.06188e-21)
(1.03965 -0.0648635 1.15618e-22)
(0.969383 -0.0237175 -1.9764e-21)
(1.2378 -0.0585364 -1.3627e-20)
(1.16812 -0.065936 9.95495e-21)
(0.980578 -0.0464363 -9.41957e-22)
(0.949417 -0.00971836 4.3658e-21)
(1.00099 -0.0044695 -3.4782e-24)
(1.11053 -0.0914086 -6.69223e-21)
(1.01391 -0.12149 -1.82019e-22)
(1.0109 -0.00277866 -2.47082e-22)
(1.02879 -0.0641423 -3.13184e-22)
(1.24968 0.00500696 -1.6901e-20)
(1.09179 0.0580308 -5.77347e-20)
(1.21362 -0.0561959 3.57301e-21)
(0.999312 -0.000292296 -2.46477e-23)
(0.881705 0.203525 -9.49715e-20)
(1.01105 -0.00148285 -9.4189e-22)
(1.00001 -0.00138443 4.1758e-23)
(1.03657 -0.0099385 2.53819e-21)
(0.969961 -0.0334039 -1.60439e-21)
(1.00636 -0.0792582 1.85139e-22)
(0.925935 0.108216 -4.95937e-20)
(1.02047 -0.0491072 -3.54571e-23)
(1.15287 -0.0320414 -5.97828e-21)
(1.01261 -0.105867 2.63188e-21)
(1.00993 -0.107209 -3.56617e-21)
(1.23686 0.122874 -3.27322e-20)
(0.996471 -0.0451225 -5.80705e-22)
(0.993175 -0.0688074 1.08366e-21)
(0.998274 -0.0881947 1.31443e-21)
(0.999565 -4.8914e-05 -1.11621e-23)
(1.14533 -0.119567 3.47929e-21)
(0.85846 0.195801 -9.06216e-21)
(1.04947 -0.153254 7.89529e-22)
(0.968474 -0.0414278 -3.9906e-22)
(1.19975 0.135436 -6.18764e-22)
(0.985764 -0.044228 -1.86088e-22)
(1.12275 0.0936884 -2.0247e-20)
(1.27763 0.0311355 -2.38104e-21)
(0.99706 -0.00503162 4.17883e-22)
(0.998253 -0.000249078 6.656e-23)
(1.0859 0.103692 6.47157e-21)
(0.800864 0.151068 4.17543e-20)
(1.03718 -0.14933 2.2906e-22)
(1.27662 0.0661149 3.93098e-21)
(1.27353 -0.0134666 -1.99822e-20)
(0.97312 -0.0370334 -6.60951e-22)
(0.97314 -0.0387652 -1.52829e-21)
(1.05037 0.11752 -2.83385e-21)
(1.10057 -0.0136748 6.14071e-21)
(1.1161 -0.176795 2.33388e-21)
(1.04557 -0.125564 -1.40778e-21)
(0.973484 -0.00198273 9.43459e-23)
(1.0584 -0.0146829 4.77932e-21)
(0.883635 0.0606968 -1.88218e-20)
(1.16106 -0.0174556 -3.5933e-20)
(1.00033 -6.70992e-05 -8.75655e-27)
(0.951496 0.156102 8.51343e-20)
(1.03047 -0.0575614 1.00938e-21)
(1.00732 -0.0807863 1.97989e-21)
(1.15527 0.185463 -2.91192e-20)
(1.01577 -0.0213018 1.0282e-21)
(0.991464 -0.00884534 -3.64245e-22)
(0.999404 -0.000470275 -1.26918e-23)
(1.13929 -0.0936118 3.85443e-21)
(0.970467 -0.0186007 -1.63695e-21)
(1.00034 -2.61101e-05 1.33267e-25)
(1.28014 0.0643036 -9.72564e-21)
(1.19027 -0.176695 -4.74441e-22)
(1.03094 0.0916423 -3.32292e-20)
(0.999152 -0.000147099 8.44827e-24)
(1.00036 -0.00398611 -1.171e-23)
(0.984848 -0.0452883 -8.45542e-22)
(1.00002 -6.01406e-05 4.65078e-26)
(1.03709 -0.153304 -1.20623e-21)
(1.13082 -0.179275 -9.73063e-22)
(0.999836 -0.00399543 1.91267e-23)
(1.00646 -0.0641192 -5.54415e-22)
(0.949335 -0.015195 1.38034e-21)
(1.13995 0.167038 -3.25309e-21)
(1.00404 0.184931 1.96575e-20)
(0.997409 -0.00429155 8.58708e-23)
(1.00303 -0.00103297 -5.20939e-23)
(0.995899 -0.0835287 -3.64124e-21)
(0.990963 0.168927 6.32733e-20)
(1.00459 -0.0298059 3.52145e-22)
(0.968101 0.10948 -2.10147e-21)
(0.984473 -0.0113523 -1.43498e-22)
(0.765852 0.0978734 -3.52064e-20)
(1.06717 0.019946 -7.11515e-21)
(1.19273 0.0276229 -3.85397e-20)
(0.825443 0.121959 -3.78128e-20)
(1.248 -0.122272 -1.74985e-22)
(0.990788 -0.0031377 -1.64774e-22)
(1.14617 -0.0836924 3.19679e-21)
(1.00835 -0.030893 -4.81968e-23)
(1.004 0.164562 1.58473e-20)
(1.0436 0.101276 4.49454e-20)
(0.973083 -0.00842716 9.95768e-22)
(1.20848 -0.155218 -5.9607e-22)
(1.1275 -0.0397928 -9.76983e-22)
(1.05472 -0.0771016 8.49629e-22)
(0.994125 -0.000383229 -3.35216e-22)
(1.20885 -0.1691 2.84385e-22)
(1.00032 -3.76341e-06 4.85832e-25)
(1.13205 0.164088 1.85088e-20)
(0.947279 -0.0143882 -5.45771e-21)
(0.993506 -0.0554709 -3.80587e-22)
(0.997264 -0.0272983 4.26521e-22)
(1.00605 -0.051851 1.83226e-21)
(1.2447 0.0358076 2.53928e-21)
(1.21441 -0.0503609 -1.35577e-20)
(0.997541 -9.13571e-05 3.41353e-22)
(1.02318 -0.0474133 6.58457e-22)
(0.999896 -0.000116571 2.37447e-24)
(0.76561 0.0915152 2.63215e-20)
(0.892565 0.0546418 3.86545e-20)
(0.995008 -0.00123745 -1.78925e-22)
(0.976144 -0.0125902 -9.68359e-22)
(1.03159 -0.0357279 1.63812e-21)
(1.04835 0.105881 1.93036e-20)
(0.949696 -0.0215949 -2.59837e-21)
(1.27796 -0.0134127 -4.28887e-21)
(0.970203 -0.042292 4.12956e-22)
(1.03695 0.157956 -1.41104e-21)
(1.19959 0.0282765 -4.2851e-21)
(0.969797 -0.0201201 -1.08009e-21)
(0.764669 0.0500743 -5.39256e-20)
(1.05085 -0.00254381 -4.5993e-21)
(1.05658 0.16253 -4.16599e-20)
(0.994002 -0.0128771 5.40029e-23)
(1.01446 -0.128564 5.69158e-21)
(0.941782 0.0102489 -1.25108e-19)
(1.01349 -0.0389705 -6.53579e-23)
(0.796719 0.16073 -1.90078e-20)
(1.06968 0.119171 2.43408e-21)
(0.775874 0.0568062 -1.2907e-20)
(0.991367 -0.00321185 9.90239e-23)
(0.990027 -0.000748851 8.56621e-22)
(1.02233 -0.0840461 -4.50591e-22)
(1.16104 -0.0790845 -1.55866e-20)
(1.01466 -0.0211123 -1.12959e-21)
(1.02251 -0.076236 -1.35708e-22)
(1.04183 0.14436 3.81238e-21)
(1.03989 0.172938 1.30048e-20)
(1.06922 0.00315974 1.15225e-23)
(0.995867 0.163088 -4.52626e-20)
(0.816222 0.171978 1.02849e-20)
(1.24175 0.06594 2.75997e-20)
(0.997032 0.022008 -8.46357e-20)
(1.08126 0.049258 -1.82124e-20)
(1.0052 -0.0160546 5.62083e-23)
(1.08234 0.108698 -2.13545e-21)
(0.991938 -0.068244 -9.38511e-22)
(0.971571 -0.0413403 1.08362e-21)
(0.998843 -0.00125212 1.06104e-23)
(1.04891 -0.0760646 -2.24509e-21)
(1.08328 -0.14894 -4.14904e-22)
(1.13211 0.0420703 1.48676e-20)
(1.08497 -0.0100651 1.17106e-20)
(1.00697 0.0559918 6.77754e-21)
(1.00844 -0.044895 8.36321e-22)
(1.1358 -0.0311563 5.77008e-21)
(1.00958 0.0439548 -7.81457e-21)
(1.00943 -0.0324436 4.92816e-23)
(1.08258 -0.0956976 -2.1248e-21)
(0.999931 -0.000142825 -4.88718e-25)
(1.00048 -0.000221665 -8.12411e-25)
(1.12831 0.0385932 -3.55444e-23)
(0.994039 -0.0594946 -1.1055e-21)
(0.976394 -0.0387553 1.66882e-21)
(1.00052 -0.000207302 1.44574e-24)
(1.00019 -0.00279492 1.90761e-23)
(1.12524 -0.0438035 -1.75445e-21)
(0.999333 -9.02356e-05 -1.40611e-23)
(1.26606 -0.0594858 -6.92923e-22)
(0.763477 0.0744738 6.7904e-20)
(1.27713 0.0740476 1.52815e-21)
(1.18873 0.053073 -1.20858e-21)
(0.9684 -0.00833846 -1.61079e-21)
(1.09104 0.161065 1.48136e-20)
(1.27453 -0.0399421 -6.42894e-21)
(1.00501 -0.0278205 -2.00794e-23)
(0.976868 -0.0138255 -9.18947e-22)
(0.997793 -0.00365331 5.62682e-25)
(0.999346 -0.000426058 6.89922e-24)
(1.00184 -0.00451467 -4.36203e-24)
(0.997862 -0.0290124 3.84258e-22)
(1.02699 -0.130225 2.6524e-21)
(1.18932 0.0843559 4.37245e-20)
(1.18269 -0.0904313 2.94982e-21)
(0.958773 -0.00440999 3.60326e-22)
(0.999902 -7.23723e-05 -5.95369e-25)
(1.01106 0.0964286 4.52012e-20)
(1.241 -0.101393 -7.65087e-21)
(1.22544 -0.140409 -7.33119e-22)
(1.01558 -0.0401585 8.91587e-23)
(1.26352 -0.0278833 9.62456e-21)
(1.04671 -0.0784676 2.98097e-22)
(0.978623 -0.00103066 -2.72657e-22)
(1.00661 0.0414229 3.92489e-20)
(0.943696 0.00215039 -1.64798e-19)
(1.20163 0.178798 -3.63498e-20)
(0.986522 -0.000505895 -1.88286e-21)
(1.19613 0.182709 2.87074e-20)
(0.966792 -0.00624882 6.5052e-22)
(0.988218 -0.0415254 -1.06188e-21)
(1.25762 0.0893152 -3.01105e-20)
(1.0003 -8.18317e-05 1.73754e-25)
(0.991869 -0.0276018 -1.73751e-22)
(1.25369 0.0262395 8.46024e-21)
(1.22879 0.0627844 3.21954e-20)
(0.97104 -0.0215461 -2.88833e-22)
(1.05519 0.104 2.98718e-21)
(0.945126 0.20746 -4.07753e-21)
(1.03064 0.0496387 -8.9861e-20)
(0.968438 -0.0342068 2.47224e-21)
(0.950581 -0.0095362 -2.0166e-21)
(1.04347 -0.0619385 6.86417e-22)
(1.13385 -0.00858181 1.05437e-21)
(1.0404 0.0218047 -2.17937e-20)
(0.995518 -0.00160532 -5.80384e-23)
(0.941428 0.0223557 -4.66316e-20)
(0.994258 -0.0425647 2.04912e-21)
(1.0183 -0.128955 -3.80314e-21)
(1.14586 -0.0771096 3.51662e-21)
(0.874135 0.208369 1.35e-19)
(1.19672 0.0881483 -3.54156e-20)
(1.03805 0.103191 -4.72546e-20)
(1.13972 -0.177403 4.92982e-22)
(0.901187 0.00589285 -7.37817e-20)
(0.972109 -0.0183511 1.65412e-21)
(0.989415 -0.040073 7.62636e-22)
(0.809134 0.0275245 2.58849e-20)
(1.07782 -0.0315165 -3.11607e-21)
(1.02895 -0.1217 -4.86726e-22)
(1.05456 0.147969 -9.61259e-21)
(1.03178 0.152057 -2.97905e-20)
(0.980901 -0.0354184 -1.51885e-21)
(1.04907 0.0280706 -4.92144e-20)
(0.993889 0.176462 -8.38421e-21)
(1.02998 0.139662 3.89798e-20)
(1.12678 0.181689 1.20948e-20)
(1.04729 0.150384 6.22388e-20)
(1.12283 0.106654 -3.16011e-20)
(0.98705 -0.00403477 6.44603e-22)
(0.973228 -0.0196963 1.927e-21)
(1.00287 -0.00715616 3.77399e-24)
(1.00557 -0.105197 4.06857e-21)
(0.985502 0.0461441 -1.18808e-20)
(1.00923 -0.111411 2.36591e-21)
(1.26 0.00846253 -7.18618e-22)
(1.20875 0.006015 -2.2499e-20)
(0.977089 -0.0445411 1.12684e-21)
(1.26079 -0.0568377 -5.00061e-23)
(1.26962 0.0269383 -8.02452e-21)
(0.980175 0.0215441 -3.59492e-21)
(1.24964 -0.0578608 5.13268e-21)
(0.999857 -0.00336819 -8.73597e-24)
(1.06191 -0.0148123 1.93285e-22)
(0.98766 -0.0446375 5.24459e-22)
(1.20802 -0.127468 1.4477e-22)
(1.22113 -0.133786 2.1452e-21)
(1.01123 -0.11831 8.12222e-22)
(1.12385 0.172318 6.81914e-21)
(0.97756 0.196519 6.73539e-20)
(1.17994 -0.0713374 7.03557e-21)
(0.991727 0.0225497 3.75133e-20)
(0.795685 0.142241 -4.66787e-20)
(0.99771 -0.000152237 -7.40042e-23)
(1.00332 -0.00106641 8.40102e-24)
(0.99712 -0.00552148 -1.87052e-22)
(0.974316 -0.00882459 3.69388e-22)
(1.16476 0.0962016 -2.38092e-20)
(0.811246 0.0314067 -5.60086e-20)
(1.16545 -0.0152417 3.09516e-20)
(1.09999 0.171844 8.91079e-21)
(0.984693 -0.0220469 -9.26271e-22)
(1.19676 0.153943 4.80787e-20)
(1.20206 0.168802 1.53918e-20)
(1.18865 -0.16759 1.13125e-22)
(0.960627 -0.0125037 1.8291e-21)
(0.950685 -0.0205322 1.57511e-21)
(1.26572 0.00706823 2.07792e-21)
(1.01159 -0.039826 8.90552e-23)
(1.18395 -0.0853487 4.24066e-21)
(0.974663 -0.0360805 3.47462e-22)
(0.958876 -0.0355305 -3.70453e-21)
(1.06806 0.149168 6.79816e-20)
(0.992304 -0.00274159 3.38653e-22)
(1.02345 -0.0541182 1.00556e-22)
(1.04168 0.169221 3.22454e-20)
(1.25532 -0.0607618 2.18865e-20)
(0.890272 0.174305 1.53196e-20)
(1.01245 -0.0772542 -8.25519e-22)
(1.074 0.0168413 2.33463e-20)
(1.21221 -0.134397 -1.68809e-21)
(0.999409 -0.0631232 3.94341e-22)
(0.946971 0.0171701 -1.70741e-20)
(0.971254 0.00131889 1.06492e-19)
(0.980213 0.0556656 -1.844e-20)
(0.995255 -0.0308217 -9.86125e-22)
(0.855487 0.0395672 6.02232e-20)
(0.970035 -0.0316272 1.27261e-21)
(0.962443 0.144132 2.22671e-21)
(1.11352 -0.0779558 -2.19652e-21)
(0.979857 0.0864435 -1.03711e-20)
(0.985222 -0.0425731 6.62829e-22)
(1.00007 -0.000210391 1.14248e-25)
(0.977662 0.0759271 3.45999e-20)
(0.95516 0.129567 4.04462e-20)
(0.969942 0.156341 -6.48202e-20)
(0.977786 0.0657717 -4.034e-20)
(1.11272 0.00656836 -8.12909e-20)
(1.14382 -0.037227 -5.05965e-22)
(1.13947 0.0921881 -6.04116e-20)
(1.02694 -0.117815 1.11793e-21)
(0.991057 0.0420817 1.21846e-19)
(1.05113 0.0928848 -5.83433e-20)
(1.23383 -0.101382 9.42152e-21)
(1.08909 -0.0132973 -1.2351e-20)
(0.987433 -0.00384378 3.6453e-22)
(1.25429 -0.121097 7.26763e-22)
(1.08247 0.149885 -1.13181e-20)
(0.9591 -0.028311 1.07306e-22)
(0.965466 -0.00538273 -2.03577e-21)
(0.975588 0.0115577 -2.4379e-20)
(0.971509 0.0948237 -7.45068e-20)
(0.99136 -0.0484279 -9.25252e-22)
(0.98858 0.100249 5.41344e-20)
(1.01242 -0.125224 1.3653e-21)
(1.25884 -0.0298873 -1.56586e-20)
(0.991198 -0.00043041 -7.57344e-22)
(0.962139 0.103939 -4.19462e-20)
(0.951216 0.115078 1.07323e-19)
(0.788824 0.0830859 1.04324e-19)
(0.98795 0.183443 8.75607e-20)
(0.99612 -0.000486702 -8.82753e-23)
(0.984893 -0.0238143 6.08575e-22)
(0.998687 -0.00129186 -9.10783e-23)
(0.996095 -0.065795 -3.4586e-21)
(0.886809 0.135714 -2.19639e-20)
(1.20863 0.0487815 -4.85894e-20)
(1.10556 0.157984 -6.98407e-22)
(0.959233 -0.0341962 2.43875e-21)
(1.08312 0.0539484 5.72807e-20)
(1.0337 -0.0349628 -1.8902e-21)
(0.887775 0.155685 3.16928e-20)
(1.07231 -0.0999705 5.26592e-22)
(0.986516 0.0187026 4.15609e-20)
(0.991469 -0.000422894 -4.49967e-22)
(0.904138 0.126109 -7.28399e-20)
(0.870816 0.166578 -8.86374e-20)
(0.983403 -0.0249015 -1.55598e-21)
(1.21971 -0.022903 1.09162e-20)
(0.904796 0.106975 -7.27223e-20)
(0.995734 -0.000710972 4.12059e-22)
(0.832275 0.0829716 -1.17037e-20)
(1.03995 -0.0685522 -2.38977e-22)
(0.995336 -0.000528158 -1.26007e-22)
(0.959484 -0.0136651 -1.27718e-21)
(1.0597 0.169253 -4.06855e-20)
(1.22046 0.0204623 -2.82487e-20)
(1.0038 -0.0888741 1.87049e-21)
(1.01627 0.176913 3.40822e-21)
(0.861534 0.187619 5.89653e-21)
(1.19506 0.163328 -5.22516e-20)
(1.05451 -0.0107357 -2.33512e-21)
(0.998626 -0.0588626 6.38434e-22)
(1.13941 -0.0876005 -4.31914e-21)
(0.975471 0.106821 6.12467e-20)
(0.854026 0.082728 -6.7248e-21)
(0.773047 0.0798645 6.76599e-21)
(1.19834 0.040841 7.68102e-21)
(1.00081 -0.00960291 2.18654e-23)
(0.97136 -0.00225603 2.48344e-22)
(1.08936 0.152976 -4.01274e-20)
(1.00208 -0.00743854 7.05583e-24)
(0.985406 -0.00571196 -6.60338e-24)
(1.00324 -0.0115916 3.72811e-24)
(0.995118 -0.0269057 -4.95704e-22)
(1.06183 -0.139011 1.35357e-21)
(1.1347 -0.163931 -4.62348e-22)
(0.941062 0.159472 -9.54641e-20)
(1.01786 -0.0445071 1.11919e-23)
(0.999007 -0.00104032 6.08434e-23)
(1.06349 0.0943007 -9.39441e-22)
(1.24119 0.0426368 2.2521e-20)
(1.00213 -0.0117566 -2.27357e-23)
(1.25362 -0.00786476 -1.25343e-20)
(1.00182 -0.00126223 -3.01238e-24)
(1.19949 0.0149071 2.73905e-21)
(1.03106 0.0524666 6.29981e-20)
(0.983274 0.0967845 -1.05008e-19)
(1.10644 -0.158688 6.58782e-22)
(1.20831 -0.0120218 -1.53621e-20)
(0.994807 -0.0131581 -9.83189e-23)
(1.09986 -0.108174 -4.45532e-22)
(0.995298 -0.00193807 -2.64642e-23)
(0.971193 0.122089 -1.08737e-19)
(0.936785 0.155678 2.94492e-20)
(1.15726 -0.177883 3.8354e-22)
(1.12496 -0.173991 6.05566e-22)
(1.09505 -0.167384 2.91846e-21)
(1.02605 -0.078482 3.77573e-22)
(1.00678 0.171285 7.21184e-21)
(1.02942 -0.0721934 6.32241e-23)
(1.08148 -0.136485 2.02263e-22)
(1.04748 -0.147416 -9.25819e-22)
(1.09698 -0.0957875 2.35036e-21)
(0.810866 0.0834701 5.70057e-20)
(1.09234 -0.181414 -6.17229e-21)
(1.23752 -0.0736063 -1.47392e-21)
(0.967611 0.0350947 2.12985e-20)
(0.993212 -0.000540174 4.30866e-22)
(1.20999 -0.0400034 6.57518e-21)
(1.03239 -0.0654972 2.45174e-22)
(1.05003 -0.136953 1.51808e-21)
(0.995394 -0.00128009 1.34745e-23)
(0.99982 -0.00286263 -2.83093e-23)
(0.819543 0.103548 -9.68659e-20)
(1.0959 0.0552993 4.37848e-20)
(1.15207 -0.182909 2.06359e-21)
(1.26395 -0.101553 1.83509e-21)
(1.11376 0.0938159 -2.32315e-20)
(0.994642 0.0968009 -8.41622e-21)
(1.05699 0.097622 1.76834e-20)
(1.18574 -0.134131 2.01726e-21)
(0.985822 -0.0475817 1.93049e-21)
(0.9954 -0.0408965 -5.29631e-22)
(0.988801 -0.0432649 -1.42974e-22)
(1.07676 0.0935441 -5.82749e-20)
(0.967618 -0.0066926 1.82638e-21)
(1.00259 -0.060248 8.74183e-22)
(0.999581 -4.84621e-05 2.96838e-24)
(0.974778 -0.0193359 -3.2385e-21)
(0.997654 -0.000746731 6.80113e-24)
(1.07729 -0.149591 8.0136e-22)
(1.04729 0.168111 -3.83098e-20)
(1.03415 -0.122425 5.99529e-22)
(0.985185 0.15325 4.03111e-21)
(0.998788 0.149768 -9.79449e-20)