/*--------------------------------*- C++ -*----------------------------------*\
  =========                 |
  \\      /  F ield         | OpenFOAM: The Open Source CFD Toolbox
   \\    /   O peration     | Website:  https://openfoam.org
    \\  /    A nd           | Version:  7
     \\/     M anipulation  |
\*---------------------------------------------------------------------------*/
FoamFile
{
    version     2.0;
    format      ascii;
    class       volScalarField;
    location    "34";
    object      p;
}
// * * * * * * * * * * * * * * * * * * * * * * * * * * * * * * * * * * * * * //

dimensions      [0 2 -2 0 0 0 0];

internalField   nonuniform List<scalar> 
7807
(
1.42108
1.15986
1.55551
1.4404
0.683896
0.216987
1.58324
0.870021
0.44552
1.23771
0.166947
0.771485
0.913975
1.1213
1.245
0.999649
1.42592
0.958069
0.946177
1.12524
1.19904
0.715679
1.08022
1.39129
0.975606
1.42846
0.674942
1.15485
1.34281
0.960784
1.01803
1.61808
1.08082
0.589689
0.372847
1.20134
0.971928
1.57274
0.925369
0.512899
0.926826
0.994603
1.12239
1.16908
0.466498
0.273379
0.708898
0.917667
0.283594
1.12547
0.81465
1.14527
0.997306
1.08304
1.20101
0.862475
0.938355
0.870337
1.05163
0.588279
0.229689
0.846112
1.121
0.778672
0.591077
1.01884
0.437921
0.0374537
1.28457
0.910385
0.26067
1.10637
0.960386
1.05556
0.939744
1.08389
1.54759
1.19338
1.23946
1.10919
0.900708
1.62557
1.25225
1.04764
0.787624
0.756122
0.882676
0.987582
0.687579
0.806697
1.34852
1.16945
0.381982
0.917079
0.830341
1.01752
1.10628
1.08513
0.787336
0.657353
1.08851
1.24818
0.815419
0.164388
1.17816
1.35756
1.80158
0.867929
0.0103332
1.12277
1.42595
1.12652
0.0168151
1.13182
1.35746
0.603715
1.13791
1.30703
1.09085
1.06582
1.09803
1.61313
1.12604
0.994917
1.08303
0.716765
0.996745
0.93541
0.615131
1.01222
1.13434
1.23645
0.622899
0.695748
1.06438
1.41947
1.85384
0.142559
0.927073
1.18748
1.05562
1.10816
1.08572
1.04617
1.80876
1.10606
1.34465
1.05316
1.04766
1.60883
1.1924
1.17532
0.767946
1.26871
1.24944
1.54258
1.09285
0.915859
1.65332
0.272729
0.921683
1.40157
0.16936
0.866458
0.84189
1.47899
1.48045
1.64849
0.864966
0.81838
0.0444173
1.05821
0.593921
1.16602
0.937604
1.0347
1.19403
1.33242
0.390926
0.61947
1.44301
0.219815
0.365233
1.57497
1.15942
1.1177
1.08842
1.04578
1.10364
1.19892
0.170166
1.10224
1.33792
0.820222
0.292393
1.37447
0.695261
1.00636
1.09851
0.0444309
0.751669
1.42849
1.36265
1.56151
1.1386
1.12865
1.11621
1.16874
1.42682
0.471442
0.214496
1.66068
0.988294
0.61966
1.10086
1.00211
1.51535
1.52735
1.10769
1.63099
0.67714
0.974305
1.09726
1.21714
1.12222
1.3951
1.6683
0.367445
0.992475
1.32016
0.898729
1.30378
0.692611
1.62714
1.54472
0.876563
0.942471
0.502903
1.33228
0.327751
0.961479
1.10777
0.292465
0.802269
0.685457
1.34044
0.186305
0.81101
1.10654
1.58941
1.22733
1.66824
0.210637
1.09685
0.518578
1.55572
0.839227
1.83179
0.955858
0.757865
1.13049
1.17473
0.596091
0.460026
0.599926
0.905313
1.12223
0.193559
1.09059
0.821529
0.392656
0.633904
1.70481
0.892359
0.597855
1.73516
0.800272
1.42218
0.515808
1.05478
0.0607641
1.07694
1.20936
1.20187
1.05362
0.613226
1.12203
1.01351
0.421043
0.590611
0.835803
0.906597
0.800165
0.762303
1.05093
1.12637
1.03946
1.17763
1.07827
1.51048
1.51985
0.723923
1.18036
0.0332838
0.85758
1.0172
1.38326
1.27082
0.342568
0.849259
1.06572
1.34869
0.713527
0.822569
0.713818
1.24936
1.12191
1.479
0.747563
1.16925
0.380919
0.941226
0.283357
1.04136
0.520818
1.07
1.16089
1.07452
1.05671
0.977719
0.564455
1.12904
1.0195
1.25894
1.34336
1.09698
1.16249
1.02188
0.89993
1.11694
1.63294
1.16497
1.14529
1.6687
0.761081
0.747803
1.16637
0.766671
1.10314
0.898291
0.788426
0.737661
1.33453
0.412404
0.586782
0.310249
0.784285
0.955391
0.0739448
0.663749
1.04715
1.58536
1.06649
0.982868
1.68054
1.5399
1.23846
1.18917
1.06598
0.905726
1.46376
0.928396
1.45822
1.10616
1.12375
1.36544
1.45619
1.08678
1.2613
1.3926
1.43304
1.16823
0.813342
0.854702
0.357832
1.09652
0.941655
0.77858
0.391608
0.732231
1.1226
1.27817
1.00908
0.974875
0.847497
1.16517
0.913232
0.923604
1.37092
0.716886
0.253356
0.433118
0.363638
1.03203
1.32735
0.880046
1.12301
1.11566
1.57927
0.935936
0.935345
0.875819
1.68942
0.672208
1.4734
1.35029
0.359719
1.10512
0.801401
1.11025
0.580987
1.24471
1.0279
0.925116
0.667522
1.32704
1.352
1.1158
1.05056
0.843398
1.08816
1.26533
1.66789
1.14543
0.952673
0.0187727
0.980663
0.777383
1.12137
1.12037
1.17029
1.61849
1.33513
1.12394
1.38283
1.71264
1.09122
0.780148
1.45978
0.759941
0.472346
0.937388
0.328964
1.10885
1.02548
1.0758
0.772492
1.38003
0.767636
0.233237
1.12087
0.756892
1.22429
1.09552
1.08443
1.21335
1.32155
1.2745
1.28002
0.497227
1.27161
1.26748
0.631488
1.00019
0.591871
1.06536
1.07672
0.86064
0.709021
1.32615
0.18433
0.45323
0.756779
1.03327
1.09292
1.065
1.08016
1.12077
1.11785
1.1273
1.44738
1.17025
0.89893
1.62879
1.10773
0.96198
1.06894
1.01631
1.01747
0.954341
1.14137
1.1627
0.249834
1.12042
0.314882
1.52906
1.29325
0.859946
0.936237
0.421226
1.64184
1.48112
1.25606
1.33526
1.1091
2.01589
0.396634
1.17263
0.970581
1.33819
1.67591
1.25445
1.326
0.974055
0.457476
1.32428
1.14927
1.65349
1.22324
1.41201
0.914981
1.59866
1.46992
0.935825
0.917594
1.30439
1.09593
0.421853
0.972627
1.10562
1.11903
0.971398
0.974456
0.459105
1.47877
0.964577
0.365675
1.12372
0.600433
0.478177
0.990012
1.39913
1.12239
1.68121
0.277884
1.39433
1.11358
0.443442
0.132333
1.33908
1.39357
0.849763
1.37467
0.193301
1.38622
1.10116
0.950535
1.78718
1.09758
1.32822
1.04527
1.38264
1.38895
1.00355
1.03124
0.95428
0.81661
0.485094
0.958664
1.44597
0.229956
1.37844
1.1247
1.55022
1.36709
1.10522
1.65302
0.742221
1.09228
1.13995
1.05491
0.899521
1.11131
1.19484
1.63761
0.237476
0.760249
1.12655
0.0582905
1.52534
0.751495
0.0674429
0.442841
0.526491
1.03686
1.11316
0.728282
0.309432
0.905776
0.991159
1.12073
1.14004
1.08763
0.163903
1.10142
0.976413
1.3093
1.57644
0.826345
1.31375
0.420376
0.961885
1.21812
0.903428
1.41085
0.974629
1.17766
1.22542
1.33254
1.02225
0.945288
1.36026
1.11886
1.55319
0.938918
1.42737
0.935116
0.682286
1.31639
1.09332
1.23617
0.743911
0.0567506
1.11842
1.36743
0.825286
1.3048
0.969683
1.10235
1.15577
1.06942
0.739122
0.910684
1.11873
1.05438
0.943018
0.552416
1.56361
1.3087
1.12796
0.467995
1.47266
0.159298
0.454917
1.31675
1.07135
1.34734
1.1546
1.07496
1.15712
1.11253
1.21081
0.707063
1.08649
0.273494
0.979216
1.4027
1.00085
0.799858
1.10659
0.757874
0.672437
1.70015
0.944726
0.638642
0.0492194
1.2958
1.0718
0.592463
0.790634
1.33283
1.26142
1.08402
0.108798
1.3566
1.02567
1.37092
1.01159
1.03931
1.06122
0.354945
1.21967
1.25471
1.23642
1.12827
1.44914
0.884785
1.35531
0.9938
1.12019
0.542472
1.02995
0.54329
1.33999
1.40758
0.735014
1.0868
1.01837
1.1333
1.12911
0.747118
1.16615
1.64711
1.22042
0.417903
1.25689
0.938248
2.68151
0.964757
1.05204
1.10732
1.05445
1.03207
0.910411
0.991392
0.900459
1.18937
0.348214
1.11093
1.19637
1.50164
1.08209
1.35297
0.744208
1.14643
1.08962
1.39825
0.910623
0.441642
1.02687
0.949062
1.16388
1.04025
1.04108
1.18458
0.98872
1.10362
1.11853
0.0692834
1.20587
1.11691
1.33353
1.15036
1.23299
1.12587
1.46461
1.14085
1.07064
1.11128
1.78617
1.12512
0.971896
1.11904
1.1287
1.12131
1.13371
1.35193
0.80323
1.45476
0.930755
0.600168
0.778376
1.24013
1.60229
0.906136
1.11809
1.34448
0.150719
1.02984
1.11148
1.17664
0.930304
0.778489
1.08436
0.93221
0.178655
1.09586
1.42466
1.10775
0.996484
0.729229
1.34464
0.618437
0.695061
0.532575
0.764371
1.24822
1.12752
1.04248
1.00966
0.289838
1.11902
1.15878
1.10938
1.07351
1.03971
0.462619
0.993376
1.10776
1.2326
1.5609
0.817014
1.10572
0.866338
1.13798
1.33155
0.539622
0.48136
1.31133
1.21994
1.0805
0.811802
0.75261
1.10384
0.535047
1.10394
0.947581
1.51122
1.42132
1.14786
1.11792
0.905643
1.08363
1.20657
1.11951
1.11442
0.0528352
1.19971
1.0424
1.12339
1.10411
1.09785
0.563931
0.805916
1.36985
1.06253
0.0286864
0.803787
1.13153
0.416096
1.12131
0.386853
1.01162
1.11939
1.1452
0.382525
0.185336
1.26427
1.12316
1.6648
1.41998
1.1927
0.757599
1.09778
0.445755
1.13272
1.12604
1.2048
0.994331
1.41039
1.08355
0.579685
1.07923
1.11576
0.730074
1.1269
1.10558
1.08003
1.05795
1.16924
1.09646
1.04055
1.13918
1.3555
1.13183
0.00867605
1.12185
1.10771
1.13525
1.03742
0.610174
1.1084
1.12153
1.10858
1.10575
1.31076
1.13774
1.04155
1.05252
1.14267
1.13446
1.12282
0.529215
1.29327
1.38046
0.872377
1.37187
1.12586
1.13994
1.12533
1.36917
1.23273
1.64326
0.0593647
1.26353
1.3431
0.957697
0.687909
0.972306
1.19005
0.300066
0.979466
1.11383
0.968858
1.00613
0.374728
1.14361
0.596865
0.617322
1.42267
1.00589
1.26678
1.06902
1.37761
1.07
0.664875
1.12538
1.02643
1.6002
0.643025
1.11225
0.59273
0.554768
1.05609
1.13904
0.269156
0.878086
1.11298
0.682522
0.208726
0.392529
1.29941
1.1648
0.971554
0.617459
0.99419
0.970734
1.0109
0.588307
1.4774
1.1334
1.3948
1.44589
0.424907
1.25892
1.27998
0.609697
0.531946
0.690182
1.18652
1.13191
1.09475
1.08638
1.1196
1.33014
1.12388
0.0745974
0.989799
1.02333
1.05187
0.821222
0.960197
0.637223
1.07575
0.53433
0.605745
0.987273
0.817425
1.01918
0.0892302
0.959114
1.10471
1.16751
1.15335
0.891942
0.929102
0.894246
0.836116
1.11983
0.894663
0.350614
0.609895
1.08848
0.933666
0.831082
0.976245
1.02415
1.11016
0.926527
1.30526
0.935647
1.09698
1.05621
1.00825
0.961418
0.799251
0.85156
0.792444
0.948095
0.963764
1.36068
1.31755
1.19794
1.56171
0.259428
0.895072
0.960796
0.890902
1.27383
0.993378
1.20858
0.909967
1.37542
0.738623
0.735549
1.1526
1.0949
0.492583
1.07192
0.846238
1.00178
0.154579
0.850378
0.728504
0.978668
1.17034
1.06657
0.984384
0.950091
1.04647
1.24286
0.732392
0.712181
0.716427
1.66317
0.519995
1.22845
1.00418
0.994676
1.03467
1.09055
1.04514
1.05657
0.993357
0.82882
0.335152
0.813268
1.03645
1.22651
0.670952
1.32776
1.04708
0.948229
0.61311
1.03627
0.329542
1.29347
1.0392
1.0225
1.01345
0.923085
1.05751
0.683376
1.06579
1.22192
1.024
1.12301
0.665698
1.02215
0.984943
0.957363
0.788599
1.28373
0.741931
0.996638
0.639956
1.31011
1.06807
1.03076
0.789864
0.914182
0.772676
1.35706
1.18171
1.36585
0.905757
0.675083
0.645802
0.755965
1.34613
1.10272
0.878375
0.461204
1.02716
1.11189
0.729847
1.0863
0.965044
1.13203
0.825969
1.05165
2.06867
1.10202
1.0055
1.09816
0.182279
1.17568
0.78888
1.03105
0.853506
1.05324
0.954717
0.583702
0.776259
0.759607
1.36571
0.828583
0.709263
0.825366
1.101
0.886306
0.994209
0.92354
0.882316
0.849481
0.785647
1.37101
1.07837
0.780604
0.783586
1.0225
0.949239
1.08434
0.728345
1.21402
1.05204
0.887225
0.731737
0.954727
1.6231
1.36772
0.923909
0.547384
0.752782
1.11486
0.81498
1.03324
0.579279
1.078
0.706314
0.957758
1.1522
0.725441
1.02573
0.661393
1.51118
0.888547
0.922725
1.1749
0.761632
1.01956
1.25965
1.6131
0.923062
0.933724
0.689389
0.635123
0.154371
0.0345502
0.915185
0.603758
1.29147
0.667537
0.705254
0.958032
0.450772
1.0798
1.11853
0.970965
1.07917
1.02527
1.2458
1.13212
1.20879
1.15847
1.20899
1.25359
0.93664
0.637343
0.935674
1.12142
0.788485
0.954196
1.23117
1.46724
1.11606
0.53628
0.367097
0.648011
0.104292
1.0512
0.630485
0.919578
1.08752
0.520286
0.776138
0.444695
1.22878
0.954024
1.15126
0.748446
1.54091
1.42188
0.921928
1.12791
1.03549
1.02837
0.955325
0.724008
1.12078
1.1123
1.07805
1.15724
0.438358
1.35736
1.11928
0.893438
1.11389
1.02028
0.568219
0.898754
0.655437
1.07913
0.794972
1.33756
0.461481
0.902661
0.513874
1.1358
0.908034
0.745918
1.1474
0.571754
1.22003
1.28255
1.02919
0.677342
0.360403
0.580044
0.551044
1.10565
1.258
1.21031
0.453051
1.03633
0.575185
1.40437
1.10423
1.41293
1.07255
0.520939
0.57495
0.886319
0.835817
0.655457
0.104398
1.06974
1.06996
0.436757
0.61409
0.985938
0.114671
1.32227
0.657868
1.08766
0.985309
0.848342
1.09264
1.1068
1.29791
1.1254
0.985479
0.474391
1.0904
0.997338
1.20276
1.28685
1.52786
0.642565
1.09847
1.09231
1.46162
1.10593
0.339354
0.861793
0.800716
0.836895
1.08558
1.24639
0.530883
1.13978
0.905786
1.24387
0.547296
0.487111
1.13782
1.43771
1.09707
1.318
0.798846
0.430499
0.0111152
1.12419
1.06442
0.570762
1.27629
0.915807
0.841753
1.70049
0.652258
0.824839
1.10201
1.13056
0.723342
1.27334
1.12934
0.376327
1.1046
0.510762
0.355874
1.30328
1.11731
0.511929
1.1021
1.01408
0.76673
1.13507
0.730977
1.00159
0.75729
0.797321
1.1093
1.06072
1.15032
0.670262
1.31832
1.37744
1.12345
1.02087
1.01348
0.823474
1.32033
1.27443
1.02572
0.405871
1.00522
1.06927
1.11608
1.03902
0.749123
1.19223
1.03066
0.34961
0.351085
1.13797
1.06092
1.01342
0.987938
1.19561
1.07831
0.483209
0.744007
0.507474
1.08146
0.144542
0.720456
1.12242
1.11838
1.29526
0.782234
0.788721
1.01175
1.01543
0.380856
1.08553
1.29238
1.30713
0.121197
0.322011
1.31157
0.765945
1.12203
1.05349
0.75923
0.679941
1.10729
1.15806
1.3175
1.07359
0.673306
1.03952
1.09752
0.595442
0.432866
0.649752
1.17444
1.0877
1.3175
0.42633
1.77486
1.18677
0.43714
0.741377
0.536566
0.55103
0.146187
0.415276
1.12999
0.651367
0.491351
0.407322
1.28246
0.843835
0.411894
0.346325
1.48918
1.00374
1.16225
0.737702
0.614833
1.20844
0.376128
1.04196
1.11114
0.701291
0.952147
0.314611
0.448798
1.04478
1.12676
0.857997
1.11626
1.14119
0.155376
0.99805
1.05311
1.2316
0.690609
0.385644
1.09782
0.8504
0.647497
1.09072
0.375824
1.17941
0.505875
0.636417
1.20655
0.848809
1.09815
1.65994
0.750645
0.430725
1.10049
1.11443
0.969769
0.802269
0.359346
1.03896
0.345833
1.36248
1.73306
1.26091
0.744458
0.795602
0.158192
1.0369
0.340981
1.01992
0.717
0.557229
0.775979
0.977398
0.334557
0.6259
1.00879
0.477797
0.965856
0.97473
1.11564
0.776173
1.69828
0.722452
0.715467
0.42538
0.943165
1.08878
0.919698
0.420477
0.308899
0.844424
0.370903
0.320603
0.989905
0.551288
0.140496
1.09195
0.858972
1.12702
0.702394
0.251242
0.758056
1.09805
0.992454
1.08165
0.713452
0.577598
0.559069
0.674316
0.366166
1.45828
0.65623
0.133815
0.671078
0.752918
0.627048
1.09602
1.07818
0.501166
0.874892
0.141955
0.88888
0.265649
1.0662
0.395837
0.525069
0.904017
0.241571
0.944801
0.462539
0.655293
0.984741
0.153134
1.56353
1.09459
1.07176
0.205319
0.127374
0.771227
0.6398
1.09368
0.116166
0.0823402
0.620481
0.000449652
0.476447
0.491467
0.5431
0.567207
1.10536
1.6071
1.0873
1.50396
0.887315
1.01923
0.138126
0.596373
0.943851
0.403525
0.431358
0.366601
1.24605
0.81021
0.566145
2.93673
0.53661
0.648433
0.506559
0.0308041
1.24062
0.762994
0.617372
0.388005
0.738654
0.238253
0.792111
1.07709
0.511697
0.84206
-0.0606755
0.949929
0.464595
1.357
0.527502
0.644284
1.12638
0.77315
0.477472
0.670304
0.232917
1.33312
1.11856
0.682408
0.497833
0.87287
0.583951
1.17807
1.27723
1.21341
0.657744
0.0416691
0.00640907
1.2112
0.416014
1.09313
1.09313
0.986785
1.19714
1.73724
0.686447
1.36541
0.983069
1.0382
1.33758
0.475492
1.11317
0.108171
0.909822
1.08524
0.214638
1.10217
0.611516
1.12086
0.946639
1.06004
1.07348
0.91736
1.10379
1.0839
0.366933
0.911828
0.407977
1.06901
0.126937
0.372856
1.15939
1.32435
0.0068576
1.07834
0.80419
0.29609
1.03372
0.101915
0.948662
0.548561
1.07102
0.323882
0.325234
0.813947
0.49653
1.31823
1.04291
1.25753
0.33612
0.536176
1.03042
0.0182944
1.09926
1.12138
1.08784
1.75553
0.873561
0.111748
1.0578
1.05307
0.87942
0.428359
0.304359
1.07855
0.376376
0.582232
0.0166961
0.430478
1.03262
1.30117
1.13268
1.25845
0.848683
0.000771698
0.979209
1.10533
0.132019
0.103058
0.446421
0.231255
0.476837
1.38654
1.09409
0.21455
0.124879
1.12083
1.37755
1.34679
0.192361
1.06035
1.02957
0.985123
1.07864
0.972911
0.769897
1.29026
0.315448
1.02651
1.33294
1.08386
0.310004
1.09584
0.401372
1.43272
1.10415
0.356887
0.22113
1.35847
0.0342591
0.439357
0.91278
0.208944
1.41962
0.91825
0.858279
1.13623
0.809272
1.12014
1.35408
1.08916
1.1611
0.596607
0.19376
0.712904
0.283685
0.214604
1.15592
1.3497
1.30408
0.56272
1.4422
1.04398
0.119397
1.06187
0.294494
1.03368
1.10183
1.0084
0.867867
0.691069
0.949048
0.559654
0.720599
1.07175
0.774725
0.361636
0.154225
0.239695
1.0582
0.274464
1.05308
1.46158
0.88386
0.200152
0.781735
0.235957
1.26676
0.476465
0.258303
0.270381
0.1299
1.39193
0.46946
1.40974
1.1119
0.361045
1.09188
0.70279
1.31457
1.97683
0.665107
0.0173985
0.197902
0.173951
1.31255
0.0086319
0.673165
0.99099
1.39975
0.0897296
0.170107
0.0178224
0.136908
0.998402
0.0170638
1.41466
1.01272
0.316611
0.138783
0.715576
1.05373
0.00880644
0.220425
1.32833
0.160833
1.04657
1.12926
0.347663
0.00794406
1.09895
0.00882865
1.33332
0.077285
0.546802
0.113769
0.346254
1.21135
0.0677925
0.706121
0.147876
1.0653
0.819269
0.843685
0.930938
1.31
0.631553
0.330618
0.899617
0.89348
0.420527
0.453154
0.659924
0.241703
1.34845
0.97417
1.6249
0.0866746
0.879765
0.570538
1.30288
0.263977
1.03574
0.126247
0.691872
1.05205
0.421379
0.96839
1.0889
0.916656
0.267872
1.11406
0.446147
0.669684
0.837724
1.08076
0.730104
0.482297
0.530971
0.780625
0.659466
0.181313
0.644577
2.05837
0.305524
0.777189
1.05409
1.12713
1.10151
1.08098
1.00682
0.726869
1.07234
0.285647
0.309985
1.70153
0.290622
1.35215
0.499951
0.547902
0.631748
1.13186
0.515267
0.900807
0.198674
0.500414
0.341403
0.288382
0.965719
0.391299
0.413245
0.281767
0.539919
0.219836
1.07746
1.39251
0.0962549
0.538233
0.543745
0.164977
0.602665
0.0958772
0.605177
0.527269
0.4854
1.1052
0.580472
0.746111
0.0719503
0.831487
0.469214
0.0849235
0.118256
0.086613
0.580001
0.568508
1.0806
1.0455
1.10987
0.820763
0.862778
1.1713
1.11198
0.251549
1.0556
0.93416
0.597583
0.936914
1.09571
1.60015
0.496389
0.125275
0.711059
0.247515
0.114014
1.17157
0.899395
1.19588
1.08976
1.65473
0.525668
0.0504662
0.381844
0.178238
0.638273
1.32462
1.40416
0.144833
0.425454
0.246364
1.38743
1.12857
1.01511
0.0734032
0.108685
0.880617
0.560564
1.11848
0.977809
0.257447
0.822139
1.05776
0.244893
0.749491
0.371643
1.08389
0.674005
1.31224
0.10289
0.684152
0.90604
0.119593
0.408794
1.01277
0.108205
0.61266
0.203295
0.961169
1.0823
0.907817
1.00453
0.882621
0.901131
0.902127
0.733337
0.269799
0.383686
0.175565
0.147544
0.224945
0.951342
1.10601
0.524606
1.10779
0.746539
1.10607
0.291071
0.241234
0.662064
1.15358
0.136255
1.10333
0.985882
1.2203
1.11185
0.170224
0.766733
0.435548
1.10907
1.27667
0.235962
1.10248
1.03241
0.802283
0.252392
0.101585
1.1531
0.950654
0.230653
0.858517
0.315223
0.461851
1.27112
0.0797967
0.288945
0.462956
0.225346
0.616567
0.275526
0.810102
0.487387
0.946933
0.664603
0.49479
1.07764
1.07494
0.865317
0.0930626
0.164421
1.1191
0.86044
1.08431
0.273235
0.84032
0.165796
0.192258
1.22485
0.830932
0.749991
0.257218
1.00393
0.236564
1.10581
0.219775
1.12849
0.310013
0.0681152
0.2805
0.6223
1.13136
0.975753
1.11965
0.225201
0.355607
1.1183
1.08573
0.879578
0.111982
1.14569
1.0953
1.13777
0.23058
0.123428
0.362245
1.12819
1.11653
0.630224
0.878826
0.32581
1.38509
0.286601
0.251923
0.3714
0.387809
0.139925
0.800495
0.410925
0.769365
1.11369
0.922071
1.07679
0.304757
0.210872
1.19468
1.12841
0.817578
1.25222
0.433369
0.167046
0.151009
1.29666
0.398054
0.501438
0.209297
1.11533
0.950495
0.304778
0.534699
0.913099
0.841427
0.591174
1.40656
1.10901
0.827372
1.58224
0.458106
0.710387
0.964934
1.17437
0.203687
0.331003
0.130909
0.861025
1.08331
0.557935
1.08873
0.866035
0.299468
0.0500302
0.892809
1.11311
1.16942
1.14236
1.07283
1.06515
1.18917
1.03801
0.264295
0.532716
1.15493
0.517967
0.588545
0.653661
0.382904
0.547873
0.901515
0.0864873
0.289612
1.16713
1.15468
0.648922
0.524886
0.161147
1.43604
0.877026
0.676064
1.04343
0.400544
0.425327
0.377587
0.260465
0.553484
1.06647
1.09706
0.0744278
0.610296
1.07932
1.07122
1.10708
0.51109
0.683361
0.994314
0.214569
0.32412
1.10433
0.142044
1.32059
0.377644
0.802436
0.367925
0.451432
1.12633
0.896428
0.984241
0.705436
0.159069
0.995852
1.14507
0.952917
0.401015
1.21447
1.31548
0.0967868
1.08863
0.320588
0.188097
0.202166
0.539594
1.00041
0.403133
0.477158
0.988117
1.0219
0.941357
1.51865
0.351901
0.279356
1.32766
1.09452
0.812612
0.548416
1.32407
0.372453
0.707234
0.453301
0.423445
0.186953
0.214327
0.246758
0.962346
0.262564
0.823158
1.07308
1.41143
0.687003
0.216558
0.825275
1.19521
1.10515
0.581211
1.09947
1.50856
0.220107
1.60363
0.0946053
0.830035
1.0391
0.517488
1.68204
0.47265
0.0901272
0.716762
0.197971
0.576374
0.456859
0.278419
0.70024
0.448276
0.416201
0.773813
1.42629
1.17106
1.01983
1.0682
0.0729252
0.262796
0.849916
1.11036
0.172122
1.08905
0.255233
1.23214
1.14963
1.06159
0.673936
0.976317
0.620914
0.945679
1.0084
0.942007
1.17471
0.0384882
1.40244
1.2139
0.762144
1.38414
0.9539
0.0807879
0.325469
0.258894
0.376358
0.458332
1.43278
0.614954
1.43841
0.814177
1.32114
1.39517
1.29803
0.885041
0.193278
0.520604
0.847314
1.10204
1.09143
0.668389
0.408223
1.06168
0.743211
0.515658
0.612842
0.618247
0.796399
1.07636
0.264514
1.06104
1.1738
0.242301
0.50239
1.00185
1.11132
0.579231
0.52903
0.336099
0.512269
1.27584
0.996595
1.0922
0.67072
1.28043
1.07067
0.356347
0.283872
1.18724
0.561632
1.26437
1.03814
0.943451
0.554165
0.73611
1.06902
0.538877
0.543562
1.12356
1.11443
1.32752
1.11156
1.03199
0.623256
0.199632
0.843735
0.294037
1.11611
1.11638
0.549353
0.869125
0.774545
1.11704
0.574023
0.506995
0.398106
1.07308
0.246696
0.540115
1.25959
1.34294
1.10844
1.11164
1.12948
1.17881
0.661712
1.05543
0.334695
0.0467462
0.601741
0.0386545
0.606408
0.49066
0.889669
1.13435
0.920822
1.06199
1.14655
1.11232
0.827426
1.11349
0.516517
0.904609
0.975399
0.522254
1.21067
0.846008
0.951898
1.00994
0.817546
0.873271
0.82126
1.14784
0.644654
0.99417
0.983647
1.64227
1.03508
1.21625
1.19595
1.08053
0.755534
0.51128
0.718704
0.467876
0.710043
1.03067
0.300156
0.640733
1.43465
0.753703
1.07219
0.946584
0.602499
0.876871
0.225278
0.176189
1.14298
0.278841
0.773379
1.21591
0.922013
0.619266
1.04104
0.860422
0.78824
1.1099
0.667493
0.826757
1.09762
0.705889
0.897631
0.718757
0.962142
0.650221
1.14726
0.719318
0.867399
1.10424
1.00587
0.675314
1.10243
0.964535
0.958992
0.597717
0.867171
1.12079
0.596054
0.862221
1.10889
0.977273
0.652808
1.39683
1.05535
0.179301
0.887195
1.09885
0.624678
1.36463
0.892603
0.641194
1.13406
0.684383
0.939773
1.26591
0.704116
0.647018
0.45693
0.49191
0.814169
0.960102
0.699438
1.01675
1.24441
1.05034
1.12399
0.637862
0.776736
0.773745
1.13275
0.477572
1.08389
0.557403
0.966738
0.689833
0.819377
1.18688
1.28168
1.12461
0.275409
1.36939
0.827769
0.921379
1.09699
1.12569
0.977118
0.201877
0.824915
0.887157
0.766312
0.8352
0.701163
1.21843
1.09245
0.932567
0.842895
1.14484
1.00548
0.991923
0.69182
0.759572
0.763598
1.27605
0.698071
1.10199
0.627808
0.862246
0.935748
1.12391
0.945932
1.11978
0.284983
0.305528
1.01844
0.957012
0.847765
1.10666
1.2418
1.0905
0.482287
1.09407
0.679002
1.08719
1.02452
1.07194
1.07123
1.07681
1.10487
1.16773
1.19253
1.21628
1.2397
1.2635
1.33082
1.35248
1.37241
1.40689
0.876081
0.921048
1.22108
1.07028
0.68985
1.12061
1.07129
0.757304
0.807486
0.0378311
0.976331
1.00048
0.268299
0.754992
0.870169
1.088
1.07149
1.06287
1.10081
0.579747
0.69302
0.204616
1.12004
0.933019
1.06814
1.0529
0.728115
0.696313
0.817163
0.187352
1.12291
0.566334
0.522853
1.03045
0.897984
0.811954
0.507641
1.10553
0.94503
1.21436
1.07935
1.04194
1.30938
0.98815
0.842749
1.0146
0.81041
0.920434
0.997288
1.57237
0.856498
0.443441
0.875685
0.94377
0.0423557
1.1903
0.891667
1.52761
1.14137
1.11368
1.02979
1.1852
0.949998
0.240301
0.0747177
0.833319
1.11674
0.428242
1.49104
0.779225
0.874377
0.735784
0.506655
0.963224
1.28639
1.14634
1.26403
0.564452
0.957833
0.028639
1.05163
0.976142
0.993202
1.13442
0.852036
0.891218
0.807585
0.969161
0.0694851
0.988143
0.809665
0.537951
0.504485
1.14233
0.752265
1.2982
0.925106
0.862177
1.13008
1.21132
1.12863
0.999833
1.18252
0.952573
1.34073
1.16404
0.806874
1.08822
0.839723
0.220891
0.528288
0.331109
0.902299
0.848295
0.496919
1.01087
1.01322
0.785454
0.619353
0.794469
1.0802
1.30215
1.07199
1.09594
0.872436
1.23064
0.693831
1.22974
0.94285
0.824008
1.08836
1.11144
1.24553
0.23564
1.0461
0.612236
0.782443
0.666219
0.872188
1.26406
0.802798
1.42118
1.00321
1.18159
0.974135
0.805226
0.935179
1.17967
1.10351
1.4065
1.15848
1.03266
1.33083
1.08229
0.856953
1.10668
0.890144
1.05283
1.31179
0.804558
1.42944
0.886869
1.20873
0.395676
1.22581
1.29814
1.09791
0.997082
0.46949
0.0400919
0.846947
0.889055
1.06798
1.06123
0.863796
1.0662
1.31875
1.17472
1.12578
1.0214
0.771132
0.819448
1.37825
0.840963
1.32348
1.11129
0.839396
0.584469
0.732892
1.04089
0.638057
0.844475
1.10933
0.551021
0.887661
1.11361
1.08478
1.37246
-0.00610012
1.03141
0.683595
1.02864
0.494403
1.1086
1.26547
1.10501
1.04955
0.916001
0.967501
0.829186
0.870698
1.19008
1.07466
0.0912155
0.986619
0.961798
0.541382
0.930605
0.992829
0.941765
1.05802
0.19353
1.30455
1.07645
0.915865
0.525461
0.92889
0.510006
1.15071
0.572484
1.02734
0.723819
1.06491
0.864286
0.88541
1.00957
0.472482
0.940577
0.88418
1.32622
0.686934
0.916172
0.893957
0.881004
1.26389
0.973347
1.13872
1.02992
0.721118
1.25748
1.12409
0.708671
0.312651
1.14146
1.08965
0.882724
1.05158
1.04168
0.653451
1.18133
1.04815
0.972507
0.935646
1.44222
1.03911
1.15011
1.07031
0.48485
0.123534
0.971751
0.976354
1.31173
0.944924
1.09239
0.472879
1.62486
1.57881
0.672408
1.36856
1.65116
1.05932
0.0925752
1.28925
1.29455
0.800526
1.02942
0.740419
0.130814
1.28989
1.19677
0.133242
1.10699
0.716187
1.1051
1.22172
1.06675
1.09954
1.04813
0.778247
0.69533
0.921315
1.21184
1.08644
1.34799
0.915254
1.17254
0.988249
0.408274
0.986648
0.817384
1.28323
0.958298
1.29084
0.789469
1.12169
1.06408
1.28694
0.9715
0.868852
1.07376
0.502837
0.986948
1.25008
0.983692
1.31104
0.995455
1.0025
1.12293
1.18641
1.15059
1.00537
0.610487
1.06365
0.641665
0.950771
0.866599
1.0888
1.0067
1.10635
0.778085
1.15615
1.08021
1.05772
1.19536
1.24914
0.794639
0.062157
0.894977
1.36047
0.262291
0.858282
0.944123
0.47923
1.04668
1.00028
0.799815
0.641548
0.622585
0.497752
1.06029
1.01376
1.06049
1.08539
0.797867
1.46093
1.13046
1.06581
1.06907
0.714522
0.487241
1.00401
0.628055
0.916888
1.47567
1.29288
1.27628
0.822705
0.956641
0.702451
1.14146
1.26067
1.24401
1.30073
1.31326
1.01738
0.607179
0.722929
1.13391
1.02628
1.32371
0.165922
0.906464
-0.173136
1.05166
1.09498
0.648578
1.05468
1.06845
1.10271
1.30887
1.28653
1.18951
1.29099
1.21095
1.21034
0.182303
1.0488
1.05916
1.08974
1.03778
1.06976
1.20036
1.09988
0.646107
1.09793
1.24802
1.28149
1.13239
1.25299
1.02021
1.02758
1.1334
0.858724
1.58779
0.319461
1.12035
1.16437
0.980061
0.860614
1.08796
1.6111
1.03717
1.16328
0.870868
1.1427
0.482617
1.38956
1.08841
1.04619
1.12491
1.10522
1.15829
1.53051
1.45433
0.832324
0.517654
0.80798
0.492322
1.0683
0.813381
1.15762
0.187281
0.730448
1.22623
1.51414
1.04797
0.0173348
1.64854
1.12506
1.1346
0.777701
1.27373
1.11622
1.18177
1.29872
0.0795291
1.27468
1.05619
0.403692
1.15495
1.14233
1.16246
1.54549
1.5431
0.898129
1.12719
0.625684
1.05733
1.06359
0.296009
1.29479
1.12217
1.06556
1.13593
0.900995
0.15913
0.879954
1.03617
1.43682
1.07074
0.738268
0.340919
0.831479
0.261901
1.0521
1.07753
0.908798
1.08052
1.09092
1.08377
0.065431
1.09477
0.830073
1.1237
1.15706
0.300256
0.00706722
1.56372
1.49024
1.64033
1.40706
1.10915
0.794036
1.10976
1.09449
0.467449
1.4765
1.17594
0.565342
1.25012
1.23176
1.20164
1.1047
1.10439
1.38488
1.09713
1.16018
0.859956
1.0819
1.08196
1.1836
1.20341
1.22837
1.25096
1.33866
1.36237
1.2242
1.09679
1.70972
0.882577
1.19768
1.09248
0.838385
1.23099
1.15086
0.929926
1.12251
1.08329
1.09438
0.357285
1.08755
1.51734
1.18297
1.49368
1.44224
1.634
1.1617
1.09325
1.54208
1.10683
1.32029
0.555864
0.803519
0.619653
1.10131
1.22898
1.14343
1.10825
1.15487
1.09953
1.20542
1.06755
1.23293
1.10045
0.635339
1.01706
1.0826
0.886487
1.12899
1.01534
1.79727
0.0827438
1.15814
0.871241
0.956084
0.845886
1.20493
0.769171
1.11207
0.246618
0.869811
1.22696
1.07517
1.00477
0.996855
0.184098
1.20436
1.27455
1.0858
1.07345
1.20452
0.876486
0.74588
1.31051
0.137819
1.15627
1.05157
1.1187
0.0609348
0.623646
0.163015
1.1071
1.31143
0.100758
0.900861
0.315736
1.15603
1.03928
0.384732
1.06586
1.11675
1.575
0.295294
1.18014
0.660136
0.5722
0.57028
1.29653
1.13899
1.10024
1.10819
1.4047
1.05605
1.2821
0.0418276
1.43972
1.21894
0.0862895
1.12037
1.20728
0.473252
0.280485
1.06657
1.07278
1.60793
0.319224
1.0756
1.07257
0.160335
1.11705
0.713254
1.04295
1.36021
1.0552
1.04049
0.904266
0.875121
1.44241
1.50434
0.706431
1.12743
1.06741
1.41468
1.1383
0.468586
1.19504
1.12183
1.12335
0.626695
1.0698
1.23172
1.09788
1.15455
1.09678
1.11941
1.09268
1.11259
0.154709
1.04829
1.6244
0.649752
0.944141
0.861012
1.83279
1.24116
0.00759984
0.0171255
1.32398
1.32276
0.974181
1.11055
1.10235
0.220371
1.01067
1.02037
1.29479
0.7894
1.37804
1.02202
1.14642
1.53332
0.431015
1.03108
1.09114
1.10882
1.01385
0.915937
1.48658
1.14679
1.22029
1.09228
1.11778
0.336385
1.34156
0.769013
0.462717
1.09584
1.21575
0.693158
1.01109
1.11622
1.26786
0.821059
1.07568
0.750659
1.02531
0.47854
1.1332
0.775927
1.21399
1.07013
1.33237
0.922412
0.230471
0.615263
1.62096
0.198248
1.0983
1.09351
1.47406
1.16909
0.657913
0.981834
1.08072
1.10816
1.17507
1.09729
1.25884
0.956902
1.23915
1.06046
0.993906
1.48731
0.812772
1.01594
1.33048
1.27891
1.6806
1.09932
1.05201
0.59836
1.10727
1.12266
1.24743
0.95007
1.0519
0.575706
1.05168
0.783167
1.17314
1.05434
1.14246
0.699379
1.06051
0.562284
1.23043
1.07752
0.595635
0.231774
1.17881
1.61352
1.18197
1.03562
0.956877
0.854323
1.50377
1.07107
0.0800041
1.13706
1.14356
0.0471841
0.930812
1.06286
0.92394
0.822114
1.26107
1.46487
1.43004
1.08244
0.787076
1.09049
0.447955
1.35314
1.59879
0.302752
0.920659
1.1894
1.60667
0.126047
1.4713
1.61073
1.09379
0.765331
0.94855
1.48515
0.887486
1.11689
1.72431
0.846948
1.4932
1.02625
1.0055
1.59093
1.29753
1.49501
1.45562
0.748916
0.059112
1.34964
1.18068
0.920736
1.19198
1.17081
1.12392
1.02621
1.48131
0.837714
0.883766
1.1252
1.15222
1.02072
1.11609
1.13272
1.44589
1.14246
1.01932
1.58193
0.731594
0.210742
1.14766
1.09011
1.15917
0.401853
0.8985
0.116355
1.14252
1.07856
0.165375
0.666798
0.738639
0.41783
1.19754
0.939116
0.858577
0.998431
1.10783
0.919452
0.792469
1.44532
1.04469
1.04573
0.643624
0.949081
0.348946
1.10288
1.26271
1.16497
1.31701
0.879717
1.24245
1.33483
1.38547
1.01939
1.58381
1.01982
1.44918
1.11167
0.0563567
1.05056
1.04684
1.03266
1.29509
1.0933
0.662322
1.5454
0.867144
1.29345
1.06325
1.25483
1.19189
0.791909
1.05371
1.12438
0.700716
0.559818
0.934409
1.07859