/*--------------------------------*- C++ -*----------------------------------*\
  =========                 |
  \\      /  F ield         | OpenFOAM: The Open Source CFD Toolbox
   \\    /   O peration     | Website:  https://openfoam.org
    \\  /    A nd           | Version:  7
     \\/     M anipulation  |
\*---------------------------------------------------------------------------*/
FoamFile
{
    version     2.0;
    format      ascii;
    class       surfaceScalarField;
    location    "34";
    object      phi;
}
// * * * * * * * * * * * * * * * * * * * * * * * * * * * * * * * * * * * * * //

dimensions      [0 3 -1 0 0 0 0];

internalField   nonuniform List<scalar> 
11512
(
153.689
-515.781
362.093
-770.6
-17.2629
787.863
438.599
-398.104
-40.4942
670.181
260.367
-930.548
1566.26
-1109.51
-456.755
1157.96
-1420.94
262.983
-43.6932
505.376
-461.683
167.203
-854.246
687.043
992.605
-1666.43
673.829
-1787.92
1700.49
87.429
-568.407
1726.37
-1180.77
2002.95
-822.175
596.351
167.725
-764.076
-22.5974
-1351.61
1374.21
229.334
-2017.26
1062.18
-394.082
-668.095
-181.463
335.151
468.772
168.118
-636.89
1198.74
-1359.99
161.252
-321.042
392.676
-71.6333
1042.42
-1348.14
305.717
1264.56
827.643
-2092.21
70.6254
-1685.43
1614.8
-525.816
-1141.32
1667.14
445.837
149.701
-595.538
-197.5
-318.281
515.266
1051
1691.7
-1847.96
156.265
-113.323
-1683.72
1797.04
-1614.6
671.677
942.928
-315.85
677.728
-361.878
-91.516
-88.3354
179.851
1319.92
-1249.29
370.722
-1457.92
1087.19
-955.688
955.688
94.7548
1569.58
-1664.34
-1114.08
-500.525
685.02
-728.713
-396.516
976.014
-579.498
1165.41
-1159.29
-6.1192
-1140.89
744.375
652.907
409.27
-402.417
-43.1855
445.603
-442.32
793.605
-351.284
-828.121
828.121
1149.84
-1268.43
118.589
-505.804
1770.37
1302.84
-326.824
1709.94
-1189.36
-520.574
83.7629
-404.805
2137.38
-1174.12
-963.256
1859.02
-167.322
402.626
119.125
-521.751
-465.191
1003.36
-538.167
-1199.78
1294.53
-588.154
1006.22
-418.069
418.896
779.84
637.363
-470.16
-452.609
618.006
-165.397
1233.75
-863.029
2383.72
-1116.66
-1267.07
1204.69
-2078.83
874.144
-1643.91
1621.31
456.685
-1637.46
-590.495
1066.28
-475.784
-698.138
382.287
1718.66
-726.058
-1141.99
-898.707
2040.69
690.605
-381.027
-309.578
714.756
588.082
-266.425
1416.26
121.315
-332.412
211.097
-278.384
724.221
-267.675
426.823
-159.149
-324.148
792.92
-328.444
-155.167
483.61
343.693
94.9059
1495.35
-452.925
-1006.66
509.889
496.771
290.514
92.0882
-382.602
944.387
-348.036
-1752.72
601.787
1150.93
35.3395
-882.881
847.541
-268.709
576.739
-308.029
162.755
-1133.77
971.014
792.449
-803.358
10.9082
383.044
535.514
-918.558
-230.776
633.401
-1142.78
-500.596
1643.38
-434.587
660.402
-225.815
1347.78
-1461.1
-650.209
299.77
350.439
-489.628
-1021.91
1511.54
-560.846
-819.66
1380.51
576.65
-978.255
401.605
-107.132
-178.845
285.978
424.259
-302.944
-1073.06
607.87
990.299
-827.543
-87.1922
687.947
-600.755
-172.875
356.847
-183.972
-633.512
-373.149
-395.753
972.404
1087.67
-1087.67
-466.717
-183.492
-942.375
1583.34
-640.969
309.938
-701.979
392.041
-955.773
367.619
-967.245
-1092.09
-1539.58
366.58
1173
-269.935
940.117
-316.02
637.279
-321.259
-2001.75
1034.51
-1168.58
-371.005
588.09
-1530.47
1788.02
-1786.24
-1.77736
228.576
-630.663
402.087
-1487.45
976.19
511.261
301.738
219.706
-521.444
279.244
-546.918
161.817
-261.221
99.4038
2038.73
-848.054
-1190.68
-569.287
166.87
642.365
860.014
-1502.38
-139.329
301.147
447.76
908.291
-1356.05
-943.974
411.267
532.707
-1080.13
1499.03
-746.422
155.928
782.476
-104.748
559.772
-277.197
-282.575
1032.46
-522.57
617.714
-1455.25
837.537
-1391.4
248.615
-505.396
236.687
-1210.34
940.408
2019.85
-1147.87
-871.974
245.147
842.523
-2165.57
924.036
1241.53
182.556
-13.477
-169.079
-152.287
296.347
-144.06
-118.473
-391.444
509.917
-483.955
155.511
274.537
-48.8275
358.765
423.976
405.859
-829.835
-2053.83
1143.78
910.056
477.275
-553.898
76.6228
131.783
-196.897
65.1144
963.398
1075.34
1824.69
-255.11
744.204
-444.434
825.783
-1440.57
614.783
361.342
329.263
1081.55
-1046.22
-514.019
-262.551
776.57
494.479
-141.576
-352.903
673.064
-505.339
614.4
-814.475
200.074
523.051
1186.88
-1285.3
724.455
1023.43
-1549.25
1.32108
-1487.51
1486.19
336.462
855.752
-1192.21
601.813
236.41
-838.222
-2275.65
1180.24
1095.41
-1119.59
-1156.06
214.024
400.376
993.553
-657.09
607.287
-617.014
9.72724
-2166.77
1024.78
-76.5038
-89.15
165.654
-44.3498
1832.37
-856.048
85.4482
-1061.6
-1103.96
-159.55
291.332
-688.465
221.749
-283.365
-427.589
710.955
1137.43
-1627.06
808.982
-1424.14
615.161
712.443
-452.076
1894.92
-1371.87
-311.303
-644.385
74.1765
431.2
-553.737
536.474
5.88227
-585.23
579.348
592.784
-291.046
-555.947
267.597
288.35
809.572
-385.596
15.1466
167.41
1228.36
-1227.04
187.108
237.152
396.949
-680.314
639.168
-1034.92
-2094.51
2094.51
-268.788
-452.881
721.669
717.327
396.217
-1113.54
600.441
182.035
409.702
399.871
-2270.47
1371.77
-959.417
-703.057
1662.47
-477.038
-733.305
-258.182
559.175
-300.993
880.241
-235.073
-645.168
-444.892
673.468
391.967
-707.987
-360.742
-150.811
511.553
-1356.84
-491.12
670.272
-1147.31
-297.477
-530.644
872.045
1511.68
205.664
-367.402
161.738
1002.42
-349.514
1442.05
-824.332
463.288
-276.181
-343.533
-915.962
604.771
311.191
-366.222
-549.74
318.598
-437.071
-181.445
-115.664
297.109
-405.296
1122.62
371.407
-203.29
-312.204
1392.79
-187.678
-1205.11
-489.531
286.608
202.923
232.841
258.797
-491.638
1.14979
-815.625
613.894
-1788.12
1174.23
1532.98
-890.616
-1047.89
-439.562
-1097.01
594.194
502.814
1408.45
-432.257
962.103
-1462.7
-165.885
-215.157
381.042
-471.202
604.321
-1684.45
402.056
763.354
291.251
299.435
-590.686
442
513.687
1145.59
-743.785
-401.803
379.865
-201.617
-178.248
-1455.79
461.122
765.478
-1226.6
1526.69
-564.591
-486.065
947.355
-461.289
443.813
1222.16
-1665.98
16.1623
-450.749
-149.654
440.167
68.1928
-159.709
533.627
498.833
-634.535
51.3387
583.196
911.627
-1106.67
195.044
687.082
-277.38
487.173
-1498.72
1011.55
422.469
1745.3
-540.61
819.297
1200.55
-688.311
-1744.55
785.13
593.23
400.184
-993.415
467.849
83.0156
1809.79
-1892.81
1306.68
-378.167
-928.515
1757.49
-1801.84
-382.252
-532.752
748.065
-215.313
-509.315
192.058
302.421
-376.443
-1235.76
213.852
-794.757
-660.495
-594.812
1064.2
-469.386
-377.732
372.683
5.04937
494.872
-634.794
139.922
-222.791
64.7869
158.004
-672.647
-710.556
359.49
351.065
-963.125
1450.3
-422.71
914.371
-491.661
-2276.61
6.13255
190.634
-558.786
368.152
157.17
1235.62
-110.354
-578.111
167.986
-620.595
1540.26
-731.274
390.001
-483.837
93.8367
-105.283
105.283
525.588
302.533
1840.5
-1273.94
610.519
663.423
704.924
-31.8598
1337.11
800.271
-559.938
1385.72
276.703
300.036
294.031
-826.783
260.916
-703.236
197.835
-363.129
165.294
-253.919
608.892
-354.973
128.602
-382.522
-613.188
-585.434
1198.62
-366.79
548.128
-181.338
-1164.56
2034.13
-869.574
1337.33
-343.778
-140.326
33.1934
-1987.88
846.564
1563.28
-850.12
-713.159
2054.31
-907.898
-1146.41
739.409
597.922
-216.637
414.472
-675.153
1168.2
-493.044
-798.032
1245.79
571.175
957.338
-1786.05
828.711
-545.565
-88.745
634.31
310.234
249.538
429.555
-104.155
-325.4
647.648
-61.9396
-585.708
941.706
-564.21
-377.496
1629.17
-491.74
917.67
-1683.26
765.588
1083.78
811.138
778.023
-462.942
-315.081
-905.742
-253.55
573.485
605.809
-1179.29
-453.37
517.559
-64.1894
599.511
-359.978
-239.532
-1017.38
594.665
619.333
913.648
-411.54
906.412
1454.54
-791.326
-663.213
415.397
-960.976
545.579
-1055.37
421.856
581.681
-1067.75
481.174
-538.819
57.6457
495.249
298.356
-88.5803
-16.7028
-823.521
-907.171
1730.69
186.166
193.7
-237.217
451.241
-47.5365
-557.164
604.7
496.029
902.733
-1398.76
-476.555
295.11
679.156
-31.5087
867.557
-1103.79
236.231
392.92
876.893
-1436.83
-457.308
863.168
2046.29
-1327.79
-718.5
211
396.287
214.558
577.892
113.666
-998.736
885.07
1731.2
-1123.83
-607.368
-144.022
1953.81
-1928.96
-165.551
410.511
-509.736
99.2255
-1053.15
545.227
507.922
-1607.19
442.63
-905.765
818.573
405.006
213.001
427.12
-221.456
-443.89
739.313
263.108
44.6117
811.435
-856.047
-1151.95
-880.409
2032.35
-537.496
1128.88
-591.384
-477.144
-97.1231
20.6193
-1712.31
888.787
-821.933
-653.274
1475.21
-243.671
-249.87
493.541
369.014
-673.942
304.927
242.846
-628.443
322.981
221.425
-544.406
362.57
-620.752
642.033
-273.018
322.857
-478.024
680.398
416.185
-183.344
-403.596
-306.959
1252.78
-10.3013
-1242.48
1073.95
-434.783
580.033
426.191
-1760.95
826.425
934.524
517.061
559.449
-1076.51
-364.05
120.379
-271.951
1222.75
-950.799
-1488.12
1176.82
517.887
-1131.08
402.881
-12.8802
426.911
320.663
-747.574
369.14
-599.915
-28.9057
781.592
-752.686
-403.549
639.958
387.969
286.035
418.889
679.369
94.4151
-410.011
315.596
862.351
-495.021
-367.33
514.066
-1720.78
1206.72
-1177.32
1813.51
-636.193
1774.45
-1160.56
-328.062
595.659
-1183.31
1296.98
256.854
-829.576
1650.61
-821.038
-261.464
-228.067
-963.786
1521.99
1875.23
-633.823
-1241.41
-420.259
782.438
-1377.25
-58.4752
-45.0874
474.643
-706.056
-358.276
-1129.85
-234.86
477.706
812.116
-583.724
192.28
-1732.39
-74.3788
1806.76
-1093.28
555.786
593.823
-1223.45
629.624
933.648
941.581
579.694
486.585
709.382
237.973
-1164.39
489.239
-421.116
426.999
645.261
-534.534
262.197
-763.562
501.365
703.63
-342.289
-216.398
128.062
-619.441
230.999
388.442
-921.719
-761.54
1120.31
-2212.4
405.224
-683.607
-295.324
-508.033
865.898
588.641
-363.112
319.927
364.635
269.797
680.758
-950.555
525.164
643.032
-555.262
194.52
364.415
-633.203
-1128.03
-809.32
1937.35
-1848.92
163.496
1146.67
-1418.62
1191.51
-717.571
-473.944
-522.111
1399
-1547.66
652.586
895.072
-128.55
-123.207
251.757
1476.45
577.863
343.147
-493.958
-506.553
-582.551
1089.1
-432.277
622.912
1638.39
-1168.43
-469.955
-798.956
346.075
500.109
362.242
-1678.52
434.102
1244.42
-208.145
531.126
826.461
811.927
217.869
-707.785
489.916
182.441
174.406
-198.4
-81.1298
279.53
497.54
-8.49599
-489.044
-1664.07
616.181
-1622.83
1700.88
-78.0555
19.3775
-1642.2
1009.21
779.806
-352.896
-823.969
-231.398
-1176.93
-247.209
-314.36
683.5
-1876.41
-643.462
1249.27
214.269
789.089
-1376.19
-702.636
-483.105
622.588
-331.337
-1043.7
1396.42
-1999.6
603.172
668.997
1333.95
297.517
-1.16979
746.595
719.207
-1465.8
-664.503
352.581
311.921
280.513
-68.2943
-212.219
162.835
305.094
175.185
-480.279
-593.562
1186.79
458.21
-634.708
-466.748
-414.291
881.039
-337.878
171.993
-477.442
174.497
-318.528
-734.621
337.994
-57.4814
-588.385
1003.78
287.492
-150.964
-136.528
467.277
-791.425
-672.549
447.712
-1164.45
-853.26
1219.84
-584.129
471.797
304.773
-461.18
80.1523
1054.66
-157.059
334.99
-177.931
-517.892
1527.1
-789.32
253.063
387.587
-640.649
234.241
491.389
-28.9567
-462.432
-263.67
-213.772
852.128
1144.41
586.784
-895.347
974.871
-79.5237
-171.151
42.6015
-749.674
322.085
-633.385
320.527
383.104
860.486
-1262.4
401.912
807.372
-836.277
-962.218
-571.996
1534.21
-170.78
470.215
-555.22
278.023
1384.23
797.941
-580.072
1349.37
-679.095
477.639
-693.989
-420.879
-425.089
-385.144
810.233
518.101
-866.137
-464.211
98.8742
365.337
-211.877
594.834
742.654
-337.431
-200.382
-153.11
353.492
-511.637
152.306
359.331
1507.22
81.9477
-1589.16
-774.254
1393.59
-1186.12
-480.318
562.865
-175.279
1191.27
-383.896
1117.29
511.881
721.877
-427.846
-914.397
-543.519
-1340.38
-32.1928
1021.03
-988.837
605.577
351.027
-956.604
-335.551
-233.736
-771.013
419.147
1675.36
-193.38
375.913
368.673
-744.586
-1903.38
-2175.43
1568.03
607.401
-2040.87
357.15
387.205
540.347
-927.552
-477.789
1057.82
-422.532
-673.838
1096.37
-2096.84
1435.72
661.12
601.745
-1024.28
63.7934
417.38
367.831
208.558
254.731
320.608
988.95
891.374
700.832
-336.428
-364.404
-300.113
633.673
-333.56
597.05
548.538
558.666
467.918
-1026.58
-821.833
-725.825
781.285
409.982
-423.599
728.526
-1229.78
1663.88
450.505
-1124.34
-338.263
559.688
-1423.27
932.873
490.394
-713.886
-281.512
-865.877
384.739
481.138
463.468
745.121
-1208.59
1107.67
-590.613
-411.599
686.376
-274.778
148.656
138.836
-484.575
-448.657
933.233
-252.53
563.083
-980.83
417.747
-425.216
620.45
-1737.1
438.704
696.255
-1134.96
545.26
92.0194
117.392
-2284.16
570.341
-98.5439
1495.46
1834.28
-223.773
-1610.5
-453.679
1850.1
-2056.46
1235.85
820.612
421.246
356.776
-27.0356
892.933
-1331.02
745.591
-898.866
-854.322
822.13
322.388
59.2405
-381.628
76.5041
85.4664
-161.971
1601.92
-855.327
-800.158
-287.513
499.699
-206.861
-292.838
386.159
338.062
260.283
362.305
-7.76536
1036.55
-1028.78
378.024
293.645
-671.669
-758.701
1878.72
-1120.01
-345.508
731.667
-1247.26
-417.071
-950.885
502.228
595.856
-804.525
208.67
789.327
-395.261
-394.066
-428.191
-467.156
453.228
1106.85
1280.39
-686.569
823.1
-355.823
387.104
334.565
-261.664
-222.173
-229.86
652.329
421.693
-879.689
457.996
226.713
363.382
-590.096
-437.956
859.649
782.604
-1187.9
903.118
-42.6325
-513.613
298.714
782.841
-98.8156
1432.77
1951.67
-70.3302
356.938
-323.331
417.746
-1123.66
1115.9
638.307
388.155
401.172
63.9195
435.78
283
504.863
-383.657
-280.845
-312.933
-64.7991
-371.083
382.356
-11.2727
-243.622
-261.774
1044.77
-1595.32
550.541
-201.34
-196.765
-387.538
681.183
-1682.84
1646.11
-993.521
279.504
-700.383
605.051
1263.01
-1868.06
631.552
1014.56
323.417
-1160.03
716.136
-289.771
-300.914
1409.05
-1492
846.756
645.243
423.004
-649.508
226.504
-377.916
499.14
-121.224
377.21
120.33
1784.98
417.476
-235.035
579.183
-1762.39
1183.21
-93.0498
402.476
350.098
350.734
-464.228
-637.084
1101.31
439.955
-897.264
-665.084
934.438
592.256
-112.91
-109.881
-456.143
-423.545
-320.354
-856.579
1046.61
-1046.61
-96.1469
-1614.57
1710.72
302.522
296.989
-947.899
-577.267
1525.17
-412.943
971.609
-628.483
-1035.59
692.098
415.987
-1108.09
489.958
-167.101
593.072
1258.77
-1851.84
-1046.46
2114.05
-1067.59
-386.393
-311.744
-493.697
839.772
-1807.06
1652.84
154.216
1807.06
-1654.74
-152.322
-235.865
508.216
-272.35
-558.33
1675.62
1598.49
-2015.56
1113.95
-287.5
-270.285
557.785
253.902
-592.165
-728.496
304.898
1388.45
657.841
597.031
505.194
-1102.22
296.372
425.505
902.187
514.968
-1417.15
548.779
-1055.33
1630.44
-585.665
-773.159
-373.308
-127.089
500.396
-508.2
1253.32
-772.791
315.622
317.78
373.078
270.478
-643.557
626.981
860.01
-623.778
285.165
689.706
-112.91
-322.723
-245.726
568.449
1206.14
-677.294
634.545
481.206
-1115.75
-971.247
971.247
-397.146
785.301
-299.336
-490.361
789.697
499.653
468.909
-968.562
401.605
-700.941
637.649
-900.744
263.095
-380.765
-515.835
1112.87
-687.192
-733.633
1420.83
-399.043
962.126
-1605.55
697.652
53.4835
-438.103
384.619
-510.34
732.089
270.085
338.807
177.093
312.865
-532.012
242.24
1935.14
-2033.96
286.938
-731.83
460.872
-853.039
392.166
-900.316
1443.82
-543.504
-446.168
-504.718
622.793
1161.66
-1784.46
-742.726
356.333
-476.029
1073.08
-792.887
1078.05
-310.231
-628.175
-490.34
751.256
421.529
-271.828
939.609
-313.72
-197.917
1651.6
-1875.37
-370.578
-610.253
-346.049
498.355
274.721
-606.058
-196.437
1091.49
-792.776
224.137
-301.718
-289.847
591.565
416.004
-909.328
493.324
-452.502
-461.163
-367.402
-347.457
599.946
-252.489
-469.609
-434.816
-339.69
-204.717
-396.833
667.312
-450.215
784.78
-1111.25
647.024
-1408.67
586.741
-28.2829
-1897.92
1926.2
592.357
-465.817
1251.97
-696.179
41.5548
-41.5548
693.314
-448.214
1034.79
-1663.27
-1195.96
-979.475
302.775
330.897
906.68
743.934
-500.145
-323.602
823.747
1714.08
-1742.36
-450.267
364.317
228.467
1176.94
-542.399
-974.29
1601.38
-627.09
462.703
-254.145
382.958
407.636
-790.595
542.746
496.109
-1038.85
-324.275
639.896
-39.3294
1974.47
1622.88
1026.48
-1757.75
753.514
-1221
467.49
-512.179
1414.37
867.965
-1390.08
-571.372
283.872
822.042
-421.857
576.887
-1230.48
653.595
-650.788
-1254.83
-719.839
1974.67
-214.979
573.371
-358.392
-190.585
305.459
-520.439
337.235
388.829
-726.063
-1531.3
785.948
745.356
911.159
-1483.15
857.663
-446.396
228.628
-378.281
-604.399
281.675
-713.945
-709.322
724.607
524.192
-1248.8
395.418
-206.5
-188.917
576.424
-994.493
-577.41
-428.969
751.053
-859.709
-1196.75
-1488.94
519.25
969.692
6.0043
-650.341
360.209
290.133
-1353.54
1083.62
269.92
-638.628
-472.624
-640.369
854.927
417.628
-212.242
-205.386
528.593
1013.24
-1541.83
1011.65
-286.644
99.2448
187.399
-421.567
699.978
-413.04
-528.854
182.805
242.712
-1570.51
555.518
552.156
-773.755
263.415
163.483
-477.203
389.692
-850.855
2015.75
-1232.5
-783.248
415.582
-694.074
278.493
141.917
336.328
128.807
-465.135
-580.401
182.686
234.791
-718.485
1423.03
-704.542
436.867
498.053
-1211.94
264.594
1932.22
-1049.84
-882.386
678.918
-550.464
203.007
1411.3
-970.372
-440.924
353.35
-801.564
-639.881
1784.3
637.46
642.932
335.275
-12.8877
288.379
-1175.07
1784.6
-609.533
-1821.55
847.262
1786.23
-1711.2
-75.0336
-685.455
264.339
586.204
-736.672
246.332
1453.49
-585.527
410
453.168
-1922.22
1468.54
569.012
-429.772
-139.24
223.476
-563.166
-280.471
-196.673
-359.225
709.323
-596.531
223.224
623.776
576.93
-1200.71
1151.28
-2015.48
864.207
177.465
334.088
-1759.45
1720.12
334.336
-762.183
-170.185
398.813
773.879
706.575
-1480.45
1100.46
-1110.76
551.685
-1142.3
-654.682
265.462
389.22
539.323
-308.324
-641.272
-1022
313.874
-748.69
-941.478
195.455
168.026
227.391
396.599
312.447
-709.047
-646.559
-863.82
-1012.59
515.431
-1095.83
-297.39
500.313
559.122
660.718
-113.715
-26.6106
-412.532
735.949
289.543
-1240.49
593.934
1351.78
-577.897
468.374
-1045.78
-171.197
177.48
391.532
1057.4
573.037
-1730.68
1634.53
1656.31
-606.604
-1049.71
1969.05
-1956.79
-12.2602
216.591
-539.922
-353.014
577.151
-780.104
-329.947
-355.508
1015.04
729.41
-1537.62
808.211
345.979
-26.0338
1677.63
-1114.62
437.322
-1270.07
496.912
-61.3904
1568.61
1242.6
-489.082
-262.765
-23.8788
-287.655
761.678
-2016.51
-732.692
361.733
-556.062
194.33
56.772
-213.831
1178.52
694.91
-1873.43
-628.463
198.69
973.765
-1551.03
-205.181
619.103
-413.921
882.481
1117.52
-759.285
1396.75
622.14
-490.038
-132.102
-365.078
1211.83
1064.66
-1981.09
916.432
-1212.15
568.689
1542.36
-607.924
-385.48
-169.782
-1284.29
597.726
1203.44
-52.5132
979.818
802.953
-1782.77
-221.991
600.899
-1596.72
995.823
506.857
946.591
-1453.45
635.817
613.455
398.69
-1141.6
340.823
1145.97
479.212
-263.806
-215.405
-1224.79
-1814.95
-1.91249
-1728.76
-225.233
-424.275
1663.24
-647.08
-1016.16
-495.359
1075.05
-1363.11
661.806
701.306
-1408.04
1489.99
-1376.2
616.914
1574.66
-405.873
-592.696
207.216
-1506.92
238.437
175.532
242.108
380.031
433.262
423.775
-857.037
527.649
-970.128
932.5
-1497.09
-720.374
253.568
466.806
-1077.93
484.368
-485.642
895.642
723.069
31.7973
-548.884
190.492
-914.704
-1361.9
-741.366
365.117
376.249
422.179
-750.904
328.726
-378.525
-149.594
-467.42
741.525
1593.8
-613.986
835.211
766.711
1357.33
-842.361
-1004.39
-592.332
-828.892
443.032
385.86
-1073.41
-662.15
316.995
345.155
-1368.64
-238.548
-820.954
414.783
406.172
-673.159
405.039
268.12
-702.615
289.576
428.081
505.152
401.343
458.305
490.477
390.562
611.016
-987.459
693.954
492.838
437.542
326.133
-763.675
1686.36
-1114.04
-572.318
-524.557
-287.7
-1065.84
464.793
345.439
423.905
614.515
-1038.42
-1428.46
781.381
-556.856
1186.48
372.106
-67.0121
427.178
-899.165
471.988
-1907.08
292.509
418.637
-668.302
249.666
-192.783
420.978
-228.195
-687.984
322.38
365.604
-698.675
334.271
379.506
405.795
632.266
-1045.21
781.329
684.173
-1465.5
452.757
648.555
300.471
303.121
-603.592
411.919
319.749
603.327
677.106
429.74
600.525
-1052.07
451.55
-1707.88
1174.69
533.188
1750.18
-563.295
645.019
-1189.67
544.647
-567.011
317.141
454.283
-971.127
516.844
770.893
-450.23
352.88
356.443
576.211
-946.788
674.1
-1299.55
625.446
397.677
761.833
-1270.03
797.609
528.493
-1326.1
491.658
430.086
-921.743
-521.648
-967.295
-316.768
654.003
349.356
545.448
-894.803
330.728
309.169
-520.976
2007.17
427.818
-808.232
380.414
-950.029
-836.02
-777.797
383.731
-1255.84
462.949
-1784.81
1654.74
130.07
1803.75
-1652.84
-150.907
-811.966
-603.304
275.164
328.139
-1786.23
2015.56
558.441
820.165
-1378.61
456.288
742.334
708.538
387.382
-1095.92
-54.442
1673.73
-616.323
409.644
842.322
-532.924
286.37
246.554
-390.632
-208.697
357.353
-232.887
452.593
252.125
-562.887
310.762
269.875
-577.905
-296.186
458.896
-1071.2
612.304
558.934
1127.42
364.062
608.342
203.205
169.976
-373.181
1662.69
-933.276
1751.3
-1574.09
-177.21
-333.428
-855.381
431.835
861.651
-1066.83
-624.844
291.285
-1124.99
1683.92
-1613.56
-68.5189
1682.07
-349.68
-359.375
-381.68
555.171
621.773
-521.838
-32.0601
-509.548
503.907
-282.973
-220.934
1783.64
-1330.41
-626.079
305.633
320.446
420.091
365.416
757.207
-295.182
-412.679
-1803.75
1742.36
475.628
-1140.82
665.189
-39.1762
1673.71
578.033
455.959
-1033.99
72.2253
1184.43
-1504.78
-4.18291
-1902.9
231.557
-552.602
273.133
279.469
-883.604
588.28
-933.446
487.278
-1169.82
698.499
471.324
389.557
287.776
-787.921
-315.421
1262.18
917.633
725.744
-1224.87
476.418
748.452
512.334
726.812
-1239.15
-363.818
-253.083
421.109
-997.219
455.317
541.902
21.6864
-1943.9
1120.08
-482.428
-507.571
578.744
-1428.3
849.555
-436.041
828.207
-419.783
507.409
-1028.75
1880.88
410.15
-182.759
146.552
-172.256
-249.408
421.664
1956.94
-521.222
-1733.6
1085.02
-457.314
248.617
-1051.67
573.881
-313.311
565.996
935.54
-1501.54
-1082.79
442.423
-20.872
-2013.09
1717.62
-652.953
-488.867
478.67
-1235.24
756.571
197.441
220.186
-215.144
794.667
727.325
828.103
695.514
-369.381
1124.18
-515.424
473.468
-190.204
-283.263
-1990.61
-662.522
-300.477
-351.727
-1.57424
353.301
446.492
-263.806
587.779
1074.91
-824.729
959.435
1290.33
-440.598
-204.787
-258.698
463.485
953.539
-910.298
-344.901
-1106.73
634.107
1607.45
-821.501
558.932
966.235
-401.693
763.571
-361.878
1164.83
-228.949
326.974
1398.91
-729.711
-231.265
467.664
-1244.57
776.909
-983.431
-167.192
1150.62
459.089
-992.029
532.941
194.093
201.918
277.293
802.576
-121.818
885.483
-441.169
1143.64
-756.262
573.319
-1518.29
944.973
-1254.75
1859.8
-442.477
-1559.28
909.179
-1452.7
-327.879
-419.695
1509.89
-1576.36
814.816
1542.71
204.144
269.324
-365.371
-1784.81
-311.388
-1024.68
1612.46
-1811.23
1811.23
1598.49
-1041.97
-659.685
-348.395
358.767
612.842
-368.666
-373.257
-1438.98
926.796
1161.35
623.249
1183.99
1847.42
-1254.35
-627.038
256.287
1715.87
-1982.47
266.594
843.02
-1312.97
1598.75
-584.19
812.871
316.008
-343.388
575.17
823.834
632.544
1399.81
-233.149
-461.458
-368.689
353.271
-234.145
489.65
763.671
-306.68
-158.456
-335.81
589.356
-253.545
26.7285
-386.707
1143.69
-1779.88
-464.42
-497.505
-588.34
896.11
711.34
-1653.19
934.705
-468.899
-635.221
-532.222
1297.7
355.812
1782.67
-1760.98
-1714.08
1956.79
-1596.14
863.892
732.245
-372.984
-1857.68
950.513
604.465
849.027
-417.67
1856.83
-705.557
-413.547
684.311
459.292
-1143.6
-1139.41
461.968
780.628
-1672.37
492.384
930.643
170.591
-379.065
208.474
-1618.05
-399.206
-430.659
1016.32
-690.361
1494.47
-972.445
1854.93
237.895
-548.967
502.649
-298.505
492.358
922.008
564.476
1010.19
-480.375
-442.011
595.903
913.987
-1332.15
-36.495
1622.45
-855.739
540.956
1001.76
-1528.95
-1087
1789.92
-1241.32
-548.596
1251.13
-332.129
-919.001
-186.032
446.004
-259.972
-466.985
-251.52
431.048
-179.528
152.119
-405.202
1750.37
-1752.28
-467.227
-552.911
-930.243
421.067
-192.109
-228.958
449.759
-458.18
-358.909
-328.729
687.638
-981.585
431.845
-1184.62
689.263
408.486
-649.021
-448.993
1623.14
-879.208
550.635
-475.247
-591.258
-479.943
46.5481
-44.2328
-2.3153
-1132.77
436.588
-689.189
-1068.54
1757.73
-609.556
-1474.04
740.402
583.585
-1651.99
1068.4
-389.689
-485.697
169.481
539.901
-1304.17
771.953
560.916
1037.83
-2200.41
1022.34
1178.07
-367.711
58.6122
-52.4353
-6.17685
1530.71
-390.707
466.564
1148.03
604.306
938.056
588.847
546.634
-1135.48
171.701
-448.308
-1711.2
273.967
1153.26
-626.867
538.976
1047.3
-1586.27
1127.6
-1699.92
177.327
725.792
558.664
-903.565
-1103.78
-114.588
305.875
-191.287
-524.838
-436.243
-659.438
-431.749
216.605
-1676.1
973.041
-493.793
205.572
-388.331
542.89
-311.333
-615.699
1241.01
-1310.36
931.02
379.34
-1027.55
-371.419
-778.474
-847.909
1744.02
-494.427
1798.59
-1592.78
-205.813
-1610.41
1051.16
559.244
-746.198
-142.839
262.389
-119.55
-602.993
396.491
287.826
-684.316
-543.221
1018.27
652.796
-361.512
-1665.15
1081.02
593.773
1138.73
-1732.5
-419.504
-307.454
-380.53
-766.655
-474.042
-340.775
517.868
1612.46
-1028.88
-803.436
1550.52
687.281
-322.964
751.2
1185.64
-1936.84
294.424
322.274
-504.634
-1999.61
1780.32
219.296
768.295
-491.158
-277.138
552.903
1094.57
-1647.47
46.5481
-1732.95
-241.12
1809.15
-1631.65
1110.39
521.262
-1738.81
5.86059
-540.647
58.6122
1759.45
-1780.32
972.593
647.362
-1619.96
235.265
-143.777
-91.4874
-414.46
-288.155
59.7846
38.916
-181.755
-450.94
-449.804
-424.176
231.394
1557.28
394.55
-236.623
-436.536
399.506
-164.716
338.521
1562.67
1102.63
-232.53
-870.098
-1140.83
1763.62
-1789.2
1100.01
-732.891
-1056.31
-1303.8
1904.63
-600.824
1193.34
-1831.83
638.486
147.801
-908.881
1733.19
45.1091
-1778.3
-510.709
-1116.35
-1750.37
-1013.87
571.857
1051.96
612.667
1169.2
-1781.87
296.267
-471.546
731.307
-397.036
379.467
957.435
705.039
-405.599
-646.475
605.349
1106.82
-1712.17
-411.178
-386.92
798.098
445.016
-1720.12
1574.09
146.026
607.158
-1083.19
564.933
1118.99
-1609.8
1025.61
-249.677
246.814
330.336
1969.05
430.165
-91.3408
1022.12
743.377
-1765.5
-720.41
1119.47
-1611.21
170.143
-587.677
178.637
220.869
-665.756
-590.081
604.689
1069.04
-708.204
-287.979
-1418.45
701.16
717.293
-376.081
821.311
114.844
-936.156
582.285
-142.145
1610.68
-226.735
276.364
-794.976
-1999.61
1721.37
1011.56
64.7869
319.749
451.144
-963.815
-1026.79
-1824.78
661.953
1751.39
531.693
-492.294
1255.97
1123.94
-436.086
1048.93
-1015.67
514.097
501.576
725.25
1084.24
-1809.49
506.642
497.139
-1546.43
-775.384
31.5987
811.231
-427.5
-917.469
409.898
-558.193
-831.883
161.738
-598.513
1448.07
1091.4
149.253
156.621
-572.579
1675.32
-798.755
1580.08
-1786.42
597.107
1189.31
567.28
-916.794
-1792.92
1982.47
-189.548
1773.32
182.198
-562.7
130.022
-91.106
-500.01
1256.58
586.544
1163.64
-494.511
453.967
891.518
-482.248
-803.787
438.915
364.872
1468.67
1126.81
-538.929
1473.63
-474.517
-415.35
889.867
-625.678
522.693
-1240.26
1751.3
1897.5
-711.865
1642.01
-669.412
-1287.04
743.817
-583.974
115.573
-204.723
356.002
-181.597
-539.176
-1286.14
1931.83
-645.693
1216.39
-571.367
1153.88
-1717.18
1744.87
-596.308
-564.22
-570.796
1777.51
-329.309
-714.728
-493.357
1270.27
-1740.07
-1920.91
634.769
353.086
-998.254
171.076
219.677
-1776.24
1241.16
535.079
1199.92
573.405
-529.432
-486.796
1235.25
184.3
236.678
608.209
1289.29
-558.114
-1276.86
1834.97
-1060.99
1058.11
874.112
-210.712
-1715.87
1760.98
-530.553
1461.2
-1792.92
-384.186
10.7432
373.443
-277.583
608.916
-331.332
99.4122
505.358
811.486
-389.308
1295.3
1289.88
-428.224
885.562
-453.726
1879.31
-685.968
1640.52
-1782.67
-427.028
-764.501
300.686
463.815
-579.568
-585.127
54.4104
-960.152
-1019.79
-693.843
1713.64
-970.1
-1230.31
153.926
-424.211
-672.255
729.984
1205.86
673.451
1461.32
-612.296
1670.32
1365.83
-593.876
-502.892
204.387
-523.723
1445.73
1285.29
-584.131
-937.867
927.974
53.9649
-981.939
556.725
-526.438
1453.23
1548.69
-610.636
-46.9945
46.9945
-611.695
1680.1
1286.41
-505.783
1161.01
-54.5132
1851.56
-354.727
1543.09
-610.592
-527.909
1391.8
-677.691
1263.13
-585.444
1609.96
-614.14
762.762
602.385
-1365.15
-655.325
300.478
497.463
622.211
-2019.94
-1015.85
1640.52
46.9949
-46.9949
-76.4799
405.731
451.932
398.992
-21.7815
-274.859
922.207
-524.53
-440.41
846.141
-255.013
644.233
-416.276
1560.05
-461.557
-878.827
173.493
197.611
-371.104
622.452
1288.76
-1911.21
963.038
-475.76
-44.2328
130.28
-2007.6
1877.32
-470.042
193.862
1218.72
-460.02
-758.705
-322.245
-595.224
-508.593
-52.4353
-464.219
243.284
1201.1
-579.328
237.381
-395.738
158.357
-5.88722
-88.9531
644.385
-555.432
13.6568
-326.59
-608.805
-67.4914
67.4914
-1235.6
1978.98
-1218.8
-232.037
-1826.27
233.491
-1057.28
-1005.59
-190.028
-1695.59
731.774
1269.25
-1989.09
386.527
321.48
-708.007
-1910.12
1273.36
636.764
-106.864
106.864
-991.289
-8.87925
-1928.96
-579.738
1707.16
-702.408
1693.23
-624.192
-193.96
-1708.94
-604.693
-444.752
-617.219
-74.0743
74.0743
-1587.87
201.765
1386.1
142.999
168.841
-311.841
590.016
512.612
1034.62
-492.72
1808.12
797.721
-167.673
161.496
538.696
1760.75
-617.065
-574.381
1693.37
434.924
1874.05
-668.185
-1867.3
-1998.76
-670.166
-78.2944
78.2944
-613.556
244.867
-695.445
1057.23
-483.35
-1109.21
-295.545
842.523
1911.75
1689.77
-1689.77
-281.125
767.816
1820.05
616.41
1315.42
116.008
119.257
617.426
584.607
839.163
-839.163
229.579
-364.377
-448.393
370.122
987.396
-473.299
-663.635
-1167
1764.11
293.421
-1675.75
640.162
-291.093
473.291
1803.56
-614.252
-145.648
-430.649
399.773
746.194
1797.62
-636.276
-531.82
-772.018
2022.8
-898.702
-1124.09
1699.44
-570.138
1262.75
-1885.25
622.501
362.458
-911.425
-170.869
-20.6189
1138.22
-504.11
131.012
650.211
-1672.21
459.601
631.543
-1867.3
-604.838
1846
915.803
-1199.84
1819.56
-619.724
1842.58
-596.891
-1245.69
462.354
932.408
-1752.28
955.543
-1473.21
228.43
1244.78
-862.118
-1293.71
-141.548
33.1026
108.446
603.725
282.722
1060.49
-464.128
878.98
-414.852
851.193
763.525
-1614.72
666.223
1104.14
-3.14377
-397.637
400.781
-1805.54
749.227
718.545
82.8709
-1158.62
2000
-697.523
-1302.47
-558.696
1722.33
852.526
997.11
-1849.64
1267.46
707.211
-416.141
738.522
843.939
1066.97
-607.883
1820.05
648.938
1832.36
-1222.71
-609.652
-377.448
-345.349
722.797
95.7421
-1024.26
1716.36
-562.475
-676.669
676.669
1288.72
615.903
1396.04
216.424
-565.094
291.662
-199.573
723.617
1150.43
500.853
-316.554
-901.173
-595.919
1746.42
-1746.42
509.862
-509.862
1019.49
1058.26
-2077.75
1898.38
-635.638
-602.617
846.588
-977.864
-1086.15
1033.17
715.365
-1748.54
-88.5803
-375.022
-649.255
-835.054
2108.41
-1285.83
-635.078
1034.69
1006
1331.27
668.726
340.675
1044.93
235.004
347.358
513.687
1814.87
-1814.87
669.127
21.5575
-158.085
-1029.32
-563.566
1724.57
989.307
1010.69
-1893.48
-232.884
-371.809
629.891