/*--------------------------------*- C++ -*----------------------------------*\
  =========                 |
  \\      /  F ield         | OpenFOAM: The Open Source CFD Toolbox
   \\    /   O peration     | Website:  https://openfoam.org
    \\  /    A nd           | Version:  7
     \\/     M anipulation  |
\*---------------------------------------------------------------------------*/
FoamFile
{
    version     2.0;
    format      ascii;
    class       volVectorField;
    location    "34";
    object      U;
}
// * * * * * * * * * * * * * * * * * * * * * * * * * * * * * * * * * * * * * //

dimensions      [0 1 -1 0 0 0 0];

internalField   nonuniform List<vector> 
7807
(
(1.08963 0.118616 2.9308e-20)
(1.08037 -0.02169 9.07429e-20)
(1.05807 0.10303 -4.7464e-20)
(1.06155 0.081595 9.44571e-20)
(1.03679 -0.00160249 1.4593e-20)
(0.921813 -0.00643217 1.10961e-20)
(1.05938 0.103029 -9.43162e-20)
(1.0079 -0.000899458 3.6274e-22)
(1.03485 -0.0013802 1.29498e-20)
(1.03971 0.00390323 -8.10728e-21)
(0.984187 -0.00752823 -1.23565e-20)
(1.03716 -0.00201905 -2.31719e-20)
(0.956908 -0.00178289 -2.23097e-20)
(1.04332 -0.000482095 -9.60666e-20)
(1.03826 0.00389046 3.38438e-20)
(1.03124 -0.00879296 3.59097e-20)
(1.09021 0.122524 -6.22014e-20)
(0.931612 0.00165117 6.24436e-21)
(1.0383 -0.00559478 -1.82079e-20)
(1.02278 -0.0766341 7.72009e-21)
(1.05611 0.00621208 -2.58857e-20)
(1.03687 0.000177741 6.59049e-20)
(1.04486 -0.00129431 1.24318e-20)
(1.01665 0.047985 -5.75609e-20)
(0.891965 0.00440307 2.2286e-20)
(1.087 0.116942 -2.94182e-20)
(1.03702 -0.00141065 1.21982e-20)
(1.04602 0.000926284 3.16609e-20)
(1.00731 0.022924 -8.37068e-21)
(1.03851 -0.00572852 1.6249e-20)
(1.02732 -0.0090204 5.12598e-20)
(0.482567 0.00897555 9.75517e-21)
(1.04439 -0.00143231 6.70148e-20)
(1.03483 -0.00229292 -2.78938e-20)
(0.448771 0.000911957 -1.01411e-22)
(1.04235 0.00337997 1.29213e-20)
(1.03918 -0.00679758 1.1967e-20)
(1.05806 0.102847 -1.60213e-20)
(1.03378 -0.00505916 -6.48899e-20)
(0.839295 -0.00327043 -3.45007e-20)
(1.03412 -0.00510957 6.5296e-21)
(1.03132 -0.00834138 1.33995e-20)
(1.04867 -0.0845469 -3.66477e-20)
(1.16507 -0.0117801 -1.28728e-20)
(0.418894 -0.00108363 -1.63968e-20)
(0.873603 0.00850962 7.11057e-21)
(1.03589 0.00032595 -4.00896e-20)
(1.03453 -0.00457965 3.81977e-20)
(1.03154 -0.00344031 7.07253e-21)
(1.02682 -0.0772097 -1.13679e-20)
(1.03757 -0.00157369 1.84784e-20)
(1.04669 0.00140663 -3.4191e-20)
(0.836415 0.00381971 6.05585e-20)
(1.04482 -0.0190331 1.30233e-20)
(1.04285 0.00291068 -9.94207e-21)
(1.03277 -0.00272727 6.62458e-21)
(1.03746 -0.00479526 2.87215e-20)
(0.975766 -0.000897981 -4.26571e-20)
(1.01901 -0.0106904 5.86018e-20)
(1.03454 -0.00266735 3.38868e-20)
(1.03313 -0.00127744 -1.70866e-20)
(1.03886 -0.000205698 1.75565e-20)
(1.0438 -0.000120885 -2.17166e-20)
(1.03666 -0.00137171 2.36603e-20)
(0.858357 -0.00911015 -2.459e-20)
(1.02773 -0.00946408 -8.18352e-21)
(1.03403 -0.00170494 -1.20409e-20)
(1.03113 0.000221862 1.74137e-21)
(1.14976 0.0840267 2.94241e-20)
(1.03473 -0.00414537 1.5389e-20)
(0.965398 -0.00235409 -6.44643e-21)
(1.0138 -0.0413347 6.86493e-20)
(0.944284 5.47459e-05 -1.09753e-20)
(0.745438 -0.00275286 -9.31379e-21)
(0.973788 0.00038231 -1.95859e-20)
(1.00528 -0.0182498 9.36535e-21)
(1.05825 0.1038 7.60449e-20)
(1.05468 0.00561088 3.25301e-20)
(1.1014 0.0190733 -6.65226e-20)
(0.999119 -0.0320306 7.76482e-20)
(0.991523 -0.00332531 3.44079e-20)
(1.02913 0.112974 1.08316e-19)
(1.05762 0.0180963 5.69706e-20)
(0.948449 -0.00261787 -4.18786e-20)
(1.03466 -0.00208259 1.97132e-20)
(0.712483 -0.00235118 -1.04875e-20)
(1.02538 -0.00290547 -5.70192e-20)
(0.894599 -0.000595686 -3.86615e-20)
(1.03592 -0.00138343 -1.66942e-20)
(0.709172 -0.0054567 -2.04022e-20)
(1.0077 0.0259928 5.94123e-20)
(1.18976 0.00710854 1.99601e-20)
(1.02433 -0.00285044 1.19999e-20)
(1.03731 -0.00442596 1.34201e-20)
(0.981736 -0.0035064 -2.44194e-20)
(0.480026 -0.00345301 7.21574e-20)
(1.01582 -0.0411452 -4.13386e-21)
(1.04601 -0.0179299 -2.24427e-20)
(1.03439 -0.00201822 -3.94297e-21)
(0.800269 0.00957962 -7.10722e-21)
(0.819566 -0.0110633 -1.97432e-20)
(1.10156 0.0236172 5.00369e-20)
(1.01026 -0.00115138 6.03723e-20)
(0.466422 -0.000844717 1.07335e-21)
(1.19057 0.0177989 1.25889e-20)
(1.04396 0.0459755 -5.70955e-20)
(0.714381 0.0427266 1.32314e-20)
(1.03076 -0.00289797 2.5288e-20)
(1.02966 -0.00133454 -5.81306e-22)
(1.05218 -0.00477307 -2.74619e-20)
(1.06274 0.0783241 -1.0963e-19)
(1.06166 -0.0576812 6.94056e-20)
(1.03071 -0.0013904 7.31154e-22)
(1.05356 -0.0046059 -5.95829e-21)
(1.03965 0.0445485 5.96016e-20)
(1.03538 -0.000339131 -8.9727e-21)
(1.10534 -0.0653615 5.06418e-21)
(1.04394 0.0291574 -1.57887e-20)
(1.02405 -0.031922 -4.20877e-20)
(0.830889 0.000142789 9.97248e-21)
(0.600829 -0.0049056 4.65509e-20)
(1.00841 0.0559162 -7.21565e-20)
(1.05466 -0.0828305 5.035e-20)
(1.04151 -0.00355938 7.67874e-21)
(0.680396 -0.00682585 -1.82713e-20)
(1.03576 -0.00152155 -3.54662e-20)
(1.02904 -0.00636654 -1.88027e-20)
(1.03754 -0.0048897 -2.2044e-20)
(0.703123 0.0114283 5.71713e-20)
(1.0279 -0.00802531 -1.23556e-21)
(1.22287 -0.00117698 5.75313e-21)
(1.09661 0.0164239 1.11614e-20)
(1.03557 -0.0028882 -2.61947e-21)
(1.03561 -0.00146922 3.70709e-20)
(0.904813 -0.00327741 -1.19927e-20)
(1.05914 0.0734291 4.36022e-20)
(1.03379 0.118419 1.2313e-19)
(0.696055 0.0107365 1.89561e-21)
(1.04127 -0.00173493 4.21125e-21)
(0.499752 0.00527125 5.05148e-20)
(0.624676 -0.00316085 4.12232e-20)
(1.02822 -0.0463405 5.26942e-20)
(1.00752 -0.0199357 -1.2552e-20)
(0.735616 0.000267365 7.329e-22)
(0.567141 0.00293681 5.24604e-20)
(1.04766 -0.0314113 3.44062e-21)
(1.01611 0.0292815 -3.17005e-20)
(1.02142 -0.0138349 3.1472e-20)
(0.531065 0.00371845 -8.95146e-21)
(1.01198 0.0838236 -3.60005e-20)
(1.0439 0.00349455 3.7746e-20)
(1.17902 0.00243475 8.7824e-21)
(1.03565 -0.00131935 5.557e-20)
(1.15486 0.0781659 6.98414e-21)
(1.05556 0.0171753 -6.03667e-20)
(1.05795 0.101439 -8.26473e-20)
(1 -0.0222443 -3.38017e-20)
(0.864617 -0.00562398 -8.53929e-21)
(1.0493 0.0811889 1.20227e-19)
(1.02912 -0.0101108 7.70078e-21)
(1.03731 -0.00454413 -3.3489e-20)
(1.01717 0.0526788 3.95626e-20)
(1.03087 -0.00204466 -9.22168e-21)
(1.03505 -0.00330381 6.71311e-20)
(0.931096 0.00223052 1.07117e-20)
(1.00679 0.0561529 -1.19377e-20)
(1.00366 0.0384288 4.29824e-20)
(1.03445 0.0741348 3.73367e-20)
(1.03482 -0.00348977 2.90353e-20)
(0.641433 0.00117165 1.38378e-20)
(1.03222 0.000872642 -1.74314e-21)
(0.376993 -0.00296281 7.43314e-20)
(1.03565 -0.000520522 1.19933e-20)
(1.08152 -0.0182289 -1.06174e-19)
(1.04111 -0.00196156 2.745e-20)
(0.621429 -0.00231525 -1.73415e-20)
(1.18103 0.0252223 2.35517e-20)
(1.11399 0.0804124 2.39387e-21)
(1.0326 -0.00290912 -6.97728e-21)
(1.03578 -0.0018232 3.42873e-20)
(1.06383 0.0836608 -1.57142e-20)
(0.977283 -0.00362705 3.07495e-21)
(0.636119 -0.0125852 -4.008e-21)
(1.05906 0.102045 -7.74362e-20)
(1.08284 -0.0242877 4.59642e-20)
(1.04835 -0.0481101 4.43441e-20)
(1.0256 -0.0307654 6.04075e-20)
(0.904905 -0.00207149 -3.02887e-20)
(1.0453 -0.0327462 -8.48991e-21)
(0.456947 -0.00283776 -2.69748e-20)
(1.03021 -0.00232293 2.91355e-21)
(1.01651 -0.038231 1.68994e-20)
(1.11555 0.0862225 -4.45666e-20)
(1.02601 -0.00120064 -8.66531e-21)
(1.03423 -0.000429262 -8.51855e-21)
(1.09237 0.0827379 3.51311e-21)
(1.00873 0.00253024 -5.56572e-20)
(1.02856 -0.00764416 -2.80385e-20)
(1.04273 -0.0309028 -3.04308e-20)
(1.03266 -0.000675789 -7.31085e-22)
(1.03598 -0.00146133 -2.89178e-20)
(1.05586 0.0743929 4.94414e-20)
(1.10531 0.0901298 -5.04816e-20)
(1.05524 0.102728 -1.08451e-20)
(1.10057 -0.0598261 -2.85564e-20)
(1.06476 -0.0540411 -1.42786e-20)
(1.15322 -0.0862937 7.2815e-21)
(1.04501 -0.00022709 8.54442e-20)
(1.05152 0.0723422 -1.82902e-20)
(0.594334 -0.0167104 1.67934e-20)
(1.03394 -0.000753101 4.94287e-21)
(0.430205 0.0436486 -5.52272e-20)
(1.03198 -0.00814796 1.45509e-20)
(1.03541 -0.00320395 2.32679e-20)
(1.01844 -0.0376103 -3.91181e-20)
(1.02861 -0.00672969 2.08562e-20)
(1.05809 0.0975462 -9.90538e-20)
(1.0561 0.0984778 -2.20702e-20)
(1.02592 -0.0476238 -1.36023e-20)
(0.75292 0.0252844 -3.96607e-20)
(1.02893 0.00165533 4.21806e-20)
(0.866644 -0.00163547 -2.20305e-20)
(0.761293 -0.00941158 -2.55795e-20)
(1.05289 0.00967352 -1.68998e-20)
(1.05478 -0.109814 3.37483e-21)
(1.10345 0.119761 -7.02432e-20)
(1.04464 0.078872 -1.04882e-19)
(1.03353 -0.00135958 1.23922e-20)
(1.04103 -0.00349733 1.01262e-20)
(1.04107 0.032206 8.25615e-20)
(1.03457 -0.00380893 5.09321e-20)
(1.04733 0.0297926 -1.08825e-20)
(1.03578 -0.00135903 1.21087e-20)
(0.972008 0.0611501 7.31542e-20)
(1.05672 0.100976 1.70584e-20)
(1.01265 -0.00172984 -3.48126e-20)
(1.03838 -0.00498332 -2.00926e-21)
(0.908336 -0.00340991 6.58132e-20)
(1.13097 0.10463 2.38686e-20)
(0.618213 0.011012 -1.19136e-20)
(1.03349 -0.00624367 -1.42531e-20)
(0.890135 -0.0187643 -2.93973e-20)
(1.02337 -0.00577409 2.66805e-21)
(1.0348 -0.00225615 1.4625e-20)
(1.03577 -0.00145007 -1.34319e-20)
(1.08495 0.0591302 5.53001e-20)
(1.03178 -0.00215694 -1.20568e-20)
(0.577518 0.00378172 -7.49616e-23)
(1.00189 -0.0321336 -9.05913e-20)
(0.373864 0.0130822 -2.13005e-20)
(1.09632 0.0119586 -1.64598e-20)
(0.965549 0.0555009 5.84988e-20)
(0.841895 0.000306525 8.6894e-21)
(1.04072 -0.0316942 -2.59391e-21)
(1.03482 -0.00214001 2.67794e-20)
(1.05822 0.102203 -7.88473e-20)
(1.03776 0.000333734 -2.16793e-20)
(1.04534 0.149236 3.87749e-20)
(1.03812 -0.00622327 -5.39393e-20)
(1.0366 -0.00126876 3.68118e-20)
(1.06006 -0.0193849 -4.131e-20)
(1.04439 0.000594552 -7.96601e-20)
(1.03562 -0.000531009 1.85305e-20)
(0.927345 -0.00553719 -1.2322e-21)
(1.03562 -0.00072033 4.67923e-20)
(1.03461 -0.00400345 4.30221e-20)
(1.05495 -0.049756 -5.51631e-20)
(0.947187 -0.00755425 -5.69333e-21)
(1.00185 -0.0211711 -2.47255e-20)
(0.982348 0.000156811 2.30721e-21)
(1.00894 -0.00417241 -1.26969e-20)
(1.03579 -0.00298073 -6.98771e-21)
(1.05956 0.134226 9.23359e-20)
(0.528817 -0.00254786 -1.02678e-20)
(0.687537 0.00549253 6.28425e-21)
(0.280787 0.0236751 9.03881e-20)
(1.03467 -0.00244321 2.77504e-20)
(1.08303 0.0987201 -3.79708e-20)
(1.03477 -0.00216231 -3.90503e-20)
(1.04182 -0.0139294 3.97245e-20)
(1.03338 0.000905469 -5.46226e-22)
(1.02359 -0.0249171 2.5938e-20)
(1.05282 0.00886075 2.44024e-20)
(1.1814 0.033896 -5.45112e-20)
(1.01952 -0.0120013 -5.02178e-20)
(1.03526 -0.00187535 -4.27919e-20)
(1.0217 -0.0634745 -1.95035e-20)
(0.133926 0.000260904 -2.76204e-20)
(0.587601 0.016002 -1.88769e-21)
(1.03568 -0.00067834 -4.1519e-20)
(1.03518 -0.00249115 -3.22059e-20)
(0.810813 -0.00994028 3.28782e-20)
(1.03851 -0.000894097 -3.57608e-20)
(1.03536 -0.00145251 -1.85138e-20)
(0.950697 -0.00192186 -7.06869e-21)
(1.05882 -0.0474298 3.70705e-20)
(0.902848 -9.44769e-05 -3.07303e-20)
(1.15787 -0.00544733 3.68738e-21)
(0.798253 -0.00271226 3.25962e-20)
(1.06245 0.103549 8.91237e-21)
(1.06133 0.104431 -6.69667e-20)
(1.03508 -0.000432454 2.9255e-20)
(1.20024 0.0352744 6.86017e-20)
(1.00273 -0.00179269 8.33642e-22)
(1.03534 -0.00304849 3.42721e-20)
(0.341975 0.00367042 -7.44069e-20)
(1.01222 0.0427798 3.38869e-20)
(1.05812 0.0232868 -5.02724e-20)
(1.03355 -0.00161285 1.69126e-20)
(1.03535 -0.00257903 4.99186e-21)
(0.858983 -0.00275787 -2.46037e-20)
(1.07044 0.0547183 -2.23908e-20)
(1.03587 -0.00150682 -2.00816e-20)
(1.03679 -0.000917396 1.64398e-20)
(1.03642 -0.000513743 -3.84717e-21)
(1.13723 0.0429289 5.71458e-20)
(1.22352 -0.0127294 3.54532e-20)
(1.06988 0.112015 4.41845e-20)
(0.771321 0.00329985 2.76629e-20)
(1.09082 -0.0213545 -8.98899e-20)
(1.0332 -0.00235438 1.23079e-20)
(1.03904 -0.00457618 -5.6469e-20)
(0.983311 -0.00312701 2.70323e-21)
(1.02606 -0.0134795 -8.64022e-21)
(0.921459 -0.00285701 1.12397e-20)
(1.04512 -0.0130175 5.55546e-21)
(1.21878 0.0406653 -5.79075e-20)
(1.01569 -0.0192131 -4.90328e-20)
(1.0427 -0.013215 -1.15924e-20)
(1.0403 -0.00294546 -1.66874e-20)
(0.825261 -0.00796178 -2.93581e-20)
(1.0547 -0.00782696 1.82224e-20)
(1.03446 -0.0119196 -2.53804e-20)
(1.09588 0.0274926 -2.49357e-20)
(1.08033 0.0575694 2.6843e-20)
(1.19984 -0.0880708 -4.69479e-22)
(1.16352 -0.0208864 3.21771e-20)
(0.240348 -0.00164523 2.9554e-20)
(1.03905 -0.00195979 3.95352e-20)
(0.893753 -0.0174899 1.20547e-20)
(1.00794 0.0665574 -1.16949e-19)
(1.14594 -0.024278 -5.68852e-20)
(1.05246 -0.00191237 -5.39805e-20)
(0.84042 0.0373151 -5.52541e-20)
(0.671912 -0.0122869 -1.36587e-20)
(1.03517 -0.000216232 7.99889e-21)
(1.17734 -0.00722541 3.1896e-20)
(1.0356 -0.00177455 1.64132e-20)
(1.04769 -0.0287624 -1.17826e-20)
(1.03937 -0.00191859 1.26061e-20)
(0.724322 -0.00192988 1.27643e-20)
(0.777709 -0.000387392 2.66692e-20)
(1.04783 0.0397934 4.53165e-20)
(1.03401 -0.00163845 5.24919e-21)
(1.03568 -0.000263479 -1.63156e-20)
(1.03348 -0.000324769 1.46938e-20)
(0.827953 0.005899 -5.82304e-20)
(1.03297 -0.00565415 -3.84855e-20)
(0.944374 -0.000179379 -2.89425e-22)
(0.934255 0.00470634 -4.02336e-21)
(1.02014 -0.00989974 -1.82044e-20)
(0.64717 0.0132472 3.10765e-20)
(1.04419 -0.0139376 -2.49542e-20)
(1.03218 -0.00760562 -5.3839e-20)
(1.07551 0.0950618 1.538e-20)
(1.00421 0.0444868 6.92498e-20)
(1.08693 0.0163485 -2.39159e-20)
(1.19222 0.0391658 -2.61556e-20)
(0.277657 0.00498277 -4.04881e-20)
(1.03908 -0.00232987 -2.06677e-20)
(1.01899 0.0721542 -3.44368e-21)
(0.775199 -0.00280412 4.73578e-20)
(1.07199 0.0992252 1.82547e-21)
(1.04516 -0.0355678 -1.4618e-21)
(1.07657 -0.0939886 1.62081e-20)
(1.10186 0.0875407 3.113e-20)
(1.07358 0.101928 -4.32501e-20)
(0.9999 -0.0177332 -5.83845e-20)
(1.0596 0.0211208 -3.54755e-20)
(1.10618 0.123507 6.59666e-20)
(1.07942 0.0991568 6.76824e-20)
(1.04653 0.00192096 2.75032e-20)
(1.03075 -0.00101504 -1.43074e-20)
(1.03267 -0.00279232 -9.81956e-21)
(0.996348 0.000158833 6.2634e-21)
(1.04935 -0.017088 1.71771e-20)
(0.67807 0.00422353 -1.0494e-20)
(1.03587 -0.00209212 -2.09867e-20)
(0.924045 -0.000199512 1.09555e-20)
(1.03157 -0.000387389 -1.10886e-20)
(1.01918 -0.0622833 3.22036e-20)
(1.12205 0.0514569 2.11831e-20)
(0.957364 -0.00270963 4.55659e-20)
(1.03551 -0.00758711 -6.13388e-20)
(0.829642 0.00295403 3.06283e-20)
(1.08864 -0.024253 3.16785e-21)
(0.847387 -0.00636704 5.85498e-20)
(1.03733 -0.00430623 4.00833e-20)
(1.11608 0.121068 1.04213e-20)
(0.817332 0.00401909 6.64293e-20)
(1.03269 -0.002267 1.01699e-20)
(1.03433 -0.00165441 3.6535e-21)
(1.03357 -0.00154832 2.34213e-20)
(0.952204 -0.00178625 -1.74023e-20)
(1.04566 0.0370399 -5.69821e-20)
(0.686224 -0.00544851 -7.92523e-22)
(1.04964 -0.00271721 3.68971e-20)
(1.06334 -0.11467 -2.39796e-20)
(1.05776 0.104211 -1.82416e-21)
(1.03852 -0.00479457 2.14288e-20)
(1.04055 -0.00285885 -3.72153e-21)
(1.03062 -0.00262018 2.84385e-20)
(1.04657 0.131132 -9.10766e-20)
(0.684833 -0.000557374 -1.4857e-20)
(1.07133 0.114243 -2.29237e-20)
(1.0125 0.0300887 -5.83504e-20)
(0.957017 -0.00331851 -1.1928e-20)
(1.04338 -0.0364649 3.3335e-20)
(0.905805 -0.00385881 2.81957e-20)
(1.03133 -0.0471261 -6.62073e-20)
(1.0353 0.000170325 1.56765e-20)
(1.08212 0.0184948 3.23672e-20)
(1.04106 -0.00980134 -1.19998e-21)
(1.04017 -0.00227021 6.20651e-21)
(0.860986 -0.00540934 3.77464e-20)
(1.08923 0.0566345 2.89013e-20)
(1.06584 0.0536748 8.4154e-21)
(1.04676 -0.0505806 -3.74904e-20)
(1.02118 -0.0124932 3.26227e-21)
(1.03531 -0.00267987 2.26584e-20)
(1.03825 -0.0283974 7.69942e-20)
(1.15179 0.0697412 -4.29881e-20)
(0.581154 0.0187016 -4.86814e-20)
(1.11686 -0.051708 2.6416e-20)
(1.03953 -0.00481331 -1.17478e-20)
(1.03073 -0.00126243 5.80637e-22)
(0.989372 -0.00201202 4.45507e-20)
(0.78748 -0.00202104 -5.3395e-20)
(1.05404 -0.00822162 3.01522e-20)
(1.04565 -0.0895396 1.31365e-20)
(1.20094 0.0237693 -2.5947e-20)
(1.06289 0.107378 -1.03975e-19)
(1.07405 0.0513394 4.0269e-20)
(1.15331 -0.0751099 -2.67632e-20)
(1.09254 0.0875308 1.19929e-20)
(1.0142 0.0785996 1.13228e-19)
(1.04676 -0.00140058 3.15556e-20)
(1.03608 -0.00143068 4.6264e-20)
(1.05094 0.0811727 2.4709e-20)
(1.03564 -0.0017663 -3.49238e-20)
(1.03436 -0.00234066 -1.04822e-20)
(0.486243 -0.00113135 -1.16979e-20)
(1.03501 -0.00145537 3.56321e-21)
(1.16312 -0.0925596 -9.51937e-21)
(1.03926 -0.0111171 2.83347e-20)
(1.02522 -0.0245403 -4.69898e-20)
(1.03645 -0.000963319 1.48314e-20)
(1.08801 0.0806524 6.64373e-20)
(0.824652 -0.000673612 5.46216e-21)
(1.03246 -0.00243365 6.89615e-23)
(1.0701 -0.0994807 -1.67598e-20)
(1.03636 -0.00038661 -9.16225e-21)
(1.1243 0.0158213 -6.25909e-21)
(0.8228 -0.0108548 -9.88313e-21)
(0.66627 -0.0032003 -2.93113e-21)
(1.19697 0.0772904 -4.90717e-21)
(1.03765 0.0309408 -2.11118e-20)
(1.03429 0.0104919 1.45398e-20)
(1.03205 0.00960706 -6.8375e-21)
(0.891342 -0.00221004 -3.22077e-21)
(1.12894 0.0513345 1.67237e-20)
(1.09603 0.0313621 3.01207e-20)
(1.03618 -0.00229962 -1.3896e-20)
(0.985866 -0.00269275 -5.26406e-20)
(1.03598 -0.00040446 -1.73771e-20)
(1.04493 -0.0117417 -6.54694e-20)
(1.04381 -0.0186218 1.21864e-20)
(1.03927 -0.00107748 -3.90876e-22)
(1.03571 -0.00161367 4.38011e-20)
(1.13082 0.0983341 -7.07043e-20)
(1.0315 -0.00276143 1.23991e-20)
(1.03521 -3.46131e-05 -1.0243e-20)
(1.03799 -0.00111481 -2.18249e-22)
(0.582894 -0.00232845 -2.86627e-20)
(1.04776 -0.00463056 3.68487e-20)
(1.02452 -0.020057 6.97747e-20)
(0.656026 0.00163447 1.43109e-20)
(1.05139 -0.0472151 -2.48819e-20)
(1.08379 -0.122443 2.63535e-20)
(1.05824 -0.0174702 2.20625e-20)
(1.05485 0.079643 -1.42186e-19)
(1.21027 0.0445499 3.47022e-20)
(1.01606 -0.00306437 3.46573e-21)
(0.94544 0.0555229 8.44251e-20)
(1.01803 -0.0430731 -6.27607e-20)
(1.03278 -0.00613447 -1.1512e-20)
(0.594671 0.00411918 -2.47429e-20)
(1.03504 -0.0115967 5.28949e-21)
(0.489352 0.00533555 -4.62033e-20)
(1.00699 -0.00236789 1.62566e-20)
(1.05326 -0.00364094 -4.09863e-20)
(1.15409 -0.026684 1.23459e-20)
(1.03262 -0.00237508 9.7789e-22)
(1.05073 -0.00423738 -2.94004e-21)
(0.996791 0.00423442 6.24835e-21)
(1.05936 0.100867 2.23078e-20)
(1.15029 0.0895314 6.5397e-20)
(1.02249 -0.00209222 -9.77652e-21)
(0.551842 0.000199475 5.49017e-20)
(0.977292 0.00237875 2.16763e-20)
(1.02086 0.108828 7.18016e-20)
(1.0675 0.102031 5.49732e-20)
(1.13169 0.0442237 -3.1128e-20)
(1.13235 0.119366 -5.58179e-20)
(1.01795 -0.0460717 2.68141e-20)
(1.02367 0.0720096 -1.09645e-19)
(1.034 -0.00165328 -1.09702e-20)
(1.07495 -0.0104138 7.14155e-20)
(0.370796 0.00997947 1.38429e-21)
(1.10791 0.0782423 -1.68118e-20)
(1.00209 0.0678167 -7.37808e-20)
(1.15575 0.0641742 6.53544e-20)
(1.06803 0.0452057 6.55492e-21)
(1.03598 -0.00754804 1.85245e-20)
(1.02558 -0.00265971 1.87171e-20)
(1.13636 0.107934 2.48047e-20)
(1.21122 0.00425968 -1.08826e-20)
(1.04212 0.124849 -2.71492e-21)
(1.1178 0.0139386 7.71633e-20)
(1.05169 0.0677666 4.44388e-20)
(0.992049 -0.00463568 1.06249e-20)
(1.05834 0.107417 2.85377e-20)
(1.06889 0.0993923 2.07489e-20)
(1.00374 3.67455e-05 4.95593e-20)
(1.02012 -0.00342225 2.20579e-20)
(1.14628 0.101214 1.78589e-21)
(0.609669 0.00436324 4.93435e-20)
(1.03396 -0.00163949 1.45061e-20)
(1.00872 -0.00241925 -5.82123e-20)
(0.79896 -0.0136811 -3.73611e-20)
(1.02917 -0.0607751 6.76713e-21)
(1.04116 -0.00154082 -5.75695e-20)
(1.04027 -0.00251255 5.15845e-21)
(1.03523 -0.00205958 1.86279e-20)
(1.06861 0.104383 -8.15678e-20)
(1.03678 -0.00726652 -4.74945e-21)
(1.03293 -0.00213754 -5.68176e-21)
(1.0581 -0.0426332 -4.43323e-20)
(1.03526 -0.00270098 -1.09792e-20)
(1.00641 -0.00526204 -1.86118e-21)
(1.03913 -0.00714264 -1.26629e-20)
(1.0797 0.0816803 8.53292e-20)
(1.06079 -0.087341 -2.51873e-20)
(1.06289 0.0856376 4.52684e-20)
(1.03368 -0.000877849 -1.15081e-20)
(1.08377 0.0837116 -9.03827e-20)
(1.05074 -0.0359706 -3.46653e-20)
(1.03439 -0.00189376 3.80972e-21)
(1.03303 1.1475e-05 -5.798e-21)
(1.00383 0.0164151 -9.96645e-21)
(1.07476 0.0747519 3.24555e-20)
(1.03349 -0.00266295 -1.05121e-20)
(1.06842 0.0633885 -4.62129e-20)
(1.03283 -0.000178119 4.29563e-21)
(1.06967 0.0683036 -6.22882e-20)
(1.18726 -0.092907 -2.60367e-20)
(0.97318 -8.00462e-05 -5.37137e-20)
(1.00543 0.0476801 -1.44358e-19)
(1.01875 -0.0350967 -4.74072e-20)
(1.1364 0.115217 5.72193e-20)
(0.61698 -0.00256513 -1.44881e-20)
(1.07408 0.0699745 7.99079e-20)
(1.07915 0.0765418 -2.3438e-20)
(1.01688 -0.00331389 -7.93706e-20)
(1.00116 -0.00286263 4.72649e-20)
(1.03363 -0.00598538 -4.42212e-20)
(0.953129 0.000915673 1.19304e-20)
(1.03451 -0.00215576 -2.36621e-20)
(1.03665 -0.00712482 7.82437e-21)
(1.07352 0.0958201 -1.05947e-20)
(1.03238 -0.00247296 -2.73551e-21)
(1.06364 0.0621408 6.07417e-20)
(1.07465 -0.0857252 -4.32644e-20)
(1.03944 0.0989046 2.80632e-20)
(1.0624 0.057512 -7.10836e-20)
(0.751152 -0.0106179 5.08164e-21)
(1.06774 0.0922311 -9.7771e-20)
(1.0358 -0.000809742 2.16733e-23)
(1.04883 -0.0154367 2.56927e-20)
(1.08857 -0.0550538 -1.57695e-20)
(0.494618 0.00117467 2.78023e-21)
(1.03161 -0.00305411 -3.28724e-20)
(1.04852 -0.0373964 2.75596e-20)
(1.07931 -0.00162969 -6.30133e-21)
(0.872257 0.0428761 1.07376e-19)
(1.03235 -0.000742687 1.59853e-20)
(1.03528 -0.000521638 -1.83237e-20)
(1.05743 -0.0575271 1.28696e-22)
(1.03358 -0.000952478 9.33986e-22)
(1.06004 0.101879 1.07869e-20)
(1.03647 -0.000180455 0)
(1.03271 0.000463058 8.16085e-22)
(1.03376 -0.00021535 2.52849e-20)
(1.03639 -6.47446e-05 3.05735e-22)
(1.02632 -0.0125014 -5.88579e-20)
(1.05138 -0.00752849 -2.0774e-20)
(1.03603 -0.000917629 -3.60336e-20)
(0.895059 0.00157735 -1.29387e-20)
(1.02769 -0.00319076 -1.72001e-20)
(1.03878 -0.00731718 -1.3936e-20)
(1.03468 -0.0968991 3.27476e-20)
(0.377724 -0.000209035 -4.0917e-21)
(1.04711 -0.00411545 5.6917e-20)
(0.702645 -0.0100651 -8.20999e-21)
(1.14614 -0.120609 -3.29772e-20)
(0.943331 -0.00305312 2.44578e-20)
(1.13676 0.0932205 -4.94548e-21)
(1.00162 0.0198684 -2.2997e-20)
(1.03593 -0.0020358 1.34496e-20)
(1.12799 0.0836393 -7.34561e-20)
(1.03355 -0.00046722 -4.89687e-22)
(0.983656 -0.00276053 -4.9454e-22)
(1.04167 0.00305926 -4.05957e-20)
(1.0331 -0.00314006 1.32797e-20)
(1.08212 0.0907894 -5.35019e-21)
(1.02603 -0.00315205 4.51409e-20)
(1.07551 -0.00785293 -5.53775e-20)
(1.0416 0.00468032 -4.10352e-20)
(1.07916 0.0528853 -1.56699e-20)
(1.04116 -0.00893299 -3.62933e-20)
(1.01969 -0.00181227 -1.31176e-21)
(1.09724 0.0796736 4.50332e-20)
(1.02298 -0.0677619 3.38992e-20)
(1.05869 0.102289 8.73894e-20)
(1.03054 -0.0023143 6.09176e-20)
(1.08449 0.10612 2.56997e-22)
(1.02768 -0.00142413 -1.62431e-20)
(1.03501 -0.000343369 3.15665e-21)
(1.06734 0.0418677 1.93164e-20)
(1.04828 -0.0185066 -1.91457e-20)
(1.05543 0.0139557 5.86915e-20)
(1.03534 -0.00068464 1.02184e-20)
(1.03316 0.000930622 3.77827e-22)
(1.04812 -0.112806 -1.20418e-20)
(1.11579 0.116287 -6.4947e-20)
(1.03612 -0.00197465 -1.20511e-20)
(1.13506 0.0858728 8.14066e-21)
(1.02651 -0.00327605 3.21881e-20)
(1.13797 -0.129074 1.09781e-20)
(1.07605 -0.0227436 8.42508e-21)
(1.02424 -0.0215827 -3.77633e-20)
(1.03595 -0.000570299 1.43912e-20)
(0.613533 -0.00369669 1.28731e-20)
(1.01717 -0.0562344 2.33203e-20)
(0.905352 -0.00387481 -5.31964e-20)
(1.02039 -0.00124368 -4.09787e-20)
(1.03496 -0.00174005 -1.71757e-20)
(1.05831 0.102233 -9.50806e-21)
(1.1261 0.0768557 4.66044e-20)
(1.05088 -0.00287439 -1.32762e-20)
(1.03439 -0.00257156 -1.61244e-20)
(1.06718 0.0971428 -3.91322e-20)
(1.03244 -0.000970586 4.65618e-21)
(1.03418 -0.00248817 -3.34864e-20)
(1.11929 0.0752192 3.98077e-20)
(1.04434 -0.0154287 3.55876e-20)
(1.12397 0.108749 5.95348e-20)
(1.04648 0.000444087 2.3108e-20)
(1.04663 -0.00612783 -7.08404e-21)
(1.12356 -0.037892 -2.36346e-20)
(1.09923 -0.107791 -3.20127e-20)
(1.19821 0.0704025 -2.35495e-20)
(1.03646 -0.000477846 -2.74951e-20)
(0.874185 -0.0114106 3.45935e-21)
(1.03303 -0.00174082 3.32744e-21)
(1.03906 -0.0069358 9.10548e-21)
(1.08439 0.0879925 3.07624e-20)
(1.01792 -0.00287943 -5.92006e-20)
(1.03277 -0.000757172 -1.83826e-20)
(1.04995 -0.0273404 3.79359e-20)
(1.0351 -0.0002525 -1.01791e-21)
(1.03579 -0.0015614 -2.45503e-20)
(0.295324 0.00724725 1.93038e-20)
(1.02999 -0.00266405 3.17309e-20)
(1.03547 -0.00237367 4.61224e-20)
(0.449774 -0.00280044 1.71982e-21)
(1.02681 0.01129 6.13832e-20)
(1.01617 -0.0177195 7.16692e-21)
(1.03514 -0.0018999 -2.15615e-20)
(0.99917 0.00248256 -2.46189e-20)
(1.03467 0.0337059 2.23715e-20)
(1.08604 0.0264735 5.61117e-21)
(0.99464 -0.0157819 3.69256e-20)
(1.03203 -0.000973584 5.24929e-21)
(1.00155 0.0155445 1.37565e-19)
(1.02725 -0.0105862 4.25795e-20)
(1.0875 0.0757139 -6.90204e-20)
(1.04264 -0.000755478 -6.21431e-20)
(1.04341 -0.000412356 1.25802e-19)
(0.945238 -0.00467065 -6.88183e-20)
(1.03358 -0.00183025 4.00419e-21)
(1.04114 0.00160563 -5.01862e-21)
(1.09094 0.0244226 -1.03813e-20)
(1.17963 0.0722155 4.93793e-20)
(1.08017 -0.0799884 -1.3783e-20)
(1.07113 0.0932824 3.34518e-20)
(1.04043 -0.00132203 -1.50712e-21)
(1.10229 0.0824871 -6.17864e-20)
(1.0362 -0.00909908 2.36552e-20)
(1.05432 -0.04103 6.77528e-20)
(1.03007 -0.00223125 1.79582e-20)
(1.039 -0.0119116 -5.74753e-20)
(1.03497 -0.00165394 -1.51965e-20)
(1.064 0.0484171 -5.25664e-20)
(1.09533 0.112652 -1.01695e-19)
(1.03599 -0.000956699 -1.10679e-20)
(1.04766 -0.00558838 4.56527e-21)
(0.894187 -0.000843353 -1.96068e-20)
(1.08209 -0.0669778 -8.11507e-21)
(1.07758 -0.07289 2.16746e-20)
(1.03344 -0.000421035 -1.94687e-20)
(1.07209 -0.0114613 -2.84741e-20)
(0.123762 -0.00420446 -3.22633e-20)
(1.17858 0.0562855 4.41654e-20)
(1.03415 -0.00161006 -2.77006e-20)
(1.08182 0.0233987 -2.23268e-20)
(1.03479 -0.00566967 3.38326e-20)
(0.587454 0.033807 1.39463e-19)
(1.02051 -0.00296692 -4.35823e-20)
(1.03406 -0.0176694 1.53959e-20)
(1.05143 -0.0232481 -1.59916e-21)
(1.03321 -0.0182873 5.91204e-22)
(1.03572 -0.0135543 5.95111e-20)
(1.02779 -0.0029459 -1.06733e-20)
(1.03566 -0.00914528 -5.1227e-20)
(1.03731 -0.00391174 -1.21807e-20)
(1.08131 -0.00479894 1.26951e-20)
(1.03282 -0.00108806 -2.44396e-20)
(1.2163 -0.0520906 1.5466e-20)
(1.17053 0.0200511 1.86598e-20)
(1.06396 0.103822 6.37248e-20)
(0.997384 -0.0145748 -5.80362e-20)
(1.11811 0.104694 -2.98324e-20)
(1.03618 -0.000338028 3.06433e-20)
(1.10299 -0.0517647 -1.11448e-21)
(1.04154 -0.0266044 3.44743e-20)
(1.0322 0.056189 5.34124e-20)
(1.03303 -0.00303392 -3.01073e-20)
(1.03432 -0.00111819 1.82172e-20)
(1.02776 -0.0111796 -5.90247e-20)
(1.03403 -0.00597219 1.7295e-20)
(1.06891 -0.00995586 4.70748e-20)
(0.835581 -0.000978364 4.66547e-20)
(0.982958 -0.00243302 -1.57286e-20)
(1.14728 -0.00766035 1.47351e-20)
(0.799314 0.00265441 3.73558e-20)
(1.04958 -0.024908 -3.18278e-20)
(1.03084 -0.064969 -2.81011e-20)
(1.03254 -0.00134662 8.17295e-22)
(1.08133 0.00244852 5.45427e-20)
(1.03214 -0.057157 8.54481e-20)
(1.1237 0.09496 3.2997e-20)
(1.12497 -0.0444485 3.85976e-20)
(1.05392 0.0129209 6.02754e-21)
(1.06712 -0.0830915 5.81034e-20)
(1.07291 0.107691 1.89628e-20)
(1.06522 -0.0205133 4.2802e-20)
(0.908443 -0.0038692 4.08989e-20)
(1.05049 -0.0329457 4.91389e-20)
(0.28118 0.0271163 3.46464e-20)
(1.18535 -0.0617322 -1.5251e-20)
(1.00904 -0.00306218 1.35199e-20)
(1.07145 -0.108758 3.40024e-21)
(1.06293 -0.0489776 -4.11397e-20)
(1.0854 -0.0965497 2.09743e-21)
(1.07893 -0.0608421 3.30135e-20)
(1.09666 0.0744728 5.90782e-20)
(1.03372 -0.00111204 -9.12787e-22)
(1.01531 0.0676334 1.87379e-20)
(1.04047 -0.000887069 1.36764e-20)
(1.0352 -0.00176848 2.67488e-20)
(1.03563 -0.00161273 -7.80838e-20)
(1.07848 0.0164916 -1.13624e-20)
(0.0729682 0.00493323 7.55617e-22)
(1.0372 -0.00405153 1.75241e-20)
(1.05397 -0.0374706 -8.86243e-21)
(1.035 0.0380524 -3.64923e-20)
(1.03271 -0.000844727 -8.30711e-22)
(1.00319 -0.00285669 -4.02531e-20)
(1.04889 -0.00328018 3.66976e-20)
(1.1009 -0.0193133 5.40489e-20)
(1.04041 -0.000649534 7.15775e-20)
(1.03561 -0.00184591 -1.08558e-20)
(1.02528 -0.0284207 1.62092e-22)
(1.03526 -0.00547581 1.75101e-20)
(1.03235 0.000712663 9.67449e-21)
(1.02055 -0.034329 8.10774e-20)
(1.07565 0.0882161 -1.3333e-20)
(1.05209 -0.0193343 -6.31129e-21)
(0.950331 0.000434522 3.6312e-20)
(1.03689 4.03821e-05 -1.15817e-20)
(1.03921 0.0402426 4.8515e-20)
(1.03562 -0.0020142 1.04396e-20)
(1.03624 -0.00138587 2.33543e-21)
(1.03372 -0.00198085 1.80154e-20)
(1.03572 -0.00170493 3.14887e-20)
(1.16893 0.0717846 3.41792e-20)
(1.05957 -0.0216568 1.02622e-19)
(1.04188 -0.0114251 2.50659e-20)
(1.00663 -0.00312238 1.61955e-20)
(1.03354 -0.000689742 9.60209e-21)
(1.11707 -0.0990218 -4.51099e-20)
(1.21039 0.0184384 9.25943e-22)
(1.1244 -0.107532 2.04653e-20)
(1.0353 -0.0232132 2.35508e-20)
(1.04381 -0.00483492 5.67596e-20)
(1.03271 -0.0030443 -1.19613e-20)
(1.02972 -0.00666524 2.65352e-20)
(1.00439 -0.0343989 3.66208e-20)
(1.16939 0.056847 1.54069e-22)
(1.03589 0.100922 -1.36469e-21)
(1.03537 -0.00243108 -1.81967e-20)
(0.963385 -0.0228365 -1.86232e-20)
(1.03361 -0.00278673 4.1324e-20)
(1.06296 -0.018542 -1.68144e-20)
(1.10657 0.0722427 6.90655e-21)
(1.03609 -0.000657817 -3.17187e-20)
(1.03477 -0.00238314 7.36038e-21)
(1.14383 0.106154 7.83449e-21)
(1.16718 0.0405162 -1.02866e-20)
(1.04815 -0.00828604 1.90206e-20)
(1.0336 -0.00142919 -3.05078e-20)
(0.92474 -0.00613531 4.1525e-21)
(1.01067 -0.0355638 -9.22521e-21)
(1.03468 -0.00201954 2.19594e-20)
(1.0507 -0.0210423 5.9023e-20)
(0.535916 -0.00222993 -8.39387e-20)
(1.00119 0.0202735 -1.86193e-20)
(1.07886 0.0911027 -6.47788e-21)
(1.09741 -0.0471515 -2.36007e-20)
(1.03585 -0.0574798 -3.01673e-20)
(1.03874 -0.00157589 4.44557e-20)
(1.04701 -0.0149709 -5.24464e-20)
(1.16189 0.0251438 5.12138e-20)
(1.03572 -0.0652561 1.70892e-20)
(1.05281 -0.0311805 -2.99711e-20)
(1.03189 -0.000774611 -1.04115e-21)
(1.15208 0.0105627 4.41158e-20)
(0.48543 -0.005795 -4.51447e-21)
(1.03508 -0.0740422 -3.10508e-20)
(1.0513 -0.0174766 -8.1602e-20)
(0.880129 -0.00911197 6.97265e-21)
(1.03472 -0.00193817 8.73388e-21)
(1.0307 -0.000876607 1.443e-20)
(1.05782 0.0562934 5.43491e-20)
(0.94726 -0.00443044 1.62388e-20)
(1.03609 0.00337576 -1.75519e-21)
(0.866808 -0.00396472 3.30147e-20)
(1.18019 -0.0488089 5.61223e-20)
(1.01618 -0.000492029 -3.59805e-20)
(1.05641 -0.0354373 1.2072e-20)
(1.03396 -0.00159787 1.36732e-21)
(1.04022 -0.00837856 3.75186e-21)
(1.03454 -0.0919006 -1.5179e-20)
(1.09091 -0.0487382 1.77575e-20)
(1.03392 -0.0014615 1.12388e-20)
(1.03253 0.000386609 -5.79504e-21)
(1.03366 0.00281438 1.74879e-21)
(1.04814 -0.0550085 -6.47906e-21)
(1.00357 0.0304523 -1.6892e-21)
(1.08565 0.102108 7.66735e-22)
(1.1415 -0.000665968 -1.91207e-20)
(1.03577 -0.00177426 -2.37909e-21)