/*--------------------------------*- C++ -*----------------------------------*\
  =========                 |
  \\      /  F ield         | OpenFOAM: The Open Source CFD Toolbox
   \\    /   O peration     | Website:  https://openfoam.org
    \\  /    A nd           | Version:  7
     \\/     M anipulation  |
\*---------------------------------------------------------------------------*/
FoamFile
{
    version     2.0;
    format      ascii;
    class       volScalarField;
    location    "2";
    object      p;
}
// * * * * * * * * * * * * * * * * * * * * * * * * * * * * * * * * * * * * * //

dimensions      [0 2 -2 0 0 0 0];

internalField   nonuniform List<scalar> 
7807
(
1.26136
0.0871258
1.5226
1.06175
-0.00594029
-0.000206901
1.48815
-0.0368895
-0.000763712
0.478025
-0.000195588
0.015034
-0.0554567
0.247379
0.495708
-0.0789298
1.28657
-0.0741431
0.00413844
-0.384067
0.345697
0.00965165
0.18574
0.845519
-0.0979568
1.27983
-0.00543527
0.304119
0.730882
0.0143106
-0.112121
1.97299
0.183663
-0.00314915
-0.000593148
0.395528
0.0156587
1.45295
-0.0352852
-0.00199721
-0.0322659
-0.0768851
-0.341918
0.125069
-0.00116008
-0.000464823
0.00956023
-0.0349404
-0.000393083
-0.373968
0.023099
0.28853
-0.124825
-0.0157274
0.393363
-0.0334809
0.00558704
-0.0369168
-0.173068
-0.00327595
0.000219087
0.0299376
0.247638
0.0166786
-0.00618236
-0.109769
-0.000633548
2.38973e-05
0.692406
-0.0321953
-0.000429193
-0.300932
-0.0951201
-0.166268
-0.0717891
-0.255881
1.50939
0.337399
0.395328
-0.342866
-0.0536706
1.31822
0.485163
-0.17646
-0.0108825
-0.0144755
-0.0402016
-0.12167
-0.00474221
-0.0295231
0.744191
0.169214
-0.000790326
0.0053304
-0.0237221
-0.165483
-0.290395
-0.00121064
-0.0118156
-0.00746879
-0.307418
0.425794
-0.0227302
-0.000107061
0.219121
0.775434
1.73455
-0.0352571
-4.61133e-06
0.176473
1.01725
-0.190221
-8.96227e-06
0.188396
0.772278
0.00264794
-0.15717
0.639784
-0.215435
-0.169582
-0.313128
1.26841
-0.322255
0.0680388
-0.307161
-0.00691172
-0.0969523
0.0108838
-0.00650218
-0.108727
0.0558896
0.386832
-0.0040211
-0.00553196
-0.181478
0.985401
1.47076
-9.26867e-05
0.052979
-0.39942
-0.156349
-0.248694
-0.258191
-0.158316
1.74474
-0.0898546
0.736108
-0.166973
-0.220446
1.26657
0.378013
0.171274
-0.0106607
0.637539
0.4823
1.38688
-0.290382
-0.0544372
1.72609
-0.000353854
0.000867142
0.869162
-0.000111156
-0.016283
-0.0268289
1.03431
1.03799
1.77755
-0.0183739
-0.0195727
2.66293e-05
-0.31857
0.00265773
0.113419
0.0576904
-0.21784
0.278686
0.828192
-0.000793049
-0.00338302
1.08513
-0.00034879
-0.00063762
1.5038
0.0722762
-0.172662
-0.202316
-0.156102
-0.107535
-0.389215
-0.000120083
-0.277663
0.860888
-0.0232159
0.000414648
0.95972
-0.00815842
-0.101496
-0.10656
3.07073e-05
0.00542467
0.99759
0.954007
1.37333
-0.133453
-0.163413
-0.231743
0.331046
0.974728
-0.00123788
0.00019188
1.64598
-0.0684205
-0.00415516
-0.266056
-0.101418
1.29328
1.30547
-0.265528
1.90459
-0.00760311
-0.0725584
-0.31387
0.403452
-0.418635
1.16433
1.71669
0.000344377
0.0719015
0.674103
-0.0321874
0.629974
-0.00415923
1.8911
1.35546
-0.0397119
0.0168545
-0.00185227
0.903282
-0.000546539
-0.0485661
-0.386713
-0.000432979
-0.0106581
-0.00338292
0.779629
-0.000113619
-0.0306017
-0.331874
1.95371
0.352274
1.80334
-0.000254929
-0.118367
-0.00129551
1.4304
0.0289196
1.48103
0.00640001
0.00441405
0.055075
0.343804
0.00373637
-0.00138488
0.00328229
-0.0339337
-0.165127
-0.000239219
-0.280511
-0.0256514
-0.000859495
-0.00442528
1.44902
-0.0529543
-0.00493846
1.81421
-0.0115769
1.15478
-0.00141719
0.000445538
4.29709e-05
-0.190664
0.387346
0.320529
-0.174001
-0.00292856
-0.343328
-0.107772
-0.00108162
0.00322001
-0.017026
-0.0519964
0.0205672
-0.00933064
-0.16788
-0.142082
-0.16421
0.165486
-0.210188
1.39954
1.43395
-0.0103961
0.272359
-4.16076e-05
-0.018624
-0.168451
0.826927
0.53732
0.000578964
-0.016917
-0.20548
0.777227
-0.00735149
0.0253313
0.00812642
0.485733
0.00288639
1.40943
-0.0108077
0.0971716
-0.000713011
0.0279287
-0.00030975
-0.134902
-0.00215963
0.0301301
0.235446
-0.219575
0.0104192
0.0640723
-0.00479617
0.158248
-0.0594975
0.463719
0.778167
-0.2649
0.0811479
-0.110805
0.0366066
-0.374263
1.81238
0.0806541
0.230883
1.87671
-0.0103132
-0.0122781
0.126557
-0.00853189
-0.0722552
0.0456915
-0.0186365
-0.0138689
0.709653
-0.000467305
0.00360213
0.000471504
-0.0233017
-0.05564
-4.88258e-05
-0.00742563
-0.165078
1.65728
0.0158582
-0.0671004
1.62558
1.1476
0.400411
0.310249
-0.324273
0.035076
1.00675
-0.0781742
1.24234
-0.123363
-0.327754
0.95128
1.26062
-0.265376
0.511025
1.17127
1.18164
0.324633
-0.0220268
-0.0311664
-0.000534366
0.0252364
-0.0794359
0.00600823
-0.000647361
-0.0110591
-0.348356
0.58913
-0.124706
-0.0225241
-0.0264446
0.0763967
-0.0500641
0.0103992
1.08316
-0.0127521
-0.00014556
-0.000404372
0.000268391
-0.15177
0.694628
-0.0276353
0.208552
-0.423308
1.42579
0.0217964
0.0484742
-0.0380182
1.41197
-0.0071021
1.41046
0.749438
-0.000712199
-0.132915
-0.0227358
-0.237975
0.00373566
0.426813
0.0202973
0.0450807
-0.00566421
0.73451
0.780751
-0.194504
-0.165066
-0.0180892
-0.114571
0.607454
1.95257
-0.0713798
0.0312746
-6.5104e-06
-0.0972445
-0.0152102
0.143594
-0.367971
0.217054
1.48818
0.734909
-0.181168
1.00266
1.37815
0.203453
0.00766236
1.07159
-0.00721819
-0.00121858
-0.121662
0.000519845
-0.258597
-0.0075265
-0.178122
0.0129211
0.9617
-0.0120584
-0.000154008
-0.359846
0.0115336
0.331641
-0.293943
-0.391445
0.461149
0.678182
0.564036
0.578495
-0.00126817
0.569748
0.496255
-0.00382955
-0.120988
0.0039819
0.0395342
-0.0235515
0.0336708
-0.00596315
0.865549
-0.000122392
0.00123279
0.0133131
-0.151483
0.153382
-0.166373
-0.182427
-0.160173
-0.416575
0.0659514
1.05141
0.279268
-0.0485323
1.9018
-0.285727
-0.0587848
-0.178076
-0.0502068
-0.141173
-0.0737946
0.212081
0.0639818
-0.000167344
0.184953
-0.000587573
1.371
0.724634
-0.0347449
-0.0962587
-0.0011741
1.31747
1.32238
0.511035
0.968899
-0.296754
1.50131
-0.000432073
0.1688
-0.123907
0.840614
1.7551
0.563312
0.696145
-0.0184142
-0.00129419
0.888856
0.107013
1.37251
0.330372
0.934784
-0.0504428
1.43912
1.27118
-0.0650888
-0.0550783
0.796063
-0.400541
-0.000577647
-0.0939328
-0.389206
-0.306091
0.0814579
0.0664219
-0.000862269
1.34119
-0.0120376
-0.000645458
-0.118028
-0.00339713
-0.00140714
0.0203515
1.00421
-0.329463
1.66744
0.000369091
1.00659
-0.104759
-0.000543297
0.000103287
0.724802
0.953367
-0.0294137
0.862809
0.000144101
0.906621
-0.270852
-0.0672682
1.42261
-0.255241
0.924511
-0.170692
0.910136
0.956706
-0.118424
-0.150704
-0.0466849
-0.0189893
-0.00133937
-0.0127008
1.18814
-0.000170557
0.863012
-0.297776
1.23999
0.8236
-0.397237
1.65006
-0.0111747
0.0362576
-0.123005
-0.135525
-0.0470624
-0.121126
0.25087
1.8282
0.000248039
-0.0132001
-0.197642
3.4545e-05
1.39697
0.0118266
3.31314e-05
0.00119287
0.00238779
-0.130078
0.141143
-0.0104317
-0.000518145
-0.0494413
0.0151696
-0.416793
-0.352162
0.154912
-0.000121462
-0.367463
-0.0893962
0.801845
1.20428
0.00712189
0.788511
0.000923018
-0.0865498
0.433714
-0.0475165
1.08321
-0.0912653
0.190022
0.450085
0.732289
0.0276658
-0.0711318
0.90845
-0.355262
1.45932
-0.0646389
1.20947
-0.0638215
-0.0076412
0.664026
0.00771853
0.444588
0.012513
2.9082e-05
-0.441234
1.05737
0.00826834
0.76823
-0.0861913
-0.39772
0.0747604
-0.173344
-0.0112741
-0.0555697
-0.334313
-0.190485
-0.066644
-0.00110476
1.51577
0.751988
0.208387
-0.00125337
1.25082
1.76282e-05
-0.00114392
0.769861
0.00473774
0.966235
0.300025
0.119703
0.00529972
-0.351213
0.432204
0.00830561
-0.287472
-0.000126179
0.0221159
1.04703
-0.11228
-0.0192102
-0.0502758
-0.0132597
-0.00313117
1.8073
-0.0686928
-0.00390398
-3.11477e-05
0.615933
-0.211325
-0.00227194
-0.0182364
0.706539
0.482558
-0.261608
4.39711e-06
0.766026
-0.117417
0.917394
0.114812
0.141079
-0.204578
-0.000576225
0.439156
0.455415
0.51566
-0.262668
1.17231
0.0409663
0.902534
-0.0243075
-0.120634
-0.0024493
-0.0165127
-0.000822605
0.739988
1.17774
-0.0101811
0.134506
-0.114938
-0.197293
-0.234432
-0.0124142
0.155393
1.77103
0.439326
-0.000377444
0.468726
-0.0298094
1.54594
-0.0849791
-0.0864788
-0.0125228
-0.0968479
-0.0531853
-0.0529035
-0.0297268
0.00810947
0.221599
0.000621973
-0.134995
0.276389
1.38707
-0.249732
0.975059
0.0132236
-0.0848073
-0.087417
0.871256
-0.0506693
0.000594044
-0.114999
-0.0407932
0.166655
-0.177999
-0.155441
0.168368
-0.0962584
-0.0345423
-0.317451
2.95069e-05
0.293558
-0.280571
0.879739
-0.0320885
0.439895
-0.299879
1.33088
0.0611859
-0.210014
-0.0865781
1.61682
-0.137453
-0.0883667
-0.390222
-0.138662
-0.324228
-0.17067
0.866088
-0.0193024
0.986067
0.0600122
-0.00266472
-0.009172
0.415304
1.93796
0.00471258
-0.101728
0.7373
0.000123706
-0.143454
0.189813
0.115019
0.0608334
-0.0117642
-0.19501
-0.0244326
0.000161902
-0.243149
1.0878
0.0222636
-0.111873
0.012036
0.738156
-0.0026896
-0.00826393
-0.00224807
-0.00620886
0.555619
0.0333006
0.0159185
-0.123019
0.000245996
-0.296141
0.170378
-0.327874
-0.106654
0.10089
-0.0012988
-0.0902381
-0.327772
0.476954
1.24176
-0.0100712
-0.358531
-0.0338009
0.0716221
0.80255
0.00264673
-0.00104122
0.837103
0.394118
0.103088
-0.0207912
-0.0135731
-0.299624
-0.00123623
0.00152897
-0.0854082
1.09492
1.10577
-0.0644403
-0.267459
0.049096
0.027534
0.322503
-0.302089
-0.0635059
-4.97026e-06
0.260562
-0.161209
-0.338304
0.0340368
-0.275624
-0.00258485
-0.0204216
0.824609
-0.1946
-2.23405e-05
-0.0183155
-0.076023
-0.000993695
-0.0780878
-0.000337548
0.0234508
-0.401602
-0.0816276
-0.000169443
0.000168231
0.540827
-0.211513
1.31906
1.16804
0.209206
-0.00489583
-0.0732063
0.00128573
-0.00588569
-0.28477
0.36364
-0.110561
1.17611
0.0555356
0.00152561
0.0375573
-0.259699
0.012454
-0.0923363
-0.316751
0.0101074
0.110732
0.324352
0.0556913
-0.157185
-0.106341
0.764009
-0.107824
-2.33795e-06
-0.306644
-0.346205
-0.122574
0.0242717
0.00462891
0.0555622
-0.385672
0.167248
-0.176468
0.73329
-0.134765
0.0362516
0.0967638
0.0983718
-0.180878
-0.0557936
-0.000780073
0.609695
0.824655
0.0385443
1.06536
-0.270315
0.229152
-0.209269
0.799318
0.448974
1.8264
2.21425e-05
0.494528
0.746358
0.0741048
-0.00762498
-0.0892358
0.219898
0.000228245
-0.0953225
-0.233631
-0.0982871
-0.11443
0.000749246
0.0510027
-0.00202851
-0.0042606
0.9138
0.0301806
0.666896
0.104148
0.812725
0.0560078
-0.00243035
-0.15008
0.0382657
1.28184
0.00603296
-0.247674
-0.00132622
-0.00266699
0.0335011
-0.146441
-0.000155174
-0.0515467
0.149716
-0.0092937
0.000165548
-0.000257986
0.62492
0.0512394
0.0318238
-0.00539235
0.0411106
0.0784717
0.0404713
-0.00162889
1.38116
-0.0965871
0.859759
1.23397
-0.000958456
0.625121
0.548034
-0.00386605
-0.00139139
-0.00272649
0.168436
0.0922739
-0.057165
-0.100297
-0.331038
0.702526
-0.249597
5.29147e-05
-0.10202
-0.101265
-0.183544
-0.0204937
0.0274937
0.00586801
0.139654
-0.00240911
-0.00140362
-0.0924744
-0.0222623
-0.131549
-6.42628e-05
-0.0774509
0.169705
0.0582327
-0.0232838
-0.0439165
-0.0599215
-0.0455756
-0.0262838
0.0537635
-0.0463179
-0.000487976
-0.00218451
0.116924
-0.0609882
-0.0254373
0.0402253
0.0100213
-0.450456
-0.0574751
0.639455
-0.061333
-0.288053
-0.133844
-0.119771
-0.0801444
-0.018647
0.00960093
-0.0178346
-0.0670171
-0.0813393
0.822885
0.683668
0.278492
1.20499
-0.000317774
-0.0194251
-0.0811715
-0.0417581
0.555867
-0.104867
0.293139
-0.0249275
0.916604
-0.00996091
-0.00853709
0.108337
-0.0895452
-0.00110527
-0.116487
-0.0295342
-0.10613
-9.02267e-05
-0.0331213
0.00913429
-0.0920977
0.19593
0.172223
0.093163
-0.0721862
-0.166558
0.491446
-0.00691341
-0.00959955
-0.0101947
1.62336
-0.000543014
0.379341
-0.105763
-0.107645
-0.13228
-0.222185
-0.146013
-0.180322
-0.0974057
-0.0239991
-0.000444594
-0.0210592
-0.105507
0.438103
0.00780457
0.843004
-0.174737
-0.0691513
-0.00430655
-0.153131
-0.00046319
0.610801
-0.160843
-0.138373
-0.126192
-0.0233847
-0.176862
-0.00806947
-0.218666
0.440874
-0.134211
-0.350668
-0.00700538
-0.140746
-0.0972851
0.0752933
-0.0165817
0.586736
-0.0115861
-0.093308
-0.00352323
0.652131
-0.208426
-0.135185
-0.0154835
-0.0508198
-0.0140968
0.870608
0.146552
1.02558
-0.0274479
-0.00437157
-0.0060322
-0.0118876
0.934283
-0.335083
-0.0364509
0.00147451
-0.0440925
-0.0452216
-0.0051449
-0.0736872
-0.0820995
0.26427
-0.0250757
0.0192128
1.52856
-0.342693
-0.145428
-0.319118
0.000140151
0.342805
-0.0176445
-0.135343
-0.0295599
-0.18905
0.0191715
-0.00262723
-0.0139214
0.0152492
0.785855
-0.0289665
-0.00883659
-0.0239358
-0.290781
-0.0433348
-0.111237
0.0194905
-0.0446653
-0.0450602
-0.0166158
0.805401
-0.250228
0.0148881
-0.0203714
-0.141659
-0.0682093
-0.268651
-0.00744994
0.410062
0.113042
-0.0414908
-0.00893138
-0.0733865
1.68437
0.79296
-0.058761
-0.00265805
-0.0120667
0.0308547
-0.0207221
0.10215
-0.00209234
-0.0866666
-0.00955515
-0.0867611
0.174651
-0.00584845
-0.0635324
-0.00656234
1.1565
-0.0353426
-0.0593553
0.127035
-0.00919534
-0.152986
0.607121
1.52144
-0.0570333
-0.0611446
-0.0100823
-0.00252644
1.3195e-06
-1.76917e-05
-0.0535555
-0.00325913
0.64302
-0.00362883
-0.00889451
0.0388628
-0.0011631
-0.239449
-0.277536
0.0842895
0.189395
0.127825
0.533916
-0.153318
0.401869
0.315163
0.415569
0.516349
-0.0654134
-0.00437165
-0.033522
-0.312587
-0.017013
-0.0785017
0.45284
1.31139
-0.242403
-0.00223592
-0.000165046
-0.00693401
-4.80455e-06
0.0419996
-0.00291099
-0.0267191
-0.257393
0.00240014
0.0120927
-0.00100328
0.366124
-0.0791875
-0.0592932
-0.0067278
1.15094
1.21507
-0.0541128
-0.256534
-0.144749
-0.122273
-0.0766653
-0.00940355
-0.349888
-0.146814
-0.230716
0.109066
-0.000289029
0.823459
-0.058415
-0.0489116
-0.135186
0.0909691
-0.00254716
-0.0446164
-0.0065371
0.0643893
-0.00880701
0.813768
0.00152336
0.0488969
-0.00184885
-0.0354017
0.0424697
-0.00460336
0.0787627
0.00174888
0.375574
0.553595
0.00210943
-0.00707273
-0.000559027
-0.00276503
-0.00237164
-0.333111
0.525566
0.313494
-0.0011813
0.0433926
-0.0022673
0.875157
-0.32895
1.04069
-0.232388
-0.00205239
-0.00151467
-0.0390019
-0.0281602
-0.0033677
-7.31499e-05
0.123427
0.14103
-0.00105554
-0.00184387
-0.102855
-8.87958e-05
0.681423
-0.00478866
-0.28521
-0.100853
-0.0317909
-0.302159
-0.336687
0.621572
-0.0727798
-0.103385
-0.00142599
-0.305874
-0.103026
0.254766
0.677987
1.27288
-0.00550382
-0.3243
0.0652586
1.20308
0.189883
-0.000523106
-0.0317185
-0.0200718
-0.0257115
-0.2383
0.442669
0.000681837
0.108157
0.0126339
0.417343
-0.00242362
-0.000647863
-0.0591042
1.12379
-0.293121
0.690855
-0.00755955
-0.000917705
-1.02056e-05
-0.276294
-0.204672
-0.00174448
0.536879
0.0545293
-0.0274575
1.37994
-0.00226792
-0.0197084
-0.322156
-0.0860442
-0.0109113
0.562153
-0.238314
-0.000715041
0.0657805
-0.000907752
-0.000457903
0.623707
0.0165455
-0.00203033
-0.268459
-0.12975
-0.0165442
-0.0998608
0.0108529
-0.113065
0.00714742
-0.0178606
-0.352194
-0.202224
0.117306
-0.00473378
0.672993
0.816054
-0.231805
0.0450077
0.0923257
-0.0222609
0.67827
0.525443
-0.1425
-0.000736801
0.0461888
-0.28587
0.066148
-0.149526
-0.0107476
0.249237
-0.147301
-0.000590889
-0.000343415
-0.111796
-0.139861
-0.131917
0.0453088
0.210261
-0.240633
-0.000780819
-0.00746568
-0.00105108
-0.181784
-9.90431e-05
-0.00953679
-0.190964
-0.353737
0.69722
-0.0152087
0.0197973
-0.114278
-0.131534
-0.000584199
-0.229745
0.71425
0.644098
9.43241e-05
-0.000480395
0.655512
-0.0128129
-0.360247
-0.197649
0.015674
0.00174965
-0.366582
0.000755162
0.670579
-0.291997
-0.00710012
-0.053944
-0.285504
-0.00283121
-0.00106309
-0.00458857
0.0958025
-0.269624
0.749118
-0.000943736
1.60231
0.226123
0.000450286
-0.00551904
0.000994222
0.00114584
-6.37726e-05
0.000552508
-0.273377
-0.00374485
0.00185883
-0.000872783
0.583813
-0.028705
-0.000860359
-0.000220405
1.3877
-0.114407
0.0436246
0.00469892
-0.00352455
0.31268
-0.000455935
-0.0722604
-0.116789
0.00992432
-0.036838
-0.00042087
-0.000952401
-0.164312
-0.269211
0.0346339
-0.178059
-0.142448
-0.000114375
0.103821
0.156654
0.46638
-0.00826129
-0.000695491
-0.306108
-0.0307583
-0.00272064
-0.2587
-0.000614311
0.219616
-0.000518313
-0.00597398
0.359761
-0.0124087
-0.31351
1.5422
-0.00863249
0.00117285
-0.295006
-0.269805
0.0434868
0.0222994
-0.000650214
-0.163175
-0.000385084
0.776902
1.83449
0.503097
0.0140446
0.0166593
-8.1706e-05
-0.149621
-0.000272545
-0.0427506
-0.00852226
0.00152647
-0.0161926
-0.0532044
-0.000530783
0.00374215
-0.0477447
-0.00141224
-0.0531814
-0.0874479
-0.020579
-0.00666505
1.68692
-0.00406153
0.0111749
0.00102243
0.0676896
-0.257477
0.0465541
-0.000804825
-0.000430226
0.0114552
-0.000499517
-0.000148182
-0.0634982
0.00303689
-9.94425e-05
-0.273293
-0.0132047
-0.288335
-0.0080902
-0.000285542
-0.0147974
-0.0386421
-0.0812941
-0.123989
0.0104717
0.00221535
-0.00221769
-0.00923525
-0.000371774
1.05084
0.00700048
-8.32463e-05
0.00228138
-0.0103992
-0.0019802
-0.331379
-0.287455
-0.000694011
-0.0363747
5.02746e-05
-0.0157404
-0.000313061
0.169896
-0.000637766
-0.000972625
-0.0205176
-0.000109388
0.0659196
-0.00104641
-0.00605957
0.0917525
4.41987e-05
1.34183
-0.289576
-0.222186
-0.000111976
-8.53321e-05
0.00820685
-0.00560314
-0.278413
-7.03597e-05
-1.21641e-05
0.00314422
-1.14236e-05
0.00162008
0.00192017
-0.00212976
0.00345922
-0.275127
1.60766
-0.179204
1.26143
0.043671
-0.0925606
-7.93721e-05
-0.00399954
-0.0651924
0.000582583
0.00120605
0.000717336
0.426392
-0.00804414
-0.00117556
1.53637
-0.00232243
0.00235109
0.00216698
-1.9304e-05
0.53675
-0.0111916
0.00503951
0.000500852
-0.00339549
-0.000282883
-0.00579556
-0.235666
-0.00187521
-0.009608
-5.62716e-06
-0.00451753
-0.00109302
0.764137
-0.00201953
-0.00165996
-0.35425
0.0175674
-0.000468134
-0.00648924
-0.000250358
0.710121
-0.396253
-0.00194064
-0.00171034
-0.011658
-0.000939598
0.282196
0.539329
0.288859
0.00194526
-2.69714e-05
-4.70181e-06
0.319355
0.00107671
-0.304756
-0.121229
-0.0857636
0.373173
1.70163
0.0088773
0.873174
-0.079651
-0.156135
0.717377
-0.00154107
-0.355526
-5.39026e-05
-0.0475398
-0.247067
0.000219897
-0.260423
-0.00438689
-0.0150809
-0.0310944
-0.212346
-0.225014
-0.0187974
-0.329186
-0.220477
-0.000773257
-0.0574554
-0.000271203
-0.185328
-0.000110929
-0.000776907
0.125642
0.688906
-6.13147e-07
-0.246314
0.0163243
0.000300085
-0.116105
2.0504e-05
-0.064833
-0.00131712
-0.190558
0.000529021
-0.000382829
-0.0113462
-0.000320382
0.671573
-0.162839
0.476972
-0.0001547
0.00273018
-0.157983
2.80913e-06
-0.310803
-0.35626
-0.293027
1.62393
-0.0338317
-7.14954e-05
0.127141
-0.20769
-0.0150008
-0.000168089
-0.000368452
-0.252623
0.000518125
0.0038785
-3.0381e-06
0.000642867
-0.136998
0.777544
-0.217032
0.480484
-0.027483
-5.22539e-06
0.0286822
-0.270211
-7.97432e-05
-5.72103e-05
0.00136532
0.000257865
0.00172635
1.12039
0.17273
0.000225333
4.03257e-05
-0.35338
0.815904
0.748353
-0.00017522
-0.192695
-0.10654
-0.0567029
-0.252849
-0.0469316
-0.0142437
0.602775
-0.000194732
-0.140064
0.70667
-0.265525
-9.48979e-05
-0.326262
-0.000764933
1.26505
0.141054
-9.31117e-05
-0.000121686
0.789119
1.42496e-05
-0.000824846
-0.0564363
4.26808e-05
1.03526
0.0142694
-0.0354568
-0.338835
-0.0190318
-0.376045
0.759385
-0.0581206
0.0173916
0.00439021
-8.65563e-05
-0.00539598
-5.10939e-05
-7.47018e-05
0.146351
0.750117
0.637134
-0.00208904
0.950413
-0.064431
2.70375e-05
-0.232667
-9.39331e-05
-0.14877
0.146762
-0.078993
0.0201025
0.00822595
-0.0444281
0.000933077
-0.00826713
0.0990324
-0.0131237
-0.000234262
0.000115238
-0.000253946
0.152494
0.000213698
-0.121876
0.994735
-0.0320122
0.000201864
-0.0164473
-5.29882e-05
0.586258
-0.00148481
-0.00027489
-0.000339397
-5.64997e-05
0.847439
-0.000734034
0.997612
-0.344946
0.000449821
-0.281051
-0.00289228
0.663319
1.56832
-0.00636423
9.25606e-06
5.68328e-05
-9.08197e-05
0.667865
2.76078e-06
0.00443025
-0.115095
0.943704
2.41855e-05
5.49846e-05
1.11817e-05
9.64129e-05
-0.108533
6.90866e-06
1.21444
-0.0873409
-0.00049714
0.000116747
-0.00940792
-0.144668
5.3697e-06
-0.0002281
0.700341
0.000130762
-0.170895
-0.210561
0.000541688
3.58639e-06
-0.307422
4.97265e-06
0.71498
5.74394e-05
-0.00204664
4.33871e-05
-0.000707778
0.416931
1.04879e-05
-0.00791656
2.75768e-05
0.0635567
-0.0176264
-0.0302072
0.000810785
0.651965
-0.0015647
-0.000353633
-0.0427406
-0.0419493
-0.000993475
-0.000300391
-0.00444427
0.000153974
0.912758
-0.055917
1.65037
-5.74462e-06
-0.0385482
-0.000897575
0.622717
0.000222132
-0.141631
9.14767e-05
-0.00753122
-0.177536
-0.00097244
-0.0826461
-0.269701
0.0225879
-5.29973e-05
-0.297045
-0.0013547
-0.00184305
-0.0271928
-0.073664
0.00537049
-0.000313406
-0.00196683
-0.00544831
-0.00602375
4.54024e-05
-0.00560135
1.53798
0.000388829
-0.0151348
-0.186419
-0.376703
-0.346794
-0.24127
-0.114979
-0.00321442
-0.0845405
0.000303497
-0.00034963
1.58954
-0.000389812
0.829311
-0.00185339
0.00165006
-0.00517374
-0.205714
-0.00185359
0.000488981
-6.9609e-05
-0.00171178
-9.4837e-05
-0.000334956
-0.0710683
-0.000495032
-0.000168642
-0.000346053
0.000489064
-5.17032e-05
-0.233305
1.12264
-4.19697e-05
-0.00248298
-3.27857e-05
0.000118858
-0.00366578
3.40248e-05
-0.0040438
0.00113397
-0.00156507
-0.348703
-0.00309761
-0.00916306
1.74073e-05
-0.00904269
0.00140053
-5.93838e-05
-4.266e-05
5.19658e-05
-0.00332437
0.00229636
-0.242995
-0.144425
-0.347918
0.00143391
-0.0110312
0.091196
-0.344617
-0.000379959
0.0750155
0.0311785
-0.00441413
-0.0613608
-0.285966
1.51931
-0.00178707
-6.29648e-05
0.00351748
0.000190445
6.79919e-05
0.339037
0.0155577
0.38806
-0.193498
1.45176
-0.00214625
6.79214e-06
0.000611446
-7.91989e-05
-0.00590735
0.695993
0.871234
-2.68427e-05
-0.000757285
-8.31488e-05
0.836743
0.102222
-0.033512
4.58387e-05
7.47957e-05
0.033696
-0.0028839
-0.395333
-0.0876816
8.43871e-05
0.0154069
-0.167523
-0.00024821
0.00775418
-0.000314197
-0.241894
-0.00788388
0.65556
6.45199e-05
0.00730761
-0.00321898
5.64011e-05
0.000695333
-0.121338
5.62049e-05
-0.00382142
8.27494e-05
-0.0911035
-0.235948
-0.0176836
-0.0399877
-0.0412805
0.0425027
-0.0445917
-0.0109814
0.000263587
0.00040881
7.58662e-05
6.67727e-05
-0.000227866
0.0416443
-0.311976
0.00209739
-0.217959
-0.013547
-0.262545
0.000346397
-2.32936e-05
0.00564528
0.0661396
6.88141e-05
-0.221495
-0.0778913
0.458927
-0.211643
0.00010086
-0.0149397
0.000781179
-0.115563
0.569285
3.41624e-05
-0.325931
-0.120321
-0.0185184
0.00014251
-3.70561e-05
0.153281
-0.0769221
8.62477e-05
-0.0324042
-4.30916e-05
0.000863771
0.544729
-3.52172e-05
-6.66699e-06
-0.000443989
0.000130566
0.00382266
0.000352105
-0.0225467
0.000931364
-0.0652086
0.00468701
-0.00099225
-0.173643
-0.229863
-0.0316043
-6.02895e-05
8.07638e-05
-0.31528
0.0263389
-0.254207
0.000102325
-0.0256488
-0.000138282
9.13531e-05
0.372519
-0.0315218
-0.0122268
-1.9467e-05
-0.093584
0.000193171
-0.364989
9.95726e-05
-0.415163
5.51406e-05
-2.57844e-05
0.000338095
0.00437174
-0.155698
-0.0845526
-0.383316
5.41732e-05
0.000369496
-0.42002
-0.127083
-0.038461
-2.27987e-05
-0.0614491
-0.27324
-0.422389
2.50059e-06
-3.45686e-05
-1.77268e-05
-0.220023
-0.3683
0.00295868
-0.0498275
-0.000253447
1.0821
0.000373835
4.52297e-05
0.000609952
-8.08437e-05
-3.82717e-05
-0.017695
0.000435961
-0.0124722
-0.352621
-0.0590562
-0.294527
0.000144059
-0.00020303
0.277316
-0.213018
-0.020425
0.496463
-4.57844e-05
-5.90955e-05
-5.36e-05
0.678465
0.000703508
-0.00012317
-2.78853e-05
-0.317103
-0.0706604
2.00452e-06
0.000195677
-0.0473236
-0.0286302
0.00168237
0.88398
-0.316281
-0.000711555
1.9033
-0.000158656
-0.00381019
-0.0445247
-0.424071
1.66662e-05
-3.74196e-05
8.25855e-05
0.021537
-0.173293
-0.00162202
-0.270207
-0.0349188
9.20255e-05
-1.97539e-05
-0.0460916
-0.0054725
0.0689773
-0.0745941
-0.237139
-0.205459
0.171918
-0.14088
-0.000263228
0.0014367
0.0874184
0.00228836
-0.000590721
0.00310102
8.693e-05
-0.000568066
-0.0542871
-4.84317e-05
-0.000133604
0.201471
-0.00512784
-0.00114117
-0.000315809
-2.78995e-05
0.94646
-0.0334606
0.00314099
-0.148135
0.000948393
0.000804095
0.000696194
-0.000206832
0.00201226
-0.203401
0.0853955
-3.76005e-05
-0.00101424
-0.224311
-0.169411
0.224686
-0.00199504
0.00801316
0.0839457
-2.83362e-06
0.000226081
-0.246428
8.42827e-05
0.680452
-4.39261e-06
0.0188393
0.000678934
0.000902408
-0.37609
-0.0378024
-0.0925461
-0.0107604
0.000100884
0.0273298
0.280052
-0.0641559
-0.00059171
0.418983
0.664726
1.08425e-05
-0.281581
-0.000292217
-4.78591e-05
-0.000179132
-0.00229956
0.0930461
-7.28333e-05
0.000995397
-0.117254
-0.134162
-0.103465
1.13108
4.15024e-05
-0.000289611
0.695403
-0.0239009
-0.0187216
-0.00266628
0.684796
0.000147552
-0.00210156
0.000119623
5.55519e-05
0.000119683
0.000137099
0.000289188
-0.0846151
1.83175e-05
-0.0169303
-0.235491
0.987923
-0.00121777
-0.00020055
0.0212144
0.378457
-0.238145
-0.0030886
-0.362181
1.13508
0.000165306
1.4039
-2.06489e-05
0.0143615
0.114819
0.00181967
1.46562
-0.000151279
-2.6638e-05
0.00474056
0.000116719
-0.00358344
0.00106715
2.85908e-05
-0.0088612
-2.871e-05
-0.000643824
-0.0153907
0.935298
0.255622
0.103522
-0.224919
-2.2489e-05
-8.7278e-05
0.0145458
-0.2874
-4.50297e-05
-0.242344
-0.000224503
0.456214
0.28311
-0.178103
-0.00633634
-0.0612281
-0.0041056
-0.0676299
0.0149133
-0.0390166
0.301031
7.3064e-06
1.1298
0.2871
-0.00372572
0.861231
-0.0692935
-4.92579e-05
7.11708e-05
0.000260592
-0.000841693
-0.000580667
0.935078
-0.00438447
0.956629
-0.00647978
0.679283
0.907515
0.660404
-0.0357948
-2.85684e-05
0.000140277
-0.048772
-0.367572
-0.267011
0.00643258
3.16746e-05
-0.19549
-0.00233377
-0.000101748
0.00432077
-0.00473849
-0.00430026
0.156743
0.000294431
-0.25054
0.282318
0.000225254
0.00107473
-0.0747413
-0.314772
-0.00317369
-0.00218549
2.39981e-05
0.000978302
0.604226
-0.0881826
-0.263978
0.00555992
0.575977
-0.212675
0.00011318
7.47822e-05
0.183256
-0.000581997
0.500866
0.00444419
-0.0617785
-0.0017929
0.00686211
-0.196771
-0.000309845
0.00205957
0.0205158
-0.40997
0.741694
-0.334592
-0.142867
-0.00105866
-0.000181198
0.030718
0.000172796
-0.413149
-0.368836
0.00238105
0.0144387
0.0169191
-0.386723
0.00270639
0.000722182
0.000112493
-0.222791
0.000103914
0.00236625
0.524895
0.730933
-0.382064
0.2274
0.228574
0.161858
-0.00117474
0.0556785
0.000488783
3.39765e-05
-0.000592303
-4.06697e-06
-0.000171073
-0.00154504
-0.0387999
-0.189347
-0.0504579
-0.15573
0.251926
0.207559
0.0180241
-0.354665
0.000577995
0.0202085
0.0515656
-0.00174148
0.362526
-0.00768037
-0.0577087
0.0558097
0.0249901
0.00270999
-0.0201217
0.21524
0.00339254
-0.103153
-0.0866828
1.69167
-0.133086
0.384664
0.214268
-0.19893
0.0093619
0.000322954
-0.0115433
0.000157717
-0.0116406
-0.135396
-0.000296751
-0.000589996
1.15977
-0.0142815
-0.227776
-0.088645
0.000635202
-0.00917761
-0.000101956
2.44892e-05
0.19533
0.000148275
-0.0128245
0.370637
0.0279533
0.00479566
0.0869976
-0.0291333
0.0191512
-0.306149
0.00354001
-0.0220541
-0.311353
-0.00450032
-0.0414552
0.00281929
0.00126631
0.00412874
0.191942
-0.00218383
0.0255051
-0.279321
-0.108292
0.00092696
-0.276151
-0.078163
-0.0807664
0.000208564
0.0302262
-0.371527
-0.00371804
-0.0250149
-0.256555
-0.00357933
-0.00547199
0.902319
-0.114589
-0.000157296
0.0379858
-0.277839
-0.00474956
0.78397
-0.0131074
0.00427931
0.269777
-0.00678488
0.0375613
0.544338
-0.000357499
0.0049713
0.000694026
5.07201e-05
-0.0194277
-0.0386642
-0.00122704
-0.127361
0.459565
-0.192251
-0.390337
0.00497322
-0.0154352
-0.00392139
-0.17741
1.94315e-05
0.083511
9.59078e-06
-0.0735456
-0.00879901
-0.0215285
0.339449
0.557717
-0.412005
-0.000226188
0.871731
-0.0106899
-0.0153338
-0.327427
-0.427476
-0.0821645
-0.000125473
-0.00683618
0.0331025
-0.0143305
-0.0236503
0.00139121
0.40209
-0.23445
-0.0576068
-0.0301146
0.134523
-0.017493
-0.00994607
0.00731335
-0.0011071
-0.014256
0.540606
0.00307311
-0.332512
-0.000601336
-0.0332833
-0.0204609
-0.446412
-0.060476
-0.488716
-0.000271373
-0.000269285
-0.0253307
0.0489694
0.00697296
-0.500244
0.432023
-0.270695
0.000722084
-0.501965
-0.000486724
-0.489063
-0.135123
-0.382061
-0.32317
-0.240218
-0.0385874
0.293282
0.40518
0.506066
0.609394
0.70789
0.974495
1.05418
1.13279
1.26233
-0.036696
-0.039184
0.352536
-0.0946703
0.00360719
0.0887334
-0.221291
0.00155918
-0.00448757
-1.26417e-05
-0.0753085
0.0831579
0.000167184
-0.00240198
-0.0478371
-0.0279173
-0.43688
-0.0708098
-0.313247
-0.000243584
0.0020692
-0.000196834
-0.261408
-0.0463165
-0.199794
-0.0574695
0.00734719
0.000434933
0.0212719
-0.000123942
-0.0337669
-0.000270494
0.00151602
-0.0347038
-0.0521354
-0.0026349
0.0013196
0.226303
-0.0546408
0.339387
-0.470451
-0.0450215
0.889687
-0.0978143
0.0160746
-0.114364
-0.0163707
-0.0566725
-0.0670812
1.2126
-0.00817489
0.000225598
-0.029835
-0.0473118
1.11862e-05
0.365272
-0.0218661
1.15817
0.178618
-0.23148
-0.142324
0.249876
-0.0270101
-0.000203542
-2.84826e-05
-0.0211335
-0.306889
0.000178723
1.34293
-0.0134844
-0.0256107
-0.00121493
-0.00166215
-0.0344197
0.80082
0.0214411
0.527427
0.00270395
-0.073694
-2.29306e-05
0.127636
-0.0429758
0.091612
-0.0578578
-0.0272116
-0.00663415
0.0048215
0.0543265
-4.67275e-05
-0.0527078
0.00122433
-0.00178415
0.00193823
-0.0769643
0.000125676
0.617151
-0.0541263
0.0163001
-0.180945
0.293812
-0.23268
-0.063409
0.217693
-0.0883083
0.731945
0.0407973
-0.0169074
-0.277133
-0.00523416
-0.000194282
0.00180289
0.000347414
-0.013829
0.0192875
0.000259057
-0.0750458
0.102944
-0.0149534
-0.000136115
-0.0160911
-0.235766
0.6311
-0.186092
-0.269166
0.0378074
0.397267
-0.00604224
0.415778
-0.0609459
0.0237855
0.172282
-0.334958
0.481774
-0.000215564
-0.157161
0.00493386
-0.0081022
-0.000537596
-0.0306014
0.50311
0.00290965
0.920782
-0.108978
0.134413
-0.0826263
-0.000745814
-0.0115251
0.305253
-0.239416
0.944758
0.18013
0.114959
0.707002
-0.235527
-0.0221991
-0.334941
0.000196552
-0.180706
0.652871
-0.0144857
1.33433
-0.00967492
0.408342
0.000369413
0.444727
0.611379
-0.00482538
-0.103413
-0.00146626
-2.29025e-05
0.0235073
0.00710517
-0.21196
-0.193274
-0.0285978
-0.215315
0.674401
0.253902
-0.241249
-0.0880439
-0.00104387
0.0185975
1.13049
0.0202651
0.6823
-0.338313
0.0238911
0.000134718
0.000981248
-0.117357
-0.00509377
-0.0140555
-0.204715
-0.00255759
0.0138317
-0.19706
-0.22579
1.03281
-9.76948e-06
-0.10214
0.000286941
-0.135673
-0.00152289
-0.321587
0.537622
-0.210526
-0.133253
-0.0110814
-0.0781416
-0.00496345
-0.0267454
0.370175
-0.159718
-6.82986e-05
-0.0414464
-0.0241979