/*--------------------------------*- C++ -*----------------------------------*\
  =========                 |
  \\      /  F ield         | OpenFOAM: The Open Source CFD Toolbox
   \\    /   O peration     | Website:  https://openfoam.org
    \\  /    A nd           | Version:  7
     \\/     M anipulation  |
\*---------------------------------------------------------------------------*/
FoamFile
{
    version     2.0;
    format      ascii;
    class       volVectorField;
    location    "20";
    object      U;
}
// * * * * * * * * * * * * * * * * * * * * * * * * * * * * * * * * * * * * * //

dimensions      [0 1 -1 0 0 0 0];

internalField   nonuniform List<vector> 
117990
(
(1.02457 -0.0640317 -7.47115e-19)
(0.998839 9.19434e-06 -3.82591e-21)
(0.809998 0.0266735 -2.42044e-19)
(0.895695 -0.0614689 5.44713e-20)
(1.07768 -0.0465789 7.06811e-20)
(0.939337 -0.0824819 9.85054e-22)
(0.775374 0.0332974 -1.93509e-18)
(1.14181 -0.0900311 -1.71205e-19)
(0.972961 -0.0360646 -1.04762e-21)
(0.998768 8.5232e-05 8.08752e-22)
(0.976987 -0.00225533 1.27675e-20)
(1.01438 -0.0119145 6.65078e-21)
(0.996493 -0.0721337 7.54658e-20)
(0.375297 -0.0239664 1.91751e-18)
(0.972755 -0.0369389 1.02216e-20)
(0.517204 -0.124983 4.2246e-18)
(0.988254 -0.0295834 3.86892e-21)
(0.96708 -0.0203702 -1.63728e-20)
(1.00898 -0.160864 1.93798e-18)
(1.07787 -0.0449972 2.53644e-19)
(1.14375 -0.0728338 -1.63333e-18)
(0.673539 -0.0060453 -2.82117e-20)
(0.962341 -0.026737 -1.46293e-20)
(0.873119 -0.0463178 3.15863e-20)
(1.28816 -0.0339228 1.39061e-18)
(0.897575 0.270005 2.13513e-18)
(0.142833 0.263886 -2.92193e-19)
(1.17975 0.00154356 1.33296e-18)
(0.998316 -0.00513826 4.53962e-21)
(1.07917 0.228532 -1.85637e-18)
(0.987084 -0.00472037 1.0498e-20)
(1.0859 0.122685 4.95671e-19)
(1.10942 -0.0210828 -9.68414e-20)
(0.712625 0.0015747 1.2623e-19)
(1.31323 -0.0264688 5.98915e-19)
(0.866578 -0.0683847 1.15097e-19)
(0.803845 0.15181 3.25902e-19)
(0.988292 -0.0301985 -1.8559e-21)
(0.400277 1.65311 3.7628e-20)
(0.867589 0.0594947 4.39195e-18)
(1.08901 0.121896 -9.63447e-19)
(0.966646 -0.0210555 -3.0557e-21)
(0.826309 0.0322556 5.52371e-19)
(0.865779 -0.0669407 -8.08447e-20)
(0.967521 -0.160123 6.81906e-20)
(0.379546 -0.0238056 -1.99686e-18)
(1.07041 -0.00891144 9.25713e-19)
(1.16351 -0.00797628 2.26401e-19)
(1.04401 -0.0511176 9.97026e-20)
(1.01427 -0.00124745 -3.04019e-20)
(1.00057 -3.99262e-05 1.43429e-23)
(0.761948 -0.0082036 1.04712e-19)
(1.07828 0.0800804 1.50146e-18)
(0.999065 -2.70795e-06 -6.1857e-22)
(0.999055 -0.0470386 -3.53434e-19)
(1.07695 0.0792391 -3.73637e-19)
(1.12924 0.0121216 1.2285e-18)
(0.83766 -0.183557 3.96572e-19)
(0.196129 0.291381 1.03299e-18)
(0.861617 0.0166983 -7.10908e-19)
(0.992813 -0.017861 -3.73784e-21)
(0.872934 -0.0404847 -2.94716e-20)
(0.93299 -0.0035625 -2.62293e-20)
(0.74937 0.0466989 -6.33747e-20)
(0.993841 -0.00496726 -1.15063e-20)
(1.07725 -0.00169793 -1.90468e-20)
(1.00283 -0.0671746 -4.02295e-19)
(1.12643 0.0609961 1.28359e-18)
(0.310903 0.186479 6.82727e-19)
(1.14248 0.0116654 5.3566e-19)
(0.772307 0.262735 1.11725e-18)
(0.256278 0.143478 -1.37037e-18)
(0.874426 0.0610603 1.97697e-18)
(0.649693 -0.0247796 4.49435e-19)
(1.02759 -0.0916622 3.59567e-19)
(0.717054 0.00765011 1.3979e-19)
(0.724675 0.314404 -5.00288e-19)
(0.993968 -0.0738899 1.51178e-19)
(0.993532 -0.285632 -6.91459e-19)
(0.987017 0.198595 1.25138e-19)
(0.980388 0.207624 4.45268e-19)
(0.995248 -0.000115935 3.90725e-22)
(1.09787 -0.364123 -5.64018e-19)
(1.2 -0.00133872 -6.0236e-19)
(0.772029 -0.0483222 5.71865e-20)
(1.01385 -0.0115758 6.53726e-21)
(0.795845 0.0490541 3.31971e-19)
(0.998956 -0.00183767 -5.07156e-22)
(0.710572 -0.0362442 1.73907e-21)
(0.998958 -0.00305238 2.20993e-21)
(0.117715 0.884645 2.32375e-21)
(0.758939 -0.00980733 -7.81756e-20)
(0.998032 -0.00502686 -5.75757e-21)
(0.89169 -0.0655885 8.80912e-20)
(0.959813 -0.0251002 -2.51156e-20)
(1.03253 -0.00451194 1.30554e-20)
(0.965088 -0.00158738 -5.71855e-21)
(1.10406 -0.361774 -4.52893e-20)
(0.846158 0.599222 -4.29411e-20)
(0.70776 -0.0339931 2.77687e-19)
(0.992685 -0.018275 3.83155e-21)
(1.16013 0.0121674 -1.2379e-18)
(1.05892 -0.0269326 -7.36964e-19)
(1.1247 -0.00454661 -2.34576e-21)
(0.768618 0.26273 7.48191e-19)
(1.1345 -0.173541 -6.00279e-19)
(0.892495 -0.0236503 -1.216e-18)
(1.04439 -0.227969 -4.70115e-19)
(0.927476 0.0442702 -1.74288e-19)
(0.998431 -0.00590993 -2.75641e-21)
(0.863518 0.238948 -1.00789e-18)
(0.965461 -0.00208069 2.29221e-21)
(0.704842 0.328247 3.14389e-19)
(0.961938 0.0369458 1.04297e-18)
(1.26851 0.0764234 -1.92668e-19)
(1.02027 -0.0136437 1.32711e-18)
(0.9767 -0.00190244 -2.35716e-20)
(0.762821 0.252205 -1.44859e-18)
(1.00188 -0.00160852 2.28637e-22)
(0.252737 0.155673 9.4538e-19)
(0.762089 0.252198 2.07632e-18)
(0.514226 -0.127719 -1.69065e-18)
(0.820388 0.0281762 -2.19301e-19)
(0.391654 0.32436 7.39914e-19)
(0.998892 -0.00017088 -7.6355e-22)
(1.07068 0.2345 2.14421e-18)
(0.874302 -0.041147 2.52948e-20)
(1.2354 0.203387 -6.122e-19)
(0.861666 -0.00636067 1.97839e-21)
(1.18717 0.00194616 -1.11873e-18)
(1.04864 -0.0919047 -8.38501e-20)
(1.02214 -0.00331254 1.03131e-20)
(0.722914 0.216454 -9.49411e-19)
(1.01387 -0.0109718 -1.99323e-20)
(1.00203 -0.00140641 1.06533e-22)
(1.02187 0.00831428 3.04351e-18)
(1.29791 -0.0777865 -3.83296e-19)
(1.1047 -0.0177852 -1.23302e-19)
(1.00193 -0.0469099 4.85866e-19)
(0.874702 -0.0432425 -2.66672e-19)
(0.742582 -0.117807 6.9785e-19)
(1.0352 -0.0219187 6.73614e-19)
(1.00512 -0.000337721 -7.97489e-21)
(1.06222 0.10786 1.87388e-19)
(1.04568 -0.0904648 1.23759e-18)
(1.00042 -7.74541e-05 -1.40422e-23)
(1.09464 0.0150266 7.94099e-23)
(0.871779 -0.0366052 9.07239e-20)
(1.12933 0.0617474 -1.98148e-18)
(1.0642 -0.0555715 -2.43326e-19)
(1.1298 -0.171946 4.58813e-19)
(0.960898 -0.15641 -4.95544e-19)
(0.755716 -0.0102749 -4.89655e-20)
(0.998577 -0.000152895 3.45013e-22)
(0.764514 -0.00747209 6.17426e-20)
(1.12612 -0.0207197 5.85704e-19)
(0.998419 -0.00604132 3.52304e-21)
(1.0127 0.177228 1.53087e-18)
(0.69633 0.00552519 1.20537e-20)
(1.25587 -0.226333 2.39913e-19)
(0.716759 0.0146119 -7.61504e-19)
(1.09557 0.0164264 6.98546e-19)
(0.934061 -0.00314854 -1.93692e-20)
(1.02386 -0.1298 -6.51518e-20)
(0.947252 0.0170258 3.86659e-19)
(0.926013 -0.0390447 -6.85025e-20)
(1.12899 0.00158394 6.07478e-19)
(0.919001 0.0142797 6.09823e-20)
(0.992951 0.182067 -2.23274e-18)
(0.928178 0.0213653 -4.45451e-19)
(0.884427 0.0106812 -5.90381e-19)
(1.07572 -0.0139352 -5.22782e-19)
(0.0732556 0.960041 6.68419e-20)
(0.458204 -0.0993826 2.96442e-18)
(0.978915 -0.113088 -5.63884e-20)
(1.14572 0.0388429 -5.6201e-20)
(0.457169 -0.0970064 -6.5576e-19)
(0.92558 -0.0789699 -6.26405e-20)
(1.06833 0.00610855 1.9349e-18)
(1.04328 -0.0537641 1.62849e-19)
(1.1329 0.00519924 1.17726e-19)
(1.02305 -0.0917836 4.113e-19)
(1.08607 -0.114474 -8.37797e-19)
(1.06242 0.0958816 8.07248e-19)
(0.89671 -0.0317948 2.85811e-18)
(0.971026 -0.062849 -4.74377e-22)
(0.862337 -0.0533343 -2.54299e-20)
(1.00023 0.00450304 -8.39877e-19)
(1.08464 -0.0169612 1.77217e-18)
(0.137378 0.893913 -1.21893e-21)
(0.929411 -0.0781366 -2.0885e-20)
(1.03997 -0.0242361 -4.52135e-19)
(1.04472 -0.270236 -1.22018e-18)
(0.800267 0.00335202 -1.04399e-18)
(0.908196 0.268061 -2.82795e-18)
(1.16722 -0.244788 2.84303e-19)
(0.450682 -0.0929096 1.94656e-19)
(0.599419 -0.00109016 -6.97561e-20)
(0.746394 -0.00452354 7.54988e-19)
(0.970543 -0.0269403 5.70123e-19)
(1.05575 0.0811751 1.05704e-18)
(0.883408 -0.223512 1.24814e-18)
(1.14212 0.0118661 3.49187e-19)
(0.998875 -0.00229579 -3.47965e-21)
(0.852377 -0.0549779 -2.81744e-21)
(0.736501 -0.081576 5.15849e-19)
(0.94561 -0.0662574 -2.12766e-20)
(0.993958 -0.00499225 8.86269e-21)
(1.15162 0.0121305 -2.96268e-19)
(1.0672 -0.111053 -1.73594e-18)
(0.447618 -0.0899136 -1.66029e-18)
(0.891135 -0.0109909 -7.56516e-19)
(1.28504 -0.0371451 -1.03084e-18)
(0.999022 -0.00305542 2.89564e-22)
(0.943769 0.0264357 1.29059e-18)
(0.801371 -0.00067459 5.17234e-19)
(1.06776 0.124841 8.81037e-19)
(1.07868 -0.0184001 1.04725e-18)
(0.370948 -0.0194352 -1.15506e-18)
(0.986445 -0.0204624 1.84287e-21)
(0.959563 -0.102534 2.15589e-20)
(0.802935 0.0261242 -3.65732e-20)
(1.04398 -0.0427254 -4.67834e-20)
(0.703165 0.00741478 -6.32842e-19)
(0.999062 -5.69883e-05 8.88533e-22)
(1.24001 -0.0874707 1.08815e-18)
(1.0308 0.0190518 -8.87635e-19)
(0.722851 -0.0102841 8.04034e-19)
(1.16626 -0.241168 1.63396e-19)
(1.19712 -0.135334 6.04237e-19)
(1.16899 0.0104299 -1.21487e-19)
(0.956371 -0.16978 -9.11424e-20)
(0.755225 -0.071353 -5.84066e-19)
(0.907706 0.00215121 5.12903e-19)
(1.05405 -0.0893982 -5.63229e-19)
(1.05492 0.0811225 1.58539e-18)
(1.038 -0.00323772 1.47158e-20)
(1.05713 -0.0314646 8.06251e-19)
(0.925815 -0.00659947 -1.85745e-19)
(0.758736 -0.0117112 -1.3613e-19)
(0.293285 0.734117 -4.35509e-19)
(1.00567 -0.0482475 1.16073e-20)
(1.26227 -0.225764 -3.07147e-19)
(0.862292 0.623076 3.17512e-19)
(0.857525 -0.00583016 -1.01039e-19)
(1.06012 -0.0517358 -4.82495e-20)
(1.10051 0.0874509 1.42555e-18)
(0.712408 0.00462023 1.39553e-18)
(0.918649 0.0146915 2.19804e-20)
(0.667742 -0.155133 7.6303e-19)
(1.01 -0.172232 -6.32536e-19)
(0.911484 -0.0825493 -3.9076e-21)
(1.09201 0.0121176 -5.41236e-18)
(1.03185 -0.0662294 2.5292e-20)
(1.24739 0.191708 -1.14333e-18)
(1.13271 0.00363875 -8.07666e-19)
(0.54065 0.369155 -1.13875e-18)
(1.19945 0.00279953 5.50596e-19)
(1.02571 -0.000576684 7.02344e-20)
(1.15055 -0.0886324 -1.70741e-20)
(1.13688 0.00794253 -1.88667e-18)
(0.378314 -0.0127599 7.09362e-19)
(1.05919 0.10186 -1.15797e-18)
(0.649142 1.83223 -6.85879e-20)
(0.925379 0.0449997 -1.34398e-19)
(0.899652 -0.0628741 -1.72626e-19)
(0.40029 0.321266 1.1925e-18)
(0.863419 -0.0159205 1.09945e-19)
(0.745482 0.290191 -5.88746e-19)
(0.729921 0.318703 1.09252e-19)
(0.994153 -0.00270872 -8.11253e-23)
(1.08782 -0.0157144 -4.32138e-19)
(1.04705 -0.0545014 4.22206e-19)
(1.00567 -0.0481374 -6.71863e-19)
(0.986362 -0.0766977 2.93369e-19)
(0.790472 0.0467311 1.65348e-19)
(0.964282 -0.162299 -5.10251e-19)
(0.977153 -0.111025 -2.73488e-20)
(1.00054 -0.0218868 -5.38305e-19)
(1.04779 -0.226794 3.78123e-19)
(1.02423 -0.133683 1.722e-19)
(0.859258 -0.00484035 -7.64758e-20)
(1.01256 -0.068505 3.89932e-20)
(0.730063 -0.0737313 -2.715e-19)
(0.997346 -0.0549416 1.62913e-20)
(1.13795 -0.00104424 1.33009e-18)
(1.23195 -0.10565 6.3535e-19)
(1.10732 0.00673582 -2.79239e-18)
(1.11804 -0.374058 3.33327e-19)
(0.408829 1.54285 2.38782e-20)
(0.960832 -0.160803 -1.25082e-19)
(0.999116 -0.00220969 -2.62232e-21)
(0.187655 0.332364 6.78807e-19)
(0.896414 -0.00654924 -7.37401e-19)
(0.990565 -0.0375692 -1.68247e-23)
(1.1401 0.0158052 -9.16287e-19)
(0.911484 -0.0755722 -4.33034e-21)
(1.09111 0.119677 7.73182e-19)
(1.03941 -0.0622776 -3.19285e-19)
(0.701902 0.342133 2.78931e-19)
(0.427486 -0.0742541 8.95304e-19)
(0.961915 -0.107706 -1.85735e-19)
(0.0455002 0.454534 -2.06784e-20)
(0.878989 -0.0232806 2.3291e-19)
(1.00972 -0.151182 6.90087e-20)
(1.06576 0.158968 4.4486e-19)
(1.00118 -0.0748556 -8.91425e-20)
(0.721403 -0.00447912 -5.55938e-19)
(1.83062 1.25084 -4.6731e-20)
(1.07123 0.00560363 7.37016e-21)
(0.856022 -0.0790708 -1.97359e-20)
(0.784327 0.166196 1.4916e-18)
(0.767243 0.056446 1.00526e-18)
(0.924771 -0.00546512 5.59331e-19)
(0.986211 -0.0671179 -3.89006e-19)
(1.0633 -0.0285199 2.00964e-19)
(1.04758 -0.267964 -1.9141e-18)
(1.0585 -0.0512373 2.06124e-19)
(0.877426 -0.0495867 -1.39849e-19)
(0.199337 0.349618 -1.71216e-19)
(1.08622 0.0691668 3.02149e-19)
(0.98679 -0.0208665 -1.39673e-20)
(1.14014 0.00995242 -2.74061e-19)
(1.27292 0.0687893 3.49913e-19)
(1.02409 0.187058 -1.72879e-18)
(0.701022 0.0204153 1.29688e-18)
(1.12668 -0.0213904 -8.61088e-19)
(1.09339 0.103159 9.88565e-19)
(0.420581 -0.0690079 -1.7419e-18)
(0.181658 0.321201 -1.0664e-18)
(0.86114 -0.079231 1.3957e-20)
(0.999062 -0.00229712 4.94646e-21)
(0.973973 -0.065523 -2.44983e-21)
(0.913563 -0.081675 1.39852e-20)
(1.29402 0.0116708 2.65219e-19)
(0.933073 -0.0597032 1.89399e-19)
(0.985202 0.183249 8.90441e-19)
(0.994769 -0.00279465 8.79231e-22)
(0.935404 -0.0822978 -6.98222e-22)
(0.858144 -0.0528411 3.63318e-20)
(0.82712 0.0229163 2.1468e-19)
(1.07478 0.139176 -3.32096e-18)
(0.155336 0.256893 1.14704e-19)
(0.746082 0.0442032 -5.79728e-19)
(0.863078 -0.0175434 -9.05279e-20)
(1.08699 -0.048634 -7.60957e-20)
(0.996205 -0.019881 3.34747e-19)
(1.23924 0.184889 -1.33769e-20)
(0.819815 -0.0940623 -1.42919e-18)
(1.01324 -0.0293649 -1.69278e-19)
(0.72705 0.219353 5.01163e-19)
(1.01508 0.075353 -1.2709e-18)
(1.13806 0.00640002 1.7202e-18)
(0.907924 -0.0713112 -9.37209e-20)
(0.970023 -0.0267244 6.31146e-20)
(1.01287 0.0278575 1.20612e-19)
(1.0254 -0.0616058 1.18848e-18)
(1.0005 -0.000204369 -2.02471e-24)
(0.965029 -0.0830344 -9.2683e-20)
(1.06483 -0.0311921 -7.55396e-19)
(0.852315 0.317709 1.7227e-18)
(1.02368 -0.17011 -1.2275e-19)
(0.801929 0.13542 6.18557e-19)
(1.30548 0.0346572 -2.76266e-19)
(0.887118 0.233234 -1.14881e-18)
(1.0003 -0.000231158 -1.48632e-23)
(0.609474 0.000532226 1.36228e-19)
(0.846179 0.0392153 -3.25372e-19)
(1.04752 -0.0434231 -4.20281e-19)
(1.00022 -0.000309562 8.80952e-23)
(1.25251 0.102749 2.85871e-19)
(0.389513 -0.16582 -7.752e-19)
(0.712639 0.0058903 1.36522e-18)
(0.950713 -0.00220106 -2.9804e-20)
(0.728334 0.277565 -8.87608e-19)
(1.10004 -0.0375654 1.09068e-19)
(1.06021 -0.0273214 -4.1087e-19)
(1.01387 -0.000847074 2.69676e-20)
(0.921641 -0.0891798 -5.7358e-21)
(1.06888 -0.0349078 -1.10754e-19)
(0.954185 -0.169613 -6.96474e-19)
(0.92924 0.0385133 3.31848e-19)
(0.955629 0.0357212 1.45259e-18)
(1.06296 -0.0302752 -9.1838e-19)
(1.148 -0.00457043 -7.10438e-19)
(0.989859 -0.000617934 -1.54235e-20)
(0.747927 -0.0588902 1.2297e-18)
(0.62502 -0.157137 -1.74586e-19)
(1.08005 -0.0479167 -2.73413e-19)
(1.09145 -0.100359 2.51142e-19)
(1.08713 0.113473 -3.42937e-18)
(0.929874 0.0784167 -2.59246e-18)
(0.793636 0.0487733 -2.46913e-19)
(1.17462 0.00502475 7.15605e-19)
(0.804413 0.0268596 -3.36521e-20)
(0.915767 -0.089271 5.49324e-20)
(1.83937 1.18845 2.68214e-20)
(1.04539 -0.0480402 2.05735e-19)
(1.04641 -0.0549686 -7.64561e-19)
(0.760753 0.0470684 -7.0749e-19)
(0.774207 -0.0469427 -3.64338e-19)
(0.926619 -0.0762226 -8.43194e-20)
(1.03464 0.130113 -4.84212e-19)
(0.881604 0.0723596 1.83953e-19)
(1.28021 1.67487 3.89882e-20)
(1.04943 0.0941578 -1.00025e-18)
(1.00202 -0.00148923 -2.35072e-22)
(0.968359 -0.0166144 -1.39008e-19)
(1.06691 0.0950697 3.7469e-19)
(0.639026 -0.00776504 6.71385e-20)
(0.95263 0.0408936 8.1465e-19)
(0.850958 -0.0780378 5.60248e-21)
(1.09094 -0.0469025 -2.12646e-19)
(0.90986 -0.0621008 1.40192e-19)
(0.766997 -0.0449866 -4.54208e-20)
(1.00073 -0.0260211 1.90534e-19)
(1.04882 -0.0547542 4.6293e-19)
(1.5945 -0.0343906 -4.65955e-20)
(1.00366 -0.00228766 3.5495e-21)
(1.15656 -0.0056782 -1.19549e-19)
(0.998976 6.51566e-05 -6.56473e-23)
(0.441356 -0.0857951 2.27208e-18)
(1.02014 -0.0182083 1.82759e-20)
(0.952256 0.276489 1.32795e-18)
(0.76839 0.0655687 -5.33477e-19)
(0.982847 0.143459 -1.06488e-18)
(1.06337 0.0851554 6.85684e-19)
(0.953065 0.124411 -1.01753e-19)
(1.13265 0.0128834 1.76105e-18)
(0.962158 -0.0658146 -3.9986e-20)
(1.08895 -0.0359852 -2.17437e-19)
(0.982028 -0.0483351 1.09335e-22)
(0.803901 -0.0577644 3.78182e-21)
(0.726393 0.000394458 -3.23535e-19)
(0.880416 -0.0286016 8.80888e-20)
(0.964681 -0.0137557 -3.32978e-19)
(1.03295 -0.063163 -4.45667e-19)
(1.01986 -0.0175847 -2.21498e-20)
(0.985613 -0.00785775 -3.91641e-21)
(1.01249 -0.0106634 -1.43809e-20)
(0.987117 -0.0741993 -1.42035e-19)
(1.18416 0.00228183 1.05578e-18)
(1.02372 -0.0560708 9.45068e-19)
(0.754096 0.0502821 7.5231e-19)
(0.997108 -0.0535596 -3.36921e-20)
(1.20626 0.166932 -6.50037e-19)
(1.06008 -0.0528489 6.1133e-19)
(0.987021 -0.00787104 -1.62844e-20)
(0.932939 0.0821193 3.71632e-18)
(1.13999 0.0355939 1.70842e-19)
(0.967307 -0.0960369 4.78975e-18)
(1.00398 -0.00302544 -3.53171e-21)
(1.00251 -0.0443555 0)
(1.09217 -0.0353701 3.24095e-19)
(0.920358 0.00986352 -3.13587e-19)
(0.906097 -0.0443673 9.08835e-20)
(1.27087 -0.111538 2.47961e-19)
(0.713648 0.00311427 -9.35894e-19)
(1.00223 0.236966 2.33347e-18)
(0.610002 -0.00370255 4.60497e-19)
(1.02628 0.124058 -2.54359e-19)
(1.06142 -0.0525259 -4.44508e-19)
(1.07967 -0.0474797 3.22395e-19)
(0.947073 -0.194952 -1.09141e-18)
(0.78006 0.169553 -6.22162e-19)
(1.15118 -0.0704672 9.442e-19)
(1.10209 -0.0365258 4.99439e-20)
(0.465657 -0.102852 -3.24089e-18)
(0.609867 -0.00579915 -2.64562e-19)
(1.00401 -0.00320459 1.50084e-21)
(1.15028 -0.00495662 1.43092e-19)
(0.638833 -0.157051 4.33684e-19)
(0.921458 -0.00286076 4.93875e-20)
(0.646948 -0.0267337 -7.94797e-19)
(1.03196 -0.0667507 -1.61688e-19)
(1.03568 0.180627 2.85568e-18)
(0.998906 1.78142e-05 -1.98957e-22)
(1.10698 -0.0328827 -9.84037e-20)
(1.15506 0.00979297 9.06999e-19)
(1.10461 0.0144669 -1.10927e-18)
(1.05712 0.292656 -6.16373e-19)
(0.999887 -8.5316e-05 1.61019e-24)
(0.994835 -0.00301948 2.9541e-22)
(1.10443 -0.00165389 -4.81647e-19)
(0.919879 -0.000215188 5.3822e-19)
(0.951775 -0.0661335 1.70014e-20)
(0.990306 -0.0402455 -5.34325e-21)
(0.976334 0.195981 -1.10621e-18)
(1.29198 -0.00593019 -1.28505e-18)
(0.68721 0.358533 -1.21895e-19)
(0.962332 -0.0588828 -1.31184e-18)
(0.662164 0.0240898 -1.50299e-19)
(1.0186 -0.154635 3.95966e-19)
(1.06935 0.0570259 1.70867e-18)
(0.916205 -0.062068 -5.94902e-20)
(1.25845 0.0826276 -3.8692e-19)
(0.544651 -0.129953 -3.02505e-18)
(0.966462 0.0336352 -7.53584e-19)
(1.05719 -0.0319533 -4.32731e-19)
(0.96865 -0.0440459 -2.50832e-19)
(0.896035 -0.0660397 2.59635e-20)
(0.998107 -0.283189 -3.88066e-18)
(0.90856 0.00750833 7.81657e-19)
(0.893887 0.266864 7.25257e-19)
(1.00384 -0.0824565 -6.44183e-19)
(0.987717 0.143273 5.92309e-19)
(0.73122 0.0530879 -2.65658e-19)
(0.832626 0.0213247 5.83739e-19)
(0.262424 0.752211 -1.86618e-20)
(1.05204 0.0757501 1.69028e-18)
(0.917185 -0.0751183 1.15584e-19)
(1.0321 -0.0673527 4.95428e-19)
(1.02768 -0.0643101 -3.83793e-19)
(0.998528 -0.000287107 -5.53382e-21)
(1.01848 -0.0595599 -1.6396e-18)
(0.988684 -0.186674 5.21967e-19)
(1.01491 -0.0401512 -3.33868e-20)
(1.0858 0.0632465 -1.04238e-19)
(0.975865 -0.0556854 1.39579e-21)
(0.975863 -0.0568291 -3.5612e-21)
(1.11038 -0.0054983 -3.68432e-20)
(1.00545 -0.0781628 3.94785e-19)
(1.06011 -0.00608976 -8.03449e-20)
(1.06931 -0.0372803 6.04537e-21)
(0.679161 0.0272169 -4.50484e-19)
(0.922378 -0.0631303 -8.72567e-20)
(0.809039 -0.0565224 -2.46734e-20)
(1.0297 -0.280144 -4.88296e-18)
(0.998313 0.227999 1.6873e-18)
(1.09518 0.00087601 9.17178e-19)
(0.884247 0.01052 -4.54112e-19)
(0.952388 -0.142743 9.32202e-20)
(1.04803 -0.053897 -2.74552e-19)
(1.00192 -0.00294934 -3.86246e-22)
(0.99991 -0.000279508 5.79945e-23)
(0.679916 -0.0409269 -1.55836e-19)
(0.542083 -0.1301 3.08449e-18)
(0.844312 -0.0750888 2.40258e-20)
(1.00187 -0.00281746 -1.01187e-21)
(0.718066 0.00275239 -2.39865e-19)
(1.07843 0.138891 3.06847e-18)
(0.334894 0.184858 -8.19407e-19)
(0.895431 0.245003 -8.02251e-19)
(0.995452 -0.000234898 -3.95611e-21)
(0.723753 0.003434 -1.05893e-18)
(0.970686 -0.0110281 -9.45571e-19)
(1.00942 -0.000986925 -1.3151e-21)
(0.992845 -0.0215204 2.06115e-21)
(0.706167 -0.00654671 1.70099e-19)
(1.10327 -0.00111717 -1.59993e-19)
(1.06153 -0.0507279 -3.51995e-20)
(1.20342 -0.150668 1.36446e-19)
(1.03892 -0.00370231 -4.49122e-20)
(0.837859 -0.145112 -1.34497e-18)
(0.688126 0.0362349 4.56264e-19)
(0.663121 0.0249138 -2.54714e-19)
(0.75108 0.0437928 -9.57314e-20)
(1.07295 -0.0376086 -3.22486e-19)
(0.803037 -0.147936 -1.61968e-18)
(1.02068 -0.0389513 4.13372e-20)
(1.00191 -0.00127661 -8.34012e-23)
(1.11501 -0.0381603 2.74407e-19)
(0.846483 0.19528 -5.88238e-19)
(1.18969 -0.140207 3.04531e-18)
(0.966644 0.0411113 1.31915e-18)
(1.02419 -0.0580811 -3.05302e-19)
(0.865784 0.0116787 1.35301e-19)
(0.946518 0.0116784 6.59215e-18)
(1.13936 0.00514043 -2.38035e-18)
(1.01691 -0.0343571 -2.74267e-20)
(1.18674 0.00305566 -9.25738e-19)
(0.820043 0.0308253 -1.26232e-19)
(0.72443 0.292111 -1.11985e-18)
(0.969426 -0.0486609 -3.01991e-19)
(1.16946 0.00535502 -2.3254e-18)
(1.0763 -0.00288479 1.72855e-19)
(0.967978 0.0434271 9.08837e-19)
(1.0496 -0.00468777 -8.14853e-20)
(0.914486 -0.0390286 -5.95978e-20)
(0.739287 0.0486134 7.19803e-20)
(0.895616 0.0119791 7.71209e-19)
(1.02479 -0.00113706 -6.23441e-20)
(0.928505 -0.0102225 -7.2766e-19)
(1.26187 -0.110939 -4.9155e-19)
(0.997359 0.238409 -1.83773e-18)
(0.934255 -0.0566475 5.52167e-19)
(0.901219 -0.0460175 -1.3516e-19)
(0.770809 0.531403 -2.00324e-19)
(1.00577 -0.000162897 -3.4275e-21)
(1.23653 1.65293 -1.68071e-20)
(0.917607 -0.0614945 -9.34621e-20)
(1.14076 0.0155494 -1.42129e-18)
(0.919959 0.0104235 -3.00076e-19)
(1.12358 -0.00361394 -5.15489e-19)
(0.389045 -0.145298 -1.93455e-18)
(0.875534 0.0702501 -1.82131e-18)
(1.22319 -0.1552 1.41637e-18)
(0.953938 0.121129 2.98113e-19)
(0.751157 0.303669 9.99326e-19)
(0.749131 0.319058 -8.51567e-19)
(0.738221 -0.13395 -1.61279e-20)
(1.14099 0.00468753 2.63622e-18)
(0.76441 0.219676 9.56201e-19)
(0.972738 -0.0987926 -3.72196e-18)
(1.05247 -0.0486306 -1.52991e-20)
(0.976668 -0.0798832 1.36104e-19)
(1.16643 -0.141661 -3.29608e-18)
(1.0025 -0.00198264 -4.63217e-22)
(0.610437 1.78864 8.49866e-20)
(0.34294 0.145517 -3.438e-19)
(0.802768 0.0479519 -5.23729e-19)
(1.06822 -0.0556381 -2.83152e-20)
(1.11062 0.010914 -3.7457e-19)
(0.910988 -0.0815462 -7.99395e-21)
(1.08981 -0.0353651 -6.51912e-21)
(0.985614 -0.175258 -8.86883e-19)
(1.30968 -0.0295314 1.08189e-18)
(0.986907 -0.000641523 -9.28426e-22)
(1.02175 -0.0387899 -4.12623e-20)
(1.0818 0.0751503 -3.53363e-19)
(1.03625 -0.0673359 3.36397e-20)
(0.0488224 0.434825 4.92998e-20)
(0.778042 0.177969 -1.04468e-18)
(1.02243 0.18277 3.60876e-19)
(0.993207 -0.0216762 -5.59961e-21)
(1.01559 -0.142658 -1.25868e-19)
(0.96722 -0.114738 -9.88239e-19)
(1.0522 -0.00350253 5.44535e-20)
(1.01211 -0.0226358 8.49004e-19)
(1.10175 0.0911829 7.69375e-19)
(1.30355 -0.0508132 -7.01405e-19)
(1.03464 -0.0665457 -1.25088e-19)
(0.999753 -0.000127363 2.63115e-23)
(0.769804 0.219212 7.19399e-19)
(1.01099 -0.0230761 1.50688e-18)
(0.986692 -0.000693886 -2.06834e-20)
(1.12619 -0.00208108 -2.36061e-19)
(1.09554 -0.0277483 -1.79379e-19)
(0.928319 -0.060676 1.65597e-20)
(0.833412 -0.00481214 4.33437e-20)
(0.22115 1.50707 5.69088e-20)
(0.686413 0.0156681 -9.80586e-20)
(0.91243 -0.0836678 -8.64117e-22)
(0.776612 -0.0432713 -7.14968e-21)
(1.02285 -0.0377475 5.93332e-20)
(0.988033 -0.00830811 1.14197e-20)
(1.02592 -0.0177416 -7.47868e-19)
(0.578875 0.324276 -1.64297e-19)
(0.978792 -0.00604141 8.01214e-21)
(0.687955 0.0367696 5.42755e-19)
(1.06671 -0.0464974 2.46923e-20)
(0.931642 -0.0516031 2.59494e-19)
(0.892089 0.0074842 -1.01972e-18)
(0.989771 -0.0377848 1.75407e-21)
(1.27483 0.030842 -5.91043e-19)
(1.07162 0.00573404 -6.76118e-19)
(1.03029 -0.17554 4.53088e-19)
(0.610557 0.320337 4.59575e-19)
(0.954023 -0.0231913 1.16319e-20)
(0.9971 -0.00746302 -3.06579e-21)
(0.962929 -0.026096 -2.3391e-20)
(0.905111 -0.0437766 -2.59474e-21)
(1.07527 0.0143349 0)
(1.02858 -0.0348295 -5.20441e-19)
(0.610344 0.00105112 -3.15461e-20)
(1.0049 -0.00625071 -2.92893e-18)
(0.57333 -0.141725 2.58802e-18)
(0.57067 -0.138725 -2.24064e-18)
(1.06994 -0.0331184 5.90831e-19)
(1.08471 0.0414219 1.65286e-18)
(1.02854 -0.256017 3.03864e-18)
(0.956836 -0.0270339 1.13423e-20)
(0.927885 -0.00926282 -1.51413e-19)
(0.800405 0.0480974 4.98647e-19)
(1.01816 -0.018356 2.58739e-20)
(1.00997 -0.0538871 3.93621e-19)
(1.06841 -0.0452898 -1.20005e-20)
(1.01735 -0.0519001 -8.69641e-19)
(1.03224 -0.212929 -9.37691e-20)
(1.30266 0.0899565 -1.207e-18)
(0.820827 -0.141711 1.30834e-18)
(0.915202 -0.0766094 -1.87593e-20)
(0.787908 0.0496706 8.70546e-19)
(1.02003 0.0255734 -6.39525e-20)
(1.02323 0.183048 -1.91578e-18)
(1.14092 0.0121549 -3.12439e-19)
(0.978317 -0.0461189 -1.16091e-19)
(1.00119 -8.84531e-06 -2.74795e-23)
(0.962786 -0.052867 1.63656e-18)
(0.748726 0.00180605 3.02042e-20)
(0.412613 -0.0654839 -1.62174e-18)
(1.02361 -0.0372807 -2.68406e-19)
(1.06199 -0.0337502 -2.92079e-18)
(0.990492 -0.126743 -7.59745e-19)
(1.1181 -0.0386167 1.19754e-19)
(0.0755668 0.396772 -4.40905e-19)
(0.925516 -0.00274883 7.42199e-20)
(0.767778 0.0204812 1.96555e-18)
(0.99107 0.00945376 5.26987e-19)
(1.10002 0.0947265 -3.72499e-19)
(0.657127 -0.0504051 -1.8143e-18)
(1.18307 0.00693601 1.78404e-19)
(0.998903 -0.00190631 -1.45599e-21)
(0.957326 -0.0979362 5.33532e-20)
(0.684094 0.0305613 -5.1424e-19)
(0.916229 0.00459185 -7.22119e-19)
(1.12489 -0.00447666 -1.7447e-19)
(1.21014 -0.154969 1.30725e-19)
(1.02337 -0.0377632 -6.76521e-20)
(1.48262 -0.330858 1.04617e-19)
(0.894268 -0.0669278 -1.07275e-19)
(0.998329 -0.00686523 -1.33935e-21)
(1.02996 -0.0364482 5.7851e-19)
(1.01781 -0.0397674 1.70161e-20)
(1.30862 -0.0467598 9.62066e-19)
(1.01874 -0.0180511 -2.28202e-20)
(0.93878 0.272999 -4.2156e-19)
(0.789476 0.0433886 1.38719e-19)
(1.19243 0.00207854 -3.39278e-19)
(1.11586 -0.0321892 -5.0186e-19)
(1.04465 0.192321 2.76773e-18)
(1.0965 -0.0365553 -6.2877e-19)
(1.01269 0.072938 -1.09166e-18)
(1.00006 -0.000386611 4.03207e-23)
(1.02109 -0.0916326 5.6155e-19)
(1.01441 -0.0639869 -1.83836e-19)
(1.07607 -0.0478873 5.48556e-20)
(0.75514 0.00479093 2.21542e-19)
(1.00219 -0.0016482 1.03957e-21)
(0.19169 0.373577 -5.30267e-19)
(1.22565 0.242105 2.79733e-19)
(0.320241 0.142282 7.70311e-19)
(1.01695 -0.0334886 5.32304e-20)
(1.10047 0.442094 1.68211e-19)
(1.07596 0.0157468 -4.26103e-19)
(1.07148 -0.110458 2.05181e-18)
(1.02991 -0.0587316 8.49069e-20)
(0.974842 -0.000257646 -6.2532e-21)
(1.07817 0.0717196 -4.15222e-19)
(1.01505 -0.013295 -1.47846e-20)
(1.20733 -0.11703 -6.68332e-19)
(0.970383 -0.00959744 -1.00098e-19)
(0.399121 -0.201588 -1.62901e-20)
(0.856465 0.315505 -2.29232e-18)
(1.0144 -0.0124166 1.17116e-20)
(1.11471 -0.364685 3.19957e-19)
(0.991369 0.0474472 -2.1832e-18)
(0.988034 -0.00791901 5.62926e-22)
(1.06687 0.129584 2.38989e-18)
(1.02534 -0.0750068 2.04103e-18)
(0.832096 -0.00581589 3.53553e-20)
(1.05519 -0.0250187 5.16751e-19)
(1.03576 -0.00462329 3.2876e-20)
(1.07604 -0.0147588 -6.2315e-19)
(0.744124 0.0475615 -3.4721e-20)
(0.654982 -0.00396121 4.60182e-20)
(0.889618 0.263044 -9.94956e-19)
(0.96866 0.0304831 -5.18761e-19)
(1.25697 0.155431 1.82128e-18)
(1.23908 0.0131211 1.55461e-18)
(0.79803 -0.00544595 -1.01471e-19)
(1.00219 -0.0352444 -2.72457e-21)
(0.885844 0.263783 -4.06559e-19)
(0.91839 -0.0614844 -5.83379e-20)
(0.66047 0.0123591 -4.49149e-20)
(1.0192 -0.0399345 -9.54273e-21)
(0.999513 0.20439 8.98377e-20)
(0.661235 -0.0483194 2.58341e-18)
(1.32066 0.0216546 1.59562e-18)
(1.00217 -0.072489 2.49472e-19)
(1.0027 -0.0786235 -4.5547e-20)
(0.755445 0.00348717 -1.06037e-19)
(0.2957 0.233312 -5.03004e-19)
(1.01747 -0.140343 -2.50642e-20)
(0.966523 0.190437 -3.48845e-19)
(1.10365 -0.00830272 -1.15639e-18)
(1.07439 0.060333 -1.4345e-18)
(0.982015 -0.0109991 -5.37566e-21)
(0.148731 0.600334 1.95213e-19)
(1.00164 -0.00271059 -4.74345e-22)
(1.08539 -0.0334653 4.08668e-19)
(0.998837 -2.11572e-05 4.25839e-22)
(1.23012 1.57155 -8.90829e-20)
(1.15276 -0.0642296 -7.7277e-19)
(0.939283 0.0792551 1.75627e-19)
(0.998478 -0.000352083 5.56392e-22)
(1.21987 -0.163705 -3.8165e-18)
(0.963104 -0.0107603 1.61147e-20)
(1.01126 -0.0537648 3.94758e-19)
(0.947121 -0.0256423 3.82864e-20)
(0.630843 -0.157559 -8.64719e-20)
(0.884844 0.00923374 7.44061e-19)
(0.997796 0.215933 1.39072e-18)
(0.987472 -0.000975397 2.81854e-20)
(1.0626 -0.108458 5.51498e-19)
(1.01553 -0.02199 1.53114e-19)
(0.868624 0.0123499 5.24529e-19)
(0.997997 -0.00739965 6.19384e-21)
(1.00004 -0.0793147 -4.80707e-20)
(0.978998 -0.0010476 3.08782e-21)
(1.00451 -0.161401 4.83637e-19)
(1.08394 -0.0495952 2.33534e-19)
(0.911556 -0.0461168 -2.87196e-21)
(0.720265 -0.00298159 -1.42642e-18)
(1.00788 -0.0192322 -1.54047e-22)
(1.02427 -0.0353077 5.51385e-20)
(1.0343 0.0203027 6.70217e-19)
(0.95474 -0.023375 6.94966e-21)
(0.943673 0.018283 -2.9319e-18)
(1.10858 0.10937 2.73726e-18)
(0.216132 0.279573 -4.50833e-21)
(0.669712 0.00668927 1.22195e-19)
(1.12332 -0.15895 -4.72408e-19)
(0.998603 -0.000150057 -3.52777e-22)
(0.75365 0.557235 2.20801e-19)
(1.03036 -0.211819 3.44795e-19)
(1.03355 -0.00471906 4.84407e-20)
(0.849257 -0.0749207 3.05931e-19)
(0.995987 -0.0745111 1.80989e-19)
(0.745007 -0.0962962 -4.40293e-19)
(1.4781 0.719201 2.48126e-20)
(1.04869 -0.00441079 -5.87985e-20)
(1.00785 -0.07713 -1.23071e-18)
(0.998341 -0.00701548 5.36282e-21)
(0.893916 -0.0507118 7.87808e-20)
(0.965108 -0.0112525 1.5801e-21)
(0.794248 0.196338 -1.36155e-19)
(0.695369 -0.0297095 -5.7741e-20)
(1.01165 -0.0228049 -4.13664e-22)
(0.984175 -0.0080933 9.35082e-21)
(1.14145 0.00868763 1.13404e-18)
(0.842395 -0.183398 -1.51436e-19)
(0.922697 -0.0614709 9.19942e-20)
(1.00729 -0.0774974 -1.14242e-19)
(0.895778 0.262692 -1.15185e-19)
(0.881088 -0.220734 7.8891e-19)
(1.07977 -0.0473588 1.51323e-19)
(0.333238 0.0174732 -2.95989e-20)
(1.26678 0.305491 -4.36416e-19)
(0.673398 -0.154029 -6.98588e-19)
(1.00288 -0.0348153 1.07708e-20)
(0.999278 -6.85721e-05 1.26895e-21)
(0.83913 0.199081 7.70079e-19)
(0.727061 -0.0715729 -1.5989e-19)
(1.00848 -0.0192009 -6.8459e-21)
(0.221652 0.228338 1.13694e-18)
(0.925949 -0.037869 4.19827e-20)
(0.999058 -0.000502655 2.98528e-21)
(1.07499 0.14245 2.92533e-19)
(1.1145 -0.254234 1.17272e-19)
(0.82249 -0.144083 -1.74013e-18)
(0.607914 -0.154841 -3.21158e-19)
(0.917058 0.0271458 6.27906e-19)
(0.645868 -0.00633045 7.49349e-20)
(0.664268 0.0108047 3.66985e-19)
(1.05966 -0.0325641 -6.3576e-19)
(0.871116 0.29401 -1.04418e-18)
(0.981087 -0.0488855 1.97333e-22)
(0.970343 -0.113356 -1.85808e-19)
(1.08681 0.154269 2.04759e-19)
(0.988608 -0.0471695 4.02876e-21)
(1.26139 0.281533 6.04635e-19)
(1.00345 -0.0420915 1.20995e-18)
(1.01263 0.173624 -2.78326e-18)
(1.0458 -0.0200903 4.45055e-19)
(0.961852 0.0072203 -1.34181e-19)
(1.15046 0.314758 -1.00008e-18)
(1.15402 0.0125796 8.52483e-19)
(1.08998 -0.103834 -6.79163e-20)
(0.833766 0.0348981 -5.26324e-19)
(0.761404 0.251114 2.00479e-18)
(0.752808 0.275429 6.31256e-19)
(0.674397 -0.000156788 3.87803e-20)
(0.991444 -0.132346 -3.40108e-19)
(0.772949 0.18249 1.86264e-19)
(0.902676 -0.0230239 2.58422e-20)
(0.970203 -0.00127888 2.30197e-22)
(1.40521 -0.309876 5.3074e-19)
(0.861744 -0.0208468 1.81349e-19)