/*--------------------------------*- C++ -*----------------------------------*\
  =========                 |
  \\      /  F ield         | OpenFOAM: The Open Source CFD Toolbox
   \\    /   O peration     | Website:  https://openfoam.org
    \\  /    A nd           | Version:  7
     \\/     M anipulation  |
\*---------------------------------------------------------------------------*/
FoamFile
{
    version     2.0;
    format      ascii;
    class       surfaceScalarField;
    location    "37";
    object      phi;
}
// * * * * * * * * * * * * * * * * * * * * * * * * * * * * * * * * * * * * * //

dimensions      [0 3 -1 0 0 0 0];

internalField   nonuniform List<scalar> 
43924
(
-594.934
667.799
-72.8647
1064.28
-1072.33
8.05673
-334.771
381.896
-47.1247
225.565
-258.592
33.027
-498.356
498.356
219.626
-263.072
43.4465
-375.323
367.304
8.01899
27.9914
-565.166
537.175
663.913
-833.657
169.744
-1009.32
1102.28
-92.9653
556.87
-146.745
-410.125
-532.064
536.174
-4.11042
-687.796
582.642
105.154
-859.812
868.872
-9.05967
265.659
67.903
-333.562
385.46
-10.3406
-375.119
814.527
-666.877
-147.651
-413.189
411.073
2.11578
161.016
314.792
-475.807
290.306
-356.785
66.479
-594.006
81.677
512.329
724.565
-60.652
49.7658
-384.537
136.496
-489.364
352.867
230.301
-118.395
-111.906
1068.11
-3.83204
659.817
-680.956
21.1384
-283.197
5.4869
277.71
309.312
-43.6529
-442.389
543.83
-101.442
953.524
-248.16
-705.364
-675.52
763.653
-88.1333
244.318
-222.871
-21.4467
479.573
-71.4261
-408.147
124.72
-407.917
265.474
-431.044
165.57
443.633
-590.12
146.486
291.293
-38.8944
-252.398
824.866
-979.561
154.695
1062.42
-237.557
-1018.21
1035.73
-17.523
401.765
-91.1013
-310.664
704.04
110.487
188.036
-309.306
121.271
1228.48
-777.709
-450.769
-591.166
148.777
537.936
-538.674
0.737909
230.495
645.54
-876.035
224.979
537.231
-762.21
-105.557
549.191
-379.843
175.693
204.151
-12.9598
-225.045
238.005
-668.82
-6.69947
239.001
-19.3754
423.952
-38.4922
-285.666
-50.7566
336.423
524.446
-499.695
-24.7509
-34.2884
-559.718
-464.054
43.2355
420.819
-296.753
-29.9165
326.669
799.5
17.5784
-817.078
-409.154
570.17
-14.266
-248.623
262.889
-217.799
483.272
-332.745
440.515
-107.77
261.532
235.008
-496.54
495.884
-124.61
-371.273
428.739
-48.44
-380.299
-448.167
-26.6104
474.777
-986.713
-31.494
1062.11
6.00376
308.411
273.873
-582.283
-243.704
547.182
-303.478
173.113
75.8377
-248.951
-431.613
381.452
50.1602
-381.491
383.817
-2.3255
303.227
-173.717
-129.511
-250.757
-60.4955
311.252
-699.292
16.5391
682.753
406.404
-90.6643
-315.74
-253.475
253.475
78.2605
-760.428
682.167
-663.753
68.819
-947.218
848.229
98.989
-314.838
-60.4852
-51.2162
225.774
-174.558
521.882
-129.476
-392.405
-644.515
-43.281
652.436
-69.7935
99.1266
80.9226
-180.049
-355.769
92.0849
263.684
-309.039
58.2823
846.344
-621.366
570.389
-598.475
28.0854
225.055
-95.2452
-129.81
-367.685
142.582
225.103
-23.3498
252.732
-229.382
-846.729
847.478
-0.748882
-31.353
-159.257
190.61
280.01
-0.124547
-279.886
-711.447
12.1552
-265.562
282.972
-17.4096
778.733
20.767
428.964
-635.569
206.605
202.965
-215.925
-758.435
821.927
-63.4928
651.588
-715.601
64.0134
74.6653
577.77
943.841
-846.976
-96.865
-214.72
239.118
-24.3981
197.715
46.603
351.836
123.417
-475.253
1009.09
-256.885
-752.209
18.3005
563.798
-582.098
-12.7465
-587.43
600.176
539.759
-231.348
115.268
424.584
-539.851
-303.092
407.455
-104.362
76.7387
-814.826
738.087
-698.98
455.277
-23.8984
-198.398
222.297
21.2916
-855.899
834.607
-312.062
330.346
-18.2844
-33.2488
294.781
24.0595
-890.85
866.79
-366.851
345.71
21.1408
-88.6459
-324.543
13.3395
-287.75
274.411
704.219
-786.765
82.5462
726.131
-860.282
134.15
-151.758
339.794
192.253
110.974
200.651
-204.658
4.00632
288.675
-317.488
28.813
-130.238
559.202
626.852
326.672
144.011
85.2962
-229.307
276.266
-315.607
39.3408
196.884
-236.619
39.7346
-21.4981
301.508
-353.156
-13.6955
1.6144
-186.909
185.294
222.632
-61.2949
-161.337
181.124
827.971
-198.074
-739.276
937.349
-101.137
-397.219
522.83
15.1066
228.446
-224.137
-4.30828
262.827
-203.182
-59.645
20.167
-239.132
218.965
-395.678
634.762
-239.085
50.524
509.442
-559.966
984.095
-886.521
-97.5743
790.899
-787.088
-3.81122
-575.745
-235.175
810.921
-145.855
722.093
-576.238
454.791
-443.517
-11.2734
-228.753
10.2803
218.473
31.1058
-762.709
731.604
-176.687
-203.156
-246.869
233.112
13.7575
241.14
-15.5751
23.6464
1020.87
-572.446
-448.425
735.195
-933.268
-399.162
96.0698
14.4906
208.142
16.4964
-778.258
761.762
-90.3793
-856.839
417.123
-452.018
34.8946
-106.7
832.832
53.8385
-736.459
682.62
-213.406
-15.3472
276.266
7.28964
241.499
-248.789
-432.509
432.509
82.674
679.71
-762.384
-314.248
48.6864
-579.55
597.851
335.377
-302.456
-32.9207
-777.831
-63.2693
841.101
-147.743
448.368
-300.625
441.882
79.9998
429.086
-442.583
13.4974
248.554
-51.6698
-202.207
-334.829
537.035
500.969
-381.248
-119.721
-328.19
18.2229
309.967
785.579
-81.3607
-520.233
-79.9549
600.188
-661.066
661.066
-128.212
502.984
-374.772
95.6882
-340.772
245.084
-919.289
343.544
306.555
-357.942
51.3877
436.691
18.0991
809.946
-488.942
-321.004
919.877
-71.7475
-848.13
76.7165
148.339
-847.301
614.342
232.958
-27.9611
267.654
-239.693
-209.345
221.489
-12.1443
-43.5847
-488.479
875.126
-890.21
15.0835
-69.395
429.548
-12.4244
788.457
-792.466
4.00873
244.309
-15.8631
21.9917
-236.712
822.128
-963.815
141.687
252.793
-340.373
87.5797
570.618
-570.618
899.941
-93.235
-806.706
594.219
73.0836
-667.303
57.9555
-327.958
270.003
-206.55
283.906
-77.3555
-473.822
326.079
53.275
735.182
-392.97
529.467
254.693
-177.976
-684.033
-176.249
484.629
-630.484
453.499
-501.067
47.568
-899.251
1034.36
-135.112
-580.152
555.626
24.5262
506.122
-582.149
76.0275
129.27
734.837
-864.106
211.273
530.737
-742.011
723.346
505.132
322.173
740.249
324.309
-231.839
-92.4696
-295.003
295.003
370.961
-401.934
30.9732
-27.8004
1089.91
269.613
-323.233
53.62
530.417
-479.893
-297.429
-562.383
551.611
-565.431
13.8208
-29.2864
904.412
254.156
-282.117
-216.73
192.298
24.4323
498.941
-587.691
88.7495
-197.653
959.065
-761.412
588.703
-82.5807
771.83
-383.36
-388.471
338.803
-48.4975
471.993
548.878
-213.524
162.307
-743.847
59.8144
-935.972
36.7206
477.56
46.8861
-679.892
891.165
-696.935
-61.5
187.474
-201.326
13.8516
-74.0057
915.222
-841.217
-38.0543
-817.792
855.846
183.335
-181.721
44.072
164.632
-208.704
-8.70076
-365.915
374.616
323.353
-310.013
-607.732
212.054
-252.279
447.792
-195.513
908.556
-678.06
303.518
20.7911
286.162
17.5376
-303.699
-568.324
171.834
396.49
460.493
-31.4072
528.704
-730.91
-368.56
-12.9316
646.78
-746.155
99.3749
-218.049
151.635
66.4139
-656.191
638.952
17.2392
220.333
-213.044
73.8085
180.884
-743.301
825.975
-335.441
330.434
5.00663
68.019
-363.116
295.097
237.743
-203.741
-34.0017
526.378
-328.569
-197.808
8.7326
-346.562
337.829
-497.217
484.47
-85.3192
293.153
-207.834
-661.324
158.633
502.69
-347.209
-20.4766
653.776
6.04172
445.292
-21.34
-168.769
19.2369
149.532
-22.227
727.139
-704.912
-855.789
985.059
320.449
-150.241
-170.208
677.318
-775.104
97.7864
424.301
347.529
706.322
59.6494
-765.972
818.102
81.8386
554.614
-530.455
-24.1587
1093.72
-1012.32
-81.4065
4.25753
-295.319
291.061
297.924
-11.7621
89.9565
140.345
209.261
-8.60972
195.22
-199.188
3.96847
143.171
149.188
-292.359
-304.229
283.994
20.2354
-164.78
-295.733
460.513
419.863
-548.075
-319.458
196.306
-192.918
-3.38855
189.603
1009.07
-560.841
-448.234
525.837
-109.115
-416.722
143.325
508.263
79.4025
475.211
23.3151
-693.962
713.342
-19.38
45.3312
-547.14
501.809
-90.9887
-246.421
337.409
-448.653
39.0716
409.581
-140.438
-335.988
476.426
779.998
-1.26448
23.597
184.464
-377.262
192.798
158.168
-243.487
-920.792
849.422
71.3704
-295.615
305.656
-10.0413
671.274
-85.5215
-585.753
1047.01
-603.805
-443.205
194.592
-191.777
-2.8146
254.442
-113.369
-141.073
-421.32
418.096
3.2235
663.013
-31.3989
-631.614
-694.541
0.579075
374.834
31.5702
-572.298
454.016
118.282
583.646
-578.156
-5.49012
-855.761
44.3998
811.361
856.372
33.1976
-889.57
-424.519
284.081
-202.497
33.7284
-322.962
533.13
-210.169
-170.82
-45.9103
754.994
-793.048
-140.717
184.789
544.642
-175.85
-368.791
-123.524
-308.984
219.782
-220.72
0.938317
619.544
43.4692
683.418
-608.753
21.7119
-301.625
279.913
837.638
-876.442
38.8041
-317.225
14.7689
956.145
-959.297
3.15187
59.6186
214.653
-274.272
680.224
-33.4439
569.331
-592.534
23.2033
-828.156
849.447
190.995
-214.893
786.442
212.105
746.96
165.141
185.272
-350.414
-297.814
-7.51982
826.45
-75.2708
-751.179
596.758
-132.962
-463.796
246.066
-70.3731
82.9625
412.921
77.2507
-283.801
473.809
-503.861
30.0525
142.209
-348.564
206.355
137.639
388.739
60.9211
858.956
653.082
-773.241
120.159
-22.5799
978.725
-252.355
-37.362
289.717
-215.52
209.53
5.98956
4.90551
168.208
48.3476
452.622
334.997
-343.698
-359.415
26.6693
-339.183
42.4302
838.342
-58.3441
81.9861
-252.779
170.793
-958.21
22.2378
-921.877
-36.3323
-486.043
57.1944
428.849
-733.945
902.794
-168.849
-207.618
-51.7274
259.345
-122.94
-72.4751
195.415
-147.857
-52.4692
200.326
-142.893
230.033
-87.1398
853.461
415.308
-230.843
139.887
-12.3608
-567.791
-879.418
-41.374
443.151
153.607
194.409
-517.371
200.767
-1107.07
906.307
25.7153
202.91
-228.626
-8.6541
-200.691
418.562
26.73
89.1385
701.76
278.779
21.9201
-300.7
-471.435
586.702
728.793
72.8162
-801.609
-778.971
-7.79399
801.466
-855.51
54.0437
309.906
-266.172
-43.734
83.4919
236.957
850.811
-864.951
14.1401
978.828
-862.147
-116.681
939.179
-943.723
4.54382
-402.349
-169.949
-4.32256
-873.439
547.642
325.797
-183.206
161.5
21.7057
-244.367
387.538
140.383
91.6153
-231.999
754.703
269.577
-283.843
431.63
94.2075
783.123
-697.143
-85.9803
-52.5716
-110.784
-84.5413
195.325
-307.444
260.648
46.7965
862.595
-838.535
-21.5472
379.37
-357.822
-344.882
-8.27337
570.939
-583.442
12.5031
367.817
-327.269
-40.5481
-828.531
731.222
97.3087
-905.811
831.805
142.472
111.97
-406.057
276.698
129.359
467.855
-453.833
-14.0212
621.179
-622.642
1.46328
518.076
-44.2672
-328.532
-128.545
457.077
27.9049
-280.26
-70.8645
-246.881
317.745
544.287
563.931
-1108.22
-900.865
849.218
51.647
-1.78785
-404.827
418.69
-13.863
431.758
-399.648
-32.1095
672.479
-846.601
174.123
711.398
-882.208
170.81
-502.703
-158.621
-449.544
78.3903
371.154
304.759
-6.34283
-298.416
-325.292
177.435
475.108
81.7621
-719.71
-108.82
7.86343
187.356
-301.494
300.945
0.548839
51.886
-360.102
308.216
489.95
39.6881
-529.638
-232.324
300.704
-68.3803
-896.194
-19.6386
915.832
-187.976
-44.4685
232.445
6.32534
-847.135
840.81
804.707
-118.406
-686.3
330.696
142.07
-212.935
-874.875
-21.3185
808.623
40.7991
-4.59636
544.601
-192.765
-512.252
-13.0413
525.294
-801.991
913.794
-111.803
313.609
-245.59
-398.62
307.632
-30.0906
590.686
63.0892
383.577
-241.368
297.539
512.406
-13.8442
25.9569
341.861
-778.965
88.7386
690.227
456.55
95.0602
-123.466
-37.2955
160.761
-851.805
-23.0697
69.7211
332.044
-195.527
227.977
-32.4507
47.3181
-279.642
-266.278
287.211
-20.9333
-18.3519
27.0703
-512.765
485.695
-611.3
-134.855
-22.1881
301.735
-279.547
-330.93
454.347
599.386
447.625
-1102.78
430.489
672.29
329.27
0.316484
-329.586
-224.034
-175.835
399.869
-524.479
552.47
-661.224
-18.7316
679.955
99.1811
87.7127
-186.894
-44.2527
799.246
839.074
-862.607
23.5327
807.464
-154.382
37.6769
-602.843
-324.764
-21.7977
556.8
57.776
-614.576
439.043
21.4498
-349.158
392.446
-43.2878
-853.728
-3.76022
857.488
-27.8191
-823.986
310.799
-285.961
-24.8373
625.21
-4.03109
576.65
-413.224
-163.426
-213.212
277.348
-64.136
-82.6633
-276.752
-420.244
-43.8107
895.125
-183.727
-823.008
89.0621
-629.268
17.9686
-539.282
49.9289
489.353
820.549
-39.6263
-780.923
-262.704
119.81
0.793623
-356.108
355.315
860.387
-187.908
307.335
-2.57626
636.656
-67.3252
494.209
-4.25916
801.372
-712.233
-1045.14
-57.6419
444.819
23.0358
533.307
37.0824
728.699
-697.593
796.196
-38.5548
-757.641
193.267
-224.62
274.785
-14.1369
-118.004
219.488
-199.321
474.934
15.5041
-490.438
576.119
-97.1081
-479.011
-459.131
421.791
37.3403
128.871
672.501
4.52933
-98.4244
-758.843
857.267
73.5035
-669.005
595.501
226.175
-303.508
77.333
-743.884
645.459
91.738
712.969
-504.409
1048.7
248.179
-166.193
-283.555
-179.739
246.388
-66.6491
207.199
-261.844
54.6454
-179.76
320.143
-8.98551
-335.897
-51.1047
5.32616
-410.548
405.222
-47.5346
-161.816
-194.969
-29.5899
367.198
-337.608
-870.854
944.464
-73.6096
45.4929
-528.071
482.578
37.5422
-253.062
-755.803
106.131
649.673
354.018
-229.298
819.406
1.14269
-6.40804
226.882
-220.474
438.891
137.759
-119.784
-329.76
816.026
-201.683
-95.2142
-914.105
612.012
-338.139
131.418
48.782
653.442
-575.182
495.149
-15.5757
342.031
-35.4767
338.913
-421.304
82.3916
197.952
-251.911
53.9585
48.3316
248.883
-297.215
335.853
-500.633
-4.47419
761.956
-806.209
537.628
-62.6937
-106.351
737.889
-631.538
-269.134
303.577
-34.4431
-68.8976
295.072
204.19
-189.699
-281.186
12.0526
-1060.84
588.605
472.233
-35.8646
-76.6743
175.801
-309.289
294.765
14.5246
-676.016
692.512
268.177
-273.016
4.83898
-477.91
182.177
-504.092
-556.746
239.366
-278.261
847.162
-946.593
99.4309
-343.573
18.8091
486.609
-626.666
140.057
-2.53385
811.157
234.537
-269.469
34.9319
-324.256
-549.183
-37.3677
293.423
-25.2458
348.363
-114.155
-234.207
-20.1788
-843.588
863.766
-877.128
484.956
392.172
-55.9568
735.667
-458.401
38.1578
-140.523
-134.382
274.905
875.473
-823.843
-51.6304
392.439
-322.718
797.123
4.34296
106.118
84.7067
-190.824
-580.553
1024.4
-443.845
145.246
-193.707
48.4614
-758.988
-144.982
903.97
130.019
218.343
853.509
-31.3805
813.471
-736.732
502.786
-419.824
5.04497
-253.668
53.3487
146.46
-199.809
306.674
237.926
-23.2667
-1098.2
619.196
479.003
8.22762
891.703
-60.5432
-831.16
-430.564
622.699
-192.135
57.1422
756.329
23.1037
-535.356
-590.518
-18.2705
608.789
421.874
142.705
-564.579
-264.74
-522.348
278.775
63.2562
-177.74
-75.7348
-406.206
352.67
53.5363
-791.632
302.69
200.759
-261.858
61.0988
219.817
-252.37
32.5535
429.826
-424.5
728.459
52.3683
-780.827
-202.573
43.3159
822.758
20.7293
-843.487
-361.38
20.4909
340.889
118.64
860.188
-409.107
452.343
411.33
-72.4178
-954.518
99.7136
854.804
789.111
102.592
-45.1064
243.059
50.4481
381.309
900.636
133.728
26.2949
-484.696
28.7355
-826.963
798.227
698.486
-767.648
69.162
636.325
465.959
769.009
-56.0318
-712.977
194.871
-49.6248
76.3022
339.368
-415.67
-735.251
792.394
271.867
168.648
-268.724
168.124
100.6
-111.202
-426.815
538.016
-31.978
-214.891
1004.42
-573.927
78.4779
-286.096
213.366
-219.774
-103.6
-154.992
30.6858
820.125
-166.717
502.571
-602.584
757.557
-154.973
685.723
-707.95
-394.667
381.626
-442.765
-179.877
39.4456
348.708
-12.7586
-335.949
-46.2908
808.247
-505.249
-623.367
1128.62
287.698
-237.41
214.06
7.37006
196.82
-245.073
126.678
-885.319
908.982
-23.6634
-273.368
254.692
18.6768
73.7047
709.418
3.36343
765.646
635.547
-16.0027
-15.0538
-511.98
471.3
40.6793
933.086
17.1522
-950.238
-313.448
-47.9314
-0.249551
-234.25
798.276
-69.8173
529.015
-623.108
94.0931
-762.021
-84.7088
40.6954
269.211
890.01
10.6259
-490.656
440.755
49.9011
-950.457
-94.6796
39.7456
-386.775
347.029
-193.761
223.429
-29.6682
247.353
-40.1539
-39.6763
1050.3
-313.218
-737.077
579.581
-50.5661
54.793
-263.282
-64.6766
-693.007
780.276
-87.2689
-72.4985
-12.7431
232.56
504.722
-5.78083
92.7887
-870.62
-91.0242
212.087
-121.063
-195.4
214.991
-19.5908
-681.789
570.588
-451.899
478.97
342.801
49.6374
-460.369
424.725
35.6443
580.945
428.129
498.377
-459.903
-38.4748
483.615
-310.218
-173.397
-204.229
30.5125
350.262
-21.3245
-328.937
-249.357
69.618
-319.844
286.595
-219.041
-636.72
-691.582
-81.659
259.446
-58.6867
663.306
197.081
6.98072
226.131
816.494
-84.5533
-731.94
328.715
-142.07
646.979
-504.909
242.6
-294.328
-94.1945
516.069
-750.905
7.60343
-114.074
-103.975
500.007
-96.2623
785.625
-689.362
-197.205
220.921
-23.7155
-32.3135
-241.055
829.589
-737.85
221.497
-428.061
-408.465
836.525
863.273
-199.968
-44.0008
790.978
-746.977
597.359
-6.67292
17.7001
-608.219
279.936
140.347
-420.283
-404.037
480.339
-22.6831
-317.036
339.719
-616.867
65.6422
551.225
-141.981
519.247
-377.267
-480.533
409.252
-482.957
73.7052
105.056
-177.323
72.2671
-176.555
341.696
-177.317
-191.243
731.096
-32.6101
102.273
581.145
-611.024
648.845
-37.8208
269.181
-291.369
-810.583
-52.0247
97.0381
-433.026
590.119
460.177
-615.777
173.011
418.924
-846.985
387.978
-681.878
28.6506
653.227
-197.191
251.598
-54.4075
-816.298
886.701
-70.4027
-48.2066
-432.164
480.37
1005.36
-405.623
-599.738
-68.6049
-786.905
10.2482
300.55
-950.462
207.426
743.036
-857.703
-92.7585
-172.354
-10.8525
-777.769
731.478
-133.115
-297.412
430.527
-14.0966
-267.015
281.111
160.31
647.154
243.588
151.639
-395.227
-902.867
154.573
748.294
541.161
-580.929
39.7676
604.536
58.5928
-663.129
-44.5814
673.775
-639.879
-33.8952
352.974
-23.7044
-26.551
226.04
-199.489
608.402
65.3725
13.7132
-792.684
721.537
-777.569
-174.111
227.459
324.881
158.733
145.03
-322.347
203.187
-207.021
3.83401
341.053
-199.216
-141.836
592.137
43.4094
-747.878
801.138
-53.2593
-411.83
-95.6104
507.441
-12.1253
-289.369
251.195
64.1075
-315.302
248.99
-99.459
-149.531
418.287
-466.494
-61.7146
-740.276
-410.784
96.26
141.483
512.507
-442.84
-69.6673
-229.566
255.282
-202.008
194.344
7.66442
26.5441
-227.868
201.324
-322.321
379.091
-56.7693
213.156
-12.0523
-201.103
450.451
554.91
-260.977
555.493
-473.816
140.446
-226.504
86.0581
-200.106
-13.5061
213.612
701.273
-96.737
242.16
-168.352
-357.376
275.539
81.8369
-423.227
-23.1583
446.385
-351.993
449.031
310.615
-323.343
12.7275
-16.4522
31.6467
471.14
462.746
35.6314
41.2201
-464.447
192.784
-0.485717
-337.814
-5.75874
-369.657
297.58
72.0771
341.848
-63.0726
674.01
221.115
-229.966
256.51
-288.344
306.567
105.897
654.906
-760.803
-736.842
-25.6034
762.446
31.6457
166.042
16.7756
-339.097
-690.672
621.096
69.5766
119.26
-178.128
167.857
10.2707
429.288
-149.352
-240.915
-180.074
420.99
-164.87
-347.11
220.2
-17.0138
-263.981
123.458
92.9597
-183.984
-1009.54
696.317
-347.664
347.664
851.468
242.254
-35.2455
-509.093
-500.442
209.645
326.529
528.071
42.547
545.408
-51.1991
278.509
-250.577
-27.9324
-629.383
662.253
-32.87
-50.296
-532.379
-47.1712
-634.703
719.387
-84.6839
84.1468
-493.301
-353.018
539.413
5.99548
529.468
25.0888
-554.557
747.889
-647.232
7.35219
-108.432
-70.5707
179.002
-411.709
91.8655
311.691
-33.0381
-278.653
-151.784
-50.713
-301.665
289.049
12.6156
-292.525
79.3125
869.674
-195.664
-335.19
47.4399
768.304
-1.58997
-766.714
584.168
-658.985
74.8168
-922.859
830.378
92.4804
-23.3352
-637.888
110.133
297.322
-23.0807
-261.084
284.164
-789.262
28.8342
-203.388
-290.276
267.195
-466.096
511.589
-246.092
274.817
-28.7259
-302.469
300.107
2.36258
-811.339
704.987
995.977
-148.815
-171.236
313.411
-253.793
360.531
-175.258
421.701
-313.749
-107.952
287.16
54.6877
812.727
-88.766
-723.961
184.348
-681.564
-755.998
672.997
83.0008
5.67002
-617.26
624.346
-7.08664
64.0126
178.148
-99.4556
519.318
-266.952
294.07
-27.1184
379.091
-458.232
79.1409
-608.617
649.188
-40.5716
585.748
44.217
-629.965
244.911
-220.596
-24.3158
556.533
-24.5482
-531.985
227.86
-117.071
-110.788
-123.079
-48.3058
171.385
956.226
-947.083
-9.14312
-575.495
-388.32
-46.1905
-757.064
803.255
-897.637
834.368
-592.105
365.741
226.363
605.077
-623.348
-14.0679
674.024
-659.956
27.384
140.449
-167.833
-70.5373
-289.565
-855.98
-66.8785
15.4623
365.99
334.07
-739.693
200.438
-7.65448
-228.478
228.478
406.385
-135.244
-271.141
-911.283
25.9642
-3.07086
-25.7299
-478.069
503.799
-753.751
-80.6237
486.98
-406.356
-252.396
-408.67
432.169
-10.3781
-55.2652
258.175
155.263
185.79
-544.113
397.369
-164.901
408.488
339.285
-52.1246
762.834
-708.996
-284.086
-7.21642
270.595
-946.896
-3.56109
5.61242
927.473
532.868
-448.721
-839.571
574.54
265.031
4.5485
258.984
-263.532
350.239
-7.60176
-342.637
-461.852
31.2883
-835.136
748.86
86.2756
-127.691
-185.758
194.12
47.7767
-241.897
212.962
126.323
-800.99
17.774
-589.325
327.95
261.374
37.6059
251.069
361.791
-325.081
-36.7097
-390.16
403.847
-13.687
847.413
-513.343
-454.98
312.909
-322.157
191.358
130.799
423.378
-720.807
568.384
-27.2234
811.245
-807.881
79.9623
147.898
-829.179
812.232
16.9472
-794.747
46.8686
-472.163
-527.847
1042.65
-186.28
931.095
-835.182
-95.913
-521.122
-463.313
984.435
-48.5272
-255.702
51.9049
225.64
-232.485
6.84479
-22.0214
-56.0667
733.385
469.025
-34.4344
-434.591
-366.161
-202.163
20.774
-84.2898
-256.083
-158.821
427.504
-268.683
-925.62
925.62
92.794
-806.339
485.335
-510.78
69.1628
441.617
-211.534
-194.523
174.392
-166.193
-377.92
-554.852
388.659
602.207
57.5257
191.465
420.367
-929.986
509.619
-31.4117
310.191
-223.437
-262.606
-215.306
421.036
-96.155
-181.167
-140.99
-65.4842
-835.381
452.475
-518.068
65.5932
17.399
-696.512
778.401
-81.8893
415.748
-420.653
4.90498
246.476
-567.672
529.718
37.9542
99.0811
118.827
-217.908
194.303
-220.854
378.938
-708.785
329.847
110.539
758.333
165.634
240.75
-68.6342
-492.225
466.495
292.584
-306.999
14.4148
416.47
-37.3788
353.896
-383.486
-22.2701
-367.553
389.823
-40.8456
-276.642
323.721
16.7841
-340.505
-429.777
270.957
-388.185
39.9287
631.124
-749.53
-409.921
531.941
-313.12
-91.7072
976.646
-866.108
-492.748
-312.3
805.047
293.436
38.3394
290.326
-328.665
-456.761
145.1
-272.791
-51.7632
450.979
-563.868
112.889
47.423
613.643
-186.978
78.5467
331.923
-294.317
708.745
-329.806
269.726
-177.642
23.9348
364.779
-388.714
-28.2592
-295.651
-5.9748
-255.743
250.915
4.82821
1.43063
557.029
-533.925
41.9129
-891.589
113.33
799.458
-2.33502
329.457
-116.496
525.49
328.704
-854.195
598.395
239.946
671.644
-767.906
-750.91
105.366
645.544
283.881
64.1131
-347.994
186.524
-179.337
-7.18645
27.8715
274.558
572.92
-197.526
38.4043
159.122
-156.818
-606.957
763.775
-339.091
361.594
-22.5034
-256.023
291.008
-34.9851
-148.29
-174.943
-255.328
211.377
43.9516
920.094
-920.094
-87.2903
727.041
-639.751
294.065
-210.574
344.847
-68.1494
-657.891
189.866
27.6949
-217.561
37.3154
-584.702
547.386
41.6756
-242.526
200.85
908.327
-914.018
5.69102
301.07
-674.538
373.468
346.739
-306.994
51.6172
310.174
-350.745
876.235
557.027
-106.048
-72.7432
-242.864
-400.044
322.136
77.9087
220.953
-345.564
332.333
-500.101
167.768
-251.157
53.9662
-873.297
-73.599
33.629
-730.141
320.299
-177.717
796.381
-773.245
-23.1353
431.037
52.6357
-483.673
-685.561
610.657
74.9041
-251.695
210.194
41.5015
320.525
-27.9406
-426.103
-254.853
878.83
-834.843
-43.9869
-357.646
658.717
126.149
-537.98
-864.796
11.0678
-55.4258
-601.887
657.313
44.4388
-137.893
-130.831
-917.712
412.398
505.314
191.554
2.78909
449.861
-34.1128
543.447
281.308
-272.572
-8.73563
-334.414
-6.00903
340.423
-552.519
446.962
1.5246
-205.836
204.311
231.29
-41.4247
-97.9949
361.421
-263.426
-355.27
6.11148
434.723
-9.99849
58.8033
-809.552
750.748
-664.284
664.284
55.6723
186.928
-90.3904
-505.681
596.071
-854.481
938.11
-83.6282
741.128
55.2522
-14.1339
-834.543
848.677
324.077
-341.402
17.3248
324.991
14.2056
-339.197
584.408
-636.874
52.4665
44.7569
316.659
-361.416
-213.529
-121.963
335.491
195.581
-9.05759
106.801
-710.659
603.858
-760.018
267.27
350.067
-311.727
793.735
59.7739
-77.3602
-433.42
342.046
-390.486
-681.377
101.857
579.521
323.248
-285.554
-37.6935
-531.069
615.113
-84.0433
-81.8741
-362.889
444.763
408.238
-382.281
-591.132
-326.581
602.468
-725.555
123.087
-407.721
-431.85
837.86
-39.7338
-645.827
117.892
462.418
-580.31
563.559
-644.772
81.2126
42.299
-245.481
11.11
-692.988
-320.651
321.445
2.31468
570.524
-692.713
122.189
-344.497
-430.607
-1.52403
-684.987
698.066
-13.0786
763.068
-164.673
645.517
-102.86
-542.657
219.447
293.06
289.227
-297.117
7.88949
807.724
-935.875
128.151
-652.797
-98.1129
-294.543
27.591
-324.951
79.4014
245.55
-56.2654
640.673
92.5133
-258
165.486
357.635
-335.639
-21.9955
-344.526
-244.799
-16.0403
203.514
-28.8008
-172.525
229.145
140.004
-369.149
-271.548
319.454
-47.9057
589.129
-679.519
23.5179
288.173
-268.32
-56.6313
-293.298
-298.807
-711.328
540.709
170.618
-111.448
-151.624
-161.654
66.4092
-578.153
536.355
41.7985
576.954
-1098.08
-24.7299
-1014.14
-140.803
368.527
52.5093
-22.5274
-51.3868
-759.02
127.482
852.757
-846.431
617.384
-76.6746
1.85999
589.237
-591.097
-283.843
-164.413
448.256
-47.0043
-204.691
7.86712
195.678
-210.854
15.1762
-993.497
230.788
448.633
-116.3
19.6595
-627.96
608.301
298.49
-364.881
27.3957
337.485
61.3021
573.477
-634.779
-102.767
771.741
-668.974
-669.489
-195.462
-729.345
38.5359
690.809
-31.5222
570.386
-538.863
924.307
-915.792
-8.51495
564.094
-619.52
-611.186
-23.6221
634.808
-395.668
124.12
280.158
-277.939
-2.21944
801.383
-772.647
-95.9852
730.848
-634.863
459.145
12.155
-433.867
-669.83
604.138
65.6926
399.241
-92.1864
-564.005
-57.7905
-11.0878
-399.46
-30.154
217.171
-187.017
22.6677
327.399
-360.279
364.211
-3.93118
746.583
-792.773
119.8
139.545
213.446
-225.223
11.777
684.154
-775.275
91.1209
-321.383
-682.447
-10.5597
795.154
74.5209
290.948
120.382
811.772
-16.6182
-33.3441
-1029.44
173.537
3.93904
20.4114
-567.552
157.621
-130.237
-1083.1
-241.221
242.746
71.5667
222.499
-107.629
-467.118
574.747
-2.4629
-477.485
479.948
838.923
-31.199
570.06
75.4573
-45.4984
-203.422
248.92
744.135
-788.135
-153.685
382.83
-405.886
444.581
-38.6952
-679.291
723.157
-43.8653
289.5
-357.097
16.325
392.727
-139.333
-253.394
175.816
-511.506
466.059
45.4469
4.64591
-461.06
462.135
-1.07524
613.733
-596.033
35.7434
-163.862
594.899
-294.122
57.4736
440.882
41.2054
607.566
-648.771
-77.7977
-145.073
199.514
10.6795
31.6947
-390.775
25.8935
-413.658
7.77197
250.707
-252.731
2.02375
711.24
-682.589
-484.768
83.8566
400.912
-42.2589
626.427
-23.8536
-204.014
914.263
-141.766
-772.497
518.881
537.488
-1056.37
-293.964
-15.3422
290.572
4.19258
10.2698
273.724
-691.843
-3.43851
695.281
592.163
-748.981
-212.405
192.425
19.9806
-527.783
-20.7532
-648.252
7.34221
133.103
-137.217
-428.214
-104.954
197.468
17.7031
-636.507
618.804
-38.6711
-497.809
536.48
-264.428
309.185
-69.2895
626.09
-728.998
753.957
-24.9596
217.702
-482.442
251.789
-260.545
8.75573
12.3372
-838.654
27.3157
245.917
-459.446
911.366
-921.624
10.2582
636.977
13.5244
-650.502
-52.8058
-539.728
-807.252
840.45
121.504
-206.045
897.672
-78.2654
240.492
-14.8519
-60.4029
-715.996
776.398
-88.0715
-596.916
-23.7982
553.266
-674.7
21.9036
206.589
-234.073
27.484
-236.215
2.07546
234.139
-558.386
533.509
24.8773
-208.731
85.6519
58.768
89.1462
-147.914
-880.253
314.564
19.7348
-334.299
54.9537
637.891
-692.845
-340.16
368.233
-28.0731
-652.387
-22.3134
-664.05
769.947
-896.708
127.586
769.123
-145.554
-168.694
-445.078
63.83
-456.792
-615.542
270.898
-1.32076
-289.523
290.453
-0.92965
173.813
-74.7317
-422.477
393.624
28.8528
-954.887
972.039
-291.078
97.206
193.872
131.52
26.1012
523.313
859.068
-879.247
276.694
-39.7364
372.357
-514.338
-789.483
811.399
-21.9161
-347.873
-187.135
535.008
132.056
-173.184
41.1281
426.139
-525.595
748.308
-683.885
-64.4223
-260.352
-33.6122
334.893
-83.6981
315.244
-291.726
331.213
-652.037
-17.7935
5.55128
633.401
-369.076
139.779
20.6482
-891.503
548.336
-389.702
608.143
368.504
423.513
8.65601
744.652
-805.055
-39.9497
-12.1915
827.284
70.3877
421.104
-499.812
78.7072
237.945
-202.442
-35.503
-185.871
213.29
-27.4194
-9.34524
342.187
-332.842
-617.659
658.864
439.159
250.459
-217.175
-33.284
362.642
512.831
312.894
-334.219
711.447
101.28
78.8208
-602.058
523.237
639.752
-35.6142
41.1197
-930.501
113.99
816.512
213.569
-258.037
-250.856
-793.283
732.266
61.0167
5.2246
814.438
-819.663
929.174
-929.174
-377.875
17.5955
602.823
36.9285
-109.129
-27.4645
-190.14
217.605
437.539
27.7857
-465.325
-434.796
20.9189
413.877
187.024
972.169
-453.288
-227.966
39.1705
188.795
-627.278
630.777
-3.49854
432.284
-469.802
37.5182
-430.705
-4.09009
44.2608
-765.266
721.005
-636.534
-62.4463
-549.251
518.464
30.7871
-374.849
292.186
27.3514
-240.49
213.139
-163.55
-127.528
-28.6684
225.318
-25.8036
43.5476
299.461
-277.541
-71.5906
791.606
366.532
-51.968
-769.44
32.598
-890.025
814.431
75.5932
124.072
287.001
374.167
165.592
-755.475
858.835
329.541
190.422
-519.963
-163.953
594.446
-644.029
49.583
484.729
55.757
-540.486
640.574
-345.394
-295.18
-481.479
-116.996
-781.943
679.176
26.6758
-686.356
659.68
-711.299
108.505
602.794
-762.922
24.2405
37.5585
508.564
-87.4593
-521.036
354.318
557.675
-589.197
-35.3953
-66.8431
229.444
-162.601
54.3456
-689.049
-232.861
-233.037
166.194
-29.5981
270.146
-105.856
-164.29
165.191
-7.69014
-632.881
721.62
-35.1045
200.724
-165.619
869.866
-629.535
12.275
137.354
194.569
1.00338
397.518
-398.521
-221.982
-199.84
421.822
180.931
763.533
379.465
-355.53
-842.746
7.61061
626.402
-609.863
-0.843979
-813.183
814.027
589.542
16.0588
-605.601
846.584
46.3544
-892.938
309.848
-9.74097
123.535
-407.378
425.833
8.89004
-255.139
334.893
-79.7533
192.688
381.453
-90.5052
611.129
-55.0657
-556.063
-756.803
782.984
-26.1812
12.9248
650.415
-663.339
-646.02
114.95
-6.55183
-442.343
606.832
34.4296
323.205
-30.2785
188.459
-89.2781
-336.202
1.78811
95.9573
742.966
3.46944
-277.428
273.958
-422.365
-507.621
-57.4413
-757.758
815.199
268.057
-53.4032
189.704
-264.354
74.6495
194.665
-94.6509
-221.497
-516.876
-581.324
-792.037
-18.5451
-165.802
-815.755
776.444
39.3113
-34.4339
469.665
-435.231
59.7812
821.337
-881.118
196.644
-137.876
775.119
26.0186
-224.357
196.892
20.2363
-306.399
286.162
575.719
-573.859
-645.257
127.402
517.854
-565.611
587.325
-21.7135
31.1995
258.028
-665.225
-441.848
608.538
45.8066
-654.345
-721.936
606.755
-679.21
72.4547
-150.091
-47.4352
450.009
-484.297
-846.651
851.875
106.47
-307.848
-588.86
-642.389
593.263
49.1255
180.889
-75.8334
-43.5205
460.258
180.316
-571.676
58.9108
514.28
-527.093
12.8133
73.2105
-717.66
644.449
267.144
-16.437
-312.384
166.07
146.314
-569.726
594.815
-131.561
479.415
-347.854
681.413
-86.967
0.684324
-317.621
316.937
-446.943
-442.759
889.702
-142.488
249.84
-107.352
-102.098
-579.279
-574.898
423.365
151.533
404.115
-38.746
-365.369
5.31627