/*--------------------------------*- C++ -*----------------------------------*\
  =========                 |
  \\      /  F ield         | OpenFOAM: The Open Source CFD Toolbox
   \\    /   O peration     | Website:  https://openfoam.org
    \\  /    A nd           | Version:  7
     \\/     M anipulation  |
\*---------------------------------------------------------------------------*/
FoamFile
{
    version     2.0;
    format      ascii;
    class       surfaceScalarField;
    location    "34";
    object      phi;
}
// * * * * * * * * * * * * * * * * * * * * * * * * * * * * * * * * * * * * * //

dimensions      [0 3 -1 0 0 0 0];

internalField   nonuniform List<scalar> 
43924
(
-594.91
667.395
-72.4853
1064.06
-1072.3
8.23965
-334.856
382.052
-47.196
226.164
-258.743
32.5787
-498.421
498.421
220.254
-263.459
43.2053
-373.688
366.638
7.04987
27.4318
-564.525
537.094
663.812
-833.597
169.786
-1009.3
1102.27
-92.9673
556.157
-145.973
-410.183
-531.839
536.272
-4.43252
-687.823
582.658
105.165
-859.816
868.878
-9.0611
265.587
66.1788
-331.766
385.59
-10.3776
-375.213
814.55
-666.87
-147.68
-411.54
409.062
2.47805
161.082
314.791
-475.874
290.442
-356.967
66.5256
-594.031
81.6723
512.359
724.515
-60.7033
49.8439
-384.7
136.518
-489.423
352.905
231.173
-119.742
-111.431
1068
-3.93943
659.841
-680.982
21.1416
-282.454
4.19541
278.258
307.965
-42.3777
-442.184
543.827
-101.644
953.06
-248.321
-704.739
-674.599
762.663
-88.0635
243.657
-223.275
-20.3823
479.261
-70.893
-408.368
125.94
-408.394
266.025
-431.057
165.032
441.757
-588.922
147.165
291.397
-38.5198
-252.877
824.707
-979.334
154.627
1062.2
-237.492
-1018.17
1035.7
-17.5313
402.187
-91.659
-310.528
704.033
110.517
188.706
-308.974
120.268
1228.47
-777.703
-450.768
-591.18
148.997
538.183
-538.671
0.487999
230.498
645.531
-876.03
224.815
537.234
-762.049
-106.412
548.169
-377.787
174.222
203.564
-13.5029
-224.953
238.456
-667.948
-6.65099
239.268
-19.014
424.059
-38.4685
-283.309
-51.9159
335.225
524.558
-499.758
-24.8
-34.2794
-559.752
-463.789
42.7793
421.009
-297.099
-29.0365
326.135
799.508
17.5782
-817.086
-409.159
570.241
-15.0251
-246.558
261.583
-217.174
483.199
-330.867
439.849
-108.982
261.571
235.793
-497.364
496.075
-125.115
-370.96
428.667
-48.1431
-380.524
-448.436
-27.026
475.462
-986.685
-31.4866
1061.8
6.20183
306.873
275.503
-582.376
-243.396
547.019
-303.623
172.614
76.9381
-249.553
-431.78
381.587
50.1921
-379.632
382.214
-2.58173
301.753
-171.882
-129.87
-250.864
-60.7689
311.633
-699.299
16.5413
682.757
406.641
-91.3238
-315.318
-253.952
253.952
79.7657
-760.895
681.13
-663.388
68.4788
-947.219
848.226
98.9933
-314.221
-59.4671
-50.2226
223.71
-173.488
522.071
-131.08
-390.991
-644.535
-43.2881
652.459
-69.8016
99.8132
80.765
-180.578
-355.393
91.2906
264.102
-309.425
58.5612
846.19
-621.375
569.16
-597.193
28.0325
225.832
-95.7191
-130.113
-366.439
140.902
225.537
-22.4095
252.121
-229.711
-846.716
847.449
-0.733311
-30.6989
-159.884
190.583
278.118
1.14243
-279.26
-711.452
12.1537
-265.956
283.231
-17.2745
778.74
20.7679
428.463
-634.463
206
202.885
-216.388
-757.886
820.855
-62.9695
650.388
-715.913
65.5242
74.6745
577.785
943.843
-846.975
-96.8688
-215.585
238.752
-23.1669
198.15
45.5071
351.73
122.533
-474.263
1009.09
-256.884
-752.207
18.4485
563.719
-582.167
-12.8226
-587.38
600.203
539.681
-232.808
113.447
425.112
-538.559
-303.152
407.651
-104.499
76.7435
-814.825
738.082
-698.771
455.375
-24.2039
-196.842
221.045
21.0267
-855.794
834.767
-310.121
328.154
-18.0336
-33.8218
295.393
24.0729
-890.805
866.733
-364.775
343.699
21.0762
-88.6955
-322.844
12.4164
-286.86
274.444
704.02
-786.674
82.6543
726.145
-860.278
134.133
-150.625
339.33
190.341
111.412
199.96
-204.892
4.93196
286.914
-315.255
28.3406
-129.755
558.219
626.341
326.719
145.072
83.5168
-228.589
276.589
-315.989
39.3994
196.804
-235.063
38.2588
-22.6072
300.725
-351.045
-13.7301
1.57172
-187.37
185.798
223.277
-61.852
-161.425
181.123
827.968
-198.074
-739.277
937.351
-101.148
-397.273
522.806
15.377
227.704
-224.397
-3.30684
260.925
-202.728
-58.197
18.803
-237.319
218.516
-395.485
634.007
-238.522
51.0175
508.827
-559.844
984.083
-886.486
-97.597
790.911
-787.091
-3.82016
-575.321
-235.549
810.87
-145.911
722.098
-576.187
455.069
-443.588
-11.4813
-227.099
8.57659
218.522
31.0643
-762.594
731.53
-175.239
-202.547
-247.327
233.509
13.8181
241.171
-15.0073
24.6562
1020.88
-572.447
-448.431
735.196
-933.27
-399.4
96.2481
14.9835
208.294
16.4839
-778.246
761.763
-90.3839
-856.835
417.313
-452.143
34.8297
-106.682
832.827
54.0198
-736.4
682.38
-213.087
-14.012
276.589
5.94737
241.605
-247.553
-432.614
432.614
82.7458
679.597
-762.343
-314.594
48.6377
-579.469
597.917
333.201
-300.492
-32.7094
-777.834
-63.2709
841.105
-146.832
447.734
-300.902
440.778
81.2933
428.96
-442.74
13.7797
246.796
-49.9911
-203.726
-333.29
537.016
501.133
-381.326
-119.807
-328.285
17.9738
310.311
785.467
-81.4471
-520.405
-79.7283
600.133
-661.082
661.082
-127.665
502.656
-374.991
95.5584
-341.29
245.731
-919.316
343.995
306.675
-358.19
51.5155
436.73
18.3391
810.007
-489.326
-320.681
919.081
-70.6045
-848.477
77.1291
148.703
-847.254
614.289
232.964
-26.9037
266.244
-239.341
-210.036
221.386
-11.35
-43.2398
-488.6
875.056
-890.179
15.1222
-68.0144
429.635
-12.3223
788.328
-792.156
3.82794
244.413
-16.7096
20.9148
-236.5
822.133
-963.821
141.688
251.773
-340.736
88.9627
570.654
-570.654
899.941
-93.239
-806.702
594.245
73.0805
-667.325
57.2081
-327.574
270.366
-206.203
282.261
-76.0575
-473.181
326.35
53.4161
734.912
-393.011
529.529
255.565
-178.436
-684.013
-176.266
484.576
-630.486
453.551
-501.131
47.5794
-898.565
1033.46
-134.896
-580.293
555.661
24.6315
506.03
-582.21
76.1804
129.167
734.135
-863.302
211.288
530.72
-742.008
723.341
505.13
322.12
740.079
324.788
-231.958
-92.8308
-295.316
295.316
371.041
-402.03
30.9891
-27.8935
1089.69
269.789
-323.465
53.6758
530.29
-479.273
-297.429
-562.387
551.65
-565.534
13.8845
-29.3251
904.382
253.777
-280.681
-215.017
191.97
23.0463
498.979
-587.739
88.7601
-197.671
959.051
-761.38
588.726
-82.6959
771.749
-383.481
-388.268
338.971
-48.529
471.998
548.88
-211.638
161.415
-743.847
59.8348
-935.189
36.6237
477.616
46.942
-679.874
891.161
-696.017
-61.8683
188.06
-201.224
13.1638
-74.0072
915.206
-841.198
-38.051
-817.794
855.845
183.796
-182.225
42.3266
165.05
-207.376
-8.88215
-365.936
374.818
322.693
-310.277
-606.957
211.472
-250.259
447.067
-196.808
908.549
-678.051
303.53
21.2588
283.922
17.569
-301.491
-568.129
170.771
397.358
460.606
-31.6461
527.249
-730.975
-366.954
-12.6781
646.855
-746.152
99.2971
-219.147
152.109
67.0372
-656.219
638.964
17.2545
218.95
-213.003
74.2253
181.34
-743.173
825.919
-333.72
328.171
5.54914
68.0322
-363.257
295.224
237.367
-204.397
-32.9693
526.469
-328.623
-197.846
8.47516
-346.65
338.174
-497.271
484.449
-83.4944
291.59
-208.096
-661.103
158.258
502.845
-347.377
-19.0626
653.8
6.04081
445.438
-21.3788
-168.095
18.2642
149.83
-22.1
726.324
-704.224
-854.992
984.158
320.659
-149.97
-170.689
677.327
-775.117
97.7899
424.115
347.634
706.349
59.621
-765.97
818.099
81.8426
553.339
-529.533
-23.8057
1093.71
-1012.31
-81.4054
4.50508
-295.703
291.198
295.727
-11.8053
90.7462
140.427
209.592
-9.63187
195.042
-199.629
4.58642
143.695
148.922
-292.617
-304.546
284.267
20.2794
-163.949
-295.8
459.749
420.038
-547.703
-319.809
196.149
-193.467
-2.68215
190.519
1009.13
-561.114
-448.014
525.878
-109.126
-416.751
141.785
508.603
78.9439
474.395
23.0808
-693.28
713.014
-19.7341
45.7307
-547.346
501.615
-89.8975
-246.684
336.581
-448.791
39.1213
409.67
-140.474
-336.022
476.496
780.005
-1.26491
23.4227
184.16
-375.945
191.785
158.786
-242.281
-920.758
849.339
71.4187
-296.064
305.735
-9.67148
670.621
-85.0595
-585.562
1047.02
-603.808
-443.21
194.425
-192.285
-2.13954
255.344
-113.113
-142.231
-421.485
418.168
3.31628
663.13
-31.5095
-631.621
-694.244
0.963968
374.364
32.2772
-571.22
452.554
118.666
583.444
-578.193
-5.25132
-855.762
44.3968
811.365
856.37
33.1979
-889.568
-424.584
284.11
-202.557
34.4621
-322.696
532.057
-209.36
-170.821
-44.1957
754.995
-793.046
-141.537
183.864
543.122
-175.576
-367.547
-123.55
-309.064
220.383
-221.406
1.02269
619.538
43.5921
683.441
-608.767
21.312
-301.673
280.361
837.569
-876.411
38.842
-315.206
14.7137
955.758
-958.94
3.18205
57.9202
214.527
-272.447
680.231
-33.3761
569.016
-592.583
23.5672
-828.304
849.331
189.475
-213.679
786.412
212.121
746.93
163.587
186.496
-350.083
-298.185
-7.73638
825.725
-74.11
-751.615
596.652
-132.733
-463.919
244.825
-70.6027
83.4803
412.595
75.9197
-282.123
473.831
-503.888
30.0567
142.356
-348.728
206.372
137.667
388.801
59.6598
859.421
653.067
-773.254
120.187
-22.6313
978.39
-251.46
-36.1136
287.574
-216.192
209.356
6.83612
3.85
168.764
48.4173
452.716
335.051
-343.933
-359.026
28.1591
-338.697
41.5986
838.349
-58.3438
80.0629
-251.186
171.123
-957.509
22.3199
-921.125
-36.3838
-486.047
56.92
429.127
-733.384
902.17
-168.786
-206.732
-52.8751
259.608
-121.227
-73.0692
194.296
-148.921
-51.4872
200.409
-141.559
229.974
-88.4153
853.46
413.86
-229.699
139.698
-12.4481
-567.845
-879.334
-41.424
443.423
153.229
193.671
-516.368
200.758
-1107.05
906.291
26.5379
202.494
-229.032
-9.59067
-200.445
418.663
26.7743
89.1496
701.762
279.48
20.2388
-299.719
-471.8
585.247
728.778
72.8339
-801.612
-778.759
-7.91502
801.229
-855.377
54.1481
307.292
-264.361
-42.9314
83.1483
237.51
850.792
-864.956
14.1635
978.831
-862.15
-116.681
939.143
-943.694
4.55094
-400.784
-170.436
-4.66691
-873.376
547.865
325.511
-183.889
161.668
22.2216
-244.199
387.894
140.551
91.7053
-232.257
755.12
267.361
-282.386
431.659
94.2188
782.957
-696.81
-86.1468
-52.6092
-109.941
-85.5075
195.448
-307.857
260.646
47.2108
862.551
-838.478
-21.6284
379.53
-357.902
-343.001
-8.04363
570.745
-583.519
12.7744
368.106
-327.293
-40.8124
-828.512
731.212
97.2997
-905.796
831.788
142.458
112.886
-406.217
276.825
129.392
468.031
-453.912
-14.1192
621.233
-622.647
1.41366
518.102
-44.2708
-326.505
-129.946
456.45
26.7595
-278.22
-71.5673
-246.629
318.197
544.285
563.928
-1108.21
-900.865
849.215
51.6503
-2.12184
-404.942
418.842
-13.8996
431.882
-399.721
-32.1614
672.268
-846.123
173.855
711.309
-881.989
170.68
-502.874
-158.229
-447.557
78.1681
369.389
305.059
-6.40489
-298.654
-325.54
176.618
474.944
81.2125
-719.7
-108.812
7.25433
187.788
-301.965
300.847
1.11831
52.2488
-358.262
306.013
490.107
39.5793
-529.686
-231.812
300.75
-68.9376
-896.197
-19.6386
915.835
-189.211
-43.5037
232.715
6.39009
-846.671
840.281
804.705
-118.417
-686.288
331.351
141.736
-213.303
-874.879
-21.3181
808.589
40.7505
-5.20386
543.609
-191.878
-511.248
-13.15
524.398
-801.993
913.796
-111.803
313.725
-245.692
-397.845
307.948
-30.1277
590.706
63.0935
383.754
-241.398
298.022
511.984
-14.0726
26.2001
341.906
-778.675
88.2624
690.412
456.636
95.0138
-124.451
-36.2874
160.739
-851.809
-23.0702
70.2129
331.974
-196.401
227.914
-31.5135
47.9535
-279.766
-264.287
285.04
-20.7528
-18.4913
27.6314
-512.866
485.235
-611.229
-134.923
-22.5488
302.077
-279.528
-330.734
453.267
599.388
447.629
-1102.77
430.486
672.287
329.367
0.326469
-329.693
-225.617
-174.434
400.051
-524.513
551.945
-661.209
-18.6138
679.823
99.1622
88.3273
-187.49
-44.2496
799.244
839.003
-862.576
23.5736
807.476
-154.409
38.0891
-602.614
-325.123
-21.5262
556.807
57.7894
-614.596
439.362
21.2447
-349.268
392.696
-43.4274
-853.674
-3.76949
857.443
-27.8182
-823.99
308.89
-283.776
-25.1135
625.209
-3.97568
575.065
-411.947
-163.118
-214.149
277.202
-63.0532
-83.9648
-275.061
-420.449
-43.3399
894.912
-183.603
-822.421
89.0371
-629.282
18.0533
-539.496
50.2021
489.294
820.551
-39.6281
-780.922
-262.245
120.686
0.467482
-356.098
355.631
859.916
-187.648
307.559
-2.50047
636.632
-67.6162
494.204
-4.09702
801.382
-712.232
-1045.13
-57.6415
444.884
23.1473
532.199
36.9612
728.842
-697.777
796.131
-38.5314
-757.6
193.781
-224.48
275.087
-14.4412
-118.055
217.781
-198.978
474.947
15.5363
-490.483
576.193
-97.4683
-478.725
-459.279
421.868
37.4105
128.882
672.5
3.86383
-97.8253
-759.299
857.124
74.9393
-669.103
594.164
226.593
-303.832
77.2396
-743.508
645.683
91.748
712.957
-504.406
1048.69
246.475
-166.412
-281.472
-179.329
247.072
-67.7428
208.01
-261.786
53.7762
-179.938
320.489
-9.1743
-333.827
-51.1225
5.40719
-410.696
405.289
-47.5417
-161.907
-195.06
-29.8617
367.497
-337.635
-870.852
944.465
-73.6129
45.4972
-528.103
482.606
36.325
-252.517
-755.823
106.158
649.665
354.442
-228.502
819.405
1.14521
-5.56722
225.226
-219.658
437.629
137.436
-119.432
-328.125
815.979
-201.69
-95.2101
-914.091
612.419
-336.916
131.175
48.0126
653.66
-573.894
495.236
-15.9747
342.252
-35.5771
338.988
-421.394
82.4058
198.45
-250.911
52.4607
47.9303
249.369
-297.299
335.835
-499.784
-4.22643
761.957
-806.207
537.67
-62.7229
-106.124
737.657
-631.533
-269.267
303.854
-34.5874
-68.7532
295.346
204.809
-189.825
-281.477
12.2109
-1060.34
588.24
472.098
-35.8714
-76.5499
176.363
-309.503
294.951
14.5512
-676.021
692.505
268.325
-273.181
4.85653
-477.088
181.288
-503.753
-556.585
239.857
-278.377
847.167
-946.598
99.4313
-343.674
18.5509
486.325
-626.738
140.414
-2.49033
811.079
233.631
-267.288
33.657
-323.696
-549.679
-37.4089
293.591
-25.2664
346.892
-114.226
-232.666
-20.1988
-842.789
862.987
-877.017
484.85
392.166
-56.0364
735.633
-458.106
37.6575
-141.679
-132.712
274.391
875.509
-822.932
-52.5771
392.783
-322.57
797.01
4.21886
105.882
85.363
-191.245
-580.555
1024.4
-443.843
145.604
-194.161
48.5565
-758.977
-144.985
903.962
129.999
216.893
853.514
-31.3812
813.471
-736.727
503.005
-419.524
5.90059
-252.459
51.8509
147.213
-199.063
306.728
236.881
-23.6228
-1098.2
619.198
479.002
8.15087
891.695
-60.5439
-831.151
-430.582
622.804
-192.222
57.147
756.324
23.1271
-534.376
-590.525
-18.2883
608.813
420.012
143.585
-563.597
-264.732
-522.359
278.858
63.3941
-178.091
-75.8611
-406.298
352.742
53.5561
-791.537
302.211
200.933
-262.074
61.1416
220.267
-251.693
31.4264
429.973
-424.566
727.823
52.2642
-780.087
-202.77
42.8859
822.117
20.744
-842.861
-359.828
19.4822
340.345
118.64
860.191
-409.362
452.141
411.414
-72.4254
-954.496
99.7066
854.79
789.103
102.592
-43.5526
242.003
50.5079
381.374
899.767
133.694
26.7659
-484.872
28.7193
-826.914
798.194
698.038
-766.943
68.9047
636.314
465.954
769.013
-56.032
-712.981
195.307
-49.7025
76.3474
339.407
-415.754
-735.246
792.393
270.221
169.629
-269.659
168.113
101.546
-111.193
-426.829
538.022
-32.0577
-215.27
1004.41
-573.925
79.7858
-286.518
212.721
-218.288
-103.33
-155.413
30.6629
820.129
-165.909
501.744
-601.904
756.717
-154.813
685.016
-707.116
-393.942
380.792
-442.716
-179.931
39.479
348.731
-12.4491
-336.282
-46.2882
808.245
-505.246
-623.365
1128.61
287.787
-236.875
214.465
7.84635
196.963
-245.862
126.12
-885.304
908.966
-23.6617
-272.431
254.758
17.6731
73.8506
709.106
3.36327
765.65
635.644
-16.1064
-15.0699
-512.16
471.192
40.9675
933.079
17.1529
-950.232
-312.922
-46.9052
-0.303578
-234.392
797.526
-69.7029
529.018
-623.123
94.1046
-761.989
-84.7269
39.8962
267.396
889.226
10.5411
-490.741
440.823
49.9179
-950.453
-94.6792
41.1168
-386.549
345.432
-193.528
221.726
-28.1975
247.041
-39.0312
-39.7135
1050.3
-313.222
-737.079
579.594
-50.5756
53.2671
-263.626
-63.9476
-692.826
779.058
-86.2322
-73.7663
-11.4712
231.738
504.762
-5.78297
92.7906
-870.624
-91.66
212.573
-120.912
-194.788
215.292
-20.5044
-681.794
570.601
-451.35
478.982
342.689
50.0939
-460.495
424.792
35.7033
580.585
428.543
498.425
-459.935
-38.4897
482.188
-309.857
-172.331
-203.394
31.5116
350.422
-21.3965
-329.026
-249.986
70.6569
-320.814
286.992
-219.039
-636.723
-691.567
-81.686
259.651
-58.7181
662.792
197.124
6.97561
226.534
816.38
-84.6868
-731.693
328.794
-142.092
647.009
-504.916
241.96
-294.835
-95.3041
515.316
-750.861
7.68786
-114.956
-104.19
500.005
-95.9114
784.918
-689.007
-197.796
220.44
-22.6433
-31.2397
-241.192
829.586
-737.838
221.894
-428.053
-407.969
836.022
862.819
-200.027
-43.9907
790.139
-746.148
597.38
-6.67412
17.7204
-608.245
280.143
139.417
-419.56
-404.088
480.435
-22.432
-317.374
339.806
-616.951
65.7515
551.2
-142.527
518.174
-375.646
-480.255
409.435
-483.066
73.631
105.137
-177.929
72.7922
-177.656
341.243
-176.661
-190.293
730.396
-32.3581
102.284
581.158
-611.037
648.87
-37.8328
269.188
-291.737
-810.508
-52.0682
97.0718
-433.094
590.12
460.181
-615.782
173.066
418.484
-846.537
386.801
-681.888
28.6524
653.236
-197.668
250.759
-53.0918
-816.295
886.702
-70.4064
-48.2819
-432.187
480.469
1005.36
-405.619
-599.742
-68.7236
-786.653
10.5554
298.334
-950.465
207.424
743.041
-857.71
-92.7556
-172.654
-11.2359
-777.767
731.479
-132.767
-296.878
429.645
-14.8507
-266.689
281.539
160.335
647.141
241.62
152.247
-393.866
-902.868
154.576
748.292
541.177
-580.948
39.7707
604.541
58.5957
-663.137
-44.4767
673.816
-639.874
-33.9414
353.082
-23.7157
-25.1986
224.966
-199.768
608.39
65.4264
13.8267
-792.586
721.54
-777.572
-174.776
226.627
324.466
157.722
144.208
-320.869
203.469
-207.389
3.91955
341.413
-199.387
-142.026
592.125
43.5196
-747.727
801.072
-53.3455
-409.831
-97.0365
506.867
-12.7118
-289.254
251.3
62.3993
-313.7
249.546
-99.8202
-149.726
418.313
-466.595
-61.7155
-740.277
-410.862
95.135
142.232
511.086
-442.716
-68.3707
-229.281
255.819
-202.606
194.846
7.76049
25.0306
-226.956
201.926
-322.46
379.241
-56.7804
212.657
-11.0828
-201.575
450.447
554.913
-261.48
555.519
-473.847
140.558
-227.539
86.9802
-200.744
-12.6658
213.41
701.281
-96.7398
242.967
-168.742
-357.44
276.051
81.3892
-424.16
-21.6667
445.827
-352.026
449.098
311.155
-323.357
12.2022
-16.6899
32.1307
470.874
462.775
35.65
39.6919
-463.852
190.961
1.0094
-338.178
-5.49609
-369.941
297.531
72.41
342.041
-63.1828
673.778
221.135
-230.448
255.479
-288.701
306.675
104.52
655.502
-760.022
-736.704
-25.6821
762.387
31.4398
165.231
16.7769
-339.237
-690.688
621.108
69.5806
120.563
-177.341
168.285
9.05607
428.614
-148.47
-240.472
-179.091
419.562
-165.19
-346.97
220.57
-17.1009
-263.407
121.728
92.6159
-184.276
-1009.54
696.319
-347.788
347.788
851.463
242.252
-35.2572
-509.098
-500.443
209.842
326.43
528.103
42.5513
545.554
-51.3504
276.272
-248.842
-27.4304
-629.399
662.283
-32.8834
-50.29
-532.456
-47.013
-635.335
718.449
-83.1142
84.208
-493.367
-353.073
539.425
6.12873
529.309
23.8546
-553.164
747.656
-647.283
7.4087
-109.437
-69.6398
179.077
-412.16
91.346
312.032
-33.2436
-278.789
-152.404
-50.1528
-301.937
289.246
12.6911
-292.394
78.2453
869.48
-195.702
-334.841
47.981
768.163
-1.4971
-766.666
584.177
-659.009
74.8319
-922.854
830.374
92.48
-23.4476
-637.762
110.109
297.541
-23.2556
-261.205
284.46
-788.293
27.398
-203.61
-290.597
267.341
-466.123
511.62
-244.322
272.677
-28.3546
-302.904
300.006
2.89789
-811.014
704.89
995.982
-148.815
-170.36
311.237
-253.317
360.825
-174.329
419.955
-312.666
-107.289
287.398
54.6433
812.655
-89.5034
-723.151
184.306
-681.577
-755.313
672.201
83.1119
5.62166
-617.295
624.264
-6.96846
64.4076
178.56
-98.9718
519.009
-267.651
293.673
-26.0224
379.136
-458.284
79.1482
-608.636
649.214
-40.5778
585.695
44.2917
-629.987
244.316
-220.978
-23.3376
556.442
-24.3707
-532.071
228.867
-118.031
-110.836
-123.818
-48.4517
172.27
955.816
-946.705
-9.11143
-575.498
-388.323
-46.2653
-756.784
803.049
-897.641
834.371
-590.234
364.373
225.861
605.087
-623.375
-14.3521
673.663
-659.31
26.5044
141.287
-167.792
-70.7132
-287.549
-855.976
-66.8783
15.4621
366.125
334.076
-739.695
199.886
-8.92552
-228.87
228.87
406.938
-136.6
-270.338
-911.265
25.9613
-3.1245
-26.192
-477.605
503.797
-753.738
-80.6419
487.04
-406.398
-252.402
-408.681
432.302
-10.4336
-55.9526
258.446
155.469
185.944
-543.479
397.506
-165.865
407.484
339.462
-52.0645
762.738
-708.718
-284.196
-7.44773
270.681
-946.892
-3.5611
5.61123
927.468
532.939
-448.731
-838.67
574.192
264.478
3.61568
259.428
-263.044
350.233
-7.26452
-342.968
-461.944
31.3617
-835.046
748.772
86.274
-128.278
-184.645
194.511
46.3123
-240.823
212.994
126.468
-800.992
17.7767
-589.546
327.387
262.159
37.6748
249.239
362.014
-325.218
-36.7957
-388.869
401.853
-12.9837
847.415
-513.339
-455
312.908
-322.582
191.603
130.979
423.382
-720.811
568.403
-27.2252
811.248
-807.885
79.8833
148.984
-828.994
811.906
17.0885
-794.677
46.9505
-472.162
-527.846
1042.65
-186.28
931.096
-835.179
-95.9168
-521.121
-463.315
984.436
-48.5909
-255.955
52.6337
225.862
-232.952
7.09036
-22.0746
-56.0692
733.397
468.816
-34.0324
-434.784
-366.675
-201.454
19.9191
-85.5695
-255.167
-158.058
425.749
-267.692
-925.656
925.656
92.8506
-806.214
485.533
-510.839
69.1794
441.66
-211.632
-194.585
173.388
-165.468
-378.012
-554.208
388.74
602.188
57.8063
191.74
420.556
-929.954
509.398
-30.0453
309.525
-223.22
-262.827
-215.704
419.709
-95.2431
-181.412
-141.169
-65.4879
-835.377
452.496
-518.096
65.5993
17.3018
-695.773
777.529
-81.7566
415.76
-420.802
5.04182
246.725
-567.812
529.722
38.0897
100.215
118.313
-218.529
194.765
-219.963
378.938
-708.788
329.851
110.541
758.336
166.451
240.487
-68.6521
-492.253
466.061
292.718
-307.186
14.468
416.514
-37.3781
353.937
-383.798
-22.4485
-367.577
390.025
-40.3719
-274.883
322.747
15.6995
-338.447
-428.1
270.042
-388.385
40.204
631.113
-749.53
-409.988
532.055
-313.246
-91.6965
976.652
-866.111
-492.74
-312.303
805.043
293.657
38.7068
290.303
-329.01
-456.461
143.971
-272.249
-51.7895
451.052
-563.899
112.847
47.4252
613.657
-186.782
77.3451
329.949
-292.274
708.748
-329.811
269.48
-178.19
23.9882
364.818
-388.806
-28.3867
-296.101
-5.57221
-256.221
251.166
5.05485
1.25711
556.083
-532.956
40.9559
-891.587
113.341
799.236
-2.22614
329.622
-116.628
525.489
328.707
-854.196
598.4
239.949
671.292
-767.203
-749.806
105.045
644.76
281.938
63.8399
-345.778
186.968
-179.811
-7.15763
27.1698
274.536
572.913
-197.29
37.5916
159.698
-156.847
-606.935
763.782
-339.398
361.219
-21.8208
-255.191
291.55
-36.3595
-148.406
-175.059
-255.451
211.848
43.6031
920.091
-920.091
-87.3177
727.045
-639.727
294.198
-211.049
344.975
-68.1497
-657.841
190.095
27.8129
-217.908
39.0601
-585.117
546.057
40.1148
-241.251
201.136
908.291
-913.99
5.6987
301.03
-674.52
373.491
346.392
-305.276
51.7206
310.293
-350.748
876.237
557.053
-106.001
-72.8222
-243.166
-400.134
322.599
77.5351
220.526
-345.641
332.651
-500.094
167.442
-250.061
52.3932
-873.293
-73.5986
33.5276
-729.3
319.698
-178.796
796.381
-773.241
-23.1399
431.002
51.9343
-482.936
-685.582
610.669
74.9131
-250.001
209.842
40.1592
320.707
-27.9894
-426.118
-254.864
878.256
-834.366
-43.8898
-357.672
658.702
127.321
-537.152
-864.745
11.0719
-55.6931
-601.29
656.983
44.0095
-137.724
-131.935
-917.714
412.121
505.593
192.097
2.74874
449.991
-34.2317
543.445
279.635
-270.424
-9.21102
-334.557
-6.04135
340.598
-551.872
445.46
0.0832191
-204.592
204.509
231.623
-41.5276
-96.8902
359.698
-262.808
-355.516
6.24727
434.838
-10.0453
59.4746
-809.49
750.016
-664.294
664.294
54.6254
187.335
-89.9288
-505.571
595.499
-854.475
938.105
-83.6291
741.124
55.2569
-14.1382
-834.532
848.67
324.212
-341.566
17.3535
325.096
14.3535
-339.449
584.337
-636.887
52.55
45.1598
314.696
-359.856
-213.701
-120.716
334.417
196.068
-9.09988
106.625
-710.574
603.949
-760.012
267.273
350.439
-311.732
793.739
59.7752
-77.3756
-433.464
342.274
-390.417
-681.281
101.684
579.597
321.126
-284.076
-37.0497
-531.167
614.926
-83.7598
-81.9095
-362.921
444.831
408.527
-382.327
-591.59
-326.124
602.253
-725.431
123.178
-407.512
-431.158
837.857
-39.741
-645.841
119.515
461.032
-580.548
563.564
-644.788
81.224
40.8555
-243.583
11.1094
-692.998
-320.98
321.447
3.36233
570.541
-692.72
122.179
-344.504
-430.613
-2.05732
-684.885
698.09
-13.2048
763.074
-164.675
645.558
-102.892
-542.666
217.996
293.09
289.681
-297.337
7.65557
807.725
-935.88
128.155
-652.027
-97.7784
-293.753
26.1017
-325.462
80.5581
244.904
-56.3459
640.683
90.6892
-256.204
165.515
357.753
-335.736
-22.0168
-343.383
-246.163
-15.3549
203.415
-28.1033
-173.12
229.333
139.042
-368.375
-271.686
319.587
-47.9012
588.845
-678.773
23.7146
288.318
-267.588
-57.8743
-292.614
-297.62
-711.333
540.704
170.629
-111.379
-152.08
-162.218
66.4985
-578.272
536.379
41.8936
576.955
-1098.08
-24.8265
-1014.22
-140.792
367.941
51.7687
-22.6111
-51.3914
-758.814
127.281
852.281
-845.891
617.39
-76.6867
1.86026
589.243
-591.103
-283.255
-164.79
448.045
-45.5225
-204.479
7.42902
196.489
-210.911
14.4212
-993.656
231.062
448.58
-115.929
19.6702
-627.973
608.303
298.443
-364.908
27.0673
337.84
60.9459
573.453
-634.398
-102.934
771.565
-668.632
-669.471
-195.485
-728.56
38.5274
690.033
-32.3333
569.944
-537.611
923.882
-915.402
-8.48048
563.528
-619.221
-611.188
-23.6424
634.83
-395.847
124.161
278.579
-275.716
-2.86308
801.337
-772.618
-96.0176
730.862
-634.844
459.358
11.8345
-433.936
-669.857
604.14
65.7168
399.194
-92.2026
-564.016
-56.4002
-11.1671
-399.529
-28.6369
215.458
-186.821
23.03
327.409
-360.42
364.328
-3.90842
746.308
-792.573
120.84
138.768
213.78
-225.607
11.8271
684.152
-775.283
91.131
-321.364
-681.253
-11.5725
795.047
74.4326
291.001
120.413
811.588
-16.5404
-33.2672
-1029.5
173.705
3.94031
20.0803
-567.426
157.855
-131.35
-1083
-241.596
241.68
71.2398
222.958
-107.66
-467.125
574.785
-2.47459
-477.501
479.976
838.927
-31.202
570.071
75.4868
-43.8826
-203.823
247.706
743.352
-787.343
-152.744
382.076
-405.129
444.396
-39.267
-679.282
723.176
-43.8942
287.782
-357.757
16.4675
393.101
-140.747
-252.354
175.625
-511.563
466.1
45.4629
4.72716
-461.209
461.806
-0.597228
613.757
-596.037
34.9657
-163.111
594.113
-294.448
57.484
440.937
41.2982
607.482
-648.78
-78.8785
-144.396
197.821
12.0217
31.5847
-391.152
26.2446
-413.477
8.34786
250.918
-252.964
2.04519
711.251
-682.598
-484.925
83.9766
400.949
-42.2716
626.449
-22.4185
-204.538
914.263
-141.771
-772.492
518.881
537.486
-1056.37
-292.864
-16.1102
290.764
4.18706
10.2692
273.998
-691.408
-3.21328
694.622
592.144
-748.991
-211.954
192.963
18.9913
-526.709
-22.1136
-646.99
6.68696
133.871
-137.295
-428.239
-105.427
196.116
17.3355
-635.823
618.488
-38.7382
-497.796
536.534
-262.556
307.716
-69.3012
626.108
-728.646
753.818
-25.1727
217.711
-482.443
249.913
-260.265
10.3521
11.9114
-838.509
27.4945
244.455
-458.156
910.752
-920.91
10.1577
636.881
13.6341
-650.515
-53.1476
-539.436
-807.249
840.447
120.728
-206.236
897.673
-78.2679
240.937
-15.075
-60.3932
-715.988
776.381
-87.9329
-596.952
-22.5851
551.894
-673.664
21.6371
207.143
-233.657
26.5147
-236.617
2.24094
234.376
-558.511
533.512
24.9988
-209.725
85.9072
59.6964
88.5705
-148.267
-880.249
314.596
19.9186
-334.514
54.9617
637.888
-692.85
-340.48
367.729
-27.2488
-651.608
-22.0565
-664.64
769.16
-896.67
127.56
769.11
-145.814
-168.78
-445.235
63.909
-456.821
-615.478
269.485
-2.12385
-289.909
290.705
-0.79581
174.295
-74.0799
-422.636
393.713
28.9226
-954.879
972.032
-289.286
97.373
191.913
132.518
25.3363
523.046
858.273
-878.471
276.758
-39.2478
370.814
-513.342
-789.423
811.354
-21.9303
-347.577
-186.393
533.97
132.371
-173.792
41.4211
426.255
-525.227
747.463
-683.265
-64.1979
-260.271
-32.593
333.682
-82.3819
315.576
-291.861
331.505
-652.041
-17.8163
5.53885
633.426
-369.615
141.113
20.6516
-891.503
548.17
-389.913
608.145
368.507
423.587
8.71503
744.643
-805.036
-40.0419
-13.494
827.283
70.3901
421.122
-499.835
78.713
237.322
-200.623
-36.6984
-185.729
211.657
-25.9284
-9.95506
342.49
-332.535
-617.571
658.869
438.886
250.138
-217.759
-32.3789
363.398
512.111
312.975
-334.372
710.578
102.076
78.3741
-601.638
523.264
639.776
-35.6363
40.7178
-930.463
113.964
816.499
214.233
-257.736
-251.212
-793.291
732.265
61.0258
5.23588
814.372
-819.607
928.933
-928.933
-378.007
17.5871
602.825
36.9511
-109.139
-26.1755
-190.508
216.683
437.567
27.8071
-465.374
-435.01
21.1242
413.885
186.899
972.167
-453.286
-228.707
39.5083
189.199
-627.237
630.79
-3.55253
431.13
-469.951
38.8213
-430.737
-4.27232
44.979
-765.096
720.117
-636.589
-62.1821
-549.352
518.479
30.8738
-374.441
290.476
26.2191
-239.675
213.456
-161.833
-127.453
-28.7888
224.688
-26.8672
44.6364
298.187
-277.948
-71.6348
791.609
366.736
-52.1401
-769.374
32.6697
-890.025
814.427
75.5975
123.247
285.815
375.225
164.456
-755.144
858.781
329.796
189.66
-519.457
-164.3
594.451
-644.038
49.5866
483.712
55.523
-539.235
639.56
-344.659
-294.901
-480.501
-116.692
-781.742
678.808
26.9461
-686.023
659.077
-711.316
108.509
602.807
-763.272
23.8352
35.9973
508.586
-87.4639
-520.159
354.25
556.475
-588.808
-35.4035
-67.0809
230.169
-163.088
52.5575
-687.892
-233.259
-233.786
166.705
-29.8469
268.972
-106.224
-162.748
163.545
-7.85042
-633.242
721.505
-33.6453
199.315
-165.669
869.866
-629.442
12.1467
136.827
193.122
1.00483
397.545
-398.55
-222.165
-198.965
421.13
180.934
763.531
379.55
-355.562
-842.641
7.59495
626.408
-609.867
-0.782492
-812.494
813.276
589.547
16.0695
-605.617
846.065
46.2203
-892.285
310.236
-10.2295
123.969
-407.224
425.897
8.94005
-255.217
334.985
-79.7682
193.283
381.527
-90.5262
611.183
-55.1749
-556.008
-756.554
782.563
-26.0091
12.8898
649.558
-662.448
-645.897
114.731
-6.67806
-442.384
606.18
34.4586
323.295
-30.42
188.963
-89.8004
-336.383
1.82601
95.9606
742.966
3.57948
-277.604
274.025
-422.456
-507.498
-57.4448
-757.754
815.198
266.745
-52.2184
190.066
-263.661
73.595
195.251
-94.7413
-221.894
-516.877
-581.322
-792.009
-18.4987
-166.447
-815.758
776.447
39.3112
-34.4564
469.715
-435.259
59.7817
821.34
-881.122
197.215
-137.518
774.972
26.0999
-223.396
197.221
20.3165
-306.663
286.346
575.725
-573.865
-645.568
128.976
516.592
-564.272
587.581
-23.309
31.4909
258.19
-665.213
-441.836
608.542
45.8119
-654.354
-721.933
606.759
-679.214
72.4551
-150.787
-46.5027
450.037
-484.316
-846.581
851.816
106.266
-307.819
-588.852
-642.409
593.274
49.1354
181.424
-76.2866
-43.5873
459.791
179.769
-571.203
58.3372
514.269
-527.148
12.8797
73.1878
-717.664
644.477
267.378
-16.4598
-312.839
166.234
146.605
-569.584
593.438
-131.638
477.541
-345.903
681.422
-86.9704
0.824992
-317.819
316.994
-446.919
-442.761
889.68
-142.814
248.729
-105.916
-101.932
-579.349
-573.73
421.849
151.88
403.631
-38.0704
-365.56