/*--------------------------------*- C++ -*----------------------------------*\
  =========                 |
  \\      /  F ield         | OpenFOAM: The Open Source CFD Toolbox
   \\    /   O peration     | Website:  https://openfoam.org
    \\  /    A nd           | Version:  7
     \\/     M anipulation  |
\*---------------------------------------------------------------------------*/
FoamFile
{
    version     2.0;
    format      ascii;
    class       volScalarField;
    location    "10";
    object      p;
}
// * * * * * * * * * * * * * * * * * * * * * * * * * * * * * * * * * * * * * //

dimensions      [0 2 -2 0 0 0 0];

internalField   nonuniform List<scalar> 
20933
(
-0.0038056
-0.0268138
0.0330516
5.92042e-07
-0.00213931
-0.00289659
-0.0895328
0.76552
-0.0413751
0.750578
-0.0683989
0.599671
-0.0412749
-0.0036649
-0.0052739
-4.56409e-06
0.181486
0.485833
-0.0726153
-0.0254298
-0.0328498
0.612886
0.756472
-0.057891
0.0297886
1.13182
0.0090754
-0.0328315
-0.0485197
-0.0719887
-0.0017304
1.2787
0.752655
-0.0208981
-0.000511362
-0.00177072
0.830284
-4.79147e-05
0.0126906
0.43185
0.0571979
0.887205
0.956255
0.00791992
1.13109
-0.0663199
0.664037
0.382309
-0.000192328
-0.0492527
-0.000648777
0.136562
0.0513408
-0.000816945
0.0448384
-0.0646076
-0.0367245
-0.0020945
-0.00877293
0.194466
1.18269
-0.0505587
-0.013391
0.708569
-0.000467181
-0.00741072
1.10774
-0.0081587
0.110524
1.12045
0.0376611
0.130719
-0.00479217
-0.0340843
1.11148
0.0430858
1.11052
-0.0730756
0.425605
1.04702
-0.00624942
0.000916153
-0.0570701
-0.0371821
-0.050271
0.961573
-0.0346766
1.36825
0.70683
1.17277
0.628703
4.43453e-05
-8.9002e-05
1.33996
0.356748
-0.0124292
1.35084
-0.00187179
-0.053734
0.797415
1.18259
-0.0311258
1.2003
0.0827706
0.238142
0.0787116
1.05745
0.116416
-0.0362199
1.02234
-0.054517
-0.0928266
-0.0339261
0.0391105
0.0551309
-8.62156e-06
0.942624
-0.00560734
0.0511277
1.0347
3.3905e-05
-0.0258242
0.487452
-0.0138238
-0.0208001
0.490338
0.703968
-0.0318548
1.29187
0.959641
-0.0425758
-0.0483542
0.0572639
0.012403
1.06338
0.21709
0.453482
-0.0319456
-0.0245468
-0.0607529
-0.0333253
-0.0371415
0.0999443
1.21266
0.300974
1.07202
0.793311
-0.0390556
0.666023
0.0103144
-0.0389853
1.11119
-6.33124e-05
-0.0329593
0.000939057
0.805854
0.976076
-0.0626216
-0.0695726
-0.0438103
0.0316386
-0.0778856
-0.00201526
0.320145
0.354668
1.35948
-0.0293068
-0.0562719
0.0363607
0.818587
0.437698
1.13569
0.997739
-0.022655
1.41047
0.739327
-0.00357156
1.166
0.0661728
1.05
1.08796
-2.75827e-05
1.20905
0.98217
-0.0241009
-0.0753388
0.0395485
0.769464
0.0707625
1.28768
0.698273
0.198402
0.812898
0.123991
-0.0694386
0.545527
1.20515
0.304753
-0.0239618
1.29925
0.418653
0.0884734
0.0680435
1.26891
1.22737
-0.0492621
-0.0157582
0.13926
-0.0637289
-0.00173216
1.10109
1.15748
-0.0406766
-0.0638639
1.0379
1.11075
-0.00678468
1.03426
0.131353
0.0145794
-0.0218842
0.998004
1.24149
0.634219
1.01429
-0.0265397
-0.0125977
4.27237e-07
-0.00524458
-0.00165363
0.478203
0.0433955
1.0465
-0.057079
0.980972
-0.0319816
0.0792484
1.12849
1.36209
0.987455
1.10205
-0.0646896
0.873801
-0.0109408
0.259171
-0.00543731
0.0448606
0.197852
0.144077
-0.000161904
-0.0353495
1.25158
0.515171
0.0108019
-0.0570788
0.0448473
-0.083818
0.896752
-0.0567694
-0.0637585
-0.0358155
-0.018105
-0.000641011
-0.0318636
-0.0721171
1.21144
0.292698
-0.031228
0.990035
1.22286
-0.0342246
0.00023022
-0.0358756
1.10622
-0.00675101
1.17768
-2.19321e-05
-0.0638728
1.02354
1.08746
-0.000904143
-0.0339236
1.28076
0.12488
0.19111
1.19235
1.28139
-0.0374784
1.0349
0.350534
1.03896
0.906804
0.000240894
0.283705
0.833085
-0.00385668
-0.0682479
0.336027
-0.0807206
0.406553
0.253332
-2.33097e-05
-0.00138284
1.17528
-0.00271676
-0.0775106
-0.0449731
0.615439
-0.0459369
1.04904
0.372201
-0.0395715
-0.0757361
0.793693
0.564888
-3.56049e-05
1.16715
0.967647
1.15582
0.0661444
-0.000504933
1.27447
-0.00446995
-0.0287853
0.545335
0.31248
-0.0433319
0.102765
0.980606
1.33642
1.08721
0.432029
1.42071
6.52973e-06
-0.0205019
1.08881
-0.00806959
0.826349
-0.0312216
1.12152
0.340512
-0.000827618
0.330599
0.935921
-0.0258875
1.20669
0.960693
-0.000514226
0.0438818
0.739681
0.510792
-0.0057689
0.988103
-0.00469482
1.39363
-0.0357131
-0.040691
-0.0335133
1.08442
0.971723
-0.0511878
0.788144
1.17075
-0.00281424
0.884908
0.953618
1.41034
-0.00370673
0.628017
0.185136
-0.068804
-0.00024127
1.12067
0.893665
0.261127
1.14859
0.454879
-0.0381119
0.859841
0.360322
0.519929
1.39352
-0.0216984
0.503924
1.1532
-0.0588792
0.300431
-0.0492062
0.721382
-0.0441626
0.639428
0.272248
0.488779
-0.000152113
0.671764
1.14673
0.905526
-0.063726
-0.0160062
1.25841
1.26929
-0.00480708
-0.0609708
1.04207
-0.0738034
0.0646128
0.893982
-0.0351133
1.44666
0.00840529
0.666958
-0.0128465
1.15319
0.949202
0.151011
0.0657951
0.205449
0.427066
-0.00178505
1.03922
0.13608
0.724201
1.38262
0.0700157
0.0465968
-0.00217036
0.39824
0.283879
-0.0349993
0.916614
-0.000423081
-0.0454517
0.0134842
0.139899
-0.0293182
-0.000196203
-0.040457
0.528863
-0.0421317
0.0228802
-0.0519011
0.346318
0.266191
-0.0501963
-0.0722834
-0.000562043
0.111716
-0.0743913
0.0119356
0.00692304
0.567847
0.894676
0.338773
-0.000523979
1.30012
0.012175
-0.000503825
0.0525677
-0.056596
-0.0355418
1.21928
0.00552319
0.35742
-0.0607452
-0.0679391
0.877311
-0.0270394
-0.0473893
-0.0632348
-0.000237806
0.0959256
1.32072
-0.0751417
-0.0649774
0.910312
-0.0431121
0.900496
0.673762
-0.00507956
-0.00159917
0.970767
1.36705
-0.087722
0.768809
0.515786
-0.0544047
-0.0555162
1.04065
0.211867
-0.0482731
-0.0395542
-0.0517964
0.0942243
1.26087
0.434404
1.90403e-05
1.20312
0.0148637
-0.0371267
1.01143
0.0147937
-0.0134977
-0.000562267
0.148408
-0.0462743
-4.28469e-07
0.763201
0.00387759
1.04505
-0.000590466
-0.00103311
-0.0451369
-9.48349e-06
-0.0932041
-0.0347591
-0.00161837
-0.0276468
-0.0743887
0.995843
1.15572
-0.00429872
0.00231828
-0.0583323
1.16263
-0.00662293
1.16301
-0.0235721
1.3927
0.906743
0.637966
1.34126
0.156783
-0.0114617
0.183365
-0.00144001
1.14353
1.03369
-0.0375395
0.0557158
0.261078
0.0337098
-0.0103501
0.0339176
-5.50935e-06
1.00214
-0.0748548
-0.0396946
-0.0152747
-0.019249
0.66589
0.357142
-0.00580294
0.0113442
-5.18561e-05
1.39362
1.25004
-0.00542532
-0.0355434
0.033369
1.03107
-0.074953
0.520611
-0.0615095
1.09804
0.639232
-0.048232
1.43802
0.0820138
1.0777
-0.0122863
-0.0804407
1.20316
0.00136608
1.37633
1.01143
1.40759
-0.0108402
-0.0167473
-0.0221412
0.217221
0.0133219
-0.0146117
1.07872
1.10949
0.897715
1.1532
1.3624
0.754877
1.14707
0.904335
0.000764394
0.982798
-0.0477363
-0.0595826
-0.00146318
0.0262202
-0.0260987
0.774464
0.170849
1.04643
-0.0114482
0.309601
1.01338
2.60729e-06
0.0590588
-5.93505e-05
0.000121381
0.771287
-0.042631
-0.0515092
0.000140059
-0.00070849
0.24232
-0.000462687
0.347214
1.40171
0.787142
0.725082
-0.0434081
1.03832
0.416892
-0.00492029
-0.0350271
-0.00352821
-0.000584445
0.000366793
-0.0149177
-0.0681225
0.807448
0.205949
-0.0682207
-2.34693e-05
1.08426
0.212631
0.101971
0.00381336
0.463374
0.0184271
-0.0664932
1.01499
1.3104
0.974005
-0.0456707
0.98234
-0.0462648
-0.03659
0.811813
1.24205e-05
-0.0228733
0.641955
0.742607
-0.0468172
1.01904
1.23345
0.993766
-0.0589985
-0.0722665
0.0340296
0.372119
0.954161
-0.00500627
1.19605
-0.0294185
-0.0774391
0.198853
1.31223
0.814941
1.04368
-0.028719
1.372
-0.0441401
-0.0344395
1.42247
0.132643
-0.0525448
1.06526
1.09856
-0.0428512
0.94533
1.1635
1.09064
1.02841
1.07765
0.923683
-0.0172078
-0.0433031
0.000925424
-0.072553
1.1449
-0.0685105
0.582993
0.557613
-0.0536286
0.35581
0.646556
1.16353
0.351434
-0.00134193
0.103879
-0.0402227
0.129162
0.117448
-0.0748223
1.01901
1.1935
0.264215
1.15628
1.37377
-0.00463562
0.00265787
-0.0052806
-0.0352858
0.856563
1.39668
0.447654
1.04132
-0.029561
0.944232
0.966192
0.0323652
-0.056194
-0.0747842
0.58121
-0.00247562
0.222895
-0.0517388
-0.0714353
1.05089
-0.00938131
0.00530507
1.10131
0.342001
1.28062
-0.0327139
0.89132
0.113224
-0.0378661
1.19145
1.30143
1.14355
-0.019986
1.30134
-0.0551638
1.18315
0.143967
1.13731
-0.0417586
-4.56334e-05
1.14046
1.18838
1.18151
1.1418
0.766317
0.31206
0.874624
-0.0525588
1.14173
1.01186
0.214115
0.177423
-0.0166818
0.164385
1.0333
-0.067059
-0.0501888
1.16641
1.15289
-0.0392865
1.12684
-0.0837414
0.44338
-0.0199905
1.16981
1.1875
1.37624
1.17404
-0.00442129
-0.0304357
-0.00161728
-0.0443873
1.27405
0.700919
1.01884
-0.0697724
0.908241
0.0382149
1.2779
0.034795
1.16046
-0.018504
1.25067
1.29979
-0.0326831
0.458086
1.24476
-0.00452756
1.3237
0.019883
-0.00556635
-0.0574719
1.08365
0.609199
-0.0548953
1.13845
1.31773
0.959162
0.0873864
-0.0351048
0.163578
1.15041
1.29892
1.41027
0.679825
-0.00244105
-0.0494483
1.02963
-0.000206874
-0.0191126
0.000120021
-0.0184266
-0.0343566
-0.00301231
1.21309
0.00436091
-0.00121658
0.992813
0.68426
-0.00180925
0.524437
0.00110945
0.589509
0.99988
1.13427
-0.0168642
0.492932
-0.0113751
0.0643728
-0.00545938
1.16053
1.21869
-0.0147447
-0.0326271
-0.043596
-0.0119485
1.14499
0.000545586
-0.00830571
-0.0639194
0.0804638
1.34853
-0.0509494
0.294466
1.16755
-0.01091
0.388722
0.0112022
-0.0498396
-0.00498703
-0.00121634
1.3408
0.881376
-0.0246995
0.230384
0.913594
1.11466
1.00734
0.0981167
-0.0425228
-0.0268148
-0.0372137
0.970442
-0.0447036
-0.0307714
-0.000177483
-0.0411192
-0.0023208
-0.0329333
1.09271
-0.0502552
1.16062
1.1407
-0.0583691
-0.027496
1.36744
0.930964
0.230792
-0.0302908
0.937035
-0.0330051
0.841039
1.34207
0.870962
-0.0415347
-0.0332902
1.06404
-0.0535769
-0.0577621
-0.0336533
1.23237
-0.0409942
0.193956
0.920227
0.782316
0.983377
0.00257232
0.8373
-0.0112051
1.16319
-0.0699667
0.630445
-0.0203838
-0.0286386
-0.00134077
-0.0025399
0.000602542
1.23786
-0.0367316
0.89634
0.425234
0.0380479
-0.0326989
0.72049
1.38533
1.26101
0.0122889
0.683188
0.0208292
0.375787
-0.0475674
0.544299
-0.0642223
-0.000573741
0.953469
-0.0464878
0.0163284
1.22305
1.05547
1.18332
0.0911309
0.139464
-0.020253
0.700014
0.0936597
3.75086e-05
1.24913
0.490016
0.664243
0.237233
-0.000146939
-0.0132591
0.00117819
0.644755
-0.000248533
-0.0265266
0.0081832
-0.0375249
1.27336
-6.92994e-06
-0.0406708
-0.069031
1.31882
0.0263039
-1.91685e-05
-0.0222082
0.468743
0.998465
-0.0286494
-0.0244845
-0.00972918
1.01537
-0.0309407
0.660316
0.0112641
-0.0109953
0.37773
0.997178
0.340702
0.683429
-0.00540757
1.05391
1.30869
-0.0239399
0.89335
-0.0510591
1.33072
1.29065
-0.0310034
0.390261
0.349928
0.882068
-0.000284857
1.13966
1.41128
-0.0100403
0.594268
0.796246
-0.000234938
0.000411152
-0.0298119
1.38226
-0.0116354
-0.0384344
1.15108
0.000601942
0.86876
1.17615
-0.0378396
1.25019
-0.0451348
-0.0278987
1.17985
0.681473
0.982026
-0.00578345
1.18564
0.651674
1.13349
-0.0636445
-0.00980986
0.59743
1.24752
1.18093
1.2607
1.15191
0.142901
-0.0565554
0.255812
0.918238
1.13581
1.31003
-0.0501199
0.751792
1.34255
1.08992
-0.000110639
-0.065645
-0.0323775
0.549791
0.0607779
1.22662
0.681742
1.13176
0.394083
0.0794711
1.13786
0.168861
0.929929
-0.0110421
0.332569
-0.0107202
-0.0146479
-0.0546467
1.3105
-0.0525623
-0.0385755
0.136102
0.614377
0.383536
-0.0386439
0.256193
0.0481957
-0.0483026
0.963004
0.597652
1.02894
0.00493821
1.17888
-0.0344183
-0.000213479
-0.0131496
0.0173922
-0.0274438
-0.0172822
0.00470795
0.8057
1.26468
0.604783
0.302534
-0.00340306
-0.0558161
0.885049
0.00911321
1.33506
0.818034
0.0137103
-0.0374764
0.147934
0.00649831
-0.0230858
-0.00381094
0.0944298
-0.0534801
0.787923
1.28609
1.20153
0.740176
-0.00771742
-0.0460318
-0.00323218
-0.0159651
0.973776
-0.0191325
0.945465
-0.0351219
-0.0250102
1.27274
1.29424
-0.00012808
1.14813
1.19708
0.528922
0.0149737
0.591715
0.967472
1.29107
0.849413
-0.0147529
1.26873
0.335079
-0.0236116
-0.0333394
-0.018865
1.31366
0.0185936
1.16449
0.827659
1.25694
0.0494433
0.87163
0.923066
-0.0380511
1.18182
0.148436
1.23566
0.000362182
0.863233
0.936231
0.9518
-0.00057102
0.225754
-0.00464158
-0.0503375
0.804535
-0.029203
0.89699
0.884974
1.38006
0.0565495
1.24137
0.040688
0.035116
0.308647
1.14606
0.448381
0.162905
0.292175
1.03271
-0.000999076
1.36175
0.00257217
0.111523
0.43147
-0.0389815
1.15731
-0.0261941
1.20628
1.00652
0.499564
0.223129
0.587751
-0.000608543
0.193719
1.23025
-0.0445048
0.111586
0.845542
0.368987
0.122942
0.232054
-0.0248059
1.27711
-0.0421909
0.296524
0.113953
-0.0658819
1.13044
1.39491
-0.0511328
-0.0594255
0.00982367
0.368427
0.000187107
0.511459
1.29635
1.25479
0.0385117
0.570793
-0.000187097
-0.058938
1.06385
0.0128642
0.682407
-0.0401292
1.35461
1.04587
-0.0640875
0.013405
-0.024841
1.36014
-0.0475794
-0.00247735
-0.0332567
0.51698
-0.041342
-0.0370962
0.482398
1.2838
-0.0714588
1.32686
1.41173
-0.0318542
0.0997665
2.85059e-05
-0.00641088
0.0359763
-0.0380728
1.35128
-0.0340538
-0.00939503
0.944036
-0.0556635
1.01766
-0.0152354
0.226484
1.02334
0.950981
-0.0705319
-0.0212957
-0.0583886
1.09458
-0.0466059
0.707363
-0.0541514
-0.0182189
-0.0562587
-0.00598626
-0.00725789
-0.0675442
-0.0576494
0.0918024
0.0197209
0.462949
-0.00427567
-0.0507365
-0.0509838
-0.0346071
-0.00316356
1.27289
0.190011
-0.0321671
0.00261893
1.07394
-0.0035853
0.964626
0.0928284
0.320511
-0.017629
1.01337
0.712075
-0.0637885
-0.0137933
-0.0220878
0.862869
-0.000349327
0.946195
1.09173
0.00665697
0.0513478
0.476611
0.420643
-0.0381892
0.56407
1.04848
-0.0365541
0.912125
-0.0629154
0.0754257
0.885941
1.29471
0.16773
0.00242984
1.12986
0.936637
-0.0416234
-0.0485375
-0.0846079
0.0732931
-0.0394707
-0.0139509
1.06552
-0.0527553
0.0291537
1.07
0.00283551
-0.0436305
0.770107
-0.00808551
0.563022
0.940317
0.156318
0.969655
-0.0224055
1.25898
-0.0220683
-0.000420643
-8.10292e-05
0.278076
-0.000210342
-0.0264494
0.575331
0.0305927
-0.000107935
-0.031299
-0.0295061
0.682646
1.15898
-0.00127759
-0.0297412
0.0289232
0.905247
-0.0663677
-0.0318799
-0.0423199
0.299735
0.774957
-0.0143246
-0.0203808
0.0916549
1.00883
1.07686
0.548704
0.957254
1.19246
-0.00542391
0.907289
0.421608
0.172901
-0.0378408
0.106376
1.41817
0.00946013
-0.0155353
-0.0602616
1.01048
-0.0247536
-0.00139963
-0.0550392
-0.0629396
-0.00801512
1.16136
0.814748
0.938885
1.08168
0.96125
-0.032279
0.514454
0.80971
0.267916
1.13812
0.664167
0.845367
-2.62261e-05
0.835657
-0.0376352
0.646046
0.853016
-0.0674702
0.351039
0.340966
-0.0352765
-0.0161648
0.313714
0.62683
1.2968
0.678381
-0.000112268
0.750272
-0.0312744
0.865676
0.701819
-0.0262321
-0.0397393
0.913501
1.15539
0.486612
-0.0758153
-0.0449817
0.61036
0.915431
-0.057868
1.05364
-0.0438358
0.547658
0.132118
1.2278
-0.00172191
0.00189381
-0.0100219
-0.0473008
0.0739822
-0.0364519
0.942294
1.07705
0.0139282
0.756109
0.0158928
-0.0277407
-7.0173e-06
0.660684
-0.00911636
0.797697
-5.93344e-05
0.931645
-0.0661444
1.0347
0.0763363
1.10048
-0.06309
-0.0230018
-0.00132801
1.16742
-0.054125
0.382764
0.531537
0.0207636
1.02439
-0.0232029
0.0108822
-0.0496268
-0.00929938
1.16671
-0.0107645
-0.0467138
-0.0345226
-8.60515e-05
-0.0318308
1.04607
0.000713066
-0.0693429
0.000443673
-0.00393773
0.98199
0.0813476
0.298717
-0.0138447
0.000311377
-0.00992127
0.17653
-0.0514351
0.00178462
-0.0248662
0.682865
-0.000168304
-0.0451775
0.154237
0.535917
1.13627
-0.0343088
0.00916695
-0.0709893
-0.0259299
0.976514
1.06438
1.17567
-7.64884e-05
0.620502
-0.054924
-0.0523086
0.82448
-0.0367164
-0.0263498
-0.0328327
-0.0135744
-0.0403535
-0.0373525
-0.0306095
0.00157092
0.0504847
0.922576
0.023936
0.74086
0.284428
0.197882
0.628935
0.451481
0.830734
0.102597
0.945026
-0.000253715
-0.0185732
0.895567
-0.0681443
0.96932
0.933625
-0.0364395
-0.0667305
-5.73141e-05
-0.0532356
0.248046
-0.0392293
-0.0405723
-0.0434701
-0.0357198
-0.0632284
-0.0441223
-0.0304915
-0.0159199
-0.0748921
0.832177
-0.0590061
-0.00634386
-0.0690067
0.00140714
-0.067624
1.05697
1.02454
0.661377
1.22314
0.00765209
0.0717767
-0.0535436
0.00192746
-0.00805157
-0.000412043
-2.53591e-05
0.643605
0.493885
-0.000470995
-0.00779572
0.389214
0.617435
-0.0494847
-0.0405732
0.00941069
-0.00817544
0.00213213
-0.00182686
-0.0659342
-0.0296345
1.26556
0.00287418
-0.0269207
-0.0429076
-0.0483406
-0.0306542
-0.0459866
0.000251248
-0.0316322
-0.0345878
-0.061334
-0.0430509
0.427317
-0.0350459
0.756735
-0.05439
-0.00695613
0.0860191
0.965084
1.00318
0.805095
0.0644211
-0.00288127
-0.000979447
0.0238922
-0.0486395
0.0114106
-0.0642249
0.00356489
-0.0176349
-0.00834338
-0.000102553
0.269997
-0.0145412
-0.00146413
0.00183031
1.30035
-0.0456194
-0.0562345
1.24076
1.2732
-0.0446823
1.25582
1.19983
0.993316
-0.00198708
0.0091193
1.27823
-0.00205921
-0.00148356
9.13094e-05
-0.0474836
-0.0192721
0.0286427
-0.0450351
-0.0568539
-0.0566609
-0.0111072
-0.000461295
-0.048094
-0.0207643
1.37273
-0.0479064
-0.0350851
1.37341
-0.0121633
1.32561
1.25032
0.926567
-0.0385997
1.3686
0.35994
1.1057
0.0493957
-0.000578544
-0.00452299
0.00549188
0.20236
1.15145
-0.00588668
7.07995e-05
-0.0497457
-0.000599132
-0.0305345
0.610912
-0.000494448
0.961974
-0.0468319
-0.0114662
-0.0569295
-0.0402348
0.562653
-0.0131047
1.26207
0.00212789
1.19052
0.0172803
-0.0532827
-9.00175e-05
-0.0730427
-0.0115959
-0.068087
1.08499
1.14233
-0.000114503
1.26958
-0.0525611
-0.00024533
-0.0212248
1.19945
-0.0693152
-0.00194046
-0.00134982
0.000595102
-0.0001418
-0.000440143
-0.00270707
1.28908
-0.00103035
-0.00690239
0.0032995
1.33085
1.41603
-0.0142732
-0.0601955
0.984417
1.37236
-0.0583053
-0.0512091
-0.000134416
0.0842034
1.17406
0.963432
0.000383253
-0.0410369
-0.0595012
1.21494
-0.071592
-0.0275265
-0.0278194
-0.0262169
-0.0114503
1.0203
-0.000377044
1.23707
-0.00744837
1.31263
-0.00331281
1.25422
-0.037634
0.275913
-0.0223917
-5.60268e-05
0.00101119
-0.0190685
-0.0373431
-0.0141653
0.000160724
0.00222168
-0.00743986
-0.0559708
0.000104085
-0.0336534
-0.0321966
0.00115424
0.344585
-0.000761198
0.960412
-0.0529368
-0.00790223
0.00389882
-0.0645708
1.34605
-0.0291254
-0.0216208
-0.0220991
-0.0666894
-0.0432132
0.937237
1.00751
0.0138312
-0.0345145
0.0338787
0.391473
1.23573
-0.0671206
0.917453
1.04518
-0.000132594
-0.0653788
-0.0456143
0.00210692
-0.00192893
-0.00230563
0.00154439
-0.017624
-0.0178905
0.0220064
-0.029149
0.055363
0.711354
-0.0190488
0.962695
0.483677
-0.0751863
-8.39759e-05
0.000852323
1.15741
-0.00343439
-0.0632253
-0.00191633
-0.0641268
-0.0306378
0.788875
0.234636
1.288
2.61854e-05
4.33785e-05
-0.0586
0.760478
0.00708248
1.23722
0.493892
-0.04858
-0.0302349
-0.049052
0.0369389
0.930169
0.147557
1.16796
-0.0704867
-0.000748554
-0.00556604
-0.0275063
8.09213e-05
-0.00166701
-0.00867741
-0.0279144
0.01857
-0.0631794
-0.000331051
-0.0648018
-0.0509021
-3.65681e-05
-0.000381657
0.00694878
0.000609076
-0.00101197
-0.00944246
0.104417
0.00117274
0.222371
-0.0298492
0.977453
-0.0554434
-0.0471735
-8.58718e-05
-0.0463847
-0.0598772
-0.00263971
-0.0168396
-2.24047e-05
-0.0148663
-0.000449719
-0.0383164
0.26904
0.449067
-0.0886052
-9.41576e-06
0.197498
-0.0306421
1.04286
0.852346
1.00723
-0.00453096
-0.01148
-0.00143353
-0.0156757
1.19347
0.938826
-0.00592572
-0.0064095
0.727482
0.936381
1.28678
-0.000180263
-0.00864973
-0.0223385
-0.0001515
-0.000233145
-0.000337483
-0.00059478
-0.0062353
0.975596
-0.00914543
-0.000621242
0.0183373
0.000762254
0.255548
0.0106002
0.782508
0.00111719
0.486417
-0.0600479
-0.0671646
0.600812
0.509072
-9.50385e-06
0.591797
1.23219
-0.0639346
0.999598
-0.0684139
-0.0140466
1.06654
-0.00406951
0.969684
-0.00640606
0.0501945
-0.0237332
-0.0168402
-0.0348352
0.000550643
-0.000916245
0.094321
1.09733e-05
-0.0289689
-0.0601542
1.24569
0.0328533
0.0060104
0.957623
-2.68658e-05
0.000263371
0.0247301
-0.00289587
1.22349
-0.00465548
0.000380861
-0.0366375
0.411549
-0.0332154
0.00161164
-0.000518274
0.37144
0.0175134
0.000174863
1.13869
1.32538
0.000649308
0.161573
-0.00151254
1.01566
-0.0013792
-0.00745393
-0.000363914
-4.11079e-06
-0.0247438
0.00670703
0.00128942
-0.0704407
-0.00243909
-0.002509
-0.0004024
-0.00111264
0.0214654
1.0764
1.12276
0.0209894
0.938602
0.289418
-9.9516e-05
0.94239
-0.0124383
0.00251622
0.00687332
0.1508
-0.00118742
0.0911267
-0.00332168
-0.0211613
0.629406
-0.0388391
-0.0304284
0.530357
0.800451
0.490082
-1.43074e-05
-7.8368e-06
-0.0357721
0.736963
-0.0117165
-0.0754674
-0.000934553
0.934617
0.037258
1.07629
0.849867
-0.0318741
0.532647
-0.00211955
0.967192
0.241052
-0.0592141
-0.000633536
0.00138769
-0.0292766
-0.0342058
-0.0252488
-0.0407459
0.440909
-0.0186067
0.738629
-0.00030287
0.00808896
-0.00174895
0.415679
0.0779831
0.005083
-0.000111763
0.0670466
0.701737
-0.0491095
0.0575025
0.0498547
0.303482
0.0430078
-0.00146233
0.000599619
1.04475
1.10794
1.14915
-3.81139e-05
1.11209
1.02523
1.11817
-0.00631402
-0.000816399
0.000106081
0.784904
0.876503
-0.0654443
-0.0691642
-0.0566981
-0.0268525
0.336299
-0.0300946
-0.0159787
0.912196
0.00201057
-0.0265455
-0.000169969
-0.0348033
1.11784
-0.0433237
-0.000520786
-1.99861e-06
1.19994
1.0256
0.203685
0.70815
-0.0279841
0.176685
-0.0331633
0.149872
0.124976
0.1063
0.676889
-0.0396217
0.453309
-0.000343867
1.0907
-0.0156596
-0.0119094
1.00503
0.0521728
-0.0250397
-0.0624517
0.168205
0.504303
0.0182669
-0.000366188
0.91632
0.000505211
-0.0279946
0.267855
-0.000976182
-0.0110337
0.00186503
-0.0647744
-0.0510586
0.235844
-0.00116592
0.205916
-0.0270169
0.179897
0.155989
-0.0236526
-0.0395043
0.135429
-0.0571372
-0.0316351
-0.0266759
0.799961
-0.036481
-0.0153763
-0.000384701
-0.0489694
-0.0731551
-0.000528487
0.822704
1.07117
-0.0553394
-0.0424562
-0.0277156
-0.0177384
-0.000760927
-0.00550108
-0.00656339
0.16793
-0.000804599
0.0397026
-0.0615761
-0.0541219
0.00118214
-0.000654682
0.788381
-0.00789263
0.412292
0.844429
-0.00564724
-0.0715525
-0.0523416
-0.000319803
0.377504
-0.0643683
-0.0587821
0.341675
0.589596
-3.70655e-05
0.306919
0.617027
-0.000821357
0.460804
-0.0276932
0.0239746
0.912255
-0.0107013
0.000130145
-0.000213303
0.886906
0.0163027
-0.0350645
-0.0600704
-0.0301632
-0.0166406
-0.019857
-0.0535658
0.415267
1.16364
1.27209
0.991958
-0.000604651
0.781842
0.376978
-0.0335699
-0.0616576
0.762781
-0.0644532
-0.00695757
-0.00113609
-0.0528937
0.962359
-0.000285368
-0.0557108
-0.0209756
0.0759557
0.000681416
1.00746
-0.067799
0.990358
-0.0416363
-0.0452203
0.0155527
-0.00170606
0.884889
-0.0299141
-0.0165346
-7.3249e-05
-0.00208779
0.11983
0.552848
-0.0211727
-0.00069708
0.574106
-7.85353e-05
0.722908
0.516019
0.000269411
0.72576
-0.0503816
-0.000527941
-0.0263508
-0.000759182
0.000784197
-0.00132127
0.858041
-0.0411641
0.00101292
-0.0527515
-0.0287082
0.855388
1.12004
0.000179284
-0.0257196
-0.0113802
-0.0203167
0.916415
0.0556647
0.000389101
0.682549
0.552404
0.979104
-0.0179017
0.00093974
0.776785
-0.00220419
-0.0642496
0.0613983
1.18267
-0.0395827
-0.0303634
0.000545026
-0.0126272
1.1756
-0.0594132
1.30698
0.519605
-0.021337
-0.00114908
-0.0332754
0.000136175
0.000131135
-0.0268233
1.15943
-6.55848e-06
-0.0222609
1.17217
-0.000587467
-0.0264772
0.000159904
-0.00301645
0.000146735
0.151829
0.00471076
-0.00297917
-0.0472249
-0.00176869
1.93744e-05
8.4908e-05
-0.000314927
-0.0297229
0.000106064
-0.00167645
0.0214072
-0.0243139
1.29985
0.177545
-0.00896185
-0.00900252
-7.90332e-06
-0.0308588
7.36115e-05
0.395373
0.968781
-0.00394686
-0.017182
-0.0118181
0.308417
0.00133147
1.3557
0.00267984
-0.00242991
0.709432
0.0247482
6.15132e-05
-0.0525002
0.954722
-0.000941572
0.945208
0.967335
-0.0357643
-0.0527021
1.09314
-0.0297374
-0.00333355
-0.0618211
0.832696
0.399857
-0.0496066
-0.000751111
1.1326
-0.0013932
0.0489093
-0.00988643
-0.00453741
1.25623
0.000367683
-2.83059e-06
-0.0429735
0.660578
1.31388
0.945056
1.38857
-0.010004
1.23782
-0.00099592
0.796594
-0.00594419
-0.00156462
0.53587
-0.0286232
0.37288
-0.000148008
-0.0743628
1.32296
-0.03214
0.0885502
0.00210054
-0.00202659
0.613441
0.00336678
-0.0567268
5.37195e-05
-0.0257658
-0.000326808
1.34807
-0.0333356
-0.0488631
0.294969
0.00286606
0.50297
0.94611
0.000192268
0.0541715
0.60332
1.00712
1.36378
-5.94011e-05
0.0271205
0.0104029
-0.002848
0.659846
0.717253
0.0165892
1.18586
0.421984
0.604878
-0.0274829
0.914062
-0.0622297
-0.000189825
1.78897e-05
1.09244e-05
-0.000650088
0.00142572
-0.0441047
2.11515e-05
0.00113044
0.0169884
-0.000243743
0.738329
-0.0156374
-5.66819e-05
1.31805
0.000365237
-0.000483184
1.12295
1.36046
-0.0701088
-0.0151195
1.08361
-0.0172568
1.23337
0.256767
-0.000799925
-0.0629896
-0.019666
0.00353508
0.000809053
0.988034
-3.0122e-05
0.00023804
1.18743
-0.000842359
0.00272389
-0.0435251
-0.0427522
-0.0564278
-3.22276e-05
0.325271
-0.0614782
7.03095e-05
-0.0528111
-0.0031518
0.751871
-0.000241136
-0.000272074
-0.0029147
1.16508
-0.0170354
-0.00934147
-0.00282256
0.00280584
1.12923
0.0256043
0.472571
1.08929
-0.00137873
1.25941
1.05883
-0.0170701
-0.0625547
0.000330995
-0.037935
1.23242
0.00449421
-0.00101448
3.63506e-05
-0.0626597
-0.0104206
-0.00125706
0.000112503
1.25079
-7.65837e-06
0.989374
-0.0209168
-0.0698541
5.39681e-05
-0.0130411
-0.000248638
1.1093
1.12607
0.586562
-0.0021109
-0.0711693
-0.0464039
0.498616
0.38649
0.717313
-0.0807689
-0.0453681
-0.0741746
-0.000929016
-0.00177204
-0.00150277
-0.00343471
-0.00245532
-0.0029064
-0.00447282
-0.00957462
-0.0631234
-0.00604356
-0.00535585
-0.0660587
-0.000851526
-0.00405084
-0.000132493
1.43517
0.335745
-0.00548038
0.00575852
-0.00473214
-0.000108956
-0.001027
-0.00715746
-0.00614678
-0.0654111
1.30901e-05
-0.0744493
-0.0015376
-0.00183288
-6.48803e-05
-0.0594397
-0.0486025
-0.00830987
1.16543
-0.0119365
0.969498
-0.0585509
1.2037
-0.0802106
-0.0810916
-0.0814562
-0.0815107
-0.0806099
-0.0807645
-0.0796428
-0.000705994
-0.0785532
-0.076519
1.11952
-0.0741978
0.05701
-0.0668081
-0.00122079
-0.0350206
-0.0319776
3.13907e-05
-0.00701532
-0.000287774
-0.00395836
0.142854
-0.00217341
0.689226
1.01127
-0.0176206
0.00251532
-0.0628376
0.00716686
-0.0109432
-0.0169144
-0.0505284
-0.000488145
1.3338
-0.0289749
-0.0347487
-0.00821869
-0.00260274
-0.00958365
-0.00630532
-0.0812671
-0.0125334
-0.00389509
-0.023475
0.255136
-5.69963e-05
-0.000578293
-0.00920212
0.0649671
-0.00457813
-0.00732054
-0.00539826
3.11553e-05
0.000206094
-0.000535116
0.000278504
-0.00329949
-0.00847116
-0.00779827
1.10329
-0.00172658
-0.00589435
-0.00297194
0.000799038
5.83097e-05
0.000194602
0.859803
-0.0104064
1.06801
-0.0111908
-0.00208361
-4.773e-07
0.946589
-0.0171318
0.000236458
-0.000466976
-0.000378278
-0.021971
-0.00976237
0.244899
-0.000287884
-0.0192748
-0.00141991
-0.00427387
-0.00249992
-0.0127604
0.00325188
-0.0450702
1.08466
-0.0714759
-0.0240277
-0.00110512
-0.000289423
-0.0623543
-0.000104789
0.0302822
-0.00989167
-0.0109057
0.000410867
-0.0141727
-0.0186331
-0.0778723
-0.00116102
4.04626e-06
-0.0419168
-0.000938297
-0.0145275
-0.0141421
-0.0126838
-0.000234821
1.2418
-0.000757255
1.39446
-0.0195541
-0.0159256
0.0160383
-4.08705e-05
-0.000159952
0.140761
0.000262682
0.00550162
-0.000887478
0.161547
-0.0164922
-0.000256279
-0.00042172
0.00351287
1.241
-0.000742346
-0.0388867
0.01274
1.08185
-0.0554181
-0.0450741
-0.000127314
0.0590311
-0.0233994
-0.0670929
-0.00341258
0.000192262
0.0198178
1.30769
-0.0440825
-7.8744e-05
-0.0202184
-0.000418912
0.973096
1.07377
-0.00024902
-0.00338405
0.90397
-0.000613538
-0.0143213
-0.000325338
-0.00107847
-0.035611
-0.0546797
-0.0457009
0.10565
-0.00180606
-0.000283134
-0.000500395
-0.0188162
-0.00415097
0.739751
-0.0274484
-0.000314804
1.04519
-0.000430066
-0.0027032
-0.0717514
-0.0175609
-0.00214802
-0.000512985
0.013574
-0.00409466
-0.0258189
-0.000233912
-0.00156164
0.72542
-0.0152743
0.91299
1.20174
0.00884957
0.0020207
-0.0760442
-0.0166441
1.31307
0.0229092
-0.00430919
-3.5144e-05
1.01421
1.25606
0.749091
0.261041
-0.0612149
-0.000359123
-0.0597461
-0.00127265
0.00106384
-0.0262211
0.923248
-0.0430854
-0.0007169
0.00278561
-0.00249909
0.328611
0.961521
-0.0138953
-0.0562832
-0.00292548
-0.00279616
-0.00306422
1.23034
0.00528734
-0.00155946
-0.000834933
-0.00779083
-0.0367219
0.327149
-0.0119879
-0.00136797
-0.018604
-0.000288507
0.0233728
0.963636
-0.0734333
-0.00254061
0.0270648
0.949028
-0.00350796
0.431221
1.10154
0.000949005
-8.83691e-05
0.473042
0.908382
0.527384
0.797635
-0.062906
-0.00279492
0.000278208
0.922492
-0.0432331
0.00214472
-0.0517779
-0.0239992
-0.0190037
-0.0597753
-0.00413019
0.000292401
0.888938
0.00358645
-0.0596204
1.12264
-0.0376436
1.07361
5.9936e-06
-0.0571901
1.03094
1.31722
0.0255861
-0.0106342
-0.0214064
-0.00157091
-0.00540923
1.06884
0.0199816
-0.0511328
-0.00473435
-0.00189795
-0.00375341
0.00456394
-0.00105301
0.814814
-0.000850054
0.0224586
-0.00484224
-0.00926178
-0.00152417
0.644959
1.00935
-0.0781047
-0.0797313
-0.0802056
-0.00129182
0.00725184
-0.000675125
-0.0789499
-0.079147
0.659637
1.0019
-0.0786249
0.639023
-0.0276656
-0.00776284
-0.0251615
-0.07728
0.81705
0.608645
-0.076513
-0.0141201
1.01311
0.834491
-0.00585852
-4.33156e-05
-0.00251662
1.22838
-0.0012444
-4.39863e-05
-0.00560368
-0.00359421
-0.002282
0.00331918
-0.00420053
0.0195778
0.429983
-0.0416239
-6.46661e-05
-0.0508307
-0.0524947
-0.0290783
-0.0512025
-0.0792262
-0.00303253
-0.00492645
-0.00645553
-0.0146797
1.03838
-0.0050126
-0.00752027
0.090704
-5.03486e-05
1.19723
1.00876
-0.0511199
-0.00582293
-0.00164178
-0.00677251
-0.000437823
0.982188
0.204041
-0.00229945
0.0782302
-0.000280951
0.0675253
-0.00244401
0.0584593
0.0504231
1.14733
-0.0276729
-0.000434856
-0.007122
0.00578505
0.643005
0.896967
-0.0622608
0.897123
1.25019
-0.00841164
-0.0268139
0.868007
-0.00785387
0.230234
1.20244
0.858127
-0.0219713
0.869843
-0.00876832
-0.0137817
-0.0026354
-0.00298625
-0.0719694
-4.06276e-05
0.198813
0.171199
0.14734
0.123597
-0.0331111
0.292073
0.000385582
-0.00802267
0.71927
-0.0196628
-0.000207004
-0.00490837
-0.00905218
-0.0516553
-0.00040126
-0.0222713
0.0590489
1.38708
0.258587
0.996912
0.360468
1.45395
0.228237
0.199824
1.15954
1.20247
-0.0232968
0.689627
-0.000370813
0.146097
0.174845
-0.0103939
0.152435
0.0168264
-0.0573189
-0.00913413
-0.00992618
-0.0119058
0.0015616
-0.0114122
0.98004
0.0190309
0.00742885
0.00130332
-0.0466247
0.00438165
1.1017
-0.00226903
0.925924
-0.0262159
-0.0478013
0.435532
0.484895
-0.0453098
-0.0720418
0.00416114
0.971398
0.779056
0.766825
0.0452743
0.000685639
0.398919
0.363931
0.00372348
-0.000397987
-0.00273563
-0.0106164