/*--------------------------------*- C++ -*----------------------------------*\
  =========                 |
  \\      /  F ield         | OpenFOAM: The Open Source CFD Toolbox
   \\    /   O peration     | Website:  https://openfoam.org
    \\  /    A nd           | Version:  7
     \\/     M anipulation  |
\*---------------------------------------------------------------------------*/
FoamFile
{
    version     2.0;
    format      ascii;
    class       volVectorField;
    location    "10";
    object      U;
}
// * * * * * * * * * * * * * * * * * * * * * * * * * * * * * * * * * * * * * //

dimensions      [0 1 -1 0 0 0 0];

internalField   nonuniform List<vector> 
20933
(
(0.997134 -0.000322786 -6.52305e-23)
(0.98834 -0.00087591 1.82382e-21)
(1.02153 -0.00271355 -2.40866e-22)
(1.00027 -2.10183e-05 -1.49326e-25)
(1.0008 -0.00731107 5.54596e-23)
(1.00055 -0.00775197 -5.37226e-23)
(1.03116 -0.127823 -8.25904e-22)
(1.08161 0.0550424 -2.99992e-20)
(1.0065 -0.0638778 -2.18775e-21)
(1.08591 0.0558348 2.14523e-20)
(1.04013 -0.115439 -2.09058e-21)
(1.16635 0.102998 -1.38416e-21)
(0.99088 -0.0418082 -4.98165e-22)
(0.99708 -0.000380764 4.81681e-23)
(0.99674 -0.00289512 2.47983e-22)
(1.00026 -2.99373e-05 -1.96103e-26)
(1.22775 -0.0208094 2.88867e-21)
(1.09159 0.000746788 -1.72568e-20)
(1.00531 -0.0955408 -1.90777e-21)
(0.990608 -0.00043641 -1.60063e-21)
(1.01594 -0.073394 2.42184e-21)
(1.16236 0.10219 -2.33819e-21)
(1.08764 0.0605835 -1.62702e-20)
(1.10451 -0.151433 -1.10214e-21)
(1.01981 -0.000993917 1.38525e-23)
(0.995856 0.066042 -4.36021e-20)
(1.00749 -0.00214231 -1.31707e-22)
(0.997361 -0.0448976 1.47582e-21)
(1.14631 -0.145481 -6.25004e-22)
(1.00725 -0.0966093 6.38911e-21)
(0.999051 -0.00186337 -3.3828e-24)
(0.948192 0.014459 6.62847e-20)
(1.11258 0.0948532 1.34941e-20)
(0.995119 -0.026417 1.57301e-22)
(1.00009 -0.00136951 7.25995e-24)
(0.999104 -0.00200409 -1.18505e-23)
(1.07538 0.0698128 -3.19733e-20)
(0.999856 -4.50124e-06 1.36165e-24)
(1.01226 -0.0153213 -1.43827e-22)
(1.0998 0.00221716 -6.19392e-21)
(1.03296 -0.00672568 6.47446e-23)
(1.08468 0.113571 2.28921e-20)
(1.02793 0.0335476 -1.28179e-20)
(1.00674 -0.0025478 1.09808e-22)
(0.995545 0.0635117 1.7161e-20)
(0.975345 -0.00166076 1.0524e-21)
(1.07712 0.00670873 -4.60318e-20)
(1.21039 0.0501543 -7.70359e-21)
(0.999639 -9.34323e-05 4.62628e-24)
(0.98147 -0.0370942 3.62285e-22)
(1.00002 -0.001454 -1.86176e-23)
(1.06011 -0.00691808 5.63784e-21)
(1.15193 -0.0930299 -2.75831e-21)
(1.0004 -0.00317227 -1.92907e-23)
(1.18478 -0.0968972 2.48297e-22)
(0.959991 -0.0163686 -5.08104e-22)
(0.984799 -0.0252038 8.85736e-23)
(0.99896 -0.00239485 7.31087e-24)
(1.00913 -0.0376065 -7.32986e-22)
(1.22409 -0.0166928 -2.07959e-21)
(0.978791 0.024459 3.6175e-20)
(0.96906 -0.00452558 1.61086e-21)
(0.99096 -0.00319217 -4.23841e-22)
(1.09626 0.0555505 -1.4313e-21)
(0.99939 -0.000108032 -3.02983e-23)
(0.996713 -0.00668857 3.23209e-24)
(0.997124 0.0454883 1.1002e-21)
(0.996322 -0.00699448 1.26473e-22)
(1.09687 -0.0606536 6.58858e-21)
(1.0003 0.0670797 1.62569e-20)
(1.03286 -0.0332497 1.95439e-21)
(1.2317 -0.0480004 2.58413e-21)
(0.997052 -0.00288651 -4.85226e-23)
(0.989128 -0.0310019 1.92086e-21)
(0.99962 0.0144395 -1.63974e-20)
(1.06063 -0.0671972 -1.76696e-21)
(1.00043 0.0627353 7.58794e-21)
(0.959886 -0.00519493 4.41747e-22)
(1.09842 0.00100826 3.86299e-21)
(1.00335 0.0265256 2.42054e-20)
(0.997439 -0.00693096 3.11867e-22)
(1.00193 -0.00370267 1.28584e-23)
(1.13068 -0.145832 5.2779e-22)
(1.00721 -0.0618911 1.81313e-21)
(0.97104 -0.00361145 -1.7742e-21)
(1.02599 0.0315356 6.18798e-20)
(0.992937 -0.0390203 -9.42046e-22)
(0.919605 0.0456605 6.16725e-21)
(1.09333 0.0515803 -1.33136e-20)
(0.985246 0.0672606 2.74098e-20)
(1.08787 0.0208038 -1.81846e-20)
(1.00032 -5.17239e-05 -6.80515e-25)
(1.00005 -0.000260488 6.21847e-24)
(0.949734 0.00513709 -1.84355e-20)
(1.21519 0.0449362 3.91298e-21)
(0.991458 -0.0033239 -2.63847e-22)
(0.958259 0.00330746 2.82496e-20)
(0.99971 -0.00380067 2.71737e-23)
(1.04354 -0.111638 -7.60019e-22)
(1.05677 0.0119798 -1.69406e-20)
(0.982979 0.0691189 -8.11198e-20)
(0.981271 -0.00944659 1.31969e-22)
(0.976251 0.0638294 -8.85665e-20)
(1.14076 -0.0838689 -6.48548e-21)
(1.08183 -0.00206934 -1.26106e-20)
(1.08118 -0.0652695 -4.54254e-21)
(1.01894 0.0745689 3.12528e-20)
(1.13041 -0.0688621 -4.90024e-21)
(0.987696 -0.000535742 -1.96509e-21)
(1.03155 0.0847536 7.20505e-21)
(1.15297 -0.148911 -1.9168e-21)
(1.02737 -0.127286 -1.97285e-21)
(0.983935 -0.0200712 8.81901e-22)
(1.02716 -0.0173406 -1.50563e-21)
(1.06202 -0.0619758 -1.20282e-21)
(1.00009 -5.77883e-05 -9.39093e-25)
(1.03944 0.0552125 3.05958e-20)
(0.997865 -0.00647984 -1.15347e-22)
(1.13441 -0.0934635 -8.36571e-22)
(1.00296 0.0232837 -5.72864e-20)
(1.00031 -3.33384e-05 -1.40985e-25)
(1.02507 -0.07638 1.08001e-21)
(1.11391 0.0162926 -8.30168e-21)
(1.00992 -0.0429266 -1.02526e-21)
(0.99497 -0.0250829 -2.00779e-22)
(1.09228 0.00213642 9.09547e-21)
(1.13722 0.106859 -3.40247e-20)
(0.997134 -0.0432605 1.24338e-21)
(0.943403 0.0170885 -1.92655e-20)
(1.03614 0.0569334 1.6267e-20)
(0.994408 -0.0498153 -1.15978e-21)
(0.981152 -0.0357596 -1.09161e-21)
(1.03301 -0.00348694 7.76287e-22)
(1.0116 -0.0140418 3.52533e-22)
(1.01519 0.0699565 -4.23438e-20)
(1.07882 -0.00465889 -3.71927e-21)
(1.19035 0.0636894 -9.42421e-21)
(1.01834 -0.0738385 -1.06215e-21)
(0.985487 -0.00932937 1.16092e-21)
(0.996355 -0.0655524 4.96428e-21)
(1.02207 -0.0787473 2.67778e-22)
(0.987964 -0.032028 -1.88051e-21)
(1.23169 -0.0581329 2.0396e-21)
(0.973969 0.0694977 -2.78112e-20)
(1.16702 -0.00585976 5.18385e-21)
(1.01442 0.072061 3.81918e-20)
(1.1154 0.117549 -3.38592e-21)
(0.97549 -0.0101861 -1.14813e-21)
(1.14382 0.0998366 -2.39856e-20)
(1.0084 -0.00286319 2.93167e-22)
(0.974857 -0.00940629 2.31903e-21)
(1.00146 0.0657844 1.95978e-21)
(1.00007 -0.000219783 -3.91465e-24)
(1.0059 -0.0573693 7.11024e-22)
(1.00187 -0.00332375 -2.92512e-23)
(1.11233 0.11968 1.88599e-20)
(1.02303 0.0330664 -6.64443e-21)
(1.10059 -0.148012 4.49621e-21)
(0.95702 -0.0188274 9.25956e-22)
(0.990256 -0.042819 1.05967e-21)
(1.18964 -0.104668 -4.72475e-22)
(1.03452 -0.123625 1.23093e-21)
(0.998925 -0.00221726 -1.03241e-23)
(1.16474 -0.00127677 -7.97705e-21)
(1.09267 -0.00254809 -1.87132e-21)
(0.922642 0.0472381 1.46148e-20)
(0.982271 -0.00952162 9.16979e-22)
(1.12493 -0.151163 2.2198e-22)
(1.05725 -0.0686241 2.03813e-21)
(1.07628 0.0668286 -1.88162e-20)
(1.19469 0.0634187 3.03091e-21)
(0.99162 0.0509489 1.70373e-20)
(1.04685 0.0993492 4.91063e-20)
(0.99282 -0.0232135 3.77736e-23)
(0.918569 0.0143632 -2.17411e-20)
(1.11636 0.0960598 1.66839e-20)
(0.996996 -0.00069475 7.39006e-23)
(0.989131 0.00723527 -4.28933e-20)
(1.06694 -0.0607009 -5.43648e-23)
(1.02633 0.0879287 1.36051e-20)
(1.01117 0.0763782 -1.93345e-20)
(0.999799 -7.78571e-06 -1.75965e-24)
(0.971353 0.049395 1.22935e-21)
(1.04558 0.0866964 4.14947e-20)
(0.990036 -0.000689563 1.03809e-22)
(0.953043 -0.0140838 5.37043e-21)
(1.03242 -0.0310459 -1.31011e-21)
(1.0615 0.00854387 -4.30411e-21)
(1.13563 -0.088017 1.82707e-21)
(0.946403 0.0396739 1.95192e-20)
(1.13574 0.103375 -1.15663e-20)
(1.19915 -0.0339253 3.39357e-21)
(1.05365 0.00869852 3.42515e-20)
(1.09617 -0.0557083 5.47805e-21)
(0.957956 -0.0196722 2.27197e-21)
(1.16626 0.0762632 -1.58872e-20)
(0.972209 0.0518488 -1.34169e-21)
(1.20748 0.015732 -1.23676e-20)
(0.992078 -0.000276512 1.0902e-23)
(0.943103 0.0394518 -1.90487e-20)
(1.18402 0.0412375 -2.19622e-20)
(1.19749 -0.076451 -1.69098e-21)
(1.15109 -0.0871873 4.39453e-21)
(0.952801 0.0445449 -2.3598e-20)
(0.965584 0.0459341 5.55989e-20)
(0.973846 -0.0210243 -8.97078e-22)
(1.00158 -0.032076 -1.04187e-22)
(1.06016 -0.00410405 -7.75722e-22)
(0.960716 -0.0175527 -2.31298e-21)
(0.998561 -0.000145454 -8.06238e-23)
(0.998407 0.0466821 -8.13892e-21)
(0.989087 0.0191516 -1.54229e-20)
(0.975527 -0.0125841 1.67372e-21)
(0.967698 -0.0285939 1.17403e-21)
(1.02784 0.0855346 2.11118e-20)
(0.999037 0.0201494 2.47942e-20)
(0.998343 -6.94255e-05 2.66215e-22)
(1.00179 0.021391 -3.87487e-20)
(1.13423 -0.0647205 -2.37426e-21)
(1.01244 -0.0123461 -7.8479e-22)
(1.00538 -0.0463567 1.20151e-22)
(1.02538 0.0524808 -3.26385e-21)
(0.967597 0.0768804 2.58924e-20)
(1.08576 0.0183807 2.40374e-20)
(1.03257 0.0813858 -3.4579e-20)
(0.984507 -0.00933395 -1.96503e-21)
(1.0032 -0.0316268 -4.34885e-22)
(1.00012 -6.5505e-05 2.29741e-26)
(0.998811 -5.23034e-05 -9.2153e-23)
(1.00067 -0.00614233 1.09896e-22)
(1.11207 0.0140917 3.97994e-21)
(1.10657 -0.0942272 6.30401e-22)
(1.02049 0.0724957 -3.98987e-20)
(1.00282 -0.0764068 1.38633e-21)
(1.01878 0.0267172 2.36981e-20)
(0.993989 -0.0376522 -1.70591e-22)
(1.07631 -0.0623532 3.21778e-21)
(0.993312 0.0498287 3.04046e-20)
(0.951791 0.00400074 9.51625e-20)
(1.0263 0.0496574 5.62899e-20)
(1.00224 0.0608475 -4.67255e-20)
(0.966407 -0.0280858 -1.05624e-21)
(1.08097 0.101624 -1.38406e-20)
(1.01065 -0.0416138 1.10088e-21)
(1.08422 -0.00354505 2.52256e-20)
(0.997713 -0.00587221 -2.21221e-22)
(1.21937 -0.0896802 1.41893e-21)
(1.1392 -0.0430036 1.19343e-20)
(1.06714 -0.020861 8.80111e-21)
(0.999651 -6.94994e-05 -5.65354e-24)
(0.985874 -0.000747474 2.28148e-21)
(0.964799 0.0785063 -3.98171e-20)
(1.13483 0.0368324 5.99888e-20)
(1.0118 -0.0165638 4.4037e-22)
(0.979223 -0.0401685 -1.88444e-21)
(1.102 -0.0905188 -4.2636e-22)
(1.05865 -0.136976 2.7668e-21)
(1.08119 0.112596 -2.8375e-21)
(0.997204 -0.0647867 -1.34491e-21)
(0.971466 -0.00203076 -1.9003e-21)
(0.999292 -0.0508999 1.60558e-21)
(0.995486 -0.022271 -2.05399e-22)
(0.999286 -8.78005e-05 3.83456e-24)
(0.993199 -0.0359913 8.58068e-22)
(1.03749 -0.12374 -6.34377e-22)
(0.973329 0.0668739 5.27679e-20)
(1.22206 0.0196167 6.1083e-21)
(0.985177 -0.0191176 -1.74152e-21)
(1.01698 0.0280197 -3.6547e-20)
(0.967118 0.0490806 -6.58773e-21)
(0.993486 -0.0405096 2.02136e-22)
(1.00056 -0.000223167 8.36516e-24)
(1.00533 -0.0595956 -1.30499e-21)
(0.997145 0.0429116 9.40804e-21)
(1.20108 -0.121138 -1.02567e-22)
(0.980321 0.0226683 -5.47051e-20)
(1.00005 -6.89641e-05 5.89096e-25)
(0.969305 -0.0311055 1.92011e-21)
(1.03805 0.0991301 3.96512e-21)
(0.999514 0.0202892 5.05881e-20)
(1.02561 -0.0571062 -2.92573e-23)
(0.985807 -0.0240583 1.05964e-21)
(0.954398 0.0714708 4.21224e-20)
(1.19183 -0.0626497 -8.70948e-22)
(1.19291 -0.0370451 -2.55622e-21)
(0.979139 0.0646286 3.65482e-20)
(0.948816 0.0442669 -3.97965e-21)
(0.992511 -0.0418835 -5.68504e-22)
(1.03673 0.101126 -2.51369e-20)
(1.11739 -0.0070825 -1.22617e-20)
(1.0047 0.0265155 -6.61407e-20)
(1.05078 0.0607948 1.8871e-20)
(1.00058 -0.000165968 -1.19913e-23)
(1.22851 0.0215328 -5.30365e-21)
(1.07092 0.0642996 1.13366e-20)
(0.996792 -0.000626812 2.39778e-22)
(1.00177 -0.0805427 -5.46066e-22)
(1.19536 0.0197119 -4.78708e-21)
(1.11374 -0.14396 -6.58192e-22)
(1.18209 0.0360612 1.2382e-20)
(1.14339 -0.0266933 -6.61343e-21)
(1.00011 -0.000137856 -4.43151e-25)
(0.99975 -0.00269938 7.43609e-23)
(0.986593 0.0760814 -6.51007e-20)
(1.00138 -0.0108487 -3.32002e-23)
(1.01033 -0.095982 -1.42078e-21)
(0.99513 -0.0536751 1.80138e-22)
(1.15969 0.0976942 -1.31579e-20)
(0.971865 -0.00444717 -3.17663e-22)
(1.02725 0.0900816 2.40821e-20)
(1.15868 0.011158 1.65124e-20)
(0.99746 -0.0513305 9.9647e-22)
(0.957751 -0.00615885 -1.24427e-21)
(1.08003 0.0637874 2.04586e-21)
(1.15695 0.0739537 1.164e-20)
(1.00007 -0.000141211 -1.08149e-24)
(0.982807 0.0479243 5.43784e-20)
(1.03555 0.0596464 8.23571e-21)
(0.992476 0.0148024 -1.33309e-20)
(1.18745 -0.0888003 9.1981e-22)
(0.999394 -8.3295e-05 2.37762e-23)
(0.95527 0.0688699 -2.76525e-21)
(0.997775 -0.00411231 -2.43165e-22)
(0.996537 -0.039654 3.40095e-22)
(1.16266 0.0723854 -4.86969e-21)
(1.20057 0.0140392 1.53819e-21)
(0.987684 -0.0421488 -1.58855e-21)
(1.19089 -0.0711856 -2.9061e-21)
(1.02113 0.0313639 9.40871e-21)
(0.9515 0.00494712 3.46726e-20)
(1.00909 0.0692745 -5.00326e-20)
(1.137 0.0167821 -1.83877e-20)
(0.911535 0.0189333 4.6841e-21)
(1.0003 -1.43712e-05 -1.27019e-26)
(0.99384 -0.0220035 -2.53591e-22)
(1.00008 0.0140018 6.68975e-20)
(1.15317 -0.123978 -7.38962e-24)
(1.07047 0.0612789 -2.67449e-20)
(0.990749 -0.0313031 -7.39322e-22)
(0.997499 0.0619827 4.63587e-20)
(1.14588 -0.00323278 1.05123e-20)
(1.00023 -0.00292232 2.59612e-23)
(1.14162 -0.00692749 -9.19955e-21)
(1.03958 0.0512336 -3.94275e-20)
(1.12251 -0.128337 5.24628e-23)
(0.972231 0.00669619 -9.94152e-21)
(1.05037 0.0905883 5.97381e-21)
(0.999448 -0.00029037 -6.26271e-24)
(1.02877 -0.0156454 -2.70334e-21)
(1.10548 0.0794019 1.44266e-20)
(1.09152 0.000180147 3.28706e-20)
(0.997604 -0.000128706 -2.72351e-22)
(1.04761 0.0967003 -4.39841e-20)
(1.01089 -0.0370327 -4.50359e-23)
(0.911331 0.0464369 -2.65167e-21)
(1.01912 -0.07759 -1.8453e-21)
(0.974838 -0.0115705 7.44338e-22)
(0.986613 -0.000835012 -2.03048e-21)
(1.01003 0.071723 5.58907e-20)
(1.04564 0.0845075 -6.63279e-20)
(0.973642 -0.0028223 8.2028e-22)
(1.07859 0.0589696 7.34552e-21)
(0.984884 0.0641528 -1.58731e-20)
(1.00147 -0.0116595 -2.11494e-23)
(1.03804 0.00469706 9.77472e-21)
(1.02034 0.0130324 -2.674e-20)
(0.90613 0.0277943 3.09552e-20)
(0.998076 -0.00344437 7.58832e-23)
(1.14092 0.0799715 -2.58384e-20)
(1.13459 -0.0468364 -3.60199e-21)
(0.95852 -0.0160352 -8.22878e-22)
(0.999599 -6.29186e-05 5.77623e-24)
(0.999715 0.00816589 4.01005e-20)
(1.0859 0.116412 1.34025e-20)
(1.2023 -0.00579641 -2.76988e-20)
(0.993087 0.0759051 -1.68216e-20)
(1.13274 0.0195737 9.32283e-21)
(0.98349 -0.0249538 7.40232e-22)
(1.08353 0.0983074 -1.03317e-20)
(1.09203 -0.0014207 -6.08093e-21)
(1.12968 0.0340688 1.68954e-20)
(0.913044 0.0297038 -8.08257e-20)
(1.02077 -0.067997 4.87033e-22)
(1.17025 0.0651242 6.44175e-21)
(0.991435 0.0178623 -3.49334e-20)
(0.978232 -0.0408347 1.72766e-21)
(1.11242 -0.0153355 9.11106e-22)
(1.0488 -0.111999 1.73014e-21)
(1.10771 0.075741 -6.37e-21)
(0.993389 -0.000207936 -3.02311e-21)
(1.08153 0.00752136 -5.32816e-21)
(1.20323 0.000705009 1.18315e-20)
(1.17244 0.0605324 1.66285e-20)
(1.00109 -0.00372088 1.79322e-24)
(1.07443 0.00560128 4.8647e-20)
(0.997032 0.0140634 -3.34721e-20)
(1.04131 0.0361441 7.10594e-20)
(1.11415 -0.140237 -2.39756e-21)
(0.996367 -0.0210196 4.51861e-22)
(0.955307 0.0411319 -2.75513e-20)
(0.950207 0.0164035 -7.10875e-20)
(0.9981 -0.00550098 -5.14734e-23)
(0.970557 -0.0303936 9.05573e-22)
(1.01448 0.0526487 7.3951e-21)
(1.0137 -0.1006 -1.14267e-21)
(1.07135 -0.0647347 -2.66552e-21)
(1.08017 0.108753 4.30305e-20)
(0.988448 -0.000571332 2.53167e-21)
(0.899861 0.0253016 5.25102e-20)
(1.02683 -0.0511331 4.24939e-23)
(1.13225 0.08602 8.06909e-21)
(0.993099 -0.00811815 1.10382e-22)
(0.995215 0.0133692 -1.42652e-20)
(1.05308 0.0884496 -1.23606e-20)
(1.06749 -0.0161471 -8.71264e-21)
(1.08184 -0.0703507 1.04968e-21)
(1.20043 -0.0283668 -5.5932e-21)
(1.18201 0.0453334 2.36168e-21)
(0.999853 -0.00412948 -3.47864e-24)
(1.01195 0.0434142 -1.36804e-20)
(1.23816 -0.0430757 -5.71482e-21)
(1.08919 0.0514192 3.259e-20)
(0.914384 0.0485027 8.08635e-20)
(1.19633 -0.085718 -1.00277e-21)
(1.05435 -0.059043 3.79e-21)
(1.00042 -0.00665886 -1.11262e-22)
(1.21113 0.0564943 1.60404e-20)
(1.21294 0.0103578 7.32953e-21)
(0.982823 -0.0196546 3.05631e-21)
(1.06773 0.0995545 -3.86507e-21)
(1.00007 -0.00111233 -2.79697e-23)
(0.982266 -0.0331013 -3.78699e-22)
(1.01174 -0.0111415 1.12473e-21)
(1.18521 -0.0580225 -5.2063e-22)
(0.994074 -0.0345731 7.35422e-22)
(0.99966 -0.000121665 -2.10388e-24)
(0.993492 -0.0444689 2.06159e-21)
(1.17179 0.0754606 -8.43392e-21)
(1.12287 -0.135423 -6.27795e-22)
(1.03758 -0.053967 1.33417e-22)
(0.972707 -0.0215877 -1.79017e-21)
(1.18862 0.0186417 -1.57274e-20)
(1.13823 -0.0238302 9.98106e-21)
(0.983698 -0.0420739 -8.47101e-22)
(0.954616 -0.00867846 3.94104e-21)
(1.00086 -0.00389861 -1.12891e-24)
(1.10173 -0.0632891 -6.99962e-21)
(1.0219 -0.1083 -1.60228e-22)
(1.00946 -0.00239727 -2.3488e-22)
(1.02812 -0.0545447 -4.39547e-22)
(1.15296 0.0705329 -1.81152e-20)
(1.04274 0.0335356 -4.35453e-20)
(1.16859 0.00586542 3.7415e-21)
(0.999406 -0.000251642 -2.37465e-23)
(0.94971 0.0755272 -6.11085e-20)
(1.00958 -0.00127398 -8.94017e-22)
(1.00001 -0.00120434 3.35773e-23)
(1.0312 -0.00817212 2.35094e-21)
(0.973459 -0.0304849 -1.45127e-21)
(1.00968 -0.0703102 1.50698e-22)
(0.967625 0.0428168 -3.28453e-20)
(1.01952 -0.0421308 -4.50584e-23)
(1.11352 -0.00628147 -5.48341e-21)
(1.01854 -0.0940381 2.2663e-21)
(1.01625 -0.0956109 -3.11571e-21)
(1.08267 0.105799 -2.98476e-20)
(0.998064 -0.0400846 -5.08474e-22)
(0.996755 -0.0618895 9.60972e-22)
(1.00312 -0.0792574 1.15386e-21)
(0.999634 -4.11399e-05 -1.13356e-23)
(1.13988 -0.077114 4.3731e-21)
(0.94203 0.0727427 -5.89121e-21)
(1.06072 -0.132399 6.45699e-22)
(0.97234 -0.0378907 -3.60532e-22)
(1.0674 0.0954391 -5.3568e-22)
(0.988357 -0.0398142 -1.66659e-22)
(1.05066 0.0572398 -1.57179e-20)
(1.14578 0.102765 -2.81107e-21)
(0.997424 -0.00440529 3.7332e-22)
(0.998512 -0.000210481 6.48254e-23)
(1.03239 0.054374 4.8316e-21)
(0.921691 0.0577743 2.639e-20)
(1.04827 -0.130779 1.94476e-22)
(1.12025 0.111747 4.25839e-21)
(1.18122 0.0789039 -2.35739e-20)
(0.976475 -0.0337229 -5.96531e-22)
(0.976551 -0.035308 -1.37961e-21)
(1.01565 0.054982 -2.04371e-21)
(1.07903 -0.00861204 5.54111e-21)
(1.13062 -0.138905 1.47385e-21)
(1.05192 -0.10716 -1.05531e-21)
(0.976944 -0.00174117 8.48847e-23)
(1.04887 -0.0114289 4.40644e-21)
(0.952305 0.0238465 -1.23006e-20)
(1.11279 0.00632102 -3.24816e-20)
(1.00028 -5.91588e-05 -3.89882e-25)
(0.975107 0.0614761 5.70949e-20)
(1.02892 -0.04865 1.09867e-21)
(1.01069 -0.0715555 1.69067e-21)
(1.04069 0.0981258 -2.2978e-20)
(1.01398 -0.0182883 9.92488e-22)
(0.992492 -0.0078075 -3.29541e-22)
(0.999482 -0.000405634 -1.19264e-23)
(1.12627 -0.056704 4.11033e-21)
(0.973634 -0.0168649 -1.48298e-21)
(1.00029 -2.03908e-05 -1.63652e-25)
(1.12263 0.113698 -1.04622e-20)
(1.20348 -0.114195 8.58165e-23)
(1.01032 0.0422282 -2.35864e-20)
(0.999279 -0.000123342 8.5259e-24)
(1.00031 -0.00348181 -8.90171e-24)
(0.987571 -0.040835 -7.56485e-22)
(1.00002 -5.37015e-05 2.32937e-26)
(1.04893 -0.13471 -1.01724e-21)
(1.14575 -0.136861 -5.28379e-22)
(0.999854 -0.0034937 1.63556e-23)
(1.00834 -0.0565563 -4.70119e-22)
(0.954202 -0.0138836 1.25092e-21)
(1.04034 0.0889988 -2.38925e-21)
(0.991563 0.075012 1.36653e-20)
(0.997731 -0.00375466 7.68009e-23)
(1.00263 -0.000899276 -5.24797e-23)
(1.00051 -0.0751715 -3.20011e-21)
(0.988312 0.0684652 4.33659e-20)
(1.00454 -0.0260877 2.78304e-22)
(0.983724 0.0450007 -1.55248e-21)
(0.986269 -0.0101091 -1.29796e-22)
(0.907779 0.0389108 -2.20647e-20)
(1.0331 0.0108713 -5.3035e-21)
(1.10935 0.0487341 -3.47072e-20)
(0.930237 0.046896 -2.40931e-20)
(1.23618 -0.0328178 -3.19919e-22)
(0.991916 -0.00273824 -1.51985e-22)
(1.12827 -0.0460219 3.30612e-21)
(1.00789 -0.0268924 -3.88005e-23)
(0.993301 0.0679658 1.10574e-20)
(1.01467 0.0475845 3.21094e-20)
(0.976058 -0.00753918 9.05745e-22)
(1.21292 -0.0852406 -2.59961e-21)
(1.10041 -0.0200256 -9.13426e-22)
(1.05204 -0.0625342 9.53081e-22)
(0.995023 -0.000328461 -3.12624e-22)
(1.21895 -0.0985417 -1.39172e-21)
(1.00027 -6.46558e-06 1.90486e-25)
(1.03815 0.0863049 1.43599e-20)
(0.952323 -0.0131626 -4.93845e-21)
(0.996002 -0.049671 -3.35988e-22)
(0.997983 -0.0241234 3.7091e-22)
(1.00702 -0.0455774 1.53768e-21)
(1.12977 0.0819783 2.48746e-21)
(1.16595 0.0106773 -1.43128e-20)
(0.997941 -7.64382e-05 3.25528e-22)
(1.02175 -0.0404623 7.14729e-22)
(0.999909 -0.000101435 2.09266e-24)
(0.907507 0.036546 1.661e-20)
(0.955822 0.021558 2.5383e-20)
(0.995658 -0.00106536 -1.67203e-22)
(0.978767 -0.011308 -8.78709e-22)
(1.0281 -0.0298902 1.55832e-21)
(1.01611 0.0500018 1.37964e-20)
(0.954413 -0.0198991 -2.3565e-21)
(1.18356 0.0823707 -5.16959e-21)
(0.973964 -0.038633 3.73079e-22)
(1.00582 0.0689174 -1.00464e-21)
(1.11238 0.0521935 -3.93846e-21)
(0.973036 -0.0182695 -9.78684e-22)
(0.905574 0.0207067 -3.36632e-20)
(1.04266 -0.00200425 -4.23652e-21)
(1.0124 0.0728531 -2.99076e-20)
(0.994776 -0.0113667 4.84728e-23)
(1.02333 -0.11492 4.91207e-21)
(0.975912 0.00416342 -8.33738e-20)
(1.01276 -0.0337224 -1.26983e-22)
(0.920348 0.061274 -1.19319e-20)
(1.02333 0.05825 1.76597e-21)
(0.910629 0.0230463 -8.1237e-21)
(0.992421 -0.00280346 9.06412e-23)
(0.991481 -0.000642302 7.94016e-22)
(1.02462 -0.0728651 -3.66964e-22)
(1.13818 -0.0367687 -1.62016e-20)
(1.01301 -0.0181675 -1.08997e-21)
(1.02388 -0.065841 -1.07298e-22)
(1.00922 0.0644906 2.71932e-21)
(1.00512 0.0745337 9.21436e-21)
(1.03458 0.00173696 6.46472e-24)
(0.990509 0.0667917 -3.09733e-20)
(0.927407 0.0649276 6.54409e-21)
(1.11048 0.0914017 2.63971e-20)
(0.998721 0.00927855 -5.72897e-20)
(1.03822 0.0278607 -1.36211e-20)
(1.00468 -0.0139968 9.23399e-23)
(1.03006 0.0559412 -1.58021e-21)
(0.995562 -0.0614897 -8.30909e-22)
(0.975192 -0.037716 9.78343e-22)
(0.998992 -0.00108738 9.70243e-24)
(1.04692 -0.0624343 -2.43617e-21)
(1.09159 -0.120925 -3.00032e-22)
(1.06803 0.0329397 1.17554e-20)
(1.06835 -0.00682298 1.0627e-20)
(1.00269 0.0253173 4.74248e-21)
(1.00869 -0.0392055 6.70033e-22)
(1.10302 -0.0122244 5.27213e-21)
(1.00411 0.0203173 -5.54864e-21)
(1.00888 -0.028197 -3.34183e-23)
(1.0791 -0.0735384 -2.30512e-21)
(0.999939 -0.000124012 -4.49342e-25)
(1.00041 -0.000191214 -1.27313e-24)
(1.06707 0.0300012 -2.1675e-23)
(0.996779 -0.0533235 -9.78672e-22)
(0.979539 -0.0351939 1.50452e-21)
(1.00045 -0.000179703 2.1612e-24)
(1.00016 -0.00243818 1.48865e-23)
(1.10004 -0.0234549 -1.62765e-21)
(0.999434 -7.70308e-05 -1.43501e-23)
(1.21291 0.0376017 -7.63173e-22)
(0.906315 0.0301302 4.25194e-20)
(1.11567 0.1136 1.58435e-21)
(1.09531 0.0599381 -9.35258e-22)
(0.971873 -0.00747562 -1.46481e-21)
(1.02462 0.0774253 1.09861e-20)
(1.20515 0.0611111 -8.09733e-21)
(1.00485 -0.0243209 -1.584e-23)
(0.979429 -0.0124255 -8.33323e-22)
(0.998067 -0.00319371 5.01827e-25)
(0.999432 -0.000367182 6.59336e-24)
(1.00161 -0.00393624 8.28416e-25)
(0.998565 -0.0256195 3.35349e-22)
(1.03546 -0.114605 2.22952e-21)
(1.08265 0.0738289 3.75043e-20)
(1.16065 -0.037224 3.25753e-21)
(0.963779 -0.00379329 3.20028e-22)
(0.999914 -6.40509e-05 -5.37977e-25)
(1.00168 0.0425838 3.15237e-20)
(1.21722 -0.0166353 -1.0379e-20)
(1.22271 -0.0628729 -1.41903e-21)
(1.01465 -0.0346482 1.57507e-22)
(1.18625 0.0612961 1.10898e-20)
(1.0454 -0.0647869 3.73847e-22)
(0.981522 -0.000925823 -2.45632e-22)
(1.00285 0.018994 2.79618e-20)
(0.976845 0.000893838 -1.0641e-19)
(1.055 0.10787 -3.06537e-20)
(0.988387 -0.000444265 -1.71468e-21)
(1.05285 0.107172 2.36996e-20)
(0.970612 -0.00558012 5.90955e-22)
(0.990461 -0.0372423 -9.46034e-22)
(1.10338 0.106523 -2.93641e-20)
(1.00026 -7.2563e-05 -5.65921e-25)
(0.993182 -0.0245652 -1.56327e-22)
(1.14022 0.0841454 8.80776e-21)
(1.10731 0.0829115 3.07683e-20)
(0.974193 -0.0195605 -2.61286e-22)
(1.01912 0.050088 2.10466e-21)
(0.970491 0.0787029 -2.69393e-21)
(1.0134 0.0238431 -6.46412e-20)
(0.972079 -0.0312634 2.23639e-21)
(0.955719 -0.00852945 -1.82329e-21)
(1.0405 -0.0510832 6.92301e-22)
(1.09585 -0.00150912 9.10709e-22)
(1.01914 0.0109173 -1.59126e-20)
(0.996083 -0.00138778 -5.39622e-23)
(0.975602 0.00910166 -3.11527e-20)
(0.995944 -0.0378914 1.80544e-21)
(1.02703 -0.114798 -3.27276e-21)
(1.12551 -0.0412075 3.50578e-21)
(0.947151 0.077046 8.6901e-20)
(1.08372 0.0781112 -3.10013e-20)
(1.01222 0.0477814 -3.37391e-20)
(1.15368 -0.132208 2.12579e-22)
(0.959685 0.00240187 -4.70144e-20)
(0.975133 -0.0166135 1.49854e-21)
(0.991474 -0.0358748 6.79838e-22)
(0.922894 0.0111916 1.62566e-20)
(1.06471 -0.0230117 -2.85985e-21)
(1.03585 -0.106335 -4.04513e-22)
(1.01353 0.0673426 -6.8922e-21)
(1.0046 0.0662471 -2.09709e-20)
(0.983553 -0.031997 -1.36616e-21)
(1.02326 0.0143053 -3.60263e-20)
(0.98876 0.0712699 -5.75875e-21)
(1.00524 0.0614365 2.74195e-20)
(1.03286 0.0909359 9.14101e-21)
(1.01056 0.0673827 4.43292e-20)
(1.04759 0.0627928 -2.44642e-20)
(0.988617 -0.00353309 5.91455e-22)
(0.97617 -0.017829 1.74429e-21)
(1.00252 -0.00624161 6.34056e-24)
(1.01194 -0.0942415 3.54787e-21)
(0.993644 0.0196069 -8.08401e-21)
(1.01628 -0.0995745 2.06275e-21)
(1.15566 0.0795702 -7.93029e-22)
(1.12955 0.0447468 -2.15388e-20)
(0.980391 -0.0404747 1.01556e-21)
(1.20643 0.0358973 1.50376e-23)
(1.14631 0.0956531 -8.87827e-21)
(0.991633 0.00903993 -2.44804e-21)
(1.1977 0.0269267 6.05297e-21)
(0.999869 -0.00294088 -7.36122e-24)
(1.05161 -0.0113891 1.785e-22)
(0.990097 -0.0400938 4.66989e-22)
(1.19983 -0.0588076 1.15813e-22)
(1.21532 -0.0584454 3.61302e-21)
(1.01902 -0.105668 7.04158e-22)
(1.03377 0.0873027 5.16652e-21)
(0.981782 0.0768677 4.56956e-20)
(1.14931 -0.023024 7.30126e-21)
(0.996496 0.00946673 2.53632e-20)
(0.919646 0.0547054 -2.9369e-20)
(0.998083 -0.000128507 -7.11422e-23)
(1.00288 -0.000926668 8.49967e-24)
(0.997476 -0.00483716 -1.67184e-22)
(0.977151 -0.0078941 3.36473e-22)
(1.06799 0.0697651 -1.9399e-20)
(0.924153 0.01274 -3.53221e-20)
(1.11478 0.00965038 2.79762e-20)
(1.02584 0.0828404 6.55516e-21)
(0.986604 -0.0197543 -8.3284e-22)
(1.06073 0.0998833 4.0439e-20)
(1.05771 0.105455 1.29122e-20)
(1.19836 -0.105778 -1.38757e-22)
(0.964669 -0.0113225 1.65896e-21)
(0.955343 -0.0188846 1.42828e-21)
(1.15937 0.0831653 2.28198e-21)
(1.01114 -0.0345663 5.72887e-23)
(1.15956 -0.0326761 4.6425e-21)
(0.977863 -0.032804 3.13753e-22)
(0.963265 -0.0327464 -3.35424e-21)
(1.01841 0.0696398 4.92934e-20)
(0.993251 -0.00238818 3.12469e-22)
(1.02251 -0.0462681 1.16354e-22)
(1.00625 0.0733879 2.29213e-20)
(1.2045 0.0285494 2.72822e-20)
(0.953055 0.065838 9.97271e-21)
(1.01496 -0.067845 -6.88492e-22)
(1.03687 0.00942134 1.74324e-20)
(1.20701 -0.0633462 -3.10885e-21)
(1.00193 -0.0562311 3.44057e-22)
(0.977904 0.00702315 -1.14934e-20)
(0.988082 0.000539275 6.90686e-20)
(0.991131 0.0236541 -1.25466e-20)
(0.996308 -0.0273043 -8.70031e-22)
(0.941685 0.0156005 3.88855e-20)
(0.973478 -0.0288492 1.15112e-21)
(0.979747 0.0577254 1.39004e-21)
(1.10041 -0.0514889 -2.18511e-21)
(0.989614 0.0364836 -7.1288e-21)
(0.987786 -0.0383296 5.93738e-22)
(1.00005 -0.00018252 1.63399e-25)
(0.98924 0.0320698 2.36152e-20)
(0.977792 0.0520126 2.72902e-20)
(0.981683 0.0626004 -4.37591e-20)
(0.989759 0.027858 -2.75171e-20)
(1.06183 0.00492986 -6.33739e-20)
(1.10995 -0.0132016 -5.05013e-22)
(1.05838 0.0606749 -4.79615e-20)
(1.03345 -0.103029 9.17748e-22)
(0.996081 0.0178631 8.28059e-20)
(1.01888 0.0448417 -4.19648e-20)
(1.21119 -0.0205743 1.26647e-20)
(1.07142 -0.00885738 -1.11979e-20)
(0.988958 -0.00336307 3.35053e-22)
(1.24203 -0.0280831 1.2181e-21)
(1.02347 0.0719349 -8.42455e-21)
(0.963273 -0.0260338 9.736e-23)
(0.969525 -0.00479932 -1.84828e-21)
(0.9898 0.00485337 -1.64447e-20)
(0.985829 0.0394249 -5.05036e-20)
(0.993646 -0.0433469 -8.18386e-22)
(0.992322 0.0425463 3.70267e-20)
(1.021 -0.11201 1.18529e-21)
(1.18536 0.0559448 -1.83511e-20)
(0.992511 -0.000371316 -7.02528e-22)
(0.981698 0.0425578 -2.83373e-20)
(0.977028 0.0463342 7.19506e-20)
(0.916245 0.0327718 6.57071e-20)
(0.98622 0.0732278 5.96866e-20)
(0.996689 -0.000413828 -8.31192e-23)
(0.986821 -0.0213468 5.47383e-22)
(0.998857 -0.00112223 -8.34255e-23)
(0.999153 -0.0589239 -3.04774e-21)
(0.95253 0.0520942 -1.41914e-20)
(1.10686 0.0668248 -4.44487e-20)
(1.03026 0.0789582 -4.8753e-22)
(0.963561 -0.0315089 2.20805e-21)
(1.03851 0.0304589 4.28328e-20)
(1.02988 -0.0291174 -1.79381e-21)
(0.95254 0.0592846 2.05639e-20)
(1.07107 -0.0791169 6.39067e-22)
(0.994315 0.00784269 2.80636e-20)
(0.992747 -0.000364752 -4.17526e-22)
(0.959052 0.0489069 -4.78744e-20)
(0.946427 0.0628866 -5.72056e-20)
(0.985505 -0.0223656 -1.39928e-21)
(1.15359 0.0333481 1.11716e-20)
(0.959694 0.0418111 -4.77933e-20)
(0.99633 -0.000608674 3.89885e-22)
(0.932679 0.0322612 -7.45207e-21)
(1.0383 -0.0571306 -2.61417e-22)
(0.99603 -0.000448164 -1.2001e-22)
(0.963591 -0.0123991 -1.15824e-21)
(1.01249 0.0756008 -2.91389e-20)
(1.12775 0.0592994 -2.73138e-20)
(1.00828 -0.0793655 1.62526e-21)
(0.996407 0.0734775 2.33867e-21)
(0.943065 0.0700098 3.77992e-21)
(1.05755 0.10187 -4.38112e-20)
(1.04572 -0.00843894 -2.14955e-21)
(1.00089 -0.05242 5.58839e-22)
(1.12426 -0.0516528 -4.49434e-21)
(0.986747 0.0443642 4.15892e-20)
(0.940843 0.032122 -4.30871e-21)
(0.91007 0.0319459 4.25588e-21)
(1.10558 0.0579208 6.88005e-21)
(1.00074 -0.00840075 1.6653e-23)
(0.975041 -0.00198272 2.25275e-22)
(1.02543 0.0742677 -2.98879e-20)
(1.00183 -0.00649496 3.44745e-24)
(0.987117 -0.0050332 -6.07903e-24)
(1.00288 -0.0101245 5.65832e-24)
(0.996065 -0.0238425 -4.37396e-22)
(1.06953 -0.116571 9.41126e-22)
(1.14446 -0.120922 -1.29413e-22)
(0.971321 0.0621894 -6.36564e-20)
(1.01692 -0.0383014 7.69632e-24)
(0.999135 -0.000902868 5.58635e-23)
(1.02405 0.0469164 -6.44029e-22)
(1.12412 0.0825811 2.21235e-20)
(1.00192 -0.0102835 -1.68936e-23)
(1.16441 0.0660505 -1.39247e-20)
(1.00158 -0.00109981 -3.51274e-24)
(1.11973 0.0451084 2.3499e-21)
(1.01332 0.0251234 4.52607e-20)
(0.99042 0.0408469 -7.18032e-20)
(1.11587 -0.124175 3.06325e-22)
(1.13922 0.0338807 -1.49323e-20)
(0.995492 -0.0116054 -8.73056e-23)
(1.09682 -0.080082 -4.93368e-22)
(0.995885 -0.00168072 -2.46082e-23)
(0.98428 0.0500644 -7.36843e-20)
(0.969978 0.060657 1.97363e-20)
(1.17116 -0.12705 -8.59613e-23)
(1.13835 -0.133585 2.79895e-22)
(1.10724 -0.135431 2.1268e-21)
(1.02725 -0.0674303 2.60753e-22)
(0.993672 0.0705792 4.95972e-21)
(1.0295 -0.0615395 -6.74534e-24)
(1.08715 -0.109895 4.42082e-23)
(1.0577 -0.127202 -7.50653e-22)
(1.09156 -0.0703025 2.53224e-21)
(0.924609 0.0326094 3.61627e-20)
(1.10854 -0.149468 -4.46886e-21)
(1.19789 0.00598352 -1.80731e-21)
(0.986223 0.0146481 1.43562e-20)
(0.994232 -0.000465027 4.03141e-22)
(1.15707 0.0156501 6.78268e-21)
(1.0314 -0.0553616 3.34411e-22)
(1.05813 -0.116971 1.21328e-21)
(0.995986 -0.00110206 1.28929e-23)
(0.99984 -0.00249757 -2.42099e-23)
(0.927969 0.0400963 -6.16817e-20)
(1.0452 0.032625 3.30362e-20)
(1.16751 -0.133954 8.3819e-22)
(1.23966 -0.00328005 2.79517e-21)
(1.04661 0.0552504 -1.7771e-20)
(0.994977 0.0415399 -5.84918e-21)
(1.02087 0.0476183 1.28294e-20)
(1.18217 -0.0747554 3.16267e-21)
(0.988575 -0.0428816 1.7253e-21)
(0.996881 -0.0363291 -4.66525e-22)
(0.991066 -0.0387919 -1.28003e-22)
(1.03001 0.0484206 -4.29278e-20)
(0.971303 -0.00597978 1.66085e-21)
(1.00456 -0.0533725 7.56432e-22)
(0.999645 -4.06105e-05 3.0649e-24)
(0.97758 -0.0174746 -2.93169e-21)
(0.99796 -0.000642255 6.47613e-24)