/*--------------------------------*- C++ -*----------------------------------*\
  =========                 |
  \\      /  F ield         | OpenFOAM: The Open Source CFD Toolbox
   \\    /   O peration     | Website:  https://openfoam.org
    \\  /    A nd           | Version:  7
     \\/     M anipulation  |
\*---------------------------------------------------------------------------*/
FoamFile
{
    version     2.0;
    format      ascii;
    class       volScalarField;
    location    "26";
    object      p;
}
// * * * * * * * * * * * * * * * * * * * * * * * * * * * * * * * * * * * * * //

dimensions      [0 2 -2 0 0 0 0];

internalField   nonuniform List<scalar> 
20933
(
0.000545102
-0.00353246
0.00604685
-5.64636e-05
-0.00271461
-0.00303061
-0.0850519
0.376032
-0.0373246
0.36599
-0.0793534
0.231178
-0.0255763
0.000443947
-0.00122968
-5.90952e-05
-0.0302825
0.219243
-0.054088
-0.00289555
-0.0340347
0.242501
0.367698
-0.0952416
0.0042163
0.618069
-6.15339e-05
-0.0231145
-0.122217
-0.0557036
-0.000419922
0.708233
0.349484
-0.0122018
-0.000536992
-0.000540811
0.417484
6.89949e-05
-0.00206303
0.184811
0.0120243
0.437881
0.504473
-0.000208991
0.618323
-0.0080934
0.323481
0.0965085
7.16816e-05
-0.0233474
-0.000571113
0.040408
-0.0676027
-0.00114489
-0.0864896
-0.01697
-0.0163962
-0.000700185
-0.0154874
-0.0207907
0.650628
-0.00790307
-0.00234325
0.339045
0.000199728
-0.0030958
0.601994
-0.00325765
0.00417214
0.613506
-0.00146659
-0.0541484
-0.00111275
-0.0178037
0.60411
-0.0149175
0.604654
-0.017321
0.182503
0.564308
-0.00267298
-0.00122642
-0.122615
-0.0348194
-0.00709193
0.508704
-0.02127
0.771375
0.338129
0.645986
0.299153
-0.000110013
-0.00010145
0.744574
0.0778784
-0.0018874
0.751092
-0.00124126
-0.0681496
0.405957
0.652281
-0.00835587
0.662523
-0.0360386
0.087363
-0.00591143
0.568961
-0.0105489
-0.0025977
0.541688
-0.129828
-0.0856459
-0.0130863
0.00379181
-0.0083007
-1.73772e-05
0.494227
-0.00255689
-0.0569613
0.556405
-0.000108028
-0.0372119
0.209278
-0.0199496
-0.0121977
0.220729
0.309356
-0.0223296
0.716894
0.505794
-0.028885
-0.0219094
0.0122398
-0.00131644
0.573121
0.0767652
0.143872
-0.0366889
-0.00663768
-0.0467758
-0.0405031
-0.0194814
-0.0771581
0.672047
0.073045
0.579845
0.36791
-0.00902256
0.286147
-8.23906e-05
-0.00819394
0.606033
-8.94801e-05
-0.0298989
-0.00116661
0.374525
0.518046
-0.0996075
-0.0179467
-0.027096
-0.0926165
-0.0773648
-0.000543455
0.0856493
0.145448
0.764878
-0.00749719
-0.112063
-0.0157644
0.409648
0.130094
0.621406
0.523952
-0.0114994
0.792772
0.338148
0.00014215
0.63639
-0.00417558
0.562308
0.589036
7.00869e-05
0.668301
0.5186
-0.00269062
-0.0196866
-0.000269088
0.387973
-0.0416851
0.720328
0.307065
0.00521601
0.415368
0.0115242
-0.0190182
0.208485
0.664845
0.0554137
-0.0032038
0.727932
0.133653
-0.0644544
-0.0565925
0.707729
0.680419
-0.0172978
-0.0138175
0.0419316
-0.0169659
0.000360333
0.597023
0.633237
-0.0108106
-0.0240355
0.552927
0.603721
0.000712218
0.556352
-0.00181378
-0.000224675
-0.0211408
0.53253
0.69218
0.302105
0.537697
-0.00766538
-0.0126345
-1.82356e-05
0.000616085
-0.00208149
0.204915
-0.0384991
0.56085
-0.0447484
0.522038
-0.0200798
-0.00120225
0.617336
0.757751
0.524758
0.599357
-0.0232691
0.432973
-0.0185486
0.0974418
-0.00218931
-0.10364
0.033108
0.0418569
7.11391e-05
-0.00248476
0.698063
0.211011
-0.00309128
-0.028975
-0.0372806
-0.101021
0.444705
-0.0437857
-0.00684932
-0.0267818
-0.010528
0.000227568
-0.0193575
-0.073083
0.66993
0.0421783
-0.0119678
0.527602
0.677254
-0.0209344
-0.000286259
-0.031337
0.601962
-0.126634
0.646806
-2.7569e-05
-0.0257807
0.539856
0.589528
-0.0211387
-0.0148484
0.719048
-0.0389643
0.00181653
0.658594
0.715978
-0.0231738
0.549447
0.129352
0.55912
0.469685
-0.000281723
0.0321238
0.421019
0.000145394
-0.0554806
0.0794262
-0.141765
0.127238
0.0612183
-6.26362e-05
-0.000869675
0.646323
-0.00354383
-0.0684132
-0.0308985
0.248878
-0.0078694
0.560195
0.120082
-0.0287132
-0.0189736
0.391481
0.224303
-6.01122e-05
0.641081
0.510814
0.630893
-0.0725893
0.000206503
0.71323
-0.00145797
-0.0191035
0.210476
0.0638406
-0.0224898
-0.0524574
0.521159
0.743737
0.589479
0.164037
0.801397
-3.58367e-05
-0.0108834
0.589837
-0.102062
0.416533
-0.0164542
0.612134
0.110435
-0.000882128
0.107155
0.490544
-0.0976724
0.660408
0.496678
6.94712e-05
0.00643529
0.349598
0.233538
0.0013823
0.517485
-0.0132287
0.788957
-0.0400476
-0.0100165
-0.00292339
0.585717
0.509935
-0.00955404
0.390171
0.644216
-0.00370125
0.460844
0.505223
0.793508
-0.00109881
0.269646
0.0293147
-0.0201361
0.00010468
0.610024
0.443287
0.0362968
0.626255
0.179453
-0.0160563
0.426059
0.148758
0.217055
0.790188
-0.0318679
0.182349
0.630318
-0.0293529
0.10481
-0.068429
0.337863
-0.00350465
0.307619
0.0390351
0.175036
-0.00132456
0.32911
0.625564
0.473174
-0.126514
-0.00969474
0.700305
0.702761
-0.00208428
-0.0242287
0.559935
-0.0642703
-0.0087547
0.445272
-0.00362128
0.820976
-0.0156687
0.292518
-0.00378079
0.629889
0.491
0.0463838
-0.0154103
0.00477396
0.1353
-0.00131705
0.558274
-0.0530802
0.349064
0.780607
-0.0736975
-0.00872929
-0.00224476
0.106474
0.041712
-0.0127394
0.463509
-0.000429315
-0.0208238
-0.000341079
-0.0263187
-0.018153
5.46586e-05
-0.0272939
0.196349
-0.110055
-0.0141804
-0.0185056
0.0900009
0.0718408
-0.0253876
-0.0141355
-0.00142766
0.00474489
-0.0700117
0.000233107
-0.017133
0.229064
0.465037
0.0956341
0.00010006
0.733592
0.000367578
-0.000440607
0.0107562
-0.0227945
-0.0299947
0.675097
-0.0124744
0.135595
-0.0589145
-0.0642039
0.433931
-0.0190875
-0.0316221
-0.0519365
7.96543e-05
-0.0292987
0.744766
-0.0963859
-0.0294888
0.461285
-0.0247797
0.466221
0.291752
-0.00160289
0.000368882
0.513499
0.77154
-0.100561
0.353447
0.184991
-0.023324
-0.0243318
0.558698
0.0734233
-0.119023
-0.0648032
-0.00609118
0.0257451
0.698501
0.179519
-6.98398e-05
0.664956
-0.0131906
-0.0335226
0.530897
-0.0010825
-0.0037531
1.32751e-05
0.0100402
-0.0142133
-2.54292e-05
0.347387
-0.122944
0.562251
0.000232942
-0.00119881
-0.0254393
-8.70199e-06
-0.103675
-0.113989
-0.00124453
-0.0274394
-0.0210988
0.521135
0.632451
-0.00123691
-0.000523226
-0.0435245
0.638861
-0.00924273
0.638933
-0.00630776
0.782044
0.475334
0.292903
0.755683
-0.0419499
-0.00149606
0.0294399
-0.00794669
0.626031
0.554793
-0.00854252
-0.0939739
0.0886188
-0.0175881
-0.000254655
-0.107189
-3.45937e-05
0.528057
-0.0177222
-0.0275022
-0.0103534
-0.021095
0.295137
0.106487
0.000438459
-0.00989185
-1.37687e-05
0.781493
0.691815
-8.81404e-05
-0.00966552
0.000897235
0.552789
-0.0223191
0.1873
-0.0269676
0.596544
0.291364
-0.0154311
0.813488
0.0206782
0.581741
-0.00507653
-0.0742092
0.658024
-0.00992163
0.780782
0.538073
0.793298
-0.00152412
-0.00131187
-0.0346117
0.0429109
-0.000821388
-0.029463
0.583208
0.60501
0.469731
0.632832
0.77418
0.3556
0.62639
0.473162
-0.00398699
0.520666
-0.0301531
-0.0267479
-0.000224054
-0.0191217
-0.0784422
0.388579
0.0542274
0.563604
-0.0172993
0.114812
0.543711
-0.00747251
-0.0152981
-2.55348e-05
-0.00019832
0.387265
-0.0305091
-0.0238206
-0.000230198
-0.000736494
0.078834
0.000125623
0.0752287
0.784248
0.36689
0.348087
-0.00922318
0.554963
0.117984
-0.00845433
-0.00978855
-0.000855689
3.43942e-05
-0.00139164
-0.0103215
-0.0736721
0.398037
0.0226249
-0.0115453
-2.79586e-06
0.587774
-0.000422481
-0.0695743
-0.00965806
0.156278
-0.0240461
-0.00946879
0.544104
0.722233
0.498651
-0.00479352
0.505649
-0.00856642
-0.0205839
0.388266
-7.54696e-05
-0.011953
0.278008
0.348927
-0.0150228
0.545339
0.686029
0.531206
-0.0235038
-0.0169201
-0.00739235
0.154229
0.505961
-0.000230635
0.655853
-0.0197568
-0.0750564
0.0391901
0.742426
0.401796
0.560769
-0.116459
0.763492
-0.0137031
-0.0199469
0.80023
0.03706
-0.0613029
0.573646
0.596477
-0.0198888
0.499643
0.63912
0.591415
0.545477
0.582599
0.480465
-0.00328715
-0.0139013
-0.00171665
-0.0658963
0.62487
-0.0612478
0.234635
0.237434
-0.0257221
0.083892
0.273177
0.635375
0.0871549
-0.000956788
0.0298984
-0.0237051
-0.0404589
-0.0562824
-0.0684962
0.53946
0.658975
0.0642348
0.631032
0.776149
0.000857068
-0.000559181
-0.00184709
-0.00742888
0.433847
0.784004
0.186467
0.555814
-0.0117132
0.484034
0.497388
-0.0928201
-0.0145214
-0.0240357
0.231058
-0.0119137
0.0339938
-0.0223413
-0.0263902
0.56464
-0.00110686
-0.0155221
0.597724
0.0774249
0.717203
-0.03726
0.465314
-0.0544662
-0.0305227
0.65299
0.717561
0.624461
-0.0125453
0.722482
-0.0215348
0.651394
0.0224883
0.621647
-0.0226491
-5.94541e-05
0.623457
0.656552
0.651966
0.623704
0.386433
0.111723
0.447558
-0.060465
0.623174
0.540784
0.00400563
0.0572331
-0.00352875
-0.0374911
0.551411
-0.0226526
-0.0093287
0.635773
0.631717
-0.0268799
0.615196
-0.0782236
0.140662
-0.000178328
0.643007
0.654012
0.775908
0.645766
0.000162471
-0.0126561
-0.00020935
-0.0332339
0.712027
0.327148
0.541052
-0.0248926
0.475649
0.00270891
0.714896
-0.0275723
0.633945
-0.000365952
0.696126
0.729636
-0.0131304
0.170591
0.691238
0.000356737
0.741033
-0.0158625
0.000459311
-0.0145673
0.58725
0.265945
-0.0477765
0.623454
0.744455
0.493511
0.0223277
-0.0275051
0.0199354
0.630529
0.725191
0.803619
0.316532
-0.00259876
-0.00487016
0.54921
-0.00201416
-0.00325695
-0.00253798
-0.0114767
-0.0692253
-0.0937131
0.669481
-0.0113135
-0.00016959
0.527908
0.308322
-0.00336303
0.198368
-0.000626271
0.261308
0.535724
0.619908
-0.0854202
0.196752
-0.0049882
-0.0228827
-0.000424444
0.635692
0.674215
-0.115914
-0.110767
-0.0997356
-0.0304547
0.626999
-0.0223443
-0.0639017
-0.0829425
-0.0102288
0.757038
-0.0944485
0.0544309
0.638166
-0.000457775
0.128546
-0.0167649
-0.0753697
-5.63083e-05
-0.000901595
0.753543
0.45642
-0.11874
0.00591047
0.475281
0.607235
0.537596
-0.0510396
-0.0226144
-0.0187094
-0.0217831
0.5131
-0.00847148
-0.0273107
8.51786e-05
-0.0133468
0.000125386
-0.079268
0.591191
-0.065266
0.637881
0.624475
-0.0256233
-0.0131469
0.770696
0.486657
0.0486478
-0.0147249
0.480286
-0.0251843
0.426279
0.754193
0.428002
-0.0084523
-0.0165893
0.574672
-0.0274008
-0.0587135
-0.0288796
0.684006
-0.0198035
-0.0107262
0.469191
0.368272
0.524382
-0.0167418
0.406427
-0.02701
0.636497
-0.0873357
0.259792
-0.0293378
-0.0312096
-0.000158741
0.000129688
-0.000417522
0.687155
-0.0388981
0.462511
0.12813
-0.0353182
-0.063235
0.339263
0.777348
0.704559
-0.0469779
0.313131
-0.0117435
0.0969451
-0.00826293
0.233087
-0.0242181
-0.00177928
0.505741
-0.0320439
0.000681569
0.676921
0.565693
0.652576
0.0241684
-0.0423796
-0.010201
0.328225
0.000621394
-9.80316e-05
0.687734
0.166737
0.297646
0.00753995
8.78574e-05
-0.00882279
-0.000652351
0.281217
-0.000460701
-0.0172601
-0.00782215
-0.0240769
0.707272
9.60464e-06
-0.0318647
-0.0178827
0.730884
0.00353208
-1.11212e-05
-0.0822588
0.20742
0.526932
-0.0123734
-0.0113474
-0.0184572
0.539656
-0.0157786
0.307498
-0.0889066
-0.0903152
0.151353
0.518149
0.128638
0.309276
5.79886e-05
0.563956
0.735282
-0.00723167
0.450921
-0.0398297
0.749677
0.722148
-0.0666135
0.104834
0.0722851
0.454233
-0.000270092
0.621878
0.791497
-0.00122174
0.234285
0.375606
-0.0009652
-0.000360302
-0.0090087
0.777862
-0.0105636
-0.0337056
0.631228
-0.00311749
0.445057
0.646757
-0.0179912
0.695966
-0.0224503
-0.0138035
0.650143
0.319997
0.523549
0.000115618
0.653649
0.27929
0.619058
-0.0554433
-0.00815926
0.23979
0.688562
0.649763
0.70096
0.629909
-0.044333
-0.0164995
0.0348818
0.479108
0.620126
0.732366
-0.0222991
0.376572
0.745437
0.590913
-0.000936295
-0.022076
-0.00868912
0.218726
-0.0292697
0.670811
0.330332
0.617444
0.158773
-0.0139987
0.621213
-0.0120426
0.490231
-0.0685841
0.0836307
-0.0116539
-0.0634351
-0.0515032
0.727376
-0.0476231
-0.0205813
-0.024017
0.278126
0.11161
-0.019054
0.0691623
-0.00580897
-0.0569268
0.508336
0.285026
0.552367
-0.0984421
0.642073
-0.0595458
-0.000664095
-0.00967395
-0.0105339
-0.0891499
-0.0998601
-0.00307935
0.38404
0.70547
0.252336
0.0900726
-0.0258973
-0.0546109
0.445152
-0.0179398
0.748695
0.393123
-0.000786162
-0.0152485
0.020522
-0.054559
-0.0167052
-0.0206063
-0.00181354
-0.0783879
0.373675
0.716506
0.663874
0.335098
0.000207045
-0.0214553
0.000212495
-0.00893361
0.517181
-5.22547e-05
0.496928
-0.0549599
-0.0121302
0.711659
0.725993
-0.000794056
0.628398
0.661444
0.205307
-0.00969169
0.263169
0.514151
0.723629
0.432746
-0.0561251
0.708422
0.129099
-0.0309241
-0.0351995
-0.0645293
0.739405
-0.013864
0.639282
0.403432
0.70325
-0.0245205
0.452422
0.472875
-0.0689127
0.650778
0.00841002
0.685187
-0.000320608
0.429154
0.493993
0.494908
-0.00205088
0.0186237
-0.00180399
-0.0243395
0.401813
-0.0171971
0.460376
0.439731
0.781087
-0.00472715
0.689641
-0.00595705
-0.00621342
0.0695849
0.627441
0.152481
-0.0125047
0.0869609
0.550491
-0.0044722
0.766565
-0.00250356
-0.0336509
0.127762
-0.010799
0.632141
-0.0356601
0.666472
0.539003
0.205821
0.054233
0.24246
-0.000838878
0.0409647
0.680773
-0.0319055
-0.0198912
0.415027
0.104094
0.0155442
0.0562348
-0.00721456
0.706656
-0.0191371
0.0639211
-0.0372804
-0.0239544
0.61728
0.785463
-0.0171311
-0.058245
-0.000463055
0.132265
-0.00075259
0.194874
0.727009
0.698926
-0.00935696
0.251996
-0.000271329
-0.0248545
0.571904
-0.00860339
0.32363
-0.0133372
0.768541
0.554281
-0.0684534
-0.0106786
-0.0259245
0.767296
-0.0214679
-0.000890028
-0.00407637
0.204381
-0.0615947
-0.00981104
0.173756
0.70756
-0.0794101
0.744201
0.80468
-0.0178713
-0.0221924
-0.000548125
-3.86297e-05
-0.0331325
-0.0291228
0.760327
-0.01224
0.0001646
0.496332
-0.0496164
0.543728
-0.000543212
0.00590007
0.541624
0.503674
-0.0667927
-0.0189528
-0.0541118
0.594537
-0.0204499
0.347466
-0.0240673
-0.00946152
-0.0237712
-0.00796912
-0.00341368
-0.0821645
-0.0782875
-0.0676211
0.00179383
0.175381
-0.000784611
-0.021432
-0.0559138
-0.0137795
-0.0227018
0.708664
0.0547966
-0.0227065
-0.0124983
0.581202
2.30094e-05
0.511942
-0.0383768
0.0629703
-4.03766e-05
0.539
0.353483
-0.0264268
-0.0263657
-0.0283017
0.439936
-0.000340877
0.500168
0.589857
-0.0072766
-0.0290823
0.191192
0.181635
-0.0537652
0.218649
0.560603
-0.0119074
0.478961
-0.0272714
0.0122574
0.460812
0.728358
0.0309476
-0.00386834
0.617003
0.478152
-0.0144222
-0.0345492
-0.0957106
0.0176935
-0.0122097
-0.0024917
0.575639
-0.103948
-0.0369061
0.577803
-0.0508846
-0.0227508
0.359129
-0.000750084
0.243575
0.495933
0.00732143
0.502393
-0.0107004
0.697102
-0.0579526
-0.000345048
7.7269e-05
0.0351509
-0.000580326
-0.0117152
0.247341
-0.0319147
-0.00357048
-0.026105
-0.0135291
0.314619
0.632582
0.000160306
-0.0103806
-0.00765344
0.46808
-0.0540483
-0.0144672
-0.0125043
0.107854
0.363831
-0.0113475
-0.00471598
-0.0448071
0.537501
0.578828
0.204919
0.507108
0.658785
-0.00932322
0.471841
0.182532
0.0299427
-0.0126202
0.0080107
0.793973
-0.00899331
-0.0633133
-0.0220957
0.536171
-0.00567127
-0.00173656
-0.0226822
-0.0259046
-0.000904589
0.634089
0.393809
0.483201
0.585677
0.510157
-0.00416092
0.227012
0.413451
0.0438897
0.620838
0.299836
0.411555
6.33512e-06
0.423513
-0.0357332
0.284939
0.421957
-0.0769521
0.135884
0.114863
-0.0169095
-0.00305778
0.0559122
0.268961
0.716925
0.293997
-9.12799e-05
0.373811
-0.0108508
0.425531
0.324269
-0.00543161
-0.0182365
0.465977
0.633519
0.17723
-0.0228549
-0.0127639
0.291553
0.480042
-0.019633
0.568074
-0.0149591
0.237067
0.00635143
0.672582
-0.000548607
-0.000646991
-0.00275699
-0.0126062
-0.0610373
-0.0049616
0.487741
0.580981
0.000671587
0.362696
0.000672921
-0.00521012
1.64773e-05
0.309217
-0.00869292
0.374133
2.3991e-05
0.490779
-0.0163247
0.556552
-0.0811876
0.597337
-0.0225285
-0.00569754
0.000330964
0.640261
-0.0246993
0.103756
0.215667
0.0022065
0.550131
-0.00526018
-0.00775568
-0.0127584
-0.0012807
0.63766
-0.00290066
-0.0137038
-0.0115127
-3.87102e-05
-0.00566355
0.563548
-0.000450902
-0.0220894
-0.00262346
-0.001482
0.523158
-0.0924646
0.0810742
-0.0350628
-0.000881128
-0.0101327
-0.0247311
-0.0120337
-0.000816048
-0.00523413
0.33192
-0.000328548
-0.00939234
-0.0301831
0.223301
0.620365
-0.00376349
-8.28896e-05
-0.0166436
-0.0250227
0.511747
0.571782
0.641082
3.03141e-05
0.277106
-0.0202155
-0.0174627
0.395489
-0.0184833
-0.00503416
-0.00511029
-0.00684684
-0.0121788
-0.0117133
-0.00608076
-0.00184815
0.0105012
0.485664
0.00289066
0.370236
0.109962
0.0677651
0.302734
0.199522
0.426565
0.0289581
0.482758
-0.000817718
-0.01257
0.452213
-0.0317075
0.515205
0.492599
-0.0162077
-0.0198461
-0.000320664
-0.0119207
0.0202385
-0.00687632
-0.00659625
-0.00966784
-0.00568552
-0.0141065
-0.0195281
-0.0054557
-0.003209
-0.0260027
0.427596
-0.0128369
-0.000178553
-0.0182843
-0.00339773
-0.0154303
0.568919
0.549138
0.302136
0.679557
-0.00655256
-0.0299591
-0.0128711
-0.00219307
-0.00351398
-4.76678e-05
2.12048e-05
0.289703
0.173678
-3.52449e-05
-0.0739412
0.159416
0.294244
-0.0366627
-0.00504275
-0.00687255
-0.00310569
-0.000661324
-0.00183998
-0.0153522
-0.0298932
0.694567
-0.00232332
-0.0289261
-0.0122186
-0.0206821
-0.00374358
-0.00428863
-0.000725587
-0.00503464
-0.0158844
-0.0137132
-0.0338205
0.128011
-0.00784368
0.360841
-0.0110569
-0.000479605
-0.0281416
0.51272
0.53545
0.41129
0.0146729
-0.078009
-0.0258831
-0.0824503
-0.0248713
-0.0846589
-0.0202799
-0.0814776
-0.000911703
-0.00789108
-1.80605e-05
0.0952806
-0.000777805
0.000312637
-0.0112139
0.721045
-0.0164246
-0.0871268
0.683311
0.701335
-0.00654417
0.68898
0.654645
0.523344
-0.00312113
-0.108971
0.70306
0.000256431
-0.000343717
-0.00759625
-0.012064
-0.00374184
-0.0153237
-0.0119341
-0.0121267
-0.00931067
-0.0166992
0.000290164
-0.0359594
-0.00461119
0.769399
-0.00684035
-0.00465606
0.766923
-0.00198768
0.733179
0.69436
0.484438
-0.00584262
0.769194
0.11551
0.602396
0.00276651
-0.000507589
-0.00737544
-0.0143625
0.0620304
0.628597
-0.000392527
-0.000531764
-0.012116
-5.8555e-05
-0.116469
0.289427
-1.01815e-05
0.509705
-0.0375379
-0.00316427
-0.0220744
-0.00588946
0.215019
-0.00254378
0.700908
-0.000619588
0.654769
0.00133385
-0.0155791
7.79992e-05
-0.0138669
-0.00831295
-0.0140093
0.588976
0.625213
2.46635e-05
0.702681
-0.0218501
-0.00170491
-0.020388
0.662019
-0.115432
0.000138595
-0.000380913
-0.000984775
-0.000667772
9.86354e-05
-0.000909017
0.709667
0.000160494
-0.000636805
-0.0142404
0.750422
0.80585
-0.000235179
-0.024561
0.523261
0.761416
-0.027158
-0.0111708
-2.34746e-05
0.0164507
0.639462
0.511653
-0.000851101
-0.00754299
-0.0203586
0.671567
-0.0731745
-0.0112345
-0.00848983
-0.00653986
-0.0192571
0.546646
7.87312e-05
0.687123
-0.000899882
0.737053
-0.00119456
0.699619
-0.00640423
0.0919524
-0.017352
4.01072e-05
-0.000494541
-0.00445608
-0.00939298
-0.0083129
-0.000613259
-0.00199845
-0.000276158
-0.0200407
-0.000636396
-0.00703254
-0.0067771
-0.00161867
0.135577
-0.000664929
0.509411
-0.0111116
-0.0109777
-0.00246461
-0.0952478
0.759355
-0.00579596
-0.0054833
-0.00620546
-0.0222183
-0.00627308
0.490863
0.539751
0.000443821
-0.00569607
-0.0408785
0.166105
0.687916
-0.0178357
0.479134
0.563098
2.48349e-05
-0.0273236
-0.00588497
-0.000716895
0.000306083
5.38749e-05
-0.000589336
-0.00164329
-0.00368515
0.000755283
-0.0161024
0.00754823
0.316658
-0.0606635
0.509025
0.164899
-0.0755353
3.48106e-05
-0.000472206
0.635231
-0.00140712
-0.0214544
8.85354e-05
-0.0157103
-0.00903311
0.400415
0.0786967
0.713001
-0.000445983
-0.00107342
-0.0119633
0.349456
-0.000232103
0.682487
0.170785
-0.00795839
-0.00199181
-0.0511972
0.00710345
0.483858
0.0454802
0.640558
-0.020737
-0.000169138
-0.00127901
-0.00661884
-0.000185324
-0.0003552
-0.000786232
-0.0103237
-4.89063e-05
-0.0186431
2.48605e-05
-0.0199742
-0.0633296
-2.10944e-05
9.87582e-05
-0.000396188
-0.000462102
-0.000206678
-0.00516175
0.0258271
-0.000594265
0.0714239
-0.00395418
0.520423
-0.0161494
-0.0470696
1.15612e-05
-0.0444496
-0.0288116
-0.0148025
-0.0037201
2.93134e-05
-0.00302466
4.3044e-05
-0.0506864
0.0347275
0.170366
-0.0951351
-0.000456068
0.067038
-0.0846875
0.55971
0.432009
0.528128
0.00019561
-0.00204987
0.000105045
-0.0012296
0.659581
0.493408
-0.00195147
-0.00315228
0.359474
0.493846
0.720486
-0.000398142
-0.00122261
-0.00696687
-1.25409e-05
-0.000400302
4.55667e-05
-0.0027047
-0.00231881
0.518933
-0.0190008
-0.000710944
0.00157725
-0.000773929
0.0192699
0.000187707
0.361642
-0.000852605
0.209453
-0.0258057
-0.0145076
0.246631
0.184592
-0.000374038
0.254125
0.683653
-0.0222017
0.534693
-0.0129994
-0.000916668
0.576286
-0.00170852
0.502251
-0.000647339
-0.017949
-0.0539661
-0.00168896
-0.00643633
-0.000667193
-0.000226421
0.0203438
4.27293e-05
-0.00617251
-0.0119761
0.69256
-0.016327
-0.000622612
0.507926
1.47531e-05
-0.000503955
-0.00731422
-0.00116414
0.680001
-0.000280374
-0.000584075
-0.00715997
0.150453
-0.0216765
-0.000565943
0.000315335
0.0994081
-6.4782e-05
-0.000429712
0.62307
0.74619
-0.00148319
0.0140345
-0.00150917
0.544792
-0.000271386
-0.000474056
-1.82801e-05
2.31356e-05
-0.0499579
-0.000788524
-0.000556023
-0.102215
-0.000931813
-0.0492508
0.000275145
-0.000294031
0.00224386
0.582194
0.612233
-0.00707549
0.476177
0.0794638
5.73923e-05
0.498334
-0.00709257
-0.000578871
-0.000864182
-0.0278478
-0.000383488
0.00469014
-2.08648e-05
-0.0262495
0.260446
-0.008798
-0.00686428
0.195421
0.403609
0.193979
-4.95084e-05
1.20897e-06
-0.00396105
0.33537
-0.00372174
-0.0598715
0.000134224
0.493464
-0.0975157
0.582601
0.415948
-0.00272616
0.23486
2.13268e-06
0.513824
0.0337229
-0.0225603
-3.19283e-05
-0.000546327
-0.00147636
-0.00206873
-0.00137052
-0.00376211
0.184217
-0.000123194
0.351765
-0.000623489
-0.000151647
6.84911e-05
0.123485
0.00166096
-0.0027381
-3.52007e-05
-0.000207548
0.322725
-0.00432593
-0.00157977
-0.00197773
0.0954313
-0.00258362
-0.00049285
-0.000489642
0.562639
0.60338
0.628434
-0.000385423
0.605517
0.550747
0.610182
7.75316e-06
0.000178835
-0.000365299
0.374121
0.451437
-0.0711756
-0.0230211
-0.00613195
-0.00850329
0.101417
-0.0012518
0.000123785
0.476028
-0.000668591
-0.00177137
0.000125375
-0.00155686
0.609048
-0.0270285
-0.000650823
2.9819e-05
0.663841
0.547515
0.0102587
0.316497
-0.00121679
-0.00152059
-0.00212012
-0.0129347
-0.0237431
-0.0301978
0.295713
-0.00378474
0.159125
-0.000274398
0.591242
-0.0165904
-0.00604439
0.528451
0.007594
-0.0081149
-0.00587832
-0.02716
0.211235
-0.00631325
0.000244378
0.48165
-0.00038746
-0.00944174
0.0777511
-0.00029697
-0.000129363
-0.00060515
-0.0137601
-0.00478762
0.0629517
0.000121407
0.0494258
-0.0164499
0.0389663
0.0297921
-0.00468919
-0.00752456
0.0230541
-0.0114835
-0.00178978
-0.000938804
0.400162
-0.00197651
0.00015763
5.41179e-07
-0.0145465
-0.0298366
-7.44044e-05
0.401696
0.578496
-0.0129117
-0.00715442
-0.0047026
6.86031e-05
0.000126312
-0.00700529
0.000201251
0.0538081
-0.000231664
0.00410633
-0.0144788
-0.00512332
-0.000519181
-0.000176873
0.386442
-0.000197136
0.131835
0.430517
-0.0172489
-0.0248251
-0.00472526
0.000128392
0.112423
-0.012685
-0.00669129
0.0923003
0.24576
-3.07908e-05
0.0732087
0.282294
-0.000147617
0.186484
-0.00612858
-0.0133634
0.478511
-0.00168604
-0.000185939
-0.000332497
0.448074
-0.0974025
-0.0200598
-0.00648234
-0.00463289
0.000290525
-0.00913443
-0.00975079
0.158842
0.637412
0.7064
0.526415
-0.000125122
0.383654
0.139265
-0.00777504
-0.00653919
0.376129
-0.0165462
-0.11863
-0.000201533
-0.00634265
0.497477
1.17316e-05
-0.0571659
-0.00547115
-0.0219153
-0.000440385
0.535144
-0.0202897
0.522344
-0.00988673
-0.00299066
-0.00598526
0.000205442
0.460745
-0.0098003
-0.000207266
-1.34773e-05
-0.0659822
0.0265708
0.223115
-0.00760181
-0.000791679
0.256319
2.25721e-06
0.35072
0.20052
-0.000488989
0.358554
-0.0437348
-0.000134333
-0.00723258
0.000358676
-0.000721496
-0.00721728
0.428197
-0.019808
-0.000918168
-0.0438823
-0.00390045
0.442117
0.610683
-0.000417117
-0.0107871
0.000192683
-0.00382206
0.469774
0.00590194
-0.000561625
0.325471
0.20745
0.521751
-0.00862807
-0.00050355
0.378021
-0.00455516
-0.01042
0.0100887
0.645522
-0.0318549
-0.00851245
-0.000655976
-0.0037255
0.641116
-0.0180799
0.728737
0.231568
-0.00621659
0.000439824
-0.0222037
-0.0263762
-0.000192401
-0.00936999
0.632358
-2.04422e-05
-0.0192839
0.641115
0.000342687
-0.0101192
-0.000219995
8.45642e-05
-0.00022603
0.0415421
-0.0073004
0.000210342
-0.0764413
-0.000412669
-0.000193316
-0.000151936
-2.86197e-05
-0.0243152
-0.000173475
0.000559021
-0.0183286
-0.0164001
0.725577
0.0577818
-0.0074102
0.000418894
-3.40227e-05
-0.00971708
-0.000120825
0.166975
0.507656
-0.000126315
-0.0210057
-0.00761376
0.108135
-0.00197252
0.760115
-0.000857802
0.000568866
0.349474
0.00195202
-0.000194682
-0.019488
0.505125
0.00039806
0.491681
0.514001
-0.010597
-0.0207396
0.593477
-0.00903442
0.000626908
-0.0196513
0.398597
0.168079
-0.0269624
-9.35371e-05
0.617085
0.000494824
0.00592756
0.000582042
0.000657722
0.699218
-0.00131584
-0.000107987
-0.0107508
0.303359
0.731448
0.499376
0.772465
-0.00161685
0.685712
-0.000114688
0.401869
0.00075013
0.000145659
0.238912
-0.0150206
0.151823
-0.000265123
-0.0270171
0.737312
-0.0149698
-0.021832
-0.00135025
0.000565343
0.250904
-0.000938529
-0.0167525
-0.000184648
-0.0202186
0.000103694
0.746746
-0.00619079
-0.0102248
0.108924
-0.0698903
0.224275
0.487126
-0.000250198
-0.0638286
0.287647
0.538025
0.761845
1.52009e-05
-0.0764898
-0.0715129
0.000602869
0.322058
0.356012
-0.0758201
0.646411
0.174907
0.269954
-0.00595399
0.480595
-0.0122242
-0.000471133
-0.000107253
-0.000204793
0.000366125
-0.00106877
-0.00752477
-9.53099e-05
-0.000533827
0.000922454
4.44292e-05
0.353414
-0.0330569
4.04252e-07
0.741809
-0.00037425
-9.17955e-05
0.61078
0.761737
-0.0173716
-0.0113516
0.587498
-0.00271903
0.677632
0.0905002
-6.81223e-05
-0.0518326
-0.0236343
-0.00161989
-0.000483518
0.511791
-3.74383e-05
-0.000274063
0.654078
0.000378049
-0.00150262
-0.0360379
-0.00780284
-0.0112725
-0.00031072
0.0979579
-0.0109063
-0.000187708
-0.0129811
0.000379375
0.375585
2.92132e-05
-4.22092e-06
0.000344334
0.634685
-0.00279012
-0.000506693
-0.000409662
-0.00106515
0.615779
0.00266929
0.185994
0.590413
0.000248022
0.70273
0.570199
-0.000382935
-0.0520737
-0.000361917
-0.00707172
0.677755
-0.00178976
0.000450261
-0.000128196
-0.0130349
0.000565526
0.000472931
-0.000352045
0.693471
-0.000121476
0.526448
-0.0159539
-0.0575166
-0.000131969
-0.0383531
-0.00141597
0.603433
0.613983
0.224415
-0.000944754
-0.0304799
-0.0517327
0.220462
0.152589
0.339412
-0.0687466
-0.0421754
-0.0127878
-0.000138619
-0.000754361
0.00055141
-0.00162955
-0.00112634
-0.00136793
-0.00104151
0.000349675
-0.00771019
-0.00333441
-0.00143208
-0.0127743
-0.000312518
-0.00198214
-0.00017335
0.811691
0.136269
-0.00296956
-0.00187437
-0.00242153
-0.000135669
-0.000392501
-0.00203001
-0.00167663
-0.0262376
-9.33772e-05
-0.0131345
-0.000632736
0.000565141
-0.000263784
-0.0136993
-0.0273373
-0.00251099
0.640647
-0.0113489
0.513503
-0.0294731
0.664219
-0.0215541
-0.0231302
-0.0247206
-0.0260405
-0.0262256
-0.0278287
-0.0282294
-0.000248634
-0.0288498
-0.0284649
0.610189
-0.0305463
-0.0213516
-0.029924
-0.000457761
-0.0516345
-0.00708337
-0.000132522
-0.0038697
-8.54181e-05
-0.000846973
0.0354836
0.000612444
0.294855
0.540832
-0.00563417
-0.000718462
-0.0108719
-0.002035
-0.0036086
-0.00682626
-0.0101207
0.000116741
0.751433
-0.00442916
-0.0120857
-0.00484132
0.000612417
-0.00314781
-0.00077506
-0.0220464
-0.00430802
-0.000204632
-0.00147445
0.0496668
-0.000169504
-0.000194536
-0.0055282
0.0147619
-0.00033429
-0.00103077
-0.000554268
-0.000152158
-0.000344203
-0.00149951
-0.000301836
-0.000113815
-0.00133544
-0.000234609
0.599635
3.23142e-06
-0.000224685
0.000716918
-0.00144105
-0.000306334
-0.000329871
0.419253
-0.006464
0.572279
-0.0021263
-5.51732e-05
-0.000162068
0.498383
-0.0523909
-0.000306843
-0.000149574
-6.42118e-05
-0.00462732
-0.00170371
0.00678249
5.81229e-05
-0.0267236
4.6108e-05
-0.000115609
-0.000127303
-0.00260223
-0.000819448
-0.0361295
0.58742
-0.0298697
-0.00370776
-0.000102296
-4.29243e-05
-0.0163282
-0.000166841
-0.00592263
-0.000524829
-0.000337458
-0.000472034
-0.00767331
-0.00461459
-0.0853474
7.15808e-05
-0.00015046
-0.00929662
8.76415e-05
-0.0031507
-0.00127237
-0.00108176
-1.70812e-05
0.682543
9.44623e-05
0.777352
-0.00722853
-0.00175364
0.00109497
-0.000160629
-0.000218385
0.0113913
-0.000324972
-0.0473993
-0.00038753
-0.0497374
-0.00387457
0.000138852
-0.000209745
-0.00274753
0.690554
-0.000314557
-0.0171713
0.000188714
0.585545
-0.0289219
-0.0480582
-0.000212658
-0.0690791
-0.00239516
-0.0930599
-0.016506
-0.000251083
-0.000419668
0.724322
-0.0447937
-0.00237685
-0.00201433
-9.94202e-05
0.51779
0.581113
-9.32567e-05
0.000367415
0.452219
-0.000251072
-0.00519668
-7.1882e-05
-0.000501466
-0.0238786
-0.0192627
-0.0947958
0.0110574
-0.000881011
-0.000219809
-0.000198523
-0.0384171
-0.0137897
0.366673
-0.00780294
-0.000117182
0.560974
-0.00484678
-0.000492332
-0.0300782
-0.00182372
-0.0010976
-0.000257753
-0.00529502
-0.001088
-0.0133084
-0.000215923
-0.000745638
0.360954
-0.00523731
0.45635
0.664784
-0.00236587
-0.00403906
-0.0608757
-0.00554036
0.736286
0.00092096
-1.22812e-05
-0.000117929
0.532947
0.691099
0.344978
0.0436827
-0.0200394
-0.000210755
-0.0110149
-0.000556853
-0.000668374
-0.00331597
0.48557
-0.0183339
-0.00037992
-0.00141756
-0.00131292
0.11059
0.505143
-0.01638
-0.0081598
-0.0015332
-0.000669933
-0.000343317
0.672054
-0.000957239
0.000206896
2.59995e-05
0.000594869
-0.0107837
0.115287
-0.00602644
-0.00623768
-0.0172311
7.67971e-05
0.00173339
0.492399
-0.0138698
-5.03521e-05
0.000348621
0.502135
-0.00189054
0.161834
0.598785
-0.000552221
-0.000129173
0.171078
0.456943
0.225973
0.383319
-0.0308735
4.64279e-05
-0.000386238
0.482873
-0.0037786
-0.00130895
-0.0277317
-0.00807444
-0.0488492
-0.0182816
-0.00230456
-0.000406491
0.459762
-0.00152827
-0.0143572
0.61172
-0.014692
0.580753
4.62247e-05
-0.0128959
0.553951
0.734983
-0.00635316
-0.00547728
-0.00695937
-2.4113e-05
-0.00330833
0.571783
-0.000777105
-0.0204484
-0.00271271
-7.8906e-05
-0.00083008
-0.00164448
4.39466e-05
0.410034
5.87777e-05
-0.00537688
-0.00135101
-0.00064184
-7.1441e-05
0.288615
0.528915
-0.0200545
-0.0228783
-0.0248428
1.6124e-05
-0.000594265
7.72993e-05
-0.0243926
-0.0257997
0.317745
0.532037
-0.0269476
0.296536
-0.00411607
-0.0371379
-0.00415572
-0.0269522
0.384269
0.258988
-0.0284783
0.000616193
0.542644
0.410224
-0.00344096
-0.000255474
0.00022955
0.679535
-0.000762906
-0.00020441
-0.00163875
-0.000247424
-0.000152658
-0.000773564