/*--------------------------------*- C++ -*----------------------------------*\
  =========                 |
  \\      /  F ield         | OpenFOAM: The Open Source CFD Toolbox
   \\    /   O peration     | Website:  https://openfoam.org
    \\  /    A nd           | Version:  7
     \\/     M anipulation  |
\*---------------------------------------------------------------------------*/
FoamFile
{
    version     2.0;
    format      ascii;
    class       volScalarField;
    location    "38.5";
    object      p;
}
// * * * * * * * * * * * * * * * * * * * * * * * * * * * * * * * * * * * * * //

dimensions      [0 2 -2 0 0 0 0];

internalField   nonuniform List<scalar> 
19930
(
0.00251967
0.00618927
-0.00526603
-8.83736e-05
-0.00316319
-0.00332714
-0.0924384
0.250815
-0.0393165
0.232544
-0.0933106
-0.0601855
-0.0208186
0.00230786
0.000448006
-9.16145e-05
-0.174887
0.131001
-0.0504062
0.00657624
-0.0374325
-0.0534907
0.222114
-0.132325
-0.00668567
0.683651
-0.00396474
-0.0208745
-0.176381
-0.0532341
0.000161886
0.881186
0.095264
-0.00938396
-0.000559974
-6.92953e-06
0.285786
0.000137714
-0.00874623
0.0900064
-0.00711854
0.163804
0.499837
-0.00365798
0.688687
0.0148496
0.243572
-0.120608
0.000205619
-0.0139656
-0.000551834
-0.00074756
-0.144805
-0.00133319
-0.172148
0.00195069
-0.00892006
-0.000112261
-0.0198884
-0.173335
0.776213
0.00936628
0.00228933
0.192351
0.000531183
-0.00145925
0.672627
-0.00138055
-0.0540811
0.678125
-0.0200964
-0.187849
0.000429191
-0.0120868
0.687866
-0.0455932
0.662052
0.00445893
0.0908615
0.615084
-0.00128043
-0.00218884
-0.169874
-0.0370474
0.0104879
0.509142
-0.0171488
1.00179
0.196993
0.743936
0.19994
-0.000183602
-0.000104509
0.944161
-0.129402
0.0026018
0.955318
-0.00101199
-0.0826032
0.355453
0.754649
0.000700248
0.780071
-0.109938
0.0268544
-0.0511486
0.56802
-0.0844877
0.0114991
0.481106
-0.186907
-0.0911828
-0.00508166
-0.0119143
-0.0410997
-2.26817e-05
0.456291
-0.00140414
-0.122964
0.601126
-0.00017651
-0.0466028
0.0882796
-0.0247499
-0.00948577
0.130385
0.00534032
-0.0201182
0.897413
0.475929
-0.0249776
-0.0120833
-0.00696797
-0.00742509
0.585945
0.0198393
-0.0921296
-0.042316
0.000585056
-0.0447003
-0.0481539
-0.0134363
-0.198685
0.796242
-0.0633448
0.597267
0.0564914
0.00315893
-0.00244942
-0.00455563
0.00438525
0.663021
-9.92793e-05
-0.0312921
-0.00211991
0.0527463
0.52584
-0.137859
0.00278878
-0.0221086
-0.182422
-0.0852839
9.72629e-05
-0.0557416
0.0646715
0.987947
0.0013976
-0.15415
-0.0426059
0.283455
-0.0970187
0.709293
0.399661
-0.00751809
1.03464
0.0772557
0.00181786
0.747868
-0.040365
0.519413
0.610248
0.000124867
0.801709
0.429804
0.00630153
0.00211383
-0.0190184
0.329559
-0.108686
0.908937
0.0167763
-0.127179
0.369735
-0.0467126
0.000973416
-0.0400781
0.792193
-0.123666
0.00550666
0.923844
-0.0643142
-0.168546
-0.134038
0.882874
0.828113
-0.00506913
-0.0140754
0.000846911
0.00139929
0.00134291
0.66109
0.742656
0.00108185
-0.00879069
0.508261
0.687228
0.00407162
0.601585
-0.0788559
-0.00666754
-0.0224776
0.532758
0.834094
0.206352
0.485049
-0.000210572
-0.0136449
-2.74114e-05
0.00327648
-0.00239275
0.0879435
-0.0914544
0.556555
-0.043313
0.537942
-0.0164675
-0.0430416
0.702762
0.966762
0.521773
0.654205
-0.00727345
0.214781
-0.0237649
0.0322087
-0.000916326
-0.20576
-0.0598187
-0.0019714
0.000188833
0.0113055
0.843935
0.0481458
-0.00950081
-0.0190153
-0.089375
-0.119252
0.188087
-0.0418536
0.0158322
-0.0249742
-0.00804862
0.000658521
-0.015446
-0.0816531
0.791607
-0.143523
-0.00460477
0.547183
0.820341
-0.0167647
-0.000519187
-0.032267
0.675512
-0.202814
0.768762
-3.07236e-05
-0.0115484
0.441838
0.661333
-0.0328426
-0.00778522
0.89716
-0.149692
-0.127704
0.772711
0.899572
-0.0186859
0.449394
0.024656
0.605292
0.399134
-0.000520197
-0.156761
0.305654
0.00194089
-0.0547269
-0.100828
-0.184464
-0.067034
-0.0481643
-7.86791e-05
-0.000667837
0.732159
-0.00416044
-0.0707628
-0.0269998
-0.0379337
0.00758052
0.503924
-0.0288889
-0.0263044
0.00282515
0.255355
-0.0156054
-6.93792e-05
0.748778
0.476672
0.737492
-0.164424
0.000562062
0.884573
-0.000234707
-0.0162827
-0.0286918
-0.110704
-0.0150366
-0.156169
0.532306
0.944231
0.621861
0.0223171
1.05153
-6.10476e-05
-0.00752842
0.661667
-0.165337
0.305954
-0.0112448
0.679532
-0.0172382
-0.000917004
-0.0159456
0.455053
-0.147896
0.790568
0.37652
0.000356492
-0.00976877
0.145635
0.145701
0.00462184
0.40057
-0.0181185
1.03535
-0.0462282
0.00232126
0.00990095
0.60589
0.420931
0.00729163
0.265892
0.742556
-0.00433481
0.44108
0.513406
1.03766
-1.20411e-05
0.0276784
-0.0597164
-0.00109563
0.000279574
0.698911
0.156015
-0.117134
0.684743
0.0368486
-0.00771148
0.211577
0.0688553
0.0604458
1.04132
-0.0400284
-0.0436201
0.737317
-0.0188969
0.0116279
-0.0860786
0.142266
0.0135187
0.223416
-0.120541
-0.0420551
-0.00188957
0.251484
0.727747
0.444583
-0.169999
-0.00768845
0.86926
0.871765
-0.00103815
-0.0104705
0.584482
-0.0651126
-0.0470181
0.204546
0.00952871
1.08788
-0.0283609
0.040148
-7.63091e-05
0.736175
0.372313
0.00234489
-0.0598701
-0.128938
-0.064844
-0.001158
0.591635
-0.193158
0.217076
1.01916
-0.173365
-0.0365725
-0.00241106
-0.120259
-0.132577
-0.00404054
0.27204
-0.000440384
-0.0117673
-0.00637204
-0.136837
-0.0146972
0.000182995
-0.0241634
-0.0513375
-0.158673
-0.0335201
-0.00564537
-0.0865172
-0.0355857
-0.0163514
0.00851815
-0.00186018
-0.0551239
-0.0751437
-0.00478636
-0.0300644
-0.00216687
0.434204
-0.0544714
0.000406656
0.928623
-0.00469931
-0.000418847
-0.00689553
-0.0100827
-0.0302877
0.819276
-0.0219039
0.033433
-0.0636948
-0.0682932
0.198157
-0.0169888
-0.0267762
-0.0517698
0.000239534
-0.104824
0.949758
-0.117227
-0.0165952
0.284347
-0.0187812
0.400692
-0.0131779
-0.000189919
0.00129261
0.494107
1.00303
-0.118444
0.0355514
-0.0730535
-0.0117277
-0.012758
0.579119
0.0163573
-0.168774
-0.0848377
0.0125172
-0.00298017
0.864542
0.0690123
-0.000114071
0.786984
-0.0276966
-0.0351783
0.420414
-0.00800667
0.000237984
0.000289304
-0.0689617
-0.00174987
-4.16164e-05
0.0226169
-0.205333
0.599543
0.000639909
-0.001313
-0.0189961
-7.72922e-06
-0.121273
-0.171187
-0.00113515
-0.0298953
-0.000308591
0.424397
0.700902
2.99854e-05
-0.00176557
-0.0406548
0.726465
-0.0111353
0.747103
0.000664299
1.01601
0.46408
0.138484
0.975512
-0.187459
0.00273072
-0.0575839
-0.0114574
0.699503
0.580384
0.00316669
-0.196053
0.0109927
-0.0447534
0.00412496
-0.205255
-5.19829e-05
0.448436
0.0047035
-0.0242641
-0.00901285
-0.0236689
0.0594787
-0.046401
0.00325076
-0.0204935
6.54438e-06
1.01324
0.852523
0.00225779
0.000616371
-0.0133273
0.573811
-0.00224525
-0.0793138
-0.0141422
0.637678
0.125287
-0.00263941
1.07467
-0.0052012
0.599782
-0.00227669
-0.0787912
0.785988
-0.0157356
1.02495
0.532625
1.03966
0.00243534
0.00527139
-0.0440689
-0.0552537
-0.00682291
-0.0395225
0.614873
0.648277
0.455846
0.716437
1.01403
0.115261
0.729377
0.45174
-0.00628648
0.506632
-0.0242527
-0.0147065
0.000329429
-0.0430663
-0.116204
0.309338
0.00488429
0.613964
-0.0216347
0.030016
0.579887
-0.0113014
-0.0554021
-7.40642e-06
-0.000342913
0.313124
-0.0276108
-0.0137144
-0.000400842
-0.000742501
0.00522404
0.00042275
-0.127571
1.01192
0.0538205
0.198116
0.0044823
0.532121
-0.112987
-0.0106833
0.00018455
0.000287861
0.000331972
-0.0022112
-0.00905877
-0.0845231
0.245532
-0.0870645
0.0106235
9.50912e-06
0.648535
-0.157361
-0.190119
-0.0165113
-0.0793586
-0.0472282
0.0131575
0.580208
0.899143
0.306385
0.0121557
0.33325
0.00666727
-0.0152333
0.11662
-0.000119626
-0.0081004
0.0320619
0.126074
-0.00270664
0.558672
0.817837
0.556903
-0.0100827
0.0048265
-0.0276992
0.0717437
0.515541
0.00186075
0.784119
-0.0171869
-0.0822857
-0.0459955
0.947267
0.230645
0.591567
-0.17967
0.976549
-0.00180665
-0.0151803
1.04725
-0.00362373
-0.072551
0.590335
0.640231
-0.0114785
0.503426
0.723117
0.636264
0.478105
0.611223
0.416467
0.00243667
-0.00249119
-0.00292406
-0.0696446
0.726406
-0.0634126
-0.0135787
0.0671558
-0.0153912
-0.114477
-0.000158542
0.745939
-0.100409
-0.000817491
-0.0010675
-0.0184307
-0.156055
-0.176131
-0.0730742
0.47103
0.759345
-0.0512907
0.737896
1.01035
0.00336886
-0.00197431
-0.000475555
0.00390897
0.311544
1.01856
0.0722433
0.5181
-0.00490394
0.311822
0.315183
-0.187383
0.00182213
-0.0048205
-0.0269628
-0.0171432
-0.079499
-0.0113821
-0.00962587
0.568322
0.0024327
-0.0266887
0.632688
-0.114621
0.894047
-0.0429012
0.447527
-0.170357
-0.0299145
0.77905
0.891867
0.725532
-0.0101092
0.907251
-0.0088044
0.762521
-0.0399085
0.717292
-0.0161074
-6.17254e-05
0.722491
0.779373
0.761443
0.723599
0.329253
0.0201204
0.359353
-0.0720189
0.72373
0.557019
-0.137336
0.00678169
0.0019024
-0.189531
0.534553
-0.00553103
0.00712959
0.746268
0.735255
-0.0240705
0.701633
-0.0838111
-0.0697464
0.0082955
0.756093
0.775191
1.01116
0.734406
0.00223161
-0.00594584
0.000419249
-0.03122
0.889853
0.147018
0.497171
-0.00800856
0.453703
-0.0128594
0.892563
-0.0643576
0.743628
0.0074072
0.858699
0.920838
-0.00563722
-0.00697257
0.850449
0.00256217
0.945577
-0.0352048
0.00315247
0.00217448
0.611133
0.075134
-0.0489495
0.686912
0.954204
0.324354
-0.00546827
-0.026441
-0.0597116
0.73074
0.916801
1.06975
0.151705
-0.00281069
0.0133962
0.525305
-0.00290534
0.00332452
-0.00378745
-0.00937765
-0.0954621
-0.156436
0.79329
-0.0194325
0.000301644
0.529889
0.0766911
-0.00425027
-0.0311803
-0.00139745
0.0999932
0.564748
0.711899
-0.134235
0.031163
-0.00252224
-0.0737042
0.00177032
0.735588
0.805862
-0.187424
-0.166557
-0.141781
-0.0425277
0.698686
-0.0355239
-0.10098
-0.102407
-0.0596471
0.975301
-0.131092
-0.111904
0.750898
0.00408094
-0.0227395
-0.03164
-0.0970199
0.00212955
-0.000789943
0.970687
0.420084
-0.181248
-0.170588
0.42099
0.686814
0.548702
-0.149093
-0.0154297
-0.0166502
-0.0167841
0.500158
0.00616615
-0.0282277
0.00021905
-0.00250691
0.00124408
-0.11315
0.616196
-0.0798326
0.731819
0.70364
-0.0135199
-0.00794186
1.00145
0.438322
-0.0558846
-0.00910262
0.319958
-0.0238331
0.3255
0.971121
0.164624
0.00490065
-0.0106109
0.62437
-0.0184327
-0.065261
-0.0293439
0.83252
-0.0121733
-0.145182
0.306367
0.095304
0.547131
-0.0275798
0.155344
-0.0372401
0.749182
-0.104685
-0.0261713
-0.0364209
-0.0355425
0.000374304
0.0013371
-0.000880672
0.824462
-0.0441203
0.382628
-0.0769829
-0.0790806
-0.0862201
0.15301
1.00817
0.866577
-0.0850836
0.116248
-0.028384
-0.106129
0.0076907
0.0779306
-0.00897341
-0.00237455
0.516054
-0.0285675
-0.00601389
0.823025
0.551642
0.751828
-0.00406012
-0.168528
-0.00660523
0.157527
-0.0488865
-0.000163633
0.841662
-0.0751818
0.085666
-0.155745
0.000207425
-0.00753027
-0.00146213
0.0559761
-0.000551164
-0.0145547
-0.0156171
-0.0197631
0.880632
2.11065e-05
-0.0307768
0.00217803
0.918831
-0.00602073
-6.01048e-06
-0.125205
0.116975
0.464134
-0.00626834
-0.00651895
-0.0239777
0.507417
-0.0104191
0.158464
-0.159888
-0.14593
0.0565472
0.359299
0.034265
0.0885323
0.00248806
0.533416
0.935836
-0.00056097
0.273443
-0.0384334
0.964983
0.910193
-0.0928165
-0.108041
-0.142735
0.383482
-0.000264493
0.721056
1.03123
0.00251688
-0.0396185
0.096795
-0.00130345
-0.000712116
-0.000723186
1.01256
-0.010943
-0.0346249
0.715771
-0.0049414
0.363998
0.750894
-0.0107968
0.853942
-0.0142456
-0.00874513
0.763853
0.165702
0.545831
0.00273212
0.745529
0.024163
0.713297
-0.0575502
-0.00796888
-0.0258938
0.844931
0.765228
0.870094
0.736388
-0.176621
-0.000795439
-0.119122
0.43712
0.716452
0.930083
-0.0120154
0.312476
0.944147
0.632213
-0.00132337
-0.00532043
0.000665939
-0.00177007
-0.0822102
0.807432
0.23472
0.712795
0.0581731
-0.0658091
0.719623
-0.133717
0.488926
-0.107427
-0.0841967
-0.0129897
-0.0959565
-0.0551953
0.914341
-0.0500341
-0.0142843
-0.129192
0.12988
-0.0760744
-0.0120638
-0.0319472
-0.0329462
-0.0676138
0.488314
0.20004
0.581415
-0.17288
0.756351
-0.0791808
-0.000854006
-0.00888631
-0.0247012
-0.132968
-0.156958
-0.00665568
0.123665
0.878275
0.0130508
-0.0283022
-0.0392652
-0.059462
0.258482
-0.0325636
0.960263
0.146585
-0.00718709
-0.00694204
-0.047045
-0.0946456
-0.0151579
-0.0304335
-0.0534732
-0.100166
0.122095
0.89979
0.795897
0.0468871
0.0037252
-0.0124534
0.00177193
-0.00653329
0.528105
0.00813307
0.469615
-0.0715296
-0.00747553
0.88499
0.912369
-0.00109773
0.729806
0.783989
-0.0149257
-0.022023
0.109075
0.529472
0.910934
0.348105
-0.0845476
0.881381
0.0413546
-0.0372683
-0.0394936
-0.0979088
0.94262
-0.0306878
0.749887
0.180368
0.864697
-0.0649762
0.427702
0.333748
-0.0925368
0.771209
-0.0724474
0.839907
-0.000628745
0.236613
0.495116
0.395239
-0.00278301
-0.122952
-0.000677628
-0.0147272
0.287914
-0.0132972
0.360715
0.222863
1.02458
-0.035902
0.847199
-0.0291811
-0.0265072
-0.0936125
0.725927
-0.0536302
-0.128656
-0.0249202
0.517059
-0.00625401
0.99405
-0.0048317
-0.127963
-0.112297
0.000389616
0.739903
-0.0438073
0.801612
0.571773
0.0567357
-0.0354841
0.0119271
-0.000946289
-0.0400607
0.806938
-0.0288252
-0.0993894
0.186273
-0.0757948
-0.0395038
-0.0403172
-0.000180703
0.877331
-0.0106462
-0.0902995
-0.136277
-0.00779107
0.707964
1.02492
-0.00418509
-0.0635627
-0.00494247
0.0109509
-0.001173
-0.0143348
0.918435
0.861043
-0.0336661
0.106092
-0.000306659
-0.0121674
0.547395
-0.0191924
0.188588
-0.00288227
1.00474
0.470193
-0.078324
-0.0227263
-0.0288129
0.996501
-0.011859
-0.000242011
0.00804458
0.0193567
-0.0787361
0.00101929
-0.0449712
0.875248
-0.0934663
0.951889
1.07178
-0.0131956
-0.0953751
-0.000803086
0.00277783
-0.0719293
-0.0275655
0.983045
-0.00389236
0.00433758
0.48648
-0.0514367
0.551419
0.00578991
-0.167676
0.458792
0.512325
-0.0716591
-0.0195068
-0.057581
0.662809
-0.0107532
0.263223
-0.0128588
-0.00637066
-0.0116737
-0.009427
-0.00195693
-0.0986569
-0.0974186
-0.176207
-0.00582188
0.00205187
0.000694125
-0.0104626
-0.0642143
-0.00581513
-0.0341587
0.885379
-0.00755161
-0.0202875
-0.0204618
0.637592
0.00162818
0.522234
-0.120443
-0.12333
0.00751663
0.534142
0.284488
-0.0124184
-0.0347845
-0.0339135
0.340551
-0.00034193
0.505519
0.609945
-0.0140432
-0.0756439
0.0410967
0.0940904
-0.0671774
-0.0384075
0.543131
-0.0022436
0.470974
-0.0140832
-0.0163716
0.432576
0.917303
-0.0408139
-0.00684907
0.703307
0.293256
-0.003906
-0.0310848
-0.110222
-0.00575922
-0.00150807
0.00231597
0.632904
-0.140637
-0.0765224
0.608052
-0.084742
-0.0154104
0.0751914
0.00241764
0.0811967
0.491466
-0.0832987
0.368079
-0.00644826
0.862067
-0.0829818
-0.000315448
0.000167114
-0.143719
-0.000751741
-0.00623951
0.070051
-0.0699383
-0.00530055
-0.0260375
-0.007668
0.127575
0.740645
0.000831111
-0.00279004
-0.0255594
0.382455
-0.0530943
-0.00805725
-0.00076557
0.0214679
0.103669
-0.0109144
0.0016552
-0.134068
0.53937
0.560897
-0.0583178
0.512978
0.770023
-0.0117949
0.421146
0.0971569
-0.0462361
-0.00272594
-0.0424003
1.03327
-0.01811
-0.0963192
-0.00759036
0.495838
0.002063
-0.0019934
-0.0105617
-0.012067
0.00213743
0.743419
0.159171
0.347294
0.628005
0.522608
0.00751018
0.115606
0.368255
-0.104532
0.718991
0.0979737
0.140049
2.4914e-05
0.328957
-0.0379396
0.0683118
0.215445
-0.0900087
0.0432687
-0.00495633
-0.0102281
0.00239649
-0.135156
0.0384662
0.89374
0.0142725
-7.84135e-05
0.297414
-0.00285691
0.179182
0.120611
0.00303435
-0.01034
0.314525
0.708605
-0.0316188
-0.00230147
-9.83923e-05
0.205739
0.464425
-0.0048416
0.613497
-0.00382598
0.088591
-0.0649834
0.811692
-4.95907e-05
-0.00173677
0.000212164
0.00104739
-0.148701
0.00804909
0.374817
0.574407
-0.0049974
0.17892
-0.00588299
0.00401563
3.23258e-05
0.167516
-0.00915312
0.0856828
6.81613e-05
0.481722
0.00319714
0.602145
-0.190643
0.675497
-0.00717968
0.00129449
0.00111661
0.715712
-0.0139433
-0.0925383
0.0327354
-0.00558973
0.590866
0.00205948
-0.0168738
0.00171882
0.00211711
0.750066
0.000306903
-0.000778679
-0.00254321
-1.40043e-05
0.00505779
0.614322
-0.000977981
-0.00376628
-0.00410276
-0.000492824
0.542167
-0.215991
-0.0462344
-0.0491387
-0.0014196
-0.0110058
-0.169361
0.00364389
-0.00196952
0.00278796
0.241442
-0.000400974
0.0049723
-0.153857
0.0525002
0.681547
0.00897572
-0.00406481
0.00492822
-0.0268381
0.429708
0.573929
0.755291
8.59578e-05
0.107103
-0.00700965
-0.00425123
0.123108
-0.0119705
0.00372708
0.00631752
-0.00438688
-0.00107512
-0.00163073
0.00392059
-0.00341759
-0.00652431
0.48214
-0.00591865
0.30725
0.0407454
0.0148945
0.221573
0.113086
0.388038
-0.00194925
0.283728
-0.00107184
-0.0107897
0.252031
-0.0187518
0.531557
0.493535
-0.00867354
-0.00151791
-0.000435398
0.00449296
-0.143566
0.00632684
0.00731829
0.00384723
0.00665937
0.00529367
-0.0104214
0.0048372
0.00204483
-0.0072108
0.388345
0.00548718
0.00251151
0.00155888
-0.00570334
0.00510139
0.586058
0.573255
0.122815
0.810341
-0.013433
-0.0915357
0.0033547
-0.00407391
-0.00175665
0.000125544
4.73043e-05
0.106817
-0.0651263
0.000171887
-0.118497
0.06737
0.203766
-0.034027
0.00962831
-0.0147448
-0.00109528
-0.00188453
-0.0019436
0.00458271
-0.0327771
0.84944
-0.00471382
-0.0325933
-6.94129e-05
-0.0103574
0.00746119
0.0130267
-0.0011655
0.00594098
-0.008983
0.0051412
-0.0324918
-0.0962176
0.00310244
0.164959
0.00627112
0.00233928
-0.0961557
0.527395
0.550252
0.361624
-0.00645729
-0.128467
-0.040551
-0.154201
-0.0164566
-0.148558
-0.00331246
-0.138475
0.00620383
-0.00828414
2.47035e-05
0.0186178
0.00512772
0.00115221
-0.0179798
0.903398
-0.00524301
-0.112796
0.834272
0.864673
0.00908492
0.840079
0.778564
0.452348
-0.00383086
-0.187221
0.865655
0.00131835
0.000158585
-0.0115957
0.00195715
0.00259383
-0.0383502
0.00119504
0.00568498
0.00971378
-0.0204775
0.000676006
-0.0337204
0.00199048
0.993688
0.0098836
0.00793686
0.985637
0.0022878
0.920497
0.858672
0.465661
0.00761637
0.99655
-0.0287891
0.649406
-0.0186679
-0.0004737
-0.009196
-0.0246047
-0.00115038
0.733334
0.00199247
-0.000802317
0.00280595
0.000195375
-0.183807
0.19656
0.000220537
0.515442
-0.0367038
0.000241758
-0.00895716
0.00822992
-0.0505508
0.00185677
0.870636
-0.00184114
0.783321
-0.00541802
-0.000848126
0.000162789
0.00935177
-0.00754106
0.00731927
0.65012
0.718529
9.4845e-05
0.871377
-0.0103693
-0.00240575
-0.0217365
0.79436
-0.151691
0.00109863
4.76421e-05
-0.00170407
-0.000903946
0.000362131
-0.000152145
0.877294
0.000724037
0.00206182
-0.0236198
0.965536
1.07062
0.00581806
-0.0111715
0.525856
0.969421
-0.0158639
0.00483121
3.12344e-05
-0.0137033
0.752201
0.525921
-0.0014103
0.0060584
-0.0052187
0.813798
-0.0819494
-0.00506989
-0.00082534
0.00138596
-0.024516
0.572671
0.000303753
0.835091
0.00191096
0.93867
-0.000323956
0.858587
0.00639662
0.00488735
-0.0165736
8.93924e-05
-0.00116654
0.00153529
0.00177407
-0.00639522
-0.000958511
-0.00392133
0.00285564
-0.00632336
-0.00096375
0.0037693
0.00358981
-0.00288169
0.0492772
-0.000625852
0.519106
0.00559524
-0.0132522
-0.00537205
-0.123129
0.98338
0.00375419
0.00104973
0.000184768
-0.00509651
0.00886665
0.440746
0.573003
-0.00529293
0.00615325
-0.0869467
0.0839178
0.833182
0.00150955
0.456512
0.613509
0.000104648
-0.0133163
0.0103964
-0.00193263
0.00135072
0.00112276
-0.00153038
0.00514303
0.0021926
-0.00856612
-0.0116778
-0.0138309
0.0303278
-0.0896695
0.49826
-0.0901008
-0.0837335
9.80238e-05
-0.00106635
0.728155
-0.000600271
-0.00543521
0.00100335
0.00336065
-0.000572532
0.349336
0.0108354
0.888545
-0.000656188
-0.00159545
0.00660387
0.0537126
-0.00330785
0.834137
-0.0896502
0.00861096
0.00991502
-0.0574819
-0.00548471
0.413451
0.00263265
0.756253
-0.00156038
9.5265e-05
0.000504303
0.00179943
-0.000308597
0.000220343
0.00259813
-0.00353067
-0.00821488
-0.00128461
0.000199111
-0.00258359
-0.0757962
-1.12414e-05
0.00033872
-0.0035452
-0.000946614
0.0001549
-0.00366713
-0.00802636
-0.0013786
0.00291033
0.00681218
0.538586
-0.000712428
-0.0517595
6.08558e-05
-0.0480911
-0.0177606
-0.0217337
0.00166869
5.83821e-05
0.00189511
0.000282737
-0.0624386
-0.131942
0.0145258
-0.106835
-0.00065198
0.0138088
-0.123268
0.563753
0.316934
0.404473
0.00229696
0.00191066
0.000819521
0.00493713
0.765016
0.468706
-0.000352263
-0.00195127
0.275237
0.490077
0.907358
-0.00049648
0.00194182
-0.000855427
5.6984e-05
-0.000472944
0.000234333
-0.00378851
-0.000783544
0.534014
-0.0252195
-0.000761161
-0.00550563
-0.00145024
-0.154449
-0.00428861
0.0649337
-0.00171576
0.0963441
-0.0131128
0.00621636
-0.00175724
-0.0523147
-0.000536343
0.060769
0.826212
-0.00632036
0.564514
0.00868713
0.00470979
0.635015
-0.000786172
0.350305
0.00184456
-0.0562634
-0.0752966
0.00475382
0.00516994
-0.00120225
8.46377e-05
-0.012605
5.92529e-05
0.0030709
0.00719586
0.850062
-0.0431248
-0.0034926
0.519556
3.83053e-05
-0.000841315
-0.0228523
-0.000466294
0.818438
0.00164482
-0.00100856
0.0048703
0.00197585
-0.0182739
-0.00152561
0.000740566
-0.0920441
-0.00779686
-0.000695094
0.703066
0.95819
-0.00244799
-0.0731846
-0.00157114
0.581747
0.000220948
0.00254426
0.000148728
4.18337e-05
-0.0681477
-0.00403118
-0.00137062
-0.130939
-0.000312655
-0.0792852
0.000624158
7.17575e-05
-0.00591602
0.646396
0.692635
-0.0206249
0.263308
-0.041065
0.000139241
0.503369
-0.00529899
-0.00195346
-0.00422554
-0.149047
-3.09554e-05
-0.0390854
0.00145691
-0.0310138
-0.0145699
0.00319539
0.00268532
-0.0614061
0.323399
0.0199242
-6.60607e-05
7.8387e-06
0.00926395
0.0562545
-0.000512647
-0.0592791
0.00064492
0.494043
-0.194366
0.647214
0.174616
0.00952292
0.111427
0.00096613
0.52941
-0.104589
-0.00869818
0.000251191
-0.00140352
0.0103192
0.0115079
0.00875813
0.011705
0.0762611
0.00783345
0.172566
-0.000771303
-0.00368186
0.000903003
-0.098747
-0.0364454
-0.00632415
2.64823e-06
-0.0334261
0.111602
0.0142792
-0.0304279
-0.0269637
-0.0143
-0.0243536
-7.24851e-05
-0.000978615
0.602874
0.674012
0.731241
-0.000536996
0.68482
0.591966
0.686403
0.00279893
0.000658708
-0.000572226
0.134751
0.385615
-0.0820897
-0.0052105
0.0145397
-0.00124904
-0.0389419
0.0110111
0.00707814
0.43738
-0.00186344
0.00871903
0.00027455
0.0125175
0.697329
-0.021806
-0.000718078
4.97806e-05
0.79311
0.534693
-0.115072
0.0402059
0.0101613
-0.11654
0.0110039
-0.117862
-0.118067
-0.114234
0.0261342
0.0111992
-0.0381639
-0.000243335
0.661679
-0.0183064
-0.00387071
0.427266
-0.0119279
-0.00143659
0.0168524
-0.170124
0.0680204
-0.0180236
0.000560242
0.47489
-0.000795709
-0.00218146
-0.0221303
4.58958e-06
0.00459736
-0.00169933
0.00639337
0.0143774
-0.0268365
0.000727578
-0.0313645
-0.0131471
-0.0328299
-0.0337104
0.00304176
0.00550293
-0.0328548
0.00673617
0.0108566
0.0100191
0.293869
0.012581
0.0068895
0.000186507
-0.00122514
-0.0136029
0.000137853
0.189576
0.612327
0.00386956
0.00724076
0.00480295
0.00775653
0.000555199
-0.0081644
0.00317754
0.00620356
2.53106e-05
-0.0116495
0.0041083
0.0150843
-0.00127426
4.04458e-05
0.233966
0.00314502
-0.0546393
0.351524
-0.0240941
-0.00677104
0.0149548
0.000354026
-0.0627707
0.00770308
0.0145036
-0.0722983
0.0241683
-2.49074e-05
-0.0790402
0.141124
0.000159143
0.0500644
0.0028379
-0.0326641
0.464203
0.00210606
-0.000332937
-0.000383896
0.282284
-0.176091
-0.0151552
0.0151931
0.00591943
0.00762734
-0.00516802
0.00785556
0.0298265
0.750394
0.880279
0.516043
9.69896e-05
0.237203
0.020593
0.00267648
0.0156743
0.259546
0.00226206
-0.199902
0.000218614
0.0126929
0.349694
0.00015775
-0.064579
0.000799147
-0.0795374
-0.000944183
0.506384
-0.00173237
0.464407
0.00269323
0.014602
-0.0162184
0.00109157
0.434919
-0.00188574
0.00684151
1.70422e-05
-0.108789
-0.0168172
0.00960419
-0.00229829
-0.000842987
0.117138
4.31161e-05
0.227891
-0.00427998
-0.000826131
0.27064
-0.044685
4.72983e-05
0.000510513
0.000916586
-0.00138464
-0.0103394
0.249955
-0.0120421
-0.0017863
-0.0441787
0.00642854
0.405678
0.678258
-0.000682098
-0.00514261
0.00524919
0.00304026
0.339563
-0.0166438
-0.000984436
0.197882
-0.0658875
0.542865
-0.00522748
-0.00114625
0.205175
-0.00592988
0.0108017
-0.0124933
0.763684
-0.0311447
0.000258233
-0.00119051
-0.000144035
0.75541
-0.00201145
0.921526
0.123753
-0.00015072
0.00121203
-0.019187
-0.0419782
-0.0003447
-0.00256254
0.740645
-2.95373e-05
-0.0193702
0.757126
0.000812906
-0.00382074
-0.000399223
0.00147572
-0.000400213
-0.00771288
-0.0132777
0.00166205
-0.100751
0.000178505
-0.00028674
-0.000262848
0.000109767
-0.0240395
-0.000305102
0.00162144
-0.0398581
-0.0142584
0.916323
0.00836528
-0.00724073
0.00456895
-5.20042e-05
-0.00134905
-0.000210559
0.0821827
0.432249
0.00157042
-0.0247112
-0.00633121
0.0114425
-0.00348838
0.97932
-0.0024161
0.00196941
0.269246
-0.00791861
-0.000306154
-0.00691649
0.50659
0.00105711
0.399374
0.527635
-0.000662447
-0.0086454
0.661896
-0.00107763
0.00245795
-0.00331599
0.116103
0.0807103
-0.0191389
0.000210447
0.711799
0.00140229
-0.0130119
0.00518387
0.00302829
0.844617
-0.00207499
-0.000155712
0.00204145
0.132389
0.924397
0.500357
0.989928
0.00193133
0.840495
0.00028649
0.326102
0.00376357
0.000934141
0.121653
-0.0102401
0.0629122
-0.000316977
-0.00877159
0.935215
-0.00866347
-0.0875409
-0.00287211
0.0017872
-0.0147486
-0.00279953
-0.00107929
-0.000291114
-0.0195714
0.000317724
0.944044
0.00491862
0.00523871
0.0291019
-0.118876
0.124137
0.339059
-0.000455941
-0.145973
0.203277
0.556687
0.977998
5.45524e-05
-0.145787
-0.126608
0.00220458
0.244629
0.287712
-0.138217
0.764201
0.0725769
0.104482
0.00281165
0.472325
0.00763815
-0.000598725
-0.000163975
-0.000298211
0.000877415
-0.00216657
0.00737034
-0.000150938
-0.00127357
-0.00598301
0.000189215
0.181419
-0.0449708
3.01589e-05
0.947317
-0.00070161
9.20399e-05
0.666141
0.980537
0.00325902
-0.0105051
0.656302
0.00344258
0.822903
0.0187981
0.000270178
-0.0510771
-0.0275985
-0.00390861
-0.00106447
0.360189
-3.88782e-05
-0.000514063
0.778444
0.000982944
-0.00337786
-0.0357922
0.00638412
0.00677199
-0.000434663
-0.0335012
0.00921179
-0.000309176
0.00276885
0.00199077
0.3033
0.000163594
0.000127556
0.00183952
0.744214
0.00323684
0.00332577
0.000639603
-0.00274948
0.709293
-0.00723577
0.0297598
0.648493
0.00101128
0.865945
0.591422
0.00677743
-0.0517823
-0.00067049
0.0055395
0.823873
-0.00458769
0.0011657
-0.000205871
0.00660666
0.00538999
0.00130862
-0.000558495
0.855866
-0.000171377
0.533706
-0.0150445
-0.0562279
-0.000216241
-0.0546918
-0.0019585
0.684672
0.704995
-0.0575427
-0.000474389
-0.0156884
-0.0598831
0.116815
0.0491462
0.173842
-0.0705136
-0.0446262
0.0101542
0.00022163
-0.000330477
0.00153402
-0.000929228
-0.000594922
-0.000764193
0.000399729
0.00470819
0.0143467
-0.00236553
0.000187302
0.00822936
-7.15421e-05
-0.00119983
-0.000187926
1.07272
0.0595314
-0.00207326
-0.00526358
-0.00156975
-0.000144124
-0.000111386
6.37143e-05
0.00015961
-0.0113218
-0.000143754
0.00996466
-0.000248543
0.00170203
-0.00034991
0.00446449
-0.0201595
-0.000158411
0.741297
-0.0119479
0.50847
-0.0191075
0.798978
0.00207997
-0.00095383
-0.00243703
-0.00461071
-0.00541027
-0.00769254
-0.00853195
-4.24275e-05
-0.010248
-0.0102262
0.694728
-0.0142165
-0.0666692
-0.0163826
-0.000119986
-0.0655697
0.00300889
-0.000207438
-0.00273505
1.33677e-05
0.000466201
-0.0136199
0.00192002
-0.0113448
0.571125
-0.000866855
-0.00214402
0.00978037
-0.00614293
-0.000657789
-0.0029659
0.0060817
0.000409799
0.966694
0.0057368
-0.00329633
-0.00370801
0.0021091
-0.000565266
0.00159976
0.00349036
-0.00102581
0.00142199
0.00785571
-0.0755747
-0.000216787
-1.91284e-05
-0.00429246
-0.00633618
0.00152137
0.00165045
0.00153835
-0.000234159
-0.000586207
-0.00194082
-0.000559322
0.00129809
0.00168851
0.00307878
0.677084
0.000790762
0.00226382
0.00243193
-0.00246065
-0.000466174
-0.000562297
0.146336
-0.00519393
0.528728
0.0016679
0.000859047
-0.000231948
0.480049
-0.0766839
-0.000547863
-1.87383e-06
8.59428e-05
0.00247318
0.00169034
-0.16964
0.000229607
-0.0327598
0.000720836
0.00171957
0.000930372
0.00162184
-0.00257493
-0.0350371
0.65634
-0.0145698
0.00469818
0.000354383
7.72247e-05
0.00192435
-0.000192474
-0.0235014
0.00353069
0.00421388
-0.000861429
-0.00540294
0.0010939
-0.0976999
0.000645552
-0.00021935
0.00386585
0.000571144
0.00154987
0.00421534
0.00388473
9.00116e-05
0.831412
0.00049893
1.0011
-0.002437
0.00424142
-0.00524422
-0.000212767
-0.000241427
-0.0597281
-0.000584126
-0.081194
-0.000169027
-0.199668
0.00128491
0.000336881
-0.000112098
-0.00562772
0.839014
-0.00012609
-0.00911686
-0.00521621
0.63821
-0.0196662
-0.0544122
-0.000249404
-0.150303
0.00643994
-0.116865
-0.0239788
-0.00045939
-0.0093815
0.908337
-0.0498955
-0.00351628
0.00565945
5.05303e-05
0.536246
0.638812
-1.72794e-05
0.00208092
0.218921
-8.9365e-05
-0.00160703
4.94549e-05
-0.000254978
-0.0204394
-0.00574678
-0.132024
-0.0368362
-0.000509659
-0.000189092
-6.14592e-05
-0.0526016
-0.0192575
0.278462
-9.02284e-05
-2.28081e-05
0.569229
-0.00710227
0.000464149
-0.0145655
0.00481561
-0.000692505
-0.000142648
-0.0141739
0.000160116
-0.00887408
-0.000206735
-0.000410995
0.292385
-0.00126661
0.199456
0.777189
-0.0073529
-0.00689173
-0.059743
-0.00112988
0.92522
-0.00866132
0.00190867
-0.000154059
0.414517
0.84669
0.0716154
-0.0997232
-0.00418725
-0.000143159
0.00840538
-0.00024816
-0.00142352
0.00625264
0.476911
-0.00906661
-0.000228365
-0.00328443
-0.000862526
-0.00233158
0.459899
-0.0189016
0.0112551
-0.00100878
0.000240514
0.000846472
0.808665
-0.00363956
0.00103186
0.000430406
0.00432431
-0.000523098
0.0143662
-0.00388643
-0.00880998
-0.0180699
0.000259772
-0.00768918
0.274856
0.00868786
0.00106887
-0.0115746
0.506963
-0.00130278
0.0131201
0.655196
-0.00121863
-0.000145958
-0.0299055
0.249223
0.0846825
0.154628
-0.0196111
0.0013293
-0.000681488
0.451747
0.012707
-0.00283569
-0.0193196
-0.00181295
-0.0696079
-0.00216087
-0.00166418
-0.000714944
0.40305
-0.00380579
0.0035588
0.701277
-0.00591941
0.641589
7.28021e-05
0.00470361
0.595208
0.932507
-0.0218186
-0.00359789
-0.00124056
0.000682207
-0.00262868
0.542301
-0.00998669
-0.00888716
-0.00201675
0.000742612
0.00041102
-0.00442014
0.000556739
0.312601
0.000488608
-0.0186654
7.8707e-05
0.00306381
0.000589132
0.0950972
0.372616
0.00266756
-0.000472308
-0.00384696
0.000620359
-0.00397501
0.000437139
-0.00326282
-0.00527177
0.227591
0.522924
-0.00717168
0.160278
0.0056422
-0.0558556
0.00452593
-0.00771362
0.0681076
0.0391413
-0.0101878
0.00704772
0.575534
0.211018
-0.00258996
-0.000349484
0.001492
0.829556
-0.000566655
-0.000274724
-2.31765e-05
0.00122596
0.000798308
-0.00255866
0.00138835
-0.00757353
0.0804428
-0.0283358
-0.000278798
-0.00195627
-0.00565389
0.00495416
-0.00604231
0.00260748
0.00115016
0.00311333