/*--------------------------------*- C++ -*----------------------------------*\
  =========                 |
  \\      /  F ield         | OpenFOAM: The Open Source CFD Toolbox
   \\    /   O peration     | Website:  https://openfoam.org
    \\  /    A nd           | Version:  7
     \\/     M anipulation  |
\*---------------------------------------------------------------------------*/
FoamFile
{
    version     2.0;
    format      ascii;
    class       volVectorField;
    location    "3.5";
    object      U;
}
// * * * * * * * * * * * * * * * * * * * * * * * * * * * * * * * * * * * * * //

dimensions      [0 1 -1 0 0 0 0];

internalField   nonuniform List<vector> 
7807
(
(1.03868 0.0850614 1.64212e-20)
(1.03315 -0.0264313 3.98791e-21)
(0.991529 0.060941 -2.90755e-20)
(1.01961 0.0414796 4.22667e-20)
(0.99945 -0.000556046 -7.35942e-23)
(0.999977 -7.27047e-06 -5.64147e-24)
(0.989273 0.0504751 -5.55423e-20)
(0.996939 -0.0010289 -1.70944e-23)
(0.999919 -0.000109199 -1.19302e-23)
(1.01516 -0.00118113 -1.97718e-21)
(0.999979 -8.36211e-06 6.23088e-24)
(1.00133 -0.000853337 -2.64772e-22)
(0.99522 -0.00140501 7.78539e-22)
(1.01006 -0.00121235 -1.25426e-20)
(1.01427 4.21126e-05 8.35329e-21)
(0.994305 -0.0088651 -1.80138e-21)
(1.03948 0.0898386 -3.45945e-20)
(0.993571 -0.00172712 -2.77051e-22)
(1.0014 -0.0054921 -3.01855e-23)
(0.987382 -0.0610298 -1.67863e-21)
(1.02069 -0.00130371 -4.4015e-21)
(1.00086 -0.000370027 4.80303e-22)
(1.01064 -0.00238822 1.05761e-21)
(1.00698 0.0176363 -2.12022e-20)
(0.991405 -0.00212217 -1.27894e-21)
(1.03589 0.0834541 -1.61403e-20)
(0.999439 -0.000526258 -5.37024e-23)
(1.0148 -0.000285531 4.9855e-21)
(1.00396 0.00935628 -2.74345e-21)
(1.00183 -0.00607226 1.40872e-23)
(0.992179 -0.00946669 -3.31145e-21)
(0.930373 0.0128035 7.41749e-21)
(1.00953 -0.0026114 6.60877e-21)
(0.99972 -0.000229523 8.32342e-23)
(0.999947 -7.29618e-07 1.07569e-25)
(1.01356 0.000440921 2.93274e-21)
(1.00271 -0.00657557 4.43651e-23)
(0.991224 0.0483771 -8.89861e-21)
(0.998156 -0.00485866 1.49796e-21)
(0.999801 -2.5733e-05 6.80307e-23)
(0.998124 -0.00492945 -1.72216e-22)
(0.994606 -0.0079601 -6.68486e-22)
(1.00426 -0.0677637 7.06171e-21)
(1.09716 -0.03108 -4.06179e-22)
(0.9999 -2.54696e-06 2.11251e-23)
(0.999955 -1.07597e-05 -5.94283e-24)
(1.00073 -0.000335696 -2.93937e-22)
(0.997447 -0.00401446 -8.7841e-22)
(0.999962 -1.77599e-05 -5.0366e-24)
(0.99007 -0.0615767 2.42261e-21)
(1.00192 -0.000749342 2.92609e-22)
(1.01474 0.000516393 -5.17395e-21)
(0.988762 -0.00248408 -4.40147e-21)
(1.00695 -0.019481 9.99935e-23)
(1.01262 -0.00111303 -1.72823e-21)
(0.997246 -0.00151337 -1.46939e-22)
(1.00087 -0.00556803 1.12471e-22)
(0.996982 -0.000832318 1.02368e-21)
(0.985789 -0.0112728 -5.85566e-21)
(0.999726 -0.000204242 -1.05841e-22)
(1.00002 -1.42654e-05 -8.11901e-24)
(1.00255 -0.000586282 3.33072e-22)
(1.01094 -0.000852985 -2.94565e-21)
(1.00142 -0.000768588 2.68019e-22)
(0.999465 -0.00012307 1.44253e-22)
(0.992325 -0.00997091 5.68407e-22)
(0.999946 -0.000114739 9.70595e-24)
(1.00001 -1.30111e-06 5.44296e-25)
(1.09593 0.0503779 9.33454e-21)
(0.997403 -0.00395407 -2.61279e-22)
(0.999959 -1.16314e-05 5.35782e-24)
(0.980566 -0.0356089 -1.17348e-20)
(0.991711 -0.00238312 6.37269e-22)
(0.984351 -0.00270778 8.6726e-22)
(0.993779 -0.00194782 8.75605e-22)
(0.977816 -0.0163012 -1.32267e-21)
(0.993671 0.0621988 4.66831e-20)
(1.01933 -0.00141861 5.60317e-21)
(1.05342 0.000405571 -1.23608e-20)
(0.97052 -0.0285202 -1.45624e-20)
(0.995405 -0.00155663 -1.19651e-21)
(0.998237 0.0284719 5.45028e-20)
(1.02245 0.00428191 1.33903e-20)
(0.98368 -0.00561563 4.19631e-21)
(0.999196 -0.00149027 -1.30924e-22)
(0.998666 -0.000148308 1.11008e-22)
(0.996732 -0.00138434 1.47636e-21)
(0.989155 -0.00286029 2.82141e-21)
(0.999598 -0.000696604 8.16642e-23)
(0.997414 -0.000365861 4.21695e-22)
(1.00397 0.0106926 2.01817e-20)
(1.11979 -0.0200093 9.81583e-22)
(0.999927 -3.24966e-05 -1.3307e-23)
(1.00107 -0.00465982 4.23699e-23)
(0.997924 -0.000563572 3.90342e-22)
(0.984687 -0.0014138 -6.84764e-21)
(0.982204 -0.0353194 7.10191e-22)
(1.00769 -0.018574 3.34415e-22)
(0.999219 -0.00146157 4.35532e-23)
(0.999374 -7.73049e-05 5.07174e-23)
(0.968543 -0.00889449 3.29668e-21)
(1.05451 0.00421969 1.00106e-20)
(0.998069 -0.000669163 -9.67837e-22)
(0.999986 -1.56562e-07 -4.27542e-25)
(1.12281 -0.0115912 6.53549e-22)
(1.01798 0.0169759 -1.9663e-20)
(0.961 0.0122053 8.71036e-21)
(0.997032 -0.00142942 -5.87425e-22)
(0.999995 -1.14276e-06 1.22608e-25)
(1.01531 -0.00751989 -2.26995e-21)
(1.02353 0.0392849 -4.90945e-20)
(1.01586 -0.0507213 -7.77987e-21)
(0.999993 -1.11989e-06 -1.8151e-25)
(1.01691 -0.00747069 -4.95721e-22)
(1.01543 0.0168491 2.06735e-20)
(1.00022 -0.000323629 -1.9857e-23)
(1.0441 -0.0599099 -1.80505e-22)
(1.01852 0.00975697 -4.76677e-21)
(0.988609 -0.0280155 5.03796e-21)
(0.984012 -0.00347791 -9.36001e-22)
(0.966958 -0.00509584 -7.76064e-21)
(1.00022 0.0251399 -3.53158e-20)
(1.00822 -0.0666537 -9.69904e-21)
(1.00526 -0.00450035 1.60048e-22)
(0.967848 -0.00619398 3.01461e-21)
(0.999448 -0.000776008 1.86545e-22)
(0.992276 -0.0069869 1.06299e-21)
(1.00178 -0.00542211 -7.02265e-23)
(0.999428 -0.000100316 -3.22779e-22)
(0.991659 -0.00853716 6.30859e-23)
(1.14753 -0.0340857 -1.17894e-22)
(1.04925 -0.0009994 2.08196e-21)
(0.999655 -0.000291198 9.21944e-24)
(0.999545 -0.000716069 -1.62841e-22)
(0.982941 -0.00504967 1.21383e-21)
(1.02199 0.0321058 1.82119e-20)
(0.994841 0.0189714 6.05434e-20)
(0.999986 -2.12109e-06 -5.13053e-25)
(1.0049 -0.00170684 1.47375e-22)
(0.955385 -0.00588839 -9.90372e-21)
(0.98535 -0.00175396 -3.53694e-21)
(0.991606 -0.0393821 -7.50187e-21)
(0.978059 -0.0176788 1.79469e-21)
(0.985196 -0.00241065 -8.21713e-23)
(0.960172 0.00910958 3.29814e-20)
(1.00732 -0.0291967 -2.67773e-22)
(1.00797 0.0102013 -1.03557e-20)
(0.987105 -0.0139608 -3.06913e-21)
(0.978468 -0.00243656 9.76859e-22)
(0.999472 0.0267748 -1.76477e-20)
(1.01449 0.00211379 7.34023e-21)
(1.11028 -0.0214852 1.19916e-21)
(0.999032 -0.00115238 -4.35394e-22)
(1.10041 0.043985 1.8796e-21)
(1.022 0.00355621 -1.38424e-20)
(0.999666 0.0512746 -4.61768e-20)
(0.974058 -0.019152 5.54508e-21)
(0.995234 -0.000915112 2.57664e-22)
(0.964639 0.0357336 7.87536e-20)
(0.999964 -1.32936e-05 -4.74018e-24)
(1.0007 -0.00476148 6.08195e-23)
(1.00771 0.0199374 1.51738e-20)
(0.999988 -1.10954e-05 3.01677e-24)
(0.998932 -0.00310353 -7.20179e-22)
(0.997714 -0.000548696 -1.85464e-22)
(1.00275 0.0215703 -4.9116e-21)
(1.00174 0.0229435 1.80646e-20)
(0.959157 0.0405435 2.63488e-20)
(0.998939 -0.00303279 -4.28727e-22)
(0.998176 -0.000142109 -1.94507e-22)
(1.00001 -3.71057e-07 -4.81298e-25)
(0.96864 -0.00243851 -1.29646e-20)
(1.0002 -0.000290711 2.74839e-23)
(1.03559 -0.0241603 -4.65631e-21)
(1.00505 -0.00194867 9.66374e-22)
(0.978515 -0.00310864 2.06475e-21)
(1.11577 -0.00365883 2.91596e-21)
(1.06364 0.0481675 7.54662e-22)
(0.999923 -3.38417e-05 7.28665e-24)
(0.99968 -0.000375364 -1.00644e-22)
(1.01858 0.0431061 -7.47282e-21)
(0.999965 -1.17053e-05 -2.23401e-24)
(0.999937 -5.53544e-06 3.31508e-24)
(0.989126 0.0531418 -4.63381e-20)
(1.0336 -0.0284546 1.19873e-21)
(1.00735 -0.0418159 -4.48952e-21)
(0.989963 -0.0272431 -7.15656e-21)
(0.985542 -0.00396171 2.6561e-21)
(1.00537 -0.0303437 4.93893e-22)
(0.957476 -0.00433058 5.23089e-21)
(0.999988 -1.06217e-05 -1.03673e-24)
(0.982598 -0.0330318 -2.82182e-21)
(1.06604 0.0537458 -1.73339e-20)
(0.998035 -0.000816647 1.38141e-22)
(1.00005 -2.53144e-06 -6.11646e-24)
(1.04465 0.0495801 1.68289e-21)
(0.999292 -0.000203843 3.60717e-22)
(0.992069 -0.0084523 1.69411e-21)
(1.00401 -0.0287566 1.64313e-21)
(1.00001 -1.81203e-06 -2.23873e-25)
(1.00043 -0.00122785 -1.15011e-22)
(1.01961 0.032258 2.21695e-20)
(1.05394 0.0565325 -2.15942e-20)
(0.996975 0.0444688 -6.17951e-21)
(1.04145 -0.0559531 2.55118e-21)
(1.0178 -0.0483636 1.80594e-21)
(1.0749 -0.0834378 -7.88035e-22)
(1.01396 -0.00283776 1.48258e-20)
(1.01754 0.0329714 -7.13645e-21)
(0.999879 -9.49571e-06 -2.42594e-23)
(1.00002 -1.1108e-05 2.12893e-24)
(0.97391 0.00420369 -3.29334e-20)
(0.995498 -0.00779139 -6.33685e-22)
(0.99965 -0.000266387 -9.17357e-23)
(0.984108 -0.0324792 5.83271e-21)
(0.991848 -0.00737026 -1.23397e-21)
(1.00581 0.0470302 -5.25842e-20)
(1.00302 0.0456053 -1.10486e-20)
(0.989494 -0.0405015 2.03975e-21)
(0.939867 0.0233892 -2.87077e-20)
(0.999345 -0.000248375 -2.66896e-22)
(0.993597 -0.0013418 9.64481e-22)
(0.967377 -0.00787202 4.26657e-21)
(1.02071 0.00160627 -3.15428e-21)
(1.00656 -0.084776 -9.46335e-22)
(1.05365 0.086106 -3.62423e-20)
(0.965396 0.0309943 -6.72106e-20)
(1.00004 -6.40064e-05 6.29091e-24)
(1.00526 -0.00457758 4.89703e-22)
(1.01699 0.0118079 2.57367e-20)
(0.997647 -0.00350114 -1.10079e-21)
(1.01987 0.0104727 -3.27547e-21)
(0.999675 -0.000740033 -3.26717e-23)
(0.94587 0.0445957 5.28981e-20)
(1.00016 0.0469465 9.95715e-21)
(0.99677 -0.00113071 9.19367e-22)
(1.0024 -0.00499537 -1.56639e-23)
(0.99981 -4.95126e-05 -1.26808e-22)
(1.0795 0.0697497 9.30524e-21)
(0.999944 -1.0416e-05 9.70247e-24)
(0.99652 -0.006658 5.09309e-22)
(0.959546 -0.0171154 6.18417e-21)
(0.999957 -1.39327e-05 -2.21352e-24)
(0.999293 -0.00170485 -1.17676e-22)
(0.999749 -0.00073945 5.1462e-23)
(1.03959 0.0281617 2.02729e-20)
(0.999988 -1.40097e-05 3.81129e-24)
(0.997363 -0.000269017 8.16629e-26)
(0.972042 -0.0283615 1.69046e-20)
(0.935646 0.00772194 -1.62616e-20)
(1.04892 -0.00399957 -2.75738e-21)
(0.953641 0.0290569 3.95616e-20)
(0.999974 -6.28534e-06 -5.15835e-24)
(1.00277 -0.0291557 -5.81123e-23)
(0.99989 -0.000178073 -3.62737e-23)
(0.99628 0.0527657 -4.59824e-20)
(1.00206 -0.00036504 -4.32237e-22)
(0.99316 0.0175764 2.00125e-20)
(1.00188 -0.00649471 -1.90687e-22)
(1.00036 -0.00117064 1.16094e-22)
(1.01824 -0.0221924 -8.31911e-22)
(1.01383 -0.00164501 -1.37253e-20)
(1.00032 -0.000197418 6.06446e-23)
(0.999868 -3.18717e-05 7.02736e-25)
(1.00027 -0.000269191 1.34323e-22)
(0.997516 -0.00371797 -9.77878e-22)
(1.01129 -0.0441632 5.07496e-21)
(0.999975 -8.38464e-06 3.46797e-24)
(0.975177 -0.0183783 3.85657e-21)
(0.997807 -0.000678166 -4.09635e-23)
(0.999912 -3.20945e-05 1.40354e-23)
(0.999655 -0.000330505 3.05094e-23)
(0.988985 0.0305971 4.8611e-20)
(0.995368 -0.000376995 3.60775e-22)
(0.999571 -8.14947e-05 -2.81618e-23)
(0.958216 0.00282805 6.13174e-20)
(0.999233 -0.00168228 -2.55937e-22)
(1.03368 0.0630014 -1.86539e-20)
(0.999879 -0.00017274 6.28034e-23)
(1.00514 -0.0150607 -1.51537e-22)
(1.00001 -4.63362e-07 -1.82313e-25)
(0.988293 -0.0225948 -2.8155e-21)
(1.0207 0.00208223 4.87713e-21)
(1.11775 0.00293217 -7.76017e-21)
(0.985854 -0.0121265 4.96406e-21)
(0.999771 -0.00039186 1.19135e-22)
(0.986466 -0.051665 3.85736e-21)
(0.995304 -0.000160984 1.72764e-21)
(0.999893 -1.77965e-05 1.37688e-24)
(1.00025 -0.000227471 -1.18891e-22)
(0.998698 -0.00209866 3.63535e-22)
(0.9953 -0.000735735 -1.10147e-21)
(1.00199 -0.000518188 -4.96615e-22)
(0.999257 -0.00123575 1.54018e-22)
(0.984577 -0.00520373 6.64043e-22)
(1.01451 -0.0418047 -3.72162e-21)
(0.984757 -0.00421516 2.86641e-21)
(1.09196 -0.0257338 1.97474e-22)
(0.979538 -0.0045027 -3.71346e-21)
(1.00537 0.0626121 5.32736e-21)
(1.00264 0.0643057 -3.94029e-20)
(0.999145 -0.000455315 -2.40174e-22)
(1.13497 0.00027462 7.87031e-21)
(0.99999 -2.23006e-06 -2.87396e-25)
(0.998643 -0.00252965 -4.44733e-22)
(0.986156 -0.000777504 6.99724e-21)
(1.00523 0.0147114 1.26513e-20)
(1.02541 0.00578876 -1.29705e-20)
(1.00006 -2.53962e-05 1.41897e-23)
(0.998632 -0.00250479 -3.25531e-23)
(0.980279 -0.00514065 2.79842e-21)
(1.03136 0.0246629 -7.78453e-21)
(0.999424 -0.000742907 1.34169e-22)
(1.00201 -0.000607311 2.84913e-22)
(1.00074 -0.000577161 -2.29923e-23)
(1.08068 0.0150376 1.32194e-20)
(1.14681 -0.0435411 -1.82371e-21)
(1.01491 0.0777023 2.65736e-20)
(0.99908 -7.32015e-05 -2.24239e-22)
(1.04106 -0.0278424 -3.75027e-21)
(0.999933 -4.21677e-05 -1.19092e-23)
(1.00301 -0.00452055 -8.99892e-22)
(0.999968 -6.97042e-06 -1.55654e-24)
(0.990368 -0.0134147 8.58216e-22)
(0.999801 -4.09464e-05 -2.43772e-23)
(1.00763 -0.013867 2.3947e-22)
(1.15306 0.00111396 -5.9872e-21)
(0.982445 -0.0175719 6.13505e-21)
(1.00561 -0.0144926 -4.00931e-23)
(1.00509 -0.00389875 -6.19885e-22)
(0.99957 -0.000103141 1.27551e-22)
(1.01703 -0.0117681 1.62247e-21)
(0.997395 -0.0119312 9.00805e-22)
(1.05051 0.00798351 -5.70989e-21)
(1.03625 0.0273622 9.02292e-21)
(1.11071 -0.0949692 -1.25372e-22)
(1.09527 -0.0368988 3.69273e-23)
(0.992504 -0.000194723 -1.8748e-21)
(1.00303 -0.00225425 9.22682e-22)
(0.961133 -0.016191 -2.35312e-21)
(0.954899 0.0395961 -8.09689e-20)
(1.07963 -0.037325 -1.56855e-21)
(1.01624 -0.00668049 -6.42161e-21)
(0.943772 0.0262194 -3.96059e-20)
(0.999089 -2.38087e-05 1.10434e-22)
(0.99896 -0.000579507 -7.56575e-23)
(1.10794 -0.0287184 6.10121e-22)
(0.999327 -0.00124458 -9.4587e-23)
(1.00744 -0.0272699 4.26052e-22)
(1.00361 -0.00133588 3.32406e-22)
(0.998261 -0.000266642 -1.68449e-22)
(0.998696 -0.000256724 -2.75071e-22)
(1.0186 0.0163595 1.51423e-20)
(0.999959 -9.48832e-05 -1.54123e-24)
(1.00029 -0.000145699 -5.40839e-23)
(1.00005 -1.18076e-05 1.04505e-23)
(0.997929 -0.000455056 9.61437e-22)
(0.995814 -0.00555894 1.38127e-21)
(0.99999 -2.39781e-06 2.596e-25)
(0.999367 -0.000146917 2.90458e-23)
(0.986444 -0.010673 1.72701e-21)
(0.97169 0.00533324 2.06019e-20)
(1.00694 -0.0151439 1.31145e-22)
(0.995514 -0.00702004 2.27665e-21)
(0.975746 0.0322495 9.33321e-21)
(1.00035 0.0252055 3.19509e-20)
(1.04282 -0.00122871 -4.55545e-21)
(1.12817 0.00490785 -3.19971e-21)
(0.972437 -0.00168985 7.01047e-21)
(1.00311 -0.0024638 -4.50209e-22)
(1.00464 0.0246744 -1.76108e-21)
(0.993012 -0.00131701 -2.29444e-21)
(1.02047 0.0608291 9.01335e-22)
(1.00524 -0.0329342 6.13257e-23)
(1.02162 -0.0766666 -3.18848e-21)
(1.05114 0.0546557 1.31742e-20)
(1.02157 0.0648546 -2.33659e-20)
(0.976334 -0.0157651 8.50785e-21)
(1.02778 0.00480763 -8.47462e-21)
(1.05655 0.0896205 3.42007e-20)
(1.02989 0.0629638 3.44874e-20)
(1.01399 -0.00172399 4.70789e-21)
(0.998186 -0.000893303 2.26134e-22)
(0.997418 -0.00135844 2.04991e-22)
(0.999946 -1.04383e-05 -5.26829e-24)
(1.0106 -0.0181386 1.47419e-22)
(0.992929 -0.00103719 5.57887e-22)
(1.00059 -0.00159361 -1.03331e-22)
(0.999936 -1.33684e-05 -9.72163e-24)
(0.998985 -0.000442179 9.35672e-23)
(0.984781 -0.0507891 -6.32795e-21)
(1.07001 0.0233614 5.58817e-21)
(0.988977 -0.00349794 -3.26533e-21)
(0.999428 -0.00818336 1.03742e-21)
(0.997727 -0.000329134 -5.16557e-22)
(1.04005 -0.0286748 1.07145e-22)
(0.995563 -0.000864504 -1.77843e-21)
(1.00138 -0.00452784 2.85367e-22)
(1.06693 0.0870421 5.45781e-21)
(0.998857 -0.000198345 -6.49809e-22)
(0.999987 -2.67035e-05 -3.05216e-24)
(0.999966 -0.000114045 -1.9248e-24)
(1.00003 -6.74854e-05 7.48288e-24)
(0.986173 -0.0045653 1.52453e-21)
(1.01777 0.0135084 -1.79628e-20)
(0.99756 -0.000237736 2.12881e-23)
(1.01384 -0.00585894 4.13245e-21)
(1.01114 -0.0889205 6.41578e-21)
(0.993141 0.0445541 -8.01046e-22)
(1.00249 -0.00497454 2.8685e-22)
(1.00439 -0.00266947 -1.56994e-22)
(0.996923 -0.00157064 -7.39158e-22)
(0.994479 0.0309283 -4.7695e-20)
(0.99938 -1.85693e-05 8.91592e-23)
(1.01707 0.0804867 -1.36185e-20)
(1.00707 0.0102912 -1.98811e-20)
(0.999931 -1.75503e-05 1.15679e-23)
(1.00412 -0.0334837 -2.7932e-21)
(0.998044 -0.000519035 -4.67919e-22)
(0.993847 -0.039817 9.19917e-21)
(1.00031 -6.66909e-05 5.45005e-23)
(1.03884 0.00124897 6.36069e-21)
(1.00453 -0.0103196 -6.78899e-24)
(1.00389 -0.00228301 6.13752e-23)
(0.999483 -8.19353e-05 -1.72459e-22)
(1.04568 0.0261245 1.00259e-20)
(1.02804 0.0239668 3.10841e-21)
(1.00538 -0.0437687 4.48086e-21)
(0.986875 -0.0126715 -3.33422e-22)
(0.998629 -0.00225194 -3.08806e-22)
(0.99962 -0.0259117 -5.13602e-21)
(1.09663 0.0366486 -1.23696e-20)
(0.932439 0.016827 -3.63091e-20)
(1.05432 -0.0535366 -1.93996e-21)
(1.00307 -0.00504518 -1.23693e-22)
(0.999996 -8.00707e-07 -9.96585e-26)
(0.991617 -0.00288696 -2.56607e-21)
(0.998622 -0.000181442 5.91255e-22)
(1.01705 -0.0104847 2.33087e-21)
(1.00149 -0.0710606 -2.92225e-21)
(1.13308 -0.00953218 -2.16747e-21)
(0.987734 0.0422132 -6.00796e-20)
(1.0342 0.0223215 1.29473e-20)
(1.07702 -0.0752343 3.62492e-21)
(1.04442 0.0542239 5.55148e-21)
(0.998639 0.0239917 5.64855e-20)
(1.01274 -0.00204046 3.38352e-21)
(1.00069 -0.0014566 2.41799e-22)
(1.01332 0.0340961 1.09596e-20)
(0.999451 -0.00127916 2.0553e-22)
(0.999891 -9.51249e-05 1.2951e-23)
(0.989101 -0.000970815 8.53355e-22)
(1.00006 -2.21658e-05 2.64781e-24)
(1.08098 -0.0897359 2.37851e-21)
(1.00238 -0.0116087 -3.27816e-22)
(0.990048 -0.0221587 4.82113e-21)
(1.00112 -0.00106297 1.32848e-22)
(1.04069 0.0469004 2.8433e-20)
(0.998892 -0.000164643 -5.19243e-23)
(0.999986 -2.11049e-05 -2.66279e-25)
(1.01689 -0.0796528 3.54742e-21)
(1.001 -0.000785907 -7.69203e-23)
(1.06995 -0.00355041 -1.40187e-21)
(0.970199 -0.00834061 1.54537e-21)
(0.956233 -0.00955007 7.33726e-22)
(1.14018 0.037857 -1.08542e-21)
(1.01566 0.0102286 -6.73311e-21)
(1.01365 0.00256724 4.12056e-21)
(1.01262 0.00244966 -1.66759e-21)
(0.999877 -2.47858e-05 4.11336e-24)
(1.07558 0.0231826 4.53664e-21)
(1.05084 0.010003 6.61921e-21)
(0.999696 -0.000382352 4.79107e-23)
(0.989481 -0.00384093 3.77706e-21)
(1.00038 -0.000121309 -6.06811e-23)
(1.00745 -0.0127011 -1.32628e-21)
(1.00614 -0.0177881 -1.98734e-22)
(1.0029 -0.000925405 5.28795e-24)
(0.999544 -0.000798587 -2.27465e-22)
(1.0793 0.0641548 -2.85439e-20)
(0.999987 -1.36313e-05 -4.27829e-24)
(1.00013 -5.90297e-05 -1.47906e-23)
(1.00133 -0.00058955 -5.61323e-24)
(0.985863 -0.00150834 2.46497e-21)
(1.0118 -0.00695647 2.81957e-21)
(0.98933 -0.0184669 -6.70015e-21)
(0.982375 -0.00248131 -1.43687e-21)
(1.00951 -0.0414761 2.52937e-21)
(1.02371 -0.0958519 -6.81504e-21)
(1.01713 -0.0194154 6.03902e-22)
(1.01738 0.0347369 -6.34031e-20)
(1.14615 0.00640065 3.39039e-21)
(0.995966 -0.00149941 -1.11625e-22)
(0.943886 0.0409772 6.22035e-20)
(0.983661 -0.0365672 1.02728e-20)
(0.995802 -0.00581169 4.37617e-22)
(0.982865 -0.00203488 2.39485e-21)
(0.998619 -0.0118035 -2.43844e-22)
(0.987153 -0.00118368 3.70172e-21)
(0.993724 -0.00236714 -7.27356e-22)
(1.01702 -0.00952097 -4.43625e-21)
(1.08518 -0.0397379 4.97764e-22)
(0.999985 -2.63573e-05 -4.19972e-25)
(1.014 -0.00848485 -5.02716e-22)
(0.999941 -1.77255e-05 -5.66464e-24)
(1.00228 0.0531749 1.24099e-20)
(1.09673 0.0552188 2.17802e-20)
(0.997 -0.00117225 2.33079e-22)
(0.991371 -0.00089407 -3.20777e-21)
(0.999885 -3.23523e-05 -2.91391e-23)
(0.996324 0.0278882 3.60001e-20)
(1.01355 0.0625512 3.05254e-20)
(1.07735 0.0163068 -7.18998e-21)
(1.08364 0.0837831 -2.46504e-20)
(0.983538 -0.0390988 -4.39939e-21)
(0.999429 0.0111422 -5.14091e-20)
(0.999962 -7.82981e-05 6.60817e-24)
(1.03166 -0.0169751 5.86986e-21)
(0.989815 -0.000643996 -1.37271e-22)
(1.05852 0.0459199 -6.21571e-21)
(0.960026 0.0286623 -4.81721e-20)
(1.09956 0.031584 1.6442e-20)
(1.03168 0.0192373 2.20423e-21)
(0.999987 -0.00805205 -2.14606e-22)
(0.999884 -4.89435e-05 -2.78906e-23)
(1.08523 0.0721065 1.01475e-20)
(1.13739 -0.0270424 -3.21429e-22)
(0.995968 0.0312437 -1.23096e-21)
(1.06403 -0.00522155 1.20684e-20)
(1.01999 0.029269 1.85312e-20)
(0.995639 -0.00131346 -3.34584e-22)
(0.992301 0.0423497 1.65732e-20)
(1.01669 0.0597665 1.08397e-20)
(0.994528 -0.00194859 -2.02882e-21)
(0.995367 -0.00187096 -7.59243e-22)
(1.09476 0.0661582 5.36053e-22)
(0.954845 -0.00857439 -1.05576e-20)
(0.999946 -9.19246e-05 -1.01588e-23)
(0.992039 -0.00315186 3.33081e-21)
(0.957848 -0.0133277 7.89494e-21)
(0.991903 -0.049907 -1.34432e-21)
(1.00588 -0.00194707 -2.77192e-21)
(1.00449 -0.00357143 1.70575e-22)
(0.999921 -0.000111584 -1.86887e-23)
(1.01415 0.06672 -4.60792e-20)
(1.00028 -0.00670308 3.70664e-23)
(0.999938 -3.36793e-05 5.27961e-24)
(1.0141 -0.0389829 2.67251e-21)
(0.9997 -0.000253862 3.84056e-23)
(0.999867 -4.59853e-05 2.1239e-24)
(1.0033 -0.00778878 -1.40278e-22)
(1.03415 0.0450937 3.79125e-20)
(1.01162 -0.0705546 4.96588e-21)
(0.969943 0.0296818 2.87175e-20)
(1.00004 -9.69626e-06 -7.26358e-24)
(1.03648 0.0490698 -3.98149e-20)
(1.00921 -0.0332269 2.21064e-21)
(0.999956 -0.00010927 -2.90379e-24)
(1.00001 -3.05665e-06 -2.14698e-24)
(1.00248 0.00670863 -3.31438e-21)
(1.03108 0.0392313 1.39252e-20)
(0.997629 -0.00145532 2.09342e-22)
(1.02944 0.0299582 -1.76123e-20)
(1.00002 -1.13611e-05 1.55156e-24)
(1.02959 0.0332364 -2.48443e-20)
(1.09898 -0.0947693 4.87894e-21)
(0.994196 -0.00168741 2.19198e-21)
(0.999705 0.0174623 -7.19056e-20)
(0.984341 -0.0304693 6.73493e-21)
(1.08699 0.0796078 2.44605e-20)
(0.983572 -0.00213685 1.38824e-21)
(1.032 0.0354011 3.23582e-20)
(1.03459 0.0415046 -1.00403e-20)
(0.989937 -0.00481268 5.58062e-21)
(0.986751 -0.0058736 -4.13266e-21)
(0.996878 -0.00590779 1.31774e-21)
(0.998294 -0.000387836 -1.57287e-22)
(0.999887 -0.000111922 3.57591e-23)
(1.00028 -0.00624869 -6.62867e-23)
(1.02353 0.0573539 -5.4464e-21)
(0.999984 -2.05665e-05 1.14523e-24)
(1.02622 0.0287562 2.33441e-20)
(1.02112 -0.0709712 7.4413e-21)
(1.00182 0.0301625 1.45575e-20)
(1.02646 0.0261715 -2.63247e-20)
(0.956199 -0.0121953 -1.02489e-21)
(0.97177 0.0389722 -6.13955e-20)
(0.999057 -0.000662877 1.2114e-23)
(1.01021 -0.0167753 6.05792e-22)
(1.03455 -0.0513029 1.60937e-21)
(0.987676 -0.000970651 -2.35957e-22)
(0.996215 -0.00195096 1.01378e-21)
(1.00768 -0.034528 -1.95323e-21)
(1.03451 -0.0119955 -6.39771e-22)
(0.949608 0.023281 7.45205e-20)
(1.00003 -1.33634e-05 7.77099e-24)
(0.998894 -0.000711143 1.86308e-22)
(1.01271 -0.0497677 9.2504e-23)
(1.00001 -2.71435e-06 2.52869e-25)
(1.0016 0.057551 6.12718e-21)
(1.00092 -0.000710758 0)
(1.00001 -2.90937e-06 1.82683e-25)
(1.0001 -5.04562e-05 3.42949e-23)
(1.00025 -5.50466e-05 7.44185e-25)
(0.990701 -0.0122636 4.45977e-21)
(1.0129 -0.0108196 -1.68236e-21)
(0.999106 -0.000481435 2.8699e-22)
(0.999956 -7.47425e-06 1.04952e-23)
(0.995907 -0.00182204 5.47642e-22)
(1.00249 -0.00818472 -7.22911e-23)
(0.99374 -0.0749849 -7.91525e-21)
(0.964629 -0.00272762 7.27581e-22)
(1.01116 -0.00619298 4.9784e-21)
(0.999984 -1.45393e-06 2.79621e-24)
(1.06523 -0.105564 8.30196e-21)
(0.992219 -0.00204105 -1.29442e-21)
(1.08481 0.0586673 -1.80057e-21)
(1.00041 0.0187588 -1.05063e-20)
(1.00066 -0.00225624 4.86347e-23)
(1.07663 0.050541 -2.65248e-20)
(1.00008 -5.75049e-05 7.82739e-26)
(0.992621 -0.00239608 2.56775e-23)
(1.01404 0.000516749 -8.44368e-21)
(0.996177 -0.00219963 -4.1618e-22)
(1.03435 0.0539253 -2.19532e-21)
(0.992453 -0.0038921 -2.54707e-21)
(1.03231 -0.0170248 -5.02594e-21)
(1.01542 0.00241785 -9.10419e-21)
(1.03761 0.0251695 -5.74265e-21)
(1.00459 -0.00961649 -5.78634e-22)
(0.994079 -0.00254947 5.96229e-23)
(1.04897 0.0471969 1.84165e-20)
(0.986802 -0.0549718 -7.11019e-21)
(0.995063 0.0552361 5.07115e-20)
(0.994734 -0.0028444 -2.43478e-21)
(1.03443 0.0717593 -1.16177e-22)
(0.99478 -0.00251187 6.53069e-22)
(0.999336 -0.00029438 -1.91139e-23)
(1.03074 0.0187155 6.04787e-21)
(1.00943 -0.0193268 1.94499e-24)
(1.02133 0.00232401 1.30315e-20)
(1.00091 -0.00055664 8.67245e-23)
(1.00001 -2.01775e-06 8.52848e-26)
(1.00222 -0.0863817 2.88448e-21)
(1.06566 0.082045 -3.1093e-20)
(1.00087 -0.00218316 -7.10926e-23)
(1.08277 0.0520288 2.69594e-21)
(0.992854 -0.00361363 -1.66347e-21)
(1.05887 -0.109438 -2.52579e-21)
(1.02925 -0.0263518 5.05133e-23)
(0.989178 -0.0197029 3.80036e-21)
(0.999024 -0.000590019 -1.23131e-22)
(0.995017 -0.000491106 -4.32447e-22)
(0.983434 -0.0464787 -4.39113e-21)
(0.982101 -0.00539218 5.70909e-21)
(0.994417 -0.00232876 1.67702e-21)
(0.999914 -0.000259145 2.00283e-23)
(0.990331 0.0580526 -6.15951e-21)
(1.07441 0.0447968 1.63402e-20)
(1.01564 -0.00660169 -1.57092e-21)
(0.999888 -8.56466e-05 2.27321e-23)
(1.01582 0.0561552 -2.05327e-20)
(1 -1.37521e-05 2.31197e-25)
(0.999895 -7.29865e-05 4.3866e-23)
(1.06809 0.0435357 1.35894e-20)
(1.00719 -0.0156791 1.89633e-22)
(1.07351 0.0748148 2.61639e-20)
(1.01433 -0.0027976 3.53224e-21)
(1.01082 -0.00803681 -3.2296e-22)
(1.06156 -0.0439519 5.0415e-22)
(1.03476 -0.0889308 6.7807e-21)
(1.13982 0.0319884 -4.62638e-21)
(1.00071 -0.00053849 -1.84338e-22)
(0.971352 -0.00932153 -5.84611e-22)
(0.99999 -3.31015e-05 -9.3271e-25)
(1.00324 -0.00730935 1.02487e-22)
(1.03691 0.0535188 1.44269e-20)
(0.990443 -0.00450011 3.87203e-21)
(0.998424 -0.000859703 2.61721e-22)
(1.00951 -0.026082 -1.26449e-21)
(0.998898 -0.000627869 1.49247e-23)
(0.999769 -0.000638992 6.51316e-23)
(0.960919 0.00373963 1.28338e-20)
(0.994433 -0.00308455 -1.38625e-21)
(0.99973 -0.000446657 -1.64715e-22)
(0.99999 -6.82117e-07 -5.29343e-25)
(1.01104 0.00349907 1.78877e-20)
(0.983136 -0.0162004 -9.38795e-22)
(0.999813 -0.00033752 4.81588e-23)
(0.998432 -0.000480117 3.21635e-22)
(1.01481 0.0121814 7.2949e-21)
(1.04306 0.00640841 1.42411e-21)
(0.976275 -0.0142381 -5.29285e-21)
(1 -8.54829e-06 -3.81479e-26)
(1.00167 0.0107011 4.7429e-20)
(0.991947 -0.0107333 -3.05341e-21)
(1.04125 0.0427076 -2.84958e-20)
(1.00769 -0.00111519 -4.31921e-21)
(1.00879 -0.000793254 9.92883e-21)
(0.980949 -0.00681308 7.89898e-21)
(0.999946 -3.90724e-05 -3.48636e-24)
(1.01452 -0.000188568 -1.65331e-21)
(1.04524 0.00468694 -2.13996e-21)
(1.12166 0.0366953 1.23072e-20)
(1.02554 -0.0674825 1.46602e-21)
(1.02165 0.0539068 1.65221e-20)
(1.00374 -0.000929504 -6.48153e-23)
(1.05329 0.0506358 -2.53437e-20)
(1.0002 -0.00920292 -3.53521e-22)
(1.01164 -0.0374401 -5.13018e-21)
(0.999781 -9.39126e-05 -4.38174e-23)
(1.00194 -0.0120897 6.482e-22)
(0.999938 -0.00026019 1.00937e-23)
(1.02746 0.0201382 -1.76678e-20)
(1.04487 0.0792162 -5.281e-20)
(0.999153 -0.000713125 9.78773e-23)
(1.01098 -0.00779194 6.71856e-23)
(0.989675 -0.00255744 1.30801e-21)
(1.02864 -0.0588153 5.33916e-22)
(1.02467 -0.0623195 -3.72758e-21)
(0.998993 -0.000487343 1.88863e-22)
(1.02834 -0.01694 -2.02351e-21)
(0.980358 0.000979339 -2.13232e-20)
(1.11847 0.0220118 9.24654e-21)
(0.999968 -9.4812e-05 1.5062e-23)
(1.03963 0.00491264 -5.21544e-21)
(0.998237 -0.00549036 -6.65542e-22)
(0.99547 0.0016705 4.74824e-20)
(0.992909 -0.00315527 2.28512e-21)
(0.997643 -0.0170966 -8.40815e-22)
(1.01105 -0.023065 -8.38654e-23)
(0.996301 -0.017683 -9.47327e-23)
(0.998978 -0.0138021 -1.96574e-21)
(0.995655 -0.00200728 3.74255e-22)
(0.999757 -0.00911432 1.12019e-21)
(1.00113 -0.00400742 -7.39566e-23)
(1.03561 -0.0149965 1.43882e-21)
(1.00006 -2.23153e-05 -2.06896e-23)
(1.13011 -0.0716978 -6.33521e-22)
(1.10543 -0.00678827 2.24062e-21)
(1.0077 0.0638042 3.70061e-20)
(0.977488 -0.0134309 7.9503e-21)
(1.06753 0.0707141 -1.32146e-20)
(1.00112 -0.000451362 3.10356e-22)
(1.04535 -0.0504702 -1.0078e-22)
(1.00301 -0.0247653 -1.98301e-21)
(1.01296 0.0211551 2.05689e-20)
(0.995944 -0.00240058 9.85065e-22)
(1.00006 -0.000108059 1.28603e-23)
(0.992286 -0.0111273 3.98394e-21)
(0.997394 -0.00587168 -5.00703e-22)
(1.02635 -0.016619 4.15169e-21)
(0.983031 -0.00393096 -4.72281e-21)
(0.986035 -0.00544081 1.38205e-21)
(1.08368 -0.0247167 1.43878e-21)
(0.991387 -0.00149883 -2.11082e-21)
(1.00938 -0.0242697 8.22676e-22)
(0.992625 -0.0530627 5.05972e-21)
(1.00001 -4.90539e-06 1.43509e-25)
(1.03549 -0.00957841 8.08712e-21)
(0.994245 -0.0476594 -1.37043e-20)
(1.07309 0.0609792 1.26952e-20)
(1.06177 -0.0492335 -1.32161e-21)
(1.0199 0.00189021 1.08405e-21)
(1.01642 -0.0682721 -1.00063e-20)
(1.01994 0.0717879 1.03892e-20)
(1.02223 -0.0231886 1.25364e-21)
(0.980101 -0.0061988 -4.66006e-21)
(1.00931 -0.0307686 -2.54988e-21)
(0.983677 0.00225294 2.07445e-20)
(1.1023 -0.0718338 4.44424e-22)
(0.992486 -0.00289385 -7.03327e-22)
(1.01692 -0.0859034 -7.62038e-22)
(1.01672 -0.0436204 3.24653e-21)
(1.02709 -0.0794507 -1.40016e-21)
(1.02714 -0.0543269 -3.54061e-21)
(1.049 0.0428707 2.30388e-20)
(0.998415 -0.000969161 1.66292e-23)
(1.00338 0.0241227 7.56015e-21)
(1.00472 -0.000872231 4.85483e-22)
(0.999769 -0.000329588 -6.70532e-23)
(0.999241 -0.00145834 5.55886e-22)
(1.03644 0.00120825 -1.98006e-21)
(0.979907 0.000488145 5.87151e-22)
(1.00091 -0.00414086 4.80697e-24)
(1.01167 -0.0347357 7.40585e-22)
(1.01445 0.0131805 -1.21534e-20)
(1.00002 -4.92337e-06 -3.92351e-25)
(0.987403 -0.00551464 3.27558e-21)
(1.01359 -0.00590145 3.62525e-21)
(1.04833 -0.027219 3.01129e-21)
(1.00471 -0.000712808 2.73238e-21)
(0.999033 -0.0011416 9.74664e-23)
(0.989851 -0.0255452 1.23318e-22)
(0.998617 -0.00536074 -2.10073e-22)
(1.00002 -2.68923e-06 4.20505e-24)
(0.985799 -0.0298894 -1.13571e-20)
(1.02835 0.0510695 -5.84833e-21)
(1.01232 -0.0204017 3.74231e-22)
(0.990146 -0.002951 -2.38142e-21)
(1.00105 -0.000190147 -1.11461e-22)
(1.01674 0.0155206 1.60444e-20)
(0.999783 -0.000374674 -3.14537e-23)
(0.999282 -0.000384136 -1.12697e-23)
(0.999801 -0.000108256 -4.11296e-23)
(0.999544 -0.00132667 -1.51498e-22)
(1.11144 0.0374069 9.4389e-21)
(1.01831 -0.0243569 1.09416e-21)
(1.00508 -0.0119033 9.14001e-23)
(0.98938 -0.00446437 -1.14316e-21)
(1.00002 -3.17865e-05 4.03232e-24)
(1.04785 -0.0852826 8.41804e-21)
(1.14022 -0.0158269 2.57569e-22)
(1.05168 -0.0926295 -4.04174e-21)
(0.998098 -0.0216966 -1.5852e-21)
(1.00814 -0.00564076 3.13809e-21)
(0.999882 -5.74357e-05 1.78296e-23)
(0.993019 -0.00729879 -1.50063e-21)
(0.973517 -0.0301124 -6.66839e-21)
(1.10991 0.02404 4.4632e-22)
(1.00059 0.0297888 -5.00819e-22)
(0.999312 -0.00201026 1.25777e-22)
(0.964899 -0.020194 3.67182e-21)
(0.997258 -0.00172451 -9.14243e-22)
(1.02088 -0.0216076 -1.75001e-22)
(1.0574 0.0409111 2.6384e-21)
(1.00027 -8.53191e-05 -8.18234e-23)
(0.999915 -0.000120441 -7.95935e-24)
(1.09318 0.070761 2.96485e-21)
(1.10536 0.010099 -1.59928e-21)
(1.0124 -0.0101151 1.15998e-21)
(0.998328 -0.00107975 4.6293e-22)
(0.998841 -0.000204227 -4.14665e-23)
(0.977953 -0.0307459 1.63758e-21)
(0.999902 -0.000216429 -2.77831e-23)
(1.01079 -0.0215632 -2.63038e-23)
(0.992478 -0.000654021 4.3126e-21)
(1.00049 0.0200742 -8.68705e-21)
(1.03071 0.0536043 -2.97205e-21)
(1.04194 -0.0465673 8.15525e-22)
(0.996791 -0.0479679 5.10306e-21)
(1.00358 -0.00103101 1.34459e-21)
(1.00889 -0.0159434 -7.28668e-22)
(1.09964 -0.00159302 7.70907e-21)
(0.996136 -0.0534972 -3.12024e-21)
(1.01128 -0.0294232 1.43809e-21)
(0.999999 -4.2911e-06 1.05285e-25)
(1.08982 -0.012279 4.75441e-21)
(0.985015 -0.00128869 4.227e-22)
(0.995479 -0.0597293 6.33233e-21)
(1.01187 -0.0189143 -1.17168e-21)
(0.97272 -0.00882589 -1.06531e-21)
(0.999783 -0.000196443 -2.14409e-23)
(0.998275 -0.000801408 -2.0222e-22)
(1.02368 0.0246862 2.03055e-20)