/*--------------------------------*- C++ -*----------------------------------*\
  =========                 |
  \\      /  F ield         | OpenFOAM: The Open Source CFD Toolbox
   \\    /   O peration     | Website:  https://openfoam.org
    \\  /    A nd           | Version:  7
     \\/     M anipulation  |
\*---------------------------------------------------------------------------*/
FoamFile
{
    version     2.0;
    format      ascii;
    class       volScalarField;
    location    "11";
    object      p;
}
// * * * * * * * * * * * * * * * * * * * * * * * * * * * * * * * * * * * * * //

dimensions      [0 2 -2 0 0 0 0];

internalField   nonuniform List<scalar> 
19930
(
-0.00231999
-0.0206283
0.0253183
-2.61716e-05
-0.00288916
-0.00356207
-0.0988865
0.749006
-0.0453737
0.722801
-0.0817512
0.372141
-0.0401344
-0.0022885
-0.00426623
-3.37081e-05
0.0563551
0.463538
-0.0746439
-0.0193073
-0.0384183
0.386164
0.718233
-0.0904625
0.0223233
1.38802
0.00607286
-0.0335727
-0.0946822
-0.0746439
-0.00144169
1.68674
0.60398
-0.0204726
-0.000647439
-0.00152875
0.817154
6.52338e-06
0.00759855
0.394891
0.0449222
0.751061
1.09793
0.00522372
1.39084
-0.0524079
0.676896
0.20428
-9.0122e-05
-0.0451132
-0.000757819
0.11316
-0.0101075
-0.00118405
-0.0269743
-0.0538419
-0.0332383
-0.00183659
-0.0132768
0.0640248
1.51003
-0.0398841
-0.0104905
0.658358
-0.000203966
-0.00669424
1.36179
-0.00730056
0.0698142
1.36866
0.0247107
0.0161429
-0.00388816
-0.0319848
1.37837
0.0206026
1.35195
-0.0601479
0.391069
1.26299
-0.00573403
-4.39372e-05
-0.0971546
-0.0412096
-0.0394324
1.10872
-0.0339557
1.86608
0.664004
1.47222
0.615865
-3.34055e-05
-0.000121163
1.79425
0.181332
-0.00964807
1.81449
-0.00197469
-0.0675605
0.861057
1.49006
-0.0257877
1.52995
0.0254759
0.208347
0.0467654
1.22675
0.0617374
-0.0270647
1.1282
-0.103214
-0.100771
-0.0299083
0.0285549
0.0316986
-1.53378e-05
1.04789
-0.00521911
-0.000326142
1.24184
-3.71481e-05
-0.0352418
0.430085
-0.0187808
-0.0203606
0.466619
0.489647
-0.032544
1.71215
1.07591
-0.0423056
-0.0439406
0.0450113
0.00768743
1.24795
0.188115
0.264437
-0.0388321
-0.0204024
-0.0617896
-0.0417149
-0.0348539
-0.0071755
1.5508
0.201517
1.26206
0.592151
-0.0320005
0.461444
0.00692767
-0.0316073
1.35101
-9.58611e-05
-0.0364252
5.47249e-06
0.598516
1.13364
-0.0958598
-0.0580014
-0.0425503
-0.0438427
-0.0876089
-0.00170966
0.218463
0.321231
1.84841
-0.0241979
-0.0926278
0.0163072
0.808927
0.25317
1.41407
1.03184
-0.0213461
1.93024
0.580986
-0.00238232
1.47485
0.0406524
1.17708
1.28807
1.67167e-05
1.55456
1.04258
-0.0182958
-0.0627117
0.0266802
0.82095
0.0190182
1.71317
0.498383
0.0910649
0.884511
0.0845425
-0.058235
0.360373
1.54476
0.158872
-0.0183853
1.73649
0.266633
0.00185058
0.00719647
1.67485
1.59252
-0.0425436
-0.0175059
0.116111
-0.0531389
-0.000979066
1.34765
1.46245
-0.033823
-0.0557024
1.16201
1.37683
-0.00432851
1.24109
0.0744984
0.00969585
-0.0249097
1.15191
1.60792
0.626534
1.12368
-0.0221994
-0.0148106
-1.03646e-05
-0.0032757
-0.00225907
0.423959
0.00195949
1.21102
-0.0594904
1.14686
-0.0315152
0.0498445
1.40116
1.8338
1.13688
1.3381
-0.0560464
0.788355
-0.0160598
0.227756
-0.00493334
-0.0439916
0.131959
0.118775
-6.73002e-05
-0.0263991
1.62776
0.417542
0.00583907
-0.0525204
0.00465898
-0.100389
0.780912
-0.0579532
-0.0497343
-0.0370317
-0.0176944
-0.000302297
-0.0311444
-0.0825359
1.54832
0.136051
-0.027528
1.16198
1.58239
-0.0335893
-1.18509e-05
-0.0391747
1.36152
-0.0741304
1.49991
-3.01496e-05
-0.0563311
1.09415
1.33525
-0.010879
-0.0306519
1.69315
0.0345801
0.0875536
1.5146
1.69979
-0.0366297
1.10364
0.292162
1.24874
0.972008
-4.70944e-06
0.122431
0.837123
-0.00255518
-0.0706904
0.19356
-0.116211
0.258963
0.177609
-5.21272e-05
-0.00143645
1.46662
-0.00375237
-0.08225
-0.0449091
0.401737
-0.036465
1.16497
0.26838
-0.0403563
-0.0628128
0.772451
0.392729
-5.83029e-05
1.47441
1.08193
1.45827
-0.00975187
-0.000222253
1.68004
-0.00387688
-0.0289665
0.369989
0.17235
-0.0407595
0.0173124
1.14243
1.79174
1.297
0.345321
1.95251
-1.53688e-05
-0.0195165
1.33717
-0.0608217
0.834536
-0.0295214
1.37559
0.255519
-0.00107383
0.249727
1.04183
-0.0673526
1.54818
0.993884
-0.000315247
0.033093
0.637555
0.492638
-0.00330691
1.02732
-0.00952529
1.91444
-0.0431191
-0.033535
-0.0252455
1.28396
1.03235
-0.040848
0.776557
1.47039
-0.00390403
0.9953
1.10467
1.93384
-0.00316838
0.465711
0.12182
-0.0579328
-0.000101645
1.39535
0.745586
0.137294
1.40807
0.370578
-0.0341077
0.77337
0.328564
0.430244
1.91524
-0.029985
0.334905
1.45429
-0.0540734
0.247051
-0.0654335
0.623602
-0.0333505
0.644484
0.143188
0.325836
-0.000820951
0.687873
1.44218
1.01106
-0.0998714
-0.0158319
1.65396
1.66966
-0.00443011
-0.0536826
1.2326
-0.0779026
0.0375374
0.791659
-0.026698
2.00195
-0.00186676
0.501989
-0.0108941
1.45395
0.978376
0.126147
0.033951
0.0971786
0.27385
-0.00195747
1.23771
0.0147021
0.693542
1.89211
-0.0134834
0.0266501
-0.00270435
0.21148
0.13987
-0.0305444
0.869775
-0.000531985
-0.0413641
0.0088865
0.0509556
-0.0288194
-0.00010295
-0.0404419
0.340995
-0.0824676
0.00841496
-0.0449193
0.209164
0.193744
-0.0465309
-0.0589054
-0.00114603
0.0690809
-0.0818238
0.00818548
-0.00368889
0.405434
0.996822
0.229475
-0.000301296
1.73499
0.00839989
-0.000594044
0.0411333
-0.0500258
-0.0393727
1.57777
-0.00234848
0.302533
-0.067363
-0.073864
0.776197
-0.0276946
-0.0473167
-0.0661882
-0.000112474
0.0382855
1.77504
-0.093762
-0.0584952
0.874277
-0.0411311
0.969079
0.453777
-0.0043763
-0.000892262
1.09998
1.86546
-0.104137
0.559124
0.315533
-0.0487259
-0.049901
1.22693
0.182049
-0.0902018
-0.0570512
-0.0401734
0.0768182
1.65572
0.380949
-2.86282e-05
1.53648
0.00361599
-0.0417083
1.06756
0.0094006
-0.0113276
-0.000380862
0.0920179
-0.0392145
-1.0425e-05
0.543117
-0.06769
1.24874
-0.000272247
-0.00136322
-0.0429476
-1.19721e-05
-0.109533
-0.083231
-0.00178602
-0.0318069
-0.0622805
1.06201
1.42483
-0.00365272
0.00123399
-0.0597986
1.44962
-0.00915313
1.46834
-0.0196302
1.90328
1.0292
0.568907
1.81747
0.0316022
-0.00875722
0.122663
-0.00503449
1.41106
1.22297
-0.0305388
-0.0330529
0.218129
0.0140003
-0.00734821
-0.0508551
-1.73169e-05
1.08346
-0.0618608
-0.0399147
-0.0156782
-0.0229618
0.516857
0.247413
-0.00376669
0.00283717
-4.49574e-05
1.90161
1.63527
-0.0037782
-0.0295698
0.0232429
1.21538
-0.0631168
0.310275
-0.0552658
1.31954
0.559049
-0.0411038
1.98454
0.0662206
1.27248
-0.0111132
-0.0876092
1.54043
-0.00391383
1.88824
1.16646
1.93055
-0.00832078
-0.0123937
-0.0314212
0.148887
0.00849696
-0.0239349
1.28657
1.33517
1.01567
1.43297
1.86411
0.618739
1.44396
1.01653
-0.00153028
1.12055
-0.0470307
-0.0537387
-0.00112941
0.00858024
-0.0571537
0.805624
0.143867
1.26208
-0.0159714
0.265699
1.20528
-0.00385745
0.0297315
-5.6688e-05
-3.68108e-05
0.806841
-0.0431724
-0.0467791
-4.20562e-05
-0.000905255
0.200664
-0.00023795
0.17916
1.91125
0.585782
0.674168
-0.035065
1.18255
0.228737
-0.00757672
-0.0292733
-0.00293139
-0.000381745
-0.000496393
-0.015455
-0.0796307
0.77059
0.124747
-0.0549786
-1.96051e-05
1.32105
0.0805464
-0.00161552
-0.00214942
0.277894
0.00114837
-0.0528082
1.20781
1.73321
0.946373
-0.0350015
0.975839
-0.0369317
-0.0350362
0.658074
-3.55509e-05
-0.0217056
0.476481
0.624291
-0.0399933
1.19236
1.58864
1.17082
-0.0520581
-0.0594379
0.0191438
0.339051
1.10609
-0.00357569
1.53116
-0.029622
-0.0864232
0.14126
1.76237
0.762881
1.24114
-0.0820251
1.85114
-0.0374656
-0.0331602
1.95158
0.108838
-0.0643753
1.25555
1.32357
-0.0391056
1.09063
1.44781
1.31431
1.1285
1.2819
0.99882
-0.0135931
-0.036968
-0.000317755
-0.0782742
1.43915
-0.0737268
0.404252
0.458991
-0.049053
0.193608
0.452937
1.47176
0.201835
-0.00145646
0.0853809
-0.0387586
0.0335596
0.0157024
-0.0819696
1.11549
1.50434
0.18319
1.4589
1.87839
-0.00273559
0.00144332
-0.00463361
-0.0285204
0.860382
1.90557
0.391898
1.17295
-0.0262677
0.921678
0.940674
-0.048003
-0.0464392
-0.0633813
0.392056
-0.0074006
0.139698
-0.0464092
-0.0622796
1.22361
-0.00708871
-0.00373171
1.31915
0.186599
1.6941
-0.0390759
1.00456
0.0163705
-0.0400047
1.52235
1.71864
1.43659
-0.0198644
1.72992
-0.0485373
1.50004
0.102176
1.42298
-0.0394618
-6.73092e-05
1.43019
1.51532
1.49426
1.43311
0.818291
0.261896
0.916328
-0.0646281
1.43351
1.18638
0.0987027
0.150037
-0.0132646
0.0325213
1.18314
-0.0575495
-0.0401499
1.47457
1.45108
-0.0393996
1.40058
-0.091253
0.281353
-0.0141891
1.48235
1.51465
1.87872
1.46699
-0.00291215
-0.0272722
-0.00122936
-0.0457547
1.68453
0.616316
1.13832
-0.0605254
1.02051
0.0273063
1.69058
0.00708531
1.46639
-0.0131989
1.63825
1.73402
-0.0291219
0.337323
1.62702
-0.00296267
1.77853
0.00508582
-0.00362357
-0.0474239
1.2836
0.497291
-0.0588567
1.39338
1.77264
0.943698
0.0704185
-0.0368393
0.107808
1.44456
1.73055
1.94958
0.607569
-0.0030973
-0.0378977
1.17069
-0.00123627
-0.0150275
-0.00133174
-0.0183055
-0.0568414
-0.0544597
1.55441
-0.00252326
-0.000928577
1.14914
0.5429
-0.00300447
0.356207
0.000391868
0.505177
1.18115
1.41564
-0.056953
0.389757
-0.0104477
0.0265608
-0.00399628
1.45986
1.56817
-0.0750544
-0.0790025
-0.0786258
-0.0225883
1.41142
-0.0105972
-0.0381881
-0.0819623
0.0449798
1.82529
-0.082468
0.161879
1.4794
-0.0077935
0.28474
-0.000642108
-0.0688933
-0.00347522
-0.00132131
1.81279
0.975558
-0.0784836
0.0805481
0.996096
1.37839
1.17574
0.018533
-0.0401609
-0.0272443
-0.0359132
1.10693
-0.0357686
-0.0337848
-7.25431e-05
-0.0351569
-0.00152495
-0.0612299
1.29951
-0.0639661
1.45229
1.41227
-0.0524455
-0.0254231
1.86442
1.02277
0.15723
-0.0280818
0.923393
-0.0344316
0.862632
1.81475
0.740439
-0.0333753
-0.0309772
1.28468
-0.0495702
-0.0657483
-0.0364856
1.60062
-0.0377721
0.083383
0.900057
0.621085
1.154
-0.00649276
0.709793
-0.0204899
1.47243
-0.0854871
0.420253
-0.0277013
-0.0342451
-0.00100888
-0.00166771
0.00015738
1.60065
-0.0431493
0.949397
0.26533
0.00460149
-0.0523764
0.633319
1.88604
1.65284
-0.0179807
0.577934
0.00820985
0.212473
-0.0377407
0.459567
-0.0560859
-0.00138223
1.10564
-0.0464701
0.0113745
1.5852
1.21413
1.48842
0.0740794
0.033764
-0.0190532
0.625669
0.0591219
-3.2108e-05
1.62751
0.300764
0.539745
0.0999707
-4.89598e-05
-0.0135623
0.000423369
0.502425
-0.000440344
-0.0265238
0.00169435
-0.036989
1.68062
-2.3126e-06
-0.0426293
-0.0572689
1.75505
0.0196648
-2.0672e-05
-0.0574493
0.441857
1.09438
-0.0259156
-0.0225323
-0.01534
1.14484
-0.0289463
0.600508
-0.0472184
-0.0565365
0.332644
1.00462
0.291006
0.553686
-0.00369838
1.19632
1.75387
-0.020307
0.852059
-0.0530376
1.79785
1.71725
-0.0531679
0.217199
0.165961
0.941973
-0.00035304
1.42951
1.92917
-0.00758625
0.38979
0.632334
-0.000714409
6.25046e-05
-0.0252595
1.8855
-0.0131636
-0.042086
1.43124
-0.00123622
0.915614
1.48383
-0.0347784
1.63417
-0.0419171
-0.0259834
1.49652
0.61995
1.15095
-0.00392192
1.4859
0.480583
1.41658
-0.0687917
-0.0108948
0.401369
1.62843
1.50025
1.65804
1.45202
0.030254
-0.0474849
0.132669
1.01406
1.42165
1.75221
-0.0452564
0.794829
1.79776
1.30984
-0.000605001
-0.0562985
-0.0268564
0.395626
0.0211362
1.57977
0.68105
1.41626
0.345598
0.0418496
1.42613
0.0707616
1.06657
-0.0425972
0.203424
-0.013044
-0.0414732
-0.0604733
1.74247
-0.0574624
-0.0364275
0.0525962
0.547919
0.238827
-0.035757
0.188964
0.0288537
-0.0591356
1.09034
0.594436
1.21985
-0.0572035
1.49442
-0.0516099
-0.000529699
-0.0138237
0.0064509
-0.0636805
-0.0644499
0.00159967
0.66284
1.66637
0.440133
0.223154
-0.0147732
-0.062528
0.830952
-0.00282259
1.80025
0.69118
0.00894
-0.0333331
0.102061
-0.0254335
-0.0239008
-0.0125973
0.0580517
-0.0728866
0.649329
1.70645
1.54258
0.552735
-0.00522962
-0.0420335
-0.00209141
-0.0154873
1.13335
-0.0134984
1.06182
-0.0501742
-0.023228
1.67935
1.7219
-0.000535148
1.44274
1.52817
0.37133
0.00537705
0.516509
1.12806
1.7175
0.888909
-0.0380722
1.67285
0.291473
-0.0306321
-0.0388946
-0.0465278
1.76339
0.00570393
1.47289
0.725915
1.64506
0.0196874
0.974533
0.926544
-0.058273
1.50511
0.0897357
1.6098
5.13235e-05
0.801079
1.07676
0.999744
-0.00153174
0.11226
-0.00418318
-0.0463198
0.806161
-0.0283742
0.932788
0.806466
1.89073
0.0343764
1.6203
0.0239269
0.0204162
0.181101
1.43721
0.293027
0.0704536
0.218193
1.16554
-0.00297728
1.85134
0.000407022
0.0369481
0.235421
-0.0325317
1.46215
-0.0345208
1.55221
1.19274
0.414701
0.163183
0.429828
-0.000889819
0.139591
1.58141
-0.0451426
0.0510422
0.742533
0.23154
0.0859428
0.166524
-0.0208865
1.68165
-0.0383363
0.177197
0.0346252
-0.0573036
1.4093
1.9083
-0.0437644
-0.0668579
0.00642684
0.293934
-0.000304545
0.362546
1.72868
1.64434
0.0209357
0.500142
-0.000289118
-0.0525308
1.21284
0.0044898
0.640955
-0.0344828
1.84812
1.13878
-0.0743852
0.00383192
-0.0291493
1.85199
-0.0430751
-0.00218961
-0.0255424
0.398003
-0.0566463
-0.0307579
0.319636
1.6889
-0.0856253
1.78683
1.95492
-0.0305153
0.0448372
-0.000297802
-0.0044375
0.00714482
-0.0395885
1.83296
-0.0296066
-0.00648858
1.07802
-0.060248
1.18574
-0.0109195
0.0806773
1.10692
1.10131
-0.0774022
-0.0235638
-0.0641842
1.34146
-0.0419974
0.722308
-0.0489384
-0.0172754
-0.0501805
-0.00812242
-0.00678576
-0.0832531
-0.0747375
-8.27606e-05
0.014278
0.347625
-0.0033789
-0.0453446
-0.0600623
-0.0306892
-0.0131534
1.6813
0.152918
-0.0329861
-0.00430387
1.30356
-0.00245437
1.12073
0.0286007
0.167455
-0.0124366
1.17025
0.742779
-0.0566132
-0.0218803
-0.0284481
0.89064
-0.000436041
1.09301
1.2944
0.000946242
0.0166163
0.38751
0.389521
-0.0508369
0.371986
1.20204
-0.0313088
1.0386
-0.0562635
0.0567626
0.988373
1.72174
0.119706
-0.000331346
1.4047
0.899255
-0.0359713
-0.0487928
-0.0988006
0.0587612
-0.033531
-0.0110244
1.29376
-0.0833223
-0.00155723
1.27359
-0.0241129
-0.0408198
0.594576
-0.00600395
0.473664
1.07713
0.0893877
0.991743
-0.0207533
1.65131
-0.0428754
-0.000489859
-9.81933e-06
0.128383
-0.000471551
-0.024046
0.472131
0.00171607
-0.00193986
-0.0336661
-0.026975
0.58817
1.46409
-0.000784549
-0.0258651
0.0157153
0.954691
-0.0689821
-0.0290637
-0.0356976
0.253033
0.625413
-0.0153781
-0.0165881
0.0204863
1.16935
1.23903
0.345616
1.10753
1.51167
-0.00837158
0.991837
0.393051
0.121335
-0.0325362
0.0721213
1.9384
0.00202496
-0.0422773
-0.0524176
1.13043
-0.0201155
-0.00190734
-0.0489012
-0.0557918
-0.00603896
1.4685
0.698915
0.949222
1.30019
1.11794
-0.0249147
0.471602
0.881025
0.151295
1.42718
0.550673
0.69984
-1.73424e-05
0.862414
-0.0419447
0.513831
0.77455
-0.0808236
0.304718
0.265122
-0.0324877
-0.0128187
0.154657
0.476399
1.7148
0.484437
-0.000130904
0.780343
-0.0270861
0.750769
0.592925
-0.0210593
-0.0361984
0.90211
1.42877
0.334277
-0.0639054
-0.0377013
0.608564
1.03593
-0.049863
1.26725
-0.0377997
0.471008
0.0814655
1.58541
-0.00147909
0.000898923
-0.00836606
-0.0393192
0.00328071
-0.0282341
0.975033
1.24733
0.00975984
0.678071
0.0111128
-0.0220514
4.35552e-07
0.609209
-0.0106448
0.623692
-2.93889e-05
1.06165
-0.054569
1.24184
-0.0175923
1.35886
-0.0545667
-0.0188929
-0.000724112
1.44756
-0.0490474
0.226845
0.416725
0.0152128
1.22362
-0.0188397
0.00355574
-0.041009
-0.00712363
1.4776
-0.00895384
-0.0393245
-0.0296566
-8.26076e-05
-0.0251889
1.26215
0.000214068
-0.0589667
-0.0011026
-0.00352668
1.15047
-0.0288482
0.209659
-0.0259342
-0.000290815
-0.0118319
0.0536375
-0.0421379
0.000757066
-0.0199977
0.687647
-0.000305883
-0.0364331
0.0516148
0.433083
1.39103
-0.0261635
0.00611935
-0.0584575
-0.0295243
1.04821
1.24131
1.49066
-3.60036e-05
0.533215
-0.0478563
-0.0447806
0.671986
-0.0342875
-0.0209773
-0.0256733
-0.0127973
-0.0341137
-0.0317795
-0.0244951
6.7041e-05
0.0394397
1.05542
0.0177759
0.783047
0.252542
0.170424
0.635229
0.426092
0.912461
0.0842145
0.896937
-0.000641996
-0.0188253
0.831661
-0.0615487
1.13094
1.07308
-0.0330256
-0.0563622
-0.000229175
-0.043359
0.112102
-0.0310674
-0.0319393
-0.0352745
-0.0280358
-0.0516216
-0.0398298
-0.0241709
-0.0127346
-0.0644213
0.913422
-0.048004
-0.00449291
-0.0574534
-0.000828611
-0.0554275
1.2444
1.20975
0.570615
1.57204
0.00197348
0.0254847
-0.0440748
0.000119925
-0.00737939
-0.000310138
-8.76879e-06
0.546007
0.309852
-0.000344669
-0.0438189
0.348599
0.612336
-0.0507098
-0.0313146
0.00298596
-0.00728645
0.0010519
-0.00226667
-0.0541211
-0.0342471
1.65109
0.000715727
-0.0318567
-0.0359868
-0.0432982
-0.0234898
-0.0349776
-0.000240555
-0.0248077
-0.0316079
-0.0501114
-0.0450089
0.247167
-0.0284734
0.666747
-0.0439122
-0.00507536
0.0348316
1.12438
1.17385
0.870289
0.0511168
-0.0437033
-0.0135469
-0.0348554
-0.0451369
-0.0405858
-0.0546071
-0.0426263
-0.0128617
-0.00968597
-8.31097e-05
0.229041
-0.010542
-0.000818237
-0.00418674
1.72555
-0.0396133
-0.0783983
1.61383
1.67014
-0.0349665
1.63425
1.53202
1.07905
-0.00299144
-0.0575451
1.67579
-0.00128087
-0.00121183
-0.00369043
-0.0392303
-0.0153221
0.0116879
-0.0374282
-0.0461897
-0.0449974
-0.0156975
-0.000138676
-0.0493312
-0.0167874
1.86346
-0.0375014
-0.0271842
1.85908
-0.009503
1.76364
1.63837
1.04861
-0.0302298
1.86045
0.260641
1.33431
0.034796
-0.000689557
-0.00680125
-0.00333136
0.165925
1.45131
-0.00428032
-0.000256641
-0.0408857
-0.000447188
-0.0877241
0.602165
-0.0003448
1.11369
-0.0492349
-0.00958918
-0.0499458
-0.0314569
0.361691
-0.0104119
1.65986
0.00107064
1.52425
0.012382
-0.0447809
-2.13013e-05
-0.0593825
-0.0121366
-0.0552914
1.32152
1.42726
-6.59213e-05
1.66902
-0.04677
-0.00109981
-0.0240065
1.53974
-0.0997408
-0.00124877
-0.00114269
-0.000146647
-0.000474765
-0.000238883
-0.00237847
1.69546
-0.000609508
-0.00512014
-0.00464862
1.79798
1.95981
-0.0101352
-0.053318
1.13852
1.84671
-0.052959
-0.0416726
-0.000106066
0.0649939
1.48609
1.12156
-0.000218352
-0.0326824
-0.0512149
1.56998
-0.0811753
-0.0245784
-0.0235912
-0.0215228
-0.0170897
1.20621
-0.000213601
1.60746
-0.0056344
1.76082
-0.00294171
1.64047
-0.029789
0.225116
-0.0237446
-1.97451e-05
0.000390806
-0.0155496
-0.0307439
-0.0139224
-0.000240468
0.000426734
-0.00530706
-0.0485163
-0.000296741
-0.0270883
-0.0259648
-9.62245e-05
0.30392
-0.000892143
1.11469
-0.0428794
-0.0107808
0.00134046
-0.0889565
1.82623
-0.023326
-0.0178044
-0.0184987
-0.057047
-0.0338266
1.02794
1.19525
0.00957255
-0.027189
-0.00176054
0.36159
1.60153
-0.0558927
1.03322
1.26023
-7.88639e-05
-0.05796
-0.0354526
0.00101268
-0.00112826
-0.00155748
0.000706518
-0.0132143
-0.0143856
0.0153035
-0.0278348
0.0410683
0.518198
-0.0429906
1.09861
0.2826
-0.084947
-4.0197e-05
0.000296261
1.44755
-0.00312919
-0.0542803
-0.00126481
-0.0528869
-0.0257779
0.850847
0.197677
1.70131
-0.000239462
-0.000576648
-0.0474506
0.571555
0.00465176
1.60944
0.287704
-0.0384165
-0.0224588
-0.0567207
0.0284458
1.00125
0.123508
1.48183
-0.0593124
-0.000614245
-0.00450449
-0.0224932
-5.36486e-05
-0.00134298
-0.00643554
-0.0244638
0.0125793
-0.0531806
-0.000212862
-0.0548864
-0.0626531
-3.86572e-05
-0.000204906
0.00448575
0.000140842
-0.000812301
-0.00915222
0.0836533
0.000454115
0.183459
-0.0230364
1.1436
-0.0466499
-0.0536952
-5.29845e-05
-0.0520943
-0.0546842
-0.00898815
-0.0136124
-2.81811e-06
-0.0119057
-0.000282223
-0.0497786
0.132359
0.3496
-0.099937
-0.00027323
0.169424
-0.0625437
1.21326
0.861874
1.04822
-0.00304195
-0.00903465
-0.000924218
-0.0116023
1.50787
1.0557
-0.00514444
-0.00605895
0.74595
1.07259
1.7103
-0.000352141
-0.00664023
-0.0190231
-0.000113086
-0.0003931
-0.000204031
-0.00184537
-0.00552847
1.13894
-0.0154509
-0.000813554
0.0132523
7.67858e-05
0.108782
0.00721624
0.594353
0.00027273
0.438266
-0.0536882
-0.0548437
0.425794
0.329328
-0.000223965
0.474506
1.59581
-0.0551565
1.18106
-0.0555362
-0.0103036
1.29625
-0.00372793
0.972428
-0.00477343
0.0218681
-0.0417904
-0.012605
-0.0277077
-1.14409e-05
-0.000761057
0.0735787
2.59628e-05
-0.0233699
-0.0485771
1.62699
0.0126719
0.00375537
1.11218
-1.36558e-05
-0.000114727
0.013145
-0.00262673
1.57891
-0.00335462
-8.00425e-05
-0.0293648
0.31421
-0.0331364
0.000759327
-0.000165786
0.221075
0.0118385
-0.000133303
1.41038
1.78732
-0.000382507
0.0981393
-0.00187991
1.20877
-0.00110072
-0.00541473
-0.000261106
5.45856e-06
-0.0405241
0.00411272
0.000548657
-0.0955243
-0.00219467
-0.0265756
-0.000108453
-0.000933412
0.0156629
1.31442
1.39008
0.010774
0.876905
0.20619
-3.87291e-05
1.0874
-0.0121545
0.00134184
0.00417896
0.0516964
-0.00103085
0.061252
-0.00229652
-0.0267704
0.42888
-0.031557
-0.0247267
0.333195
0.835322
0.37757
-3.82414e-05
-6.53304e-06
-0.0273665
0.558413
-0.010032
-0.0789301
-0.000560455
1.07382
-0.0448724
1.31405
0.735413
-0.023942
0.4805
-0.00145065
1.12743
0.132531
-0.0518322
-0.000454324
0.00061696
-0.0215094
-0.0253775
-0.0185343
-0.0309296
0.391544
-0.0131364
0.661959
-0.000558618
0.00535273
-0.00116263
0.23813
0.0518971
0.00202061
-9.84773e-05
0.0441965
0.58361
-0.0374014
0.0375364
0.0324049
0.23329
0.027671
-0.00127627
0.000120551
1.25064
1.36086
1.44578
-0.000252426
1.37472
1.22574
1.37937
-0.00438176
-0.000456909
-0.000143541
0.657573
0.939974
-0.0768751
-0.0591851
-0.0439354
-0.0229368
0.237986
-0.0220016
-0.0111514
1.00957
0.000974543
-0.019673
-4.28995e-05
-0.0256082
1.39006
-0.0426103
-0.000715774
9.24345e-06
1.53775
1.17569
0.105095
0.525209
-0.0204596
0.0865197
-0.0246347
0.0677608
0.0514969
0.0413829
0.493323
-0.0301491
0.308355
-0.00039825
1.33939
-0.0188081
-0.0113599
1.06626
0.0392336
-0.0214529
-0.048502
0.0478188
0.42676
0.00930525
-0.000101221
1.04484
0.000107825
-0.0241329
0.203445
-0.000839472
-0.00781225
0.000909784
-0.0526731
-0.0390848
0.177688
-0.000728342
0.153369
-0.0264789
0.133102
0.114526
-0.0188587
-0.0316433
0.0988284
-0.0461849
-0.0233536
-0.0193707
0.808254
-0.0270308
-0.0107133
-0.000262865
-0.04124
-0.0644378
-0.000405451
0.731053
1.27888
-0.0452827
-0.0336035
-0.0218359
-0.0124281
-0.000444279
-0.0073293
-0.00444222
0.14168
-0.000685582
0.0290041
-0.050534
-0.0415425
0.000492736
-0.000552182
0.747935
-0.00558587
0.27328
0.888447
-0.0120076
-0.0614967
-0.0400261
-0.000145368
0.246146
-0.0521619
-0.0457878
0.217342
0.4416
-4.45722e-05
0.191404
0.558923
-0.000649178
0.383793
-0.0226303
0.00912069
1.03302
-0.00830682
-2.67358e-05
-0.000341666
0.854934
-0.0493496
-0.0335962
-0.0467693
-0.0235127
-0.0115394
-0.0182756
-0.0428584
0.340382
1.47363
1.67766
1.13623
-0.000490171
0.747646
0.306927
-0.0274005
-0.0480674
0.754236
-0.0534358
-0.076603
-0.000895468
-0.0410857
0.968358
-0.000188818
-0.0648316
-0.017379
0.0330084
0.000198474
1.13742
-0.0572198
1.08805
-0.0340135
-0.0339536
0.00762965
-0.00103904
0.98916
-0.0256916
-0.01172
-5.95882e-05
-0.036515
0.0926608
0.40714
-0.0185253
-0.000908805
0.511293
-5.36648e-05
0.700955
0.373712
-9.88611e-05
0.739165
-0.0542119
-0.000440666
-0.0220632
-0.000305111
0.00012091
-0.00452219
0.807397
-0.0379431
0.000182888
-0.0561632
-0.0221292
0.943542
1.37436
-0.000120155
-0.0231518
-0.00783503
-0.0161102
0.926439
0.0406039
-5.93337e-05
0.648975
0.339214
1.14631
-0.0167104
0.000339895
0.712166
-0.00379556
-0.0514403
0.0466331
1.50351
-0.0418644
-0.0254574
-3.72511e-06
-0.0106194
1.49062
-0.0501828
1.7438
0.481745
-0.0179914
-0.000524752
-0.0333049
-0.0126857
-2.99585e-05
-0.0233004
1.46149
-1.41828e-05
-0.0245719
1.48796
-0.000200709
-0.0233908
-2.7036e-05
-0.00202268
-3.76286e-05
0.122584
-0.000371663
-0.00193363
-0.068571
-0.00144546
-0.000100276
-3.20656e-05
-0.000232626
-0.0318068
-3.28149e-05
-0.000836797
0.00445433
-0.0245788
1.73155
0.15108
-0.0099236
-0.00605371
-2.1374e-05
-0.026308
-2.10318e-05
0.3632
1.0439
-0.00278762
-0.0216888
-0.0119995
0.251889
-0.000172403
1.83532
0.00134615
-0.00134125
0.728966
0.0177514
-7.30123e-05
-0.0458008
1.10052
-0.000407409
0.99777
1.12679
-0.0301979
-0.0464297
1.33977
-0.0250546
-0.00193168
-0.052599
0.675451
0.365866
-0.0465575
-0.000571743
1.41669
-0.00066662
0.0360644
-0.00660224
-0.00276602
1.63608
-0.000480031
-6.57577e-05
-0.0354443
0.579165
1.75385
1.0878
1.87789
-0.00778679
1.61358
-0.000747625
0.835283
-0.00373021
-0.000993498
0.490379
-0.0270434
0.333327
-0.000256546
-0.0643053
1.77081
-0.0294701
0.0395626
0.000677676
-0.00106821
0.420982
0.00177337
-0.0477784
-7.09358e-05
-0.0272049
-0.000163732
1.80346
-0.0265419
-0.0395009
0.253934
-0.036467
0.470688
0.946997
-2.12925e-05
-0.0126228
0.602334
1.18269
1.84291
-3.46107e-05
-0.0289623
-0.0339052
-0.0016087
0.674263
0.750124
-0.0336825
1.50708
0.375628
0.517607
-0.0222096
1.04028
-0.0502529
-0.000400326
-5.23998e-05
-0.000114612
-0.000229545
0.000389756
-0.034924
-4.20231e-05
0.000452836
0.0119641
-0.000141428
0.669843
-0.0263375
-4.08905e-05
1.77182
2.53225e-05
-0.000386959
1.36881
1.8407
-0.0579435
-0.0160273
1.32696
-0.0134954
1.59728
0.218721
-0.000587907
-0.0661363
-0.0246324
0.00150824
0.000263165
1.00065
-4.29383e-05
-7.10356e-06
1.51654
-0.000351632
0.00102055
-0.0461587
-0.0340389
-0.0454816
-0.000203905
0.234713
-0.0493647
-6.0073e-05
-0.0435448
-0.00196306
0.786376
-0.000149274
-0.000190283
-0.00180167
1.47044
-0.0134155
-0.00677015
-0.00217047
0.00132845
1.41035
0.018666
0.375915
1.32576
-0.00079843
1.65206
1.25096
-0.0122133
-0.0656216
1.27147e-05
-0.0302807
1.5977
0.00208108
-0.000430439
-4.8784e-05
-0.0509003
-0.00698472
-0.000583335
-0.000129137
1.63821
-7.78063e-05
1.14946
-0.0220197
-0.0722267
-4.29199e-05
-0.0270481
-0.000951764
1.37291
1.40393
0.369603
-0.00197861
-0.063298
-0.0553987
0.461855
0.33394
0.651602
-0.0862528
-0.0500655
-0.0608268
-0.00071946
-0.0016428
-0.000717584
-0.00326242
-0.00231556
-0.00275648
-0.00366039
-0.00649671
-0.049642
-0.00594189
-0.00446304
-0.0534332
-0.000765678
-0.00387135
-0.000194599
1.98214
0.303639
-0.005347
0.00290191
-0.00456213
-0.00015556
-0.000930008
-0.00603979
-0.00515044
-0.0577802
-4.5881e-05
-0.0607494
-0.00141165
-0.00093914
-0.00020149
-0.048734
-0.0461512
-0.00708061
1.46535
-0.013754
1.11283
-0.0539828
1.54824
-0.066597
-0.0678258
-0.0687927
-0.0688728
-0.0685201
-0.0692226
-0.0684502
-0.000630399
-0.068145
-0.0665053
1.38943
-0.0654622
0.0232927
-0.0601488
-0.0011044
-0.0479032
-0.025935
-5.76314e-05
-0.00689303
-0.000248632
-0.00318439
0.113046
-0.00114528
0.467088
1.19921
-0.0150852
0.00128626
-0.050339
0.00378897
-0.00946372
-0.0151386
-0.0406578
-0.000264012
1.80239
-0.022624
-0.0301242
-0.00817393
-0.00143773
-0.00827027
-0.00477615
-0.066182
-0.0109174
-0.00280156
-0.0172798
0.16344
-0.000140354
-0.000512362
-0.00920036
0.0516175
-0.00334517
-0.00561848
-0.00402557
-6.92545e-05
-6.34776e-05
-0.00120452
1.06593e-05
-0.00233557
-0.0065819
-0.00547276
1.36153
-0.00118519
-0.00419965
-0.00163162
-0.000241048
-0.000142082
-6.0677e-05
0.716863
-0.010486
1.20281
-0.00888739
-0.00146375
-9.67528e-05
1.07181
-0.0373678
-1.89272e-05
-0.000410143
-0.000298629
-0.017677
-0.00767382
0.0925773
-0.000162734
-0.0257516
-0.00094896
-0.00300495
-0.00179231
-0.0102211
0.00174952
-0.047479
1.32958
-0.0635416
-0.0186704
-0.000816386
-0.000224955
-0.0518989
-0.000170007
0.0174092
-0.0071304
-0.00778368
2.6881e-06
-0.0136517
-0.0153248
-0.0903709
-0.00075489
-8.56191e-05
-0.0341048
-0.000590604
-0.0117373
-0.010514
-0.0093661
-0.000170759
1.61337
-0.000461151
1.89144
-0.0171865
-0.0119954
0.0114305
-0.000122407
-0.000240062
0.0911172
-1.32164e-05
-0.0212374
-0.000828547
0.0258117
-0.0134573
-9.19353e-05
-0.000414475
0.000924843
1.61316
-0.000689729
-0.0351969
0.00872312
1.31102
-0.051594
-0.0526951
-0.000212182
-0.00711056
-0.0176108
-0.0880945
-0.0104534
-2.29182e-05
0.0132326
1.73712
-0.0508193
-0.00133083
-0.0151725
-0.000345612
1.13684
1.30458
-0.000224421
-0.0021088
0.813023
-0.000566341
-0.0125846
-0.000265217
-0.00101886
-0.0356525
-0.0472838
-0.0767598
0.0733225
-0.00173074
-0.000325175
-0.000458995
-0.0312163
-0.00955589
0.755145
-0.0229433
-0.000284583
1.22111
-0.00278828
-0.00213343
-0.0634866
-0.0132369
-0.00208082
-0.000505619
0.00659538
-0.00340967
-0.0243384
-0.000287076
-0.00148515
0.759076
-0.0132578
0.799947
1.52587
0.00471949
-0.000719789
-0.0800378
-0.0143813
1.75398
0.0159866
-0.00297224
-9.38904e-05
1.06161
1.64026
0.578575
0.14977
-0.0523295
-0.000369886
-0.0480361
-0.00119025
0.000334765
-0.0200709
1.05182
-0.0386526
-0.000713508
0.00111782
-0.00243559
0.258081
1.06505
-0.0173964
-0.0444325
-0.00285178
-0.00230702
-0.00231298
1.58476
0.00307951
-0.000953254
-0.000557283
-0.00509778
-0.0309055
0.269113
-0.0113035
-0.00410719
-0.0209926
-0.000152161
0.0166923
0.903794
-0.0601169
-0.00177546
0.0185134
1.09609
-0.00343539
0.336648
1.3393
0.000323569
-0.000136423
0.327772
0.844168
0.454911
0.683488
-0.0575368
-0.00189353
-3.71032e-05
1.02965
-0.0327781
0.000746115
-0.0485453
-0.0207247
-0.0366298
-0.0506328
-0.0040732
-4.05692e-05
0.964172
0.00160154
-0.0491099
1.398
-0.0333324
1.30761
2.87264e-05
-0.0467044
1.234
1.76292
0.014181
-0.0101541
-0.0183845
-0.00109052
-0.00545212
1.21982
0.0131781
-0.0452447
-0.0047017
-0.00134635
-0.00305327
0.00220647
-0.000694819
0.835078
-0.000544855
0.0124932
-0.00406134
-0.00675725
-0.00108837
0.536152
1.0188
-0.0649267
-0.0665928
-0.0678811
-0.000875484
0.00460539
-0.000415401
-0.0666695
-0.0674504
0.661288
1.15071
-0.0674004
0.589268
-0.0214805
-0.0234473
-0.0197087
-0.0665579
0.618426
0.465791
-0.0662943
-0.00958728
1.20327
0.757858
-0.00588094
-0.000179596
-0.00160074
1.59561
-0.00127497
-0.000150456
-0.00474212
-0.00260878
-0.00165213
0.00181936
-0.00307816
0.013621
0.387228
-0.0425908
-0.000172324
-0.0430112
-0.0454282
-0.0228958
-0.0445065
-0.06505
-0.00216328
-0.00307494
-0.00549314
-0.016093
1.15077
-0.00376874
-0.00644756
0.0623514
-0.000112274
1.53038
1.08118
-0.0447769
-0.00443064
-0.00170717
-0.00522196
-0.000451745
1.15188
0.128798
-0.00189043
0.0533944
-0.000105126
0.0456528
-0.00195055
0.0393238
0.0335489
1.42936
-0.0213774
-0.000287093
-0.00722567
0.00299075
0.646391
0.880054
-0.0515806
1.00963
1.62899
-0.011665
-0.0259769
0.968121
-0.0061308
0.128551
1.54085
0.914027
-0.0174411
0.967188
-0.00761879
-0.00982564
-0.00198522
-0.00218286
-0.0637595
-3.88342e-06
0.105459
0.0858309
0.070532
0.0547002
-0.0282518
0.226463
-2.73911e-06
-0.00818927
0.545503
-0.0163518
-0.00013401
-0.00376801
-0.0071426
-0.0402363
-0.000365286
-0.0167307
0.0448862
1.88476
0.199069
1.17627
0.274927
2.00622
0.173847
0.150937
1.46404
1.53002
-0.0167599
0.512952
-0.000322831
0.118724
0.13126
-0.00828473
0.113681
0.00905586
-0.0532537
-0.00941726
-0.00864833
-0.0095828
0.000378733
-0.0100182
0.988976
0.010175
0.0032023
0.000541018
-0.0356242
0.000182715
1.35638
-0.00236276
0.950655
-0.0249118