/*--------------------------------*- C++ -*----------------------------------*\
  =========                 |
  \\      /  F ield         | OpenFOAM: The Open Source CFD Toolbox
   \\    /   O peration     | Website:  https://openfoam.org
    \\  /    A nd           | Version:  7
     \\/     M anipulation  |
\*---------------------------------------------------------------------------*/
FoamFile
{
    version     2.0;
    format      ascii;
    class       volScalarField;
    location    "31";
    object      p;
}
// * * * * * * * * * * * * * * * * * * * * * * * * * * * * * * * * * * * * * //

dimensions      [0 2 -2 0 0 0 0];

internalField   nonuniform List<scalar> 
7807
(
0.232465
-0.02071
0.345226
0.214697
-0.000750252
-6.38572e-06
0.339617
-0.0040825
-8.63057e-05
0.08244
-6.17059e-06
0.00139245
-0.00623788
0.037522
0.0862248
-0.0137499
0.244388
-0.00841166
-0.00173148
-0.0874259
0.0509445
0.000835145
0.0261118
0.166415
-0.0110197
0.241006
-0.00070009
0.0477235
0.138495
-0.000708453
-0.0167285
0.469915
0.0254688
-0.00032567
-2.54939e-05
0.0661787
-0.000575772
0.328999
-0.0057554
-0.000140098
-0.00557834
-0.0129079
-0.098859
-0.0789824
-6.23014e-05
-1.94265e-05
0.000813531
-0.00578002
-2.08019e-05
-0.0873137
0.00233655
0.0449193
-0.0139036
-0.0142443
0.065352
-0.00395754
-0.00153768
-0.00391865
-0.0245474
-0.000317034
4.22714e-06
0.0031666
0.0378624
0.00159324
-0.000476554
-0.0168948
-7.38647e-05
-3.62727e-07
0.0586728
-0.0054445
-1.76202e-05
-0.0586109
-0.0107174
-0.0184122
-0.00818922
-0.0352329
0.341232
0.0498695
0.0348798
-0.0545934
-0.00604553
0.29087
0.0776051
-0.0210934
-0.00157615
-0.00140347
-0.00460358
-0.0135954
-0.00066227
-0.00286253
0.141755
-0.0893799
-4.83609e-05
-0.000987224
-0.00253863
-0.0169037
-0.0558613
-0.0116397
-0.00164486
-0.000607019
-0.0337635
0.042784
-0.00244097
-1.78746e-06
-0.0790497
0.146022
0.39743
-0.0041348
2.18146e-08
0.0205063
0.201427
-0.0690844
-4.43639e-07
0.0220498
0.146232
0.000133366
-0.0922032
0.114965
-0.0427528
-0.0198501
-0.0325246
0.276674
-0.0941749
0.00717669
-0.031502
-0.000918431
-0.0144149
-0.000584251
-0.000505651
-0.016743
-0.144637
0.0360132
-0.000438769
-0.000742405
-0.0216499
0.194125
0.334126
-1.37543e-06
0.00612493
-0.0442655
-0.0169198
-0.0572763
-0.0367964
-0.0177029
0.396676
-0.0324203
0.139437
-0.0261312
-0.0221657
0.276292
0.0628075
-0.0776004
-0.00150988
0.0378117
0.0772852
0.306793
-0.0418742
-0.00594989
0.407234
-1.79504e-05
-0.001674
0.17266
-6.30555e-06
-0.00290923
-0.00283937
0.215633
0.216161
0.424529
-0.00303845
-0.00203551
-3.39798e-07
-0.0281312
0.000132837
-0.0139649
0.00677285
-0.021955
-0.0561841
0.120244
-5.43031e-05
-0.000412134
0.220058
-1.3796e-05
-2.71239e-05
0.344268
-0.0260447
-0.0552955
-0.0407653
-0.0184761
-0.0351247
-0.0450656
-6.13966e-06
-0.0534311
0.126388
-0.00257601
1.2561e-05
0.165879
-0.000770323
-0.0157737
-0.0325571
1.79006e-07
0.000214975
0.199204
0.155858
0.304433
-0.0854898
-0.0643128
-0.150491
0.0525601
0.196059
-6.80071e-05
3.71704e-06
0.372142
-0.0117209
-0.000430581
-0.0516027
-0.0151664
0.279135
0.283993
-0.0620466
0.456917
-0.000721581
-0.00803294
-0.0341987
0.0640275
-0.122974
0.201605
0.402301
8.05073e-07
0.00783613
0.1233
-0.00492571
0.112194
-0.000629124
0.458488
0.2988
-0.00439241
0.000218599
-0.000129164
0.118375
-2.1492e-05
-0.00878129
-0.0470578
-2.18282e-05
-0.00167043
-0.000545114
0.130065
-7.97033e-06
-0.00296276
-0.0537617
0.465244
0.028091
0.429706
-7.55688e-06
-0.0345819
-0.000153168
0.321141
0.00299673
0.335178
-0.00160733
7.50401e-05
-0.0105853
0.0553489
0.000253319
-8.9582e-05
0.000198835
-0.00523766
-0.057871
-7.35945e-06
-0.0403369
-0.00271831
-5.31431e-05
-0.000476255
0.328275
-0.005513
-0.000370324
0.420969
-0.00171876
0.220436
-0.000156677
-0.00781045
2.91561e-07
-0.0361837
0.0611041
-0.0470941
-0.0255538
-0.000362051
-0.0736935
-0.0113641
-5.21098e-05
0.000190465
-0.00260117
-0.00570344
0.00205814
-0.00133526
-0.0202679
-0.0527011
-0.0190474
-0.0654077
-0.0240154
0.302953
0.315626
-0.00109432
-0.0806838
-5.26541e-07
-0.00306701
-0.0167027
0.161793
0.0883504
2.01614e-05
-0.00284499
-0.0234077
0.138137
-0.000927691
0.00263224
0.000637128
0.0231812
-0.160069
0.296412
-0.000995121
-0.0245457
-5.1113e-05
0.00192736
-1.37163e-05
-0.022652
-0.000153135
-0.00371323
-0.11258
-0.0342101
-0.00614464
0.00698572
-0.000354751
0.0150842
-0.0136443
0.0558253
0.133041
-0.192492
-0.0862124
-0.0116093
0.00374218
-0.0467283
0.43187
-0.0753273
0.0298651
0.44869
-0.000965678
-0.00134633
-0.0876981
-0.00128421
-0.0289205
0.0052136
-0.00185868
-0.00131134
0.130971
-5.8639e-05
0.000238408
1.32147e-05
-0.00229932
-0.00886962
-8.59507e-07
-0.000639656
-0.0235093
0.378398
-0.00606305
-0.0112327
0.376435
0.246228
0.045057
-0.0677024
-0.0282818
0.00347515
0.209048
-0.00837512
0.253683
-0.0397095
-0.113413
0.158242
0.256888
-0.0362264
0.0818492
0.200012
0.231134
0.0508257
-0.0024677
-0.00366273
-2.91192e-05
-0.00838264
-0.00849334
0.000207551
-3.53334e-05
-0.0011745
-0.0718081
0.0596343
-0.0145968
-0.00650911
-0.002749
-0.0260381
-0.00548927
-0.000441779
0.171936
-0.00118341
-1.48361e-05
-6.16445e-05
-4.26612e-06
-0.0180294
0.126793
-0.00293697
0.027715
-0.135588
0.320248
0.00103474
0.00524275
-0.0044375
0.317207
-0.000582039
0.293608
0.142675
-3.79987e-05
-0.0417778
-0.00227142
-0.0562279
0.000252729
0.0534492
-0.00213346
0.00478329
-0.000481284
0.116767
0.141015
-0.0619652
-0.025108
-0.00278719
-0.0324823
0.0354696
0.461015
-0.0850833
0.0021634
-2.46808e-07
-0.0114026
-0.00149936
0.0131094
-0.10677
-0.0930838
0.33903
0.126726
-0.137689
0.175581
0.307684
0.0292352
0.000401878
0.221138
-0.00114051
-0.000113465
-0.0116735
1.86174e-05
-0.165421
-0.00656224
-0.0333005
0.00109256
0.170226
-0.00117588
-1.2977e-05
-0.119164
0.000985109
0.00515552
-0.0331655
-0.0393445
-0.0408197
0.124651
0.100659
0.103733
-8.45692e-05
0.0507872
0.0629462
-0.000450348
-0.0142618
0.000280895
-0.00163783
-0.0137102
0.00363812
-0.000814924
0.111587
-7.57024e-06
5.95766e-05
0.00122791
-0.0165898
0.0184908
-0.029709
-0.0202689
-0.0525751
-0.141141
-0.00637697
0.214281
-0.0969119
-0.00551571
0.458729
-0.0561983
-0.0093278
-0.0201463
-0.0119138
-0.014866
-0.00870842
0.0257734
-0.0826083
-1.51087e-05
0.0220354
-3.13943e-05
0.300689
0.0685747
-0.00396306
-0.00972098
-7.66482e-05
0.291085
0.277757
0.0326064
0.122501
-0.0614384
0.339935
-5.20061e-05
0.00444155
-0.0123338
0.126237
0.413665
0.0216667
0.120986
-0.00559605
-9.27807e-05
0.107348
-0.122792
0.305046
0.00781229
0.184556
-0.00576365
0.323278
0.263361
-0.00752463
-0.00642957
0.0830972
-0.0403942
-6.63253e-05
-0.0110874
-0.0438202
-0.071657
0.00997145
0.00736298
-9.46172e-05
0.281884
-0.00435028
-4.49376e-05
-0.0481793
-0.000357801
-9.97259e-05
-0.00047053
0.186624
-0.104719
0.389428
1.10817e-05
0.185258
-0.0386425
-7.14849e-05
1.41255e-06
0.13632
0.178538
-0.00350527
0.159526
2.05477e-06
0.169372
-0.184034
-0.00779807
0.319674
-0.0486751
0.113662
-0.0186659
0.167761
0.176112
-0.0146724
-0.018642
-0.00803498
-0.00202344
-0.000126122
-0.00422155
0.238447
-1.29421e-05
0.161948
-0.105038
0.269001
0.152837
-0.0435634
0.388684
-0.00129326
-0.005669
-0.0721142
-0.0150997
-0.0055723
-0.0415664
0.0171101
0.435022
5.64536e-06
-0.00151335
-0.0652276
-7.93818e-08
0.308647
0.0010225
-5.81784e-07
5.4075e-05
0.000150621
-0.0211015
0.0125859
-0.00115055
-2.21e-05
-0.00579588
-0.00176683
-0.113408
-0.0360512
0.0193118
-2.13112e-06
-0.177896
-0.0102917
0.0894692
0.260474
2.14104e-05
0.0964248
3.76085e-05
-0.00995144
0.0737795
-0.0058107
0.202918
-0.0113069
0.00752684
0.0767937
0.124007
-0.000654949
-0.0084147
0.150689
-0.0837812
0.328715
-0.00799336
0.232514
-0.00765389
-0.000758671
0.114249
-0.011255
0.0702582
0.00107622
-4.83552e-07
-0.129205
0.165592
0.000323482
0.0849115
-0.0106894
-0.177567
-0.018753
-0.0311222
-0.00126886
-0.00585473
-0.0684732
-0.0221327
-0.00792393
-0.000170111
0.348932
0.0913462
0.0270217
-0.000109717
0.26031
-3.57014e-06
-9.83859e-05
0.101385
-0.0082178
0.139672
0.0466651
0.0131115
-0.0719005
-0.143093
-0.0433552
0.000670616
-0.0328585
-1.65623e-05
0.000211423
0.195315
-0.0139907
-0.00217525
-0.025453
-0.00147015
-0.000492957
0.418175
-0.00849505
-0.000460476
2.60396e-07
0.112288
-0.0316629
-0.000291934
-0.00191572
0.131649
0.063469
-0.0344106
-2.38433e-06
0.146337
-0.018231
0.160331
0.0150551
0.0192189
-0.0242923
-4.13163e-05
0.0747736
0.0552612
-0.0074856
-0.0985972
0.237269
0.00461117
0.146306
-0.00700742
-0.0452949
-0.000203853
-0.00816699
-0.000143541
0.132122
0.21622
-0.00120138
0.0150866
-0.0134774
-0.0835732
-0.0906613
-0.00130049
0.00292253
0.406145
-0.0255847
-5.58568e-05
0.0630357
-0.00578377
0.349171
-0.0102117
-0.0200371
-0.0182855
-0.0222227
-0.0136838
-0.00620033
-0.00764474
-0.000385999
0.00999714
2.20077e-05
-0.175528
-0.0494004
0.298204
-0.0331575
0.145392
0.001203
-0.0734197
-0.0271155
0.171559
-0.00621562
7.68008e-06
-0.0184012
-0.00725677
0.00626949
-0.0202634
-0.0191834
-0.051473
-0.0106052
-0.0219032
-0.0784862
-3.55571e-07
0.0238584
-0.0680502
0.12056
-0.0823208
0.0699662
-0.0985762
0.272248
-0.0125998
-0.0247871
-0.0342641
0.364689
-0.147574
-0.0105038
-0.128648
-0.0562139
-0.12104
-0.076164
0.141614
-0.00225874
0.203605
0.00709395
-0.000328418
-0.00142253
0.0534774
0.455985
-0.000911876
-0.0407469
0.138491
1.96708e-06
-0.017877
0.0247762
-0.0271617
0.00723499
-0.0016354
-0.0383312
-0.00506947
2.47793e-06
-0.0468553
0.213195
-0.0114529
-0.012974
0.00110844
0.138289
-0.000358268
-0.000867634
-0.00019114
-0.0010711
0.00975866
-0.0151766
-0.00377346
-0.0150238
2.36488e-06
-0.136929
-0.110582
-0.155185
-0.0263931
0.0117301
-9.99889e-05
-0.0135317
-0.0540348
-0.00821399
0.269798
-0.00176265
-0.0476556
-0.00411539
-0.00894136
0.119496
0.000172949
-0.000113239
0.0917755
-0.0217037
0.00943381
-0.00243949
-0.00130101
-0.0522962
-0.000162938
-0.014949
-0.00884627
0.231238
0.212905
-0.065601
-0.0673353
0.00559782
-0.00596378
-0.0338072
-0.0775162
-0.0307849
-1.13773e-06
-0.0368739
-0.0174971
-0.0849161
-0.0083482
-0.0325814
-0.000252263
-0.00228893
0.154536
-0.0234573
-6.22502e-07
-0.00184199
-0.135357
-6.32387e-05
-0.0368682
-4.50058e-05
-0.000798472
-0.110053
-0.06389
-3.51013e-05
3.13299e-06
0.0961456
-0.0602187
0.291338
0.222689
-0.0390252
-0.000914828
-0.0269748
6.51338e-05
-0.142578
-0.112795
-0.0480859
-0.0133395
0.215752
-0.000541006
3.46886e-05
-0.00358707
-0.147804
0.00114973
-0.0438514
-0.0529116
-0.0088464
0.0125977
0.0503848
-0.00231538
-0.0217639
-0.0960495
0.145284
-0.0513938
-8.34031e-08
-0.129183
-0.0457442
-0.0602829
-0.00216017
0.00034303
-0.00449904
-0.115506
0.0197589
-0.0194195
0.0955275
-0.0695889
-0.000262352
0.0101751
-0.00358782
-0.0208431
-0.152858
-0.000130342
0.11111
0.160389
0.00422946
0.169866
-0.0913286
0.0305227
-0.0611113
0.153644
0.0738119
0.435966
-3.49975e-07
0.070692
0.134941
0.0090083
-0.000811112
-0.00948143
-0.0514725
5.9308e-07
-0.0116313
-0.059747
-0.0101996
-0.0137528
2.95522e-05
-0.124957
-0.000282849
-0.000331266
0.184074
0.00048046
0.0324413
0.0101355
0.158415
0.00105638
-0.000418226
-0.138856
0.000994401
0.28017
0.000469125
-0.0609193
-0.000223713
-0.000241858
-0.00176362
-0.0794818
-1.7001e-05
-0.00522667
0.0153424
-0.000749381
2.23126e-06
-4.21516e-05
0.114466
-0.0667693
0.00184803
-0.000449019
0.00275481
0.00942577
0.00207234
-0.000242255
0.290952
-0.125426
0.169173
0.248251
-6.12305e-05
0.0223688
0.0767863
-0.00039438
-0.000169108
-0.000495679
-0.0389436
-0.00160087
-0.0237466
-0.0294957
-0.0686625
0.128934
-0.12783
3.3253e-07
-0.0128636
-0.0174396
-0.0204877
-0.00213146
0.00151714
0.000446017
0.0171473
-0.000188514
-0.000244739
-0.0129282
-0.00257719
-0.0165937
-1.38631e-06
-0.00973026
0.020897
-0.0518544
-0.0569438
-0.00519675
-0.00719817
-0.00519408
-0.00290155
-0.00714857
-0.00505074
-4.01878e-05
-0.000311037
0.0117013
-0.00709852
-0.00291759
0.00308281
-0.00369668
-0.152792
-0.00718992
0.117394
-0.00693491
-0.0454933
-0.0253336
-0.0153612
-0.00966687
-0.002028
0.000305751
-0.00201762
-0.00759956
-0.00946034
0.147944
0.110237
0.0267057
0.260804
-1.6903e-05
-0.00368583
-0.00911183
-0.00517964
0.0572842
-0.0127224
0.0221582
-0.00453241
0.163259
-0.00122522
-0.00112207
-0.0053013
-0.0293661
-0.000123231
-0.027057
-0.003218
-0.0124935
-5.68613e-06
-0.00355789
0.000735181
-0.0117742
0.0132872
0.0242985
0.0119032
-0.00879536
-0.0209704
0.0855651
-0.000988674
-0.00100693
-0.00101363
0.378144
-0.000108433
0.0450294
-0.0121189
-0.0135632
-0.0147027
-0.0421843
-0.01695
-0.0223661
-0.0136345
-0.00287992
-3.54963e-05
-0.00227651
-0.0122117
0.0721457
0.000655714
0.114062
-0.0218131
-0.00881823
-0.000356516
-0.0195504
-3.35142e-05
0.110524
-0.0204391
-0.017412
-0.0161593
-0.00467846
-0.0276185
-0.000717762
-0.0265091
0.0746202
-0.0163095
-0.0850235
-0.00065162
-0.0169471
-0.0124564
0.00925775
-0.00196472
0.106066
-0.0011436
-0.0102055
-0.000451217
0.120138
-0.0256077
-0.0158965
-0.00158235
-0.00643737
-0.00169062
0.146135
-0.0195211
0.162241
-0.00470052
-0.000592272
-0.000563238
-0.00144439
0.136779
-0.0451123
-0.00457574
8.00754e-05
-0.0120558
-0.0267368
-0.000826384
-0.0246032
-0.0103201
0.0404524
-0.00278123
-0.00404511
0.348452
-0.0432115
-0.0151126
-0.0412234
1.97046e-06
0.054431
-0.00193275
-0.0153293
-0.00363751
-0.0230824
0.000135194
-0.000295665
-0.00143873
0.00147094
0.151541
-0.00301375
-0.00098298
-0.00277976
-0.0498741
-0.00496942
-0.0123055
0.000913332
-0.00489014
-0.00458469
-0.00190317
0.154765
-0.0303822
0.0013667
-0.0021037
-0.016332
-0.00740787
-0.0317712
-0.0010035
0.0660825
0.0133453
-0.00498905
-0.00112005
-0.00936455
0.397819
0.152677
-0.00687155
-0.000222954
-0.00141092
-0.0119338
-0.00251412
0.0122262
-0.000262599
-0.024952
-0.000957658
-0.00943067
-0.122758
-0.000870564
-0.0144459
-0.000650503
0.246275
-0.00483376
-0.0066986
-0.0605746
-0.00080702
-0.0171575
0.0242509
0.349564
-0.0069166
-0.00766389
-0.000942752
-0.0003733
-4.06533e-06
-8.09887e-07
-0.00647396
-0.000362477
0.0748278
-0.000521212
-0.000948696
0.00330836
-9.22704e-05
-0.0295004
-0.0729146
0.0105967
0.0270861
0.017131
0.00854992
-0.0655734
0.0651497
0.0501115
0.0702442
0.090834
-0.00729792
-0.000473068
-0.0060439
-0.0814995
-0.00179037
-0.00919639
-0.00755159
0.271199
-0.0635472
-0.000202906
-3.16609e-05
-0.000609558
-2.55299e-06
-5.78572e-05
-0.000397086
-0.00496294
-0.0309454
0.000150978
0.000945428
-8.86701e-05
0.0368219
-0.00886052
-0.0721097
-0.00104581
0.247105
0.229845
-0.00687098
-0.103744
-0.0174186
-0.0135748
-0.00933718
-0.00109781
-0.0945336
-0.047709
-0.0351071
-0.108787
-5.55875e-05
0.145361
-0.0323155
-0.00524755
-0.0453692
0.0107048
-0.000266276
-0.00554305
-0.000617579
0.00157358
-0.0014853
0.125898
8.38383e-05
0.00559464
-0.000144745
-0.131983
0.00460637
-0.000837685
-0.0113739
5.49215e-05
-0.0178145
0.0837066
-0.00527081
-0.000742533
-4.41642e-05
-0.000295938
-0.000231645
-0.0400183
0.0926271
-0.0252793
-8.3838e-05
0.00124767
-0.000264684
0.173772
-0.0419275
0.199424
-0.0289942
-0.000171852
-0.000220057
-0.00491231
-0.00310877
-0.000478474
-1.92778e-06
0.0142302
0.0177934
-8.21523e-05
-0.000288664
-0.0120803
-1.95411e-06
0.126712
-0.000571382
-0.0345888
-0.0123185
-0.00342584
-0.0376816
-0.0469362
0.113723
-0.0388335
-0.0116925
-0.000113062
-0.0359867
-0.0115276
-0.0287962
0.0637158
0.276362
-0.000489095
-0.039434
0.000104031
0.247248
0.025353
-3.63097e-05
-0.00391384
-0.00217398
-0.00309897
-0.022975
0.0607063
-1.58959e-05
-0.000107249
0.000173104
0.0460457
-0.00022416
-9.70039e-05
-0.12244
0.224119
-0.0353005
0.109204
-0.00138414
-7.92472e-05
-2.91285e-07
-0.119536
-0.0199748
-0.000229886
0.0715688
0.0063474
-0.00327171
0.307946
-0.000381687
-0.00262508
-0.0435111
-0.0459937
-0.00109601
0.100816
-0.0854125
-4.33049e-05
-0.00178883
-0.00012622
-4.1525e-05
0.103274
-0.0155147
-0.000159304
-0.0293052
-0.015838
-0.00165452
-0.0534805
0.000971187
-0.0125768
0.000437979
-0.00212436
-0.0441483
-0.0251774
-0.00182651
-0.000589006
0.11721
0.158274
-0.13233
0.00234888
0.011145
-0.00271133
0.125847
0.074653
-0.0155205
-6.43983e-05
0.00315686
-0.0280604
-0.00399459
-0.0219419
-0.00133348
0.0197765
-0.0190761
-3.57037e-05
-3.69276e-05
-0.0625392
-0.026826
-0.0148325
0.00362527
-0.0306983
-0.0323145
-0.000101546
-0.00108707
-0.000131303
-0.0364741
-4.94719e-06
-0.00107125
-0.0647329
-0.131253
0.0749267
-0.00183242
0.00193019
-0.0162071
-0.0154334
-5.18315e-05
-0.0225547
0.0691779
0.11862
9.62227e-07
-2.88207e-05
0.121053
-0.00156896
-0.112626
-0.0194012
0.00151573
-3.33802e-05
-0.0359088
-0.0558105
0.1243
-0.0283231
-0.000714461
-0.0144039
-0.0466546
-0.000325074
-7.62139e-05
-0.000538226
-0.0473832
-0.0304493
0.103536
-7.55217e-05
0.367844
-0.0600156
-3.4986e-06
-0.000902485
1.06836e-05
1.68739e-05
-5.21114e-06
9.56297e-06
-0.0301926
-0.000493632
0.000109745
-6.27594e-05
0.105529
-0.00328681
-6.69306e-05
-3.0841e-05
0.297097
-0.0149035
-0.0746923
0.000182425
-0.000399168
0.0328917
-4.71411e-05
-0.0169655
-0.171517
0.000886581
-0.00698645
-2.94134e-05
-9.05681e-05
-0.0227256
-0.085222
0.00378249
-0.155913
-0.092947
-4.36566e-06
0.013478
0.0217975
0.0803476
-0.000830593
-5.43259e-05
-0.0398694
-0.00350808
-0.000409635
-0.0297136
-4.99157e-05
0.0174295
-9.84777e-05
-0.000527939
-0.0408765
-0.00228621
-0.0364744
0.354711
-0.0012182
5.66177e-05
-0.0489531
-0.0642803
0.00376036
0.00226138
-4.08573e-05
-0.0198597
-3.6983e-05
0.149705
0.421087
0.0430096
0.00132756
0.00152739
-5.99718e-06
-0.0210916
-3.21105e-05
-0.0110347
-0.0010105
4.91701e-05
-0.00171078
-0.00971303
-3.30651e-05
0.000241405
-0.0110336
-0.000119861
-0.00952886
-0.0113605
-0.0228609
-0.00117529
0.381548
-0.000702664
0.00101359
4.67817e-05
0.00818488
-0.0279627
0.00501882
-7.22801e-05
-2.70415e-05
0.000592367
-4.66093e-05
-2.33184e-05
-0.0115108
0.000206662
-3.99265e-06
-0.0337264
-0.00252163
-0.0296169
-0.000913128
-1.47801e-05
-0.0015052
-0.020766
-0.013015
-0.0303002
0.000955911
0.000103411
-0.000240114
-0.000799282
-4.13665e-05
0.217142
0.000582697
-4.15205e-06
3.17665e-05
-0.00134529
-0.00031724
-0.0328964
-0.0305397
-0.000107723
-0.0044258
-1.7457e-06
-0.00316995
-1.89482e-05
0.0238333
-5.81187e-05
-0.000139883
-0.00396793
-1.28814e-05
0.00787215
-0.000100052
-0.000611163
0.0116979
-2.24667e-06
0.296483
-0.0365831
-0.0279538
-9.72369e-06
-3.36186e-06
0.000506926
-0.000531679
-0.043592
-3.48337e-06
-2.07959e-06
0.000178558
-2.60385e-07
8.80522e-05
0.000116572
-0.000214163
0.000240769
-0.0311737
0.378294
-0.0382194
0.270925
0.004925
-0.0163895
-4.52786e-06
-0.000340498
-0.00843989
1.27911e-05
6.00944e-05
2.5645e-05
0.030257
-0.00151393
-0.000186999
0.346918
-0.000168039
6.68212e-05
0.000134447
-6.4068e-07
-0.00411216
-0.00146323
0.000385138
9.58849e-06
-0.00069468
-1.26226e-05
-0.00116964
-0.0305445
-0.000160131
-0.00194745
2.36311e-07
-0.00326505
-7.54357e-05
0.146596
-0.000187147
-0.000316399
-0.032741
0.00171094
-8.12995e-05
-0.000691736
-1.09721e-05
0.132955
-0.0482693
-0.000408256
-0.000135098
-0.00250193
-0.000184982
0.037572
0.0816483
-0.000923136
1.71663e-05
-9.98047e-07
2.02621e-08
0.0305668
5.02703e-05
-0.0279523
-0.0337968
-0.0127292
-0.06453
0.393946
0.000767551
0.153304
-0.0120275
-0.0208316
0.135387
-0.000110517
-0.0422978
-3.40213e-06
-0.00612178
-0.0236856
4.93968e-06
-0.0518677
-0.000395979
-0.0238159
-0.00621576
-0.0204922
-0.026951
-0.00406855
-0.0501612
-0.0214693
-3.30856e-05
-0.00611842
-4.67843e-05
-0.0189157
-3.38447e-06
-4.10026e-05
-0.00385905
0.128067
-5.02787e-08
-0.0315577
0.00144928
6.12512e-06
-0.0197546
-1.74114e-06
-0.00670394
-0.000180147
-0.0190823
1.6789e-05
-3.20654e-05
-0.00184451
-8.02555e-05
0.124655
-0.0213097
0.0424057
-2.60024e-05
0.00017898
-0.0159467
-4.30819e-07
-0.0383095
-0.0403079
-0.0310011
0.373616
-0.00432515
-2.95584e-06
0.0157957
-0.0213697
-0.00293046
-4.53834e-05
-2.69084e-05
-0.0290767
1.11147e-05
0.000271686
-2.29386e-07
1.27187e-05
-0.0142617
0.0782563
-0.0957012
0.0696207
-0.00343003
8.25374e-08
0.00102719
-0.0546222
-1.50878e-06
-3.07663e-06
7.17686e-05
6.58832e-06
0.000100794
0.190224
0.0226488
5.24393e-06
-1.56706e-06
-0.0370863
0.158632
0.138755
-2.68674e-06
-0.0242657
-0.018644
-0.0106482
-0.027682
-0.00893008
-0.00164533
0.109661
-2.47284e-05
-0.0181783
0.132056
-0.0331843
-1.94774e-05
-0.033108
-6.17396e-05
0.246002
0.0149587
-2.59465e-05
-1.13415e-05
0.146294
-5.56364e-07
-8.258e-05
-0.00617564
-4.54756e-06
0.202081
0.000183673
-0.00384467
-0.0331988
-0.00235295
-0.0882731
0.144622
-0.0223207
-0.0618719
0.000326325
-8.49393e-06
-0.00079076
-1.45432e-05
-9.72018e-06
0.00426464
0.142365
0.117037
-0.000239952
0.195386
-0.0161721
-2.06327e-06
-0.0229525
-1.74749e-05
-0.0198778
0.0161055
-0.0142661
0.00161582
0.000704341
-0.00497829
-3.82101e-06
-0.00102453
0.00873784
-0.00124846
-3.446e-05
1.33135e-06
-1.37947e-05
0.0208026
1.70324e-06
-0.0237595
0.205579
-0.00449342
4.58976e-06
-0.00179887
-1.05575e-05
0.0407514
-9.58015e-05
-1.75096e-05
-9.66601e-06
-4.3121e-06
0.166578
-9.29454e-05
0.192767
-0.0507363
8.70504e-06
-0.0434388
-0.000540687
0.122726
0.352373
-0.000557758
-4.46232e-08
-3.50816e-06
-7.06602e-06
0.105251
-2.60175e-07
0.000268466
-0.0119509
0.180191
-1.3263e-06
-2.48471e-06
3.25815e-08
9.36664e-07
-0.0141373
-2.35331e-07
0.2275
-0.015292
-1.91265e-05
1.94633e-06
-0.000886471
-0.0155297
-7.99567e-08
-1.03665e-05
0.130225
2.32976e-06
-0.0222564
-0.0784906
1.71776e-05
-2.66686e-07
-0.180341
-1.2132e-07
0.128431
6.67498e-07
-0.000218894
-1.24053e-06
-2.9131e-05
0.0694021
-1.22598e-06
-0.000930224
-2.88154e-06
0.00271913
-0.00241046
-0.00313573
-0.00184504
0.120239
-0.000289585
-3.28446e-05
-0.00460628
-0.00468397
-5.07542e-05
-6.17152e-05
-0.000562676
-4.11144e-07
0.138766
-0.00966152
0.389891
-2.04641e-06
-0.00462846
-0.000169499
0.101409
2.56288e-06
-0.0211199
8.01969e-07
-0.000836066
-0.0227831
-6.71769e-05
-0.0107125
-0.0349441
0.00143888
-1.30047e-05
-0.0625159
-7.2002e-05
-0.000373661
-0.00313857
-0.0230548
0.000272542
-7.29008e-05
-0.000192959
-0.00107375
-0.000633803
-3.19454e-06
-0.00055774
0.349051
1.09711e-05
-0.00160672
-0.0237028
-0.0335529
-0.0411803
-0.0248236
-0.0154426
-0.000638223
-0.0230388
6.63605e-06
-2.82825e-05
0.366981
-2.34543e-05
0.14076
-0.000109614
6.24042e-05
-0.000486102
-0.101337
-0.000168685
-0.00141332
-8.44358e-06
-0.000143605
-2.34097e-05
-2.35471e-05
-0.00767418
-5.27512e-05
-4.12e-05
-2.17804e-05
-3.5217e-05
-9.26201e-06
-0.0333777
0.19586
-2.8412e-06
-0.000161468
-8.14676e-05
1.36192e-06
-0.000311876
-1.06516e-06
-0.0003624
2.54398e-05
-0.000122013
-0.0390736
-0.00029977
-0.0012154
-1.10576e-06
-0.00179582
7.19478e-05
-1.90614e-06
-3.72473e-06
-3.49145e-08
-0.000232095
0.00010999
-0.0336987
-0.0238451
-0.0368657
-0.000534321
-0.00231341
-0.0563452
-0.034615
-1.41656e-05
0.00585333
0.00248177
-0.000315618
-0.00792884
-0.0263441
0.348354
-0.000123355
-4.10708e-06
0.000101466
1.80201e-06
5.92865e-08
0.054795
0.000646012
0.0644723
-0.0404097
0.328148
-0.000135592
-8.05297e-07
1.84293e-05
-7.26419e-06
-0.000447206
0.118788
0.17369
-4.45339e-06
-7.42111e-05
-1.24342e-05
0.164074
0.00138783
-0.00966091
-4.02078e-08
5.90587e-07
0.00346201
-0.0001955
-0.0540369
-0.0117683
-5.11748e-06
0.00125991
-0.0275054
-1.52206e-05
0.000517057
-4.03251e-05
-0.0285058
-0.00060715
0.112048
3.51226e-08
0.000587663
-0.00197381
-6.56394e-07
2.15267e-05
-0.0162728
-4.64943e-07
-0.00027712
-2.24821e-06
-0.00944183
-0.0256473
-0.00374357
-0.00989151
-0.00443952
0.00465184
-0.00572196
-0.000937477
5.389e-06
2.6358e-06
-1.49168e-06
-9.6727e-07
-1.18636e-05
0.00384104
-0.0536459
0.000115066
-0.0536961
-0.00118601
-0.055292
9.26578e-06
-9.57316e-06
0.000414893
-0.107891
-6.81804e-07
-0.0509425
-0.0122576
-0.0281081
-0.0565469
1.45222e-07
-0.00136693
2.37827e-05
-0.179973
0.102277
-6.4804e-06
-0.0465896
-0.0197744
-0.0017583
-1.41353e-06
-3.05283e-06
0.00749134
-0.00782202
-3.3883e-06
-0.00366555
-1.72843e-05
2.53765e-05
0.0929018
-2.24363e-06
-1.26468e-05
-7.39885e-05
-6.2337e-07
0.000253085
9.70329e-06
-0.00222445
2.3898e-05
-0.00869821
0.000302595
-0.00011897
-0.0336726
-0.0313005
-0.00402469
-2.36756e-06
-9.74313e-07
-0.0708727
0.00253568
-0.0321242
-5.49797e-06
-0.00319026
-2.24048e-06
-1.51505e-06
0.0464723
-0.00297611
-0.00107747
-1.07342e-05
-0.0144342
2.1653e-06
-0.0455301
-2.33059e-06
-0.052592
-1.121e-05
-1.78772e-06
8.99175e-06
0.000312153
-0.122824
-0.0087218
-0.0569701
-5.01565e-06
2.95781e-06
-0.0493394
-0.0322122
-0.00376483
-3.17359e-06
-0.0569562
-0.0451529
-0.046626
-7.82593e-06
-3.80293e-06
-2.19147e-05
-0.116367
-0.0577124
0.00015323
-0.00488609
-2.86686e-05
0.185723
1.17509e-05
-7.13717e-06
1.88507e-05
-3.03612e-05
-4.56731e-06
-0.0021787
5.41601e-07
-0.00158876
-0.0579571
-0.00603664
-0.0252646
-5.42664e-06
-8.77771e-06
0.02877
-0.074573
-0.00198759
0.0830945
-3.80132e-05
-6.26678e-06
-5.32874e-06
0.078962
2.26212e-05
-6.7321e-05
-7.79019e-06
-0.0655766
-0.00731068
-1.39571e-05
-5.86502e-05
-0.00627798
-0.00275551
4.90059e-05
0.175817
-0.0571996
-0.000829944
0.459049
-5.3202e-05
-0.000643627
-0.00840342
-0.042408
-5.6403e-06
-1.90638e-05
2.04902e-07
0.00185132
-0.0358485
-0.000208962
-0.0383198
-0.00339339
-8.33508e-06
-1.28903e-06
-0.00456141
-0.0190085
-0.0439912
-0.10894
-0.0267437
-0.0263967
-0.030632
-0.0221012
-1.87865e-05
5.20438e-05
-0.0142717
0.000133576
-0.000159647
0.000143698
-1.8448e-05
-0.000127143
-0.00546439
-2.44204e-06
-1.87677e-05
0.0163018
-0.0492499
-0.000276011
-9.37028e-05
-5.24028e-06
0.191699
-0.00443227
0.000119752
-0.0229504
4.1211e-05
2.66493e-05
2.55893e-05
-1.75924e-05
9.51239e-05
-0.0294943
0.00367334
-1.998e-06
-0.000216952
-0.0359218
-0.0314543
0.0332622
-0.000120048
0.000675712
0.0100776
-6.94832e-06
-2.01933e-06
-0.0527966
1.00223e-07
0.125928
-2.39954e-05
0.00180825
2.49132e-05
2.97106e-05
-0.0408429
-0.00518181
-0.0124749
-0.000992981
3.07199e-07
0.00059702
0.0428018
-0.00902389
-5.94212e-05
0.0689664
0.122813
-1.94482e-06
-0.0362141
-2.90783e-05
-7.22549e-06
-9.25387e-06
-0.000147729
0.011556
-3.32251e-05
3.12151e-05
-0.0130133
-0.0176777
-0.0100149
0.240634
-1.72032e-05
-2.14499e-05
0.129928
-0.0176616
-0.0023997
-0.000173898
0.127852
-1.3276e-05
-0.00047624
-3.18157e-05
-2.93161e-05
3.98541e-07
5.70421e-08
8.02191e-06
-0.00904489
-9.11061e-06
-0.00242396
-0.0278937
0.19168
-0.000346601
-1.09119e-05
0.00203033
0.0612395
-0.0535403
-0.00021473
-0.0340012
0.241132
1.63689e-06
0.314124
-2.55553e-06
0.00109576
0.0143431
9.24985e-05
0.331661
-5.81987e-05
-2.531e-06
0.000233466
-1.36111e-07
-0.000241669
4.37597e-05
-1.00477e-05
-0.000879856
-4.16319e-05
-6.60949e-05
-0.00169898
0.18844
0.031459
0.0129532
-0.0243525
-1.93196e-06
-1.41502e-05
0.000988471
-0.0608059
-6.19674e-06
-0.027483
-1.69737e-05
0.0761383
0.0428979
-0.0282827
-0.000710599
-0.0106413
-0.000291122
-0.00689121
-0.00205324
-0.00685124
0.0433808
-6.00188e-07
0.204899
0.00429841
-0.000813931
0.164879
-0.0092484
-2.08689e-06
-1.21721e-05
5.34002e-06
-3.72599e-05
-8.07871e-05
0.190054
-0.000416882
0.195986
-0.00138515
0.126283
0.175078
0.0831112
-0.0047525
-6.81501e-06
-5.5171e-05
-0.0046729
-0.167162
-0.0421659
0.000503707
-2.69392e-05
-0.0224541
-0.000602604
-7.31237e-05
0.000309747
-0.000417375
-0.00104079
0.0206045
7.68136e-06
-0.0252001
0.0380343
4.20422e-06
2.95566e-05
-0.0134554
-0.0594317
-0.000275467
-0.000167961
-1.58001e-05
1.92257e-05
0.0531988
-0.0139072
-0.043014
0.000402503
0.0659536
-0.0306918
-1.26869e-05
-7.67096e-06
-0.00545737
-0.000138254
0.0516771
-0.00574631
-0.00634872
-0.000214135
0.000447003
-0.0311892
-0.000101996
0.000102269
-0.0158294
-0.0487821
0.117178
-0.0361505
-0.0200741
-0.000236172
-8.16651e-06
0.00331269
-2.92239e-06
-0.0448159
-0.0556093
0.000132397
0.000817664
0.00164213
-0.13523
0.000151226
-2.42553e-06
-1.98593e-05
-0.0323818
-3.57278e-06
0.000134646
0.0913649
0.138081
-0.154369
0.0335709
0.0316903
-0.0046608
-0.000300122
0.00216168
1.56121e-05
2.41422e-07
-0.000172937
-7.62993e-07
-0.000138071
-0.000133165
-0.00504784
-0.086882
-0.00670787
-0.028359
0.0350167
0.0287482
0.00159012
-0.056308
-1.71406e-05
0.00127478
0.00509722
-0.000175216
0.0522845
-0.00177277
-0.00869005
0.00467868
0.00260543
-0.000777785
-0.00258623
0.0258573
0.000181198
-0.0136478
-0.0123176
0.397202
-0.0208888
0.0574791
-0.00501332
-0.0378025
0.00072909
-3.72541e-05
-0.00101569
-3.40962e-05
-0.000953727
-0.0200211
-2.54427e-05
-0.000215759
0.228445
-0.00125854
-0.0298846
-0.00874619
-5.96156e-05
-0.00227674
-1.12198e-05
-4.06629e-06
0.0214728
-2.87789e-06
-0.00114729
0.0524767
0.00219308
0.000361369
0.00905358
-0.00377503
0.00181227
-0.158582
0.000170266
-0.00277579
-0.0429254
-0.000693588
-0.00540858
1.05331e-05
-0.00258636
0.000260431
0.0197733
-0.00051641
0.0023882
-0.0286833
-0.0154776
-0.000115501
-0.0259
-0.0102895
-0.00811995
-9.7383e-05
0.00307027
-0.0768424
-0.000340902
-0.00358084
-0.0246868
-0.00359952
-0.000584045
0.174658
-0.0237046
-2.01627e-06
0.00409247
-0.0482199
-0.000455566
0.150907
-0.00295155
0.000280874
0.0420293
-0.000761359
0.0034635
0.0967707
-0.000296875
0.000358462
1.11412e-05
-5.08416e-05
-0.00186267
-0.00753748
-0.000375105
-0.0167812
0.0713456
-0.0211261
-0.0822474
0.000360342
-0.00176016
-0.00088594
-0.0723973
-4.69949e-05
0.00505809
-8.6899e-05
-0.00764375
-0.000830635
-0.00207955
-0.0743582
0.0868839
-0.0912599
-1.99718e-05
0.15608
-0.00192696
-0.00373887
-0.0373625
-0.0985409
-0.0116281
-9.50477e-06
-0.00150521
0.0033429
-0.00157907
-0.00299007
-0.000108777
0.0624189
-0.0443631
-0.00756183
-0.00283968
0.00520963
-0.00676579
-0.00507599
0.000586042
-0.000530606
-0.00151348
0.0847992
7.91123e-05
-0.174345
-0.000199089
-0.0031974
-0.00473833
-0.110172
-0.00847249
-0.139539
-2.24176e-05
-2.58388e-05
-0.00871169
0.00493401
-1.02915e-05
-0.168972
0.0605
-0.0400886
6.27909e-06
-0.190775
-0.000262754
-0.204323
-0.0183518
-0.233089
-0.235573
-0.229047
-0.191401
-0.10759
-0.0737553
-0.041997
-0.010003
0.0223773
0.115401
0.145748
0.173599
0.220644
-0.0035752
-0.00601991
0.0367758
-0.0240631
0.000147707
0.000210526
-0.0306914
-0.000235402
-0.00113265
-9.06924e-07
-0.0112629
0.00990049
-1.2352e-06
-0.000652591
-0.00456902
-0.0171454
-0.23185
-0.0195351
-0.0443256
-0.000123691
-2.435e-05
-3.46993e-06
-0.071435
-0.00704405
-0.0307512
-0.0162041