/*--------------------------------*- C++ -*----------------------------------*\
  =========                 |
  \\      /  F ield         | OpenFOAM: The Open Source CFD Toolbox
   \\    /   O peration     | Website:  https://openfoam.org
    \\  /    A nd           | Version:  7
     \\/     M anipulation  |
\*---------------------------------------------------------------------------*/
FoamFile
{
    version     2.0;
    format      ascii;
    class       surfaceScalarField;
    location    "31";
    object      phi;
}
// * * * * * * * * * * * * * * * * * * * * * * * * * * * * * * * * * * * * * //

dimensions      [0 3 -1 0 0 0 0];

internalField   nonuniform List<scalar> 
11512
(
140.455
-500.853
360.398
-766.104
1.6918
764.412
409.715
-369.111
-40.6039
642.066
262.148
-904.214
1510.76
-1069.33
-441.421
1216.29
-1527.13
310.84
-52.4643
469.937
-417.472
168.446
-841.657
673.211
962.086
-1610.8
648.709
-1763.41
1671.02
92.3872
-542.944
1759.23
-1140.97
1934.71
-793.74
607.848
180.705
-788.553
-25.1116
-1316.46
1341.57
221.679
-1985.08
1021.88
-382.998
-638.886
-187.706
328.161
485.396
190.089
-675.485
1154.66
-1313.65
158.987
-320.445
374.664
-54.2189
1006.47
-1318.58
312.107
1221.53
799.457
-2020.99
73.6848
-1642.82
1569.13
-481.152
-1164.76
1645.92
476.424
181.4
-657.824
-183.614
-317.239
498.02
1012.74
1650.12
-1808.12
158
-91.2511
-1690.28
1781.53
-1559.02
653.44
905.583
-308.006
651.949
-343.943
-193.675
-153.826
347.501
1286.85
-1213.16
355.171
-1407.34
1052.17
-1754.37
1754.37
100.004
1534.66
-1634.66
-1080.61
-478.41
637.803
-690.268
-385.187
941.213
-556.027
1331.94
-1317.3
-14.6392
-1099.8
714.609
624.817
397.067
-403.239
-22.389
425.628
-455.313
791.314
-336
-1618.58
1618.58
1253.59
-1437.89
184.306
-488.737
1710.27
1254.16
-312.947
1660.74
-1161.25
-499.488
64.4578
-384.903
2065.84
-1135.49
-930.347
1816.14
-166.02
455.653
155.472
-611.125
-464.696
974.006
-509.31
-1172.67
1272.67
-568.027
970.298
-402.271
399.514
755.149
660.982
-492.536
-436.116
591.301
-155.186
1190.62
-835.447
2308.19
-1080.67
-1227.53
1163.9
-2009.46
845.558
-1604.82
1579.71
440.61
-1581.58
-759.226
1250.76
-491.537
-670.789
362.783
1661.45
-699.36
-1106.93
-870.894
1977.82
690.724
-379.884
-310.841
689.616
564.545
-258.202
1511.79
104.993
-311.75
206.757
-283.863
760.286
-333.602
565.586
-231.984
-323.742
809.138
-316.431
-145.559
461.99
318.098
91.6165
1462.58
-456.111
-989.68
490.416
499.264
269.582
92.3294
-361.911
948.648
-340.8
-1700.51
646.686
1053.83
18.8885
-859.023
840.135
-280.174
593.073
-312.899
157.33
-1093.69
936.361
1051.82
-1067.29
15.4732
372.543
518.487
-891.03
-244.296
699.949
-1103.53
-482.185
1585.72
-678.831
951.511
-272.681
1354.78
-1446.03
-648.834
286.167
362.667
-470.18
-1011.56
1481.74
-537.87
-794.552
1332.42
576.188
-996.052
419.864
-268.677
-317.849
586.525
401.127
-296.133
-1041.03
576.33
955.275
-797.945
-110.258
944.07
-833.812
-209.907
415.8
-205.894
-631.646
-358.033
-386.449
962.637
1856.39
-1856.39
-476.162
-172.673
-948.317
1560.63
-612.317
498.029
-929.926
431.898
-923.063
355.036
-941.909
-1058.08
-1493.51
343.705
1149.8
-273.654
915.72
-325.392
621.834
-296.442
-1941.9
999.995
-1143.51
-349.999
557.825
-1506.14
1728.49
-1725.67
-2.82043
199.541
-608.915
409.374
-1462.87
974.221
488.646
280.755
217.478
-498.232
309.996
-643.598
244.191
-420.482
176.291
2015.13
-876.435
-1138.7
-547.729
144.49
615.841
837.01
-1452.85
-182.483
426.675
431.274
876.618
-1307.89
-905.175
391.546
513.628
-1047.64
1447.15
-1068.9
309.674
749.102
-97.1533
565.325
-292.918
-272.407
1014.98
-524.561
593.285
-1403.78
810.498
-1342.14
238.61
-544.643
264.468
-1183.79
910.137
1946.47
-978.786
-967.683
276.805
1579.58
-2095.95
896.098
1199.85
368.966
-30.0395
-338.927
-223.486
483.961
-260.475
-100.287
-385.036
485.323
-461.118
144.687
342.099
-129.319
627.347
423.245
378.598
-801.843
-2038.75
1118.83
919.917
459.747
-528.12
68.373
224.426
-366.661
142.235
1017.11
998.019
1787.24
-252.58
740.358
-454.19
796.471
-1389.43
592.954
358.003
332.721
1056.57
-1037.69
-492.657
-239.019
731.675
471.046
-132.814
-338.232
797.202
-616.498
555.29
-722.074
166.785
503.324
1157.42
-1239.71
701.84
1038.22
-1519.37
-3.13319
-1439.43
1442.56
325.911
823.922
-1149.83
623.18
269.718
-892.897
-2269.36
1142.69
1126.68
-1094.83
-1174.53
197.404
357.886
958.481
-632.57
879.544
-899.176
19.6319
-2099.38
992.453
-231.804
-191.176
422.98
-41.8104
1770.3
-835.199
69.0955
-1029.2
-1066.75
-229.11
453.536
-685.213
209.051
-280.731
-423.254
703.984
1104.03
-1574.21
782.933
-1374.37
591.441
693.947
-431.799
1947.87
-1444.54
-378.278
-1376.09
71.0594
398.877
-533.208
534.9
23.5149
-578.466
554.951
567.098
-286.344
-602.875
279.266
323.61
782.408
-359.164
32.8906
336.075
1188.47
-1191.6
169.42
231.706
393.153
-673.884
619.445
-1005.89
-2026.72
2026.72
-264.485
-444.536
709.02
699.188
405.766
-1104.95
578.545
170.557
408.962
373.446
-2199.75
1328.85
-926.305
-679.333
1605.64
-481.608
-702.183
-252.146
551.611
-299.465
827.392
-200.541
-626.851
-453.017
652.557
363.078
-688.469
-374.259
-128.52
502.779
-1332.02
-476.101
635.505
-1117.11
-374.137
-1244.44
844.333
1463.86
298.736
-943.357
644.621
965.375
-340.558
1391.32
-798.04
439.912
-270.492
-326.63
-871.603
571.17
300.433
-334.736
-536.868
311.907
-412.194
-213.416
-148.474
361.89
-392.665
1091.85
434.776
-244.687
-392.39
1356
-170.826
-1185.17
-473.031
294.087
178.944
220.954
265.301
-486.254
22.0806
-744.155
592.108
-1729.02
1136.91
1483.17
-867.326
-1048.19
-414.68
-1056.34
573.401
482.939
1383.57
-409.349
929.088
-1411.27
-159.114
-197.057
356.171
-469.114
579.715
-1627.35
427.965
903.976
293.271
296.459
-589.729
568.079
1186.29
1102.74
-712.601
-390.134
398.696
-214.76
-183.936
-1419.45
445.518
737.76
-1183.28
1473.25
-544.159
-486.414
933.283
-446.869
426.146
1186.16
-1612.3
47.2853
-726.116
-147.159
416.741
226.352
-420.027
535.739
479.237
-611.894
60.8961
550.998
1024.54
-1307.67
283.132
666.031
-257.069
468.266
-1447.22
978.949
398.784
1687.17
-523.274
908.434
1038.03
-660.21
-1684.53
758.221
562.816
404.151
-966.968
455.221
78.8406
1750
-1828.84
1443.74
-379.468
-1064.27
1699.13
-1740.94
-366.724
-530.474
722.382
-191.908
-502.588
179.684
291.362
-372.872
-1225.99
214.429
-764.55
-639.233
-647.57
996.779
-349.21
-654.243
644.448
9.79501
655.129
-923.8
268.672
-767.364
389.73
377.635
-648.173
-691.154
345.549
345.606
-932.285
1400.55
-419.281
887.907
-468.626
-2205.31
5.55761
175.058
-531.732
356.674
142.711
1213.29
-102.839
-582.374
157.112
-593.227
1487.09
-704.155
382.27
-461.115
78.8455
-570.587
570.587
1223.12
395.46
1777.97
-1228.28
589.246
639.032
849.686
-52.484
1291.79
774.043
-540.236
1336.71
292.879
300.194
269.592
-800.067
243.78
-699.093
231.147
-443.429
212.282
-243.69
578.859
-335.169
117.483
-361.173
-591.832
-564.448
1156.28
-375.561
549.292
-173.73
-1192.16
2032.04
-839.886
1289
-330.522
-406.38
137.703
-1980.4
815.635
1537.28
-848.545
-688.739
1986.96
-877.435
-1109.53
713.594
575.409
-238.952
470.1
-673.708
1147.01
-473.305
-769.866
1201.14
551.682
924.583
-1725.19
800.609
-549.141
-80.0646
629.205
305.567
259.758
407.059
-91.2526
-315.807
896.905
-83.4047
-813.501
925.789
-569.571
-356.218
1576.19
-472.162
890.95
-1627.4
736.452
1068.48
879.387
746.691
-439.77
-306.921
-1059.05
-258.257
565.691
576.321
-1142.01
-466.331
520.305
-53.9741
573.01
-340.26
-232.75
-985.086
565.805
594.911
888.257
-441.775
1096.9
1417.42
-781.878
-635.544
393.18
-923.016
529.837
-1034.12
402.471
561.716
-1048.13
467.19
-544.636
77.4464
480.926
310.387
-522.055
-48.5319
-794.026
-879.29
1673.32
190.667
208.029
-216.033
413.437
-27.1718
-565.332
592.504
496.13
868.832
-1364.96
-519.501
306.086
985.973
-89.0677
836.13
-1064.61
228.477
404.357
845.914
-1386.15
-454.152
832.75
1979.09
-1285.4
-693.687
270.184
609.36
255.967
795.852
89.4658
-971.288
881.822
1673.73
-1089.03
-584.693
-137.88
1887.88
-1866.06
-160.655
483.587
-621.684
138.097
-1012.55
526.526
486.023
-1730.48
538.319
-955.763
845.505
390.789
200.512
587.417
-288.681
-419.395
709.183
256.192
69.9044
707.672
-777.576
-1123.56
-905.174
2028.74
-541.427
1111.16
-569.731
-478.4
-342.693
110.889
-1655.49
861.467
-857.569
-603.76
1461.33
-332.165
-294.601
626.766
351.983
-649.298
297.315
249.055
-608.219
330.571
196.423
-526.993
358.299
-610.445
620.683
-268.701
312.329
-457.888
678.26
412.042
-191.088
-396.519
-294.635
1222.48
-2.43594
-1220.04
1039.33
-419.882
559.915
410.384
-1782.36
869.816
912.544
489.58
553.954
-1043.53
-535.816
203.65
-263.402
1181.11
-917.706
-1590.88
1212.6
504.518
-1096.35
383.178
-0.908398
429.264
311.106
-740.37
371.771
-616.067
-34.1401
756.953
-722.813
-526.195
795.912
392.58
322.546
527.141
652.601
101.744
-413.282
311.538
1058.94
-645.322
-413.621
494.016
-1664.27
1170.25
-1140.4
1753.22
-612.823
1715.83
-1123.72
-333.037
612.303
-1181.7
1271.16
425.317
-798.501
1606.97
-808.465
-271.542
-201.489
-890.809
1470.67
1813.62
-610.913
-1202.71
-404.576
653.772
-1301.34
-124.829
-54.75
461.809
-683.974
-354.164
-1236.72
-216.677
465.732
903.451
-557.713
172.676
-1674.64
-71.2257
1745.86
-1073.08
531.649
567.073
-1183.34
616.263
900.897
912.723
630.772
619.991
693.955
239.328
-1140.54
466.829
-395.784
419.299
616.859
-514.683
240.117
-729.92
489.804
703.025
-345.022
-334.379
180.553
-610.672
248.345
362.328
-886.867
-740.536
1087.67
-2145.75
398.637
-682.5
-342.783
-724.508
834.876
582.547
-338.912
316.523
376.619
221.025
642.285
-863.311
525.531
621.482
-546.624
172.365
356.172
-620.657
-1032.32
-861.303
1893.62
-1800.12
157.299
1106.89
-1370.3
1159.1
-717.573
-441.524
-503.771
1349.68
-1495.5
627.867
867.631
-289.158
-210.638
499.795
1428.4
558.563
355.785
-484.305
-481.891
-569.741
1051.63
-420.631
595.689
1582.54
-1129.77
-452.768
-781.883
337.347
654.874
404.069
-1623.42
416.163
1207.26
-183.196
513.767
797.684
784.853
201.833
-695.566
493.733
206.37
209.43
-292.87
-107.586
400.456
498.806
-3.60945
-495.196
-1640.3
592.113
-1607.49
1675.2
-67.7154
12.1382
-1619.63
1069.6
773.787
-344.523
-815.393
-218.724
-1134.49
-239.884
-310.866
682.637
-1812.52
-632.809
1209.13
216.446
757.56
-1330.86
-678.593
-465.527
621.451
-328.18
-1013.28
1350.76
-1932.87
582.109
646.572
1288.13
487.43
-3.46925
717.315
707.689
-1425
-635.799
332.086
303.713
440.86
-99.3825
-341.477
143.916
314.697
151.138
-465.835
-590.064
1152.88
456.914
-640.062
-461.538
-401.326
862.864
-325.924
166.809
-453.613
157.48
-303.782
-708.767
549.832
-108.972
-573.285
966.465
581.512
-270.179
-311.333
455.178
-778.921
-647.377
453.755
-1129.41
-840.735
1184.44
-569.759
447.057
284.618
-461.464
81.5805
1028.25
-317.796
594.689
-276.894
-509.021
1578.62
-683.4
246.34
366.891
-613.231
224.646
494.407
-33.6512
-460.756
-259.485
-194.128
1021.21
1108.92
564.807
-880.929
946.476
-65.5467
-459.058
169.9
-739.583
316.33
-589.813
325.048
377.977
834.075
-1240.63
406.552
776.513
-810.653
-948.952
-550.358
1499.31
-174.208
470.666
-557.267
264.349
1300.46
785.297
-583.464
1317.87
-682.362
487.11
-669.784
-402.958
-423.125
-377.887
801.012
502.31
-843.11
-466.104
99.5449
366.559
-322.91
572.413
727.661
-329.024
-242.796
-172.395
415.191
-487.89
133.871
354.019
1459.24
81.7172
-1540.96
-752.737
1347.65
-1144.74
-466.054
541.195
-174.303
1151.1
-374.583
1083.49
492.695
698.3
-428.708
-885.025
-522.317
-1328.42
-23.9953
984.973
-960.978
592.577
339.644
-932.222
-341.769
-205.96
-674.251
405.523
1621.19
-189.306
377.086
342.602
-719.688
-1839.76
-2106.68
1519.14
587.541
-2036.4
346.118
372.019
532.038
-904.057
-459.994
1019.91
-403.631
-669.634
1073.27
-2030.53
1391.21
639.324
595.286
-998.917
40.042
427.148
386.013
191.14
248.772
320.199
967.305
871.683
678.139
-324.854
-353.285
-292.755
619.251
-326.496
572.011
530.724
565.307
514.693
-1080
-796.205
-699.294
751.615
399.481
-408.639
705.954
-1193.41
1609.58
428.275
-1097.91
-345.299
541.722
-1380.85
876.287
504.565
-712.263
-350.381
-777.792
354.181
423.611
446.986
718.158
-1165.14
1073.32
-583.744
-417.241
666.584
-249.343
255.375
326.137
-467.828
-431.65
899.478
-231.133
565.83
-960.063
394.233
-458.605
600.598
-1681.26
423.645
670.866
-1094.51
519.987
101.847
113.408
-2212.79
540.058
-93.0009
1444.26
1777.09
-217.552
-1559.54
-438.457
1789.22
-1987.01
1194.49
792.527
400.137
346.553
-40.2382
875.115
-1283.12
718.668
-869.154
-822.132
798.137
297.041
72.3058
-369.347
232.512
187.229
-419.741
1556.82
-839.502
-1530.96
-325.43
503.798
-225.264
-278.534
394.476
365.81
259.531
361.919
-9.74204
1002.11
-992.366
376.826
290.679
-667.505
-734.078
1817.32
-1083.24
-341.954
736.43
-1221.14
-413.522
-914.706
483.056
582.099
-783.408
201.309
760.152
-379.78
-380.372
-432.848
-448.081
449.876
1087.25
1238.57
-671.497
800.125
-344.947
381.284
327.737
-237.685
-223.43
-211.916
610.7
407.405
-846.588
439.183
228.408
348.434
-576.842
-422.238
829.643
754.508
-1147.17
890.131
-56.0564
-487.072
278.388
778.185
-96.0735
1384.21
1890.5
-50.494
344.581
-315.736
417.48
-1086.69
1076.94
636.358
375.56
384.592
84.7324
419.065
261.026
503.386
-372.924
-262.875
-564.922
-89.321
-362.935
361.702
1.23373
-256.259
-288.383
1010.98
-1540.67
529.692
-186.961
-182.149
-386.014
676.692
-1639.24
1591.01
-963.143
268.935
-671.893
584.315
1224.42
-1808.73
607.395
983.616
317.97
-1122.69
703.293
-284.58
-305.149
1380.48
-1449.06
830.824
618.239
434.777
-638.382
203.605
-387.086
482.699
-95.6133
382.891
115.915
1724.04
456.301
-249.931
557.628
-1704.79
1147.16
-95.639
392.793
342.02
336.12
-448.364
-615.497
1063.86
413.093
-867.245
-640.962
902.768
570.479
-515.303
-252.062
-438.185
-408.403
-307.286
-827.204
1821.12
-1821.12
-102.927
-1593.53
1696.46
293.084
279.926
-917.184
-555.361
1472.54
-408.006
973.314
-601.688
-1038.61
691.821
396.405
-1088.23
472.132
-159.803
573.062
1220.35
-1793.41
-1038.5
2114.17
-1075.67
-375.68
-295.11
-486.605
823.953
-1754.54
1603.18
151.356
1754.54
-1608.34
-146.199
-244.912
521.69
-276.778
-537.278
1620.77
1568.2
-1981.72
1094.29
-292.621
-267.231
559.852
228.265
-573.564
-703.182
294.543
1342.04
637.05
582.429
481.411
-1063.84
272.358
425.942
875.408
500.069
-1375.48
536.228
-1018.12
1574.92
-563.943
-773.798
-358.954
-135.411
494.365
-489.953
1208.11
-741.374
333.024
366.925
378.569
245.58
-624.149
606.834
831.725
-603.248
262.025
684.451
-515.303
-329.277
-241.131
570.408
1168.53
-676.671
608.701
466.583
-1075.28
-1294.14
1294.14
-385.707
761.267
-279.841
-479.684
759.525
495.466
441.849
-937.316
392.125
-671.966
607.655
-868.736
261.081
-366.844
-491.916
1074.35
-660.57
-711.214
1371.78
-377.562
943.392
-1552.71
675.272
32.6027
-427.386
394.783
-519.196
728.247
260.948
317.911
167.677
304.455
-528.825
244.245
1869.75
-1965.82
261.806
-714.823
454.967
-822.271
367.304
-910.877
1417.89
-507.014
-429.447
-485.259
600.745
1124.19
-1724.93
-713.561
337.881
-461.513
1033.52
-787.779
1049.8
-379.13
-625.792
-498.315
742.095
540.167
-358.767
908.559
-312.081
-175.809
1599.02
-1816.57
-347.865
-612.198
-342.873
476.744
274.352
-602.532
-175.895
1067.27
-788.886
199.953
-297.241
-272.494
569.735
391.333
-884.595
493.262
-483.864
-459.241
-943.357
-360.968
592.983
-232.015
-454.738
-436.989
-347.895
-179.099
-401.964
647.544
-444.766
772.502
-1072.36
623.996
-1405.86
548.289
-28.3108
-1837
1865.31
569.905
-449.789
1226.88
-695.236
336.366
-336.366
671.852
-447.33
1038.55
-1640.24
-1158.73
-947.949
291.399
327.852
890.977
715.989
-504.725
-302.935
807.66
1658.91
-1687.22
-434.15
340.839
226.259
1134.49
-525.794
-943.333
1550.48
-607.143
440.868
-249.728
372.089
395.086
-767.175
537.922
468.646
-1006.57
-330.62
663.645
-37.9541
1907.7
1596.38
992.739
-1696.89
727.021
-1176.93
449.913
-492.44
1367.85
837.333
-1341.1
-572.203
279.582
804.381
-400.23
549.721
-1190.02
640.3
-635.72
-1215.53
-695.657
1911.19
-188.581
557.669
-369.088
-180.648
321.56
-510.141
331.975
366.114
-698.089
-1486.21
756.529
729.684
884.083
-1434.44
823.141
-431.595
210.799
-357.958
-604.629
275.352
-649.039
-731.813
698.241
506.409
-1204.65
385.359
-201.878
-183.481
555.595
-957.866
-575.635
-425.255
741.585
-831.3
-1155.71
-1437.95
499.643
938.303
4.56236
-649.787
350.728
299.059
-1318.42
1047.12
271.295
-616.36
-456.001
-665.678
921.644
396.388
-195.454
-200.934
508.221
980.614
-1488.84
979.771
-564.991
167.538
397.453
-411.319
681.38
-419.574
-505.366
162.493
234.244
-1519.65
526.967
546.358
-770.428
251.232
143.114
-455.196
363.559
-822.8
1954.16
-1195.39
-758.771
425.037
-688.699
263.663
326.051
334.781
108.864
-443.645
-574.889
193.3
263.001
-691.691
1374.3
-682.612
423.83
472.896
-1185.16
265.431
1866.78
-1013.59
-853.188
784.876
-545.123
184.155
1402.36
-975.186
-427.17
328.073
-775.404
-616.511
1725.43
609.423
629.147
324.118
-27.0775
264.139
-1138.42
1725.71
-587.293
-1763.52
820.192
1760.04
-1689.84
-70.1967
-662.306
266.522
573.956
-728.335
230.02
1402.54
-565.206
383.925
448.825
-1858.6
1420.14
566.796
-443.676
-123.119
198.521
-546.416
-287.093
-191.307
-352.017
694.036
-585.14
226.186
615.045
548.832
-1163.88
1113.59
-1947.47
833.88
153.863
348.916
-1699.32
1661.36
309.07
-737.778
-167.121
377.92
758.23
678.915
-1437.14
1079.99
-1082.43
523.989
-1107.73
-627.179
251.175
376.004
536.928
-288.584
-611.54
-1028.7
288.699
-725.688
-912.321
170.584
160.627
224.733
401.524
287.063
-688.587
-633.616
-834.07
-978.447
488.198
-1063.09
-307.807
486.751
534.027
650.413
-281.738
-124.642
-410.877
728.847
264.619
-1200.68
567.062
1310.94
-552.706
441.808
-1017.44
-390.71
159.62
407.176
1023.32
551.607
-1717.02
1614.09
1633.45
-572.5
-1060.95
1904.33
-1893.15
-11.1774
220.813
-536.549
-357.773
557.726
-770.403
-328.079
-334.227
1021.91
703.908
-1509.25
805.338
334.965
-26.189
1625.21
-1093.35
416.681
-1245.09
471.294
-60.9021
1520.15
1197.28
-470.254
-489.872
-75.1192
-274.057
736.025
-1951.56
-708.804
357.61
-532.044
174.434
192.356
-510.152
1139.91
671.563
-1811.48
-627.016
183.34
941.942
-1497.3
-210.453
678.876
-468.423
871.08
1128.92
-740.871
1350.29
624.13
-492.862
-131.268
-343.858
1174.68
1042.96
-1979.34
936.382
-1174.63
541.824
1488.7
-585.936
-397.904
-148.72
-1243.01
571.509
1160.59
-106.763
946.099
775.654
-1721.75
-200.102
578.531
-1541.7
963.166
486.958
916.629
-1403.59
624.215
584.915
403.215
-1106.64
591.964
1109.56
1216.52
-452.422
-764.095
-1186.2
-1754.93
-6.25209
-1710.76
-203.329
-435.053
1608.64
-630.864
-977.774
-490.783
1121.55
-1319.09
634.993
684.097
-1362.73
1444.45
-1331.79
590.922
1520.47
-388.494
-585.292
187.388
-1483.38
224.164
176.367
239.482
384.648
438.234
405.714
-843.948
506.299
-938.995
900.588
-1444.75
-710.397
235.657
474.74
-1047.99
457.923
-480.666
864.591
695.084
20.2428
-535.839
166.751
-886.565
-1318.74
-713.62
348.854
364.766
400.897
-721.499
320.603
-478.512
-189.258
-709.918
721.771
1539.72
-593.622
818.905
737.911
1344.76
-844.692
-971.214
-570.483
-795.188
427.405
367.783
-1036.24
-640.342
303.052
337.291
-1433.69
-296.783
-789.275
397.352
391.923
-660.811
413.819
246.992
-686.204
266.631
412.266
487.212
389.238
440.405
478.764
384.101
596.509
-969.381
687.305
465.576
453.553
356.103
-809.656
1630.75
-1079.89
-550.863
-504.563
-288.161
-1030.26
453.872
347.14
409.385
593.907
-1003.29
-1382
751.136
-530.747
1147.01
360.386
-45.6894
411.698
-864.446
452.748
-1895.69
302.158
441.412
-725.913
284.501
-187.713
399.926
-212.213
-659.519
303.554
355.964
-672.147
318.862
370.059
391.208
612.654
-1020.66
752.614
662.676
-1415.29
438.591
625.27
339.9
392.703
-732.603
408.862
327.569
599.961
673.732
413.516
601.089
-1029.28
428.193
-1669.96
1189.24
480.715
1696.59
-539.17
620.077
-1146.82
526.745
-642.518
347.916
436.971
-934.411
497.44
763.062
-451.956
349.998
344.038
576.78
-924.646
651.778
-1252.47
600.694
385.077
734.585
-1224.54
769.359
509.548
-1278.91
491.771
404.417
-896.187
-501.661
-936.285
-297.214
629.189
352.272
541.776
-894.048
332.502
331.143
-502.179
1944.74
437.085
-846.92
409.835
-917.716
-807.476
-747.031
366.659
-1226.03
438.254
-1737
1608.34
128.664
1748.12
-1603.18
-144.935
-783.132
-590.229
264.631
325.598
-1760.04
1981.72
538.533
791.341
-1329.87
439.992
716.288
690.287
385.506
-1075.79
-70.1201
1617.12
-593.802
388.503
838.382
-649.548
326.681
322.867
-377.5
-297.494
552.869
-215.77
433.247
280.836
-665.709
384.873
263.622
-576.521
-281.56
442.335
-1033.07
590.733
538.039
1092.71
365.807
596.83
312.794
353.549
-666.343
1628.96
-925.053
1692.02
-1520.68
-171.335
-326.607
-822.056
413.653
857.51
-1067.96
-604.514
278.018
-1090.6
1628.63
-1588.6
-76.8309
1665.43
-339.883
-348.943
-369.095
537.862
596.633
-500.822
-27.2979
-549.997
503.525
-281.558
-221.967
1752.28
-1302.41
-623.225
298.429
324.795
399.239
357.197
734.656
-295.373
-398.177
-1748.12
1687.22
459.416
-1100.66
641.242
-42.6515
1656.74
571.275
476.283
-1047.56
104.818
1144.75
-1452.03
-12.9312
-1882.76
226.747
-597.766
306.494
291.272
-955.346
612.563
-897.393
467.946
-1128.32
673.326
454.99
379.187
268.734
-773.459
-308.012
1216.32
886.649
699.071
-1182.87
456.072
726.801
494.278
700.648
-1194.93
-358.287
-245.218
405.845
-960.029
438.26
521.769
21.2452
-1879.84
1079.57
-471.913
-503.686
558.22
-1378.07
819.851
-431.022
798.326
-404.683
499.684
-705.861
1727.07
406.465
-181.733
217.251
-167.598
-243.352
410.95
1895.32
-504.114
-1696.14
1051.24
-602.124
304.631
-1013.28
553.281
-311.091
544.277
905.251
-1449.53
-1103.65
437.974
-20.8889
-1944.93
1711.1
-668.138
-540.625
460.647
-1190.37
729.722
192.74
203.648
-282.623
771.074
699.591
837.654
818.286
-462.183
1084.69
-484.232
475.032
-192.382
-282.65
-1923.51
-714.193
-316.93
-644.721
-6.98184
651.703
463.525
-270.226
567.006
1061.96
-807.298
924.183
1244.13
-424.704
-187.367
-228.235
415.602
961.502
-888.519
-319.262
-1067.52
611.517
1559.36
-802.827
537.652
934.892
-396.519
735.07
-338.551
1130.28
-276.708
339.657
1349.56
-705.671
-217.346
448.217
-1198.55
750.33
-986.939
-120.435
1107.37
441.298
-955.04
513.742
176.763
733.003
483.514
736.89
-94.6043
852.103
-425.263
1182.45
-796.947
552.146
-1465.41
913.261
-1216.65
1800.97
-431.711
-1510.19
879.623
-1401.94
-320.357
-420.013
1457.13
-1524.66
784.124
1491.48
200.577
274.455
-362.252
-1737
-286.945
-1012.72
1579.73
-1770.84
1770.84
1568.2
-1004.43
-633.213
-346.332
368.241
605.073
-374.435
-369.55
-1389.8
897.365
1125.14
600.574
1202.7
1789.48
-1216.42
-615.763
271.144
1659.03
-1916.51
257.484
814.825
-1267.59
1545.23
-561.61
789.936
321.222
-352.495
554.877
794.807
671.941
1356.8
-236.705
-444.645
-375.043
497.703
-342.231
471.7
736.411
-307.381
-136.264
-338.725
569.689
-230.964
29.5044
-369.764
1107.44
-1720.26
-448.169
-494.726
-569.858
863.674
695.682
-1596.45
904.757
-451.355
-625.802
-514.1
1251.86
347.247
1723.71
-1702.47
-1658.91
1893.15
-1560.8
840.274
720.521
-385.504
-1797
917.705
583.265
819.274
-392.825
1794.32
-680.727
-419.699
682.512
437.471
-1119.98
-1100.49
444.039
753.236
-1617.17
473.176
901.128
174.95
-397.557
222.607
-1598.68
-386.403
-437.467
990.289
-675.944
1442.9
-982.162
1853.24
238.868
-537.135
493.657
-293.081
474.291
893.557
543.123
977.35
-462.589
-427.606
573.964
883.164
-1392.71
-40.9882
1576.03
-838.117
519.936
971.541
-1475.78
-1115.9
1773.12
-1241.29
-531.829
1206.05
-319.021
-887.034
-190.548
450.617
-260.069
-456.963
-247.803
426.576
-178.773
142.259
-387.477
1732.49
-1738.75
-466.334
-530.831
-903.61
440.479
-205.435
-235.044
635.661
-464.673
-359.714
-325.517
685.231
-930.191
393.324
-1167.24
676.454
413.817
-639.888
-434.248
1579.33
-863.345
530.177
-457.681
-570.679
-462.389
373.558
-363.783
-9.77413
-1110.8
415.563
-664.785
-1033.63
1698.42
-606.18
-1423.68
712.462
562.196
-1596.24
1034.05
-401.137
-472.632
157.831
536.124
-1258.25
744.15
539.215
1006.01
-2133.18
999.988
1133.19
-375.832
420.873
-395.966
-24.9076
1478.02
-377.159
449.23
1210.22
582.243
906.461
567.444
527.385
-1094.83
162.493
-449.079
-1689.84
249.06
1127.58
-619.535
518.491
1013.73
-1532.22
1092.85
-1643.72
187.259
702.872
553.171
-872.433
-1086.5
-173.524
429.581
-256.057
-587.106
-438.625
-636.781
-629.664
347.041
-1618.92
939.585
-476.661
212.44
-394.173
532.109
-305.362
-613.026
1197.09
-1283.24
924.94
358.305
-1017.84
-381.977
-760.284
-827.008
1690.68
-476.785
1793.31
-1583.06
-210.254
-1556.62
1018.72
537.901
-728.168
-263.93
445.963
-182.033
-597.511
382.764
272.211
-654.975
-523.89
995.322
628.013
-349.995
-1620.27
1050.51
571.765
1103.54
-1675.3
-423.968
-288.654
-370.864
-747.007
-480.377
-328.821
496.498
1557.98
-995.78
-774.997
1497.44
657.683
-316.844
725.88
1152.37
-1878.25
303.6
316.979
-487.074
-1932.73
1720.21
212.528
736.563
-473.773
-262.79
531.824
1060.83
-1592.65
373.558
-1723.69
-233.21
1752.35
-1580.69
1073.78
506.911
-1724.96
1.26164
-521.6
420.873
1699.32
-1720.21
939.583
624.672
-1564.26
385.165
-218.183
-166.982
-421.275
-264.929
68.3531
95.1746
-359.104
-427.701
-441.035
-402.65
214.938
1510.23
378.851
-216.45
-444.361
461.016
-198.015
330.708
1510.76
995.336
-154.1
-841.236
-1104.09
1704.84
-1728.79
1064
-707.21
-1021.58
-1265.08
1844.99
-579.902
1155.07
-1771.16
616.092
272.439
-878.07
1675.74
43.4407
-1719.18
-491.152
-1083.06
-1732.49
-981.667
554.062
1019.6
590.224
1133.03
-1723.25
276.52
-450.823
702.139
-383.277
389.175
924.711
680.927
-383.381
-645.901
582.888
1072.55
-1655.44
-403.188
-365.745
768.932
439.779
-1661.36
1520.68
140.68
581.872
-1043.38
544.74
1083.89
-1555.66
994.052
-236.39
224.184
333.541
1904.33
444.263
-71.9866
995.862
722.75
-1718.61
-697.26
1085.34
-1557.51
163.147
-571.284
197.318
263.698
-663.559
-562.474
582.512
1034.61
-711.165
-283.315
-1368.24
675.095
693.143
-411.329
757.916
69.6231
-827.539
561.71
-137.162
1557.3
-209.911
276.641
-773.524
-1932.73
1664.62
1027.12
389.73
308.472
454.59
-929.925
-993.584
-1767.26
633.939
1693.76
506.282
-474.267
1210.68
1087.11
-424.747
1029.82
-977.297
490.99
486.307
700.332
1047.91
-1748.24
482.627
483.838
-1493.97
-745.834
33.2331
778.896
-412.237
-887.831
384.145
-539.033
-802.071
644.621
-577.394
1397.25
1055.14
195.44
234.142
-550.612
1618.52
-773.343
1525.96
-1727.83
575.252
1152.58
541.517
-882.075
-1732.82
1916.51
-183.688
1721.74
180.391
-544.316
374.202
-279.027
-481.352
1211.07
568.266
1128.32
-491.089
427.894
856.641
-459.574
-771.55
429.995
341.556
1418.96
1089.58
-518.185
1422.94
-510.517
-533.551
1044.07
-602.752
486.08
-1203.65
1692.02
1839.58
-687.211
1585.71
-646.125
-1241.09
717.197
-562.516
205.742
-396.918
454.072
-244.641
-519.606
-1246.71
1870.94
-624.234
1173.06
-552.986
1120.28
-1659.45
1697.8
-573.931
-546.128
-549.816
1720.07
-316.849
-688.031
-473.249
1223.58
-1685.9
-1860.1
613.395
308.961
-935.812
166.507
212.099
-1719.02
1204.15
514.872
1162.85
558.887
-512.023
-465.314
1192.11
179.21
220.716
588.444
1251.13
-539.177
-1238.58
1777.76
-1025.34
999.99
866.789
-204.105
-1659.03
1702.47
-510.06
1411.19
-1732.82
-351.612
12.5376
339.075
-257.564
583.236
-325.672
85.534
485.636
779.847
-378.951
1257.53
1270.81
-413.301
851.107
-437.454
1817.46
-662.395
1586.55
-1723.71
-412.793
-756.054
308.409
447.645
-560.01
-563.324
79.7149
-1138.76
-985.403
-669.849
1655.25
-943.706
-1189.47
159.049
-426.28
-648.133
705.652
1167.44
650.017
1410.2
-590.924
1636.74
1317.91
-573.757
-488.437
195.356
-503.257
1396.81
1239.86
-564.761
-999.989
892.144
56.3265
-948.471
603.434
-506.113
1403.48
1495.01
-588.548
-382.044
382.044
-589.435
1623.48
1239.4
-486.166
1134.16
-67.7774
1849.31
-387.155
1489.4
-588.809
-507.653
1347.93
-651.818
1218.32
-566.501
1554.77
-591.605
754.965
575.489
-1330.45
-655.88
283.168
502.129
600.305
-1957.3
-995.578
1586.55
382.751
-382.751
-63.8893
386.671
436.47
396.733
-13.8419
-342.509
904.213
-519.136
-426.138
812.809
-242.055
618.059
-429.095
1547.93
-444.317
-884.103
185.117
223.32
-408.436
601.168
1250.78
-1851.94
926.307
-458.361
-363.783
126.151
-1943.02
1816.87
-447.024
176.532
1181.2
-440.4
-740.797
-298.931
-588.9
-493.412
-395.966
-477.5
255.533
1157.83
-561.196
228.578
-374.105
145.527
-22.4083
-107.67
1376.09
-1268.42
34.4501
-599.372
-586.399
-460.766
460.766
-1262.36
1985.11
-1344.38
-211.736
-1823.18
240.121
-1025.75
-974.243
-183.982
-1638.14
708.215
1229.32
-1924.97
366.465
313.424
-679.889
-1850.01
1234.27
615.742
-564.875
564.875
-959.143
-39.8929
-1866.06
-558.14
1650.85
-676.869
1636.16
-601.551
-178.925
-1703.83
-581.939
-447.582
-594.801
-473.828
473.828
-1537.81
194.527
1343.28
173.121
223.935
-397.056
487.759
507.577
996.51
-474.741
1751.3
768.73
-427.966
403.059
521.245
1702.05
-594.607
-552.959
1636.85
468.462
1812.75
-645.304
-1804.05
-1938.07
-646.972
-485.076
485.076
-595.977
220.934
-694.118
1019.02
-465.737
-1073.41
-289.544
1579.58
1852.3
1635.34
-1635.34
-271.248
739.832
1761.49
595.787
1275.15
175.476
209.689
584.966
589.346
1603.53
-1603.53
221.018
-355.034
-435.78
459.137
950.525
-459.534
-639.521
-1131.01
1706.26
279.07
-1654.61
616
-286.241
466.632
1744.64
-592.064
-214.74
-420.319
379.122
730.441
1738.57
-613.429
-511.765
-772.196
1960.53
-870.454
-1090.08
1642.76
-705.819
1223.97
-1824.94
600.973
345.949
-883.084
-185.938
-110.181
1097.96
-486.44
136.979
623.259
-1651.96
433.569
617.424
-1804.05
-583.275
1787.43
884.035
-1162.92
1760.49
-597.569
1783.83
-575.527
-1208.3
436.777
924.332
-1738.75
924.718
-1492.75
263.173
1229.58
-830.889
-1254.23
-385.862
77.7221
308.14
581.724
268.064
1029.53
-441.617
845.136
-403.519
820.723
739.517
-1560.24
643.971
1066.3
-24.5259
-663.941
688.467
-1744.32
722.742
703.263
150.53
-1122.68
1936.76
-674.55
-1262.21
-537.172
1665.49
832.52
965.127
-1797.65
1227.86
683.327
-405.205
708.759
825.466
1027.74
-586.445
1761.49
626.497
1773.56
-1185.62
-587.941
-380.946
-340.209
721.155
121.434
-1185.7
1660.55
-540.264
-1437.85
1437.85
1250.57
594.415
1351.54
206.438
-558.109
278.504
-186.175
699.083
1113.66
476.642
-297.432
-870.007
-574.741
1737.48
-1737.48
1012.65
-1012.65
987.331
1025.17
-2012.5
1837.94
-613.972
-581.107
831.563
-947.85
-1052.16
998.285
690.742
-1689.03
-522.055
-357.612
-641.305
-808.424
2042.69
-1246.42
-613.682
1002.97
974.852
1289.77
646.987
324.639
1012.68
224.987
338.23
1186.29
1756.87
-1756.87
671.935
80.2066
-391.54
-997.052
-539.987
1674.14
991.233
1008.77
-1833.28
-221.958
-359.981
609.659
-360.599