/*--------------------------------*- C++ -*----------------------------------*\
  =========                 |
  \\      /  F ield         | OpenFOAM: The Open Source CFD Toolbox
   \\    /   O peration     | Website:  https://openfoam.org
    \\  /    A nd           | Version:  7
     \\/     M anipulation  |
\*---------------------------------------------------------------------------*/
FoamFile
{
    version     2.0;
    format      ascii;
    class       volVectorField;
    location    "12";
    object      U;
}
// * * * * * * * * * * * * * * * * * * * * * * * * * * * * * * * * * * * * * //

dimensions      [0 1 -1 0 0 0 0];

internalField   nonuniform List<vector> 
7639
(
(1.11681 0.138971 8.06327e-21)
(1.03334 -0.0390347 1.41701e-21)
(1.00002 0.117202 -1.87916e-20)
(1.04418 0.0634199 2.48684e-20)
(0.999411 -0.000695134 -4.23296e-23)
(0.999974 -7.32394e-06 -4.14562e-24)
(0.992679 0.0951038 -3.7306e-20)
(0.996373 -0.00129861 -9.16107e-24)
(0.999913 -0.000130201 -7.14654e-24)
(1.02042 -0.000522616 -1.14191e-21)
(0.999976 -8.48701e-06 4.57359e-24)
(1.00158 -0.000956575 -1.7934e-22)
(0.994463 -0.00165253 4.45033e-22)
(1.01435 -0.00174422 -7.19662e-21)
(1.01986 0.000370847 4.8325e-21)
(0.993684 -0.0102545 -8.83617e-22)
(1.1227 0.148086 -1.68986e-20)
(0.992584 -0.00208869 -1.55628e-22)
(1.0015 -0.00676646 -5.92288e-23)
(0.979093 -0.0592405 -6.98761e-22)
(1.02758 -0.00621354 -2.42876e-21)
(1.00104 -0.000495284 3.3921e-22)
(1.01356 -0.00295079 6.16152e-22)
(1.01155 0.0273068 -1.28588e-20)
(0.990185 -0.00257709 -7.09346e-22)
(1.10912 0.138289 -8.16197e-21)
(0.999424 -0.00065535 -3.03587e-23)
(1.01879 -0.00165453 2.84695e-21)
(1.0055 0.013781 -1.62598e-21)
(1.00236 -0.00729349 4.87084e-23)
(0.990637 -0.0106971 -1.61177e-21)
(0.863288 0.0409053 5.70643e-21)
(1.01301 -0.00341726 3.79926e-21)
(0.999672 -0.000281871 5.24821e-23)
(0.999929 -3.26465e-06 9.76824e-26)
(1.01885 9.12575e-06 1.69068e-21)
(1.0029 -0.0080537 5.81115e-23)
(0.997672 0.0915428 -5.9186e-21)
(0.997458 -0.00559402 7.2677e-22)
(0.999771 -3.96641e-05 4.97276e-23)
(0.997686 -0.00575693 -8.36809e-23)
(0.993831 -0.00955213 -3.28974e-22)
(0.991993 -0.0685684 3.05477e-21)
(1.09206 -0.0835641 5.25971e-22)
(0.999862 -6.67627e-06 1.59542e-23)
(0.999948 -1.20987e-05 -4.43006e-24)
(1.00094 -0.000418487 -2.07302e-22)
(0.997205 -0.00501893 -4.29097e-22)
(0.999955 -2.10468e-05 -3.53523e-24)
(0.981204 -0.0602357 1.0126e-21)
(1.0023 -0.000849423 1.92723e-22)
(1.01868 -0.000467678 -2.95669e-21)
(0.987288 -0.00305257 -2.38319e-21)
(1.00615 -0.0227051 1.04684e-22)
(1.01876 -0.00136045 -9.86653e-22)
(0.996788 -0.00180666 -8.16764e-23)
(1.00135 -0.00640338 1.26535e-22)
(0.996356 -0.00111842 6.07188e-22)
(0.984279 -0.0124463 -2.8401e-21)
(0.999664 -0.000249733 -6.75127e-23)
(1.00003 -1.65091e-05 -8.32309e-24)
(1.00305 -0.000798139 2.15626e-22)
(1.01481 -0.00109113 -1.69581e-21)
(1.00168 -0.000831428 1.81567e-22)
(0.999349 -0.0001444 9.75503e-23)
(0.99097 -0.0111318 2.84985e-22)
(0.999935 -0.000131843 5.40982e-24)
(1.00001 -1.55217e-06 5.98665e-25)
(1.17671 0.00460885 2.41674e-21)
(0.99728 -0.00475977 -1.26548e-22)
(0.999951 -1.43341e-05 3.93256e-24)
(0.977393 -0.03565 -5.14684e-21)
(0.990586 -0.00286141 3.44917e-22)
(0.982612 -0.00366178 4.68199e-22)
(0.992895 -0.00230609 4.87222e-22)
(0.976128 -0.0172614 -6.16919e-22)
(1.00469 0.11873 3.02158e-20)
(1.02579 -0.00571962 3.09914e-21)
(1.07044 -0.0181954 -5.0231e-21)
(0.968774 -0.028328 -6.49255e-21)
(0.994712 -0.00182773 -6.83286e-22)
(1.00005 0.0552038 3.67124e-20)
(1.03391 0.0012997 7.31316e-21)
(0.982188 -0.00652229 2.15074e-21)
(0.999065 -0.00177659 -6.7591e-23)
(0.998455 -0.000222081 7.24745e-23)
(0.996128 -0.00171211 8.37926e-22)
(0.987761 -0.00341792 1.53342e-21)
(0.999547 -0.000831466 4.54168e-23)
(0.996946 -0.000471619 2.60003e-22)
(1.00579 0.0157249 1.2094e-20)
(1.12054 -0.0970186 -1.01324e-21)
(0.999911 -3.90687e-05 -9.50124e-24)
(1.0012 -0.00542663 5.16874e-23)
(0.99758 -0.000721832 2.35576e-22)
(0.982381 -0.00205299 -3.73996e-21)
(0.978889 -0.035581 3.35602e-22)
(1.00742 -0.0221088 8.01244e-23)
(0.99899 -0.00171195 2.31952e-23)
(0.999228 -0.000129824 3.2828e-23)
(0.967333 -0.0101572 1.6007e-21)
(1.07325 -0.0143439 4.18967e-21)
(0.997716 -0.000818964 -5.87556e-22)
(0.999981 -6.81524e-07 -3.40286e-25)
(1.1315 -0.0929833 -9.02735e-22)
(1.03037 0.0245908 -1.15065e-20)
(0.929269 0.0295074 6.49916e-21)
(0.996574 -0.00170885 -3.38754e-22)
(0.999994 -1.07998e-06 4.84902e-26)
(1.01822 -0.0116466 -1.29185e-21)
(1.04743 0.0590289 -2.88853e-20)
(1.0068 -0.0565856 -3.57004e-21)
(0.999993 -1.70111e-06 -8.96706e-26)
(1.01966 -0.012504 -2.79377e-22)
(1.02664 0.0240085 1.21065e-20)
(1.00028 -0.000400682 -1.64241e-23)
(1.02891 -0.076981 -1.83773e-22)
(1.02825 0.0125947 -2.75723e-21)
(0.985948 -0.0294765 2.24433e-21)
(0.982381 -0.00445617 -4.88585e-22)
(0.965442 -0.00662224 -3.86122e-21)
(1.00134 0.0399742 -2.38989e-20)
(0.995458 -0.0689425 -4.19905e-21)
(1.00668 -0.00583195 1.09231e-22)
(0.96651 -0.00759657 1.5212e-21)
(0.999358 -0.000955164 1.01571e-22)
(0.991428 -0.00810822 5.31647e-22)
(1.00192 -0.00618858 -8.72712e-23)
(0.999312 -0.00010634 -2.17569e-22)
(0.990649 -0.00982917 2.75363e-23)
(1.12296 -0.132077 -7.97422e-22)
(1.06464 -0.0176905 8.65983e-22)
(0.999594 -0.000373165 5.71044e-24)
(0.999481 -0.000855318 -8.8059e-23)
(0.981408 -0.0059443 6.3885e-22)
(1.04353 0.0512604 1.05525e-20)
(0.994199 0.0329965 4.32476e-20)
(0.999983 -2.3419e-06 -4.03501e-25)
(1.0055 -0.00222064 9.06299e-23)
(0.954054 -0.00788964 -4.80062e-21)
(0.983671 -0.00265232 -1.91666e-21)
(0.987067 -0.0407858 -3.27984e-21)
(0.976324 -0.0185946 8.35545e-22)
(0.983547 -0.00331837 -4.19908e-23)
(0.922475 0.0231552 2.53028e-20)
(1.00462 -0.0337586 -1.15902e-22)
(1.01159 0.0156442 -6.1498e-21)
(0.985597 -0.0150005 -1.4664e-21)
(0.976107 -0.00346323 5.27382e-22)
(1.00114 0.048831 -1.18577e-20)
(1.01953 0.00113816 4.22217e-21)
(1.11061 -0.088654 1.83777e-22)
(0.998957 -0.00139005 -2.38084e-22)
(1.17528 -0.00860512 6.47375e-23)
(1.03225 0.00132866 -7.62382e-21)
(1.01197 0.0943256 -2.9738e-20)
(0.972602 -0.0199321 2.56017e-21)
(0.994465 -0.0012538 1.5036e-22)
(0.940665 0.0783963 5.65359e-20)
(0.999958 -1.72443e-05 -3.28698e-24)
(1.00084 -0.00566733 -3.44908e-23)
(1.01253 0.0307019 9.29405e-21)
(0.999986 -1.35882e-05 1.77674e-24)
(0.998775 -0.00361174 -3.36853e-22)
(0.997273 -0.000692153 -1.12806e-22)
(1.00477 0.0377832 -3.07415e-21)
(1.00273 0.0343836 1.14355e-20)
(0.931657 0.0867729 1.88327e-20)
(0.998613 -0.00348852 -2.12494e-22)
(0.997879 -0.000252921 -1.27222e-22)
(1.00001 -1.72106e-06 -5.65723e-25)
(0.963556 -0.00403089 -6.6379e-21)
(1.00026 -0.00035376 2.26246e-23)
(1.03573 -0.0367399 -1.66622e-21)
(1.0056 -0.00250493 5.9973e-22)
(0.976623 -0.00410203 1.09285e-21)
(1.13333 -0.0789011 -8.11514e-22)
(1.12735 0.0414816 1.9322e-22)
(0.99991 -4.46089e-05 5.17204e-24)
(0.999648 -0.000444099 -5.9301e-23)
(1.04654 0.0673808 -4.39766e-21)
(0.999959 -1.34093e-05 -1.60358e-24)
(0.999924 -8.13452e-06 2.4662e-24)
(0.993388 0.101584 -3.0808e-20)
(1.03356 -0.041975 2.27014e-22)
(1.00095 -0.0462605 -2.01591e-21)
(0.987334 -0.0287939 -3.18596e-21)
(0.984065 -0.00481557 1.40504e-21)
(1.00247 -0.0342132 2.07536e-22)
(0.955089 -0.00667302 2.52014e-21)
(0.999985 -1.24506e-05 -6.6358e-25)
(0.979601 -0.0335072 -1.2339e-21)
(1.13555 0.0487996 -6.5778e-21)
(0.997699 -0.000997994 8.44133e-23)
(1.00005 -4.22869e-06 -5.85385e-24)
(1.09565 0.06151 7.85517e-22)
(0.999156 -0.000270014 2.32149e-22)
(0.99122 -0.00949028 8.50122e-22)
(1.00103 -0.0320998 6.85185e-22)
(1.00001 -1.1806e-06 -2.44205e-25)
(1.00058 -0.0014108 -9.2554e-23)
(1.03939 0.0515485 1.32661e-20)
(1.12289 0.0647914 -9.42853e-21)
(1.00558 0.0824598 -4.0024e-21)
(1.02889 -0.0723362 1.52688e-21)
(1.00982 -0.055156 8.14344e-22)
(1.0414 -0.109574 -5.89448e-22)
(1.01887 -0.00291532 8.4631e-21)
(1.03534 0.0488526 -4.28284e-21)
(0.999855 -1.44127e-05 -1.86823e-23)
(1.00003 -1.38297e-05 2.2284e-24)
(0.946531 0.0119501 -2.49657e-20)
(0.994702 -0.00921122 -3.10711e-22)
(0.999579 -0.000335912 -5.73143e-23)
(0.981073 -0.033187 2.56981e-21)
(0.991024 -0.00852569 -6.19366e-22)
(1.02259 0.0850627 -3.29678e-20)
(1.01781 0.0825862 -6.94641e-21)
(0.985106 -0.0414247 8.94545e-22)
(0.889253 0.0576243 -2.15772e-20)
(0.999215 -0.000310294 -1.70389e-22)
(0.992625 -0.00178738 5.5597e-22)
(0.966199 -0.00923111 2.10646e-21)
(1.02743 -0.00191008 -1.75995e-21)
(0.988859 -0.0829026 -3.84911e-22)
(1.15095 0.124507 -1.55919e-20)
(0.940741 0.0687174 -4.83549e-20)
(1.00004 -7.64068e-05 6.73164e-24)
(1.00665 -0.00556756 2.98815e-22)
(1.02664 0.0152902 1.49415e-20)
(0.997316 -0.00417026 -5.53134e-22)
(1.03047 0.0125004 -1.87841e-21)
(0.999628 -0.000899061 -1.4322e-23)
(0.906309 0.0977774 3.81858e-20)
(1.01185 0.0862771 6.58849e-21)
(0.996134 -0.00147034 5.3237e-22)
(1.00254 -0.0061085 -1.29146e-23)
(0.999785 -5.00431e-05 -9.25263e-23)
(1.1834 0.0580555 2.9376e-21)
(0.999934 -9.27179e-06 7.31983e-24)
(0.996194 -0.00766265 2.54911e-22)
(0.959234 -0.0178026 2.85497e-21)
(0.99995 -1.79996e-05 -1.62617e-24)
(0.999145 -0.00205959 -5.88071e-23)
(0.99971 -0.000876899 2.65473e-23)
(1.07394 0.0305264 1.03306e-20)
(0.999986 -1.73658e-05 2.09821e-24)
(0.996821 -0.000364521 2.977e-25)
(0.970217 -0.0282739 7.53328e-21)
(0.864743 0.0305861 -1.25821e-20)
(1.06221 -0.0210544 -1.19268e-21)
(0.919598 0.065558 2.91066e-20)
(0.99997 -6.52996e-06 -3.88416e-24)
(0.999408 -0.0323192 -5.05256e-23)
(0.999871 -0.000221919 -2.03933e-23)
(1.00606 0.097432 -3.00599e-20)
(1.00268 -0.000526217 -2.78074e-22)
(0.991796 0.0372773 1.40903e-20)
(1.00188 -0.00740956 -2.41251e-22)
(1.00051 -0.00145328 9.99695e-23)
(1.01865 -0.0286712 -5.04115e-22)
(1.01886 -0.00160507 -7.83785e-21)
(1.00039 -0.000238983 4.63306e-23)
(0.999844 -3.92582e-05 4.66943e-25)
(1.00034 -0.000323652 1.04868e-22)
(0.997163 -0.0044088 -4.90279e-22)
(1.00468 -0.0493482 2.28587e-21)
(0.999971 -8.90764e-06 2.62961e-24)
(0.973665 -0.0192074 1.79353e-21)
(0.997408 -0.000806552 -2.12152e-23)
(0.999901 -3.38317e-05 1.01036e-23)
(0.999575 -0.000415744 1.87194e-23)
(0.987344 0.058308 3.38695e-20)
(0.994435 -0.000587275 2.18753e-22)
(0.999475 -8.35248e-05 -1.95179e-23)
(0.896444 0.0138189 4.7992e-20)
(0.999046 -0.00198789 -1.33207e-22)
(1.08557 0.0970871 -9.836e-21)
(0.999857 -0.000206511 3.74928e-23)
(1.00479 -0.0171128 7.10012e-23)
(1.00001 -6.62493e-07 -2.04684e-25)
(0.98635 -0.023995 -1.28461e-21)
(1.02682 -0.00146582 2.73433e-21)
(1.14199 -0.0756015 1.27495e-21)
(0.984379 -0.0133921 2.4048e-21)
(0.999717 -0.000451906 6.85994e-23)
(0.980225 -0.0512051 1.61553e-21)
(0.988543 -0.000322899 1.00645e-21)
(0.999872 -1.61779e-05 1.03195e-24)
(1.00032 -0.000278602 -9.28302e-23)
(0.998524 -0.00254897 1.83618e-22)
(0.994679 -0.0010441 -6.53024e-22)
(1.00224 -0.000677876 -3.29953e-22)
(0.999127 -0.00142878 8.5746e-23)
(0.983072 -0.00611191 3.38058e-22)
(1.00796 -0.0486365 -1.67484e-21)
(0.983195 -0.00513086 1.50215e-21)
(1.09345 -0.0745825 -1.21866e-22)
(0.977939 -0.00556496 -1.91085e-21)
(1.02857 0.113956 3.35588e-21)
(1.02354 0.117772 -2.46162e-20)
(0.998954 -0.000563398 -1.48485e-22)
(1.15424 -0.0960796 -4.57984e-21)
(0.999988 -2.71136e-06 -2.20371e-25)
(0.998494 -0.00314901 -2.22354e-22)
(0.981966 -0.00142956 3.83921e-21)
(1.00878 0.0240677 7.69808e-21)
(1.03673 0.00486107 -7.18089e-21)
(1.00007 -2.74732e-05 1.32141e-23)
(0.998553 -0.00297995 -1.4596e-23)
(0.978671 -0.00617829 1.44021e-21)
(1.05592 0.0298693 -4.29991e-21)
(0.999309 -0.00088535 7.65245e-23)
(1.0024 -0.00063633 1.85907e-22)
(1.00088 -0.000720847 -1.68116e-23)
(1.11913 -0.0238267 3.26443e-21)
(1.11583 -0.135636 -4.36364e-21)
(1.05836 0.139845 1.54645e-20)
(0.998888 -0.00016847 -1.45604e-22)
(1.04058 -0.0435776 -9.35251e-22)
(0.99992 -4.96427e-05 -8.15992e-24)
(1.00341 -0.00548521 -6.32737e-22)
(0.999962 -9.7079e-06 -1.128e-24)
(0.98922 -0.0147479 4.13568e-22)
(0.999761 -5.47789e-05 -1.77766e-23)
(1.00797 -0.0170963 1.47993e-22)
(1.16701 -0.118763 5.40598e-21)
(0.980875 -0.0186592 2.85841e-21)
(1.00567 -0.0167953 -6.93712e-23)
(1.00606 -0.00491479 -3.87485e-22)
(0.999489 -0.000108512 8.74949e-23)
(1.01953 -0.0160993 9.06794e-22)
(0.997016 -0.0136943 3.93674e-22)
(1.0701 -0.00740184 -2.57035e-21)
(1.06759 0.0301094 4.76378e-21)
(1.05622 -0.137197 4.7431e-23)
(1.08555 -0.0867988 -1.91286e-21)
(0.988067 -0.00066506 -1.07744e-21)
(1.00366 -0.00274087 5.94586e-22)
(0.960686 -0.0169613 -1.10768e-21)
(0.922288 0.0858688 -5.8611e-20)
(1.07395 -0.0772071 1.75824e-21)
(1.02055 -0.0105017 -3.58754e-21)
(0.898506 0.0623674 -2.92992e-20)
(0.99892 -0.000119974 7.18742e-23)
(0.99877 -0.000700241 -4.58849e-23)
(1.10203 -0.0915143 -2.00099e-21)
(0.999229 -0.00152626 -4.59045e-23)
(1.00532 -0.0316969 1.68319e-22)
(1.00427 -0.00146276 2.107e-22)
(0.997986 -0.000310048 -1.13105e-22)
(0.998517 -0.000268358 -1.78948e-22)
(1.03201 0.0199735 8.75509e-21)
(0.999952 -0.000111535 -3.27033e-25)
(1.00037 -0.000185166 -4.12448e-23)
(1.00006 -1.17421e-05 1.00113e-23)
(0.997538 -0.00050118 6.07822e-22)
(0.995409 -0.00660768 6.86196e-22)
(0.999988 -2.74597e-06 1.65703e-25)
(0.999233 -0.00018556 1.86739e-23)
(0.985015 -0.0118437 8.46454e-22)
(0.945376 0.0177215 1.56013e-20)
(1.00694 -0.0177101 -4.44869e-23)
(0.994763 -0.00860257 1.10711e-21)
(0.959997 0.0670144 6.67595e-21)
(1.00161 0.0381081 2.0983e-20)
(1.05662 -0.0129333 -2.15836e-21)
(1.15427 -0.0849318 1.42897e-21)
(0.962743 -0.00297065 3.6226e-21)
(1.00364 -0.00311567 -2.93013e-22)
(1.01049 0.0418465 -1.17376e-21)
(0.991986 -0.00160254 -1.32717e-21)
(1.05924 0.101786 3.90497e-22)
(1.00171 -0.0364806 2.37624e-23)
(1.00365 -0.0812161 -1.44572e-21)
(1.11475 0.0624613 5.91671e-21)
(1.064 0.108708 -1.33649e-20)
(0.974783 -0.0166609 4.01473e-21)
(1.03761 0.00306302 -4.62161e-21)
(1.16203 0.130107 1.44328e-20)
(1.07758 0.09991 1.89748e-20)
(1.01937 -0.0025493 2.67291e-21)
(0.997846 -0.00107793 1.32831e-22)
(0.996998 -0.00165032 1.16184e-22)
(0.999937 -1.59521e-05 -3.90478e-24)
(1.0105 -0.0224291 1.43101e-22)
(0.991772 -0.0013442 3.12661e-22)
(1.00073 -0.00179602 -8.13983e-23)
(0.999925 -1.78807e-05 -7.29134e-24)
(0.998845 -0.000521155 5.78816e-23)
(0.978904 -0.0500958 -2.65788e-21)
(1.11233 -0.00161476 2.06766e-21)
(0.987654 -0.00419009 -1.721e-21)
(0.999243 -0.00925315 4.19166e-22)
(0.997291 -0.000514426 -3.24497e-22)
(1.03794 -0.0441638 -9.72592e-24)
(0.994922 -0.00110585 -1.05068e-21)
(1.00166 -0.00551641 2.43106e-22)
(1.18012 0.110312 2.44767e-21)
(0.998678 -0.000251324 -4.17193e-22)
(0.999985 -3.31561e-05 -1.3666e-24)
(0.999961 -0.000133643 -8.56384e-25)
(1.00003 -7.86656e-05 9.28446e-24)
(0.984739 -0.0053894 7.88026e-22)
(1.02982 0.0178146 -1.0328e-20)
(0.997121 -0.000394596 1.25783e-23)
(1.01755 -0.00855205 2.32942e-21)
(0.991614 -0.0875097 2.78803e-21)
(0.998766 0.0849192 -6.61828e-22)
(1.00289 -0.00568331 2.09621e-22)
(1.00497 -0.00353396 -9.62497e-23)
(0.996362 -0.00185887 -4.23202e-22)
(0.992555 0.0584104 -3.31266e-20)
(0.999255 -8.52895e-05 5.92962e-23)
(1.06419 0.145213 -7.78382e-21)
(1.00956 0.0164662 -1.18969e-20)
(0.999919 -2.19552e-05 8.54273e-24)
(1.00026 -0.0368297 -1.24431e-21)
(0.997634 -0.000579069 -2.99495e-22)
(0.989029 -0.0417678 4.0234e-21)
(1.00039 -9.47488e-05 4.11211e-23)
(1.05354 -0.00894168 3.06293e-21)
(1.00478 -0.0124226 -8.20518e-24)
(1.00461 -0.00306314 4.80985e-23)
(0.999398 -0.000118387 -1.1722e-22)
(1.07844 0.0258338 4.92239e-21)
(1.05062 0.0295935 1.66145e-21)
(0.998877 -0.0476805 2.00484e-21)
(0.98545 -0.0138588 -1.62835e-22)
(0.998434 -0.00271672 -1.58766e-22)
(0.997656 -0.0290705 -2.27632e-21)
(1.16103 -0.0130488 -2.68522e-21)
(0.870897 0.047665 -2.76119e-20)
(1.04202 -0.0755351 -1.50011e-21)
(1.00369 -0.00596291 -9.91447e-23)
(0.999994 -1.22694e-06 -3.0148e-26)
(0.99052 -0.00347053 -1.37913e-21)
(0.998383 -0.000277526 3.86827e-22)
(1.01866 -0.0155151 1.31614e-21)
(0.989006 -0.0706481 -1.24627e-21)
(1.14229 -0.101862 1.83475e-21)
(0.986527 0.0807321 -4.08959e-20)
(1.05901 0.025232 6.98046e-21)
(1.04714 -0.105145 2.48721e-21)
(1.09881 0.0696607 2.61937e-21)
(0.999194 0.0399803 3.92391e-20)
(1.01563 -0.00242905 1.93778e-21)
(1.00086 -0.0017197 1.85932e-22)
(1.03089 0.05707 6.70774e-21)
(0.999379 -0.00149786 1.02476e-22)
(0.999871 -0.000121249 8.01221e-24)
(0.987114 -0.00142461 4.83253e-22)
(1.00007 -2.55835e-05 2.51072e-24)
(1.04172 -0.117072 1.25067e-21)
(1.00231 -0.0134828 -6.84519e-23)
(0.987854 -0.0237878 2.16738e-21)
(1.00135 -0.00119826 9.2944e-23)
(1.08705 0.060109 1.44333e-20)
(0.998731 -0.000235076 -3.44519e-23)
(0.999983 -2.64795e-05 -1.99462e-25)
(0.998866 -0.0819427 1.58102e-21)
(1.00119 -0.0009892 -5.42464e-23)
(1.08699 -0.0359988 -5.98084e-22)
(0.968902 -0.00958543 7.46494e-22)
(0.956003 -0.0110026 3.6965e-22)
(1.20669 -0.0768927 2.29308e-22)
(1.02435 0.0145918 -3.90205e-21)
(1.01916 0.0037463 2.40399e-21)
(1.0181 0.00362028 -9.59079e-22)
(0.999856 -3.23655e-05 2.88951e-24)
(1.11928 -0.0075625 1.47982e-21)
(1.07228 -0.00434329 2.99082e-21)
(0.999639 -0.000477272 2.69932e-23)
(0.988186 -0.00455991 1.99916e-21)
(1.00045 -0.000151012 -4.57583e-23)
(1.0081 -0.0157556 -9.72083e-22)
(1.00499 -0.0216126 -4.90397e-23)
(1.00333 -0.00106524 2.15007e-24)
(0.999458 -0.00095072 -1.23158e-22)
(1.17303 0.0486337 -9.02102e-21)
(0.999985 -1.6098e-05 -2.54045e-24)
(1.00015 -7.69458e-05 -1.24676e-23)
(1.0015 -0.000769625 -3.73586e-24)
(0.984164 -0.00231107 1.33508e-21)
(1.01432 -0.00956432 1.63296e-21)
(0.987649 -0.0200621 -3.08541e-21)
(0.980628 -0.00351318 -7.72698e-22)
(1.00306 -0.0464092 1.13188e-21)
(0.998321 -0.0964495 -2.98166e-21)
(1.01778 -0.0261014 3.53289e-22)
(1.03621 0.0570431 -3.81669e-20)
(1.16979 -0.104689 -3.7697e-21)
(0.9953 -0.00186154 -5.54825e-23)
(0.901419 0.0911986 4.5507e-20)
(0.980198 -0.0370772 4.48556e-21)
(0.9952 -0.00702932 2.16633e-22)
(0.981089 -0.0029121 1.27796e-21)
(0.997933 -0.0133191 -1.13605e-22)
(0.985131 -0.00171314 2.04176e-21)
(0.992842 -0.0028052 -4.01361e-22)
(1.02081 -0.0124555 -2.47007e-21)
(1.07646 -0.083354 -4.47264e-22)
(0.999982 -3.14449e-05 -2.18857e-25)
(1.01751 -0.0112544 -2.77114e-22)
(0.999931 -2.17047e-05 -4.11867e-24)
(1.01795 0.0971355 7.96837e-21)
(1.18634 0.00864323 4.57936e-21)
(0.996562 -0.00141866 1.32873e-22)
(0.989958 -0.0012496 -1.83245e-21)
(0.999867 -3.9671e-05 -2.12891e-23)
(0.998001 0.0529071 2.45877e-20)
(1.04672 0.109708 1.80426e-20)
(1.11621 -0.0173425 -1.69472e-21)
(1.20884 0.0811172 -6.99722e-21)
(0.979825 -0.039261 -1.91658e-21)
(0.998429 0.0143153 -3.74975e-20)
(0.999955 -9.68308e-05 3.47841e-24)
(1.03431 -0.0278241 2.78021e-21)
(0.986872 -0.00108516 -7.58614e-23)
(1.1166 0.0434276 -2.71215e-21)
(0.930385 0.0625351 -3.54171e-20)
(1.15827 -0.0234449 2.22917e-21)
(1.0514 0.0206794 1.16226e-21)
(0.999756 -0.00918539 -6.57857e-23)
(0.999859 -6.09743e-05 -1.96377e-23)
(1.1968 0.0554369 2.7587e-21)
(1.12592 -0.119031 8.55533e-22)
(0.996473 0.0597054 -7.5888e-22)
(1.08051 -0.0332512 3.64564e-21)
(1.03672 0.0441288 1.11943e-20)
(0.995015 -0.00166506 -1.86977e-22)
(0.994289 0.080442 1.10789e-20)
(1.05114 0.102308 6.26495e-21)
(0.993657 -0.00236543 -1.12566e-21)
(0.994679 -0.0022312 -4.17894e-22)
(1.20003 0.0301573 -3.29404e-24)
(0.954509 -0.0101531 -5.05734e-21)
(0.999939 -0.000113398 -5.53817e-24)
(0.990961 -0.00375727 1.77485e-21)
(0.957616 -0.0143817 3.70944e-21)
(0.985296 -0.0506286 -5.64682e-22)
(1.00714 -0.00208571 -1.6684e-21)
(1.00595 -0.00445388 1.08706e-22)
(0.999912 -0.000140862 -1.08193e-23)
(1.05044 0.116919 -2.71648e-20)
(1.0001 -0.00821712 1.12432e-23)
(0.999927 -4.24095e-05 3.63241e-24)
(1.00888 -0.045181 1.22831e-21)
(0.999646 -0.000312808 2.39839e-23)
(0.999843 -5.64781e-05 1.46198e-24)
(1.00363 -0.00912439 -1.16662e-22)
(1.07343 0.0644303 2.01942e-20)
(0.997537 -0.0731119 2.19438e-21)
(0.94998 0.0628763 2.07588e-20)
(1.00005 -8.50864e-06 -7.07233e-24)
(1.08108 0.0669383 -2.09257e-20)
(1.00569 -0.0381449 9.5781e-22)
(0.999945 -0.000135886 -1.58491e-24)
(1.00002 -4.38101e-06 -2.35313e-24)
(1.00342 0.0107454 -1.96234e-21)
(1.06432 0.0542214 7.59454e-21)
(0.997212 -0.00174432 1.15633e-22)
(1.05513 0.0400902 -9.89964e-21)
(1.00002 -1.39152e-05 1.70094e-24)
(1.05719 0.0459182 -1.36447e-20)
(1.04961 -0.130438 3.32039e-21)
(0.99332 -0.00211301 1.23853e-21)
(0.999142 0.022287 -5.08366e-20)
(0.981544 -0.031335 2.99069e-21)
(1.20907 0.067027 6.30749e-21)
(0.981931 -0.00294756 7.69902e-22)
(1.06301 0.047723 1.78092e-20)
(1.07145 0.0563313 -5.50957e-21)
(0.988721 -0.00563151 2.88079e-21)
(0.985338 -0.00677363 -2.119e-21)
(0.996356 -0.00706824 6.37932e-22)
(0.99802 -0.000522348 -9.79989e-23)
(0.999862 -0.000136388 2.24787e-23)
(0.999982 -0.00779317 -1.98873e-23)
(1.0629 0.093437 -3.17606e-21)
(0.999981 -2.47078e-05 6.81105e-25)
(1.04919 0.0389611 1.30961e-20)
(1.00523 -0.0763692 3.44613e-21)
(1.00901 0.0590237 9.56954e-21)
(1.04771 0.034238 -1.49671e-20)
(0.956081 -0.0134153 -4.59897e-22)
(0.957624 0.0808429 -4.33641e-20)
(0.998895 -0.000826879 8.4033e-24)
(1.01058 -0.0207078 4.12343e-22)
(1.02401 -0.0645528 8.80761e-22)
(0.985761 -0.00160784 -1.21113e-22)
(0.995568 -0.00235434 5.56665e-22)
(1.00371 -0.0386531 -8.53827e-22)
(1.04163 -0.0233376 -2.86376e-22)
(0.909846 0.0562611 5.56312e-20)
(1.00003 -1.41209e-05 7.92499e-24)
(0.9987 -0.000882679 1.11532e-22)
(1.00419 -0.0550426 4.03927e-23)
(1.00001 -3.42633e-06 3.01319e-25)
(1.01936 0.10476 3.92109e-21)
(1.00119 -0.000848755 0)
(1.00001 -4.7528e-06 2.38296e-25)
(1.00013 -6.16337e-05 2.93048e-23)
(1.00029 -7.9407e-05 5.81155e-25)
(0.989507 -0.0137857 2.11146e-21)
(1.01627 -0.014574 -9.4247e-22)
(0.998949 -0.000635362 1.74789e-22)
(0.999943 -1.13902e-05 7.6973e-24)
(0.995273 -0.00220333 3.09154e-22)
(1.00304 -0.00949711 -8.47835e-23)
(0.981883 -0.0720896 -3.3638e-21)
(0.959773 -0.00459094 3.66023e-22)
(1.01384 -0.00848973 2.86975e-21)
(0.999981 -1.98066e-06 2.14995e-24)
(1.023 -0.119677 4.01325e-21)
(0.991138 -0.00260991 -7.11471e-22)
(1.17499 0.0332494 -3.46111e-22)
(1.00048 0.0198419 -6.87207e-21)
(1.00087 -0.00259205 4.34068e-23)
(1.15093 0.0314396 -8.93004e-21)
(1.0001 -6.82449e-05 -3.46013e-26)
(0.991549 -0.00294064 2.05625e-23)
(1.01982 0.000401738 -4.86355e-21)
(0.995578 -0.00267391 -2.28018e-22)
(1.08042 0.0807644 -1.21313e-21)
(0.991438 -0.00459329 -1.33928e-21)
(1.03612 -0.026555 -2.42912e-21)
(1.02079 0.00125913 -5.24305e-21)
(1.06482 0.0256655 -2.91334e-21)
(1.00506 -0.0114816 -4.45774e-22)
(0.9932 -0.00302344 3.33205e-23)
(1.10145 0.0534628 8.5005e-21)
(0.980285 -0.0540552 -3.02141e-21)
(1.00529 0.104114 3.2996e-20)
(0.993969 -0.00341949 -1.30247e-21)
(1.0934 0.113306 -3.10891e-22)
(0.993968 -0.00300305 3.47925e-22)
(0.999216 -0.000372375 -1.13461e-23)
(1.04956 0.0179313 3.29434e-21)
(1.00904 -0.0232216 -7.51401e-23)
(1.03046 -0.000835656 7.17237e-21)
(1.00121 -0.000628237 6.02111e-23)
(1.00001 -3.39438e-06 1.09189e-25)
(0.985287 -0.0828847 1.21804e-21)
(1.17203 0.100753 -1.20321e-20)
(1.00105 -0.0025151 -5.74109e-23)
(1.16283 0.0255137 7.51631e-22)
(0.991902 -0.00429139 -8.75975e-22)
(1.01744 -0.1195 -1.37793e-21)
(1.02942 -0.0378903 -1.54547e-23)
(0.987306 -0.021273 1.73487e-21)
(0.998865 -0.000725132 -7.37411e-23)
(0.994166 -0.000754896 -2.62574e-22)
(0.97844 -0.0459345 -1.86031e-21)
(0.980479 -0.00633096 2.92619e-21)
(0.993604 -0.00279479 9.21103e-22)
(0.9999 -0.000318768 9.4094e-24)
(0.997327 0.111177 -4.10956e-21)
(1.14072 0.0244425 5.31253e-21)
(1.01868 -0.00947716 -8.91191e-22)
(0.999865 -0.000105777 1.48874e-23)
(1.04701 0.0957185 -1.21373e-20)
(1 -1.68909e-05 6.61894e-25)
(0.999875 -9.3739e-05 2.93375e-23)
(1.12989 0.0292176 4.98768e-21)
(1.00657 -0.0189956 2.57537e-22)
(1.17655 0.0760946 9.28489e-21)
(1.01878 -0.00324056 2.01493e-21)
(1.01243 -0.0103797 -1.97485e-22)
(1.05294 -0.0710278 8.60386e-22)
(1.00987 -0.0957226 3.28351e-21)
(1.19741 -0.0799403 1.00017e-21)
(1.00088 -0.00061978 -1.31723e-22)
(0.970023 -0.0104952 -2.93038e-22)
(0.999987 -4.09657e-05 -3.78303e-25)
(1.00347 -0.00841379 8.21933e-23)
(1.08378 0.0744513 7.49747e-21)
(0.989305 -0.00528844 2.0111e-21)
(0.998126 -0.00105095 1.55392e-22)
(1.00758 -0.0311406 -4.90902e-22)
(0.998682 -0.000779605 1.0673e-23)
(0.999731 -0.000782511 3.10144e-23)
(0.90265 0.0129824 9.87563e-21)
(0.993611 -0.00367662 -7.37466e-22)
(0.999645 -0.000525546 -9.38049e-23)
(0.999987 -7.61584e-07 -3.98675e-25)
(1.0157 0.00510748 1.04761e-20)
(0.981474 -0.0174738 -4.43075e-22)
(0.999779 -0.000398209 2.71965e-23)
(0.998135 -0.000605425 1.99955e-22)
(1.02281 0.0171273 4.28948e-21)
(1.06096 -0.0035983 7.27483e-22)
(0.974748 -0.0152058 -2.49232e-21)
(1 -1.04566e-05 4.79507e-25)
(1.00191 0.0143568 2.84085e-20)
(0.990531 -0.0120754 -1.44643e-21)
(1.08413 0.0525749 -1.44782e-20)
(1.00942 -0.00113412 -2.53579e-21)
(1.01092 -0.00101144 5.7952e-21)
(0.979356 -0.00783462 3.98341e-21)
(0.999935 -4.62028e-05 -2.35841e-24)
(1.01989 -0.000169178 -9.60628e-22)
(1.06387 -0.00782516 -9.45423e-22)
(1.18782 -0.0498293 -7.81112e-24)
(1.00999 -0.0751274 7.41182e-22)
(1.0575 0.0874129 9.40273e-21)
(1.00425 -0.0012231 -4.04028e-23)
(1.11117 0.0543697 -1.1654e-20)
(0.999789 -0.0106813 -1.18361e-22)
(1.00677 -0.0428506 -2.2829e-21)
(0.999739 -0.000118231 -3.01305e-23)
(1.00174 -0.014231 1.30841e-22)
(0.999929 -0.000308639 2.90179e-24)
(1.04779 0.0243747 -9.86938e-21)
(1.12385 0.11869 -2.5591e-20)
(0.999 -0.000857389 5.88174e-23)
(1.01328 -0.0105797 4.83571e-23)
(0.98841 -0.00318175 6.90318e-22)
(1.01558 -0.068775 3.09072e-22)
(1.01102 -0.0704625 -1.73385e-21)
(0.998755 -0.000615485 1.17054e-22)
(1.03136 -0.0272382 -9.55139e-22)
(0.911644 0.00364713 -1.66992e-20)
(1.16626 -0.0580148 -1.98003e-22)
(0.999963 -0.000117313 7.12633e-24)
(1.05579 -0.00449686 -2.60126e-21)
(0.997941 -0.00650533 -3.07326e-22)
(0.992318 0.00332326 3.55797e-20)
(0.991915 -0.00375772 1.21931e-21)
(0.996295 -0.0190758 -3.72049e-22)
(1.00996 -0.0282329 -4.53317e-23)
(0.995215 -0.0196143 -5.50957e-23)
(0.998395 -0.015504 -8.22178e-22)
(0.994964 -0.00239241 2.12801e-22)
(0.999208 -0.0105302 4.47533e-22)
(1.00133 -0.00466985 -6.50417e-23)
(1.04164 -0.0267218 6.59673e-22)
(1.00007 -2.12672e-05 -1.9232e-23)
(1.08266 -0.138152 -1.69786e-21)
(1.12196 -0.071275 -3.94683e-22)
(1.03443 0.115412 2.25009e-20)
(0.975963 -0.0144576 3.79338e-21)
(1.16034 0.0764328 -4.8404e-21)
(1.00135 -0.000501662 2.11636e-22)
(1.03404 -0.0686871 -3.07339e-23)
(1.00091 -0.0281817 -8.52055e-22)
(1.022 0.0325835 1.24971e-20)
(0.995301 -0.00288826 5.2822e-22)
(1.00008 -0.000130978 1.2841e-23)
(0.990943 -0.0125851 1.89023e-21)
(0.996963 -0.00689634 -2.41829e-22)
(1.02982 -0.0248489 2.08271e-21)
(0.981494 -0.00486007 -2.47351e-21)
(0.984616 -0.00629945 6.98737e-22)
(1.08566 -0.068202 -9.34637e-24)
(0.9902 -0.00207163 -1.19631e-21)
(1.00798 -0.0290341 2.97841e-22)
(0.985626 -0.0535592 2.17759e-21)
(1.00001 -5.45922e-06 2.04427e-25)
(1.04489 -0.021207 3.73351e-21)
(0.987812 -0.0488076 -5.90946e-21)
(1.15776 0.0527764 4.2323e-21)
(1.05009 -0.0754766 -1.68804e-21)
(1.02909 -0.000966169 5.99512e-22)
(1.00209 -0.0726667 -4.4988e-21)
(1.0644 0.12517 5.83276e-21)
(1.02218 -0.0313533 6.68237e-22)
(0.978512 -0.00721523 -2.3571e-21)
(1.00637 -0.0357624 -1.0846e-21)
(0.9567 0.00539917 1.58842e-20)
(1.06579 -0.119749 8.3631e-22)
(0.991477 -0.00348324 -3.70466e-22)
(0.996925 -0.0868588 -3.3869e-22)
(1.01022 -0.0511149 1.52498e-21)
(1.00724 -0.0853756 -5.74457e-22)
(1.01605 -0.0641946 -1.76565e-21)
(1.09731 0.0460803 1.09458e-20)
(0.998141 -0.00120329 1.03343e-23)
(1.00916 0.040321 4.70276e-21)
(1.00558 -0.00115028 2.99003e-22)
(0.999735 -0.000401377 -3.91991e-23)
(0.999173 -0.0017194 2.82225e-22)
(1.04938 -0.00856688 -9.12008e-22)
(0.862956 0.00452772 4.80521e-22)
(1.00107 -0.00495987 3.59067e-23)
(1.00763 -0.040198 3.29989e-22)
(1.02334 0.0195848 -7.12913e-21)
(1.00002 -5.47343e-06 -4.02322e-25)
(0.986063 -0.00639121 1.69143e-21)
(1.01657 -0.00850271 2.06428e-21)
(1.04866 -0.0473233 6.70698e-22)
(1.00563 -0.00070675 1.67545e-21)
(0.998922 -0.00148377 5.24143e-23)
(0.987391 -0.026972 5.35686e-23)
(0.998413 -0.00629078 -8.5796e-23)
(1.00002 -3.81082e-06 4.39547e-24)
(0.982985 -0.0309316 -5.03998e-21)
(1.06704 0.0769274 -3.2737e-21)
(1.01201 -0.0253888 1.72752e-22)
(0.988907 -0.00360538 -1.29675e-21)
(1.00124 -0.00028346 -7.62977e-23)
(1.02642 0.0213794 9.38881e-21)
(0.99974 -0.000471105 -1.81668e-23)
(0.99916 -0.000486515 -5.79561e-24)
(0.999761 -0.000129816 -2.74785e-23)
(0.999489 -0.00160359 -7.02035e-23)
(1.17952 -0.0347734 1.24677e-21)
(1.01756 -0.0302796 7.4377e-22)
(1.0051 -0.0143509 1.45175e-22)
(0.988126 -0.00527795 -5.92079e-22)
(1.00003 -3.82958e-05 4.28558e-24)
(1.02103 -0.0983255 4.39615e-21)
(1.14014 -0.11454 7.88938e-23)
(1.0204 -0.104957 -2.09026e-21)
(0.996313 -0.0242007 -6.96215e-22)
(1.00978 -0.00744316 1.9035e-21)
(0.999859 -7.3896e-05 1.24023e-23)
(0.992205 -0.00829964 -7.51483e-22)
(0.971455 -0.0300166 -2.96175e-21)
(1.16082 -0.0458355 5.66569e-22)
(1.00683 0.0576824 -3.34986e-22)
(0.99921 -0.00241641 5.73609e-23)
(0.964065 -0.0206227 1.68566e-21)
(0.996821 -0.00206599 -5.03981e-22)
(1.02136 -0.0289596 -9.47568e-23)
(1.10999 0.0358717 9.72245e-22)
(1.00031 -0.000102264 -6.42925e-23)
(0.999897 -0.000157848 -4.33371e-24)
(1.20429 0.0401666 6.10165e-22)
(1.14093 -0.0556845 2.8114e-22)
(1.01305 -0.0128529 6.91716e-22)
(0.998016 -0.00131431 2.65151e-22)
(0.998597 -0.000339174 -2.6211e-23)
(0.975567 -0.0310268 7.23516e-22)
(0.999884 -0.000266792 -1.47089e-23)
(1.01017 -0.0262556 1.85248e-22)
(0.991085 -0.00103805 2.49064e-21)
(1.00082 0.0217261 -5.72716e-21)
(1.07396 0.082448 -1.70973e-21)
(1.03286 -0.0635013 6.57188e-22)
(0.990149 -0.0496955 2.18975e-21)
(1.00447 -0.0012105 8.38717e-22)
(1.00907 -0.0196226 -5.98771e-22)
(1.12195 -0.0596325 2.19493e-22)
(0.988606 -0.0545961 -1.34115e-21)
(1.00868 -0.0350962 6.07736e-22)
(0.999999 -4.77788e-06 -7.10616e-27)
(1.10267 -0.0607612 -3.13632e-22)
(0.982928 -0.00199932 2.31245e-22)
(0.986556 -0.0598246 2.67246e-21)
(1.01205 -0.0234825 -8.7828e-22)
(0.971357 -0.00999546 -5.26469e-22)
(0.999732 -0.000231974 -1.34032e-23)
(0.997981 -0.000986264 -1.18114e-22)
(1.0429 0.0331736 1.15624e-20)
(0.980374 -0.00737579 -8.97193e-22)
(0.999989 -1.42214e-06 4.59787e-25)
(0.998074 -0.000399578 -2.76088e-22)