/*--------------------------------*- C++ -*----------------------------------*\
  =========                 |
  \\      /  F ield         | OpenFOAM: The Open Source CFD Toolbox
   \\    /   O peration     | Website:  https://openfoam.org
    \\  /    A nd           | Version:  7
     \\/     M anipulation  |
\*---------------------------------------------------------------------------*/
FoamFile
{
    version     2.0;
    format      ascii;
    class       surfaceScalarField;
    location    "38";
    object      phi;
}
// * * * * * * * * * * * * * * * * * * * * * * * * * * * * * * * * * * * * * //

dimensions      [0 3 -1 0 0 0 0];

internalField   nonuniform List<scalar> 
11265
(
134.995
-529.982
394.987
-769.611
11.3015
758.31
433.436
-370.783
-62.6528
673.603
251.005
-924.607
1510.6
-1069.42
-441.181
1216.27
-1527.11
310.842
-18.0275
464.876
-446.849
168.994
-841.48
672.485
962.013
-1610.77
648.754
-1770.95
1677.9
93.0493
-542.947
1759.22
-1141.49
1935.25
-793.765
606.701
181.284
-787.985
-26.0136
-1319.2
1345.22
222.6
-1993.55
1022.64
-383.895
-638.746
-217.156
352.151
484.133
190.614
-674.747
1154.67
-1314.38
159.709
-311.842
374.086
-62.2437
1005.72
-1324.15
318.437
1221.63
799.759
-2021.39
75.0512
-1646.59
1571.54
-503.913
-1153.39
1657.31
474.744
181.965
-656.708
-180.188
-349.794
497.796
1012.8
1654.22
-1814.09
159.871
-99.3162
-1687.96
1787.27
-1559.61
654.623
904.983
-309.255
652.847
-343.592
-189.887
-116.794
306.681
1289.85
-1214.8
355.287
-1407.31
1052.02
-1754.27
1754.27
101.539
1539.66
-1641.2
-1081.83
-477.78
656.851
-674.879
-386.264
941.788
-555.524
1331.81
-1317.21
-14.6015
-1100.27
714.009
624.569
398.071
-390.415
-31.0827
421.498
-485.915
780.562
-294.647
-1618.4
1618.4
1253.55
-1437.86
184.308
-488.959
1710.59
1254.09
-312.299
1660.72
-1161.22
-499.501
72.1634
-384.005
2066.61
-1136.08
-930.532
1821.33
-167.11
453.329
156.08
-609.409
-465.67
973.683
-508.013
-1176.71
1278.25
-567.353
970.096
-402.742
398.728
755.942
660.869
-491.875
-437.677
592.246
-154.57
1190.61
-835.32
2308.22
-1080.69
-1227.53
1164.26
-2010.39
846.134
-1609.18
1583.17
440.582
-1582.07
-758.888
1250.47
-491.586
-671.569
362.315
1661.44
-699.425
-1106.93
-870.899
1977.83
735.332
-379.495
-355.837
690.208
563.879
-258.214
1511.77
108.811
-314.856
206.045
-284.736
759.48
-333.883
562.725
-228.842
-324.428
808.56
-318.583
-145.357
463.94
314.38
119.055
1468
-462.288
-999.795
480.403
519.392
273.066
92.6032
-365.669
948.092
-341.392
-1707.24
619.498
1087.74
14.688
-864.043
849.355
-278.474
592.842
-314.368
157.908
-1093.89
935.986
1051.01
-1066.62
15.604
373.081
517.732
-890.814
-245.3
698.629
-1103.26
-482.451
1585.71
-677.385
950.154
-272.769
1351.91
-1451.23
-635.933
237.48
398.453
-470.203
-1011.51
1481.71
-537.359
-795.498
1332.86
575.624
-995.647
420.023
-263.795
-315.61
579.406
403.694
-294.883
-1040.36
574.691
955.516
-797.608
-110.376
943.786
-833.409
-206.769
414.741
-207.972
-651.924
-347.871
-386.731
962.356
1856.36
-1856.36
-514.141
-121.792
-950.136
1578.18
-628.044
451.178
-885.702
434.524
-922.835
355.482
-941.905
-1058.08
-1493.86
340.297
1153.56
-266.978
940.581
-319.689
613.804
-294.114
-1941.9
999.994
-1146.93
-346.931
571.683
-1521.82
1728.52
-1725.85
-2.67141
186.231
-587.211
400.98
-1475.66
980.835
494.823
282.647
216.627
-499.274
307.803
-641.686
238.804
-413.908
175.104
2019.22
-869.241
-1149.98
-538.323
147.908
615.09
838.51
-1453.6
-183.505
422.309
431.556
876.337
-1307.89
-905.463
390.82
514.643
-1048.87
1447.59
-1068.47
309.585
749.234
-96.3874
547.873
-340.259
-207.614
1023.1
-542.693
593.41
-1403.74
810.329
-1342.17
238.905
-543.966
265.492
-1205.63
938.647
1943.59
-990.177
-953.41
276.799
1579.56
-2097.46
897.1
1200.36
360.854
-32.0264
-328.828
-223.343
480.385
-257.041
-104.474
-381.657
486.131
-463.492
144.909
339.382
-132.751
583.928
421.421
377.607
-799.027
-2045.3
1129.55
915.753
461.099
-528.993
67.8945
219.943
-361.02
141.076
996.075
1023.15
1793.57
-253.913
722.972
-485.493
796.02
-1389.29
593.266
350.651
384.68
1062.42
-1047.73
-479.474
-275.993
755.466
473.846
-133.078
-340.768
796.212
-614.928
532.872
-734.854
201.982
503.332
1157.39
-1240.05
702.695
1030.52
-1534.44
-3.12196
-1439.43
1442.55
326.651
823.468
-1150.12
622.488
269.928
-892.415
-2271.38
1158.61
1112.77
-1101.7
-1169.69
160.628
372.245
958.889
-632.238
878.515
-898.288
19.7729
-2099.39
992.458
-222.407
-188.167
410.574
-41.9287
1770.45
-830.583
60.9716
-1030.28
-1067.18
-228.664
448.607
-674.939
160.799
-287.636
-455.064
742.7
1103.98
-1574.18
782.735
-1374.31
591.574
709.007
-458.003
1947.84
-1444.51
-378.283
-1375.99
50.3452
414.531
-524.943
536.245
20.036
-572.473
552.437
568.102
-285.455
-601.929
277.593
324.336
780.377
-358.956
34.2021
326.652
1188.47
-1191.59
172.501
231.193
428.264
-715.901
618.908
-1005.64
-2026.75
2026.75
-281.77
-462.317
744.087
698.95
405.854
-1104.8
579.525
169.709
407.105
373.272
-2199.76
1328.86
-926.11
-679.796
1605.91
-475.99
-729.635
-268.933
588.752
-319.819
847.78
-237.597
-610.183
-449.572
635.803
359.464
-679.154
-367.609
-106.575
474.184
-1337.43
-476.654
663.169
-1139.16
-374.141
-1244.26
844.347
1463.87
306.015
-908.026
602.011
966.117
-341.548
1391.28
-797.873
441.936
-269.435
-325.938
-891.249
601.364
289.885
-368.306
-522.942
309.739
-414.212
-175.4
-161.231
336.63
-392.795
1091.74
434.307
-243.693
-390.274
1360.03
-167.744
-1192.28
-460.162
276.56
183.602
230.27
298.499
-528.769
-16.983
-717.871
592.155
-1729.06
1136.9
1484.1
-869.006
-1052.43
-423.233
-1056.4
574.012
482.391
1396.14
-415.306
928.844
-1411.29
-180.436
-169.866
350.303
-468.398
579.228
-1628.09
427.893
903.915
304.208
339.737
-643.945
568.046
1186.23
1103.09
-712.094
-390.991
401.067
-214.072
-186.996
-1419.44
446.119
737.318
-1183.44
1473.28
-544.436
-503.37
963.411
-460.041
426.157
1186.15
-1612.3
47.3991
-724.784
-147.385
420.451
186.104
-375.991
552.828
470.267
-577.23
28.6545
548.575
1024.52
-1307.65
283.131
664.658
-257.553
468.352
-1447.22
978.87
380.859
1687.89
-523.629
885.937
1057.65
-659.757
-1684.74
758.633
558.286
406.627
-964.913
456.137
78.9377
1750.1
-1829.03
1443.66
-379.49
-1064.17
1699.19
-1741.12
-366.195
-524.441
716.757
-192.317
-502.591
180.18
293.666
-373.16
-1225.95
214.442
-764.68
-639.058
-613.014
992.994
-379.98
-652.095
641.993
10.1013
654.883
-923.501
268.618
-690.976
340.102
350.874
-647.776
-726.374
352.445
373.929
-932.195
1400.55
-420.448
888.411
-467.963
-2205.31
5.55688
176.077
-533.223
357.146
140.297
1219.73
-64.0568
-610.883
156.698
-594.374
1487.06
-704.321
377.594
-461.186
83.5922
-563.083
563.083
1222.99
395.41
1778.13
-1228.28
589.702
638.578
848.06
-51.8488
1292.15
774.462
-540.652
1336.67
294.126
298.716
267.775
-792.216
208.232
-694.147
228.782
-441.366
212.584
-272.96
602.714
-329.754
102.662
-375.622
-591.494
-564.652
1156.15
-419.007
543.379
-124.373
-1192.15
2032.04
-839.885
1288.88
-329.993
-399.51
135.714
-1983.62
830.229
1551.59
-858.372
-693.221
1987.01
-877.464
-1109.54
714.046
574.836
-240.214
468.996
-686.102
1173.32
-487.214
-769.571
1201.13
551.809
924.586
-1725.51
800.921
-593.12
-49.8103
642.93
271.298
276.575
415.426
-76.0799
-339.346
896.512
-83.5298
-812.982
921.72
-578.129
-343.591
1576.17
-472.19
892.185
-1628.33
736.148
1068.46
879.383
747.722
-439.987
-307.735
-1058.91
-258.301
567.045
574.877
-1141.92
-526.054
505.592
20.4617
575.021
-341.291
-233.731
-985.208
564.76
594.465
889.631
-441.79
1096.67
1419.11
-786.258
-632.848
392.716
-923.276
530.56
-1044.84
392.913
574.371
-1077.74
417.053
-512.324
95.2706
450.405
330.158
-514.337
-48.7463
-793.98
-880.186
1674.17
190.294
210.773
-245.395
406.022
7.22924
-579.565
572.336
501.145
867.058
-1368.2
-487.305
311.905
985.402
-88.89
835.772
-1064.52
228.747
428.325
845.552
-1386.2
-453.206
830.813
1980.29
-1286.43
-693.867
269.73
608.785
255.652
795.359
96.0988
-986.153
890.054
1673.72
-1088.98
-584.747
-137.954
1888.05
-1866.1
-160.65
482.865
-621.027
138.162
-1012.72
527.329
485.387
-1730.47
538.317
-955.607
845.231
392.26
199.987
572.845
-266.831
-418.163
709.081
257.036
32.448
726.481
-758.929
-1130.76
-898.303
2029.06
-559.094
1122.58
-563.49
-483.063
-329.699
107.292
-1656.37
862.387
-837.919
-629.645
1467.56
-330.278
-294.746
625.024
350.555
-677.574
327.02
246.776
-605.732
315.607
195.605
-511.212
376.641
-645.573
649.601
-299.047
314.76
-460.117
687.549
450.799
-220.529
-431.756
-294.619
1225.74
-0.487493
-1225.25
1039.11
-420.203
559.291
410.805
-1782.33
869.814
912.514
487.524
555.002
-1042.53
-533.587
203.31
-263.865
1181.54
-917.675
-1590.84
1212.56
504.632
-1096.13
384.14
-6.54678
466.431
302.42
-768.851
370.301
-615.601
-35.1232
757.795
-722.672
-525.317
795.245
396.777
321.5
526.561
652.096
114.958
-458.684
343.726
1058.41
-644.815
-413.594
494.037
-1664.27
1170.23
-1140.34
1753.23
-612.887
1715.86
-1123.71
-334.262
611.855
-1189
1285.1
424.837
-797.101
1609.71
-812.609
-254.546
-205.616
-912.476
1471.41
1814.66
-610.806
-1203.85
-405.103
693.833
-1306.85
-124.687
-78.912
494.338
-693.387
-354.18
-1236.66
-217.082
463.858
902.888
-557.263
175.606
-1674.76
-71.2677
1746.03
-1084.3
525.202
566.305
-1183.82
617.515
900.95
913.707
630.568
619.905
711.365
252.046
-1164.71
478.604
-394.989
415.025
617.796
-514.234
240.626
-729.488
488.862
740.456
-389.804
-298.216
181.422
-596.577
254.779
341.798
-886.573
-741.76
1087.67
-2145.75
397.442
-682.178
-342.842
-723.773
833.497
585.609
-338.732
307.649
421.587
260.462
618.553
-879.015
539.84
633.476
-516.149
148.539
372.363
-654.133
-1046.59
-850.02
1896.61
-1803.76
157.17
1106.84
-1370.71
1180.9
-710.881
-470.023
-504.17
1349.72
-1495.47
627.911
867.561
-285.505
-209.747
495.252
1428.42
558.584
341.925
-448.5
-481.275
-570.743
1052.02
-420.722
596.798
1582.9
-1130.33
-452.568
-817.674
355.357
654.631
403.778
-1623.42
416.179
1207.24
-185.048
500.655
797.661
785.235
177.073
-693.814
516.74
203.903
210.838
-286.67
-109.545
396.214
490.44
50.0814
-540.522
-1652.98
600.556
-1613.48
1682.86
-69.3784
13.4305
-1626.91
1069.52
800.45
-334.019
-835.652
-209.185
-1134.57
-239.74
-312.041
682.342
-1812.72
-634.447
1209.32
216.866
756.817
-1331.67
-678.721
-465.829
669.613
-365.406
-1013.27
1350.79
-1932.95
582.165
646.915
1288.34
483.024
-2.63978
716.174
710.661
-1426.84
-637.022
332.729
304.293
437.785
-100.349
-337.437
144.285
293.094
152.605
-445.699
-592.714
1151
451.268
-650.426
-460.67
-401.872
862.541
-321.224
140.788
-455.635
160.752
-303.138
-709.578
544.453
-106.667
-574.13
966.846
575.591
-268.515
-307.076
454.139
-778.567
-645.781
457.634
-1129.39
-845.115
1185.41
-569.77
440.382
315.085
-495.336
115.842
1027.97
-314.942
590.961
-276.019
-509.04
1578.56
-711.163
276.395
363.103
-639.499
207.33
543.554
-30.6187
-512.935
-257.319
-198.316
1009.82
1108.87
564.85
-883.823
942.486
-58.663
-453.582
168.077
-779.398
324.335
-594.213
372.552
367.904
847.56
-1263.52
415.964
776.462
-811.585
-948.881
-550.389
1499.27
-180.055
519.792
-543.314
203.056
1313.33
786.439
-609.366
1344.13
-680.959
487.423
-652.013
-401.179
-422.067
-378.556
800.624
501.414
-842.806
-496.561
85.1993
411.362
-318.696
572.461
727.447
-330.005
-239.815
-175.027
414.842
-487.167
138.129
349.038
1460.39
82.3198
-1542.71
-753.961
1348.43
-1144.77
-465.997
566.088
-202.985
1151.9
-375.443
1083.45
492.715
693.322
-425.547
-884.877
-522.429
-1328.37
-22.9374
985.169
-962.232
610.356
360.619
-970.974
-329.121
-209.202
-685.423
405.534
1621.22
-207.318
374.625
341.413
-716.039
-1839.77
-2106.69
1519.15
587.548
-2037.37
349.409
391.107
544.167
-935.274
-460.421
1019.71
-421.064
-679.823
1100.89
-2030.55
1391.21
639.337
606.535
-1027.6
13.4937
403.56
386.493
193.554
248.382
363.499
997.641
904.786
678.214
-323.753
-354.461
-291.516
619.43
-327.914
571.484
531.601
564.839
514.692
-1079.53
-796.127
-699.345
751.532
400.373
-409.984
737.003
-1193.39
1609.57
444.201
-1124.02
-333.6
529.205
-1388.67
904.806
483.867
-720.506
-349.359
-767.194
323.614
443.58
447.234
717.824
-1165.06
1072.86
-585.34
-413.95
653.724
-239.774
252.367
323.224
-467.035
-432.249
899.283
-231.107
576.915
-961.841
384.926
-458.65
600.598
-1681.28
423.897
670.514
-1094.41
515.604
98.1996
113.411
-2212.8
562.643
-122.262
1444.58
1777.09
-217.549
-1559.55
-438.502
1789.29
-1987.15
1194.54
792.607
400.116
347.606
-44.0602
877.558
-1283.01
718.355
-868.907
-822.026
799.088
300.925
61.4841
-362.409
225.806
180.06
-405.867
1558.86
-842.687
-1530.93
-325.432
470.43
-215.49
-254.941
393.153
366.327
259.476
410.137
-10.323
1002.69
-992.362
419.332
292.125
-711.457
-734.131
1817.38
-1083.25
-342.79
735.943
-1225.63
-415.563
-914.57
482.321
615.032
-817.201
202.169
760.129
-378.787
-381.342
-441.339
-442.484
452.262
1114.21
1239.22
-672.918
799.884
-345.745
402.757
341.33
-243.639
-217.547
-243.973
624.832
408.137
-846.488
438.352
257.423
358.279
-615.702
-421.328
829.464
754.266
-1147.06
905.986
-58.4262
-485.359
275.849
786.571
-96.2932
1384.63
1890.51
-60.541
337.101
-342.93
457.888
-1087.36
1077.04
678.808
376.458
383.671
78.3185
392.112
253.317
504.993
-373.334
-263.689
-562.458
-89.636
-359.591
363.82
-4.22931
-257.748
-286.217
1010.88
-1540.7
529.813
-170.558
-200.224
-422.503
714.628
-1642.22
1590.98
-963.068
297.787
-698.966
584.326
1224.41
-1808.74
607.43
983.549
320.197
-1122.33
704.162
-313.628
-330.317
1385.61
-1450.6
833.551
617.045
441.817
-623.691
181.875
-368.836
464.293
-95.4571
414.898
75.542
1724.35
456.077
-252.175
557.651
-1704.79
1147.14
-96.6563
407.714
343.087
335.127
-448.664
-615.025
1063.69
411.372
-864.578
-640.623
902.565
570.715
-469.26
-221.716
-437.292
-409.197
-307.491
-827.077
1821.1
-1821.1
-101.2
-1600.72
1701.92
294.599
280.422
-917.026
-555.509
1472.54
-408.203
973.042
-613.047
-1039.93
713.269
390.422
-1103.69
473.968
-159.208
573.07
1220.34
-1793.41
-1039.82
2114.14
-1074.32
-376.797
-294.772
-502.886
858.243
-1756.91
1605
151.91
1756.91
-1610.92
-145.986
-243.193
521.742
-278.549
-537.301
1620.75
1574.07
-1989.63
1106.18
-343.43
-236.787
580.217
224.636
-558.236
-732.144
322.161
1342.67
637.627
583.572
480.812
-1064.38
271.093
422.229
875.301
500.11
-1375.41
537.05
-1018.33
1574.95
-564.066
-784.92
-373.254
-161.008
534.262
-490.203
1208.03
-739.935
331.456
367.173
369.77
239.92
-609.69
594.406
831.737
-602.99
253.834
688.652
-469.26
-379.746
-210.814
590.56
1168.48
-693.875
608.194
467.478
-1075.67
-1287.9
1287.9
-384.657
761.115
-279.877
-479.972
759.848
495.34
439.609
-934.949
392.407
-672.284
607.338
-869.074
261.736
-367.492
-491.435
1075.01
-660.154
-712.112
1372.27
-367.698
944.613
-1552.75
675.282
-15.4253
-368.584
384.009
-561.392
722.191
290.901
311.813
167.203
306.764
-573.556
259.929
1870.13
-1966.42
248
-697.572
453.994
-821.022
367.027
-906.012
1434.29
-528.273
-430.094
-484.475
600.815
1124.17
-1724.99
-714.41
337.613
-462.378
1033.86
-794.489
1048.32
-376.194
-625.778
-521.118
729.35
538.85
-356.885
906.712
-305.841
-181.326
1599.03
-1816.58
-336.296
-625.544
-337.649
475.778
283.192
-648.598
-154.76
1072.4
-796.553
200.084
-328.66
-267.041
595.701
386.158
-881.5
495.342
-483.407
-457.614
-908.026
-367.081
553.148
-186.067
-439.594
-432.751
-333.908
-177.304
-396.156
636.075
-465.598
806.927
-1072.21
623.544
-1406.18
568.257
-28.5288
-1838.29
1866.82
570.029
-450.218
1235.36
-710.162
283.912
-283.912
672.703
-444.946
1040.55
-1653.6
-1158.74
-947.958
290.335
329.095
894.708
715.002
-514.13
-286.846
800.976
1660.07
-1688.6
-433.771
342.419
225.683
1134.86
-526.663
-943.338
1550.49
-607.149
442.356
-248.803
374.816
424.046
-798.862
538.679
466.064
-1004.74
-331.519
662.976
-38.0309
1908.16
1612.23
992.576
-1696.9
726.766
-1176.83
450.061
-492.494
1367.79
837.014
-1341.18
-598.827
255.397
803.357
-396.73
548.809
-1190.3
641.492
-635.794
-1215.53
-695.682
1911.21
-177.135
532.826
-355.691
-121.727
304.271
-481.406
331.681
366.33
-698.011
-1487.87
756.102
731.765
884.016
-1434.41
823.406
-432.586
213.802
-361.187
-627.948
248.203
-678.037
-710.636
697.851
506.944
-1204.8
388.822
-204.567
-184.256
554.945
-957.688
-578.755
-451.504
775.839
-831.328
-1155.82
-1437.95
499.702
938.253
23.2309
-668.69
319.308
349.382
-1320.4
1046.95
273.449
-615.858
-456.349
-665.672
921.324
398.934
-198.276
-200.658
508.331
980.52
-1488.85
978.287
-561.148
165.978
395.171
-442.385
667.996
-419.995
-503.599
165.95
234.205
-1520.63
525.23
547.634
-778.746
217.353
147.531
-453.372
361.561
-819.175
1954.16
-1195.39
-758.775
457.449
-688.986
231.536
322.364
326.71
114.532
-441.242
-576.462
191.522
264.556
-691.779
1374.25
-682.475
424.086
487.767
-1208.27
263.994
1866.77
-1013.59
-853.183
784.422
-514.23
147.149
1402.33
-975.139
-427.195
325.689
-770.635
-616.557
1725.43
608.681
630.541
319.465
-18.5403
254.046
-1138.38
1725.72
-587.342
-1763.54
820.201
1767.03
-1696.13
-70.8983
-656.396
261.407
609.869
-723.256
202.138
1402.63
-565.616
383.064
447.749
-1858.69
1420.18
533.444
-466.219
-67.2255
193.645
-527.553
-329.059
-154.004
-350.823
693.91
-626.28
253.026
616.693
547.058
-1163.75
1113.55
-1947.58
834.032
137.273
336.911
-1699.76
1661.73
306.057
-731.604
-167.022
380.824
760.503
678.175
-1438.68
1084.64
-1085.13
521.836
-1107.18
-628.015
250.573
377.442
524.824
-270.045
-626.096
-1027.5
284.825
-717.576
-912.322
163.99
161.092
227.731
396.722
281.763
-678.485
-635.01
-834.209
-978.507
485.505
-1061.97
-291.453
475.056
532.127
653.285
-278.243
-121.267
-442.695
762.891
257.568
-1201.15
566.136
1312.1
-551.596
436.537
-1015.29
-384.91
114.061
419.383
1023.23
551.715
-1721.62
1620.42
1647.02
-590.686
-1056.33
1905.27
-1894.28
-10.9956
242.076
-585.006
-347.975
548.059
-775.159
-323.287
-333.108
1020.92
705.271
-1517.81
812.541
303.18
-26.1856
1625.21
-1106.92
413.046
-1266.7
481.778
-61.2012
1521.59
1197.19
-470.421
-487.262
-73.8862
-236.698
736.053
-1951.58
-708.792
353.4
-530.512
177.112
190.839
-505.781
1139.93
671.592
-1811.53
-601.509
135.29
941.803
-1497.31
-210.523
678.817
-468.294
873.594
1126.41
-742.281
1350.96
655.261
-549.366
-105.896
-341.939
1175.49
1050.71
-1979.91
929.2
-1174.88
540.431
1488.75
-586.182
-398.007
-118.142
-1243.65
570.737
1167.96
-80.2177
946.178
775.818
-1722
-203.863
578.685
-1541.73
963.047
487.014
916.511
-1403.53
625.542
583.783
396.029
-1106.62
590.144
1109.5
1215.47
-452.212
-763.259
-1186.2
-1754.94
-4.92003
-1716.7
-174.81
-448.882
1609.68
-632.144
-977.539
-490.836
1121.4
-1319.95
634.481
685.465
-1363.6
1445.92
-1332.57
590.288
1520.49
-404.74
-556.551
158.544
-1496.7
217.846
176.383
214.146
441.115
459.928
401.836
-861.764
506.406
-938.891
900.384
-1444.82
-703.973
212.017
491.956
-1046.54
453.827
-480.226
863.29
694.62
24.5495
-510.392
154.701
-886.567
-1318.75
-713.726
347.925
365.801
400.648
-722.17
321.522
-476.543
-189.371
-708.917
723.11
1539.92
-593.738
821.634
737.227
1344.69
-844.582
-971.073
-570.659
-795.418
428.39
367.028
-1036.06
-640.608
302.069
338.54
-1433.69
-296.779
-789.261
396.488
392.772
-650.088
421.892
228.196
-673.89
253.894
412.811
486.473
389.884
439.581
478.003
384.538
595.918
-969.078
688.828
462.172
452.685
356.237
-808.922
1630.74
-1079.85
-550.891
-504.735
-290.447
-1029.96
452.922
347.702
409.721
593.366
-1003.09
-1382.92
750.777
-530.019
1147.53
347.395
-54.3004
412.387
-864.355
451.969
-1900.02
299.296
440.283
-725.052
284.769
-188.315
402.424
-214.11
-660.294
303.84
356.453
-672.401
317.939
370.85
390.264
612.224
-1020.43
752.358
663.446
-1415.8
438.837
624.852
338.559
392.388
-730.946
407.717
328.227
613.673
696.124
418.088
611.252
-1032.32
421.063
-1679.46
1175.59
503.87
1696.57
-539.18
619.614
-1147.08
527.469
-641.266
346.52
437.525
-934.285
496.759
785.728
-483.308
350.919
342.991
588.367
-924.664
652.623
-1252.77
600.152
401.9
734.264
-1224.47
769.055
509.819
-1278.87
495.22
397.825
-893.045
-501.743
-936.212
-297.686
629.367
352.551
541.158
-893.708
331.259
331.717
-502.188
1944.74
436.352
-846.304
409.952
-917.688
-807.819
-747.121
365.779
-1226.53
432.037
-1740.34
1610.92
129.415
1749.8
-1605
-144.801
-783.036
-590.647
263.585
327.062
-1767.03
1989.63
538.838
791.041
-1329.88
440.145
716
689.994
385.625
-1075.62
-40.7134
1617.14
-593.91
381.832
853.533
-647.534
324.992
322.542
-378.599
-296.912
549.28
-217.605
434.232
278.938
-663.717
384.779
262.423
-576.79
-280.775
442.695
-1032.92
590.22
538.061
1092.68
366.014
596.341
310.362
351.395
-661.758
1636.48
-931.214
1692.27
-1520.96
-171.313
-328.225
-822.033
412.836
857.349
-1067.87
-604.983
277.07
-1090.56
1628.62
-1597.37
-75.0112
1672.38
-341.398
-350.274
-370.332
538.766
596.091
-502.147
-26.8463
-549.753
504.112
-283.518
-220.595
1759.86
-1307.59
-623.101
297.254
325.847
398.873
357.309
734.436
-294.006
-399.196
-1749.8
1688.6
459.699
-1100.53
640.83
-41.9633
1662.38
570.986
476.346
-1047.33
103.699
1144.57
-1452.06
-9.91143
-1890.11
225.563
-596.787
307.033
289.754
-954.984
612.141
-897.311
467.216
-1128.22
672.945
455.272
392.645
255.78
-769.91
-331.48
1216.5
886.424
699.288
-1182.77
456.161
726.608
494.544
700.294
-1194.84
-388.67
-248.006
409.098
-959.925
438.793
521.133
21.2313
-1879.92
1079.98
-472.639
-503.017
558.538
-1378.13
819.59
-430.546
797.574
-405.59
502.124
-712.097
1721.92
409.188
-181.457
214.509
-167.361
-246.166
413.527
1895.33
-504.124
-1701.91
1051.06
-599.288
302.376
-1013.12
552.701
-312.796
544.389
905.113
-1449.5
-1103.35
437.682
-20.9811
-1945.44
1713.63
-662.914
-539.865
460.827
-1190.27
729.446
192.921
206.013
-280.361
772.152
699.261
837.224
817.253
-461.016
1084.55
-500.898
475.927
-191.008
-284.919
-1924.09
-713.517
-317.849
-641.921
-6.51662
648.437
464.059
-272.538
567.519
1068.97
-809.693
923.998
1244.08
-425.545
-160.739
-253.861
414.599
960.183
-888.397
-315.914
-1067.4
611.047
1561.01
-804.908
537.772
934.764
-396.139
734.778
-338.639
1130.14
-274.939
383.865
1349.58
-706.225
-217.05
448.333
-1198.45
750.117
-974.801
-155.143
1129.94
440.702
-955.022
514.32
149.784
732.324
483.147
743.314
-124.761
851.968
-426.004
1182.22
-796.594
552.33
-1465.43
913.098
-1216.65
1800.97
-431.708
-1510.19
879.473
-1401.9
-317.02
-451.831
1457.14
-1525.64
783.883
1491.45
199.482
276.445
-356.068
-1740.34
-282.432
-1018.77
1586.29
-1776.29
1776.29
1574.07
-1004.42
-632.795
-338.84
368.38
604.662
-420.488
-364.562
-1389.75
897.26
1125.11
600.614
1202.54
1789.49
-1216.42
-617.363
273.051
1659.13
-1916.65
257.523
815.241
-1267.81
1545.2
-561.654
787.85
334.734
-355.774
555.223
794.499
656.312
1372.75
-268.001
-445.342
-364.591
495.612
-339.533
471.918
736.109
-298.294
-142.947
-335.407
567.187
-231.78
30.0405
-371.331
1107.39
-1720.28
-464.068
-493.486
-566.513
863.529
697.482
-1596.41
904.63
-451.963
-627.82
-514.605
1251.92
355.423
1723.78
-1702.55
-1660.07
1894.28
-1560.72
840.19
720.534
-400.169
-1798.05
917.863
583.628
819.002
-386.279
1794.43
-680.884
-459.437
701.855
434.96
-1136.81
-1100.76
444.184
753.004
-1617.15
473.242
901.012
173.856
-399.077
225.221
-1604.92
-388.629
-471.632
990.23
-677.519
1442.88
-980.268
1853.86
241.827
-546.929
494.689
-295.207
474.333
893.462
543.256
977.232
-463.166
-427.92
574.165
882.974
-1392.7
-40.9917
1578.07
-840.844
519.965
971.482
-1475.81
-1115.9
1779.93
-1241.54
-538.388
1206.08
-319.19
-886.894
-189.215
451.892
-262.677
-457.357
-250.552
428.51
-177.958
143.207
-391.213
1738.1
-1743.02
-464.578
-530.87
-903.536
441.39
-203.665
-237.725
632.904
-491.719
-400.768
-322.971
723.739
-953.19
430.247
-1167.12
676.279
415.683
-641.915
-434.357
1581.94
-866.942
530.194
-458.177
-570.121
-462.795
361.509
-351.025
-10.4844
-1121.37
411.21
-664.906
-1033.58
1698.48
-610.004
-1424.25
712.135
562.275
-1596.25
1033.98
-409.402
-476.701
154.542
556.823
-1258.4
743.792
539.251
1005.95
-2133.17
999.984
1133.19
-363.563
409.537
-384.331
-25.206
1478.02
-375.724
449.592
1185.45
582.455
906.293
566.985
527.789
-1094.77
162.932
-446.779
-1696.13
246.431
1127.53
-621.671
518.586
1013.65
-1532.24
1092.82
-1643.71
195.686
710.3
553.402
-869.317
-1086.39
-169.525
425.549
-256.024
-586.604
-435.813
-636.757
-625.929
345.568
-1619.29
939.498
-476.986
215.301
-396.759
532.779
-307.216
-617.467
1197.08
-1302.87
939.433
363.437
-1019.73
-373.119
-761.831
-828.821
1692.35
-477.176
1794.66
-1586.08
-208.578
-1556.6
1018.67
537.934
-729.659
-257.161
439.151
-181.99
-599.795
384.063
271.792
-655.854
-524.173
996.178
628.461
-351.391
-1620.25
1050.48
571.796
1103.5
-1675.3
-420.916
-289.164
-371.13
-748.44
-501.835
-331.016
498.22
1557.99
-995.714
-774.656
1497.46
658.73
-316.311
725.883
1152.35
-1878.24
286.99
313.86
-487.387
-1933.45
1720.74
212.713
736.965
-474.897
-262.067
531.855
1060.78
-1592.64
361.509
-1726.61
-233.213
1752.36
-1580.67
1073.75
506.923
-1729.54
2.92687
-521.894
409.537
1699.76
-1720.74
939.485
624.953
-1564.44
378.422
-217.771
-160.652
-425.898
-247.992
65.1163
94.6753
-351.836
-427.464
-441.61
-405.248
216.933
1510.2
379.007
-192.858
-457.23
459.689
-195.133
333.144
1510.73
988.584
-175.663
-812.92
-1104.07
1704.88
-1728.87
1063.97
-707.346
-1021.53
-1265.07
1844.99
-579.911
1155.06
-1771.21
616.151
269.627
-877.894
1675.84
43.4267
-1719.26
-491.181
-1083
-1738.1
-981.415
553.495
1019.55
590.258
1133
-1723.26
269.43
-472.414
702.362
-384.423
397.527
924.595
681.31
-374.914
-657.401
582.922
1072.51
-1655.43
-403.666
-365.64
769.306
403.958
-1661.73
1520.96
140.764
581.369
-1043.75
544.756
1083.86
-1555.64
993.988
-235.756
224.086
323.973
1905.27
435.006
-62.3863
995.852
722.751
-1718.6
-697.001
1085.3
-1557.49
162.975
-570.61
195.128
264.561
-671.687
-554.839
582.605
1034.54
-710.954
-261.501
-1368.48
674.656
693.82
-411.638
739.554
103.784
-843.337
562.016
-137.179
1557.36
-212.326
271.915
-774.867
-1933.45
1664.61
1020.24
340.102
297.139
488.589
-929.934
-994.16
-1767.26
634.635
1693.76
505.847
-474.513
1210.62
1087.09
-424.948
1029.61
-977.694
490.437
487.257
700.536
1047.92
-1748.45
482.201
484.645
-1493.94
-746.05
33.9559
778.966
-413.187
-884.564
381.546
-539.479
-801.705
602.011
-577.726
1397.32
1055.16
192.137
233.412
-550.652
1618.5
-774.065
1526.42
-1727.83
575.282
1152.55
541.023
-882.571
-1732.98
1916.65
-183.673
1721.74
179.354
-545.008
364.489
-269.814
-481.545
1210.99
568.273
1128.3
-491.212
426.486
857.033
-458.961
-771.383
429.353
342.03
1419.2
1089.57
-518.284
1422.91
-510.554
-533.19
1043.74
-602.79
514.947
-1225.83
1692.27
1839.57
-687.218
1585.89
-646.403
-1241.03
716.859
-562.71
199.606
-387.774
451.157
-240.319
-518.895
-1246.7
1870.95
-624.244
1173.36
-553.747
1120.26
-1659.44
1700.96
-573.968
-546.931
-549.835
1720.07
-316.706
-688.081
-473.379
1223.5
-1687.51
-1860.11
613.407
345.759
-955.943
165.833
211.171
-1719.02
1204.14
514.885
1162.85
558.89
-512.453
-465.421
1192.03
180.137
222.287
588.447
1251.12
-539.183
-1238.58
1777.76
-1025.31
999.988
866.785
-204.083
-1659.13
1702.55
-510.141
1411.15
-1732.98
-335.597
-10.771
346.368
-259.119
583.819
-324.7
113.066
488.297
780.417
-379.769
1257.52
1270.72
-413.368
851.079
-438.243
1817.51
-662.448
1586.6
-1723.78
-412.81
-772.657
339.041
433.616
-560.546
-563.463
79.7415
-1138.65
-985.335
-670.087
1655.42
-943.702
-1189.47
209.406
-446.193
-647.765
705.706
1167.44
650.068
1410.3
-591.297
1636.73
1318.04
-574.248
-489.911
194.704
-503.308
1396.77
1240.05
-565.39
-999.983
891.893
57.1731
-949.066
603.425
-506.178
1403.44
1495.06
-588.768
-362.139
362.139
-589.518
1623.5
1239.33
-486.321
1134.14
-62.5918
1849.87
-389.099
1489.47
-589.088
-507.692
1347.88
-651.368
1218.58
-567.212
1554.81
-591.762
761.082
572.206
-1333.29
-671.961
264.017
522.423
600.553
-1957.29
-1000.46
1586.6
365.539
-365.539
-64.83
385.981
437.425
359.486
55.4125
-312.856
935.474
-533.574
-427.078
813.059
-241.242
618.684
-423.711
1553.26
-444.346
-884.025
183.776
225.522
-409.297
601.172
1250.77
-1851.94
926.23
-459.014
-351.025
126.149
-1943.04
1816.89
-448.68
179.246
1181.12
-440.486
-740.637
-296.081
-588.482
-494.303
-384.331
-477.822
257.227
1158.12
-562.03
230.727
-377.774
147.048
-22.8213
-107.682
1375.99
-1268.31
34.6062
-597.065
-586.455
-449.522
449.522
-1262.35
1985.1
-1344.34
-204.394
-1823.83
237.755
-1025.75
-974.245
-183.147
-1638.72
708.786
1229.32
-1925
366.357
314.294
-680.651
-1850.02
1234.27
615.75
-560.384
560.384
-959.038
-39.9851
-1866.1
-558.165
1650.84
-676.492
1636.18
-601.646
-184.611
-1705.5
-582.64
-475.518
-594.837
-463.969
463.969
-1537.81
194.529
1343.28
170.266
224.495
-394.762
507.152
481.432
996.416
-475.284
1751.29
768.378
-420.111
394.905
521.993
1702.06
-594.672
-552.979
1636.84
468.179
1812.79
-645.347
-1804.24
-1938.07
-647.037
-476.618
476.618
-578.252
213.661
-708.326
1018.9
-466.2
-1074.2
-287.928
1579.56
1852.3
1635.36
-1635.36
-286.507
739.258
1761.51
595.796
1275.15
170.709
207.713
600.975
592.027
1603.5
-1603.5
219.983
-355.813
-436.672
456.698
950.852
-460.416
-639.138
-1130.98
1706.26
278.187
-1665.44
625.504
-288.711
468.065
1744.65
-592.095
-214.301
-448.19
377.096
732.404
1738.58
-613.47
-511.781
-778.931
1960.54
-870.458
-1090.08
1642.74
-704.564
1223.96
-1824.95
600.989
372.009
-918.937
-185.435
-103.893
1097.86
-486.809
130.447
635.414
-1662.91
432.744
603.766
-1804.24
-583.288
1787.43
883.751
-1162.9
1760.49
-597.595
1783.83
-575.543
-1208.29
430.856
925.675
-1743.02
924.601
-1484.36
247.562
1236.8
-831.13
-1254.22
-376.452
74.5969
301.855
581.75
267.293
1030.38
-441.283
845.654
-404.371
820.621
740.276
-1560.9
644.196
1066.39
-24.0814
-662.365
686.446
-1744.41
722.88
705.014
150.544
-1122.64
1936.77
-674.558
-1262.21
-537.182
1665.48
834.722
965.761
-1800.48
1227.86
683.351
-405.592
709.432
830.313
1027.74
-587.041
1761.51
626.113
1773.56
-1185.6
-587.96
-425.712
-333.934
759.647
121.451
-1185.63
1660.54
-540.278
-1437.79
1437.79
1250.56
594.422
1351.47
206.518
-563.265
281.139
-188.536
699.123
1113.66
479.482
-299.345
-869.772
-575.048
1740.09
-1740.09
994.58
-994.58
987.335
1025.17
-2012.5
1837.95
-613.988
-581.117
850.666
-947.853
-1052.16
998.26
691.007
-1689.27
-514.337
-377.315
-650.284
-808.432
2042.7
-1246.42
-613.695
1002.97
974.856
1289.77
646.995
323.764
1012.69
233.979
339.134
1186.23
1756.89
-1756.89
671.665
79.6637
-386.739
-997.057
-539.994
1674.13
991.054
1008.95
-1833.29
-221.045
-361.594
600.074