/*--------------------------------*- C++ -*----------------------------------*\
  =========                 |
  \\      /  F ield         | OpenFOAM: The Open Source CFD Toolbox
   \\    /   O peration     | Website:  https://openfoam.org
    \\  /    A nd           | Version:  7
     \\/     M anipulation  |
\*---------------------------------------------------------------------------*/
FoamFile
{
    version     2.0;
    format      ascii;
    class       surfaceScalarField;
    location    "20";
    object      phi;
}
// * * * * * * * * * * * * * * * * * * * * * * * * * * * * * * * * * * * * * //

dimensions      [0 3 -1 0 0 0 0];

internalField   nonuniform List<scalar> 
172499
(
201.214
56.9396
-258.153
-473.774
102
371.774
-111.364
-77.2476
188.611
112.815
-278.288
165.474
-435.927
323.595
112.332
138.305
-337.114
198.809
-147.279
286.739
-139.46
-81.573
194.684
-113.111
-363.392
351.912
11.4797
-465.118
-8.65614
-229.972
354.476
-124.505
495.003
-360.235
-134.768
-169.492
341.097
-171.605
89.0622
-89.9984
0.936268
-44.0218
-319.37
-105.959
60.6452
45.3137
-456.098
86.5015
369.596
-411.567
77.0243
334.543
-118.398
286.106
-167.708
-331.909
-104.018
-73.2644
182.72
-109.456
199.052
-196.992
-2.06014
392.801
-290.244
-102.557
159.731
-313.153
153.422
-229.806
201.803
28.0029
-117.367
226.267
-108.9
68.0299
72.143
-140.173
-207.575
462.28
-254.705
-263.251
-175.897
439.148
-51.049
100.749
-49.7001
427.816
-342.022
-85.7939
-246.616
-67.6315
314.247
-267.27
405.905
-138.634
-101.129
-75.9703
177.1
-73.9396
-98.5711
172.511
182.21
95.3803
-277.591
-224.295
93.7538
130.541
-99.6928
-356.405
114.835
-146.772
31.937
119.234
200.318
-319.552
157.46
-404.075
-57.6034
-353.964
-131.157
-35.5064
166.664
-118.963
301.173
-38.411
102.057
-63.6463
-2.29421
91.3564
264.079
65.7393
-329.818
543.716
-303.578
-240.138
397.846
-148.406
-249.441
414.136
-534.083
119.947
-390.722
478.202
-87.4803
279.786
-101.704
-178.082
-472.285
330.166
142.119
-504.398
451.002
53.3962
-119.158
-166.071
285.229
-317.052
-155.233
554.724
-365.666
-189.059
-132.448
82.0144
50.4333
85.5038
76.0484
-161.552
127.764
-229.77
102.006
-515.346
327.477
187.869
-186.32
330.905
-144.585
345.979
-129.391
-216.588
-104.585
185.605
-81.0202
295.882
87.1812
-383.063
9.42948
-401.264
391.834
-351.652
197.307
154.345
-219.177
399.063
-179.886
79.6339
-145.179
65.5447
-535.951
254.758
281.193
-108.055
201.772
-93.7176
199.674
-152.868
-46.8053
370.184
-250.95
-134.556
67.8997
66.6567
-95.9048
-91.2319
187.137
80.368
-164.317
83.9485
-206.754
49.2505
157.503
202.552
-402.991
200.439
-246.881
-142.249
389.13
-293.834
218.533
75.3005
-77.9869
-215.847
429.783
-432.782
2.99813
39.1074
-84.6043
45.4969
-306.139
557.681
-251.542
-137.251
240.784
-103.533
342.477
152.527
-108.756
177.687
-68.9302
-324.471
472.877
-148.406
105.625
-117.766
12.1407
-86.6979
441.524
-354.826
134.346
-5.16264
-129.183
202.514
-20.4193
-182.095
206.54
-469.79
221.254
50.2085
-271.462
-420.555
315.177
105.378
-574.974
416.888
158.086
261.962
-321.801
59.8391
94.3754
-55.2681
86.6854
-162.819
76.1339
0.485417
105.14
-314.489
-200.857
199.907
-434.649
234.742
327.973
-177.947
-150.026
-485.467
499.372
-13.9055
105.851
-213.905
169.749
-94.0269
-75.722
-503.084
317.089
185.995
-39.409
102.297
-62.8877
-141.885
225.209
-83.3238
-311.342
-71.1288
382.471
-122.927
233.205
-110.278
-54.6596
316.622
-175.724
-31.0294
133.977
107.085
-241.062
-106.761
46.4917
60.2696
204.337
-345.441
141.104
-307.574
77.6025
-94.141
220.253
-126.112
363.999
-541.568
177.569
49.861
149.813
-212.574
118.433
-66.025
-39.9339
-222.887
115.198
107.689
46.1718
-170.762
124.59
-230.663
532.609
-301.946
-112.514
61.4655
-264.813
78.4928
-114.762
75.7962
38.9661
-181.053
-41.6941
222.747
-506.953
509.697
-2.74401
-108.099
235.779
-127.68
567.178
-287.766
-279.412
-172.621
186.365
-13.7436
538.963
-196.486
-329.439
480.847
-151.408
-116.991
227.274
-110.284
-259.038
176.522
82.5161
62.8558
-330.126
148.056
-267.214
182.752
148.153
84.685
53.0561
-137.741
-191.435
341.114
-149.68
502.984
-504.543
1.5585
380.672
-197.099
-183.574
-267.029
158.93
141.961
-532.682
438.191
-331.943
-106.248
-115.423
-149.389
-452.325
233.148
-226.685
-167.601
394.287
107.445
62.3042
55.3142
-93.7252
7.8495
194.665
-567.957
273.279
294.678
133.112
146.674
-360.321
427.419
-67.098
-412.19
100.848
-67.2455
220.581
-153.335
132.774
-132.949
0.174739
-152.746
112.554
40.1924
150.351
-69.9831
137.672
300.518
158.348
187.631
-189.476
147.251
42.2248
263.651
-143.491
-120.16
139.933
173.379
-313.312
445.148
-259.557
-185.59
-60.8388
-105.582
166.42
-190.033
122.788
-241.243
123.687
117.556
-241.567
156.037
85.5299
-102.037
366.116
-97.1466
-28.068
125.215
26.6663
60.5894
-87.2556
-72.5335
-82.388
154.921
219.62
-436.648
217.028
-71.5054
98.1717
193.674
85.8053
-279.479
114.128
-333.3
219.172
277.154
120.692
-288.998
-131.37
420.368
-192.846
96.9409
149.537
-260.475
110.938
-208.17
415.65
-207.48
-273.524
-229.56
-162.561
384.871
-222.311
95.4285
-261.823
166.395
311.33
188.67
-137.15
325.619
-188.47
126.412
7.93401
-106.085
299.759
-338.826
188.963
149.864
452.967
-166.343
-286.623
-202.616
116.484
86.132
-233.017
115.65
69.8838
-131.184
61.2998
21.3497
-92.8551
-172.745
163.616
9.12907
55.7807
-146.699
90.9184
83.4594
137.682
-221.142
-568.63
389.409
179.22
-186.99
361.068
-174.078
363.437
56.6635
-420.101
481.283
-479.311
-1.97196
-338.41
169.047
169.363
135.471
-90.4096
-45.0615
369.962
-271.348
-98.6147
-87.3021
383.184
-213.285
-196.377
409.662
97.57
-209.319
111.749
-68.0966
89.4463
50.0761
267.013
17.1884
-246.994
-384.205
297.507
-163.191
-63.8987
227.089
-85.0336
-117.582
-99.8121
253.236
-153.424
-183.387
-137.161
320.548
79.1908
-81.485
-123.61
-261.417
385.027
130.378
8.9305
-139.309
134.786
-0.371901
-134.414
135.099
-329.472
194.373
-75.4544
138.91
-63.456
-73.5438
-430.854
-177.937
15.9091
162.027
-200.07
-81.0224
281.093
184.63
-68.5407
-116.089
138.027
-68.1431
-349.477
100.738
248.739
0.231153
-413.013
412.782
68.8095
-117.826
49.0166
49.9967
-131.803
81.8064
83.8765
-176.308
92.4319
-237.319
122.008
115.311
-225.326
-343.304
-641.878
285.502
356.375
392.689
-204.788
-187.901
-55.5749
160.314
-104.739
239.723
-166.283
-73.4398
-44.3411
149.668
-105.327
-293.121
166.326
126.795
-118.296
-34.4497
153.518
-66.8328
278.204
-217.228
-60.9762
-234.623
407.632
-173.009
447.354
-221.109
-226.245
134.563
-86.2858
-48.2771
-162.923
102.085
-63.9248
-32.3836
96.3083
203.352
282.035
-485.387
-370.513
240.909
129.604
226.808
-530.48
303.672
387.335
-236.603
-150.733
118.658
-73.3079
-45.3503
-6.23967
-282.758
-74.118
177.709
-103.591
-561.788
299.309
262.479
503.7
-503.7
-187.291
105.718
370.062
-376.302
-3.78558
82.9764
-480.198
272.028
-128.124
124.423
3.70091
40.8912
-182.776
257.896
-145.081
-105.048
151.22
179.545
-279.919
100.374
104.202
96.7221
-200.924
-100.721
207.772
-107.051
415.212
-131.529
-283.683
-327.581
190.432
428.053
-150.899
-222.833
-70.288
141.836
177.415
-319.252
-188.056
104.26
83.796
44.8227
-99.5187
54.696
-170.837
98.3033
-248.171
297.846
-49.6751
75.5158
-114.925
-121.158
-68.3175
97.1509
184.43
-404.768
220.338
69.5153
65.9558
456.584
-254.293
-202.291
172.395
206.475
-378.87
65.9021
-243.839
497.432
-507.478
10.0466
116.921
-71.326
-45.595
100.151
-150.297
50.146
108.933
-64.1102
-500.323
66.1287
434.194
-167.982
29.342
138.64
368.08
-318.004
-258.593
409.611
-151.018
-480.688
302.741
177.947
364.228
-244.486
-119.742
-140.147
-213.442
353.589
-161.487
345.146
-183.659
-231.097
130.376
-68.525
-22.9067
91.4317
110.369
-192.663
82.2939
-60.6277
132.628
-72.0004
308.854
-193.293
-115.561
85.3529
38.4805
-123.833
-129.212
281.987
-152.776
-252.601
166.269
86.3327
111.807
72.8229
100.716
-129.013
28.2974
-172.819
286.947
-91.9847
-187.445
279.43
124.978
16.0986
-141.077
-96.8573
162.732
-65.8752
-152.374
96.7994
-330.309
160.818
-179.937
346.434
-166.498
338.891
114.076
177.827
-412.45
272.755
-113.024
-179.211
123.069
56.1426
-4.27588
-179.597
183.873
262.748
-386.358
-57.7327
421.17
-34.7128
-72.0486
183.278
71.5547
-254.833
-142.751
59.5175
83.2334
-368
7.67895
196.44
-412.748
216.308
29.3875
-97.9125
-152.049
-15.9329
194.045
-286.03
-432.874
-67.449
141.689
229.427
-371.115
219.135
145.093
123.623
-57.9233
-65.6999
172.167
102.087
-274.254
-256.787
167.756
89.031
80.3353
-357.607
277.271
352.993
-214.688
243.311
-147.882
83.5143
107.962
-191.477
-132.222
268.593
-136.371
128.238
-60.2081
91.3693
-181.657
90.2876
265.942
-89.2864
-176.655
-170.433
-212.836
383.269
-175.01
-73.1611
-68.851
-34.8941
103.745
78.3026
49.5867
-127.889
320.528
-173.056
-147.472
-214.746
42.1248
-509.245
345.506
163.738
364.947
5.11534
170.212
-290.316
120.104
185.481
-102.022
181.536
90.4479
-271.984
-51.0547
252.268
-105.321
-299.56
404.881
-171.284
388.651
-217.368
-112.982
262.445
-149.463
-172.366
282.969
-110.603
144.997
-98.2418
-46.7552
-145.613
-78.6821
-136.724
81.8858
54.8381
274.345
-157.304
-117.041
-438.081
332.76
-160.765
163.501
-2.73629
-185.678
111.739
73.9392
303.788
-168.689
-168.961
473.04
-304.079
200.226
-88.6731
-111.553
65.4425
87.6736
-153.116
72.7095
61.8534
25.6709
229.887
-255.558
94.9342
105.518
-200.453
63.4022
305.902
-369.304
148.037
510.435
-96.2992
225.766
95.8244
-321.591
-141.883
299.257
-157.374
135.997
-67.1876
213.44
-118.042
-95.3979
-80.896
203.021
-122.125
139.354
-252.337
395.998
-223.603
-371.328
369.336
1.99143
141.784
-91.7868
-58.1699
-37.1242
95.2941
489.056
-165.462
-62.8954
185.147
-122.252
-230.036
427.625
-197.589
276.65
173.472
-450.122
68.4609
-177.217
-454.582
247.007
-22.3053
157.091
-324.759
187.372
137.387
2.88411
97.8315
-316.479
-132.1
448.578
267.495
160.558
-75.0917
-84.3667
159.458
96.6262
2.53872
-99.1649
-242.089
354.606
-112.516
124.819
-117.601
-7.21752
-166.532
391.574
-225.042
-126.887
132.097
-5.21032
55.594
123.108
-178.702
142.048
-471.487
-169.492
261.334
-91.842
-97.4872
249.441
-151.953
-133.362
197.679
-64.3173
254.538
-162.508
-92.0302
-274.574
87.1289
237.307
-407.74
-39.4866
214.068
-174.581
-225.771
88.5204
196.071
101.774
381.84
-114.345
83.0281
-136.038
53.0102
353.322
69.9341
-423.256
-196.44
406.656
-210.216
-232.838
-267.158
22.7992
-90.8958
601.515
-379.315
-222.199
-37.8174
129.66
-91.843
-160.954
64.0972
304.724
-391.167
86.4432
-137.416
193.01
-392.08
379.993
12.0875
330.211
224.514
147.979
156.94
-304.919
-504.785
382.566
122.219
-352.51
426.173
-73.6635
-99.4185
252.691
-153.273
179.698
-67.8913
128.73
180.124
125.86
-295.352
-124.51
270.13
-145.62
382.829
218.685
336.28
-330.4
-5.87976
325.156
-529.558
204.402
341.466
-138.915
-102.791
-404.161
64.9556
-216.562
151.607
80.5483
-155.64
357.387
99.1964
182.411
-81.6855
-100.725
237.943
169.689
134.618
233.655
-368.273
-100.586
377.235
413.774
-194.154
-405.016
13.8614
391.154
-291.196
-180.982
472.178
421.598
-291.797
-129.8
489.789
-249.598
-240.191
-70.6086
-92.3149
-59.6718
272.256
-212.584
57.6366
84.3029
-141.939
83.7456
-140.987
57.2417
157.934
157.128
-315.062
-184.949
31.307
153.642
36.0708
88.7477
412.083
-174.14
374.937
114.119
-264.182
-151.504
415.686
-30.7087
155.687
-174.835
101.571
-161.226
-219.942
381.167
-25.3889
85.9783
-37.9581
-146.991
166.345
-457.541
199.558
-32.8666
-56.9846
89.8512
217.204
-56.8896
-90.2841
-44.2723
-260.731
136.221
-103.311
286.589
-324.718
499.956
-175.238
261.32
-422.546
397.712
-197.805
104.132
196.038
-300.17
-142.882
64.9838
77.8982
-367.321
488.64
-121.32
307.406
-227.071
554.688
-227.519
-327.169
115.471
101.732
358.783
-116.945
-241.838
-271.732
434.52
-162.788
139.833
-246.167
106.334
-160.337
32.6882
127.648
-153.58
-77.5164
152.905
-394.487
241.581
10.8197
-119.252
108.432
454.25
-195.07
-259.18
303.283
-477.232
173.95
-227.631
188.144
90.4194
109.806
101.639
-6.03241
-95.6067
253.791
-119.814
249.767
142.922
322.606
-180.861
-141.745
-326.826
217.282
109.544
-487.721
399.389
88.3314
184.053
-100.177
-108.088
188.493
-80.4041
-181.869
-70.7324
348.698
-43.9739
118.603
10.9813
-129.584
-117.772
201.286
-130.644
86.3034
-529.766
360.242
169.523
311.423
-141.212
226.322
161.013
161.375
-397.978
-474.618
238.099
236.519
-248.298
164.616
83.6823
112.574
-42.9188
-69.6555
-219.079
-203.086
422.164
101.344
147.887
-249.231
-407.09
282.505
124.586
-272.15
-134.941
-561.672
373.514
188.158
-283.793
101.924
585.983
-299.803
-286.181
-148.903
-176.691
325.594
-132.382
137.345
-4.96305
-165.292
274.72
-109.428
-254.395
154.976
-414.777
301.727
113.051
106.428
92.1497
-198.577
-370.472
194.066
176.406
-112.516
-129.051
141.889
-104.749
-37.1404
276.227
105.614
573.969
-316.415
-257.554
253.319
-519.759
266.441
55.7415
-117.233
61.4915
94.9663
6.6728
-62.4499
145.372
-82.9221
272.975
300.995
72.2358
-173.365
-289.554
157.332
119.132
-39.4981
115.929
158.416
347.271
82.5127
107.857
71.8407
38.6824
-187.166
148.484
365.27
-514.25
148.98
-60.9446
326.11
-265.166
-33.9257
117.671
174.727
379.961
-146.823
359.048
-212.225
67.2335
-165.244
98.0108
-341.005
-300.872
-63.0868
-35.9567
99.0435
6.57603
-138.958
-107.279
118.099
176.812
-85.443
179.115
-328.018
-138.113
78.3411
59.7721
-351.895
-87.6934
439.589
-338.28
521.847
-183.567
108.464
-370.652
262.188
55.5431
-143.604
88.0608
-113.424
-236.052
292.709
108.604
-401.313
177.731
-112.775
250.047
-141.887
-108.16
554.954
-192.909
-362.046
-370.26
52.6929
317.567
331.645
90.7657
-422.411
-479.154
499.256
-20.1022
-146.186
-76.7012
-94.3581
198.56
142.768
179.838
249.776
-536.042
286.266
376.983
-367.553
461.588
-168.879
552.992
-298.832
-254.16
-224.056
245.059
-21.0029
-52.0312
170.634
-96.7352
-255.457
352.192
56.784
446.916
-67.2218
-85.1526
142.755
-85.1183
321.682
-163.748
129.756
58.8584
-188.614
166.974
-226.646
-68.3677
-100.617
168.984
552.671
-552.671
-3.30589
-123.581
281.045
-168.384
-112.66
-309.589
-171.099
-162.652
92.0438
-366.447
-119.02
-77.1484
142.591
203.652
-293.908
185.917
107.991
12.2632
-404.343
129.832
106.288
-236.121
88.8483
118.924
134.728
-50.0434
-67.1396
-303.12
76.8381
-250.298
173.46
-12.4333
-392.582
-298.262
151.439
-132.356
-183.792
316.147
113.576
235.19
-348.765
-328.357
500.85
-172.493
-91.3903
-36.7337
-72.688
104.301
-31.6132
-99.3236
181.327
-82.0037
227.818
169.551
-397.369
317.181
-213.049
405.785
-186.65
-304.333
-200.452
154.851
-273.249
-162.698
88.7586
-412.912
308.088
104.824
83.9403
-435.836
90.6612
150.738
-241.399
-221.938
-153.361
375.3
40.6309
-101.259
132.89
-163.598
-116.752
-225.177
341.928
-301.843
240.899
-100.952
-52.254
153.206
-188.268
109.701
78.5669
358.235
-517.281
159.047
319.332
-212.959
-106.373
156.542
290.812
78.6399
84.3868
-163.027
387.203
-160.88
146.88
-514.2
257.859
-181.021
157.668
161.664
-64.6915
-348.221
217.87
-377.427
159.558
408.518
-237.519
-170.998
75.4457
-260.385
184.939
-228.812
-10.1095
238.921
65.9896
-157.551
91.5612
83.7204
-161.26
77.5397
193.57
212.215
-48.7871
145.413
-334.317
418.257
135.78
234.095
-369.875
-105.269
309.606
77.7793
106.752
-184.532
41.7843
-314.672
272.887
-139.262
145.838
278.636
-458.075
179.44
-93.2011
222.957
271.345
-455.234
196.641
-95.0087
0.653996
94.3547
38.5384
121.429
-159.968
219.54
234.71
-114.441
192.22
339.871
-28.4373
-311.433
-124.033
444.717
-320.683
101.95
290.851
44.5349
227.721
316.729
134.549
-451.279
327.943
-268.343
-59.6002
-32.3336
-128.431
-208.549
91.558
-76.5071
-30.796
107.303
13.6893
-90.1964
-315.21
173.327
-75.1
-177.005
252.105
190.357
128.605
-318.962
-222.593
-47.562
270.155
-153.397
86.1757
81.8332
-181.157
-84.03
-318.656
402.686
-80.1045
-142.729
517.646
-239.01
-70.5677
74.6412
52.6577
-127.299
-169.124
82.3276
86.7968
71.4796
-91.5959
20.1163
106.064
172.813
-278.876
-186.755
105.83
80.9253
-137.43
318.966
-98.8147
-126.412
225.227
-327.274
-208.677
-243.968
127.671
116.297
-229.282
527.005
-297.723
442.543
-289.638
-72.5338
-94.2392
166.773
-73.9117
103.299
-183.561
323.545
-139.984
-118.3
269.778
-151.477
163.103
-69.165
-93.9381
-251.209
359.673
143.324
-86.0936
-57.2301
-274.095
280.004
-5.90893
-277.891
130.613
196.031
10.5657
-206.597
-197.685
388.369
-190.685
124.933
-60.7042
-64.2286
227.423
-468.836
241.414
-497.836
173.365
164.468
-34.0899
-139.997
0.734816
-189.788
87.9429
101.845
-149.419
367.289
146.47
-79.2364
80.872
-415.189
-42.084
-70.0068
112.091
-105.572
-509.238
357.364
151.875
249.101
78.8428
-305.757
-160.758
466.515
-84.0583
298.799
102.841
-140.658
-54.6289
-133.428
-232.992
-243.562
476.553
-198.348
-242.925
441.273
-286.127
274.25
11.8769
313.74
-250.338
-297.006
-212.239
340.839
-509.8
100.567
95.8397
-196.406
-383.25
212.347
170.903
157.247
217.69
-77.5106
142.652
-65.1415
-330.358
526.169
-195.81
-187.243
134.595
52.6478
-130.848
42.9596
87.8886
52.6878
-125.376
-63.921
395.566
94.4354
64.125
-158.56
503.399
-186.67
-115.051
264.588
-318.593
157.106
-287.025
287.025
-150.321
240.983
-548.843
281.591
267.251
-238.671
-96.2212
334.892
186.887
-148.205
-125.532
133.146
-7.61362
-251.92
79.5538
123.366
-483.601
39.6179
77.3032
-137.395
-311.425
448.819
-232.458
368.237
-249.315
149.503
500.499
-244.223
-256.275
-191.308
-37.5034
150.114
-328.062
-568.476
398.498
169.978
-285.425
-156.616
-203.469
37.8271
165.642
-51.9119
-113.087
164.999
133.479
120.312
-66.0571
111.569
-45.5114
-0.49641
61.891
-61.3946
222.943
-221.992
-0.950589
212.84
-337.856
125.015
69.5732
-177.662
-72.9254
-154.705
104.962
-199.209
94.2472
-393.451
-264.595
336.135
-71.5399
83.8429
41.0898
-19.825
-116.642
136.467
-150.491
-201.161
155.876
-386.693
230.818
-173.712
101.178
88.4257
47.4816
-135.907
37.4119
-138.364
-157.303
239.883
-82.5798
155.494
107.76
-263.254
-156.028
-287.259
443.286
171.142
-421.69
250.548
107.307
-157.347
50.0399
-540.729
308.915
231.814
465.301
-323.432
-141.868
-501.516
176.799
-126.236
122.93
-67.989
-106.846
311.895
-412.481
-344.522
-130.095
-158.164
-135.743
-380.699
155.938
224.761
-214.074
133.969
-46.2796
307.244
-260.964
-91.0365
-241.231
128.715
174.12
103.425
-277.545
258.806
-454.469
195.663
196.8
-99.2298
-316.7
103.741
223.729
-95.9647
-327.564
-112.152
439.717
383.594
-227.719
-331.849
336.47
-4.62148
-71.4544
122.931
-51.4769
-380.43
167.595
-312.411
126.495
185.916
132.578
-132.578
-194.942
-256.076
451.018
471.556
-390.684
64.4486
-264.519
3.96215
335.908
333.362
221.593
-241.148
-47.8452
288.994
126.602
6.38281
-132.985
-73.1254
139.245
-66.1198
-182.507
114.057
68.4494
-323.01
-244.947
-164.928
96.5603
116.847
-42.2062
-272.638
-302.336
-144.77
82.3204
132.729
208.367
73.2238
34.3716
-107.595
-45.1908
138.048
-92.8568
379.788
173.204
-170.642
-113.151
-336.287
-172.952
-156.468
-100.211
256.679
-69.3795
-272.651
342.03
-350.859
190.874
159.985
-91.6552
-103.862
195.517
337.805
-505.068
167.263
209.161
-354.616
145.455
235.13
-414.03
178.9
-79.2214
-53.2263
-237.956
165.031
166.898
-395.15
228.252
-151.357
99.445
-380.076
193.085
-205.833
363.081
-76.077
143.528
-67.4505
90.7441
-142.985
52.2408
26.8804
-90.8052
-154.029
366.869
483.498
-465.546
-17.9517
-96.1759
151.719
-78.2901
135.284
-56.9937
260.883
-455.825
-57.6308
164.795
-107.164
-149.263
289.196
390.877
-507.238
116.361
231.791
76.3718
-308.163
48.732
-101.453
52.7212
-35.9816
107.461
59.0837
32.5563
-91.6399
-41.8505
142.254
-100.403
-10.7917
160.788
-149.996
176.572
-71.61
387.384
-137.616
-72.6611
276.993
-204.332
-303.722
-48.7885
182.454
-103.854
-78.6001
197.552
-304.509
106.957
-239.802
-147.222
387.024
-85.4876
176.232
-274.352
162.428
111.924
230.118
-357.09
126.971
-324.191
204.039
120.152
252.148
-133.444
-118.704
-134.526
69.2635
65.2629
183.775
-397.06
-109.462
-73.2637
182.726
-44.6099
-135.457
180.067
98.7
-245.905
147.205
-112.746
207.68
185.962
-98.626
-87.3365
-57.2238
-111.122
168.346
-39.1601
172.05
-163.763
-117.51
281.274
-304.781
-8.64988
313.43
48.9657
-110.29
61.324
168.94
97.002
116.615
107.113
-85.1231
97.2576
-12.1345
-203.469
-55.6415
446.518
-2.82637
117.662
377.297
13.4192
-390.716
389.111
-326.256
-476.794
179.788
59.6818
48.4064
-108.088
-146.001
-33.2104
83.1416
-259.87
176.729
119.328
-383.923
-175.767
-34.6752
266.467
-68.9317
264.963
257.279
158.371
-411.442
213.757
-143.515
66.0048
389.551
-162.744
242.481
-106.147
-136.334
259.027
-328.406
305.192
-184.681
-120.512
180.395
-169.516
-10.8791
116.928
-67.9621
-215.365
-235.519
450.884
-194.595
32.6088
161.986
492.275
-485.603
-6.67163
240.817
-69.4405
-171.376
244.432
246.856
-491.288
271.809
-173.109
-164.465
300.903
-136.438
-159.423
307.402
-134.86
220.21
-85.3499
-189.701
-148.709
71.4121
-152.572
81.1598
105.64
-204.454
352.134
119.422
-240.741
-174.037
-63.3394
-105.785
116.451
-43.2271
-172.406
275.53
-103.125
-65.63
151.134
116.808
-43.8012
-73.007
-136.777
79.5531
-581.559
371.391
210.168
58.1567
-137.963
79.8068
-178.695
261.836
-66.2546
131.396
-65.1412
71.7909
45.0173
-142.9
363.755
-220.855
-123.934
-101.736
225.67
-57.767
-37.2273
94.9943
337.754
-145.123
-192.631
243.146
-84.5234
-158.622
-379.836
-310.242
-166.552
-55.5958
-96.934
152.53
122.271
-312.323
190.052
143.093
-71.6811
-122.735
-3.50125
174.553
-421.434
312.271
-94.989
-163.454
100.559
-171.788
82.7785
89.0095
338.859
-129.698
159.684
-127.942
-31.7419
-79.8342
-91.9538
65.8575
-132.061
66.2035
101.033
-169.022
115.753
-64.0974
-104.124
168.222
-90.4385
224.987
-134.548
121.99
-40.5524
-81.4377
-269.311
-35.4692
121.678
91.7622
-84.7751
10.8633
-98.4216
213.054
-114.632
-97.4281
99.3327
-1.90459
-99.0684
-77.987
-95.9033
173.89
483.872
-385.903
-97.9683
422.959
-111.063
140.101
-101.562
-425.694
463.887
-38.1926
-178.56
305.363
-126.804
-237.097
301.546
99.4952
86.4673
-70.3547
-115.324
-93.0184
272.563
-147.486
297.962
-150.475
40.9009
58.1039
-99.0049
-297.049
157.567
139.482
116.692
-60.9503
-83.1288
-69.7394
-220.12
-187.433
407.554
139.563
344.309
-456.365
258.017
239.737
-239.737
-67.8656
80.4903
-12.6247
185.247
-106.903
-78.3443
246.001
-540.002
294.002
182.921
154.833
-252.685
356.457
-103.773
123.224
-65.0676
-203.599
130.059
73.5405
156.959
330.238
-487.197
254.05
-120.571
-317.554
162.081
155.473
93.1817
-184.444
91.2618
281.687
156.938
-438.625
-228.792
104.858
91.6267
-162.306
70.6792
137.504
-179.355
-170.112
397.93
-180.871
108.994
71.8769
173.509
-105.855
-67.6543
-94.8779
370.832
-275.954
332.477
-165.503
-34.6129
106.769
-72.1561
180.169
179.268
-359.437
-207.54
-248.825
-90.773
349.579
98.0731
-184.112
86.0394
-204.867
399.383
-194.516
158.122
-64.9402
318.696
-219.315
-99.3809
140.613
-57.5851
-219.795
-159.793
83.716
-620.248
303.833
132.864
493.635
-501.551
7.91627
210.523
189.253
-399.775
114.236
45.4483
-372.938
-114.783
149.772
-154.048
14.8501
-300.977
-24.7525
-122.468
147.22
158.854
-296.413
137.559
125.663
273.726
-131.745
88.3084
43.4368
47.4107
-182.867
35.5331
-69.4539
33.9209
263.364
95.4185
262.402
-173.441
-88.9611
145.792
-79.8025
-395.417
274.954
120.463
-260.073
-360.176
186.128
54.6886
144.984
-455.965
310.981
-64.9009
-78.4339
143.335
33.1966
-124.786
91.5893
288.767
211.731
-2.89264
380.189
-77.8642
-68.908
428.886
-147.199
79.2859
-131.958
52.6722
-464.038
260.54
203.499
-201.766
-245.594
447.361
-366.486
566.486
-200
280.967
146.849
-173.832
249.732
-75.9007
-162.855
264.199
351.965
-277.065
-74.9004
-179.508
290.687
-111.178
-184.868
-153.958
-110.257
-171.014
281.271
87.3241
31.531
-118.855
188.989
-82.5618
440.459
-378.714
-61.7448
-184.566
114.453
70.1126
84.5259
268.131
-352.657
121.573
-33.1475
347.454
93.0047
-67.0808
158.708
-101.408
-30.3368
-225.968
514.176
-288.208
3.96342
191.68
-195.644
225.302
-393.395
168.093
-80.9267
-41.3547
122.281
288.924
98.4594
-83.358
-20.8019
104.16
-129.511
111.632
17.8792
-187.285
126.884
60.4017
182.861
384.317
97.3827
-38.2991
-269.973
-125.444
228.514
-443.879
413.732
-509.865
96.1328
67.9279
223.094
-31.8236
-191.271
130.734
-64.8768
80.9106
-408.475
-77.5784
-88.5959
166.174
100.107
-8.14573
-91.9617
-112.757
43.906
120.396
134.142
152.266
-329.184
176.918
-91.6066
161.649
-70.0425
152.449
-357.316
358.869
-236.598
341.851
-82.8236
-361.232
-200.556
-288.246
472.9
-184.654
429.262
-324.29
-104.972
-9.26605
-342.128
351.394
-336.48
-176.363
512.843
-151.597
-8.7398
65.364
-29.8309
-505.357
262.677
242.68
-161.29
-97.7482
-71.8092
-62.7173
-47.9116
155.218
-95.3538
171.402
-554.694
382.757
171.938
97.4787
-161.576
-23.9525
89.1634
-65.2109
181.4
-146.381
197.361
-318.289
120.928
322.441
-255.468
-66.9722
87.4113
-397.453
310.041
215.266
-98.651
114.575
255.387
-90.0137
-98.2544
108.932
-60.2003
474.8
-299.348
-175.452
-267.298
363.997
-96.6991
-121.899
191.953
282.847
-417.834
31.868
385.966
-289.253
-190.945
142.949
-221.656
78.7073
-130.013
-81.2823
211.296
107.64
210.881
-318.52
39.6157
-265.978
-239.379
-92.7456
-33.5388
126.284
-203.493
326.173
-122.68
481.384
-175.482
413.067
-67.561
-302.164
172.952
94.5026
5.60481
-273.531
-33.0894
306.62
57.3066
-373.785
-408.884
137.152
128.928
-16.8366
-112.091
168.793
-278.054
109.26
-108.816
264.31
-458.715
334.682
-77.1049
-80.4459
497.284
-149.829
-240.477
406.752
-166.275
218.924
-346.489
127.565
470.116
-111.882
57.6383
61.02
-309.159
135.327
355.062
-203.167
-151.895
-171.822
296.924
-125.102
133.848
347.536
169.079
-269.666
100.587
389.875
-107.37
361.438
128.705
-490.144
329.092
-226.104
-102.987
473.799
-502.726
28.9267
123.249
-75.952
-47.2975
338.886
-225.31
-11.3131
-83.6956
-80.7004
-182.201
262.901
40.5949
-123.523
82.9286
-149.217
66.0879
-307.188
474.403
-167.216
-87.2677
-50.8455
-194.641
198.604
104.764
48.0232
-130.192
82.1689
288.448
3.88438
-292.332
-145.442
91.9738
53.4678
-100.813
454.136
182.364
122.829
-145.693
304.548
-236.834
155.938
335.655
53.4563
-158.514
-159.04
16.9042
226.407
-250.361
79.7188
-141.135
241.004
-99.8696
59.169
-136.317
415.019
-204.496
-371.065
376.854
-5.78968
-132.782
494.22
67.2415
-138.252
71.0107
132.088
-68.4169
-141.736
210.153
-152.126
185.596
-71.3606
67.7999
23.4432
-91.243
61.7012
-128.265
66.5642
-255.607
158.12
-98.2856
-69.2755
167.561
-267.754
-293.761
126.86
166.901
117.642
-84.4453
53.868
-113.498
59.6304
57.2831
-187.296
143.966
138.022
-117.198
269.195
-151.997
-141.589
88.4016
53.187
-80.3259
202.04
-121.714
-375.356
212.795
-182.653
362.822
151.899
-271.1
119.201
252.403
166.273
-418.676
-53.1441
-32.2653
85.4094
331.451
97.8111
337.292
-147.681
-189.611
-157.69
406.186
-248.496
165.264
-70.9641
325.726
-254.762
327.681
121.68
-449.36
474.561
337.101
134.079
-471.18
249.321
-456.861
190.013
-26.9348
-163.079
-338.423
183.605
154.818
-127.555
16.6098
110.945
89.8945
18.9401
-108.835
-60.58
-82.302
12.5534
-383.618
-356.317
213.417
61.3722
192.61
-253.983
-377.993
307.028
222.306
123.336
-345.642
-54.7389
108.056
-53.3175
-100.539
-150.368
250.907
568.641
-257.311
63.1653
135.887
-140.076
-280.241
420.317
-122.84
170.251
-221.917
384.741
-162.824
-359.257
44.2143
315.043
-178.089
-279.153
457.242
-67.8451
-63.0031
-564.252
366.718
197.535
300.607
-182.013
-118.594
-124.096
346.402
-167.383
69.0976
111.197
-188.775
153.199
89.2814
-162.51
-490.526
250.993
239.533
-171.231
91.3972
-266.162
97.7778
-293.685
-287.875
-58.219
-243.624
95.9435
-332.263
236.319
-203.405
-172.938
64.1342
108.803
-247.017
-69.6835
-114.262
-38.4144
152.677
-49.91
-43.4207
93.3307
-319.217
224.34
23.479
-91.8127
68.3337
158.174
-189.997
153.885
-365.573
211.688
3.87787
-277.409
-191.615
316.432
-124.817
-240.562
255.412
106.526
-132.898
-89.4717
222.37
402.262
-411.528
113.372
-72.4713
285.337
189.741
-475.078
-80.9095
-90.3218
-78.4839
272.529
364.693
-367.586
94.9568
-5.06232
409.97
-125.968
-284.001
106.061
166.818
-272.879
140.662
-52.5125
-120.692
173.205
276.89
-122.498
-154.392
347.759
42.1158
129.149
-88.5537
-501.73
173.373
67.6986
-133.953
-131.054
68.8985
62.1557
-52.8959
166.179
-113.283
-141.635
-76.7897
218.424
25.1749
-97.5942
72.4192
-124.015
43.0879
177.369
-186.214
8.84486
230.877
-281.273
50.396
-218.521
76.8865
-87.6522
-76.6643
-52.4316
-68.8973
121.329
142.567
187.651
200.718
-225.504
179.224
176.974
-136.593
-40.3813
-378.122
270.21
107.912
235.028
-84.2909
336.146
161.137
335.078
103.116
-438.193
-130.086
-136.943
-537.845
251.052
286.793
224.64
-310.058
85.4177
142.133
120.269
-94.9834
60.3705
-40.3637
98.3908
-58.0271
-271.938
-220.152
492.09
-415.751
441.803
-26.0529
-267.228
104.037
-127.641
-457.727
-21.235
478.962
209.939
243.953
-453.892
-123.839
-188.572
-149.178
-147.871
95.004
-27.2042
-337.373
135.607
-32.3359
172.169
-127.63
-274.476
174.22
100.256
83.4513
66.8998
-131.292
-143.968
275.26
140.133
-92.1097
416.404
-294.467
-121.937
-137.575
356.499
-210.074
-50.4007
457.153
24.1298
-114.397
-75.3295
189.727
454.655
-0.195272
-454.46
-91.9098
327.168
-235.258
116.751
82.4328
-199.183
-374.746
223.016
151.729
-130.401
-107.375
-167.101
141.007
-73.7659
-108.151
290.346
-182.195
138.144
142.24
-280.383
-150.417
-53.1824
-246.22
-177.642
423.862
117.035
476.437
-332.684
-143.753
-153.807
147.513
-93.2722
-54.2412
33.7789
-90.7635
202.785
-271.717
294.395
-352.614
-404.553
346.82
193.552
-317.391
230.713
181.369
439.815
-204.685
-236.701
164.04
94.3828
82.4295
-92.2792
111.873
-164.769
-270.918
290.096
-19.1778
-277.247
-21.0149
77.6033
-140.527
62.9237
116.208
286.232
-159.372
247.889
-139.238
-108.652
-80.6959
139.865
-270.186
120.459
-188.875
311.096
-62.5492
-248.547
-260.161
470.1
484.805
-148.659
-370.089
267.188
102.9
-22.2841
476.939
-221.909
418.349
-86.0432
-203.159
289.202
105.007
-263.137
158.13
11.5216
291.22
-334.611
-247.387
581.998
147.765
-348.155
200.39
-292.779
392.816
-100.036
-114.247
451.348
352.319
-126.552
176.009
-89.5787
369.586
-280.007
-79.9801
-65.4615
-245.383
155.504
89.8791
176.363
149.81
64.4962
-59.7314
-279.809
339.54
-386.13
-78.9872
-134.312
-197.631
-338.04
229.888
-412.882
412.882
172.849
-337.819
164.969
179.525
-340.556
161.03
231.664
79.4316
53.6669
37.7073
-91.3742
218.124
-371.485
287.699
-465.788
241.29
-38.2685
144.701
159.087
72.7509
197.912
-270.662
124.86
-72.3994
-52.4611
-71.8649
-293.436
365.301
115.086
-185.621
70.5351
-73.3727
187.026
-113.653
331.914
4.36606
-77.8219
80.3606
-276.28
321.609
-45.3285
42.1351
147.878
92.0846
18.18
-110.265
-316.655
-42.6023