/*--------------------------------*- C++ -*----------------------------------*\
  =========                 |
  \\      /  F ield         | OpenFOAM: The Open Source CFD Toolbox
   \\    /   O peration     | Website:  https://openfoam.org
    \\  /    A nd           | Version:  7
     \\/     M anipulation  |
\*---------------------------------------------------------------------------*/
FoamFile
{
    version     2.0;
    format      ascii;
    class       surfaceScalarField;
    location    "12.5";
    object      phi;
}
// * * * * * * * * * * * * * * * * * * * * * * * * * * * * * * * * * * * * * //

dimensions      [0 3 -1 0 0 0 0];

internalField   nonuniform List<scalar> 
31093
(
587.934
-435.374
-152.559
270.661
43.0963
-313.757
939.394
-1127.17
187.775
-395.222
994.339
-599.118
-633.812
670.478
-36.6655
-687.331
53.5192
210.661
-29.9562
-180.705
576.908
-437.995
-138.914
215.466
-289.322
73.8565
84.815
492.093
-72.0214
251.209
-179.188
-240.276
262.304
-22.0275
-237.148
-16.1054
253.253
34.6306
553.303
622.103
-650.735
28.632
-965.121
569.899
-279.818
336.504
-56.6855
-89.2991
-960.137
1049.44
-254.77
234.191
20.5794
305.122
-34.461
-297.492
294.306
3.1863
-5.62945
-234.647
-438.862
523.677
268.575
-313.107
44.5325
939.394
-361.87
97.6677
264.202
889.247
-973.705
84.4578
341.285
-151.268
-190.017
-167.579
-90.4405
258.019
-104.597
-150.173
-592.214
741.077
-148.863
363.313
-311.437
-51.8758
341.437
-66.8745
-274.562
556.722
-291.086
-265.636
-717.41
780.417
-63.0064
-731.46
139.246
130.152
-342.201
212.049
932.293
-932.293
783.026
-347.755
-435.27
269.957
412.458
-682.415
4.17103
788.916
-793.087
-266.249
86.3056
179.944
-858.108
679.694
178.414
971.687
-82.4398
-141.815
-220.055
116.294
72.4077
-188.702
1063.86
-456.536
-607.327
307.761
-245.48
-62.2819
842.889
-30.4192
-812.469
239.275
-232.3
-6.9744
-787.832
70.4213
48.5998
-739.043
690.443
-262.077
-143.938
406.015
762.688
-836.093
73.405
147.026
-370.386
223.36
16.3166
-212.528
196.211
383.972
-113.568
-270.404
694.686
-751.77
57.0845
-51.9285
-299.174
351.102
-55.4498
-224.368
-665.344
435.252
230.092
-50.3724
244.85
-194.478
481.069
-483.537
2.46778
-184.097
-331.717
515.814
-697.594
828.061
-130.467
-716.952
108.851
608.102
509.527
-576.475
66.9478
-651.269
-65.6838
-147.718
-364.172
511.89
-148.684
-66.1963
214.88
365.161
-548.303
183.142
314.203
-236.386
-77.8171
675.808
-53.7046
-275.724
-32.5478
308.272
1062.44
-558.446
-503.992
-62.385
457.601
-395.216
333.503
-146.924
-186.58
-227.121
15.3598
211.761
877.708
-607.751
563.819
-833.337
269.518
634.163
-525.313
816.964
-195.397
-621.567
285.042
-83.9298
-201.113
296.102
-80.6366
133.888
-184.26
-583.027
-275.081
242.022
-282.304
40.2816
-65.0985
169.502
-104.403
-609.879
425.782
155.315
-308.506
153.191
-400.957
665.975
-265.019
738.99
148.755
-887.745
904.529
-130.247
-774.282
184.049
-300.519
116.47
203.883
103.878
424.991
56.0783
262.334
-78.2844
-779.119
790.271
-11.1522
-315.042
243.02
962.293
-874.234
-88.0595
282.777
-127.461
408.744
-419.363
10.6192
187.093
98.7548
-285.848
444.619
-194.6
-250.019
1185.61
-1185.61
470.997
19.7342
-490.732
-50.5416
255.788
-205.246
-461.26
218.2
243.06
264.913
8.93228
-273.846
-242.382
-89.1457
331.528
31.9822
-199.561
183.209
27.4527
399.16
-113.165
-285.994
-256.259
-402.126
658.384
-553.199
490.814
-568.617
-431.467
-354.475
-178.796
533.271
576.727
57.4363
-290.796
-14.8907
305.687
-1030.17
260.495
769.675
-170.768
909.758
43.9695
262.016
-305.985
367.336
-583.956
216.621
240.15
-362.509
122.359
127.876
428.845
737.553
-826.852
31.012
181.601
-212.613
179.859
161.426
271.625
91.6883
143.177
-497.652
-24.2751
-154.959
179.235
18.3055
220.969
847.112
-842.941
293.429
489.596
146.501
-347.767
201.266
251.666
933.945
255.703
-41.2712
-214.431
-280.86
-16.6319
-409.079
36.8522
372.226
108.242
60.3517
-168.594
286.865
-242.896
27.7978
-303.522
190.496
123.706
-297.388
222.225
75.1629
-527.605
66.1108
461.495
-89.455
235.956
-259.382
83.5
175.882
-95.6724
-224.577
320.25
-15.2278
282.919
-267.691
-761.755
-211.95
128.005
-223.677
184.819
971.729
-67.2003
-234.722
-44.6839
279.406
151.918
665.046
-233.835
-25.5473
-731.916
148.89
88.6492
179.925
70.6562
-162.267
91.6107
-14.4235
-222.724
-185.997
333.023
-231.162
201.206
-36.7748
-393.852
-133.754
-185.433
-643.823
829.255
-175.045
109.946
347.696
61.0473
272.076
12.9661
434.375
23.2259
-325.383
455.534
324.076
-68.3737
-207.17
-111.994
319.164
-15.2102
-179.906
195.116
402.685
-442.952
40.2672
104.936
110.571
-215.507
28.4501
312.987
-571.839
509.278
62.5608
-544.406
-27.1669
571.572
-439.854
-113.345
-37.4878
219.847
-182.359
22.2652
-195.328
173.063
735.523
196.77
331.297
76.0959
-407.393
-91.3045
202.84
-111.535
266.914
38.2074
229.852
-125.583
-104.269
579.857
-214.695
24.2784
938.015
153.823
257.088
103.306
-360.394
264.757
-233.745
254.154
-378.685
124.531
63.5613
-937.795
-570.487
422.769
220.996
-150.34
-16.1561
265.117
-248.96
61.1272
270.169
-24.361
288.224
-263.863
324.981
-58.0665
17.1027
239.985
259.055
-368.452
109.396
-69.1657
309.951
-240.785
-456.677
191.7
-367.593
175.892
254.75
-406.093
151.343
-317.151
287.414
29.7365
-3.6663
-330.795
334.461
756.349
-707.749
200.766
-184.449
619.527
-634.815
15.2876
418.127
91.4002
-863.057
537.102
325.956
-40.2031
307.069
-266.865
-89.4384
-151.339
240.777
-279.87
571.978
490.46
513.607
-513.607
-520.201
-509.969
-239.964
-221.295
896.333
-602.903
6.07073
261.241
-267.311
-190.819
-236.861
427.681
109.856
134.618
-244.473
490.024
-890.98
-325.666
236.52
-13.4846
-395.594
354.916
-358.583
-1068.63
500.016
-485.008
485.008
-642.409
-4.8843
647.293
611.639
-244.303
302.038
114.366
-416.405
-316.359
265.817
-220.908
202.367
18.5415
-509.838
814.606
-304.768
306.623
-64.6013
548.923
-77.9257
-422.195
215.025
191.747
70.5863
-632.823
442.004
210.236
-357.16
87.636
-177.074
225.546
99.495
-325.041
351.711
-111.561
-945.469
-240.142
623.408
-46.6814
-59.1995
265.013
-205.813
530.734
-436.956
-93.778
-67.0955
746.322
-679.226
-53.2199
896.108
263.218
1.6956
-81.6148
191.47
-65.3644
510.84
-445.476
-540.966
193.211
-170.058
14.6994
155.359
-110.509
412.547
-34.5037
218.024
-183.52
-65.6149
-200.634
194.464
-86.222
-77.3241
193.618
14.2624
-247
232.737
30.8702
459.753
-490.623
710.355
49.3862
-759.741
290.421
16.2026
-69.7886
-161.374
-110.295
14.917
241.948
-256.865
37.2999
361.86
229.711
-739.549
330.846
-197.66
-84.6437
122.584
-820.592
698.008
61.3803
-371.479
-204.996
-278.563
214.82
63.7428
-357.998
-307.346
567.723
-999.19
241.653
-52.8469
-188.806
-24.3281
207.631
-183.302
-1038.35
334.098
704.247
-37.0399
372.156
-335.116
325.024
58.948
-261.837
120.021
141.816
337.271
-78.9563
-258.315
364.326
-110.173
-199.83
298.585
295.006
-213.765
141.433
-165.761
-81.2811
571.057
-489.776
751.73
-187.911
-131.586
-321.232
452.818
853.954
-731.37
231.487
-216.57
-41.2349
-284.148
-537.208
81.3347
82.4938
-163.829
330.545
-55.2816
-275.263
-70.2688
174.758
-104.49
360.007
-100.951
-89.0868
-349.503
438.59
7.57735
843.981
-851.558
-776.47
804.381
-27.9112
-244.858
82.6839
162.174
-754.425
442.181
312.244
60.6483
-165.246
5.66566
172.928
-178.593
-253.436
247.807
6.26569
-231.038
224.772
220.348
-0.501291
145.675
-506.772
361.097
228.932
-214.67
-40.2853
-186.836
-65.2068
520.741
313.98
-47.6236
-266.357
-733.913
741.49
-478.823
339
139.823
441.028
-297.851
472.132
-860.703
388.571
-294.999
-75.3866
-726.522
28.9284
-165.175
-96.6619
-646.704
631.723
14.9805
-177.432
351.719
-174.287
297.824
306.184
264.359
-167.625
-96.7341
268.105
-275.201
-456.715
-208.011
-92.5082
272.214
-172.927
-99.2877
-509.58
-4.04359
513.624
200.941
-96.0056
1006.23
-1006.23
433.555
-496.008
-542.337
136.065
200.366
-336.432
-447.8
406.565
-331.489
298.941
-328.395
411.468
136.183
-547.651
50.0026
712.685
523.415
-111.947
387.476
-566.272
82.9709
218.929
-301.9
-210.301
-227.807
438.108
254.91
87.0411
-341.951
-297.407
-544.719
842.126
489.84
-746.098
339.324
17.7735
-357.098
-960.137
417.547
96.06
233.924
-249.134
304.398
-356.327
-40.2449
160.114
-119.87
6.00519
-264.781
-254.107
11.7896
242.317
224.069
48.1456
264.223
-355.527
226.901
-93.0133
-503.201
-166.135
-142.371
-389.366
-365.06
-935.258
-168.078
1103.34
-498.959
939.857
-440.898
-143.382
-20.3004
163.682
-669.363
636.834
32.529
-234.147
331.089
-96.9426
255.669
275.065
1.81645
-214.345
873.923
-912.469
38.5466
441.554
-97.4472
183.753
-365.138
177.919
187.22
-228.457
38.8011
189.656
-470.079
-39.5015
133.865
-247.433
304.693
-79.1469
-1055.01
869.578
-505.482
440.117
-129.932
250.693
-120.76
-62.369
378.974
-316.605
354.136
-309.038
-45.0978
-390.925
43.5765
-213.635
-277.515
653.803
-376.289
-53.8842
-261.157
-74.0671
413.391
4.41743
192.087
-196.504
874.952
188.91
-325.458
-39.6807
175.496
178.64
-373.718
-455.517
829.236
-808.912
352.377
446.437
-951.074
504.637
76.2474
-408.44
332.193
-267.193
196.924
-7.95795
467.711
-175.307
-192.285
-461.294
149.856
616.133
7.27506
27.2653
214.387
429.866
-108.267
-321.6
-99.2303
-92.9308
192.161
109.069
191.214
-256.829
9.11096
-118.439
-60.349
178.788
-386.913
-7.69924
394.612
-7.09602
277.495
-270.399
-104.897
495.81
-390.913
-414.266
342.672
-87.7624
-873.405
806.309
338.746
-319.012
-83.2769
-295.408
-84.1652
-284.286
-656.103
-123.016
-509.068
258.583
250.485
-275.136
38.7499
-117.785
129.257
14.9516
174.268
413.344
-587.611
28.0689
-262.413
16.9336
-0.762137
288.986
150.316
-263.482
-58.948
-235.66
294.608
-810.929
796.22
14.7087
235.554
-253.28
17.7258
363.651
532.682
278.008
-356.964
-15.1177
305.538
-724.628
694.209
292.837
-210.667
-82.1698
278.491
-13.374
-184.222
-152.184
-318.269
470.453
-216.173
-100.978
299.755
-355.037
433.57
-522.656
116.878
80.898
-197.777
207.27
-129.169
-78.1009
277.268
-650.986
136.597
-500.77
242.525
-101.102
-141.424
48.1856
-809.94
-423.952
292.889
-340.513
-565.346
641.593
-461.992
68.1408
368.339
-665.746
162.994
-258.7
95.7062
-846.818
895.003
-30.5121
-9.89341
798.809
-222.881
218.156
4.72466
-309.905
200.502
109.403
-228.427
-177.666
-48.7549
420.521
-371.766
534.343
-615.624
35.5339
-223.725
188.191
168.893
-133.359
290.709
87.6753
-265.107
169.26
25.2045
-139.573
766.809
107.114
-430.176
180.157
-246.957
175.968
70.9891
199.041
-233.544
0.213281
193.201
-193.415
-306.936
247.988
-226.874
-11.0895
237.963
-506.222
374.636
169.199
-184.427
-581.076
-65.6279
614.819
4.708
-263.076
-234.576
197.967
-76.1433
-121.824
-126.67
-86.3929
213.062
137.22
-202.653
65.4324
-67.1053
274.859
-207.754
-227.121
217.606
9.51448
-199.702
-27.4191
318.073
111.793
948.049
-696.383
-268.152
-301.508
247.624
190.921
32.9759
-223.897
-961.483
791.566
169.917
-398.495
169.367
229.128
-484.074
-121.787
605.861
-158.964
-806.157
18.247
-304.095
-460.679
452.98
-91.1054
-218.8
231.476
-23.8455
652.957
-96.4808
-556.476
347.64
-452.537
-159.306
756.413
-597.106
-202.064
-216.84
418.905
-288.582
273.464
15.1178
5.93411
-68.8144
206.035
-94.0067
-184.556
-528.413
19.3452
-16.1671
-91.4706
-744.622
37.4854
-432.292
-213.839
87.1697
-271.561
181.121
698.8
260.1
-304.784
165.124
64.7279
-310.284
23.5329
286.751
-269.48
41.023
-37.6397
-996.061
778.179
217.883
-27.7247
230.091
-123.565
276.756
496.239
-521.352
25.1125
-278.628
-200.195
-362.588
399.44
-36.0981
159.037
-122.938
952.658
-796.312
-156.346
28.523
-518.468
489.945
-4.5291
-168.862
173.391
-167.488
-107.647
488.609
-63.6189
-223.717
479.386
-556.723
116.037
440.686
-178.601
276.269
508.159
-346.973
-161.187
296.651
8.20428
-304.856
-260.883
201.684
634.14
-81.0383
-553.102
421.274
-247.006
-433.115
389.426
43.6887
269.289
-4.27645
-241.018
-69.266
-182.128
56.5453
204.657
-500.061
61.7774
438.284
-258.817
264.887
-339.642
332.546
-316.317
-67.4612
-417.547
-450.917
402.162
-530.579
1001.83
-471.246
-133.362
97.2634
-177.231
-221.264
488.598
-50.2442
-438.354
-16.6697
-301.929
318.599
-492.811
556.905
-64.094
399.893
206.196
-100.975
-105.221
160.889
-227.994
202.779
-202.566
-306.918
133.991
413.266
-384.743
-9.7408
-278.841
82.5029
-888.543
888.543
134.614
5.68341
420.514
-426.197
-157.96
183.043
-25.0828
-522.827
312.525
-419.687
61.5813
358.106
42.1144
155.852
-485.38
360.345
125.035
-239.387
437.303
51.3064
308.056
41.9645
-350.02
333.237
-71.2211
-415.004
-21.9519
111.991
-353.176
290.807
331.509
-215.767
-115.742
-59.9883
147.7
-87.7121
-935.258
-302.167
-221.776
125.254
96.5224
-289.369
222.495
-429.884
-521.19
258.095
514.23
-772.326
-148.717
-528.568
677.285
-442.024
178.948
-24.7803
194.04
216.077
-13.2985
-657.696
640.707
16.9891
65.3655
355.908
279.465
-55.785
-223.68
-104.56
-510.622
615.182
-564.676
790.872
-226.196
-572.842
52.5368
-759.86
178.806
581.054
-981.971
413.137
568.833
-282.489
-274.234
-126.622
465.368
-968.609
438.031
-675.443
814.327
-138.884
597.888
-702.448
-209.004
252.394
-234.088
124.359
-799.802
-164.776
-693.972
858.748
649.266
-15.1262
501.256
326.805
-60.6109
264.494
-117.331
97.0306
-119.153
193.248
-524.965
255.423
-228.306
-27.1168
-145.022
320.352
-175.33
-175.39
-87.0232
520.56
-24.3209
-293.231
276.561
12.7663
624.067
-704.026
-650.914
-251.313
-248.748
28.6945
222.515
28.6993
420.053
-448.752
-351.449
333.992
17.4572
-141.208
156.568
561.598
440.227
-345.829
-200.511
546.34
180.723
-236.172
-79.9615
270.458
-64.3221
-355.365
183.434
-224.705
-239.13
304.496
202.292
-129.884
-458.256
-523.714
-295.306
-12.2817
307.588
-281.612
154.137
127.476
-173.66
178.077
-189.46
-92.1517
226.23
-219.964
253.94
-282.445
28.5059
264.924
-68.519
-196.405
-805.212
646.248
-315.076
-290.585
56.438
-281.898
299.672
277.674
-112.364
512.257
194.828
-60.2107
292.304
523.418
-815.723
-195.616
166.605
40.6653
-562.014
409.83
-924.384
280.562
299.704
-798.663
-473.546
-73.1437
546.69
-539.9
468.56
71.3399
287.118
-210.14
52.1798
-609.885
386.168
-9.34371
172.338
-307.25
335.95
161.566
-508.538
-135.496
-37.567
229.314
-6.21113
279.675
270.142
-86.0936
196.665
753.297
-6.97477
298.296
-272.26
-26.0353
-232.221
-115.546
-122.099
-30.9257
266.48
681.728
258.129
86.6041
190.152
337.865
-127.629
-90.5101
288.524
-198.014
-421.398
100.166
496.052
-231.034
-265.018
291.917
-298.128
-18.345
-672.805
691.15
229.541
-834.165
443.239
-232.589
45.3089
-311.666
-96.4332
-368.653
465.086
-124.424
139.123
245.468
-306.079
280.601
2.31828
-874.398
329.993
55.9837
-331.247
-726.468
-514.485
-446.999
242.164
76.3838
-334.698
235.14
-315.101
166.601
75.9246
122.129
-224.606
102.478
-476.663
127.16
509.861
-924.127
-174.539
98.3955
458.211
26.7965
-574.496
-421.566
18.9898
-600.065
-3.14445
299.796
-106.256
371.543
-265.287
-125.246
-90.2612
127.565
-188.109
-91.7608
-344.342
381.642
-212.039
-64.239
276.278
-71.4174
225.554
-280.004
-262.305
244.496
17.8087
43.9292
-235.106
280.415
365.979
-38.546
-312.903
-18.9304
236.537
207.064
-27.1056
-179.959
-115.093
-467.591
54.1296
413.461
-296.339
-124.328
420.667
151.95
-211.939
301.451
-268.312
103.137
-203.2
-112.113
315.313
784.58
311.523
-33.3863
-215.015
248.401
-19.0239
-520.876
-295.306
-742.984
372.048
370.936
8.10301
-299.189
-4.28218
275.907
-15.0159
233.172
251.057
-343.176
92.1194
-459.582
-110.905
-553.527
216.398
337.129
214.308
23.6553
237.816
318.81
-623.768
304.958
214.547
-424.091
209.544
-365.965
383.448
-677.138
293.69
923.79
-899.511
-724.215
446.7
-392.49
-123.643
516.133
165.633
132.662
-329.527
561.784
-368.82
-192.965
370.081
-189.358
-802.939
238.263
251.366
244.686
-227.75
60.2619
377.932
-112.115
181.461
-185.091
3.62937
233.192
11.6584
586.079
-613.246
-514.769
210.491
304.279
79.0716
-335.023
-161.939
496.962
81.9414
361.088
-177.654
265.055
59.9254
-471.397
192.769
284.268
154.086
-438.354
123.458
-253.391
-158.254
-229.251
-206.123
-365.14
20.7975
-28.6823
-629.014
-29.9157
229.421
-199.505
-331.802
172.162
159.64
-347.391
-100.837
448.228
-228.591
-97.0747
192.317
14.7469
-307.25
87.0454
167.679
119.965
-287.644
-274.715
-123.126
397.841
-364.537
-291.42
271.623
19.7971
155.909
-372.283
216.374
150.14
-261.14
111.001
-40.1161
-87.412
-278.184
365.596
-396.248
220.941
211.633
-440.883
-284.974
139.285
145.689
-460.383
142.114
35.0761
-440.143
405.067
-199.055
-63.2504
156.879
376.618
-323.021
-53.5974
-206.005
207.091
-1.0855
-260.399
145.772
114.626
-114.597
-132.36
-283.456
-111.636
903.202
-219.897
-27.1022
277.322
-489.681
289.486
140.468
-347.637
207.169
-361.799
-122.065
483.864
-470.559
-216.773
220.025
-29.104
232.91
689.132
-707.477
-48.934
-273.561
322.495
79.8259
-709.806
629.98
214.974
83.6814
-298.656
294.06
-93.694
-216.52
234.767
-365.495
-40.4064
405.902
-710.83
39.4342
671.395
-449.42
-183.403
-71.0516
-268.591
522.007
-11.2136
-774.359
-19.4477
793.807
-171.89
506.021
-334.131
-187.05
479.354
185.402
-520.426
313.23
-94.3003
89.8096
421.03
-425.883
431.567
-326.476
-126.044
452.52
-524.302
50.7559
330.696
8.30453
58.5721
-275.092
250.106
-52.085
-198.021
-87.0311
-93.5824
290.507
-73.394
-279.782
79.3284
196.941
-303.705
-88.992
392.696
-282.36
332.926
-50.5655
-69.9743
269.015
-336.822
-117.982
454.805
-269.129
135.249
133.88
-138.349
-19.2741
40.7729
-651.869
611.096
-181.086
-252.029
-264.998
-241.774
-338.646
-85.3065
-217.025
-65.2251
282.25
415.455
639.605
179.574
-269.447
89.8735
138.685
502.909
224.814
25.2916
189.534
-242.837
53.3033
-348.493
-157.729
-533.418
-72.7739
340.879
-182.049
315.157
-28.0397
622.837
-180.834
-4.47475
230.705
-246.02
275.996
-29.9767
713.589
2.2068
289.71
-602.158
492.473
109.686
224.416
55.0483
200.096
-29.2401
189.705
-332.077
112.461
-332.516
16.3759
-355.257
362.047
-6.79053
119.35
-223.753
184.778
23.5863
-320.619
323.073
-2.45425
239.659
-303.899
246.469
-13.732
-323.223
-124.577
-55.1766
235.12
11.8987
243.524
306.064
2.20841
-358.26
-145.857
504.117
-81.2236
-151.076
-201.819
-21.9057
94.8791
235.967
263.418
-294.344
286.804
-67.2763
-223.339
239.484
-16.1452
-1061.1
709.151
351.95
-420.166
123.827
279.45
5.71431
-285.164
-57.5805
348.388
577.874
-182.622
-21.0928
203.715
-42.0974
-211.339
-266.861
-53.5832
320.444
-290.313
-52.3667
342.68
-70.123
-510.276
-91.8825
-797.701
785.387
12.3141
78.9505
221.388
-300.339
60.3283
276.923
-166.863
459.826
-292.964
-238.749
-62.7596
-421.458
111.2
-236.446
170.921
-267.583
-322.042
-94.9175
416.959
-95.92
409.561
-313.641
-385.146
-75.5324
-234.58
-71.4982
2.15382
-409.588
-95.8941
-204.185
684.248
8.42739
636.644
-645.072
-198.953
43.9939
225.685
-810.072
584.387
185.886
-414.313
275.271
-19.4837
124.523
-1000.18
-229.041
-86.0599
442.058
-8.50349
-462.636
-393.908
-96.8236
-657.402
213.006
-422.227
209.222
18.6494
256.21
-308.781
-69.7344
378.515
8.81449
-277.682
268.867
830.007
-116.418
-490.608
482.65
-59.6797
-714.68
-66.033
398.579
-846.562
783.556
300.04
-467.854
403.532
-89.7614
-120.906
202.853
169.534
-372.387
-438.285
-244.931
185.245
19.7164
-204.961
-220.292
909.832
29.5618
-992.014
559.722
-219.647
-84.2146
303.862
706.365
31.1879
331.932
-95.4124
376.401
-355.604
-402.315
410.545
-8.23074
323.816
-328.201
4.38528
340.23
-107.32
-14.5555
-393.749
-124.719
-231.711
-104.721
-207.029
-94.8713
-585.508
766.691
-181.183
-203.387
13.9261
-189.872
-379.833
-462.434
412.19
99.9853
-288.095
-139.261
-111.849
251.111
-44.7025
391.552
-346.85
308.625
-60.6371
217.429
-63.399
-154.03
85.8303
-254.692
120.797
174.209
303.974
-88.9996
-296.862
-104.821
208.699
522.768
-148.133
26.4172
-773.673
747.256
-299.745
121.301
-207.395
-30.2879
-46.9746
294.781
41.5851
772.024
-698.619
856.228
-110.792
-745.436
380.042
-76.781
-303.261
128.187
-248.948
-96.5527
510.089
-413.537
-225.502
-63.82
25.6065
-735.412
399.125
-114.909
-291.216
289.355
1.86073
-195.771
-83.197
278.968
206.247
23.0676
-229.314
-32.1834
-128.629
-450.924
-610.178
-427.358
204.813
-13.0895
-234.718
-11.3206
240.862
52.3245
-535.59
483.266
-282.081
248.288
-425.519
190.86
-383.146
698.004
-306.858
69.3972
-271.669
202.272
-110.097
288.016
556.523
-169.047
-240.32
-144.505
233.464
848.932
89.0832
-307.588
229.304
47.0782
724.946
-13.2175
194.679
-326.128
-93.2351
350.631
-57.7423
-436.985
-527.499
156.152
371.347
-153.695
-491.952
645.648
-570.116
1011.67
-699.386
113.877
-462.866
-306.202
276.901
87.4255
-911.813
68.6843
843.129
-338.145
363.885
-64.1298
-4.42806
359.344
329.176
3.74969
224.611
-201.387
-23.2238
-321.921
101.629
-197.648
-8.35769
242.814
351.513
-73.505
602.824
-112.879
283.772
76.2346
531.995
-98.4256
503.933
-90.5892
250.227
-27.9283
-222.299
388.261
-463.052
-314.364
777.416
530.006
-271.423
-283.796
-555.479
80.2802
475.199
304.642
-57.0182
-710.968
677.622
33.3464
517.512
-64.532
-32.9811
635.701
-602.72
-318.933
250.414
274.659
56.4299
419.112
104.303
-377.099
212.708
-24.5167
304.671
3.95443
-427.638
-129.844
-39.4834
589.336
326.11
-317.489
-8.62097
-500.539
40.9571
-372.607
-330.496
302.456
43.1683
328.988
-286.999
290.708
-40.2936
-144.784
-253.307
-232.83
-1.34877
234.178
-401.281
-112.326
-32.3112
547.373
-38.0946
-8.9332
476.644
539.405
-26.3645
-178.011
-275.402
321.913
-46.5111
-100.633
253.276
32.6908
-743.659
-298.371
-211.975
339.418
-393.184
-57.7331
430.934
618.64
225.679
-844.319
-141.175
534.515
-135.39
317.204
-251.33
-65.8742
-115.483
-576.819
-183.04
25
210.574
118.602
-129.738
240.738
-260.906
-255.061
297.602
-42.5412
249.872
294.828
-421.449
691.22
412.115
-252.347
328.934
-76.5872
-245.585
-456.805
-210.361
837.341
18.8868
358.075
-53.4048
-936.349
24.5357
352.707
-88.4844
-744.143
12.4176
-307.825
635.123
207.614
-90.7352
-96.636
7.05466
298.484
-361.507
12.1981
349.309
-210.36
-114.68
242.808
-96.7973
-476.693
-85.3211
488.341
-78.5109
344.611
19.8107
-304.097
-80.0634
-103.545
-519.44
370.724
-118.141
653.362
-627.755
-278.739
353.012
-74.2731
-216.371
40.9812
283.503
23.5657
-445.317
-478.81
-430.973
972.684
-467.875
-504.809
522.702
-82.585
-510.043
-99.8422
-65.8532
18.713
493.445
-107.277
-23.085
48.9208
180.5
-232.129
-198.047
49.6318
-71.265
535.331
-112.562
-407.291
-360.289
308.413
267.911
-1.43056
406.69
-62.0791
-55.0307
-149.155
-183.297
-309.65
30.8088
65.9881
-267.807
438.575
-650.525
564.879
-85.5651
-479.314
758.952
-726.261
383.999
-44.5813
-280.437
-311.253
27.2398
533.801
-102.867
-758.201
784.618
220.044
-4.40283
-215.641
-112.81
212.795
457.082
-54.9198
556.348
-130.567
-282.428
284.635
-107.147
-114.63
-201.944
228.194
-26.2509
-107.236
272.869
296.83
-36.7301
-64.5925
251.189
-473.427
-278.343
271.586
-235.85
-35.7359
-374.557
380.518
-5.96078
-18.4262
-100.279
275.775
308.599
-311.488
2.88904
-248.976
-123.758
-0.772265
160.887
-324.434
398.357
-43.3769
787.221
-743.844
-507.605
341.497
-46.6697
28.5039
348.73
11.8247
-360.554
7.11114
382.315
199.699
479.995
26.9632
467.631
44.6262
355.973
-47.9177
-44.4986
234.033
213.342
75.1823
-855.478
863.905
-301.222
286.892
14.3294
-550.825
252.271
-1.0817
743.254
-545.286
-197.968
261.508
-187.372
-74.1354
433.125
229.558
25.5009
495.059
-200.016
619.117
-419.101
70.7382
-50.2229
841.18
-790.958
-381.928
294.516
476.96
198.848
237.801
-1.26468
228.321
-166.088
-477.334
643.422
36.3729
210.096
55.0253
-558.771
571.468
-508.907
791.838
-277.956
-513.882
-290.641
-166.036
37.5881
270.86
0.763068
-230.769
-254.611
-336.252
-472.66
6.06367
186.751
-192.815
294.805
268.077
192.91
-792.616
768.449
24.1671
4.768
409.384
-450.425
41.0411
285.657
52.6235
5.57483
734.579
-740.154
84.5748
237.338
31.4545
99.9414
-293.309
308.254
-14.9451
-888.441
-46.8169
199.265
-118.33
-485.932
604.263
-295.16
809.39
-138.679
-393.91
-106.629
-561.549
141.715
355.247
40.6175
-257.516
-24.9117
197.957
-149.036
4.18431
842.941
45.6014
-16.0642
305.774
474.049
-357.625
-116.424
-626.42
265.629
360.792
117.18
173.326
364.909
-348.656
232.915
129.755
287.204
229.902
222.265
17.2186
69.91
-484.312
414.402
803.626
-251.53
-552.095
181.74
190.922
-372.661
320.965
402.042
254.445
3.60385
-626.302
-305.992
241.186
-889.939
368.17
56.5877
-425.241
66.7822
-633.578
-101.834
248.894
-362.394
352.308
554.683
-568.349
645.205
-76.8564
-13.5128
375.373
412.809
-301.179
-31.0909
167.994
-136.903
-303.446
298.495
-18.8202
625.506
-347.866
-23.2749
378.428
-355.153
62.371
-185.24
226.643
-41.4028
-245.56
221.128
24.4319
287.771
504.067
171.124
-405.315
398.794
-1049.44
1055.01
99.5351
-8.67431
438.508
179.637
-58.3366
416.675
340.33
216.27
24.507
243.155
366.534
-26.4223
-340.112
-650.42
648.303
2.11678
234.283
200.019
-13.2673
502.548
-432.639
-211.311
765.994
258.119
90.3248
234.16
-361.789
-180.023
26.8643
244.721
720.798
-149.411
-571.387
-835.95
899.511
296.593
339.827
209.752
-204.037
554.117
-992.403
409.938
312.482
278.928
-45.2617
452.932
291.564
60.0928
-418.382
358.289
-219.277
301.637
-13.3217
-2.93441
-824.373
694.126
792.699
-194.811
335.217
235.532
99.7502
341.342
-20.4016
-320.94
269.771
261.658
283.72
-191.3
90.325
-275.147
285.686
-10.5385
411.9
-515.409
-256.916
-5.22259
221.493
427.878
-573.735
-277.971
20.4545
437.907
-106.062
-242.354
348.415
-334.469
-193.03
635.003
106.075
426.535
-943.102
516.567
-461.485
418.705
42.7801
-3.6496
255.453
-251.803
327.863
-265.493
259.551
-236.765
-22.7855
264.945
8.01976
-193.259
-846.818
69.7276
315.146
-384.873
-30.9016
719.838
-688.937
323.923
-296.66
-27.2633
-445.707
431.629
269.331
-227.746
-400.02
978.688
-578.668
288.216
-14.183
199.428
538.492
461.508
-190.145
211.685
11.1616
-222.847
-28.6657
400.892
-593.43
33.5768
559.854
203.197
255.012
-326.51
-19.6104
-354.947
-909.832
859.609
-495.191
1033.68
337.868
-51.1788
240.84
-2.28335
-238.556
489.852
-435.722
66.6948
-718.564
-460.63
-0.854545
-260.029
320.079
-469.537
-499.072
299.491
-18.9319
-280.56
-959.784
439.582
-797.701
158.139
34.2551
-192.394
32.4045
597.575
648.96
-633.979
-295.231
818.649
-88.1482
211.855
372.359
-507.891
135.531
-120.675
351.003
-230.329
-703.542
750.62
-388.424
228.856
-225.242
234.733
-9.49099
-274.89
701.425
314.92
589.559
27.9061
-786.107
-232.781
247.273
-333.333
-63.458
-228.601
240.39
-895.003
979.461
176.666
39.8371
-216.503
266.854
-262.666
-92.861
30.71
398.953
208.547
-607.5
502.752
-902.772
471.074
-57.8077
-223.878
-4.86232
228.741
-114.535
-195.115
-254.459
58.0543
-164.293
-139.229
303.522
292.001
-265.136
-114.797
-319.702
434.499
282.431
290.829
-17.8218
-294.476
312.298
-691.373
18.5676
847.112
-888.441
923.79
-945.469
933.945
939.914
-939.914
-835.95
-1000.18
242.104
-201.486
-240.645
-206.406
-189.088
-4.32685
735.439
-956.733
221.294
-863.905
14.3367
-284.74
194.686
-36.5472
-763.315
791.221
229.376
-7.08239
-222.293
-249.306
258.12
-11.9219
-250.298
262.22
248.687
-14.221
-234.466
203.07
-230.187
-23.7012
-253.924
277.625
-188.794
201.771
-12.9776
250.84
281.67
-348.254
408.347
107.766
-184.81
77.0441
-360.529
-577.266
-194.958
208.437
-13.479
-420.01
-84.167
504.177
196.382
-176.666
43.707
202.977
-26.3106
-349.938
234.392
451.429
-99.1208
199.14
456.615
-47.2311
316.013
-378.721
62.7074
19.2542
-634.805
667.21
262.355
-462.371
-783.827
730.326
53.5005
480.823
497.865
51.7262
399.703
-233.393
252.042
-73.1698
-710.657
243.014
-327.229
694.49
-875.673
316.426
-707.279
390.853
131.207
263.912
-205.833
-58.0788
-46.893
-388.914
-867.276
592.385
-3.12703
262.043
3.26381
-311.892
308.628
18.5561
-42.7407
236.72
281.793
-37.0715
185.218
-58.2062
-127.011
738.334
20.6181
273.069
305.9
6.81338
183.55
-226.644
43.0934
237.053
-301.824
298.679
-287.37
-203.886
218.316
-14.4296
74.8527
-494.863
246.952
151.405
-89.6561
825.095
-593.869
400.904
544.799
-632.858
227.418
-321.719
315.467
-436.142
195.542
-300.263
218.728
-195.661
-316.467
222.773
-192.025
-8.7666
200.791
224.542
-319.413
368.408
-266.394
-102.014
-1.20199
484.468
-442.548
-560.347
1002.89
-713.376
632.337
-50.5409
-320.453
370.994
21.3891
50.5368
-311.302
307.02
-272.433
-5.53742
203.318
48.6679
-251.986
-188.828
-233.399
-308.225
223.221
-208.787
-14.4345
-311.892
-412.582
412.582
188.445
-659.004
176.773
156.25
308.628
727.497
-235.024
-41.6665
-646.019
687.685
522.502
-81.8159
237.19
-365.866
316.932
383.148
244.914
4.55086
232.347
-172.327
-60.02
-38.6926
-686.756
686.756
-174.301
-389.141
-98.08
-138.366
206.633
20.2685
-156.522
227.108
-424.038
480.116
-184.519
-198.627
695.795
-487.915
-207.88
-136.751
-112.197
505.461
-144.364
-77.9471
-30.4006
-487.152
517.553
-500.332
-287.5
509.229
-14.17
-25.554
-708.5
542.412
-458.479
-65.8229
767.596
19.6244
232.45
-113.057
773.861
-660.804
89.3186
806.45
683.243
827.176
152.787
-216.186
-388.213
-72.4171
-238.894
249.691
-214.105
50.0116
-203.02
-897.076
41.2007
855.876
30.6511
404.601
810.279
-265.051
248.873
16.1787
1066.41
-542.391
-524.015
-169.455
7.83777
474.812
203.662
-37.0573
297.806
248.534
431.201
-772.064
956.355
-184.291
-368.286
7.99694
233.018
18.9998
665.248
-79.6793
-221.542
-204.444
-226.529
205.829
92.3817
635.115
690.225
-731.892
92.1204
-795.662
23.2746
654.347
752.35
-849.68
97.3301
-627.621
536.333
91.2879
627.392
-563.68
-63.712
-447.045
521.898
48.9011
-121.373
-113.825
235.198
158.264
305.432
-583.718
400.315
191.737
-191.737
-200.671
219.885
-879.273
436.726
-652.761
534.43
-555.479
855.478
-945.134
24.3593
-238.399
206.463
-203.29
-211.023
-248.659
23.6901
357.952
36.9805
343.061
-353.596
-358.978
30.777
394.515
-665.939
-55.3416
-726.829
782.171
206.543
-289.74
55.5031
148.166
-260.016
-623.588
656.117
-178.335
-89.248
8.2954
531.275
122.529
-311.896
-18.6003
-455.125
957.877
863.911
-863.911
334.156
44.2718
14.0864
462.557
-761.608
17.7645
649.495
17.7154
80.4613
417.646
-498.107
216.63
303.909
-4.1135
9.43301
672.103
19.0467
-802.161
619.121
195.879
302.974
-498.853
-808.875
530.919
211.233
-409.743
22.2617
-650.017
-191.594
-41.4066
233.001
-120.172
228.97
-108.799
15.638
45.739
357.291
42.1499
-205.242
17.3884
-236.62
514.427
658.175
61.6636
12.4891
119.584
-124.472
-175.867
198.199
388.545
-498.275
-707.89
-64.1739
-202.073
-467.155
-475.947
-274.078
-360.737
624.946
-515.261
6.8255
798.071
-804.897
318.303
50.1043
394.212
-60.0557
614.866
-51.5877
-563.278
313.684
-14.7425
-569.924
-92.6471
662.571
-9.36682
-224.378
-583.252
402.419
-176.744
-41.7781
218.522
229.9
611.282
66.2101
-210.101
-121.975
25.3713
205.84
-546.329
638.711
195.36
4.06797
-200.283
398.776
-198.493
283.407
-827.055
543.649
-778.458
19.5979