/*--------------------------------*- C++ -*----------------------------------*\
  =========                 |
  \\      /  F ield         | OpenFOAM: The Open Source CFD Toolbox
   \\    /   O peration     | Website:  https://openfoam.org
    \\  /    A nd           | Version:  7
     \\/     M anipulation  |
\*---------------------------------------------------------------------------*/
FoamFile
{
    version     2.0;
    format      ascii;
    class       volVectorField;
    location    "11";
    object      U;
}
// * * * * * * * * * * * * * * * * * * * * * * * * * * * * * * * * * * * * * //

dimensions      [0 1 -1 0 0 0 0];

internalField   nonuniform List<vector> 
7807
(
(1.06516 0.0989681 5.17658e-20)
(1.05603 -0.0227798 1.61248e-19)
(1.02558 0.0810367 -8.25264e-20)
(1.04123 0.0594807 1.65218e-19)
(1.01909 -0.00222856 2.51074e-20)
(1.00589 -0.0173799 1.88383e-20)
(1.02405 0.075062 -1.63398e-19)
(1.0166 -0.00296397 6.35132e-22)
(1.01618 -0.00149878 2.16208e-20)
(1.02827 0.000696544 -1.42226e-20)
(1.01255 -0.00633674 -2.07718e-20)
(1.02002 -0.00238626 -4.02281e-20)
(1.01381 -0.00367303 -3.94608e-20)
(1.02614 -0.00104131 -1.68614e-19)
(1.02715 0.00150004 5.93581e-20)
(1.01566 -0.00935349 6.2916e-20)
(1.06587 0.102993 -1.09886e-19)
(1.00961 -0.00221648 1.09914e-20)
(1.02215 -0.00584713 -3.18526e-20)
(1.00877 -0.0628772 1.35779e-20)
(1.03888 0.0027422 -4.55381e-20)
(1.01935 0.000415055 1.14016e-19)
(1.02831 -0.00183092 2.18014e-20)
(1.01305 0.0324031 -1.00386e-19)
(1.00492 -0.00183514 3.91066e-20)
(1.06243 0.0973644 -5.19018e-20)
(1.01943 -0.00176052 2.09364e-20)
(1.03144 0.00075007 5.55834e-20)
(1.00668 0.0170324 -1.46233e-20)
(1.02165 -0.00566241 2.84362e-20)
(1.01202 -0.0100159 8.97666e-20)
(0.722764 0.016495 1.69813e-20)
(1.02701 -0.00186853 1.17598e-19)
(1.01705 -0.00314467 -4.71549e-20)
(0.672148 -0.00245301 1.63607e-22)
(1.02816 0.00224691 2.26801e-20)
(1.02294 -0.00731696 2.0952e-20)
(1.02486 0.0734808 -2.77507e-20)
(1.01679 -0.00608307 -1.13538e-19)
(0.98209 -0.00399071 -5.66973e-20)
(1.01725 -0.00600197 1.14282e-20)
(1.01566 -0.00905246 2.34798e-20)
(1.02747 -0.069591 -6.50114e-20)
(1.127 -0.0225824 -2.3454e-20)
(0.645626 -0.00294243 -2.67288e-20)
(0.994301 -0.000165725 1.26429e-20)
(1.01805 0.000489245 -6.93518e-20)
(1.01812 -0.00540139 6.68317e-20)
(1.01586 -0.000242254 1.18065e-20)
(1.01172 -0.0633504 -2.00077e-20)
(1.02058 -0.00186586 3.21399e-20)
(1.03223 0.00178638 -6.00298e-20)
(0.988353 -0.00106512 1.07929e-19)
(1.02698 -0.0183889 2.29167e-20)
(1.02756 0.000622305 -1.74505e-20)
(1.01721 -0.00335195 1.15875e-20)
(1.02045 -0.00482766 5.02316e-20)
(1.01552 -0.00292871 -7.47281e-20)
(1.0066 -0.0114856 1.02428e-19)
(1.017 -0.00400761 5.72227e-20)
(1.01521 -0.00117047 -2.8737e-20)
(1.02174 -8.29442e-05 3.05816e-20)
(1.02711 -0.000400247 -3.811e-20)
(1.01906 -0.00202582 4.10699e-20)
(0.998206 -0.00599036 -4.47193e-20)
(1.01242 -0.0102802 -1.43248e-20)
(1.01532 -0.00210065 -2.01514e-20)
(1.01323 0.0002035 2.91475e-21)
(1.12184 0.0638597 5.29719e-20)
(1.01831 -0.00464433 2.69108e-20)
(1.01186 -0.000866259 -1.14181e-20)
(1.00178 -0.0359862 1.20096e-19)
(1.01161 -0.00276497 -1.94312e-20)
(0.950128 -0.00367976 -1.64461e-20)
(1.01379 -0.00222691 -3.44676e-20)
(0.998216 -0.016918 1.63399e-20)
(1.02669 0.0819531 1.32219e-19)
(1.03737 0.00240177 5.72236e-20)
(1.07645 0.00903994 -1.18429e-19)
(0.991652 -0.0291103 1.35396e-19)
(1.01601 -0.00355433 6.07059e-20)
(1.01661 0.0694302 1.8667e-19)
(1.04062 0.0109433 1.00293e-19)
(1.0032 -0.00532157 -7.303e-20)
(1.01708 -0.00346375 3.42416e-20)
(0.928349 -0.00807931 -1.86098e-20)
(1.01634 -0.00324637 -9.96525e-20)
(1.00142 -0.00234 -6.91112e-20)
(1.01807 -0.00202223 -2.87688e-20)
(0.936007 -0.00372871 -3.57917e-20)
(1.00691 0.0193869 1.03757e-19)
(1.15134 -0.00936807 3.6521e-20)
(1.01401 -0.00208292 2.00262e-20)
(1.02059 -0.00500494 2.34552e-20)
(1.01632 -0.00295347 -4.23497e-20)
(0.734068 -0.00376895 1.26574e-19)
(1.00335 -0.0358059 -7.22191e-21)
(1.02798 -0.017388 -3.94847e-20)
(1.01653 -0.00349444 -6.87269e-21)
(0.984229 0.000484549 -1.24965e-20)
(0.968964 -0.0118467 -3.44312e-20)
(1.07695 0.012838 8.90308e-20)
(1.01703 -0.00268284 1.05294e-19)
(0.697319 -0.00117969 5.55942e-22)
(1.15354 -4.24832e-05 2.31953e-20)
(1.03186 0.0304041 -9.99635e-20)
(0.923767 0.0462619 2.30498e-20)
(1.01714 -0.00317052 4.42881e-20)
(1.01207 -0.000629939 -9.99217e-22)
(1.03484 -0.00549669 -4.83037e-20)
(1.04342 0.057077 -1.91758e-19)
(1.03887 -0.0501897 1.23129e-19)
(1.01222 -0.000311137 1.23855e-21)
(1.03649 -0.00583404 -1.0483e-20)
(1.02848 0.0299311 1.04342e-19)
(1.01754 -0.00031257 -1.53971e-20)
(1.07207 -0.0592366 9.0874e-21)
(1.03214 0.0190151 -2.76724e-20)
(1.00986 -0.0283321 -7.37676e-20)
(0.984441 -0.00342705 1.74772e-20)
(0.849899 -0.00812568 8.13715e-20)
(1.00708 0.0583795 -1.24347e-19)
(1.03199 -0.068608 8.93055e-20)
(1.02429 -0.00315052 1.3431e-20)
(0.907602 -0.00902946 -3.20276e-20)
(1.01777 -0.00255971 -6.12516e-20)
(1.01344 -0.00744378 -3.29518e-20)
(1.02073 -0.00546135 -3.85482e-20)
(0.939655 -0.00673231 1.00915e-19)
(1.01273 -0.00904837 -2.16327e-21)
(1.18183 -0.0217165 1.07756e-20)
(1.07218 0.00708327 1.98573e-20)
(1.01767 -0.00339295 -4.45378e-21)
(1.01745 -0.00221477 6.38784e-20)
(0.998394 -0.00516807 -2.09498e-20)
(1.04131 0.0512554 7.63556e-20)
(1.01762 0.091591 2.08161e-19)
(0.918211 0.00282581 2.36435e-21)
(1.02521 -0.00174322 7.35968e-21)
(0.749619 0.00283452 8.58343e-20)
(0.87306 -0.00516176 7.15244e-20)
(1.01312 -0.0398744 9.25845e-20)
(0.998552 -0.0183011 -2.18995e-20)
(0.947227 -0.00365683 1.30263e-21)
(0.793925 0.0119453 9.05035e-20)
(1.02896 -0.0283898 6.06066e-21)
(1.01374 0.0193309 -5.54087e-20)
(1.0079 -0.0137639 5.50512e-20)
(0.787833 0.00222007 -1.50919e-20)
(1.00835 0.0646157 -6.20742e-20)
(1.03021 0.0034558 6.62424e-20)
(1.14095 -0.012017 1.58035e-20)
(1.01826 -0.00232343 9.6494e-20)
(1.1263 0.0580373 1.26949e-20)
(1.03925 0.0103422 -1.06213e-19)
(1.029 0.074518 -1.43604e-19)
(0.995042 -0.0201339 -5.88989e-20)
(1.00017 -0.00539024 -1.47681e-20)
(1.01844 0.063033 2.08225e-19)
(1.01613 -0.000844939 1.23579e-20)
(1.02063 -0.0049484 -5.8532e-20)
(1.01439 0.0361857 6.89556e-20)
(1.01334 -0.00236533 -1.48363e-20)
(1.01807 -0.00411046 1.17175e-19)
(1.01085 -0.00105831 1.88735e-20)
(1.00676 0.0445948 -2.07868e-20)
(1.0042 0.0425304 7.4674e-20)
(1.01289 0.0609559 6.48028e-20)
(1.01776 -0.00457646 5.07205e-20)
(0.887729 -0.00343188 2.36848e-20)
(1.01411 0.00128157 -2.92409e-21)
(0.602466 -0.00465995 1.29674e-19)
(1.01785 -0.000882727 2.05878e-20)
(1.05742 -0.0201059 -1.88652e-19)
(1.02505 -0.00225881 4.79798e-20)
(0.869609 -0.00299516 -3.07682e-20)
(1.14553 0.00784173 4.30968e-20)
(1.08848 0.0618379 4.30287e-21)
(1.01437 -0.002329 -1.16196e-20)
(1.01786 -0.00212828 5.84167e-20)
(1.0422 0.0614321 -2.7495e-20)
(1.01307 0.00100099 5.42451e-21)
(0.880646 -0.00669261 -6.08507e-21)
(1.02434 0.076279 -1.34351e-19)
(1.05777 -0.0248633 8.17714e-20)
(1.0289 -0.0418072 7.83113e-20)
(1.01113 -0.027398 1.05883e-19)
(1.00123 -0.0052207 -5.29608e-20)
(1.02701 -0.0294362 -1.49586e-20)
(0.702155 -0.00588784 -4.53329e-20)
(1.01246 -0.0028588 4.61581e-21)
(1.00383 -0.0334296 2.95828e-20)
(1.09014 0.0672924 -7.94994e-20)
(1.0171 -0.00256311 -1.51658e-20)
(1.01642 -0.000408416 -1.44364e-20)
(1.06866 0.0639051 6.22242e-21)
(1.01733 0.00110316 -9.52829e-20)
(1.01321 -0.00853235 -4.91338e-20)
(1.02494 -0.0278447 -5.35611e-20)
(1.01461 -0.000974949 -1.2269e-21)
(1.01832 -0.00198389 -5.01558e-20)
(1.03859 0.0516518 8.63996e-20)
(1.08023 0.0709613 -8.96206e-20)
(1.02613 0.0712361 -1.88391e-20)
(1.06881 -0.0545593 -5.12177e-20)
(1.04148 -0.0474615 -2.53262e-20)
(1.10756 -0.0821606 1.32498e-20)
(1.02999 -0.00228789 1.4999e-19)
(1.03555 0.0508071 -3.1932e-20)
(0.852493 -0.0125672 2.57267e-20)
(1.01602 -0.000479803 8.30797e-21)
(0.660995 0.0499323 -9.98808e-20)
(1.01608 -0.00896844 2.54943e-20)
(1.01767 -0.00371327 3.95601e-20)
(1.00536 -0.0329181 -6.85123e-20)
(1.01322 -0.00783206 3.65509e-20)
(1.03275 0.0704253 -1.7245e-19)
(1.03027 0.0698856 -3.83888e-20)
(1.01133 -0.0408156 -2.38779e-20)
(0.938579 0.0322321 -6.8801e-20)
(1.01952 -0.000515853 7.21773e-20)
(0.999202 -0.00237927 -3.84307e-20)
(0.948771 -0.011339 -4.46229e-20)
(1.03764 0.00568553 -2.97134e-20)
(1.03049 -0.0884442 5.99972e-21)
(1.07902 0.099701 -1.24661e-19)
(1.02071 0.0596762 -1.81872e-19)
(1.01535 -0.00147689 2.09555e-20)
(1.02364 -0.00353345 1.77365e-20)
(1.02993 0.0213973 1.44646e-19)
(1.01797 -0.0045946 8.90624e-20)
(1.03437 0.0195883 -1.9082e-20)
(1.01791 -0.00205864 2.08739e-20)
(0.99793 0.0586299 1.26615e-19)
(1.02892 0.0718462 2.95691e-20)
(1.01632 -0.00310402 -6.06684e-20)
(1.02207 -0.00543461 -3.50909e-21)
(1.00622 -0.00311737 1.08141e-19)
(1.10509 0.0840529 4.27355e-20)
(0.879303 0.00488284 -2.11169e-20)
(1.01721 -0.00681552 -2.49681e-20)
(0.976598 -0.018594 -5.11939e-20)
(1.01572 -0.000129128 4.77416e-21)
(1.01735 -0.00344295 2.54475e-20)
(1.01789 -0.00211204 -2.31441e-20)
(1.06253 0.0422828 9.75996e-20)
(1.01412 -0.00221256 -1.96132e-20)
(0.839291 0.00433672 -1.7617e-22)
(0.993223 -0.0289807 -1.57978e-19)
(0.590863 0.0209899 -3.71444e-20)
(1.07174 0.00354801 -2.92382e-20)
(1.01094 0.0484388 1.01208e-19)
(0.994587 -0.0116802 1.53037e-20)
(1.0233 -0.0284821 -4.55978e-21)
(1.01659 -0.00291123 4.50857e-20)
(1.02733 0.0754788 -1.36944e-19)
(1.02005 0.000546676 -3.77555e-20)
(1.02306 0.0833303 6.66453e-20)
(1.02155 -0.00677535 -9.43982e-20)
(1.01918 -0.00142478 6.38644e-20)
(1.03973 -0.0193471 -7.29403e-20)
(1.0294 -0.000954684 -1.39832e-19)
(1.01769 -0.000657345 3.1836e-20)
(1.00555 -0.00628347 -1.66634e-21)
(1.01775 -0.00099089 8.03672e-20)
(1.01817 -0.00476694 7.52481e-20)
(1.03408 -0.0434703 -9.76126e-20)
(1.01425 -0.00703333 -1.01989e-20)
(0.995973 -0.0191759 -4.31424e-20)
(1.01583 -0.00166726 4.06636e-21)
(1.01422 -0.00169901 -2.09952e-20)
(1.01781 -0.00356026 -1.19225e-20)
(1.0221 0.077374 1.58012e-19)
(0.792276 -0.00369228 -1.79452e-20)
(0.928172 -0.00803774 1.10009e-20)
(0.4468 0.0329495 1.57711e-19)
(1.01721 -0.0039232 4.83003e-20)
(1.05883 0.0785146 -6.68769e-20)
(1.01639 -0.00296684 -6.56028e-20)
(1.02456 -0.0139827 6.97428e-20)
(1.01545 0.000531104 -9.15917e-22)
(1.00958 -0.0225446 4.54167e-20)
(1.03774 0.00587095 4.28948e-20)
(1.14691 0.0154206 -9.95415e-20)
(1.00672 -0.0124595 -8.77904e-20)
(1.01722 -0.00245868 -7.29513e-20)
(1.00813 -0.0530434 -3.41836e-20)
(0.235744 0.00128765 -4.88183e-20)
(0.854128 0.00594078 -4.11508e-21)
(1.01772 -0.000843343 -7.13082e-20)
(1.01839 -0.00332999 -5.61592e-20)
(0.980755 -0.00858648 5.76818e-20)
(1.02185 -0.000726879 -6.21583e-20)
(1.01769 -0.002613 -3.2154e-20)
(1.00425 -0.00517749 -1.23388e-20)
(1.03726 -0.0417708 6.55994e-20)
(0.999885 -0.00380999 -5.35639e-20)
(1.12145 -0.0163204 6.71179e-21)
(0.970621 -0.00385124 5.67885e-20)
(1.03473 0.0813292 1.55265e-20)
(1.03282 0.0825658 -1.16724e-19)
(1.0173 -0.00229451 5.06619e-20)
(1.16505 0.0144494 1.26606e-19)
(1.0133 -0.00446618 1.73599e-21)
(1.01878 -0.00381513 5.98252e-20)
(0.55423 0.00609436 -1.3053e-19)
(1.01003 0.0286778 5.90779e-20)
(1.0423 0.0139169 -8.84189e-20)
(1.01566 -0.00164498 2.86603e-20)
(1.01867 -0.00302852 8.6992e-21)
(0.988193 -0.00387558 -4.28764e-20)
(1.05125 0.0383854 -3.93571e-20)
(1.01773 -0.00263601 -3.4726e-20)
(1.01943 -0.00148988 2.85985e-20)
(1.01885 -0.00057646 -6.66169e-21)
(1.10765 0.0272251 1.02745e-19)
(1.18129 -0.0322189 6.61354e-20)
(1.04383 0.0924421 7.73896e-20)
(0.965299 0.00154862 4.68735e-20)
(1.06462 -0.0234532 -1.60162e-19)
(1.01443 -0.00205669 2.03873e-20)
(1.02231 -0.00506996 -9.87095e-20)
(1.01647 -0.00076571 4.27586e-21)
(1.01157 -0.013443 -1.51182e-20)
(1.00805 -0.0044148 1.86394e-20)
(1.02757 -0.0128632 9.75741e-21)
(1.18453 0.0169225 -1.07534e-19)
(1.00355 -0.0179118 -8.56938e-20)
(1.02543 -0.0131645 -2.03587e-20)
(1.02327 -0.00296252 -2.91927e-20)
(0.987677 -0.00903751 -5.04041e-20)
(1.03672 -0.00984831 3.20782e-20)
(1.01847 -0.0116065 -4.4496e-20)
(1.07236 0.0164943 -4.42744e-20)
(1.05873 0.0410693 4.73012e-20)
(1.1478 -0.0924333 -1.01597e-21)
(1.12489 -0.0299848 5.88425e-20)
(0.411749 -0.0035484 5.20122e-20)
(1.02216 -0.00211056 6.90234e-20)
(0.978434 -0.0177195 2.09315e-20)
(1.00841 0.0580274 -2.03011e-19)
(1.10927 -0.0307489 -1.03082e-19)
(1.03485 -0.0037554 -9.49467e-20)
(0.97947 0.0382328 -9.62714e-20)
(0.903198 -0.0086427 -2.28828e-20)
(1.0172 -0.0024856 1.38804e-20)
(1.13837 -0.0201209 5.84619e-20)
(1.01831 -0.00297994 2.84932e-20)
(1.02914 -0.0261405 -2.0763e-20)
(1.0227 -0.00237986 2.20062e-20)
(0.9503 -0.0029193 2.30018e-20)
(0.967683 -0.00379633 4.71553e-20)
(1.03392 0.0272659 7.94214e-20)
(1.0155 -0.00184291 8.81355e-21)
(1.01768 -0.000239042 -2.8035e-20)
(1.01552 -0.00046126 2.48904e-20)
(0.990497 -0.000996557 -1.06887e-19)
(1.0168 -0.00655211 -6.74129e-20)
(1.01331 -0.0160968 -2.48339e-21)
(1.0168 -0.00169327 -6.91225e-21)
(1.00733 -0.0108948 -3.1831e-20)
(0.860633 0.0324908 5.72278e-20)
(1.02683 -0.0138892 -4.38536e-20)
(1.01633 -0.00845767 -9.4329e-20)
(1.02487 0.0657261 2.65986e-20)
(1.00436 0.0495966 1.19856e-19)
(1.06416 0.00720105 -4.23759e-20)
(1.1577 0.0189713 -4.81174e-20)
(0.459258 0.00743148 -7.07235e-20)
(1.02218 -0.00239083 -3.60827e-20)
(1.0131 0.0479072 -5.95981e-21)
(0.968805 -0.00289133 8.46106e-20)
(1.04708 0.0779515 3.2478e-21)
(1.02679 -0.0317354 -2.58384e-21)
(1.04744 -0.0785571 2.89655e-20)
(1.0771 0.0686474 5.51993e-20)
(1.04845 0.0811015 -7.5831e-20)
(0.996748 -0.0163704 -1.01812e-19)
(1.04398 0.012367 -6.24581e-20)
(1.08186 0.103269 1.17127e-19)
(1.0551 0.0787004 1.18943e-19)
(1.03081 0.00043128 4.83099e-20)
(1.01726 -0.00274151 -2.49981e-20)
(1.01723 -0.00339868 -1.71612e-20)
(1.01266 0.000421733 9.99563e-21)
(1.03114 -0.0167205 3.02341e-20)
(0.918923 -0.000429723 -1.99263e-20)
(1.0182 -0.00287632 -3.64672e-20)
(1.00223 -0.0113262 1.6901e-20)
(1.0176 -0.00163622 -1.91746e-20)
(1.00624 -0.0521622 5.64664e-20)
(1.09497 0.0356015 3.78209e-20)
(1.00812 -0.00381139 8.01334e-20)
(1.0186 -0.00792825 -1.07443e-19)
(0.9934 0.00115858 5.2524e-20)
(1.06299 -0.0254997 5.69716e-21)
(0.995391 -0.00733755 1.00632e-19)
(1.02056 -0.00461867 7.00477e-20)
(1.09154 0.100585 1.85104e-20)
(0.980319 -0.000833845 1.16206e-19)
(1.01461 -0.00195073 1.68597e-20)
(1.01594 -0.00179954 6.12693e-21)
(1.01534 -0.00168429 3.94984e-20)
(1.00569 -0.00517481 -3.04191e-20)
(1.03215 0.024603 -9.98921e-20)
(0.930204 -0.00673215 -1.5151e-21)
(1.03276 -0.00409699 6.48697e-20)
(1.03631 -0.0926658 -4.2992e-20)
(1.02557 0.0724901 -3.035e-21)
(1.02187 -0.00546429 3.74616e-20)
(1.02433 -0.0029299 -6.51051e-21)
(1.01676 -0.00323011 4.96603e-20)
(1.0199 0.078139 -1.55877e-19)
(0.919928 -0.00358644 -2.50874e-20)
(1.04563 0.0949361 -4.01909e-20)
(1.01143 0.0200767 -1.01912e-19)
(1.00828 -0.00335724 -1.96687e-20)
(1.02532 -0.0324912 5.86909e-20)
(1.00841 -0.00129662 5.20909e-20)
(1.01558 -0.0405405 -1.1634e-19)
(1.01733 0.000399265 2.69427e-20)
(1.06021 0.00954642 5.73077e-20)
(1.02422 -0.00995749 -2.10504e-21)
(1.02352 -0.00194562 1.08295e-20)
(1.00139 -0.00679966 6.24398e-20)
(1.06698 0.0401799 5.11192e-20)
(1.04748 0.0375921 1.48205e-20)
(1.0275 -0.0435719 -6.62013e-20)
(1.00781 -0.0127997 5.69933e-21)
(1.01869 -0.00347949 3.95386e-20)
(1.02145 -0.0253571 1.35384e-19)
(1.12277 0.0504455 -7.75082e-20)
(0.822227 0.0259134 -8.39401e-20)
(1.08264 -0.0499087 4.77515e-20)
(1.02285 -0.00529811 -2.05567e-20)
(1.01277 -0.000751685 9.78233e-22)
(1.01333 -0.00340094 7.85641e-20)
(0.975558 -0.00433197 -9.2753e-20)
(1.03656 -0.00939472 5.30427e-20)
(1.02498 -0.0730545 2.32691e-20)
(1.16412 0.00388553 -4.78682e-20)
(1.02407 0.0724728 -1.79804e-19)
(1.05452 0.0357401 7.08907e-20)
(1.10918 -0.0731749 -4.88671e-20)
(1.06866 0.0684434 2.12337e-20)
(1.0113 0.0724195 1.9381e-19)
(1.03146 -0.00232261 5.53775e-20)
(1.01855 -0.00172067 8.03373e-20)
(1.03301 0.0557024 4.3076e-20)
(1.01826 -0.00274632 -6.06096e-20)
(1.01559 -0.00304741 -1.75056e-20)
(0.740389 -0.00229327 -2.1144e-20)
(1.01743 -0.00126573 6.0305e-21)
(1.11478 -0.0887709 -1.75746e-20)
(1.02255 -0.0111427 4.97049e-20)
(1.01084 -0.0223251 -8.23175e-20)
(1.01892 -0.00126366 2.57426e-20)
(1.06468 0.0616628 1.17251e-19)
(0.985637 -0.00189205 9.67658e-21)
(1.01457 -0.00213903 1.22331e-22)
(1.04225 -0.0820734 -2.99403e-20)
(1.01901 -0.000427858 -1.58906e-20)
(1.0952 0.0049473 -1.11198e-20)
(0.970564 -0.011241 -1.71777e-20)
(0.893489 -0.00597814 -5.38722e-21)
(1.16759 0.0538381 -9.02957e-21)
(1.02773 0.0199924 -3.69931e-20)
(1.02491 0.00628982 2.54714e-20)
(1.02333 0.00569819 -1.19969e-20)
(0.997315 -0.0164314 -5.75123e-21)
(1.10102 0.035211 2.99443e-20)
(1.0726 0.0194189 5.34657e-20)
(1.01867 -0.00282044 -2.37557e-20)
(1.00982 -0.00394532 -9.27164e-20)
(1.01834 -0.000261365 -2.98666e-20)
(1.0275 -0.011672 -1.15021e-19)
(1.0267 -0.0178707 2.14321e-20)
(1.02278 -0.00140892 -6.75308e-22)
(1.01777 -0.0026109 7.56504e-20)
(1.10471 0.0780976 -1.26571e-19)
(1.01392 -0.00294609 2.00256e-20)
(1.01713 0.000169158 -1.74274e-20)
(1.02117 -0.000903944 -3.83283e-22)
(0.837904 -0.004727 -4.93726e-20)
(1.03064 -0.00545118 6.47337e-20)
(1.01031 -0.0187008 1.22167e-19)
(0.897437 -0.000983583 2.46413e-20)
(1.03138 -0.041275 -4.39469e-20)
(1.05043 -0.100301 4.7345e-20)
(1.03856 -0.0174754 3.89421e-20)
(1.03688 0.0551965 -2.48287e-19)
(1.17637 0.0217479 6.46715e-20)
(1.01627 -0.00392317 6.2648e-21)
(0.99557 0.0546171 1.46229e-19)
(1.00516 -0.0373278 -1.09857e-19)
(1.01672 -0.00727675 -2.01656e-20)
(0.848932 0.00583678 -4.26481e-20)
(1.01878 -0.0114899 9.27295e-21)
(0.747302 0.00542351 -8.03608e-20)
(1.01449 -0.00317074 2.85863e-20)
(1.03552 -0.00626375 -7.21319e-20)
(1.11587 -0.0335108 2.24675e-20)
(1.01462 -0.00200566 1.63958e-21)
(1.03317 -0.0056463 -5.17566e-21)
(1.01155 -0.00178065 1.05105e-20)
(1.03143 0.0753483 3.87619e-20)
(1.12272 0.0689976 1.17841e-19)
(1.01744 -0.0030568 -1.71368e-20)
(0.81271 -0.000932763 9.70006e-20)
(1.01033 -0.00449787 3.50641e-20)
(1.01127 0.0728307 1.23295e-19)
(1.04153 0.0804131 9.61743e-20)
(1.10306 0.0286471 -5.60025e-20)
(1.10751 0.0981922 -1.00188e-19)
(1.00514 -0.0396807 4.70041e-20)
(1.00512 0.0676641 -1.82639e-19)
(1.01548 -0.00171882 -1.83302e-20)
(1.0531 -0.0131471 1.26453e-19)
(0.598238 0.0101991 2.73071e-21)
(1.08294 0.0599459 -2.98641e-20)
(1.01919 0.0544806 -1.27442e-19)
(1.12605 0.045113 1.18294e-19)
(1.05016 0.0310366 1.15562e-20)
(1.01905 -0.00791466 3.24471e-20)
(1.01449 -0.00429965 3.04728e-20)
(1.11045 0.0869253 4.4507e-20)
(1.17108 -0.0149313 -2.00247e-20)
(1.02006 0.076235 -4.76131e-21)
(1.08941 0.00366346 1.38115e-19)
(1.03655 0.0470395 7.75439e-20)
(1.016 -0.00411183 1.84839e-20)
(1.0244 0.0728058 4.94519e-20)
(1.04364 0.0776424 3.63515e-20)
(1.01563 -0.0028358 8.67579e-20)
(1.01645 -0.00374639 3.85716e-20)
(1.11971 0.0802208 3.24602e-21)
(0.850628 0.00151557 8.66125e-20)
(1.01553 -0.00187552 2.42481e-20)
(1.01372 -0.00383154 -1.02473e-19)
(0.956328 -0.0147953 -6.53548e-20)
(1.01375 -0.0510576 1.18613e-20)
(1.02429 -0.00205485 -1.00717e-19)
(1.0228 -0.00238463 9.02873e-21)
(1.01715 -0.00248174 3.11837e-20)
(1.0425 0.0833604 -1.42738e-19)
(1.02038 -0.00784973 -8.31301e-21)
(1.01438 -0.00181089 -9.40721e-21)
(1.0369 -0.0379655 -7.84675e-20)
(1.01767 -0.00348386 -1.86364e-20)
(1.01438 -0.00432727 -2.94295e-21)
(1.02202 -0.00742475 -2.21841e-20)
(1.05724 0.0616231 1.5023e-19)
(1.03623 -0.0723414 -4.48562e-20)
(1.02495 0.0624246 7.85646e-20)
(1.01574 -0.000984185 -1.94208e-20)
(1.06059 0.0639946 -1.59242e-19)
(1.03131 -0.0322673 -6.11657e-20)
(1.01606 -0.00228093 6.37675e-21)
(1.01503 0.000284764 -9.7176e-21)
(1.00418 0.0132536 -1.74284e-20)
(1.05337 0.0551025 5.70643e-20)
(1.01726 -0.00338531 -1.83735e-20)
(1.0494 0.045271 -8.11191e-20)
(1.0147 -0.000216254 7.18692e-21)
(1.05036 0.0493175 -1.09484e-19)
(1.1355 -0.0935365 -4.82094e-20)
(1.01422 -0.00255639 -9.39352e-20)
(1.00181 0.0504777 -2.45656e-19)
(1.0056 -0.0308736 -8.30032e-20)
(1.11113 0.094051 1.02825e-19)
(0.870322 -0.00396036 -2.53857e-20)
(1.05349 0.0510068 1.40433e-19)
(1.05707 0.0570317 -4.11954e-20)
(1.01093 -0.00504616 -1.39295e-19)
(1.00773 -0.00610566 8.25858e-20)
(1.01736 -0.00671119 -7.74329e-20)
(1.01472 -0.00265973 2.07441e-20)
(1.01582 -0.00294704 -3.94668e-20)
(1.02029 -0.00783806 1.36973e-20)
(1.04923 0.0745259 -1.85516e-20)
(1.01458 -0.00210697 -4.49715e-21)
(1.04539 0.0440917 1.06633e-19)
(1.04669 -0.0722209 -7.7269e-20)
(1.02228 0.0612511 4.85648e-20)
(1.04489 0.0405197 -1.24697e-19)
(0.937834 -0.0131116 8.75267e-21)
(1.02126 0.0671307 -1.69014e-19)
(1.01765 -0.00264215 7.56436e-24)
(1.03083 -0.0152763 4.52098e-20)
(1.06001 -0.0498533 -2.82219e-20)
(0.754997 0.000909919 4.81959e-21)
(1.0165 -0.00387863 -5.75549e-20)
(1.02947 -0.0334071 4.86204e-20)
(1.05661 -0.00639341 -1.11788e-20)
(0.991833 0.041308 1.88211e-19)
(1.0141 -0.000993739 2.68913e-20)
(1.01756 -0.00276494 -3.18289e-20)
(1.03579 -0.0497313 1.79004e-22)
(1.01582 -0.000644731 1.56763e-21)
(1.03157 0.0778134 1.87621e-20)
(1.01872 -0.000117667 0)
(1.0147 0.000854145 1.36543e-21)
(1.01546 -0.000192035 4.30031e-20)
(1.01856 0.000175792 5.23053e-22)
(1.01172 -0.0127147 -1.03062e-19)
(1.03279 -0.00841167 -3.65719e-20)
(1.01762 -0.00273871 -6.23884e-20)
(0.999874 0.0154968 -2.08468e-20)
(1.01647 -0.00385317 -3.01408e-20)
(1.02159 -0.00744806 -2.44235e-20)
(1.01681 -0.0778318 5.80509e-20)
(0.604384 -0.000911577 -7.07176e-21)
(1.03014 -0.00487896 9.99601e-20)
(0.92061 -0.00415382 -1.05543e-20)
(1.09777 -0.108377 -6.01431e-20)
(1.01152 -0.0047207 4.29692e-20)
(1.11013 0.0729761 -8.91904e-21)
(1.0012 0.0290168 -3.97982e-20)
(1.0183 -0.00243441 2.34123e-20)
(1.10158 0.0644045 -1.31432e-19)
(1.01539 -0.000571827 -8.29835e-22)
(1.01348 -0.00405203 -8.30924e-22)
(1.02872 0.00193996 -7.12432e-20)
(1.01659 -0.00403327 2.32625e-20)
(1.05862 0.0703633 -9.40058e-21)
(1.01379 -0.00460364 7.93143e-20)
(1.05345 -0.0114827 -9.80098e-20)
(1.02965 0.00392992 -7.20297e-20)
(1.05839 0.0375423 -2.76635e-20)
(1.02429 -0.00922304 -6.36414e-20)
(1.01505 -0.00346781 -2.29459e-21)
(1.07322 0.0613386 7.98033e-20)
(1.00904 -0.0562574 5.96593e-20)
(1.02729 0.07725 1.51817e-19)
(1.01568 -0.00410014 1.0677e-19)
(1.05992 0.0863041 5.31699e-22)
(1.01581 -0.00371743 -2.84987e-20)
(1.01845 -0.00170679 5.42986e-21)
(1.04931 0.0289558 3.39802e-20)
(1.03027 -0.0180363 -3.36992e-20)
(1.03855 0.00818142 1.03272e-19)
(1.0173 -0.000805547 1.77e-20)
(1.01503 0.000934538 6.31007e-22)
(1.02562 -0.0901877 -2.14083e-20)
(1.09092 0.0958709 -1.15663e-19)
(1.01854 -0.00244914 -2.09796e-20)
(1.10819 0.0661421 1.46226e-20)
(1.01415 -0.00453904 5.65126e-20)
(1.09071 -0.113577 2.04346e-20)
(1.05251 -0.0231263 1.49621e-20)
(1.01008 -0.0199217 -6.61232e-20)
(1.01779 -0.00254155 2.49463e-20)
(0.872703 -0.00465318 2.2707e-20)
(1.00465 -0.0475594 4.08586e-20)
(0.99754 -0.00511036 -9.29181e-20)
(1.01551 -0.00336345 -7.17872e-20)
(1.01684 -0.00230878 -2.91311e-20)
(1.02496 0.078987 -1.65213e-20)
(1.09954 0.0582178 8.34529e-20)
(1.03416 -0.00438561 -2.33301e-20)
(1.0155 -0.00321499 -2.67565e-20)
(1.04233 0.0748535 -6.84549e-20)
(1.01443 -0.000892427 7.73154e-21)
(1.01524 -0.00302497 -5.53718e-20)
(1.0932 0.0569516 7.10779e-20)
(1.02702 -0.0150199 6.25315e-20)
(1.09859 0.0883671 1.06324e-19)
(1.03112 -0.00142527 4.05759e-20)
(1.02969 -0.00697164 -1.24467e-20)
(1.08942 -0.0394398 -4.26335e-20)
(1.06309 -0.0913902 -5.78006e-20)
(1.16788 0.0474162 -4.32435e-20)
(1.01879 -0.000789354 -4.75652e-20)
(0.982213 -0.0111508 6.08302e-21)
(1.01485 -0.00145236 5.52678e-21)
(1.02216 -0.00782017 1.59435e-20)
(1.06089 0.0682122 5.42272e-20)
(1.01157 -0.00468588 -1.03853e-19)
(1.01747 -0.00280432 -3.20906e-20)
(1.03113 -0.0250991 6.68587e-20)
(1.0175 -0.0029236 -1.75944e-21)
(1.01794 -0.00218738 -4.22112e-20)
(0.464846 0.0076928 3.32425e-20)
(1.01539 -0.00422189 5.56554e-20)
(1.01721 -0.00322085 7.88502e-20)
(0.684025 -0.0028972 3.09261e-21)
(1.01996 0.00719087 1.07465e-19)
(1.00394 -0.0167623 1.25079e-20)
(1.01721 -0.00256585 -3.66555e-20)
(1.01761 -0.00224488 -4.28072e-20)
(1.02589 0.0223525 3.91474e-20)
(1.06396 0.0158707 9.91202e-21)
(0.99653 -0.0148308 6.4428e-20)
(1.01404 -0.000865364 8.67322e-21)
(1.00236 0.0179329 2.40208e-19)
(1.0122 -0.0112338 7.4562e-20)
(1.06452 0.0571878 -1.21811e-19)
(1.02606 -0.00105715 -1.08871e-19)
(1.02692 -0.0003368 2.20475e-19)
(1.00004 -0.00614913 -1.20098e-19)
(1.01456 -0.0015735 6.63817e-21)
(1.02867 0.000610251 -8.79721e-21)
(1.06772 0.0138708 -1.84361e-20)
(1.14932 0.0508587 8.9872e-20)
(1.05134 -0.0683163 -2.45721e-20)
(1.04722 0.0716463 5.86689e-20)
(1.02414 -0.00119169 -2.63617e-21)
(1.07775 0.064044 -1.095e-19)
(1.01952 -0.00953193 4.14486e-20)
(1.03395 -0.036522 1.19712e-19)
(1.01656 -0.00329497 2.99769e-20)
(1.02234 -0.0116827 -1.00822e-19)
(1.01681 -0.00216788 -2.58057e-20)
(1.04598 0.0330051 -9.23427e-20)
(1.07073 0.0928928 -1.79762e-19)
(1.0179 -0.00253247 -1.91876e-20)
(1.03044 -0.00616165 8.02838e-21)
(1.00225 -0.00252326 -3.43106e-20)
(1.05393 -0.0585613 -1.44832e-20)
(1.04997 -0.0627356 3.87097e-20)
(1.01687 -0.00305736 -3.37277e-20)
(1.05037 -0.0134315 -5.04044e-20)
(0.211482 -0.00401365 -5.60107e-20)
(1.14658 0.0361242 8.04752e-20)
(1.01575 -0.00172953 -4.63904e-20)
(1.06037 0.0134437 -3.94839e-20)
(1.01822 -0.00643054 5.92024e-20)
(0.653022 -0.000101956 2.06598e-19)
(1.0142 -0.00423432 -7.65278e-20)
(1.01808 -0.0167218 2.70088e-20)
(1.03253 -0.0217512 -2.81932e-21)
(1.01746 -0.0171384 1.03025e-21)
(1.01935 -0.013227 1.04365e-19)
(1.0164 -0.00382507 -1.86778e-20)
(1.01912 -0.00968166 -8.97691e-20)
(1.02049 -0.00445862 -2.12725e-20)
(1.05817 -0.00935185 2.25072e-20)
(1.01462 -0.00142202 -4.14276e-20)
(1.1678 -0.064967 2.87162e-20)
(1.13524 0.00434995 3.39959e-20)
(1.03679 0.0820327 1.11284e-19)
(0.99779 -0.0138835 -1.01201e-19)
(1.0928 0.0846381 -5.32409e-20)
(1.01883 -0.000571755 5.31178e-20)
(1.07167 -0.0484675 -1.97988e-21)
(1.02418 -0.0241634 6.06247e-20)
(1.02396 0.0376904 9.31413e-20)
(1.01652 -0.00410866 -5.27502e-20)
(1.01618 -0.00131677 3.08864e-20)
(1.01268 -0.01165 -1.03367e-19)
(1.01766 -0.00677679 3.0282e-20)
(1.04769 -0.0122913 8.32282e-20)
(0.984509 -0.00290603 8.17263e-20)
(1.00692 -0.00567849 -2.74674e-20)
(1.11228 -0.0169673 2.66114e-20)
(0.981383 -0.00300522 6.53667e-20)
(1.03094 -0.0230963 -5.60919e-20)
(1.01493 -0.0542703 -4.95368e-20)
(1.01462 -0.00168616 1.36551e-21)
(1.05829 -0.00325159 9.6684e-20)
(1.01605 -0.0483721 1.50404e-19)
(1.09792 0.0751473 5.90251e-20)
(1.08986 -0.0449594 6.97371e-20)
(1.03748 0.0074011 1.06008e-20)
(1.04126 -0.0696518 1.03438e-19)
(1.04736 0.0874777 3.32809e-20)
(1.04401 -0.0205407 7.56597e-20)
(0.995895 -0.00538148 7.13634e-20)
(1.03126 -0.0298168 8.6697e-20)
(0.435523 0.01881 6.25499e-20)
(1.13764 -0.0674486 -2.77933e-20)
(1.01402 -0.00405619 2.36724e-20)
(1.04257 -0.0890286 6.08207e-21)
(1.04041 -0.0432463 -7.29437e-20)
(1.05382 -0.0813304 3.85721e-21)
(1.05203 -0.0536695 5.88727e-20)
(1.07285 0.0566165 1.04584e-19)
(1.01744 -0.00287479 -1.60304e-21)
(1.01108 0.0464352 3.26167e-20)
(1.02387 -0.000963013 2.3897e-20)
(1.0174 -0.00234606 4.54546e-20)
(1.01861 -0.00260376 -1.35717e-19)
(1.0573 0.00830466 -2.01443e-20)
(0.12416 0.00790677 1.31725e-21)
(1.02041 -0.00454518 3.06132e-20)
(1.03387 -0.0336475 -1.56613e-20)
(1.02594 0.0249326 -6.38743e-20)
(1.01479 -0.000744403 -1.391e-21)
(1.00836 -0.00580779 -7.0471e-20)
(1.03212 -0.00437935 6.44874e-20)
(1.07306 -0.0224035 9.65126e-20)
(1.02367 -0.000777789 1.25073e-19)
(1.01865 -0.00327061 -1.88816e-20)
(1.01085 -0.0254619 3.1835e-22)
(1.01869 -0.00620795 3.06313e-20)
(1.01406 0.000833072 1.62256e-20)
(1.00704 -0.030267 1.41983e-19)
(1.05257 0.0673798 -2.34074e-20)
(1.0332 -0.0186836 -1.11357e-20)
(1.00906 -0.00220726 6.3355e-20)
(1.01984 0.000106519 -2.0068e-20)
(1.02893 0.0272859 8.49376e-20)
(1.01785 -0.00269068 1.78087e-20)
(1.01815 -0.00238044 4.00282e-21)
(1.01665 -0.00331294 3.00458e-20)
(1.01831 -0.00260031 5.4632e-20)
(1.13897 0.0512454 6.18518e-20)
(1.03925 -0.0214043 1.81239e-19)
(1.02498 -0.011397 4.39877e-20)
(1.01025 -0.00469938 2.84047e-20)
(1.01542 -0.000639625 1.61509e-20)
(1.07758 -0.0869037 -8.17202e-20)
(1.17251 -0.00229779 1.65114e-21)
(1.08215 -0.0944679 3.71299e-20)
(1.01912 -0.0213074 4.1338e-20)
(1.02677 -0.00517023 9.95004e-20)
(1.01489 -0.00391913 -1.96083e-20)
(1.014 -0.00764268 4.65079e-20)
(0.994697 -0.0307666 6.38875e-20)
(1.13797 0.0375063 4.80996e-23)
(1.0197 0.0627008 -2.33443e-21)
(1.01829 -0.00343369 -3.16835e-20)
(0.986067 -0.021496 -3.24118e-20)
(1.01714 -0.00343856 7.2244e-20)
(1.04228 -0.0188985 -2.97435e-20)
(1.08173 0.0545146 1.2335e-20)
(1.01864 -0.000758504 -5.43072e-20)
(1.01644 -0.00302092 1.23724e-20)
(1.11774 0.0849996 1.41332e-20)
(1.13433 0.0229002 -1.88116e-20)
(1.03162 -0.00922597 3.34229e-20)
(1.01742 -0.00298769 -5.32481e-20)
(1.00711 -0.00431052 7.09132e-21)
(0.999266 -0.031468 -1.61027e-20)
(1.01644 -0.00270703 3.70718e-20)
(1.03203 -0.0200426 1.04008e-19)
(0.802855 -0.00469612 -1.48277e-19)
(1.00125 0.028714 -3.22112e-20)
(1.05528 0.0703251 -1.13537e-20)
(1.06773 -0.0443096 -4.22065e-20)
(1.01889 -0.048659 -5.30695e-20)
(1.02149 -0.00184407 7.76101e-20)
(1.02914 -0.0146607 -9.22206e-20)
(1.12815 0.00972092 9.28599e-20)
(1.0186 -0.0545996 3.0113e-20)
(1.03324 -0.0284793 -5.28789e-20)
(1.01382 -0.000603375 -1.71414e-21)
(1.11819 -0.00207448 7.99468e-20)
(0.741996 -0.00733292 -7.92659e-21)
(1.01787 -0.0612255 -5.4727e-20)
(1.03275 -0.017183 -1.43755e-19)
(0.984366 -0.00943129 1.21082e-20)
(1.01649 -0.00314623 1.47338e-20)
(1.01738 -0.00260438 2.51528e-20)
(1.04153 0.0393124 9.53261e-20)
(1.0013 -0.00604823 2.83526e-20)
(1.01468 -0.00237161 -2.9821e-21)
(0.999339 -0.0024265 5.7846e-20)
(1.13517 -0.055841 1.03188e-19)
(1.0143 -0.00217105 -5.84118e-20)
(1.03592 -0.032097 2.13312e-20)
(1.01546 -0.00163054 2.28475e-21)
(1.0232 -0.00867195 6.57905e-21)
(1.01686 -0.0742196 -2.69251e-20)
(1.0625 -0.045069 3.16919e-20)
(1.01552 -0.0014873 1.88391e-20)
(1.0145 0.000758744 -9.71695e-21)
(1.02443 0.00208193 3.05125e-21)
(1.0287 -0.0470404 -1.14337e-20)
(1.00225 0.0377016 -2.51255e-21)
(1.06123 0.0821974 1.37271e-21)
(1.10815 -0.0105022 -3.46295e-20)