/*--------------------------------*- C++ -*----------------------------------*\
  =========                 |
  \\      /  F ield         | OpenFOAM: The Open Source CFD Toolbox
   \\    /   O peration     | Website:  https://openfoam.org
    \\  /    A nd           | Version:  7
     \\/     M anipulation  |
\*---------------------------------------------------------------------------*/
FoamFile
{
    version     2.0;
    format      ascii;
    class       surfaceScalarField;
    location    "30";
    object      phi;
}
// * * * * * * * * * * * * * * * * * * * * * * * * * * * * * * * * * * * * * //

dimensions      [0 3 -1 0 0 0 0];

internalField   nonuniform List<scalar> 
44078
(
-595.067
671.855
-76.7882
1069.76
-1075.85
6.08964
-334.019
380.441
-46.422
219.489
-257.442
37.9531
-497.857
497.857
213.024
-259.222
46.1979
-390.126
374.614
15.5114
33.7553
-571.622
537.867
664.848
-834.148
169.301
-1009.41
1102.36
-92.9498
564.036
-154.585
-409.451
-534.381
535.16
-0.778473
-687.628
582.554
105.074
-859.803
868.859
-9.05594
282.903
63.1827
-346.086
384.269
-9.97891
-374.29
814.318
-666.929
-147.388
-424.336
421.408
2.92839
160.392
314.828
-475.22
289.053
-355.092
66.0393
-593.845
81.7222
512.123
724.979
-60.1313
48.9936
-383.013
136.327
-488.914
352.587
204.858
-78.1398
-126.718
1072.63
-2.8685
659.691
-680.805
21.1145
-300.627
36.454
264.173
321.467
-38.5637
-444.461
543.829
-99.3682
958.096
-246.366
-711.731
-685.661
773.622
-87.9618
253.549
-220.401
-33.1481
482.821
-76.9373
-405.883
93.7206
-394.348
259.884
-430.978
171.095
459.563
-605.986
146.423
290.462
-42.9791
-247.483
826.37
-981.747
155.377
1064.53
-238.162
-1018.44
1035.9
-17.4532
397.523
-85.3177
-312.205
704.094
110.224
182.253
-313.268
131.015
1228.5
-777.722
-450.774
-590.971
146.51
535.388
-538.692
3.30415
230.467
645.584
-876.051
226.609
537.124
-763.733
-103.509
563.072
-394.817
183.83
210.987
-7.12886
-226.366
233.495
-677.35
-8.31071
236.429
-23.4043
423.003
-38.7345
-289.578
-60.3906
349.969
523.425
-499.15
-24.2749
-34.3654
-559.479
-466.787
47.9481
418.839
-293.726
-38.667
332.393
799.476
17.5795
-817.056
-409.138
569.53
-16.133
-246.064
262.197
-224.192
484.076
-358.519
462.212
-103.693
255.11
208.812
-463.922
493.95
-119.424
-374.527
429.521
-51.5216
-377.999
-430.397
-15.1637
445.561
-986.889
-31.5536
1068.44
4.18869
335.761
243.798
-579.559
-246.847
548.801
-301.954
190.531
43.6774
-234.208
-430.105
380.246
49.8581
-393.449
394.916
-1.46731
308.572
-162.067
-146.505
-249.826
-57.5726
307.399
-699.272
16.5297
682.742
404.283
-84.0552
-320.228
-248.532
248.532
64.7085
-760.857
696.149
-667.408
72.3405
-947.208
848.242
98.9665
-321.471
-68.6547
-41.98
231.934
-189.954
532.582
-116.095
-416.487
-644.4
-43.2278
652.291
-69.7371
91.5666
82.9018
-174.468
-360.053
100.402
259.651
-305.131
55.3046
847.791
-621.182
582.797
-609.508
26.7116
216.676
-90.0451
-126.631
-392.746
162.89
229.856
-33.0513
259.597
-226.546
-846.805
847.691
-0.885758
-38.5274
-152.846
191.373
290.591
7.36486
-297.955
-711.434
12.1619
-261.524
280.423
-18.899
778.714
20.7629
432.863
-645.83
212.967
204.127
-211.256
-766.869
833.988
-67.1189
673.571
-713.178
39.6071
74.6016
577.689
943.823
-846.983
-96.8407
-207.461
244.733
-37.2722
194.465
59.0837
352.705
131.803
-484.509
1009.1
-256.888
-752.214
16.7955
564.575
-581.37
-12.0098
-587.892
599.902
542.274
-206.513
131.197
426.169
-557.367
-302.558
405.551
-102.993
76.7115
-814.819
738.108
-701.05
454.203
-13.7137
-204.98
218.694
26.9602
-861.885
834.924
-322.962
339.091
-16.1288
-17.4521
272.562
23.927
-891.173
867.246
-375.365
355.327
20.0376
-91.929
-332.407
22.4204
-296.776
274.356
706.139
-787.559
81.4201
726.012
-860.3
134.289
-162.707
344.96
182.079
126.493
220.746
-208.744
-12.0022
300.673
-326.07
25.3968
-135.707
568.57
632.02
326.077
155.238
101.72
-256.959
273.069
-311.815
38.7468
211.078
-257.292
46.2145
-28.8096
319.4
-362.327
-13.0377
2.09737
-182.033
179.936
215.91
-55.2053
-160.705
181.126
827.976
-198.071
-739.273
937.344
-101.057
-396.8
523.063
12.3245
237.412
-222.416
-14.9954
280.735
-215.807
-64.928
8.5549
-227.935
219.38
-397.197
642.149
-244.952
45.3651
515.63
-560.995
984.156
-886.788
-97.368
790.818
-787.073
-3.74506
-566.365
-243.778
810.143
-145.312
722.013
-576.701
451.952
-442.82
-9.13207
-258.519
14.6233
243.896
6.64555
-750.941
744.295
-184.332
-210.484
-242.123
229.022
13.1017
241.219
-21.7299
31.8888
1020.85
-572.448
-448.401
735.192
-933.263
-396.826
94.2678
9.03934
206.871
16.5928
-778.338
761.745
-90.3525
-856.856
415.277
-450.827
35.55
-106.852
832.863
51.9521
-736.93
684.978
-238.314
-20.2047
273.069
18.7597
243.145
-261.905
-431.612
431.612
81.9366
680.769
-762.705
-310.793
49.2697
-580.342
597.137
343.367
-311.99
-31.3764
-777.827
-63.2645
841.092
-156.911
454.823
-297.912
463.589
68.9932
430.42
-440.997
10.5765
270.782
-59.7041
-190.857
-351.499
542.356
499.45
-380.554
-118.897
-327.347
20.8811
306.465
786.603
-80.4634
-518.447
-82.2702
600.718
-660.991
660.991
-133.836
506.309
-372.472
97.1117
-319.114
222.003
-919.779
353.414
305.427
-355.524
50.0972
436.321
15.6315
793.249
-459.758
-333.491
932.495
-84.4203
-848.074
72.1829
144.493
-847.665
614.796
232.87
-35.3579
280.564
-245.206
-202.604
223.498
-20.8947
-47.1496
-487.232
875.715
-890.428
14.7133
-83.0758
428.726
-13.4494
789.642
-795.52
5.87808
244.227
-6.81535
33.4342
-240.895
822.117
-963.799
141.682
277.486
-337.623
60.1371
570.381
-570.381
899.933
-93.2151
-806.718
594.054
73.1138
-667.168
65.6968
-332.259
266.562
-211.811
284.449
-72.6377
-480.306
323.394
51.801
737.841
-392.664
528.991
245.303
-173.12
-684.19
-176.111
485.124
-630.435
453.105
-500.577
47.472
-908.067
1045.1
-137.037
-578.794
555.31
23.484
507.038
-581.512
74.4739
130.128
742.615
-872.743
211.146
530.87
-742.016
723.358
505.138
322.673
741.859
319.483
-230.792
-88.691
-291.937
291.937
370.288
-401.117
30.8296
-27.1036
1095.55
267.958
-321.039
53.0808
531.542
-486.177
-297.43
-562.373
551.282
-564.479
13.1974
-28.9172
904.632
259.557
-294.915
-238.152
201.33
36.8218
498.685
-587.354
88.6694
-197.482
959.148
-761.667
588.452
-81.4136
772.576
-382.063
-390.513
337.254
-48.2014
471.972
548.877
-219.398
177.418
-743.832
59.6429
-945.551
37.4834
477.079
46.3457
-680.022
891.167
-707.363
-59.506
181.682
-203.227
21.5448
-73.9907
915.304
-841.313
-38.0607
-817.789
855.849
178.456
-176.358
61.0912
164.808
-225.899
-6.84726
-365.751
372.599
330.235
-307.814
-615.301
218.104
-277.241
465.719
-188.478
908.572
-678.105
303.663
15.8201
297.221
10.5847
-307.806
-564.048
192.929
371.119
459.356
-28.9362
545.764
-736.621
-378.981
-14.4677
646.028
-746.159
100.132
-181.889
135.472
46.4171
-655.991
638.877
17.1137
234.832
-216.072
69.2266
176.076
-744.496
826.432
-340.138
335.157
4.98073
67.9137
-361.838
293.925
256.438
-202.57
-53.8678
525.633
-328.138
-197.495
11.4717
-345.786
334.314
-496.675
484.665
-85.9634
313.636
-227.673
-663.562
162.508
501.054
-357.41
-35.3366
653.641
6.04966
443.967
-20.9642
-189.394
42.7609
146.633
-22.5085
735.677
-713.168
-864.568
994.696
318.627
-153.374
-165.252
677.283
-775.053
97.7695
426.173
346.403
706.075
59.9033
-765.978
818.112
81.8204
565.436
-540.457
-24.9781
1093.74
-1012.33
-81.4093
1.61764
-291.384
289.767
302.19
-4.96851
65.9358
138.922
213.006
7.73956
197.731
-194.96
-2.77061
137.738
152.055
-289.793
-301.124
281.341
19.7828
-172.909
-294.971
467.879
418.001
-551.838
-315.875
198.694
-187.564
-11.1298
186.348
1010.44
-569.069
-441.374
525.559
-109.032
-416.527
167.182
506.389
81.1629
484.273
20.4042
-700.879
716.558
-15.6784
41.2114
-544.977
503.765
-101.637
-244.112
345.749
-447.4
38.5961
408.804
-140.123
-335.733
475.856
779.976
-1.2629
25.3814
186.878
-387.001
200.124
177.126
-263.089
-921.024
850.14
70.8837
-291.058
305.1
-14.0422
677.892
-90.3512
-587.541
1046.99
-603.8
-443.193
197.027
-186.822
-10.2041
225.717
-120.946
-104.77
-419.73
417.433
2.29715
661.823
-30.2898
-631.533
-697.417
-3.46239
379.838
24.4451
-587.447
466.686
120.76
585.676
-577.733
-7.94313
-855.761
44.4173
811.344
856.378
33.1967
-889.575
-423.99
283.867
-205.849
16.4555
-324.799
542.933
-218.135
-177.18
-60.9719
754.991
-793.052
-137.056
198.147
557.877
-180.711
-377.165
-123.304
-308.307
213.391
-213.378
-0.012449
619.589
42.2337
683.272
-608.671
26.0146
-301.366
275.352
838.223
-876.658
38.4345
-323.984
11.9939
959.918
-962.783
2.86528
46.3171
229.365
-275.682
680.133
-34.1046
572.507
-591.957
19.4502
-827.113
854.073
197.22
-210.934
786.674
211.958
747.191
192.804
165.992
-358.797
-294.356
-5.29447
838.757
-89.9132
-748.843
587.228
-139.859
-447.369
256.098
-72.2681
77.6332
416.317
73.1324
-284.944
473.674
-503.696
30.0224
140.772
-347.005
206.233
137.397
388.236
73.643
858.851
653.208
-773.117
119.909
-22.0551
981.973
-270.146
-37.5212
307.667
-211.345
220.06
-8.71474
35.934
154.597
47.6678
451.783
334.509
-341.356
-375.999
17.4808
-344.468
50.7415
838.322
-58.3459
63.0331
-245.567
182.534
-967.315
21.7644
-931.193
-36.1223
-486.036
60.039
425.997
-739.765
909.193
-169.429
-232.741
-24.2998
257.04
-133.214
-75.661
208.875
-129.276
-73.8521
203.128
-170.743
237.104
-66.3603
853.471
426.435
-239.557
147.52
-11.4945
-567.299
-880.154
-40.8701
425.105
162.122
201.468
-526.266
200.823
-1107.21
906.39
17.0339
207.758
-224.792
1.65497
-204.259
417.665
26.3025
89.0578
701.76
288.744
36.7581
-325.502
-474.051
605.248
728.915
72.6634
-801.578
-781.012
-6.54717
803.77
-856.723
52.9531
318.568
-280.106
-38.4626
87.3195
231.307
850.958
-864.894
13.9357
978.823
-862.141
-116.681
939.419
-943.902
4.48337
-414.527
-172.919
-0.595518
-872.614
563.283
309.332
-175.964
160.011
15.9534
-246.236
383.974
138.717
90.741
-229.458
754.336
268.778
-284.911
431.436
94.1231
784.688
-700.45
-84.2388
-52.205
-131.936
-66.6198
198.555
-303.269
260.901
42.3678
862.912
-838.985
-20.7378
377.845
-357.107
-352.623
-9.70389
572.893
-582.608
9.71475
364.887
-327.087
-37.8
-828.642
731.268
97.3749
-905.888
831.897
142.972
82.7444
-404.6
275.52
129.079
466.135
-453.09
-13.0446
620.656
-622.594
1.93788
517.917
-44.2437
-353.745
-120.593
474.338
26.4228
-296.569
-63.5451
-249.761
313.306
544.29
563.936
-1108.23
-900.858
849.226
51.6324
1.83099
-403.8
417.303
-13.5028
430.615
-399.006
-31.6091
674.477
-851.4
176.923
712.17
-884.292
172.121
-500.904
-162.658
-461.706
80.8043
380.902
301.81
-5.69267
-296.118
-326.427
197.151
476.686
87.3499
-719.76
-108.883
14.5747
183.156
-296.794
302.242
-5.44721
53.3876
-366.503
313.115
488.371
40.7958
-529.167
-237.949
300.593
-62.6439
-896.187
-19.6363
915.823
-155.148
-70.2648
225.413
5.63793
-851.813
846.175
804.701
-118.32
-686.381
305.924
145.738
-209.283
-874.865
-21.3213
808.866
41.2741
2.06634
553.974
-201.269
-522.525
-10.4572
532.982
-801.987
913.792
-111.805
312.571
-244.657
-406.402
304.764
-29.735
590.58
63.0611
381.887
-241.116
276.491
516.758
-11.4758
23.4298
341.457
-771.659
74.7376
696.921
455.758
95.5239
-105.195
-60.9339
166.129
-851.798
-23.067
64.6228
332.9
-186.943
229.535
-42.5924
40.7691
-278.718
-277.4
291.973
-14.5731
-16.9374
21.3343
-511.689
490.355
-611.974
-134.186
-18.3691
298.261
-279.892
-332.755
464.558
599.381
447.612
-1102.79
430.493
672.295
328.426
0.217328
-328.643
-194.538
-202.099
396.637
-523.995
557.75
-661.29
-19.9212
681.212
99.6259
80.9197
-180.546
-44.2582
799.249
839.694
-862.826
23.132
807.351
-154.143
33.3917
-605.014
-321.099
-24.6869
556.765
57.6761
-614.441
435.788
23.5679
-348.117
389.986
-41.8696
-854.139
-3.67221
857.811
-27.8222
-823.976
309.723
-289.03
-20.6927
625.218
-4.56209
590.859
-422.453
-168.406
-207.475
290.136
-82.6609
-75.4179
-300.581
-418.119
-48.6677
897.138
-184.967
-829.029
89.2639
-629.11
17.1364
-537.075
47.1272
489.948
820.544
-39.6201
-780.924
-277.07
106.326
4.21601
-356.305
352.089
865.095
-190.619
305.186
-3.37591
636.827
-64.3199
494.278
-5.90676
801.306
-712.248
-1045.15
-57.6427
444.213
21.9222
543.111
39.6857
721.676
-715.031
796.744
-38.7823
-757.962
188.169
-226.697
271.756
-10.8554
-117.534
211.947
-203.392
474.853
15.2087
-490.062
575.286
-93.3837
-481.902
-457.749
421.095
36.654
128.796
672.51
11.8711
-76.8083
-773.252
850.06
62.021
-673.57
611.549
221.841
-300.244
78.4035
-733.044
656.236
91.657
713.044
-504.414
1048.7
241.814
-178.781
-286.75
-191.063
227.018
-35.9552
199.806
-263.62
63.8135
-178.026
316.743
-8.68161
-343.942
-50.9212
4.52133
-409.133
404.612
-47.47
-160.97
-194.122
-26.7556
364.152
-337.397
-870.861
944.457
-73.5961
45.4629
-527.865
482.402
59.2574
-270.603
-755.627
105.886
649.741
342.131
-248.41
819.409
1.13493
-8.73074
225.14
-216.409
448.708
142.151
-123.56
-338.147
816.393
-201.597
-95.2384
-914.169
604.064
-360.266
135.424
57.2842
656.035
-591.326
494.267
-11.4459
339.893
-34.4654
338.275
-420.552
82.2763
226.784
-277.295
50.5112
52.6934
243.891
-296.584
335.845
-508.753
-7.03163
761.955
-806.213
537.283
-62.4297
-108.683
740.166
-631.483
-267.889
300.815
-32.9254
-70.503
292.344
197.728
-188.689
-278.259
10.3693
-1068.9
593.764
475.134
-35.8088
-78.2687
169.835
-307.278
293.013
14.2644
-675.97
692.562
266.803
-271.471
4.66798
-485.764
190.793
-508.787
-560.11
234.312
-277.291
847.156
-946.586
99.4304
-342.667
21.5681
489.499
-625.868
136.368
-2.962
811.828
251.275
-287.745
36.4699
-308.571
-564.044
-36.9643
291.854
-25.0508
361.681
-117.049
-244.633
-20.312
-852.543
872.855
-872.108
465.294
406.815
-55.1488
735.917
-461.439
43.3198
-150.426
-144.551
294.976
879.352
-836.465
-42.8876
388.992
-324.369
798.146
5.62404
109.022
77.5886
-186.61
-580.55
1024.4
-443.846
141.461
-188.933
47.4719
-759.036
-144.957
903.993
132.964
228.718
853.496
-31.3788
813.467
-736.756
500.554
-422.921
7.67534
-253.739
75.6726
148.271
-223.944
306.038
247.935
-19.5251
-1098.2
619.195
479.004
8.99615
891.731
-60.5358
-831.196
-430.43
621.742
-191.312
57.1165
756.351
21.4162
-543.941
-590.482
-18.1232
608.606
440.13
140.221
-580.351
-264.803
-522.271
278.018
61.8747
-174.095
-74.4367
-405.432
352.07
53.3617
-782.707
322.949
199.088
-259.784
60.6963
217.703
-260.947
43.2442
428.413
-423.892
735.09
53.7534
-788.844
-200.965
48.1189
829.377
20.5427
-849.919
-376.173
29.2181
346.955
118.64
860.183
-406.474
454.422
410.637
-72.3613
-954.642
99.7641
854.878
789.142
102.589
-38.0544
264.839
49.8732
380.742
910.277
134.828
21.4438
-482.882
28.8832
-827.336
798.453
702.768
-774.87
72.1021
636.381
465.976
769.001
-56.03
-712.971
190.293
-48.8313
75.8818
339.059
-414.941
-735.274
792.391
291.89
170.322
-238.687
167.554
71.1336
-111.274
-426.714
537.988
-31.135
-210.988
1004.42
-573.931
45.7597
-278.5
207.528
-216.259
-106.72
-150.721
30.8841
820.074
-174.71
510.555
-609.047
766.664
-157.616
694.104
-716.612
-400.729
390.272
-443.235
-179.359
39.1454
348.581
-16.021
-332.56
-46.2954
808.25
-505.253
-623.371
1128.62
287.005
-243.4
210.349
2.11017
195.618
-222.378
144.238
-885.39
909.064
-23.6738
-283.449
255.063
28.3864
72.1792
712.509
3.36151
765.639
634.556
-14.9667
-14.9177
-510.142
472.436
37.7062
933.106
17.1488
-950.255
-319.284
-56.8886
0.347891
-237.131
806.326
-71.2355
529.003
-623.013
94.0098
-762.261
-84.5445
34.8607
283.708
899.312
10.965
-489.964
440.212
49.7524
-950.466
-94.6795
37.3333
-402.527
365.193
-206.696
244.139
-37.4438
251.539
-51.7325
-39.3198
1050.28
-313.208
-737.076
579.501
-50.4975
64.0862
-260.071
-72.1883
-699.812
795.213
-95.4008
-48.9407
-24.4994
242.203
504.448
-5.76319
92.7836
-870.611
-84.2398
207.23
-122.99
-203.553
213.153
-9.59936
-681.767
570.493
-457.453
478.787
344.084
44.9076
-459.203
424.13
35.0735
564.326
446.117
498.005
-459.661
-38.3444
496.619
-313.875
-182.744
-210.669
48.6023
348.746
-20.607
-328.14
-230.734
39.6717
-288.22
270.768
-219.06
-636.702
-691.699
-81.4185
257.488
-58.3999
668.539
196.556
7.0486
221.973
817.514
-83.1528
-734.361
328.009
-141.887
646.756
-504.869
261.766
-286.066
-89.1616
529.292
-751.244
6.74795
-85.6083
-96.2809
500.01
-99.2151
794.29
-695.075
-192.431
227.462
-35.0319
-42.5959
-240.854
829.584
-737.927
217.397
-429.909
-413.948
843.857
867.809
-199.269
-45.0416
800.471
-755.429
597.245
-6.66439
17.5304
-608.013
278.091
149.408
-427.499
-403.613
479.495
-25.3138
-313.581
338.895
-616.017
64.5556
551.462
-143.962
533.579
-389.617
-483.411
407.455
-481.909
74.4537
104.375
-170.823
66.4482
-160.257
353.061
-181.584
-197.398
738.305
-35.5378
102.198
581.074
-610.945
648.668
-37.7229
269.249
-287.618
-811.232
-51.5939
96.7379
-432.471
590.118
460.166
-615.717
172.483
423.974
-853.883
409.526
-681.837
28.6429
653.195
-224.973
271.13
-46.1578
-816.306
886.692
-70.3862
-47.4672
-431.978
479.445
1005.36
-405.651
-599.71
-67.362
-789.361
5.28062
304.442
-950.453
207.437
743.016
-857.678
-92.7755
-169.417
-6.54718
-777.773
731.478
-137.719
-300.967
438.686
-6.21685
-270.673
276.89
160.093
647.258
256.912
154.77
-411.682
-902.862
154.561
748.301
541.077
-580.825
39.7478
604.521
58.5771
-663.099
-45.6355
673.373
-639.917
-33.4558
352.026
-23.6006
-40.4787
239.505
-199.026
608.512
64.8611
12.5391
-793.551
721.53
-777.56
-177.74
253.412
329.007
167.612
149.765
-331.349
200.334
-203.22
2.88657
337.497
-197.571
-139.926
592.248
42.3079
-749.305
801.688
-52.3826
-434.986
-85.9541
520.94
-5.9381
-290.856
269.105
63.7158
-332.821
243.166
-95.5773
-147.589
418.083
-465.551
-61.7124
-740.274
-410.081
119.548
136.89
534.222
-456.535
-77.687
-233.049
250.083
-195.615
189.021
6.59447
44.548
-252.897
208.349
-321.053
377.735
-56.6814
219.609
-22.3461
-197.263
450.473
554.887
-255.978
555.326
-473.604
136.543
-192.951
56.4076
-193.987
-22.5442
216.531
701.245
-96.7233
233.492
-164.266
-357.079
270.419
86.6601
-420.501
-38.5106
459.011
-351.734
448.472
305.215
-323.537
18.3221
-14.012
26.6624
473.892
462.538
35.467
56.8253
-477.326
214.59
-13.2597
-334.115
-8.55253
-366.792
298.191
68.6005
339.995
-61.9768
676.272
220.866
-238.363
282.911
-284.686
305.567
121.517
652.442
-773.959
-738.13
-24.8028
762.933
24.7898
186.982
16.7703
-337.824
-690.599
621.044
69.5554
111.974
-196.996
165.371
31.6255
436.054
-157.963
-244.578
-187.766
432.345
-161.567
-348.575
216.402
-16.068
-282.799
132.373
96.957
-181.197
-1009.52
696.316
-346.556
346.556
851.481
242.261
-35.1437
-509.081
-500.442
207.603
327.557
527.865
42.5161
543.945
-49.6673
285.378
-263.344
-22.0342
-629.287
662.045
-32.7583
-50.346
-531.563
-48.7786
-634.579
734.572
-99.9935
83.5637
-492.702
-352.567
539.301
4.64378
537.209
33.6937
-570.902
750.151
-646.731
6.81385
-99.4817
-89.4756
188.957
-391.819
103.599
308.228
-30.8587
-277.369
-140.165
-65.6844
-299.005
287.171
11.8334
-304.502
97.0267
871.511
-195.239
-338.966
42.1894
769.622
-2.52752
-767.094
584.119
-658.818
74.6993
-922.867
830.387
92.4807
-22.1919
-639.099
110.4
295.151
-21.222
-259.958
281.18
-803.603
42.7464
-201.196
-287.036
265.814
-465.924
511.387
-257.593
280.279
-22.6862
-298.13
301.399
-3.26931
-814.535
705.852
995.969
-148.814
-179.725
314.941
-268.624
359.2
-193.208
434.381
-321.307
-113.075
284.845
55.1498
817.255
-82.8709
-734.384
184.754
-681.429
-762.914
681.468
81.4467
6.18135
-616.848
625.136
-8.28764
59.6628
173.829
-104.436
522.437
-264.239
308.862
-44.6227
378.757
-457.846
79.0889
-608.506
649.031
-40.5251
586.248
43.4785
-629.726
252.471
-217.664
-34.8068
557.427
-26.3576
-531.069
194.79
-86.3636
-108.426
-98.9142
-43.2143
142.129
960.265
-950.795
-9.47027
-575.487
-388.312
-45.4135
-759.804
805.218
-897.627
834.362
-606.931
374.212
232.719
605.023
-623.146
-10.9789
677.543
-666.564
54.7319
114.321
-169.053
-73.0078
-293.495
-855.989
-66.8779
15.471
364.775
334.03
-739.68
211.208
3.38114
-224.445
224.445
393.09
-104.648
-288.442
-911.374
25.9839
-2.51804
-20.9816
-482.776
503.758
-753.819
-80.4716
486.514
-406.043
-252.371
-408.621
430.929
-9.83441
-48.037
255.795
153.195
184.302
-550.451
395.866
-166.418
423.329
337.589
-52.7438
763.682
-711.73
-283.069
-4.83984
269.905
-946.904
-3.56155
5.61789
927.488
532.219
-448.656
-848.559
577.712
270.847
14.0475
254.991
-269.038
350.405
-11.1423
-339.262
-460.998
30.5678
-835.903
749.627
86.2754
-123.454
-195.831
220.734
46.5438
-267.277
212.689
124.899
-800.986
17.7758
-582.262
337.644
244.618
42.111
258.562
359.656
-323.795
-35.861
-401.596
414.071
-12.4748
847.401
-513.372
-454.828
312.941
-317.892
188.905
128.988
423.367
-720.797
568.29
-27.2125
811.236
-807.874
82.021
112.769
-830.934
815.454
15.4806
-795.338
46.0329
-472.164
-527.851
1042.66
-186.28
931.084
-835.192
-95.8923
-521.122
-463.311
984.432
-47.8913
-253.233
40.1071
223.491
-227.631
4.14011
-21.5133
-56.0554
733.339
471.179
-38.5891
-432.59
-348.568
-215.48
30.0549
-59.9122
-277.711
-164.761
439.816
-275.055
-926.27
926.27
92.2401
-797.025
463.534
-510.325
69.023
441.302
-210.625
-193.975
181.856
-173.567
-376.885
-561.262
387.696
607.785
54.4843
188.682
429.97
-928.834
498.864
-44.4802
333.224
-225.7
-260.336
-211.342
433.253
-104.246
-178.699
-139.193
-65.4684
-835.39
452.34
-517.891
65.5509
18.3781
-705.322
787.74
-82.4171
415.666
-419.19
3.52489
244.045
-566.271
529.686
36.5856
65.1716
135.982
-201.154
191.685
-232.164
378.946
-708.778
329.832
110.533
758.326
146.206
246.884
-68.4817
-491.888
470.907
291.346
-305.238
13.8925
416.149
-37.3913
353.554
-380.31
-20.445
-367.355
387.8
-38.6446
-287.425
334.496
13.1874
-347.684
-441.637
276.876
-386.196
37.0655
631.196
-749.516
-409.33
530.711
-311.958
-91.8415
976.635
-866.102
-492.796
-312.273
805.069
291.568
34.4698
290.692
-325.162
-442.138
155.21
-278.664
-51.5332
450.29
-563.58
113.29
47.4118
613.579
-200.34
100.858
344.736
-302.625
708.737
-329.791
272.591
-172.189
23.4146
364.451
-387.866
-26.9702
-291.09
-10.2765
-250.79
248.447
2.34372
3.23594
565.404
-543.987
52.3027
-891.584
113.246
801.604
-3.45791
327.891
-115.201
525.495
328.697
-854.192
598.384
239.938
677.354
-776.569
-761.649
107.13
654.52
292.21
62.8118
-355.022
181.835
-174.312
-7.52237
35.5483
274.735
572.956
-208.445
60.9793
147.466
-156.559
-607.134
763.693
-336.165
365.607
-29.4421
-276.367
286.723
-10.3564
-147.181
-173.858
-254.342
206.542
47.7996
920.101
-920.101
-87.046
726.989
-639.943
293.033
-205.714
343.692
-68.172
-658.304
187.585
26.421
-214.006
21.2554
-587.645
566.389
45.6641
-271.107
225.443
908.58
-914.205
5.62498
301.44
-674.69
373.251
362.76
-325.426
50.5944
309.062
-350.737
876.232
556.792
-106.502
-71.9671
-239.848
-399.303
317.423
81.8801
225.386
-344.81
329.019
-500.137
171.118
-269.993
45.0203
-873.306
-73.5987
33.5678
-738.89
337.021
-174.13
796.372
-773.266
-23.1066
431.224
59.6604
-490.885
-685.434
610.591
74.8436
-270.912
217.415
53.4972
318.813
-27.467
-426.02
-254.785
884.678
-839.659
-45.0185
-357.401
658.841
119.162
-554.148
-865.166
11.0272
-52.5427
-607.999
660.542
47.38
-141.629
-97.0588
-920.638
391.951
528.687
185.772
3.24882
448.585
-32.9198
543.451
280.893
-274.46
-6.43254
-333.096
-5.69114
338.787
-564.342
460.832
14.506
-234.382
219.876
227.923
-40.3381
-105.662
375.284
-269.622
-352.833
4.7157
433.674
-9.5446
53.4246
-813.608
760.183
-664.244
664.244
81.1449
180.621
-95.2666
-506.549
601.816
-854.5
938.123
-83.623
741.15
55.222
-14.1045
-834.589
848.693
322.845
-339.888
17.0432
324.004
12.68
-336.684
585.074
-636.704
51.6296
47.2938
323.205
-370.498
-220.299
-125.237
345.536
190.432
-8.59765
108.588
-711.472
602.884
-760.044
267.248
346.278
-311.808
793.725
59.7712
-77.2339
-433.092
339.715
-391.236
-682.312
103.608
578.704
330.288
-291.138
-39.1504
-529.997
616.96
-86.9634
-81.5538
-362.636
444.19
405.3
-381.87
-608.983
-311.655
620.11
-722.056
101.946
-409.481
-439.079
837.869
-39.6847
-645.75
103.192
481.809
-585
563.541
-644.67
81.1292
45.653
-261.46
11.1126
-692.95
-317.292
321.508
-9.08836
570.401
-692.675
122.274
-344.468
-430.585
4.11188
-685.975
697.769
-11.7936
763.052
-164.668
645.177
-102.583
-542.594
231.96
302.262
284.573
-295.004
10.4315
807.726
-935.855
128.13
-661.711
-99.9379
-314.323
50.0846
-328.367
63.7012
264.666
-55.4621
640.536
103.721
-275.28
171.559
356.58
-334.789
-21.7914
-365.237
-217.025
-23.653
205.335
-36.6135
-166.613
227.844
148.805
-376.649
-270.263
318.233
-47.9694
591.799
-687.065
21.4324
286.795
-289.149
-39.218
-300.945
-305.985
-711.295
540.758
170.538
-112.4
-146.823
-155.575
65.5295
-577.011
536.149
40.8621
576.952
-1098.07
-23.7692
-1015.44
-140.894
374.248
59.0048
-21.7013
-51.356
-761.021
129.538
857.545
-851.907
617.341
-76.583
1.85822
589.217
-591.075
-289.874
-160.573
450.447
-59.7796
-211.132
12.5728
187.536
-211.187
23.6515
-998.093
247.153
449.136
-120.117
19.5792
-627.871
608.292
299.277
-364.749
30.884
333.865
64.9827
573.621
-638.603
-101.016
773.404
-672.388
-669.635
-195.259
-737.079
37.8158
699.264
-26.7966
578.327
-551.53
928.524
-919.646
-8.87767
569.872
-622.415
-611.18
-23.4533
634.633
-394.019
123.756
280.017
-278.492
-1.52537
801.729
-772.846
-95.6941
730.71
-635.016
456.971
15.4649
-433.288
-669.612
604.128
65.4842
399.754
-92.0553
-563.936
-56.5618
-10.301
-398.832
-42.1196
238.494
-196.375
18.8567
327.421
-359
363.162
-4.1612
749.275
-794.688
95.365
161.675
210.039
-221.274
11.235
684.169
-775.219
91.0501
-331.732
-696.697
-3.11517
796.093
75.4175
290.515
120.122
813.509
-17.4157
-31.7737
-1030.23
168.346
3.92972
23.8282
-568.805
150.93
-96.1984
-1081.82
-255.716
270.222
75.2091
217.824
-107.355
-467.083
574.438
-2.36587
-477.38
479.746
838.907
-31.181
569.98
75.1965
-54.7796
-220.726
275.506
752.253
-797.295
-162.357
390.201
-413.577
446.496
-32.9181
-679.369
722.978
-43.6092
300.447
-331.288
12.1733
389.348
-114.971
-274.377
178.692
-511.061
465.752
45.3089
3.7386
-459.522
465.509
-5.98737
613.543
-596.013
43.6737
-171.392
602.616
-290.816
57.3894
440.468
40.2712
608.356
-648.628
-66.6881
-153.713
217.937
-0.52241
32.8652
-386.944
22.1947
-415.529
1.95123
248.684
-250.482
1.79842
711.199
-682.556
-483.247
82.6655
400.581
-42.1601
626.279
-42.9712
-209.926
914.255
-141.733
-772.522
518.882
537.491
-1056.37
-304.967
-8.30156
288.764
4.24921
10.2868
271.054
-696.111
-5.95885
702.07
592.325
-748.885
-219.135
187.875
31.2595
-538.448
-9.12793
-664.442
28.307
108.236
-136.467
-428.012
-107.745
211.466
21.6439
-643.466
621.822
-38.0209
-497.946
535.967
-268.884
316.177
-69.2045
625.969
-732.524
755.257
-22.7323
217.641
-482.443
272.056
-278.767
6.71033
5.27198
-839.997
25.4617
253.154
-473.452
919.692
-930.714
11.0215
637.897
12.4158
-650.313
-49.2753
-542.682
-807.258
840.455
140.792
-207.412
897.668
-78.2589
235.893
-12.4026
-60.4754
-716.029
776.505
-89.4756
-596.5
-31.7803
568.989
-684.73
23.019
201.974
-240.076
38.1021
-232.068
0.256264
231.812
-557.142
533.488
23.6534
-175.77
76.8559
48.8057
95.9303
-144.736
-880.259
314.297
17.8457
-332.143
54.8976
637.914
-692.811
-337.148
373.489
-36.3407
-661.33
-23.4006
-660.816
782.334
-897.006
127.81
769.196
-142.867
-167.927
-443.613
63.0593
-457.665
-618.189
271.305
-2.52723
-285.604
287.989
-2.38512
160.934
-95.7625
-420.98
392.816
28.1635
-954.908
972.057
-317.835
109.158
208.677
100.644
50.2859
526.011
868.037
-888.349
276.345
-45.038
384.089
-528.051
-789.962
811.735
-21.7731
-350.147
-194.466
544.613
128.754
-166.622
37.8678
424.876
-529.312
757.246
-690.069
-67.1762
-261.923
-43.0441
353.911
-84.8063
311.885
-290.453
328.241
-652.018
-17.5942
5.65461
633.223
-352.51
104.1
20.6342
-891.495
550.023
-387.515
608.138
368.496
422.852
8.07731
744.693
-805.168
-39.0341
-10.7427
827.286
70.3823
421.001
-499.669
78.6677
238.789
-188.953
-49.8362
-196.759
233.423
-36.664
-3.04106
339.212
-336.171
-618.49
658.761
430.931
254.667
-211.991
-42.676
357.532
521.821
312.17
-332.777
722.118
95.137
83.425
-606.289
522.864
639.552
-35.4241
34.38
-930.795
114.216
816.58
195.059
-265.324
-247.248
-793.231
732.278
60.9529
5.11181
814.986
-820.098
934.429
-934.429
-376.688
17.6875
602.816
36.736
-109.062
-39.8329
-189.574
229.407
437.337
27.5931
-464.93
-432.624
18.8159
413.808
189.191
972.174
-453.291
-220.018
35.4256
184.592
-627.654
630.628
-2.97395
454.537
-472.237
17.7007
-430.404
-2.22015
38.7647
-770.461
731.697
-635.886
-65.1637
-548.276
518.341
29.9358
-390.599
315.182
38.2113
-249.868
211.657
-173.603
-144.232
-27.4561
234.991
-17.0537
36.4393
324.511
-287.753
-71.1744
791.6
364.509
-50.2118
-769.997
31.8671
-890.018
814.446
75.5724
126.646
294.762
357.101
185.173
-758.755
859.24
326.915
198.012
-524.927
-160.355
594.429
-643.994
49.5648
495.276
55.9988
-551.275
650.397
-353.049
-297.348
-491.7
-117.809
-783.873
682.856
23.7515
-689.587
665.836
-711.222
108.484
602.738
-762.822
16.9358
47.3802
508.431
-87.4299
-529.457
354.746
569.846
-596.642
-35.3224
-64.2796
221.667
-157.388
71.3155
-705.894
-229.353
-224.992
160.713
-26.8202
287.019
-110.19
-176.829
179.274
-5.66874
-641.746
716.483
-46.4393
216.833
-170.394
869.86
-630.428
13.5792
144.299
200.437
0.991451
397.334
-398.325
-220.274
-208.261
428.534
180.919
763.538
378.686
-355.271
-843.674
7.77176
626.385
-609.855
-1.68759
-820.314
822.001
589.516
15.9781
-605.494
853.989
47.5105
-901.5
305.988
-4.58874
119.107
-408.981
425.271
8.4037
-254.46
334.092
-79.6327
186.885
380.842
-90.3273
610.559
-53.9736
-556.585
-759.201
787.202
-28.0015
12.1224
659.904
-672.026
-647.206
117.209
-5.18176
-442.038
613.443
34.1535
322.427
-28.829
183.158
-83.5321
-334.508
1.41247
95.9385
742.968
2.35374
-275.702
273.348
-425.622
-503.212
-57.4243
-757.775
815.199
273.017
-43.6516
188.838
-272.37
83.5313
179.66
-93.402
-217.397
-516.874
-581.325
-792.234
-18.9974
-160.051
-815.747
776.438
39.3093
-34.2324
469.258
-435.026
59.7801
821.332
-881.112
191.261
-142.455
776.495
25.1926
-236.291
196.458
19.4151
-303.83
284.415
575.698
-573.84
-648.76
111.181
537.579
-588.409
588.364
0.0447024
28.0804
256.492
-665.291
-441.923
608.529
45.774
-654.303
-721.943
606.743
-679.197
72.4541
-134.448
-73.9968
449.807
-484.173
-847.222
852.334
108.608
-308.1
-588.906
-642.259
593.202
49.0566
175.207
-70.8319
-42.8625
464.257
186.14
-576.447
64.7575
514.393
-526.566
12.1727
73.4117
-717.634
644.222
264.893
-16.2096
-307.759
164.473
143.286
-577.115
610.809
-136.135
492.579
-356.445
681.379
-86.9506
-0.750216
-315.663
316.414
-447.131
-442.723
889.854
-146.563
261.631
-115.068
-103.792
-578.52
-588.39
435.288
153.102
409.116