/*--------------------------------*- C++ -*----------------------------------*\
  =========                 |
  \\      /  F ield         | OpenFOAM: The Open Source CFD Toolbox
   \\    /   O peration     | Website:  https://openfoam.org
    \\  /    A nd           | Version:  7
     \\/     M anipulation  |
\*---------------------------------------------------------------------------*/
FoamFile
{
    version     2.0;
    format      ascii;
    class       surfaceScalarField;
    location    "18";
    object      phi;
}
// * * * * * * * * * * * * * * * * * * * * * * * * * * * * * * * * * * * * * //

dimensions      [0 3 -1 0 0 0 0];

internalField   nonuniform List<scalar> 
11512
(
147.147
-499.798
352.651
-756.531
-3.05034
759.581
406.842
-371.84
-35.0018
631.38
270.523
-901.902
1510.94
-1069.38
-441.554
1216.29
-1527.13
310.84
-61.459
474.395
-412.936
168.498
-842.168
673.67
962.119
-1610.82
648.701
-1759.2
1666.34
92.864
-542.945
1759.24
-1140.46
1934.27
-793.805
608.371
180.801
-789.172
-24.659
-1313.3
1337.96
220.516
-1979.72
1023.06
-382.13
-640.932
-178.87
326.018
485.917
190.213
-676.13
1155.35
-1313.11
157.762
-313.481
376.072
-62.5908
1002.24
-1312.5
310.264
1221.51
799.201
-2020.71
72.5278
-1638.62
1566.09
-470.981
-1171.64
1642.62
477.013
181.501
-658.514
-190.088
-309.711
498.162
1012.78
1645.72
-1802.82
157.104
-87.7926
-1691.83
1779.63
-1558.75
651.547
907.202
-307.117
652.914
-345.797
-193.228
-153.74
346.968
1283.36
-1210.84
355.157
-1407.41
1052.25
-1754.36
1754.36
100.064
1529.96
-1630.03
-1078.76
-479.989
636.622
-698.081
-384.234
941.349
-557.115
1331.95
-1317.32
-14.6368
-1100.15
715.915
626.658
396.404
-393.175
-32.835
426.01
-446.254
775.295
-329.041
-1618.56
1618.56
1253.59
-1437.9
184.306
-488.54
1710.05
1255.2
-313.852
1660.75
-1161.26
-499.49
73.3399
-386.821
2065.11
-1134.87
-930.239
1811.05
-165.329
456.2
155.56
-611.76
-458.642
971.201
-512.56
-1168.92
1268.99
-568.501
970.854
-402.353
401.134
754.214
661.265
-492.767
-436.973
593.817
-156.844
1190.67
-835.509
2308.19
-1080.66
-1227.53
1163.57
-2008.48
844.905
-1600.5
1575.84
440.69
-1581.15
-759.221
1250.79
-491.571
-672.043
364.926
1661.46
-699.343
-1106.93
-870.893
1977.82
678.166
-367.779
-310.387
689.538
565.663
-258.203
1511.79
111.007
-316.096
205.09
-284.207
761.221
-333.945
565.906
-231.961
-324.057
809.974
-317.307
-147.992
465.3
322.36
84.4821
1456.15
-453.911
-978.436
483.987
494.449
275.11
90.8148
-365.925
949.409
-341.039
-1699.93
653.313
1046.61
16.8798
-853.45
836.57
-281.124
594.881
-313.757
156.983
-1093.76
936.778
1051.82
-1067.3
15.4763
372.713
518.965
-891.678
-244.662
700.862
-1103.77
-482.073
1585.84
-678.758
951.478
-272.721
1357.21
-1445.01
-634.707
278.896
355.811
-470.183
-1011.57
1481.75
-538.975
-793.391
1332.37
576.406
-996.386
419.979
-268.416
-317.706
586.121
404.976
-293.97
-1038.07
579.43
955.314
-798.332
-110.263
944.06
-833.797
-210.699
417.396
-206.697
-626.262
-352.175
-386.553
962.959
1856.38
-1856.38
-467.846
-166.861
-951.522
1555.77
-604.252
497.323
-929.41
432.087
-923.667
355.165
-941.91
-1058.08
-1489.46
345.361
1144.1
-280.146
911.526
-315.032
616.284
-301.251
-1941.9
999.994
-1138.56
-350.905
549.814
-1501.34
1728.51
-1725.58
-2.92118
205.261
-602.737
397.476
-1457.3
973.925
483.372
285.489
214.777
-500.266
310.65
-644.595
244.294
-420.514
176.22
2015.09
-871.142
-1143.95
-545.423
152.249
617.144
834.692
-1451.84
-182.821
427.115
431.178
876.857
-1308.04
-907.26
393.288
513.972
-1045.99
1447.12
-1068.88
309.659
751.297
-98.3822
552.025
-287.859
-264.166
1004.27
-520.285
593.28
-1403.87
810.593
-1342.26
238.486
-546.116
264.993
-1181.63
901.484
1945
-982.283
-962.716
276.805
1579.58
-2094.11
894.764
1199.34
368.629
-29.9822
-338.647
-223.518
483.831
-260.312
-107.18
-380.827
488.007
-464.674
147.366
342.388
-129.06
626.383
416.741
383.248
-799.988
-2036.97
1113.68
923.288
460.473
-530.962
70.4886
224.266
-366.39
142.123
1018.91
996.173
1781.95
-251.991
724.763
-445.867
796.88
-1389.76
592.881
347.53
330.637
1051.01
-1034.13
-499.621
-229.91
729.532
475.412
-135.308
-340.105
797.45
-616.649
561.678
-725.212
163.535
503.326
1157.42
-1239.83
700.857
1043.76
-1514.74
-3.13528
-1439.43
1442.56
325.353
824.688
-1150.04
623.391
269.772
-893.162
-2269.82
1140.29
1129.53
-1100.58
-1169.24
202.441
359.237
958.508
-633.155
879.513
-899.148
19.6353
-2099.38
992.452
-231.398
-190.969
422.367
-41.7321
1770.24
-828.266
71.7352
-1027.82
-1066.29
-229.221
453.487
-670.451
202.604
-269.374
-424.452
693.826
1104.04
-1574.23
783.05
-1374.47
591.418
693.986
-423.464
1947.87
-1444.55
-378.28
-1376.08
76.6949
397.701
-530.3
527.25
15.1881
-570.725
555.537
569.119
-283.63
-604.167
280.042
324.125
780.8
-364.06
32.8835
335.746
1188.47
-1191.61
174.824
230.152
393.079
-662.453
619.75
-1006.3
-2026.71
2026.71
-254.484
-447.181
701.664
699.28
405.804
-1105.08
579.058
172.239
402.658
378.142
-2199.75
1328.85
-926.609
-678.911
1605.52
-487.988
-693.643
-258.4
548.232
-289.832
825.901
-191.455
-634.447
-441.117
646.378
368.064
-683.097
-361.214
-130.843
492.057
-1327.9
-474.917
624.526
-1112.51
-374.139
-1244.43
844.327
1463.86
298.089
-941.608
643.519
966.088
-339.43
1391.41
-798.126
443.139
-268.315
-328.202
-870.626
564.577
306.049
-326.28
-544.345
309.238
-416.418
-214.719
-148.43
363.149
-392.691
1091.97
434.988
-244.775
-393.52
1350.2
-169.626
-1180.57
-468.965
281.784
187.181
226.91
253.065
-479.974
24.906
-750.118
592.089
-1729
1136.91
1482.03
-864.884
-1049.01
-408.289
-1057
573.255
483.74
1377.38
-403.454
929.306
-1411.38
-158.925
-201.371
360.296
-469.455
580.821
-1626.81
427.971
903.981
281.052
298.547
-579.599
568.077
1186.29
1103.67
-714.355
-389.314
402.373
-217.268
-185.104
-1419.46
445.16
738.261
-1183.42
1473.33
-544.021
-489.81
926.713
-436.903
426.144
1186.16
-1612.3
47.2838
-726.042
-145.87
420.98
225.737
-418.965
530.151
474.12
-616.796
62.3373
554.459
1024.54
-1307.67
283.132
664.012
-261.354
468.243
-1447.24
978.994
406.711
1686.45
-522.877
908.321
1036.68
-661.564
-1684.5
757.892
564.358
397.633
-961.991
454.05
78.7801
1749.94
-1828.72
1443.75
-379.475
-1064.27
1699.11
-1740.84
-367.457
-521.601
720.023
-198.422
-502.59
182.827
292.585
-372.995
-1226
214.43
-764.549
-639.324
-654.62
999.093
-344.473
-654.111
644.309
9.80216
655.119
-923.784
268.664
-765.911
389.092
376.819
-648.601
-686.461
350.352
336.109
-932.332
1400.58
-415.215
885.663
-470.447
-2205.3
5.55795
178.998
-535.018
356.019
141.982
1208.22
-98.5253
-571.925
159.018
-595.991
1487.16
-704.111
378.33
-463.243
84.9138
-570.349
570.349
1223.11
395.457
1777.89
-1228.69
589.11
639.577
849.91
-52.4601
1291.52
773.587
-540.049
1336.93
293.518
301.364
274.666
-796.267
239.621
-685.875
231.639
-444.171
212.532
-236.491
576.664
-340.173
123.555
-360.046
-591.983
-564.487
1156.47
-369.777
537.203
-167.427
-1192.16
2032.04
-839.886
1289.61
-331.101
-406.024
137.609
-1980.88
809.235
1529.43
-846.854
-682.577
1986.95
-877.425
-1109.52
713.484
576.125
-239.549
471.188
-675.496
1139.53
-464.029
-770.088
1201.27
551.582
924.638
-1724.99
800.354
-544.001
-75.0149
619.016
297.8
254.226
410.128
-98.5826
-311.546
896.896
-83.4067
-813.489
915.662
-560.284
-355.378
1576.2
-472.161
889.18
-1626.41
737.229
1068.48
879.389
748.503
-442.541
-305.962
-1059.05
-258.263
561.247
578.692
-1139.94
-459.161
508.461
-49.3002
575.818
-343.64
-232.178
-983.451
568.235
595.73
886.298
-441.794
1096.91
1411.87
-776.631
-635.236
395.979
-924.555
528.575
-1022.24
395.979
551.007
-1040.82
456.494
-529.151
72.6573
472.349
302.947
-521.828
-48.5203
-794.309
-878.145
1672.45
193.114
209.258
-215.345
417.787
-28.809
-553.848
582.657
492.341
867.451
-1359.79
-522.056
307.336
985.952
-89.0557
836.358
-1064.83
228.467
395.722
846.291
-1386.34
-448.431
831.678
1977.74
-1284.16
-693.584
270.184
609.329
255.978
795.846
82.3552
-963.958
881.602
1673.74
-1089.06
-584.679
-137.839
1887.78
-1866.05
-160.658
483.631
-621.732
138.102
-1013.77
526.355
487.411
-1730.48
538.319
-955.834
845.57
391.47
202.347
586.621
-288.531
-422.204
710.653
255.435
74.3774
708.305
-782.682
-1128.86
-899.422
2028.28
-537.936
1101.04
-563.105
-468.302
-342.156
110.758
-1654.59
860.279
-866.258
-595.28
1461.54
-332.163
-294.763
626.926
357.919
-645.769
287.85
242.269
-606.329
318.336
203.346
-521.682
346.312
-604.712
617.588
-259.67
313.615
-461.607
675.981
407.889
-180.979
-386.118
-300.343
1218.97
-2.8976
-1216.07
1039.7
-419.95
560.357
410.497
-1782.37
869.821
912.55
492.097
548.611
-1040.71
-535.776
203.612
-262.935
1180.8
-917.864
-1590.89
1212.61
504.583
-1096.57
385.497
-7.16785
427.158
303.237
-730.395
372.69
-617.352
-32.0061
756.022
-724.016
-526.198
795.969
385.362
322.68
527.231
653.732
91.8626
-402.426
310.564
1058.98
-645.323
-413.657
494.011
-1664.27
1170.26
-1140.43
1753.23
-612.803
1715.82
-1123.73
-333.804
613.846
-1182.23
1264.59
425.281
-797.697
1602.31
-804.618
-258.729
-210.236
-889.536
1470
1812.47
-611.21
-1201.26
-404.701
646.296
-1300.92
-124.82
-46.2814
456.41
-679.758
-354.168
-1236.72
-220.681
462.95
903.61
-559.509
178.682
-1674.57
-71.1986
1745.77
-1063.85
525.917
568.919
-1182.14
613.223
901.053
911.422
630.797
619.996
684.908
241.805
-1133.37
457.875
-399.646
414.834
619.491
-515.204
245.38
-732.188
486.809
690.761
-343.231
-334.339
180.599
-600.549
238.186
362.363
-887.722
-738.687
1087.67
-2145.75
399.468
-683.676
-342.816
-724.484
833.811
578.056
-343.444
310.609
370.343
212.844
650.562
-863.406
527.292
612.233
-534.936
173.721
359.197
-613.681
-1037.28
-856.054
1893.34
-1795.85
157.233
1107.08
-1370.02
1156.49
-724.29
-432.196
-503.555
1349.85
-1495.53
627.866
867.661
-288.95
-210.583
499.533
1428.39
558.555
342.519
-473.362
-484.211
-566.984
1051.19
-418.997
597.995
1582.3
-1129.22
-453.079
-774.02
326.839
654.883
404.097
-1623.42
416.159
1207.27
-190.982
509.318
797.794
784.503
197.896
-685.025
487.129
207.4
209.996
-293.405
-107.808
401.213
486.722
-0.132401
-486.589
-1635.4
586.388
-1604.99
1670.7
-65.7056
10.6876
-1615.68
1069.61
762.326
-335.168
-808.438
-213.803
-1134.52
-239.947
-311.394
684.085
-1812.41
-628.697
1207.39
212.682
758.519
-1329.97
-678.512
-465.399
610.159
-329.107
-1013.28
1350.76
-1932.84
582.08
646.235
1288.03
487.274
-3.44385
717.472
703.888
-1421.36
-638.182
335.555
302.627
440.806
-99.434
-341.372
149.297
300.382
158.887
-459.269
-583.858
1148.22
462.843
-626.588
-461.986
-401.566
863.551
-328.693
169.769
-456.77
162.801
-304.97
-708.797
549.667
-108.861
-571.22
967.199
581.159
-270.07
-311.089
455.918
-779.975
-646.219
443.54
-1129.41
-836.161
1181.52
-569.763
452.69
276.842
-452.68
84.9005
1028.84
-317.632
594.495
-276.864
-509.028
1578.64
-681.011
237.25
373.036
-610.286
218.324
482.999
-26.9324
-456.067
-256.607
-200.164
1017.72
1108.94
564.797
-873.523
940.927
-67.4042
-458.753
169.802
-730.592
306.139
-591.89
322.587
368.173
824.386
-1233.46
409.073
777.364
-809.37
-948.971
-550.364
1499.33
-165.108
463.655
-544.584
256.724
1299.61
774.698
-576.802
1311.71
-687.185
487.424
-676.692
-408.519
-423.655
-378.212
801.867
502.93
-843.968
-454.047
91.8541
362.193
-323.387
572.403
728.88
-329.412
-244.319
-173.274
417.594
-489.784
140.357
349.427
1457.86
80.8824
-1538.74
-751.016
1346.75
-1144.75
-466.075
538.599
-165.563
1150.49
-373.13
1083.51
492.697
695.584
-420.918
-885.104
-522.305
-1328.45
-26.305
985.025
-958.72
594.864
329.311
-924.175
-330.485
-214.938
-675.741
405.518
1621.19
-179.156
370.289
347.286
-717.575
-1839.77
-2106.68
1519.14
587.539
-2037.31
345.478
362.124
534.844
-896.967
-460.065
1020.42
-394.098
-671.923
1066.02
-2030.53
1391.21
639.32
597.845
-991.944
43.5191
412.975
386.318
195.939
247.2
317.891
959.969
864.155
679.753
-325.946
-353.807
-293.982
621.177
-327.196
573.426
530.243
565.464
514.775
-1080.24
-796.236
-699.291
752.397
398.096
-413.968
701.818
-1193.42
1609.58
418.911
-1090.83
-333.854
537.2
-1381.85
869.633
512.217
-714.461
-352.127
-783.494
360.584
422.91
446.984
718.379
-1165.36
1070.88
-578.779
-407.216
660.659
-253.443
255.228
325.932
-468.391
-431.826
900.217
-236.04
559.456
-952.265
392.809
-459.718
600.598
-1681.26
423.659
671.097
-1094.76
520.941
95.3425
113.407
-2212.79
537.394
-84.7047
1444.03
1777.09
-217.553
-1559.54
-438.43
1789.19
-1986.95
1194.46
792.482
402.582
345.921
-36.7544
870.566
-1283.34
718.855
-869.957
-822.814
796.509
303.815
62.953
-366.768
232.146
186.932
-419.078
1553.18
-835.711
-1530.95
-325.43
487.323
-212.61
-274.713
395.072
366.148
249.333
360.826
-9.03291
1001.62
-992.59
376.33
280.454
-656.784
-734.05
1817.3
-1083.25
-342.361
737.433
-1217.43
-412.595
-915.527
483.701
573.146
-779.346
206.2
761.487
-380.758
-380.729
-427.536
-445.986
448.908
1078.3
1237.37
-668.455
801.135
-345.216
384.28
317.384
-245.307
-217.936
-204.835
611.546
407.673
-847.658
439.985
217.497
352.262
-569.758
-422.923
830.596
754.626
-1147.32
885.167
-60.7805
-489.46
275.969
775.041
-95.8251
1383.86
1890.5
-60.4891
342.273
-317.733
409.596
-1086.04
1077.01
625.663
375.944
385.543
74.366
412.957
263.085
496.496
-371.755
-266.428
-564.774
-89.3379
-359.799
365.027
-5.22708
-256.939
-289.177
1011.05
-1540.7
529.648
-192.865
-178.975
-385.903
666.357
-1633.86
1591.04
-963.173
259.726
-668.244
584.312
1224.42
-1808.73
607.397
983.643
307.923
-1120.77
698.566
-286.522
-293.077
1376.08
-1445.68
826.649
619.027
423.563
-628.384
204.821
-372.7
477.102
-104.402
376.173
110.548
1723.84
458.445
-251.045
557.622
-1704.79
1147.17
-93.7354
393.989
342.531
337.222
-448.412
-615.781
1064.19
416.813
-865.244
-641.167
902.946
570.382
-514.459
-251.452
-439.024
-408.634
-307.218
-827.304
1821.12
-1821.12
-104.447
-1589.86
1694.3
292.892
282.926
-917.28
-555.313
1472.59
-408.093
973.557
-595.122
-1040.27
687.411
390.765
-1078.18
475.5
-161.885
573.06
1220.35
-1793.41
-1041.48
2114.74
-1073.26
-374.859
-297.184
-489.006
815.845
-1751.54
1600.9
150.637
1751.54
-1605.16
-146.377
-245.981
523.637
-277.656
-537.277
1620.78
1563.77
-1976.37
1083.39
-290.212
-258.078
548.289
234.242
-568.096
-698.72
284.751
1341.44
636.308
580.203
483.478
-1063.68
277.318
418.266
875.447
500.083
-1375.53
533.717
-1017.93
1574.94
-563.893
-775.584
-363.073
-124.412
487.485
-489.926
1208.3
-741.787
333.575
367.287
367.955
250.431
-618.386
602.197
831.871
-603.403
263.632
677.295
-514.459
-325.98
-233.309
559.289
1168.55
-673.087
609.964
465.76
-1075.72
-1292.8
1292.8
-386.519
762.463
-283.361
-477.033
760.394
489.824
444.965
-934.79
390.223
-673.584
610.416
-868.778
258.362
-367.027
-493.952
1074.15
-661.498
-710.096
1371.59
-375.985
935.441
-1552.69
675.269
32.6011
-416.463
383.862
-511.089
713.694
252.975
323.689
169.841
305.659
-520.391
233.869
1869.47
-1965.29
264.588
-705.705
450.264
-821.746
371.482
-915.607
1413.21
-497.599
-429.583
-485.944
600.713
1124.2
-1724.91
-714.922
340.063
-460.741
1034.17
-780.226
1043.86
-379.602
-627.786
-489.452
729.073
540.337
-358.836
906.638
-306.286
-183.498
1599.02
-1816.57
-345.853
-606.412
-337.516
477.872
263.705
-592.812
-176.986
1062.35
-786.383
206.715
-289.145
-278.929
568.074
393.086
-879.624
486.538
-485.53
-452.702
-941.608
-350.461
578.806
-228.345
-449.711
-428.203
-335.404
-186.278
-391.899
642.33
-446.463
763.847
-1072.73
624.314
-1407.52
541.264
-27.9861
-1835.45
1863.43
569.881
-449.562
1216.95
-691.029
335.843
-335.843
670.868
-440.257
1040.71
-1635.83
-1158.73
-947.947
292.631
328.547
886.736
715.579
-496.55
-301.99
798.539
1657.53
-1685.52
-434.447
345.59
223.529
1134.86
-524.901
-943.332
1550.47
-607.141
443.333
-247.393
377.87
383.816
-761.686
532.297
471.293
-1003.59
-331.14
664.715
-37.8784
1907.35
1590.52
992.856
-1696.97
727.159
-1177.1
449.938
-492.445
1367.89
837.694
-1341.25
-560.6
270.388
798.994
-401.361
551.906
-1188.7
636.789
-637.34
-1215.54
-695.648
1911.18
-193.566
549.157
-355.59
-174.241
306.063
-499.63
329.091
369.672
-698.763
-1483.44
756.913
726.527
884.105
-1434.47
824.711
-431.423
215.677
-361.547
-592.975
266.995
-642.204
-739.646
698.739
506.091
-1204.83
389.508
-203.012
-186.495
556.12
-958.473
-568.905
-426.055
732.194
-831.288
-1155.66
-1437.96
499.63
938.331
9.60868
-637.651
341.509
296.142
-1314.11
1046.1
268.012
-616.702
-456.024
-665.779
921.758
399.533
-200.044
-199.489
508.185
980.671
-1488.86
977.263
-564.764
167.472
397.291
-401.476
674.478
-409.89
-506.585
169.069
234.336
-1518.5
529.536
541.341
-755.941
244.852
150.29
-456.575
367.654
-820.356
1954.16
-1195.39
-758.769
418.049
-676.317
258.268
325.809
328.095
116.755
-444.85
-569.416
194.53
263.915
-691.69
1374.36
-682.667
423.92
463.934
-1178.39
266.698
1866.78
-1013.59
-853.189
784.958
-532.594
182.133
1402.37
-975.198
-427.174
332.297
-772.554
-616.498
1725.44
611.22
626.154
322.411
-18.5954
267.262
-1138.44
1725.71
-587.277
-1763.52
820.189
1755.85
-1686.46
-69.3967
-659.829
260.183
567.849
-715.992
226.54
1402.65
-564.953
388.074
443.604
-1858.55
1420.12
553.033
-433.579
-119.455
204.413
-539.817
-283.506
-184.796
-352.945
695.476
-578.692
215.619
610.403
550.871
-1161.27
1113.64
-1947.44
833.796
157.339
334.718
-1698.97
1661.09
313.472
-734.39
-165.664
381.341
754.808
679.45
-1434.26
1076.14
-1079.04
526.009
-1104.79
-629.598
252.928
376.67
526.04
-287.854
-604.217
-1031.61
293.207
-721.41
-912.32
176.457
163.479
226.028
391.949
291.376
-683.325
-630.236
-833.983
-978.422
490.34
-1059.76
-294.38
481.561
534.625
646.897
-281.508
-124.516
-410.805
718.728
268.761
-1199.08
568.843
1308.69
-553.878
443.245
-1012.15
-390.369
156.704
396.329
1023.37
551.568
-1715.26
1610.81
1629.59
-564.192
-1065.4
1903.34
-1891.87
-11.4702
210.206
-527.939
-347.589
554.304
-766.407
-322.52
-337.309
1025.37
700.17
-1503.26
803.093
339.113
-26.1905
1625.21
-1084.44
411.351
-1238
462.421
-60.4743
1518.34
1197.41
-470.254
-489.694
-75.0693
-267.826
736.015
-1951.55
-710.171
352.689
-533.125
180.436
192.267
-509.899
1139.91
671.551
-1811.46
-612.535
178.957
942.037
-1497.35
-210.464
678.894
-468.43
875.285
1124.72
-738.153
1349.37
610.136
-486.057
-124.079
-346.013
1172.66
1041.52
-1980.03
938.514
-1172.32
543.624
1488.76
-585.815
-385.972
-148.964
-1241.51
573.056
1160.43
-113.82
946.069
775.535
-1721.6
-206.82
578.471
-1541.73
963.255
486.968
916.678
-1403.65
620.46
586.929
392.934
-1106.65
591.849
1107.35
1216.45
-452.401
-764.046
-1186.2
-1754.94
-7.25457
-1708
-203.008
-425.376
1607.33
-628.732
-978.597
-490.815
1121.61
-1317.78
636.105
681.678
-1361.65
1442.53
-1330.39
592.237
1520.51
-387.727
-572.79
186.817
-1479.8
231.47
176.37
229.963
380.173
437.741
398.871
-836.613
506.301
-939.053
900.785
-1444.81
-699.328
233.398
465.931
-1043.36
459.498
-475.469
863.543
695.644
25.6979
-526.64
171.05
-886.565
-1318.74
-715.156
349.951
365.206
403.296
-722.755
319.459
-479.036
-189.273
-709.875
719.606
1539.6
-593.532
815.231
737.953
1344.8
-844.719
-971.322
-570.404
-796.798
427.618
369.181
-1036.65
-642.204
304.306
337.898
-1433.69
-296.783
-790.51
398.28
392.23
-651.604
404.593
247.012
-678.371
268.481
412.456
487.761
389.515
441.081
479.222
384.329
596.818
-969.813
680.412
467.804
453.846
356.257
-810.103
1630.76
-1079.9
-550.859
-504.494
-285.328
-1028.79
454.454
347.414
409.485
594.264
-1003.75
-1380.75
752.013
-532.899
1146.12
356.13
-55.748
411.89
-865.411
453.521
-1894.47
304.61
441.758
-726.398
284.639
-186.9
403.087
-216.187
-661.314
306.604
354.71
-673.932
320.125
370.452
392.011
612.884
-1020.98
753.148
661.822
-1414.97
438.656
625.537
340.079
392.784
-732.863
409.522
327.91
601.992
672.389
405.91
595.384
-1021.8
426.413
-1669.23
1194.06
475.165
1696.59
-539.171
620.939
-1147.18
526.238
-642.983
348.22
437.092
-935.144
498.052
752.97
-449.733
350.511
344.965
570.544
-916.397
651.241
-1252.98
601.736
375.149
734.822
-1224.75
769.609
509.487
-1279.1
485.377
405.678
-891.055
-501.638
-936.323
-300.645
629.735
352.402
542.055
-894.458
333.165
331.55
-502.178
1944.74
437.302
-847.265
409.963
-917.812
-807.18
-748.472
367.743
-1218.25
438.02
-1733.08
1605.16
127.916
1746
-1600.9
-145.095
-784.241
-592.441
266.019
326.422
-1755.85
1976.37
538.426
791.61
-1330.04
440.031
716.44
690.411
385.552
-1075.96
-75.1895
1617.13
-593.758
385.176
831.77
-649.951
326.964
322.987
-377.935
-297.556
552.784
-219.922
434.699
281.313
-666.514
385.2
264.973
-578.73
-282.827
442.389
-1033.51
591.125
538.038
1092.73
365.901
597.058
312.712
353.397
-666.109
1622.69
-922.52
1691.85
-1520.48
-171.364
-327.468
-823.191
414.558
857.56
-1068.02
-606.642
279.447
-1090.61
1628.64
-1583.98
-78.6275
1662.61
-340.623
-349.573
-369.626
537.062
597.803
-502.277
-28.6849
-550.03
505.85
-282.551
-223.299
1747.06
-1298.15
-624.866
299.442
325.424
401.435
357.226
734.745
-296.319
-398.521
-1746
1685.52
459.439
-1100.98
641.54
-43.3687
1654.18
571.38
476.34
-1047.72
104.801
1144.89
-1452.1
-15.0127
-1879.45
228.194
-598.84
306.912
291.928
-955.488
612.672
-898.269
468.686
-1128.59
673.606
454.986
369.382
268.07
-764.62
-310.185
1216.9
886.831
699.011
-1182.99
456.104
726.883
494.265
700.908
-1195.17
-358.943
-246.515
409.995
-960.675
438.321
522.353
21.2531
-1879.81
1079.92
-469.501
-497.59
558.08
-1378.19
820.109
-426.551
798.033
-404.967
497.746
-707.199
1724.92
410.285
-184.257
217.204
-170.058
-244.617
414.675
1895.32
-504.111
-1690.99
1051.54
-602.404
304.848
-1013.83
553.762
-312.033
544.259
905.328
-1449.59
-1103.85
438.075
-20.7769
-1944.52
1711.26
-669.735
-540.76
460.658
-1190.55
729.889
191.612
207.92
-282.664
769.605
700.395
838.175
818.497
-462.24
1084.98
-475.962
477.66
-193.798
-283.863
-1923.02
-714.338
-317.527
-644.537
-6.96492
651.502
465.984
-271.454
564.599
1058.09
-803.99
924.853
1244.31
-424.911
-193.282
-225.99
419.272
958.517
-888.563
-323.178
-1067.91
611.885
1556.84
-799.924
537.621
934.972
-392.663
735.362
-342.698
1130.44
-276.835
334.22
1349.69
-705.049
-219.506
448.241
-1198.68
750.435
-994.098
-108.982
1103.08
441.96
-955.673
513.713
175.224
732.964
483.483
739.511
-88.949
852.971
-425.426
1182.58
-797.03
552.081
-1465.47
913.386
-1216.66
1800.97
-431.712
-1510.19
879.706
-1402.01
-311.425
-418.97
1457.21
-1523.46
784.776
1491.5
202.154
275.506
-356.295
-1733.08
-291.148
-1009.42
1574.02
-1765.83
1765.83
1563.77
-1004.5
-634.389
-339.82
368.31
605.247
-370.656
-364.056
-1389.85
897.409
1125.15
600.562
1202.8
1789.48
-1216.42
-612.15
272.187
1658.98
-1916.44
257.46
814.433
-1267.51
1545.25
-561.605
782.598
318.443
-343.342
554.733
795.113
673.056
1355.22
-226.43
-444.748
-363.683
497.761
-342.201
471.691
736.613
-299.899
-144.951
-331.523
568.169
-236.647
27.8958
-371.536
1107.47
-1720.27
-438.825
-488.059
-567.563
863.816
693.021
-1596.51
904.822
-451.443
-621.45
-513.788
1252.05
337.792
1723.68
-1702.43
-1657.53
1891.87
-1560.84
840.301
720.538
-375.89
-1795.82
917.672
583.076
819.571
-394.247
1794.28
-680.634
-414.432
679.305
430.374
-1109.68
-1099.88
444.05
753.364
-1617.18
473.176
901.181
176.843
-400.568
223.726
-1595.47
-384.248
-431.465
990.307
-672.668
1442.95
-978.483
1853.77
240.227
-540.358
496.351
-294.197
474.3
893.592
543.077
977.43
-462.623
-427.758
573.901
883.311
-1392.71
-40.988
1572.71
-834.753
519.94
971.562
-1475.82
-1115.9
1770.65
-1242.36
-528.296
1206.12
-318.97
-887.148
-192.199
453.572
-261.373
-457.156
-249.094
429.915
-180.821
145.258
-391.773
1729.82
-1737.08
-459.082
-530.834
-903.635
443.244
-206.995
-236.249
635.699
-457.724
-358.841
-315.276
674.117
-927.295
382.95
-1167.33
676.514
417.07
-635.265
-438.994
1575.18
-859.602
530.178
-457.707
-571.093
-462.42
373.305
-363.525
-9.7806
-1102.36
411.331
-664.724
-1033.67
1698.4
-600.111
-1423.34
713.24
562.172
-1596.26
1034.09
-390.657
-476.935
150.897
534.012
-1258.39
744.599
539.214
1006.03
-2133.18
999.989
1133.19
-363.36
420.605
-395.707
-24.8976
1478.05
-370.696
449.329
1212.33
582.156
906.605
567.878
527.34
-1095.22
165.377
-441.183
-1686.46
254.608
1127.59
-614.448
518.46
1013.78
-1532.24
1092.87
-1643.73
190.413
694.753
547.267
-870.445
-1086.54
-173.518
429.927
-256.409
-587.178
-430.034
-636.849
-629.649
346.984
-1618.68
939.77
-476.665
213.681
-397.937
534.518
-306.324
-606.472
1197.17
-1274.77
923.091
351.679
-1021.52
-369.301
-757.334
-824.473
1688.29
-476.784
1793.56
-1582.26
-211.308
-1556.64
1018.74
537.899
-725.547
-263.685
445.793
-182.108
-591.951
383.194
274.22
-657.413
-523.84
988.193
630.041
-350.595
-1620.28
1050.52
571.758
1103.55
-1675.31
-414.564
-292.009
-369.305
-744.64
-472.789
-329.834
499.674
1557.99
-995.816
-775.303
1497.45
659.952
-314.362
725.88
1152.37
-1878.25
290.824
307.516
-487.053
-1932.05
1719.74
212.304
738.387
-474.141
-264.247
531.821
1060.84
-1592.67
373.305
-1723.02
-233.209
1752.35
-1580.7
1073.79
506.913
-1723.2
0.182064
-521.567
420.605
1698.97
-1719.74
939.709
624.481
-1564.19
385.239
-218.378
-166.861
-412.299
-266.072
70.3647
95.0781
-358.763
-430.455
-438.323
-405.885
218.985
1510.25
378.815
-215.78
-435.825
462.508
-198.594
321.389
1510.78
996.56
-153.339
-843.221
-1104.11
1704.82
-1728.76
1064.04
-707.138
-1021.62
-1265.09
1844.99
-579.9
1155.07
-1771.14
616.066
272.275
-878.203
1675.69
43.4501
-1719.14
-491.153
-1083.07
-1729.82
-982.177
554.419
1019.62
590.216
1133.04
-1723.26
282.892
-448.454
703.806
-383.681
379.649
924.893
680.626
-381.002
-640.795
582.882
1072.57
-1655.45
-400.658
-368.648
769.306
428.93
-1661.09
1520.48
140.603
583.278
-1044.02
544.741
1083.9
-1555.68
994.08
-238.128
229.84
324.464
1903.34
429.843
-76.6969
995.863
722.751
-1718.61
-697.379
1085.36
-1557.52
165.581
-571.68
198.182
264.327
-657.589
-560.657
582.479
1034.65
-711.225
-275.783
-1368.48
675.746
692.733
-413.692
764.267
63.2866
-827.554
561.627
-137.152
1557.28
-214.272
271.052
-771.45
-1932.05
1664.63
1031.5
389.092
301.731
451.239
-930.065
-992.959
-1767.27
636.121
1693.77
508.697
-474.221
1210.83
1087.14
-424.822
1030.07
-978.299
492.776
485.523
700.188
1047.94
-1748.13
484.853
482.346
-1494.01
-746.669
32.3134
780.227
-412.484
-885.113
387.523
-538.761
-802.488
643.519
-577.216
1397.32
1055.14
195.693
234.234
-550.606
1618.53
-772.539
1525.69
-1727.83
575.244
1152.59
543.574
-883.003
-1732.73
1916.44
-183.701
1721.74
182.118
-543.791
373.691
-278.613
-481.338
1211.23
568.268
1128.33
-491.183
431.169
857.985
-461.581
-772.761
426.944
345.817
1418.81
1089.6
-518.165
1422.99
-510.561
-533.551
1044.11
-602.743
475.406
-1199.7
1691.85
1839.58
-687.21
1585.63
-645.924
-1241.31
717.469
-562.43
205.589
-396.558
455.003
-245.007
-520.151
-1246.71
1870.94
-624.23
1173.28
-552.341
1120.29
-1659.46
1694.01
-573.925
-545.441
-549.812
1720.07
-317.109
-688.024
-473.257
1223.69
-1683.84
-1860.1
613.392
299.402
-933.849
168.543
213.8
-1719.03
1204.16
514.87
1162.86
558.887
-511.598
-465.331
1192.21
178.619
224.468
588.443
1251.14
-539.175
-1238.58
1777.76
-1025.4
999.991
866.79
-204.121
-1658.98
1702.43
-510.05
1411.23
-1732.73
-357.359
17.2436
340.116
-262.137
584.879
-322.742
76.1421
488.435
781.108
-377.812
1257.53
1270.88
-413.319
852.136
-437.578
1817.44
-662.37
1586.53
-1723.68
-412.786
-746.331
306.529
439.802
-559.649
-563.267
79.716
-1138.77
-985.496
-669.683
1655.18
-943.708
-1189.47
159.171
-417.248
-648.428
705.617
1167.45
649.994
1410.27
-590.696
1636.75
1318.02
-573.422
-491.488
197.29
-503.259
1396.85
1240.03
-564.285
-999.989
893.215
54.8048
-948.02
603.438
-506.109
1403.52
1495.04
-588.438
-381.658
381.658
-589.406
1623.49
1239.52
-486.16
1134.16
-70.8258
1850.45
-390.542
1489.44
-588.652
-507.658
1347.96
-652.603
1218.5
-565.902
1554.79
-591.534
750.287
574.074
-1324.36
-654.065
279.492
495.207
600.138
-1957.3
-987.414
1586.53
382.407
-382.407
-68.1767
388.235
436.476
385.855
-9.68135
-342.79
896.293
-521.145
-425.856
814.091
-243.584
620.254
-432.627
1546.31
-444.325
-884.121
186.888
224.365
-411.253
601.167
1250.78
-1851.94
927.091
-458.405
-363.525
126.152
-1943.01
1816.86
-449.874
181.559
1181.27
-440.414
-740.857
-302.59
-582.523
-492.446
-395.707
-479.654
256.355
1158.17
-560.369
229.49
-378.91
149.42
-22.4019
-107.67
1376.08
-1268.41
34.4481
-599.222
-586.381
-460.478
460.478
-1262.36
1985.11
-1344.39
-213.76
-1823.7
241.441
-1025.76
-974.242
-185.828
-1637.66
707.59
1229.32
-1924.97
368.937
312.34
-681.277
-1850.01
1234.27
615.74
-564.723
564.723
-959.207
-39.8734
-1866.05
-558.136
1650.86
-677.33
1636.16
-601.512
-175.469
-1703.99
-584.207
-444.6
-594.79
-473.571
473.571
-1537.81
194.525
1343.28
173.994
224.441
-398.435
487.103
509.458
997.087
-474.734
1751.3
768.716
-427.518
402.621
520.678
1702.05
-594.583
-552.957
1636.86
470.368
1812.73
-645.285
-1803.93
-1938.08
-646.941
-484.847
484.847
-589.135
225.452
-691.009
1019.49
-465.729
-1072.33
-287.073
1579.58
1852.3
1635.34
-1635.34
-274.874
739.47
1761.49
595.785
1275.15
175.612
209.627
577.225
591.816
1603.53
-1603.53
222.485
-353.818
-434.725
460.02
951.323
-458.547
-639.77
-1131.02
1706.26
280.468
-1650.64
610.366
-287.573
469.691
1744.64
-592.055
-214.925
-416.518
380.218
727.132
1738.57
-613.415
-511.761
-774.071
1960.53
-870.452
-1090.08
1642.78
-705.987
1223.97
-1824.94
600.968
334.069
-874.428
-186
-110.009
1098.3
-486.415
130.765
616.878
-1648.49
436.992
609.413
-1803.93
-583.272
1787.43
884.29
-1162.93
1760.49
-597.561
1783.83
-575.523
-1208.31
437.387
926.742
-1737.08
924.784
-1495.5
267.236
1228.26
-831.113
-1254.23
-385.378
77.5808
307.797
581.716
269.659
1027.11
-443.858
846.278
-402.42
821.073
738.62
-1559.69
643.785
1066.26
-24.5005
-663.847
688.348
-1744.29
722.671
700.088
150.523
-1122.7
1936.75
-674.547
-1262.21
-537.173
1665.5
829.856
964.058
-1793.91
1227.87
683.319
-403.72
710.324
830.761
1028.31
-586.351
1761.49
626.718
1773.56
-1185.62
-587.935
-379.651
-330.886
710.537
121.435
-1185.71
1660.55
-540.263
-1437.84
1437.84
1250.57
594.414
1351.57
206.414
-562.898
280.594
-189.779
699.067
1113.67
480.256
-301.637
-870.236
-574.57
1736.9
-1736.9
1010.92
-1010.92
987.33
1025.17
-2012.5
1837.94
-613.967
-581.105
823.286
-947.849
-1052.16
998.35
690.543
-1688.89
-521.828
-348.628
-643.316
-808.422
2042.69
-1246.42
-613.678
1002.97
974.851
1289.77
646.984
325.871
1012.69
228.239
337.25
1186.29
1756.87
-1756.87
672.021
80.1667
-391.256
-997.052
-539.988
1674.15
990.369
1009.63
-1833.28
-223.43
-360.777
605.79
-351.182
1849.49
-1077.86