/*--------------------------------*- C++ -*----------------------------------*\
  =========                 |
  \\      /  F ield         | OpenFOAM: The Open Source CFD Toolbox
   \\    /   O peration     | Website:  https://openfoam.org
    \\  /    A nd           | Version:  7
     \\/     M anipulation  |
\*---------------------------------------------------------------------------*/
FoamFile
{
    version     2.0;
    format      ascii;
    class       volVectorField;
    location    "27.5";
    object      U;
}
// * * * * * * * * * * * * * * * * * * * * * * * * * * * * * * * * * * * * * //

dimensions      [0 1 -1 0 0 0 0];

internalField   nonuniform List<vector> 
7807
(
(1.0839 0.11409 3.27107e-20)
(1.07447 -0.0220663 1.01527e-19)
(1.04969 0.0975759 -5.27652e-20)
(1.05677 0.076006 1.05157e-19)
(1.03275 -0.00178564 1.63055e-20)
(0.95098 -0.0105339 1.26278e-20)
(1.05029 0.0957898 -1.04745e-19)
(1.01633 -0.00152544 4.03811e-22)
(1.03054 -0.00148921 1.4429e-20)
(1.03707 0.00319746 -9.03692e-21)
(0.998678 -0.00749255 -1.40145e-20)
(1.03318 -0.00216999 -2.58692e-20)
(0.98062 -0.00238369 -2.49961e-20)
(1.03936 -0.000638283 -1.07185e-19)
(1.03576 0.00332788 3.7722e-20)
(1.02761 -0.00885961 4.00653e-20)
(1.08458 0.118057 -6.94271e-20)
(0.960346 0.000745383 6.98404e-21)
(1.0345 -0.00562323 -2.03237e-20)
(1.0194 -0.0726114 8.61805e-21)
(1.05211 0.00519571 -2.88847e-20)
(1.03287 0.000235864 7.35785e-20)
(1.04099 -0.00141271 1.38736e-20)
(1.01609 0.0443715 -6.40296e-20)
(0.928005 0.00326458 2.4865e-20)
(1.08122 0.11242 -3.28245e-20)
(1.03302 -0.00153858 1.36287e-20)
(1.04258 0.000770648 3.53179e-20)
(1.00733 0.0219037 -9.31651e-21)
(1.03461 -0.00572613 1.81364e-20)
(1.0238 -0.00916894 5.71702e-20)
(0.522991 0.00968403 1.08562e-20)
(1.04042 -0.0015397 7.47822e-20)
(1.03079 -0.00254999 -3.11436e-20)
(0.491506 0.000109601 -7.02866e-23)
(1.03908 0.00311836 1.44061e-20)
(1.03535 -0.0068995 1.33565e-20)
(1.04959 0.0952885 -1.77907e-20)
(1.02987 -0.00522846 -7.24427e-20)
(0.87943 -0.00374539 -3.84445e-20)
(1.03023 -0.0052606 7.28948e-21)
(1.02767 -0.00843921 1.49515e-20)
(1.04315 -0.0804033 -4.10054e-20)
(1.15616 -0.0150665 -1.44932e-20)
(0.460777 -0.00213641 -1.82926e-20)
(0.909641 0.00782952 8.03469e-21)
(1.03176 0.000391913 -4.47577e-20)
(1.03071 -0.0047388 4.26444e-20)
(1.02941 -0.00244756 7.88312e-21)
(1.02311 -0.0731931 -1.26925e-20)
(1.03361 -0.00169776 2.06282e-20)
(1.04331 0.00144392 -3.81428e-20)
(0.878488 0.00305227 6.77951e-20)
(1.0406 -0.0187824 1.45412e-20)
(1.03944 0.00239664 -1.10889e-20)
(1.02965 -0.00283198 7.40199e-21)
(1.03355 -0.00478445 3.20599e-20)
(0.994683 -0.00144117 -4.76449e-20)
(1.01656 -0.0107889 6.52949e-20)
(1.03058 -0.0030207 3.7835e-20)
(1.0289 -0.00132937 -1.90484e-20)
(1.03494 -0.000174191 1.95989e-20)
(1.03991 -0.000185123 -2.42288e-20)
(1.03257 -0.00150589 2.64145e-20)
(0.898836 -0.00867969 -2.79415e-20)
(1.0242 -0.00957313 -9.1252e-21)
(1.02965 -0.00185986 -1.34194e-20)
(1.02682 0.000237149 1.94447e-21)
(1.1435 0.0791351 3.30034e-20)
(1.03092 -0.00426229 1.71811e-20)
(0.985206 -0.00193121 -7.28504e-21)
(1.01117 -0.0398027 7.65125e-20)
(0.970729 -0.000495366 -1.22727e-20)
(0.79266 -0.00294107 -1.03942e-20)
(0.992668 6.16573e-05 -2.18908e-20)
(1.0054 -0.0178371 1.04284e-20)
(1.05014 0.098409 8.45399e-20)
(1.05068 0.00469124 3.62976e-20)
(1.0955 0.0164214 -7.44323e-20)
(0.998853 -0.0313094 8.64711e-20)
(1.00577 -0.00335668 3.85127e-20)
(1.02661 0.103612 1.20103e-19)
(1.05378 0.0162425 6.35569e-20)
(0.971058 -0.00302349 -4.6624e-20)
(1.03062 -0.00234422 2.20211e-20)
(0.761512 -0.00338195 -1.17976e-20)
(1.02595 -0.00293608 -6.36625e-20)
(0.929209 -0.000945129 -4.33106e-20)
(1.03184 -0.00153566 -1.86511e-20)
(0.75949 -0.00580249 -2.28149e-20)
(1.0077 0.024861 6.61225e-20)
(1.18122 0.00245455 2.2494e-20)
(1.02461 -0.00240181 1.34341e-20)
(1.03343 -0.00451167 1.49807e-20)
(0.999207 -0.00344815 -2.72833e-20)
(0.523323 -0.00365246 8.04291e-20)
(1.01305 -0.0396134 -4.6056e-21)
(1.04175 -0.0177216 -2.50559e-20)
(1.03033 -0.00228666 -4.40526e-21)
(0.848561 0.00776915 -7.99389e-21)
(0.860581 -0.0115092 -2.19743e-20)
(1.09574 0.0207896 5.59779e-20)
(1.01767 -0.00124543 6.74706e-20)
(0.510124 -0.00122082 1.01747e-21)
(1.18243 0.0129159 1.42106e-20)
(1.04126 0.0421381 -6.35854e-20)
(0.758159 0.0435667 1.47364e-20)
(1.02884 -0.00287032 2.82652e-20)
(1.02543 -0.00112596 -6.60743e-22)
(1.04808 -0.00504894 -3.06554e-20)
(1.05814 0.0729534 -1.22048e-19)
(1.05589 -0.0556917 7.76442e-20)
(1.0263 -0.00108084 8.29162e-22)
(1.04947 -0.0049971 -6.65124e-21)
(1.03723 0.0408974 6.63742e-20)
(1.03125 -0.000342449 -1.00148e-20)
(1.09683 -0.0641816 5.6804e-21)
(1.04129 0.0266244 -1.75909e-20)
(1.02077 -0.0308718 -4.69341e-20)
(0.872889 -0.000276753 1.1118e-20)
(0.648866 -0.00546082 5.18184e-20)
(1.00842 0.0585775 -7.99645e-20)
(1.04872 -0.0789545 5.63346e-20)
(1.03754 -0.00348407 8.57011e-21)
(0.728791 -0.0073806 -2.03447e-20)
(1.03166 -0.0017565 -3.96255e-20)
(1.02543 -0.0065615 -2.09783e-20)
(1.03362 -0.0049476 -2.46067e-20)
(0.756018 0.00900819 6.4495e-20)
(1.02438 -0.00819957 -1.37823e-21)
(1.21499 -0.00694474 6.52206e-21)
(1.09084 0.0139588 1.24864e-20)
(1.03149 -0.00306196 -2.92588e-21)
(1.03147 -0.00164749 4.14138e-20)
(0.936518 -0.00362018 -1.33469e-20)
(1.05492 0.0679728 4.85578e-20)
(1.0305 0.116323 1.35773e-19)
(0.748659 0.0096621 2.03026e-21)
(1.03751 -0.0017549 4.70087e-21)
(0.543764 0.00519255 5.59799e-20)
(0.673195 -0.00363701 4.58743e-20)
(1.02467 -0.0444961 5.88001e-20)
(1.0066 -0.0194344 -1.39769e-20)
(0.783605 -0.00018485 8.18498e-22)
(0.608472 0.00344419 5.82796e-20)
(1.04316 -0.0305774 3.84196e-21)
(1.0158 0.0269215 -3.52892e-20)
(1.01837 -0.0137185 3.50774e-20)
(0.576829 0.00389192 -9.918e-21)
(1.01155 0.0824231 -3.99083e-20)
(1.04075 0.00340613 4.20939e-20)
(1.17036 -0.00172815 9.85463e-21)
(1.03171 -0.0015451 6.20869e-20)
(1.14848 0.0732525 7.85292e-21)
(1.05184 0.0154122 -6.73391e-20)
(1.05064 0.0945664 -9.18532e-20)
(1.00121 -0.0216903 -3.76221e-20)
(0.904625 -0.00586327 -9.50695e-21)
(1.04706 0.0766983 1.3355e-19)
(1.02797 -0.00750083 8.48302e-21)
(1.03344 -0.00460283 -3.73841e-20)
(1.01678 0.048942 4.40065e-20)
(1.02669 -0.00221221 -1.0247e-20)
(1.03112 -0.00344642 7.49649e-20)
(0.960232 0.00147708 1.20172e-20)
(1.00693 0.0556447 -1.32728e-20)
(1.00386 0.0409004 4.77596e-20)
(1.0357 0.0708601 4.15048e-20)
(1.03088 -0.00367055 3.24244e-20)
(0.692091 0.00074662 1.53747e-20)
(1.02795 0.00103257 -1.94528e-21)
(0.413285 -0.00322853 8.27078e-20)
(1.03155 -0.000591701 1.33864e-20)
(1.07568 -0.0187887 -1.18789e-19)
(1.03729 -0.00202483 3.06368e-20)
(0.669945 -0.00230367 -1.93536e-20)
(1.17312 0.0205486 2.65366e-20)
(1.10812 0.0759106 2.6841e-21)
(1.02862 -0.00260408 -7.7917e-21)
(1.03171 -0.00192689 3.82907e-20)
(1.05875 0.0780902 -1.7496e-20)
(0.992802 -0.00230125 3.46048e-21)
(0.68862 -0.0130393 -4.39796e-21)
(1.05009 0.0954628 -8.60372e-20)
(1.07674 -0.0245658 5.1442e-20)
(1.04357 -0.0463969 4.95483e-20)
(1.02225 -0.0297763 6.73645e-20)
(0.937435 -0.00279171 -3.37377e-20)
(1.0409 -0.0318194 -9.48088e-21)
(0.498713 -0.00325385 -2.98446e-20)
(1.02599 -0.00255853 3.23406e-21)
(1.01367 -0.0368553 1.88383e-20)
(1.1097 0.0816493 -4.98696e-20)
(1.02625 -0.00121902 -9.69408e-21)
(1.0301 -0.000453114 -9.50026e-21)
(1.08682 0.0781106 3.92388e-21)
(1.01821 0.00186001 -6.21609e-20)
(1.025 -0.00780413 -3.12798e-20)
(1.03847 -0.0300371 -3.39748e-20)
(1.02842 -0.000804369 -8.17262e-22)
(1.03191 -0.00155478 -3.22889e-20)
(1.05177 0.0687513 5.50318e-20)
(1.09953 0.0855143 -5.64189e-20)
(1.04799 0.0945842 -1.20525e-20)
(1.09251 -0.0588083 -3.20337e-20)
(1.05889 -0.0523212 -1.59735e-20)
(1.14186 -0.0863611 8.19949e-21)
(1.04155 -0.000688043 9.53015e-20)
(1.04782 0.0668371 -2.03528e-20)
(0.64683 -0.018125 1.84973e-20)
(1.02977 -0.000718454 5.51156e-21)
(0.464528 0.0451279 -6.18546e-20)
(1.02828 -0.00825852 1.62379e-20)
(1.03137 -0.00336127 2.59945e-20)
(1.01548 -0.0362632 -4.36126e-20)
(1.02505 -0.00693536 2.32684e-20)
(1.05182 0.090687 -1.10139e-19)
(1.04975 0.0912011 -2.4533e-20)
(1.02251 -0.0456818 -1.51749e-20)
(0.795337 0.0259872 -4.40918e-20)
(1.03045 0.00113019 4.7135e-20)
(0.90577 -0.00189098 -2.45471e-20)
(0.806877 -0.00998803 -2.84683e-20)
(1.04933 0.00854929 -1.8853e-20)
(1.04812 -0.104005 3.78035e-21)
(1.09786 0.115116 -7.84919e-20)
(1.04541 0.0743094 -1.1654e-19)
(1.02925 -0.00143306 1.38178e-20)
(1.037 -0.00348297 1.13018e-20)
(1.03862 0.0294681 9.19724e-20)
(1.03072 -0.00394634 5.68728e-20)
(1.0444 0.0272189 -1.21263e-20)
(1.0317 -0.00151196 1.35245e-20)
(0.987905 0.0604235 8.12618e-20)
(1.04976 0.0935121 1.89469e-20)
(1.01891 -0.00195403 -3.88582e-20)
(1.03452 -0.00504044 -2.24287e-21)
(0.941989 -0.00355616 7.33542e-20)
(1.12514 0.0997648 2.67329e-20)
(0.673667 0.0118496 -1.34257e-20)
(1.02972 -0.00633317 -1.5908e-20)
(0.920081 -0.0190157 -3.27158e-20)
(1.02524 -0.00455182 3.0209e-21)
(1.03079 -0.00247605 1.63373e-20)
(1.03168 -0.00160384 -1.50043e-20)
(1.0798 0.0549882 6.1715e-20)
(1.02761 -0.00223204 -1.34097e-20)
(0.627028 0.00423913 -8.82668e-23)
(1.00096 -0.0313007 -1.00886e-19)
(0.40766 0.0141361 -2.3713e-20)
(1.0905 0.00970228 -1.84073e-20)
(0.986377 0.0539298 6.49756e-20)
(0.885183 -0.0015191 9.82585e-21)
(1.03656 -0.0307806 -2.89554e-21)
(1.03062 -0.00240366 2.98687e-20)
(1.05035 0.0953735 -8.76272e-20)
(1.03369 0.000398017 -2.42018e-20)
(1.04049 0.13763 4.29515e-20)
(1.03425 -0.00628423 -6.02042e-20)
(1.03262 -0.00130844 4.11042e-20)
(1.05518 -0.0193539 -4.6154e-20)
(1.04096 0.000273867 -8.88505e-20)
(1.03149 -0.000571586 2.06825e-20)
(0.954644 -0.00584693 -1.32657e-21)
(1.03151 -0.000798651 5.2228e-20)
(1.03079 -0.00414595 4.8036e-20)
(1.04976 -0.0480812 -6.16678e-20)
(0.972466 -0.00779244 -6.46163e-21)
(1.00259 -0.0206253 -2.75353e-20)
(0.99898 0.000111921 2.5645e-21)
(1.01572 -0.00410101 -1.41893e-20)
(1.03168 -0.00317642 -7.8083e-21)
(1.05056 0.119963 1.02179e-19)
(0.575857 -0.00274945 -1.14613e-20)
(0.74023 0.00399656 7.0762e-21)
(0.305928 0.0251806 1.00619e-19)
(1.03066 -0.00270767 3.10018e-20)
(1.07724 0.0938761 -4.23497e-20)
(1.03054 -0.00244031 -4.35548e-20)
(1.03777 -0.0138405 4.43377e-20)
(1.02921 0.000888008 -6.09157e-22)
(1.02036 -0.0242072 2.89174e-20)
(1.04927 0.00792343 2.72194e-20)
(1.17377 0.029028 -6.13848e-20)
(1.01681 -0.0120087 -5.59579e-20)
(1.03113 -0.00202771 -4.77871e-20)
(1.01853 -0.0604463 -2.17493e-20)
(0.148239 0.000359212 -3.08395e-20)
(0.642229 0.0154301 -2.20703e-21)
(1.03156 -0.000740786 -4.63421e-20)
(1.0313 -0.0026358 -3.59734e-20)
(0.855392 -0.010236 3.67102e-20)
(1.03466 -0.000892302 -3.99237e-20)
(1.03135 -0.00167226 -2.06857e-20)
(0.973154 -0.00252193 -7.87864e-21)
(1.05346 -0.0459479 4.14426e-20)
(0.935228 -0.000625524 -3.42211e-20)
(1.14935 -0.00864445 4.1501e-21)
(0.842481 -0.00276518 3.62832e-20)
(1.05549 0.0980968 9.91276e-21)
(1.05413 0.0990782 -7.44924e-20)
(1.03165 -0.000783923 3.27122e-20)
(1.19288 0.0298423 7.74467e-20)
(1.01145 -0.00232396 1.10569e-21)
(1.03148 -0.00319939 3.8275e-20)
(0.375183 0.00406813 -8.29298e-20)
(1.01201 0.0398463 3.7691e-20)
(1.05445 0.0209767 -5.6068e-20)
(1.02933 -0.00171632 1.88596e-20)
(1.03149 -0.00267926 5.57528e-21)
(0.897161 -0.00278207 -2.73884e-20)
(1.066 0.0506561 -2.4963e-20)
(1.03175 -0.00175464 -2.24417e-20)
(1.03271 -0.00103488 1.8352e-20)
(1.03235 -0.000527347 -4.29512e-21)
(1.13045 0.0389029 6.40883e-20)
(1.2154 -0.0184026 4.01514e-20)
(1.0635 0.107466 4.92136e-20)
(0.819142 0.00262433 3.07711e-20)
(1.08443 -0.0220172 -1.00638e-19)
(1.02884 -0.00228764 1.37017e-20)
(1.03514 -0.0046715 -6.30285e-20)
(0.999624 -0.00375319 2.99428e-21)
(1.02271 -0.0133818 -9.63071e-21)
(0.952323 -0.00335681 1.25333e-20)
(1.04099 -0.0129388 6.20136e-21)
(1.21255 0.0346913 -6.54614e-20)
(1.01308 -0.0187683 -5.46316e-20)
(1.03864 -0.0131239 -1.29395e-20)
(1.0363 -0.00291731 -1.86238e-20)
(0.86906 -0.00837035 -3.29223e-20)
(1.05043 -0.00827565 2.03437e-20)
(1.03072 -0.0118011 -2.83207e-20)
(1.09032 0.0246198 -2.78803e-20)
(1.07538 0.0534767 2.99475e-20)
(1.18882 -0.0910708 -5.54298e-22)
(1.15438 -0.0238278 3.62638e-20)
(0.265358 -0.0018128 3.29792e-20)
(1.03513 -0.00197893 4.41323e-20)
(0.923372 -0.0178189 1.34021e-20)
(1.01675 0.0645829 -1.30018e-19)
(1.13716 -0.0264648 -6.39553e-20)
(1.04836 -0.00241408 -6.02475e-20)
(0.878162 0.0372506 -6.15225e-20)
(0.721724 -0.0125199 -1.51499e-20)
(1.03141 -0.000764058 8.94143e-21)
(1.16838 -0.0110886 3.59639e-20)
(1.03164 -0.00200682 1.83338e-20)
(1.04323 -0.0280453 -1.31585e-20)
(1.03547 -0.00203094 1.40733e-20)
(0.77539 -0.0016255 1.44037e-20)
(0.825113 -0.000743273 2.99867e-20)
(1.04477 0.0365757 5.04823e-20)
(1.02967 -0.00174803 5.85151e-21)
(1.03155 -0.000264637 -1.82105e-20)
(1.02924 -0.000362377 1.63868e-20)
(0.871973 0.0052424 -6.58644e-20)
(1.02921 -0.00581543 -4.29582e-20)
(0.969813 -0.00526876 -6.94703e-22)
(0.965125 0.00279998 -4.47247e-21)
(1.01754 -0.0100521 -2.02876e-20)
(0.68626 0.0146625 3.49398e-20)
(1.04008 -0.0138498 -2.78553e-20)
(1.02848 -0.00772945 -6.00789e-20)
(1.06454 0.0872078 1.70723e-20)
(1.00438 0.0473251 7.68528e-20)
(1.08155 0.0140143 -2.67284e-20)
(1.18482 0.0339367 -2.95056e-20)
(0.305532 0.00545001 -4.50588e-20)
(1.03514 -0.00233519 -2.30707e-20)
(1.01799 0.0668373 -3.82472e-21)
(0.822428 -0.00310503 5.30594e-20)
(1.06595 0.0940824 2.04155e-21)
(1.04073 -0.0344974 -1.63365e-21)
(1.06878 -0.0900637 1.81714e-20)
(1.09613 0.0829565 3.4781e-20)
(1.06749 0.0969335 -4.81827e-20)
(1.00203 -0.0173495 -6.49971e-20)
(1.05589 0.0189399 -3.95768e-20)
(1.10069 0.118853 7.37214e-20)
(1.07358 0.0942452 7.54451e-20)
(1.04299 0.00158356 3.06794e-20)
(1.02861 -0.00119684 -1.59938e-20)
(1.02959 -0.00289428 -1.09691e-20)
(1.00791 -0.00112206 6.86202e-21)
(1.04501 -0.0169483 1.91792e-20)
(0.728734 0.0035642 -1.18883e-20)
(1.03179 -0.00224012 -2.34332e-20)
(0.950956 -0.00380478 1.20402e-20)
(1.03022 -0.000604446 -1.23905e-20)
(1.01621 -0.0593309 3.5916e-20)
(1.11581 0.0474664 2.37143e-20)
(0.979254 -0.00308031 5.08833e-20)
(1.03162 -0.00761604 -6.84592e-20)
(0.873738 0.00295272 3.41007e-20)
(1.08234 -0.0247044 3.55484e-21)
(0.88958 -0.00683613 6.51755e-20)
(1.03341 -0.00435318 4.47441e-20)
(1.11057 0.116322 1.16476e-20)
(0.861048 0.00349534 7.43191e-20)
(1.02842 -0.00224165 1.13269e-20)
(1.03004 -0.00176616 4.07235e-21)
(1.02928 -0.00163192 2.61132e-20)
(0.974626 -0.00254448 -1.93858e-20)
(1.04271 0.0339455 -6.34858e-20)
(0.738583 -0.00562666 -8.88864e-22)
(1.0457 -0.0030726 4.11799e-20)
(1.0559 -0.108845 -2.69165e-20)
(1.04955 0.0959509 -2.00053e-21)
(1.03464 -0.00490786 2.39183e-20)
(1.03671 -0.00291682 -4.15312e-21)
(1.02858 -0.00273799 3.17416e-20)
(1.04026 0.118575 -1.00787e-19)
(0.736772 -0.00189907 -1.65392e-20)
(1.06507 0.109789 -2.55386e-20)
(1.01243 0.027924 -6.49388e-20)
(0.977161 -0.0032609 -1.32976e-20)
(1.03903 -0.0353438 3.72183e-20)
(0.939953 -0.00259715 3.19931e-20)
(1.02759 -0.0452527 -7.38808e-20)
(1.03115 0.000240962 1.74977e-20)
(1.07697 0.0161789 3.61664e-20)
(1.0371 -0.00978673 -1.33933e-21)
(1.03631 -0.00224079 6.92742e-21)
(0.903163 -0.00620139 4.21004e-20)
(1.08403 0.0525956 3.22738e-20)
(1.06162 0.0496323 9.38672e-21)
(1.04201 -0.0486759 -4.18891e-20)
(1.0182 -0.0124739 3.63413e-21)
(1.03145 -0.00282252 2.53076e-20)
(1.03426 -0.0275598 8.5939e-20)
(1.14527 0.0649762 -4.82385e-20)
(0.625338 0.0196183 -5.40818e-20)
(1.1083 -0.0516794 2.96925e-20)
(1.03565 -0.00489763 -1.31125e-20)
(1.02643 -0.00115114 6.55017e-22)
(1.00357 -0.00232625 4.97829e-20)
(0.834959 -0.00256869 -5.96388e-20)
(1.04983 -0.00855341 3.36597e-20)
(1.04023 -0.0849434 1.46938e-20)
(1.19314 0.0184444 -2.92949e-20)
(1.05285 0.0981029 -1.15412e-19)
(1.0695 0.047465 4.4917e-20)
(1.14235 -0.0756215 -3.01667e-20)
(1.08693 0.0828629 1.33938e-20)
(1.01415 0.0803266 1.25246e-19)
(1.04321 -0.00160922 3.52095e-20)
(1.03201 -0.00148213 5.16562e-20)
(1.04679 0.0748204 2.74855e-20)
(1.03165 -0.00198048 -3.90126e-20)
(1.02999 -0.00266801 -1.1682e-20)
(0.52987 -0.00127981 -1.31084e-20)
(1.03094 -0.00148811 3.97383e-21)
(1.15135 -0.0929581 -1.07661e-20)
(1.03535 -0.0110454 3.16229e-20)
(1.0219 -0.0238664 -5.23953e-20)
(1.03239 -0.000993731 1.65589e-20)
(1.08255 0.0759802 7.41386e-20)
(0.868881 -0.000673154 6.14509e-21)
(1.02825 -0.00241369 7.76631e-23)
(1.06259 -0.0949407 -1.87893e-20)
(1.03231 -0.000367423 -1.02291e-20)
(1.11745 0.0128577 -6.99899e-21)
(0.863615 -0.0112142 -1.09947e-20)
(0.714135 -0.00360944 -3.28043e-21)
(1.19135 0.0717116 -5.53451e-21)
(1.03549 0.028256 -2.35188e-20)
(1.0322 0.00948247 1.61982e-20)
(1.03016 0.00867079 -7.62189e-21)
(0.924946 -0.00629384 -3.68282e-21)
(1.12253 0.0472602 1.87349e-20)
(1.09051 0.0282999 3.36759e-20)
(1.03214 -0.00246423 -1.55205e-20)
(0.999612 -0.00292862 -5.87974e-20)
(1.03192 -0.000398859 -1.93958e-20)
(1.04082 -0.0116936 -7.3082e-20)
(1.03972 -0.0183592 1.36041e-20)
(1.03541 -0.00114421 -4.36287e-22)
(1.03161 -0.0018347 4.89371e-20)
(1.12491 0.093513 -7.91842e-20)
(1.02736 -0.00289138 1.37823e-20)
(1.03106 1.50949e-05 -1.14276e-20)
(1.03412 -0.00111503 -2.43513e-22)
(0.630547 -0.00272037 -3.18508e-20)
(1.04376 -0.00483342 4.11288e-20)
(1.02124 -0.0196064 7.7792e-20)
(0.704977 0.00136019 1.58908e-20)
(1.04645 -0.0456113 -2.7803e-20)
(1.07463 -0.11699 2.95988e-20)
(1.05351 -0.0174793 2.46474e-20)
(1.0506 0.0735709 -1.58232e-19)
(1.20366 0.0387832 3.92607e-20)
(1.02129 -0.00332688 3.90236e-21)
(0.96744 0.0551016 9.38334e-20)
(1.01513 -0.0414206 -6.99602e-20)
(1.02904 -0.00631462 -1.2848e-20)
(0.642738 0.00449003 -2.74908e-20)
(1.03125 -0.0115083 5.90199e-21)
(0.533468 0.00555998 -5.14469e-20)
(1.01485 -0.00244916 1.81622e-20)
(1.0491 -0.00421509 -4.57517e-20)
(1.14496 -0.0290454 1.38946e-20)
(1.02837 -0.00232836 1.09039e-21)
(1.04664 -0.00455204 -3.28084e-21)
(1.00686 0.00285706 6.99693e-21)
(1.05231 0.0944038 2.47922e-20)
(1.14415 0.084579 7.33685e-20)
(1.025 -0.00230141 -1.09289e-20)
(0.599222 2.8549e-05 6.13296e-20)
(0.993181 0.000783469 2.41229e-20)
(1.0192 0.102554 7.9513e-20)
(1.06112 0.0967973 6.12083e-20)
(1.1251 0.0402561 -3.49152e-20)
(1.12691 0.114458 -6.25486e-20)
(1.01506 -0.0442319 2.99026e-20)
(1.02066 0.0715028 -1.20259e-19)
(1.02964 -0.00173318 -1.22239e-20)
(1.06965 -0.0111537 7.98285e-20)
(0.406657 0.0105039 1.57414e-21)
(1.10215 0.073789 -1.8793e-20)
(1.01606 0.0650125 -8.19187e-20)
(1.14908 0.0594244 7.34126e-20)
(1.06384 0.0416191 7.31437e-21)
(1.03208 -0.0075804 2.06751e-20)
(1.02556 -0.00330611 2.07844e-20)
(1.13059 0.103 2.77948e-20)
(1.20294 -0.00113629 -1.22818e-20)
(1.03699 0.112972 -3.02504e-21)
(1.11112 0.0111496 8.64587e-20)
(1.04818 0.0625369 4.94449e-20)
(1.00629 -0.00471728 1.18598e-20)
(1.04966 0.0982336 3.16942e-20)
(1.06274 0.0941044 2.31102e-20)
(1.01348 -0.000381273 5.53157e-20)
(1.0237 -0.00349225 2.46217e-20)
(1.14038 0.0962332 2.0079e-21)
(0.657105 0.00422821 5.4958e-20)
(1.02961 -0.00176635 1.61644e-20)
(1.01581 -0.00266338 -6.50263e-20)
(0.840799 -0.0141726 -4.16065e-20)
(1.02547 -0.0579946 7.54657e-21)
(1.03721 -0.00162372 -6.42513e-20)
(1.03624 -0.00247019 5.75701e-21)
(1.031 -0.0022802 2.07616e-20)
(1.06221 0.0993465 -9.08273e-20)
(1.03294 -0.00735135 -5.30095e-21)
(1.02874 -0.00210085 -6.32311e-21)
(1.05287 -0.0414007 -4.95616e-20)
(1.03126 -0.002926 -1.2263e-20)
(1.0138 -0.00530677 -2.04948e-21)
(1.03516 -0.00716461 -1.41332e-20)
(1.07437 0.0767805 9.51608e-20)
(1.0543 -0.0833217 -2.82124e-20)
(1.05838 0.0796751 5.03075e-20)
(1.02948 -0.000942817 -1.28311e-20)
(1.07832 0.0788963 -1.00815e-19)
(1.04602 -0.0349553 -3.87247e-20)
(1.03011 -0.0020692 4.24591e-21)
(1.02881 7.98797e-05 -6.46348e-21)
(1.00405 0.0162767 -1.1094e-20)
(1.06978 0.0699017 3.61826e-20)
(1.02986 -0.00280324 -1.17454e-20)
(1.06399 0.0588685 -5.15006e-20)
(1.02856 -0.000171978 4.78733e-21)
(1.06512 0.0635767 -6.94376e-20)
(1.17564 -0.0948555 -2.94589e-20)
(0.992634 -0.000477783 -5.9923e-20)
(1.00472 0.0491986 -1.59449e-19)
(1.01577 -0.0338806 -5.28493e-20)
(1.13084 0.110283 6.41399e-20)
(0.665679 -0.00272455 -1.61534e-20)
(1.06927 0.065281 8.9075e-20)
(1.07397 0.0717475 -2.61274e-20)
(1.01874 -0.00365431 -8.85609e-20)
(1.00844 -0.00359679 5.26681e-20)
(1.02985 -0.00610089 -4.93596e-20)
(0.97817 0.00032438 1.33416e-20)
(1.03017 -0.0024924 -2.63711e-20)
(1.03283 -0.00723317 8.73287e-21)
(1.06767 0.0906587 -1.17988e-20)
(1.02819 -0.00243254 -3.0451e-21)
(1.05943 0.0575887 6.76931e-20)
(1.06726 -0.082272 -4.84923e-20)
(1.03553 0.0896296 3.11464e-20)
(1.05835 0.0532208 -7.92023e-20)
(0.7963 -0.0112315 5.64673e-21)
(1.05719 0.0857607 -1.08511e-19)
(1.03169 -0.00120029 2.1832e-23)
(1.04455 -0.015356 2.86862e-20)
(1.08133 -0.0539081 -1.76803e-20)
(0.539176 0.00127247 3.0888e-21)
(1.02911 -0.00327315 -3.67112e-20)
(1.04389 -0.0362863 3.07859e-20)
(1.07391 -0.00289466 -7.04647e-21)
(0.90669 0.0427761 1.19632e-19)
(1.028 -0.000821198 1.78208e-20)
(1.03133 -0.00100684 -2.04819e-20)
(1.05196 -0.0554378 1.35236e-22)
(1.02946 -0.000935915 1.04228e-21)
(1.05286 0.0958507 1.19922e-20)
(1.03239 -0.000122122 0)
(1.02847 0.000578562 9.09378e-22)
(1.02947 -0.000207492 2.82074e-20)
(1.03233 -3.39808e-05 3.41237e-22)
(1.02295 -0.0124661 -6.56331e-20)
(1.04708 -0.00775446 -2.31931e-20)
(1.03193 -0.00127869 -4.02881e-20)
(0.92695 0.00529533 -1.42492e-20)
(1.02743 -0.00335139 -1.9215e-20)
(1.03481 -0.00731553 -1.55537e-20)
(1.03 -0.0914572 3.66398e-20)
(0.414169 -0.000206057 -4.54602e-21)
(1.04314 -0.00430084 6.35239e-20)
(0.754072 -0.00963922 -8.80996e-21)
(1.13412 -0.119055 -3.71904e-20)
(0.970263 -0.00372167 2.73101e-20)
(1.13074 0.0883767 -5.54896e-21)
(1.0016 0.0216769 -2.55241e-20)
(1.03187 -0.00210326 1.50174e-20)
(1.12196 0.0789875 -8.22616e-20)
(1.02927 -0.000513295 -5.46219e-22)
(0.99968 -0.00311227 -5.5437e-22)
(1.03878 0.00278589 -4.52663e-20)
(1.02961 -0.00333576 1.48333e-20)
(1.07652 0.0858613 -5.96344e-21)
(1.02486 -0.0033905 5.03979e-20)
(1.07021 -0.0087753 -6.1894e-20)
(1.03885 0.0043373 -4.57534e-20)
(1.07435 0.0490197 -1.74887e-20)
(1.03721 -0.00895024 -4.05075e-20)
(1.02232 -0.00203844 -1.46364e-21)
(1.09165 0.0751629 5.03074e-20)
(1.01968 -0.0644183 3.78489e-20)
(1.05065 0.0959561 9.71254e-20)
(1.02789 -0.00264586 6.80131e-20)
(1.07862 0.101418 2.99675e-22)
(1.02687 -0.00188366 -1.81418e-20)
(1.03237 -0.000650992 3.524e-21)
(1.06316 0.038522 2.15417e-20)
(1.04397 -0.0183115 -2.1377e-20)
(1.05159 0.0124389 6.54742e-20)
(1.03115 -0.000706449 1.14084e-20)
(1.02892 0.00103052 4.21228e-22)
(1.04196 -0.10656 -1.3485e-20)
(1.11015 0.111531 -7.26372e-20)
(1.03207 -0.00204151 -1.34551e-20)
(1.12896 0.0811143 9.12574e-21)
(1.02528 -0.00347518 3.59337e-20)
(1.12611 -0.126681 1.24486e-20)
(1.07034 -0.0229318 9.42548e-21)
(1.02097 -0.0210532 -4.21022e-20)
(1.03188 -0.00102072 1.60877e-20)
(0.66358 -0.00373374 1.44009e-20)
(1.01436 -0.0537119 2.60027e-20)
(0.936715 -0.00400582 -5.92458e-20)
(1.02305 -0.00157545 -4.57408e-20)
(1.03079 -0.00192544 -1.91668e-20)
(1.04971 0.0963965 -1.05702e-20)
(1.12003 0.0723145 5.22021e-20)
(1.04691 -0.00324726 -1.4816e-20)
(1.03001 -0.00291893 -1.7959e-20)
(1.06112 0.0916532 -4.35682e-20)
(1.02818 -0.000974694 5.18709e-21)
(1.02974 -0.00279647 -3.72768e-20)
(1.11331 0.0707665 4.4558e-20)
(1.04022 -0.0152769 3.97256e-20)
(1.11822 0.103943 6.66343e-20)
(1.04293 7.92029e-05 2.57793e-20)
(1.04262 -0.00629566 -7.90805e-21)
(1.11517 -0.0387177 -2.65466e-20)
(1.08953 -0.104027 -3.59906e-20)
(1.19226 0.0648426 -2.65497e-20)
(1.03239 -0.000522569 -3.06958e-20)
(0.908472 -0.0115796 3.85983e-21)
(1.02874 -0.0017044 3.70645e-21)
(1.03512 -0.00704931 1.01626e-20)
(1.07883 0.083174 3.43173e-20)
(1.01962 -0.0031924 -6.60495e-20)
(1.02968 -0.00104558 -2.05487e-20)
(1.04542 -0.0267314 4.23671e-20)
(1.03136 -0.000871813 -1.13402e-21)
(1.0317 -0.00171782 -2.74198e-20)
(0.32132 0.0072411 2.14534e-20)
(1.02739 -0.00292 3.54294e-20)
(1.03132 -0.00258426 5.15177e-20)
(0.493791 -0.00332075 2.05467e-21)
(1.02535 0.0102839 6.83714e-20)
(1.01356 -0.017355 7.98164e-21)
(1.03103 -0.00209259 -2.40722e-20)
(1.0112 0.00189234 -2.75186e-20)
(1.03277 0.0308788 2.49123e-20)
(1.08085 0.0237354 6.26545e-21)
(0.999134 -0.0155065 4.11146e-20)
(1.02776 -0.000974939 5.84799e-21)
(1.00174 0.0166747 1.53081e-19)
(1.02378 -0.0106527 4.74839e-20)
(1.08213 0.0711319 -7.7022e-20)
(1.03876 -0.000798801 -6.93502e-20)
(1.03954 -0.000397032 1.40386e-19)
(0.967875 -0.00475968 -7.66278e-20)
(1.0291 -0.00181553 4.4578e-21)
(1.03832 0.00139797 -5.58915e-21)
(1.0855 0.0217016 -1.16082e-20)
(1.17315 0.0669714 5.55433e-20)
(1.07261 -0.0770881 -1.5438e-20)
(1.06539 0.0879818 3.72691e-20)
(1.03667 -0.0013294 -1.68194e-21)
(1.09661 0.0779778 -6.90241e-20)
(1.03232 -0.00913003 2.64003e-20)
(1.04932 -0.0398128 7.57128e-20)
(1.02868 -0.00241521 2.0046e-20)
(1.03511 -0.0117973 -6.41453e-20)
(1.03078 -0.00182483 -1.69573e-20)
(1.05988 0.0445998 -5.85958e-20)
(1.08958 0.108032 -1.13528e-19)
(1.03188 -0.0012921 -1.23721e-20)
(1.04363 -0.00574606 5.09669e-21)
(0.929365 -0.00119779 -2.18878e-20)
(1.07483 -0.0649399 -9.09133e-21)
(1.0704 -0.0703509 2.42934e-20)
(1.03081 -0.00100541 -2.17447e-20)
(1.06685 -0.012053 -3.18267e-20)
(0.135737 -0.00453093 -3.58918e-20)
(1.1716 0.0512067 4.96962e-20)
(1.02984 -0.00170353 -3.08725e-20)
(1.07678 0.0208494 -2.49377e-20)
(1.03095 -0.00579291 3.7767e-20)
(0.591274 0.027926 1.49215e-19)
(1.02247 -0.00320697 -4.86529e-20)
(1.03033 -0.0173583 1.71773e-20)
(1.0469 -0.0228475 -1.78608e-21)
(1.02953 -0.0179288 6.5856e-22)
(1.0319 -0.0133983 6.64062e-20)
(1.02751 -0.00316337 -1.19134e-20)
(1.03181 -0.00919518 -5.71698e-20)
(1.03341 -0.00400157 -1.35976e-20)
(1.07577 -0.00598093 1.41935e-20)
(1.0285 -0.00120187 -2.72533e-20)
(1.20653 -0.0567302 1.75018e-20)
(1.16254 0.0157843 2.10013e-20)
(1.05718 0.0985235 7.09215e-20)
(1.00124 -0.014323 -6.46061e-20)
(1.11232 0.0999479 -3.3384e-20)
(1.03212 -0.000379512 3.42113e-20)
(1.09511 -0.0512456 -1.24658e-21)
(1.0374 -0.0259103 3.84809e-20)
(1.03046 0.0515535 5.94161e-20)
(1.02955 -0.00327714 -3.36265e-20)
(1.03008 -0.00120129 2.03187e-20)
(1.02428 -0.0112044 -6.5828e-20)
(1.03023 -0.00609938 1.9305e-20)
(1.06383 -0.0105869 5.26019e-20)
(0.876649 -0.00115337 5.1976e-20)
(0.996686 -0.00317465 -1.75321e-20)
(1.13902 -0.0104487 1.65491e-20)
(0.845374 0.0016594 4.16332e-20)
(1.04511 -0.024406 -3.55452e-20)
(1.02698 -0.0619084 -3.1387e-20)
(1.02831 -0.00146867 9.11145e-22)
(1.0759 0.000926747 6.09684e-20)
(1.02826 -0.0546548 9.53968e-20)
(1.1178 0.0902258 3.69488e-20)
(1.11629 -0.0450466 4.33728e-20)
(1.05019 0.0114752 6.72526e-21)
(1.06031 -0.0795656 6.50693e-20)
(1.06668 0.10291 2.11303e-20)
(1.06009 -0.0205335 4.78317e-20)
(0.938905 -0.0040041 4.55446e-20)
(1.04583 -0.0320855 5.4892e-20)
(0.303156 0.0263999 3.87827e-20)
(1.1743 -0.0644705 -1.71817e-20)
(1.01614 -0.00328025 1.50841e-20)
(1.06356 -0.103645 3.81352e-21)
(1.05731 -0.0474952 -4.60133e-20)
(1.07695 -0.0928156 2.3745e-21)
(1.07205 -0.0590831 3.69813e-20)
(1.09112 0.0700593 6.5981e-20)
(1.03009 -0.0013648 -1.02205e-21)
(1.01479 0.0632604 2.08317e-20)
(1.0366 -0.00089815 1.52652e-20)
(1.03111 -0.00193105 2.98657e-20)
(1.03171 -0.00180433 -8.72255e-20)
(1.07349 0.0143445 -1.27012e-20)
(0.0802329 0.0053761 8.41408e-22)
(1.0333 -0.00413394 1.95632e-20)
(1.04905 -0.0364326 -9.90401e-21)
(1.03306 0.0348368 -4.06385e-20)
(1.02848 -0.000879259 -9.2568e-22)
(1.01 -0.00357775 -4.48752e-20)
(1.04495 -0.00357 4.09579e-20)
(1.09412 -0.0203026 6.05406e-20)
(1.03652 -0.000682733 7.98895e-20)
(1.0317 -0.00214475 -1.21288e-20)
(1.02194 -0.0275457 1.87176e-22)
(1.03142 -0.00559576 1.95457e-20)
(1.02803 0.00078433 1.07848e-20)
(1.01746 -0.0331534 9.03898e-20)
(1.07015 0.0831296 -1.48584e-20)
(1.04758 -0.0191319 -7.04985e-21)
(0.974353 0.000126835 4.04858e-20)
(1.03295 5.9384e-05 -1.29303e-20)
(1.03693 0.0369793 5.40306e-20)
(1.03155 -0.00220524 1.1659e-20)
(1.0324 -0.0015771 2.60397e-21)
(1.03042 -0.00237164 2.0091e-20)
(1.03173 -0.00188428 3.51731e-20)
(1.16236 0.0667233 3.83881e-20)
(1.05467 -0.0215435 1.14662e-19)
(1.03789 -0.0113662 2.79768e-20)
(1.01289 -0.00347573 1.80677e-20)
(1.02929 -0.000690979 1.07058e-20)
(1.10671 -0.0966028 -5.07546e-20)
(1.20266 0.0128423 1.03702e-21)
(1.11336 -0.105061 2.30363e-20)
(1.03149 -0.0226301 2.62764e-20)
(1.03984 -0.00492677 6.33462e-20)
(1.02907 -0.00350319 -1.33026e-20)
(1.02607 -0.00683202 2.96066e-20)
(1.00284 -0.0333981 4.07854e-20)
(1.16243 0.0519636 1.36885e-22)
(1.03233 0.091588 -1.50896e-21)
(1.03144 -0.00261319 -2.03239e-20)
(0.976206 -0.0227016 -2.07264e-20)
(1.02989 -0.00289698 4.616e-20)
(1.05797 -0.0186201 -1.87938e-20)
(1.10083 0.067904 7.73086e-21)
(1.03204 -0.000723905 -3.53949e-20)
(1.0305 -0.00265967 8.20719e-21)
(1.13806 0.101166 8.79116e-21)
(1.15982 0.0359326 -1.15865e-20)
(1.04415 -0.00847117 2.12308e-20)
(1.02995 -0.00164462 -3.40966e-20)
(0.953094 -0.00581 4.61972e-21)
(1.00827 -0.0343956 -1.02755e-20)
(1.03047 -0.00225229 2.44973e-20)
(1.04623 -0.0207426 6.59159e-20)
(0.583676 -0.00282469 -9.3799e-20)
(1.00126 0.0221034 -2.06613e-20)
(1.07324 0.0860823 -7.21608e-21)
(1.08997 -0.0466879 -2.64513e-20)
(1.03173 -0.0549897 -3.36748e-20)
(1.03473 -0.00167038 4.96233e-20)
(1.04278 -0.0148595 -5.85512e-20)
(1.1542 0.0210103 5.75676e-20)
(1.03151 -0.0622341 1.90855e-20)
(1.04807 -0.0304461 -3.34801e-20)
(1.02761 -0.000739967 -1.16156e-21)
(1.14421 0.0070638 4.95884e-20)
(0.529107 -0.00621728 -5.03238e-21)
(1.03078 -0.0703895 -3.46817e-20)
(1.04687 -0.0173537 -9.11274e-20)
(0.913764 -0.00927073 7.75183e-21)
(1.03055 -0.0022525 9.74855e-21)
(1.02871 -0.000990492 1.61228e-20)
(1.05408 0.0519959 6.05541e-20)
(0.969756 -0.00462243 1.80774e-20)
(1.03286 0.00184871 -2.06483e-21)
(0.905649 -0.0034172 3.69317e-20)
(1.16963 -0.0516568 6.33597e-20)
(1.02097 -0.00124538 -3.99389e-20)
(1.05141 -0.0345445 1.34901e-20)
(1.02962 -0.00165811 1.52357e-21)
(1.03625 -0.00840283 4.18737e-21)
(1.02996 -0.0868565 -1.69858e-20)
(1.08377 -0.0479997 1.98925e-20)
(1.02961 -0.00151172 1.25267e-20)
(1.02826 0.000474503 -6.46011e-21)
(1.03161 0.00260754 1.94558e-21)
(1.04329 -0.0528419 -7.23879e-21)
(1.00342 0.0322681 -1.80208e-21)
(1.07983 0.097355 8.58777e-22)
(1.13363 -0.00350991 -2.14912e-20)
(1.03176 -0.00195392 -2.65825e-21)