/*--------------------------------*- C++ -*----------------------------------*\
  =========                 |
  \\      /  F ield         | OpenFOAM: The Open Source CFD Toolbox
   \\    /   O peration     | Website:  https://openfoam.org
    \\  /    A nd           | Version:  7
     \\/     M anipulation  |
\*---------------------------------------------------------------------------*/
FoamFile
{
    version     2.0;
    format      ascii;
    class       volScalarField;
    location    "39";
    object      p;
}
// * * * * * * * * * * * * * * * * * * * * * * * * * * * * * * * * * * * * * //

dimensions      [0 2 -2 0 0 0 0];

internalField   nonuniform List<scalar> 
20933
(
0.0015801
0.00217111
-3.6844e-05
-7.16621e-05
-0.00279392
-0.00301674
-0.0915899
0.299784
-0.0383047
0.290302
-0.0890047
0.149833
-0.022653
0.00143054
-0.000247139
-7.40429e-05
-0.0866401
0.164091
-0.0523253
0.00262091
-0.0361532
0.161142
0.290963
-0.116416
-0.00160564
0.525633
-0.0020584
-0.0213747
-0.153845
-0.0549707
-5.91919e-05
0.607951
0.266805
-0.010181
-0.000504651
-0.000200412
0.337784
0.00010269
-0.00549605
0.132664
0.00163952
0.349007
0.421173
-0.00196244
0.526148
0.00663459
0.256633
0.0274594
0.000139632
-0.0174902
-0.000514651
0.0183402
-0.104758
-0.00115627
-0.128152
-0.00521481
-0.0117491
-0.000321065
-0.0176814
-0.0772655
0.556335
0.00258586
0.000340813
0.265394
0.000365063
-0.00203848
0.511015
-0.00205709
-0.0237549
0.522359
-0.0112167
-0.107695
-0.00020096
-0.0141895
0.51337
-0.0313133
0.513378
-0.00361045
0.131193
0.477132
-0.0017389
-0.00163908
-0.151931
-0.0361198
0.00362577
0.425417
-0.0185196
0.666443
0.264698
0.551746
0.233642
-0.000140294
-9.28669e-05
0.640541
0.0104908
0.000723424
0.646272
-0.00101466
-0.0779457
0.331816
0.557441
-0.00293361
0.566426
-0.0714699
0.0539566
-0.0288005
0.479747
-0.0457221
0.0056987
0.452577
-0.162532
-0.0915565
-0.00812985
-0.00462584
-0.0255111
-1.91588e-05
0.410823
-0.00176821
-0.0910107
0.469756
-0.000136576
-0.042447
0.150616
-0.0223136
-0.0102467
0.16511
0.22566
-0.0205966
0.615914
0.421725
-0.0266597
-0.0157549
0.00184184
-0.00442761
0.483822
0.0455229
0.0723929
-0.0400587
-0.00229009
-0.046219
-0.0448478
-0.01564
-0.128029
0.575858
0.0177626
0.490398
0.280117
-0.00160909
0.204646
-0.0023859
-0.000554416
0.514972
-8.60067e-05
-0.0304872
-0.00158063
0.285522
0.434043
-0.119961
-0.0049506
-0.0240191
-0.134071
-0.0843711
-0.000140526
0.0296098
0.100532
0.660176
-0.00211974
-0.139293
-0.0307449
0.330463
0.0585855
0.529067
0.435204
-0.00885472
0.685114
0.255187
0.00104839
0.542779
-0.0229373
0.472715
0.498225
9.62692e-05
0.572275
0.432447
0.00254206
-0.00615791
-0.0101326
0.315195
-0.0761721
0.620285
0.224134
-0.0464443
0.34028
-0.017635
-0.00652572
0.133506
0.568718
-0.00637249
0.00188027
0.627163
0.0671764
-0.110425
-0.0944682
0.60866
0.583486
-0.00983489
-0.0136033
0.0197139
-0.0056006
0.000866794
0.506161
0.540022
-0.00358222
-0.0146865
0.463391
0.513037
0.00250931
0.469894
-0.038267
-0.00355011
-0.0216774
0.447263
0.594397
0.236124
0.449434
-0.00320004
-0.0128403
-2.17071e-05
0.00202728
-0.002101
0.14728
-0.0637501
0.47185
-0.0439896
0.438083
-0.0176696
-0.0225988
0.52568
0.652258
0.439772
0.508619
-0.0134524
0.346288
-0.0212392
0.0617123
-0.00134542
-0.150409
-0.00874044
0.0182567
0.000129219
0.00562661
0.599308
0.145429
-0.0063664
-0.0230916
-0.0622793
-0.115701
0.355585
-0.0432004
0.00751369
-0.0255131
-0.00876453
0.00044423
-0.0167471
-0.0802362
0.573446
-0.0208535
-0.00740881
0.443059
0.580485
-0.0181173
-0.000383894
-0.0315999
0.511382
-0.168042
0.552768
-2.71085e-05
-0.0170977
0.449436
0.500189
-0.0273281
-0.0104367
0.61991
-0.0857906
-0.0488389
0.563225
0.616247
-0.0203149
0.459352
0.0801286
0.47226
0.387465
-0.000382364
-0.0312937
0.341892
0.00110772
-0.055992
0.0172307
-0.16934
0.0619942
0.014466
-6.51842e-05
-0.000685349
0.551304
-0.00365335
-0.0713985
-0.0286465
0.168361
0.00149006
0.470189
0.0617051
-0.0271576
-0.00507689
0.312828
0.149579
-5.94646e-05
0.547172
0.426283
0.537634
-0.116118
0.000383802
0.613923
-0.000687994
-0.0171143
0.136215
0.00262389
-0.0176817
-0.0977598
0.436998
0.639945
0.49925
0.10471
0.693368
-4.79834e-05
-0.00863528
0.500429
-0.136311
0.337735
-0.0130591
0.520396
0.0571948
-0.000816857
0.0554746
0.407761
-0.125675
0.564011
0.408643
0.000223701
-0.00233848
0.27073
0.176433
0.00307524
0.4291
-0.0156946
0.682958
-0.043567
-0.00251499
0.004621
0.495044
0.423668
0.000706521
0.312625
0.549991
-0.00381363
0.381969
0.423
0.685792
-0.000419875
0.193238
-0.0103302
-0.00840273
0.000191787
0.518744
0.354446
-0.0208406
0.531746
0.119317
-0.0108992
0.340873
0.103423
0.152264
0.684625
-0.0361825
0.109867
0.537409
-0.0230695
0.0605721
-0.0793353
0.260007
0.00667644
0.24187
-0.0199015
0.104133
-0.00152611
0.262075
0.532847
0.392806
-0.153637
-0.00823037
0.601888
0.603199
-0.0013775
-0.0158264
0.472162
-0.067027
-0.0288833
0.357249
0.00414552
0.712055
-0.0224844
0.21356
-0.0015068
0.536879
0.404159
0.0224465
-0.0383275
-0.0486642
0.0674704
-0.00112135
0.470861
-0.107546
0.274722
0.675184
-0.118164
-0.0237582
-0.00217543
0.0359963
-0.019309
-0.00738116
0.375849
-0.000397805
-0.01517
-0.00342935
-0.0726606
-0.0158336
0.000121504
-0.0251325
0.121606
-0.138222
-0.024437
-0.0106232
0.0284175
0.0253496
-0.0198424
0.000287599
-0.00155492
-0.0233608
-0.0744317
-0.00236672
-0.0240603
0.155099
0.384842
0.0379151
0.000261251
0.633812
-0.00226024
-0.000389659
0.00115755
-0.0150003
-0.029488
0.578679
-0.0173516
0.0866593
-0.0629582
-0.0683649
0.346565
-0.0175508
-0.0286922
-0.0523724
0.00016058
-0.0655842
0.643343
-0.111073
-0.0216947
0.374692
-0.0210992
0.38457
0.209814
-0.000719385
0.000844921
0.429089
0.666963
-0.112539
0.267261
0.109514
-0.0161628
-0.0172064
0.470858
0.0425062
-0.14825
-0.0770893
0.00526373
0.0100087
0.59947
0.124973
-8.76964e-05
0.5691
-0.0208858
-0.0339639
0.440726
-0.00465268
-0.00132863
0.000165625
-0.0262853
-0.00661634
-3.4493e-05
0.260757
-0.166123
0.474634
0.000437821
-0.00116442
-0.021392
-7.12714e-06
-0.115571
-0.145499
-0.00109027
-0.0285687
-0.0082642
0.432111
0.538166
-0.000451419
-0.00111348
-0.0420139
0.544921
-0.00993768
0.545506
-0.00208978
0.675118
0.395503
0.222353
0.652634
-0.0977564
0.000926951
-0.00944073
-0.00951958
0.532958
0.467606
-0.00150304
-0.139577
0.0493894
-0.0322315
0.00217879
-0.154032
-4.36908e-05
0.439714
-0.00355986
-0.0254996
-0.00921085
-0.0223779
0.217313
0.0475575
0.00194881
-0.0154482
-4.32963e-07
0.674427
0.593435
0.00119256
-0.00346051
-0.00688498
0.465589
-0.0100195
0.111465
-0.0190523
0.505799
0.219963
-0.00761316
0.704797
0.00660756
0.491374
-0.00326415
-0.0788549
0.561885
-0.0128646
0.676444
0.451086
0.68616
0.000751007
0.00244259
-0.0399017
-0.000521701
-0.0039036
-0.034951
0.493258
0.513863
0.390409
0.539436
0.670927
0.274414
0.53354
0.393185
-0.00500372
0.435421
-0.0265701
-0.0193521
9.65051e-05
-0.0323202
-0.0999188
0.314487
0.0279932
0.476469
-0.0193964
0.0715414
0.458471
-0.00923054
-0.0364654
-1.24942e-05
-0.000256451
0.313609
-0.0287653
-0.0176172
-0.000300185
-0.000668013
0.0412355
0.000278502
0.0088771
0.676213
0.280365
0.272989
-0.000963057
0.466093
0.0468146
-0.00936099
-0.00376267
-0.000153364
0.000196048
-0.00172495
-0.00921848
-0.0813157
0.317748
-0.0246133
0.00265404
5.33119e-06
0.498288
-0.0561606
-0.119924
-0.0131461
0.085463
-0.0368803
0.00498289
0.458681
0.619343
0.407388
0.00540055
0.414425
0.000641238
-0.017103
0.302697
-9.31764e-05
-0.00937876
0.200535
0.269011
-0.00747249
0.458844
0.58836
0.447104
-0.0152513
-0.00330933
-0.0183232
0.107594
0.423902
0.000924136
0.560386
-0.0179016
-0.0806675
-0.000582619
0.641773
0.320724
0.472951
-0.149798
0.657381
-0.00644932
-0.0168789
0.69182
0.0149156
-0.0684637
0.484037
0.505617
-0.0146464
0.417744
0.545007
0.501072
0.455809
0.492641
0.397351
3.19823e-05
-0.00692932
-0.00222291
-0.069131
0.532183
-0.064103
0.158417
0.169455
-0.019425
0.0179657
0.192873
0.541742
0.02334
-0.000799743
0.0129295
-0.0203648
-0.0885679
-0.106379
-0.0719424
0.450459
0.563256
0.0156869
0.537818
0.670956
0.00217193
-0.00123835
-0.000977238
-0.000604135
0.352747
0.677041
0.130696
0.466416
-0.00745734
0.395982
0.407896
-0.134735
-0.00456474
-0.0124037
0.154121
-0.0145407
-0.0138633
-0.0155838
-0.0159542
0.475814
0.00090845
-0.0214691
0.506386
0.0130286
0.617467
-0.0407421
0.38621
-0.103263
-0.0300225
0.557876
0.615301
0.531914
-0.0108432
0.620816
-0.0137038
0.556373
-0.0083354
0.529533
-0.0185248
-5.39663e-05
0.531222
0.561958
0.557479
0.531283
0.313991
0.0667518
0.366434
-0.0668841
0.530811
0.454755
-0.0525737
0.0301651
-0.000372308
-0.0940936
0.462817
-0.0121326
0.000698374
0.542134
0.538726
-0.024928
0.52357
-0.0832116
0.0702325
0.00461113
0.549155
0.558954
0.670829
0.550977
0.00127018
-0.00846318
0.000151447
-0.0318752
0.612752
0.251259
0.452729
-0.014397
0.395461
-0.00573392
0.615314
-0.0460373
0.540551
0.00402193
0.598005
0.6289
-0.00843831
0.106522
0.593363
0.00154851
0.63864
-0.025828
0.001907
-0.00435458
0.496957
0.193765
-0.0489874
0.530857
0.643748
0.40467
0.0073048
-0.0266785
-0.0170318
0.537666
0.624507
0.697873
0.24281
-0.002526
0.00620032
0.460858
-0.00234468
0.000595216
-0.00301186
-0.0099381
-0.0850603
-0.126798
0.572452
-0.0155102
0.000101531
0.442602
0.230143
-0.00364258
0.125802
-0.000976426
0.192972
0.451415
0.5279
-0.111893
0.132248
-0.00335975
-0.0482626
0.000803425
0.541683
0.577202
-0.153185
-0.141992
-0.124398
-0.0370317
0.53378
-0.0293745
-0.0848988
-0.0956173
-0.0354779
0.653343
-0.118538
-0.00496783
0.544192
0.00206727
0.0686333
-0.0247318
-0.0888347
0.00114405
-0.000770985
0.650619
0.376903
-0.154458
-0.0553654
0.393224
0.516201
0.451645
-0.0950699
-0.0180512
-0.0172395
-0.0185603
0.428761
0.000376512
-0.0275872
0.000152439
-0.00672514
0.000727748
-0.0992674
0.499998
-0.0746871
0.544275
0.531757
-0.0181758
-0.00980517
0.665916
0.403786
0.00360505
-0.0111216
0.39299
-0.0241156
0.346916
0.651161
0.340139
-0.000428896
-0.0127751
0.486178
-0.0219387
-0.0633522
-0.0289139
0.586727
-0.0150016
-0.0656921
0.382639
0.28379
0.440817
-0.02229
0.320685
-0.0325136
0.543169
-0.100035
0.179098
-0.0331553
-0.0333808
0.000145673
0.000775125
-0.000623344
0.589003
-0.0416659
0.380621
0.0589225
-0.0581816
-0.0767794
0.262173
0.671185
0.605893
-0.0669086
0.237131
-0.0205235
0.0299672
0.00138959
0.167272
-0.0148509
-0.00195543
0.423787
-0.0298756
-0.00282172
0.580169
0.475945
0.55761
0.00878016
-0.0941965
-0.00781118
0.252999
-0.0240568
-0.000125014
0.589075
0.0928862
0.221362
-0.0521739
0.000146371
-0.00775098
-0.00101953
0.204511
-0.000462375
-0.0153451
-0.0118465
-0.0214426
0.607461
1.68166e-05
-0.0310272
-0.0054741
0.627924
-0.00156381
-6.735e-06
-0.106125
0.153067
0.439269
-0.00851297
-0.00823588
-0.0213375
0.451878
-0.0123519
0.236007
-0.124826
-0.120106
0.102218
0.427164
0.0816736
0.231694
0.00138256
0.473974
0.634207
-0.00315741
0.365379
-0.0390389
0.647425
0.621866
-0.0820977
0.0365987
0.00456949
0.373468
-0.000241178
0.529617
0.683523
0.000896407
0.154967
0.289851
-0.00105628
-0.000513164
-0.00394842
0.672259
-0.0104403
-0.0340654
0.537937
-0.00390383
0.36471
0.552129
-0.0134564
0.597731
-0.0172475
-0.0105509
0.555666
0.247041
0.440177
0.0015346
0.558234
0.199995
0.52717
-0.0568854
-0.00770579
0.161423
0.590139
0.555091
0.602218
0.537095
-0.0969712
-0.00690582
-0.0209886
0.39719
0.528095
0.63086
-0.015929
0.304621
0.64095
0.500542
-0.00106079
-0.0117809
-0.00308699
0.146245
-0.0560126
0.573106
0.261233
0.525487
0.107862
-0.0403985
0.529146
-0.0613494
0.409271
-0.0905081
0.0235711
-0.0120563
-0.0827095
-0.0541382
0.625088
-0.0493211
-0.0165679
-0.0689706
0.208944
0.0473166
-0.014663
0.0243189
-0.0200511
-0.0632594
0.424355
0.222644
0.465681
-0.13508
0.547478
-0.0710212
-0.000699241
-0.00890471
-0.0179134
-0.114114
-0.131094
-0.00480761
0.298865
0.606763
0.176323
0.0401323
-0.0332145
-0.058202
0.359921
-0.0257507
0.645693
0.307853
-0.00411015
-0.0100993
-0.0118811
-0.0756277
-0.0154657
-0.0258124
-0.0276622
-0.0922187
0.289766
0.616167
0.56835
0.250619
0.00212527
-0.0158426
0.00104285
-0.00724156
0.43351
0.0045596
0.413782
-0.0642906
-0.00912447
0.612386
0.62556
-0.000885302
0.535673
0.566016
0.133675
-0.0161528
0.194943
0.431345
0.623428
0.353417
-0.0718714
0.609403
0.08384
-0.0344576
-0.0376633
-0.0821892
0.638206
-0.0228311
0.545726
0.319119
0.605186
-0.0467317
0.374333
0.386914
-0.0832742
0.556325
-0.0286935
0.587896
-0.000452835
0.344236
0.412616
0.408851
-0.00228197
-0.0348702
-0.00106567
-0.0183648
0.323874
-0.014585
0.37754
0.352352
0.676204
-0.020922
0.592094
-0.0181235
-0.0169472
0.0109527
0.534815
0.0848009
-0.0606009
0.0386329
0.461619
-0.00519803
0.662236
-0.00357641
-0.0756071
0.0553761
-0.00401879
0.538691
-0.040238
0.570627
0.454176
0.1427
0.0129711
0.167794
-0.000819351
0.00319466
0.582586
-0.0300762
-0.0574662
0.329847
0.0412384
-0.0118371
0.0134739
-0.00294735
0.606405
-0.0138342
0.00656336
-0.0806373
-0.0139305
0.525504
0.678885
-0.00927553
-0.0624417
-0.00276433
0.079031
-0.000905957
0.124563
0.626491
0.600442
-0.0222338
0.185599
-0.000262802
-0.0170556
0.481822
-0.0141256
0.251806
-0.00691112
0.665935
0.462915
-0.0750266
-0.0170689
-0.0272987
0.663344
-0.0155301
-0.000472092
0.00307452
0.136176
-0.071964
-0.00327809
0.104095
0.606473
-0.0879115
0.641502
0.698726
-0.0148147
-0.0569125
-0.000631469
0.00150153
-0.0545772
-0.028052
0.656651
-0.00712129
0.00246191
0.413562
-0.0513315
0.457046
0.00301569
-0.0545767
0.452087
0.421735
-0.0710835
-0.0189527
-0.0567441
0.504558
-0.0144338
0.277395
-0.0170851
-0.00738706
-0.0163413
-0.00844433
-0.00241794
-0.0938551
-0.090648
-0.11488
-0.00222238
0.111653
7.66579e-05
-0.0146498
-0.0613587
-0.00884982
-0.0288682
0.609333
0.0230944
-0.0209093
-0.0166167
0.492282
0.000894408
0.429017
-0.077708
-0.000544907
0.00420788
0.451868
0.28428
-0.0178402
-0.0309506
-0.0312628
0.359364
-0.000310054
0.418242
0.498386
-0.0107439
-0.0531947
0.129189
0.131358
-0.0622002
0.14205
0.470864
-0.00598346
0.398912
-0.0192145
-0.002961
0.381574
0.628755
-0.00329732
-0.00525412
0.525117
0.390121
-0.00797243
-0.0326879
-0.108441
0.00493458
-0.0056686
0.000326403
0.487246
-0.127973
-0.0579022
0.488404
-0.0699449
-0.0181674
0.274746
0.00103911
0.176251
0.414031
-0.0320081
0.413853
-0.00795081
0.598156
-0.0724969
-0.000296067
0.00012177
-0.0262832
-0.000620709
-0.00824945
0.177906
-0.0507681
-0.00429564
-0.0257991
-0.00982592
0.239313
0.53915
0.000513682
-0.00566993
-0.0172332
0.385662
-0.0545263
-0.0104234
-0.00534045
0.0648431
0.279951
-0.0107697
-0.00093209
-0.0850796
0.451054
0.487596
0.127898
0.424502
0.563486
-0.0103364
0.390364
0.13222
-0.00599076
-0.00654514
-0.0175423
0.685362
-0.013752
-0.0813927
-0.0131965
0.4485
-0.00107291
-0.00173693
-0.0152186
-0.0174219
0.000821178
0.540491
0.309633
0.396497
0.495833
0.42757
0.00274121
0.167249
0.338638
-0.0120544
0.528553
0.224343
0.324516
1.75849e-05
0.344704
-0.037224
0.209147
0.337304
-0.0864502
0.0886664
0.0631636
-0.0127069
0.000138383
-0.00795774
0.192807
0.615254
0.212268
-7.50945e-05
0.301222
-0.00593573
0.338411
0.246973
-0.000418777
-0.0133125
0.38022
0.539722
0.107754
-0.0102693
-0.00505736
0.228029
0.399436
-0.0104913
0.48015
-0.00812944
0.171733
-0.0267735
0.57476
-0.000236616
-0.00114943
-0.00096884
-0.00430785
-0.102299
0.00275744
0.401784
0.490437
-0.00228467
0.284011
-0.00275281
0.000247901
2.61689e-05
0.238258
-0.00859472
0.287505
4.76623e-05
0.409431
-0.00426257
0.470096
-0.128419
0.507195
-0.0131374
-0.00152054
0.000734509
0.545308
-0.0180611
0.0373415
0.147386
-0.00191898
0.464272
-0.000903406
-0.0124711
-0.00398525
0.000662048
0.543785
-0.000976193
-0.00583562
-0.00603096
-2.08195e-05
0.000698383
0.476395
-0.000687674
-0.0108426
-0.00324017
-0.000837295
0.439382
-0.143284
0.0291582
-0.0428442
-0.00108713
-0.0102675
-0.0801629
-0.00246502
-0.00135575
-0.000477801
0.263088
-0.00033634
-0.000723747
-0.0814251
0.156247
0.527281
0.00375293
-0.0021236
-0.00323345
-0.0257795
0.424801
0.481641
0.546672
5.93407e-05
0.205821
-0.0121096
-0.00943667
0.308837
-0.0142995
0.000154531
0.00165801
-0.00519839
-0.00541449
-0.00556007
-0.000133121
-0.00254598
0.00130047
0.40511
-0.00179693
0.2991
0.071689
0.0388486
0.237921
0.146894
0.350685
0.0120862
0.39397
-0.000876247
-0.0112693
0.366238
-0.0239022
0.432341
0.41146
-0.0115018
-0.00851656
-0.00034984
-0.00191354
-0.0387352
0.00102313
0.00174044
-0.00152456
0.00166224
-0.00211589
-0.0138888
0.000665898
-0.000119526
-0.0144705
0.351456
-0.00156289
0.00130447
-0.0060151
-0.00442603
-0.00268137
0.479985
0.462514
0.228354
0.582724
-0.0100601
-0.0596215
-0.00290311
-0.00303604
-0.00235117
5.19846e-05
3.55932e-05
0.216383
0.100636
8.24383e-05
-0.0985564
0.109986
0.22999
-0.0351063
0.00371074
-0.0109167
-0.00181306
-0.00123775
-0.00175165
-0.00299001
-0.0313595
0.594352
-0.00344136
-0.0308198
-0.00481929
-0.0143164
0.00283845
0.0060988
-0.000894505
0.00147915
-0.0115287
-0.00205188
-0.0330519
0.0573971
-0.00127992
0.281318
-0.000457797
0.00109918
-0.0612976
0.430011
0.449983
0.336921
0.00321386
-0.105332
-0.0338598
-0.118408
-0.0197206
-0.11789
-0.00985697
-0.111672
0.0031242
-0.00779412
8.22419e-06
0.0559841
0.00254586
0.000744416
-0.0147058
0.619371
-0.00957928
-0.103549
0.585117
0.600951
0.00286898
0.589398
0.558577
0.435806
-0.00331959
-0.148672
0.602169
0.000817441
-4.09193e-05
-0.0095095
-0.00354509
-4.17911e-05
-0.0276765
-0.00394434
-0.00116513
0.00239632
-0.0185195
0.000476335
-0.0346194
-0.000703582
0.663878
0.00327911
0.00282761
0.661004
0.0004933
0.629574
0.596332
0.40231
0.00220666
0.664249
0.0589173
0.511407
-0.00871152
-0.000439431
-0.00807059
-0.0198839
0.0295592
0.535525
0.000935341
-0.000627196
-0.00303891
8.73557e-05
-0.149714
0.225246
0.000117669
0.426683
-0.0370542
-0.00110497
-0.0140639
0.00257628
0.13766
2.88758e-05
0.602053
-0.00120217
0.559804
-0.0022126
-0.00659708
0.000119112
0.0009318
-0.00755554
-0.000693541
0.499622
0.53279
6.18435e-05
0.603017
-0.0147956
-0.00195061
-0.0209395
0.566679
-0.138652
0.000651707
-0.000113402
-0.00128309
-0.000733106
0.000233419
-0.000418998
0.608092
0.000454352
0.000880933
-0.0191479
0.648338
0.699241
0.00315632
-0.0163482
0.438665
0.65494
-0.0202274
-0.00138938
9.08678e-06
0.000305015
0.545331
0.429136
-0.00107395
0.000632477
-0.0110662
0.575362
-0.0795305
-0.00738748
-0.00382756
-0.00180784
-0.0218897
0.460404
0.000196519
0.589421
0.000699121
0.635599
-0.000628047
0.601282
0.00127303
0.0498118
-0.0165006
6.533e-05
-0.000801958
-0.000885145
-0.00266517
-0.00691857
-0.000740673
-0.00287394
0.0014621
-0.0116427
-0.000749648
-0.000581866
-0.000568647
-0.00216483
0.0900049
-0.000584672
0.426792
-0.000889166
-0.0119024
-0.00384872
-0.112503
0.656595
-0.000108632
-0.00157842
-0.00234533
-0.0117409
0.00284627
0.40765
0.454747
-0.00253886
0.00136837
-0.0645407
0.118261
0.590681
-0.00587559
0.397663
0.476026
6.77294e-05
-0.0188252
0.00394137
-0.00128311
0.000846379
0.000633898
-0.00103022
0.0022561
-0.000200794
-0.00415374
-0.0132112
-0.00383783
0.233659
-0.0770478
0.425408
0.0905959
-0.0823017
6.86258e-05
-0.000741367
0.541703
-0.000867631
-0.0116449
0.000580094
-0.00392302
-0.00392989
0.326736
0.0432149
0.612065
-0.000516368
-0.00125866
-0.000483746
0.264194
-0.00178633
0.584681
0.0955059
0.00211735
0.00495656
-0.0553433
0.000332567
0.400123
0.0222645
0.546852
-0.0089568
-7.67086e-06
-0.000231466
-0.00159463
-0.0002348
-1.26046e-05
0.00111889
-0.00612536
-0.00433435
-0.00800154
0.000119122
-0.00931104
-0.0718009
-1.28241e-05
0.000223647
-0.00199277
-0.000676406
9.06397e-06
-0.00408596
0.00746228
-0.000954679
0.0368275
0.00239111
0.43702
-0.0066754
-0.0501191
3.82278e-05
-0.0466516
-0.0220757
-0.0182942
-0.000535753
4.49568e-05
-0.000126826
0.000171279
-0.0576419
-0.0247553
0.108626
-0.106204
-0.000515663
0.0378344
-0.107289
0.47142
0.351459
0.43819
0.00133274
0.000254598
0.000488135
0.00228235
0.564133
0.410883
-0.000946364
-0.00231432
0.288082
0.412315
0.620585
-0.000413736
0.000592449
-0.00324004
2.77596e-05
-0.000399726
0.000145806
-0.00311169
-0.00133786
0.435424
-0.0221464
-0.00067936
-0.00215481
-0.00105994
-0.0418503
-0.00211946
0.274901
-0.00122918
0.151241
-0.0180194
-0.00153989
0.169792
0.111383
-0.000425295
0.182528
0.586175
-0.0124329
0.45025
0.00078882
0.00227054
0.487941
-0.0010997
0.413566
0.000759413
-0.0373198
-0.0664835
0.00199327
0.000488292
-0.000886712
-3.47941e-05
0.00284072
4.97097e-05
-0.000671575
-0.000132063
0.594637
-0.0301453
-0.00207141
0.425655
2.83663e-05
-0.000634255
-0.0156147
-0.000698927
0.583271
0.000789235
-0.000753008
6.77714e-05
0.091799
-0.0193721
-0.00101644
0.000521762
0.0344411
-0.00410347
-0.000528671
0.53051
0.644253
-0.00187287
-0.0244908
-0.00141438
0.459409
2.06557e-05
0.00120743
7.59397e-05
3.43022e-05
-0.0605714
-0.00241203
-0.000932537
-0.120393
-0.000521208
-0.0659609
0.000442607
-6.69257e-05
-0.00207322
0.493286
0.520618
-0.0142723
0.386813
0.0292924
9.91627e-05
0.416827
-0.00579263
-0.00123975
-0.00254616
-0.0777782
-0.00015831
-0.0178138
0.00078752
-0.0287595
0.180466
-0.00160993
-0.00114953
0.120005
0.327622
0.129263
-5.4119e-05
5.79048e-06
0.00387386
0.251895
-0.00175219
-0.0595116
0.000403147
0.412349
-0.143716
0.493869
0.32993
0.0044538
0.172957
0.000527982
0.431094
-0.0193241
-0.0140573
0.000127221
-0.000945644
0.00537954
0.00589867
0.00447429
0.00545236
0.129582
0.00435799
0.274119
-0.000646922
-0.00194996
0.000519899
0.0545012
-0.0182779
-0.00447691
-1.06484e-05
-0.0177425
0.244878
0.00692725
-0.0169352
-0.0153254
0.0471043
-0.0142326
-0.000223568
-0.000703454
0.475244
0.512617
0.535572
-0.000428168
0.514656
0.464766
0.518914
0.00154163
0.000427464
-0.000439417
0.291233
0.371272
-0.0784479
-0.0120785
0.00666029
-0.00406213
0.0463911
0.00587655
0.00400421
0.394719
-0.00123747
0.0043204
0.000196778
0.00669517
0.518102
-0.0236455
-0.000631933
4.10804e-05
0.568429
0.459718
-0.0403744
0.234343
0.00537742
-0.0492259
0.00557514
-0.057479
-0.0655159
-0.0694458
0.214861
0.0051425
0.0920989
-0.000230144
0.501356
-0.0171717
-0.00452742
0.439272
-0.00295703
-0.00403157
0.00855429
-0.0809214
0.148703
-0.0125058
0.000396204
0.401425
-0.000567207
-0.0049922
0.0328871
-0.000105823
0.00250515
-0.00112405
-0.00123825
0.00686704
0.0215348
0.000443821
0.0114159
-0.0142093
0.00431794
-0.00157901
-0.000145318
0.000335098
-0.00503912
-0.000214596
0.00559314
0.00538231
0.322954
0.00659331
0.00391603
0.000102919
-0.0064664
-0.0199821
4.88456e-05
0.31823
0.489064
-0.00264918
0.0015203
0.000922765
0.00438437
0.000350761
-0.00734107
0.00181492
0.0279305
-7.00982e-05
-0.00428555
-0.00301838
0.00726803
-0.000867336
-4.13951e-05
0.307379
0.00164671
0.0669103
0.351823
-0.0208321
-0.0137932
0.00728248
0.000242516
0.0501421
0.000109151
0.0065187
0.0328092
0.171752
-2.38114e-05
0.0164408
0.213849
3.386e-05
0.127114
-0.000666596
-0.0236399
0.398225
0.000498318
-0.000246292
-0.000326857
0.363338
-0.136033
-0.0169237
0.00712424
0.00158932
0.00438947
-0.00656707
0.00103964
0.102372
0.54393
0.606835
0.440705
9.39901e-06
0.305493
0.0862575
-0.0014805
0.00749426
0.300692
-0.00493488
-0.158763
4.60979e-05
0.00531191
0.409263
9.15593e-05
-0.0617574
-0.00170131
-0.0501871
-0.00066474
0.448007
-0.00886379
0.435367
-0.00233218
0.00755035
-0.0113543
0.000668325
0.381765
-0.00493717
0.00376049
5.35502e-06
-0.0893656
0.00427377
0.151302
-0.00430137
-0.000753456
0.190522
2.50807e-05
0.277307
0.13091
-0.000622677
0.287241
-0.0446043
-2.21607e-05
-0.00251026
0.00063397
-0.00100541
-0.00863542
0.344407
-0.0149093
-0.00130291
-0.0440477
0.0021642
0.364687
0.518971
-0.00051896
-0.00721792
0.00297999
0.000215585
0.384643
-0.00618887
-0.000733778
0.254267
0.130156
0.438518
-0.00637173
-0.000795227
0.299076
-0.0050889
0.00301153
-0.00209685
0.550763
-0.0313016
-0.00317854
-0.000879755
-0.0015703
0.546747
-0.00825924
0.627211
0.172002
-0.00252817
0.000824332
-0.0201479
-0.0348158
-0.000255307
-0.00516524
0.539344
-2.47286e-05
-0.0189849
0.547108
0.000572106
-0.0061869
-0.000294777
0.000833636
-0.000297924
0.015721
-0.0103088
0.000988181
-0.091346
-5.70271e-05
-0.000224851
-0.00019783
5.03968e-05
-0.0238303
-0.000227931
0.00109562
-0.0297788
-0.0148203
0.624672
0.0309808
-0.00700077
0.00268059
-4.32553e-05
-0.00460274
-0.000158018
0.118399
0.421472
0.000809867
-0.0227551
-0.00657359
0.0628438
-0.00263107
0.655873
-0.00160675
0.00128687
0.279566
-0.0032857
-0.000235247
-0.0117895
0.422462
0.000724999
0.406381
0.431093
-0.00454342
-0.0133113
0.503602
-0.00428312
0.00157668
-0.00963617
0.310769
0.118691
-0.0222672
8.26381e-05
0.525146
0.000949669
-0.00430114
0.00308913
0.00190702
0.599716
-0.00160803
-0.000123518
-0.00299938
0.230255
0.629228
0.417423
0.665088
0.000434765
0.5881
0.000114438
0.326368
0.00235526
0.000564849
0.177508
-0.0119004
0.104231
-0.000267401
-0.0158897
0.634554
-0.0109861
-0.053409
-0.00204059
0.00118691
0.172094
-0.0018344
-0.0071476
-0.000224619
-0.0195099
0.00021286
0.641772
0.000442508
-0.000841659
0.0675539
-0.0959712
0.166603
0.399744
-0.000336442
-0.10081
0.224653
0.452411
0.656665
3.69211e-05
-0.111339
-0.100373
0.00142795
0.255646
0.286338
-0.107616
0.551344
0.122054
0.200332
-0.00073043
0.400593
0.000133008
-0.000495608
-0.000127284
-0.000234268
0.000616071
-0.00156196
0.00145131
-0.000116778
-0.000873992
-0.00269784
0.000121049
0.276486
-0.0395939
1.78608e-05
0.640279
-0.000511201
1.8562e-05
0.518175
0.657071
-0.00457426
-0.0104993
0.498537
0.000903816
0.579889
0.0531072
0.000123475
-0.052462
-0.0255969
-0.00270126
-0.000745884
0.421376
-3.41843e-05
-0.000375875
0.559278
0.000677573
-0.00237183
-0.0359918
0.000732944
-0.000197799
-0.000347303
0.0445076
0.00168924
-0.000237106
-0.0033445
0.00123174
0.303252
0.000101319
6.95893e-05
0.00113154
0.541277
0.000772037
0.00164053
0.000193522
-0.00186247
0.52413
-0.00259656
0.123299
0.500323
0.000643481
0.604006
0.48125
0.00366019
-0.0528857
-0.000491726
0.000504072
0.58011
-0.00313861
0.000803839
-0.00015914
-0.000820445
0.00320007
0.000890023
-0.000428728
0.595162
-0.000136257
0.441649
-0.015087
-0.058675
-0.000164272
-0.0478102
-0.00159076
0.512783
0.522475
0.143972
-0.000611965
-0.021518
-0.0567242
0.162688
0.101621
0.263421
-0.0703934
-0.043915
0.00265161
7.19666e-05
-0.000459519
0.0010443
-0.00111147
-0.000746205
-0.000931417
-0.00017768
0.00273469
0.00628599
-0.00259418
-0.000452969
0.000414756
-0.000151231
-0.00141145
-0.000163261
0.703113
0.0932446
-0.00229551
-0.00353518
-0.0017932
-0.000126321
-0.000202666
-0.000748974
-0.000559833
-0.0170475
-0.000112233
0.00227633
-0.000369436
0.0011418
-0.000283248
-0.00248106
-0.0229199
-0.001062
0.546782
-0.0113428
0.429622
-0.0232069
0.568518
-0.00732417
-0.00918071
-0.011284
-0.0130892
-0.0135369
-0.0155701
-0.0163282
-0.000111804
-0.0174072
-0.0172657
0.518943
-0.0206931
-0.0439337
-0.0216287
-0.000229513
-0.0598946
-0.00103977
-0.000160219
-0.00301079
-2.21776e-05
-7.27598e-05
0.00992729
0.00127721
0.210458
0.45514
-0.00271523
-0.00140006
0.00207324
-0.00407832
-0.00177222
-0.00438261
-0.000276968
0.000266334
0.649075
0.00157887
-0.00666666
-0.00396192
0.00137987
-0.00154589
0.00057511
-0.00765179
-0.0022557
0.00069922
0.00389454
-0.00123216
-0.000177661
-7.9209e-05
-0.00456564
0.00326334
0.00070371
0.00050461
0.00062463
-0.000181489
-0.000439136
-0.00161461
-0.000409795
0.000664119
0.000410043
0.00158263
0.5093
0.00043362
0.00115393
0.00159568
-0.00186886
-0.000361148
-0.000422448
0.331236
-0.00545524
0.481162
9.49841e-05
0.000448649
-0.000183407
0.415494
-0.0660247
-0.000406237
-5.3411e-05
2.51593e-05
-0.00042464
0.000270224
-0.0542108
0.000147539
-0.0298939
0.000411591
0.000891223
0.000460117
-0.000117216
-0.00166445
-0.0355934
0.498066
-0.0203822
0.00119425
0.000156349
2.80256e-05
-0.00500587
-0.000164351
-0.015208
0.00173571
0.00219323
-0.000632973
-0.00608164
-0.00119862
-0.0956266
0.000379851
-0.000173238
-0.00131912
0.000344674
-0.000369304
0.00184473
0.00172252
4.3737e-05
0.584132
0.000307036
0.669887
-0.00424452
0.0016715
-0.0022289
-0.000173188
-0.000208318
-0.0223405
-0.000431301
-0.0654962
-0.000233937
-0.105244
-0.000807613
0.000234827
-0.000135141
-0.0041058
0.592734
-0.000183073
-0.0121248
-0.00261373
0.495807
-0.0232695
-0.0520514
-0.000211749
-0.109282
0.00270855
-0.108758
-0.0203214
-0.000338661
-0.00512112
0.62217
-0.047704
-0.00282458
0.00239178
-7.67161e-06
0.434842
0.492247
-4.27621e-05
0.0012711
0.363901
-0.000139413
-0.00294318
1.71333e-06
-0.000324953
-0.0216622
-0.0109768
-0.116988
-0.0131336
-0.000607772
-0.000180681
-0.000104851
-0.0459718
-0.0165195
0.294329
-0.00318643
-5.40528e-05
0.472529
-0.00580854
6.71072e-05
-0.0206653
0.00198597
-0.000792656
-0.000168892
-0.00991316
-0.000332733
-0.0103986
-0.000189922
-0.000503344
0.290761
-0.0027776
0.366808
0.568891
-0.00484947
-0.00534344
-0.0607944
-0.00281085
0.634304
-0.00414611
0.00103837
-0.000125932
0.44253
0.591723
0.261598
-0.0108299
-0.0103019
-0.000153566
0.00105947
-0.000338899
-0.0010019
0.00226908
0.40476
-0.0125683
-0.000259852
-0.00229006
-0.000968864
0.0606466
0.420327
-0.0174287
0.00385143
-0.00112917
-0.000116864
0.000335676
0.574046
-0.00228205
0.000642512
0.00024577
0.00260668
-0.00455473
0.0673999
-0.00457931
-0.00735631
-0.0173509
0.000171268
-0.0032431
0.401791
0.0010428
0.000565082
-0.0059388
0.420083
-0.00143365
0.101965
0.50807
-0.000853286
-0.000125803
0.103131
0.369251
0.162312
0.300218
-0.0240946
0.000742807
-0.000506609
0.401158
0.00607566
-0.00200995
-0.0225898
-0.00421528
-0.0605607
-0.00837445
-0.00180397
-0.000530802
0.379117
-0.00261139
-0.00330478
0.520438
-0.00921831
0.491906
5.83254e-05
-0.00208642
0.467453
0.632691
-0.0145286
-0.0041653
-0.00344459
0.000363974
-0.0027455
0.480276
-0.00562362
-0.0133164
-0.00216112
0.000375948
-8.72528e-05
-0.00298627
0.000321111
0.332243
0.000288808
-0.0123477
-0.000484131
0.00142818
0.000296423
0.214536
0.438633
-0.00595116
-0.00928264
-0.011893
0.000345536
-0.00230505
0.000267666
-0.0115367
-0.013194
0.250321
0.445519
-0.0148684
0.22709
0.00161275
-0.0474854
0.000941529
-0.0151084
0.295489
0.184417
-0.0174288
0.00417296
0.457096
0.32655
-0.00275601
-0.000281321
0.000902335
0.582541
-0.000592482
-0.00022237
-0.000650982
0.000573488
0.000377997
-0.00164153
0.000640667
-0.00366284
0.127717
-0.0292633