/*--------------------------------*- C++ -*----------------------------------*\
  =========                 |
  \\      /  F ield         | OpenFOAM: The Open Source CFD Toolbox
   \\    /   O peration     | Website:  https://openfoam.org
    \\  /    A nd           | Version:  7
     \\/     M anipulation  |
\*---------------------------------------------------------------------------*/
FoamFile
{
    version     2.0;
    format      ascii;
    class       surfaceScalarField;
    location    "36";
    object      phi;
}
// * * * * * * * * * * * * * * * * * * * * * * * * * * * * * * * * * * * * * //

dimensions      [0 3 -1 0 0 0 0];

internalField   nonuniform List<scalar> 
43924
(
-594.916
667.583
-72.6675
1064.12
-1072.26
8.14357
-334.821
381.985
-47.1642
225.882
-258.676
32.7945
-498.398
498.398
219.959
-263.282
43.3225
-374.485
366.954
7.53099
27.7023
-564.829
537.127
663.854
-833.62
169.766
-1009.3
1102.27
-92.9665
556.495
-146.346
-410.149
-531.945
536.224
-4.27902
-687.815
582.654
105.161
-859.816
868.877
-9.06093
265.608
67.0219
-332.63
385.536
-10.3611
-375.175
814.541
-666.872
-147.668
-412.352
410.044
2.30773
161.054
314.793
-475.847
290.385
-356.891
66.5057
-594.024
81.6744
512.35
724.534
-60.6794
49.8089
-384.63
136.51
-489.402
352.892
230.754
-119.078
-111.676
1068.01
-3.88843
659.835
-680.975
21.1405
-282.864
4.86103
278.003
308.61
-43.0021
-442.279
543.827
-101.548
953.274
-248.24
-705.034
-675.041
763.137
-88.0962
243.98
-223.082
-20.8981
479.408
-71.1477
-408.261
125.324
-408.188
265.758
-431.047
165.289
442.696
-589.519
146.824
291.353
-38.6997
-252.654
824.775
-979.433
154.658
1062.3
-237.52
-1018.18
1035.71
-17.5281
401.987
-91.3935
-310.594
704.036
110.505
188.373
-309.131
120.758
1228.47
-777.704
-450.768
-591.171
148.893
538.065
-538.671
0.605959
230.497
645.533
-876.031
224.89
537.228
-762.118
-105.981
548.677
-378.786
174.949
203.838
-13.2432
-225.001
238.244
-668.367
-6.67327
239.147
-19.1881
424.016
-38.4795
-284.451
-51.3443
335.795
524.511
-499.733
-24.7784
-34.2829
-559.741
-463.913
42.9973
420.916
-296.926
-29.4651
326.392
799.507
17.5783
-817.085
-409.158
570.212
-14.6496
-247.539
262.188
-217.473
483.231
-331.801
440.182
-108.381
261.583
235.413
-496.996
495.981
-124.873
-371.108
428.702
-48.2836
-380.418
-448.361
-26.8019
475.163
-986.693
-31.4893
1061.91
6.09975
307.703
274.665
-582.369
-243.541
547.093
-303.553
172.871
76.3975
-249.268
-431.711
381.533
50.1784
-380.547
382.992
-2.44549
302.408
-172.741
-129.666
-250.82
-60.639
311.459
-699.298
16.5409
682.757
406.523
-91.0042
-315.519
-253.732
253.732
78.9744
-760.62
681.645
-663.558
68.642
-947.219
848.226
98.9922
-314.514
-59.9713
-50.7193
224.681
-173.962
521.987
-130.269
-391.719
-644.529
-43.2857
652.453
-69.799
99.4869
80.843
-180.33
-355.574
91.6734
263.9
-309.248
58.4287
846.257
-621.367
569.761
-597.816
28.0553
225.467
-95.495
-129.972
-367.067
141.74
225.326
-22.866
252.417
-229.551
-846.719
847.459
-0.739527
-31.0145
-159.586
190.601
279.026
0.525322
-279.551
-711.452
12.154
-265.775
283.115
-17.3404
778.739
20.7677
428.7
-634.997
206.298
202.928
-216.171
-758.137
821.372
-63.2352
651.032
-715.777
64.7448
74.6715
577.781
943.843
-846.975
-96.8677
-215.167
238.931
-23.7642
197.942
46.0381
351.772
122.969
-474.741
1009.09
-256.884
-752.207
18.3794
563.754
-582.134
-12.7891
-587.401
600.19
539.759
-232.056
114.382
424.836
-539.217
-303.127
407.564
-104.437
76.7422
-814.825
738.083
-698.866
455.325
-24.0588
-197.543
221.602
21.1176
-855.785
834.667
-311.055
329.226
-18.1709
-33.5299
295.113
24.0667
-890.82
866.753
-365.796
344.675
21.1201
-88.6789
-323.673
12.8667
-287.291
274.424
704.108
-786.71
82.6028
726.139
-860.279
134.14
-151.179
339.551
191.239
111.168
200.308
-204.785
4.47739
287.758
-316.345
28.587
-129.994
558.694
626.581
326.692
144.557
84.3669
-228.924
276.445
-315.818
39.3727
196.814
-235.791
38.9775
-22.0626
301.089
-352.07
-13.7256
1.59229
-187.155
185.562
222.975
-61.5865
-161.388
181.123
827.968
-198.074
-739.277
937.351
-101.144
-397.254
522.816
15.2491
228.066
-224.274
-3.79234
261.839
-202.926
-58.9131
19.4732
-238.146
218.673
-395.572
634.367
-238.795
50.7773
509.119
-559.896
984.086
-886.498
-97.5876
790.907
-787.09
-3.81715
-575.688
-235.214
810.902
-145.886
722.094
-576.208
454.939
-443.555
-11.3833
-227.877
9.39356
218.484
31.3571
-762.809
731.452
-175.957
-202.83
-247.116
233.327
13.7894
241.162
-15.2798
24.1593
1020.88
-572.447
-448.43
735.196
-933.27
-399.293
96.166
14.7473
208.227
16.4883
-778.25
761.762
-90.3826
-856.836
417.229
-452.089
34.8597
-106.689
832.828
53.9327
-736.421
682.489
-213.228
-14.6495
276.445
6.60484
241.547
-248.152
-432.573
432.573
82.7122
679.645
-762.357
-314.438
48.6631
-579.505
597.884
334.264
-301.44
-32.8246
-777.833
-63.2707
841.104
-147.272
448.036
-300.763
441.345
80.6427
429.02
-442.667
13.6463
247.625
-50.8114
-202.929
-334.084
537.014
501.064
-381.295
-119.769
-328.244
18.093
310.151
785.513
-81.4059
-520.322
-79.8347
600.157
-661.079
661.079
-127.927
502.809
-374.883
95.6382
-341.064
245.426
-919.292
343.604
306.624
-358.081
51.457
436.713
18.226
810.068
-489.245
-320.824
919.445
-71.1812
-848.263
76.9337
148.533
-847.27
614.31
232.96
-27.4272
266.929
-239.502
-209.707
221.441
-11.7343
-43.404
-488.541
875.084
-890.189
15.1053
-68.6709
429.598
-12.3691
788.382
-792.296
3.91428
244.366
-16.2998
21.4373
-236.604
822.132
-963.82
141.688
252.31
-340.575
88.2651
570.644
-570.644
899.941
-93.2381
-806.703
594.237
73.0819
-667.319
57.5687
-327.758
270.189
-206.348
283.036
-76.6876
-473.486
326.214
53.3484
735.034
-392.997
529.507
255.155
-178.221
-684.02
-176.259
484.598
-630.484
453.533
-501.109
47.5751
-898.879
1033.88
-135.001
-580.23
555.647
24.5838
506.071
-582.181
76.1091
129.216
734.465
-863.681
211.282
530.726
-742.008
723.342
505.13
322.143
740.153
324.565
-231.905
-92.66
-295.177
295.177
371.011
-401.993
30.9826
-27.8474
1089.76
269.714
-323.365
53.6513
530.345
-479.568
-297.429
-562.387
551.635
-565.491
13.856
-29.3082
904.392
253.952
-281.379
-215.837
192.12
23.717
498.967
-587.724
88.7565
-197.663
959.054
-761.391
588.714
-82.6424
771.783
-383.421
-388.362
338.901
-48.5156
471.997
548.88
-212.532
161.812
-743.847
59.8269
-935.555
36.6766
477.594
46.9174
-679.88
891.161
-696.462
-61.6755
187.782
-201.278
13.4962
-74.0065
915.209
-841.203
-38.0514
-817.794
855.845
183.581
-181.989
43.1712
164.842
-208.013
-8.79768
-365.928
374.726
323.011
-310.144
-607.327
211.754
-251.283
447.44
-196.157
908.55
-678.053
303.529
21.036
284.984
17.5638
-302.548
-568.297
171.347
396.95
460.554
-31.5332
527.992
-730.921
-367.732
-12.8142
646.82
-746.152
99.3315
-218.611
151.88
66.7313
-656.21
638.961
17.2487
219.622
-213.017
74.0278
181.127
-743.228
825.94
-334.554
329.268
5.28611
68.0273
-363.199
295.171
237.557
-204.084
-33.4731
526.435
-328.603
-197.832
8.59813
-346.612
338.014
-497.247
484.457
-84.3751
292.33
-207.955
-661.205
158.436
502.769
-347.301
-19.7654
653.794
6.04117
445.377
-21.3617
-168.437
18.7467
149.691
-22.1648
726.713
-704.548
-855.367
984.583
320.565
-150.103
-170.462
677.326
-775.115
97.7891
424.201
347.582
706.338
59.6325
-765.97
818.099
81.8418
553.963
-529.984
-23.9794
1093.72
-1012.31
-81.4056
4.38675
-295.524
291.138
296.781
-11.7969
90.3597
140.395
209.437
-9.12959
195.133
-199.421
4.28846
143.446
149.05
-292.496
-304.406
284.147
20.2591
-164.355
-295.76
460.115
419.95
-547.877
-319.646
196.23
-193.206
-3.02346
190.062
1009.1
-560.899
-448.199
525.865
-109.122
-416.742
142.591
508.441
79.17
474.793
23.2095
-693.601
713.164
-19.5626
45.5395
-547.244
501.705
-90.4307
-246.55
336.981
-448.734
39.0996
409.634
-140.46
-336.01
476.47
780.004
-1.26483
23.5046
184.295
-376.582
192.288
158.473
-242.848
-920.768
849.372
71.3963
-295.855
305.704
-9.84854
670.929
-85.2821
-585.647
1047.02
-603.808
-443.209
194.51
-192.045
-2.46547
254.91
-113.249
-141.661
-421.412
418.138
3.27397
663.075
-31.4589
-631.617
-694.38
0.77819
374.588
31.9351
-571.754
453.277
118.477
583.537
-578.173
-5.36409
-855.762
44.3976
811.364
856.37
33.1978
-889.568
-424.56
284.1
-202.537
34.1
-322.817
532.576
-209.759
-170.81
-45.027
754.995
-793.046
-141.135
184.306
543.87
-175.715
-368.155
-123.541
-309.033
220.102
-221.084
0.982202
619.54
43.5357
683.435
-608.763
21.5033
-301.655
280.152
837.596
-876.421
38.8251
-316.192
14.7521
955.932
-959.101
3.16942
58.7496
214.553
-273.303
680.226
-33.4061
569.163
-592.555
23.3926
-828.228
849.346
190.173
-214.232
786.422
212.114
746.94
164.408
185.871
-350.279
-298.005
-7.63401
826.052
-74.6805
-751.372
596.77
-132.848
-463.922
245.425
-70.4766
83.2318
412.749
76.5676
-282.916
473.825
-503.88
30.0553
142.29
-348.657
206.366
137.656
388.779
60.3027
859.142
653.073
-773.248
120.175
-22.607
978.539
-251.864
-36.7387
288.603
-215.869
209.451
6.41753
4.37189
168.499
48.3864
452.677
335.028
-343.826
-359.224
27.4228
-338.93
42.0036
838.348
-58.3439
80.9935
-251.904
170.91
-957.825
22.2701
-921.474
-36.3511
-486.045
57.0498
428.996
-733.646
902.46
-168.814
-207.193
-52.3016
259.494
-122.064
-72.7642
194.828
-148.394
-51.9855
200.38
-142.24
230.017
-87.7771
853.46
414.563
-230.268
139.775
-12.4085
-567.822
-879.367
-41.4011
443.34
153.43
194.034
-516.851
200.761
-1107.06
906.294
26.1415
202.697
-228.839
-9.13828
-200.569
418.622
26.7548
89.1459
701.762
279.139
21.0624
-300.201
-471.603
585.985
728.783
72.827
-801.61
-778.852
-7.85795
801.334
-855.432
54.0982
308.559
-265.218
-43.3413
83.3145
237.251
850.799
-864.953
14.1542
978.831
-862.149
-116.681
939.154
-943.703
4.54821
-401.559
-170.195
-4.50222
-873.433
547.604
325.83
-183.567
161.593
21.9747
-244.28
387.726
140.476
91.6658
-232.142
754.871
268.421
-283.071
431.65
94.2149
783.029
-696.963
-86.0661
-52.5925
-110.367
-85.0307
195.398
-307.666
260.652
47.0135
862.565
-838.499
-21.5915
379.461
-357.869
-343.924
-8.14589
570.835
-583.481
12.646
367.971
-327.284
-40.6877
-828.517
731.214
97.3027
-905.799
831.792
142.473
112.437
-406.151
276.772
129.379
467.952
-453.878
-14.0747
621.209
-622.644
1.4353
518.095
-44.2697
-327.528
-129.242
456.77
27.3333
-279.197
-71.2314
-246.751
317.983
544.285
563.928
-1108.21
-900.865
849.215
51.6496
-1.9619
-404.895
418.779
-13.8832
431.83
-399.691
-32.1386
672.361
-846.344
173.983
711.345
-882.084
170.74
-502.79
-158.415
-448.535
78.2868
370.249
304.925
-6.3758
-298.549
-325.436
177.042
475.017
81.4779
-719.702
-108.815
7.54814
187.585
-301.743
300.897
0.846142
52.0738
-359.157
307.083
490.034
39.6299
-529.664
-232.059
300.729
-68.6698
-896.197
-19.6385
915.835
-188.598
-43.9991
232.598
6.3574
-846.884
840.526
804.704
-118.413
-686.292
331.051
141.897
-213.128
-874.878
-21.3182
808.6
40.7723
-4.91094
544.086
-192.314
-511.738
-13.092
524.83
-801.993
913.796
-111.803
313.677
-245.65
-398.218
307.787
-30.1115
590.702
63.0922
383.677
-241.387
297.826
512.243
-13.9646
26.0853
341.886
-778.951
88.7301
690.221
456.6
95.035
-123.968
-36.7906
160.759
-851.808
-23.0701
69.9786
332.009
-195.98
227.948
-31.968
47.6477
-279.707
-265.23
286.085
-20.8545
-18.4264
27.3604
-512.812
485.452
-611.259
-134.892
-22.3771
301.917
-279.54
-330.821
453.79
599.388
447.629
-1102.77
430.486
672.288
329.328
0.321935
-329.65
-224.803
-175.184
399.987
-524.49
552.193
-661.212
-18.6686
679.881
99.1742
88.0353
-187.209
-44.2499
799.245
839.031
-862.586
23.5553
807.471
-154.398
37.889
-602.718
-324.956
-21.6559
556.805
57.7848
-614.59
439.212
21.3415
-349.221
392.584
-43.363
-853.692
-3.76538
857.458
-27.8183
-823.99
309.802
-284.819
-24.9835
625.209
-3.99992
575.845
-412.571
-163.274
-213.693
277.284
-63.5911
-83.319
-275.905
-420.348
-43.5651
895.005
-183.66
-822.695
89.0486
-629.275
18.0154
-539.394
50.0729
489.321
820.55
-39.6278
-780.922
-262.492
120.253
0.622474
-356.105
355.482
860.133
-187.772
307.461
-2.53617
636.639
-67.4764
494.207
-4.17251
801.379
-712.233
-1045.13
-57.6415
444.856
23.0965
532.738
37.0229
728.843
-697.486
796.156
-38.5418
-757.614
193.538
-224.552
274.948
-14.2959
-118.034
218.572
-199.099
474.943
15.5229
-490.466
576.154
-97.2952
-478.858
-459.216
421.837
37.3792
128.878
672.501
4.18519
-98.426
-758.872
857.298
74.1899
-669.03
594.84
226.397
-303.684
77.2863
-743.867
645.441
91.7443
712.96
-504.407
1048.69
247.258
-166.264
-282.48
-179.553
246.748
-67.1947
207.615
-261.814
54.199
-179.86
320.336
-9.09163
-334.832
-51.1141
5.37047
-410.632
405.261
-47.5388
-161.869
-195.022
-29.7331
367.358
-337.625
-870.852
944.464
-73.6123
45.4958
-528.094
482.598
36.9323
-252.801
-755.815
106.147
649.668
354.259
-228.935
819.405
1.14477
-5.97721
225.986
-220.009
438.246
137.599
-119.613
-328.922
815.996
-201.686
-95.2112
-914.094
612.252
-337.587
131.299
48.3858
653.522
-574.548
495.192
-15.7839
342.155
-35.5312
338.959
-421.36
82.4006
198.185
-251.362
53.1775
48.123
249.141
-297.264
335.836
-500.192
-4.34343
761.957
-806.207
537.654
-62.711
-106.232
737.762
-631.53
-269.209
303.729
-34.5194
-68.8239
295.221
204.518
-189.771
-281.345
12.1355
-1060.55
588.403
472.148
-35.8689
-76.6119
176.099
-309.411
294.872
14.5394
-676.019
692.507
268.263
-273.111
4.8487
-477.483
181.723
-503.906
-556.645
239.627
-278.327
847.167
-946.598
99.4313
-343.63
18.6745
486.458
-626.7
140.242
-2.51005
811.11
234.045
-268.334
34.2888
-324.189
-549.244
-37.3905
293.52
-25.2575
347.599
-114.177
-233.422
-20.1881
-843.165
863.353
-877.124
485.029
392.095
-55.9995
735.645
-458.245
37.8968
-141.11
-133.521
274.631
875.449
-823.363
-52.086
392.619
-322.641
797.056
4.27757
105.998
85.0505
-191.049
-580.555
1024.4
-443.843
145.437
-193.95
48.5125
-758.979
-144.984
903.964
129.997
217.602
853.513
-31.3811
813.47
-736.728
502.897
-419.665
5.47799
-253.017
52.5738
146.851
-199.425
306.693
237.392
-23.4502
-1098.2
619.197
479.002
8.18597
891.697
-60.5436
-831.153
-430.576
622.76
-192.184
57.1458
756.325
23.1127
-534.851
-590.523
-18.2816
608.805
420.951
143.139
-564.09
-264.735
-522.355
278.824
63.3313
-177.929
-75.8031
-406.263
352.715
53.5482
-791.658
302.413
200.857
-261.981
61.1233
220.043
-252.019
31.9764
429.909
-424.538
728.121
52.3142
-780.435
-202.68
43.094
822.416
20.7374
-843.153
-360.584
19.9799
340.604
118.64
860.191
-409.238
452.235
411.382
-72.4228
-954.502
99.7089
854.793
789.104
102.592
-44.2944
242.479
50.4817
381.348
900.172
133.707
26.54
-484.785
28.7262
-826.931
798.205
698.246
-767.275
69.0296
636.316
465.955
769.012
-56.0319
-712.981
195.104
-49.6669
76.3283
339.393
-415.721
-735.247
792.393
271.037
169.145
-269.209
168.13
101.079
-111.196
-426.825
538.02
-32.0205
-215.096
1004.41
-573.925
79.1336
-286.326
212.977
-218.954
-103.462
-155.215
30.6719
820.127
-166.304
502.14
-602.229
757.117
-154.888
685.35
-707.515
-394.292
381.2
-442.737
-179.907
39.4654
348.723
-12.5964
-336.127
-46.2885
808.245
-505.246
-623.365
1128.61
287.75
-237.134
214.268
7.61795
196.9
-245.485
126.407
-885.307
908.969
-23.6622
-272.886
254.722
18.164
73.78
709.249
3.36322
765.649
635.599
-16.0591
-15.0637
-512.074
471.243
40.8312
933.08
17.1527
-950.232
-313.173
-47.4112
-0.278936
-234.335
797.879
-69.7581
529.018
-623.119
94.1008
-762
-84.7194
40.3023
268.257
889.594
10.5781
-490.709
440.798
49.9112
-950.453
-94.6791
40.4397
-386.66
346.221
-193.618
222.534
-28.9164
247.193
-39.5777
-39.6973
1050.3
-313.221
-737.079
579.59
-50.5725
54.0073
-263.458
-64.2998
-692.895
779.659
-86.764
-73.1259
-12.0929
232.136
504.749
-5.78217
92.7904
-870.624
-91.3574
212.346
-120.988
-195.087
215.15
-20.0627
-681.793
570.597
-451.61
478.971
342.743
49.8763
-460.442
424.765
35.6773
580.936
428.162
498.408
-459.924
-38.4839
482.881
-310.024
-172.856
-203.755
31.0137
350.353
-21.3638
-328.989
-249.69
70.1369
-320.35
286.82
-219.039
-636.723
-691.573
-81.675
259.562
-58.705
663.032
197.101
6.97838
226.348
816.427
-84.6226
-731.804
328.761
-142.084
646.998
-504.914
242.298
-294.6
-94.7413
515.692
-750.877
7.64882
-114.522
-104.089
500.005
-96.0884
785.25
-689.162
-197.511
220.675
-23.1638
-31.7653
-241.121
829.586
-737.841
221.711
-428.039
-408.208
836.248
863.028
-199.996
-43.9928
790.537
-746.544
597.375
-6.67373
17.7126
-608.236
280.035
139.871
-419.906
-404.068
480.397
-22.551
-317.217
339.768
-616.912
65.7017
551.211
-142.257
518.706
-376.449
-480.386
409.353
-483.018
73.6652
105.101
-177.644
72.5427
-177.093
341.501
-176.966
-190.767
730.727
-32.481
102.28
581.155
-611.034
648.862
-37.8284
269.188
-291.565
-810.538
-52.0485
97.0583
-433.068
590.12
460.181
-615.779
173.042
418.693
-846.732
387.449
-681.887
28.652
653.234
-197.407
251.128
-53.7215
-816.296
886.701
-70.4056
-48.2482
-432.179
480.427
1005.36
-405.62
-599.741
-68.6667
-786.765
10.4104
299.392
-950.465
207.425
743.04
-857.708
-92.7564
-172.515
-11.0523
-777.767
731.478
-132.941
-297.134
430.074
-14.4894
-266.846
281.335
160.325
647.146
242.598
151.946
-394.543
-902.867
154.575
748.292
541.174
-580.943
39.7698
604.54
58.595
-663.135
-44.5247
673.798
-639.876
-33.9214
353.039
-23.711
-25.8551
225.486
-199.631
608.395
65.403
13.773
-792.625
721.54
-777.572
-174.456
227.03
324.661
158.22
144.622
-321.588
203.341
-207.219
3.87828
341.253
-199.312
-141.94
592.13
43.4693
-747.792
801.097
-53.305
-410.849
-96.3089
507.158
-12.4316
-289.311
251.238
63.233
-314.471
249.288
-99.6498
-149.638
418.304
-466.552
-61.7153
-740.277
-410.83
95.6851
141.872
511.796
-442.779
-69.0164
-229.421
255.562
-202.326
194.611
7.71461
25.7653
-227.4
201.635
-322.403
379.179
-56.7763
212.901
-11.5534
-201.348
450.448
554.912
-261.241
555.512
-473.837
140.509
-227.036
86.527
-200.439
-13.0729
213.511
701.28
-96.7391
242.588
-168.56
-357.412
275.808
81.604
-423.682
-22.4348
446.117
-352.015
449.073
310.9
-323.354
12.4534
-16.5775
31.8986
470.999
462.765
35.6426
40.481
-464.163
191.836
0.283974
-338.009
-5.62145
-369.809
297.557
72.2523
341.957
-63.133
673.881
221.124
-230.216
255.981
-288.535
306.628
105.22
655.164
-760.384
-736.763
-25.6455
762.409
31.5505
165.66
16.7766
-339.179
-690.685
621.105
69.5796
119.911
-177.745
168.08
9.66514
428.936
-148.9
-240.676
-179.581
420.256
-165.039
-347.036
220.4
-17.0594
-263.68
122.569
92.7837
-184.141
-1009.54
696.319
-347.738
347.738
851.463
242.252
-35.2526
-509.098
-500.443
209.748
326.476
528.094
42.5499
545.487
-51.2803
277.353
-249.662
-27.6918
-629.395
662.273
-32.8783
-50.2923
-532.418
-47.0868
-634.987
718.922
-83.9348
84.1816
-493.34
-353.053
539.42
6.06688
529.38
24.4851
-553.865
747.76
-647.26
7.38411
-108.952
-70.0918
179.043
-411.979
91.6288
311.875
-33.1458
-278.73
-152.102
-50.435
-301.817
289.161
12.6561
-292.471
78.7783
869.564
-195.683
-335.007
47.716
768.223
-1.54012
-766.683
584.175
-659.001
74.8266
-922.855
830.374
92.48
-23.3951
-637.817
110.121
297.442
-23.1723
-261.153
284.325
-788.765
28.1449
-203.512
-290.45
267.278
-466.115
511.611
-245.159
273.71
-28.5505
-302.699
300.057
2.64234
-811.162
704.93
995.982
-148.815
-170.79
312.267
-253.518
360.695
-174.825
420.811
-313.187
-107.625
287.292
54.6644
812.656
-89.1172
-723.539
184.324
-681.571
-755.636
672.579
83.0566
5.64446
-617.276
624.3
-7.02351
64.2202
178.368
-99.2033
519.153
-267.313
293.885
-26.5718
379.12
-458.266
79.1458
-608.631
649.207
-40.5757
585.717
44.258
-629.975
244.608
-220.795
-23.8123
556.483
-24.4538
-532.029
228.379
-117.559
-110.82
-123.457
-48.3809
171.838
956.001
-946.875
-9.12596
-575.498
-388.322
-46.2297
-756.91
803.139
-897.641
834.37
-591.154
365.041
226.113
605.084
-623.366
-14.2138
673.829
-659.615
26.9456
140.879
-167.825
-70.6293
-288.528
-855.976
-66.8783
15.4624
366.07
334.074
-739.694
200.146
-8.30969
-228.69
228.69
406.69
-135.907
-270.783
-911.269
25.9622
-3.09969
-25.9692
-477.824
503.793
-753.741
-80.635
487.019
-406.384
-252.401
-408.678
432.246
-10.4088
-55.6223
258.319
155.376
185.877
-543.78
397.434
-165.385
407.983
339.385
-52.0927
762.777
-708.844
-284.148
-7.33831
270.645
-946.892
-3.56113
5.6115
927.468
532.91
-448.728
-839.098
574.353
264.745
4.06921
259.211
-263.28
350.238
-7.42487
-342.813
-461.905
31.3289
-835.081
748.807
86.2739
-127.983
-185.19
194.301
47.0133
-241.315
212.982
126.403
-800.992
17.776
-589.481
327.711
261.77
37.6245
250.133
361.916
-325.159
-36.7571
-389.504
402.828
-13.3242
847.415
-513.34
-454.993
312.909
-322.39
191.493
130.897
423.381
-720.811
568.398
-27.2247
811.248
-807.884
79.9262
148.453
-829.075
812.054
17.021
-794.704
46.9119
-472.162
-527.846
1042.65
-186.28
931.096
-835.18
-95.9158
-521.121
-463.315
984.435
-48.5622
-255.844
52.2717
225.762
-232.735
6.97245
-22.0514
-56.0687
733.394
468.914
-34.2239
-434.69
-366.45
-201.847
20.3335
-84.9188
-255.657
-158.442
426.609
-268.168
-925.624
925.624
92.8254
-806.349
485.525
-510.818
69.1731
441.645
-211.591
-194.56
173.887
-165.818
-377.962
-554.513
388.695
602.182
57.6732
191.614
420.384
-929.983
509.598
-30.7115
309.85
-223.322
-262.723
-215.516
420.355
-95.694
-181.302
-141.089
-65.4871
-835.378
452.49
-518.088
65.5974
17.3466
-696.122
777.944
-81.8228
415.756
-420.735
4.97878
246.615
-567.748
529.721
38.027
99.659
118.575
-218.234
194.54
-220.395
378.938
-708.788
329.85
110.541
758.336
166.045
240.645
-68.6451
-492.235
466.266
292.661
-307.106
14.4441
416.499
-37.3786
353.92
-383.653
-22.3652
-367.567
389.933
-40.6181
-275.727
323.219
16.2292
-339.448
-428.922
270.48
-388.294
40.0738
631.116
-749.529
-409.961
531.997
-313.193
-91.7026
976.651
-866.111
-492.742
-312.302
805.044
293.545
38.5322
290.317
-328.849
-456.739
144.524
-272.508
-51.779
451.021
-563.886
112.865
47.4247
613.654
-186.882
77.9307
330.9
-293.276
708.748
-329.81
269.599
-177.925
23.9645
364.803
-388.768
-28.3278
-295.89
-5.76435
-255.999
251.053
4.94593
1.34036
556.54
-533.427
41.4204
-891.587
113.337
799.334
-2.27758
329.551
-116.569
525.489
328.707
-854.196
598.399
239.949
671.445
-767.534
-750.339
105.204
645.135
282.876
63.9821
-346.858
186.761
-179.589
-7.17174
27.5099
274.544
572.914
-197.418
37.9956
159.422
-156.835
-606.943
763.779
-339.247
361.397
-22.1501
-255.632
291.294
-35.6628
-148.356
-175.009
-255.398
211.627
43.771
920.091
-920.091
-87.3065
727.042
-639.736
294.141
-210.827
344.922
-68.1506
-657.86
189.992
27.7568
-217.749
38.1541
-584.896
546.741
40.8619
-241.845
200.983
908.302
-913.998
5.69571
301.046
-674.527
373.481
346.561
-306.122
51.6741
310.242
-350.747
876.237
557.042
-106.022
-72.7872
-243.031
-400.094
322.38
77.7136
220.73
-345.603
332.497
-500.094
167.597
-250.558
53.1513
-873.294
-73.5986
33.5799
-729.701
320.002
-178.262
796.38
-773.242
-23.1386
431.011
52.2771
-483.288
-685.576
610.666
74.9103
-250.819
210.007
40.8124
320.629
-27.9677
-426.114
-254.861
878.522
-834.584
-43.9373
-357.661
658.707
126.726
-537.575
-864.762
11.07
-55.5628
-601.572
657.135
44.229
-137.822
-131.387
-917.691
412.428
505.262
191.843
2.76823
449.933
-34.1772
543.445
280.432
-271.45
-8.98173
-334.497
-6.02692
340.524
-552.192
446.211
0.779387
-205.189
204.41
231.472
-41.4794
-97.4406
360.54
-263.1
-355.405
6.18397
434.79
-10.0246
59.1246
-809.486
750.362
-664.292
664.292
55.1539
187.145
-90.1527
-505.617
595.77
-854.476
938.105
-83.6288
741.125
55.2556
-14.1369
-834.534
848.671
324.156
-341.497
17.3408
325.05
14.2844
-339.335
584.367
-636.879
52.5118
44.9672
315.652
-360.619
-213.619
-121.327
334.946
195.841
-9.07986
106.707
-710.61
603.903
-760.014
267.272
350.264
-311.732
793.738
59.775
-77.3699
-433.449
342.167
-390.45
-681.323
101.765
579.559
322.157
-284.8
-37.3566
-531.116
615.011
-83.8946
-81.895
-362.91
444.805
408.392
-382.307
-591.175
-326.516
602.285
-725.533
123.248
-407.607
-431.49
837.858
-39.7388
-645.837
118.672
461.751
-580.423
563.563
-644.783
81.2202
41.5711
-244.497
11.1095
-692.996
-320.826
321.448
2.85499
570.535
-692.718
122.183
-344.503
-430.612
-1.80259
-684.93
698.076
-13.1458
763.074
-164.674
645.543
-102.879
-542.663
218.72
293.076
289.47
-297.238
7.76783
807.725
-935.879
128.154
-652.395
-97.9445
-294.165
26.8519
-325.223
79.9895
245.234
-56.3092
640.676
91.5832
-257.07
165.487
357.705
-335.698
-22.0075
-344.015
-245.466
-15.6863
203.468
-28.441
-172.837
229.232
139.514
-368.747
-271.628
319.532
-47.9039
588.975
-679.127
23.621
288.254
-267.965
-57.2585
-292.954
-298.2
-711.331
540.706
170.626
-111.416
-151.866
-161.953
66.4577
-578.22
536.369
41.8507
576.955
-1098.08
-24.7826
-1014.17
-140.796
368.219
52.1353
-22.5733
-51.39
-758.905
127.376
852.499
-846.141
617.388
-76.6825
1.86018
589.242
-591.102
-283.535
-164.608
448.143
-46.245
-204.574
7.63845
196.102
-210.888
14.7862
-993.527
230.718
448.602
-116.105
19.6666
-627.969
608.303
298.469
-364.899
27.2241
337.674
61.1167
573.459
-634.576
-102.853
771.642
-668.79
-669.477
-195.476
-728.933
38.5307
690.402
-31.918
570.152
-538.234
924.076
-915.579
-8.49679
563.795
-619.358
-611.187
-23.6347
634.822
-395.772
124.144
279.328
-276.778
-2.54966
801.353
-772.627
-96.0043
730.856
-634.851
459.257
11.9861
-433.91
-669.847
604.14
65.7073
399.216
-92.1967
-564.013
-57.0612
-11.1312
-399.5
-29.3739
216.276
-186.903
22.8577
327.407
-360.362
364.281
-3.9188
746.431
-792.661
120.328
139.166
213.628
-225.431
11.8033
684.153
-775.28
91.1277
-321.32
-681.847
-11.0484
795.09
74.4736
290.981
120.401
811.667
-16.5772
-33.3159
-1029.45
173.664
3.93988
20.2383
-567.483
157.749
-130.803
-1083.06
-241.413
242.193
71.3979
222.743
-107.648
-467.123
574.771
-2.47015
-477.497
479.967
838.926
-31.2012
570.068
75.475
-44.6585
-203.623
248.281
743.724
-787.716
-153.206
382.438
-405.49
444.481
-38.9904
-679.286
723.168
-43.8826
288.607
-357.46
16.3962
392.935
-140.02
-252.915
175.715
-511.543
466.086
45.4566
4.68827
-461.134
461.961
-0.826562
613.749
-596.036
35.341
-163.476
594.487
-294.299
57.4801
440.918
41.2556
607.518
-648.774
-78.3568
-144.725
198.64
11.3666
31.6381
-390.976
26.0777
-413.56
8.06971
250.827
-252.862
2.03514
711.249
-682.597
-484.856
83.9223
400.934
-42.2671
626.442
-23.114
-204.286
914.262
-141.77
-772.493
518.881
537.486
-1056.37
-293.399
-15.7323
290.682
4.18965
10.2699
273.877
-691.61
-3.32321
694.933
592.151
-748.986
-212.176
192.706
19.4698
-527.233
-21.4033
-647.626
7.01193
133.497
-137.261
-428.23
-105.183
196.767
17.5144
-636.147
618.633
-38.7086
-497.802
536.511
-263.467
308.434
-69.2973
626.102
-728.808
753.878
-25.0702
217.708
-482.443
250.822
-260.396
9.57439
12.1355
-838.571
27.4086
245.174
-458.792
911.029
-921.24
10.2108
636.923
13.5835
-650.506
-52.9835
-539.572
-807.25
840.447
121.122
-206.153
897.673
-78.2676
240.731
-14.9681
-60.3965
-715.99
776.386
-87.9973
-596.933
-23.2033
552.583
-674.166
21.7713
206.877
-233.861
26.9848
-236.431
2.16106
234.27
-558.454
533.511
24.9429
-209.242
85.7851
59.2492
88.8507
-148.1
-880.25
314.583
19.8326
-334.416
54.9591
637.889
-692.849
-340.321
367.969
-27.6486
-651.982
-22.1838
-664.312
769.532
-896.684
127.57
769.113
-145.693
-168.744
-445.168
63.8738
-456.783
-615.481
270.151
-1.72992
-289.732
290.593
-0.860555
174.066
-74.4072
-422.568
393.676
28.8912
-954.88
972.033
-290.1
97.2641
192.836
132.032
25.717
523.17
858.646
-878.834
276.733
-39.4821
371.579
-513.836
-789.445
811.369
-21.9237
-347.713
-186.758
534.471
132.224
-173.506
41.282
426.195
-525.399
747.863
-683.557
-64.3061
-260.305
-33.0939
334.259
-83.0216
315.423
-291.802
331.369
-652.04
-17.8073
5.54355
633.418
-369.375
140.44
20.6509
-891.503
548.247
-389.811
608.145
368.506
423.557
8.68866
744.645
-805.041
-40.0002
-12.8579
827.283
70.3897
421.117
-499.829
78.7112
237.563
-201.465
-36.0977
-185.778
212.434
-26.6557
-9.6628
342.344
-332.681
-617.609
658.864
439.101
250.294
-217.475
-32.8192
362.988
512.461
312.942
-334.306
710.997
101.659
78.588
-601.834
523.246
639.767
-35.6276
40.9255
-930.477
113.974
816.502
213.915
-257.914
-251.044
-793.288
732.265
61.0229
5.23076
814.397
-819.627
929.019
-929.019
-377.953
17.5912
602.825
36.9423
-109.136
-26.8025
-190.326
217.128
437.558
27.7984
-465.356
-434.91
21.0278
413.882
186.964
972.168
-453.287
-228.359
39.3475
189.011
-627.254
630.783
-3.52859
431.753
-469.897
38.1435
-430.723
-4.18674
44.6054
-765.151
720.545
-636.558
-62.3077
-549.308
518.473
30.8348
-374.651
291.332
26.772
-240.07
213.298
-162.652
-127.449
-28.7334
224.989
-26.3485
44.0976
298.813
-277.751
-71.616
791.609
366.643
-52.0601
-769.399
32.6362
-890.025
814.428
75.5965
123.644
286.4
374.694
165.065
-755.295
858.8
329.666
190.03
-519.695
-164.139
594.451
-644.036
49.5858
484.21
55.6355
-539.845
640.048
-345.016
-295.032
-480.98
-116.837
-781.831
678.978
26.8146
-686.176
659.361
-711.313
108.508
602.805
-763.06
24.0481
36.7559
508.58
-87.4626
-520.58
354.276
557.069
-588.987
-35.4002
-66.969
229.829
-162.86
53.4925
-688.48
-233.065
-233.434
166.465
-29.7287
269.524
-106.029
-163.495
164.341
-7.77295
-632.915
721.646
-34.3577
199.993
-165.635
869.866
-629.483
12.2064
137.068
193.832
1.00428
397.537
-398.541
-222.069
-199.393
421.461
180.934
763.531
379.514
-355.55
-842.684
7.60245
626.407
-609.866
-0.814279
-812.816
813.63
589.546
16.0659
-605.612
846.297
46.2861
-892.583
310.053
-9.99648
123.759
-407.295
425.872
8.9179
-255.186
334.949
-79.7627
193
381.5
-90.5182
611.157
-55.125
-556.032
-756.665
782.757
-26.0922
12.9075
649.969
-662.877
-645.951
114.835
-6.61713
-442.37
606.489
34.446
323.259
-30.3544
188.727
-89.5527
-336.306
1.80894
95.9597
742.967
3.52883
-277.526
273.997
-422.382
-507.601
-57.444
-757.754
815.198
267.347
-52.7942
189.88
-263.992
74.1121
194.972
-94.6957
-221.711
-516.877
-581.322
-792.018
-18.5194
-166.137
-815.758
776.446
39.3111
-34.4472
469.697
-435.249
59.7816
821.34
-881.121
196.943
-137.694
775.035
26.0619
-223.86
197.057
20.2796
-306.546
286.267
575.724
-573.864
-645.408
128.152
517.256
-564.941
587.444
-22.503
31.3521
258.118
-665.216
-441.839
608.542
45.8104
-654.352
-721.934
606.759
-679.214
72.4551
-150.45
-46.9678
450.028
-484.311
-846.607
851.837
106.363
-307.83
-588.854
-642.404
593.271
49.1322
181.173
-76.0717
-43.5573
460.011
180.037
-571.425
58.6133
514.274
-527.124
12.8506
73.197
-717.663
644.466
267.276
-16.4495
-312.631
166.161
146.47
-569.644
594.129
-131.605
478.461
-346.856
681.42
-86.9697
0.759732
-317.729
316.97
-446.928
-442.759
889.687
-142.635
249.261
-106.626
-102.009
-579.314
-574.309
422.602
151.707
403.86
-38.3954
-365.465
5.13533
146.745
-251.586