/*--------------------------------*- C++ -*----------------------------------*\
  =========                 |
  \\      /  F ield         | OpenFOAM: The Open Source CFD Toolbox
   \\    /   O peration     | Website:  https://openfoam.org
    \\  /    A nd           | Version:  7
     \\/     M anipulation  |
\*---------------------------------------------------------------------------*/
FoamFile
{
    version     2.0;
    format      ascii;
    class       surfaceScalarField;
    location    "19";
    object      phi;
}
// * * * * * * * * * * * * * * * * * * * * * * * * * * * * * * * * * * * * * //

dimensions      [0 3 -1 0 0 0 0];

internalField   nonuniform List<scalar> 
172549
(
201.516
52.1152
-253.632
-473.771
101.999
371.772
-111.087
-78.7831
189.87
113.49
-278.832
165.343
-435.325
323.693
111.632
138.138
-337.194
199.057
-157.029
283.048
-126.019
-83.6848
189.904
-106.219
-363.392
351.979
11.4124
-465.115
-8.65581
-229.998
354.511
-124.512
494.974
-360.241
-134.733
-170.123
341.25
-171.128
92.8209
-94.1937
1.3728
-43.9451
-319.446
-109.887
64.4113
45.4756
-456.087
86.4405
369.646
-411.61
76.9948
334.615
-132.732
286.155
-153.422
-331.962
-103.363
-75.4202
177.851
-102.43
199.575
-197.499
-2.07641
392.863
-290.34
-102.522
160.633
-313.945
153.311
-247.679
212.787
34.8923
-114.575
219.034
-104.459
65.5808
73.2284
-138.809
-206.887
459.062
-252.175
-263.26
-175.89
439.151
-58.1732
97.0151
-38.8419
427.832
-342.044
-85.7883
-240.863
-67.7545
308.617
-268.098
404.707
-136.608
-101.273
-76.9506
178.223
-93.8693
-92.6758
186.545
182.208
95.6108
-277.819
-216.983
80.3117
136.672
-99.6356
-356.451
114.858
-139.613
24.7551
105.318
204.859
-310.177
155.903
-396.766
-57.5662
-354.043
-130.475
-37.6134
168.089
-119.216
301.425
-42.8859
104.452
-61.5659
-2.67598
95.4969
265.144
63.7427
-328.887
542.42
-302.725
-239.695
397.544
-147.55
-249.994
414.118
-534.055
119.937
-390.723
478.203
-87.4803
280.232
-101.85
-178.382
-466.764
324.888
141.876
-504.396
451
53.396
-118.302
-166.879
285.181
-311.757
-155.006
548.459
-361.667
-186.792
-134.635
81.2372
53.3976
82.0104
74.8549
-156.865
129.625
-230.989
101.364
-515.366
327.458
187.907
-186.294
331.776
-145.482
346.107
-129.433
-216.674
-106.219
187.191
-80.9721
295.895
87.1708
-383.066
9.40159
-401.079
391.677
-351.855
196.914
154.941
-215.604
393.179
-177.575
74.9136
-144.439
69.5251
-529.772
251.775
277.997
-110.639
194.901
-84.262
193.083
-145.314
-47.7686
361.063
-255.745
-137.587
69.2239
68.3627
-89.0543
-93.421
182.475
82.1043
-166.645
84.541
-199.448
47.3599
152.088
202.269
-403.084
200.815
-257.129
-127.974
385.103
-284.366
211.532
72.8335
-75.3553
-209.011
429.78
-432.779
2.99845
46.29
-84.9578
38.6678
-303.856
553.816
-249.96
-137.575
241.163
-103.588
342.482
152.492
-110.959
179.184
-68.2245
-324.471
472.876
-148.405
106.678
-119.711
13.0335
-86.6926
441.522
-354.83
128.105
-1.50311
-126.602
203.133
-19.9474
-183.185
206.532
-469.793
221.534
50.08
-271.614
-420.636
315.285
105.351
-574.892
416.84
158.052
262.01
-321.857
59.8469
96.6467
-50.3567
83.5062
-155.384
71.8781
-0.175793
106.853
-314.465
-200.9
196.917
-430.617
233.699
327.679
-179.299
-148.38
-484.936
498.801
-13.8643
94.4217
-205.06
166.545
-87.1776
-79.367
-502.323
307.528
194.795
-33.9134
100.466
-66.5528
-144.61
225.483
-80.8735
-311.334
-71.1407
382.474
-119.038
225.384
-106.345
-54.6641
316.674
-169.697
-29.7517
136.109
105.239
-241.349
-123.96
47.3441
76.6156
205.962
-345.747
139.785
-307.605
77.6069
-83.9875
208.384
-124.397
364.002
-541.57
177.568
50.3695
142.713
-200.186
116.199
-69.7701
-40.1169
-224.202
114.907
109.295
44.8741
-165.326
120.452
-230.662
532.607
-301.945
-107.61
49.4368
-265.502
79.2071
-119.605
66.0531
53.5522
-181.212
-41.7141
222.926
-501.687
504.328
-2.64097
-101.999
230.062
-128.063
567.128
-287.734
-279.394
-165.796
175.24
-9.44408
538.934
-196.452
-329.442
480.849
-151.407
-131.105
227.132
-96.0273
-266.199
193.258
72.9401
60.9812
-329.079
148.779
-267.081
182.762
149.014
74.3313
48.8987
-123.23
-190.018
340.983
-150.965
502.98
-504.539
1.5591
374.299
-195.757
-178.541
-260.923
158.924
141.961
-532.684
436.849
-329.138
-107.71
-116.21
-149.291
-445.759
230.155
-226.96
-167.163
394.123
109.891
56.6532
53.4849
-96.3707
7.3417
195.791
-567.955
273.278
294.677
133.31
146.922
-357.72
426.038
-68.3177
-412.194
100.861
-65.725
213.579
-147.854
134.531
-134.675
0.144412
-151.116
106.114
45.0023
152.433
-70.329
138.806
298.042
158.401
187.706
-186.831
148.474
38.3573
264.384
-145.517
-118.868
139.912
173.516
-313.428
439.662
-254.776
-184.886
-57.2751
-108.665
165.94
-184.026
118.301
-242.395
125.96
116.435
-242.255
157.699
84.5554
-99.9104
365.055
-98.621
-22.7363
121.357
26.5953
64.4774
-91.0727
-68.1051
-85.5569
153.662
216.381
-431.13
214.749
-75.9345
102.53
194.199
85.4663
-279.665
116.481
-333.029
216.547
277.724
119.82
-286.034
-132.171
418.205
-189.024
99.9697
132.215
-252.829
120.614
-202.627
408.997
-206.37
-262.652
-239.671
-162.429
384.887
-222.458
95.1571
-262.175
167.018
311.149
188.851
-132.224
320.614
-188.39
123.847
4.25789
-105.81
300.009
-338.731
190.058
148.673
450.525
-154.386
-296.139
-204.986
116.431
88.555
-225.591
111.016
74.8457
-129.883
55.0377
21.0722
-97.0067
-173.575
164.416
9.15811
57.7959
-148.926
91.1298
79.4932
139.712
-219.206
-562.967
383.472
179.495
-202.543
361.746
-159.202
359.489
57.9322
-417.421
481.28
-479.312
-1.9687
-339.025
169.072
169.953
137.398
-92.8109
-44.5875
370.024
-271.512
-98.5124
-87.2916
383.187
-209.923
-195.154
405.076
100.76
-207.258
106.498
-72.2391
93.3113
35.3838
272.144
11.3597
-259.039
-384.203
297.51
-160.249
-66.8625
227.112
-87.3849
-117.601
-98.4771
246.748
-148.271
-184.501
-135.059
319.561
82.6321
-85.3081
-123.57
-261.476
385.046
134.231
5.58797
-139.819
137.31
-1.95652
-135.353
136.521
-329.893
193.372
-76.5393
140.808
-64.2688
-73.5436
-430.852
-192.152
31.4791
160.673
-197.2
-83.2015
280.402
186.676
-68.5192
-118.157
137.302
-62.4561
-352.802
93.4129
259.39
-0.736997
-409.199
409.936
66.6071
-118.816
52.209
45.2571
-118.454
73.1969
86.6661
-177.461
90.795
-231.947
122.47
109.476
-225.057
-337.91
-641.77
285.447
356.324
392.127
-205.627
-186.5
-51.8522
159.288
-107.436
240.111
-166.577
-73.5337
-40.2107
144.142
-103.931
-291.23
162.059
129.17
-112.083
-39.0326
146.369
-62.8624
278.439
-217.423
-61.0165
-235.046
407.582
-172.537
439.972
-217.018
-222.954
136.551
-87.7204
-48.8308
-162.109
104.834
-63.3672
-35.9542
99.3214
209.099
276.358
-485.457
-370.721
241.213
129.508
224.277
-525.224
300.947
387.386
-237.129
-150.257
121.882
-88.9568
-32.9256
-4.7265
-281.307
-72.0462
171.801
-99.755
-557.698
297.296
260.402
503.649
-503.649
-182.351
98.666
368.987
-373.713
-4.12373
86.7559
-472.147
269.519
-124.225
114.835
9.39027
38.316
-182.926
258.422
-144.932
-101.457
146.331
179.719
-280.153
100.434
100.789
93.2699
-194.059
-96.7782
200.201
-103.422
415.213
-131.523
-283.69
-322.697
190.473
427.778
-150.054
-218.342
-72.8873
141.394
177.987
-319.381
-190.004
104.156
85.8485
41.9646
-100.048
58.0835
-169.315
101.21
-249.112
297.859
-48.7467
79.5872
-113.501
-123.526
-63.3054
97.2271
184.7
-404.809
220.109
69.3828
68.0157
456.539
-254.4
-202.139
173.174
204.421
-377.594
51.8102
-243.962
492.3
-502.143
9.84222
117.503
-66.641
-50.8625
100.357
-143.287
42.9302
109.507
-67.5429
-500.32
66.1265
434.194
-163.804
29.145
134.659
359.111
-323.727
-258.678
409.62
-150.942
-477.276
301.844
175.433
364.469
-244.499
-119.97
-136.079
-210.733
346.812
-162.147
345.188
-183.04
-222.726
125.947
-72.4835
-22.9664
95.45
106.688
-192.35
85.6618
-58.2334
132.198
-73.9651
309.671
-193.088
-116.583
82.8205
42.2991
-125.12
-125.293
273.588
-148.295
-249.926
161.259
88.667
113.784
72.8916
90.0653
-117.635
27.5692
-170.271
286.753
-91.8767
-187.892
279.769
112.499
19.4412
-131.94
-91.4286
149.563
-58.1344
-151.72
99.8679
-330.505
160.382
-181.231
346.148
-164.917
348.206
102.319
177.363
-412.409
273.359
-112.725
-174.559
119.684
54.8748
-6.3528
-172.79
179.143
262.803
-386.372
-58.9197
418.409
-33.2278
-90.732
177.258
69.73
-246.988
-144.714
60.6851
84.0284
-366.693
8.97233
192.156
-405.363
213.208
29.9017
-102.385
-147.537
-16.2667
194.507
-286.384
-432.874
-67.4467
141.555
229.591
-371.146
219.097
145.372
141.055
-63.5539
-77.501
172.946
101.605
-274.552
-248.371
161.959
86.4118
80.3435
-357.613
277.269
353.043
-214.905
243.581
-148.424
85.3004
107.576
-192.877
-129.231
262.145
-132.914
126.783
-61.2023
92.7893
-183.185
90.3959
266.63
-88.7276
-177.902
-169.769
-213.171
382.94
-174.524
-74.5881
-83.5517
-20.9231
104.475
81.2755
48.3694
-129.645
320.617
-174.187
-146.429
-202.303
36.5063
-504.179
345.995
158.184
362.346
6.6409
170.794
-290.71
119.915
183.526
-104.032
183.598
87.4323
-271.03
-45.9649
247.481
-105.321
-299.561
404.882
-171.077
388.676
-217.599
-114.542
259.045
-144.502
-169.497
274.018
-104.522
146.231
-95.8868
-50.3442
-151.328
-65.6558
-155.447
88.272
67.1749
264.557
-151.633
-112.925
-438.082
332.761
-161.785
164.557
-2.77215
-186.914
110.787
76.1269
304.122
-167.601
-168.962
473.041
-304.08
190.954
-87.1188
-103.835
67.6594
74.8329
-142.492
73.9211
62.63
25.6836
229.944
-255.627
91.5563
102.041
-193.597
62.1264
305.919
-368.046
146.448
510.41
-96.2924
226.111
95.6253
-321.736
-136.684
293.827
-157.143
137.022
-70.4147
213.563
-120.594
-92.9687
-78.7397
202.32
-123.58
134.93
-249.472
394.543
-221.37
-371.337
369.346
1.99052
128.019
-82.7614
-57.7828
-40.6436
98.4264
488.388
-164.695
-66.3558
181.848
-115.493
-224.957
420.245
-195.289
265.257
178.438
-443.695
67.8652
-178.824
-451.5
244.613
-20.8765
158.186
-325.011
187.78
137.232
1.00388
89.0614
-316.573
-131.854
448.427
268.012
159.765
-76.7863
-84.0414
160.828
99.1296
1.06306
-100.193
-242.529
354.855
-112.325
110.925
-110.678
-0.246394
-152.2
382.79
-230.589
-121.154
121.441
-0.287381
55.9931
117.413
-173.406
142.047
-471.489
-171.131
261.873
-90.7416
-96.3793
243.148
-146.769
-133.803
198.299
-64.4955
254.583
-160.609
-93.9739
-274.903
87.0112
237.644
-407.413
-38.974
214.112
-175.138
-226.159
88.584
197.196
100.663
381.497
-113.484
72.9638
-127.32
54.3563
353.325
69.9298
-423.254
-196.95
405.048
-208.099
-232.838
-267.159
22.8048
-95.044
601.472
-379.253
-222.219
-49.0344
129.239
-80.2045
-147.984
56.5555
295.304
-385.053
89.7486
-130.866
186.859
-392.105
373.665
18.4401
326.396
222.063
147.573
157.559
-305.132
-504.319
382.434
121.885
-352.609
426.18
-73.5708
-99.3127
253.105
-153.792
181.625
-67.8409
129.794
179.876
125.028
-296.159
-126.574
267.1
-140.526
382.77
218.702
336.286
-330.424
-5.86194
325.162
-529.532
204.37
341.594
-139.325
-101.863
-399.825
59.8653
-212.479
152.613
80.534
-157.32
357.472
99.0671
174.097
-80.0455
-94.0514
238.303
169.279
134.608
233.681
-368.289
-106.592
371.849
408.414
-192.033
-398.553
6.9549
391.598
-291.2
-180.976
472.176
421.532
-291.847
-129.685
489.368
-249.084
-240.283
-67.0034
-95.1058
-60.5019
273.157
-212.655
61.3871
76.85
-138.237
84.907
-143.067
58.1598
156.477
150.074
-306.551
-185.634
31.4123
154.222
25.2164
85.7082
412.029
-173.725
374.965
113.423
-275.186
-137.034
412.22
-33.1285
145.627
-170.473
95.0529
-160.613
-219.974
380.587
-25.2169
89.6942
-38.0717
-147.563
166.337
-457.537
197.594
-36.4256
-56.4878
92.9134
218.924
-59.6355
-92.1298
-45.4568
-256.811
130.237
-100.591
277.849
-324.718
499.957
-175.239
261.359
-421.972
393.815
-196.898
104.901
191.157
-296.058
-137.422
72.2185
65.2031
-367.32
488.64
-121.319
307.411
-227.068
554.272
-227.376
-326.896
114.059
104.865
358.82
-116.822
-241.997
-271.825
434.533
-162.709
135.595
-238.008
102.413
-172.019
31.764
140.255
-148.329
-74.3964
141.85
-388.845
246.995
11.2618
-120.496
109.234
454.792
-198.946
-255.846
301.773
-472.235
170.462
-227.705
188.731
89.6597
101.294
103.86
-4.61851
-99.2412
254.075
-117.965
250.335
141.792
323.109
-180.545
-142.564
-327.039
217.551
109.488
-489.756
391.201
98.5554
185.145
-98.4786
-113.445
183.381
-69.9367
-176.178
-73.7472
343.123
-47.8188
120.28
10.2946
-130.575
-117.364
202.664
-125.508
85.2972
-523.975
358.744
165.23
311.774
-140.98
226.755
160.63
160.96
-398.089
-474.613
238.097
236.516
-245.844
159.575
86.2694
112.342
-39.3771
-72.9646
-218.964
-203.15
422.114
100.528
142.435
-242.963
-407.098
282.606
124.493
-272.265
-134.833
-561.169
373.231
187.938
-280.318
104.14
585.816
-299.706
-286.109
-147.692
-177.786
325.479
-133.519
138.796
-5.27695
-166.189
275.144
-108.955
-254.838
155.526
-413.555
316.621
96.9341
101.186
89.482
-190.668
-369.007
195.014
173.993
-111.428
-130.827
143.679
-103.778
-39.9013
276.571
104.926
573.969
-316.412
-257.557
253.319
-519.76
266.441
57.4732
-119.724
62.2512
98.3651
5.49454
-61.3891
147.051
-85.6614
272.971
300.997
73.2494
-174.522
-282.671
153.44
118.492
-43.5788
111.681
152.877
347.269
82.5117
109.763
71.8624
42.5993
-187.932
145.332
365.262
-514.236
148.974
-60.8816
326.095
-265.213
-34.4585
119.365
174.566
379.706
-147.547
358.998
-211.451
59.6919
-160.549
100.857
-340.941
-300.829
-67.5161
-33.5149
101.031
6.96815
-140.487
-108.064
119.326
178.239
-85.4498
180.063
-327.755
-140.622
81.454
59.1677
-351.758
-87.7708
439.529
-338.282
521.849
-183.567
109.156
-370.335
261.179
45.5204
-132.945
87.4241
-105.063
-247.74
282.587
115.859
-398.446
173.61
-113.744
250.904
-141.195
-109.709
549.15
-182.029
-367.121
-367.113
50.8959
316.217
331.677
90.6809
-422.358
-474.705
494.432
-19.7263
-146.115
-78.0867
-91.0056
191.794
142.273
180.836
247.072
-530.026
282.954
376.814
-367.412
457.641
-175.054
552.869
-298.756
-254.113
-223.957
245.848
-21.8916
-51.6879
171.968
-82.1189
-260.234
342.353
56.7748
446.874
-63.6827
-88.0375
139.715
-78.3279
313.358
-156.881
133.183
54.8892
-188.073
166.645
-227.147
-64.5178
-96.9466
161.464
552.665
-552.665
-6.90522
-114.249
281.561
-169.307
-112.253
-306.126
-171.15
-161.766
94.7623
-366.004
-118.933
-67.0742
134.734
208.863
-299.117
177.758
121.359
5.93155
-398.037
128.493
97.8995
-226.392
85.4113
114.789
120.704
-46.3722
-65.3829
-301.73
64.4623
-237.937
173.475
-5.12903
-393.424
-298.44
150.893
-131.929
-184.343
316.272
106.272
246.182
-352.454
-328.36
500.851
-172.49
-84.482
-39.7431
-67.2351
103.464
-36.2286
-101.326
182.707
-81.3815
228.025
169.101
-397.127
312.722
-207.821
406.028
-186.931
-304.339
-199.98
137.738
-270.47
-174.598
80.7286
-412.929
308.101
104.827
84.0148
-435.773
89.6759
144.746
-234.422
-222.35
-152.937
375.287
43.0538
-101.287
119.411
-152.54
-110.62
-223.447
334.067
-301.823
240.941
-97.0125
-55.3797
152.392
-188.157
106.042
82.1157
358.158
-517.155
158.996
317.547
-209.294
-108.253
154.19
285.782
96.1509
75.5935
-171.744
387.243
-160.487
146.879
-514.2
246.957
-182.494
153.948
163.6
-64.6924
-348.236
213.14
-372.327
159.187
407.187
-235.211
-171.976
74.886
-260.538
185.652
-229.042
-10.1255
239.168
58.1474
-151.692
93.5443
84.7935
-162.488
77.6942
193.519
212.509
-47.9822
147.112
-334.188
418.202
135.769
234.121
-369.89
-103.602
309.564
74.9067
103.412
-178.319
41.7738
-314.695
272.921
-140.41
147.378
278.699
-457.901
179.201
-89.5515
222.735
276.992
-455.25
196.572
-108.921
-3.32024
112.242
33.9223
120.427
-154.35
224.999
229.793
-110.76
185.667
339.99
-28.4893
-311.501
-124.02
444.718
-320.698
101.918
290.945
45.1998
227.957
314.358
132.935
-447.293
328.44
-267.71
-60.7303
-32.5009
-129.284
-207.431
76.3256
-80.6543
-30.3014
110.956
12.6561
-93.3104
-309.941
173.257
-75.5275
-170.49
246.017
204.581
112.181
-316.762
-222.593
-47.6285
270.222
-152.76
89.0772
81.28
-182.606
-83.9674
-318.669
402.637
-74.3415
-144.001
517.467
-238.767
-72.2345
69.9402
56.6978
-126.638
-180.913
77.8521
103.061
75.7346
-93.3995
17.6649
105.829
173.204
-279.033
-188.451
107.891
80.5601
-134.363
317.961
-95.7959
-122.329
218.125
-323.576
-206.195
-242.23
129.911
112.32
-229.282
527.005
-297.723
438.292
-296.442
-72.3284
-95.2631
167.591
-77.9175
107.819
-184.482
323.277
-138.795
-119.492
266.371
-146.879
162.925
-65.9156
-97.0098
-250.118
359.275
142.068
-85.4979
-56.5696
-274.209
280.123
-5.91471
-271.938
114.909
197.72
8.44084
-206.161
-194.775
381.628
-186.853
127.725
-62.4619
-65.2628
226.122
-465.039
238.916
-497.835
173.363
165.699
-31.4682
-141.502
1.09266
-190.982
90.7679
100.214
-149.048
362.189
141.278
-81.5857
80.9417
-415.129
-46.8362
-59.5204
106.357
-105.505
-509.24
357.379
151.861
248.425
80.0151
-305.628
-160.825
466.453
-78.4469
298.803
90.2719
-139.306
-56.3551
-133.649
-231.66
-241.153
472.813
-197.674
-242.992
440.665
-279.422
266.306
13.1156
312.652
-250.526
-298.441
-205.738
340.84
-509.802
94.7045
98.2858
-192.99
-383.356
211.813
171.543
157.947
217.018
-79.702
144.418
-64.7156
-330.361
526.17
-195.809
-182.419
131.155
51.2637
-133.618
54.8572
78.7613
56.5411
-123.776
-63.8379
395.515
89.0995
61.4955
-150.595
498.847
-184.489
-128.599
260.814
-318.788
156.64
-287.056
287.056
-144.413
234.089
-548.813
281.547
267.266
-252.318
-89.494
341.812
187.604
-145.005
-113.03
126.543
-13.5131
-243.943
74.4467
123.331
-483.572
46.4715
71.0319
-130.379
-315.552
445.931
-232.482
368.251
-242.998
144.521
501.306
-246.366
-254.94
-191.514
-37.5286
148.539
-327.838
-568.385
398.446
169.939
-284.412
-157.907
-204.064
37.9516
166.113
-39.1911
-115.376
154.567
135.759
118.315
-82.8237
117.935
-35.1109
-2.85844
77.1628
-74.3043
223.235
-222.276
-0.958782
212.907
-337.849
124.942
57.114
-170.559
-72.3968
-155.308
106.037
-200.759
94.722
-393.398
-261.589
327.32
-65.7315
85.3704
42.3544
-8.43326
-134.604
143.038
-150.028
-201.827
155.654
-386.637
230.983
-174.651
102.323
86.2385
50.102
-136.341
40.7932
-137.806
-151.796
231.837
-80.0413
150.182
108.28
-258.462
-152.343
-285.774
438.116
171.129
-421.715
250.586
102.764
-153.371
50.6067
-540.728
308.917
231.811
464.961
-323.4
-141.561
-501.517
176.799
-120.396
113.491
-70.3894
-100.084
301.04
-407.632
-344.518
-130.095
-171.799
-127.318
-380.769
155.948
224.821
-210.071
135.73
-46.3467
307.357
-261.01
-94.2083
-242.16
130.732
169.379
99.3279
-268.707
258.814
-454.486
195.672
194.565
-93.8047
-315.629
106.335
224.775
-95.1498
-327.579
-112.14
439.718
383.546
-227.892
-331.876
336.499
-4.62333
-69.6208
124.4
-54.7796
-380.085
166.914
-312.551
126.458
186.093
134.54
-134.54
-194.882
-256.113
450.996
471.543
-390.602
66.5126
-263.713
4.01238
335.978
336.072
213.079
-236.081
-47.1347
283.215
127.529
6.40499
-133.934
-74.0267
140.874
-66.8471
-179.81
107.589
72.2219
-323.009
-244.946
-157.753
93.2349
116.844
-46.9034
-272.609
-302.283
-146.445
85.056
132.236
209.014
75.5479
33.7531
-109.301
-41.9622
128.504
-86.5422
379.715
173.155
-165.291
-115.027
-336.3
-172.94
-156.04
-101.144
257.183
-69.3674
-272.718
342.086
-340.195
178.104
162.092
-91.7922
-104.399
196.191
337.839
-505.042
167.203
209.193
-354.645
145.451
231.298
-409.93
178.632
-82.5328
-52.102
-238.058
165.662
166.652
-395.088
228.436
-139.438
100.247
-379.082
176.539
-205.03
362.977
-67.9623
135.541
-67.5785
87.6563
-135.175
47.5191
30.2082
-93.5754
-153.949
366.857
483.496
-465.544
-17.9517
-95.9586
141.479
-78.5204
137.42
-58.9
260.917
-455.8
-57.8677
159.686
-101.819
-149.399
289.311
390.875
-507.236
116.361
225.777
74.2327
-300.01
54.8677
-102.854
47.9861
-33.966
109.701
58.8102
36.1805
-94.9907
-39.2209
141.47
-102.249
-10.7996
161.263
-150.463
177.884
-71.8477
386.62
-136.284
-65.6831
267.476
-201.793
-303.718
-48.8916
182.349
-100.374
-81.9746
191.653
-295.86
104.207
-239.915
-147.129
387.044
-79.3362
166.992
-271.919
157.856
114.063
228.732
-349.434
120.702
-324.312
202.574
121.738
252.552
-135.248
-117.304
-130.843
61.8344
69.0082
182.623
-392.546
-103.209
-76.2186
179.428
-46.7642
-134.503
181.268
87.2185
-234.373
147.154
-109.032
200.589
186.999
-98.9861
-88.0129
-61.7269
-107.276
169.002
-41.0514
160.462
-163.895
-117.53
281.425
-304.821
-8.65296
313.474
55.1708
-107.679
52.5085
170.169
96.4604
118.409
106.367
-102.056
105.937
-3.88116
-204.064
-55.6415
446.517
4.15969
110.698
377.501
12.7106
-390.211
386.845
-325.864
-472.763
174.322
48.0767
53.4127
-101.489
-141.884
-32.6751
82.8761
-260.014
177.138
112.819
-374.407
-177.24
-33.6971
259.474
-66.841
264.561
255.044
153.953
-404.378
209.603
-145.474
65.7719
385.629
-161.352
230.109
-96.9905
-133.118
259.093
-328.46
296.003
-179.398
-116.605
192.308
-177.973
-14.3353
113.769
-58.5982
-215.14
-235.629
450.769
-190.28
36.1042
154.176
491.375
-484.472
-6.90322
234.524
-64.7667
-169.757
242.772
244.415
-487.187
261.077
-173.859
-165.394
301.31
-135.916
-159.994
307.567
-135.354
220.74
-85.3864
-189.768
-149.258
64.8698
-147.431
82.5616
102.16
-197.956
352.064
119.479
-254.15
-159.405
-57.0377
-123.876
118.232
-42.6841
-172.604
275.765
-103.161
-64.9097
146.92
119.389
-44.8902
-74.4992
-138.106
76.3788
-581.726
366.327
215.399
61.2806
-128.229
66.9482
-179.102
261.978
-68.1129
133.459
-65.346
73.2538
46.1356
-142.575
363.799
-221.224
-120.262
-97.628
217.89
-57.5458
-40.7919
98.3377
338.204
-145.459
-192.745
235.082
-81.3438
-153.738
-379.789
-311.903
-160.86
-51.0953
-95.4938
146.589
116.9
-304.666
187.767
138.184
-73.3141
-113.712
-6.68365
159.758
-416.887
312.466
-94.9154
-161.259
94.9033
-163.5
80.9665
82.5333
338.881
-129.688
161.229
-129.356
-31.8732
-77.8818
-85.618
55.8344
-121.868
66.0333
93.9764
-164.366
115.372
-64.4282
-104.785
169.213
-88.1793
217.873
-129.694
109.129
-30.1908
-78.9386
-269.351
-35.4696
124.279
89.2837
-88.6255
10.708
-98.3675
205.715
-107.347
-96.2865
101.235
-4.94888
-101.482
-78.2884
-96.3274
174.616
483.449
-385.764
-97.6849
417.384
-116.344
134.314
-100.392
-425.691
463.883
-38.1922
-179.083
305.674
-126.591
-234.257
300.769
99.8378
87.1612
-72.492
-114.422
-93.0605
272.78
-142.632
289.029
-146.397
43.2677
49.4624
-92.7301
-289.684
155.599
134.085
119.074
-61.6005
-76.0441
-69.2699
-216.479
-186.656
403.135
139.188
344.262
-455.691
258.017
240.155
-240.155
-86.1127
88.5157
-2.40304
185.016
-103.244
-81.7719
246.002
-540.004
294.003
183.322
154.882
-252.746
356.511
-103.765
116.038
-54.757
-204.958
130.448
74.5101
156.96
330.238
-487.197
254.566
-118.807
-317.364
160.698
156.665
85.5999
-177.509
91.9091
280.356
153.161
-433.517
-220.835
100.573
88.6011
-155.206
66.6051
139.902
-179.123
-169.678
397.703
-182.373
101.082
81.2911
175.452
-105.874
-69.5781
-92.3226
364.829
-272.506
333.133
-166.488
-41.2902
105.585
-64.295
180.976
176.698
-357.674
-206.853
-248.837
-90.7773
349.591
98.7927
-185.096
86.3035
-205.019
399.452
-194.433
151.71
-66.1103
318.821
-219.479
-99.3415
131.006
-58.0419
-219.985
-150.975
83.0124
-620.248
303.837
132.691
493.626
-501.544
7.91797
205.485
188.962
-394.447
115.53
45.6996
-366.322
-123.434
144.174
-150.527
12.9476
-292.37
-20.2458
-122.685
142.93
160.297
-295.799
135.502
111.056
280.145
-134.423
87.9726
46.4503
49.51
-184.013
47.8825
-86.5205
38.638
263.473
95.3463
263.005
-174.599
-88.4059
139.635
-81.4881
-390.245
272.681
117.564
-260.076
-360.172
184.235
50.2889
144.004
-454.729
310.726
-58.6598
-81.5621
140.222
34.8872
-126.856
91.9685
291.791
209.516
-2.20265
379.703
-79.589
-60.0243
423.646
-143.29
69.6414
-122.283
52.6415
-463.365
259.671
203.694
-201.823
-245.236
447.059
-366.485
566.483
-199.999
280.986
146.846
-173.804
249.919
-76.1148
-157.21
257.737
352.031
-277.121
-74.9097
-180.216
291.004
-110.787
-185.985
-152.746
-93.3402
-185.764
279.105
75.4844
39.4722
-114.957
181.096
-79.9101
440.416
-378.78
-61.6365
-176.037
106.69
69.3465
82.4986
265.912
-348.411
122.307
-36.0682
347.528
92.8878
-62.9064
151.508
-101.706
-32.7172
-225.967
514.174
-288.207
4.84018
191.622
-196.462
220.722
-387.966
167.244
-82.2383
-41.8442
124.082
289.369
97.2511
-85.2802
-22.6004
107.881
-143.606
129.8
13.8058
-179.455
118.534
60.9209
182.838
384.29
100.71
-41.8998
-267.838
-122.407
228.626
-443.766
413.731
-509.86
96.1291
60.0465
223.275
-31.8271
-191.448
119.652
-63.8177
80.8986
-408.477
-77.8477
-88.9982
166.846
103.151
-10.2478
-92.9036
-115.983
32.4315
122.326
132.257
153.918
-328.554
174.636
-92.7516
163.18
-70.4285
152.361
-357.38
351.294
-234.395
341.904
-82.8113
-358.415
-199.283
-288.075
467.891
-179.816
429.266
-324.299
-104.966
-9.08633
-339.118
348.205
-335.933
-176.514
512.447
-164.661
-7.35775
81.4081
-33.5256
-502.967
261.628
241.339
-177.891
-88.3074
-80.0674
-50.7752
-48.2346
150.999
-91.494
166.349
-554.66
382.762
171.898
98.1196
-162.548
-24.4296
91.466
-67.0364
181.561
-146.385
192.002
-314.694
122.692
322.543
-255.556
-66.9874
87.412
-397.449
310.037
216.276
-97.8676
114.473
255.551
-93.4506
-94.7067
109.607
-54.7397
474.875
-299.178
-175.697
-267.318
364.02
-96.7027
-118.867
192.19
282.685
-417.829
31.8669
385.962
-285.836
-186.311
137.887
-213.956
76.0693
-132.333
-74.8918
207.225
107.592
211.071
-318.664
43.1642
-264.92
-238.046
-83.3644
-37.4709
120.835
-204.561
326.229
-121.668
480.104
-174.185
408.683
-62.6889
-293.031
167.738
95.5562
7.59516
-270.567
-35.1589
305.726
57.0587
-373.631
-408.896
137.071
130.556
-17.0112
-113.545
173.805
-269.769
95.9644
-109.081
259.263
-458.717
334.697
-79.043
-72.6487
497.247
-149.718
-240.575
406.769
-166.193
216.569
-338.733
122.165
470.008
-111.849
46.3502
75.5321
-309.399
135.595
346.536
-191.583
-154.953
-174.151
296.145
-121.994
132.792
347.312
165.211
-268.359
103.147
389.856
-107.251
360.547
129.529
-490.077
329.215
-226.199
-103.017
473.481
-502.405
28.9237
124.699
-89.5708
-35.1281
342.556
-236.284
-9.7323
-99.1891
-80.3873
-182.645
263.032
37.2666
-113.28
76.0133
-141.76
65.716
-307.192
474.402
-167.21
-87.2664
-53.3553
-194.612
199.453
108.599
38.0763
-115.384
77.308
288.904
2.6864
-291.59
-146.424
91.2054
55.2189
-100.81
454.134
177.002
119
-143.695
303.992
-236.838
158.098
335.145
51.6999
-159.797
-157.566
16.556
227.025
-247.141
81.8498
-141.435
241.366
-99.9309
60.6191
-127.693
409.515
-204.03
-369.954
376.526
-6.57157
-133.468
494.015
68.3215
-140.176
71.855
125.112
-68.5855
-142.189
210.774
-151.605
187.368
-71.8381
88.7132
13.115
-101.828
67.2895
-121.447
54.1571
-249.129
152.75
-99.9989
-68.8481
168.847
-267.757
-294.085
127.832
166.253
119.372
-84.4852
49.5545
-113.009
63.455
51.811
-184.144
139.602
133.987
-104.377
258.339
-153.962
-142.5
89.7837
52.7161
-76.6898
193.7
-117.011
-375.37
212.94
-180.034
361.01
152.722
-271.695
118.973
240.711
171.734
-412.444
-56.809
-32.1331
88.9421
331.46
97.8059
329.139
-147.529
-181.61
-157.617
406.188
-248.571
164.893
-70.9645
325.723
-254.759
327.681
121.679
-449.36
474.56
325.339
142.726
-468.065
249.312
-456.165
191.873
-30.2008
-161.672
-338.227
184.981
153.246
-115.491
15.2714
100.22
93.1405
18.017
-111.158
-67.4903
-69.9313
13.3479
-383.302
-356.376
213.801
61.1887
193.071
-254.26
-377.99
307.025
222.64
123.077
-345.717
-60.4666
107.928
-47.4617
-101.078
-145.148
246.225
568.605
-257.456
63.3486
136.226
-135.931
-279.095
415.026
-121.936
171.446
-222.704
383.107
-160.404
-353.945
41.6823
312.262
-177.957
-279.173
457.129
-57.2367
-76.3818
-564.253
366.721
197.531
301.002
-182.743
-118.259
-123.821
346.462
-168.72
68.7213
111.711
-189.559
142.112
87.9972
-163.172
-490.526
250.996
239.531
-162.806
84.9243
-266.68
97.3722
-290.348
-291.377
-58.1585
-243.664
95.5567
-332.125
236.569
-203.621
-175.166
67.4365
107.73
-243.481
-72.1488
-113.277
-40.6726
153.95
-52.064
-45.0654
97.1294
-313.689
221.367
10.3114
-83.828
73.5166
158.321
-190.148
153.49
-365.439
211.949
6.25809
-276.825
-191.847
316.61
-124.764
-235.399
248.346
106.252
-133.113
-89.595
222.708
398.704
-407.791
108.459
-65.1916
285.379
189.587
-474.967
-78.6666
-84.1394
-78.3363
272.844
364.869
-367.072
96.8199
-3.67933
409.514
-125.205
-284.31
105.448
161.185
-266.633
142.58
-39.4867
-125.587
165.074
268.276
-122.603
-145.673
347.837
42.019
118.762
-81.4957
-501.731
173.37
68.0243
-136.137
-133.048
70.8676
62.1806
-50.6091
159.113
-108.504
-140.724
-78.1905
218.915
31.8351
-96.7878
64.9527
-125.89
43.6518
174.541
-187.032
12.4908
227.298
-280.383
53.0846
-219.066
78.3417
-88.351
-78.2943
-58.1084
-60.1801
118.288
142.567
184.042
197.585
-225.591
179.244
167.981
-123.88
-44.1009
-373.213
265.601
107.612
228.495
-83.7494
336.216
161.031
335.172
102.864
-438.036
-130.342
-130.581
-537.845
251.049
286.795
220.084
-301.797
81.7124
143.257
119.748
-95.6018
54.3116
-33.6885
95.9218
-62.2332
-268.836
-217.893
486.729
-419.624
440.858
-21.2334
-266.91
106.66
-129.565
-454.971
-21.555
476.525
209.27
241.659
-450.929
-123.808
-188.743
-147.082
-142.603
109.345
-20.6315
-337.193
135.37
-30.8981
166.493
-124.188
-271.731
169.5
102.231
84.0067
68.4266
-130.29
-145.001
275.292
126.386
-88.3097
416.368
-294.537
-121.831
-131.981
348.55
-213.737
-39.0918
457.153
24.1273
-114.622
-76.1489
190.771
454.654
-0.196918
-454.457
-88.851
320.014
-231.163
117.931
82.2135
-200.145
-373.502
220.545
152.956
-131.183
-109.531
-162.2
142.934
-74.6122
-107.498
290.081
-182.582
140.042
139.324
-279.366
-151.013
-53.9454
-246.371
-175.943
422.313
116.055
476.439
-332.699
-143.74
-154.185
149.876
-93.8698
-56.0058
37.2832
-93.7711
204.735
-271.576
294.447
-352.606
-402.663
343.744
193.73
-317.539
231.054
180.975
435.185
-203.888
-226.987
161.304
95.8176
82.4215
-94.3196
107.153
-157.762
-271.19
289.319
-18.1287
-276.877
-21.563
76.6556
-142.268
65.6127
115.429
286.437
-158.605
246.019
-134.834
-111.184
-70.8894
131.509
-269.416
120.861
-189.447
311.323
-62.4742
-248.849
-257.847
467.117
484.768
-148.553
-370.148
267.275
102.873
-22.283
476.936
-218.852
411.008
-86.0418
-203.307
289.349
104.729
-263.425
158.696
12.5897
289.254
-334.61
-247.386
581.995
147.184
-347.977
200.793
-292.785
392.821
-100.036
-121.875
447.214
352.524
-126.413
177.094
-89.5694
369.587
-280.018
-82.4872
-63.9371
-235.566
151.764
83.8014
177.422
148.807
55.6606
-59.6741
-279.855
339.529
-386.128
-78.9874
-130.916
-198.222
-337.845
230.347
-412.898
412.898
156.963
-334.964
178
181.019
-339.823
158.804
231.96
79.3624
53.5501
41.3089
-94.8589
218.494
-371.431
287.709
-465.665
242.204
-39.8839
145.999
158.123
72.7721
198.009
-270.781
124.284
-84.528
-39.7557
-71.8556
-293.475
365.33
107.796
-179.016
71.2202
-62.4855
173.988
-111.502
331.935
4.35085
-79.3877
80.4507
-276.379
321.669
-45.2901
45.3828
146.49
95.2323
17.1719
-112.404
-313.672