/*--------------------------------*- C++ -*----------------------------------*\
  =========                 |
  \\      /  F ield         | OpenFOAM: The Open Source CFD Toolbox
   \\    /   O peration     | Website:  https://openfoam.org
    \\  /    A nd           | Version:  7
     \\/     M anipulation  |
\*---------------------------------------------------------------------------*/
FoamFile
{
    version     2.0;
    format      ascii;
    class       surfaceScalarField;
    location    "31.5";
    object      phi;
}
// * * * * * * * * * * * * * * * * * * * * * * * * * * * * * * * * * * * * * //

dimensions      [0 3 -1 0 0 0 0];

internalField   nonuniform List<scalar> 
11512
(
141.547
-508.129
366.582
-774.606
3.63229
770.974
420.361
-372.264
-48.0969
654.161
257.012
-911.172
1510.31
-1069.4
-440.913
1216.26
-1527.1
310.842
-39.4339
470.576
-431.142
169.19
-840.697
671.507
961.944
-1610.73
648.782
-1769.9
1678.03
91.8777
-542.947
1759.21
-1142.26
1936
-793.739
605.271
181.397
-786.668
-25.6672
-1321.67
1347.33
223.131
-1993.03
1022.25
-386.273
-635.974
-191.628
333.175
482.503
190.645
-673.148
1154.42
-1315.82
161.402
-330.403
379.335
-48.9315
1012.26
-1326.36
314.099
1221.72
800.169
-2021.89
75.0569
-1649.5
1574.45
-493.929
-1158.16
1652.09
472.528
181.988
-654.516
-184.7
-323.429
497.534
1012.78
1656.99
-1816.02
159.032
-97.5523
-1688.46
1786.02
-1560.97
657.322
903.646
-312.278
652.64
-340.362
-192.384
-127.525
319.909
1292.26
-1217.2
355.354
-1407.21
1051.86
-1754.24
1754.24
100.1
1541.45
-1641.55
-1084.74
-476.227
647.413
-686.847
-388.233
942.165
-553.932
1331.73
-1317.14
-14.5911
-1100.39
712.16
622.095
400.152
-413.404
-17.5453
430.95
-459.381
800.971
-341.59
-1618.35
1618.35
1253.53
-1437.84
184.308
-489.27
1710.99
1252.95
-310.78
1660.71
-1161.2
-499.504
59.1246
-389.528
2067.7
-1136.95
-930.75
1823.88
-166.887
450.439
156.122
-606.561
-472.483
980.053
-507.571
-1178.18
1278.28
-566.391
969.298
-402.907
396.905
757.514
660.36
-491.17
-438.37
588.985
-150.615
1190.54
-835.19
2308.24
-1080.7
-1227.53
1164.77
-2011.79
847.03
-1611.56
1585.9
440.504
-1582.77
-758.719
1250.27
-491.553
-670.918
358.64
1661.42
-699.473
-1106.93
-870.902
1977.83
698.306
-385.197
-313.109
690.753
562.193
-258.217
1511.75
97.6122
-310.098
212.486
-284.729
757.257
-332.881
559.201
-226.32
-324.377
806.879
-320.384
-139.014
459.398
319.593
100.768
1470.83
-458.568
-999.471
496.215
503.256
262.776
99.0729
-361.848
946.668
-341.397
-1704.24
633.479
1070.76
21.0788
-865.541
844.462
-274.876
588.887
-314.011
158.599
-1093.91
935.315
1050.56
-1066.2
15.6369
373.149
516.706
-889.855
-245.307
695.746
-1102.87
-482.705
1585.57
-676.707
949.386
-272.679
1352.93
-1450.48
-656.591
291.333
365.258
-470.209
-1011.47
1481.68
-536.06
-797.351
1333.41
575.057
-994.976
419.919
-261.5
-313.982
575.482
400.677
-303.065
-1047.09
574.608
955.603
-797.003
-110.409
943.622
-833.213
-200.461
408.157
-207.696
-636.62
-362.851
-386.738
961.795
1856.35
-1856.35
-480.182
-176.409
-946.861
1568.28
-621.424
465.91
-901.922
436.012
-921.951
355.56
-941.903
-1058.08
-1500.24
343.059
1157.18
-269.63
923.79
-333.765
630.476
-296.71
-1941.89
999.992
-1150.29
-349.956
566.887
-1513.75
1728.5
-1726.03
-2.47374
200.613
-617.293
416.681
-1470.62
975.991
494.63
276.089
223.68
-499.769
304.437
-637.318
232.463
-406.058
173.595
2017.66
-869.931
-1147.73
-555.839
142.435
614.689
840.966
-1455.65
-182.841
415.304
431.796
875.935
-1307.73
-902.885
387.688
515.197
-1051.33
1448.23
-1068.27
309.549
746.3
-93.6603
571.671
-294.034
-277.637
1024.61
-528.399
593.471
-1403.61
810.142
-1342.05
239.184
-539.893
265.017
-1190.88
921.247
1944.54
-988.201
-956.344
276.797
1579.56
-2099.89
898.66
1201.23
352.846
-34.1188
-318.727
-222.776
477.729
-254.953
-93.935
-393.143
487.077
-459.001
138.617
336.425
-131.777
597.687
431.357
376.15
-807.507
-2043.21
1125.86
917.358
462.023
-525.13
63.1069
216.565
-356.918
140.353
1004.21
1013.45
1795
-253.551
749.493
-458.16
795.354
-1388.85
593.492
363.058
335.249
1063.41
-1042.33
-489.381
-252.979
742.36
467.442
-126.653
-340.789
795.056
-613.658
548.316
-734.871
186.555
503.332
1157.37
-1240.41
704.345
1033.88
-1527.81
-3.11539
-1439.42
1442.54
327.77
822.362
-1150.13
621.838
269.904
-891.742
-2270.57
1152.86
1117.71
-1101.62
-1168.95
178.959
369.358
959.161
-631.391
877.992
-897.8
19.8083
-2099.39
992.461
-216.85
-185.762
402.612
-42.0947
1770.6
-842.964
68.3575
-1031.98
-1067.91
-227.45
444.015
-693.434
213.252
-286.211
-425.924
712.134
1103.94
-1574.15
782.514
-1374.17
591.657
698.309
-441.297
1947.82
-1444.49
-378.281
-1375.96
63.7829
406.793
-537.842
541.474
29.8483
-588.445
558.597
568.612
-292.524
-598.229
274.636
323.592
787.988
-356.63
35.1108
317.735
1188.47
-1191.59
163.356
237.32
396.34
-682.55
618.265
-1005
-2026.78
2026.78
-270.649
-446.59
717.239
698.728
405.839
-1104.57
579.945
166.355
417.523
370.465
-2199.77
1328.86
-925.725
-680.442
1606.17
-477.665
-713.212
-252.357
557.231
-304.874
837.193
-215.573
-621.62
-460.396
661.009
363.177
-696.942
-379.481
-131.761
511.242
-1337.86
-478.164
647.968
-1125.63
-374.136
-1244.21
844.359
1463.88
304.621
-916.18
611.56
966.238
-344.143
1391.17
-797.697
440.131
-276.775
-322.94
-880.304
582.742
297.562
-347.812
-532.492
318.39
-412.325
-189.581
-158.935
348.515
-392.82
1091.55
433.51
-242.865
-383.302
1363.87
-172.513
-1191.35
-482.383
303.583
178.8
223.379
270.052
-493.43
-0.906135
-733.965
592.196
-1729.09
1136.89
1486.08
-871.394
-1048.95
-421.675
-1055.73
574.61
481.116
1391.57
-415.583
928.488
-1411.19
-174.111
-184.418
358.53
-467.548
578.168
-1629.49
427.854
903.874
297.902
299.007
-596.909
568.033
1186.21
1102.5
-709.634
-392.864
392.151
-204.351
-187.8
-1419.42
446.834
736.538
-1183.37
1473.21
-544.721
-486.482
941.19
-454.707
426.163
1186.14
-1612.3
47.4271
-724.134
-153.455
416.231
196.01
-388.394
540.245
484.369
-595.767
40.6744
555.093
1024.51
-1307.64
283.131
671.708
-254.185
468.416
-1447.2
978.782
394.435
1688.91
-524.147
894.193
1050.35
-658.5
-1684.9
759.177
563.696
410.507
-974.204
457.139
79.0775
1750.18
-1829.25
1443.61
-379.491
-1064.12
1699.22
-1741.32
-364.974
-540.104
729.446
-189.342
-502.59
172.764
294.678
-373.138
-1225.92
214.445
-764.742
-638.871
-630.604
996.324
-365.721
-651.039
640.85
10.1886
654.769
-923.365
268.596
-709.786
351.057
358.729
-647.08
-700.326
347.395
352.931
-932.1
1400.52
-425.299
892.733
-467.434
-2205.32
5.55642
169.489
-530.405
360.916
144.02
1219.85
-105.302
-588.133
152.53
-590.9
1486.96
-704.446
391.393
-465.861
74.4676
-560.865
560.865
1222.95
395.391
1778.3
-1227.84
590.124
637.713
846.638
-51.5826
1292.62
775.089
-541.058
1336.41
293.791
295.095
268.191
-808.295
247.982
-707.363
225.223
-437.044
211.821
-253.259
588.489
-335.23
114.282
-367.541
-591.161
-564.698
1155.86
-378.367
555.528
-177.161
-1192.15
2032.03
-839.883
1288.18
-329.023
-396.522
135.022
-1982.65
824.491
1546.67
-851.288
-695.382
1987.04
-877.49
-1109.55
714.452
573.732
-239.821
465.044
-674.526
1156.27
-481.74
-769.178
1200.97
551.958
924.542
-1725.89
801.344
-553.493
-82.6355
636.128
310.225
261.445
412.273
-89.3574
-322.915
896.283
-83.5649
-812.718
935.654
-576.431
-359.223
1576.14
-472.202
894.571
-1630.13
735.56
1068.44
879.378
746.723
-435.743
-310.98
-1058.83
-258.31
572.009
574.828
-1146.84
-469.496
526.128
-56.6325
572.703
-335.419
-237.284
-989.196
563.897
594.165
891.917
-441.76
1096.53
1425.55
-788.196
-637.353
389.252
-922.801
533.549
-1044.63
408.01
570.771
-1057.25
476.074
-552.154
76.0805
487.825
313.146
-512.036
-48.8292
-793.863
-881.649
1675.51
181.781
210.369
-235.603
414.561
-28.7543
-571.52
600.274
500.42
871.803
-1372.22
-503.075
313.494
985.124
-88.8419
835.336
-1064.22
228.882
407.903
844.963
-1386.02
-461.332
837.482
1982.15
-1287.98
-694.167
269.498
608.494
255.484
795.076
96.329
-980.065
883.736
1673.71
-1088.92
-584.788
-138.06
1888.24
-1866.13
-160.644
482.403
-620.553
138.15
-1011.5
528.283
483.214
-1730.46
538.316
-955.423
845.014
392.975
196.01
578.484
-273.863
-417.187
707.32
258.917
49.773
721.101
-770.874
-1130.07
-898.378
2028.45
-544.838
1120.8
-575.959
-483.669
-322.658
105.807
-1657.81
863.944
-847.076
-616.986
1464.06
-329.045
-294.395
623.44
352.676
-658.454
305.778
256.773
-613.403
339.032
196.822
-535.855
365.202
-617.559
629.297
-276.621
315.53
-454.544
681.129
417.629
-194.25
-405.532
-294.794
1227.88
-2.22815
-1225.65
1038.54
-420.28
558.413
410.886
-1782.3
869.806
912.494
488.445
560.824
-1049.27
-532.083
203.038
-264.595
1182.11
-917.51
-1590.81
1212.53
504.599
-1095.76
386.338
5.05543
432.138
316.06
-748.198
367.569
-612.875
-38.2091
759.842
-721.633
-524.805
794.709
397.812
320.694
525.945
650.881
103.778
-419.098
315.321
1058.05
-644.542
-413.504
494.05
-1664.27
1170.22
-1140.28
1753.22
-612.939
1715.88
-1123.69
-333.842
608.478
-1183.17
1279.5
424.581
-800.641
1614.15
-813.508
-279.638
-202.746
-902.42
1472.74
1816.44
-610.643
-1205.8
-405.245
674.344
-1304.95
-124.645
-58.7231
470.996
-690.282
-354.183
-1236.63
-214.422
471.195
902.322
-561.35
168.208
-1674.89
-71.3235
1746.21
-1082.23
537.391
565.377
-1186.82
621.443
901.078
915.36
630.435
619.836
702.071
239.119
-1149.77
475.248
-396.413
426.262
614.553
-513.384
235.348
-731.212
495.863
710.595
-347.537
-310.883
183.358
-618.881
252.414
366.467
-886.068
-744.064
1087.67
-2145.74
395.302
-680.031
-342.788
-723.409
837.755
587.794
-341.802
324.257
379.119
238.493
634.736
-873.229
526.174
630.091
-555.194
175.712
358.048
-628.697
-1043.66
-852.267
1895.92
-1807.01
157.51
1106.63
-1371.23
1167.03
-713.833
-453.193
-504.608
1349.57
-1495.43
627.932
867.497
-283.858
-209.087
492.944
1428.44
558.602
360.922
-492.683
-479.429
-574.671
1054.1
-426.404
595.893
1583.34
-1131.13
-452.214
-791.294
344.704
654.456
403.591
-1623.42
416.189
1207.23
-183.725
522.758
797.565
785.778
205.275
-703.516
498.24
197.97
210.187
-276.3
-110.46
386.76
504.545
-4.79915
-499.746
-1647.66
598.718
-1611.95
1681.87
-69.9225
13.6889
-1625.64
1069.48
782.045
-349.907
-822.155
-222.476
-1134.57
-239.597
-312.11
679.679
-1812.95
-638.666
1213.49
221.409
758.645
-1332.93
-678.869
-466.118
628.8
-330.898
-1013.26
1350.81
-1933.03
582.223
647.419
1288.58
479.979
-2.25004
718.283
712.754
-1431.04
-635.779
327.506
308.273
435
-100.749
-334.252
141.001
323.224
152.148
-475.372
-596.741
1160.44
453.814
-646.656
-459.571
-401.86
861.431
-327.467
153.356
-455.356
152.291
-301.075
-710.422
540.302
-105.302
-578.082
967.334
572.472
-267.408
-305.063
452.41
-776.787
-649.866
459.07
-1129.37
-846.511
1189.57
-569.771
446.711
295.649
-466.701
81.5032
1027.07
-313.641
588.972
-275.331
-509.039
1578.51
-700.025
255.008
367.727
-622.735
228.552
500.437
-34.3246
-466.112
-266.291
-189.065
1011.8
1108.83
564.88
-888.684
953.731
-65.0471
-451.335
167.478
-748.139
322.216
-596.674
327.386
383.209
843.72
-1249.6
405.878
775.866
-814.076
-948.827
-550.395
1499.22
-176.858
475.865
-563.692
269.658
1307.82
793.759
-588.483
1327.88
-679.909
487.097
-663.927
-403.445
-420.644
-378.507
799.151
500.052
-841.449
-471.851
101.641
370.211
-310.419
572.493
725.441
-330.138
-229.884
-175.136
405.02
-492.306
129.887
362.419
1462.2
82.9822
-1545.18
-755.778
1349.94
-1144.78
-465.946
549.533
-181.807
1153.57
-377.699
1083.42
492.722
704.73
-436.539
-884.717
-522.494
-1328.32
-20.4657
985.853
-965.387
595.635
347.741
-943.377
-350.622
-205.217
-684.192
405.543
1621.23
-195.659
384.879
340.582
-725.461
-1839.75
-2106.7
1519.15
587.553
-2037.8
349.332
380.427
533.425
-913.852
-460.572
1018.98
-412.338
-670.391
1082.73
-2030.56
1391.21
639.347
596.381
-1008.72
42.8906
433.183
386.236
185.802
254.329
323.578
976.807
881.167
675.763
-321.082
-354.681
-288.173
616.226
-328.052
569.465
533.032
564.407
514.534
-1078.94
-796.056
-699.372
750.938
402.628
-409.202
714.98
-1193.38
1609.57
437.21
-1107.6
-353.334
550.156
-1384.91
888.842
496.068
-712.564
-340.345
-777.17
341.228
435.941
447.353
717.405
-1164.76
1078.59
-590.143
-424.263
674.819
-250.556
250.601
321.871
-465.839
-432.385
898.224
-228.524
571.166
-968.218
397.052
-462.401
600.598
-1681.3
424
670.072
-1094.07
523.882
106.594
113.412
-2212.8
549.322
-102.611
1444.98
1777.1
-217.548
-1559.55
-438.547
1789.36
-1987.29
1194.6
792.693
396.323
350.4
-43.3399
881.095
-1282.69
717.991
-867.699
-822.085
801.619
298.286
78.4189
-376.705
221.886
174.415
-396.302
1562.91
-844.626
-1530.92
-325.432
513.21
-228.655
-284.555
391.317
365.94
263.74
365.06
-11.3427
1003.52
-992.178
379.803
295.568
-675.371
-734.181
1817.43
-1083.25
-342.714
734.031
-1226.7
-414.849
-913.442
481.057
591.207
-792.175
200.968
758.198
-376.6
-381.599
-437.337
-451.348
451.326
1096.95
1241.91
-676.537
798.313
-345.904
382.938
334.301
-234.947
-230.914
-224.27
618.705
408.261
-844.99
436.728
234.736
351.555
-586.291
-419.806
828.068
754.018
-1146.84
896.138
-52.4176
-486.267
281.392
782.014
-96.6224
1385.21
1890.51
-47.9383
351.522
-319.141
422.918
-1088.38
1077.03
643.544
376.56
381.638
85.5368
427.674
261.391
509.583
-377.812
-257.967
-561.344
-89.6954
-371.323
363.103
8.21971
-257.592
-282.302
1010.76
-1540.68
529.917
-182.523
-189.741
-388.707
684.275
-1647.15
1590.93
-963.001
277.967
-681.412
584.335
1224.41
-1808.74
607.443
983.49
323.427
-1127.65
710.467
-287.165
-309.744
1386.91
-1454.93
836.615
618.312
440.531
-646.512
205.982
-395.232
491.368
-96.1362
386.286
118.259
1724.71
449.615
-251.645
557.667
-1704.79
1147.13
-98.8884
395.549
343.145
332.618
-448.756
-614.447
1063.2
411.471
-872.803
-640.217
902.274
570.934
-479.783
-230.003
-435.533
-409.457
-307.672
-826.903
1821.09
-1821.09
-101.348
-1599.22
1700.57
297.842
274.861
-916.844
-555.631
1472.48
-408.175
972.582
-609.385
-1038.28
696.347
401.597
-1097.94
468.772
-153.242
573.075
1220.34
-1793.41
-1041.04
2114.18
-1073.14
-379.792
-291.126
-488.326
833.03
-1759.85
1607.48
152.373
1759.85
-1613.8
-146.052
-239.043
517.512
-278.469
-537.312
1620.73
1574.86
-1989.71
1104.36
-294.685
-271.193
565.879
228.841
-582.174
-712.483
303.28
1343.59
638.563
587.352
478.513
-1065.87
270.368
434.362
875.208
500.112
-1375.32
541.007
-1020.44
1574.94
-564.179
-774.35
-362.465
-139.07
501.534
-490.353
1207.76
-742.173
329.286
366.459
386.366
246.251
-632.618
615.207
831.564
-602.682
262.372
691.359
-479.783
-331.568
-244.877
576.446
1168.43
-680.633
606.499
469.192
-1075.69
-1288.68
1288.68
-382.726
759.286
-275.423
-485.416
760.839
502.421
440.671
-943.092
396.818
-672.241
604.702
-870.993
266.291
-367.647
-489.083
1076.43
-659.11
-713.8
1372.91
-380.52
951.686
-1552.78
675.289
35.9044
-434.915
399.01
-523.611
736.863
270.133
318.357
161.492
307.28
-535.645
248.48
1870.6
-1967.22
263.716
-724.112
462.221
-826.516
364.295
-907.585
1425.59
-518.002
-430.34
-483.102
600.881
1124.16
-1725.04
-713.872
334.08
-464.1
1033.56
-795.111
1057.48
-372.301
-622.015
-503.203
751.185
537.359
-355.371
913.893
-320.225
-172.081
1599.03
-1816.58
-350.989
-617.229
-351.031
480.918
279.032
-609.93
-178.35
1073.64
-792.245
199.534
-305.266
-272.912
578.178
391.826
-891.578
499.753
-478.864
-466.925
-916.18
-364.642
602.217
-237.575
-463.363
-445.119
-355.702
-180.153
-409.532
655.783
-446.781
781.082
-1071.69
622.939
-1406.11
559.037
-28.8177
-1840.26
1869.08
570.116
-450.706
1236.98
-699.586
295.055
-295.055
674.301
-455.093
1037.96
-1647.35
-1158.74
-947.965
287.267
328.959
896.62
717.529
-510.469
-305.911
816.38
1661.87
-1690.69
-433.243
336.002
232.61
1134.89
-528.394
-943.341
1550.5
-607.155
441.59
-255.788
371.989
404.645
-776.634
544.756
467.738
-1012.49
-331.277
660.564
-38.1619
1908.76
1604.85
992.372
-1696.82
726.488
-1176.59
450.098
-492.511
1367.72
836.464
-1341.07
-578.525
283.84
811.631
-401.124
547.837
-1193.88
646.046
-633.192
-1215.52
-695.704
1911.23
-191.553
567.401
-375.848
-184.573
327.886
-519.439
337.469
362.937
-700.406
-1491.26
756.947
734.309
883.962
-1434.36
821.615
-433.927
204.821
-358.276
-611.225
279.657
-662.489
-722.421
697.096
507.605
-1204.7
382.136
-206.143
-175.994
553.936
-956.844
-582.378
-427.61
749.825
-831.35
-1155.94
-1437.94
499.742
938.198
4.01397
-656.867
356.08
300.787
-1325.3
1050.07
275.228
-615.192
-456.502
-665.51
920.993
396.915
-190.22
-206.695
508.419
980.413
-1488.83
985.427
-559.37
165.206
394.165
-420.186
689.64
-425.925
-509.772
158.74
234.122
-1522.11
525.542
553.046
-779.147
255.536
139.376
-459.601
361.903
-828.829
1954.16
-1195.38
-758.777
428.659
-696.656
267.997
320.529
343.87
104.919
-448.789
-581.532
186.143
263.472
-691.82
1374.17
-682.351
424.098
481.931
-1194.49
259.92
1866.77
-1013.59
-853.18
784.031
-552.927
188.285
1402.3
-975.103
-427.2
326.7
-781.793
-616.593
1725.42
607.598
634.316
330.331
-32.0452
265.377
-1138.34
1725.72
-587.381
-1763.55
820.208
1766.58
-1695.39
-71.1924
-669.905
273.492
582.131
-736.868
233.665
1402.57
-566.102
381.431
456.051
-1858.77
1420.23
574.487
-447.376
-127.111
199.603
-555.305
-289.1
-194.569
-348.401
691.547
-593.936
231.471
621.295
547.919
-1169.21
1113.47
-1947.66
834.194
156.668
354.575
-1700.36
1662.2
308.059
-744.598
-173.184
378.005
763.222
679.178
-1442.4
1085.15
-1087.38
523.271
-1113.41
-624.807
246.82
377.987
544.901
-292.486
-620.272
-1027.08
288.1
-733.219
-912.322
172.169
153.237
228.899
409.365
287.179
-696.544
-638.982
-834.384
-978.563
487.618
-1069.15
-317.541
496.34
534.417
655.153
-276.526
-119.996
-413.427
736.854
265.288
-1204.65
565.668
1315.29
-552.072
442.457
-1024.83
-381.828
163.817
410.67
1023.13
551.808
-1720.84
1619.49
1640.29
-582.495
-1057.8
1906.65
-1895.99
-10.6618
224.806
-543.946
-365.984
565.518
-775.349
-334.54
-335.365
1020.02
708.618
-1517.09
808.477
319.49
-26.1834
1625.22
-1102.5
421.866
-1254.24
479.89
-61.5483
1523.75
1196.98
-470.495
-485.908
-73.4628
-278.704
736.077
-1951.6
-706.738
365.493
-536.141
170.648
190.334
-503.975
1139.95
671.62
-1811.57
-634.916
187.539
941.632
-1497.26
-210.535
678.752
-468.217
874.68
1125.32
-745.552
1353.15
631.183
-497.657
-133.525
-342.085
1178.7
1049.41
-1979.91
930.495
-1179.46
540.797
1488.71
-586.434
-402.769
-152.424
-1246.72
570.18
1164.58
-93.8202
946.265
776.024
-1722.29
-195.857
578.824
-1541.72
962.891
487.026
916.401
-1403.43
629.986
583.507
410.453
-1106.6
589.268
1113.84
1215.16
-452.116
-763.049
-1186.2
-1754.93
-5.18767
-1715.65
-206.45
-440.063
1611.92
-634.67
-977.246
-490.814
1121.25
-1322.3
633.934
688.371
-1365.09
1448.07
-1335.29
589.735
1520.46
-394.623
-593.796
191.027
-1490.08
223.765
176.387
243.276
387.906
439.766
411.519
-851.285
506.452
-938.778
900.069
-1444.79
-718.67
238.949
479.721
-1054.95
458.212
-487.622
869.054
697.569
15.0152
-544.691
168.842
-886.569
-1318.75
-711.521
345.551
365.971
397.061
-721.744
324.683
-473.049
-189.363
-708.437
725.848
1540.14
-593.876
824.088
738.821
1344.61
-844.498
-970.887
-570.829
-793.402
429.008
364.394
-1035.47
-637.786
299.145
338.64
-1433.68
-296.777
-787.548
394.585
392.963
-668.693
419.071
249.621
-694.371
268.446
412.876
485.348
389.906
438.161
476.979
384.452
595.233
-968.371
695.207
465.231
451.783
356.007
-807.79
1630.72
-1079.82
-550.907
-504.89
-291.701
-1033.6
451.543
347.608
409.77
592.653
-1002.42
-1385.06
750.386
-528.609
1150.05
368.029
-44.8048
412.588
-863.043
450.456
-1899.05
299.832
439.06
-723.649
284.589
-193.034
399.495
-206.461
-659.859
299.512
360.347
-669.837
315.156
370.812
388.474
611.736
-1019.91
751.755
664.733
-1416.49
438.872
624.33
337.413
391.864
-729.277
405.974
328.057
600.989
677.007
419.939
606.243
-1037.4
431.159
-1675.38
1182.58
492.802
1696.56
-539.184
618.407
-1146.97
528.56
-639.485
345.09
437.707
-933.299
495.592
770.956
-454.896
350.779
340.767
581.992
-932.981
653.867
-1252.55
598.686
392.841
733.833
-1224.19
768.619
510.025
-1278.64
497.719
405.383
-903.102
-501.804
-936.135
-293.87
631.339
352.494
540.48
-892.974
329.251
331.312
-502.193
1944.73
435.673
-845.44
409.766
-917.581
-808.304
-745.128
363.529
-1235.24
440.132
-1743.41
1613.8
129.608
1752.23
-1607.48
-144.759
-781.437
-586.925
260.005
326.92
-1766.58
1989.71
539.112
790.594
-1329.71
440.169
715.69
689.707
385.615
-1075.32
-56.0686
1617.14
-594.009
392.298
844.679
-645.054
323.203
321.85
-378.903
-296.036
546.637
-211.256
434.936
276.428
-660.018
383.59
258.605
-572.615
-278.205
442.819
-1032.3
589.482
538.072
1092.65
365.982
595.813
308.852
350.341
-659.193
1637.32
-928.699
1692.58
-1521.31
-171.271
-328.32
-820.505
411.049
857.214
-1067.75
-601.702
273.65
-1090.53
1628.6
-1595.43
-74.9273
1670.35
-341.697
-350.519
-370.691
540.393
594.499
-501.765
-23.3645
-549.584
499.717
-283.603
-216.114
1759.93
-1308.61
-620.102
294.551
325.55
402.995
357.321
734.228
-291.143
-399.577
-1752.23
1690.69
459.809
-1100.09
640.278
-41.8948
1661.39
570.723
476.282
-1047
103.064
1144.32
-1452
-10.7003
-1888.35
221.248
-593.762
306.437
287.325
-954.573
611.786
-896.153
465.813
-1127.85
672.435
455.411
386.249
271.092
-781.561
-310.839
1216.06
886.121
699.452
-1182.58
456.161
726.423
494.687
699.823
-1194.51
-361.45
-249.572
402.809
-959.078
439.034
520.044
21.2155
-1879.99
1081.46
-476.755
-510.9
558.858
-1378.03
819.174
-437.529
801.823
-405.91
502.213
-711.322
1723.12
402.223
-173.324
212.57
-159.911
-247.439
407.35
1895.34
-504.132
-1703.82
1050.61
-596.16
300.124
-1012.37
551.801
-312.695
544.462
904.96
-1449.42
-1102.93
437.419
-21.1087
-1946.11
1713.1
-663.692
-539.248
460.896
-1190.02
729.123
198.293
198.622
-278.595
774.244
698.495
836.235
816.225
-460.217
1084.14
-493.73
470.81
-185.922
-284.888
-1924.87
-712.959
-317.335
-640.559
-6.3697
646.929
458.352
-272.209
570.367
1066.95
-812.077
923.055
1243.86
-425.921
-176.663
-242.502
419.165
958.964
-888.295
-317.287
-1066.87
610.369
1564.13
-807.186
537.862
934.613
-402.676
737.662
-334.986
1129.88
-273.545
341.555
1349.45
-708.686
-214.115
448.356
-1198.25
749.897
-981.684
-135.27
1116.95
439.54
-954.274
514.735
179.666
732.153
483.012
743.056
-108.32
850.749
-426.315
1181.92
-796.308
552.495
-1465.37
912.879
-1216.64
1800.97
-431.706
-1510.19
879.305
-1401.8
-325.587
-422.611
1457.06
-1527.65
783.582
1491.4
194.596
276.214
-370.396
-1743.41
-287.577
-1017.04
1587.41
-1778.45
1778.45
1574.86
-1004.34
-631.202
-354.682
368.334
604.248
-377.21
-377.401
-1389.67
897.162
1125.08
600.645
1202.33
1789.49
-1216.41
-621.144
272.43
1659.23
-1916.79
257.565
815.83
-1268.04
1545.17
-561.678
797.303
323.494
-357.645
555.562
794.009
661.929
1366.52
-242.381
-445.697
-382.571
493.673
-337.55
472.028
735.731
-315.778
-133.011
-346.839
574.781
-227.942
34.9547
-370.374
1107.34
-1720.28
-456.264
-502.129
-575.363
864.278
699.855
-1596.32
904.499
-452.242
-631.544
-515.226
1251.76
353.473
1723.85
-1702.64
-1661.87
1895.99
-1560.64
840.123
720.518
-389.11
-1799.74
918.089
584.022
818.543
-393.86
1794.53
-681.062
-423.067
686.426
443.839
-1130.27
-1103.28
444.235
752.748
-1617.13
473.272
900.898
166.72
-391.783
225.063
-1603.89
-389.149
-441.121
990.183
-681.049
1442.82
-979.057
1853.74
242.312
-538.732
490.034
-295.438
474.34
893.379
543.368
977.088
-463.486
-427.89
574.337
882.718
-1392.69
-40.9928
1581.72
-842.896
519.973
971.432
-1475.78
-1115.89
1777.99
-1241.56
-536.432
1206.02
-319.329
-886.694
-183.076
445.912
-262.835
-457.301
-251.271
422.435
-171.164
135.807
-385.378
1737.28
-1742.47
-473.734
-530.882
-903.475
434.722
-196.853
-237.868
630.702
-468.871
-362.274
-330.435
692.709
-940.369
407.877
-1166.94
676.129
409.032
-645.943
-434.515
1585.9
-868.367
530.2
-458.436
-569.323
-462.979
357.24
-346.385
-10.8554
-1119.64
420.053
-665.033
-1033.5
1698.54
-612.496
-1425.12
711.325
562.34
-1596.24
1033.9
-405.511
-473.354
162.552
539.519
-1258.34
743.117
539.267
1005.9
-2133.17
999.982
1133.19
-383.136
405.681
-380.297
-25.3835
1477.98
-382.389
449.662
1195.9
582.656
906.053
566.234
528.067
-1094.3
155.37
-456.498
-1695.39
249.223
1127.5
-625.795
518.663
1013.56
-1532.22
1092.78
-1643.69
185.347
710.791
560.125
-877.412
-1086.3
-165.493
419.777
-254.284
-586.24
-446.039
-636.68
-623.084
344.49
-1619.73
939.285
-477.149
215.551
-388.875
528.655
-307.406
-619.452
1196.99
-1293.19
928.551
364.634
-1020.94
-388.023
-765.107
-831.004
1695.28
-477.389
1794.89
-1585.83
-209.06
-1556.58
1018.63
537.951
-732.569
-251.546
432.565
-181.019
-603.92
385.04
267.859
-652.899
-524.363
1003.3
625.519
-351.869
-1620.22
1050.45
571.816
1103.47
-1675.29
-431.256
-284.275
-375.584
-751.122
-485.005
-332.241
493.733
1557.98
-995.64
-774.144
1497.44
658.776
-322.773
725.883
1152.35
-1878.23
311.215
322.001
-487.568
-1934.46
1721.47
212.993
734.726
-475.661
-259.064
531.872
1060.74
-1592.62
357.24
-1726.36
-233.215
1752.37
-1580.65
1073.72
506.926
-1728.81
2.45762
-522.075
405.681
1700.36
-1721.47
939.301
625.294
-1564.59
369.69
-215.414
-154.275
-426.963
-267.408
66.0735
94.4168
-345.963
-424.715
-446.278
-402.649
209.615
1510.16
379.119
-219.324
-449.368
453.661
-190.189
336.399
1510.7
993.673
-168.528
-825.146
-1104.04
1704.92
-1728.95
1063.91
-707.494
-1021.45
-1265.07
1844.98
-579.916
1155.05
-1771.26
616.206
267.072
-877.658
1675.93
43.4106
-1719.34
-491.192
-1082.96
-1737.28
-980.651
552.761
1019.51
590.283
1132.97
-1723.25
277.011
-458.818
700.064
-384.908
393.824
924.344
681.824
-386.626
-650.776
582.944
1072.47
-1655.42
-408.394
-362.299
770.692
446.574
-1662.2
1521.31
140.889
579.491
-1043.59
544.763
1083.84
-1555.61
993.929
-231.832
223.743
341.776
1906.65
449.792
-72.3929
995.845
722.75
-1718.6
-696.74
1085.26
-1557.46
156.079
-569.765
190.397
263.264
-669.285
-565.959
582.686
1034.46
-710.782
-287.346
-1368.4
673.718
694.679
-404.549
752.298
85.8296
-838.127
562.267
-137.196
1557.42
-204.357
285.061
-777.26
-1934.46
1664.6
1022.82
351.057
313.127
457.829
-929.858
-995.011
-1767.26
631.861
1693.76
503.375
-474.68
1210.41
1087.04
-424.944
1029.19
-977.223
487.929
489.294
700.782
1047.89
-1748.67
479.638
487.695
-1493.88
-745.426
35.7928
777.187
-413.657
-893.867
382.967
-540.014
-801.058
611.56
-578.09
1397.26
1055.18
187.937
231.84
-550.676
1618.49
-775.245
1527
-1727.83
575.304
1152.53
538.148
-882.291
-1733.14
1916.79
-183.65
1721.73
173.703
-546.035
359.163
-264.746
-481.651
1210.77
568.274
1128.28
-491.143
426.27
855.854
-455.702
-774.051
436.229
337.822
1419.49
1089.54
-518.351
1422.85
-510.492
-533.009
1043.5
-602.817
498.692
-1212.53
1692.58
1839.57
-687.22
1586.05
-646.749
-1240.74
716.377
-562.898
193.77
-379.532
444.473
-234.285
-517.81
-1246.7
1870.95
-624.252
1173.4
-554.994
1120.24
-1659.43
1704.06
-573.991
-548.281
-549.849
1720.07
-316.508
-688.11
-473.429
1223.33
-1689.94
-1860.12
613.415
324.097
-945.718
159.6
206.432
-1719.02
1204.13
514.893
1162.84
558.89
-513.095
-465.448
1191.87
184.341
215.154
588.448
1251.12
-539.186
-1238.57
1777.76
-1025.25
999.985
866.783
-204.055
-1659.23
1702.64
-510.189
1411.09
-1733.14
-347.369
2.71784
344.651
-253.119
584.946
-331.828
95.3787
487.363
779.852
-382.79
1257.51
1270.59
-413.375
849.732
-438.683
1817.55
-662.499
1586.66
-1723.85
-412.826
-763.762
310.1
453.662
-561.247
-563.59
79.7468
-1138.57
-985.2
-670.377
1655.58
-943.698
-1189.47
159.677
-430.87
-647.248
705.757
1167.43
650.115
1410.28
-591.734
1636.72
1318
-574.881
-485.012
189.573
-503.328
1396.71
1240
-566.287
-999.98
890.92
59.3255
-950.246
603.412
-506.211
1403.37
1495.05
-588.995
-353.518
353.518
-589.59
1623.49
1239.15
-486.398
1134.13
-64.1513
1850.17
-379.487
1489.46
-589.395
-507.702
1347.82
-650.26
1218.61
-568.347
1554.81
-591.914
760.25
578.197
-1338.45
-658.66
286.939
506.82
600.85
-1957.29
-1003.86
1586.66
358.555
-358.555
-59.5039
383.233
438.382
401.965
-15.6789
-323.438
913.384
-520.543
-428.479
811.711
-237.641
615.628
-425.674
1551.53
-444.35
-883.969
176.232
224.505
-400.738
601.174
1250.76
-1851.94
925.218
-459.405
-346.385
126.147
-1943.05
1816.9
-448.273
171.499
1181
-440.507
-740.494
-297.614
-596.253
-496.2
-380.297
-473.077
256.962
1158.08
-563.584
232.788
-370.671
137.883
-23.0571
-107.684
1375.96
-1268.28
34.6459
-595.99
-586.501
-445.781
445.781
-1262.34
1985.09
-1344.31
-211.743
-1824.12
238.291
-1025.75
-974.245
-177.731
-1639.53
709.676
1229.32
-1925.02
362.607
317.549
-680.156
-1850.02
1234.27
615.755
-559.185
559.185
-958.916
-40.0998
-1866.13
-558.18
1650.83
-675.767
1636.19
-601.734
-182.93
-1705.42
-579.338
-450.635
-594.865
-460.807
460.807
-1537.81
194.53
1343.28
163.515
222.482
-385.998
500.878
492.795
995.673
-475.629
1751.29
769.64
-416.034
390.651
523.141
1702.07
-594.728
-552.989
1636.83
462.827
1812.82
-645.387
-1804.46
-1938.07
-647.1
-474.022
474.022
-604.736
222.165
-697.773
1018.28
-466.475
-1076.13
-295.982
1579.56
1852.29
1635.37
-1635.37
-273.894
741.271
1761.52
595.802
1275.15
164.573
205.116
594.29
588.22
1603.49
-1603.49
215.959
-359.137
-439.074
451.201
950.514
-462.586
-638.66
-1130.95
1706.26
275
-1660.99
622.712
-288.917
462.619
1744.65
-592.119
-212.288
-427.081
378.721
735.121
1738.58
-613.504
-511.791
-772.31
1960.54
-870.461
-1090.08
1642.71
-703.354
1223.96
-1824.96
601.001
356.141
-894.873
-185.079
-100.771
1097.41
-487.037
144.388
630.946
-1658.02
431.525
625.053
-1804.46
-583.296
1787.42
883.334
-1162.88
1760.5
-597.616
1783.83
-575.554
-1208.28
438.032
926.859
-1742.47
924.471
-1486.94
253.252
1233.69
-833.109
-1254.22
-371.507
72.7685
298.738
581.77
263.759
1033.87
-438.008
845.165
-407.157
820.32
741.558
-1561.88
644.497
1066.49
-23.9581
-661.559
685.518
-1744.48
723.023
707.99
150.533
-1122.61
1936.78
-674.565
-1262.21
-537.186
1665.47
836.489
967.461
-1803.95
1227.86
683.37
-409.741
709.252
831.048
1027.1
-587.557
1761.52
625.665
1773.56
-1185.59
-587.974
-383.361
-345.172
728.532
121.454
-1185.57
1660.53
-540.284
-1437.78
1437.78
1250.56
594.425
1351.4
206.583
-557.71
280.795
-181.722
699.159
1113.66
475.818
-291.477
-869.404
-575.386
1740.01
-1740.01
998.083
-998.083
987.338
1025.17
-2012.51
1837.96
-614
-581.124
839.559
-947.856
-1052.16
998.178
691.345
-1689.52
-512.036
-366.08
-642.639
-808.438
2042.7
-1246.41
-613.705
1002.97
974.859
1289.78
647.001
321.16
1012.69
227.512
341.844
1186.21
1756.89
-1756.89
671.431
79.4911
-384.554
-997.06
-539.996
1674.12
990.631
1009.37
-1833.3
-217.297
-362.041
617.428
-368.206
1849.57
-1077.87