/*--------------------------------*- C++ -*----------------------------------*\
  =========                 |
  \\      /  F ield         | OpenFOAM: The Open Source CFD Toolbox
   \\    /   O peration     | Website:  https://openfoam.org
    \\  /    A nd           | Version:  7
     \\/     M anipulation  |
\*---------------------------------------------------------------------------*/
FoamFile
{
    version     2.0;
    format      ascii;
    class       volVectorField;
    location    "31";
    object      U;
}
// * * * * * * * * * * * * * * * * * * * * * * * * * * * * * * * * * * * * * //

dimensions      [0 1 -1 0 0 0 0];

internalField   nonuniform List<vector> 
30084
(
(1.01178 -0.0140388 3.78196e-23)
(1.00845 0.00405048 1.57274e-22)
(0.989772 -0.00381779 -2.31419e-22)
(0.968993 -0.0618751 7.87019e-23)
(0.997339 -5.73438e-05 3.26233e-23)
(0.949885 -0.0390996 -1.16558e-22)
(1.07879 -0.0710106 1.23929e-22)
(1.016 -0.0209778 -3.93228e-24)
(1.00217 -0.00208733 5.22784e-24)
(1.0002 -5.33017e-05 1.36515e-24)
(1.0188 -0.0280491 3.20638e-25)
(0.998386 -0.0182731 -8.0241e-23)
(0.99948 -0.000212021 4.45454e-24)
(0.999967 -1.17019e-05 1.25082e-25)
(1.11063 0.100929 4.97223e-22)
(0.993344 -0.00218433 3.54037e-23)
(0.99983 -0.000925192 -2.00316e-24)
(1.12406 0.0254621 -4.09484e-23)
(0.997686 -0.00197198 -1.10945e-23)
(0.987829 -0.000924587 -5.18046e-23)
(0.999066 -0.000299514 -1.51865e-23)
(1.00205 -0.00208439 1.83221e-23)
(0.989675 -0.00403926 2.55777e-22)
(0.997668 -0.000188086 1.43274e-23)
(0.905754 0.0973115 6.51676e-23)
(1.00932 0.00321813 8.45077e-22)
(0.999439 -6.38468e-05 1.01547e-23)
(0.952056 0.0819968 -4.41068e-21)
(1.11407 0.102091 -1.3127e-21)
(0.999338 -0.00990744 -1.51373e-23)
(1.01638 -0.010972 2.62438e-23)
(1.03712 -0.00420604 -1.95804e-22)
(0.998598 -0.145115 8.4263e-22)
(0.999251 -0.0253397 4.05745e-23)
(0.950351 0.078232 3.54058e-21)
(1.00656 -0.0354833 1.12688e-22)
(1.05712 0.0488594 -2.77585e-22)
(0.968918 -0.0342229 3.10054e-22)
(1.00566 -0.000867215 -7.09286e-23)
(1.00546 -0.000621703 1.34914e-22)
(1.00047 -0.000176454 -4.24143e-24)
(0.989481 -0.0350781 -2.95724e-22)
(0.99985 -0.000899145 -2.7059e-26)
(1.04123 -0.0740561 -4.60107e-22)
(1.00004 -6.07002e-06 -2.66245e-25)
(0.999566 -0.0100383 1.13355e-23)
(0.997683 -0.0135685 -2.32813e-23)
(1.00008 -9.16435e-05 6.88805e-25)
(1.00361 -0.0038825 -7.43875e-23)
(1.05746 0.0465031 -1.14098e-22)
(1.14375 -0.0554319 7.89118e-23)
(0.972274 -0.0537969 -3.63334e-22)
(1.03684 -0.00338918 6.86442e-23)
(0.951622 -0.0386231 -1.89983e-22)
(0.993511 -0.00223935 -3.10901e-23)
(1.11918 0.0962057 -8.11729e-22)
(0.996335 -0.00247938 1.10739e-23)
(0.99904 -0.000330104 1.92386e-23)
(1.00119 -0.023684 -5.59316e-23)
(1.01973 -0.0631402 -2.08575e-22)
(0.999929 -7.65815e-06 2.90317e-25)
(0.997769 -0.00201978 -2.28368e-24)
(1.18979 0.0835001 2.02081e-22)
(1.00684 -0.0345817 -6.19005e-23)
(1.04539 0.0978043 2.1947e-21)
(0.926748 0.0271596 8.76063e-21)
(1.00079 -0.0300623 -1.09735e-22)
(0.992433 -0.0155413 1.05414e-22)
(0.945846 0.0173818 3.52458e-21)
(1.00049 -0.000166579 2.74434e-24)
(1.01083 0.00388774 -1.15211e-21)
(0.988633 0.069825 2.47182e-21)
(1.00369 -0.00964074 -2.93062e-23)
(0.923218 0.112012 2.41854e-21)
(0.991129 -0.000713176 1.63906e-22)
(1.1243 -0.0182053 4.20897e-23)
(1.13725 0.144438 1.77183e-21)
(0.969318 -0.0193212 7.38965e-23)
(0.999947 -2.41275e-05 -8.25455e-25)
(1.00962 -0.0530822 -2.04105e-22)
(0.950391 -0.000902837 -1.25762e-22)
(1.01828 0.0385975 6.65967e-22)
(1.01204 -0.0146406 -1.13834e-22)
(1 -6.76785e-05 7.06279e-26)
(1.08068 -0.0679652 -1.86234e-22)
(1.26738 -0.0436045 -6.49323e-22)
(1.02653 0.0850945 -4.06745e-21)
(0.99946 -0.00020895 -4.03676e-24)
(0.999496 -0.000188956 -1.18335e-24)
(0.923187 -0.052537 -5.06345e-22)
(0.99882 -0.0603905 4.0051e-22)
(0.969242 -0.0202436 8.35177e-23)
(1.00339 -0.00401656 1.26968e-23)
(1.05852 -0.00311716 -1.18355e-22)
(0.913514 -0.0226368 -4.24785e-22)
(1.03237 0.100987 2.0434e-21)
(1.00493 -0.0784705 6.57018e-22)
(1.00051 -0.000416092 6.82707e-24)
(0.972391 -0.0779121 -7.26419e-22)
(1.10181 0.115198 2.21003e-21)
(0.999944 -2.36569e-05 1.20761e-24)
(0.970605 -0.0125259 -4.44456e-22)
(0.999931 -9.39213e-06 -1.50026e-25)
(1.04852 -0.014471 -5.89125e-22)
(0.970553 -0.0538045 2.40363e-22)
(1.03362 0.0145598 1.20463e-21)
(1.00183 0.0673035 3.78781e-21)
(0.999517 -0.000191204 -1.00014e-23)
(0.999995 -7.51386e-05 -1.72896e-26)
(1.01757 -0.133301 -4.02581e-23)
(0.995196 -0.14415 -7.59233e-22)
(1.04975 -0.0367582 5.08153e-23)
(1.00002 -2.2945e-06 4.63945e-26)
(0.998867 -0.00670455 -4.04805e-23)
(0.999891 -0.0023777 1.50976e-24)
(0.99083 0.0715548 1.21817e-23)
(1.0344 0.0555681 -1.44116e-21)
(0.987088 -0.00827973 -1.76351e-22)
(1.00003 -7.38464e-05 6.28171e-26)
(1.00402 -0.00953247 -2.24025e-23)
(1.24179 0.0572456 3.76554e-22)
(1.00535 0.011909 1.84516e-21)
(1.17779 -0.00543504 -1.03527e-22)
(0.925128 0.0331959 -8.30789e-21)
(1.00118 -0.000384915 -1.73138e-23)
(1.16008 0.00818678 -7.32417e-23)
(1.12129 0.027889 -2.2721e-22)
(1.02422 -0.0596603 1.52627e-22)
(1.0043 -0.00366835 -6.63768e-23)
(1.00003 -0.000475015 9.69626e-26)
(1.04018 -0.0718583 1.62177e-22)
(1.14012 0.142206 9.96542e-22)
(0.999728 0.120534 4.67753e-21)
(1.19085 -0.0170932 -8.60105e-23)
(1.04696 -0.0144651 4.97194e-22)
(1.01591 -0.0105994 5.00079e-22)
(1.04844 0.151957 3.39266e-22)
(0.969026 -0.000931123 6.51015e-22)
(1.20809 -0.166181 2.38397e-21)
(1.1038 0.111956 -1.67244e-21)
(1.15698 0.0113846 9.79858e-23)
(0.929886 -0.00652132 -5.37259e-22)
(0.945467 -0.0551537 1.59687e-22)
(1.00002 -2.07458e-06 -2.00128e-26)
(0.999988 -4.02672e-06 6.71663e-26)
(0.997269 -9.51709e-05 -2.57872e-23)
(0.997875 -0.0132804 4.74409e-23)
(0.994214 -0.10789 -5.58922e-22)
(1.18641 -0.114601 9.35698e-22)
(1.18068 0.121197 1.04202e-21)
(1.03276 -0.0171748 2.60152e-22)
(1.01992 -0.0196661 8.49181e-23)
(1.00047 -0.000674834 1.05279e-23)
(0.999858 -0.000239961 1.15305e-24)
(1.00135 0.0206537 -3.97148e-21)
(1.00058 -0.00165121 1.22029e-24)
(0.992972 -0.0126119 4.77888e-26)
(1.05793 0.154027 -1.00855e-21)
(1.00367 0.0405413 -4.2216e-21)
(1.14523 -0.0505193 -1.27143e-22)
(0.952835 -0.00341644 2.17418e-22)
(0.970052 -0.0604271 5.60201e-22)
(1.11812 0.0998649 2.13214e-22)
(0.999947 -4.96827e-05 2.61186e-25)
(0.999987 -3.88809e-06 -2.51158e-26)
(0.987038 -0.00870298 6.24235e-23)
(0.946892 -0.05388 -8.50522e-22)
(1.00006 -0.00024357 -6.76462e-25)
(1 -7.18395e-05 2.34695e-26)
(0.992659 -0.00569564 -2.07977e-23)
(1.00004 -0.000461044 -7.71806e-26)
(1.0062 -0.00625677 -3.70787e-23)
(1.05501 0.156222 1.19072e-21)
(0.969495 -0.000492056 -5.36153e-22)
(1.07302 -0.117694 -2.27069e-22)
(0.9945 -0.000108843 1.05207e-22)
(1.00228 -0.00288435 3.89791e-24)
(0.969769 -0.0123397 7.5148e-22)
(0.99919 -0.00668039 -3.67071e-24)
(1.17683 0.00549272 -5.92784e-23)
(0.999977 -1.0947e-05 4.09265e-25)
(1.01754 -0.0405434 -7.12186e-23)
(1.0282 0.086874 1.456e-21)
(0.992717 -0.0144241 -6.07736e-24)
(1.1999 -0.165745 -2.20904e-21)
(1.02695 0.0475007 -1.26552e-21)
(0.993151 -0.00313259 -1.52651e-22)
(0.980244 -0.0177605 1.93003e-22)
(1.00407 -0.00369166 1.01166e-22)
(0.999393 -0.00922919 -2.31519e-23)
(0.999702 -7.95958e-06 1.15538e-24)
(1.00727 -0.0189497 1.71842e-23)
(0.920982 0.0166091 3.46703e-21)
(1.00084 0.0168838 3.05597e-21)
(0.984217 -0.00706534 4.8888e-24)
(0.993295 -0.0124095 -6.63249e-23)
(0.982902 0.0368444 -3.30698e-21)
(1.0116 0.0303428 5.71591e-22)
(0.915471 -0.0223388 5.14106e-22)
(1.00123 -0.000515083 -1.35467e-23)
(1.10027 -0.0874451 2.8852e-22)
(0.975405 -0.104366 7.54901e-22)
(0.998712 -0.0186221 3.81893e-23)
(1.0009 -0.00113401 -2.16804e-23)
(1.05032 0.154942 4.94794e-22)
(0.992898 -0.00570313 -1.38546e-23)
(1.00717 -0.00557664 -4.15884e-23)
(0.99182 -0.107691 7.42315e-22)
(1.01872 -0.136873 1.02204e-22)
(0.999961 -5.55768e-06 9.95531e-26)
(0.978754 0.0980265 -4.09938e-21)
(0.998894 -2.50554e-05 -2.51993e-25)
(1 -5.77297e-05 2.08642e-26)
(0.999418 -0.000222764 1.72293e-24)
(1.00228 -0.0601709 -1.46423e-22)
(1.17523 0.0914138 -8.12631e-22)
(1.01847 -0.0395537 1.0017e-23)
(1.00695 -0.00521316 -2.85158e-23)
(0.997693 -0.000258752 3.55648e-23)
(0.917233 -0.0248672 -9.88019e-23)
(1.00004 -0.000504934 -1.71631e-25)
(1.00052 -0.00168403 1.19982e-25)
(0.997514 -0.000219667 -2.35097e-23)
(1.02639 0.00164182 1.11279e-21)
(0.997206 -0.00427293 -7.48455e-24)
(0.99888 -0.00622801 1.20182e-23)
(1.02698 -0.000996636 5.53519e-22)
(1.00014 -0.000412211 1.05336e-24)
(1.00004 -5.2522e-06 6.9831e-26)
(1.00522 -0.000627662 1.43872e-23)
(0.974178 -0.0386596 -2.86065e-22)
(0.972974 -0.000471142 -2.58643e-22)
(0.994838 -0.0004133 -1.11972e-22)
(1.01179 0.00306306 9.53659e-22)
(0.982657 -0.00129902 1.2279e-22)
(1.02006 -0.0189599 -8.2159e-23)
(0.999966 -1.30376e-05 3.51713e-25)
(0.996857 -0.00282353 -4.24864e-23)
(1.00085 -0.00112571 2.3435e-23)
(1.09813 -0.08366 2.8229e-22)
(1.11535 -0.201556 1.77883e-21)
(0.998524 -0.000133588 1.85558e-23)
(1.0005 -0.00060014 -8.09598e-24)
(0.99877 -0.00608243 -4.10262e-24)
(1.00387 -0.00851045 -5.53021e-23)
(0.988077 -0.000681506 -2.19325e-22)
(0.999949 -4.7338e-05 -1.65947e-26)
(1.26028 -0.0436713 -1.30972e-21)
(1.00005 -0.000516291 1.97763e-25)
(1.02601 0.0015025 -7.8353e-22)
(0.996452 -0.00248136 -2.22776e-23)
(1.00016 -0.000399781 4.45077e-25)
(1.03259 0.0147957 -7.6584e-22)
(0.968168 -0.100785 -7.85112e-22)
(1.00027 -4.52253e-05 4.48443e-24)
(1 -1.35652e-05 1.46096e-26)
(0.929664 -0.00466844 -6.11381e-22)
(1.08883 -0.191441 -2.61919e-22)
(0.990764 -0.00913618 -1.64906e-23)
(1.02349 -0.0612815 -4.06307e-23)
(1.03371 -0.0177322 -4.26697e-23)
(1.03289 0.0850826 1.78003e-22)
(1.00009 -8.65174e-05 1.90446e-25)
(0.97467 -0.0377692 2.69169e-22)
(1.21598 0.0274939 1.4229e-22)
(0.966826 0.0536166 8.14867e-23)
(0.992604 -0.0141102 4.89732e-23)
(1.02611 0.0460279 1.5364e-21)
(1.12308 -0.0148424 3.70732e-23)
(0.999891 -0.00261576 -1.80909e-24)
(0.847156 0.0473878 5.14258e-21)
(0.999421 -0.000468846 -1.15925e-23)
(1.07345 -0.121956 -3.03797e-22)
(0.918726 -0.0247893 6.34928e-22)
(1.00241 -0.00272403 -2.1422e-23)
(1.17246 0.0520582 4.79647e-22)
(0.990666 -0.00103506 -1.30586e-22)
(1.00142 0.129338 3.23472e-21)
(0.996263 -0.000286015 1.03186e-23)
(0.980916 -0.019128 -1.01018e-23)
(0.999794 -0.00237767 -9.93723e-24)
(1.0848 0.132892 5.00974e-22)
(1.00079 -0.0187331 9.61854e-24)
(1.02979 0.101291 1.24658e-22)
(0.999455 -4.93377e-05 -4.44778e-24)
(0.993684 -0.00207111 -4.90738e-23)
(0.964735 0.118152 -2.08272e-21)
(1.03138 0.00167392 -9.32323e-22)
(1.02678 -0.00070116 6.42611e-22)
(0.969335 -0.0498505 6.7512e-22)
(0.999837 -3.50711e-05 1.16781e-24)
(1.00375 -0.00822369 -6.28368e-24)
(0.999827 -0.00101038 -3.59228e-24)
(1 -5.46993e-05 1.73451e-26)
(1.05479 0.011151 2.6834e-22)
(1.00004 -5.71042e-06 6.65761e-27)
(0.978066 -0.0170733 4.58694e-22)
(1.21484 0.0228133 -1.4691e-22)
(0.903795 0.101708 -5.07487e-21)
(1.00225 0.120961 -7.20019e-21)
(0.970577 -0.0860773 2.39048e-22)
(0.986315 -0.0343951 1.6571e-22)
(0.974338 -0.00181174 1.22902e-22)
(1.0402 -0.0353994 1.62277e-22)
(1.00785 -0.0186484 -3.14177e-23)
(0.980149 -0.018619 -2.66565e-22)
(0.972805 -0.0945356 1.05893e-22)
(1.03126 0.0869044 -2.75035e-21)
(0.999517 0.0139332 5.3816e-21)
(0.998622 -0.000163041 1.023e-23)
(1.00296 0.0681539 -5.22536e-21)
(1.05422 0.00959876 9.38337e-23)
(1.18025 -0.000121968 3.22372e-23)
(1.0151 -0.0160574 3.92419e-23)
(1.00183 -0.0171496 -4.59377e-23)
(1.03127 -0.0540633 -9.48213e-23)
(0.994146 -0.00199906 -1.15667e-22)
(0.997119 -0.000715931 -7.49837e-24)
(0.999935 -7.39271e-06 1.53428e-24)
(0.999227 -0.00946493 3.42158e-23)
(1.10493 -0.0245691 3.36661e-23)
(1.08464 0.136344 -8.28089e-22)
(1.00174 -0.00148449 1.00584e-23)
(0.970063 -0.0319552 -3.66956e-22)
(1.01714 -0.0162057 -1.24297e-22)
(0.999959 -1.78993e-05 -1.3409e-25)
(0.9716 -0.0901297 -3.80364e-22)
(0.881319 0.0800978 -2.28701e-21)
(0.993269 -0.00535152 1.71735e-22)
(0.998872 -0.00497621 1.10515e-23)
(1.0157 -0.0157964 -2.4348e-23)
(1.00902 -0.051514 2.57719e-22)
(1.07708 0.0415317 3.46639e-22)
(0.999698 -0.0107213 -5.49169e-24)
(0.999965 -5.75489e-05 8.59171e-25)
(1.00001 -3.22563e-06 2.27765e-26)
(0.99708 -0.000652278 -8.34901e-24)
(0.963048 0.117331 3.01298e-21)
(1.05499 -0.0236541 1.27816e-22)
(1.12112 -0.196813 -4.55038e-22)
(1 -1.35828e-05 1.16697e-27)
(1.08711 -0.197836 1.75202e-22)
(1.07956 0.00974594 -4.08194e-22)
(0.994364 -0.000182176 -5.28231e-23)
(0.921644 -0.00898338 -7.57665e-22)
(0.998961 -0.00488681 -1.10712e-23)
(0.999529 -0.000214204 -7.3057e-25)
(0.975197 -0.0340441 -7.98869e-23)
(1.001 -0.00124367 -1.04766e-23)
(1.17881 0.0103881 8.06441e-23)
(1.00978 -0.00110402 -2.97886e-22)
(1.1418 0.122872 -8.37826e-22)
(0.999929 -0.00258096 2.34341e-24)
(1.0052 -0.0149742 1.0409e-23)
(1.0052 0.0105431 -2.50149e-21)
(1.23687 0.054599 -1.01211e-22)
(1.00046 -0.000635288 -6.18811e-24)
(1.00048 -0.000562841 6.06314e-25)
(0.99223 0.0839575 2.56359e-22)
(1.00036 -0.0613273 -7.96837e-23)
(0.9995 -0.0105688 6.68568e-24)
(1.01044 0.0334372 3.00085e-22)
(0.976187 0.0187363 6.46715e-21)
(1.14637 -0.059388 -2.62992e-22)
(1.00069 -0.0289933 -3.32823e-23)
(1.1713 0.0903839 8.07571e-22)
(0.999167 -8.04314e-05 -7.65987e-24)
(0.990383 -0.00477611 4.59784e-23)
(0.996342 -0.000300557 -2.88191e-23)
(1.01308 0.0290587 3.03246e-24)
(0.999988 -0.000829853 2.10115e-25)
(1.00946 -0.00135163 3.044e-22)
(1.20514 -0.0896001 3.04071e-23)
(0.998103 0.114296 7.24233e-21)
(0.926072 0.115433 -1.11957e-21)
(0.993363 -0.00312301 6.13768e-24)
(0.990473 -0.00892851 4.95206e-23)
(1.04297 0.0998578 -1.75551e-21)
(1.02064 -0.0651487 3.00642e-22)
(0.999937 -8.84392e-06 -1.4966e-24)
(1.16287 0.132365 1.80069e-21)
(1.02557 0.00209938 -3.32995e-22)
(1.02506 0.00201218 -2.24882e-22)
(0.994069 -0.0152702 -7.14774e-23)
(1.01946 -0.00189435 -4.63956e-22)
(0.955796 0.105501 1.02051e-21)
(1.1858 -0.128098 -2.95643e-22)
(0.980503 0.104836 1.09893e-21)
(0.992152 0.104259 -1.88172e-21)
(0.999997 -7.20014e-05 5.49407e-26)
(1.10157 -0.024558 -7.90591e-23)
(1.18342 -0.122115 1.92299e-22)
(0.997074 -0.00431384 1.96198e-23)
(1.00179 -0.00159195 -1.66019e-23)
(0.971651 0.0219604 1.5483e-21)
(1.05693 -0.0241038 -1.6617e-22)
(1.00031 -8.31568e-05 1.0227e-24)
(0.985023 -0.073368 -8.31022e-22)
(0.974864 -0.10742 -3.54292e-22)
(0.993824 -0.0021272 6.89635e-23)
(0.999869 -0.000232999 -1.44649e-24)
(1.03647 0.117764 -3.01875e-22)
(1.03439 0.0537252 2.42853e-21)
(1.00005 -0.000565548 -5.16249e-26)
(1.00447 -0.00395624 1.30395e-23)
(1.00573 -0.00393969 7.05482e-23)
(1.22156 -0.031006 8.1861e-22)
(0.969273 -0.0484853 -5.97613e-22)
(1.00007 -0.000671257 -4.67139e-25)
(0.999984 -2.61794e-06 -3.76442e-26)
(1.00054 -0.000182943 1.61658e-24)
(1.07539 0.0421655 -3.38609e-23)
(0.968817 -0.0330121 -2.96538e-22)
(1.00182 0.0402775 1.20528e-21)
(0.93689 -0.061797 3.98364e-22)
(0.98725 -0.0341543 -1.71735e-22)
(0.972157 -0.00141545 -5.14695e-22)
(1.01193 0.0324553 -1.47651e-21)
(1.18553 0.0799907 3.21382e-23)
(0.998664 -0.000173387 1.87323e-23)
(1.00862 -0.00632127 -7.54273e-23)
(1.00093 -0.00123129 1.18777e-23)
(0.979328 0.114428 -2.84496e-21)
(0.971139 -0.029747 1.5739e-22)
(1.00119 -0.000312948 -5.67097e-24)
(0.991554 -0.0042392 -6.21077e-23)
(1.15843 0.0177475 2.37319e-22)
(0.999844 -0.0115169 -1.45514e-23)
(0.987216 -0.0149076 -3.45061e-23)
(1.00026 -0.000158701 -3.11403e-24)
(1.00027 -6.06095e-05 -1.37833e-25)
(0.878188 0.0857205 3.58951e-21)
(0.990739 -0.00154193 -8.14052e-23)
(0.994688 -0.0054869 7.02815e-23)
(0.999594 -0.0021091 -8.79158e-24)
(0.999188 -6.14548e-05 -1.05102e-24)
(1.0385 0.0839336 -9.30331e-22)
(1.21109 -0.0868542 5.86438e-23)
(0.986482 -0.052055 1.04286e-22)
(1.00002 -2.48457e-06 -2.35021e-26)
(1 -4.39878e-05 1.59002e-26)
(0.969959 -0.0309044 4.16307e-22)
(0.992376 -0.00225053 1.6486e-23)
(0.994198 -0.00255029 -9.4314e-24)
(1.01559 -0.00552126 1.44724e-22)
(1.00639 -0.00266514 2.52949e-23)
(1.00114 -0.0191571 -1.70887e-23)
(1.12768 0.0112836 4.5841e-22)
(0.978535 -0.00542137 -1.03847e-22)
(0.982133 0.102984 -8.93583e-22)
(1.01784 -0.0282182 -3.383e-23)
(1.00028 -0.000159278 3.46285e-24)
(0.969211 -0.0846389 3.56727e-23)
(0.983629 -0.0462563 -3.60477e-22)
(1.16296 0.0511668 3.29175e-22)
(0.996876 -0.00711999 -2.08942e-23)
(0.992343 -0.060695 -1.258e-22)
(0.999976 -6.5094e-06 2.25595e-25)
(0.93687 0.0846779 -3.51889e-21)
(1.01645 -0.00228613 2.61818e-22)
(1.00009 -0.000271347 -1.07594e-24)
(0.920868 0.0227087 -4.46525e-21)
(0.985232 -0.0524528 2.42185e-22)
(0.999976 -7.55662e-06 3.57006e-26)
(1.00162 -0.00145179 4.90382e-24)
(0.970023 -0.0885049 -2.10957e-22)
(1.04775 -0.0357397 5.37736e-23)
(1.05189 -0.00745228 3.35873e-22)
(0.99999 -4.33307e-06 5.3521e-26)
(0.990686 -0.000787506 6.50278e-23)
(1.03195 -0.0526425 1.55907e-22)
(0.993996 -0.00195019 9.54589e-23)
(0.999477 -5.67142e-05 -2.41062e-23)
(0.990579 -0.00492949 1.26328e-24)
(0.979824 0.0387188 3.84083e-22)
(0.992259 -0.0151058 -8.79965e-23)
(0.987772 -0.0145746 2.52744e-23)
(1.00148 0.023939 -1.22321e-21)
(0.996914 -0.0026664 2.21809e-23)
(0.974722 0.115853 -3.6609e-22)
(0.999974 -7.58848e-06 -1.14622e-25)
(0.989793 -0.0341562 6.86373e-23)
(0.990256 -0.102189 8.56759e-22)
(0.993692 -0.060914 2.12489e-22)
(1.21842 0.0100145 8.78654e-23)
(0.998752 -0.00651736 2.71489e-23)
(1.01229 -0.0270537 1.29587e-23)
(0.999918 -0.0027805 4.30337e-25)
(0.98112 -0.0270856 -2.02459e-22)
(1.05014 -0.0389049 1.7237e-23)
(0.99996 -1.71222e-05 6.81598e-25)
(1.00002 -1.3878e-06 -3.9935e-26)
(0.99275 -0.00050433 4.38691e-23)
(0.981975 0.0738591 2.53742e-21)
(1.01556 -0.0218064 1.46256e-22)
(1.00293 -0.00406344 -2.07007e-23)
(0.917081 -0.0467457 5.42661e-22)
(1 -1.22261e-05 3.19912e-27)
(1.0011 -0.00135732 -1.90082e-23)
(0.999962 -0.000791246 -2.70954e-25)
(1.01697 -0.0207012 1.63601e-22)
(0.980869 -0.019979 3.54415e-23)
(0.999567 -0.000333229 3.03038e-24)
(0.992732 -0.013456 3.3361e-23)
(0.985751 -0.00867321 -3.68838e-23)
(1.00115 -0.00018777 -1.56039e-24)
(0.999974 -8.74799e-06 -7.1544e-26)
(1.20465 0.0469753 3.2162e-23)
(0.999636 -0.00207375 9.42718e-24)
(1.07844 0.00445684 3.08648e-22)
(1.01032 0.11239 7.06073e-21)
(1.03934 0.0983572 -1.60628e-21)
(1.00189 -0.0242223 -6.57907e-23)
(1.00626 -0.00241739 -8.3638e-24)
(1.01979 -0.00149845 2.83885e-22)
(0.999975 -0.00284175 -4.85866e-25)
(0.997798 -0.0123639 3.36472e-23)
(1 -2.01954e-05 2.69041e-26)
(0.989886 0.104496 -1.40513e-22)
(0.986379 -0.0197136 4.88808e-23)
(1.01528 -0.00509865 -1.03253e-22)
(0.979038 -0.00561978 2.12105e-22)
(1.00464 -0.0147629 1.08566e-24)
(0.997067 -0.00699702 4.51893e-23)
(0.999882 -0.000238759 3.3937e-25)
(1.00002 -1.33513e-06 -2.17537e-25)
(0.994872 -0.00546132 -5.11288e-23)
(1.05908 -0.00465088 -1.86757e-22)
(1.00383 0.0422646 1.88934e-22)
(1.00138 -0.00055397 -2.303e-23)
(0.974609 -0.0777231 -1.85716e-22)
(0.970991 -0.0288667 -7.11282e-23)
(0.990919 -0.000616968 -2.43202e-22)
(1.17828 0.117968 -6.5755e-22)
(0.998525 -0.00113904 -1.11074e-23)
(1.00486 -0.0167073 -2.76039e-23)
(0.993744 -0.0033608 4.78479e-23)
(0.999892 -0.00023017 2.85495e-25)
(0.970985 -0.0927016 2.4005e-22)
(1.00164 0.0349243 -1.88443e-21)
(1.0271 0.0422972 -1.5878e-21)
(0.973512 -0.019121 -3.4402e-23)
(1.00116 0.0332504 -8.49012e-23)
(1.0001 -0.000254873 2.07841e-24)
(1.00002 -1.79229e-06 6.71182e-26)
(1.1617 0.129485 -6.8526e-22)
(1.1683 0.0539768 -2.83475e-22)
(0.923252 0.0863061 -1.74056e-22)
(1.01415 -0.102471 6.27547e-22)
(0.972473 -0.0019533 -1.61148e-22)
(1.15448 0.0214981 -3.23049e-22)
(1.00131 -0.00057755 2.60839e-23)
(0.993529 -0.00453124 2.74199e-23)
(1.00052 -0.000194315 -1.54137e-24)
(0.987567 -0.000875549 -5.3482e-23)
(0.986665 -0.0160814 -7.16891e-23)
(0.999995 -3.94396e-05 -1.52436e-25)
(0.998991 -3.88474e-05 4.38057e-24)
(0.997831 0.1119 -6.58857e-21)
(0.999855 -0.000822163 3.24759e-24)
(0.943865 0.0782527 4.23006e-21)
(1 -1.92042e-05 -2.05834e-26)
(1.21478 0.0852171 2.90636e-22)
(1.07897 0.00264833 -6.63661e-22)
(1.12625 0.013709 -5.10451e-22)
(1.00118 -0.000547916 1.56192e-24)
(1.00021 -4.88124e-05 2.76143e-24)
(0.985869 0.0702034 -3.78919e-21)
(1.08046 0.00759752 1.33658e-21)
(0.989933 -0.10456 -7.91556e-22)
(1.01886 0.0403731 7.18901e-22)
(0.998642 -0.0249077 2.83913e-23)
(0.984367 -0.00665387 -5.44308e-23)
(0.995351 -0.000258985 -2.89577e-23)
(1.08707 0.155452 -3.81647e-21)
(0.972755 -0.0344407 2.57399e-22)
(1.04034 -0.0335934 -1.09013e-22)
(0.993033 -0.0133161 -1.90697e-23)
(1 -1.21683e-05 -5.60768e-28)
(0.99854 -0.00107547 -9.43902e-24)
(1.00682 -0.00674059 4.41989e-23)
(0.978337 -0.0100467 2.72276e-22)
(0.974245 -0.0192461 5.12151e-23)
(0.949066 -0.0547377 -8.31012e-23)
(0.978116 -0.0106603 -2.06032e-22)
(1.0179 0.00291888 1.29838e-22)
(0.997575 -0.000165937 5.89736e-25)
(0.925237 -0.0530468 2.83642e-22)
(0.983462 -0.00113688 -7.56995e-23)
(1.00004 -0.000246228 2.87306e-25)
(0.985628 -0.000904505 -5.25072e-23)
(1.04174 -0.0365653 -1.74669e-22)
(1.01714 0.00310045 -7.18217e-22)
(0.970177 -0.034838 -6.4468e-23)
(0.999981 -8.88442e-07 -1.04983e-27)
(0.979939 -0.0204749 5.35002e-23)
(1.00314 -0.0172092 4.2566e-24)
(1.00158 -0.00134775 6.30308e-24)
(1.20984 -0.113805 -8.42943e-22)
(1.00136 0.0321751 -4.36851e-21)
(1.00103 -0.00134116 1.76483e-23)
(0.985881 -0.000681852 7.09794e-25)
(1.13748 -0.0635816 -2.30321e-24)
(1.02736 0.00071468 1.12054e-21)
(0.991817 0.0261059 -4.10876e-22)
(1.00211 -0.00284316 5.61601e-24)
(1.00179 -0.0252647 2.05748e-23)
(1.07187 0.121025 -5.68949e-22)
(1.01408 0.0260154 -3.68549e-21)
(0.991065 -0.0339122 1.81604e-22)
(1.0054 -0.00394958 -7.89794e-24)
(0.943691 -0.0657533 3.98953e-22)
(0.999997 -6.33654e-06 2.94656e-26)
(0.939073 -0.00277224 -2.80693e-22)
(1.0001 -8.07649e-05 3.8634e-25)
(1.13502 -0.0665407 -6.50546e-22)
(0.999962 -4.06157e-06 -7.55405e-26)
(1.00003 -7.22043e-05 2.19319e-25)
(1.00166 -0.0283609 -2.49182e-23)
(1.18885 0.0887803 -4.37465e-22)
(1.0208 0.1396 3.09334e-21)
(1.0457 -0.0368918 -2.70511e-22)
(1.01641 -0.0164535 8.26635e-23)
(0.999999 -5.022e-06 -7.80683e-27)
(0.993019 -0.00539498 -9.29272e-23)
(1.0001 -2.47055e-05 -2.88476e-25)
(0.996423 -0.00284445 3.17606e-23)
(1.00003 -6.7269e-05 -1.70375e-25)
(1.05152 -0.00556891 -1.04669e-21)
(0.999465 -0.00055164 -1.18864e-23)
(1.04766 0.0579968 1.62135e-21)
(0.999857 -0.000254479 -2.22174e-24)
(0.984955 -0.0064891 -9.1484e-23)
(0.94924 -0.00146683 6.2331e-22)
(0.995109 -0.000355801 -3.72098e-23)
(0.986274 0.0385227 3.95617e-21)
(0.979554 -0.000900549 1.47912e-22)
(1.05619 -0.121849 5.21366e-23)
(0.993705 -0.00474946 1.41956e-22)
(1.02663 -0.00220114 -2.36134e-22)
(0.971422 -0.0794306 8.69367e-22)
(1.02096 -0.00137636 -7.92138e-22)
(1.06104 -0.0744868 -1.7711e-23)
(0.999984 -2.13613e-06 9.64838e-27)
(1.00035 -0.0239764 2.30611e-23)
(0.995428 -0.000341693 4.54436e-24)
(1.00029 -0.000107173 2.086e-24)
(1.0001 -2.07961e-05 4.81431e-25)
(1.09013 0.157501 4.17905e-21)
(0.994393 -0.0025563 7.94821e-23)
(1.02687 0.0015971 1.2771e-21)
(1.0026 -0.0258055 2.50451e-23)
(1.00098 -0.000352211 6.04393e-24)
(1.02568 -0.00791472 -8.76946e-22)
(1.00019 -4.61204e-05 -6.09499e-24)
(0.999973 -4.05471e-06 -1.02219e-26)
(0.939867 -0.00369001 2.15612e-22)
(0.996001 -0.00144647 3.58763e-23)
(1.00004 -6.55202e-05 2.57017e-25)
(1.04847 0.0984881 1.19995e-21)
(0.891965 0.0696748 -6.32132e-21)
(0.99976 -0.000269474 5.58468e-24)
(0.951639 -0.00294531 -1.67759e-22)
(1.00002 -1.79305e-06 4.79148e-26)
(0.952838 0.103271 -4.09094e-21)
(1.21822 0.0891111 3.11139e-22)
(0.969292 -0.0633286 -6.85142e-22)
(1.00006 -0.000649241 -5.49573e-25)
(1.03878 -0.0325474 2.5718e-22)
(1.03176 -0.00121718 -3.26338e-22)
(1.03211 0.00179781 9.56182e-23)
(1.05326 -0.00787791 -1.31717e-22)
(0.999599 -0.0022233 -1.41659e-24)
(0.999853 -0.000984998 2.83383e-24)
(0.984142 -0.0197295 -1.56501e-22)
(1 -1.07828e-05 -5.06111e-27)
(1.00002 -1.58377e-06 -1.23295e-26)
(0.971609 -0.0339058 -1.51955e-22)
(1.00656 -0.0771024 -3.23738e-22)
(0.950654 -0.0535481 -2.11939e-23)
(0.911085 0.097636 -1.32241e-22)
(1.00023 -2.97236e-05 -2.55003e-24)
(1.03569 -0.0915546 -6.72287e-22)
(1.00834 -0.00594179 -7.75442e-23)
(0.999974 -4.31346e-06 1.17002e-25)
(0.998892 -0.00463197 -2.39943e-23)
(1.00004 -0.000550244 -3.40085e-25)
(0.995341 -0.0154129 5.36312e-23)
(1.00005 -1.21401e-05 2.87118e-25)
(1.06286 -0.0723649 -4.12878e-23)
(1.0206 -0.00169109 7.69347e-22)
(0.976086 0.113868 9.70217e-22)
(1.02614 -0.00212694 8.85117e-22)
(0.999684 -0.000264073 4.40771e-24)
(1.00052 -0.000454122 -5.94599e-24)
(1.22441 -0.0365278 -8.53936e-22)
(1.02689 0.0012676 -1.02651e-21)
(0.996464 -0.000466056 3.25718e-23)
(1.00002 -1.84944e-06 1.02386e-25)
(1.0626 0.0900817 -1.99231e-21)
(1.18481 -0.175702 -4.01418e-22)
(1.01368 -0.099926 -2.72924e-22)
(0.982992 -0.000969291 -3.98348e-23)
(0.999976 -2.61394e-05 2.28216e-25)
(0.999687 -0.00024907 -2.58323e-24)
(1.19393 -0.175549 1.13309e-21)
(1.00393 -0.0609976 -8.57393e-23)
(1.03462 0.0320278 2.26902e-22)
(0.981712 0.099578 3.72122e-21)
(1.05345 -0.11881 3.87873e-22)
(0.998559 -9.93585e-05 -5.83721e-24)
(0.999976 -1.22633e-05 -2.66947e-25)
(0.959176 -0.0691063 6.82706e-22)
(0.990132 -0.137743 -9.25478e-22)
(0.99977 -0.000279005 2.97912e-24)
(1.0129 -0.026201 6.67944e-23)
(0.991357 -0.032949 -3.20152e-23)
(0.994689 -0.00273771 3.13027e-23)
(0.998501 0.0261083 -3.13984e-21)
(0.998537 -0.000642505 2.09152e-23)
(1.06899 -0.0481244 1.41568e-23)
(1.13663 0.147746 -1.88453e-21)
(0.991075 -0.00400513 -9.13406e-23)
(0.9213 0.0814874 -6.25141e-22)
(0.928483 0.0387116 1.90533e-21)
(0.999965 -6.08817e-05 -8.63572e-25)
(0.999972 -0.00086513 -2.27157e-25)
(0.979809 -0.00119615 -9.41446e-23)
(1.01454 -0.0050525 -1.86943e-22)
(0.953789 -0.00270418 3.5427e-22)
(1.00589 -0.00488834 -8.11868e-23)
(0.991403 -0.0040136 8.51113e-23)
(0.999356 -0.000587536 -9.07588e-24)
(0.960616 0.103709 -7.33783e-22)
(1.04851 0.055899 -2.51562e-21)
(1.00259 -0.00274918 1.44014e-23)
(0.853739 0.0446505 -1.28016e-21)
(1.00002 -1.54272e-06 -6.89024e-26)
(1.0243 0.0071598 -1.78426e-21)
(1.01173 -0.127643 6.26361e-22)
(1.03874 -0.0907085 2.61271e-22)
(1.00011 -0.000247576 -1.06481e-25)
(0.951425 -0.0014882 2.88607e-22)
(1.02182 0.00628289 1.00086e-21)
(1.01419 -0.00542366 1.54895e-22)
(1.03099 -0.000301373 4.50895e-22)
(0.999491 -4.44781e-05 1.7011e-23)
(0.999459 -0.000587609 1.07644e-23)
(1.03531 -0.0503087 3.62869e-23)
(0.996069 -0.00155823 -1.0245e-22)
(0.98554 -0.0146663 -1.70245e-22)
(0.999024 -0.00419461 1.42135e-24)
(1.07265 0.047694 1.30969e-21)
(1.00014 -0.0250265 -1.58214e-23)
(0.994379 -0.0058157 1.72722e-24)
(0.91181 -0.0398296 -8.11371e-22)
(0.994245 0.0839939 4.21913e-22)
(1.12498 -0.00974273 -3.51773e-22)
(1.02512 -0.00762679 7.02657e-22)
(0.999549 -0.000214998 3.22994e-24)
(0.999423 -0.000384401 1.4608e-24)
(0.980162 -0.0268265 4.09306e-22)
(1.00113 -0.00146038 -1.41572e-23)
(0.997043 -0.000820258 -5.81844e-24)
(0.999977 -2.50778e-05 -8.63244e-26)
(0.999643 -0.00226461 2.83084e-25)
(1.02123 0.00576476 -3.89015e-22)
(0.984932 0.0730753 -3.6449e-21)
(0.999855 -1.83476e-05 6.93992e-25)
(1.10651 0.148884 -3.65632e-21)
(0.999995 -4.92026e-05 6.49179e-26)
(0.996316 -0.00337075 4.32965e-23)
(0.99999 -0.00011267 9.15533e-26)
(1.00592 -0.00423051 -3.59485e-23)
(1.20884 0.0453728 -1.30731e-23)
(0.999955 -5.1148e-05 7.34645e-26)
(0.999954 -5.48079e-05 5.17336e-25)
(0.9355 -0.0626761 -3.94004e-22)
(1.00001 -1.06836e-05 -2.12342e-27)
(1.05652 -0.00699348 1.11531e-21)
(0.989611 -0.0529568 3.30642e-22)
(0.999975 -0.00076041 2.69969e-25)
(1.06468 0.0731664 -1.55181e-21)
(1 -3.52063e-05 -3.99478e-26)
(0.999548 -4.60522e-05 1.48605e-23)
(0.999899 -4.21535e-05 2.43861e-26)
(0.994586 -0.00582257 -2.63248e-23)
(0.999628 -0.00180521 -4.49008e-24)
(0.992891 -0.000382265 -2.95751e-23)
(1.03453 -0.151801 -7.27523e-23)
(0.99967 -0.00175751 2.99325e-24)
(1.00475 -0.00396729 -2.79878e-23)
(0.999972 -2.95421e-06 -4.38431e-26)
(1.02248 0.137282 -5.87324e-21)
(1.06742 -0.0499664 2.29876e-23)
(1.12803 -0.00925893 -1.66683e-23)
(0.957291 -0.00802762 3.83079e-22)
(0.973074 -0.00550173 -6.92898e-23)
(0.998992 -0.00452773 3.95929e-23)
(1.00331 -0.00305211 3.90901e-23)
(1.03744 0.0665916 6.71872e-22)
(0.982962 -0.0477296 4.90113e-23)
(1.08874 0.110712 7.89257e-22)
(0.94631 -0.0186552 -7.05428e-22)
(0.996181 -0.00325632 -4.08867e-23)
(0.999989 -5.19599e-06 -9.68927e-26)
(0.993526 -0.00337551 -5.76428e-23)
(1.00406 0.13085 1.50146e-21)
(1.05654 0.0793298 -3.56349e-22)
(0.986951 -0.0724984 2.81093e-22)
(0.925184 -0.00832547 1.66193e-22)
(1.02647 0.131429 1.57093e-21)
(0.990209 -0.000705497 7.65525e-23)
(1.00197 -0.117747 4.9967e-23)
(0.999991 -0.000107772 1.6411e-25)
(0.98823 -0.05341 4.1481e-22)
(0.999059 -0.000266178 -2.16557e-23)
(0.86539 0.0754413 -3.70773e-21)
(0.987739 -0.0971421 -6.51291e-22)
(0.999902 -3.78113e-05 1.28086e-24)
(0.920551 -0.0272891 -4.32924e-23)
(0.983186 -0.0507199 2.14974e-23)
(1.02555 0.0708254 2.39384e-21)
(0.997085 -0.000895142 -5.483e-23)
(0.980499 -0.0492204 -1.48265e-22)
(0.9976 -0.0126896 -4.70442e-23)
(1.00164 -0.0273751 -5.16599e-23)
(0.998575 -0.000653724 -1.42274e-23)
(1.02461 0.0694363 -2.89729e-21)
(1.1055 -0.199143 7.77716e-22)
(0.979915 -0.0213222 -1.19061e-22)
(0.984731 -0.0183019 2.50248e-24)
(0.985077 -0.00612798 -3.72643e-23)
(1.00587 -0.00230249 -3.28989e-23)
(1.02795 0.128454 6.14976e-21)
(0.979619 -0.0172881 5.37761e-23)
(1.01265 0.0380537 1.56098e-21)
(1.00304 -0.00245269 2.97188e-23)
(1.22033 0.015803 -2.77865e-23)
(0.941366 0.0836942 6.30656e-22)
(0.990011 -0.000550408 -2.65694e-22)
(0.999743 -4.84605e-05 2.89793e-24)
(1.03666 0.085827 7.26316e-22)
(0.995653 0.10752 -5.49694e-21)
(1.03395 -0.0485492 -3.78301e-23)
(1.09634 -0.0289342 3.6435e-23)
(0.995113 -0.0160043 -6.00682e-23)
(0.957973 -0.00724689 -2.27265e-22)
(1.07011 0.118666 2.28174e-21)
(0.957378 -0.0696225 1.12761e-22)
(0.999973 -2.51017e-05 2.965e-25)
(0.991529 -0.000135824 -1.35514e-22)
(1.00004 -6.57959e-06 2.91163e-25)
(0.994939 -0.000319837 1.01451e-22)
(0.999972 -2.63863e-05 -4.64078e-25)
(0.998389 -0.0177064 7.95285e-23)
(0.998924 -4.31173e-05 7.72727e-24)
(0.997011 -0.00663484 5.25546e-24)
(1.22146 -0.0161739 -1.28862e-22)
(0.999336 -0.000449776 7.76636e-24)
(0.999441 -0.000230628 5.28312e-24)