/*--------------------------------*- C++ -*----------------------------------*\
  =========                 |
  \\      /  F ield         | OpenFOAM: The Open Source CFD Toolbox
   \\    /   O peration     | Website:  https://openfoam.org
    \\  /    A nd           | Version:  7
     \\/     M anipulation  |
\*---------------------------------------------------------------------------*/
FoamFile
{
    version     2.0;
    format      ascii;
    class       volScalarField;
    location    "29";
    object      p;
}
// * * * * * * * * * * * * * * * * * * * * * * * * * * * * * * * * * * * * * //

dimensions      [0 2 -2 0 0 0 0];

internalField   nonuniform List<scalar> 
117990
(
25.5364
-0.0486526
10.0268
2.83746
9.22604
-0.0144637
43.8193
19.2911
-0.28735
-0.0507581
-0.511364
0.431047
6.11747
84.7745
-0.278782
78.7692
-0.0763965
-0.534595
42.1718
9.33463
19.0873
-5.04128
-0.556917
4.19489
42.4026
37.4179
13.4806
24.3457
-0.0930607
39.9689
-0.342575
38.2635
17.6343
5.5209
41.344
-1.62957
43.5201
-0.0676644
-9.05899
44.75
38.3527
-0.535014
16.1543
-1.67654
27.3904
84.9951
17.6696
12.4989
9.82867
0.389427
-0.000275492
-3.56274
39.1285
-0.0263985
9.68061
39.2308
37.1985
40.9253
26.9518
11.4451
-0.102687
4.42044
-1.04398
11.9188
-0.210257
3.91091
5.8988
34.8974
13.2957
36.1739
43.2032
34.7786
44.691
66.6146
22.4469
28.6627
27.8583
3.25184
43.7651
34.2937
34.3745
-0.2045
25.7985
23.7517
-3.11001
0.41368
14.3846
-0.0679069
37.6076
-0.065512
-1.20051
4.51293
-0.0963779
-1.28857
-0.603908
0.92543
-0.661998
25.2373
12.1007
37.605
-0.103809
26.977
14.9774
8.06416
43.3353
19.3694
45.1052
18.721
19.5998
-0.0764329
34.3933
-0.656375
27.9681
16.861
34.3905
13.6782
-0.515138
42.6334
0.0284459
34.6976
42.5347
78.8412
10.2758
28.6313
-0.00901924
40.2647
4.55431
30.2513
-1.99178
30.4531
24.7763
0.620524
40.6843
0.41108
0.0295324
41.601
41.6553
17.7137
9.82498
4.38166
27.7685
13.5029
0.115808
39.4031
25.1036
-0.000399464
22.0634
4.59932
34.9566
5.80299
19.2146
28.3136
4.40231
-0.0088617
-3.51231
17.6127
-0.0737036
31.8134
34.5869
19.5106
27.591
21.9273
-1.02893
19.2092
15.0216
-0.993177
29.2217
20.3003
31.6062
14.8647
12.5894
17.5894
-5.1523
80.9999
19.7354
33.7007
81.3362
2.06612
20.1756
9.70243
22.4196
22.562
41.4894
39.569
45.1049
-0.0418926
1.59388
42.2173
27.9251
-0.900527
2.12832
13.1736
42.9009
18.823
37.5784
18.6796
81.5072
-1.6977
20.2438
22.2829
40.4744
44.4645
23.6597
-0.0777202
0.870844
30.8669
-0.440571
-0.204795
30.9771
20.8256
81.9111
45.0428
42.4222
-0.0635342
20.5564
19.0699
32.9599
17.7331
84.9251
-0.215045
19.6614
16.6153
11.3213
38.7801
-0.027945
40.5833
19.4297
21.8303
18.4692
42.6466
25.7245
23.9521
29.8402
19.7593
24.4755
40.5698
1.10688
12.8334
20.0587
-3.62351
7.43554
24.1386
19.4618
11.2779
-2.05432
6.1841
37.0312
44.2791
20.3084
63.4952
42.8387
-0.482128
39.4427
5.4413
31.6228
22.5646
24.7481
24.2623
0.709066
19.072
22.5934
85.175
39.6345
-9.57504
19.6643
2.96278
28.9812
-1.95823
31.5599
24.7675
-0.21993
28.0284
9.68437
24.1696
4.56532
14.9831
25.876
19.8713
11.9914
18.101
19.2797
-2.02448
2.84901
30.5135
0.551451
20.0505
40.7752
38.8442
24.9845
-7.79368
26.8193
-0.0704581
24.255
44.9976
0.0701639
24.4341
-0.0720773
38.0719
7.59505
24.3497
83.3317
19.312
-4.10693
6.70956
17.2822
35.1674
23.7614
21.6644
-1.85989
20.1908
-0.752825
39.7746
35.5024
20.0919
6.02657
14.7726
42.8963
6.17841
4.25269
21.7638
29.8234
-0.203341
23.5147
34.6011
35.8344
31.4315
17.8055
37.7325
83.5121
24.5236
-0.554022
-0.0708434
0.0585846
-0.113295
39.3834
4.2507
32.4277
-0.211174
-0.108188
1.4756
10.2728
36.5863
12.5014
11.1535
7.60302
8.29114
12.0545
28.8071
25.6608
11.9653
40.8591
42.0905
22.4581
2.07737
22.1803
20.723
25.5656
-0.00106744
0.933101
27.5475
42.1209
16.312
43.5215
37.5548
28.1138
-0.000937671
3.63518
16.4519
11.3499
-0.00431287
15.5222
31.5309
43.3315
-0.834818
32.6333
12.5336
14.8077
0.381984
-0.0805477
28.0166
24.7331
19.6953
16.5268
27.4981
20.0188
-0.328727
30.4195
67.6337
9.16959
20.9217
38.0964
43.9882
14.5485
24.4102
16.452
0.797279
-1.32402
3.53813
9.58386
12.8936
22.7218
1.2205
32.7833
44.5389
-4.837
25.2867
0.0300423
11.1283
32.3764
-5.1448
18.1088
-0.835625
8.40513
3.24247
-3.18756
11.837
9.56272
12.2936
0.0789412
19.6934
-0.00104321
82.1334
0.631543
42.2013
35.9278
42.3381
25.6477
43.1219
37.0199
4.11934
6.83472
0.0351167
-0.280287
21.0438
6.65135
11.0957
25.9349
0.617106
-0.351594
0.369004
3.10731
30.6667
25.6201
12.9933
0.520318
15.6714
6.06417
-0.322541
43.9015
33.6321
45.062
0.0873423
0.438731
7.12344
20.2894
5.57248
18.3903
44.4672
40.6459
-4.67863
32.8709
6.0602
9.06425
44.7741
39.9153
18.9038
8.85346
80.8627
-4.58749
0.088138
19.7539
66.2148
20.0526
67.266
25.8307
35.805
-0.00349137
8.91405
26.9035
31.1459
41.3276
-0.00238396
-0.209027
6.20522
20.0569
-0.337529
0.0944217
31.1069
41.9495
24.5549
44.9219
11.4407
42.6473
40.1419
3.38163
15.5638
76.4875
16.7763
12.7144
8.06133
-1.23778
43.7375
19.7896
42.1498
23.7941
42.1956
12.1158
10.297
6.48872
40.8335
2.16666
5.31117
5.41149
-0.0960208
25.2228
21.6562
0.750331
31.6862
-0.0239387
-0.0117689
6.93722
23.9961
2.36842
11.7337
17.9494
5.18163
-0.0941552
43.1264
20.9813
20.458
12.812
22.6409
9.45374
0.0179121
-0.00236825
60.1075
76.6689
23.0206
0.0162127
5.71148
36.643
12.2922
27.6749
-0.200698
20.8506
22.2256
0.241093
-0.0692185
44.1434
6.06639
8.91975
19.5956
1.1467
44.8828
18.2736
11.3012
11.0073
11.8578
37.0457
0.846699
0.0265582
13.0016
39.495
42.6413
43.8923
25.4787
10.7084
44.4477
21.8433
0.712214
28.4284
10.4862
31.1138
7.96237
32.9225
3.91373
43.8184
1.63064
6.29926
11.9339
44.8935
0.687882
20.077
18.4274
40.5811
19.9886
5.39726
14.3999
0.143799
-4.85398
5.19081
24.6356
20.2857
8.18267
31.746
44.6111
41.8532
43.1368
43.0117
24.4708
27.1721
21.9938
44.7958
45.0588
8.89493
4.09833
42.6107
0.0432218
-9.34286
15.5505
13.9034
6.12612
31.1893
-0.258726
6.94879
42.3443
41.3229
-0.372856
0.87744
30.7124
5.22383
-4.38325
40.1216
41.1889
-0.0592101
17.8528
19.4481
1.80983
24.3474
36.9026
41.538
5.3282
-0.00303444
44.8233
24.2767
-0.377051
30.5705
17.6119
3.9818
-2.3914
-9.59514
6.33223
-0.297219
22.3343
0.894721
-0.301525
13.6735
27.9133
-0.46474
17.835
3.91452
20.0028
44.9506
0.0546247
36.079
22.9541
42.6471
28.2242
-0.700713
-0.09603
-0.552558
5.53851
40.0558
12.1354
3.7775
41.7294
73.7862
74.3964
28.1777
31.0016
42.8254
-0.634636
20.1041
14.0487
0.577967
24.3421
3.88284
25.2865
17.8527
38.2271
46.8024
1.58172
14.7142
20.6617
33.96
36.358
22.6852
0.000296479
44.8697
5.86245
83.9426
11.4592
27.1784
17.8784
13.0138
6.85696
-1.1345
43.9325
16.3136
37.2281
64.8426
26.0067
-0.0697148
19.6905
18.1296
19.9726
30.4398
19.5815
0.928827
15.6957
-1.24993
-0.0622525
12.0363
0.796882
41.552
0.590066
42.323
15.2274
25.5519
9.28602
38.5917
12.4797
42.1658
-0.00413242
22.7082
6.68595
8.97261
19.4348
0.0359159
20.1725
34.1979
16.3324
0.712176
12.6802
40.0062
41.5927
7.5509
-0.53746
30.8493
0.451844
42.6426
22.2944
31.1287
42.1432
0.433533
25.0168
43.2311
-0.30489
32.9241
42.4288
-2.41798
15.008
1.04189
17.7635
12.0649
-5.1913
41.5946
16.5927
32.2312
35.7462
-2.95774
0.319777
42.3529
3.55798
5.66733
0.828264
41.5781
64.3127
40.444
5.98381
1.51992
6.02528
8.83673
18.0533
31.4662
29.6467
39.8874
-0.379303
9.77841
0.0108908
6.41806
-0.00443406
-4.33717
18.8309
43.8532
-0.0987988
41.9891
-0.655677
24.4944
-0.778213
67.0165
13.0892
37.3165
-0.36469
20.9553
24.5297
11.4902
-0.0731696
1.40975
-0.484689
18.891
8.30929
-1.16386
45.2906
0.297713
0.951115
19.5977
-0.689203
44.4369
36.1395
1.27717
24.2701
19.8241
-0.0105652
13.8398
18.3297
0.959462
22.8902
5.99245
31.7188
4.46397
1.55329
24.0476
-0.0609185
4.93363
-0.625075
44.8014
-1.35175
0.435966
-0.37819
27.5845
40.9104
3.69191
1.7489
41.4173
44.5392
8.98938
34.1488
12.8385
62.9843
0.330447
-0.0151635
39.7098
32.8009
0.312418
32.2312
-1.00338
-0.0378065
35.9615
18.3575
46.2712
69.4469
20.2461
-5.18303
5.52656
12.6366
42.756
0.022668
18.9161
35.0208
0.148299
13.2966
23.8839
41.3809
15.1677
14.7664
36.1661
31.0858
20.845
16.19
44.1679
32.7587
1.60994
18.7723
40.2327
-1.39554
-0.597635
17.3745
7.46314
11.3179
35.5948
-5.20282
-0.0362754
-9.47117
10.4452
17.6149
42.1791
14.6513
22.21
1.32639
41.6222
16.2615
35.9423
16.2655
39.4313
37.3221
19.6705
39.4018
42.1763
-0.620479
35.6246
42.3728
17.4255
2.45376
19.3566
41.9841
24.4801
26.0672
44.2591
7.67818
3.96082
-2.3564
0.906405
27.3173
33.8894
0.932993
43.162
38.6266
30.7442
-2.01771
26.0637
66.919
18.5693
44.5888
36.6487
1.18969
33.3207
66.3469
3.4121
37.1435
70.6028
-1.45106
35.3623
0.782785
42.2528
6.56591
40.1375
26.4446
-4.33091
43.8485
-1.20048
20.7746
14.7733
-0.371947
15.3246
14.6635
10.2192
18.6699
5.10702
1.99906
31.7588
13.1059
-0.602521
19.6154
84.0213
42.852
28.861
45.4418
-3.59988
6.53751
43.7673
22.5896
-0.067692
2.16578
19.6124
1.49574
16.6178
-1.93221
36.0048
-7.27921
29.9055
59.7137
35.3384
30.2685
6.42213
9.37003
-3.80742
32.9246
19.047
0.000243654
-1.46403
-0.591451
36.1433
5.26184
-0.00741076
16.5358
13.7356
19.0811
40.1686
37.2552
12.3948
20.2697
6.1098
39.1968
18.9084
37.7574
5.19692
20.1398
20.8094
9.52021
-0.362359
0.838458
-0.0588488
18.8259
-1.17757
12.3611
1.63932
34.5617
0.0220724
2.10355
0.168389
40.0759
14.7991
43.7653
29.5734
38.7309
-3.12642
16.5302
43.7844
29.0593
16.2875
34.809
-0.354905
7.43527
-8.94046
28.7987
0.0234908
24.3272
13.105
19.2675
19.7072
42.4403
10.4006
-9.33567
40.1056
9.81818
10.9412
6.29433
-0.00679672
-0.3388
-1.29155
31.7035
-0.700015
4.21092
13.3137
42.4479
40.7327
20.4051
0.418547
15.4472
31.3991
7.888
0.394942
11.5836
29.416
0.0664557
5.35912
30.952
44.9326
12.5154
78.8556
37.6257
15.8983
0.600311
70.0787
28.9589
2.57228
0.104187
-8.74277
-2.02362
10.1675
-0.0766113
-3.48884
33.2583
29.7468
17.9592
18.5307
12.0758
-0.0805469
40.0504
-0.609654
24.4973
41.1836
-0.182283
27.394
7.1776
41.9505
34.9601
19.0058
41.8228
36.5391
10.3363
27.1555
0.419412
2.01888
76.8158
-1.99041
-0.368293
25.3758
-0.950309
-0.157477
11.3764
-0.451658
19.4119
18.0616
3.46191
-0.448437
-4.14438
3.40677
-0.104282
39.7426
29.7402
21.1925
-1.06498
69.991
19.2296
31.0907
11.7989
12.4225
42.0728
35.1367
32.4375
19.7989
3.582
0.0791365
32.3366
43.7849
29.4355
-0.0901099
-9.88676
0.40802
0.115123
40.045
1.76896
30.8858
-1.22032
44.8483
22.1859
12.2746
22.9311
-0.00179566
42.4406
-1.06278
5.47305
35.1774
42.6178
36.4814
1.71884
2.06151
35.7907
-0.0255297
37.9533
5.51284
44.8027
34.378
13.4074
6.55045
0.0772764
35.4811
16.4948
16.5868
17.4209
13.8934
1.36524
24.2632
-3.05962
31.8197
39.957
10.2062
42.4062
38.3667
-8.27046
-5.06076
30.7948
14.2815
33.346
40.8146
32.332
13.2169
0.0126427
9.015
19.476
16.9377
21.0653
35.041
44.767
-0.587476
40.4982
-0.00384623
20.7487
4.00257
44.113
80.5094
-0.179239
42.0727
-0.0347341
5.20263
-0.104212
-0.00261166
-0.00213663
44.1955
9.61209
19.909
14.8825
0.871816
53.453
41.3354
10.3226
3.55769
-0.82382
-0.104325
2.02129
25.6602
30.0188
42.197
-5.04248
40.1039
16.2415
20.5494
27.9843
2.00812
34.6737
0.0478027
4.25515
2.0609
13.3888
-3.28169
42.0839
3.85263
0.00202427
14.245
5.11909
44.5882
-0.0512777
3.71234
3.62227
20.2256
24.5777
18.3679
87.547
37.7979
42.4317
-2.02167
3.97028
19.9564
-1.15025
38.6956
17.3452
-3.41155
27.3933
-7.76896
2.29112
14.115
-0.472997
10.5084
52.5762
9.18945
31.854
44.7674
42.6596
43.2654
-0.0177765
2.48066
0.0437094
34.6716
30.218
40.333
12.0117
17.1105
45.5118
18.3939
23.4996
12.2151
29.3537
17.6707
0.0270881
37.0884
-0.78928
39.3304
32.8268
30.3955
0.390309
3.91447
25.2376
-0.00989018
38.8998
7.32692
20.2612
26.8113
31.5881
43.4684
20.7081
44.9427
41.399
23.34
-1.18328
30.0692
33.2648
6.30727
31.1958
-2.13238
24.5374
26.9428
10.2418
35.0054
0.448828
39.9879
41.4715
-0.0776407
4.33374
0.0961898
38.024
5.42067
20.8575
4.24195
24.5988
37.4798
6.54615
21.2014
5.3669
17.704
11.8273
-0.0635655
1.44609
23.9081
65.5979
16.397
-0.0400589
23.5634
-1.16744
5.94009
27.4909
42.8461
10.7054
22.5812
40.4259
10.9543
8.97353
23.8188
9.08827
9.04967
22.7327
32.0409
19.7738
-4.95826
-1.85826
23.2499
0.404252
-0.561211
0.0936329
37.6639
-1.32339
2.5138
24.3175
-0.0133289
6.84793
-0.300269
44.1145
-0.00386344
5.10087
-0.213104
7.34455
42.8018
11.6617
17.6328
-0.0856715
-0.0528729
22.3
6.62036
-0.369155
43.3127
19.5406
-1.87535
72.3513
5.37148
2.0827
16.359
11.1972
-1.17135
34.272
-0.447786
19.397
40.8286
-0.35103
23.0191
-0.661319
19.9249
45.531
28.1169
-5.18286
0.361252
10.8335
9.02867
11.6447
24.3125
4.27587
-1.00427
-0.213528
-0.437559
18.996
18.3772
38.7091
10.4558
4.47315
33.1553
39.3833
28.4027
-0.425281
19.994
24.2957
30.3997
26.9711
15.4436
38.056
38.1785
19.5373
26.0082
40.7997
19.2497
0.366292
74.8657
82.8689
26.1146
12.9452
13.8362
4.39442
31.9287
18.2525
43.9811
19.4764
43.7903
65.316
-0.888206
13.3526
6.40621
0.0364321
-0.0756795
42.902
-0.139521
28.6691
14.2962
22.3865
44.3327
-0.60191
23.188
29.9239
-0.325626
43.1378
18.5308
-1.05535
30.2406
37.8415
-0.00514199
31.3649
1.97711
30.3669
25.4321
63.3407
41.7129
-1.0527
-0.935043
40.2968
44.0205
44.0339
5.11064
23.5013
44.0523
35.7325
19.2053
-0.00946015
39.2686
22.0527
12.1007
13.3538
40.0616
16.3574
4.39554
28.7805
-0.332386
22.1021
37.4584
44.3752
38.7659
38.7893
39.1933
30.4185
-0.444853
-0.783019
-1.08264
-1.16883
38.8652
39.3971
39.8672
24.6267
-5.12433
19.4324
15.6851
2.69188
5.93783
-0.770785
59.1903
11.2134
29.9392
-0.0260719
0.0279892
3.8713
0.0872277
4.08798
6.14202
26.1693
5.08468
5.41111
36.1298
65.6475
6.07958
-2.049
3.91372
-1.15647
-0.347753
5.02016
13.6367
1.05571
6.04458
29.0602
-0.0815866
30.2336
24.2739
12.1036
-0.505613
10.5278
30.0679
17.4222
35.1426
20.6799
0.902326
26.0982
16.4276
-1.31789
-0.0239674
0.417342
7.58972
42.5282
1.10419
4.06594
7.50836
13.6706
-0.610225
43.0584
-1.51196
37.9503
2.27584
-0.830536
0.386513
18.4634
76.2725
41.861
39.4088
39.436
1.83129
21.3677
-0.139199
-0.0060555
-0.934717
6.09109
43.6872
23.0465
54.1851
18.209
42.8305
31.9831
15.5811
0.000140776
31.4738
41.928
27.1374
-0.0974175
-1.10621
3.37871
43.9621
40.1178
24.1706
26.1044
38.7914
4.87222
-0.0956609
-0.0648973
30.1057
4.8931
36.508
-0.0265645
26.1284
10.3824
0.110762
39.2862
22.0152
36.6793
-1.71813
1.9829
31.4595
25.0163
28.6695
13.2653
4.62497
33.5132
4.00786
24.8227
40.7709
39.843
-1.22864
38.1068
-0.00208451
1.0801
40.5236
14.5442
30.1639
31.0565
5.3914
43.7555
29.6294
-0.0636373
78.5411
5.67437
5.90808
-0.467387
-0.198402
58.6307
9.74536
4.45935
16.36
8.38315
38.8188
42.6027
0.311013
-2.1018
-0.689664
22.7349
-0.505815
0.112506
-0.106733
39.6976
23.9324
5.8101
21.0102
32.1276
71.5837
42.514
39.1898
44.2081
-0.0615807
-8.03227
33.49
13.9926
18.3462
-1.34583
41.8068
5.6685
19.24
3.3415
31.108
70.8939
29.963
-0.00150139
34.728
-0.186604
0.0147653
28.462
-1.64716
20.9168
38.1976
16.775
4.5336
-1.8537
41.1639
44.4608
43.5447
44.8072
61.7259
-2.1276
-0.991194
25.6738
19.921
10.3297
-0.242842
20.5334
8.4956
18.5233
7.39537
-0.0403203
13.8595
26.3854
42.7551
40.0851
-0.0482585
34.5924
3.27358
84.4929
75.2258
15.0173
43.6812
-0.675261
57.5117
29.1644
-0.587837
0.200107
32.9934
39.2001
17.8803
25.9
32.8505
12.2628
-0.0142951
-0.00890859
32.6582
24.5423
20.2929
-0.992382
36.6762
-0.236856
-0.00559443
-0.86927
8.9408
14.8707
-0.0694793
20.8797
35.3301
41.4502
1.84077
37.3203
6.3066
41.6161
-3.21418
21.0414
0.101275
30.7196
32.6028
31.6897
36.2496
43.1215
14.4877
20.0282
44.213
-1.572
40.6546
-1.20817e-05
36.7089
27.1473
39.4047
0.382366
-0.0781729
29.4905
39.5904
38.9305
0.0308607
3.4768
36.2563
4.16109
-1.4194
31.1322
23.879
20.2713
43.2765
-2.07601
29.2683
11.4963
31.6158
-0.435207
41.5177
38.1304
31.2466
-0.880594
38.1548
17.8346
26.8263
37.1118
0.465761
21.5929
26.488
23.3751
-1.94615
17.0289
13.8544
-0.0574292
16.2144
-3.18079
5.53202
18.5104
-1.81946
4.2103
29.0542
0.132861
33.0865
75.4507
39.4432
-0.432495
30.2086
-0.103011
1.11744
13.7616
-0.165821
10.6691
6.84786
75.7704
43.1389
20.2268
20.0334
36.3368
45.0484
-0.101447
17.1498
28.0087
28.2583
-0.0754872
38.2153
17.3907
27.8793
0.339957
13.3552
-0.193677
39.2515
-2.24567
39.8006
0.39687
75.8969
-1.29514
-0.029051
44.7962
-0.216777
41.9244
37.4277
30.6621
-0.699516
42.1242
42.8638
45.1408
43.5407
43.9793
40.7591
-0.0754117
18.6596
41.9351
0.766138
28.6747
36.9497
-0.0441631
0.0862924
42.5154
29.9062
32.0861
16.6985
37.5216
-0.467836
0.55587
18.4541
18.4461
18.6828
44.8091
40.4218
19.9351
43.326
43.392
27.9771
42.4368
6.35942
42.1003
10.6984
30.3438
6.30065
16.3404
15.0463
20.8113
-0.0731649
20.4766
-0.0864098
41.8145
32.5745
-8.1837
3.76892
20.6608
25.1055
-0.207764
12.2917
20.1304
12.6009
20.3052
18.2444
-0.875346
11.835
30.5302
0.333184
29.1928
-0.0859567
38.5912
4.26498
24.2439
0.326849
-2.52864
17.9703
13.2611
23.6264
3.88828
32.8315
20.7858
74.2715
-0.345041
28.5984
30.5927
16.644
43.3135
1.2287
78.199
17.8063
10.77
22.9625
0.0948268
9.85658
13.108
-3.57498
-0.337441
-1.02045
37.7997
-0.0015244
0.317069
0.137704
-0.110762
-2.10399
42.3454
36.0333
-0.634743
24.8296
-0.110689
24.0307
13.4893
-3.43439
29.3394
-1.79585
40.3839
13.8303
4.58635
13.2051
-2.03968
24.9745
-0.510468
45.0411
6.13357
28.8025
19.9614
-0.0807813
37.8729
-1.04818
18.5348
42.4905
4.30918
20.2426
41.8559
56.8563
19.9342
17.008
30.2599
2.82341
28.0168
-0.174951
18.1891
3.52842
42.4721
24.2286
35.0288
29.4663
-5.19723
30.6845
25.4725
24.589
41.2174
6.94076
21.1999
-4.87266
1.20351
-0.319113
22.8028
36.477
-1.42559
16.9245
17.3334
4.04377
17.9934
-0.544787
0.901747
-1.82148
-0.216886
64.2353
4.86592
40.4879
-0.00488631
-0.811968
0.0997114
32.6184
-0.218845
38.7292
35.2414
41.9507
0.800372
15.0949
10.6625
7.2838
2.56948
35.08
20.1392
20.0075
6.52288
-0.663159
38.6742
25.9491
20.9168
-1.17479
0.511738
34.1957
-0.364785
13.5834
30.501
42.0141
39.6975
-3.4342
0.0914097
14.8808
-0.348595
0.134
20.0718
-0.00440169
15.5955
16.4221
-0.0458991
0.0340378
24.9893
23.1286
19.217
30.3844
0.057771
35.4321
23.7398
20.2214
0.320061
42.1557
-0.629627
42.9933
-0.866719
22.4103
-0.0303896
13.8055
42.0111
11.0896
23.3996
19.8953
0.235266
29.03
5.73315
24.7071
18.4563
12.8015
35.6646
30.5856
24.4312
34.1294
2.20975
0.0618706
-0.412099
19.157
-0.0914243
5.72796
30.9363
42.5256
31.0808
-0.993656
35.6475
10.807
3.64299
25.1021
28.2219
22.2507
0.032068
33.5664
24.8937
25.4429
78.9444
82.6157
18.4275
-0.0589936
5.90025
3.62474
42.937
22.1981
24.5552
22.7474
30.2607
24.6734
41.4264
-0.188412
22.1426
10.6985
0.00359968
4.28444
31.8924
4.11581
78.6054
25.4784
30.2699
42.7291
0.91291
-0.0023265
0.0628545
19.7968
29.9577
20.0563
-3.54574
7.01016
2.82832
39.1224
-0.175402
25.0349
-1.00584
10.9464
10.3842
2.92771
35.021
20.6529
13.0256
25.7301
34.1154
18.1964
44.2365
40.368
41.753
18.3638
12.8062
54.3023
24.6808
40.1549
20.0523
0.0974739
-5.02221
-0.00428868
79.8999
-0.726512
1.10109
-5.12312
30.6091
-0.328748
-0.0948705
28.3936
15.0076
0.000962097
-0.0283035
4.93408
2.99851
0.0713243
29.5715
11.0523
19.9958
34.1887
17.4103
22.7316
26.1076
16.6008
0.438746
-0.57754
44.8721
3.03681
19.7051
0.0908132
19.5997
19.6869
0.529282
25.7307
18.0475
13.4485
42.9545
-0.186203
15.214
-0.9224
11.079
-0.649543
-3.76341
43.4851
10.1949
-0.0108287
40.6806
3.52281
-0.714068
6.78884
4.52027
29.7906
18.1816
-0.383972
-1.74354
26.7311
19.1285
0.0679157
14.8873
18.6617
28.3076
20.7977
22.756
42.2344
13.6459
33.5908
39.4613
-0.651375
11.7503
44.8448
0.000412296
35.602
23.0149
-0.003754
41.2833
43.03
2.23916
31.34
54.5207
29.5649
4.00166
16.7222
-0.00430633
3.31865
35.2892
18.2969
20.0339
-1.87959
55.2132
3.21032
-0.46729
-0.359132
30.406
42.2292
23.8203
-0.00300929
0.141626
8.27858
-1.65878
15.4343
41.3178
75.9035
16.8015
15.7298
9.80877
36.88
0.0399392
30.952
14.0729
43.7123
5.85078
33.5449
-1.89883
-0.91159
3.74615
-0.0360646
-0.0704487
34.8479
1.29506
36.2021
-0.173956
30.7056
-0.145088
20.5103
16.2842
25.3207
79.2462
23.0165
-0.0799779
36.3051
18.1616
24.995
37.5791
76.8108
20.1219
18.4369
-6.82761
38.131
10.4723
35.9897
14.3545
20.1616
0.296533
40.9572
25.8864
-0.31578
-0.0595996
39.1048
-1.07321
33.4732
30.8737
10.2642
-0.156315
13.2051
41.8428
37.685
4.19808
41.1259
34.6532
29.069
0.657936
-1.87396
26.6443
43.0181
18.287
14.2558
-1.06062
0.0848774
15.7147
26.0593
30.7794
35.4529
11.6312
6.17945
19.2196
17.9138
21.8171
31.6519
25.9128
25.6936
6.29542
-0.0782418
25.148
18.3367
7.00105
-0.454184
39.4785
40.5046
44.5027
38.4855
19.5236
39.9821
-0.431927
42.2686
15.1217
13.0712
-0.0950891
28.1956
28.3611
-1.05762
4.8253
44.2986
44.2804
6.15782
42.6378
42.4492
32.2125
18.5438
19.9076
-3.12143
41.2561
15.7089
-0.542974
-0.0135131
-0.55935
19.2791
1.73458
12.8692
18.002
6.20622
-1.10388
39.3244
23.2301
44.5325
31.544
41.3622
20.8643
-0.0442832
33.5559
5.356
1.42896
41.1455
38.7717
38.3272
32.7175
14.1585
28.6355
18.4942
0.0162421
30.5001
-0.731584
19.3854
14.9288
20.6511
-0.0271154
17.0111
35.8999
8.07151e-05
29.5025
34.2138
-0.557882
-0.462498
-1.17125
40.5344
36.8032
-0.00771135
-1.27599
0.0814522
-0.419529
6.87382
-1.25327
2.44821
2.37182
0.898304
1.30177
-0.572789
-0.553413
25.6506
-0.0418726
-0.0363573
21.4273
21.1554
25.6678
44.73
23.1398
2.99296
3.36504
-0.00168182
10.3867
16.7433
13.0914
16.6696
-0.527832
44.6576
32.16
40.6385
19.169
25.1163
18.5912
22.1832
0.0283129
20.611
12.7077
0.413658
20.8644
21.6234
-0.0936272
35.7315
39.2583
0.120164
43.3542
28.6722
13.429
14.3524
-0.0969318
35.5638
17.3741
-0.00782431
33.7707
-0.0934822
-1.08145
38.105
76.7965
1.65417
10.5424
-0.0349402
21.7361
6.35846
41.3136
29.8588
0.0982879
0.251432
4.95853
23.6937
-0.318975
13.981
1.59196
68.0952
38.6259
4.97473
-0.127414
-0.81163
20.6452
29.7649
42.6373
22.0676
36.088
6.75162
51.54
72.9917
35.0894
43.8151
-3.04137
0.910086
20.219
-0.0936842
42.5159
40.4345
36.0709
56.1027
36.0166
38.4027
37.9872
43.6861
41.2159
31.6176
7.91392
44.8276
62.4476
-1.42108
15.0066
26.522
2.14006
20.1325
-0.418951
17.3928
20.6068
7.21384
22.1235
0.088983
31.9392
12.2328
25.8318
-0.0828976
0.627458
-0.198411
-0.0200909
39.9017
37.9272
10.5188
-0.504853
22.658
-0.075465
0.120539
0.94113
-0.479123
5.68947
70.2907
12.4113
38.4302
-1.7687
36.4564
30.3264
16.9854
6.24662
1.8759
26.2955
55.8983
-1.18755
-0.0162607
10.3433
17.702
19.596
29.709
7.21855
32.8765
30.9405
3.96944
5.02446
34.6967
0.498076
-1.06962
-0.121551
-0.00720876
-0.192474
27.3449
37.0829
42.8803
37.064
-0.262412
-0.1102
-0.54951
19.853
35.8216
28.1503
65.0192
37.93
-0.192112
3.40371
20.7132
13.7827
19.1218
17.9296
17.6958
22.3933
8.26392
30.1721
7.38209
0.904583
4.63632
31.6508
11.4526
10.5689
87.54
8.88816
45.1698
42.6904
39.9525
45.1423
37.5885
23.9265
1.57965
11.0783
36.2784
40.5888
0.721611
-0.0593426
12.6968
15.1572
-0.897751
22.1447
17.5021
24.5015
43.5449
-1.13061
31.4059
23.0642
20.0366
32.4077
23.5149
13.9234
25.2387
17.3721
24.2953
3.6071
29.0459
-0.606931
23.9557
44.5306
23.1779
6.85671
0.693241
41.664
8.5695
19.6711
15.3693
-0.0734007
44.8071
35.2638
22.9187
6.30947
13.3072
16.4317
0.87454
76.3772
20.9835
16.7803
10.5753
8.20694
0.0825193
-0.282958
28.6649
-0.063348
20.1011
25.1683
17.6853
-0.394466
1.99941
0.316004
8.47471
29.6402
19.9547
31.1024
19.5682
22.63
3.60648
2.67812
36.3207
3.65137
-3.65495
36.8801
2.60502
42.1824
42.4509
-2.60993
39.6342
4.27226
19.6181
-2.60093
-1.99301
23.3694
54.1067
4.82836
25.1075
7.06212
40.6155
14.3355
11.1486
-0.543734
0.599827
44.6705
43.0451
20.4935
44.8437
-1.63856
42.0901
17.04
8.32747
32.3156
32.4429
-0.232703
-1.12826
43.7535
18.3807
-0.0737256
42.0245
38.7456
22.8337
30.1467
44.5443
42.2723
10.4604
19.9503
0.668567
10.8561
12.4299
5.80307
21.8796
0.311689
3.66509
15.5104
30.5091
40.5287
21.7112
43.5859
55.112
2.45717
10.973
25.9487
2.90395
36.009
4.85232
-1.69662
40.0035
22.2045
63.8312
-0.822029
33.1085
20.4233
-0.0633484
12.2158
-0.230954
10.3797
44.0249
39.6403
42.2683
10.8134
27.7439
-0.465783
-0.21184
1.07427
41.3281
-9.50788
12.1035
-0.226069
43.0305
32.9914
0.14719
11.2996
35.8374
-1.1482
17.7922
-0.983935
8.75872
25.5881
39.727
40.8011
32.5349
-0.28998
21.145
5.25404
18.2843
-0.244397
13.92
0.067834
23.159
0.429196
43.0376
20.0265
19.8102
43.3777
-0.210534
44.3064
-1.84397
43.7019
0.0257778
42.4004
14.3909
27.1975
26.7723
35.7983
41.1916
39.4187
40.891
77.7736
32.4399
10.342
19.9305
0.494021
53.162
43.2508
-0.478784
29.3918
24.1603
-0.422862
41.2116
30.9994
30.9103
-1.49661
-2.86581
25.4839
21.877
25.671
30.0292
7.36104
30.9009
27.8841
31.7187
31.1966
27.2844
10.0545
-0.520569
58.3518
30.0877
16.15
-0.00191634
10.9104
42.6197
42.2416
15.8279
20.5556
36.6043
-0.224714
31.3246
31.1006
41.0614
29.9988
20.4223
41.4275
2.94336
32.7646
43.6515
-1.07542
4.91239
30.1285
-0.530745
-0.246831
19.9048
0.00120956
-2.12559
-0.489803
43.1868
32.4492
24.5943
-0.0266593
43.9406
10.0182
0.0579931
43.5864
19.7267
28.8971
18.2178
44.4762
0.49968
-0.014372
-0.625821
43.7762
39.2343
17.4747
32.6101
34.0895
2.16586
28.9385
64.2442
40.2326
29.28
21.3732
15.2896
19.728
36.2441
20.08
-0.313467
28.6824
37.8267
40.6919
16.3252
30.4817
37.7316
33.6797
-0.169031
19.7469
29.3482
35.4523
0.0846757
44.961
30.7111
44.2152
-1.6723
40.7678
37.951
-1.76049
20.3501
19.6031
31.0282
0.356001
4.28775
16.7515
33.4706
60.8644
3.56107
31.5974
2.60764
3.66404
9.56398
64.0171
2.79838
15.053
23.9321
13.6475
8.91122
2.26645
0.522067
1.88282
35.5339
14.1803
39.9453
0.0763265
21.5769
1.1078
16.494
-0.212894
30.9077
0.0903607
0.0383831
35.1605
24.9139
12.3048
32.9357
19.6412
43.0893
-0.107222
11.1381
32.5604
9.4291
33.4271
0.831219
6.24073
5.1967
10.7983
31.9396
36.4163
23.0206
22.13
22.2023
4.9763
8.85695
-0.0584684
-0.496168
16.0968
18.2593
14.531
20.331
0.0372225
43.5689
10.183
-3.20726
19.3952
-0.304224
40.4743
26.405
68.7682
20.7585
20.9774
44.3616
28.0687
32.3212
2.25505
39.0354
19.9987
-0.818201
42.5931
2.15803
6.38368
-1.1893
31.4657
4.56872
41.8651
15.5113
14.6234
7.42271
37.5716
44.5716
15.2834
5.32818
-0.382217
17.8101
39.5626
-2.91707
20.0159
24.3883
-0.0455982
43.6885
-3.24596
-1.25735
27.2773
35.844
-0.7059
15.9695
0.105325
31.5838
31.695
33.4799
5.2835
33.4786
22.8204
43.9933
0.0712285
58.9406
15.2548
8.39929
8.22382
30.0777
18.4212
6.05865
-0.00689182
36.7015
-0.0062538
26.4643
5.69775
32.1277
35.9422
36.2519
0.843418
35.6911
42.1761
3.11711
11.3098
10.6627
21.8903
-0.00092513
31.3388
43.307
14.1654
0.0344542
25.3593
4.03017
22.7636
24.8191
32.0916
39.288
21.2378
60.9906
34.2575
0.630716
7.96951
-1.90778
-0.58278
41.36
26.4207
0.731084
72.3652
-3.06871
16.4617
0.432228
18.8951
35.1894
0.0316352
0.149792
10.1189
-2.15654
-2.53762
16.3978
21.84
3.30987
38.8347
-2.96618
6.03942
26.9619
19.2751
-0.969796
5.12006
11.6496
16.2385
32.6863
5.96768
16.3799
44.4599
15.2801
86.2002
18.9761
-0.32093
1.87976
20.3762
43.2887
66.6141
8.64232
-1.82192
27.3552
34.2837
5.75816
0.346632
0.0671344
37.7239
0.433563
31.1638
1.0432
69.4739
0.83665
42.1953
-0.387384
-1.03411
-0.173688
16.4289
6.03299
16.1693
0.991931
40.9796
27.8981
39.3697
43.0729
35.6078
7.62794
40.4922
7.87093
16.9983
18.5929
7.14096
0.456236
-0.0473858
41.3715
34.7529
-0.453368
24.8243
35.0207
-0.0321895
18.601
-0.883665
31.3652
40.7773
37.067
25.9586
21.8845
14.7916
15.3186
10.6416
1.03564
15.119
14.206
0.912389
7.7475
23.4257
-2.74264
73.036
16.6874
-1.16316
39.5043
26.5659
42.8164
40.9048
11.3189
23.9142
4.35452
-0.0115381
41.6207
25.6332
33.4429
14.1441
36.0522
55.5339
-0.0967254
13.484
18.9827
25.7373
-0.202257
40.254
18.2858
33.0125
-0.00513472
28.428
-0.387357
16.2019
23.6987
33.1294
9.80549
0.786383
2.02852
37.8969
28.892
-5.57461
-0.252851
18.8424
37.271
30.1367
30.8416
32.2735
39.9922
19.0934
7.67053
24.0134
13.6413
26.7931
44.4009
1.92371
78.3104
38.2309
0.63863
16.2644
45.9477
13.2486
7.9767
1.59809
23.5712
8.09145
20.271
10.0749
20.0531
22.2998
30.1037
37.2331
41.2066
-0.278073
43.9058
36.0192
33.6578
11.6327
-1.16641
33.8139
40.2191
44.0432
-0.0225743
23.6282
34.259
35.7827
-2.92813
0.417246
20.411
15.0162
-0.318975
-1.86541
11.8373
3.91914
13.7919
1.95011
-0.898373
27.6335
1.67451
35.4511
-0.535452
-0.812503
24.9829
15.1123
18.8849
25.8977
2.05373
5.54932
17.8862
34.7461
20.0992
30.3211
41.7447
19.4293
3.6981
4.30999
33.5576
-0.660684
38.3556
23.9427
1.91458
20.9276
17.4932
24.9656
32.6201
42.4864
40.6188
-4.86503
29.9098
17.5189
6.34933
5.46866
0.063616
16.42
-3.07793
25.8813
0.208477
76.1653
22.9122
29.742
40.3119
78.7191
0.0393119
42.2754
-1.21493
0.192731
23.0632
16.4465
-0.534696
40.6093
77.3139
32.446
6.46961
13.0098
42.9603
11.9323
79.5203
-0.0341378
-0.309556
34.5082
41.5658
13.7131
25.5584
42.743
3.60027
-0.470124
76.7394
19.0183
-0.800117
-0.770647
40.0528
-1.11488
37.3026
-0.332568
22.8532
-1.04527
32.2843
6.91145
10.6869
8.67066
35.3799
2.26087
19.3446
29.6647
-0.240053
14.8115
38.9857
27.0038
30.2041
-0.0873986
35.929
5.47794
26.8714
42.8055
40.8617
-3.62654
41.4212
3.62945
-1.32001
-0.132744
14.339
62.6319
42.1106
-1.82252
6.88019
31.0088
17.2814
43.7893
36.836
41.1223
-0.0902324
29.4968
16.981
23.008
3.08136
-3.20296
40.8881
1.95318
83.8775
42.6734
-0.0165661
36.7407
43.5288
19.2962
-5.12154
15.9889
26.7094
42.9219
19.2838
7.01622
43.413
-0.385692
32.1966
43.6607
17.8626
8.65281
28.7577
27.8764
30.1672
32.9054
21.6633
32.4881
18.4025
-1.32835
34.0635
-0.1162
39.64
6.02598
32.1962
26.1731
42.9166
0.415719
22.1709
17.4258
2.44395
61.2219
32.5825
0.159988
37.6237
24.2782
4.07063
4.78603
27.0932
1.24173
10.8004
21.4174
-0.332985
3.47594
22.0668
-4.59927
41.3138
0.00102585
28.2927
-0.254335
20.2708
42.5796
4.06101
42.9457
-0.531933
-0.000523139
19.1638
-0.573524
-0.37278
30.4834
42.5759
20.6859
5.58835
14.6783
17.0933
0.00910098
29.2607
-0.0358828
24.088
21.959
5.78726
-0.196412
-0.565942
-0.169235
42.3799
24.8728
20.8322
39.2288
-0.00779989
-1.01958
-0.0151445
35.7184
24.468
8.24434
20.7957
-1.87508
0.0719417
4.14955
4.84979
-0.0636511
35.6269
32.0821
38.2166
-5.61508
-0.746025
21.4761
42.8344
50.94
0.0572258
38.1522
35.9049
34.1291
2.14876
-3.21148
14.6539
42.6396
25.6528
15.8763
19.2736
8.37231
35.8748
34.5923
22.9242
15.785
31.8177
32.1239
17.8428
7.3885
17.9883
35.4396
6.20174
0.636176
40.6832
48.4938
-0.383915
37.2863
60.6428
44.4619
39.3874
14.4024
36.7253
3.29772
2.18283
19.997
29.0382
0.0172816
42.5667
40.349
-0.862648
23.3561
8.74257
8.66492
-0.989664
33.586
79.9845
42.6333
-0.388722
42.5699
21.0779
0.0873302
3.75114
40.6837
17.2812
40.1559
44.6351
13.0647