/*--------------------------------*- C++ -*----------------------------------*\
  =========                 |
  \\      /  F ield         | OpenFOAM: The Open Source CFD Toolbox
   \\    /   O peration     | Website:  https://openfoam.org
    \\  /    A nd           | Version:  7
     \\/     M anipulation  |
\*---------------------------------------------------------------------------*/
FoamFile
{
    version     2.0;
    format      ascii;
    class       volScalarField;
    location    "10";
    object      p;
}
// * * * * * * * * * * * * * * * * * * * * * * * * * * * * * * * * * * * * * //

dimensions      [0 2 -2 0 0 0 0];

internalField   nonuniform List<scalar> 
117990
(
31.0637
-0.0555581
11.5068
3.37398
10.7803
0.0930338
53.3836
24.3146
-0.340407
-0.0579648
-0.602842
0.519628
7.26149
95.4243
-0.329923
90.0773
-0.0868879
-0.633506
51.6868
10.9013
24.3417
-5.84509
-0.661735
4.79802
52.5226
46.9757
23.7572
28.9228
-0.104619
49.702
-0.400159
46.2942
20.897
6.46681
51.2751
-1.88727
53.0547
-0.0767125
-6.29461
54.0673
46.4224
-0.634001
18.6086
-1.95124
32.4322
95.7387
20.927
14.7735
11.5009
0.469601
-7.6556e-05
-4.24085
47.208
-0.0300879
11.2948
47.3309
44.7379
46.9743
38.03
13.3341
-0.115942
5.06961
-1.24752
13.7829
-0.24312
4.65382
6.97892
41.9432
24.2205
43.4966
52.5245
46.2615
53.9965
76.5428
27.2003
34.335
36.302
3.90071
53.1492
42.8457
43.0051
-0.236302
30.8602
28.2043
-3.61447
0.498741
16.4384
-0.076859
44.8508
-0.0733179
4.65533
5.13795
-0.108713
-1.51233
-0.717478
1.1179
-0.785373
30.2766
17.5415
44.8489
-0.117404
32.1613
17.5772
9.50978
52.67
24.4654
54.3681
23.0822
22.7602
-0.0852178
43.5196
-0.778365
36.525
19.5975
44.5931
15.9592
-0.607683
52.4323
0.0380631
46.2054
52.3228
90.1611
11.7904
38.8819
-0.0102613
49.8885
5.2432
38.516
-2.3902
36.4787
30.8292
0.745838
50.9209
0.495548
0.0393459
50.9567
51.6217
20.9898
11.4581
5.02558
38.802
15.7448
0.142837
47.6629
31.2155
-0.000155092
26.1803
5.301
42.0126
6.83892
24.2993
33.5191
4.98796
-0.0101177
-4.1829
20.9166
-0.0819177
40.0696
41.1198
25.5486
33.0141
26.0171
-1.22937
23.4893
17.4245
-1.18884
35.0573
23.6154
39.8957
17.2687
14.6855
20.8352
-0.240818
92.6491
23.9377
40.5008
92.971
2.45989
23.89
11.3506
26.54
27.3325
51.1256
47.8108
54.3585
-0.0303567
1.85673
50.8092
33.5228
4.90387
2.53129
15.3525
52.4421
21.5031
47.1543
24.1257
93.1285
-1.26288
23.2478
26.4622
48.8212
53.753
28.0821
-0.087824
1.05422
36.1985
-0.504997
-0.23668
37.1513
25.484
93.4879
54.3239
52.4876
-0.0710116
24.1899
21.7893
40.4865
21.0088
95.6762
-0.250582
22.7813
19.0167
13.2084
45.6256
-0.0318462
50.3746
23.0238
25.353
23.9505
52.2785
30.6337
27.5246
40.9662
23.0282
30.5755
48.9353
1.34498
14.9788
23.417
-4.31299
14.3929
29.1395
25.4767
16.6164
-2.46272
7.25261
44.6343
51.2014
23.611
73.3447
52.3382
-0.458767
47.3391
6.45434
40.2507
26.7153
33.3929
28.823
0.851908
24.1142
26.7496
96.0222
47.905
-6.84356
22.8244
3.52098
39.2032
-2.34717
40.5434
32.7883
-0.254538
33.6453
11.3281
29.1876
5.44991
17.1085
30.7391
24.1015
13.9462
22.4371
23.5673
-2.42591
3.47873
35.8196
0.687675
23.7359
50.5426
46.6436
30.026
-4.86681
31.876
-0.0795075
34.8093
54.2721
0.0879587
29.0595
0.0656464
46.0937
8.94765
32.3851
94.6434
23.1065
1.31046
7.86024
20.6489
43.4496
28.8205
25.16
1.58306
23.9099
-0.698526
49.6236
45.9383
23.4496
7.15939
17.3369
52.4467
7.24442
4.87818
31.8714
37.2985
-0.236766
27.899
44.9086
44.53
37.0566
21.1462
45.5713
94.7491
35.2203
-0.465288
-0.0799008
0.0997229
0.01141
49.2572
4.96081
40.7779
-0.244429
-0.0268636
1.71492
11.8442
44.578
22.6301
12.9606
8.91587
9.76389
14.0241
37.7394
29.6651
13.9043
51.0508
50.7813
26.5859
2.46639
26.346
24.5471
31.0804
-0.000938322
1.25145
33.3436
51.6652
19.8421
53.0368
48.0055
36.4161
-0.000806587
4.76864
19.129
13.2443
-0.00447462
20.7545
42.3603
50.2019
-0.99564
41.8723
14.7302
17.3706
0.460958
0.0466607
33.9779
28.3766
22.9627
19.1776
33.2974
23.6978
-0.383227
41.6546
77.9898
10.7192
26.247
46.0255
53.1034
16.6198
29.0014
18.8353
1.09604
2.03774
4.27124
11.2062
14.7595
26.1016
1.55904
43.1353
53.8284
-2.02856
32.1282
0.0399709
13.0196
39.7846
-5.82196
21.1111
-0.795329
9.88723
3.84366
-3.71095
13.7657
11.1815
17.6702
0.0989366
23.315
-0.00114323
93.6765
0.759509
51.8272
46.2816
51.2772
32.546
52.142
44.5236
4.92708
8.0625
0.0490766
-0.187282
24.3887
7.80415
12.9817
31.4883
0.741914
-0.41175
0.445235
3.72989
36.7478
31.073
14.8953
0.64807
20.9591
7.12064
-0.376873
53.0043
40.4158
54.2327
0.109143
0.532596
8.40799
23.5773
6.5874
23.7664
51.521
49.9097
-5.03525
43.149
7.11853
10.6037
54.021
49.8095
24.1834
10.4018
92.5083
-4.91517
0.110109
23.3856
76.4227
23.3993
77.3243
31.3897
44.4405
-0.00389672
10.4768
32.0707
37.7619
50.3256
-0.00268142
-0.24199
7.3384
23.4044
-0.383504
0.117223
39.4341
52.809
32.697
54.1121
14.0286
52.1787
48.3508
4.00296
20.7766
87.5135
19.514
14.8389
9.47475
-1.45199
53.1582
23.0653
51.679
28.8965
51.1041
14.0783
11.8845
13.3699
49.236
2.5713
6.31047
6.42378
-0.110172
30.6081
26.1693
0.913599
39.0186
-0.0179212
-0.00174892
8.16361
29.1879
2.90821
13.6948
21.6831
6.12258
0.0130043
52.6811
27.8123
24.257
14.9397
25.8221
11.0474
0.025796
-0.00255544
68.9026
87.7001
26.5218
0.0237349
6.68728
44.661
23.0178
35.9467
-0.231948
24.1613
26.3497
0.292537
-0.0772455
51.2098
7.18134
10.441
24.8683
1.39547
51.7936
22.0737
13.8634
12.7756
13.8401
43.1593
1.03191
0.0356824
15.3069
49.0638
52.2372
52.9154
30.9396
12.4922
53.6262
25.8446
0.863509
33.9576
12.0235
40.0811
9.36734
39.5348
4.65758
52.8313
2.00774
7.45957
13.8532
54.1677
0.826803
23.419
23.7576
49.8769
23.7999
6.35905
20.3885
0.176324
-2.00134
6.13279
29.303
23.5615
9.65156
42.5891
53.9131
51.6269
52.1482
52.7612
32.4062
38.1366
26.0253
54.3365
54.2351
10.411
4.90736
52.1648
0.0560239
-6.64147
26.8683
15.9106
7.20477
37.7999
-0.17046
8.19987
51.843
51.278
-0.436199
1.07112
38.2074
6.21251
0.927676
50.0791
50.084
-0.0655132
22.0919
23.3843
2.23138
29.1563
44.4814
51.5254
6.32808
-0.00339552
54.3618
29.0563
-0.441098
36.8258
20.8638
4.66104
-2.92207
-6.65115
7.57546
-0.221495
25.5998
1.09198
-0.351853
15.9525
37.0308
-0.547614
21.5803
4.68659
23.8393
54.2273
0.0693408
46.3992
29.2061
52.1726
37.3145
-0.833341
-0.108008
-0.656333
6.54993
48.0927
14.1143
4.9135
51.0761
84.5468
85.2315
34.1713
38.2088
52.407
-0.75726
23.4382
16.0674
0.696305
29.3952
4.65124
30.714
21.9063
47.9703
53.9759
1.92981
16.7942
24.478
42.229
43.7186
27.1625
0.0012229
54.065
6.79645
95.0831
13.3303
32.7982
21.2623
15.3262
15.7309
-1.35626
53.5204
19.0352
44.9179
74.6478
31.0023
-0.0789662
22.8062
21.9374
23.2958
36.6561
24.9574
1.13549
21.2388
-1.46279
-0.0680865
14.0051
0.970369
51.5173
0.710459
51.9692
17.3808
30.4381
10.9235
47.5456
14.6643
50.8829
-0.00426577
27.5548
7.92902
10.5093
22.2463
0.047129
30.0873
44.235
27.7636
0.863441
17.6539
48.0384
51.1839
8.89978
-0.634365
38.274
0.544106
52.2554
26.4284
41.9917
51.6454
0.522581
30.0529
52.2048
-0.355831
40.464
52.0749
-2.94526
17.6054
1.26393
21.0442
13.9684
-5.9787
51.0637
19.2997
41.7588
45.2853
-3.52949
0.386863
51.9265
4.19461
7.11587
1.00992
50.6056
74.0024
50.2956
7.08706
1.93434
6.98215
18.5154
22.3423
39.8548
36.2077
48.0468
-0.445453
17.603
0.0173809
7.56635
-0.00495565
-1.446
24.1793
52.9351
-0.113322
51.7644
-0.7775
29.5585
-0.928241
77.3106
15.2653
46.5258
-0.4261
25.6206
29.3798
13.3997
-0.0809071
1.80043
-0.570631
21.9791
9.7892
-1.39293
52.4017
0.360484
1.16458
23.2253
-0.819528
53.6087
43.8064
8.80035
29.3891
24.7363
-0.0121473
19.811
22.4294
1.16028
26.3972
7.11195
37.0849
8.61168
1.91061
29.2717
-0.0664953
5.75727
-0.741188
54.3012
-1.39248
0.52562
-0.443463
32.9081
46.9527
4.34321
2.20992
50.8422
53.8173
10.529
45.1451
17.7277
72.7529
0.399518
-0.0172991
49.3428
38.6962
0.37793
43.7898
-1.20171
-0.0429433
43.95
23.0444
53.3483
79.9704
23.552
-5.9143
6.90902
14.7523
52.2558
0.0351095
22.6668
43.1151
0.184589
18.2531
28.8134
50.2505
17.7911
17.1189
45.0056
37.2929
26.0595
18.689
53.6098
41.9286
2.11279
22.9155
50.2424
-1.67387
-0.70635
22.7664
8.74084
13.2097
45.9437
-5.98444
-0.041233
-6.81998
12.2776
20.8685
50.8924
20.3363
32.4195
1.65725
50.6332
18.7508
43.8944
18.9809
47.6387
45.0207
22.5464
47.2838
52.0571
-0.735776
44.1094
52.5486
22.8071
3.04023
24.2682
50.5241
30.3005
31.0768
53.7289
9.05624
4.74071
-2.50698
1.08963
39.6864
42.2015
1.1412
52.6975
48.3766
35.9279
-2.41498
37.1381
76.4503
22.7078
53.7347
46.2556
1.50829
39.5923
75.7843
4.09021
46.8827
81.2686
-1.53465
44.5195
0.954294
50.9904
12.9521
48.7634
38.9096
-1.40996
53.2181
-1.40594
26.0856
19.9113
-0.436246
18.5447
19.773
15.5985
24.0219
6.02423
2.92885
39.9408
18.7192
-0.712881
22.8563
95.0717
52.5061
34.2699
52.442
-3.61022
7.70807
52.837
28.7723
-0.0775146
2.57141
23.2431
1.97056
19.3293
-2.31743
44.6051
-4.65555
36.8981
68.4828
46.6989
36.265
7.57204
11.0253
-4.52828
42.5711
22.9376
0.000609613
-1.5541
-0.700697
45.8359
6.07495
-0.0083104
19.2478
16.0353
24.7481
48.3915
46.9836
18.2632
23.5714
7.18846
48.3165
21.5163
45.4779
6.10374
25.2314
24.6674
11.2065
-0.423704
1.18266
-0.0640313
24.435
-1.40951
17.7376
2.07814
45.4876
0.030742
2.49648
0.205707
48.4239
17.9293
53.1883
37.1026
47.7145
2.1185
19.5053
53.1791
33.3715
18.8234
44.0714
-0.406924
8.71862
-5.92638
34.4989
0.0324795
30.0698
15.4913
23.7977
22.7726
52.0729
12.2228
-6.43372
48.3188
15.0491
12.8798
7.42126
-0.00775337
-0.395683
-1.45738
39.0452
-0.830981
4.94279
15.5216
52.0443
49.9173
27.1324
0.516254
20.7011
37.6764
17.2606
0.485893
17.3295
33.7407
0.0837782
6.33618
37.311
51.9349
14.608
90.0862
48.0868
21.0889
0.721271
80.69
34.7084
3.17888
0.129079
-5.80512
-2.43022
15.6321
-0.0849761
-3.54772
38.67
38.5583
20.931
21.9551
14.7677
-0.0900051
48.6448
-0.72279
29.1118
49.6797
-0.210099
32.697
8.47246
52.8133
44.2275
22.5176
51.762
45.3665
18.1709
38.1125
0.505387
2.91976
88.2545
-2.38934
-0.430371
30.4368
-1.13413
-0.181454
13.2901
-0.522237
23.3873
22.7529
4.16459
-0.527131
0.946168
4.10377
-0.119697
48.043
38.1745
26.1458
-1.27117
80.6005
22.7869
42.7319
13.714
14.5975
50.758
43.4573
37.7081
23.465
4.31981
0.0989862
38.6616
53.3751
35.944
-0.100994
-6.74354
0.50081
0.142891
48.8846
2.18124
39.3997
-1.35991
54.3691
26.2428
14.4208
27.3265
0.00771155
51.0853
-1.27052
6.4906
44.9385
52.1742
46.6896
2.07366
5.45368
47.0382
-0.0257528
44.1784
6.52598
54.3341
44.0726
15.7504
15.3981
0.0969084
43.9008
19.4701
19.2619
20.6343
16.2217
1.59156
29.568
-3.57619
42.5401
48.2736
11.968
51.045
44.8894
-5.4057
-5.76569
37.1147
17.3271
43.2776
50.0389
39.7442
15.0579
0.019507
10.5337
22.4741
20.8857
26.0128
43.2692
54.3296
6.42661
50.9269
0.0176111
24.5918
4.58891
53.2701
92.1212
-0.206508
51.304
-0.0378253
6.18959
-0.119633
-0.00295022
-0.00242124
53.299
11.3167
23.6416
17.4296
4.79112
61.8302
50.2553
12.1141
4.26833
-0.779413
-0.119718
2.51789
30.463
36.7108
50.7852
-5.83351
48.331
18.7986
24.3678
33.4843
2.48707
44.7492
0.0615037
4.98123
2.56459
15.2609
-3.32053
51.9477
4.51745
0.00683505
19.3088
6.03809
53.7251
-0.0558407
4.4537
4.34772
23.3345
29.4526
21.1363
99.4241
45.5371
51.833
-2.42934
4.75289
23.6544
-1.34866
47.6333
21.3458
-4.06674
32.6972
-5.17225
2.83199
19.1405
-0.370141
12.362
60.8776
10.7274
39.1076
54.3291
52.309
52.8784
-0.012626
5.94751
0.0566133
41.2086
35.6716
50.9796
14.044
22.5948
52.5606
22.6561
28.0194
14.2688
35.1887
23.0003
0.0363408
44.744
-0.942834
48.6733
39.5236
37.9112
0.4784
4.68851
31.4085
-0.00743558
47.8471
8.57838
25.3395
31.2999
37.8964
52.9792
24.3775
51.9193
49.7929
27.6985
-1.41483
37.0963
43.1213
7.43826
39.5228
3.30828
29.8108
32.2001
11.9281
44.7985
0.547448
48.8559
51.1451
-0.0877867
4.91616
0.119425
46.2133
6.29851
24.7354
4.84926
29.9093
43.8775
7.66788
25.1219
6.20504
21.0011
13.7459
-0.0695581
1.78207
27.6396
75.742
19.1338
-0.0422242
27.9589
-1.39487
6.9872
32.7847
52.371
12.4386
27.4005
51.0101
12.7941
10.4961
27.5263
10.6067
10.5766
27.2752
42.8159
23.4351
-5.63184
-2.14841
27.5922
0.494584
-0.666464
0.116396
45.468
-1.58565
2.98509
28.9209
-0.0153808
8.04143
-0.349435
53.201
0.140538
5.98004
-0.246507
16.3493
52.4139
13.5551
22.9526
-0.0967045
-0.0604304
26.4525
7.7603
-0.431523
52.8176
23.1301
-2.17838
83.2354
6.37415
2.57729
18.9823
13.0689
-1.40234
45.0436
-0.526848
25.1559
50.8279
-0.411078
26.4827
-0.787569
23.648
53.0901
33.6458
-5.86305
0.529776
12.6845
16.0679
13.5385
29.642
5.08842
-1.20156
-0.24688
-0.514679
25.3461
21.1889
46.492
12.2984
5.08408
42.9048
47.606
33.8101
-0.499917
23.3256
27.9944
36.416
31.9725
20.682
46.2793
46.144
22.6474
30.8516
50.0274
24.1768
0.442144
85.9127
94.2721
31.7248
15.315
16.8043
5.25329
39.1543
21.7876
53.5995
23.9847
53.3613
74.3972
-1.05912
15.6899
7.5052
0.0477655
-0.0848513
52.6001
-0.160476
34.2561
16.7558
26.554
51.7407
-0.713337
27.9016
35.896
-0.380577
52.7278
21.9548
-1.26327
36.0624
47.1137
-0.00590755
37.6282
2.43698
41.7354
34.1724
72.7033
48.4128
-1.26036
-1.11612
49.1274
53.0093
53.0927
6.02069
27.1369
53.672
45.1212
22.7613
-0.0107939
47.4947
26.1816
14.1262
19.4976
48.4604
18.9604
5.22695
38.4486
-0.387733
26.1053
45.1912
53.6438
47.6895
47.5664
48.3602
40.0542
-0.523416
-0.933134
-1.29352
-1.39913
47.2194
46.308
48.9807
30.6074
-5.83715
22.524
20.9756
3.31668
6.98665
-0.918118
68.0134
13.0901
36.881
-0.0261242
0.0375224
4.63705
0.108717
4.87571
14.6911
31.8053
13.6035
10.7394
46.4742
74.7739
7.13542
-2.45266
7.94642
-1.38487
-0.406526
5.77446
15.9083
1.39935
7.1061
34.8456
-0.0935475
37.2953
28.835
14.1303
-0.597468
12.3832
37.1015
20.7412
44.2411
30.7119
1.24506
32.6326
19.9275
-1.57877
-0.0236391
0.50574
8.95527
51.1925
8.55794
4.66835
8.80539
18.6573
-0.725566
52.6332
-1.06231
47.6143
2.81252
-0.990761
0.472179
24.6986
87.5165
51.3583
48.6001
47.6637
2.6771
24.5205
-0.160165
-0.00277783
-0.958516
11.5049
52.6773
28.1002
62.194
21.7477
52.415
43.6099
21.1192
0.000340444
42.9681
50.7529
32.7711
-0.110728
-1.13547
3.97163
53.0085
50.5115
28.6951
32.6595
48.7153
5.63938
-0.10868
-0.0711682
37.1009
5.61923
43.9037
-0.0268742
30.5756
12.1936
0.136915
49.2801
25.9932
44.1114
-1.75677
2.44474
38.7516
29.4001
39.1392
15.1006
5.30619
44.3346
4.78731
29.5069
51.0143
48.9342
-1.4707
47.4341
-0.00223684
1.31198
49.7461
16.8766
37.627
37.2507
6.39501
52.7493
34.4091
-0.0710194
89.7337
6.73266
6.95039
-0.550896
-0.229077
67.395
18.7913
5.29767
19.0946
9.85888
47.7838
51.8274
0.376314
-2.51046
-0.818771
25.9494
-0.595784
0.140035
-0.122478
49.4419
28.8831
6.84572
26.2614
37.9214
82.1097
51.9712
48.5551
53.4488
-0.0686003
-5.02565
38.967
16.2128
22.6692
-1.61245
50.6037
6.76225
22.8022
4.00863
38.2369
81.3298
36.6455
-0.00128698
42.8712
-0.215318
0.0438179
40.5615
-1.97603
24.0457
48.6292
19.4836
5.35828
-2.09386
49.6381
53.7443
53.0414
54.2697
71.2413
-2.54032
-1.18621
32.1433
23.1619
12.1298
-0.281547
27.8105
9.99736
21.5788
8.6633
-0.0459632
24.0743
31.4933
52.2808
48.2839
-0.0550725
43.7343
3.97439
96.7736
86.1468
17.4473
53.0832
-0.804486
66.0974
37.5523
-0.698577
0.243648
38.9197
47.2381
21.3711
29.98
41.6604
17.1406
-0.0163834
-0.00623985
41.1176
29.1956
23.4629
-1.18854
46.8533
-0.27639
-0.00636066
-1.03997
10.5114
17.2496
-0.079576
25.3915
44.5227
49.8542
2.20823
46.7745
7.51934
50.0625
-3.2652
24.9539
0.125681
37.6479
40.9824
38.0184
45.6565
52.0689
16.7923
23.739
53.5759
-1.60826
50.6568
0.000217203
47.6547
37.5372
48.6227
0.461139
-0.0875845
39.7073
48.6339
47.2843
0.0409946
7.09268
43.9276
4.87898
-1.70124
38.5437
28.3579
24.0319
52.8944
-2.48254
33.7259
13.3689
39.8304
-0.397399
50.5217
46.1848
40.8281
-1.05397
47.8225
23.1245
32.2745
44.0876
0.560374
24.7581
31.6288
28.1535
-2.21655
21.2668
16.0562
-0.0652977
21.6189
-3.79269
6.54719
21.9646
-2.1817
4.92441
34.9038
0.166326
41.959
86.6709
48.9354
-0.508534
39.8351
-0.116762
1.24209
16.2945
-0.190855
12.4932
8.12276
86.7457
52.095
23.4852
27.159
42.2003
54.5527
-0.114875
22.6079
33.4452
36.5698
-0.0843898
48.5793
20.6024
33.7969
0.497457
15.5683
-0.223494
48.687
-2.37669
48.3289
0.478425
87.1928
-1.5515
-0.0331016
54.0293
-0.25077
50.6629
47.044
41.1972
-0.716455
50.6999
52.4508
54.3893
53.1315
52.9644
50.5285
-0.0851851
21.2261
51.1474
1.046
39.1987
43.1441
-0.0503812
0.132975
49.3103
39.5935
40.4441
19.7688
45.1671
-0.551277
0.697001
21.8817
20.9731
22.1502
54.0131
50.3297
23.6839
52.9092
51.2043
33.3746
51.9042
7.45199
52.0351
12.5233
36.9081
7.42814
21.824
17.4589
25.9123
-0.0825688
24.47
-0.0965815
50.5328
42.1307
-4.34658
4.5245
25.7519
28.9831
-0.240215
14.5236
23.278
14.8985
24.5772
21.0717
-1.04186
13.8144
36.6043
0.402664
34.5904
-0.0966801
46.7508
5.10445
27.976
0.395084
-2.70347
21.3119
15.469
32.3907
4.65944
39.4233
23.9122
85.2956
-0.404095
34.1663
36.6921
22.3073
52.9351
1.3924
89.4694
21.1253
12.5485
27.2002
0.11786
15.165
14.9173
-4.25603
-0.39479
-1.22062
45.9095
-0.00170808
0.476229
0.169147
-0.12708
-2.51522
51.5735
46.0224
-0.7528
29.9224
-0.127013
28.5086
15.8611
-3.42387
35.5171
-2.15284
48.6079
16.2468
5.47917
15.4089
-2.13334
29.925
-0.603364
54.5621
7.2902
37.9977
23.2347
-0.0906963
45.7541
-1.25281
21.2494
51.1474
5.03269
23.5052
51.9537
65.4305
23.625
22.7449
36.2373
3.30167
38.9901
-0.201603
20.6711
4.25789
52.1123
29.3946
41.2698
35.6944
-5.94325
40.2516
31.8775
30.7501
49.7149
8.15829
26.4623
-5.52962
1.53796
-0.363077
27.0196
42.3629
-1.70742
22.6333
20.537
4.8308
21.5043
-0.644847
1.2093
-2.18343
-0.25086
74.2084
5.75133
48.7284
-0.00138797
-0.967133
0.123882
41.6432
-0.253266
45.2592
46.5813
50.4816
0.965901
17.6203
12.544
8.59768
3.36617
40.8735
23.2459
23.2812
7.7193
-0.786289
47.4445
30.9299
25.6631
-1.4081
4.33163
39.9828
-0.427574
15.7473
36.5492
52.7606
49.3876
-4.09662
7.26512
17.276
-0.397913
0.193439
23.3849
-0.00502732
20.7257
18.8231
-0.0523579
0.0445345
28.5876
27.4325
22.9873
36.4058
0.0741549
41.3172
28.175
24.5548
0.387003
49.8028
-0.750448
52.687
-1.03116
26.5925
-0.0346229
16.1091
49.0485
16.3569
28.1872
23.1551
0.285806
41.3478
6.63914
29.9231
23.6517
15.0812
44.5701
40.1444
29.0479
43.2056
2.75399
0.079009
-0.483931
23.4554
-0.103225
6.77979
41.6013
52.383
39.4532
-1.18706
45.5576
12.6547
4.3857
30.0638
39.1081
27.8466
0.0421398
41.9162
31.1747
30.6168
90.2802
94.0809
21.4378
-0.0642872
6.94923
4.11125
52.6629
25.3448
32.4501
26.1716
38.4737
29.7653
49.8462
-0.217488
25.3771
12.4621
0.00875823
5.08638
40.2849
4.80697
89.9232
30.5561
36.8045
51.9931
1.00214
-0.00236314
0.0791149
23.0751
36.0164
23.3779
-3.59116
8.24486
3.47215
47.7418
-0.201988
31.3633
-1.20374
12.8131
12.0901
3.48207
45.7783
24.4863
15.3898
30.6372
43.3142
23.4675
53.4356
50.9661
47.9307
23.7341
15.0915
62.8345
30.7909
48.4022
23.4708
0.121073
-5.83307
-0.00492065
91.2353
-0.679533
1.42903
-5.92292
41.2217
-0.388048
-0.108873
40.4635
20.583
0.00238928
-0.0289147
5.83088
6.55339
0.0897234
34.0385
12.9058
22.9207
40.2808
29.0121
27.2494
36.3043
20.5648
0.529156
-0.6684
54.3861
3.5241
23.3586
0.11323
22.8322
22.9256
0.661759
32.1871
21.9569
15.8171
52.4736
-0.214693
20.7726
-1.10383
12.9405
-0.770159
-4.47982
52.4797
11.982
-0.0123244
51.1734
3.94028
-0.847073
12.1197
5.40182
35.7952
23.5336
-0.45119
-2.08974
35.6675
21.8927
0.0855849
20.5271
21.2256
34.3447
25.4864
26.9912
51.4329
15.8174
41.9104
47.7195
-0.775289
13.7146
54.3185
0.00137679
45.1638
27.6623
-0.00433426
49.7879
51.9999
6.66163
39.6913
62.5926
35.498
4.59905
19.8127
-0.00488535
3.81498
43.4782
21.1745
23.4451
-2.14282
63.831
3.78326
-0.367702
-0.420726
36.4246
52.6318
27.3838
-0.00342442
0.176994
9.7665
-1.99109
20.972
49.8277
87.2227
19.1169
20.8283
16.8621
46.2116
0.0520258
38.1376
16.6182
50.1823
6.93267
40.2948
-2.17234
-1.09094
4.24
-0.0391183
-0.0776682
42.9335
1.654
46.4653
-0.200653
36.8117
-0.139429
24.8933
18.6711
31.745
90.6318
27.3005
-0.0903569
45.4965
23.938
30.1133
45.249
88.2485
23.5988
22.5989
-4.02109
46.1576
16.3168
45.3098
16.849
23.4185
0.359199
49.3929
30.8525
-0.372703
-0.0678409
47.6851
-1.28458
40.6536
42.3158
15.7893
-0.180187
15.9803
51.3809
45.4627
4.8169
49.5951
45.475
34.7539
0.792637
-2.24693
31.8285
51.9964
22.5179
16.715
-1.27028
0.10622
19.6142
34.9142
36.9047
46.7665
13.4629
11.4849
23.5259
23.2316
27.2643
41.594
30.887
30.1037
7.45784
-0.0877564
30.2638
24.1682
8.26212
-0.534473
47.6118
50.9907
51.5972
46.295
23.113
48.4544
-0.397756
51.0014
21.2527
15.2487
-0.107954
33.6856
33.9179
-1.26639
5.57531
53.5596
53.8098
7.46396
52.0896
51.9041
37.9562
21.2944
24.8366
-3.65384
49.6267
19.602
-0.640525
-0.0154325
-0.647028
23.1125
2.02203
15.6825
24.1589
14.9403
-1.32214
48.3538
27.9609
53.6743
41.0895
50.2532
27.8714
-0.0504282
39.9673
6.35019
1.63137
50.088
46.7866
47.0262
41.5955
16.7269
34.1727
22.6943
0.0227515
39.9619
-0.666982
24.3672
17.0409
24.4875
-0.0276192
22.8061
44.8601
0.000397237
39.0814
41.114
-0.660904
-0.544873
-1.40095
50.6146
45.94
-0.00885239
-1.52844
0.101737
-0.492603
8.09363
-1.50124
2.88033
2.81139
1.2058
1.47299
-0.681019
-0.655288
30.5615
-0.0477479
-0.0412815
28.5807
26.3873
30.7612
53.9711
29.4133
3.61373
3.86112
-0.00181218
12.2392
21.2573
18.1086
22.2722
-0.624276
53.8047
41.3949
49.8322
22.7151
31.4129
21.7299
26.2308
0.0376497
24.4419
17.9157
0.499
25.6264
27.0348
-0.105244
46.1628
47.3223
0.280237
49.8004
38.7262
16.2465
16.6344
-0.10909
42.1732
20.2749
-0.00899614
40.5711
-0.104974
-1.29424
45.2525
88.0495
1.92573
12.34
-0.0396704
25.7796
7.49521
50.2515
35.661
0.122775
0.362592
5.90679
28.5414
3.69153
20.1169
1.84987
78.1429
46.7846
5.8764
-0.145055
-0.780666
25.0432
39.6123
52.2288
27.6189
45.7945
7.92041
59.8151
83.9412
44.929
53.21
-3.00027
1.2346
25.0295
-0.105546
52.3536
50.4764
43.3717
64.4845
44.6674
46.1877
47.7903
52.6691
51.2556
36.5202
14.7568
54.3168
72.1539
-1.70346
25.4059
31.5015
2.64813
23.3967
-0.492105
20.6026
24.3997
8.51572
26.5253
0.112112
37.5613
17.0647
30.6884
-0.0923665
0.79894
-0.229231
-0.0185077
48.4673
44.4087
12.2792
-0.59925
26.8774
-0.0850792
0.152288
1.25605
-0.566
11.9636
80.5675
14.4905
47.135
-2.12013
42.0098
36.3471
19.8228
7.40579
2.36052
31.4525
64.4077
-1.32596
-0.0140822
12.1887
22.8096
22.8404
35.6744
8.49984
38.6233
40.511
4.74907
5.93516
42.8573
0.700425
-1.28043
-0.13816
-0.0081739
-0.223737
32.7404
43.4941
52.3828
47.5826
-0.309329
-0.125561
-0.648884
24.8429
45.3006
40.5569
75.0914
44.3853
-0.221685
4.11945
25.9274
16.0832
24.8208
21.2507
27.3784
29.7258
9.75117
38.454
12.5796
1.09252
5.53184
39.1039
13.2921
16.0503
99.3821
10.4478
54.4982
52.2834
48.1273
54.3994
47.3726
28.7859
1.83342
13.0356
47.3454
47.2246
0.870234
-0.0674975
17.9113
20.7346
-1.07079
26.5679
21.7469
29.0977
53.0097
-1.25624
37.6212
27.7352
24.3226
43.8463
27.9216
16.3976
30.2936
20.249
29.4961
4.01842
34.825
-0.530591
28.5715
53.7224
26.7497
7.91695
0.864688
51.4264
17.507
24.6228
20.6112
-0.0826621
54.2431
43.6453
29.114
7.43819
16.195
19.0866
1.18507
87.7583
24.7112
22.3834
12.3728
9.65582
0.103698
-0.333513
34.3207
-0.0725143
23.5737
28.9955
21.5097
-0.463929
2.50672
0.382112
9.97178
39.265
23.6578
35.875
24.6047
30.2867
4.01605
3.18531
46.7248
4.06896
-4.35198
46.4192
3.43183
51.6093
52.0354
-2.63253
48.4351
4.82465
23.248
-3.10008
-2.38787
27.8397
62.5441
9.02496
28.9509
8.30647
50.9124
25.4612
16.5496
-0.641783
0.827637
53.8062
51.9697
24.1123
54.2808
-1.68172
51.5877
19.8856
9.76999
41.006
39.097
-0.27146
-1.34541
52.7339
20.9836
-0.0817001
52.7375
46.9061
27.2263
34.9849
53.7539
52.6024
12.2283
22.9377
0.805574
12.7807
14.5135
11.5282
26.349
0.376918
4.268
21.055
37.37
48.8153
29.05
52.5773
63.6103
2.91778
16.4042
30.9313
3.5414
46.3213
5.68817
-1.38355
49.9778
25.4172
73.2313
-0.979873
41.4728
24.2166
-0.0725181
14.2966
-0.26936
11.9069
53.1644
48.3828
51.5784
16.5841
33.0468
-0.549083
-0.118682
1.42024
51.3634
-6.19495
14.092
-0.263911
51.9422
39.7218
0.18072
13.1577
44.3613
-1.37425
22.4046
-1.17459
10.3
30.6744
47.9998
50.0383
41.1639
-0.294263
26.4508
6.1028
21.6673
-0.288031
16.248
0.0869252
29.3837
0.522285
52.7782
23.3219
22.9704
50.5911
-0.243514
54.0209
-2.21109
52.6807
0.0360648
52.5325
16.8863
32.5355
32.7507
45.9306
49.5479
49.4148
51.2532
89.0364
38.9819
11.8586
24.9255
0.595505
61.5794
52.7589
-0.565939
39.3203
32.676
-0.496625
50.0892
37.1763
36.468
-1.53681
-2.90484
30.559
25.0076
30.5861
35.9424
8.70583
37.923
34.537
38.3964
38.4471
32.6461
11.8164
-0.615382
67.0133
36.1957
21.5774
-0.00210855
12.7356
52.1893
50.8376
21.0152
23.6164
42.7031
-0.261981
37.905
39.1266
49.5303
39.2612
24.2103
50.8375
3.58301
39.5915
52.6406
-1.28644
5.80442
36.2468
-0.626353
-0.286222
24.1632
0.00549189
-2.53524
-0.576988
50.3966
38.5518
28.4032
-0.0282478
53.419
11.7668
0.160712
53.1606
22.8704
37.2654
21.6301
53.6659
0.602197
-0.0134437
-0.706937
53.179
49.0229
23.022
39.4219
43.7413
3.14064
34.7771
73.7108
49.0908
35.6606
26.6998
17.9449
22.9796
46.6812
24.3847
-0.365537
34.3364
45.4906
50.5331
25.2742
36.5218
47.5189
42.3032
-0.194614
23.0129
35.217
43.6557
0.106878
54.3092
37.6718
53.7098
-1.31445
49.9883
45.84
-2.10908
24.7047
23.2358
40.7609
3.99507
4.84374
19.8485
43.3891
69.8097
8.76178
38.8262
3.15432
4.3983
11.1589
73.4385
3.42576
17.7647
27.6426
19.2454
10.6916
2.78602
0.642914
2.24419
44.7846
16.6376
48.116
0.0959543
24.803
2.00154
19.2576
-0.246293
38.9614
0.113703
0.0643761
43.2844
29.6208
14.3922
43.3389
22.9713
52.5564
-0.00198209
16.4187
44.0073
11.0069
43.7384
7.0809
7.31258
6.19021
12.6152
39.3153
46.1227
28.049
26.1595
26.2587
5.87996
10.4103
-0.0635366
-0.586232
19.0785
21.6349
16.5901
25.3965
0.0663907
52.5628
11.6813
-3.66799
22.9826
-0.354466
48.7536
32.0831
78.9273
25.2259
25.5958
53.8625
33.5256
38.0616
2.67807
47.0541
23.3023
-0.974806
51.9337
2.67145
7.94663
-1.41119
42.4478
9.98077
51.2649
17.7105
16.9493
8.6978
47.7545
53.7804
20.5128
9.61417
-0.448759
21.1021
46.1647
-3.48402
23.7211
29.3736
-0.0519448
53.2699
-3.71269
-1.50462
36.3299
41.7524
-0.836923
25.0755
0.131786
37.456
41.4113
39.2532
6.61034
40.2535
27.168
53.3308
0.0897608
67.6233
20.479
9.85051
9.54266
36.1296
21.8649
10.4698
-0.00777189
43.6087
-0.00701937
31.4332
6.77801
37.9396
45.7727
42.5855
1.15341
43.0113
50.7588
3.60504
13.1588
12.5589
25.8924
-0.000946735
38.5009
52.2885
16.1825
0.0458103
30.5404
4.8259
26.1016
28.6317
38.1602
47.3067
28.5198
70.3384
41.5271
0.758412
9.22938
-2.28693
-0.654762
49.7638
31.4833
0.881633
82.9753
-3.3825
19.2281
0.59151
21.6008
43.9948
0.0424055
0.183534
11.6119
-2.56948
0.571951
19.3599
29.0431
3.9675
46.8717
0.0805978
7.09543
37.2364
22.8416
-0.955293
9.86451
13.6009
18.9511
39.9977
7.01863
19.0111
53.9082
24.3345
97.3604
22.6871
-0.374397
2.20218
24.3588
52.762
75.8953
13.462
-2.1822
32.7628
44.6652
6.83526
0.458641
0.0848232
47.5987
0.522104
37.3811
1.29003
79.7285
0.94901
50.7804
-0.453564
-1.23392
-0.200348
19.396
7.09749
19.7323
4.78695
49.5254
33.3929
47.7965
51.9568
44.9512
9.01824
49.19
9.09424
19.3358
21.7016
14.5012
0.64975
-0.0417647
50.6985
44.525
-0.533432
29.5624
42.9354
-0.0212764
28.4291
-1.05493
38.8241
49.1708
46.2756
31.1142
25.8699
17.1483
17.5006
12.3118
1.2816
17.8495
16.7598
1.23552
9.15706
27.8238
-3.269
83.7235
21.7261
-1.38732
47.6
31.6781
52.4218
50.6542
13.8732
31.7219
8.20224
0.117664
51.602
31.499
41.4494
16.5992
45.3141
63.8071
-0.10991
18.4915
22.036
30.3315
-0.233496
48.908
21.6645
40.8744
-0.00587983
34.5276
-0.454342
18.7737
27.351
39.7871
11.5226
0.94899
2.51363
45.572
38.0201
-2.68834
-0.293632
23.6751
46.6816
41.5306
36.5612
41.9903
50.0779
22.9433
14.3079
28.714
16.1456
32.2553
53.7023
2.38024
89.5687
48.1125
0.923088
21.7834
53.0688
15.1718
12.6997
2.03635
28.1344
9.5566
24.4978
11.5631
24.254
26.477
36.0424
45.4603
47.9326
-0.323319
50.4839
45.3607
40.8702
13.5796
-1.38724
39.5998
50.6577
50.5796
-0.0123548
28.3273
42.3397
43.1196
-3.21366
0.503052
25.4591
17.5931
-0.372096
-2.23681
16.6168
4.49264
16.0946
2.3227
-1.07243
32.6129
2.06312
45.9627
-0.631652
-0.968898
28.8995
20.2959
21.8998
31.4266
2.57155
6.56497
23.0467
45.081
24.0057
35.9793
51.146
25.8309
4.12161
5.1259
40.3288
-0.783316
47.6746
28.787
6.17465
24.017
20.3457
31.2068
39.3052
52.0493
50.8284
-5.40614
36.7945
20.3961
7.437
6.41891
0.0819645
27.8733
-3.01458
30.8542
0.253648
87.1925
27.4406
36.5665
48.596
90.3703
0.17571
51.6475
-1.45503
0.235051
27.5543
20.3743
-0.632538
49.3194
88.6195
39.8874
7.67783
15.1823
51.8441
13.928
90.812
-0.0386587
-0.360821
40.3869
49.9985
16.1014
30.4376
51.6361
4.01849
-0.554155
87.8289
22.8016
-0.953873
-0.707039
50.7609
-1.3326
44.8642
-0.388283
27.2895
-1.25158
38.7891
8.11939
12.2698
10.1465
40.7613
2.81259
23.2521
36.2174
-0.278083
17.282
46.8042
33.0047
37.268
-0.0977464
45.366
6.3637
31.941
52.4262
49.3837
0.218831
51.258
4.04658
-1.55698
-0.151402
16.9175
71.9591
50.6814
-2.11536
12.0347
37.1974
26.3681
53.2718
46.4117
49.4611
-0.103464
41.4028
21.4243
27.4519
3.58394
-0.000117807
50.9594
2.3317
95.9808
52.2105
-0.01905
45.5861
53.1656
22.8386
-5.90809
21.4823
31.8495
51.8532
22.5017
8.25004
52.9038
-0.452375
38.7287
50.1738
21.0356
13.5094
33.8574
33.2568
38.0283
39.9293
28.9983
39.443
20.9796
-1.56391
41.6205
-0.131818
46.2061
7.13876
39.4451
31.3045
51.8551
0.5146
26.537
23.0601
2.88284
70.5149
41.8
0.224215
48.538
28.5179
4.64939
5.71351
33.0729
1.62277
12.717
26.2526
-0.388624
4.55683
26.4353
-5.42321
48.1581
0.0054387
34.3453
-0.299445
24.6313
49.3567
4.65175
51.8136
-0.628321
-0.000500233
23.0849
-0.678448
-0.436063
36.7202
52.212
24.512
6.62769
17.0227
22.6984
0.0145331
33.8229
-0.0301362
28.8248
26.3391
6.82427
-0.226709
-0.672372
-0.194733
52.0035
32.8341
24.5309
47.2506
-0.00885786
-1.21703
-0.017482
45.5307
29.4747
15.7426
23.8731
-2.24589
0.0910563
4.94712
5.77125
-0.0721525
45.8563
40.7571
45.9534
-3.07324
-0.686848
24.4998
52.4231
58.3953
0.188077
46.129
45.6245
39.7023
2.68276
-3.83231
16.9896
52.2408
31.4795
19.1974
22.481
9.86536
43.1354
43.6918
27.8968
19.6576
43.3577
40.809
20.8926
8.7326
20.4406
42.6097
7.27021
0.87086
51.1128
56.595
-0.454256
46.4241
69.9172
53.5893
47.5321
16.4666
44.1234
4.42241
2.72265
23.3071
34.0759
0.02437
52.0408
48.6553
-1.02928
26.8089
10.2799
13.3915
-1.18111
41.6178
91.4781
52.1963
-0.457072
52.225
27.0823
0.10851
4.50462
50.1161
20.6688
50.7576
54.1288
15.2062
23.9277
31.0619
9.50421
84.7757
54.1857
39.4663
23.6443
15.1964
3.68332
14.1913
-1.66878
91.6257
-3.5755