/*--------------------------------*- C++ -*----------------------------------*\
  =========                 |
  \\      /  F ield         | OpenFOAM: The Open Source CFD Toolbox
   \\    /   O peration     | Website:  https://openfoam.org
    \\  /    A nd           | Version:  7
     \\/     M anipulation  |
\*---------------------------------------------------------------------------*/
FoamFile
{
    version     2.0;
    format      ascii;
    class       surfaceScalarField;
    location    "34";
    object      phi;
}
// * * * * * * * * * * * * * * * * * * * * * * * * * * * * * * * * * * * * * //

dimensions      [0 3 -1 0 0 0 0];

internalField   nonuniform List<scalar> 
11265
(
137.096
-529.759
392.663
-766.876
9.86037
757.016
432.041
-371.263
-60.7778
669.903
253.729
-923.631
1510.67
-1069.43
-441.243
1216.27
-1527.12
310.842
-21.2353
465.93
-444.695
168.958
-841.655
672.697
962.032
-1610.78
648.747
-1769.68
1676.49
93.1883
-542.947
1759.22
-1141.3
1935.08
-793.777
606.994
181.27
-788.264
-25.8632
-1318.22
1344.08
222.219
-1991.9
1022.86
-383.521
-639.34
-214.598
351.693
484.45
190.622
-675.072
1154.83
-1314.13
159.307
-310.222
374.271
-64.0491
1004.4
-1322.31
317.906
1221.61
799.656
-2021.27
74.7264
-1645.3
1570.58
-500.772
-1155.62
1656.39
475.154
181.979
-657.134
-182.202
-347.557
497.858
1012.81
1652.83
-1812.43
159.597
-98.7947
-1688.2
1786.99
-1559.42
653.991
905.434
-308.817
653
-344.182
-190.067
-118.061
308.128
1288.74
-1214.01
355.272
-1407.33
1052.06
-1754.28
1754.28
101.588
1538.2
-1639.78
-1081.18
-478.241
655.865
-677.1
-385.875
941.754
-555.879
1331.83
-1317.23
-14.6042
-1100.31
714.431
625.111
397.75
-388.193
-33.3901
421.583
-482.245
775.836
-293.591
-1618.42
1618.42
1253.56
-1437.87
184.308
-488.88
1710.49
1254.38
-312.621
1660.73
-1161.23
-499.5
74.1179
-384.34
2066.33
-1135.85
-930.481
1819.76
-166.935
453.836
156.096
-609.932
-463.94
972.773
-508.832
-1175.58
1277.16
-567.559
970.276
-402.717
399.23
755.596
660.986
-492.028
-437.712
592.884
-155.171
1190.62
-835.352
2308.21
-1080.68
-1227.53
1164.13
-2010.04
845.902
-1607.87
1582
440.605
-1581.9
-758.931
1250.53
-491.596
-671.816
362.999
1661.44
-699.412
-1106.93
-870.897
1977.83
730.763
-375.302
-355.461
690.121
564.254
-258.213
1511.77
110.327
-315.785
205.458
-284.766
759.92
-334.098
563.338
-229.24
-324.458
808.908
-318.526
-146.208
464.735
315.38
116.661
1466.03
-461.63
-996.238
478.595
517.643
274.467
91.9632
-366.431
948.398
-341.404
-1706.57
621.259
1085.31
14.0773
-862.313
848.235
-279.031
593.529
-314.498
157.754
-1093.89
936.14
1051.12
-1066.72
15.5964
373.077
517.949
-891.026
-245.335
699.171
-1103.35
-482.393
1585.75
-677.538
950.331
-272.792
1352.57
-1451.37
-631.54
236.381
395.159
-470.202
-1011.52
1481.72
-537.701
-795.078
1332.78
575.751
-995.803
420.052
-264.17
-315.906
580.076
404.482
-294.155
-1039.42
575.482
955.502
-797.748
-110.369
943.829
-833.46
-207.577
415.698
-208.121
-650.037
-346.201
-386.735
962.486
1856.36
-1856.36
-510.49
-121.05
-951.278
1576.62
-625.338
452.848
-887.25
434.403
-923.032
355.473
-941.906
-1058.08
-1492.59
340.752
1151.84
-269.105
939.008
-317.107
612.446
-295.338
-1941.9
999.994
-1145.43
-347.163
569.045
-1520.32
1728.52
-1725.8
-2.71376
188.157
-586.164
398.008
-1473.94
980.829
493.112
283.844
215.782
-499.625
308.338
-642.436
239.627
-414.993
175.366
2019.15
-867.537
-1151.61
-537.905
149.713
615.432
837.772
-1453.2
-183.682
423.309
431.502
876.431
-1307.93
-906.025
391.41
514.615
-1048.28
1447.51
-1068.53
309.595
749.847
-96.8479
543.847
-337.136
-206.711
1019.78
-541.181
593.397
-1403.77
810.374
-1342.19
238.841
-544.656
265.625
-1204.74
935.637
1942.9
-991.257
-951.646
276.8
1579.56
-2096.83
896.656
1200.17
361.924
-31.8386
-330.086
-223.469
480.856
-257.387
-106.138
-380.495
486.633
-464.302
145.775
339.869
-132.414
585.262
419.657
378.778
-798.435
-2044.95
1127.95
916.998
461.11
-529.735
68.6249
220.436
-361.651
141.215
995.149
1024
1791.91
-253.719
718.374
-481.994
796.177
-1389.39
593.216
347.081
383.681
1060.7
-1046.62
-481.545
-272.669
754.214
474.893
-133.908
-340.985
796.462
-615.192
534.628
-734.487
199.859
503.332
1157.4
-1240.03
702.332
1032.43
-1533.2
-3.12402
-1439.43
1442.55
326.417
823.724
-1150.14
622.633
269.937
-892.57
-2271.62
1158.95
1112.67
-1103.73
-1167.89
162.9
371.728
958.85
-632.433
878.639
-898.405
19.7655
-2099.38
992.457
-223.128
-188.536
411.664
-41.898
1770.41
-828.686
61.8098
-1029.82
-1067.01
-228.894
449.33
-670.203
159.714
-283.849
-455.298
739.147
1103.99
-1574.19
782.788
-1374.34
591.555
708.837
-455.109
1947.85
-1444.52
-378.284
-1376
52.2446
413.685
-524.24
534.1
18.0025
-570.495
552.492
568.45
-284.607
-602.578
278.07
324.508
779.824
-360.167
34.1357
327.789
1188.47
-1191.6
173.857
230.625
428.135
-711.984
619.051
-1005.79
-2026.74
2026.74
-278.475
-463.065
741.539
699.004
405.859
-1104.86
579.544
170.303
405.374
374.449
-2199.75
1328.86
-926.209
-679.635
1605.84
-478.148
-726.594
-270.931
587.539
-316.608
846.701
-234.128
-612.573
-446.409
634.566
360.763
-677.87
-363.938
-108.281
472.218
-1336.15
-476.276
659.349
-1137.5
-374.143
-1244.28
844.343
1463.87
305.745
-908.352
602.607
966.21
-341.1
1391.31
-797.916
442.577
-268.72
-326.48
-890.452
598.845
291.607
-365.156
-525.296
308.952
-415.09
-177.058
-160.826
337.885
-392.791
1091.79
434.475
-243.853
-391.258
1358.22
-167.339
-1190.88
-459.504
274.056
185.448
232.47
294.595
-527.065
-14.911
-719.576
592.143
-1729.05
1136.9
1483.67
-868.239
-1052.79
-421.153
-1056.58
573.904
482.673
1394.2
-413.375
928.928
-1411.32
-179.57
-171.565
351.135
-468.578
579.557
-1627.84
427.905
903.929
299.97
340.744
-640.714
568.051
1186.23
1103.29
-712.637
-390.655
402.293
-215.232
-187.061
-1419.44
445.96
737.499
-1183.46
1473.3
-544.369
-504.313
961.106
-456.793
426.155
1186.15
-1612.3
47.3939
-724.932
-146.818
421.285
187.226
-377.293
550.919
468.857
-579.214
30.1732
549.041
1024.52
-1307.66
283.132
663.991
-258.616
468.336
-1447.23
978.891
383.196
1687.62
-523.482
885.769
1057.13
-660.142
-1684.71
758.502
558.683
404.794
-963.478
455.765
78.9132
1750.07
-1828.98
1443.68
-379.491
-1064.19
1699.18
-1741.07
-366.456
-522.198
716.119
-193.922
-502.592
181.18
293.713
-373.17
-1225.96
214.442
-764.668
-639.102
-615.111
993.074
-377.963
-652.32
642.235
10.0849
654.913
-923.538
268.625
-692.815
341.238
351.577
-647.934
-724.706
353.87
370.836
-932.219
1400.56
-419.233
887.663
-468.429
-2205.31
5.55726
177.171
-533.964
356.793
140.042
1218.18
-63.3232
-606.88
157.348
-595.06
1487.08
-704.291
376.535
-461.502
84.9668
-563.501
563.501
1223
395.417
1778.09
-1228.39
589.616
638.776
848.364
-51.9019
1292.03
774.299
-540.559
1336.74
294.24
299.289
269.064
-791.262
207.84
-690.085
229.308
-442.057
212.748
-270.511
601.63
-331.119
104.458
-374.968
-591.572
-564.644
1156.22
-416.26
539.478
-123.218
-1192.15
2032.04
-839.886
1289.06
-330.207
-400.01
135.84
-1984.03
828.41
1549.14
-857.865
-691.278
1987
-877.457
-1109.54
713.968
575.09
-240.341
469.649
-686.599
1170.75
-484.153
-769.662
1201.16
551.768
924.6
-1725.42
800.818
-590.888
-48.5733
639.461
269.804
274.043
416.16
-78.2133
-337.947
896.57
-83.5219
-813.048
918.934
-575.368
-343.566
1576.18
-472.186
891.584
-1627.95
736.366
1068.46
879.386
748.089
-440.782
-307.307
-1058.93
-258.3
565.729
575.492
-1141.22
-522.738
502.075
20.6628
575.594
-342.23
-233.364
-984.635
565.402
594.681
888.99
-441.798
1096.71
1417.43
-784.705
-632.728
393.528
-923.612
530.083
-1041.09
391.049
570.898
-1075.21
415.92
-508.511
92.5911
448.651
327.185
-514.76
-48.7416
-794.049
-879.794
1673.84
191.324
210.969
-243.994
406.894
5.73416
-575.698
569.964
500.034
866.572
-1366.61
-488.939
311.881
985.472
-88.902
835.874
-1064.59
228.718
424.784
845.692
-1386.25
-451.628
830.406
1979.81
-1285.99
-693.817
269.783
608.856
255.692
795.429
93.7554
-983.756
890
1673.73
-1088.99
-584.736
-137.936
1888
-1866.09
-160.651
482.969
-621.136
138.167
-1013.03
527.186
485.843
-1730.47
538.318
-955.654
845.285
392.263
200.621
573.2
-267.454
-418.906
709.496
256.714
34.7701
725.387
-760.157
-1132.46
-896.269
2028.73
-557.859
1119.43
-561.575
-479.583
-330.642
107.514
-1656.03
861.981
-840.436
-627.372
1467.81
-330.513
-294.83
625.343
352.263
-676.187
323.924
244.986
-605.153
312.941
197.38
-510.321
372.653
-643.585
648.417
-296.154
314.827
-461.035
686.83
449.98
-217.509
-428.386
-296.32
1224.68
-0.596941
-1224.09
1039.24
-420.19
559.481
410.794
-1782.34
869.817
912.521
488.171
553.463
-1041.63
-533.886
203.372
-263.691
1181.41
-917.72
-1590.85
1212.57
504.642
-1096.21
384.511
-7.97602
465.355
300.003
-765.358
370.774
-616.109
-34.433
757.426
-722.993
-525.433
795.37
394.694
321.666
526.698
652.435
111.672
-455.57
343.898
1058.5
-644.881
-413.617
494.032
-1664.27
1170.24
-1140.36
1753.23
-612.873
1715.85
-1123.71
-334.391
612.462
-1189.25
1283
424.898
-796.812
1608.26
-811.447
-251.868
-207.636
-911.229
1471.14
1814.24
-610.884
-1203.35
-405.083
691.142
-1306.25
-124.698
-76.4579
492.618
-692.377
-354.18
-1236.67
-218.064
463.05
903.02
-557.539
177.043
-1674.73
-71.2559
1745.98
-1081.39
523.535
566.802
-1183.36
616.561
900.968
913.27
630.602
619.925
708.391
252.716
-1162.28
475.685
-395.875
413.877
618.458
-514.425
241.987
-729.937
487.95
735.91
-388.829
-299.58
181.52
-594.102
251.731
342.371
-886.802
-741.148
1087.67
-2145.75
397.834
-682.599
-342.857
-723.861
833.132
584.302
-339.755
306.365
418.428
257.097
621.055
-878.151
540.28
630.471
-513.817
149.88
373.267
-651.742
-1048.35
-848.386
1896.74
-1802.41
157.109
1106.9
-1370.59
1179.8
-713.133
-466.67
-504.07
1349.76
-1495.48
627.906
867.579
-285.795
-209.878
495.674
1428.42
558.579
338.429
-446.71
-481.914
-569.869
1051.78
-420.093
597.264
1582.79
-1130.12
-452.668
-814.956
351.891
654.675
403.823
-1623.42
416.176
1207.25
-186.936
499.877
797.689
785.099
176.292
-690.579
514.287
204.677
211.021
-287.929
-109.533
397.462
486.789
50.986
-537.775
-1651.49
598.702
-1612.77
1681.51
-68.7428
12.9613
-1625.73
1069.54
796.42
-331.065
-833.326
-207.761
-1134.57
-239.773
-312.076
682.85
-1812.66
-633.216
1208.71
215.792
756.981
-1331.35
-678.686
-465.763
665.708
-365.738
-1013.27
1350.78
-1932.93
582.15
646.789
1288.29
483.552
-2.6959
716.158
709.535
-1425.69
-637.512
333.689
303.823
438.269
-100.322
-337.947
145.624
290.21
154.557
-444.767
-590.943
1149.63
453.21
-645.956
-460.896
-401.887
862.783
-321.802
142.231
-456.199
162.044
-303.548
-709.481
545.146
-106.877
-573.422
966.95
576.146
-268.724
-307.421
454.473
-778.931
-645.396
454.385
-1129.39
-843.732
1184.48
-569.77
441.917
312.298
-492.304
117.002
1028.17
-315.185
591.346
-276.161
-509.041
1578.58
-711.422
273.427
364.814
-638.241
205.532
540.284
-28.2316
-512.052
-256.474
-199.726
1008.74
1108.89
564.841
-881.657
940.909
-59.2517
-453.987
168.192
-776.278
320.98
-594.125
371.229
364.682
844.439
-1261.13
416.693
776.678
-811.111
-948.897
-550.388
1499.29
-176.987
517.73
-539.431
202.296
1312.4
783.216
-606.924
1341.98
-682.633
487.502
-654.132
-402.76
-422.347
-378.586
800.933
501.691
-843.094
-492.575
82.5453
410.03
-319.767
572.452
727.848
-330.015
-241.005
-175.151
416.155
-487.466
139.61
347.856
1459.91
82.0602
-1541.97
-753.409
1348.09
-1144.77
-466.01
565.042
-200.228
1151.63
-374.952
1083.46
492.713
692.585
-423.52
-884.915
-522.415
-1328.39
-23.6388
985.129
-961.49
610.926
357.205
-968.131
-326.598
-211.307
-684.806
405.531
1621.21
-204.03
372.823
342.591
-715.415
-1839.77
-2106.69
1519.14
587.546
-2037.71
349.509
387.818
544.964
-932.782
-460.397
1019.88
-417.867
-680.526
1098.39
-2030.54
1391.21
639.334
607.277
-1025.14
15.9243
399.995
386.561
194.772
247.805
363.297
995.096
902.169
678.692
-324.213
-354.479
-292.056
620.017
-327.962
571.931
531.361
564.938
514.732
-1079.67
-796.146
-699.339
751.735
399.895
-411.533
735.457
-1193.4
1609.58
441.069
-1121.6
-330.974
528.354
-1388.68
902.08
486.603
-721.216
-350.538
-768.268
325.861
442.407
447.209
717.921
-1165.13
1072.07
-583.898
-411.32
652.414
-241.094
252.669
323.476
-467.28
-432.235
899.516
-232.329
574.95
-959.534
384.584
-458.766
600.598
-1681.28
423.876
670.616
-1094.49
515.828
96.6179
113.41
-2212.8
561.395
-119.479
1444.48
1777.09
-217.55
-1559.54
-438.489
1789.27
-1987.11
1194.53
792.585
400.836
347.253
-43.0718
876.204
-1283.08
718.44
-869.167
-822.174
798.535
302.344
59.5267
-361.87
226.358
180.764
-407.122
1557.71
-841.551
-1530.93
-325.432
467.1
-212.11
-254.989
393.496
366.424
255.949
409.759
-10.0702
1002.49
-992.421
419.002
288.676
-707.678
-734.116
1817.36
-1083.25
-342.832
736.328
-1224.51
-415.274
-914.818
482.582
612.027
-815.688
203.661
760.522
-379.188
-381.335
-439.729
-441.928
451.981
1111.18
1238.77
-671.97
800.211
-345.738
403.625
337.915
-245.266
-216.236
-241.347
624.543
408.135
-846.807
438.672
253.96
359.42
-613.38
-421.626
829.761
754.326
-1147.12
904.324
-59.8846
-485.959
275.098
785.6
-96.2034
1384.49
1890.5
-62.6288
336.685
-343.871
455.543
-1087.12
1077.05
674.951
376.471
384.051
75.4535
391.646
253.958
503.058
-372.836
-264.675
-562.692
-89.6284
-358.681
364.437
-5.75662
-257.843
-286.812
1010.91
-1540.7
529.788
-172.338
-198.925
-422.261
710.938
-1640.54
1590.99
-963.086
294.712
-697.472
584.324
1224.42
-1808.74
607.427
983.565
316.886
-1121.66
702.757
-314.417
-326.297
1384.28
-1449.51
832.295
617.22
438.403
-621.188
182.785
-365.637
463.482
-97.8452
412.568
74.2218
1724.26
457.045
-252.368
557.646
-1704.79
1147.15
-96.0541
407.996
343.121
335.57
-448.648
-615.154
1063.8
412.312
-863.94
-640.716
902.634
570.664
-470.193
-222.622
-437.632
-409.175
-307.451
-827.118
1821.1
-1821.1
-101.728
-1599.61
1701.34
294.289
281.306
-917.07
-555.48
1472.55
-408.212
973.15
-610.901
-1040.59
711.707
388.758
-1100.46
474.829
-160.002
573.068
1220.34
-1793.41
-1040.72
2114.26
-1073.54
-376.388
-295.428
-503.544
855.435
-1755.94
1604.24
151.704
1755.94
-1609.93
-146.013
-243.804
522.453
-278.649
-537.298
1620.76
1572.75
-1988.03
1102.76
-342.218
-233.936
576.154
226.258
-557.232
-730.447
318.914
1342.42
637.383
582.813
481.417
-1064.23
272.347
420.238
875.326
500.111
-1375.44
536.244
-1018.16
1574.95
-564.039
-785.447
-374.592
-157.544
532.135
-490.171
1208.09
-739.98
331.837
367.334
367.217
241.304
-608.521
593.475
831.78
-603.062
254.335
686.574
-470.193
-377.971
-208.539
586.509
1168.49
-692.636
608.591
467.145
-1075.74
-1287.58
1287.58
-385.016
761.488
-280.856
-479.108
759.964
493.763
440.402
-934.166
391.758
-672.614
608.092
-868.96
260.868
-367.476
-492.029
1074.84
-660.435
-711.718
1372.15
-367.341
942.291
-1552.74
675.279
-13.3755
-367.219
380.595
-557.861
717.575
288.244
313.386
167.99
306.839
-570.817
256.4
1870.01
-1966.21
249.09
-695.5
452.65
-820.741
368.091
-907.796
1432.79
-524.995
-430.063
-484.755
600.797
1124.18
-1724.98
-714.67
338.282
-462.06
1033.99
-792.271
1046.61
-376.812
-626.447
-517.86
725.7
539.147
-357.167
906.075
-304.437
-183.029
1599.03
-1816.58
-335.813
-623.721
-336.298
475.909
279.543
-645.281
-155.699
1070.87
-795.772
201.756
-326.104
-268.888
594.992
386.644
-880.096
493.452
-484.145
-455.844
-908.352
-363.444
550.284
-186.84
-438.804
-430.499
-331.085
-179.236
-393.62
634.925
-466.017
803.931
-1072.33
623.679
-1406.95
566.509
-28.4263
-1837.75
1866.17
570.009
-450.112
1232.31
-708.775
285.111
-285.111
672.344
-443.068
1041.35
-1652.25
-1158.74
-947.955
290.841
329.176
893.43
714.829
-511.616
-286.886
798.502
1659.59
-1688.02
-433.891
343.64
224.81
1134.91
-526.315
-943.337
1550.48
-607.147
442.824
-248.053
376.551
420.314
-796.865
537.084
466.746
-1003.83
-331.601
663.438
-38.0039
1908.01
1610.4
992.625
-1696.92
726.833
-1176.89
450.054
-492.49
1367.82
837.144
-1341.21
-594.694
252.476
801.818
-397.024
549.389
-1189.81
640.416
-636.289
-1215.53
-695.676
1911.21
-179.03
531.455
-352.425
-121.003
300.611
-479.641
330.794
367.256
-698.05
-1486.97
756.152
730.814
884.032
-1434.42
823.818
-432.408
215.038
-361.856
-623.705
245.735
-675.402
-713.28
698.027
506.801
-1204.83
389.829
-204.559
-185.27
555.161
-957.878
-576.834
-451.594
772.574
-831.321
-1155.79
-1437.96
499.692
938.267
25.1555
-664.324
316.765
347.559
-1319.07
1046.56
272.503
-616.007
-456.321
-665.712
921.405
399.521
-199.422
-200.1
508.309
980.546
-1488.86
977.487
-561.496
166.122
395.374
-439.137
666.409
-417.318
-503.776
167.478
234.233
-1520.22
525.888
546.181
-773.816
215.955
149.166
-453.603
362.606
-818.449
1954.16
-1195.39
-758.773
454.504
-685.037
230.533
322.688
325.147
116.298
-441.445
-574.888
192.238
264.807
-691.77
1374.28
-682.506
424.087
484.777
-1205.99
264.61
1866.77
-1013.59
-853.184
784.516
-511.34
147.896
1402.34
-975.15
-427.194
326.775
-769.843
-616.548
1725.43
609.171
629.601
319.061
-16.7177
255.089
-1138.39
1725.72
-587.331
-1763.54
820.198
1765.81
-1695.16
-70.6522
-655.731
259.857
607.83
-719.553
201.693
1402.65
-565.505
384.115
446.291
-1858.66
1420.17
530.02
-462.072
-67.9475
195.338
-526.423
-327.188
-152.395
-351.249
694.371
-624.218
249.627
615.333
547.572
-1162.91
1113.57
-1947.56
833.992
138.973
333.245
-1699.61
1661.61
307.201
-730.721
-166.44
381.478
759.466
678.274
-1437.74
1083.45
-1084.05
522.348
-1106.25
-628.639
251.185
377.454
522.156
-270.425
-623.671
-1028.58
286.024
-716.523
-912.321
165.818
162.063
227.766
394.285
282.962
-677.246
-633.974
-834.169
-978.493
486.054
-1060.94
-288.57
474.018
532.263
652.22
-278.542
-121.468
-442.444
759.329
258.794
-1200.58
566.601
1311.36
-551.893
436.93
-1013.76
-385.418
114.821
415.199
1023.26
551.692
-1721.21
1619.48
1645.89
-587.93
-1057.97
1904.9
-1893.83
-11.0727
238.542
-582.412
-345.595
547.351
-773.972
-321.906
-333.825
1022.22
704.124
-1515.96
811.833
305.047
-26.1865
1625.21
-1104.08
411.44
-1264.34
478.893
-61.0647
1520.98
1197.24
-470.405
-487.532
-73.9637
-235.581
736.047
-1951.58
-709.202
352.115
-530.651
178.536
190.942
-506.127
1139.93
671.585
-1811.51
-597.455
135.382
941.843
-1497.32
-210.521
678.835
-468.314
874.853
1125.15
-741.423
1350.59
650.574
-547.115
-103.458
-342.523
1174.82
1051.04
-1980.09
929.052
-1174.12
540.9
1488.76
-586.123
-394.318
-119.499
-1243.12
571.149
1167.57
-82.2614
946.159
775.767
-1721.93
-205.424
578.652
-1541.74
963.083
487.012
916.54
-1403.55
624.404
584.304
393.472
-1106.63
590.333
1108.77
1215.55
-452.236
-763.312
-1186.2
-1754.94
-5.26625
-1715.94
-175.513
-445.675
1609.21
-631.465
-977.743
-490.843
1121.45
-1319.47
634.779
684.693
-1363.22
1445.28
-1332.06
590.638
1520.5
-404.317
-553.737
159.419
-1495.73
220.031
176.382
211.013
439.561
459.577
399.763
-859.34
506.397
-938.919
900.458
-1444.83
-700.773
211.864
488.909
-1045.18
454.234
-478.761
862.876
694.637
25.8308
-508.769
156.344
-886.566
-1318.75
-714.167
348.354
365.813
401.365
-722.415
321.049
-477.134
-189.376
-709.029
722.406
1539.86
-593.7
820.52
737.189
1344.72
-844.605
-971.117
-570.618
-795.853
428.331
367.522
-1036.2
-641.144
302.564
338.58
-1433.69
-296.779
-789.619
396.852
392.767
-647.674
419.05
228.624
-671.978
254.66
412.809
486.707
389.897
439.864
478.217
384.566
596.07
-969.24
686.881
462.745
452.875
356.293
-809.168
1630.75
-1079.86
-550.886
-504.698
-289.616
-1029.45
453.197
347.735
409.716
593.523
-1003.24
-1382.47
751.005
-530.607
1147.17
346.765
-56.5552
412.367
-864.64
452.273
-1899.78
300.17
440.529
-725.344
284.816
-187.877
403.06
-215.184
-660.648
304.693
355.955
-672.902
318.423
370.884
390.603
612.335
-1020.55
752.52
663.138
-1415.66
438.832
624.97
338.783
392.504
-731.287
408.047
328.281
614.24
695.517
415.662
609.502
-1030.08
420.575
-1679.56
1176.82
502.742
1696.58
-539.18
619.898
-1147.14
527.247
-641.621
346.791
437.501
-934.505
497.004
782.271
-482.268
350.982
343.389
586.406
-922.218
652.381
-1252.87
600.492
398.625
734.363
-1224.53
769.156
509.775
-1278.93
493.393
398.195
-891.588
-501.727
-936.232
-298.584
629.378
352.568
541.307
-893.875
331.618
331.821
-502.186
1944.74
436.499
-846.496
409.998
-917.716
-807.701
-747.53
366.195
-1224.25
431.98
-1739.11
1609.93
129.179
1749.09
-1604.24
-144.845
-783.37
-591.309
264.151
327.158
-1765.81
1988.03
538.777
791.146
-1329.92
440.142
716.074
690.062
385.63
-1075.69
-42.8805
1617.14
-593.886
380.888
851.422
-648.004
325.313
322.691
-378.597
-297.092
549.761
-218.667
434.448
279.354
-664.377
385.023
263.012
-577.51
-281.238
442.674
-1033.06
590.383
538.058
1092.69
366.026
596.46
310.638
351.604
-662.241
1634.56
-930.439
1692.2
-1520.87
-171.322
-328.297
-822.36
413.186
857.384
-1067.9
-605.587
277.625
-1090.57
1628.63
-1595.99
-75.603
1671.59
-341.436
-350.303
-370.338
538.442
596.465
-502.384
-27.3518
-549.795
504.847
-283.608
-221.239
1758.28
-1306.3
-623.655
297.709
325.946
399.265
357.308
734.487
-294.479
-399.176
-1749.09
1688.02
459.678
-1100.63
640.956
-42.1983
1661.68
571.05
476.363
-1047.41
103.814
1144.62
-1452.08
-10.6256
-1889.15
226.198
-597.336
307.173
290.164
-955.083
612.225
-897.567
467.504
-1128.31
673.062
455.244
389.419
255.804
-767.42
-332.276
1216.64
886.496
699.249
-1182.82
456.163
726.653
494.515
700.403
-1194.92
-388.88
-248.017
410.08
-960.118
438.754
521.364
21.2354
-1879.9
1079.95
-471.854
-501.335
558.466
-1378.15
819.687
-429.267
797.358
-405.568
501.543
-712.42
1721.16
410.222
-182.456
214.828
-168.293
-246.187
414.48
1895.33
-504.121
-1700.36
1051.17
-599.851
302.759
-1013.29
552.897
-312.9
544.373
905.149
-1449.52
-1103.46
437.744
-20.9389
-1945.27
1713.93
-662.888
-540.001
460.812
-1190.33
729.522
192.422
207.1
-280.67
771.647
699.493
837.441
817.479
-461.186
1084.65
-498.099
476.75
-191.702
-285.048
-1923.9
-713.645
-317.983
-642.203
-6.54329
648.747
464.946
-272.708
566.775
1067.79
-808.691
924.208
1244.14
-425.508
-162.797
-252.336
415.133
959.282
-888.426
-316.949
-1067.52
611.199
1560.17
-804.017
537.751
934.799
-395.008
734.722
-339.714
1130.2
-275.197
381.072
1349.61
-705.924
-217.687
448.329
-1198.5
750.17
-977.365
-150.855
1128.22
440.951
-955.201
514.249
150.002
732.368
483.181
743.419
-122.365
852.231
-425.968
1182.29
-796.664
552.293
-1465.44
913.149
-1216.65
1800.97
-431.71
-1510.19
879.513
-1401.93
-314.151
-451.207
1457.16
-1525.2
784.054
1491.46
200.167
276.583
-354.611
-1739.11
-283.586
-1017.76
1584.54
-1774.8
1774.8
1572.75
-1004.44
-633.161
-337.305
368.393
604.758
-418.589
-363.173
-1389.78
897.286
1125.11
600.605
1202.59
1789.49
-1216.42
-616.272
273.244
1659.1
-1916.61
257.511
815.091
-1267.76
1545.21
-561.648
785.702
333.731
-353.128
555.147
794.615
655.56
1373.17
-264.799
-445.294
-361.894
495.979
-339.882
471.894
736.197
-296.601
-144.844
-333.533
566.702
-233.168
29.4154
-371.646
1107.4
-1720.28
-460.971
-491.674
-565.862
863.52
696.649
-1596.43
904.662
-451.923
-626.543
-514.468
1251.97
352.337
1723.76
-1702.53
-1659.59
1893.83
-1560.75
840.209
720.539
-396.519
-1797.62
917.83
583.538
819.111
-386.703
1794.41
-680.84
-457.051
700.702
432.784
-1133.49
-1100.48
444.173
753.065
-1617.16
473.235
901.041
174.743
-400.123
225.38
-1603.99
-387.912
-469.082
990.244
-676.518
1442.9
-979.192
1854.04
241.929
-547.817
495.463
-295.296
474.331
893.485
543.229
977.267
-463.114
-427.933
574.126
883.034
-1392.7
-40.9913
1577.01
-839.821
519.963
971.495
-1475.82
-1115.9
1779.27
-1242
-537.274
1206.1
-319.158
-886.942
-190.016
452.815
-262.8
-457.376
-250.62
429.444
-178.825
144.136
-392.153
1737.36
-1742.62
-462.643
-530.867
-903.553
442.384
-204.536
-237.847
633.328
-489.02
-400.197
-319.49
719.688
-951.696
426.4
-1167.16
676.317
416.672
-640.558
-435.735
1580.65
-865.819
530.192
-458.133
-570.295
-462.762
362.16
-351.715
-10.4445
-1118.73
409.951
-664.875
-1033.6
1698.47
-608.247
-1424.08
712.364
562.259
-1596.26
1034
-405.841
-477.951
152.419
555.971
-1258.42
743.95
539.247
1005.97
-2133.18
999.986
1133.19
-360.606
410.153
-384.961
-25.1919
1478.03
-373.748
449.583
1185.32
582.408
906.349
567.154
527.735
-1094.89
163.893
-444.697
-1695.16
247.88
1127.54
-620.192
518.567
1013.67
-1532.24
1092.82
-1643.71
196.645
707.679
551.751
-868.7
-1086.42
-170.064
426.408
-256.345
-586.69
-433.561
-636.778
-626.452
345.782
-1619.19
939.555
-476.954
215.423
-397.879
533.488
-307.29
-615.569
1197.11
-1300.1
938.776
361.328
-1020.81
-369.796
-760.912
-828.034
1691.55
-477.136
1794.86
-1586
-208.861
-1556.61
1018.68
537.93
-728.833
-257.916
440.108
-182.193
-598.197
384.011
272.454
-656.465
-524.13
994.086
629.02
-351.395
-1620.26
1050.49
571.79
1103.51
-1675.3
-418.453
-290.092
-370.556
-747.692
-499.08
-331.015
499.005
1557.99
-995.731
-774.776
1497.46
659.149
-315.509
725.883
1152.36
-1878.24
284.247
310.74
-487.35
-1933.19
1720.55
212.635
737.443
-474.856
-262.588
531.85
1060.79
-1592.64
362.16
-1726.57
-233.212
1752.36
-1580.68
1073.75
506.922
-1729.14
2.57171
-521.856
410.153
1699.61
-1720.55
939.529
624.872
-1564.4
379.579
-218.164
-161.415
-423.272
-248.706
65.7226
94.7532
-352.669
-428.213
-440.747
-405.877
218
1510.21
378.981
-193.235
-454.439
460.6
-195.793
330.13
1510.74
988.529
-174.678
-813.851
-1104.08
1704.87
-1728.86
1063.98
-707.31
-1021.55
-1265.08
1844.99
-579.908
1155.06
-1771.2
616.136
270.045
-877.949
1675.81
43.431
-1719.24
-491.178
-1083.01
-1737.36
-981.588
553.655
1019.56
590.251
1133.01
-1723.26
271.194
-471.422
702.825
-384.402
394.451
924.656
681.187
-374.279
-655.798
582.916
1072.52
-1655.44
-402.849
-366.441
769.29
401.823
-1661.61
1520.87
140.734
581.805
-1043.86
544.754
1083.87
-1555.65
994.005
-236.376
225.466
321.885
1904.9
430.785
-64.0088
995.855
722.752
-1718.61
-697.063
1085.31
-1557.49
163.86
-570.794
195.772
264.828
-669.893
-554.358
582.585
1034.56
-710.997
-259.321
-1368.51
674.877
693.636
-412.658
741.233
101.087
-842.319
561.96
-137.174
1557.35
-213.455
270.485
-774.196
-1933.19
1664.61
1021.55
341.238
295.169
487.103
-929.963
-993.935
-1767.26
635.196
1693.76
506.524
-474.475
1210.67
1087.1
-424.951
1029.71
-977.902
490.989
486.913
700.473
1047.92
-1748.39
482.843
484.107
-1493.95
-746.245
33.6072
779.341
-413.146
-883.749
382.414
-539.358
-801.856
602.607
-577.642
1397.33
1055.16
192.712
233.696
-550.646
1618.51
-773.775
1526.29
-1727.83
575.276
1152.56
541.648
-882.748
-1732.93
1916.61
-183.677
1721.74
180.107
-544.79
365.265
-270.511
-481.522
1211.04
568.273
1128.31
-491.231
427.315
857.353
-459.603
-771.537
428.41
343.127
1419.13
1089.57
-518.268
1422.93
-510.572
-533.235
1043.81
-602.783
511.15
-1224.28
1692.2
1839.57
-687.216
1585.85
-646.319
-1241.1
716.97
-562.666
200.347
-388.882
452.137
-241.116
-519.124
-1246.7
1870.95
-624.241
1173.38
-553.485
1120.27
-1659.45
1699.75
-573.962
-546.653
-549.831
1720.07
-316.769
-688.074
-473.368
1223.54
-1686.82
-1860.11
613.404
342.064
-954.637
166.645
211.855
-1719.02
1204.14
514.883
1162.85
558.89
-512.294
-465.416
1192.07
179.742
223.318
588.446
1251.13
-539.181
-1238.58
1777.76
-1025.33
999.989
866.786
-204.089
-1659.1
1702.53
-510.13
1411.17
-1732.93
-337.217
-8.96798
346.185
-260.282
584.087
-323.805
109.849
488.996
780.676
-379.31
1257.52
1270.75
-413.368
851.374
-438.189
1817.5
-662.434
1586.59
-1723.76
-412.805
-769.42
338.022
431.397
-560.391
-563.432
79.7405
-1138.67
-985.366
-670.017
1655.38
-943.703
-1189.47
209.275
-443.212
-647.884
705.69
1167.44
650.055
1410.31
-591.196
1636.73
1318.06
-574.105
-490.727
195.431
-503.303
1396.79
1240.07
-565.193
-999.985
892.191
56.6718
-948.863
603.429
-506.17
1403.46
1495.06
-588.715
-363.266
363.266
-589.5
1623.5
1239.37
-486.304
1134.14
-63.4045
1850.4
-390.383
1489.47
-589.016
-507.69
1347.9
-651.628
1218.6
-566.971
1554.81
-591.726
759.687
571.741
-1331.43
-671.292
263.244
519.972
600.482
-1957.29
-998
1586.59
366.496
-366.496
-65.9468
386.512
437.306
356.514
56.0538
-314.051
932.75
-534.125
-426.875
813.387
-241.815
619.269
-424.921
1552.87
-444.346
-884.042
184.7
225.781
-410.48
601.171
1250.77
-1851.94
926.459
-458.955
-351.715
126.15
-1943.03
1816.88
-449.209
180.489
1181.16
-440.483
-740.673
-297.042
-586.707
-493.931
-384.961
-478.59
257.351
1158.17
-561.709
230.67
-378.872
148.202
-22.8017
-107.681
1376
-1268.32
34.6002
-597.292
-586.443
-450.135
450.135
-1262.35
1985.1
-1344.35
-205.014
-1824.02
238.023
-1025.75
-974.244
-183.888
-1638.52
708.561
1229.32
-1925
367.087
313.834
-680.921
-1850.02
1234.27
615.748
-560.633
560.633
-959.067
-39.9821
-1866.09
-558.16
1650.85
-676.658
1636.18
-601.625
-183.48
-1705.67
-583.251
-474.251
-594.829
-464.508
464.508
-1537.81
194.529
1343.28
171.088
224.854
-395.942
505.839
482.69
996.588
-475.224
1751.3
768.318
-420.758
395.566
521.755
1702.06
-594.657
-552.976
1636.85
469.016
1812.78
-645.336
-1804.19
-1938.07
-647.02
-477.079
477.079
-576.943
215.05
-707.286
1019.05
-466.149
-1073.8
-287.165
1579.56
1852.3
1635.35
-1635.35
-287.818
739.098
1761.5
595.794
1275.15
171.46
208.119
598.425
592.86
1603.5
-1603.5
220.588
-355.327
-436.254
457.54
951.016
-460.027
-639.248
-1130.99
1706.26
278.717
-1664.28
623.689
-288.829
468.936
1744.65
-592.088
-214.647
-447
377.375
731.394
1738.58
-613.461
-511.777
-779.563
1960.54
-870.457
-1090.08
1642.75
-704.82
1223.97
-1824.95
600.985
368.05
-915.867
-185.511
-104.283
1097.96
-486.765
129.004
633.309
-1661.89
433.609
601.835
-1804.19
-583.285
1787.43
883.849
-1162.9
1760.49
-597.59
1783.83
-575.539
-1208.29
431.037
926.462
-1742.62
924.632
-1484.59
247.998
1236.6
-831.062
-1254.22
-377.19
74.8447
302.345
581.744
267.874
1029.6
-441.958
845.887
-403.929
820.716
739.958
-1560.67
644.12
1066.37
-24.1062
-662.543
686.649
-1744.39
722.845
704.039
150.548
-1122.65
1936.77
-674.556
-1262.21
-537.181
1665.49
833.894
965.386
-1799.28
1227.86
683.345
-405.038
709.731
832.11
1027.9
-586.949
1761.5
626.215
1773.56
-1185.61
-587.956
-424.854
-330.858
755.712
121.451
-1185.64
1660.54
-540.276
-1437.8
1437.8
1250.57
594.42
1351.49
206.502
-564.733
281.414
-189.45
699.113
1113.66
480.227
-300.484
-869.858
-574.969
1740.05
-1740.05
994.302
-994.302
987.334
1025.17
-2012.5
1837.95
-613.984
-581.115
847.936
-947.853
-1052.16
998.278
690.925
-1689.2
-514.76
-374.275
-650.869
-808.43
2042.7
-1246.42
-613.692
1002.97
974.854
1289.77
646.993
324.228
1012.69
235.119
338.718
1186.23
1756.88
-1756.88
671.722
79.7031
-387.125
-997.055
-539.994
1674.14
990.825
1009.17
-1833.29
-221.624
-361.627
599.219
-351.339
1849.53
-1077.86
-771.666
358.506
-20.077