/*--------------------------------*- C++ -*----------------------------------*\
  =========                 |
  \\      /  F ield         | OpenFOAM: The Open Source CFD Toolbox
   \\    /   O peration     | Website:  https://openfoam.org
    \\  /    A nd           | Version:  7
     \\/     M anipulation  |
\*---------------------------------------------------------------------------*/
FoamFile
{
    version     2.0;
    format      ascii;
    class       volVectorField;
    location    "19.5";
    object      U;
}
// * * * * * * * * * * * * * * * * * * * * * * * * * * * * * * * * * * * * * //

dimensions      [0 1 -1 0 0 0 0];

internalField   nonuniform List<vector> 
20933
(
(0.997418 -0.000266025 -8.71534e-24)
(0.989662 -0.000784596 5.30807e-22)
(1.02523 -0.00333503 -7.28072e-23)
(1.00028 -3.61596e-05 -1.48143e-24)
(1.00077 -0.00856543 6.3668e-23)
(1.00045 -0.00909675 -6.20342e-23)
(1.03974 -0.156974 -7.89795e-22)
(1.09648 0.0652575 -1.73072e-20)
(1.00711 -0.0776996 -2.01416e-21)
(1.10158 0.0661632 1.23997e-20)
(1.05042 -0.140956 -2.24716e-21)
(1.19365 0.11801 -6.54147e-22)
(0.987826 -0.0502824 -3.5008e-22)
(0.997281 -0.000316553 4.86739e-24)
(0.996111 -0.00320654 9.49026e-23)
(1.00027 -4.61068e-05 -1.34109e-24)
(1.2653 -0.0169875 3.0226e-22)
(1.1086 0.00143285 -9.47985e-21)
(1.00597 -0.117314 -1.51226e-21)
(0.991886 -0.000380227 -4.65433e-22)
(1.01878 -0.0893839 2.55817e-21)
(1.18931 0.117234 -1.1506e-21)
(1.10372 0.0718209 -9.36494e-21)
(1.13253 -0.180768 -1.44196e-21)
(1.02341 -0.00147978 6.70309e-24)
(0.993954 0.0791695 -2.70439e-20)
(1.00873 -0.00252901 -2.06035e-23)
(0.995775 -0.0541946 1.13008e-21)
(1.18249 -0.168946 -1.21574e-21)
(1.00845 -0.118588 5.21118e-21)
(0.998831 -0.00209675 -1.40045e-24)
(0.945115 0.0147669 4.14779e-20)
(1.13342 0.110691 7.58307e-21)
(0.993317 -0.0314741 1.22205e-22)
(1.00007 -0.00156171 7.27164e-24)
(0.998888 -0.00226161 -4.94388e-24)
(1.08942 0.0826102 -1.86887e-20)
(0.999903 -3.32354e-06 -1.90479e-24)
(1.01436 -0.0183607 2.04455e-23)
(1.11838 0.00291997 -3.29186e-21)
(1.03932 -0.00783408 4.28915e-23)
(1.10206 0.133754 1.32774e-20)
(1.03224 0.0405178 -7.78495e-21)
(1.0078 -0.00294508 1.72312e-23)
(0.993647 0.0760557 1.06802e-20)
(0.978035 -0.00152278 3.04636e-22)
(1.09162 0.00941945 -2.64644e-20)
(1.24232 0.0604997 -2.9989e-21)
(0.999615 -9.88874e-05 -6.38615e-25)
(0.976304 -0.044232 1.9738e-22)
(0.999978 -0.00166271 -1.82506e-23)
(1.07232 -0.00825254 2.40016e-21)
(1.1844 -0.10587 2.08074e-21)
(1.00038 -0.00368351 -2.44818e-23)
(1.22291 -0.107458 -6.5863e-22)
(0.952528 -0.0176328 -1.97879e-22)
(0.980806 -0.0295997 5.24021e-23)
(0.998714 -0.00271651 2.5551e-24)
(1.0103 -0.0452921 -1.08068e-21)
(1.26101 -0.0127143 -1.44355e-22)
(0.975312 0.028146 2.25335e-20)
(0.969213 -0.00434932 5.34237e-22)
(0.98965 -0.00329805 -1.41495e-22)
(1.11392 0.0655684 -8.10102e-22)
(0.999411 -9.2473e-05 4.19022e-24)
(0.995934 -0.00772878 3.16306e-24)
(0.995791 0.0545312 6.8519e-22)
(0.995447 -0.00807518 6.29816e-23)
(1.11721 -0.071372 1.5386e-21)
(0.999394 0.0804065 1.0092e-20)
(1.03928 -0.0400756 3.22095e-22)
(1.2719 -0.0472857 -3.15391e-22)
(0.996478 -0.00320915 -2.08172e-23)
(0.98591 -0.0368707 1.17284e-21)
(0.999721 0.011219 -1.01275e-20)
(1.07349 -0.0805755 2.12506e-22)
(0.999572 0.0751431 4.68936e-21)
(0.960524 -0.00495975 1.64577e-22)
(1.11641 0.00171058 2.0762e-21)
(1.00328 0.0314717 1.48587e-20)
(0.996772 -0.00802892 1.76353e-22)
(1.00216 -0.00433534 -1.58993e-23)
(1.1639 -0.171033 9.81176e-22)
(1.00797 -0.0752138 1.6754e-21)
(0.972069 -0.00345008 -5.88901e-22)
(1.03004 0.0381514 3.75478e-20)
(0.99039 -0.0468788 -6.53676e-22)
(0.904574 0.0506248 3.89993e-21)
(1.11039 0.0612037 -7.59334e-21)
(0.980971 0.0804022 1.71149e-20)
(1.1043 0.0248313 -1.02765e-20)
(1.00034 -6.65868e-05 1.3623e-24)
(1.00005 -0.000300222 8.1117e-24)
(0.952674 0.00482464 -1.15542e-20)
(1.24774 0.0549986 1.5169e-21)
(0.990108 -0.00346365 -8.09203e-23)
(0.961582 0.00311757 1.77141e-20)
(0.999537 -0.00439649 2.17213e-23)
(1.05442 -0.136083 -9.38817e-22)
(1.06689 0.0141288 -1.00722e-20)
(0.978123 0.0826293 -5.06744e-20)
(0.977499 -0.0102695 5.30083e-23)
(0.969907 0.0759189 -5.53756e-20)
(1.17041 -0.0962193 1.02477e-21)
(1.0969 -0.00278304 -6.06099e-21)
(1.09842 -0.0775491 -7.24189e-22)
(1.02202 0.0894566 1.91648e-20)
(1.15725 -0.0793371 -7.34066e-22)
(0.989402 -0.000452834 -4.7662e-22)
(1.03739 0.101656 4.36302e-21)
(1.19068 -0.172275 -4.03025e-21)
(1.03492 -0.156509 -1.81768e-21)
(0.97994 -0.0232941 4.57828e-22)
(1.0324 -0.020772 -3.89795e-22)
(1.07511 -0.0742906 -9.67688e-23)
(1.00008 -8.48846e-05 -1.87092e-24)
(1.04639 0.0659664 1.84651e-20)
(0.997285 -0.00750949 -6.70969e-23)
(1.1636 -0.107929 4.09087e-22)
(1.00281 0.0257353 -3.50968e-20)
(1.00033 -4.83979e-05 2.52707e-25)
(1.03018 -0.0929251 1.51469e-21)
(1.13451 0.0194696 -4.42163e-21)
(1.01124 -0.0518206 -1.48645e-21)
(0.993179 -0.0298651 -1.18415e-22)
(1.10954 0.00318182 4.93342e-21)
(1.16174 0.123206 -1.81787e-20)
(0.995506 -0.0521689 9.28038e-22)
(0.939135 0.0175345 -1.2085e-20)
(1.0425 0.0679983 9.86138e-21)
(0.992093 -0.0602185 -8.8984e-22)
(0.975941 -0.0425538 -6.1934e-22)
(1.03943 -0.00407641 2.84823e-22)
(1.01354 -0.016888 6.12613e-23)
(1.01747 0.0839646 -2.60272e-20)
(1.09354 -0.00537647 -1.6648e-21)
(1.22007 0.0749266 -4.12676e-21)
(1.0218 -0.0898802 -1.09158e-21)
(0.982383 -0.0103442 4.85783e-22)
(0.994458 -0.0797604 3.9307e-21)
(1.02654 -0.0959063 2.83423e-22)
(0.984465 -0.0381178 -1.15354e-21)
(1.27264 -0.0586246 -4.61486e-22)
(0.966977 0.0829304 -1.74545e-20)
(1.19604 -0.00379793 2.04339e-21)
(1.01657 0.086478 2.35122e-20)
(1.13767 0.136297 -1.91859e-21)
(0.970937 -0.0108714 -4.29687e-22)
(1.16881 0.115107 -1.27734e-20)
(1.00985 -0.00338733 4.97248e-23)
(0.970561 -0.00993335 8.56958e-22)
(1.00081 0.0788658 1.19497e-21)
(1.00006 -0.000257755 -5.16771e-24)
(1.00632 -0.0696141 6.45101e-22)
(1.0021 -0.00389724 2.59165e-23)
(1.13429 0.138973 1.05402e-20)
(1.02635 0.0398215 -4.01526e-21)
(1.12761 -0.177034 6.40394e-21)
(0.94849 -0.0205133 3.91246e-22)
(0.987039 -0.051523 7.38479e-22)
(1.22941 -0.116144 9.10036e-22)
(1.04374 -0.151539 1.20986e-21)
(0.998669 -0.00251027 -4.93207e-24)
(1.19338 0.00132917 -3.27888e-21)
(1.11044 -0.00269596 -9.47647e-22)
(0.907404 0.0526759 9.26455e-21)
(0.978629 -0.0104073 3.54268e-22)
(1.15734 -0.178091 3.78499e-22)
(1.06927 -0.0824617 -2.43077e-22)
(1.09027 0.0790938 -1.10125e-20)
(1.22478 0.0747259 1.34673e-21)
(0.989155 0.0606767 1.05677e-20)
(1.05637 0.118815 2.96051e-20)
(0.990632 -0.027497 2.29679e-23)
(0.918571 0.0143761 -1.37708e-20)
(1.13771 0.111946 9.21965e-21)
(0.99683 -0.000656494 1.07296e-23)
(0.989751 0.00725625 -2.65665e-20)
(1.08101 -0.0726014 -6.17673e-23)
(1.03116 0.105546 8.32775e-21)
(1.01253 0.091708 -1.19151e-20)
(0.999856 -3.0823e-06 2.29549e-24)
(0.964524 0.0580988 7.54491e-22)
(1.0545 0.103598 2.51482e-20)
(0.991288 -0.000629337 3.09283e-23)
(0.946738 -0.0146423 2.14111e-21)
(1.03878 -0.0374061 -1.90222e-22)
(1.07253 0.0107077 -2.5732e-21)
(1.16458 -0.101536 -5.14142e-22)
(0.935384 0.0447501 1.22986e-20)
(1.15991 0.119339 -6.22515e-21)
(1.23422 -0.0341369 8.43066e-22)
(1.06287 0.0105706 2.0283e-20)
(1.11599 -0.0653166 1.67096e-21)
(0.949208 -0.0215504 9.85221e-22)
(1.19335 0.0885621 -7.97161e-21)
(0.965415 0.0611458 -8.2815e-22)
(1.2406 0.022391 -4.20725e-21)
(0.993247 -0.000245227 -2.46193e-24)
(0.93161 0.044261 -1.20151e-20)
(1.21348 0.0497961 -9.72351e-21)
(1.23578 -0.0825899 3.92938e-22)
(1.18284 -0.0991116 -1.23454e-21)
(0.942355 0.0511217 -1.4852e-20)
(0.9577 0.0535587 3.48459e-20)
(0.967591 -0.0240533 -4.17046e-22)
(1.00109 -0.0384544 -9.78072e-23)
(1.07227 -0.0048846 -3.2763e-22)
(0.952855 -0.0190849 -9.77023e-22)
(0.998718 -0.000121801 -1.05294e-24)
(0.997222 0.0559629 -5.03565e-21)
(0.988321 0.0218269 -9.56856e-21)
(0.970384 -0.0137689 6.93336e-22)
(0.959602 -0.0330941 5.79775e-22)
(1.0329 0.1026 1.28583e-20)
(0.99908 0.0187719 1.53288e-20)
(0.998697 -5.85374e-05 1.37778e-23)
(1.00164 0.0213003 -2.37684e-20)
(1.16142 -0.0741851 -3.89219e-22)
(1.01451 -0.0148472 -1.03375e-22)
(1.00563 -0.0559701 1.10028e-22)
(1.02963 0.0627926 -1.99179e-21)
(0.958896 0.091863 1.62955e-20)
(1.10153 0.0222484 1.35859e-20)
(1.03855 0.0975271 -2.10255e-20)
(0.98125 -0.0103121 -8.23942e-22)
(1.00309 -0.0379303 -4.58684e-22)
(1.00011 -9.24452e-05 5.88097e-26)
(0.999086 -4.21438e-05 -1.16939e-23)
(1.00062 -0.00716943 1.2676e-22)
(1.13252 0.0168313 2.09692e-21)
(1.13048 -0.111223 -4.55372e-22)
(1.02383 0.0869399 -2.44426e-20)
(1.00257 -0.0933093 1.06896e-21)
(1.02123 0.0322923 1.44384e-20)
(0.991702 -0.0452016 -1.16662e-22)
(1.09239 -0.0742694 4.83756e-22)
(0.991261 0.0594406 1.88657e-20)
(0.95523 0.00379829 5.97559e-20)
(1.03063 0.0594916 3.42609e-20)
(1.00177 0.0728827 -2.88876e-20)
(0.958033 -0.0324064 -5.1564e-22)
(1.09699 0.119915 -8.05391e-21)
(1.01213 -0.0501871 1.62218e-21)
(1.10023 -0.0044716 1.23625e-20)
(0.997117 -0.0067731 -1.21026e-22)
(1.26184 -0.0956236 -2.61554e-21)
(1.16597 -0.0482528 4.05088e-21)
(1.08023 -0.0244931 3.70246e-21)
(0.999638 -7.5482e-05 7.39495e-25)
(0.987634 -0.000629096 5.65729e-22)
(0.955339 0.0937677 -2.5061e-20)
(1.15817 0.0439336 3.09975e-20)
(1.01381 -0.0197855 -6.90336e-24)
(0.973425 -0.0479674 -1.1419e-21)
(1.12487 -0.106984 9.97017e-23)
(1.07483 -0.16669 3.02098e-21)
(1.09788 0.132824 -1.66591e-21)
(0.995521 -0.0788125 -1.09032e-21)
(0.974085 -0.00185127 -5.73608e-22)
(0.998137 -0.06161 1.29254e-21)
(0.993906 -0.0264563 -1.37416e-22)
(0.999349 -7.06058e-05 3.22768e-25)
(0.990769 -0.0431362 5.95266e-22)
(1.04748 -0.151515 -5.7742e-22)
(0.966224 0.0796505 3.30142e-20)
(1.25647 0.0273738 1.89432e-21)
(0.981495 -0.0222145 -8.69097e-22)
(1.01901 0.0338626 -2.22798e-20)
(0.95937 0.057485 -4.13866e-21)
(0.991035 -0.048733 1.30297e-22)
(1.00062 -0.000256504 -7.8918e-24)
(1.00561 -0.0723837 -1.16795e-21)
(0.996032 0.0514144 5.82077e-21)
(1.2438 -0.134009 -1.83714e-21)
(0.97725 0.026108 -3.40159e-20)
(1.00004 -9.89653e-05 9.17993e-25)
(0.961453 -0.0363078 9.98782e-22)
(1.04561 0.118867 2.38403e-21)
(0.999429 0.0180923 3.12095e-20)
(1.03049 -0.0692039 -2.34428e-22)
(0.982079 -0.0282546 5.65909e-22)
(0.942699 0.0846763 2.66346e-20)
(1.2282 -0.067327 -6.18938e-23)
(1.22752 -0.0380853 -5.53821e-22)
(0.973486 0.0769648 2.28401e-20)
(0.937669 0.0505108 -2.51077e-21)
(0.989823 -0.0504006 -3.93478e-22)
(1.04414 0.121346 -1.53223e-20)
(1.13925 -0.00710232 -5.87604e-21)
(1.00477 0.0318799 -4.05935e-20)
(1.05999 0.0724631 1.12935e-20)
(1.00064 -0.000188242 9.56153e-24)
(1.26342 0.0298259 -1.52351e-21)
(1.08413 0.0761618 6.65806e-21)
(0.996709 -0.000572426 4.08144e-23)
(1.00132 -0.0984619 -4.31952e-22)
(1.22697 0.0262778 -1.87389e-21)
(1.14338 -0.170418 -1.10574e-21)
(1.21157 0.0439988 5.53864e-21)
(1.1702 -0.0290397 -2.44812e-21)
(1.00011 -0.000166581 -1.58282e-24)
(0.99962 -0.00310124 5.80691e-23)
(0.982427 0.0912649 -4.0563e-20)
(1.00134 -0.0128745 -2.85834e-23)
(1.01238 -0.117682 -1.21485e-21)
(0.992955 -0.0650119 1.33436e-22)
(1.18629 0.112295 -6.79504e-21)
(0.971708 -0.00424538 -1.04968e-22)
(1.03233 0.108202 1.47288e-20)
(1.18592 0.0151483 7.33621e-21)
(0.995876 -0.0621304 7.65827e-22)
(0.957931 -0.00598864 -4.55206e-22)
(1.09464 0.0756168 1.20013e-21)
(1.18304 0.0860213 5.87307e-21)
(1.00007 -0.000170369 -1.63303e-24)
(0.978546 0.0568473 3.38216e-20)
(1.04183 0.0714041 4.97183e-21)
(0.992535 0.0154385 -8.25751e-21)
(1.22536 -0.0978395 -7.29218e-22)
(0.999444 -6.75601e-05 -3.47635e-24)
(0.943855 0.0814276 -1.74992e-21)
(0.997263 -0.00468416 -1.1068e-22)
(0.994788 -0.0476964 2.48462e-22)
(1.18936 0.0842611 -2.4691e-21)
(1.23301 0.0201714 5.25901e-22)
(0.983849 -0.0506642 -9.84445e-22)
(1.22782 -0.0771819 4.1893e-22)
(1.0241 0.0378532 5.7497e-21)
(0.95434 0.00467074 2.17498e-20)
(1.01007 0.0831319 -3.08479e-20)
(1.16099 0.0210033 -9.17136e-21)
(0.909278 0.0192876 2.96941e-21)
(1.0003 -8.93711e-06 -8.50687e-25)
(0.991923 -0.0260563 -1.54794e-22)
(0.999973 0.0106564 4.12426e-20)
(1.18846 -0.142589 3.6218e-22)
(1.08348 0.0726227 -1.57119e-20)
(0.987872 -0.0372942 -4.69763e-22)
(0.996046 0.074163 2.8749e-20)
(1.17183 -0.00195345 4.72266e-21)
(1.00016 -0.00337185 3.18449e-23)
(1.16724 -0.00638085 -4.11912e-21)
(1.04653 0.0613021 -2.37947e-20)
(1.15228 -0.150883 1.34291e-24)
(0.972446 0.00673304 -6.17331e-21)
(1.06014 0.10817 3.56335e-21)
(0.999376 -0.000299838 -1.92851e-24)
(1.03426 -0.0187714 -8.32217e-22)
(1.1247 0.0929647 8.12791e-21)
(1.10739 0.000822267 1.81628e-20)
(0.998075 -9.80977e-05 -1.12354e-23)
(1.05713 0.115587 -2.6463e-20)
(1.01244 -0.0445761 -1.22264e-22)
(0.895822 0.051259 -1.60479e-21)
(1.02286 -0.0945311 -2.04929e-21)
(0.969814 -0.012513 2.92144e-22)
(0.988291 -0.000730175 -5.44485e-22)
(1.01116 0.0861266 3.44188e-20)
(1.05443 0.100973 -4.00373e-20)
(0.975207 -0.00265544 2.58958e-22)
(1.0929 0.0698059 4.2509e-21)
(0.980588 0.0765843 -9.88949e-21)
(1.00142 -0.0138152 -3.61964e-23)
(1.04384 0.00571946 5.8695e-21)
(1.02304 0.0160194 -1.62633e-20)
(0.898993 0.0291348 1.96308e-20)
(0.997633 -0.00392048 3.37999e-23)
(1.16512 0.0929014 -1.37137e-20)
(1.16095 -0.053146 -1.12237e-21)
(0.951131 -0.0171949 -3.46712e-22)
(0.999627 -6.09654e-05 -3.72371e-25)
(0.999751 0.0059755 2.48176e-20)
(1.10369 0.136996 7.77042e-21)
(1.23592 -0.0020628 -8.36137e-21)
(0.990373 0.091132 -1.04262e-20)
(1.15622 0.0241607 4.56935e-21)
(0.979193 -0.0292357 4.00088e-22)
(1.09991 0.115911 -6.00591e-21)
(1.10943 -0.00151958 -3.12324e-21)
(1.15236 0.040649 8.87268e-21)
(0.903893 0.0313728 -5.13475e-20)
(1.02473 -0.0826851 6.84012e-22)
(1.19775 0.0762309 3.18382e-21)
(0.991145 0.019771 -2.16518e-20)
(0.972171 -0.0487714 1.03863e-21)
(1.13378 -0.0172106 4.61738e-22)
(1.06102 -0.136276 2.17718e-21)
(1.12714 0.0887024 -3.6021e-21)
(0.994499 -0.000182937 -7.94997e-22)
(1.09572 0.0103725 -2.99448e-21)
(1.2366 0.00539008 3.67036e-21)
(1.20023 0.0710727 7.91299e-21)
(1.0012 -0.00430438 7.6555e-23)
(1.08918 0.00713282 2.80126e-20)
(0.997369 0.0126168 -2.07331e-20)
(1.04831 0.0431612 4.27119e-20)
(1.1433 -0.165916 -4.43038e-21)
(0.995023 -0.024948 3.04595e-22)
(0.94562 0.0470848 -1.73e-20)
(0.945926 0.016971 -4.44976e-20)
(0.997589 -0.00633953 -2.6886e-23)
(0.963039 -0.035484 4.59702e-22)
(1.01644 0.0631271 4.54328e-21)
(1.01669 -0.123407 -9.90521e-22)
(1.08649 -0.0772603 -3.26596e-22)
(1.09646 0.128354 2.50749e-20)
(0.990062 -0.000486738 6.79068e-22)
(0.894736 0.0263552 3.34222e-20)
(1.03194 -0.0618066 -4.83289e-23)
(1.15546 0.0999815 4.45768e-21)
(0.991518 -0.00922566 4.42783e-23)
(0.995689 0.012612 -8.83843e-21)
(1.06339 0.105505 -7.39361e-21)
(1.08041 -0.0191405 -3.80951e-21)
(1.09937 -0.083527 -5.90671e-24)
(1.23518 -0.0276501 -1.22842e-21)
(1.21109 0.0543868 1.0206e-21)
(0.999689 -0.00477297 -1.73871e-25)
(1.01345 0.0520779 -8.38314e-21)
(1.27858 -0.0411663 6.24572e-22)
(1.10528 0.0610478 1.86135e-20)
(0.898285 0.053903 5.14133e-20)
(1.2353 -0.0933495 4.46373e-22)
(1.06566 -0.0709487 2.38905e-22)
(1.00032 -0.00778652 -1.27379e-22)
(1.24292 0.0674581 6.4812e-21)
(1.24693 0.0166801 2.35432e-21)
(0.978583 -0.0227309 1.49264e-21)
(1.08131 0.118148 -2.36253e-21)
(1.00005 -0.00126576 -2.85915e-23)
(0.977406 -0.0392845 -2.1553e-22)
(1.01366 -0.0134714 1.55035e-22)
(1.22028 -0.0625586 -1.12191e-22)
(0.991872 -0.0414026 5.02158e-22)
(0.999628 -0.000127123 -1.05446e-25)
(0.991031 -0.0536277 1.49078e-21)
(1.19945 0.0876675 -4.15708e-21)
(1.1534 -0.159363 -1.55899e-21)
(1.04518 -0.0651757 -5.73096e-23)
(0.966177 -0.02467 -8.52311e-22)
(1.21952 0.0247833 -6.32917e-21)
(1.16409 -0.0260452 4.14571e-21)
(0.978914 -0.0504576 -5.2021e-22)
(0.952481 -0.00857559 1.4296e-21)
(1.00091 -0.00450294 -1.26965e-23)
(1.12292 -0.0744747 -1.60033e-21)
(1.02726 -0.132855 -1.51552e-22)
(1.01111 -0.00284011 -4.24862e-23)
(1.03352 -0.0660377 6.32594e-22)
(1.17858 0.0821889 -9.22547e-21)
(1.04973 0.0399584 -2.60976e-20)
(1.1974 0.00960365 1.63567e-21)
(0.999335 -0.000255542 -1.76731e-24)
(0.936728 0.0895805 -3.88393e-20)
(1.01125 -0.00146363 -1.79098e-22)
(0.999983 -0.00137111 3.42289e-23)
(1.03704 -0.0094281 8.23537e-22)
(0.966631 -0.0357161 -7.45154e-22)
(1.01102 -0.0856867 1.35381e-22)
(0.960386 0.049843 -2.05572e-20)
(1.02301 -0.0508448 5.48912e-23)
(1.1348 -0.00634506 -2.70966e-21)
(1.02259 -0.115049 2.19352e-21)
(1.01978 -0.117047 -2.87596e-21)
(1.09923 0.124759 -1.74153e-20)
(0.996658 -0.0482277 -4.0226e-22)
(0.994921 -0.0752194 6.8361e-22)
(1.00301 -0.0968457 9.72791e-22)
(0.999673 -4.29259e-05 1.31421e-24)
(1.16887 -0.0883097 -2.77944e-22)
(0.927349 0.0857123 -3.71068e-21)
(1.07708 -0.160872 7.6302e-22)
(0.964941 -0.044898 -1.77513e-22)
(1.08077 0.113256 -3.18867e-22)
(0.984752 -0.0477711 -1.03285e-22)
(1.0598 0.0682025 -9.39841e-21)
(1.17114 0.118309 -1.41423e-21)
(0.996845 -0.00501206 1.74367e-22)
(0.998606 -0.000177346 5.05466e-25)
(1.03801 0.0650123 2.92353e-21)
(0.904345 0.0658455 1.67678e-20)
(1.0615 -0.159631 2.0364e-22)
(1.14294 0.129494 2.3547e-21)
(1.20983 0.0914654 -1.13051e-20)
(0.970229 -0.0398611 -3.21184e-22)
(0.970262 -0.041837 -7.541e-22)
(1.01783 0.0659161 -1.24897e-21)
(1.09393 -0.00994327 2.51447e-21)
(1.16313 -0.162754 3.3077e-21)
(1.06462 -0.130103 -1.67803e-21)
(0.979166 -0.00157956 5.00353e-23)
(1.05789 -0.0136357 1.73992e-21)
(0.945095 0.0257772 -7.71185e-21)
(1.13356 0.00816963 -1.68595e-20)
(1.00028 -7.56508e-05 1.37785e-24)
(0.968608 0.0730099 3.56932e-20)
(1.03454 -0.0588078 -4.2541e-22)
(1.01231 -0.0872264 1.6238e-21)
(1.0488 0.117585 -1.38926e-20)
(1.01626 -0.0219099 1.08246e-22)
(0.990804 -0.00882934 -1.40456e-22)
(0.999403 -0.000433682 -2.10673e-24)
(1.1518 -0.0651041 1.07513e-21)
(0.967644 -0.0189378 -6.56501e-22)
(1.00029 -1.40837e-05 1.46329e-24)
(1.14569 0.131607 -5.786e-21)
(1.24601 -0.125712 -1.2122e-21)
(1.01156 0.0508013 -1.44758e-20)
(0.999306 -0.000101023 -9.66234e-25)
(1.00026 -0.004034 -1.37976e-23)
(0.983757 -0.0490311 -4.87393e-22)
(1.00001 -8.23047e-05 1.46311e-25)
(1.06258 -0.164557 -1.04326e-21)
(1.18102 -0.158709 -1.49536e-21)
(0.999731 -0.00404523 1.20077e-23)
(1.0093 -0.0686054 -4.78442e-22)
(0.947988 -0.0144603 5.13514e-22)
(1.04808 0.10664 -1.50074e-21)
(0.988537 0.0900327 8.46551e-21)
(0.997223 -0.00427026 3.49521e-23)
(1.00297 -0.00104328 2.49817e-25)
(0.999669 -0.0917926 -2.57014e-21)
(0.984702 0.0819342 2.70044e-20)
(1.00484 -0.0312938 4.07641e-22)
(0.979852 0.0533236 -9.46366e-22)
(0.983238 -0.0113253 -5.70167e-23)
(0.894582 0.0421309 -1.39847e-20)
(1.03833 0.0129417 -3.19496e-21)
(1.12887 0.0575054 -1.91344e-20)
(0.915783 0.0526855 -1.52856e-20)
(1.27557 -0.0297996 -3.15687e-23)
(0.990796 -0.00281826 -4.42383e-23)
(1.15364 -0.0523682 1.05019e-21)
(1.00887 -0.0323213 -4.69156e-23)
(0.990813 0.0814206 6.84602e-21)
(1.0167 0.0570832 1.96802e-20)
(0.972694 -0.00776703 3.36386e-22)
(1.25412 -0.091235 2.481e-21)
(1.11956 -0.0226775 -4.17882e-22)
(1.06301 -0.0751326 -3.23677e-22)
(0.995703 -0.000292823 -6.63947e-23)
(1.26212 -0.105767 2.58854e-21)
(1.00027 -2.78057e-05 2.24457e-24)
(1.04544 0.103406 8.68382e-21)
(0.946705 -0.013597 -1.95408e-21)
(0.994073 -0.0600574 -2.58143e-22)
(0.996895 -0.0287605 2.90465e-22)
(1.00765 -0.0550206 1.70541e-21)
(1.15255 0.0953723 1.36695e-21)
(1.1942 0.014974 -6.18317e-21)
(0.998357 -5.72058e-05 3.03453e-23)
(1.0257 -0.0488139 -3.32956e-22)
(0.999894 -0.000127036 1.03502e-24)
(0.895852 0.0392377 1.04705e-20)
(0.949471 0.0232413 1.58718e-20)
(0.995322 -0.00102699 -3.54307e-23)
(0.974336 -0.0123755 -3.61957e-22)
(1.03328 -0.035842 3.32054e-22)
(1.01842 0.0599771 8.46003e-21)
(0.94541 -0.0217305 -1.0267e-21)
(1.21239 0.0952723 -2.48393e-21)
(0.966921 -0.0458887 2.05989e-22)
(1.00608 0.0827148 -6.17213e-22)
(1.13238 0.0616158 -2.16569e-21)
(0.966809 -0.0206289 -4.50942e-22)
(0.902781 0.0212335 -2.14292e-20)
(1.05085 -0.00235551 -1.61979e-21)
(1.01402 0.0874275 -1.83904e-20)
(0.993394 -0.0131874 2.19365e-23)
(1.02929 -0.141141 4.55644e-21)
(0.977453 0.00407974 -5.1702e-20)
(1.01473 -0.0405679 3.72229e-22)
(0.902351 0.0702436 -7.60415e-21)
(1.02699 0.0698799 1.08237e-21)
(0.905964 0.0237916 -5.13962e-21)
(0.99128 -0.00291046 2.92958e-23)
(0.992386 -0.000551188 1.84388e-22)
(1.02956 -0.0885875 -4.49016e-22)
(1.16461 -0.0409429 -5.63041e-21)
(1.01504 -0.0217455 -1.21373e-22)
(1.0285 -0.0799642 -1.46262e-22)
(1.01018 0.0773449 1.6684e-21)
(1.00516 0.0894924 5.70021e-21)
(1.03995 0.0023811 4.5947e-24)
(0.987427 0.0799301 -1.92968e-20)
(0.910204 0.0751112 4.16184e-21)
(1.13087 0.10666 1.48701e-20)
(0.999027 0.00676517 -3.55087e-20)
(1.04484 0.0335312 -8.21455e-21)
(1.00525 -0.0166 -2.21308e-22)
(1.03509 0.0668429 -9.61196e-22)
(0.993422 -0.0747239 -5.91804e-22)
(0.968487 -0.0447925 5.40244e-22)
(0.998812 -0.0011909 3.16045e-24)
(1.05675 -0.0752433 7.16887e-22)
(1.11415 -0.144495 -4.95083e-22)
(1.08043 0.0394207 6.91068e-21)
(1.08244 -0.00883962 4.70306e-21)
(1.00251 0.0288137 2.91659e-21)
(1.00975 -0.0472562 9.91587e-22)
(1.12232 -0.0138201 2.52421e-21)
(1.0038 0.0227035 -3.40372e-21)
(1.01005 -0.0338707 4.84888e-22)
(1.09601 -0.0875879 5.05539e-23)
(0.999926 -0.000152699 -1.2761e-25)
(1.00045 -0.000213803 1.827e-24)
(1.07928 0.0356198 -3.07327e-23)
(0.995017 -0.0645875 -7.47876e-22)
(0.973972 -0.041797 8.48384e-22)
(1.00049 -0.000203614 -2.62483e-24)
(1.0001 -0.00280373 2.00147e-23)
(1.11888 -0.02674 -7.28848e-22)
(0.999466 -6.68134e-05 1.80669e-24)
(1.24557 0.0468534 -3.4408e-22)
(0.897429 0.0317201 2.70162e-20)
(1.13782 0.131803 8.85725e-22)
(1.11268 0.0705864 -5.64866e-22)
(0.968791 -0.00757344 -5.27796e-22)
(1.02889 0.0928253 6.71207e-21)
(1.23626 0.072365 -3.41629e-21)
(1.00527 -0.0291606 -2.38363e-23)
(0.97496 -0.0137704 -3.52379e-22)
(0.997626 -0.00363024 1.58121e-25)
(0.999349 -0.00038656 5.95677e-25)
(1.00179 -0.00457401 -2.87103e-23)
(0.997548 -0.0305481 2.53283e-22)
(1.04452 -0.140203 2.40496e-21)
(1.09786 0.0872492 2.16981e-20)
(1.19057 -0.0401942 9.49776e-22)
(0.965472 -0.00351643 1.25202e-22)
(0.999902 -9.1224e-05 -7.27843e-26)
(1.00129 0.051121 1.94517e-20)
(1.25337 -0.0131199 -2.22568e-21)
(1.26307 -0.0647704 3.42945e-22)
(1.01705 -0.0416936 -4.11971e-22)
(1.21561 0.0721574 5.04676e-21)
(1.05494 -0.0781445 -2.90617e-22)
(0.98392 -0.000846719 -9.59439e-23)
(1.00235 0.0190439 1.71143e-20)
(0.979409 0.000779071 -6.64106e-20)
(1.06643 0.128751 -1.82617e-20)
(0.990112 -0.0003933 -4.58687e-22)
(1.0638 0.128023 1.41613e-20)
(0.969404 -0.00544525 2.03806e-22)
(0.987376 -0.0446321 -6.20395e-22)
(1.12334 0.124444 -1.67105e-20)
(1.00026 -9.33775e-05 2.62695e-24)
(0.991018 -0.0291394 -8.5752e-23)
(1.16433 0.0975615 4.70675e-21)
(1.12695 0.0971126 1.71878e-20)
(0.968089 -0.0222728 -1.12503e-22)
(1.02211 0.0600946 1.29229e-21)
(0.962433 0.0941916 -1.69459e-21)
(1.01505 0.028949 -3.94712e-20)
(0.964886 -0.036626 1.16121e-21)
(0.953564 -0.00848006 -6.79845e-22)
(1.04861 -0.0616511 2.63222e-23)
(1.11318 -0.0020124 4.86312e-22)
(1.0217 0.0132982 -9.65203e-21)
(0.995544 -0.00139796 -1.33055e-23)
(0.974681 0.00953054 -1.93532e-20)
(0.994102 -0.0455339 1.34203e-21)
(1.03396 -0.140842 -3.08565e-21)
(1.14993 -0.0467817 1.26192e-21)
(0.933492 0.0913408 5.52174e-20)
(1.09933 0.0923812 -1.79319e-20)
(1.01374 0.0573171 -2.06847e-20)
(1.18994 -0.152266 7.34404e-22)
(0.963162 0.00227291 -2.95015e-20)
(0.969441 -0.0186886 6.60349e-22)
(0.988658 -0.0429477 4.47915e-22)
(0.924562 0.0110861 1.02881e-20)
(1.07717 -0.0269803 -1.18346e-21)
(1.0446 -0.129872 -4.2266e-22)
(1.01539 0.0808057 -4.23298e-21)
(1.0046 0.0794626 -1.29631e-20)
(0.979027 -0.0379528 -7.71593e-22)
(1.02637 0.0173783 -2.18388e-20)
(0.985174 0.0853862 -3.58596e-21)
(1.00537 0.0736261 1.69369e-20)
(1.03911 0.109079 5.56457e-21)
(1.01183 0.0808398 2.73261e-20)
(1.05615 0.0748451 -1.46813e-20)
(0.987185 -0.00358631 1.89575e-22)
(0.970586 -0.0202316 7.93218e-22)
(1.00277 -0.00732894 -1.44182e-23)
(1.01437 -0.115464 3.23422e-21)
(0.993571 0.0212526 -5.00616e-21)
(1.0199 -0.122061 1.88697e-21)
(1.18159 0.0922682 -4.27655e-22)
(1.15207 0.0529006 -1.13947e-20)
(0.974853 -0.0483766 5.93164e-22)
(1.2385 0.0447127 2.23088e-23)
(1.17142 0.110395 -4.60717e-21)
(0.992204 0.00893382 -1.52985e-21)
(1.22923 0.0343938 2.42712e-21)
(0.999745 -0.00338604 -6.35726e-24)
(1.06123 -0.0133143 8.88862e-23)
(0.986887 -0.048153 3.03769e-22)
(1.23694 -0.0622617 1.0752e-22)
(1.25439 -0.0604336 -5.03034e-22)
(1.02357 -0.129664 6.2356e-22)
(1.04015 0.104719 3.14782e-21)
(0.976485 0.0921525 2.85651e-20)
(1.17681 -0.0245298 2.89844e-21)
(0.996991 0.00804892 1.57143e-20)
(0.902647 0.0618593 -1.86948e-20)
(0.998469 -0.000107061 -3.85755e-24)
(1.00328 -0.00106567 1.20899e-24)
(0.996886 -0.00552392 -7.77477e-23)
(0.973607 -0.00820739 1.17262e-22)
(1.08072 0.0827933 -1.14766e-20)
(0.924603 0.0126468 -2.234e-20)
(1.13563 0.0117348 1.45315e-20)
(1.03044 0.0993864 4.0246e-21)
(0.983205 -0.0230453 -4.34951e-22)
(1.07301 0.118846 2.40752e-20)
(1.06964 0.125659 7.69372e-21)
(1.23944 -0.116635 4.14599e-22)
(0.95954 -0.0118719 6.57668e-22)
(0.946691 -0.0205225 6.31071e-22)
(1.18573 0.0962545 1.165e-21)
(1.01277 -0.0415749 1.88372e-22)
(1.18908 -0.0351117 1.52042e-21)
(0.97198 -0.0387674 1.70978e-22)
(0.953876 -0.0381236 -1.6587e-21)
(1.02134 0.0835438 3.02485e-20)
(0.992275 -0.00246687 9.04591e-23)
(1.02668 -0.0558669 -9.46689e-23)
(1.00653 0.0881171 1.4145e-20)
(1.23669 0.0365039 1.01484e-20)
(0.941267 0.0774884 6.29505e-21)
(1.01758 -0.082504 -7.9913e-22)
(1.0426 0.0113973 1.04816e-20)
(1.24545 -0.0667552 8.159e-22)
(1.00141 -0.0682091 2.90318e-22)
(0.977798 0.00719316 -7.11659e-21)
(0.989645 0.000484556 4.30535e-20)
(0.99035 0.0274805 -7.77472e-21)
(0.994724 -0.0324939 -6.01678e-22)
(0.938397 0.0158328 2.43852e-20)
(0.966726 -0.0336891 5.89677e-22)
(0.974426 0.0685291 8.90931e-22)
(1.12077 -0.0601774 -5.94696e-22)
(0.987362 0.0433243 -4.41499e-21)
(0.984068 -0.0459203 3.82029e-22)
(1.00005 -0.000217814 -2.01238e-25)
(0.987248 0.0380582 1.46421e-20)
(0.972366 0.0615595 1.70279e-20)
(0.976719 0.0746083 -2.73441e-20)
(0.988254 0.0329595 -1.70463e-20)
(1.07278 0.0056964 -3.7209e-20)
(1.13055 -0.0145867 -1.95822e-22)
(1.06899 0.0722395 -2.85003e-20)
(1.04153 -0.125883 1.0497e-21)
(0.996359 0.0175709 5.1283e-20)
(1.02174 0.0537655 -2.56695e-20)
(1.24681 -0.018007 2.74086e-21)
(1.08558 -0.0114965 -4.97093e-21)
(0.98758 -0.00340496 1.05662e-22)
(1.28163 -0.0240828 8.57283e-23)
(1.02741 0.0862878 -5.12995e-21)
(0.954369 -0.0297131 4.36144e-23)
(0.969273 -0.00462784 -6.11991e-22)
(0.991074 0.00467905 -1.01768e-20)
(0.982632 0.0466217 -3.13949e-20)
(0.99123 -0.0522516 -6.02745e-22)
(0.990276 0.0507249 2.29685e-20)
(1.02626 -0.137562 1.08515e-21)
(1.21454 0.066229 -8.34596e-21)
(0.993645 -0.000315277 -1.31073e-22)
(0.977495 0.0502152 -1.76479e-20)
(0.971584 0.054571 4.48948e-20)
(0.905473 0.0350609 4.17537e-20)
(0.982013 0.087741 3.72379e-20)
(0.996905 -0.000368848 -1.3651e-23)
(0.983408 -0.0249817 2.86352e-22)
(0.998652 -0.00122766 -2.66802e-23)
(0.997954 -0.0715458 -2.39372e-21)
(0.941461 0.0604096 -8.96005e-21)
(1.126 0.0785485 -2.48957e-20)
(1.03571 0.0946312 -3.00349e-22)
(0.954308 -0.036573 1.07448e-21)
(1.0452 0.0365954 2.58029e-20)
(1.03547 -0.0349287 -4.13515e-22)
(0.941009 0.0692933 1.29786e-20)
(1.08668 -0.0947964 -2.0413e-22)
(0.995108 0.00699791 1.73809e-20)
(0.993824 -0.00031118 -8.22004e-23)
(0.949581 0.0568565 -3.00583e-20)
(0.93328 0.0734613 -3.61766e-20)
(0.981748 -0.0261634 -7.45157e-22)
(1.17969 0.0402129 5.53898e-21)
(0.950819 0.0481643 -2.99822e-20)
(0.996362 -0.000560905 5.35109e-23)
(0.921975 0.035051 -4.7025e-21)
(1.04606 -0.0690968 8.18494e-23)
(0.99638 -0.000381478 -1.00327e-23)
(0.957949 -0.0131048 -4.60887e-22)
(1.01414 0.090735 -1.79625e-20)
(1.14987 0.0696395 -1.47238e-20)
(1.00943 -0.096916 1.47082e-21)
(0.994531 0.0882052 1.46296e-21)
(0.928794 0.0822955 2.3997e-21)
(1.06927 0.121371 -2.61061e-20)
(1.05449 -0.0102368 -8.87951e-22)
(1.00011 -0.0634864 4.60674e-22)
(1.14915 -0.0592494 -1.32706e-21)
(0.983522 0.0526533 2.58664e-20)
(0.930594 0.0352284 -2.7186e-21)
(0.900389 0.0338819 2.70007e-21)
(1.1245 0.0682555 3.84921e-21)
(1.00062 -0.00985142 2.62917e-23)
(0.977057 -0.00176691 3.00182e-23)
(1.02983 0.0890664 -1.82177e-20)
(1.00196 -0.00762913 1.79954e-23)
(0.984963 -0.00523569 -1.60065e-24)
(1.0031 -0.0119794 -1.05531e-23)
(0.994573 -0.0283794 -2.9685e-22)
(1.08685 -0.14076 1.76081e-21)
(1.17789 -0.139834 -9.66591e-22)
(0.963888 0.0737403 -3.98093e-20)
(1.01983 -0.0461573 1.63048e-23)
(0.998984 -0.000986476 1.69658e-23)
(1.02786 0.0562517 -4.00325e-22)
(1.14615 0.0961958 1.21481e-20)
(1.00198 -0.0121418 -2.95908e-23)
(1.19135 0.0772246 -6.7787e-21)
(1.00179 -0.00128135 1.89154e-24)
(1.14093 0.0532529 1.30759e-21)
(1.01511 0.0304893 2.7661e-20)
(0.988088 0.0485682 -4.45414e-20)
(1.14389 -0.146456 1.15831e-21)
(1.1633 0.0406721 -7.65862e-21)
(0.994239 -0.0134957 -5.15505e-23)
(1.11792 -0.0946853 -2.57577e-23)
(0.995242 -0.00172974 -5.72954e-24)
(0.98019 0.0594253 -4.58281e-20)
(0.962345 0.0717813 1.2314e-20)
(1.20997 -0.144283 8.2082e-22)
(1.17188 -0.15556 9.54678e-22)
(1.1344 -0.160799 3.67319e-21)
(1.03269 -0.0818528 6.08483e-22)
(0.991203 0.0846145 3.0862e-21)
(1.0353 -0.0746049 3.38402e-22)
(1.10795 -0.131398 5.10928e-22)
(1.07294 -0.154626 -9.11966e-22)
(1.11106 -0.0831304 2.11586e-22)
(0.913721 0.0351472 2.28908e-20)
(1.13733 -0.177731 -6.82092e-21)
(1.23043 0.0110398 -6.24492e-22)
(0.985136 0.0164301 8.90164e-21)
(0.994909 -0.000430214 7.83028e-23)
(1.18391 0.0202651 3.12801e-21)
(1.03758 -0.0670081 -4.2997e-22)
(1.07284 -0.14192 1.54991e-21)
(0.995594 -0.00106783 -3.5496e-25)
(0.999745 -0.00286978 -1.84069e-23)
(0.914776 0.0442731 -3.90269e-20)
(1.05259 0.0387936 1.9787e-20)
(1.20619 -0.152903 3.59647e-21)
(1.27709 0.00313749 6.4648e-22)
(1.05497 0.0659494 -1.06734e-20)
(0.993472 0.0496347 -3.61155e-21)
(1.0241 0.0570209 7.82301e-21)
(1.21811 -0.08206 -6.3783e-22)
(0.984928 -0.0515756 1.0655e-21)
(0.995278 -0.0436066 -3.51529e-22)
(0.988093 -0.0465654 -9.39577e-23)
(1.03501 0.0580531 -2.60739e-20)
(0.969599 -0.00587628 5.68001e-22)
(1.00465 -0.0646713 6.74695e-22)
(0.999669 -4.31894e-05 -6.84605e-25)
(0.972311 -0.0198597 -1.32218e-21)
(0.997741 -0.000631066 1.00651e-24)
(1.10759 -0.147381 1.26234e-21)