/*--------------------------------*- C++ -*----------------------------------*\
  =========                 |
  \\      /  F ield         | OpenFOAM: The Open Source CFD Toolbox
   \\    /   O peration     | Website:  https://openfoam.org
    \\  /    A nd           | Version:  7
     \\/     M anipulation  |
\*---------------------------------------------------------------------------*/
FoamFile
{
    version     2.0;
    format      ascii;
    class       surfaceScalarField;
    location    "21";
    object      phi;
}
// * * * * * * * * * * * * * * * * * * * * * * * * * * * * * * * * * * * * * //

dimensions      [0 3 -1 0 0 0 0];

internalField   nonuniform List<scalar> 
44730
(
-595.477
668.25
-72.7728
1063.48
-1072.41
8.92664
-334.687
381.676
-46.9893
224.392
-259.478
35.0862
-498.296
498.296
217.614
-262.41
44.7964
-378.113
375.167
2.94586
27.6579
-565.736
538.078
664.003
-833.714
169.711
-1009.33
1102.29
-92.9637
558.008
-146.527
-411.482
-532.729
536.359
-3.63036
-687.778
582.633
105.145
-859.811
868.87
-9.05936
248.125
64.3054
-312.431
385.288
-10.2785
-375.009
814.507
-666.884
-147.623
-395.725
406.382
-10.6573
160.936
314.802
-475.738
290.1
-356.498
66.3978
-593.988
81.6822
512.306
724.613
-60.6103
49.6177
-384.305
136.476
-489.31
352.834
240.519
-133.629
-106.89
1067.75
-4.27417
659.803
-680.939
21.1355
-275.924
-7.92804
283.852
289.276
-41.1506
-442.724
543.933
-101.209
954.061
-248.692
-705.369
-672.413
762.154
-89.7409
252.351
-226.006
-26.3447
480.609
-72.2801
-408.329
137.827
-413.75
265.605
-432.186
166.581
433.862
-578.684
144.822
291.705
-40.4228
-251.283
824.992
-979.726
154.734
1062.58
-237.59
-1018.23
1035.75
-17.5163
401.556
-89.8811
-311.675
704.047
110.46
191.294
-313.76
122.467
1228.48
-777.71
-450.77
-591.267
148.543
537.774
-538.88
1.10585
230.492
645.545
-876.037
225.097
537.255
-762.353
-104.862
538.724
-382.939
167.006
215.933
-10.9132
-226.454
237.367
-667.823
-4.59038
238.757
-21.1427
423.826
-38.538
-269.116
-44.5605
313.677
524.318
-499.635
-24.6829
-34.2972
-559.691
-464.905
43.8825
421.023
-298.986
-30.7059
329.692
799.497
17.5785
-817.076
-409.159
570.095
6.89445
-241.15
234.256
-218.88
484.485
-314.247
428.181
-113.934
263.32
244.7
-508.019
496.415
-124.06
-372.355
429.104
-49.044
-380.061
-453.462
-31.3409
484.803
-986.731
-31.5
1060.92
6.83924
293.912
289.309
-583.221
-243.974
547.418
-303.444
167.673
88.1969
-255.869
-431.382
381.274
50.1081
-370.894
387.347
-16.4536
272.287
-154.064
-118.223
-250.843
-59.5849
310.428
-699.29
16.5381
682.751
408.167
-90.238
-317.929
-252.017
252.017
86.0627
-761.147
675.084
-664.26
68.7832
-947.217
848.23
98.9867
-322.079
-56.0339
-18.9336
216.442
-197.508
517.901
-139.766
-378.135
-644.503
-43.275
652.42
-69.7872
95.9078
82.4143
-178.322
-358.652
94.5102
264.142
-308.206
57.3632
846.49
-621.392
564.166
-597.146
32.9798
221.902
-93.0473
-128.855
-353.168
127.923
225.245
-25.7136
256.481
-230.767
-846.738
847.501
-0.762821
-34.3047
-157.884
192.189
259.954
3.3873
-263.341
-711.445
12.1559
-264.556
282.481
-17.9246
778.731
20.7665
431.894
-635.15
203.256
204.214
-215.127
-754.639
817.551
-62.9118
639.707
-717.188
77.4809
74.6581
577.762
943.839
-846.977
-96.8625
-216.674
245.31
-28.6364
199.755
52.5955
356.286
120.468
-476.754
1009.1
-256.886
-752.21
18.121
563.943
-582.064
-12.6669
-587.486
600.153
538.525
-244.613
105.493
423.607
-529.1
-303.086
407.175
-104.088
76.7359
-814.825
738.089
-699.285
455.311
13.4991
-214.589
201.09
19.7894
-855.244
835.455
-322.791
319.589
3.20187
-39.4957
302.815
24.0481
-890.883
866.834
-347.049
345.162
1.88665
-74.1291
-321.596
13.636
-290.2
276.564
704.379
-786.868
82.4882
726.119
-860.284
134.165
-152.81
344.104
172.586
99.7004
192.167
-205.321
13.1543
301.162
-307.242
6.0795
-126.505
558.399
626.95
327.111
150.457
66.459
-216.916
275.51
-314.697
39.1861
224.377
-257.504
33.1273
-22.5514
282.505
-353.506
6.45724
1.85173
-185.294
183.443
220.711
-58.827
-161.884
181.124
827.972
-198.074
-739.275
937.349
-101.128
-397.169
523.037
14.7369
234.326
-226.33
-7.99636
274.276
-225.796
-48.4795
32.517
-222.549
190.032
-397.422
635.113
-237.691
51.4143
509.77
-561.185
984.102
-886.549
-97.5534
790.89
-787.086
-3.8041
-573.293
-237.327
810.62
-145.801
722.09
-576.289
454.442
-443.56
-10.8821
-206.648
-5.5895
212.238
34.7791
-763.504
728.724
-165.532
-217.407
-245.48
231.96
13.5198
242.313
-17.9214
20.1599
1020.87
-572.446
-448.423
735.194
-933.268
-398.786
95.7001
12.1332
208.578
16.5064
-778.267
761.76
-90.3767
-856.84
416.854
-451.872
35.0183
-106.716
832.835
53.7919
-736.614
682.823
-204.587
-2.06084
275.51
6.30404
249.561
-255.865
-432.388
432.388
82.615
679.816
-762.431
-313.502
48.946
-579.697
597.818
323.584
-310.993
-12.5917
-777.831
-63.2689
841.1
-148.314
450.316
-302.002
429.187
88.7136
429.53
-442.495
12.9651
268.993
-44.6166
-208.956
-325.108
534.064
500.754
-381.167
-119.588
-328.29
18.9924
309.297
785.693
-81.3131
-520.113
-80.236
600.349
-661.057
661.057
-128.551
503.591
-375.04
94.8188
-348.222
253.403
-919.493
346.2
306.412
-357.506
51.0932
436.773
17.6692
813.947
-498.005
-315.942
914.639
-65.3176
-849.321
74.7831
147.119
-847.338
614.388
232.95
-22.3801
271.801
-249.421
-208.786
224.549
-15.7631
-44.0892
-488.64
875.185
-890.232
15.0478
-54.1304
429.462
-12.6084
788.631
-792.678
4.04692
247.074
-12.7483
26.1552
-242.829
822.127
-963.813
141.686
241.907
-343.179
101.272
570.591
-570.591
899.94
-93.2329
-806.707
594.201
73.0871
-667.288
59.8914
-330.656
270.765
-176.056
260.328
-84.2722
-475.789
327.475
53.2528
735.378
-392.934
529.41
251.195
-176.411
-684.05
-176.234
484.684
-630.484
453.453
-501.009
47.5559
-896.977
1031.87
-134.897
-579.996
555.61
24.3862
506.273
-582.12
75.8468
129.416
733.455
-862.87
211.26
530.752
-742.012
723.347
505.133
322.22
740.362
323.557
-232.113
-91.4438
-294.31
294.31
370.872
-401.824
30.9519
-28.155
1089.07
269.309
-322.815
53.5058
531.423
-480.008
-297.429
-562.382
551.582
-565.317
13.7346
-29.2516
904.436
263.124
-285.504
-232.951
205.639
27.3126
498.912
-587.652
88.74
-197.636
959.075
-761.439
588.715
-82.4419
772.027
-383.346
-388.681
338.544
-48.4438
471.991
548.878
-205.637
186.704
-743.846
59.7961
-933.668
36.6912
477.508
46.81
-679.906
891.165
-693.067
-61.5722
186.815
-204.098
17.2832
-74.0042
915.231
-841.227
-38.0545
-817.792
855.846
181.701
-179.849
49.5966
172.672
-222.269
-8.33144
-365.991
374.323
326.28
-312.644
-607.936
210.514
-235.333
437.476
-202.143
908.558
-678.065
304.323
19.2342
304.229
-11.0332
-293.196
-568.297
161.545
406.751
460.478
-30.9488
519.05
-728.006
-370.65
-0.243376
646.706
-746.166
99.4603
-231.205
157.571
73.6331
-656.169
638.944
17.225
227.193
-220.889
71.8542
179.34
-743.417
826.032
-306.232
320.791
-14.5593
68.0095
-362.92
294.91
231.685
-208.453
-23.2317
526.284
-328.516
-197.768
9.50765
-346.716
337.208
-497.163
484.496
-70.3157
271.267
-200.951
-662.053
159.216
502.837
-344.214
-8.9533
653.761
6.04273
445.103
-21.2774
-161.151
8.85523
152.296
-23.1042
725.627
-702.522
-854.302
983.718
320.971
-151.94
-169.031
677.314
-775.099
97.7844
424.509
347.518
706.298
59.6773
-765.975
818.103
81.8367
552.313
-525.251
-27.0626
1093.72
-1012.32
-81.4068
3.49301
-294.477
290.984
285.257
18.972
98.988
141.531
210.636
-18.4689
197.758
-199.091
1.33381
142.062
150.232
-292.295
-303.534
283.421
20.1123
-163.112
-299.028
462.14
420.179
-548.73
-318.782
199.009
-192.519
-6.48966
193.854
1009.12
-561.593
-447.527
525.806
-109.105
-416.7
129.859
509.847
82.1617
470.151
0.793739
-694.338
714.025
-19.6876
44.9577
-547.266
502.308
-90.7829
-248.987
339.77
-448.476
38.9954
409.481
-140.397
-335.959
476.356
779.995
-1.2643
23.8203
196.251
-381.247
184.997
155.073
-225.389
-920.822
849.492
71.3306
-294.709
306.147
-11.4376
671.64
-85.0884
-586.551
1047.01
-603.804
-443.204
197.187
-191.423
-5.76397
265.361
-110.907
-154.455
-421.096
418.034
3.0623
662.904
-31.2646
-631.64
-695.294
0.956744
377.279
30.8877
-557.304
444.66
112.644
584.015
-578.244
-5.77152
-855.761
44.4016
811.359
856.373
33.1979
-889.571
-424.454
284.056
-202.694
41.5427
-327.711
533.705
-205.994
-183.939
-49.0124
754.994
-793.048
-147.278
196.875
536.709
-167.879
-368.83
-123.496
-308.892
217.572
-218.041
0.468915
619.58
43.3241
683.402
-608.744
23.1651
-302.232
279.067
837.696
-876.465
38.7688
-304.586
-6.40639
956.294
-959.447
3.1528
57.7395
192.309
-250.049
680.222
-33.5155
569.835
-592.849
23.0142
-829.067
848.856
203.456
-189.957
786.467
212.09
746.984
150.55
196.052
-346.602
-298.76
-7.25122
821.298
-68.1138
-753.184
598.122
-129.927
-468.195
251.057
-84.0506
82.378
414.037
84.9866
-261.043
473.794
-503.843
30.0492
141.951
-348.322
206.37
137.607
388.676
54.4066
860.232
653.097
-773.229
120.132
-22.6022
978.896
-282.27
-18.115
300.385
-220.474
206.234
14.2408
-6.80322
174.476
48.2345
452.52
334.994
-343.326
-350.923
36.6765
-342.481
43.4954
838.339
-58.3443
81.6789
-228.121
146.443
-955.843
22.1745
-919.583
-36.2598
-486.286
57.7326
428.553
-733.627
902.589
-168.962
-198.031
-63.8417
261.872
-119.448
-88.8152
208.263
-158.014
-42.3732
200.387
-129.203
228.167
-98.9639
853.462
417.3
-221.05
154.827
-12.2415
-567.755
-879.494
-41.3288
448.664
149.459
191.163
-518.874
200.773
-1107.09
906.316
23.0944
205.812
-228.907
-4.44505
-204.34
418.443
26.6596
89.13
701.76
279.697
7.87015
-287.567
-469.854
575.347
728.807
72.7999
-801.606
-779.143
-7.72465
801.645
-855.654
54.0095
297.534
-281.656
-15.8773
85.1997
235.772
850.827
-864.946
14.1187
978.827
-862.146
-116.681
939.203
-943.741
4.53746
-394.039
-163.265
-3.00368
-872.94
545.773
327.167
-180.812
161.724
19.088
-245.323
387.386
139.987
91.4252
-231.412
755.98
262.61
-255.716
431.608
94.1978
783.337
-697.329
-86.0088
-52.536
-101.609
-94.0905
195.7
-306.672
261.272
45.4005
862.628
-838.58
-21.3969
379.141
-357.744
-327.277
-26.2294
571.312
-583.506
12.1938
367.365
-327.434
-39.9315
-828.542
731.227
97.3155
-905.819
831.815
142.76
122.602
-405.832
276.508
129.325
467.626
-453.764
-13.8623
621.128
-622.644
1.51579
518.058
-44.2648
-311.088
-135.797
446.884
7.98226
-290.253
-69.0274
-248.655
317.682
544.288
563.931
-1108.22
-900.864
849.219
51.6455
-0.525434
-404.685
418.484
-13.7986
431.6
-399.572
-32.0284
672.795
-846.719
173.923
711.499
-882.37
170.87
-502.876
-159.177
-433.229
63.2637
369.965
304.128
-6.15999
-297.968
-326.649
168.635
476.316
81.6922
-719.716
-108.827
10.6751
187.083
-301.099
302.26
-1.16057
28.9608
-334.126
305.165
489.781
39.8527
-529.634
-234.981
302.152
-67.1712
-896.193
-19.6384
915.831
-201.571
-34.1914
235.762
6.45829
-847.207
840.749
804.706
-118.397
-686.309
339.519
143.691
-212.718
-874.874
-21.3187
808.651
40.8403
-1.90425
546.787
-190.501
-508.119
-17.9908
526.11
-801.991
913.793
-111.803
313.453
-245.444
-401.363
310.581
-30.033
590.675
63.0861
383.317
-241.365
305.119
508.828
-13.3903
25.4026
341.963
-777.296
86.5985
690.697
456.455
95.1278
-133.255
-26.5935
159.849
-851.804
-23.0696
68.6824
332.873
-194.63
230.931
-36.3016
45.9099
-280.891
-281.519
274.511
7.00804
-18.1773
27.1291
-513.857
486.728
-611.383
-134.783
-21.1287
301.208
-280.08
-335.07
455.538
599.385
447.623
-1102.78
430.489
672.291
329.15
0.299177
-329.45
-238.996
-162.581
401.578
-525.54
553.198
-661.268
-18.8173
680.086
100.012
84.7411
-184.753
-44.2527
799.246
839.136
-862.631
23.4951
807.453
-154.357
38.1472
-603.883
-324.098
-22.6182
556.796
57.7649
-614.561
438.622
21.8562
-349.065
392.033
-42.9679
-853.769
-3.75268
857.521
-27.8193
-823.985
277.111
-281.364
4.25263
625.217
-4.08913
567.624
-412.569
-155.055
-219.827
273.276
-53.4486
-90.5755
-260.348
-420.497
-44.4078
895.278
-183.778
-822.758
89.1311
-629.262
17.8794
-539.149
49.5717
489.577
820.549
-39.6259
-780.923
-257.018
127.816
1.62913
-356.479
354.85
860.494
-187.698
306.934
-2.80626
636.991
-67.1564
494.27
-4.4888
801.365
-712.235
-1045.14
-57.6419
444.767
22.8592
532.034
32.1323
730.447
-695.667
796.25
-38.5746
-757.675
192.668
-226.972
274.307
-13.0351
-117.929
205.291
-172.774
474.928
15.468
-490.396
576.432
-96.9104
-479.522
-458.938
421.711
37.2271
128.863
672.502
7.58579
-97.5995
-759.752
857.351
79.9992
-666.686
586.686
225.102
-302.883
77.7809
-742.581
644.982
91.7295
712.977
-504.41
1048.7
226.103
-144.424
-277.271
-175.706
254.423
-78.7163
208.194
-265.933
57.7391
-179.382
319.369
8.77949
-336.056
-51.0881
5.18788
-410.349
405.161
-47.5278
-161.668
-194.83
-28.9349
366.731
-337.796
-870.855
944.463
-73.6083
45.4895
-528.048
482.558
25.5882
-246.063
-755.786
106.105
649.681
359.248
-221.422
819.406
1.14224
-32.6589
221.667
-189.008
437.205
130.419
-105.007
-328.222
816.064
-201.676
-95.2166
-914.112
615.853
-326.545
124.14
52.4446
652.665
-566.602
495.566
-14.9567
341.655
-35.2424
338.829
-421.206
82.377
192.349
-232.385
40.0358
49.9216
247.798
-297.719
338.992
-502.104
-4.93801
761.957
-806.209
537.589
-62.6616
-106.421
738.106
-631.685
-268.994
303.023
-34.0291
-69.4963
294.598
202.33
-190.197
-280.569
11.5744
-1058.98
587.311
471.673
-35.8578
-77.9365
173.844
-308.912
294.446
14.4655
-676.011
692.518
267.938
-272.739
4.80066
-479.733
180.705
-502.869
-556.115
238.202
-278.625
847.161
-946.592
99.4308
-343.719
19.6218
487.177
-627.017
139.84
-2.57052
811.222
259.012
-279.482
20.4704
-322.726
-550.214
-37.3291
293.147
-25.2083
358.654
-127.532
-231.122
-19.9111
-841.831
861.742
-877.228
488.643
388.586
-55.8899
735.706
-459.345
38.8477
-143.103
-119.291
262.393
874.677
-818.492
-56.1844
392.398
-323.715
797.245
4.39931
108.11
81.9065
-190.016
-580.553
1024.4
-443.844
143.99
-192.156
48.1658
-758.993
-144.98
903.973
141.556
217.098
853.507
-31.3803
813.471
-736.735
503.248
-420.87
-14.6126
-226.537
37.8989
151.75
-189.649
310.61
236.177
-23.6545
-1098.2
619.197
479.003
8.36574
891.706
-60.5424
-831.164
-430.562
622.585
-192.023
57.1396
756.331
27.028
-535.147
-590.515
-18.2538
608.769
409.856
144.028
-553.884
-264.747
-522.339
278.704
62.9504
-176.642
-75.3754
-406.104
352.592
53.5117
-792.831
294.826
200.415
-261.438
61.0234
225.754
-259.947
34.1932
429.632
-424.444
727.922
51.7462
-779.668
-203.405
45.5208
822.353
20.8108
-843.163
-364.792
18.0685
346.724
118.64
860.187
-409.223
453.106
411.24
-72.4118
-954.531
99.7188
854.812
789.114
102.592
-30.3533
222.703
50.3576
381.242
898.654
133.22
25.8065
-485.152
28.749
-827
798.251
699.112
-767.328
68.216
636.331
465.961
769.008
-56.0317
-712.976
193.413
-49.4223
76.2432
339.333
-415.576
-735.254
792.393
256.376
171.805
-280.072
168.621
111.451
-111.21
-426.804
538.014
-31.7033
-213.777
1004.42
-573.928
92.4992
-290.53
180.937
-213.596
-105.311
-154.167
30.7068
820.12
-164.951
503.943
-602.367
755.675
-153.308
683.231
-706.335
-395.412
377.421
-442.822
-179.821
39.4136
349.002
-13.5991
-335.402
-46.2907
808.247
-505.249
-623.368
1128.62
288.124
-240.74
215.026
5.12014
197.21
-254.343
120.714
-885.327
908.991
-23.6645
-278.417
258.722
19.6955
73.7248
709.613
3.36332
765.645
635.457
-15.8773
-15.0391
-511.922
471.706
40.2159
933.088
17.1519
-950.24
-319.258
-45.5344
-0.40576
-234.865
797.185
-69.263
529.014
-623.098
94.084
-762.046
-84.6922
14.1386
283.395
887.876
10.778
-490.569
440.688
49.8808
-950.459
-94.6797
45.2861
-376.831
331.544
-216.6
240.864
-24.2633
251.519
-43.3255
-39.603
1050.29
-313.217
-737.077
579.572
-50.5584
52.3928
-264.224
-66.4326
-688.93
772.559
-83.6288
-84.7416
-13.5247
239.279
504.691
-5.7786
92.7883
-870.619
-88.6791
211.287
-122.608
-201.879
217.597
-15.7182
-681.787
570.577
-452.772
479.901
343.696
48.7018
-460.211
424.656
35.555
581.624
427.496
498.334
-459.875
-38.4586
486.265
-316.305
-169.961
-183.406
29.342
350.028
-21.1892
-328.839
-256.881
81.1745
-331.722
292.226
-219.043
-636.717
-691.595
-81.6336
259.057
-58.6423
663.219
197.274
7.02388
224.936
816.638
-84.5093
-732.129
328.631
-142.049
646.955
-504.905
235.528
-299.369
-96.8289
506.685
-750.954
7.53756
-124.381
-106.824
500.008
-95.5024
783.229
-687.726
-199.185
226.77
-27.5849
-33.085
-245.332
829.588
-737.859
220.314
-427.668
-406.848
834.516
863.405
-200.185
-42.7771
788.623
-745.846
597.347
-6.67197
17.6809
-608.196
282.84
140.302
-423.142
-403.988
480.231
-23.3348
-316.4
339.735
-616.791
65.518
551.273
-137.418
506.143
-368.725
-481.504
409.004
-482.843
73.8388
105.327
-174.974
69.6467
-185.908
336.458
-192.36
-178.29
730.634
-31.522
102.264
581.138
-611.016
648.825
-37.8096
269.607
-290.735
-810.647
-51.9841
96.9987
-432.957
590.118
460.175
-615.777
172.955
417.521
-845.189
376.857
-681.873
28.6498
653.224
-187.887
231.009
-43.1225
-816.299
886.7
-70.401
-48.1009
-432.158
480.258
1005.36
-405.626
-599.735
-68.5662
-787.088
-16.0314
293.143
-950.461
207.427
743.034
-857.7
-92.7603
-171.984
-8.82782
-777.769
731.478
-128.242
-300.611
428.853
-12.0089
-269.07
281.079
160.287
647.166
232.285
149.715
-382
-902.867
154.572
748.295
541.152
-580.917
39.7655
604.534
58.5911
-663.125
-44.7598
673.735
-639.889
-33.8464
352.839
-23.6884
-31.0315
235.703
-204.671
608.418
65.317
13.6544
-792.797
721.536
-777.567
-178.043
215.941
330.095
156.17
130.93
-323.29
202.472
-205.941
3.46936
340.258
-198.891
-141.367
592.176
43.2816
-748.009
801.21
-53.201
-396.605
-102.345
498.95
-10.3031
-290.796
240.346
55.2544
-295.601
247.204
-98.0649
-149.139
418.277
-466.377
-61.7149
-740.276
-410.703
84.0847
147.6
496.223
-433.978
-62.2452
-232.174
255.268
-199.72
192.547
7.17321
12.1393
-215.93
203.79
-322.12
378.882
-56.7618
218.358
-15.5762
-202.782
450.453
554.907
-260.664
555.475
-473.793
142.197
-238.906
96.7097
-199.967
-16.7671
216.734
701.27
-96.7356
238.989
-167.135
-358.629
275.016
83.6127
-426.216
-12.963
439.179
-351.964
448.962
310.019
-324.568
14.5496
-16.1118
31.0925
472.156
462.723
35.6109
31.0015
-457.218
207.536
-1.89755
-337.165
-6.55467
-369.259
297.985
71.2743
341.538
-62.8332
674.154
221.124
-230.914
243.053
-287.592
306.584
97.6392
657.174
-754.813
-736.96
-25.5452
762.505
3.73876
157.677
16.7778
-338.898
-690.665
621.09
69.5743
126.388
-169.448
170.906
-1.45802
432.027
-149.187
-251.066
-171.583
422.649
-164.387
-347.535
219.149
-16.6773
-252.33
109.227
95.247
-183.926
-1009.53
696.317
-347.499
347.499
851.47
242.255
-35.2313
-509.092
-500.442
209.488
326.871
528.048
42.5435
545.257
-50.9866
267.981
-266.649
-1.33215
-629.373
662.23
-32.8574
-50.3018
-532.335
-47.3617
-635.355
710.776
-75.4208
84.0716
-493.23
-352.962
539.447
5.80922
523.938
20.6844
-544.622
748.072
-647.182
7.29362
-117.182
-60.4571
177.639
-418.511
86.7897
310.967
-32.426
-278.541
-158.085
-44.6091
-301.115
288.709
12.406
-288.727
68.9002
869.822
-195.669
-338.089
47.8893
768.43
-1.6589
-766.771
584.163
-658.967
74.8036
-922.86
830.379
92.4805
-23.2506
-638.018
110.233
296.942
-22.5511
-260.991
283.542
-782.238
21.0916
-202.885
-289.576
267.025
-466.077
511.566
-261.195
262.981
-1.78568
-302.109
301.334
0.775501
-811.574
705.153
995.975
-148.814
-169.123
288.173
-230.433
362.27
-166.218
416.275
-320.347
-95.9282
286.721
54.817
811.304
-91.5525
-719.752
184.395
-681.559
-755.764
671.72
84.0439
5.81847
-617.256
624.458
-7.20232
62.1477
176.841
-99.6934
519.872
-271.202
288.048
-16.8464
379.052
-458.187
79.1348
-608.605
649.171
-40.5664
585.814
44.1385
-629.952
250.706
-222.58
-28.1261
556.697
-24.7601
-531.937
239.983
-128.214
-111.769
-131.813
-50.1584
181.972
956.361
-947.223
-9.13764
-575.494
-388.319
-46.1929
-757.205
803.397
-897.636
834.367
-583.435
366.725
216.71
605.072
-623.326
-14.7615
674.53
-659.768
17.6311
150.226
-167.857
-52.1366
-281.989
-855.981
-66.8785
15.4665
365.808
334.066
-739.691
213.578
-6.04188
-227.338
227.338
412.564
-149.157
-263.408
-911.293
25.9662
-3.08592
-25.6606
-478.817
504.478
-753.758
-80.6048
486.924
-406.319
-252.393
-408.664
431.997
-10.2865
-53.1683
258.981
154.76
185.498
-545.161
398.634
-163.927
396.213
339.01
-52.289
762.991
-709.2
-284.099
-6.93169
270.963
-946.898
-3.56109
5.61295
927.475
532.793
-448.721
-839.607
575.67
263.937
6.44776
260.469
-266.916
350.633
-8.47062
-342.162
-461.747
31.1854
-835.207
748.93
86.2768
-133.269
-185.989
188.955
33.9896
-222.945
212.971
126.038
-800.99
17.8524
-592.121
322.832
269.289
58.1146
243.048
361.422
-324.892
-36.5299
-372.032
394.342
-22.3101
847.412
-513.346
-454.963
312.914
-321.09
190.752
130.337
423.376
-720.805
568.374
-27.2223
811.244
-807.88
79.3783
160.605
-829.386
812.434
16.9518
-794.827
46.8185
-472.163
-527.848
1042.65
-186.28
931.094
-835.183
-95.9109
-521.121
-463.314
984.434
-48.3719
-255.162
58.7181
225.333
-231.123
5.7904
-21.9654
-56.0655
733.38
469.665
-35.0124
-434.653
-372.9
-195.397
24.3763
-96.6772
-246.502
-146.165
422.326
-276.161
-925.959
925.959
92.7357
-807.41
491.468
-510.726
69.1457
441.581
-211.386
-194.446
166.234
-165.845
-379.315
-555.817
389.972
599.049
56.3882
190.816
419.709
-929.894
510.185
-19.2917
298.989
-223.949
-262.337
-214.938
422.674
-92.5786
-180.542
-140.548
-65.4826
-835.382
452.459
-518.048
65.5883
17.4757
-693.752
776.571
-82.8185
415.795
-420.467
4.67197
245.938
-567.527
529.756
37.7706
111.938
113.218
-225.156
198.434
-229.466
378.939
-708.784
329.845
110.538
758.332
174.281
238.283
-68.6135
-492.953
467.292
292.388
-306.688
14.2994
416.433
-37.3806
354.053
-382.988
-21.9146
-367.627
389.542
-18.9974
-288.244
300.572
25.5431
-326.116
-424.594
278.429
-387.906
39.2972
631.131
-749.528
-409.854
532.135
-312.942
-91.7434
976.645
-866.107
-492.753
-312.297
805.05
295.574
37.3417
290.8
-328.142
-457.52
144.859
-278.128
-51.7385
450.9
-563.84
112.94
47.4217
613.636
-183.027
65.8454
340.85
-282.736
708.744
-329.805
271.805
-177.295
23.8579
364.746
-388.604
-28.0796
-294.871
-7.36088
-254.407
250.491
3.91613
1.49127
557.029
-530.001
46.1252
-891.588
113.321
799.629
-2.38406
329.206
-116.235
525.49
328.704
-854.194
598.394
239.945
669.869
-765.372
-748.761
106.381
642.38
293.788
42.6533
-336.441
184.989
-177.619
-7.37042
30.9646
274.576
572.925
-194.717
29.4723
165.245
-156.791
-606.976
763.767
-340.194
363.693
-23.4996
-246.974
295.071
-48.0966
-148.071
-174.743
-255.839
210.278
45.5602
920.096
-920.096
-87.2646
727.036
-639.772
294.73
-209.53
344.673
-68.1651
-657.933
189.335
27.2636
-216.599
47.7213
-583.688
535.966
26.5729
-223.092
196.519
908.353
-914.037
5.68429
301.11
-674.557
373.447
336.161
-290.875
51.4054
310.016
-350.744
876.234
557.005
-106.105
-72.5668
-242.13
-400.622
321.496
79.1256
222.008
-346.068
332.292
-500.524
168.232
-230.005
42.1189
-873.299
-73.5991
34.8374
-728.59
311.255
-183.332
796.38
-773.248
-23.1323
433.565
51.2985
-484.864
-685.547
610.649
74.8975
-263.988
220.566
43.4228
320.229
-27.8406
-426.094
-254.845
878.731
-834.91
-43.82
-357.622
658.732
131.465
-528.07
-864.833
11.0643
-55.9768
-601.832
657.809
35.0279
-136.591
-143.481
-917.071
415.206
501.864
189.522
3.02442
449.708
-33.9129
543.448
253.231
-268.509
15.2787
-334.21
-5.93926
340.149
-543.458
438.596
-12.0485
-190.209
202.258
230.422
-41.0866
-89.1505
361.07
-271.919
-354.848
5.78277
434.582
-9.92599
61.2152
-808.572
747.357
-664.279
664.279
44.6346
190.893
-89.4464
-506.903
596.35
-854.484
938.111
-83.6277
741.131
55.2491
-14.1309
-834.548
848.679
323.885
-341.153
17.2678
324.909
13.8418
-338.751
584.488
-636.872
52.3849
27.8836
312.765
-340.649
-202.806
-121.902
324.709
193.864
-8.87455
106.991
-710.83
603.839
-760.021
267.268
349.505
-312.163
793.733
59.7737
-77.3448
-433.381
341.789
-390.833
-681.552
102.061
579.491
322.614
-266.363
-56.2505
-531.18
615.403
-84.2229
-81.8316
-362.861
444.692
407.82
-382.417
-591.031
-326.04
596.74
-725.518
128.779
-408.894
-430.712
837.861
-39.7284
-645.819
127.647
450.73
-578.377
563.558
-644.761
81.2034
28.0172
-253.813
11.1103
-692.984
-320.111
321.74
-2.12403
570.511
-692.709
122.199
-344.494
-430.605
0.150485
-685.126
698.083
-12.957
763.067
-164.672
645.48
-102.828
-542.652
209.21
287.013
288.189
-296.963
8.77393
807.724
-935.873
128.149
-649.607
-99.1536
-285.257
14.0551
-327.093
89.8067
237.287
-56.1849
640.672
87.2788
-268.225
180.947
357.482
-335.52
-21.9616
-333.764
-258.357
-19.329
206.144
-32.3335
-171.764
234.018
138.801
-372.819
-271.333
319.262
-47.9295
590.004
-679.45
22.9385
288.028
-259.311
-67.7824
-284.592
-298.843
-711.324
540.714
170.61
-112.287
-150.123
-159.35
66.3029
-578.026
536.35
41.6756
576.954
-1098.08
-24.615
-1014.62
-140.813
373.1
49.574
-22.4154
-51.3834
-759.253
127.568
852.788
-846.33
617.379
-76.6646
1.8598
589.235
-591.094
-284.971
-164.43
449.402
-48.0494
-215.939
9.45195
194.353
-213.386
19.0326
-993.627
230.124
449.014
-116.722
19.6509
-627.951
608.3
299.716
-365.269
28.3742
336.894
61.3518
573.898
-635.25
-102.831
771.975
-669.144
-669.505
-195.44
-728.795
39.7697
689.025
-32.4082
565.354
-532.945
924.418
-915.919
-8.49899
564.131
-620.108
-611.186
-23.6031
634.789
-395.402
124.069
252.029
-272.008
19.9787
801.417
-772.668
-95.955
730.835
-634.88
458.985
12.7209
-433.795
-669.807
604.137
65.6697
399.521
-92.1718
-563.998
-43.4299
-10.9508
-399.399
-30.6886
233.753
-203.065
21.7075
327.797
-360.083
364.059
-3.97551
746.734
-792.927
130.866
131.007
212.525
-224.111
11.5867
684.155
-775.269
91.1134
-318.767
-675.157
-13.7727
795.255
74.5675
290.893
120.347
811.906
-16.6508
-10.7983
-1029.91
174.663
3.93804
20.8003
-568.066
160.621
-142.99
-1082.48
-240.369
228.32
73.1801
221.55
-107.597
-467.116
574.713
-2.45184
-477.473
479.925
838.921
-31.1972
570.052
75.4274
-30.0251
-201.617
231.642
743.038
-785.815
-152.402
386.42
-407.473
446.056
-38.5826
-679.301
723.138
-43.8374
300.591
-366.147
17.925
395.456
-152.298
-243.158
174.204
-511.453
466.023
45.4298
4.22783
-461.571
463.086
-1.51523
613.712
-596.031
37.0856
-162.932
596.497
-293.417
57.4632
440.833
41.1145
607.66
-648.774
-74.7613
-151.245
209.38
11.1853
31.5237
-390.21
24.9416
-415.153
7.67902
250.295
-252.255
1.95932
711.236
-682.586
-484.573
83.6768
400.896
-42.2476
626.411
-9.79126
-206.138
914.262
-141.762
-772.5
518.882
537.488
-1056.37
-297.42
-16.3401
290.238
4.20829
10.2844
273.137
-692.227
-2.67981
694.907
592.181
-748.972
-218.887
193.63
25.2571
-523.654
-27.2782
-639.407
0.0111468
142.186
-137.116
-428.202
-119.553
206.831
16.818
-636.358
619.54
-38.5913
-497.836
536.427
-262.98
290.864
-69.28
626.076
-729.283
754.218
-24.935
217.696
-482.443
232.115
-251.595
19.4803
-13.675
-838.88
27.3064
242.038
-444.845
909.205
-919.333
10.1284
637.086
13.421
-650.507
-52.6183
-540.231
-807.253
840.451
113.036
-207.127
897.671
-78.2651
239.246
-13.9134
-60.4104
-715.999
776.41
-88.2042
-596.922
-19.661
543.599
-672.548
22.9405
208.144
-239.985
31.8411
-235.11
1.41977
233.69
-558.258
533.545
24.7132
-220.676
88.8631
55.3175
93.034
-148.351
-880.254
314.627
19.3342
-333.961
54.9477
637.893
-692.841
-341.821
370.471
-28.6503
-649.298
-23.2493
-666.656
764.295
-896.74
127.609
769.132
-144.837
-168.665
-444.867
63.7007
-457.059
-615.348
242.664
19.946
-288.589
289.99
-1.40119
179.477
-67.5386
-422.258
393.526
28.7321
-954.889
972.041
-323.997
123.546
200.451
143.035
17.5859
523.814
857.31
-877.221
277.512
-41.7402
365.135
-502.553
-789.53
811.434
-21.9038
-351.868
-183.754
535.623
131.051
-170.692
39.6408
426.458
-526.152
746.98
-683.779
-63.2007
-264.734
-32.6868
315.188
-74.8416
314.564
-291.626
330.718
-652.036
-17.7712
5.56312
633.381
-375.8
154.378
20.6468
-891.502
548.92
-389.704
608.142
368.503
423.437
8.56008
744.656
-805.067
-39.8053
-20.2152
827.284
70.3875
421.093
-499.796
78.703
209.145
-188.562
-20.5832
-205.827
229.875
-24.0481
-8.05449
342.604
-334.55
-617.756
658.871
438.407
254.426
-218.494
-35.9314
365.757
508.919
312.805
-333.994
707.184
104.12
78.9923
-602.611
523.619
639.73
-35.5929
13.3155
-930.532
114.012
816.52
221.232
-255.423
-250.39
-793.277
732.267
61.0099
5.21459
814.491
-819.706
928.264
-928.264
-377.699
17.6156
602.823
36.907
-109.122
-30.1578
-196.794
226.952
437.517
27.7617
-465.278
-434.539
20.564
413.975
189.908
972.17
-453.288
-225.109
37.5095
187.599
-627.324
630.768
-3.44423
420.673
-469.467
48.7934
-430.782
-3.75723
46.5518
-763.38
716.828
-636.667
-62.6175
-549.142
518.466
30.6761
-366.677
276.102
28.9467
-246.767
217.82
-163.662
-160.335
-28.5013
235.793
-26.4124
50.9076
284.153
-276.283
-71.5167
791.605
366.231
-51.6049
-769.509
32.5488
-890.024
814.433
75.591
132.388
273.994
383.418
155.106
-755.661
858.875
331.855
190.211
-522.066
-162.961
594.444
-644.025
49.5811
478.414
59.4943
-537.908
639.948
-342.944
-297.005
-475.792
-121.354
-782.204
679.373
27.2285
-686.863
659.634
-711.291
108.503
602.788
-764.086
-3.66838
35.0368
508.549
-87.456
-522.125
357.174
552.295
-584.703
-35.3877
-65.8578
226.581
-160.724
44.228
-679.583
-234.292
-230.052
164.194
-28.2989
289.704
-121.658
-168.047
170.152
-8.78382
-634.635
721.234
-34.3109
211.705
-177.394
869.866
-629.662
12.4061
154.836
186.015
1.002
397.497
-398.499
-225.205
-198.882
424.087
180.93
763.533
379.366
-355.508
-842.828
7.62127
626.4
-609.862
-0.387875
-812.67
813.058
589.539
16.0498
-605.589
844.691
46.073
-890.764
309.579
-8.24566
123.472
-408.443
425.769
8.8137
-255.042
334.781
-79.7388
192.215
381.375
-90.4815
611.088
-54.943
-556.145
-757.047
783.085
-26.0383
14.7162
647.451
-662.167
-646.307
115.127
-6.10864
-442.307
606.822
34.3843
323.097
-29.9388
186.835
-86.8227
-335.915
1.70461
95.9554
742.966
3.22731
-277.136
273.908
-422.544
-507.35
-57.4396
-757.76
815.199
243.067
-50.758
198.031
-271.818
73.7867
201.415
-95.6079
-220.314
-516.876
-581.323
-792.061
-18.5864
-166.292
-815.754
776.442
39.3111
-34.4087
469.617
-435.208
59.7813
821.336
-881.117
196.673
-141.356
775.247
25.9628
-233.534
203.376
20.0256
-305.879
285.853
575.716
-573.856
-644.308
137.91
506.398
-553.572
587.446
-33.8742
30.2186
257.971
-665.232
-441.856
608.537
45.8031
-654.34
-721.937
606.753
-679.208
72.4546
-157.548
-37.1687
449.986
-484.283
-846.706
851.92
106.358
-307.875
-588.866
-642.374
593.257
49.1178
178.972
-73.6449
-43.4488
462.139
177.809
-572.977
59.1199
514.302
-527.037
12.7349
73.2331
-717.658
644.425
266.678
-16.3826
-311.212
165.765
145.447
-564.672
585.357
-120.466
464.12
-343.654
681.409
-86.9653
0.394306
-317.311
316.916
-446.963
-442.755
889.718
-161.596
260.649
-99.0533
-102.288
-579.264
-565.386
417.98
147.406
405.703
-39.4034