/*--------------------------------*- C++ -*----------------------------------*\
  =========                 |
  \\      /  F ield         | OpenFOAM: The Open Source CFD Toolbox
   \\    /   O peration     | Website:  https://openfoam.org
    \\  /    A nd           | Version:  7
     \\/     M anipulation  |
\*---------------------------------------------------------------------------*/
FoamFile
{
    version     2.0;
    format      ascii;
    class       volVectorField;
    location    "21";
    object      U;
}
// * * * * * * * * * * * * * * * * * * * * * * * * * * * * * * * * * * * * * //

dimensions      [0 1 -1 0 0 0 0];

internalField   nonuniform List<vector> 
30084
(
(1.01031 -0.0124265 4.8134e-23)
(1.00824 0.00356016 1.86649e-22)
(0.991044 -0.00332981 -2.90905e-22)
(0.972322 -0.0533529 9.69371e-23)
(0.997664 -5.02238e-05 4.07304e-23)
(0.956306 -0.0335048 -1.46463e-22)
(1.06809 -0.0648757 8.79652e-23)
(1.01394 -0.0186264 -5.07074e-24)
(1.00191 -0.00183556 6.52704e-24)
(1.00018 -4.6882e-05 1.70357e-24)
(1.0163 -0.0249241 1.27635e-24)
(0.998496 -0.0160126 -9.65367e-23)
(0.999543 -0.000186493 5.54869e-24)
(0.999971 -1.02002e-05 1.54762e-25)
(1.1003 0.090553 6.35606e-22)
(0.994162 -0.00191174 4.42614e-23)
(0.99985 -0.000811911 -2.46504e-24)
(1.11213 0.020857 -5.63047e-23)
(0.997968 -0.00173163 -1.38692e-23)
(0.989342 -0.000807384 -6.50464e-23)
(0.99918 -0.000262291 -1.8965e-23)
(1.0018 -0.00183352 2.28686e-23)
(0.990957 -0.00352364 3.21473e-22)
(0.997953 -0.00016454 1.79275e-23)
(0.914218 0.0871883 7.37296e-23)
(1.009 0.00281878 1.00285e-21)
(0.999507 -5.60381e-05 1.26493e-23)
(0.955738 0.0729415 -5.0447e-21)
(1.10348 0.0916442 -1.66598e-21)
(0.999398 -0.00869818 -1.85359e-23)
(1.01442 -0.00974876 3.29811e-23)
(1.03306 -0.00415423 -2.4106e-22)
(0.994775 -0.125664 9.72198e-22)
(0.999175 -0.0222208 4.7519e-23)
(0.95414 0.0695508 4.04991e-21)
(1.0054 -0.0312105 1.21348e-22)
(1.05152 0.0429804 -3.35407e-22)
(0.972724 -0.0295572 3.88e-22)
(1.00499 -0.000763714 -8.8232e-23)
(1.00482 -0.000538597 1.67563e-22)
(1.00041 -0.000156442 -5.27166e-24)
(0.990512 -0.0305692 -3.55969e-22)
(0.999868 -0.00078886 -3.32982e-26)
(1.03471 -0.0660081 -4.49926e-22)
(1.00003 -5.27121e-06 -3.30403e-25)
(0.999592 -0.00881546 1.41094e-23)
(0.997909 -0.0118914 -2.77958e-23)
(1.00007 -8.06325e-05 8.63135e-25)
(1.00317 -0.00342007 -9.31161e-23)
(1.0518 0.0408707 -1.38032e-22)
(1.12732 -0.0538276 4.99104e-23)
(0.975313 -0.0464772 -4.45171e-22)
(1.0328 -0.00340931 8.43837e-23)
(0.957803 -0.0331238 -2.39362e-22)
(0.994308 -0.00196127 -3.88885e-23)
(1.10825 0.0862552 -1.03615e-21)
(0.99678 -0.00217283 1.37575e-23)
(0.999157 -0.000289279 2.40231e-23)
(1.00089 -0.0207963 -6.38509e-23)
(1.01624 -0.0557243 -2.2109e-22)
(0.999938 -6.85159e-06 3.61225e-25)
(0.998039 -0.00177307 -2.85581e-24)
(1.17489 0.07422 3.28429e-22)
(1.00567 -0.0304266 -6.5421e-23)
(1.04069 0.0872055 2.60217e-21)
(0.932408 0.0241549 9.94824e-21)
(1.00044 -0.0263719 -1.26114e-22)
(0.993316 -0.0135853 1.30468e-22)
(0.949297 0.0154088 4.00361e-21)
(1.00043 -0.000147955 3.41067e-24)
(1.01031 0.00341827 -1.36738e-21)
(0.988748 0.0614218 2.84005e-21)
(1.00321 -0.00849733 -3.79978e-23)
(0.930027 0.10027 2.75994e-21)
(0.992228 -0.000625158 2.05266e-22)
(1.11113 -0.0191093 8.91935e-23)
(1.12477 0.131504 2.31725e-21)
(0.973206 -0.016693 9.31877e-23)
(0.999953 -2.12338e-05 -1.02672e-24)
(1.00769 -0.0466503 -2.24193e-22)
(0.956962 -0.000776318 -1.59757e-22)
(1.01691 0.0337508 7.86553e-22)
(1.01054 -0.0129622 -1.44849e-22)
(1 -5.93082e-05 8.53999e-26)
(1.06988 -0.0622506 -1.24182e-22)
(1.24708 -0.0503317 -5.39732e-22)
(1.02361 0.0754741 -4.77376e-21)
(0.999525 -0.000183799 -5.02439e-24)
(0.999557 -0.000166164 -1.47232e-24)
(0.933398 -0.0445977 -6.4445e-22)
(0.99813 -0.0527496 4.63952e-22)
(0.973132 -0.0174911 1.04788e-22)
(1.00297 -0.0035383 1.59689e-23)
(1.05213 -0.00364361 -1.48136e-22)
(0.925466 -0.0191784 -5.38111e-22)
(1.02884 0.089999 2.40618e-21)
(1.00291 -0.0686176 7.52092e-22)
(1.00045 -0.000365519 8.5277e-24)
(0.974862 -0.067197 -8.67376e-22)
(1.09207 0.103635 2.75537e-21)
(0.999951 -2.08321e-05 1.50222e-24)
(0.97436 -0.0108319 -5.5858e-22)
(0.99994 -8.41415e-06 -1.86486e-25)
(1.04296 -0.0135025 -7.51085e-22)
(0.973833 -0.0464517 2.97529e-22)
(1.03034 0.012513 1.44664e-21)
(1.00125 0.0591581 4.38656e-21)
(0.999575 -0.000168184 -1.24572e-23)
(0.999995 -6.58992e-05 -2.12904e-26)
(1.01158 -0.116482 -4.45241e-23)
(0.991945 -0.124659 -8.75202e-22)
(1.04345 -0.0333629 8.07627e-23)
(1.00002 -1.84127e-06 5.71862e-26)
(0.998993 -0.00588352 -4.99152e-23)
(0.999903 -0.00208984 1.92062e-24)
(0.990849 0.062918 1.218e-23)
(1.03105 0.0489613 -1.70301e-21)
(0.988686 -0.00721285 -2.21202e-22)
(1.00002 -6.48729e-05 7.93262e-26)
(1.00351 -0.00839866 -2.877e-23)
(1.22614 0.0481046 -2.80957e-22)
(1.00549 0.0108382 2.1834e-21)
(1.16097 -0.00931856 2.78584e-22)
(0.931026 0.0295381 -9.43712e-21)
(1.00103 -0.000338032 -2.16031e-23)
(1.14496 0.00392433 -1.73248e-22)
(1.10962 0.0231466 -3.08806e-22)
(1.02028 -0.0528378 1.53475e-22)
(1.00378 -0.00323664 -8.27916e-23)
(1.00002 -0.000417316 1.45541e-25)
(1.03386 -0.0640512 1.58668e-22)
(1.1275 0.129498 1.30103e-21)
(0.999107 0.107608 5.44123e-21)
(1.17275 -0.0208044 6.01871e-24)
(1.04155 -0.0134692 6.3446e-22)
(1.01401 -0.00939229 6.24563e-22)
(1.04293 0.136366 4.01978e-22)
(0.973017 -0.000800799 8.23092e-22)
(1.18129 -0.160575 2.26669e-21)
(1.09393 0.10067 -2.08173e-21)
(1.14217 0.00702261 2.02895e-22)
(0.939432 -0.00555169 -6.8777e-22)
(0.952304 -0.0471616 1.9755e-22)
(1.00002 -1.63756e-06 -2.43866e-26)
(0.999989 -3.21509e-06 8.24608e-26)
(0.997603 -8.30867e-05 -3.22342e-23)
(0.998079 -0.0116416 5.68013e-23)
(0.992642 -0.0935895 -6.53121e-22)
(1.16284 -0.110599 8.36828e-22)
(1.16672 0.110379 1.52744e-21)
(1.02887 -0.0155538 3.29801e-22)
(1.01741 -0.0175252 1.10353e-22)
(1.00041 -0.000592019 1.31534e-23)
(0.999875 -0.00021069 1.43163e-24)
(1.00146 0.0229668 -4.66175e-21)
(1.00051 -0.00145279 1.53198e-24)
(0.993797 -0.0110267 1.1987e-25)
(1.0515 0.138374 -1.20516e-21)
(1.00378 0.0400073 -4.92966e-21)
(1.12886 -0.0494058 -3.98302e-23)
(0.959062 -0.00293546 2.7689e-22)
(0.973265 -0.0521379 6.83643e-22)
(1.10727 0.0896414 2.71399e-22)
(0.999953 -4.36085e-05 3.24521e-25)
(0.999989 -3.09529e-06 -3.09604e-26)
(0.988642 -0.0075832 7.83885e-23)
(0.953543 -0.0460966 -1.0619e-21)
(1.00005 -0.000214104 -8.42791e-25)
(1 -6.296e-05 2.80038e-26)
(0.993554 -0.00498005 -2.58146e-23)
(1.00003 -0.000404965 -1.18404e-25)
(1.00544 -0.00551603 -4.65375e-23)
(1.04884 0.140316 1.42396e-21)
(0.973424 -0.000419333 -6.77985e-22)
(1.06062 -0.105878 -2.2231e-22)
(0.995175 -9.5087e-05 1.31626e-22)
(1.002 -0.00253897 4.87129e-24)
(0.973634 -0.0106658 9.44808e-22)
(0.999277 -0.00586443 -4.48208e-24)
(1.1605 0.000881804 -3.46849e-22)
(0.999979 -9.50291e-06 5.05817e-25)
(1.01494 -0.0358855 -5.57591e-23)
(1.02512 0.0770901 1.70992e-21)
(0.993574 -0.0126053 -7.72109e-24)
(1.1731 -0.159155 -2.09992e-21)
(1.02445 0.041683 -1.49377e-21)
(0.993992 -0.00274129 -1.90734e-22)
(0.982686 -0.0154248 2.41779e-22)
(1.00358 -0.0032555 1.26205e-22)
(0.999438 -0.00810269 -2.7285e-23)
(0.999738 -7.06055e-06 1.43889e-24)
(1.00628 -0.0167257 2.67104e-23)
(0.927216 0.0147816 3.93335e-21)
(1.001 0.0192437 3.58761e-21)
(0.986187 -0.00614555 6.26641e-24)
(0.994081 -0.0108511 -8.17177e-23)
(0.982657 0.0336517 -3.78143e-21)
(1.01112 0.0266052 6.75021e-22)
(0.927124 -0.0189347 6.54293e-22)
(1.00108 -0.000455351 -1.69075e-23)
(1.08645 -0.0805687 2.46749e-22)
(0.976661 -0.0899176 8.88903e-22)
(0.998778 -0.0163266 4.62452e-23)
(1.00079 -0.000997708 -2.69509e-23)
(1.0446 0.139075 5.88722e-22)
(0.993764 -0.00498836 -1.73482e-23)
(1.00631 -0.00492475 -5.19161e-23)
(0.990623 -0.0933169 8.66437e-22)
(1.01241 -0.119564 1.13408e-22)
(0.999965 -4.87802e-06 1.22796e-25)
(0.980042 0.0871981 -4.7238e-21)
(0.999028 -2.21589e-05 -3.12886e-25)
(1 -5.06652e-05 2.51168e-26)
(0.999488 -0.000195731 2.14264e-24)
(1.00113 -0.0526487 -1.68644e-22)
(1.16097 0.0818229 -1.23716e-21)
(1.01577 -0.0350331 1.25943e-23)
(1.00611 -0.00460287 -3.56255e-23)
(0.997975 -0.000226961 4.447e-23)
(0.928608 -0.0210892 -1.20475e-22)
(1.00003 -0.000443831 -2.03539e-25)
(1.00046 -0.00148223 1.59203e-25)
(0.997818 -0.000192379 -2.93709e-23)
(1.02376 0.00128763 1.33729e-21)
(0.997541 -0.00374665 -9.21334e-24)
(0.999007 -0.00546714 1.48396e-23)
(1.02406 -0.00097597 6.72628e-22)
(1.00012 -0.000362808 1.31693e-24)
(1.00003 -4.5062e-06 8.61233e-26)
(1.0046 -0.000550479 1.80733e-23)
(0.977193 -0.0334474 -3.49665e-22)
(0.976433 -0.000409726 -3.26026e-22)
(0.995473 -0.000361261 -1.40185e-22)
(1.01116 0.0026855 1.13263e-21)
(0.984841 -0.00112867 1.54135e-22)
(1.01756 -0.0169108 -1.05463e-22)
(0.99997 -1.13786e-05 4.36303e-25)
(0.997239 -0.00247447 -5.29713e-23)
(1.00074 -0.000989877 2.91415e-23)
(1.08474 -0.077082 2.37678e-22)
(1.09277 -0.183164 1.79279e-21)
(0.998704 -0.0001172 2.31439e-23)
(1.00043 -0.000526688 -1.01262e-23)
(0.998913 -0.00533729 -5.08742e-24)
(1.00338 -0.00749562 -7.05708e-23)
(0.98956 -0.000595315 -2.75649e-22)
(0.999955 -4.14798e-05 -2.07881e-26)
(1.23951 -0.0499625 -1.05013e-21)
(1.00004 -0.000454014 2.35181e-25)
(1.02343 0.00117318 -9.41637e-22)
(0.996883 -0.0021759 -2.77141e-23)
(1.00014 -0.000351525 5.55974e-25)
(1.02943 0.0127379 -9.19865e-22)
(0.970586 -0.0866178 -9.38038e-22)
(1.00024 -3.97902e-05 5.59929e-24)
(1 -1.16581e-05 1.67337e-26)
(0.939245 -0.00397494 -7.83831e-22)
(1.06992 -0.171708 -2.66511e-22)
(0.991892 -0.00798002 -2.05971e-23)
(1.01958 -0.054226 -4.16897e-23)
(1.02971 -0.0160722 -5.41338e-23)
(1.02941 0.0755608 2.08593e-22)
(1.00007 -7.61268e-05 2.38734e-25)
(0.977634 -0.0326906 3.30645e-22)
(1.19865 0.0201181 -2.54117e-22)
(0.968503 0.0473141 9.37564e-23)
(0.993481 -0.0123273 6.11063e-23)
(1.02371 0.0403512 1.81265e-21)
(1.11012 -0.0159696 6.99559e-23)
(0.999898 -0.00229939 -2.01818e-24)
(0.86114 0.042721 5.81022e-21)
(0.999492 -0.000411705 -1.44412e-23)
(1.06074 -0.109651 -3.05569e-22)
(0.929875 -0.0210357 7.99771e-22)
(1.00212 -0.00239851 -2.67352e-23)
(1.15776 0.0446262 7.97792e-22)
(0.991824 -0.000907125 -1.6371e-22)
(1.00062 0.115577 3.76048e-21)
(0.99672 -0.000251615 1.27809e-23)
(0.983259 -0.0166152 -1.26301e-23)
(0.999817 -0.00208993 -1.21072e-23)
(1.07622 0.119624 6.15922e-22)
(1.0006 -0.0164402 1.11998e-23)
(1.02649 0.0902469 1.45673e-22)
(0.999521 -4.3066e-05 -5.5431e-24)
(0.99446 -0.00181473 -6.12631e-23)
(0.967464 0.10551 -2.40032e-21)
(1.02811 0.00123485 -1.12868e-21)
(1.02389 -0.000667119 7.80411e-22)
(0.972859 -0.0430163 8.33138e-22)
(0.999857 -3.09079e-05 1.4572e-24)
(1.00328 -0.00723608 -8.11375e-24)
(0.999847 -0.000887357 -4.40854e-24)
(1 -4.79955e-05 2.09937e-26)
(1.04908 0.00919725 3.32067e-22)
(1.00004 -5.00339e-06 8.94178e-27)
(0.980799 -0.014817 5.74065e-22)
(1.19733 0.0157538 2.05526e-22)
(0.912489 0.0911693 -5.76738e-21)
(1.00139 0.108001 -8.37487e-21)
(0.973085 -0.0741281 2.87402e-22)
(0.987768 -0.0299428 2.0001e-22)
(0.977618 -0.00157108 1.55144e-22)
(1.03503 -0.0319048 2.45386e-22)
(1.0068 -0.0164635 -4.44276e-23)
(0.982596 -0.016168 -3.33917e-22)
(0.974742 -0.0814317 1.26182e-22)
(1.02793 0.0771956 -3.23567e-21)
(0.999509 0.0160555 6.17972e-21)
(0.998789 -0.000142912 1.2764e-23)
(1.00233 0.05983 -6.05399e-21)
(1.04853 0.00781579 1.18349e-22)
(1.1635 -0.00448502 -7.49305e-23)
(1.01324 -0.014265 4.98139e-23)
(1.00152 -0.0150674 -4.90682e-23)
(1.02662 -0.048141 -8.10595e-23)
(0.994865 -0.00175187 -1.44475e-22)
(0.997472 -0.000628434 -9.39269e-24)
(0.999943 -6.66211e-06 1.90925e-24)
(0.99929 -0.00830763 4.03776e-23)
(1.09329 -0.0241809 4.63335e-23)
(1.076 0.122775 -1.01093e-21)
(1.00153 -0.00130125 1.25862e-23)
(0.973735 -0.0276124 -4.61061e-22)
(1.01503 -0.0144342 -1.58197e-22)
(0.999963 -1.57014e-05 -1.66695e-25)
(0.973845 -0.0776284 -4.55926e-22)
(0.892113 0.07192 -2.58535e-21)
(0.99409 -0.0046811 2.14173e-22)
(0.998998 -0.00436779 1.34837e-23)
(1.01377 -0.0140505 -3.08344e-23)
(1.0072 -0.0452643 2.84071e-22)
(1.06949 0.0362162 4.30574e-22)
(0.999708 -0.00941185 -6.74518e-24)
(0.999969 -5.04534e-05 1.07446e-24)
(1.00001 -2.58084e-06 2.83335e-26)
(0.997437 -0.000572419 -1.04451e-23)
(0.965934 0.104771 3.47131e-21)
(1.04845 -0.0218612 1.72268e-22)
(1.09816 -0.179416 -4.65528e-22)
(1 -1.16844e-05 1.25358e-27)
(1.06801 -0.177226 1.8172e-22)
(1.07128 0.00744501 -5.30327e-22)
(0.995057 -0.000158971 -6.62145e-23)
(0.932417 -0.007626 -9.67386e-22)
(0.999077 -0.00429015 -1.34576e-23)
(0.999586 -0.000188283 -9.09469e-25)
(0.978145 -0.0294825 -9.91192e-23)
(1.00088 -0.00109367 -1.30347e-23)
(1.16255 0.00536156 3.47951e-22)
(1.00863 -0.000998934 -3.69249e-22)
(1.12921 0.111325 -1.09936e-21)
(0.99993 -0.00226891 2.61909e-24)
(1.00451 -0.0131864 1.4343e-23)
(1.00533 0.00959663 -2.96012e-21)
(1.2208 0.0456216 1.82843e-22)
(1.0004 -0.000557097 -7.73435e-24)
(1.00042 -0.000493824 7.59249e-25)
(0.992257 0.0742961 2.96458e-22)
(0.999439 -0.0536014 -9.32112e-23)
(0.999537 -0.00927658 8.19098e-24)
(1.01009 0.029456 3.53868e-22)
(0.976359 0.0169681 7.38078e-21)
(1.12947 -0.0575861 -1.56422e-22)
(1.00036 -0.0254315 -3.92124e-23)
(1.1572 0.0808502 1.23018e-21)
(0.999268 -7.02139e-05 -9.56864e-24)
(0.991575 -0.00417273 5.79532e-23)
(0.996788 -0.000263908 -3.5985e-23)
(1.01238 0.0254023 4.3256e-24)
(0.999989 -0.000728762 2.47548e-25)
(1.00835 -0.00121614 3.77338e-22)
(1.18204 -0.0890302 2.83528e-23)
(0.997626 0.101947 8.39516e-21)
(0.932633 0.103353 -1.27954e-21)
(0.994178 -0.00273232 7.50451e-24)
(0.991639 -0.00780022 6.19161e-23)
(1.03848 0.0890661 -2.08081e-21)
(1.01698 -0.057502 3.17702e-22)
(0.999945 -7.90898e-06 -1.86238e-24)
(1.14937 0.12074 2.47308e-21)
(1.02309 0.00171707 -3.99567e-22)
(1.02263 0.00166968 -2.69217e-22)
(0.994741 -0.0133601 -8.75001e-23)
(1.01723 -0.00174178 -5.70788e-22)
(0.959318 0.0941154 1.17051e-21)
(1.16143 -0.122993 -2.70796e-22)
(0.981651 0.093379 1.26551e-21)
(0.992236 0.0928331 -2.17657e-21)
(0.999997 -6.30877e-05 6.71541e-26)
(1.09024 -0.0240726 -1.34327e-22)
(1.15962 -0.117267 1.73405e-22)
(0.997424 -0.00378169 2.42335e-23)
(1.00157 -0.00139809 -2.07612e-23)
(0.972293 0.0196314 1.76463e-21)
(1.05018 -0.022301 -2.25293e-22)
(1.00028 -7.29682e-05 1.2734e-24)
(0.985861 -0.0636218 -9.86268e-22)
(0.976097 -0.0925021 -4.18524e-22)
(0.994583 -0.00186459 8.61021e-23)
(0.999884 -0.000204569 -1.79819e-24)
(1.03242 0.105267 -3.60976e-22)
(1.03107 0.047316 2.87542e-21)
(1.00005 -0.000496728 -7.00205e-26)
(1.00393 -0.00348865 1.6273e-23)
(1.00504 -0.00347232 8.79878e-23)
(1.20131 -0.0354421 5.65016e-22)
(0.972824 -0.0418402 -7.38739e-22)
(1.00006 -0.000589207 -5.88047e-25)
(0.999986 -2.03487e-06 -4.65803e-26)
(1.00048 -0.000162025 2.0106e-24)
(1.06796 0.0368175 -4.25415e-23)
(0.972648 -0.028509 -3.7153e-22)
(1.00174 0.0419634 1.39871e-21)
(0.944891 -0.0526671 4.93482e-22)
(0.988581 -0.0297424 -2.08704e-22)
(0.97573 -0.00122891 -6.52559e-22)
(1.0114 0.0284483 -1.74096e-21)
(1.17071 0.0709095 6.10647e-23)
(0.998827 -0.000151967 2.33768e-23)
(1.00757 -0.00558447 -9.41145e-23)
(1.00082 -0.00108315 1.4777e-23)
(0.980623 0.102081 -3.27954e-21)
(0.974688 -0.02572 1.98007e-22)
(1.00105 -0.000274897 -7.06908e-24)
(0.992598 -0.00370309 -7.78782e-23)
(1.14371 0.0128754 4.16274e-22)
(0.999826 -0.0101096 -1.7273e-23)
(0.988763 -0.0129964 -4.28618e-23)
(1.00023 -0.000139588 -3.88452e-24)
(1.00023 -5.28679e-05 -1.71847e-25)
(0.889326 0.0770374 4.06037e-21)
(0.991885 -0.00135078 -1.0199e-22)
(0.995332 -0.00480713 8.72134e-23)
(0.99964 -0.00185157 -1.06717e-23)
(0.999286 -5.34811e-05 -1.31134e-24)
(1.0345 0.0745492 -1.09888e-21)
(1.18796 -0.0870191 4.94091e-23)
(0.987617 -0.0452552 1.24121e-22)
(1.00002 -2.06643e-06 -2.89818e-26)
(1 -3.8542e-05 1.92255e-26)
(0.973659 -0.0267038 5.22557e-22)
(0.993314 -0.00196817 2.0676e-23)
(0.99491 -0.00223231 -1.17987e-23)
(1.01375 -0.00489085 1.79425e-22)
(1.00562 -0.00234146 3.15451e-23)
(1.00089 -0.0168188 -1.95826e-23)
(1.11513 0.00774856 7.064e-22)
(0.981251 -0.00471217 -1.305e-22)
(0.983126 0.0916756 -1.02939e-21)
(1.01547 -0.0250449 -4.94855e-23)
(1.00024 -0.000140122 4.31933e-24)
(0.971957 -0.0728549 4.32006e-23)
(0.985255 -0.0401692 -4.36594e-22)
(1.14878 0.0439716 5.16873e-22)
(0.99724 -0.00624165 -2.56811e-23)
(0.992519 -0.0528599 -1.4896e-22)
(0.999979 -5.61068e-06 2.78427e-25)
(0.942058 0.0755203 -4.00796e-21)
(1.01455 -0.00202006 3.23009e-22)
(1.00008 -0.000238587 -1.34547e-24)
(0.927154 0.020229 -5.06774e-21)
(0.986529 -0.0455842 2.89905e-22)
(0.999978 -6.52864e-06 4.42235e-26)
(1.00142 -0.00127353 6.12825e-24)
(0.972542 -0.0761885 -2.54492e-22)
(1.04171 -0.0323945 8.12543e-23)
(1.04609 -0.00734366 4.22407e-22)
(0.999991 -3.42335e-06 6.63783e-26)
(0.991843 -0.000688607 8.13827e-23)
(1.02726 -0.0468969 1.18037e-22)
(0.994734 -0.0017096 1.19246e-22)
(0.999541 -4.9572e-05 -3.0023e-23)
(0.991745 -0.00430713 1.69656e-24)
(0.979844 0.0347826 4.39944e-22)
(0.993166 -0.0131994 -1.09308e-22)
(0.989248 -0.0127098 3.15068e-23)
(1.00175 0.0261541 -1.43469e-21)
(0.99729 -0.00233668 2.77364e-23)
(0.976459 0.103394 -4.21447e-22)
(0.999977 -6.5632e-06 -1.41678e-25)
(0.990796 -0.0297731 8.28753e-23)
(0.989459 -0.088564 9.82945e-22)
(0.993672 -0.0530824 2.50425e-22)
(1.20026 0.00346153 2.47542e-24)
(0.998895 -0.00571862 3.34793e-23)
(1.01057 -0.0239076 2.45945e-23)
(0.999929 -0.00244327 5.49316e-25)
(0.983354 -0.0235317 -2.50924e-22)
(1.04375 -0.0352867 3.18716e-23)
(0.999965 -1.50161e-05 8.45125e-25)
(1.00002 -1.16639e-06 -4.98905e-26)
(0.993646 -0.000439655 5.50355e-23)
(0.982705 0.0651575 2.91619e-21)
(1.01353 -0.0193449 1.9588e-22)
(1.00258 -0.00357522 -2.59426e-23)
(0.928302 -0.0396171 6.93594e-22)
(1 -1.04732e-05 3.28921e-27)
(1.00097 -0.00119325 -2.36647e-23)
(0.999966 -0.000694995 -3.37638e-25)
(1.01481 -0.0183913 2.13765e-22)
(0.98321 -0.0173552 4.43195e-23)
(0.99962 -0.000292721 3.77985e-24)
(0.99358 -0.0117607 4.07953e-23)
(0.987518 -0.00755007 -4.63993e-23)
(1.00101 -0.000164662 -1.94529e-24)
(0.999977 -7.5973e-06 -8.85108e-26)
(1.18835 0.0390873 4.16841e-22)
(0.999678 -0.00182094 1.14289e-23)
(1.07016 0.00268869 4.06753e-22)
(1.00871 0.100244 8.21427e-21)
(1.03519 0.0876677 -1.8981e-21)
(1.00149 -0.0212778 -7.45553e-23)
(1.00549 -0.00211904 -1.04447e-23)
(1.01752 -0.00137928 3.49343e-22)
(0.999978 -0.00249768 -6.20993e-25)
(0.998021 -0.0108345 4.05312e-23)
(1 -1.75443e-05 3.09043e-26)
(0.990186 0.0930468 -1.63846e-22)
(0.987999 -0.0171723 6.06653e-23)
(1.01346 -0.00450651 -1.27992e-22)
(0.981691 -0.00488629 2.66871e-22)
(1.00402 -0.0129921 1.36338e-24)
(0.997409 -0.00613628 5.56606e-23)
(0.999896 -0.000209583 4.20196e-25)
(1.00002 -1.094e-06 -2.68458e-25)
(0.995494 -0.0047851 -6.34469e-23)
(1.05261 -0.00504329 -2.37653e-22)
(1.00399 0.0415734 2.22112e-22)
(1.00121 -0.000488049 -2.87207e-23)
(0.976777 -0.0670856 -2.23296e-22)
(0.974572 -0.0249555 -8.96071e-23)
(0.992045 -0.000541276 -3.04818e-22)
(1.16427 0.107229 -9.66942e-22)
(0.998705 -0.000999904 -1.38896e-23)
(1.00419 -0.0147095 -4.12532e-23)
(0.994511 -0.00294094 5.9794e-23)
(0.999905 -0.000202006 3.55064e-25)
(0.973241 -0.0798071 2.87099e-22)
(1.00181 0.0374107 -2.1909e-21)
(1.02465 0.0370516 -1.87782e-21)
(0.976831 -0.0165611 -4.32034e-23)
(1.00131 0.035882 -9.96258e-23)
(1.00008 -0.000224009 2.59912e-24)
(1.00002 -1.51202e-06 8.31277e-26)
(1.1482 0.117965 -9.31788e-22)
(1.15385 0.0465195 -5.08282e-22)
(0.92985 0.0771072 -1.98994e-22)
(1.01003 -0.0897097 6.94433e-22)
(0.976001 -0.00169502 -2.02215e-22)
(1.14015 0.0164754 -5.77209e-22)
(1.00116 -0.000510023 3.25253e-23)
(0.99432 -0.00396493 3.42876e-23)
(1.00046 -0.000172427 -1.91942e-24)
(0.989114 -0.000765298 -6.71663e-23)
(0.988275 -0.0140132 -8.91654e-23)
(0.999996 -3.45203e-05 -1.8668e-25)
(0.999114 -3.43313e-05 5.46777e-24)
(0.99739 0.0997741 -7.63937e-21)
(0.999872 -0.000721956 4.01136e-24)
(0.948304 0.0696441 4.82719e-21)
(1 -1.66654e-05 -2.34357e-26)
(1.19974 0.075687 7.01159e-22)
(1.07062 0.00104095 -8.67747e-22)
(1.11387 0.010029 -7.83601e-22)
(1.00103 -0.000485217 1.94939e-24)
(1.00019 -4.29956e-05 3.44401e-24)
(0.986192 0.0617556 -4.35564e-21)
(1.07205 0.00548086 1.7305e-21)
(0.989091 -0.090559 -9.07302e-22)
(1.01744 0.0353497 8.47377e-22)
(0.998649 -0.0218302 3.36022e-23)
(0.986321 -0.00578635 -6.84364e-23)
(0.995922 -0.000228015 -3.62817e-23)
(1.07793 0.140259 -4.68085e-21)
(0.976032 -0.0297955 3.20157e-22)
(1.0352 -0.0303096 -1.60835e-22)
(0.993844 -0.0116434 -2.32896e-23)
(1 -1.04179e-05 -6.69748e-28)
(0.998718 -0.000943695 -1.18021e-23)
(1.00598 -0.00594406 5.55548e-23)
(0.981071 -0.00872377 3.43576e-22)
(0.977467 -0.0166746 6.4166e-23)
(0.955386 -0.046865 -1.03294e-22)
(0.980878 -0.00925681 -2.59961e-22)
(1.01652 0.00253913 1.54636e-22)
(0.997872 -0.000145019 7.36588e-25)
(0.93513 -0.045059 3.60326e-22)
(0.985542 -0.000987452 -9.52455e-23)
(1.00004 -0.000216493 3.64464e-25)
(0.987427 -0.000785921 -6.61397e-23)
(1.03636 -0.0329746 -2.71689e-22)
(1.01584 0.00270915 -8.54978e-22)
(0.973802 -0.0301063 -8.04918e-23)
(0.999983 -7.49102e-07 -1.27402e-27)
(0.982398 -0.0177774 6.67004e-23)
(1.00267 -0.0151289 3.20097e-24)
(1.00139 -0.00118331 7.86331e-24)
(1.18514 -0.111946 -7.51423e-22)
(1.00135 0.0353411 -5.06914e-21)
(1.0009 -0.00117934 2.19682e-23)
(0.987646 -0.00059154 9.30594e-25)
(1.12117 -0.0609568 -1.14603e-23)
(1.02454 0.000579069 1.35072e-21)
(0.991203 0.0259948 -4.69676e-22)
(1.00186 -0.00250238 7.02107e-24)
(1.00139 -0.0221897 2.34243e-23)
(1.06455 0.108594 -6.82272e-22)
(1.01328 0.0227321 -4.35735e-21)
(0.991907 -0.0295799 2.18509e-22)
(1.00475 -0.00348359 -9.85175e-24)
(0.950604 -0.0561527 4.93587e-22)
(0.999997 -5.17691e-06 3.52871e-26)
(0.947273 -0.00237364 -3.59947e-22)
(1.00009 -7.10352e-05 4.83657e-25)
(1.11881 -0.0634768 -4.28318e-22)
(0.999967 -3.54065e-06 -9.38712e-26)
(1.00003 -6.34509e-05 2.76192e-25)
(1.00123 -0.024891 -2.81337e-23)
(1.17408 0.0792735 -7.28337e-22)
(1.01809 0.124934 3.62552e-21)
(1.03986 -0.0333654 -4.2758e-22)
(1.01438 -0.0146449 1.05237e-22)
(0.999999 -3.95723e-06 -9.21847e-27)
(0.993871 -0.00471823 -1.15911e-22)
(1.00009 -2.15724e-05 -3.59989e-25)
(0.996858 -0.0024932 3.96762e-23)
(1.00003 -5.90922e-05 -2.14502e-25)
(1.04583 -0.00566137 -1.31772e-21)
(0.99953 -0.000484556 -1.48231e-23)
(1.04302 0.0511897 1.93551e-21)
(0.999875 -0.000223686 -2.78524e-24)
(0.986834 -0.00564441 -1.15243e-22)
(0.955977 -0.00125762 7.94165e-22)
(0.99571 -0.000310082 -4.66134e-23)
(0.985851 0.0357097 4.52226e-21)
(0.982147 -0.00078523 1.8698e-22)
(1.04561 -0.108581 5.31489e-23)
(0.994473 -0.00415599 1.77302e-22)
(1.02375 -0.0020377 -2.88126e-22)
(0.973983 -0.0684646 1.03831e-21)
(1.0186 -0.00125884 -9.72466e-22)
(1.05218 -0.0672063 -1.59824e-23)
(0.999986 -1.59252e-06 1.2242e-26)
(1.00015 -0.0210433 2.6489e-23)
(0.995989 -0.000300704 5.68783e-24)
(1.00025 -9.44299e-05 2.59778e-24)
(1.00009 -1.81075e-05 6.03058e-25)
(1.0807 0.142208 5.12761e-21)
(0.99508 -0.00223803 9.94322e-23)
(1.02419 0.00134467 1.53631e-21)
(1.00208 -0.0226703 2.81519e-23)
(1.00086 -0.000309764 7.53156e-24)
(1.02276 -0.00714559 -1.08142e-21)
(1.00017 -4.02272e-05 -7.62417e-24)
(0.999976 -3.51776e-06 -1.26601e-26)
(0.947951 -0.00315907 2.76747e-22)
(0.996492 -0.0012671 4.49531e-23)
(1.00003 -5.75582e-05 3.2294e-25)
(1.04348 0.087847 1.43083e-21)
(0.901604 0.0624448 -7.16779e-21)
(0.99979 -0.000237032 6.95305e-24)
(0.958035 -0.00252899 -2.13985e-22)
(1.00002 -1.4997e-06 5.9426e-26)
(0.956622 0.0921278 -4.6845e-21)
(1.20348 0.0794659 8.07369e-22)
(0.972554 -0.0546095 -8.38773e-22)
(1.00005 -0.000570053 -6.7711e-25)
(1.03385 -0.0293467 3.69898e-22)
(1.02833 -0.00129795 -3.97125e-22)
(1.02876 0.00132208 1.15451e-22)
(1.04729 -0.00775635 -1.668e-22)
(0.999649 -0.0019525 -1.798e-24)
(0.999871 -0.000865218 3.46834e-24)
(0.986056 -0.0171665 -1.95076e-22)
(1 -9.17558e-06 -8.29609e-27)
(1.00002 -1.22113e-06 -1.5206e-26)
(0.97505 -0.0293209 -1.89567e-22)
(1.00436 -0.0674793 -3.64564e-22)
(0.956763 -0.0458751 -2.65913e-23)
(0.919007 0.0874321 -1.45569e-22)
(1.0002 -2.60334e-05 -3.18166e-24)
(1.0292 -0.0811386 -7.05102e-22)
(1.00733 -0.00524869 -9.67751e-23)
(0.999977 -3.72638e-06 1.44806e-25)
(0.999019 -0.00406511 -2.93555e-23)
(1.00004 -0.000483525 -4.11272e-25)
(0.995849 -0.0134941 6.57367e-23)
(1.00005 -1.06656e-05 3.57566e-25)
(1.05385 -0.0653836 -3.43861e-23)
(1.01827 -0.00154694 9.44667e-22)
(0.977683 0.101582 1.11741e-21)
(1.02329 -0.00195341 1.07955e-21)
(0.999723 -0.000231884 5.50176e-24)
(1.00046 -0.000399389 -7.42494e-24)
(1.20377 -0.0408768 -5.98386e-22)
(1.02417 0.00108212 -1.2349e-21)
(0.996896 -0.000409176 4.06763e-23)
(1.00002 -1.52967e-06 1.26301e-25)
(1.05636 0.0803294 -2.39165e-21)
(1.15814 -0.166726 -3.83303e-22)
(1.00973 -0.0875173 -2.99906e-22)
(0.985134 -0.000841517 -5.02998e-23)
(0.999979 -2.28432e-05 2.80371e-25)
(0.999725 -0.000218722 -3.22488e-24)
(1.167 -0.167621 1.08789e-21)
(1.00254 -0.0534112 -9.77152e-23)
(1.03136 0.0279402 2.6865e-22)
(0.982744 0.0885855 4.28689e-21)
(1.04338 -0.105789 4.04785e-22)
(0.998735 -8.69793e-05 -7.27702e-24)
(0.999979 -1.06614e-05 -3.29839e-25)
(0.963748 -0.0593358 8.36334e-22)
(0.987912 -0.118947 -1.06639e-21)
(0.999798 -0.000245247 3.71888e-24)
(1.01113 -0.0231771 1.00689e-22)
(0.992177 -0.0287464 -3.80644e-23)
(0.99534 -0.00239683 3.91389e-23)
(0.998291 0.0285315 -3.60696e-21)
(0.998714 -0.000565833 2.60511e-23)
(1.06019 -0.0441049 5.51023e-23)
(1.12416 0.134616 -2.44009e-21)
(0.99218 -0.00349891 -1.14517e-22)
(0.928053 0.0727976 -7.13422e-22)
(0.934028 0.0344729 2.1629e-21)
(0.999969 -5.34738e-05 -1.07981e-24)
(0.999976 -0.000759497 -2.71895e-25)
(0.982369 -0.00104227 -1.19067e-22)
(1.01282 -0.00451316 -2.31659e-22)
(0.959882 -0.00232369 4.50093e-22)
(1.00518 -0.00431258 -1.01412e-22)
(0.992467 -0.00350685 1.0677e-22)
(0.999434 -0.000516652 -1.13014e-23)
(0.96365 0.0924561 -8.41389e-22)
(1.04377 0.0493087 -3.00367e-21)
(1.00228 -0.00242083 1.79888e-23)
(0.867059 0.040215 -1.44868e-21)
(1.00002 -1.30434e-06 -8.53988e-26)
(1.02208 0.006178 -2.1336e-21)
(1.00682 -0.111332 7.01671e-22)
(1.03189 -0.080528 2.73174e-22)
(1.0001 -0.000217524 -1.33399e-25)
(0.957851 -0.0012801 3.67006e-22)
(1.01985 0.00540049 1.19417e-21)
(1.01252 -0.00485339 1.92075e-22)
(1.02769 -0.000483955 5.47206e-22)
(0.999553 -3.87469e-05 2.1187e-23)
(0.999524 -0.000516374 1.34242e-23)
(1.03029 -0.0449359 1.66069e-23)
(0.99655 -0.00136571 -1.28108e-22)
(0.987306 -0.0127788 -2.11597e-22)
(0.999137 -0.00368173 1.73759e-24)
(1.06553 0.0418549 1.60269e-21)
(0.999954 -0.0219604 -1.84113e-23)
(0.99506 -0.00509263 2.0591e-24)
(0.923911 -0.033709 -1.04363e-21)
(0.99411 0.0743238 4.87854e-22)
(1.11198 -0.0113699 -5.86162e-22)
(1.02224 -0.00687228 8.66466e-22)
(0.999603 -0.000189 4.02199e-24)
(0.999493 -0.000337623 1.81728e-24)
(0.982527 -0.0232976 5.08525e-22)
(1.001 -0.00128401 -1.76329e-23)
(0.997405 -0.000719701 -7.27411e-24)
(0.99998 -2.18971e-05 -1.05481e-25)
(0.999686 -0.00198886 3.7645e-25)
(1.01933 0.00496623 -4.63772e-22)
(0.985397 0.0643592 -4.18919e-21)
(0.999873 -1.61532e-05 8.65252e-25)
(1.09589 0.134758 -4.56308e-21)
(0.999996 -4.31504e-05 7.9835e-26)
(0.996764 -0.00295366 5.40655e-23)
(0.999992 -9.88661e-05 1.14329e-25)
(1.0052 -0.0037306 -4.48416e-23)
(1.19234 0.0374224 -3.07448e-22)
(0.99996 -4.47598e-05 9.1206e-26)
(0.999959 -4.80714e-05 6.42813e-25)
(0.94369 -0.0533827 -4.87933e-22)
(1 -9.08907e-06 -2.57996e-27)
(1.05024 -0.00702764 1.41464e-21)
(0.990308 -0.0460943 3.92004e-22)
(0.999978 -0.00066787 3.31472e-25)
(1.05831 0.0649868 -1.86669e-21)
(1 -3.08028e-05 -4.80598e-26)
(0.999603 -4.01934e-05 1.8528e-23)
(0.999912 -3.70006e-05 3.05334e-26)
(0.995242 -0.00510124 -3.26608e-23)
(0.999671 -0.0015853 -5.5096e-24)
(0.993769 -0.000332325 -3.70926e-23)
(1.02519 -0.133326 -8.13719e-23)
(0.999708 -0.00154369 3.65985e-24)
(1.00418 -0.00349829 -3.49288e-23)
(0.999975 -2.56088e-06 -5.42372e-26)
(1.01962 0.12285 -6.88631e-21)
(1.05875 -0.0456888 1.31591e-22)
(1.11482 -0.0110237 -5.93038e-23)
(0.962891 -0.00690862 4.8778e-22)
(0.976512 -0.00476606 -8.77962e-23)
(0.999107 -0.00397381 4.84008e-23)
(1.00291 -0.00268546 4.88176e-23)
(1.03374 0.0588868 7.94573e-22)
(0.984651 -0.0414342 5.94293e-23)
(1.08009 0.099367 9.64838e-22)
(0.953419 -0.0159822 -8.97643e-22)
(0.996646 -0.0028532 -5.10884e-23)
(0.99999 -4.22941e-06 -1.19554e-25)
(0.99432 -0.00295343 -7.20447e-23)
(1.00301 0.116956 1.74897e-21)
(1.05092 0.0704963 -4.27616e-22)
(0.987547 -0.062919 3.30973e-22)
(0.935426 -0.00707613 2.12561e-22)
(1.02327 0.117583 1.84386e-21)
(0.991424 -0.000618117 9.62027e-23)
(0.99889 -0.102392 5.57238e-23)
(0.999992 -9.44035e-05 2.01674e-25)
(0.989103 -0.046461 4.93591e-22)
(0.999173 -0.000233672 -2.7012e-23)
(0.877764 0.0678944 -4.20105e-21)
(0.98747 -0.0841525 -7.57588e-22)
(0.999914 -3.31501e-05 1.59957e-24)
(0.931409 -0.0231671 -5.62727e-23)
(0.984791 -0.0440213 2.73141e-23)
(1.02291 0.0625443 2.80879e-21)
(0.997442 -0.000785355 -6.86915e-23)
(0.982498 -0.0426703 -1.79635e-22)
(0.997845 -0.0111186 -5.65126e-23)
(1.00123 -0.024027 -5.86734e-23)
(0.998749 -0.000575439 -1.77213e-23)
(1.0221 0.061282 -3.39911e-21)
(1.08417 -0.179986 7.89771e-22)
(0.982368 -0.0185115 -1.48607e-22)
(0.986579 -0.0159284 3.0918e-24)
(0.986941 -0.005329 -4.68274e-23)
(1.00516 -0.00204047 -4.09569e-23)
(1.02463 0.114898 7.23203e-21)
(0.982147 -0.0150131 6.75597e-23)
(1.012 0.0333572 1.83696e-21)
(1.00268 -0.00216098 3.7106e-23)
(1.20238 0.00887207 -2.88169e-23)
(0.946084 0.0745696 7.15095e-22)
(0.991251 -0.000482958 -3.33287e-22)
(0.999774 -4.24972e-05 3.61185e-24)
(1.03282 0.0762619 8.57384e-22)
(0.995416 0.0958001 -6.36675e-21)
(1.02915 -0.0433474 -6.75717e-24)
(1.08537 -0.0278426 6.59692e-23)
(0.995643 -0.0140153 -7.3074e-23)
(0.963479 -0.00623735 -2.89071e-22)
(1.06297 0.106435 2.74998e-21)
(0.962201 -0.0597389 1.42852e-22)
(0.999977 -2.19371e-05 3.66743e-25)
(0.99258 -0.000118471 -1.69989e-22)
(1.00004 -5.84394e-06 3.61131e-25)
(0.995561 -0.000278611 1.27018e-22)
(0.999976 -2.31148e-05 -5.73453e-25)
(0.99849 -0.0155181 9.47634e-23)
(0.999055 -3.81628e-05 9.63766e-24)
(0.997361 -0.00581755 6.49275e-24)
(1.20196 -0.0214451 -7.98099e-23)
(0.999416 -0.000394594 9.67494e-24)