/*--------------------------------*- C++ -*----------------------------------*\
  =========                 |
  \\      /  F ield         | OpenFOAM: The Open Source CFD Toolbox
   \\    /   O peration     | Website:  https://openfoam.org
    \\  /    A nd           | Version:  7
     \\/     M anipulation  |
\*---------------------------------------------------------------------------*/
FoamFile
{
    version     2.0;
    format      ascii;
    class       volVectorField;
    location    "19";
    object      U;
}
// * * * * * * * * * * * * * * * * * * * * * * * * * * * * * * * * * * * * * //

dimensions      [0 1 -1 0 0 0 0];

internalField   nonuniform List<vector> 
19930
(
(0.997078 -0.000297403 6.60134e-24)
(0.988485 -0.000863626 2.59957e-22)
(1.02907 -0.00393727 -3.32895e-23)
(1.00032 -4.16842e-05 -2.02141e-24)
(1.00082 -0.00970567 7.54211e-23)
(1.00045 -0.0103041 -7.34911e-23)
(1.02633 -0.174928 -8.42802e-22)
(1.19712 0.0737304 -1.65515e-20)
(1.00339 -0.0868464 -2.16798e-21)
(1.20451 0.0695458 1.18913e-20)
(1.03985 -0.160396 -2.48194e-21)
(1.32944 0.00887812 -2.49529e-22)
(0.984767 -0.0555407 -3.4594e-22)
(0.996918 -0.000354512 -7.10012e-24)
(0.995587 -0.00361867 6.5277e-23)
(1.00031 -5.29818e-05 -1.95408e-24)
(1.28861 -0.118898 -1.11748e-21)
(1.16256 -0.00185447 -9.02858e-21)
(0.997311 -0.128777 -1.53891e-21)
(0.990975 -0.000417527 -2.27448e-22)
(1.01468 -0.10092 2.8493e-21)
(1.3282 0.0127778 -4.16165e-22)
(1.21326 0.0747682 -8.67205e-21)
(1.11308 -0.217306 -1.83207e-21)
(1.02697 -0.00176699 5.24007e-24)
(1.00594 0.186063 -3.55583e-20)
(1.00995 -0.00289828 8.97024e-24)
(0.993205 -0.0603109 1.16097e-21)
(1.16224 -0.219126 -1.5241e-21)
(0.999611 -0.130529 5.36443e-21)
(0.998667 -0.00237847 -1.00999e-24)
(0.870514 0.0354322 5.95708e-20)
(1.29356 0.076775 5.28358e-21)
(0.991811 -0.0351882 1.28883e-22)
(1.00008 -0.00177342 8.39595e-24)
(0.998733 -0.00256445 -3.76955e-24)
(1.20597 0.10478 -1.79114e-20)
(0.999891 -3.63211e-06 -3.2535e-24)
(1.01613 -0.0211768 6.93031e-23)
(1.17003 -0.011713 -2.93057e-21)
(1.04586 -0.00948095 4.22738e-23)
(1.30239 0.151038 9.79515e-21)
(1.07285 0.078195 -9.5477e-21)
(1.00888 -0.00336279 -7.4293e-24)
(1.00361 0.178066 1.43326e-20)
(0.97563 -0.00168289 1.74607e-22)
(1.15478 0.00882846 -2.74878e-20)
(1.31211 -0.0540132 -2.33369e-23)
(0.99956 -0.000114394 -2.4397e-24)
(0.972594 -0.0484083 1.77569e-22)
(0.999974 -0.00188871 -2.10084e-23)
(1.08795 -0.0112601 1.74611e-21)
(1.18351 -0.161396 4.33477e-21)
(1.00042 -0.00417753 -2.98359e-23)
(1.21806 -0.176216 -1.15102e-21)
(0.947655 -0.0190181 -1.45803e-22)
(0.978056 -0.032607 4.91954e-23)
(0.998536 -0.00307882 1.64075e-24)
(1.00999 -0.0515575 -1.29897e-21)
(1.28764 -0.113392 9.17218e-22)
(0.943775 0.0663825 3.13137e-20)
(0.965906 -0.00476804 3.34572e-22)
(0.98831 -0.00369108 -8.32894e-23)
(1.21816 0.0562938 -7.14116e-22)
(0.999325 -0.000104065 1.5865e-23)
(0.995372 -0.00870671 3.42503e-24)
(0.998599 0.124383 9.28798e-22)
(0.994819 -0.009092 5.44499e-23)
(1.12769 -0.102411 -1.7646e-22)
(1.02078 0.185786 1.32123e-20)
(1.04368 -0.0480348 -1.24646e-22)
(1.28089 -0.144462 -2.03451e-21)
(0.996002 -0.00362303 -1.57959e-23)
(0.98337 -0.040793 1.10744e-21)
(0.99952 0.0243968 -1.35423e-20)
(1.07633 -0.100504 8.4622e-22)
(1.01775 0.17235 6.06401e-21)
(0.956502 -0.0055981 1.188e-22)
(1.16666 -0.0107842 1.86295e-21)
(1.00834 0.0682287 1.91847e-20)
(0.996311 -0.00905154 1.64372e-22)
(1.00245 -0.00492645 -2.6612e-23)
(1.14428 -0.216144 1.2209e-21)
(1.00462 -0.0842907 1.80553e-21)
(0.969084 -0.00379189 -3.6905e-22)
(1.06777 0.0743798 4.59235e-20)
(0.987765 -0.0519844 -6.50093e-22)
(0.765838 0.124181 5.75811e-21)
(1.21003 0.0543994 -7.03897e-21)
(0.972397 0.195811 2.32241e-20)
(1.17428 0.0186461 -1.00985e-20)
(1.00039 -7.69116e-05 2.21937e-24)
(1.00005 -0.000342301 9.9923e-24)
(0.889858 0.0111907 -1.69091e-20)
(1.31248 -0.0606793 4.0265e-23)
(0.988822 -0.00387888 -4.21359e-23)
(0.911074 0.00722007 2.58862e-20)
(0.999465 -0.00498079 2.35433e-23)
(1.04493 -0.156051 -1.07996e-21)
(1.1242 0.0205276 -1.15035e-20)
(0.965699 0.20312 -6.89476e-20)
(0.974791 -0.0113115 3.88804e-23)
(0.940912 0.18791 -7.6443e-20)
(1.17401 -0.146671 4.1636e-21)
(1.12438 -0.00489682 -4.96926e-21)
(1.10513 -0.10327 4.96087e-22)
(1.08386 0.191561 2.33116e-20)
(1.16738 -0.124635 8.34793e-22)
(0.988298 -0.000490203 -1.60304e-22)
(1.13312 0.203801 4.91834e-21)
(1.16903 -0.22437 -5.1885e-21)
(1.02159 -0.173615 -1.92415e-21)
(0.97729 -0.0256634 4.00997e-22)
(1.03706 -0.0247378 -1.14606e-22)
(1.07964 -0.0937274 2.42916e-22)
(1.00009 -9.72853e-05 -2.44527e-24)
(1.11603 0.119339 2.15102e-20)
(0.996896 -0.00847263 -6.34186e-23)
(1.16348 -0.155991 9.22844e-22)
(1.00662 0.0551946 -4.50338e-20)
(1.00038 -5.63931e-05 4.08803e-25)
(1.0265 -0.106326 1.80439e-21)
(1.20005 -0.00940538 -3.71149e-21)
(1.01049 -0.0588664 -1.77707e-21)
(0.991716 -0.0333842 -1.11733e-22)
(1.16429 -0.00227271 4.59644e-21)
(1.32496 0.0457089 -8.74996e-21)
(0.993027 -0.0580869 9.47745e-22)
(0.855736 0.0421741 -1.7535e-20)
(1.11011 0.126034 1.15569e-20)
(0.988744 -0.0666024 -9.0038e-22)
(0.972266 -0.0465682 -5.65495e-22)
(1.04607 -0.00492534 1.77973e-22)
(1.01522 -0.0194652 -1.62288e-23)
(1.06748 0.182107 -3.22683e-20)
(1.1188 -0.00850749 -1.2903e-21)
(1.30906 -0.0319396 -9.48021e-22)
(1.01781 -0.101861 -1.20482e-21)
(0.980196 -0.0114561 3.67987e-22)
(0.989399 -0.0878429 3.98923e-21)
(1.02214 -0.109033 3.21391e-22)
(0.981728 -0.0420931 -1.09198e-21)
(1.27752 -0.153646 -1.785e-21)
(0.935105 0.208087 -2.42497e-20)
(1.24086 -0.0728829 7.56091e-22)
(1.06755 0.189206 2.92924e-20)
(1.33396 0.0855834 -1.25722e-21)
(0.967578 -0.011896 -3.0074e-22)
(1.31767 0.0332612 -6.50587e-21)
(1.01123 -0.0038881 -1.42372e-23)
(0.967169 -0.0108656 5.91955e-22)
(1.023 0.180945 1.47131e-21)
(1.00007 -0.000294412 -6.38116e-24)
(1.00338 -0.0780331 6.95224e-22)
(1.00238 -0.00443044 4.57544e-23)
(1.33597 0.0927675 6.16616e-21)
(1.06066 0.0791994 -4.82868e-21)
(1.10889 -0.212343 7.92234e-21)
(0.943322 -0.0220268 3.04703e-22)
(0.983829 -0.0568211 7.28199e-22)
(1.22045 -0.18598 1.58693e-21)
(1.03128 -0.170031 1.31147e-21)
(0.998484 -0.00284571 -4.19719e-24)
(1.24167 -0.0662828 -1.38068e-21)
(1.15181 -0.0089833 -8.11559e-22)
(0.772703 0.129855 1.37623e-20)
(0.976038 -0.0114753 2.52134e-22)
(1.13667 -0.221193 4.88768e-22)
(1.07132 -0.101741 -9.67485e-22)
(1.20247 0.0996235 -1.08096e-20)
(1.31092 -0.0353733 3.86406e-22)
(0.984958 0.141609 1.42246e-20)
(1.19986 0.215194 3.0322e-20)
(0.988976 -0.0306408 2.18651e-23)
(0.808517 0.0333027 -2.06664e-20)
(1.29724 0.0715847 6.07832e-21)
(0.996397 -0.000741561 -6.06418e-24)
(0.976711 0.0165738 -3.64374e-20)
(1.08678 -0.0932017 -7.40066e-23)
(1.12329 0.220021 9.88733e-21)
(1.06242 0.205243 -1.49221e-20)
(0.999837 -2.95528e-06 3.96956e-24)
(0.921907 0.142485 9.6248e-22)
(1.17332 0.186156 2.71468e-20)
(0.990291 -0.000696423 1.57453e-23)
(0.941604 -0.0157276 1.61624e-21)
(1.04338 -0.0449034 1.21385e-22)
(1.1318 0.0146263 -2.97511e-21)
(1.1666 -0.149621 -1.45686e-21)
(0.845335 0.110835 1.78306e-20)
(1.31884 0.0459891 -3.34074e-21)
(1.25739 -0.117505 -4.73233e-22)
(1.11773 0.016063 2.29265e-20)
(1.12878 -0.0952521 5.52086e-22)
(0.944066 -0.0231399 7.79449e-22)
(1.30519 -0.00430341 -3.52309e-21)
(0.92487 0.150125 -1.13188e-21)
(1.29028 -0.078181 3.97499e-22)
(0.992487 -0.000269987 -6.42132e-24)
(0.835668 0.109521 -1.75209e-20)
(1.28857 -0.042674 -3.35835e-21)
(1.23827 -0.159247 1.44196e-21)
(1.18498 -0.154023 -3.6405e-21)
(0.863486 0.127127 -2.13714e-20)
(0.903472 0.131915 4.92351e-20)
(0.963785 -0.0262042 -3.42967e-22)
(1.00011 -0.0433185 -1.07212e-22)
(1.0881 -0.00665046 -2.36431e-22)
(0.947981 -0.0205742 -7.59541e-22)
(0.998546 -0.000136512 2.27828e-23)
(1.00261 0.127081 -6.63628e-21)
(0.973764 0.0502848 -1.30866e-20)
(0.966957 -0.0150585 5.264e-22)
(0.954912 -0.0357577 4.92279e-22)
(1.12339 0.211075 1.48029e-20)
(0.998203 0.0416183 2.05787e-20)
(0.998549 -6.41707e-05 -5.55452e-23)
(1.0039 0.0453237 -3.06084e-20)
(1.17324 -0.12117 3.68428e-22)
(1.01639 -0.017145 8.20824e-23)
(1.00388 -0.0630123 1.19391e-22)
(1.07996 0.12495 -2.40865e-21)
(0.914744 0.235911 2.28782e-20)
(1.17015 0.0175557 1.33484e-20)
(1.13085 0.192843 -2.40201e-20)
(0.978941 -0.0114063 -6.25348e-22)
(1.00238 -0.0428492 -5.2069e-22)
(1.00013 -0.00010615 7.84577e-26)
(0.998982 -4.70453e-05 9.73778e-24)
(1.00067 -0.00812536 1.51183e-22)
(1.19547 -0.0103923 1.67072e-21)
(1.1295 -0.148554 -9.37836e-22)
(1.08532 0.18402 -2.96957e-20)
(0.996793 -0.10321 1.08884e-21)
(1.04753 0.0653532 1.80074e-20)
(0.9893 -0.050225 -1.15385e-22)
(1.09921 -0.0979657 -3.8586e-22)
(0.989519 0.137769 2.51472e-20)
(0.896166 0.00879847 8.79605e-20)
(1.07956 0.117361 4.1571e-20)
(1.02183 0.165539 -3.74897e-20)
(0.953243 -0.0349744 -4.35188e-22)
(1.27057 0.144772 -6.6797e-21)
(1.01166 -0.05713 1.94496e-21)
(1.13028 -0.00821809 1.02797e-20)
(0.996711 -0.00764129 -1.11248e-22)
(1.25495 -0.179797 -4.73695e-21)
(1.18912 -0.0979718 1.22699e-21)
(1.09657 -0.0339909 2.65404e-21)
(0.999585 -8.78072e-05 2.91947e-24)
(0.986321 -0.000678994 2.03048e-22)
(0.90489 0.242407 -3.52812e-20)
(1.24205 -0.00517017 2.16468e-20)
(1.01545 -0.0227777 -1.36168e-22)
(0.969338 -0.0523178 -1.06089e-21)
(1.12472 -0.142732 3.22894e-22)
(1.0598 -0.190962 3.29767e-21)
(1.29612 0.159254 -1.31912e-21)
(0.990701 -0.0869524 -1.10596e-21)
(0.971274 -0.00208454 -3.47254e-22)
(0.995194 -0.0685559 1.34396e-21)
(0.992655 -0.0296108 -1.36361e-22)
(0.999257 -7.91283e-05 -7.81937e-25)
(0.988392 -0.0479092 5.91846e-22)
(1.03501 -0.170687 -6.01327e-22)
(0.932022 0.199316 4.56592e-20)
(1.30363 -0.0829785 -5.94378e-22)
(0.979029 -0.0245224 -7.45529e-22)
(1.04323 0.069169 -2.78791e-20)
(0.908387 0.141845 -5.9199e-21)
(0.988362 -0.0540526 1.25434e-22)
(1.00071 -0.000291687 -1.4175e-23)
(1.00233 -0.0809756 -1.25303e-21)
(0.99819 0.116742 7.73184e-21)
(1.22753 -0.206364 -2.7309e-21)
(0.948223 0.0613088 -4.6998e-20)
(1.00005 -0.000113614 1.15647e-24)
(0.956801 -0.0392864 8.70594e-22)
(1.17508 0.231944 2.47936e-21)
(0.998979 0.0393996 4.13329e-20)
(1.03016 -0.0803096 -3.20468e-22)
(0.979498 -0.0311788 5.03984e-22)
(0.867158 0.21825 3.83282e-20)
(1.23786 -0.142835 3.45076e-22)
(1.24968 -0.117596 4.76808e-22)
(0.950962 0.189537 3.12826e-20)
(0.851301 0.125714 -3.65634e-21)
(0.986931 -0.0557939 -3.90127e-22)
(1.1761 0.239414 -1.67747e-20)
(1.18487 -0.0396209 -4.30591e-21)
(1.01173 0.0687366 -5.23705e-20)
(1.1474 0.119615 1.24223e-20)
(1.00073 -0.000213719 1.78578e-23)
(1.30935 -0.0845691 7.99365e-22)
(1.19018 0.101104 6.61316e-21)
(0.996261 -0.000645907 -1.08612e-23)
(0.994843 -0.108498 -4.39566e-22)
(1.28311 -0.0676173 -3.011e-22)
(1.12505 -0.210252 -1.39818e-21)
(1.28313 -0.0450512 2.04841e-21)
(1.20359 -0.0813919 -9.13666e-22)
(1.00012 -0.000190662 -2.1835e-24)
(0.999564 -0.00351579 6.23921e-23)
(0.981644 0.224916 -5.41997e-20)
(1.0014 -0.0145924 -3.1485e-23)
(1.00383 -0.130066 -1.26062e-21)
(0.989262 -0.0718171 1.34798e-22)
(1.32316 0.0140185 -2.99763e-21)
(0.968594 -0.00464001 -6.48389e-23)
(1.12896 0.225498 1.69423e-20)
(1.24402 -0.0499309 3.6941e-21)
(0.99269 -0.0689307 7.80784e-22)
(0.95372 -0.00673547 -3.28852e-22)
(1.20546 0.0903295 1.14309e-21)
(1.2972 0.00368706 2.93197e-21)
(1.00008 -0.000194948 -2.04856e-24)
(0.957207 0.135708 4.60987e-20)
(1.11212 0.133448 5.64785e-21)
(0.98318 0.0352612 -1.13467e-20)
(1.22331 -0.168458 -1.51079e-21)
(0.999364 -7.5773e-05 -1.27201e-23)
(0.87009 0.208846 -2.55846e-21)
(0.996888 -0.00529036 -9.04911e-23)
(0.992551 -0.0531518 2.50652e-22)
(1.29928 -0.00305177 -1.23221e-21)
(1.2838 -0.0754361 -1.296e-23)
(0.980437 -0.0557124 -9.36438e-22)
(1.23347 -0.151211 2.02557e-21)
(1.05535 0.0759697 7.23541e-21)
(0.893754 0.010883 3.17324e-20)
(1.04897 0.185709 -3.90085e-20)
(1.2261 -0.0279324 -6.37779e-21)
(0.785478 0.044546 4.46714e-21)
(1.00035 -9.92339e-06 -1.20609e-24)
(0.990462 -0.0290867 -1.47594e-22)
(1.00005 0.0228216 5.46458e-20)
(1.17548 -0.196683 5.45475e-22)
(1.18506 0.0964671 -1.59486e-20)
(0.985504 -0.0413463 -4.52808e-22)
(1.00846 0.171842 3.78424e-20)
(1.22086 -0.0562028 2.72167e-21)
(1.00018 -0.00382245 3.85533e-23)
(1.21366 -0.0574415 -2.38122e-21)
(1.11271 0.110256 -2.77087e-20)
(1.1395 -0.193925 -2.40105e-23)
(0.936477 0.0157654 -8.60164e-21)
(1.19028 0.187283 3.81149e-21)
(0.999287 -0.000340564 -9.54214e-25)
(1.03936 -0.0224396 -3.95988e-22)
(1.26128 0.0722491 6.39012e-21)
(1.16348 -0.000419955 1.74816e-20)
(0.997847 -0.000107398 6.09051e-23)
(1.19546 0.207244 -2.72342e-20)
(1.01246 -0.0508872 -1.57422e-22)
(0.743748 0.124492 -2.15807e-21)
(1.01836 -0.107044 -2.3203e-21)
(0.966341 -0.0136805 2.12981e-22)
(0.98703 -0.000794262 -2.34804e-22)
(1.05391 0.192572 4.32016e-20)
(1.16835 0.180137 -4.30499e-20)
(0.972566 -0.00292041 1.52781e-22)
(1.19658 0.0836617 4.07045e-21)
(0.969704 0.185732 -1.33455e-20)
(1.00148 -0.0156552 -4.55858e-23)
(1.08576 0.0100484 6.96176e-21)
(1.04777 0.0317693 -2.01541e-20)
(0.757729 0.0681217 2.95223e-20)
(0.997307 -0.00443204 2.71983e-23)
(1.29191 0.02579 -7.97829e-21)
(1.18178 -0.100463 -2.04925e-22)
(0.946178 -0.0185307 -2.6915e-22)
(0.999572 -7.03249e-05 -2.41543e-24)
(0.999489 0.0129352 3.34886e-20)
(1.3104 0.151867 5.56573e-21)
(1.27416 -0.0934448 1.74408e-21)
(1.00361 0.219754 -1.36932e-20)
(1.22445 -0.0213585 3.11127e-21)
(0.976292 -0.0321566 3.5683e-22)
(1.26748 0.134479 -5.05558e-21)
(1.1513 -0.00511768 -2.72366e-21)
(1.23399 -0.0030369 6.66227e-21)
(0.768103 0.0746298 -7.696e-20)
(1.02199 -0.0944441 8.14725e-22)
(1.29716 -0.0148062 1.46579e-21)
(0.980148 0.0453115 -2.95917e-20)
(0.967955 -0.0531278 9.62127e-22)
(1.17147 -0.0477901 3.66076e-22)
(1.05171 -0.157489 2.51784e-21)
(1.25798 0.0659938 -2.85786e-21)
(0.993967 -0.000200967 -3.43707e-22)
(1.15939 0.00863107 -2.94266e-21)
(1.2782 -0.0883648 -5.79713e-22)
(1.29501 -0.0198326 3.31713e-21)
(1.00135 -0.00488317 1.09697e-22)
(1.1513 0.00687227 2.9198e-20)
(0.994179 0.0283576 -2.82156e-20)
(1.10461 0.0752743 4.99047e-20)
(1.12684 -0.205957 -5.46299e-21)
(0.99396 -0.0279675 3.03291e-22)
(0.871715 0.116477 -2.47728e-20)
(0.872326 0.0408358 -6.39727e-20)
(0.997248 -0.00715742 -2.41155e-23)
(0.958544 -0.038453 3.9659e-22)
(1.05098 0.134151 5.75303e-21)
(1.00745 -0.13674 -1.0277e-21)
(1.09188 -0.0998213 3.96193e-22)
(1.28541 0.1569 2.01894e-20)
(0.989016 -0.000526955 2.92918e-22)
(0.750326 0.0600979 5.10323e-20)
(1.03268 -0.072183 -8.13957e-23)
(1.29431 0.0403475 2.89772e-21)
(0.990389 -0.0103309 3.23233e-23)
(0.990374 0.0285386 -1.20815e-20)
(1.19328 0.177405 -7.65016e-21)
(1.09773 -0.0267573 -2.85362e-21)
(1.10447 -0.110026 -3.60238e-22)
(1.26107 -0.112813 9.54293e-22)
(1.28996 -0.037979 3.25606e-22)
(0.999635 -0.00540674 7.56605e-25)
(1.03844 0.110878 -1.06132e-20)
(1.28851 -0.142642 4.31325e-21)
(1.20427 0.0596683 1.73675e-20)
(0.749239 0.131745 7.71099e-20)
(1.23376 -0.168492 1.19274e-21)
(1.06965 -0.0878047 -8.3068e-22)
(1.00032 -0.00882072 -1.51581e-22)
(1.31626 -0.0505973 5.52472e-22)
(1.29152 -0.0856273 -4.39974e-22)
(0.975808 -0.0250118 1.26323e-21)
(1.24583 0.170334 -2.50807e-21)
(1.00006 -0.00143844 -3.34441e-23)
(0.973986 -0.0430712 -1.97034e-22)
(1.01543 -0.015551 -1.06433e-22)
(1.23298 -0.13539 7.6424e-23)
(0.989705 -0.0460711 4.97088e-22)
(0.999575 -0.000146128 5.16712e-25)
(0.988068 -0.0593681 1.4992e-21)
(1.30732 -0.00999078 -1.74158e-21)
(1.13816 -0.202156 -2.03697e-21)
(1.04727 -0.0778428 -1.24842e-22)
(0.962238 -0.0268345 -7.09564e-22)
(1.27677 -0.0642904 -1.56283e-21)
(1.19909 -0.074984 2.18384e-21)
(0.975122 -0.0552323 -4.88305e-22)
(0.947953 -0.00943288 1.01491e-21)
(1.00102 -0.00510577 -1.79229e-23)
(1.13306 -0.107518 2.6984e-22)
(1.01724 -0.148223 -1.58856e-22)
(1.01269 -0.00326658 7.62998e-24)
(1.03393 -0.0771571 1.01505e-21)
(1.29067 0.00542001 -4.83729e-21)
(1.10533 0.0691269 -3.04091e-20)
(1.2498 -0.0621865 7.90694e-22)
(0.999239 -0.000289902 4.73941e-24)
(0.850387 0.23294 -5.67888e-20)
(1.01285 -0.00167917 5.29584e-24)
(0.99998 -0.00155774 3.99986e-23)
(1.04306 -0.0113197 4.8721e-22)
(0.962423 -0.038818 -6.46726e-22)
(1.00671 -0.0959401 1.54177e-22)
(0.909855 0.121932 -2.89299e-20)
(1.02383 -0.0588418 9.00378e-23)
(1.18067 -0.0360868 -2.10691e-21)
(1.01506 -0.128721 2.36238e-21)
(1.01178 -0.130427 -3.0354e-21)
(1.28205 0.146645 -1.4014e-20)
(0.994565 -0.0538451 -4.18588e-22)
(0.990384 -0.0830185 6.78189e-22)
(0.996873 -0.107008 1.01219e-21)
(0.999625 -5.00607e-05 5.60277e-24)
(1.17538 -0.138169 -2.19638e-21)
(0.82343 0.221922 -5.32024e-21)
(1.06326 -0.185578 8.64794e-22)
(0.960276 -0.0486895 -1.51321e-22)
(1.23655 0.163161 -2.76955e-22)
(0.981566 -0.0526381 -9.7821e-23)
(1.1429 0.112199 -1.04111e-20)
(1.32323 0.0326391 -5.19336e-22)
(0.996414 -0.00565633 1.45132e-22)
(0.998415 -0.0001987 -1.87867e-23)
(1.09877 0.123807 3.45396e-21)
(0.762532 0.164373 2.5022e-20)
(1.04782 -0.181564 2.22959e-22)
(1.32622 0.0736573 1.22475e-21)
(1.31526 -0.0159681 -3.92864e-21)
(0.966177 -0.0434332 -2.85698e-22)
(0.966142 -0.0455754 -6.75045e-22)
(1.05576 0.1397 -1.55908e-21)
(1.11871 -0.0157568 1.96138e-21)
(1.146 -0.208003 4.23932e-21)
(1.05665 -0.151761 -2.03624e-21)
(0.976992 -0.00175033 4.71699e-23)
(1.06857 -0.0173998 1.17769e-21)
(0.869898 0.0625774 -1.10383e-20)
(1.18988 -0.0193741 -1.38136e-20)
(1.00032 -8.63536e-05 2.15934e-24)
(0.936527 0.180553 4.92738e-20)
(1.03604 -0.0691216 -9.24213e-22)
(1.00794 -0.0978203 1.77265e-21)
(1.18103 0.224368 -1.47299e-20)
(1.01814 -0.025331 -1.31994e-22)
(0.989593 -0.00988053 -1.08454e-22)
(0.999319 -0.000493122 5.5161e-25)
(1.16708 -0.108283 -3.74424e-23)
(0.963922 -0.0206515 -5.23045e-22)
(1.00033 -1.55469e-05 2.14798e-24)
(1.3298 0.071022 -3.08865e-21)
(1.23182 -0.199603 -1.88001e-21)
(1.03365 0.10896 -1.84902e-20)
(0.999206 -0.000113382 -4.12255e-24)
(1.00029 -0.00457405 -1.73247e-23)
(0.980421 -0.0539398 -4.68694e-22)
(1.00001 -9.4332e-05 2.01668e-25)
(1.048 -0.186558 -1.14774e-21)
(1.16363 -0.209338 -1.99405e-21)
(0.999689 -0.00458399 1.26336e-23)
(1.00677 -0.0772357 -5.31653e-22)
(0.942924 -0.0155602 3.92493e-22)
(1.1627 0.201729 -1.80407e-21)
(0.997805 0.2181 1.10575e-20)
(0.996843 -0.00482488 2.85535e-23)
(1.00338 -0.00118606 1.65554e-23)
(0.993834 -0.101276 -2.64786e-21)
(0.983106 0.198221 3.61684e-20)
(1.00472 -0.035494 4.96457e-22)
(0.959572 0.126561 -1.14091e-21)
(0.981136 -0.012553 -4.51965e-23)
(0.742727 0.100645 -2.09995e-20)
(1.07654 0.0236448 -3.80447e-21)
(1.22625 0.0331464 -1.60217e-20)
(0.794264 0.130802 -2.26243e-20)
(1.2907 -0.133015 1.58751e-22)
(0.989593 -0.00315888 -2.05648e-23)
(1.17466 -0.0963526 2.61497e-22)
(1.00922 -0.036862 -5.56506e-23)
(0.998932 0.193721 8.92654e-21)
(1.04828 0.120352 2.48872e-20)
(0.969521 -0.00850781 2.31875e-22)
(1.25032 -0.173175 5.17327e-21)
(1.15096 -0.0455017 -2.98054e-22)
(1.06578 -0.0920985 -7.54029e-22)
(0.995176 -0.000326687 -7.36835e-24)
(1.2519 -0.188689 4.68169e-21)
(1.00031 -3.28878e-05 3.07563e-24)
(1.15332 0.19781 9.50386e-21)
(0.941629 -0.0145974 -1.46922e-21)
(0.990905 -0.0665457 -2.63751e-22)
(0.995912 -0.0322978 3.05198e-22)
(1.00622 -0.0621189 1.93737e-21)
(1.28679 0.040694 9.48562e-22)
(1.25052 -0.055649 -2.84617e-21)
(0.998163 -6.31836e-05 -4.97278e-23)
(1.02708 -0.0567971 -6.73833e-22)
(0.999879 -0.000145259 8.77635e-25)
(0.746899 0.0932364 1.55712e-20)
(0.880716 0.0561927 2.25679e-20)
(0.994689 -0.00115686 -3.16248e-24)
(0.971299 -0.0135844 -2.72887e-22)
(1.03705 -0.0425247 2.63886e-23)
(1.05375 0.125912 1.06866e-20)
(0.94005 -0.0232697 -8.12873e-22)
(1.3197 -0.0160812 -7.9012e-22)
(0.962381 -0.049828 1.85063e-22)
(1.03869 0.187461 -7.80339e-22)
(1.23416 0.0340221 -1.72986e-21)
(0.962994 -0.0224731 -3.67956e-22)
(0.770464 0.0485691 -3.2388e-20)
(1.06014 -0.00295776 -1.06668e-21)
(1.06193 0.193564 -2.29501e-20)
(0.992439 -0.0147898 1.79221e-23)
(1.0182 -0.157074 4.85774e-21)
(0.948418 0.009508 -7.19878e-20)
(1.01534 -0.0465262 5.57291e-22)
(0.75659 0.175955 -1.14329e-20)
(1.07861 0.142279 1.33119e-21)
(0.775848 0.0554355 -7.69305e-21)
(0.990137 -0.00326467 1.68968e-23)
(0.991466 -0.000608926 4.41579e-23)
(1.02644 -0.101527 -5.19429e-22)
(1.19143 -0.0901734 -1.82414e-21)
(1.01675 -0.0250807 1.41372e-22)
(1.02651 -0.0919976 -1.73756e-22)
(1.04497 0.171377 2.113e-21)
(1.04142 0.205401 7.26579e-21)
(1.07869 0.00436767 7.99422e-24)
(0.989302 0.191523 -2.5901e-20)
(0.776809 0.190384 6.17402e-21)
(1.28535 0.076402 1.09528e-20)
(0.997879 0.014873 -4.8505e-20)
(1.09393 0.0593279 -9.712e-21)
(1.00575 -0.0188825 -3.42106e-22)
(1.09412 0.129596 -1.13435e-21)
(0.988839 -0.082323 -5.87997e-22)
(0.964114 -0.0487061 4.85675e-22)
(0.998646 -0.00135032 1.75573e-24)
(1.05872 -0.0911236 1.73123e-21)
(1.104 -0.177773 -6.11592e-22)
(1.15463 0.0509717 7.45037e-21)
(1.10204 -0.0129565 3.55149e-21)
(1.00626 0.0623385 3.80823e-21)
(1.0092 -0.0537005 1.19244e-21)
(1.16031 -0.0358449 1.95525e-21)
(1.00849 0.0480096 -4.36222e-21)
(1.01047 -0.0386799 6.93335e-22)
(1.09971 -0.113613 8.37095e-22)
(0.999915 -0.000174816 -4.99887e-26)
(1.00051 -0.000242803 3.07634e-24)
(1.15026 0.0462264 -3.77497e-23)
(0.991536 -0.0715148 -7.59774e-22)
(0.970166 -0.0456709 7.70198e-22)
(1.00056 -0.000231325 -4.55141e-24)
(1.00011 -0.00318001 2.4619e-23)
(1.1479 -0.05028 -5.24685e-22)
(0.999389 -7.53419e-05 7.35274e-24)
(1.30682 -0.0647127 -1.41609e-22)
(0.7527 0.0743374 4.06814e-20)
(1.32756 0.0831184 5.2806e-22)
(1.22194 0.063177 -6.21922e-22)
(0.965271 -0.00827129 -3.546e-22)
(1.1035 0.192863 7.96119e-21)
(1.31534 -0.0440458 -5.28304e-22)
(1.00531 -0.0331147 -2.9036e-23)
(0.971976 -0.0151221 -2.70775e-22)
(0.997297 -0.00410598 9.53277e-26)
(0.999258 -0.000439204 -1.14679e-24)
(1.00203 -0.00519218 -4.14686e-23)
(0.996568 -0.0343195 2.62742e-22)
(1.03393 -0.158544 2.66492e-21)
(1.22281 0.100861 2.00584e-20)
(1.21649 -0.102019 6.03429e-24)
(0.961836 -0.00401011 1.01075e-22)
(0.999888 -0.000104636 3.60326e-26)
(1.01027 0.113929 2.54934e-20)
(1.28193 -0.110808 2.23301e-21)
(1.26774 -0.154972 1.29551e-21)
(1.01788 -0.0479614 -6.21633e-22)
(1.30442 -0.0310521 1.79003e-21)
(1.05609 -0.09408 -5.25779e-22)
(0.982197 -0.000915428 -7.25926e-23)
(1.00517 0.0400443 2.1816e-20)
(0.952777 0.00175999 -9.60341e-20)
(1.23811 0.217137 -1.70457e-20)
(0.98912 -0.000432419 -2.0682e-22)
(1.23125 0.22186 1.38058e-20)
(0.966024 -0.00594827 1.32304e-22)
(0.984587 -0.0493634 -6.03468e-22)
(1.30585 0.103669 -1.16508e-20)
(1.0003 -0.0001064 4.06488e-24)
(0.989342 -0.0324775 -7.68046e-23)
(1.29629 0.0289993 2.79766e-21)
(1.26972 0.0736184 1.24883e-20)
(0.964356 -0.0242825 -8.83862e-23)
(1.06212 0.123904 1.67568e-21)
(0.925729 0.241734 -2.3838e-21)
(1.03359 0.0597231 -4.95957e-20)
(0.960505 -0.0397462 1.01336e-21)
(0.949053 -0.00931489 -4.88794e-22)
(1.05174 -0.0742951 -1.70725e-22)
(1.15694 -0.0104861 4.43286e-22)
(1.04481 0.0263779 -1.18656e-20)
(0.994942 -0.00157678 -3.66355e-24)
(0.941628 0.0222984 -2.69015e-20)
(0.991927 -0.0507343 1.36864e-21)
(1.02306 -0.157402 -3.30549e-21)
(1.17368 -0.0886702 5.58869e-22)
(0.841063 0.238146 8.06863e-20)
(1.23197 0.105594 -1.58246e-20)
(1.04162 0.122473 -2.61705e-20)
(1.17384 -0.206113 1.05042e-21)
(0.914937 0.00526886 -4.33788e-20)
(0.965882 -0.0204093 5.24461e-22)
(0.986082 -0.0475836 4.35811e-22)
(0.823789 0.0257596 1.54178e-20)
(1.09212 -0.0367597 -8.38036e-22)
(1.03591 -0.147887 -4.74168e-22)
(1.06007 0.176161 -5.30756e-21)
(1.03272 0.180194 -1.67111e-20)
(0.975799 -0.0416824 -7.02899e-22)
(1.05453 0.0339322 -2.6737e-20)
(0.986135 0.207385 -4.77743e-21)
(1.03102 0.165298 2.18675e-20)
(1.14627 0.219 6.37641e-21)
(1.05135 0.178771 3.46074e-20)
(1.14273 0.127715 -1.63131e-20)
(0.985551 -0.00399828 1.06376e-22)
(0.967108 -0.0221108 6.43144e-22)
(1.00311 -0.00832731 -2.25937e-23)
(1.00633 -0.128064 3.42246e-21)
(0.98578 0.048452 -6.79219e-21)
(1.01102 -0.13575 1.98756e-21)
(1.30219 0.00872775 -2.16831e-22)
(1.24427 0.00781451 -8.23737e-21)
(0.970856 -0.0528056 5.45513e-22)
(1.3013 -0.0620155 -2.5243e-23)
(1.31406 0.0286092 -2.23516e-21)
(0.982363 0.0203579 -2.08382e-21)
(1.28951 -0.0633443 5.04846e-22)
(0.999705 -0.00383732 -7.03122e-24)
(1.07285 -0.0171608 7.24352e-23)
(0.983871 -0.0531751 2.95133e-22)
(1.24753 -0.142215 1.17458e-22)
(1.26249 -0.148053 -2.67433e-21)
(1.01379 -0.144363 6.60933e-22)
(1.14304 0.207655 3.59184e-21)
(0.965419 0.230509 3.87204e-20)
(1.21269 -0.0806234 1.2418e-21)
(0.993267 0.0180587 2.14967e-20)
(0.758915 0.153431 -2.80555e-20)
(0.998285 -0.000119904 1.5079e-23)
(1.00373 -0.00121035 -1.07315e-24)
(0.996458 -0.00623219 -6.44778e-23)
(0.970515 -0.00899905 7.54971e-23)
(1.19369 0.115416 -1.16561e-20)
(0.822639 0.029402 -3.33344e-20)
(1.19468 -0.0173208 1.19127e-20)
(1.11399 0.206273 4.80659e-21)
(0.980893 -0.0254817 -3.82864e-22)
(1.23281 0.186142 2.27588e-20)
(1.23904 0.204645 7.22959e-21)
(1.22926 -0.189545 7.27911e-22)
(0.955218 -0.0129012 4.85862e-22)
(0.941418 -0.0220082 5.03548e-22)
(1.30832 0.00687373 5.68668e-22)
(1.01305 -0.0475321 2.47283e-22)
(1.21773 -0.096296 2.33208e-22)
(0.968115 -0.0423083 1.52786e-22)
(0.948592 -0.0409951 -1.41823e-21)
(1.07631 0.17802 3.72676e-20)
(0.991256 -0.00277063 4.15607e-23)
(1.02746 -0.0648895 -1.65038e-22)
(1.04373 0.201043 1.79308e-20)
(1.29562 -0.0663098 4.15107e-22)
(0.86244 0.198054 9.04886e-21)
(1.01424 -0.0933177 -9.0694e-22)
(1.08413 0.0203382 1.24426e-20)
(1.25273 -0.149522 2.87563e-21)
(0.998147 -0.0760172 3.05649e-22)
(0.949018 0.0167164 -9.78372e-21)
(0.976416 0.00111138 6.19225e-20)
(0.97889 0.0630158 -1.05516e-20)
(0.993319 -0.0363733 -6.02212e-22)
(0.854138 0.0379315 3.53603e-20)
(0.962591 -0.0366263 5.11196e-22)
(0.950387 0.166916 1.36423e-21)
(1.13596 -0.0911244 -1.25509e-22)
(0.975031 0.100289 -5.90722e-21)
(0.980919 -0.0505948 3.66372e-22)
(1.00005 -0.000249155 -3.47484e-25)
(0.973473 0.0879564 1.97902e-20)
(0.942944 0.149369 2.33599e-20)
(0.958702 0.182041 -3.74406e-20)
(0.974771 0.0759195 -2.30517e-20)
(1.13133 0.0076037 -4.1153e-20)
(1.16988 -0.042466 -9.31555e-23)
(1.16287 0.110604 -3.03498e-20)
(1.03332 -0.143192 1.19556e-21)
(0.992012 0.0397106 6.96883e-20)
(1.05744 0.110499 -3.21459e-20)
(1.27401 -0.111338 -2.634e-21)
(1.10614 -0.0171341 -3.76439e-21)
(0.985993 -0.00379954 5.72906e-23)
(1.29723 -0.131215 -6.02401e-22)
(1.09344 0.17929 -6.05819e-21)
(0.949397 -0.0319792 3.54812e-23)
(0.965943 -0.00506456 -3.82649e-22)
(0.979853 0.0106291 -1.39546e-20)
(0.964563 0.10939 -4.28197e-20)
(0.988358 -0.0579062 -6.1116e-22)
(0.984174 0.11705 3.09373e-20)
(1.01553 -0.152967 1.15094e-21)
(1.29918 -0.0331612 -2.69604e-21)
(0.992929 -0.000345343 3.4656e-24)
(0.952894 0.119477 -2.41818e-20)
(0.939079 0.131836 6.21236e-20)
(0.770981 0.0842631 6.25833e-20)
(0.978632 0.215412 5.01889e-20)
(0.996491 -0.000414964 4.05971e-24)
(0.981063 -0.0276176 2.52213e-22)
(0.998465 -0.001392 -1.42929e-23)
(0.994055 -0.0793094 -2.45729e-21)
(0.861652 0.151592 -1.30268e-20)
(1.24507 0.0577279 -2.0143e-20)
(1.12111 0.189616 -3.94364e-22)
(0.949102 -0.0393307 9.11336e-22)
(1.09605 0.064831 3.05122e-20)
(1.03965 -0.0416332 -7.23482e-23)
(0.861046 0.17548 1.87499e-20)
(1.08776 -0.119317 -5.21862e-22)
(0.989006 0.015789 2.38128e-20)
(0.993117 -0.000340922 -3.50212e-24)
(0.882756 0.141529 -4.27058e-20)
(0.840105 0.187317 -5.26063e-20)
(0.979195 -0.0288666 -6.61992e-22)
(1.25645 -0.0251225 3.24134e-21)
(0.885151 0.118822 -4.26194e-20)
(0.99587 -0.000630584 -3.49063e-23)
(0.811731 0.0857109 -6.94807e-21)
(1.04763 -0.082401 1.96953e-22)
(0.995905 -0.000426254 1.98658e-23)
(0.953497 -0.0142203 -3.41544e-22)
(1.06538 0.201691 -2.25545e-20)
(1.25785 0.0242842 -1.04379e-20)
(1.00372 -0.107779 1.56261e-21)
(1.01293 0.209172 1.95904e-21)
(0.827654 0.212204 3.52343e-21)
(1.23051 0.197757 -2.48181e-20)
(1.06449 -0.0129643 -6.28566e-22)
(0.997174 -0.0707608 4.81038e-22)
(1.16689 -0.101277 -2.14877e-22)
(0.968411 0.123852 3.51887e-20)
(0.8334 0.0864617 -3.98989e-21)
(0.759324 0.080234 4.05032e-21)
(1.23289 0.0486698 3.26071e-21)
(1.00063 -0.0111578 3.29439e-23)
(0.974644 -0.00194943 -1.09548e-23)
(1.10171 0.183197 -2.14747e-20)
(1.00219 -0.00866104 2.49886e-23)
(0.983069 -0.00581627 -6.25744e-25)
(1.00341 -0.0136037 -1.68244e-23)
(0.99333 -0.0317817 -2.96036e-22)
(1.07734 -0.167322 2.2029e-21)
(1.16661 -0.19091 -1.37988e-21)
(0.923826 0.183861 -5.53448e-20)
(1.02066 -0.0532423 2.0943e-23)
(0.998843 -0.00111878 8.1695e-24)
(1.07193 0.112435 -5.3606e-22)
(1.28316 0.0488835 8.34105e-21)
(1.00214 -0.0137652 -3.76254e-23)
(1.29444 -0.00896349 -3.02862e-21)
(1.00204 -0.0014569 3.88949e-24)
(1.23398 0.018166 1.19755e-21)
(1.03433 0.0630717 3.48226e-20)
(0.978239 0.112559 -6.00182e-20)
(1.13263 -0.187507 1.58647e-21)
(1.24366 -0.0126328 -5.26405e-21)
(0.993381 -0.0151497 -4.86689e-23)
(1.12124 -0.127788 1.41474e-22)
(0.994602 -0.0019503 -1.25811e-24)
(0.962117 0.141546 -6.24503e-20)
(0.919122 0.178989 1.69824e-20)
(1.19427 -0.204711 1.38664e-21)
(1.15622 -0.203731 1.3189e-21)
(1.11975 -0.198905 4.46189e-21)
(1.03088 -0.0946626 7.75194e-22)
(1.00185 0.201888 4.11521e-21)
(1.03481 -0.0869698 4.7713e-22)
(1.10091 -0.162911 7.30505e-22)
(1.06035 -0.178549 -1.04199e-21)
(1.11714 -0.113081 -5.80967e-22)
(0.791197 0.0853737 3.39866e-20)
(1.11788 -0.216016 -8.29252e-21)
(1.27683 -0.0807285 8.78656e-24)
(0.966082 0.0380174 1.22279e-20)
(0.994278 -0.000481277 -1.37048e-24)
(1.24535 -0.0442299 1.68237e-21)
(1.03837 -0.0787731 -7.02104e-22)
(1.0628 -0.165512 1.79749e-21)
(0.994997 -0.00120312 -4.0684e-24)
(0.999708 -0.00325484 -1.95354e-23)
(0.792617 0.108852 -5.77038e-20)
(1.11009 0.0657459 2.30395e-20)
(1.18859 -0.211262 4.97962e-21)
(1.30605 -0.109602 -7.21346e-22)
(1.13217 0.112393 -1.21234e-20)
(0.991428 0.113407 -4.75647e-21)
(1.06426 0.11612 9.66891e-21)
(1.22305 -0.151502 -2.47885e-21)
(0.981537 -0.0567612 1.01256e-21)
(0.993342 -0.0486883 -3.59949e-22)
(0.985272 -0.0515144 -9.35192e-23)
(1.0878 0.111832 -3.14631e-20)
(0.966207 -0.00641779 3.63268e-22)
(1.00203 -0.0724762 7.23662e-22)
(0.999621 -5.03496e-05 -1.98448e-24)
(0.968997 -0.0217387 -1.06598e-21)
(0.997429 -0.000713333 -4.75067e-25)
(1.0968 -0.179034 1.64668e-21)
(1.05053 0.199926 -2.12849e-20)
(1.04241 -0.148466 6.78484e-22)
(0.977079 0.179226 2.36079e-21)
(0.993464 0.175808 -5.56926e-20)
(0.964179 -0.0466213 -9.25871e-23)