/*--------------------------------*- C++ -*----------------------------------*\
  =========                 |
  \\      /  F ield         | OpenFOAM: The Open Source CFD Toolbox
   \\    /   O peration     | Website:  https://openfoam.org
    \\  /    A nd           | Version:  7
     \\/     M anipulation  |
\*---------------------------------------------------------------------------*/
FoamFile
{
    version     2.0;
    format      ascii;
    class       volScalarField;
    location    "0.4";
    object      p;
}
// * * * * * * * * * * * * * * * * * * * * * * * * * * * * * * * * * * * * * //

dimensions      [0 2 -2 0 0 0 0];

internalField   nonuniform List<scalar> 
117990
(
0.271519
-0.000261078
-0.337601
-0.0856777
0.0407734
-0.023298
4.18785
-0.000641029
-0.00816823
-0.000273779
-0.00762349
0.00441618
-0.0348415
-1.50767
-0.00810764
-1.3752
-0.00374778
-0.0102521
4.56319
0.0421633
0.0580727
-0.136883
-0.011617
-0.132299
5.39806
2.26468
2.66158
0.526025
-0.000680454
4.72995
-0.00408286
1.82692
0.162637
-0.332757
5.47826
-0.048886
4.23807
-0.00370844
1.06551
3.20708
1.84709
-0.0103031
-0.443407
-0.0487252
-0.922112
-1.50144
0.117456
0.145332
-0.00416231
0.00425983
1.10589e-05
-0.0875291
1.90484
-0.000149157
-0.0530602
1.91928
1.56489
-0.922271
2.55209
-0.27379
-0.00202701
-0.134047
-0.021373
-0.424851
-0.00204125
0.0252783
-0.029968
1.31857
2.9706
1.46581
3.74747
3.11427
3.18378
-0.908534
-0.0418213
-0.636684
1.66588
-0.0187052
4.30979
1.78011
1.80566
-0.00176131
-1.25233
0.510665
-0.0867232
0.00423707
-0.445625
-0.000349522
-0.69261
-0.000241446
1.59521
-0.267346
-0.000691931
-0.0365944
-0.0123022
0.00914261
-0.0111929
-1.23481
0.941933
-0.689161
-0.00207119
0.654896
0.0362825
0.0663328
3.73333
-0.481565
3.35476
-0.884268
-0.247308
-0.000445163
1.98003
-0.0111144
1.6961
-0.162471
6.28952
-0.0327226
-0.00764907
3.63782
0.000818535
3.08413
3.66766
-1.3885
-0.328909
2.24685
-6.83854e-05
4.71282
-0.132859
5.68842
-0.0468347
0.970168
0.358295
0.00641454
3.64991
0.00423184
0.00081212
4.64743
5.28989
0.159805
-0.0504528
-0.132366
4.25453
-0.0244682
0.0017058
2.02367
0.385804
1.50243e-05
0.249003
-0.135041
1.32657
0.0205082
-0.48883
-0.932457
-0.265676
-4.56548e-05
-0.0863591
0.196617
-0.000441433
1.41879
-0.600624
-0.737652
-0.630782
0.244849
-0.0210002
-0.43069
-0.198156
-0.0239666
0.777884
-0.384106
1.42492
-0.217656
-0.256171
0.119511
1.57079
-1.47071
-0.373138
1.21291
-1.46753
-0.0548762
0.165822
-0.00517292
0.350815
-0.0297972
4.69539
2.01672
3.35713
-0.00963033
-0.097188
2.27904
0.596869
1.56388
-0.0531105
-0.0191866
4.66603
-0.552664
2.26347
-0.813136
-1.47607
-0.2433
-0.602907
-0.0937566
2.09631
4.06205
0.41278
-0.000331221
-0.093185
-0.737387
-0.0174922
-0.00195543
0.961869
-0.196513
-1.47285
3.31599
5.37237
-0.000213841
-0.141514
-0.558571
1.21974
0.129731
-1.50782
-0.00411803
-0.621692
-0.488043
-0.00872693
-0.622371
-0.00015237
5.04316
0.0570178
-0.624164
-0.795677
5.02655
0.602744
-0.802595
4.23321
-0.47971
0.36902
2.10805
0.0105907
0.0053302
-0.452821
-0.0893676
1.53512
0.128393
-0.737726
0.920076
-0.0483769
0.0204125
1.58812
-0.664025
-0.377123
-1.28738
4.72973
-0.0335836
1.83601
0.000275058
5.69772
0.360986
1.78056
0.537288
0.00726702
-0.0147619
0.367951
-1.5003
2.03263
0.875958
-0.253837
-0.0838287
2.23604
-0.0459986
1.8534
1.52434
-0.0021012
0.609162
-0.00214921
0.133759
-0.0313269
-0.463555
-0.88919
-0.360545
-0.0643919
-0.871661
-0.424906
-0.0476469
0.000785068
-0.730267
0.000804217
0.283067
5.01515
1.74764
-1.23786
1.0815
-0.897193
-0.000304126
2.4065
3.29058
-0.0026133
0.459839
-0.0341414
1.80541
0.00157213
1.54105
-1.48423
-0.433125
2.12292
-0.150888
-0.68616
1.72418
0.100366
-0.620953
-0.0297179
0.170727
-0.0676094
3.98003
4.10164
-0.445739
-0.0374561
0.0388002
4.66229
0.0195754
-0.128771
2.2869
0.946936
-0.00403358
0.405434
6.26063
1.89045
-0.610255
0.202472
1.71477
-1.49363
2.44023
-0.0675285
-0.000308277
-0.00893482
-0.0335433
6.01729
-0.079571
1.54565
-0.00195797
-0.0238275
-0.0977416
-0.303625
1.64943
2.65756
-0.414054
-0.208236
0.0405514
-0.0663883
5.79911
-0.714553
-0.05149
3.64898
2.37236
0.365514
-0.0654308
-0.104479
0.0449039
0.272606
2.1629e-05
-0.015841
0.531009
2.74663
-0.734965
4.25253
6.06522
1.47677
2.85047e-05
-0.316754
-0.405542
-0.00581993
-1.47633e-05
0.164232
3.76068
-0.656286
-0.015821
1.98349
0.0983835
0.0342808
0.00418396
-0.0317478
0.574166
-0.808696
-0.220404
-0.17415
0.524216
0.285839
-0.0037445
4.20162
-1.3271
0.0423918
-0.00609925
1.78362
2.91048
-0.451273
0.527391
-0.482191
-0.0446216
-0.0461917
0.0143772
-0.00281301
-0.433083
-0.655063
-0.0456015
4.67037
3.13209
0.450535
0.845586
0.00082443
-0.13211
1.12661
-0.163713
-0.157363
-0.0685915
0.0430285
-0.0805313
-0.0873772
-0.065324
0.000397918
-0.520445
0.0014016
0.278272
-9.15953e-06
-1.48142
0.00607685
4.49192
4.09007
2.55504
0.847604
2.69991
1.54751
-0.0422953
0.0411585
-0.00522522
-0.111446
-0.611195
-0.148336
-0.13637
0.321809
0.00594487
-0.00467362
0.00381964
-0.0196658
0.985368
0.271524
-0.437223
0.000659998
0.31753
0.0196235
-0.00408555
2.88733
1.20616
3.5002
0.001465
0.00158012
0.0436804
-0.377807
-0.12115
-0.317875
-0.656757
2.40753
-0.192195
4.65187
0.02035
0.0411089
3.83958
3.95258
0.0460314
0.0649246
-1.46212
-0.193873
0.00146066
0.276903
-1.31465
-0.455728
-0.916508
0.31163
1.87232
-2.74828e-05
0.0662769
0.648621
0.918893
4.68407
-2.35609e-05
-0.00193251
0.0444939
-0.451356
-0.0156396
-0.00270644
1.44928
5.62354
1.57524
3.33086
-0.443141
4.81682
1.99782
-0.0790669
0.135189
-1.28852
-0.15458
0.00464942
-0.0813102
-0.0351886
4.34434
-0.467652
4.30612
0.103605
2.53329
-0.435271
-0.299527
1.54809
2.13166
-0.0638673
3.40598e-05
-0.000830832
-0.000658141
0.237998
-0.904045
0.00570122
1.0372
-0.00765721
-0.00765453
0.0517109
0.127438
0.0172891
0.0199027
-0.503333
-0.0975128
-0.110993
4.50569
0.91391
0.207015
-0.257893
-0.715962
-0.00073741
0.0007467
-1.57245e-06
-0.83116
-1.28369
-0.668289
0.000711327
-0.333856
1.65323
2.96697
1.44999
-0.00172735
-0.608072
-0.0879337
0.00290025
-0.00203238
-0.653693
0.0433551
0.0106637
-0.439204
0.0108833
-1.0933
-0.505964
-0.441965
-0.409078
0.0242838
-0.833247
0.0067164
0.00076616
0.118899
4.12626
5.01629
2.83575
0.25866
-0.264343
3.03518
0.346329
0.00582847
0.816622
-0.333516
1.84329
-0.0804903
1.17689
0.0252527
2.81795
0.0137762
-0.123252
-0.430125
3.2382
0.00706191
-0.448542
-0.303706
2.40568
-0.319702
-0.123985
1.07396
0.00199205
0.479095
-0.10154
0.467529
-0.371841
0.0678472
3.7217
3.15693
5.01023
2.70546
3.24159
1.48418
4.2638
0.354185
3.44772
3.52207
0.00816875
-0.0333013
4.98792
0.000991502
0.907718
3.09189
-0.425291
0.0242096
0.921496
-0.0340268
0.0425538
4.52491
5.45208
-0.0044978
0.00690951
1.02431
0.00203294
2.1467
3.93225
2.39412
-0.0019302
-0.515205
-0.408544
0.0147542
0.173869
1.57035
5.38683
0.00106935
-2.78058e-05
3.42165
0.169543
-0.00453032
0.876567
0.139364
-0.0793813
-0.0576946
1.21701
-0.368375
-0.0335611
-0.647891
0.0071727
-0.00377463
-0.0288072
1.90676
-0.00671159
-0.502157
0.0187751
-0.308534
3.26236
-0.00292469
6.21
0.493788
4.82202
1.88069
-0.0141291
-0.000745682
-0.0114531
-0.119053
1.92948
-0.029227
-0.319522
4.62195
-1.26524
-1.27355
0.596526
0.957651
4.52576
-0.0134734
-0.442706
-0.431958
0.0055158
0.152255
0.0191283
0.243319
-0.847305
5.79556
-1.12266
-0.0521471
-0.459137
0.0511283
1.66156
1.48201
-0.0441823
8.84511e-05
3.29998
-0.305771
-1.4896
-0.0366075
0.474146
-0.615313
0.121659
2.30941
-0.0238063
4.15961
-0.0618428
1.6271
-0.895989
0.63721
-0.000351832
-0.612802
-0.504317
-0.456787
0.862603
-0.465089
0.00741008
-1.05136
-0.0359562
-0.000334284
-0.0271441
0.00621819
5.41511
0.00565842
4.47001
-0.469631
0.609896
0.0728088
2.15967
0.0958253
2.38958
-7.37411e-06
-0.00206012
-0.03189
0.0412705
-0.584179
0.000900008
2.22837
5.42941
3.0925
0.00586188
0.597379
1.92455
4.67045
0.000135221
-0.00812999
1.01482
0.00458925
5.06203
-0.0772228
3.83319
2.74524
0.00443092
-1.23398
2.63314
-0.00376625
1.22054
4.9332
-0.0581959
0.0321937
0.0100622
0.12766
-0.42954
-0.150422
4.256
-0.153254
5.91919
6.45719
-0.0719225
0.00125261
4.28869
-0.0801174
-0.372706
0.00643659
2.48042
-0.889624
5.66137
-0.0304526
-0.00108892
-0.305417
2.78895
-0.504964
1.51419
0.760047
1.96804
-0.00563439
1.83822
0.000624166
0.0393729
-3.09318e-05
0.482092
0.0639681
2.86452
-0.000676154
4.99782
-0.0115096
0.164062
-0.0164611
-1.32706
-0.253525
2.11739
-0.00443256
-0.181072
0.195692
-0.268167
-0.000464735
-0.00173136
-0.0069473
-0.736729
0.0396674
-0.0292872
-0.663585
0.00254818
0.00768334
0.0629313
-0.0139516
3.02183
1.47276
2.46616
-0.547774
-0.416766
-4.35074e-05
1.08457
-0.857953
0.00942278
-0.664097
-0.0345045
-0.755662
0.196148
0.0133573
0.133406
-0.000322768
-0.124643
-0.010897
3.3087
-0.182387
0.00384375
-0.00518187
0.658238
-0.929224
-0.0791644
-0.000338954
4.28224
4.03261
0.0428347
3.4072
0.295149
-1.28661
0.00138914
-7.27283e-05
4.09775
-0.737691
0.00271308
2.82942
-0.0239512
-0.000231886
1.6283
-0.87505
-1.11149
-1.36738
-0.380796
-0.157998
-0.369393
0.00993049
2.83996
-0.00554036
-0.471286
1.58847
-0.00308517
0.293115
0.0984395
2.42284
0.0271589
-0.169134
4.98009
0.978807
-0.0471288
-0.433181
3.59027
1.95495
-0.277521
-0.457667
3.90988
-0.0320675
-0.00958807
-0.99072
-0.207083
-0.264679
6.00421
-0.151941
-0.00022403
1.03438
0.0655544
0.151615
2.38431
-1.08946
2.31982
-0.0518145
2.48789
-0.442887
1.60708
-0.0580656
1.99508
1.63799
-0.589705
1.82887
3.5517
-0.010893
1.81694
5.4041
-0.972158
0.00981962
-0.0595905
2.21671
0.309131
0.647186
3.55454
-0.0791177
-0.0432876
-0.130155
-0.0944907
3.08181
1.67413
0.00764553
4.50848
5.77949
-0.749062
-0.0490515
2.54404
-0.903864
-0.471416
3.16274
4.46533
-0.0524943
-0.70667
-0.895728
-0.0206484
2.36286
-1.35273
-0.0695305
2.02181
0.00597018
2.40072
1.39323
2.19779
3.08284
0.510229
4.277
-0.0347402
-0.0196423
0.267224
-0.00509693
-0.480942
0.300273
-0.596388
0.0518341
-0.100124
-0.293993
1.37294
-1.06351
-0.00967515
-0.220692
-1.49925
3.23045
-0.998606
-1.10482
-0.213615
0.0391521
2.84321
0.476853
-0.0004145
-0.0612278
0.0711755
-0.274908
-0.410998
-0.0455291
1.87057
0.703001
0.842894
-0.827143
3.14575
0.876133
0.0378376
0.0748657
-0.0936502
6.16862
-0.450667
3.39571e-05
-0.0687085
-0.0102762
4.48393
-0.292001
-4.99641e-05
-0.145795
-0.00780401
0.222084
2.02184
2.36378
1.07492
-0.372386
0.0248084
4.86893
-0.561689
1.69644
-0.125437
-1.11254
0.24604
0.0773954
-0.0044387
-0.266304
-0.00694045
0.198967
-0.0288701
-0.552837
-0.000988688
3.40171
0.00081408
-0.062902
0.00222789
2.09244
-0.476524
4.33238
0.941658
2.17715
1.56769
0.0331618
4.32559
-0.788978
-0.431579
6.50016
-0.0155225
-0.193608
1.19556
0.7458
0.000835125
0.290905
0.142902
-0.45919
-0.585458
4.93762
0.0653093
1.12405
2.01583
-0.527648
0.0968421
0.0420146
-4.46936e-05
-0.00401924
-0.0451072
1.03093
-0.0121778
-0.0703591
-0.0187477
4.58606
4.7202
0.888177
0.00020843
0.219169
0.993553
2.78222
-2.17592e-06
1.04992
-0.796411
0.00122569
-0.10973
0.912652
-0.664436
0.00835272
-1.26489
6.00801
0.119587
0.00621301
-1.36732
0.757536
0.0105312
0.00159209
1.15192
-0.0476957
-0.632198
-0.000491748
-0.207889
-0.809294
5.76777
-0.156074
0.159438
-0.451228
-0.00727444
2.1835
-0.0106881
0.550311
2.18898
-0.00164096
0.740417
0.0458663
5.60604
6.52115
0.303639
5.27469
4.98196
1.81585
2.51875
0.00424006
-0.295669
-1.03848
-0.0467036
-0.00445031
0.266687
-0.018853
-0.00122259
-0.259109
-0.0173754
-0.409426
-0.861131
0.000573194
-0.00612352
1.59028
0.000590397
-0.000713299
2.04697
1.55955
-0.0817465
-0.0277068
-1.35298
0.311218
3.57216
-0.0471577
0.0988256
2.37414
1.74011
-0.8017
0.0849431
0.014172
-0.00300297
-0.588921
4.15851
0.734637
-0.000663797
1.26435
0.000297417
-0.00309833
2.19727
0.0145237
5.70464
-0.0452315
3.49405
0.00631141
0.0966452
0.0318675
-0.00710234
2.33557
-0.0219317
0.0384462
5.44578
4.97322
6.18541
-0.0555955
-0.0428663
3.14261
0.000205626
-0.840323
-0.107938
3.48491
4.42942
0.0864255
2.66997
0.00138321
1.78965
0.0383801
-0.168206
0.145658
-0.00761982
-0.0960718
0.15915
-0.0829839
3.71972
2.06791
0.054948
2.32961
-0.625703
1.05189
-0.156356
0.897744
-0.472038
6.19352
4.62768
1.12713
-0.43205
0.000659379
0.00211045
-0.581385
-0.819453
-0.0899057
1.69326
3.36905
2.32608
2.83963
-0.00921237
0.247987
-0.126735
2.96105
-1.45539
-0.00160291
2.58458
-0.00392092
0.000947779
-0.000688211
-1.68145e-05
-1.73186e-05
2.92837
0.0795153
-0.360955
0.0197666
-0.258259
-0.932554
4.68822
0.0573463
-0.0194136
-0.0713454
-0.000689453
-0.0167236
-1.21183
0.815295
2.27357
-0.135303
2.02501
-0.42101
0.224642
0.636351
0.014184
5.4223
0.00106563
-0.0737125
-0.0157155
-0.437907
-0.209105
3.53056
-0.0806059
0.000502003
0.29694
-0.103751
3.16122
-0.00193196
0.00213581
0.00141911
-0.628743
0.197686
-0.520929
-1.39239
1.70152
4.54458
-0.0477208
0.00299799
0.0910516
-0.0335395
2.15108
-0.830386
-0.0838789
0.74069
0.677007
0.0151129
0.332742
-0.0664869
0.069792
-0.925743
0.001191
1.00331
3.38904
4.39615
2.96384
-0.00718279
-0.0361038
0.00100572
-0.712863
-0.717101
2.89571
-0.180507
-1.00705
-0.667837
-0.479075
0.109542
-0.178904
-0.642603
-0.962379
0.000780736
1.6067
-0.0166348
4.21486
1.07124
1.00304
0.000180145
0.0168845
0.406758
0.00035102
2.14188
-0.192238
-1.13484
-1.16397
1.06223
4.4401
-0.132636
-0.667663
2.13795
0.465496
-0.0300143
0.859586
6.2314
0.0419429
1.4416
1.59079
0.177327
-0.624141
-0.0600197
4.4008
0.00147342
2.19532
4.69911
-0.000351177
-0.292613
0.00150104
1.8102
-0.261495
0.222605
-0.133892
0.181728
-0.622052
0.00413103
0.0745858
-0.295279
0.220772
-0.0514952
-0.000361901
-0.0528113
-0.669016
-1.31437
-0.0501597
-0.00180435
0.402162
-0.0299025
0.0197058
0.64823
2.86308
-0.403948
-0.0168351
2.88813
-2.1614e-05
0.00784092
-0.683959
0.000422308
0.0038058
-0.046276
3.68523
0.075977
-0.157091
-0.0556302
0.464437
0.000552729
-0.0113733
0.00147387
1.69922
-0.0305667
-0.0783299
0.459735
-3.8491e-05
0.00749542
-0.00326939
2.90616
-0.0308309
-0.123183
-0.00205213
2.7106
3.01917
-0.0471669
-0.982205
-0.0021189
-0.000282403
0.261281
0.00555326
-0.00450877
4.39044
0.152467
-0.0550418
-1.39287
0.00361363
0.0147075
-0.175552
-0.00582704
-0.0249884
5.33597
-0.00645278
0.275242
3.87743
-0.00460392
-0.657554
-0.0135939
-0.355767
-0.88012
0.649296
-0.164825
-0.0134668
-0.120492
1.49871
-0.0419352
0.165952
0.0212232
-0.0205779
-0.00202942
-0.00636077
0.702494
-0.518802
1.73092
0.0698279
-0.293192
6.13391
2.00484
-0.996524
-0.00610393
-0.460312
-0.695104
0.925164
-0.913896
0.24683
1.81728
1.8051
-0.303114
-0.902705
4.64582
-0.0501302
0.00382231
-1.38768
-1.487
0.35404
0.154885
-0.4682
-0.0325717
0.998213
-0.557945
4.11416
-0.444699
4.1827
-0.872073
-0.0171328
0.0868236
0.00296173
0.000912762
-0.0019966
3.21887
-0.00103071
-0.625702
0.0301103
0.267683
-0.873366
-0.0104709
0.0203797
-0.651306
-0.00408418
2.94097
0.163007
-0.0254004
-0.629323
2.17122
-1.11731e-05
0.983328
0.0156652
4.17211
1.78851
-0.890351
-0.652328
-0.0251626
-0.0184891
2.23487
2.88654
2.87803
-0.107993
-0.66321
4.09718
2.15478
0.207013
-5.93931e-05
1.99966
0.424512
0.0178397
1.14798
4.77827
-0.418829
0.0150054
5.90119
-0.00380098
-0.0138578
1.66029
3.07743
2.13282
2.0504
4.91648
4.50848
-0.00647887
-0.0160639
-0.0278029
-0.0247822
1.94924
-0.625074
4.54789
0.338937
-0.157938
-0.30039
0.287733
0.0116839
0.0204878
-0.0157954
-0.805842
-0.00344817
0.841966
0.000214636
0.000807476
0.00231499
-0.00303233
0.0142181
2.19364
0.363572
2.18358
1.04363
5.97192
-0.877597
-0.003681
-0.0496673
0.193039
-0.0246507
-0.0041662
-0.290778
-0.0189678
-0.0152118
-0.14367
0.765205
-0.000515812
0.877821
0.230103
0.0151062
-0.0085249
0.073081
0.860983
-0.693757
1.98442
2.26596
-0.264078
0.533577
-0.730494
-0.0306483
0.00022781
0.00141567
-0.0825229
2.35511
2.43391
-0.12372
-0.201058
0.331037
-0.0124769
4.53256
-0.245822
2.30814
0.0152127
-0.0156928
0.00042757
0.666871
-1.42675
4.6061
4.86444
2.00944
-0.29378
-0.616295
-0.00101685
0.000404915
-0.180918
1.04343
2.77588
-1.26292
-0.751953
-0.560537
3.05297
2.85419
-1.07179
3.34591e-05
3.57554
2.4813
0.46781
-0.000588795
-0.183152
-0.0946257
2.86098
2.76499
0.219606
0.544525
6.05689
-0.258203
-0.000553446
-0.000374988
0.857564
-0.287538
1.49763
0.000216947
-1.15013
0.0605605
0.00164199
5.07866
-0.0212384
1.51439
-0.197395
0.0157024
1.01658
-1.11509
4.38139
-0.431117
-0.265361
5.33797
0.0143001
0.535282
2.81311
4.52016
-0.0302624
2.20162
-1.10756e-05
0.0103669
2.37791
-0.200414
0.971221
0.965475
0.00469946
2.79351
-1.06872
-0.000211396
-1.26959
-0.0364848
-0.142053
-0.00674234
-0.0017993
-0.800067
2.30614
0.0158186
-0.0460183
0.0439963
2.16191
4.43172
0.00287582
-0.0514397
-0.011955
-0.709696
-0.0074905
0.000671048
-0.000723867
4.72613
0.10327
0.0197923
-0.0202249
-0.619689
-1.25508
4.52418
4.20981
3.02381
-0.000170346
1.12928
-0.80282
-0.146647
-0.854594
-0.0310215
2.4612
-0.354838
0.210623
-0.0189544
0.938866
-1.24611
0.813224
3.49261e-05
1.63142
-0.00156787
-0.00936494
3.52462
-0.0377997
-0.626742
5.98539
-0.16896
0.0298702
-0.0625045
2.16988
3.10557
4.41221
3.34188
-1.27276
-0.0520266
-0.0201005
0.497169
-0.530574
0.0608234
-0.00231351
1.25728
0.0404686
-0.493554
-0.199902
-0.000208302
2.62454
0.445953
4.76283
1.9946
-0.000256969
1.99273
0.0159199
-1.21538
-1.27494
-0.221126
4.3472
-0.0138867
-0.80317
1.53724
-0.0120413
0.00252476
-0.625063
1.88615
-0.579262
-0.723582
1.80106
0.567571
-6.40425e-05
0.000371518
1.62716
0.250539
-0.597999
-0.020107
4.1012
-0.00446825
-3.99079e-05
-0.0217313
0.0679222
-0.196248
-0.000413197
-0.527744
2.04315
2.14587
-0.0547569
4.46236
-0.365647
2.1708
-0.207561
0.225435
0.00156939
0.887531
1.57578
1.07137
5.60678
2.59013
-0.173756
0.101822
3.08359
-0.19637
3.90312
3.33451e-05
3.18053
4.04341
4.89137
0.0039377
-0.000384883
4.45385
4.82649
1.9573
0.000849365
-0.0716294
1.4894
-0.0724599
-0.03248
1.03423
0.517778
0.220998
4.21874
-0.0505775
-0.784611
-0.0418052
1.37875
-0.0340636
4.66535
1.81886
2.08233
-0.0217074
2.30766
-0.20223
0.430121
-0.726189
0.0047116
-0.623322
0.455257
0.0433343
-0.0627834
-0.839504
-0.145361
-0.000324811
-0.539777
-0.0776571
0.00622959
0.227697
-0.0428949
-0.0756435
0.706476
-0.00332114
1.8364
-1.02898
4.15524
-0.00621598
5.91246
-0.000770854
-0.160069
0.155676
-0.00140254
-0.11898
-0.032182
-1.28427
2.59952
-0.365393
1.22734
-0.83055
3.64182
-0.00075382
-0.9826
0.785996
1.53634
-0.000342735
6.03228
0.156942
0.560418
-0.0916485
-0.0242868
-0.00174896
4.18235
-0.134306
2.13647
0.00409858
-1.03486
-0.0301923
-0.00017994
3.80873
-0.00208281
2.42259
5.39044
4.34596
-0.181473
2.2376
3.05436
3.41014
4.17976
2.87503
4.97877
-0.000346034
-0.555926
2.56408
-0.0136642
4.35817
-0.827736
-0.000224145
-0.00834114
-0.652561
5.97342
1.52321
0.143845
1.66113
-0.00687677
0.000392078
0.201196
-0.553197
0.205325
3.25196
5.67951
-0.333143
4.24507
-0.786911
0.715721
4.49415
0.00349122
3.59131
-0.114756
0.841593
0.0382926
-0.594749
-0.205633
0.0859263
-0.000319526
-0.228525
-0.000602313
2.40374
5.88229
1.71752
0.0186553
0.0904052
-0.706633
-0.00178136
0.140941
-0.594277
0.147847
-0.313702
-0.507424
-0.0168125
0.0271977
0.899144
0.00355152
-0.679838
-0.00147407
1.89897
-0.0320545
-0.695288
0.00342552
-0.131252
-0.61481
-0.255662
1.92378
0.0170846
1.17247
-0.617426
-1.38867
-0.00469751
0.828874
0.900588
0.511103
4.19095
-0.153999
-1.41803
0.220907
-0.0755099
0.216202
0.001515
-0.56302
-0.425435
-0.0880679
-0.00454358
-0.0224738
1.76933
-1.79175e-05
-0.0140947
0.00192063
-0.000769328
-0.0512668
4.55009
6.26422
-0.0110732
0.191383
-0.000768095
-0.907414
0.0927837
-0.214664
0.735431
-0.0425844
2.00018
0.0864306
-0.0273224
-0.00452078
-0.134007
0.238357
-0.00851732
3.66086
-0.0379392
5.83421
-0.405426
-0.000415199
1.74361
-0.0215395
-0.533744
2.34821
-0.0771702
-0.372385
5.56491
-0.79962
0.105695
0.478825
0.956416
-0.151666
2.52799
-0.00151053
-0.544394
0.0171978
4.62118
0.146168
-0.606031
0.750744
-0.15655
2.07209
0.474634
0.388165
2.18935
0.0300632
-1.24954
-0.15581
-0.0467875
-0.0147792
0.211342
-0.829356
-0.0321647
0.453602
0.160694
0.0194674
-0.568808
-0.00961068
-0.0131199
-0.0431078
-0.00204605
-1.30109
0.0279158
2.01328
0.000428417
-0.0151839
0.00157073
5.53421
-0.00209485
-1.02486
2.87753
2.21305
0.00780356
-0.0612941
0.0757931
0.0476153
-0.313437
-0.815096
-0.634736
-0.398318
-0.123102
-0.0116716
2.04397
0.639798
-0.167915
-0.0293198
-0.220456
-0.803009
-0.00491218
-0.132911
0.940497
5.56459
4.71202
-0.0843952
2.3618
-0.211209
-0.0151046
-0.0079255
-0.43802
-3.302e-05
0.0053405
-0.477834
-0.000242088
0.00085285
-0.805523
0.304245
-0.444291
0.892986
0.00104104
-0.816404
0.404732
-0.327224
0.00342506
-0.780397
-0.0135377
3.14164
-0.01667
-0.855212
-0.000184609
-0.0228016
-0.640112
-0.44339
0.0455518
-0.522488
0.00283818
3.12201
-0.253728
-0.550017
-0.869014
0.121546
1.93747
5.98503
0.238818
1.94633
0.00831886
0.00109407
-0.00573917
-0.439689
-0.0014921
-0.0312514
3.84515
5.27156
5.67792
-0.0200257
4.34562
-0.124694
0.0176149
0.251498
2.49888
0.270252
0.000814793
1.66171
0.427532
-1.29737
-1.42791
-1.47796
-0.493123
-0.000298785
0.0219213
-0.166189
3.24716
-0.713222
1.427
-0.662433
5.67097
0.182051
2.14172
-0.00154507
-0.641864
-0.0736056
0.00053266
0.0246101
1.53712
-0.080725
-1.42983
0.267837
0.840636
4.4097
-0.157937
-1.33414e-05
-0.0025776
-0.483967
0.824803
-0.44475
-0.209682
0.0307718
0.0120338
2.02205
-0.0015637
0.446414
-0.020575
-0.130724
-0.0573379
-0.0822536
3.43325
0.237394
0.13978
0.600756
6.47448
-0.848736
3.01085
3.11213
-0.924189
-0.587989
0.123572
-0.935368
0.374197
2.03719
-0.231771
0.00152632
-0.138468
-2.64973e-05
-1.26998
-0.0608293
-0.0449526
-0.146815
4.32539
-0.00743525
-0.000641413
3.55375
-0.964226
0.000142092
0.00021295
0.0287293
-0.0789948
-0.00333402
-0.791049
-0.00339506
-0.597028
-0.602468
3.06409
-0.0390158
4.11208
-0.587289
0.00391235
-0.0202733
3.55714
-0.155918
0.32879
0.00149539
-0.40687
-0.410159
0.000342953
0.495796
-0.508067
0.0934307
4.46011
-0.00167756
-0.9434
-0.0223179
-0.00081663
-0.0112929
-0.0926466
2.70844
0.0983917
-7.06398e-05
3.13865
-0.248491
-0.0127812
0.996536
-0.0288787
0.810769
-0.593666
-0.00567371
-0.0413265
1.84423
-0.576676
0.00124278
-1.12434
-0.558074
0.613204
-0.192086
0.284488
4.55553
-0.128614
1.64959
2.02773
-0.0136905
0.0178429
3.37464
9.53686e-05
6.45293
0.00075762
-6.17697e-06
2.18947
2.66935
-0.381151
1.47387
-0.754792
0.806262
-0.122011
0.241228
-3.21859e-05
-0.157438
1.67301
-0.505369
-0.226867
-0.0604269
-0.942976
-0.0956235
-0.0640355
-0.00483734
0.934185
5.47175
-0.684054
-2.17738e-05
-0.00337864
0.034315
-0.0379536
-1.14496
2.18918
-1.03201
-0.503332
0.0277053
1.4786
5.46593
0.000956956
0.958388
0.145895
-0.937081
0.0413478
1.22434
-0.0597345
-0.0223402
-0.1656
-0.00365541
-0.00174391
1.57094
-0.0409201
4.11266
-0.00138379
0.951422
-0.207021
-0.299424
-0.472137
0.480434
-1.43907
0.296039
-0.000351979
2.05633
-0.634314
0.210005
1.66844
-1.03976
-0.214007
-0.476021
0.685958
1.81299
-0.892429
2.13515
0.0454308
-0.365629
0.00272163
2.14987
0.392971
-0.00737998
-0.000345634
2.01071
-0.0237518
1.12222
4.13956
-0.704486
-0.00119749
-0.462181
4.60684
1.69758
-0.127022
2.16836
3.43491
0.868727
0.00634492
-0.0436025
0.476378
2.66531
-0.485151
0.0345942
-0.0223731
0.00142831
-0.683578
1.8332
0.953631
2.86669
-0.419584
1.00084
-0.435388
-0.220809
0.234124
4.5998
0.633283
-1.13165
-0.0284147
-0.00037893
0.222116
-0.618082
0.0423902
-0.00654762
1.94613
2.85952
-0.657048
1.75029
0.155445
4.78319
-0.0327082
2.39653
1.1078
-0.00555914
-0.000548895
0.703073
-0.627793
-0.0223408
-0.261282
3.05481
3.49309
-0.357518
4.45912
2.77928
-0.615844
-0.532474
-0.411116
-0.0837802
2.11314
-0.695052
-0.00825654
-6.4398e-05
-0.0197005
-0.433891
-0.114121
-0.458883
0.666661
2.26666
-0.0265503
4.8483
0.0243524
3.13172
5.93099
2.42349
1.04382
-0.000268628
-0.595138
0.0372772
-0.168419
4.70514
1.86807
1.99842
5.54803
0.14783
0.767339
-0.470935
0.000574837
4.52742
-0.102426
-0.0150195
-0.464074
0.21198
0.000201451
0.538189
1.95807
2.27931e-05
5.88822
1.28066
-0.0101472
-0.00657606
-0.0286223
3.86589
2.061
-3.37301e-05
-0.0296035
0.00135508
-0.00547919
0.0339541
-0.029136
-0.157441
-0.0792896
-0.0454745
-0.168987
-0.0118714
-0.0100178
0.61525
-0.000212629
-0.000221583
1.07115
-0.00823732
0.27734
3.87705
0.491029
-0.0129527
-0.159546
-1.35364e-05
0.0857737
-0.614591
0.59479
-0.647217
-0.00907199
3.19872
1.97131
2.38424
0.310185
0.434669
-0.376064
-0.000250048
0.000741773
0.222025
-0.190953
0.00450283
-0.167094
0.229553
-0.000610822
6.04172
1.90174
-0.0265319
-0.929935
3.98792
-0.465122
-0.172604
-0.000752346
-0.605754
-0.293884
-4.78479e-05
1.24363
-0.000759211
-0.0260979
-0.733402
-1.42497
-0.112651
-0.113063
-0.000214206
-0.845769
0.0402129
2.42456
-0.631033
-0.00340756
-0.119947
-0.0207609
-1.00608
0.907579
1.13505
-0.172056
-1.22535
1.90539
0.0234352
-0.0011679
-0.0620144
-0.287297
2.14788
5.03172
0.264597
6.30185
0.00599521
-0.752079
-1.39216
4.3776
4.33565
-0.216892
-0.0338958
-0.306175
-0.000630327
5.25495
3.88995
1.45753
-0.77293
1.88868
1.73913
5.23874
2.76918
3.53978
-0.895429
1.47154
3.32893
-1.29989
-0.031968
2.63466
0.508837
0.0146755
-0.357958
-0.00584494
0.135572
0.0345131
0.045292
-0.138739
0.000565777
-0.599801
0.518521
-0.892872
-0.000561832
-0.0925157
-0.00180296
0.000267615
2.15417
-1.01895
-0.261759
-0.0107977
0.278847
-0.000312175
-0.00369405
-0.0124762
-0.00797345
1.40906
-0.94904
0.0103074
2.00057
-0.0418493
-0.864733
0.878377
-0.0995635
-0.0302394
-0.000198783
0.390097
-0.789083
-0.0432517
0.00032067
0.0862922
0.0510819
-0.466896
0.816359
0.00883809
-0.603604
5.90405
0.0183035
0.024261
1.6446
-0.0123939
-0.0232411
-0.00111044
-5.58798e-05
-0.00384892
0.532691
-1.00815
4.70292
6.07182
-0.00970061
-0.00212112
-0.00839965
-0.429304
6.49216
3.11895
-1.32837
-0.79139
-0.00174057
0.0163074
-0.0599559
-0.0186488
0.2504
0.242097
2.21326
1.09104
0.0352219
5.63936
0.941603
0.00897509
-0.0296433
1.08582
-0.41915
-0.699256
-1.39743
-0.158471
3.68618
4.5555
1.98298
3.40407
2.41028
-1.00609
-0.170165
0.0988803
3.18412
-0.642053
0.00700284
-0.000339026
-0.164337
-1.05816
-0.0173382
-0.135108
-0.853957
-0.987003
4.43213
-0.0424449
-0.584196
0.00383015
-0.344745
3.45065
0.498342
0.108656
0.251333
-0.285324
0.149668
-0.233579
-0.644899
-0.101715
-0.982795
3.05342
-0.66994
-0.314899
-0.0936649
3.29351
2.29246
-0.440726
0.313237
-0.000306103
3.41736
1.76762
0.462681
0.0403092
-0.463082
-0.248203
-0.0433731
-1.03834
-0.121867
-0.62549
-0.108875
0.0434556
0.00128993
-0.00660791
0.732663
-0.000368669
-0.208194
-0.711529
-0.538183
-0.00602152
0.000523323
0.00346423
0.0413733
2.08485
0.338101
-0.88838
-0.460384
1.4445
-0.224878
-0.0521151
5.31205
-0.231202
-0.0900635
4.4776
-0.316661
4.0967
4.98109
-0.207525
2.12459
-0.271332
0.214462
-0.0625789
-0.0468638
0.100241
-0.775707
0.0706766
-0.709453
0.0530924
2.81175
3.01449
-0.655287
-0.00826159
-0.0118876
3.19798
2.5625
-0.151962
3.43381
-0.192906
4.57095
-0.0942323
-0.0788131
1.72723
1.03462
-0.00481003
-0.0295529
2.78655
-0.557569
-0.00182822
5.55118
1.92471
-0.00119993
-1.08314
3.06966
5.45274
-0.102793
-0.595663
0.00648095
0.111882
0.013722
1.20526
-0.903672
0.00344073
-0.301545
-1.01617
0.870179
2.05156
1.20264
2.7405
-0.785661
-0.0522704
-0.676042
0.638239
0.00164603
5.36827
-0.108052
-0.239054
5.20005
-0.6455
-0.899159
-0.0155007
1.62857
0.210742
-0.000374114
-0.203881
-0.00474655
-0.350904
2.93353
2.11552
4.57275
-0.880817
-0.611682
-0.00663422
-0.0323646
-0.0333034
3.53483
1.52086
-0.437068
-0.00435881
2.55367
1.08565
0.00194205
-0.0294604
1.83813
-0.0241669
-0.845033
-0.0197398
-0.162061
0.27743
4.79572
4.69895
5.66646
-0.207375
0.196657
-0.247006
0.248463
-0.00940348
-0.0129805
0.000567101
0.467083
0.00133976
3.20688
-0.34969
-0.294221
-0.869342
-0.0020165
3.31225
-0.0434005
2.7777
-0.00527765
5.38738
0.0414919
0.53684
0.443137
6.27076
2.1042
5.07788
3.17471
-1.41978
1.10647
-0.347593
-0.423307
0.00493716
-0.772047
4.47538
-0.00814291
2.16313
1.74546
-0.00553164
2.39434
0.949979
-0.723436
-0.191976
-0.206685
0.275322
-0.638167
0.618828
0.865082
-0.035336
0.909208
0.62669
0.960949
0.981584
0.542914
0.0956675
-0.00869145
-0.81319
0.835032
-0.572228
-1.63344e-05
-0.262409
5.01388
2.28501
0.143944
-0.609603
-0.826441
-0.00425084
0.921812
1.26725
2.1708
1.95938
0.229989
4.3057
0.000607021
1.04841
2.75964
-0.0222418
0.0289362
0.838007
-0.00795477
-0.00237209
-0.357303
0.000468206
-0.0522152
-0.00705056
-0.867027
-0.69913
-0.701938
-0.00361523
4.2404
-0.176016
-0.120103
4.19542
-0.290941
1.55689
0.21779
3.03841
0.00500509
-0.00368349
-0.0243164
4.35289
4.09598
-1.23573
1.03583
4.45021
-0.295844
0.694073
-0.893169
2.23263
0.717115
0.200763
0.0263298
-0.228583
6.01385
-0.340822
-0.00360153
0.732949
1.62889
5.6209
2.01802
0.928191
2.41279
5.60668
-0.00143538
-0.463618
0.788066
1.68739
0.000461454
3.34451
0.894276
3.53045
-0.241047
4.64082
1.75564
-0.0425754
-0.315898
0.323268
4.47524
0.687756
-0.267916
0.157582
6.11434
-0.82228
1.11387
0.985333
-0.0206502
-0.0196595
-0.0482898
-0.910082
0.00226777
0.124558
-0.687328
-1.09142
-0.407855
0.0168369
-0.121621
-0.060224
2.08174
0.0433952
1.97308
0.00135183
-0.620536
-0.280184
-0.0371772
-0.0020711
1.27309
0.000534059
-0.209458
1.62075
0.535857
-0.198782
4.70316
-0.191464
4.38127
-0.0284558
-0.479391
3.42399
-0.0481466
4.70693
1.65369
-0.000497748
-0.00368689
-0.00192051
1.05202
4.42311
-1.2543
-0.0723722
-0.0674341
0.0296767
0.0660322
-0.000291723
-0.00836794
0.225688
0.163244
-0.452887
-1.09501
-0.211423
2.73323
-0.337132
-0.095726
0.209126
-0.00344533
2.04926
0.389071
-1.2351
-0.893594
-0.188926
3.85068
0.690527
-0.738496
-0.0522797
1.87116
-0.432003
-0.0153268
4.50771
0.014612
-0.381405
-0.0322192
3.76576
1.13443
4.60208
-0.468287
-0.167667
-0.185766
2.50593
3.07534
0.156319
0.0763824
-0.00571773
0.146875
-1.03573
-0.0709835
0.118163
0.164351
-0.000266291
4.1872
-0.0969005
-0.0272752
1.8929
-0.823228
-0.0125851
2.08669
0.000610393
-0.586824
2.13086
-0.792589
-0.364862
1.14788
0.019777
4.19951
0.00132463
-0.817017
0.180538
-0.0805191
-0.243342
0.845146
0.222698
0.0459686
-4.4687e-05
-0.717249
-4.23216e-05
-0.900892
-0.352456
-0.731015
6.30155
-1.00146
-0.0413492
1.39444
2.26768
-0.157725
-0.0368478
0.0912773
-0.00356705
-1.01584e-05
0.956133
2.65681