/*--------------------------------*- C++ -*----------------------------------*\
  =========                 |
  \\      /  F ield         | OpenFOAM: The Open Source CFD Toolbox
   \\    /   O peration     | Website:  https://openfoam.org
    \\  /    A nd           | Version:  7
     \\/     M anipulation  |
\*---------------------------------------------------------------------------*/
FoamFile
{
    version     2.0;
    format      ascii;
    class       volVectorField;
    location    "0.4";
    object      U;
}
// * * * * * * * * * * * * * * * * * * * * * * * * * * * * * * * * * * * * * //

dimensions      [0 1 -1 0 0 0 0];

internalField   nonuniform List<vector> 
117990
(
(1.0145 -0.016718 -3.43171e-21)
(0.999995 -1.1826e-06 -8.5226e-24)
(0.994478 -0.00485274 3.80572e-21)
(0.998594 -0.00156799 -6.45897e-22)
(1.0008 -0.00162728 1.09379e-22)
(0.999649 -0.000570944 2.18004e-22)
(0.998359 0.0270285 -7.30911e-20)
(1.02781 -0.0321372 1.39948e-22)
(0.99989 -0.000169249 -1.20048e-23)
(0.999993 8.74647e-07 1.80957e-24)
(0.99991 -1.18964e-05 7.62786e-23)
(1.00005 -4.90956e-05 2.82634e-23)
(0.999468 -0.0018128 -2.04587e-22)
(0.963508 -0.00255548 -1.905e-20)
(0.999881 -0.000179909 1.1136e-22)
(0.968571 -0.0119281 -3.99439e-20)
(0.999955 -0.000125619 6.62658e-23)
(0.99985 -9.20195e-05 -1.23741e-22)
(0.992974 0.0243521 8.15737e-20)
(1.00081 -0.00157479 4.75191e-22)
(1.03035 -0.0316932 -2.58604e-21)
(0.997756 -7.19497e-05 -3.34666e-22)
(0.999827 -0.000130146 -1.19916e-22)
(0.997863 -0.00215125 -4.22323e-22)
(0.978763 0.00668288 6.91352e-20)
(1.03362 0.0180191 5.43384e-20)
(1.07354 0.0578013 -2.45755e-20)
(1.00648 -0.00156842 1.15351e-20)
(0.999997 -2.65316e-05 1.29541e-23)
(0.993319 0.0438127 -1.07355e-19)
(0.999937 -2.03158e-05 5.01244e-23)
(1.01552 0.00587881 9.46398e-21)
(1.00269 -0.00401022 -3.81725e-22)
(0.994255 -0.0025105 -3.65167e-21)
(0.975521 0.0169011 3.21945e-20)
(0.999251 -0.000450091 1.37401e-21)
(0.99919 0.030651 1.29927e-20)
(0.99996 -0.000125818 -2.8897e-23)
(1.12509 0.00695932 -1.35008e-21)
(1.0061 0.0189988 1.22833e-19)
(1.01636 0.00565435 -1.83047e-20)
(0.999845 -9.58546e-05 -2.31729e-23)
(0.993241 -0.00906553 -7.21994e-21)
(0.999243 -0.000424866 -9.69345e-22)
(0.986784 -0.0259934 -1.17736e-21)
(0.963738 -0.0022726 1.96366e-20)
(1.00226 -0.00524467 2.55543e-21)
(1.00219 -0.000371293 1.05998e-21)
(1.00006 -0.0025612 -1.46357e-23)
(1.00006 -4.33911e-06 -1.3698e-22)
(0.999999 2.89715e-06 -2.95025e-25)
(0.998607 -7.19205e-05 1.08812e-21)
(1.0127 0.00305999 2.85385e-20)
(0.999996 2.75852e-06 -1.40339e-24)
(0.999307 -0.00318043 7.83263e-22)
(1.01233 0.0033265 -7.29049e-21)
(1.01089 -0.000366397 2.02323e-20)
(0.983704 -0.0181833 -4.57883e-21)
(1.0596 0.0423064 4.42081e-20)
(0.995791 -0.00588259 7.6933e-21)
(0.999961 -7.66346e-05 -2.65378e-23)
(0.997827 -0.00226354 3.62568e-22)
(0.999692 -2.27208e-05 -2.15686e-22)
(0.992532 -0.00429406 1.06949e-21)
(0.999979 -2.30076e-05 -4.46184e-23)
(1.00036 -5.52014e-05 -5.03493e-23)
(0.999553 -0.00164695 8.94012e-22)
(1.01334 -0.00115277 1.9249e-20)
(1.06908 0.0696114 6.30864e-20)
(1.01058 0.000478481 8.49461e-21)
(1.00975 0.0346134 4.11119e-20)
(1.04695 0.0538078 -5.63533e-20)
(1.0055 0.0186664 5.42134e-20)
(0.981069 -0.00169518 -3.21289e-21)
(1.01168 -0.0231499 -4.70016e-22)
(0.987885 -0.00422077 -1.60061e-21)
(1.05611 0.0108755 -1.34652e-20)
(0.999698 -0.000932164 -3.61911e-22)
(0.997806 0.0178859 -2.54277e-20)
(1.03946 0.00924346 2.50941e-21)
(1.03962 0.00982009 9.84704e-21)
(0.999974 8.85445e-07 1.35694e-24)
(0.995249 -0.0586335 1.55295e-20)
(1.0067 -0.000726439 -5.14582e-21)
(0.998633 -0.000410291 6.63085e-22)
(1.00005 -4.81592e-05 2.79888e-23)
(0.992553 -0.00680477 -4.86501e-21)
(0.999996 -8.87874e-06 -1.02471e-24)
(0.986657 -0.00450963 -9.21433e-23)
(0.999996 -1.09696e-05 3.51096e-24)
(1.10085 0.0245332 -3.50334e-21)
(0.995484 -0.00238586 2.20526e-21)
(0.999989 -1.67072e-05 -1.65165e-23)
(0.999449 -0.000452317 1.0021e-21)
(0.999802 -0.000124299 -2.00376e-22)
(1.00013 -1.74942e-05 5.30973e-23)
(0.999863 -1.00638e-05 -3.91644e-23)
(0.995522 -0.0581324 1.30007e-21)
(1.07722 -0.00959789 -2.05569e-21)
(0.986738 -0.00437049 -2.74688e-21)
(0.999961 -7.88421e-05 2.85519e-23)
(1.00817 -0.00269077 -1.20084e-20)
(1.00107 -0.00485621 -6.89803e-22)
(1.00107 -2.68755e-05 -5.08413e-24)
(1.00966 0.0343351 2.65456e-20)
(1.00936 -0.0359043 7.33874e-21)
(1.00315 0.0156734 -3.46199e-20)
(0.993443 -0.0354358 1.20399e-20)
(0.998208 -0.0118174 9.85714e-22)
(0.999996 -1.81976e-05 -6.41108e-24)
(1.04309 0.0149815 -2.51548e-20)
(0.999863 -1.73054e-05 1.56259e-23)
(1.05603 0.0116913 8.55036e-21)
(0.998667 -0.00829311 -4.37387e-21)
(0.955781 0.0121581 -1.59274e-20)
(0.999746 -0.00468579 -1.35062e-21)
(0.999911 -9.42781e-06 -1.41573e-22)
(1.01396 0.0365106 -5.20058e-20)
(1 -6.72418e-06 2.65303e-24)
(1.04755 0.053155 3.87897e-20)
(1.01361 0.0369307 7.67013e-20)
(0.968178 -0.0122363 1.67101e-20)
(0.994611 -0.00500999 3.22453e-21)
(1.05649 0.0297922 2.63412e-20)
(0.999997 8.12605e-07 -2.37089e-24)
(0.993535 0.0434984 1.20501e-19)
(0.997881 -0.00237858 -3.88778e-22)
(0.970509 0.0337611 -5.29095e-20)
(0.999315 -2.50507e-05 1.99743e-23)
(1.0104 -0.000172693 -1.40636e-20)
(1.02171 -0.0190367 -4.98069e-22)
(1.00008 -1.49996e-05 4.37784e-23)
(1.01775 0.0428162 -3.63777e-20)
(1.00005 -4.39926e-05 -8.4505e-23)
(1.00001 -6.40469e-06 1.32789e-24)
(0.991433 0.0282784 1.36336e-19)
(0.979552 0.0160089 -1.92794e-20)
(1.00263 -0.00409246 -4.43382e-22)
(0.999349 -0.00324694 -1.11531e-21)
(0.997829 -0.00222737 3.60916e-21)
(1.01574 0.0665882 4.77948e-20)
(1.0002 -0.00449686 -4.52425e-22)
(1.00002 1.91153e-06 -4.87746e-23)
(1.01418 0.00654771 3.74434e-21)
(1.02129 -0.0182961 8.19301e-21)
(0.999994 1.27608e-06 3.17291e-25)
(1.00457 -0.00528375 -6.81947e-24)
(0.997829 -0.00239889 -1.19693e-21)
(1.01302 -0.000828624 -2.94674e-20)
(1.00032 -0.00081442 -3.56387e-22)
(1.00868 -0.0355888 -5.62514e-21)
(0.986479 -0.0260462 9.20916e-21)
(0.995509 -0.00230553 1.41032e-21)
(0.999992 6.87171e-07 7.8406e-25)
(0.998635 -4.6386e-05 6.41458e-22)
(1.00344 -0.0036332 2.69345e-21)
(0.999998 -1.74177e-05 8.12536e-24)
(1.04073 0.00123629 2.9624e-20)
(0.988504 -0.00029857 -1.6329e-22)
(1.01342 -0.0503496 -4.7405e-21)
(0.98805 -0.00434391 8.7366e-21)
(1.00456 -0.00505126 3.17526e-21)
(0.999698 -9.01371e-06 -1.59054e-22)
(1.00248 -0.026198 8.0553e-22)
(0.997594 -0.0070057 -2.30504e-21)
(0.999637 -0.000206896 -6.58221e-22)
(1.01093 -0.00470435 6.43799e-21)
(0.996344 -0.014447 -5.46508e-22)
(1.04157 0.00130868 -4.42068e-20)
(0.997133 -0.00714986 2.83409e-21)
(0.996185 -0.00624338 5.4693e-21)
(1.00226 -0.00503366 -1.43412e-21)
(1.10722 0.0263236 -1.82207e-20)
(0.965235 -0.00975371 -2.98909e-20)
(1.00129 -0.0226145 5.36222e-22)
(1.01139 -0.000966271 -7.63162e-22)
(0.965293 -0.00921057 6.51614e-21)
(0.999144 -0.00107834 7.5068e-22)
(1.00322 -0.00603725 6.44514e-21)
(1.00004 -0.00252802 -6.1803e-23)
(1.00578 -0.00390521 8.39302e-22)
(1.01174 -0.0228726 -2.89576e-22)
(0.991817 0.0250344 -3.73174e-20)
(1.013 0.00630112 1.62857e-20)
(1.00293 0.016478 8.11718e-20)
(0.99986 -0.000326632 -1.49222e-23)
(0.998482 -0.00127141 8.22611e-22)
(1.0002 0.00252022 -1.76047e-20)
(1.01165 -0.00855943 1.54597e-20)
(1.10078 0.0230876 1.67983e-20)
(0.999155 -0.00110135 2.28107e-22)
(1.00013 -0.00425388 3.22589e-22)
(0.996082 0.0136637 -4.92579e-20)
(0.990613 -0.00886381 1.47792e-20)
(1.03307 0.0177573 -7.10994e-20)
(1.00411 -0.0451977 -6.43781e-21)
(0.964984 -0.00898141 -1.93888e-21)
(0.995787 -0.000116648 -3.94132e-21)
(0.989106 -0.0074498 -1.12672e-20)
(1.00394 -0.0157137 -1.02562e-21)
(1.01021 0.00444187 2.12321e-20)
(0.998146 0.020381 4.39126e-20)
(1.00651 -0.00427776 2.45207e-21)
(0.999992 -1.47803e-07 -6.2783e-24)
(0.998446 -0.00106866 6.48162e-23)
(0.986061 -0.0083883 -6.30781e-21)
(0.999717 -0.00035641 -3.31514e-22)
(0.999978 -2.20505e-05 3.44391e-23)
(1.01074 -0.00203285 -3.64226e-21)
(1.01108 -0.0269523 7.66214e-21)
(0.965009 -0.00841263 1.64129e-20)
(1.00356 0.0187717 -2.13861e-20)
(0.979287 0.00677307 -5.02951e-20)
(0.999998 -9.63906e-06 4.352e-25)
(1.00071 -0.0121671 -3.80081e-21)
(0.990513 -0.00899292 -7.35208e-21)
(1.02959 -0.00341243 1.38259e-20)
(1.00256 -0.00507499 3.20925e-21)
(0.963528 -0.00178187 1.14099e-20)
(0.999945 -9.48862e-05 1.38799e-23)
(0.991932 -0.0181124 -3.33321e-22)
(0.991961 -0.00854772 5.28302e-22)
(0.999939 -0.00338927 7.95097e-23)
(0.988043 -0.000435642 5.24369e-21)
(0.999997 1.38697e-06 2.0517e-24)
(0.984146 0.0228469 5.46617e-20)
(1.00251 -0.00771823 -1.13801e-21)
(0.988431 -0.00638714 -1.18923e-20)
(1.00424 -0.0445218 -3.53976e-21)
(0.987681 0.0099015 2.72239e-20)
(1.00793 -0.00193758 -1.17528e-21)
(0.987769 -0.0198557 1.59483e-21)
(1.01507 0.0640072 -3.80364e-20)
(0.993948 -0.0140205 -5.93167e-21)
(1.02296 -0.0193301 -3.76064e-21)
(1.01033 0.00456553 3.22109e-20)
(1.00015 -1.03203e-05 5.75404e-23)
(1.00048 -0.00378276 2.38601e-22)
(0.995229 -0.015288 2.05068e-21)
(0.998605 -9.53349e-05 -1.43358e-21)
(1.08882 0.0171343 -3.78075e-20)
(1.00942 -0.0152251 1.94828e-22)
(1.01395 -0.0509211 6.12223e-21)
(1.07848 -0.0102764 1.31242e-20)
(0.999269 -4.80874e-05 -9.80277e-22)
(1.00028 -0.000961156 -4.6158e-23)
(1.01574 0.00189014 2.43807e-20)
(0.987109 -0.00106024 -1.06241e-20)
(0.996536 -0.0144893 -1.75923e-22)
(0.973136 -0.0200691 -8.56693e-21)
(0.998984 0.0120564 -2.59346e-20)
(0.999468 -0.000549764 -7.4295e-23)
(1.00887 0.00097593 -9.77758e-20)
(0.999973 -0.00114484 -8.41811e-24)
(0.970116 0.0316115 -9.16295e-20)
(1.00586 -0.00423206 -5.22374e-21)
(1.06186 0.0158501 -3.76476e-20)
(1.00703 -7.24964e-05 4.82211e-21)
(1.0001 -1.49384e-06 2.94078e-22)
(1.02828 -0.032913 6.82044e-23)
(1.00557 -0.00314655 -1.25398e-20)
(0.963764 -0.00149884 -7.12303e-21)
(1.01377 0.00642969 -2.31826e-20)
(1.1283 -0.00250869 3.63756e-21)
(0.998131 -0.0121026 8.15067e-22)
(0.998643 -0.00158125 2.23138e-21)
(1.05601 0.029169 4.16537e-20)
(0.999298 -0.000114314 1.0639e-21)
(1.05044 0.0146044 -1.49518e-20)
(1.05921 0.00734089 3.08103e-21)
(0.99998 -1.12364e-05 -6.62721e-25)
(1.01174 -0.00827408 -3.87596e-21)
(1.00011 -0.00241979 -4.37102e-23)
(1.00964 -0.0154606 -1.68416e-21)
(0.999538 -0.00138553 -8.29823e-22)
(0.992143 -0.00686721 -2.41571e-21)
(0.987093 -0.0243385 9.53182e-21)
(1.00158 -0.0225181 3.27643e-22)
(0.999216 -0.00415895 1.28902e-21)
(0.993851 -0.0353396 -9.62901e-21)
(1.00279 -0.0264105 -1.77964e-21)
(0.999284 -1.88847e-05 -7.49241e-22)
(0.999998 -0.000622787 6.92307e-24)
(0.986236 -0.00820033 3.42407e-21)
(1.00001 -0.000294902 8.78942e-24)
(1.00409 -0.00265294 7.69401e-21)
(0.98483 0.0221424 3.04557e-20)
(1.00981 0.000142618 -4.88556e-20)
(0.997256 -0.0602881 -9.38891e-21)
(1.12052 0.0062579 -1.9308e-21)
(0.98679 -0.0242189 2.12196e-21)
(0.999996 -4.32478e-06 -4.61654e-24)
(1.06387 0.039533 3.11913e-20)
(1.00285 0.0182889 -2.05538e-20)
(0.999954 -0.000183091 2.06607e-23)
(1.00704 -0.00309269 -7.01003e-21)
(0.999448 -0.000618263 -6.19923e-22)
(1.01631 0.00473888 1.45632e-20)
(1.00006 -0.00178165 -4.21967e-23)
(1.06029 0.00819356 7.98709e-21)
(0.964505 -0.00687514 -8.72558e-21)
(0.998474 -0.0207227 1.92139e-21)
(1.1011 0.0513981 1.13143e-20)
(0.997615 -0.00308674 -2.24511e-21)
(0.992297 -0.0226049 -1.42013e-21)
(1.0338 0.00656444 9.18336e-21)
(1.01273 -0.0190949 -1.11961e-22)
(0.988499 -0.00624462 8.06491e-21)
(1.11642 -0.0530759 -3.25362e-22)
(1.00332 -0.00614676 -3.52297e-23)
(0.9989 -0.000747315 -7.30291e-22)
(1.01221 0.0469433 6.76379e-20)
(1.01372 0.0548824 5.20716e-20)
(0.995377 -0.0153788 -5.74611e-21)
(0.999416 -0.00182056 1.04083e-21)
(1.00113 -0.00459736 2.23832e-22)
(0.995216 0.0138328 -7.80212e-20)
(1.00025 -0.000938729 2.67412e-22)
(0.997902 -0.00219154 1.87831e-21)
(1.06664 0.0365485 -7.79043e-21)
(1.03285 -0.00966905 4.13159e-21)
(0.999943 -9.28648e-05 -1.04876e-22)
(1.00655 -0.00459693 -1.91565e-21)
(0.956485 0.011689 2.74535e-20)
(1.03353 0.0109035 -3.77367e-20)
(0.988375 -0.00255383 -1.29567e-20)
(1.00358 -0.00367651 -3.97261e-21)
(1.01599 0.00372108 1.77554e-20)
(0.964188 -0.00661873 1.69202e-20)
(1.06343 0.0405033 -4.81121e-20)
(0.998907 -0.000782716 5.1798e-22)
(0.999994 -6.33967e-06 8.75802e-24)
(0.999863 -0.00035501 2.38619e-22)
(0.999452 -0.000632524 9.52742e-22)
(0.96276 0.00352568 1.73561e-20)
(0.998767 -0.00178785 -1.5747e-21)
(1.04259 0.00450569 1.82285e-20)
(0.99999 -2.0273e-05 2.31291e-24)
(0.999654 -0.000526623 -2.97667e-23)
(0.998496 -0.00125186 -1.03378e-21)
(0.995098 -0.00532922 -3.02502e-21)
(1.02398 0.00301999 -6.21968e-20)
(1.07476 0.0584284 1.04023e-20)
(0.992714 -0.00399881 1.04751e-20)
(0.996602 -0.00393815 1.16736e-21)
(1.00065 -0.00125558 -1.52467e-22)
(0.999141 -0.00434131 -7.78932e-22)
(0.967796 0.0323554 -1.48599e-21)
(0.987458 -0.0117683 2.04264e-20)
(0.999518 -0.0040338 3.28344e-22)
(1.01745 0.042031 1.90247e-20)
(1.0071 0.00750974 -2.7659e-20)
(1.00541 -0.00308609 1.13188e-20)
(0.998893 -0.00121347 1.32177e-21)
(1.0037 -0.0159889 -1.35421e-22)
(1.00259 -0.00891294 1.49166e-22)
(1.01415 -0.0164919 5.38911e-21)
(1.00001 7.58658e-07 3.00359e-26)
(0.999766 -0.00058652 6.76251e-22)
(1.01467 -0.0114599 -6.19685e-21)
(1.02288 0.0223723 4.62517e-20)
(0.992558 -0.0257194 2.832e-21)
(0.99853 0.0301839 2.43403e-20)
(0.961605 0.00709393 -2.02256e-20)
(1.05255 0.00417319 -2.64843e-20)
(1 -1.97212e-06 2.42608e-25)
(0.994359 -0.000136957 -6.36482e-21)
(0.994089 -0.00945448 3.76862e-21)
(1.00004 -0.00346224 9.8189e-23)
(1 -1.00488e-06 5.52152e-26)
(1.05042 -0.0353643 1.36779e-21)
(1.03528 0.0709711 -4.1415e-20)
(0.987263 -0.00103032 -1.0536e-20)
(0.999792 -4.50733e-06 -2.27367e-22)
(1.04932 0.0178052 -2.4197e-20)
(1.00167 -0.00242685 3.35739e-22)
(1.00103 -0.00472666 -3.82435e-22)
(1.00005 -2.23208e-07 1.21368e-22)
(0.999494 -0.000621347 -5.41677e-22)
(1.0168 -0.0114999 -1.06273e-21)
(0.987542 -0.0196706 1.16388e-20)
(0.998933 -0.0119403 -1.56679e-21)
(0.998506 -0.00814502 -6.94772e-21)
(1.01506 -0.0113287 -7.40135e-21)
(1.00411 -0.0027701 -4.02358e-21)
(0.999963 4.90286e-07 -7.13713e-23)
(1.01552 0.0632046 7.54631e-20)
(0.971446 -0.0185839 1.89622e-21)
(1.00085 -0.00153946 -5.09088e-22)
(1.02132 -0.028787 -3.04751e-23)
(1.01568 0.0045806 -6.38575e-20)
(1.00716 0.0146327 -6.6152e-20)
(0.992424 -0.00680403 3.64035e-21)
(1.00669 -0.00129468 6.18691e-21)
(0.992019 -0.00850936 4.83399e-22)
(0.999295 -0.000819949 -1.32204e-21)
(1.11434 -0.0537841 3.5734e-22)
(1.00021 -0.000441638 3.41083e-22)
(1.00012 -0.00235618 1.07895e-22)
(0.992526 -0.00493786 1.14112e-20)
(0.988256 -0.00912869 5.56054e-21)
(0.999229 -0.000880687 1.45441e-21)
(0.997079 0.0506198 -3.37723e-20)
(1.00616 0.0177723 4.95344e-21)
(1.12261 -0.0262806 -1.86231e-21)
(1.04187 -0.0125611 -1.51716e-20)
(1.00001 -6.78096e-06 -2.53291e-24)
(0.998105 -0.00467015 6.70952e-22)
(1.02924 -0.00511333 5.65157e-21)
(0.997283 -0.000122359 9.42774e-22)
(0.999237 -0.00918872 -3.01074e-21)
(0.998876 -0.000727861 1.8265e-22)
(1.00067 -0.00120331 -4.51896e-22)
(0.99876 -0.0015367 -1.56754e-21)
(0.998602 -0.000416332 -5.35054e-22)
(0.999295 -0.00412165 -4.22903e-22)
(1.00014 -0.00241705 -1.33442e-23)
(1.05066 -0.0634399 1.29008e-21)
(1.00001 -1.22891e-05 2.68068e-23)
(1.00404 -0.00255595 -6.70981e-22)
(0.999995 3.27186e-06 -2.64424e-25)
(0.964699 -0.00820585 -2.26542e-20)
(1.00008 -6.97372e-05 7.28873e-23)
(0.99572 0.0359819 6.33187e-20)
(1.01353 0.0542539 -2.69199e-20)
(1.01193 0.0134488 -2.51897e-20)
(1.04091 -0.0128436 1.00877e-20)
(1.00798 0.0130789 -2.47448e-21)
(1.01163 0.000337477 2.87901e-20)
(0.999367 -0.0014345 1.67595e-22)
(1.0007 -0.000592103 -5.39744e-22)
(0.999907 -0.000234273 1.57164e-24)
(0.998257 -0.000900253 1.18086e-21)
(0.988731 -0.00628514 4.76578e-21)
(0.997623 -0.003041 -8.94817e-22)
(0.998011 -0.0045922 1.7954e-21)
(1.01489 -0.0154816 -2.12488e-21)
(1.00008 -6.70586e-05 -8.83541e-23)
(0.999947 -2.74205e-05 -2.09768e-23)
(1.00005 -4.24121e-05 -6.20161e-23)
(0.9997 -0.000980359 3.83447e-22)
(1.01008 0.000137084 1.3299e-20)
(1.01382 -0.0165028 4.28065e-21)
(0.992355 -0.00494519 -1.24449e-20)
(1 -0.00027036 -1.77691e-23)
(1.05408 -0.0306993 -6.57095e-21)
(1.00029 -0.000901465 8.25154e-22)
(0.999948 -3.32369e-05 -8.20481e-23)
(1.0078 0.0150474 9.48153e-20)
(1.01187 -0.00168809 2.41564e-21)
(1.00327 0.0175099 1.43012e-19)
(1.00001 -1.24263e-05 -2.47013e-23)
(1.00003 -0.000219535 0)
(1.00068 -0.000694485 8.12656e-22)
(0.996674 -0.0147815 2.70307e-21)
(0.997933 -0.00270946 -9.23293e-22)
(1.02779 -0.043374 -2.26505e-21)
(0.987272 -0.000402483 7.00498e-21)
(1.021 0.0155359 5.50511e-20)
(0.996764 -6.24073e-05 8.49865e-21)
(0.997604 0.0508766 -1.719e-20)
(1.00031 -0.000889383 -6.01167e-22)
(1.00084 -0.00141374 6.01608e-22)
(1.00016 0.0187246 -3.51833e-20)
(1.01297 0.046613 -2.74361e-20)
(1.03089 -0.0322188 1.08394e-21)
(1.00105 -0.000989122 1.46569e-22)
(0.965541 -0.009976 3.2986e-20)
(0.996759 -7.93846e-05 -4.8042e-21)
(1.00001 -1.1733e-05 1.07513e-23)
(1.00406 -0.00254659 8.03299e-22)
(0.971983 -0.0191056 -4.79675e-21)
(0.994744 -0.0147426 -4.67818e-22)
(0.980878 -0.00167524 5.78314e-21)
(1.01504 -0.0163004 -4.70451e-22)
(1.03343 0.0102808 6.18621e-20)
(0.999995 -3.07702e-07 -5.91658e-25)
(1.00102 -0.000905269 -2.95952e-22)
(1.00849 -0.00327561 8.6989e-21)
(1.01588 -0.0052656 -1.32994e-20)
(0.992669 0.0380281 -3.22348e-20)
(0.999998 2.35389e-06 3.37768e-26)
(0.999997 -2.85314e-05 1.03608e-24)
(1.00072 -7.49553e-05 -1.40171e-21)
(0.994681 -0.0145504 -5.58508e-21)
(0.999776 -0.000362374 2.92001e-22)
(0.999953 -0.000194753 8.19688e-23)
(1.04417 0.00256614 -2.29466e-20)
(0.972792 0.00363733 -7.04734e-20)
(1.06028 0.00916161 -3.64832e-21)
(1.00212 0.0176725 -3.70267e-20)
(0.992016 -0.00156824 2.87874e-21)
(0.998118 0.00956986 1.66115e-20)
(1.009 0.00338707 3.30552e-20)
(0.998729 -0.00158679 6.19971e-22)
(1.04926 -0.0361194 -1.29696e-21)
(0.971229 -0.0112073 2.78412e-20)
(0.998769 -0.00816787 3.07686e-21)
(1.00044 -0.00366942 -8.29591e-23)
(0.998723 -0.00283348 1.07281e-21)
(0.999423 -0.000422908 3.01521e-22)
(0.998153 0.0157648 -1.44527e-19)
(0.994186 -0.0138847 -8.62395e-21)
(0.999478 0.0364454 3.23443e-20)
(1.01302 -0.0191188 -1.25096e-21)
(1.01202 0.0134304 1.40586e-20)
(0.992316 -0.0041052 4.77104e-21)
(0.995273 -0.00536596 -7.78187e-21)
(1.09019 0.0181092 -2.79785e-21)
(1.00909 0.00492838 3.42452e-20)
(0.998975 -0.00121119 -1.47642e-21)
(0.999994 -0.00108356 -8.99028e-24)
(0.999929 -0.00111744 3.94851e-23)
(0.999996 -3.05871e-06 -1.56134e-23)
(1.01315 -0.0161563 -6.4969e-21)
(0.989027 -0.0291938 -1.16487e-20)
(1.00009 -0.000188557 -1.05613e-22)
(1.0272 -0.0067605 -1.41611e-21)
(0.999882 -0.000277757 3.95249e-23)
(0.99988 -0.000290944 -2.56986e-22)
(1.0008 -6.67958e-05 -1.1156e-22)
(1.01321 -0.0183947 8.66236e-22)
(1.00026 -3.29285e-05 -2.34944e-22)
(1.00049 -0.00313299 3.30397e-24)
(0.99073 -0.00173603 6.51612e-21)
(0.998466 -0.00229661 7.68918e-22)
(0.998252 -0.00095058 -4.07514e-21)
(0.994502 0.0180411 -1.92406e-19)
(1.05425 -0.0118665 3.30618e-20)
(1.00388 -0.00527509 3.8535e-21)
(0.996254 -0.00635953 4.08678e-21)
(0.989371 -0.0177294 -1.52991e-21)
(1.00016 -0.00228172 -4.36699e-24)
(1 -1.17084e-05 -7.67938e-24)
(0.999997 -1.88037e-06 1.1315e-29)
(0.983187 -0.00361277 1.10642e-21)
(0.971369 -0.0109391 -2.88787e-20)
(0.988734 -0.0123364 -3.5325e-22)
(1 -9.62317e-06 -2.06056e-23)
(0.994243 -0.00261243 6.86896e-21)
(1.02355 0.0032566 5.63666e-20)
(1.07018 0.0704519 -7.97233e-20)
(1.05296 0.00357003 -1.88289e-20)
(0.99998 -2.08704e-06 -1.38453e-23)
(0.988804 -0.00618112 1.57579e-20)
(1.00318 -0.0152904 1.71147e-21)
(1.00004 -5.37644e-06 -6.61076e-24)
(0.999981 -9.93449e-05 2.02006e-23)
(0.98736 -0.000271599 -1.3211e-21)
(1.00069 -3.36202e-05 -4.63836e-22)
(1.00025 -0.00208204 -5.09897e-23)
(1.01727 -0.0411464 -1.44727e-21)
(1.00016 -1.73473e-05 -1.73059e-22)
(0.980761 -0.0245056 1.78854e-20)
(0.990679 -0.00182281 -6.44264e-21)
(0.992049 -0.00163577 5.14427e-21)
(0.992823 -0.00405527 1.70796e-21)
(1.00058 -0.00314498 -2.9083e-22)
(0.984691 -0.0130815 1.91042e-20)
(1.00012 -0.000177717 1.35963e-22)
(1 -5.8186e-06 -1.0588e-24)
(1.00176 -0.00190322 1.03696e-21)
(1.00701 0.0443713 -2.74757e-20)
(0.989148 0.00944809 1.34368e-19)
(1.00507 0.0134863 3.30243e-20)
(1.01385 -0.016914 -1.39879e-21)
(0.996032 -0.00536906 -1.50593e-21)
(1.00348 0.0137974 1.7231e-19)
(1.00569 -0.00371155 -1.54623e-20)
(1.00007 -0.000157189 -9.37027e-23)
(1.00933 2.79385e-06 -1.06299e-20)
(0.994593 -0.00506008 1.83864e-21)
(1.05162 0.014412 -2.98603e-20)
(0.998737 -0.00280938 1.36924e-21)
(1.01066 0.000765707 -3.26289e-20)
(1.00035 -4.44614e-05 4.54138e-22)
(1.0049 0.0127839 2.24905e-20)
(1.0002 -2.66243e-05 -2.79166e-22)
(0.998079 -0.00289688 5.23163e-22)
(0.992373 -0.00413173 -1.26967e-21)
(1.00433 0.0184136 2.15634e-20)
(1.00009 -8.9442e-06 -2.61837e-22)
(0.995407 -0.0156212 7.74655e-21)
(1.02746 -0.0426585 3.90412e-21)
(1.02178 0.0150773 -4.38658e-20)
(0.999741 -0.0182197 -4.05713e-21)
(0.998053 -0.00262276 1.34576e-21)
(1.0737 -0.00481275 -7.1815e-21)
(1.00001 1.06411e-08 -1.9618e-23)
(1.12172 -0.0248338 8.0885e-22)
(0.998378 -0.00237039 8.19508e-22)
(1.00748 -0.00374388 -1.09259e-20)
(0.996845 -0.0147933 2.42762e-21)
(1.00107 4.47104e-06 -1.73354e-21)
(1.03611 0.0699859 -1.02609e-19)
(1.00612 0.0183907 -4.9844e-20)
(0.986416 0.0175144 6.61842e-20)
(1.00774 0.0132677 7.27471e-21)
(1.01834 0.0308346 3.10731e-20)
(1.05939 0.00608705 -2.32236e-20)
(1.01594 0.0674591 -7.92694e-22)
(1.00576 -0.00378905 1.7237e-20)
(1.01006 0.0273048 2.96442e-20)
(1.00265 0.0174813 -1.10685e-19)
(1.00013 -0.00208013 -3.27031e-23)
(0.999495 -0.00131585 -4.46763e-22)
(0.99034 0.00913227 -1.45002e-19)
(1.00001 -8.57527e-06 -4.7306e-24)
(1.12719 -0.00107765 -4.4182e-21)
(1.06518 0.0721011 -2.93174e-20)
(0.993014 -0.00681149 7.58401e-21)
(1.00039 -0.000845108 -5.41065e-23)
(1.01527 -0.00567707 -4.44577e-21)
(0.999451 -0.000588165 -4.91003e-22)
(1.00068 -0.000666344 -1.87688e-23)
(0.993886 0.0248122 -3.66243e-20)
(0.976404 0.0174736 5.75134e-20)
(0.999943 1.26502e-07 -4.59869e-24)
(1.00012 -0.00017606 -1.35371e-22)
(1.03301 -0.00794417 -5.04992e-21)
(1.00003 -0.00103087 9.50711e-24)
(1.10141 0.0527097 -2.70329e-20)
(1.01298 0.0457465 -4.50377e-20)
(1.01635 0.0126406 8.26426e-21)
(0.999983 -0.000100534 -6.17872e-23)
(0.999542 -0.0259128 1.9558e-21)
(0.9995 -0.0213254 9.65228e-21)
(1.00022 -1.14981e-05 1.81223e-22)
(1.00764 -0.0118052 2.61679e-21)
(1.01629 0.00224817 1.30996e-20)
(0.978136 0.016589 -3.69209e-20)
(1.00002 -0.00107402 3.37002e-24)
(0.999994 1.36895e-06 1.11496e-25)
(1.00986 0.0274746 2.17959e-20)
(1.00713 -0.0118579 4.37649e-21)
(0.999944 5.11043e-06 -1.00314e-22)
(1.01269 -0.00465848 -2.72583e-21)
(1.00292 -0.00461767 -6.56946e-22)
(0.998765 -0.00168176 -1.3297e-22)
(0.999118 -1.8527e-05 4.37094e-22)
(1.12337 0.014529 -4.51921e-21)
(0.993502 -0.00245615 2.84224e-21)
(0.999464 -0.000571013 3.3836e-23)
(0.9884 -0.00911825 1.21555e-22)
(1.00013 -0.00017757 1.9657e-22)
(0.999954 -3.7717e-05 5.74293e-23)
(0.999815 -0.00481752 7.3452e-22)
(1.05721 0.0186002 -5.26309e-21)
(0.999914 -2.12619e-05 4.63621e-23)
(0.990756 -0.00190844 -7.70074e-21)
(1.00028 -0.000387798 4.84722e-23)
(0.999853 -0.0177656 -1.72103e-21)
(1.00364 0.0186803 -2.82837e-20)
(0.999952 -0.000178654 -4.67939e-23)
(0.957623 0.00557213 -4.54964e-20)
(1.03461 -0.0212313 -6.66376e-21)
(0.997492 0.00953327 1.88628e-20)
(1.05653 0.0176873 1.33288e-20)
(0.999778 -0.000131051 9.41189e-23)
(0.999987 -2.87977e-05 -9.70552e-24)
(0.99983 -0.000128671 -1.89518e-22)
(0.997922 -0.00270193 5.62573e-23)
(1.00784 0.00028232 0)
(0.999823 -0.00387924 5.45965e-22)
(0.994325 -0.000157259 1.52041e-21)
(0.991884 0.0283248 -1.30415e-19)
(0.972132 -0.0124912 -2.43234e-20)
(0.971846 -0.0124008 2.13345e-20)
(1.01626 -0.0109854 5.10524e-21)
(1.0268 -0.00832557 2.15971e-20)
(0.994019 0.0208467 1.22547e-19)
(0.999817 -0.000120836 9.55296e-23)
(0.995565 -0.0156355 1.61524e-21)
(0.992862 -0.00680521 -7.24753e-21)
(1.00007 -8.37973e-05 1.02022e-22)
(1.00994 -0.0163342 9.37074e-22)
(1.0003 -0.000357787 -2.37057e-23)
(1.01353 -0.0164375 -3.707e-21)
(0.993053 -0.032811 2.19504e-21)
(0.967892 0.0194825 -7.82367e-20)
(0.97973 -0.0243516 -1.77387e-20)
(0.999184 -0.00095846 2.17781e-22)
(0.992162 -0.00656251 -1.30077e-20)
(1.00262 -0.00857978 -4.76937e-23)
(1.03842 0.00654734 -4.06433e-20)
(1.01095 0.000645096 -4.93717e-21)
(1.00558 -0.0161848 1.82243e-22)
(1 -7.67557e-08 -2.13478e-24)
(1.00118 0.0172826 4.60394e-20)
(0.994775 -0.00284956 -7.62908e-22)
(0.964264 -0.00599009 1.56171e-20)
(0.999783 -0.00369997 4.46927e-22)
(1.01415 -0.0116849 -2.17594e-20)
(0.993486 -0.0207102 1.28426e-20)
(1.00177 -0.0019531 4.53636e-22)
(1.08385 0.0487437 -5.47221e-20)
(0.999661 -1.24518e-05 6.33873e-22)
(0.998818 0.0273425 7.30339e-20)
(0.999903 -0.00706893 -8.45577e-22)
(1.01626 0.00264316 -6.58536e-21)
(0.9815 -0.00353695 1.35141e-20)
(1.00741 -0.00100269 1.71923e-21)
(0.999996 -1.15406e-05 -3.05473e-24)
(0.992042 -0.0178947 -7.99016e-22)
(0.990698 -0.00199012 7.37084e-21)
(0.994584 -0.0143347 7.87315e-21)
(1.01318 -0.0049903 -2.01454e-21)
(1.01696 -0.0418787 -1.57873e-21)
(1.00013 -0.000171565 -2.24905e-22)
(1.03115 -0.0794609 -3.89229e-21)
(0.999418 -0.000457834 -1.23046e-21)
(0.999987 -3.23891e-05 -2.73163e-24)
(0.999797 -0.00379258 -5.93747e-22)
(1.0001 -0.000179087 5.48607e-23)
(0.97718 0.0168513 5.04702e-20)
(1.00008 -8.47778e-05 -9.06558e-23)
(0.996068 0.0357428 -1.94605e-20)
(0.992062 -0.00690687 -2.06799e-21)
(1.00698 -0.00102704 -3.21807e-21)
(1.0011 -0.000901843 -1.58964e-21)
(1.02501 0.0124425 6.35395e-20)
(1.00155 -0.00244815 -1.98036e-21)
(1.007 0.00800105 -2.36829e-20)
(0.999998 -4.28628e-06 4.78787e-26)
(1.01254 -0.0224815 4.82483e-23)
(0.99956 -0.00185819 3.72433e-22)
(1.0005 -0.0015309 8.33021e-23)
(0.989611 -0.00743547 -3.31097e-21)
(1 -7.41851e-06 1.08439e-23)
(1.06873 0.035342 -2.63042e-20)
(0.976646 0.0353072 2.15093e-20)
(1.06442 0.0713329 6.37853e-20)
(1.00007 -0.000156199 1.82067e-22)
(1.06931 -0.0226611 3.93163e-21)
(1.00832 0.00035899 -7.96157e-21)
(0.991965 0.025607 8.95316e-20)
(0.999976 -0.00179339 -4.53604e-24)
(0.999896 8.01908e-07 -3.76531e-23)
(1.03218 -0.00829429 -5.96394e-21)
(1.00006 -5.43619e-05 -6.21245e-23)
(0.98792 0.00859635 -2.98446e-20)
(1.00331 -0.0151743 1.39025e-22)
(1.03446 0.0734007 -1.16504e-21)
(1.02226 0.0224019 -6.16074e-20)
(1.00005 -5.23633e-05 4.95325e-23)
(0.996886 -0.0595044 -8.48723e-21)
(1.00325 0.0101126 -5.10223e-20)
(0.999954 -3.57592e-05 2.99087e-24)
(1.03029 -0.00309125 3.75822e-20)
(0.997657 0.00444312 8.74245e-20)
(0.999129 -2.32019e-05 3.55452e-22)
(1.00101 -0.00492571 5.48687e-22)
(1.00014 -1.62511e-05 1.29934e-22)
(1.00249 -0.00524425 -1.86431e-21)
(0.992422 -0.00425639 5.8005e-22)
(0.997529 -7.48814e-05 5.8139e-22)
(1.00128 0.0383934 -4.37399e-20)
(0.998724 -0.00797635 2.05119e-21)
(0.964736 0.0274517 1.47385e-19)
(0.951668 0.00257719 1.30463e-19)
(0.998881 -3.86349e-05 -1.04773e-21)
(1.00002 -0.000171039 -5.05211e-24)
(0.999554 0.0362892 -1.77148e-20)
(0.99876 -0.00162089 5.58877e-22)
(0.993319 -0.00167755 1.54567e-21)
(1.00012 -0.000183942 -3.12028e-23)
(1.01631 0.0144418 2.03436e-21)
(0.981637 -0.00354637 -1.93778e-20)
(0.971339 0.0163533 9.287e-20)
(0.999492 -0.00172608 -5.51179e-22)
(0.999986 -0.000470138 4.30216e-25)
(0.994813 -0.00295462 2.57044e-21)
(1.07632 0.0670728 -6.43115e-20)
(0.999784 -0.0259099 5.06899e-22)
(1.045 0.0041414 -7.37275e-21)
(1.0201 -0.00966758 -1.24536e-20)
(1.00936 0.00375686 -2.76504e-20)
(0.999917 -3.93174e-05 -3.17966e-23)
(1.08483 0.0280156 1.66888e-20)
(1 -8.69534e-06 -1.26985e-23)
(1.00061 -0.000516098 1.02188e-21)
(0.999994 8.52334e-08 1.26087e-24)
(1.11863 -0.0252277 5.2395e-21)
(1.03173 -0.0321036 -1.29597e-21)
(1.00756 0.0143311 4.28282e-21)
(0.999992 -1.03332e-05 1.5765e-24)
(0.986222 0.0171703 -1.75246e-19)
(0.999843 -5.05752e-05 1.13493e-22)
(1.00992 -0.0165522 1.1653e-21)
(0.999767 -0.000137597 3.21907e-22)
(0.97155 -0.0189764 9.45758e-22)
(0.996304 -0.00649922 -6.38228e-21)
(1.03174 0.0145327 3.26696e-20)
(0.999945 -3.18805e-06 1.38841e-22)
(1.01092 -0.0266591 -2.44518e-21)
(1.00777 -0.0115584 6.47403e-22)
(0.995919 -0.00590203 -5.63972e-21)
(0.999991 -3.30142e-05 1.53171e-23)
(0.999975 -0.000467097 1.82537e-23)
(0.999916 -4.61743e-06 1.67753e-23)
(0.990326 -0.0215282 -9.879e-21)
(1.00064 -0.00128316 4.48028e-22)
(0.999572 -0.000258562 -2.97427e-23)
(0.987053 -8.49097e-05 1.04871e-20)
(1.00003 -8.36087e-05 -5.75194e-25)
(1.00011 -0.000149032 1.83669e-22)
(1.00275 -0.00777284 8.53848e-22)
(0.999776 -0.000121613 5.56706e-23)
(1.00457 0.0127586 -7.70287e-20)
(1.01947 0.000582708 4.54933e-20)
(1.08945 0.0611223 -3.91924e-21)
(0.989717 -0.000362441 -1.391e-21)
(1.01052 -0.034351 4.70672e-21)
(0.999991 4.23581e-07 -6.42786e-25)
(1.07502 -0.00435049 8.24638e-21)
(0.992637 -0.0328243 -8.76851e-21)
(1.00014 -2.44637e-05 1.93913e-22)
(0.988887 -0.0125364 -4.49348e-21)
(0.999444 -0.00177251 -4.19622e-22)
(0.985766 -0.00905535 5.7912e-21)
(1.08712 -0.0399086 6.55309e-22)
(1.0002 -1.65983e-05 -2.07144e-22)
(1.01359 -0.0185603 -3.02011e-21)
(0.999987 -2.80918e-05 1.12206e-23)
(0.998048 -0.002487 -8.63078e-22)
(0.999849 -5.40666e-05 1.06185e-23)
(1.01077 0.0235873 -3.99284e-21)
(0.99699 -0.000778043 -2.79699e-21)
(1.00005 -9.68777e-05 -2.04833e-24)
(0.999944 -4.50954e-05 5.08475e-23)
(1.00895 -0.00387867 1.08562e-20)
(0.983566 -0.0184753 1.66911e-21)
(0.998769 -0.00162985 -8.9388e-22)
(1 -0.000489576 1.08493e-23)
(1.00088 0.0387032 -5.4425e-21)
(0.99924 0.0205402 2.7175e-20)
(1.00061 -0.00157857 2.82664e-22)
(1.04052 0.0601726 -1.48682e-21)
(1.06348 -0.0334033 -5.1357e-21)
(0.973248 -0.0204131 7.88533e-21)
(1.00002 -0.000167135 1.98346e-23)
(0.999998 -9.96656e-08 2.52314e-24)
(1.00748 0.043881 3.53791e-20)
(0.985957 -0.00768434 1.73315e-21)
(1.00004 -8.28136e-05 -2.51108e-23)
(1.05232 0.0476599 4.45257e-20)
(0.999649 -0.000213907 4.00055e-22)
(0.999995 -2.24091e-06 7.62186e-24)
(1.02799 0.00400897 5.38422e-21)
(0.998407 -0.0416927 -2.99963e-21)
(0.98003 -0.0242143 2.29427e-20)
(0.970144 -0.0186584 3.45988e-21)
(0.996168 -0.0138203 -5.71825e-21)
(0.99742 -6.40637e-05 1.02502e-21)