/*--------------------------------*- C++ -*----------------------------------*\
  =========                 |
  \\      /  F ield         | OpenFOAM: The Open Source CFD Toolbox
   \\    /   O peration     | Website:  https://openfoam.org
    \\  /    A nd           | Version:  7
     \\/     M anipulation  |
\*---------------------------------------------------------------------------*/
FoamFile
{
    version     2.0;
    format      ascii;
    class       volVectorField;
    location    "30";
    object      U;
}
// * * * * * * * * * * * * * * * * * * * * * * * * * * * * * * * * * * * * * //

dimensions      [0 1 -1 0 0 0 0];

internalField   nonuniform List<vector> 
7807
(
(1.08275 0.144041 6.02061e-21)
(1.06409 -0.0440848 9.69218e-22)
(0.995126 0.118269 -1.30377e-20)
(1.03959 0.0752052 1.80993e-20)
(0.999062 -0.00115824 -3.37291e-23)
(0.999955 -1.05465e-05 -3.81091e-24)
(0.989953 0.0983405 -2.5998e-20)
(0.993891 -0.00222626 -6.78677e-24)
(0.999864 -0.000213286 -6.41549e-24)
(1.02655 0.00147704 -8.45832e-22)
(0.999958 -1.26699e-05 4.20307e-24)
(1.00255 -0.00143234 -1.3534e-22)
(0.990611 -0.00284093 3.40913e-22)
(1.02255 -0.00194948 -5.39633e-21)
(1.02572 0.00182616 3.58077e-21)
(0.990232 -0.0181407 -6.87892e-22)
(1.08552 0.150318 -1.26758e-20)
(0.987312 -0.00367324 -1.18556e-22)
(1.00289 -0.0110812 -4.13306e-23)
(0.986908 -0.120238 -5.96111e-22)
(1.03956 -0.00403009 -1.84662e-21)
(1.00169 -0.000869807 2.54245e-22)
(1.02066 -0.00361734 4.64637e-22)
(1.0116 0.0340343 -9.38344e-21)
(0.983004 -0.00465215 -5.38814e-22)
(1.07784 0.142437 -6.05816e-21)
(0.999109 -0.00110102 -2.37557e-23)
(1.02646 -0.00193711 2.13644e-21)
(1.00537 0.0163871 -1.19901e-21)
(1.00455 -0.0117404 3.3697e-23)
(0.984552 -0.01938 -1.22765e-21)
(0.861433 0.043022 3.96011e-21)
(1.02045 -0.00441253 2.86207e-21)
(0.99946 -0.000461636 4.21382e-23)
(0.999882 -7.72543e-06 8.06743e-26)
(1.02661 0.000542028 1.25094e-21)
(1.0052 -0.0128345 4.14362e-23)
(0.994844 0.0956554 -4.15094e-21)
(0.995846 -0.00941932 5.63242e-22)
(0.999622 -6.81913e-05 4.06044e-23)
(0.996337 -0.009685 -6.37253e-23)
(0.990346 -0.017007 -2.52692e-22)
(1.02161 -0.12748 2.73635e-21)
(1.17037 -0.0383174 3.83766e-22)
(0.999774 -1.42329e-05 1.3182e-23)
(0.99991 -1.81512e-05 -3.81995e-24)
(1.00161 -0.000706044 -1.55232e-22)
(0.995611 -0.0086218 -3.33921e-22)
(0.999924 -3.44223e-05 -3.08766e-24)
(0.992385 -0.120354 8.65975e-22)
(1.00372 -0.00124988 1.46837e-22)
(1.02617 -0.0011149 -2.21812e-21)
(0.977676 -0.00563874 -1.81577e-21)
(1.01462 -0.0352706 6.58468e-23)
(1.02716 -0.000165574 -7.40188e-22)
(0.994657 -0.00305981 -6.259e-23)
(1.00276 -0.0102965 8.97101e-23)
(0.993847 -0.00192818 4.65293e-22)
(0.973156 -0.0238743 -2.18376e-21)
(0.999439 -0.000410918 -5.39324e-23)
(1.00005 -2.68149e-05 -5.5472e-24)
(1.00485 -0.00137247 1.64134e-22)
(1.02277 -0.00125034 -1.27253e-21)
(1.00276 -0.00124823 1.37004e-22)
(0.998913 -0.000222938 7.63145e-23)
(0.985304 -0.0200899 2.10835e-22)
(0.999892 -0.000213021 4.95395e-24)
(1.00002 -2.97391e-06 3.90432e-25)
(1.16069 0.0821109 2.55242e-21)
(0.99582 -0.00816754 -1.0172e-22)
(0.999916 -2.22979e-05 3.38719e-24)
(0.967549 -0.0724222 -4.21163e-21)
(0.98376 -0.005155 2.63151e-22)
(0.968785 -0.00715193 3.57284e-22)
(0.987892 -0.00405076 3.71805e-22)
(0.957948 -0.0352144 -4.75227e-22)
(0.999243 0.11974 2.09645e-20)
(1.03764 -0.00406606 2.3469e-21)
(1.0943 0.00435965 -4.1947e-21)
(0.945976 -0.0606744 -5.20039e-21)
(0.991067 -0.00313904 -5.2329e-22)
(0.999656 0.0607407 2.57905e-20)
(1.04449 0.00800857 5.49413e-21)
(0.968281 -0.0126646 1.64484e-21)
(0.99846 -0.00292643 -5.50267e-23)
(0.997443 -0.000373842 5.64393e-23)
(0.993483 -0.00293791 6.40786e-22)
(0.978582 -0.00629609 1.16805e-21)
(0.999281 -0.00136367 3.61655e-23)
(0.994882 -0.000788993 2.00137e-22)
(1.00565 0.0185997 8.88419e-21)
(1.20224 -0.0174537 -6.0782e-22)
(0.999848 -6.22612e-05 -7.98663e-24)
(1.00223 -0.00873591 3.77654e-23)
(0.995957 -0.0012073 1.8155e-22)
(0.968359 -0.00397756 -2.86148e-21)
(0.970541 -0.0717334 3.06849e-22)
(1.01658 -0.0338141 8.75532e-23)
(0.998295 -0.00282352 1.8129e-23)
(0.998704 -0.000223567 2.53741e-23)
(0.938147 -0.021889 1.22569e-21)
(1.0948 0.00988716 3.48245e-21)
(0.996188 -0.00137203 -4.52451e-22)
(0.999971 -1.50575e-06 -3.23557e-25)
(1.20425 -0.00452371 -5.28918e-22)
(1.03282 0.0344388 -8.46103e-21)
(0.930877 0.0308011 4.50344e-21)
(0.994292 -0.00289316 -2.60705e-22)
(0.99999 -2.95626e-06 6.45711e-26)
(1.02916 -0.0151146 -9.74036e-22)
(1.04294 0.0714827 -2.10228e-20)
(1.03735 -0.0912924 -3.17212e-21)
(0.999988 -3.48273e-06 -1.07862e-25)
(1.03105 -0.0154807 -2.12817e-22)
(1.02928 0.0328152 8.8993e-21)
(1.00049 -0.000660489 -1.19035e-23)
(1.09348 -0.101524 -1.53622e-22)
(1.03317 0.0198509 -2.04048e-21)
(0.981837 -0.056156 1.80562e-21)
(0.968423 -0.00869757 -3.74143e-22)
(0.933591 -0.0143871 -2.95218e-21)
(1.00111 0.0292859 -1.67962e-20)
(1.02918 -0.124725 -3.76538e-21)
(1.01127 -0.0090521 8.22589e-23)
(0.93601 -0.01642 1.16395e-21)
(0.998946 -0.00158814 8.04065e-23)
(0.985881 -0.0146464 4.13e-22)
(1.00342 -0.00978583 -6.13813e-23)
(0.998853 -0.000164786 -1.70188e-22)
(0.984613 -0.0178609 2.1865e-23)
(1.24302 -0.0302426 -5.41902e-22)
(1.08829 0.00157887 7.15383e-22)
(0.999329 -0.000630077 4.58153e-24)
(0.999157 -0.00139638 -7.02865e-23)
(0.966689 -0.0116136 4.89517e-22)
(1.0403 0.0643583 7.7445e-21)
(0.996329 0.0250471 3.01713e-20)
(0.999973 -2.8071e-06 -3.78841e-25)
(1.00836 -0.00360361 6.8841e-23)
(0.908077 -0.0183474 -3.70066e-21)
(0.970824 -0.00515747 -1.45825e-21)
(0.989803 -0.0775071 -2.71847e-21)
(0.958697 -0.0378812 6.44515e-22)
(0.970607 -0.0064236 -3.17537e-23)
(0.923572 0.0240848 1.76454e-20)
(1.01774 -0.0545404 -9.73799e-23)
(1.01177 0.0205586 -4.52465e-21)
(0.976186 -0.0283758 -1.14126e-21)
(0.955852 -0.00699357 4.02863e-22)
(1.00089 0.046032 -8.34403e-21)
(1.02705 0.000999049 3.15066e-21)
(1.18857 -0.0221425 2.31155e-22)
(0.998359 -0.00233701 -1.90434e-22)
(1.16644 0.0739398 3.57664e-22)
(1.04227 0.00746489 -5.7137e-21)
(1.00717 0.0989392 -2.08831e-20)
(0.951433 -0.0416483 1.98134e-21)
(0.990603 -0.00219285 1.16039e-22)
(0.941142 0.0811781 3.9092e-20)
(0.99993 -2.93297e-05 -2.90068e-24)
(1.00171 -0.00924671 -2.21152e-23)
(1.0117 0.0373823 6.76465e-21)
(0.999975 -2.26878e-05 1.81807e-24)
(0.998077 -0.00595851 -2.66403e-22)
(0.995425 -0.00117049 -8.69154e-23)
(1.0035 0.0385257 -2.21489e-21)
(1.00172 0.0267959 8.24363e-21)
(0.932466 0.0890849 1.2979e-20)
(0.997742 -0.00577296 -1.65434e-22)
(0.996473 -0.000443719 -9.89718e-23)
(1.00002 -3.77591e-06 -3.6424e-25)
(0.929272 -0.00878547 -5.06468e-21)
(1.00047 -0.000589647 1.64299e-23)
(1.06588 -0.0396211 -1.14031e-21)
(1.00872 -0.00388475 4.60747e-22)
(0.956976 -0.00827719 8.32217e-22)
(1.19306 0.00545248 -1.29756e-22)
(1.11328 0.0817922 2.12487e-22)
(0.99985 -7.69562e-05 4.36473e-24)
(0.999439 -0.000723122 -4.84206e-23)
(1.04109 0.0792401 -3.18284e-21)
(0.99993 -2.06595e-05 -1.40963e-24)
(0.999874 -1.45611e-05 2.09426e-24)
(0.990155 0.104248 -2.14457e-20)
(1.06694 -0.0478273 1.19236e-22)
(1.01897 -0.0784812 -1.74046e-21)
(0.98416 -0.0542344 -2.56165e-21)
(0.97172 -0.00923516 1.07368e-21)
(1.01423 -0.0564594 1.75655e-22)
(0.910403 -0.0154912 1.95025e-21)
(0.999973 -2.06982e-05 -6.48423e-25)
(0.971004 -0.067075 -1.01561e-21)
(1.11592 0.0895879 -5.76642e-21)
(0.996171 -0.00167193 6.50067e-23)
(1.00009 -7.79638e-06 -4.05329e-24)
(1.0829 0.0856539 6.12963e-22)
(0.998595 -0.000454432 1.79882e-22)
(0.985611 -0.0171416 6.60123e-22)
(1.01054 -0.0536557 5.73471e-22)
(1.00002 -2.51682e-06 -1.56031e-25)
(1.00103 -0.00227703 -6.66478e-23)
(1.03638 0.0637135 9.61527e-21)
(1.10199 0.0962141 -7.69606e-21)
(1.00257 0.0881029 -2.80598e-21)
(1.08767 -0.0944441 1.39063e-21)
(1.04139 -0.0864522 7.3498e-22)
(1.1524 -0.128643 -5.47157e-22)
(1.02686 -0.0020423 6.34013e-21)
(1.03356 0.0597997 -3.13567e-21)
(0.999758 -2.57e-05 -1.54296e-23)
(1.00004 -2.39595e-05 1.47128e-24)
(0.948555 0.0126793 -1.7364e-20)
(0.991745 -0.016235 -2.37965e-22)
(0.999302 -0.000561031 -4.53704e-23)
(0.973861 -0.0657692 2.07924e-21)
(0.985203 -0.0154738 -4.83478e-22)
(1.01726 0.0919922 -2.33378e-20)
(1.01341 0.0893251 -4.94427e-21)
(0.986562 -0.0797794 7.49395e-22)
(0.88914 0.0598603 -1.4985e-20)
(0.998697 -0.000513962 -1.32399e-22)
(0.987359 -0.00317424 4.24678e-22)
(0.935554 -0.0200216 1.60868e-21)
(1.0373 0.000913538 -1.32935e-21)
(1.03176 -0.158839 -3.72428e-22)
(1.10533 0.140674 -1.25732e-20)
(0.941458 0.071525 -3.34561e-20)
(1.00007 -0.000125543 4.54307e-24)
(1.01122 -0.00831916 2.27494e-22)
(1.03085 0.0225709 1.1044e-20)
(0.995716 -0.00708781 -4.2565e-22)
(1.03616 0.020264 -1.39575e-21)
(0.999407 -0.00148362 -1.16447e-23)
(0.907529 0.100201 2.63193e-20)
(1.00773 0.0919984 4.59523e-21)
(0.993475 -0.00253749 4.06949e-22)
(1.00437 -0.00982575 -1.01609e-23)
(0.999646 -7.74396e-05 -7.5454e-23)
(1.14018 0.112174 2.8829e-21)
(0.999891 -1.22316e-05 6.22271e-24)
(0.994209 -0.0130765 2.03588e-22)
(0.921571 -0.0402633 2.23125e-21)
(0.999916 -3.04089e-05 -1.40447e-24)
(0.99859 -0.00341589 -4.60105e-23)
(0.999536 -0.00143998 2.12492e-23)
(1.07496 0.0532969 7.93154e-21)
(0.999976 -2.93768e-05 2.19763e-24)
(0.994662 -0.000607126 2.32352e-25)
(0.949017 -0.0600664 6.02865e-21)
(0.86297 0.0322012 -8.74516e-21)
(1.08758 -0.00380725 -9.66649e-22)
(0.920648 0.0680097 2.02354e-20)
(0.999947 -9.35957e-06 -3.5185e-24)
(1.00763 -0.0547792 -3.93913e-23)
(0.999788 -0.000368158 -1.7174e-23)
(1.00175 0.101216 -2.10056e-20)
(1.00453 -0.000932917 -2.11456e-22)
(0.994468 0.0354948 9.80747e-21)
(1.00349 -0.0118554 -1.71079e-22)
(1.00091 -0.00244666 7.09328e-23)
(1.037 -0.0384153 -3.44437e-22)
(1.02675 -0.000999156 -5.8734e-21)
(1.00067 -0.000394809 3.43214e-23)
(0.999737 -6.39767e-05 4.01773e-25)
(1.00059 -0.000532127 7.69684e-23)
(0.995495 -0.00752546 -3.81041e-22)
(1.02799 -0.0806542 1.97807e-21)
(0.999949 -1.24899e-05 2.37868e-24)
(0.953445 -0.0397979 1.40017e-21)
(0.995661 -0.0013424 -1.6428e-23)
(0.999835 -5.37626e-05 8.47677e-24)
(0.999281 -0.000697883 1.4713e-23)
(0.988446 0.0625898 2.3721e-20)
(0.990555 -0.00102405 1.6751e-22)
(0.999115 -0.000124513 -1.53738e-23)
(0.89641 0.0143732 3.34462e-20)
(0.998408 -0.0032849 -1.04437e-22)
(1.06713 0.110549 -7.31035e-21)
(0.999763 -0.000340121 3.09629e-23)
(1.01036 -0.0265945 2.80102e-23)
(1.00002 -2.14541e-06 -1.35465e-25)
(0.980405 -0.0453819 -1.01941e-21)
(1.03666 0.000405318 2.05759e-21)
(1.19432 0.0159427 -2.22846e-22)
(0.97355 -0.0256854 1.85281e-21)
(0.999529 -0.00073094 5.59557e-23)
(0.983158 -0.102589 1.31318e-21)
(0.979953 -0.000610121 7.67889e-22)
(0.99979 -2.29675e-05 8.27552e-25)
(1.00057 -0.000465957 -6.81042e-23)
(0.997642 -0.00428656 1.43663e-22)
(0.99101 -0.00183242 -5.01796e-22)
(1.00349 -0.00112541 -2.5062e-22)
(0.998598 -0.00235235 6.89609e-23)
(0.969945 -0.0117969 2.58648e-22)
(1.0333 -0.0773462 -1.45184e-21)
(0.970064 -0.00990687 1.14486e-21)
(1.16201 -0.0300966 -7.6988e-23)
(0.959779 -0.0111771 -1.45378e-21)
(1.01994 0.116809 2.34072e-21)
(1.01551 0.119718 -1.72213e-20)
(0.998254 -0.000938318 -1.15401e-22)
(1.218 0.0157355 -1.75527e-21)
(0.999981 -3.83026e-06 -2.11301e-25)
(0.997602 -0.00530908 -1.75644e-22)
(0.967494 -0.00278134 2.92377e-21)
(1.00867 0.0303518 5.61065e-21)
(1.04566 0.0133956 -5.37416e-21)
(1.00011 -3.96607e-05 9.2918e-24)
(0.997753 -0.00500568 -1.15888e-23)
(0.961293 -0.0123456 1.09593e-21)
(1.05817 0.0463972 -3.22271e-21)
(0.998858 -0.0014632 5.99806e-23)
(1.00395 -0.000915461 1.41532e-22)
(1.00145 -0.00119957 -1.25397e-23)
(1.14038 0.031332 3.4909e-21)
(1.24328 -0.0441203 -3.45248e-21)
(1.04225 0.139436 1.08855e-20)
(0.998142 -0.000303917 -1.12162e-22)
(1.07748 -0.0446141 -6.54442e-22)
(0.999867 -8.25943e-05 -6.96784e-24)
(1.00575 -0.00866897 -4.85428e-22)
(0.999937 -1.66076e-05 -9.99941e-25)
(0.982994 -0.0271035 3.27677e-22)
(0.999597 -9.15599e-05 -1.44441e-23)
(1.01569 -0.0258537 1.13017e-22)
(1.24209 0.0202668 2.42937e-21)
(0.968001 -0.0368112 2.23442e-21)
(1.01176 -0.0258015 -4.61769e-23)
(1.01006 -0.00748454 -2.96871e-22)
(0.999149 -0.000162339 6.9016e-23)
(1.03199 -0.0198842 6.86114e-22)
(0.996784 -0.0234318 3.1624e-22)
(1.08816 0.0148818 -2.10016e-21)
(1.06936 0.0508796 3.63547e-21)
(1.21072 -0.13292 1.05413e-22)
(1.16792 -0.0492897 -1.48611e-21)
(0.979054 -0.00123674 -8.20441e-22)
(1.00597 -0.00432349 4.51943e-22)
(0.924696 -0.038038 -8.59933e-22)
(0.923109 0.0882053 -4.0509e-20)
(1.14609 -0.0524081 1.31909e-21)
(1.03183 -0.01184 -2.70908e-21)
(0.898979 0.0647334 -2.03046e-20)
(0.998206 -0.000231185 5.54589e-23)
(0.997955 -0.00115804 -3.55856e-23)
(1.1858 -0.0337459 -1.39388e-21)
(0.998774 -0.0025477 -3.68254e-23)
(1.01777 -0.0506767 1.47334e-22)
(1.00682 -0.00209569 1.5816e-22)
(0.996648 -0.000517645 -8.81546e-23)
(0.997551 -0.000432062 -1.38991e-22)
(1.03667 0.0291467 6.4665e-21)
(0.999922 -0.000182221 -5.55531e-25)
(1.00064 -0.000322449 -3.05406e-23)
(1.0001 -1.59192e-05 6.94174e-24)
(0.995879 -0.000815112 4.67144e-22)
(0.992704 -0.0115205 5.30185e-22)
(0.999979 -2.87965e-06 1.60865e-25)
(0.998715 -0.000304578 1.42757e-23)
(0.974472 -0.0225778 6.5075e-22)
(0.947143 0.0189148 1.08512e-20)
(1.01406 -0.0269973 -1.9971e-23)
(0.991784 -0.0152183 8.55448e-22)
(0.960456 0.0700267 4.63826e-21)
(1.00089 0.0282134 1.49246e-20)
(1.07677 0.00238507 -1.70293e-21)
(1.20836 0.0212747 4.45298e-22)
(0.927383 -0.00648937 2.76026e-21)
(1.00593 -0.0050033 -2.23561e-22)
(1.01007 0.0499519 -8.24397e-22)
(0.986242 -0.00281608 -1.01464e-21)
(1.04623 0.110097 3.05804e-22)
(1.01411 -0.0607072 1.93375e-23)
(1.05764 -0.137746 -1.34601e-21)
(1.09677 0.0925787 4.77884e-21)
(1.04911 0.116124 -9.60276e-21)
(0.955072 -0.0342714 3.09653e-21)
(1.04682 0.0111118 -3.47043e-21)
(1.1108 0.145499 1.1752e-20)
(1.06073 0.111175 1.38676e-20)
(1.02801 -0.00223319 1.99605e-21)
(0.996416 -0.00180371 1.02169e-22)
(0.995006 -0.0028019 8.91332e-23)
(0.999895 -2.96668e-05 -3.29558e-24)
(1.0216 -0.0330683 9.78528e-23)
(0.985837 -0.00236357 2.38555e-22)
(1.00122 -0.00285267 -5.8369e-23)
(0.999874 -2.98283e-05 -6.16936e-24)
(0.998105 -0.000858258 4.50771e-23)
(0.979432 -0.10147 -2.17209e-21)
(1.12191 0.0432748 1.82333e-21)
(0.978455 -0.00776289 -1.31139e-21)
(0.999537 -0.0152481 3.458e-22)
(0.995454 -0.000897489 -2.50899e-22)
(1.07433 -0.0480292 -3.99581e-24)
(0.99142 -0.00192018 -8.04164e-22)
(1.00303 -0.00887766 1.80739e-22)
(1.12415 0.138506 1.88891e-21)
(0.997813 -0.000410896 -3.22564e-22)
(0.999974 -5.61817e-05 -1.54387e-24)
(0.999937 -0.000219875 -8.80079e-25)
(1.00006 -0.000128449 5.90906e-24)
(0.973066 -0.0102569 6.02644e-22)
(1.03485 0.0267112 -7.65498e-21)
(0.995172 -0.000684042 9.89783e-24)
(1.02713 -0.0104742 1.75387e-21)
(1.04264 -0.164181 2.713e-21)
(0.996113 0.0898039 -4.52144e-22)
(1.00488 -0.00888504 1.60413e-22)
(1.00788 -0.00553241 -7.39908e-23)
(0.993899 -0.00315565 -3.23596e-22)
(0.993173 0.0619676 -2.32048e-20)
(0.998756 -0.000160142 4.61197e-23)
(1.04641 0.143704 -5.50133e-21)
(1.00915 0.0212456 -8.7346e-21)
(0.999862 -3.66101e-05 7.21669e-24)
(1.01161 -0.0619758 -1.03592e-21)
(0.996026 -0.000942641 -2.30794e-22)
(0.994384 -0.0782387 3.32555e-21)
(1.00067 -0.000173234 3.05791e-23)
(1.07131 0.00517205 2.41208e-21)
(1.00916 -0.0193879 -5.90155e-24)
(1.00738 -0.00503076 3.852e-23)
(0.998998 -0.000196706 -9.18096e-23)
(1.08033 0.050459 3.83218e-21)
(1.05321 0.0445374 1.25542e-21)
(1.01678 -0.0821725 1.71755e-21)
(0.975676 -0.0262977 -1.24386e-22)
(0.997512 -0.00457933 -1.24025e-22)
(1.00345 -0.0500299 -1.89551e-21)
(1.16141 0.0637088 -3.18259e-21)
(0.869633 0.0498617 -1.91744e-20)
(1.10846 -0.0848587 -1.44659e-21)
(1.00634 -0.00935474 -7.43222e-23)
(0.999992 -3.9108e-06 -4.73014e-26)
(0.983696 -0.00627314 -1.0514e-21)
(0.997313 -0.000472317 3.00472e-22)
(1.03054 -0.0202214 9.96127e-22)
(1.01815 -0.134229 -1.12226e-21)
(1.21769 0.00168044 8.87438e-22)
(0.985158 0.0848185 -2.85274e-20)
(1.06257 0.0429134 5.29225e-21)
(1.15272 -0.115029 2.3935e-21)
(1.08291 0.0927196 2.04038e-21)
(0.999538 0.0301171 2.74489e-20)
(1.02244 -0.00281601 1.46392e-21)
(1.00146 -0.00275956 1.34189e-22)
(1.02804 0.0677475 4.8554e-21)
(0.999007 -0.00248146 8.20222e-23)
(0.999785 -0.000204047 6.82348e-24)
(0.977322 -0.00259047 3.66716e-22)
(1.00011 -3.90417e-05 1.74224e-24)
(1.16459 -0.136602 1.38081e-21)
(1.00555 -0.0216634 -6.51581e-23)
(0.983074 -0.0445163 1.71064e-21)
(1.00224 -0.00188229 6.90197e-23)
(1.07672 0.0822699 1.09983e-20)
(0.997909 -0.000390171 -2.65915e-23)
(0.999971 -4.49573e-05 -1.51429e-25)
(1.04987 -0.144921 1.47903e-21)
(1.00199 -0.00162962 -4.04364e-23)
(1.12223 -0.00142437 -5.02967e-22)
(0.941451 -0.0204708 5.72024e-22)
(0.912972 -0.0252106 2.88459e-22)
(1.21931 0.06674 -6.52184e-23)
(1.02799 0.0215665 -2.88344e-21)
(1.02393 0.0063849 1.77574e-21)
(1.0224 0.00600682 -7.11256e-22)
(0.999758 -5.27029e-05 2.41009e-24)
(1.13064 0.0426532 1.38503e-21)
(1.08853 0.0195713 2.4418e-21)
(0.999393 -0.00078596 2.15356e-23)
(0.979472 -0.00841849 1.52356e-21)
(1.00072 -0.000249505 -3.40346e-23)
(1.01547 -0.0237254 -7.16841e-22)
(1.01237 -0.0343406 -4.73514e-23)
(1.00529 -0.00162989 1.12506e-24)
(0.999111 -0.00156458 -9.75521e-23)
(1.13852 0.103765 -8.84776e-21)
(0.999974 -2.691e-05 -2.54452e-24)
(1.00024 -0.000133367 -8.99992e-24)
(1.00235 -0.00127924 -2.95792e-24)
(0.971822 -0.00444747 1.01491e-21)
(1.02292 -0.0127647 1.23699e-21)
(0.981533 -0.0375335 -2.42214e-21)
(0.96494 -0.00697783 -5.92757e-22)
(1.02312 -0.0771154 9.74872e-22)
(1.06827 -0.172672 -2.924e-21)
(1.03453 -0.0352812 2.55233e-22)
(1.03267 0.0684622 -2.7667e-20)
(1.23171 0.0259583 -1.7664e-21)
(0.992086 -0.00323367 -4.17352e-23)
(0.902378 0.0937899 3.14239e-20)
(0.974136 -0.074139 3.63208e-21)
(0.992344 -0.0122396 1.66134e-22)
(0.965877 -0.00577677 9.73194e-22)
(0.998139 -0.0225564 -9.21384e-23)
(0.973648 -0.00322369 1.55391e-21)
(0.987832 -0.00494073 -3.06507e-22)
(1.03235 -0.0139408 -1.87165e-21)
(1.15591 -0.0558648 -3.15012e-22)
(0.999969 -5.23905e-05 -2.17148e-25)
(1.0279 -0.0137883 -2.08311e-22)
(0.999885 -3.64644e-05 -3.50922e-24)
(1.01211 0.101869 5.59654e-21)
(1.16239 0.0888873 5.87481e-21)
(0.994261 -0.0024074 1.02386e-22)
(0.982578 -0.00224533 -1.39799e-21)
(0.999778 -6.51952e-05 -1.76412e-23)
(0.998768 0.0548179 1.72487e-20)
(1.03529 0.115039 1.2827e-20)
(1.13362 0.0334368 -1.85512e-21)
(1.14574 0.131438 -7.24062e-21)
(0.974507 -0.0787279 -1.57173e-21)
(0.998584 0.00901286 -2.61098e-20)
(0.999927 -0.00016122 3.30671e-24)
(1.05824 -0.0286999 2.1704e-21)
(0.976839 -0.0019767 -5.66379e-23)
(1.10478 0.079186 -2.21397e-21)
(0.931399 0.0648547 -2.46526e-20)
(1.16573 0.0561849 3.56787e-21)
(1.05637 0.0355964 8.86377e-22)
(1.00036 -0.0150738 -5.63017e-23)
(0.999762 -0.000101593 -1.61527e-23)
(1.14808 0.115449 2.99705e-21)
(1.2287 -0.0227833 5.07839e-22)
(0.996001 0.0651933 -5.36805e-22)
(1.1141 -0.00322953 3.37591e-21)
(1.03546 0.0554818 8.15616e-21)
(0.991598 -0.00289225 -1.43229e-22)
(0.992225 0.0850253 7.73583e-21)
(1.03961 0.109471 4.51157e-21)
(0.989225 -0.00415987 -8.58799e-22)
(0.991037 -0.00385784 -3.18901e-22)
(1.15948 0.10465 1.06386e-22)
(0.909361 -0.0234092 -3.92249e-21)
(0.999901 -0.000187183 -5.13992e-24)
(0.984515 -0.00676575 1.35275e-21)
(0.91721 -0.0327367 2.88496e-21)
(0.993054 -0.0977814 -4.59945e-22)
(1.01133 -0.0028318 -1.27439e-21)
(1.01005 -0.0067924 8.16722e-23)
(0.999854 -0.000233049 -9.61263e-24)
(1.03768 0.121118 -1.92843e-20)
(1.00074 -0.0136688 9.1308e-24)
(0.999879 -7.18699e-05 3.10841e-24)
(1.03231 -0.0707719 1.09187e-21)
(0.99942 -0.000516685 1.91385e-23)
(0.999737 -9.08876e-05 1.22613e-24)
(1.00664 -0.014346 -8.53227e-23)
(1.06422 0.082307 1.50981e-20)
(1.03729 -0.13014 2.02046e-21)
(0.950971 0.0655265 1.43781e-20)
(1.00008 -1.17667e-05 -4.86658e-24)
(1.0701 0.0862625 -1.57253e-20)
(1.0221 -0.0612704 8.25715e-22)
(0.999911 -0.000229466 -1.45659e-24)
(1.00003 -7.46893e-06 -1.55297e-24)
(1.00289 0.0119497 -1.44027e-21)
(1.05932 0.0713422 5.65662e-21)
(0.995363 -0.00295391 8.87046e-23)
(1.05435 0.0558329 -7.3577e-21)
(1.00003 -2.41353e-05 1.11203e-24)
(1.05449 0.0618177 -1.01714e-20)
(1.19469 -0.138014 3.31077e-21)
(0.988625 -0.0037337 9.44973e-22)
(0.999261 0.0144535 -3.54968e-20)
(0.973965 -0.0617696 2.4084e-21)
(1.14998 0.124915 7.02862e-21)
(0.967514 -0.00574959 5.95831e-22)
(1.05963 0.0651077 1.32557e-20)
(1.06478 0.0749506 -4.09464e-21)
(0.980573 -0.0103704 2.19977e-21)
(0.974358 -0.0128277 -1.62045e-21)
(0.994357 -0.0121527 4.95301e-22)
(0.996702 -0.00088076 -7.57938e-23)
(0.999767 -0.000226899 1.855e-23)
(1.00045 -0.0130959 -1.66959e-23)
(1.05028 0.103877 -2.28646e-21)
(0.999967 -4.11194e-05 6.53701e-25)
(1.04931 0.0533423 9.73144e-21)
(1.05485 -0.127382 3.17378e-21)
(1.00727 0.0682077 6.72806e-21)
(1.04895 0.0481802 -1.10843e-20)
(0.913541 -0.0307493 -3.5286e-22)
(0.957993 0.0837678 -3.00882e-20)
(0.998181 -0.00138181 6.43784e-24)
(1.02099 -0.0303713 3.02022e-22)
(1.07252 -0.0880359 7.9037e-22)
(0.974825 -0.00303064 -9.52367e-23)
(0.99257 -0.00406181 4.24876e-22)
(1.01893 -0.0632833 -7.37348e-22)
(1.06537 -0.0183831 -2.24338e-22)
(0.910596 0.0586063 3.86288e-20)
(1.00005 -2.27367e-05 5.29435e-24)
(0.997849 -0.00147471 8.63583e-23)
(1.03149 -0.0911372 5.17978e-23)
(1.00002 -6.00507e-06 1.93998e-25)
(1.01286 0.108421 2.75185e-21)
(1.00202 -0.00140982 0)
(1.00001 -7.96742e-06 1.48279e-25)
(1.00023 -0.000103702 2.11421e-23)
(1.00046 -0.000144324 4.24409e-25)
(0.983297 -0.0253373 1.63438e-21)
(1.02768 -0.0190987 -7.16405e-22)
(0.998263 -0.00107806 1.35978e-22)
(0.9999 -2.06819e-05 6.53033e-24)
(0.992068 -0.00380979 2.36125e-22)
(1.00589 -0.014969 -6.15713e-23)
(1.00503 -0.144822 -3.06757e-21)
(0.920919 -0.0103265 2.79319e-22)
(1.02204 -0.0114019 2.16708e-21)
(0.999969 -3.29372e-06 2.01941e-24)
(1.14439 -0.170047 4.12665e-21)
(0.984742 -0.00471427 -5.42094e-22)
(1.14552 0.095976 -4.7654e-22)
(1.00028 0.0115431 -4.90562e-21)
(1.00151 -0.00415627 3.12456e-23)
(1.13247 0.0846307 -8.3373e-21)
(1.00018 -0.000112186 -1.17701e-27)
(0.985499 -0.00527909 1.58542e-23)
(1.02691 0.00101243 -3.61662e-21)
(0.992614 -0.00462203 -1.73996e-22)
(1.06617 0.0970683 -9.05979e-22)
(0.985445 -0.00824523 -1.02163e-21)
(1.05964 -0.0255138 -1.89244e-21)
(1.0273 0.00178523 -3.88535e-21)
(1.06846 0.0451771 -2.24425e-21)
(1.00943 -0.0177697 -3.33517e-22)
(0.988474 -0.00531727 2.54721e-23)
(1.08997 0.0813811 6.76019e-21)
(0.985414 -0.108346 -2.62067e-21)
(1.00055 0.107057 2.30721e-20)
(0.989861 -0.00599953 -9.94163e-22)
(1.07029 0.123571 -1.47084e-22)
(0.989822 -0.00526012 2.65566e-22)
(0.998704 -0.000618985 -8.85294e-24)
(1.05586 0.0319061 2.49278e-21)
(1.01962 -0.0349006 -4.26361e-23)
(1.04139 0.00420159 5.38703e-21)
(1.00208 -0.000984537 4.49772e-23)
(1.00002 -6.27439e-06 6.91039e-26)
(1.02385 -0.16316 1.13977e-21)
(1.1221 0.131868 -1.0355e-20)
(1.00179 -0.00403134 -4.31448e-23)
(1.1421 0.0865867 7.79979e-22)
(0.986261 -0.00767517 -6.68545e-22)
(1.13473 -0.180115 -1.61907e-21)
(1.05815 -0.0450712 -2.25914e-23)
(0.981233 -0.0399483 1.36235e-21)
(0.998131 -0.00120483 -5.74835e-23)
(0.990086 -0.00132636 -2.01354e-22)
(0.975478 -0.093472 -1.51298e-21)
(0.964891 -0.0124642 2.2328e-21)
(0.989179 -0.00491007 7.02605e-22)
(0.999837 -0.000526633 8.18266e-24)
(0.993127 0.112868 -2.84355e-21)
(1.12919 0.0758611 5.05384e-21)
(1.02865 -0.0115685 -6.71841e-22)
(0.999776 -0.000176601 1.24164e-23)
(1.03696 0.103524 -8.69048e-21)
(1.00001 -2.88559e-05 2.96492e-25)
(0.999793 -0.000157457 2.45902e-23)
(1.11998 0.0743369 4.43978e-21)
(1.01396 -0.0294361 1.80311e-22)
(1.13144 0.119416 8.441e-21)
(1.02692 -0.00290516 1.51039e-21)
(1.02022 -0.0143713 -1.46621e-22)
(1.11756 -0.0678724 7.7239e-22)
(1.08626 -0.154274 3.23179e-21)
(1.21981 0.0584366 -2.27492e-22)
(1.00146 -0.00100916 -9.87843e-23)
(0.943974 -0.0222672 -2.21699e-22)
(0.999979 -6.88129e-05 -4.54331e-25)
(1.0062 -0.0130466 6.07666e-23)
(1.07038 0.0928107 5.61733e-21)
(0.981635 -0.00969096 1.53569e-21)
(0.996888 -0.00176256 1.19785e-22)
(1.02118 -0.0486244 -4.33343e-22)
(0.997811 -0.00130154 8.23676e-24)
(0.999565 -0.00129538 2.51831e-23)
(0.90288 0.013644 6.88922e-21)
(0.989242 -0.00646575 -5.62739e-22)
(0.999394 -0.000858038 -7.45e-23)
(0.99998 -7.34832e-07 -4.18499e-25)
(1.0189 0.00746405 7.74217e-21)
(0.968842 -0.0343753 -3.38395e-22)
(0.999638 -0.000647497 2.22827e-23)
(0.996892 -0.00102483 1.54499e-22)
(1.02563 0.0238559 3.15864e-21)
(1.07651 0.0142615 5.63897e-22)
(0.954685 -0.0312991 -1.92275e-21)
(1 -1.83351e-05 1.29887e-25)
(1.00118 0.0117213 2.08554e-20)
(0.984688 -0.0219516 -1.11196e-21)
(1.07658 0.0752478 -1.10481e-20)
(1.01461 -0.00140137 -1.92906e-21)
(1.01685 -0.00141471 4.39959e-21)
(0.962836 -0.0155767 3.04145e-21)
(0.999892 -7.62592e-05 -2.03409e-24)
(1.02658 0.000455692 -7.0655e-22)
(1.08215 0.0115846 -7.75829e-22)
(1.19665 0.0630826 2.12392e-21)
(1.06168 -0.119946 6.54877e-22)
(1.04683 0.0981505 6.83957e-21)
(1.00651 -0.00194517 -3.12143e-23)
(1.09716 0.0853096 -9.28854e-21)
(1.00061 -0.0176208 -9.72009e-23)
(1.02713 -0.0684727 -1.9859e-21)
(0.999563 -0.000194887 -2.41804e-23)
(1.00487 -0.0231677 1.26056e-22)
(0.999886 -0.00050483 3.06586e-24)
(1.0519 0.038832 -7.36877e-21)
(1.09017 0.132275 -1.95297e-20)
(0.998356 -0.00142148 4.5729e-23)
(1.0219 -0.0144359 3.71737e-23)
(0.979793 -0.00585396 5.28761e-22)
(1.064 -0.103299 2.73881e-22)
(1.05823 -0.110913 -1.5894e-21)
(0.99792 -0.00102798 9.0704e-23)
(1.05442 -0.0296928 -7.43022e-22)
(0.911507 0.00399069 -1.16379e-20)
(1.1933 0.0437413 1.25383e-21)
(0.99994 -0.000195641 7.1411e-24)
(1.07142 0.0109896 -2.02743e-21)
(0.996977 -0.0109856 -2.40815e-22)
(0.995211 0.0023482 2.47627e-20)
(0.986235 -0.00671442 9.29795e-22)
(0.996834 -0.0329553 -2.9918e-22)
(1.02369 -0.0426731 -3.4288e-23)
(0.99524 -0.0341925 -4.68152e-23)
(0.999489 -0.0260439 -6.65341e-22)
(0.991535 -0.00413369 1.62813e-22)
(0.999547 -0.0175119 3.5734e-22)
(1.00239 -0.00751586 -4.90613e-23)
(1.0673 -0.0224776 5.1628e-22)
(1.00012 -2.93392e-05 -1.35321e-23)
(1.23194 -0.090692 -1.27272e-21)
(1.17962 0.00011196 2.66962e-24)
(1.02473 0.118548 1.58259e-20)
(0.957036 -0.0295267 2.91504e-21)
(1.12232 0.115032 -4.30961e-21)
(1.00222 -0.000765945 1.59904e-22)
(1.09104 -0.084277 -3.31858e-23)
(1.00857 -0.0470737 -7.0967e-22)
(1.02216 0.0412555 9.1057e-21)
(0.992146 -0.00499836 4.0347e-22)
(1.00012 -0.000216029 8.92651e-24)
(0.985594 -0.0228186 1.45006e-21)
(0.995346 -0.0117969 -1.87783e-22)
(1.05078 -0.0270721 1.59311e-21)
(0.966778 -0.00951499 -1.88865e-21)
(0.97294 -0.0119989 5.34875e-22)
(1.14878 -0.0320209 1.1908e-22)
(0.983018 -0.00378178 -9.19247e-22)
(1.0208 -0.0449413 2.70774e-22)
(0.995783 -0.103383 1.87676e-21)
(1.00001 -9.59571e-06 1.25505e-25)
(1.06842 -0.0136537 2.91532e-21)
(0.996745 -0.0924545 -4.96437e-21)
(1.12828 0.100475 4.00591e-21)
(1.11898 -0.0760875 -1.52671e-21)
(1.03965 0.00360732 4.56359e-22)
(1.04517 -0.124345 -4.08758e-21)
(1.04767 0.128621 4.1929e-21)
(1.04386 -0.0405928 4.79717e-22)
(0.96109 -0.0144266 -1.80003e-21)
(1.02176 -0.0568512 -9.37704e-22)
(0.959796 0.00571045 1.10537e-20)
(1.19251 -0.100438 7.53416e-22)
(0.985433 -0.00625325 -2.82579e-22)
(1.05214 -0.15642 -3.19743e-22)
(1.03883 -0.0795356 1.3371e-21)
(1.06876 -0.140635 -6.1108e-22)
(1.05996 -0.0953601 -1.59225e-21)
(1.08932 0.074138 8.60311e-21)
(0.99692 -0.00202537 7.90633e-24)
(1.00864 0.0471823 3.40077e-21)
(1.00874 -0.00184704 2.28869e-22)
(0.999566 -0.000654966 -3.19535e-23)
(0.998704 -0.00282534 2.26e-22)
(1.06678 0.0033311 -7.28247e-22)
(0.86103 0.00480609 3.34661e-22)
(1.00199 -0.00804408 2.5611e-23)
(1.02665 -0.063462 2.85362e-22)
(1.02581 0.0272814 -5.24575e-21)
(1.00003 -8.80079e-06 -2.69651e-25)
(0.975697 -0.0120304 1.29227e-21)
(1.0256 -0.0108375 1.55721e-21)
(1.0904 -0.0430259 5.43516e-22)
(1.00888 -0.000944375 1.28406e-21)
(0.998247 -0.00252148 4.134e-23)
(0.983506 -0.050694 2.8884e-23)
(0.997753 -0.0105397 -7.06819e-23)
(1.00004 -7.05258e-06 2.91902e-24)
(0.976651 -0.0603185 -4.0609e-21)
(1.05645 0.0912994 -2.418e-21)
(1.02538 -0.0369796 1.44743e-22)
(0.980736 -0.0066138 -9.89395e-22)
(1.00202 -0.000515002 -5.74052e-23)
(1.0292 0.0292637 6.91171e-21)
(0.999577 -0.000794919 -1.47075e-23)
(0.998617 -0.000811506 -4.59022e-24)
(0.9996 -0.000213186 -2.20579e-23)
(0.999198 -0.00265681 -5.65982e-23)
(1.18327 0.0639504 2.1351e-21)
(1.03605 -0.0413787 4.51717e-22)
(1.01024 -0.0224215 1.00391e-22)
(0.97944 -0.00976921 -4.51695e-22)
(1.00005 -6.35705e-05 2.78163e-24)
(1.10794 -0.143386 4.326e-21)
(1.22901 -0.00568561 8.52337e-23)
(1.11714 -0.153928 -2.08569e-21)
(0.998831 -0.041899 -5.6063e-22)
(1.01589 -0.0107904 1.45577e-21)
(0.999763 -0.000124156 1.01988e-23)
(0.987262 -0.0148539 -5.81168e-22)
(0.952348 -0.0633453 -2.36201e-21)
(1.18196 0.045495 3.73986e-22)
(1.00567 0.0661669 -2.42972e-22)
(0.998752 -0.00399893 4.56167e-23)
(0.933197 -0.0454666 1.31788e-21)
(0.994722 -0.00350502 -3.86311e-22)
(1.04115 -0.037509 -5.50411e-23)
(1.10277 0.071074 8.63107e-22)
(1.00049 -0.000166268 -4.79264e-23)
(0.999825 -0.000268126 -3.7809e-24)
(1.1573 0.111414 7.90396e-22)
(1.17746 0.0254749 -4.63416e-23)
(1.02126 -0.0179757 5.28723e-22)
(0.996708 -0.00220942 2.03952e-22)
(0.997657 -0.000585963 -2.01927e-23)
(0.961505 -0.0638337 5.7789e-22)
(0.999807 -0.000440735 -1.24806e-23)
(1.02294 -0.0392576 8.33427e-23)
(0.984601 -0.00185876 1.89499e-21)
(1.00043 0.0136289 -4.07143e-21)
(1.06084 0.0970025 -1.25542e-21)
(1.08415 -0.0781956 5.96479e-22)
(1.00192 -0.0925097 1.83736e-21)
(1.00726 -0.0017121 6.36745e-22)
(1.01832 -0.0293695 -4.29318e-22)
(1.16945 0.00715445 9.64754e-22)
(1.00248 -0.103235 -1.15381e-21)
(1.02519 -0.0543948 5.27051e-22)
(0.999998 -9.28129e-06 4.30491e-26)
(1.15609 -0.0100121 2.37974e-22)
(0.969465 -0.00386757 1.79129e-22)
(1.00273 -0.115061 2.30102e-21)
(1.02448 -0.0339721 -6.10047e-22)
(0.946742 -0.0210331 -4.03317e-22)
(0.999552 -0.000373636 -1.07824e-23)
(0.996652 -0.00165201 -9.1018e-23)
(1.04432 0.045936 8.56008e-21)
(0.964808 -0.0145446 -6.83662e-22)
(0.999983 -2.64592e-06 4.42189e-25)
(0.996775 -0.000684631 -2.13516e-22)
(1.18671 -0.0845237 -4.73936e-21)
(0.999813 -6.43859e-05 2.58447e-23)
(1.03015 -0.0606603 -1.69959e-22)
(0.999945 -0.000155641 -5.43954e-25)
(1.00817 -0.0166677 -1.64219e-24)