/*--------------------------------*- C++ -*----------------------------------*\
  =========                 |
  \\      /  F ield         | OpenFOAM: The Open Source CFD Toolbox
   \\    /   O peration     | Website:  https://openfoam.org
    \\  /    A nd           | Version:  7
     \\/     M anipulation  |
\*---------------------------------------------------------------------------*/
FoamFile
{
    version     2.0;
    format      ascii;
    class       volScalarField;
    location    "21";
    object      p;
}
// * * * * * * * * * * * * * * * * * * * * * * * * * * * * * * * * * * * * * //

dimensions      [0 2 -2 0 0 0 0];

internalField   nonuniform List<scalar> 
29659
(
0.0171419
0.219586
-0.0170656
-0.0681752
-0.00472769
-0.0718211
-0.0403559
0.0158603
0.00413689
0.000423126
0.0092926
-0.00933096
-0.000898488
-2.76088e-05
0.135097
-0.0115729
-0.000275475
0.048204
-0.00416752
-0.0201414
-0.00163642
0.00389451
-0.0173216
-0.00410467
0.964478
0.218175
-0.000970979
0.783851
0.120367
-0.00322705
0.0312416
0.0967671
-0.110025
-0.0134572
0.797758
-0.0155785
0.227268
-0.0521527
0.0114663
0.0110227
0.00094209
-0.0330933
-0.000236904
-0.0445276
8.78382e-05
-0.00291
-0.00826697
0.000193762
0.00669883
0.221528
-0.0614209
-0.0599542
0.100127
-0.0693031
-0.0113284
0.119014
-0.00669889
-0.00168893
-0.00961061
-0.036832
-8.97175e-05
-0.00404712
-0.0352756
-0.0137974
0.351008
0.910382
-0.0161342
-0.0166015
0.864
0.000982682
0.215946
0.639352
0.00456168
0.883666
-0.0149977
-0.00609368
0.0656066
-0.0461155
-5.9557e-05
-0.0317215
-0.0637583
0.297386
0.0171064
4.22653e-05
-0.0369144
-0.187283
0.41464
-0.000936693
-0.000865759
-0.0930603
-0.0449545
-0.0466975
0.00616466
0.0898356
-0.0957067
0.406456
-0.0589907
0.00102
-0.0770219
0.165144
-6.43862e-05
-0.0435553
-8.5774e-05
0.0644862
-0.0612458
0.180913
0.534821
-0.000830156
2.72504e-05
-0.107297
-0.109197
0.01447
8.96768e-06
-0.00296926
-0.000216941
0.619473
0.313574
-0.0219384
8.66958e-05
0.00534333
-0.11671
0.235032
-0.0526957
0.903472
0.00229087
-0.0242876
0.0548457
-0.0308511
0.00815969
9.97299e-05
-0.0416036
0.0575375
0.560736
-0.0780548
0.0639196
0.0303645
0.346322
-0.0443895
-0.186888
0.159521
-0.0159781
-0.080433
-0.0820533
6.56841e-06
-6.47969e-07
-0.00483499
-0.00774204
-0.0850286
-0.141647
-0.0213719
0.0492846
0.0240615
0.000934872
-0.000209904
0.317034
0.00110202
-0.0150232
0.316162
0.386918
-0.058736
-0.0611911
-0.0664003
0.125257
-5.93686e-05
-9.1716e-07
-0.0221009
-0.0792085
0.000160927
4.09073e-05
-0.0133565
0.000124838
0.0113059
0.326832
-0.0435212
-0.0930227
-0.00958011
0.00422991
-0.0452337
-0.00239738
-0.0439708
-1.30712e-05
-0.00990422
0.407443
-0.0154386
-0.18591
0.310742
-0.0120048
-0.0336547
0.00768233
-0.0031436
-0.00049768
0.00340705
0.922324
0.311522
-0.0257663
-0.0143914
0.751108
0.277883
-0.0947281
0.00239223
-0.0686764
-0.0928812
-0.00898752
0.00176633
0.32964
-0.0128362
0.0136941
-0.0843782
-0.109805
-3.71853e-05
0.668115
-0.00195881
3.4527e-05
-0.00101493
-0.0428954
-0.0179034
-0.00773469
0.013345
-0.00407226
-0.0953616
0.000127488
0.000985413
-0.00440124
0.149451
-0.0054462
-0.00280887
0.0999567
0.000312069
8.24647e-05
0.0105451
-0.0523183
-0.0399841
-0.00895763
0.213557
-0.0274718
0.0255364
-2.8933e-05
-0.00572907
0.00165459
-0.0640392
-0.168317
-0.00262256
0.000992398
-0.00293514
0.00562402
-0.0195284
-5.55556e-05
-0.177302
0.000156525
0.151892
-0.00646511
0.000347852
0.183982
-0.0925893
0.000557839
1.18181e-05
-0.0805329
-0.159973
-0.0167965
-0.0333782
0.0489326
0.389911
0.000200417
-0.049663
-0.0783525
0.769624
-0.0154757
0.306184
0.000354824
-0.000383091
1.11567
-0.00100516
-0.0975905
-0.0942536
0.00453776
-0.016041
-0.0155796
0.553949
-0.00662222
-0.0333785
-0.000445787
0.21985
-0.00599775
0.417108
-0.000940931
-0.0110618
0.709541
0.128787
0.0998357
-0.0595324
-0.000251985
0.00548249
-0.000293825
3.58036e-05
0.134176
0.000102407
-0.0361931
-0.0814816
0.976856
0.551874
-0.0816174
-0.0360821
-0.0380741
0.0142678
0.00493477
-0.0341878
-0.086842
0.399656
0.653797
-0.00243391
0.523852
0.130479
-0.0522843
0.0217123
-0.00368411
-0.0208315
-0.0102539
-0.00505763
-7.9027e-05
-0.0036685
0.00897845
0.216146
0.00333304
-0.0499332
0.0251874
-4.12915e-05
-0.0841202
1.03721
-0.0121456
-0.00274191
0.0231835
-0.0297691
0.15776
-0.00286604
-2.484e-05
8.70264e-06
-0.00509862
0.715415
0.0410261
-0.170358
1.31512e-05
-0.167922
0.0949396
-0.00975475
-0.0879337
-0.002499
-0.000810713
-0.046323
0.00194505
-0.0426296
0.0211301
0.0558525
-0.00027704
0.00392827
0.23288
-0.112073
0.000917576
0.00096891
0.604344
-0.0450428
-0.00310728
0.291821
0.790862
-0.0730349
-0.0149581
-0.00977223
-0.00145848
-0.0162204
-0.00647725
0.271524
3.00141e-05
0.0203426
-0.137698
0.576957
0.865612
-0.0116545
-0.0172267
0.365342
-0.0383113
-7.58543e-05
0.00621205
0.158035
0.160848
-0.0144277
0.0510622
0.756178
-0.160516
0.66497
0.604304
3.02845e-05
0.0105253
-0.149184
-0.00575206
0.00340061
0.799095
0.0407434
0.00063803
-0.0654179
-0.0948348
-0.0108433
-0.000189754
0.398301
0.307656
0.000165856
0.00844077
0.0111334
-0.126829
-0.0594229
0.000200266
-1.47884e-06
0.00108948
0.165691
-0.0517136
0.478157
-0.090859
-0.0349895
-0.0399253
0.285155
-0.0264909
-0.00236019
0.0165533
0.00181941
0.662706
-0.0478427
0.00232463
-0.0145352
-0.0111804
-0.0031105
-0.0238743
0.000542718
0.000551391
1.05341
-0.0157022
-0.0099682
-0.000857295
-0.00142248
0.364006
-0.139258
-0.0488628
1.55947e-05
3.05291e-05
-0.0493796
-0.0131595
-0.0101922
0.0349396
0.0127514
-0.00573211
0.0246483
-0.0334237
0.650576
0.00841682
0.000572854
-0.081058
-0.0461755
0.00153533
-0.00681245
-0.0484754
-1.35628e-05
0.852974
0.0397912
0.000230577
0.922518
-0.0503622
-1.45484e-05
0.0031049
-0.0832642
0.016644
0.0822912
2.51607e-07
-0.0155008
-0.018079
-0.0105254
-0.000901744
-0.0160511
0.76007
-0.0165222
-0.0231101
0.333784
-0.0055474
0.692961
-1.67262e-05
-0.032107
-0.0889493
-0.0476224
-0.0963187
-0.00310254
0.00216369
-0.000227546
-0.0367048
0.010576
-3.80396e-05
2.05437e-05
-0.0123263
0.669643
0.0138369
0.00527472
-0.0950003
1.25296e-05
0.00213758
-1.80364e-05
0.0182514
-0.0337149
-0.000735099
-0.0160726
-0.0240435
0.00223423
-1.78327e-05
-0.0707269
-0.000756353
0.0853246
0.51845
0.377583
-0.00914535
0.0125385
0.0524975
-0.000108213
-0.00727095
1.58198e-05
0.612691
-0.026839
0.0344594
-0.0324317
0.00317041
-0.00632171
-0.000162795
2.46325e-05
-0.00964493
0.0841355
0.393048
0.00268901
-0.073548
-0.0471398
-0.0154166
-0.018327
-0.00262497
0.00185014
-0.0110411
-0.000146254
-0.0858884
0.443362
0.290245
-0.0426603
0.434068
0.000231449
1.30664e-05
0.00878789
-0.00782884
0.891267
-0.0814306
-0.0401558
-0.00269999
0.00256549
-0.0115429
0.00104255
-0.020586
-0.0250815
1.93728e-05
-0.00176873
0.573776
-0.000222303
0.819624
1.62475e-05
-0.0777146
0.0799433
0.0302351
0.00229207
0.00044602
0.654522
0.0892419
-0.0905934
0.303707
-0.0136467
-0.0253675
-0.00810564
0.186267
-0.0487615
0.0178552
-0.0153867
1.36724e-05
-0.00259684
0.0122602
-0.033755
-0.0417263
-0.0778865
-0.0341083
0.196337
-0.00429377
-0.0934607
-0.0262556
0.000134024
-0.0231032
0.0129052
0.199817
-0.0512817
-3.68718e-06
-0.0350336
-0.00131107
0.00303849
-0.161692
0.476545
0.00199856
-0.022813
-0.0593386
0.132182
0.743446
0.00391121
-0.0101894
0.260263
0.259258
-0.0302197
0.0104126
-0.0851678
3.091e-06
-0.0723766
0.000224129
-0.0591014
-3.44646e-05
9.39767e-05
-0.01328
-0.0329619
0.474746
0.0136521
0.0235848
2.85813e-06
-0.0125654
0.000228386
-0.00650698
9.3225e-05
0.0883299
-0.000923365
0.275415
-0.000206213
-0.0244075
-0.0641988
-0.00848768
0.73604
-0.0312329
-0.0938551
-0.0112925
0.0883468
-0.0796098
0.0573759
-0.0411944
-9.81342e-07
-0.011064
-0.007934
0.000586614
0.000219827
0.175622
-0.00987903
0.144246
-0.00960716
0.00191299
0.0631966
0.00040165
-1.90304e-05
-0.0713129
-0.00701721
9.96873e-05
0.335881
0.991528
-0.00038002
-0.0619174
1.87605e-05
0.77587
-0.0839487
-0.0671643
0.000168944
0.0190875
0.109536
0.128437
0.0802143
-0.000741227
-0.000238248
-0.0296019
1.27055e-05
7.53835e-06
-0.0495704
-0.0577717
-0.0765864
0.938741
0.000479985
-0.0628915
0.0161313
-1.66568e-05
-0.00251049
0.000143381
-0.0124037
0.000120227
-0.038438
0.0555279
0.681947
0.085799
-0.000521907
0.00104143
-0.133836
0.141226
-0.00625864
2.74438e-05
0.27743
-0.182705
-0.079339
-0.0267368
-1.38456e-05
-0.00051577
-0.188926
-0.0426351
0.236727
0.649513
-0.0918406
-0.00254337
-1.37518e-05
-0.079274
-0.108618
-0.000362596
0.00426116
-0.0292209
-0.00941236
0.653931
-0.00261814
-0.00536373
0.0642502
-0.0152189
0.89717
0.904105
-2.36207e-05
3.43338e-07
-0.0307459
0.0324294
-0.0601815
0.0111657
-0.0147272
-0.00112725
0.74271
0.268701
0.00486436
1.10155
1.45978e-05
0.180829
-0.100312
-0.0619807
0.000257074
-0.062282
0.187817
0.0310142
0.116003
-0.00087631
-0.000939286
-0.0123748
-0.00694775
-0.0260002
-0.00215975
0.184245
-0.0122307
-0.0106143
-0.0956837
0.590871
0.00774567
0.0620857
-0.000775448
-0.00100272
-0.0377655
0.00218817
-0.00519327
-1.29781e-05
-0.000626414
0.188491
0.656228
-0.000218987
0.123115
2.2107e-05
-0.00672472
2.75129e-05
0.0114518
-0.0791009
-4.28651e-05
-4.50987e-05
-0.0931914
1.36334e-05
0.0814377
-0.0463313
5.82215e-06
0.256214
2.48331e-05
-0.000771314
-0.00013971
-0.010182
-0.00071004
-0.0121421
-0.115967
-0.000620155
0.00902551
-1.95414e-05
0.466659
-0.00741897
0.00493744
-0.0565568
-0.0408415
-0.00231013
0.00623488
0.332666
-0.0478107
0.203684
-0.0688832
-0.00694953
-2.25287e-07
-0.0113875
0.542568
0.284484
-0.0642673
-0.0847744
0.447572
-0.0163908
-0.0937664
2.69002e-05
-0.0481712
-0.00164686
1.06645
-0.0833235
-0.000135862
-0.0922396
-0.0490582
0.390277
-0.00512899
-0.0510064
-0.00778203
-0.0123847
-0.00254455
0.390159
-0.164873
-0.035614
-0.0281742
-0.0241725
0.0118121
0.441605
-0.0342758
0.307027
0.00581235
-0.0953189
0.836855
-0.0166493
-0.00042056
0.375058
0.589447
-0.0102887
0.00947169
-0.0133453
-0.0559483
0.265425
-0.0791987
-1.74185e-05
-0.0143042
9.74886e-05
-0.00880673
-1.92638e-05
-0.00953311
-0.00189644
-0.00630889
-0.115257
-0.00116165
-0.00096701
-0.00222357
0.327595
-0.00407825
-0.00640194
-0.00598796
0.263032
0.0108948
-0.000673147
0.526702
0.889864
-0.0353925
0.732704
-0.0312072
0.517047
0.0112491
-0.0271877
0.00535607
-0.000861694
4.63888e-05
0.00529593
-0.0218456
-0.0352343
0.298382
-0.04055
-0.0357841
-0.00176575
-0.106855
-0.0443354
0.0133105
-2.91502e-06
0.0151614
0.0648373
0.613193
0.0152026
-0.0239954
0.233188
-0.00060118
0.0688244
-0.0318573
0.00132881
-0.0912327
0.00565044
0.527254
-0.00391667
-0.000990561
-0.000140591
-0.0887682
-0.00242814
1.07594
1.11202
0.0234157
-4.02155e-05
0.0162544
-1.45347e-05
0.094081
-0.000972113
0.0414106
0.96301
0.00860453
4.95171e-05
-0.0146156
3.686e-05
-0.164989
-0.0592733
0.762456
0.00050235
0.0225547
0.00489797
0.000616177
-0.00415704
-0.000516345
-0.0107882
-0.0646676
-0.0401638
0.0111999
0.24978
-0.023395
0.0120231
-0.0354879
-0.00335557
-0.047463
3.15781e-05
0.000113917
-0.00393673
0.0512853
-0.055139
-0.0284602
-0.00651152
0.00512902
-0.0426478
0.213853
-0.0222062
-6.36388e-07
-0.0863862
0.694157
-0.0758411
-0.0210126
0.084928
4.64276e-05
-0.00116248
-0.0489943
-2.84346e-05
-0.000748727
-1.61638e-05
1.10277
0.0163771
0.00671696
1.23326e-06
6.56022e-06
2.50912e-05
9.54209e-07
-0.0386401
0.59194
-0.0592569
-0.000771092
-0.000238801
-0.00976261
0.767555
-0.0875553
0.666885
0.0209649
0.225871
-0.000106478
0.76168
-0.0038212
-0.0161799
0.00718262
0.0131819
0.0153801
0.294799
-0.0678192
0.750311
0.387298
-0.0143364
-0.0487605
-0.00660432
-0.0495981
2.95163e-05
-0.00156214
0.00498243
0.115839
-0.0112713
-0.0388393
-0.00565443
0.925293
-0.114848
-2.24259e-05
-2.46555e-05
0.772266
-0.00836989
0.0032486
-0.0222582
-0.00379152
-0.0259956
-0.0165712
-0.0717286
0.0784582
0.0278103
-0.0170449
-0.0242249
0.000203568
-0.00971584
-0.00223941
-0.0133347
-2.25339e-05
0.000143276
-0.0340566
-0.0342012
0.741045
-0.046536
-0.000260764
-0.00250559
-0.000472851
0.52836
-0.0684447
-2.40349e-05
-0.0480482
-0.00753028
-0.00597285
-0.0468792
-0.0533242
0.011433
0.0903793
-0.10264
0.00018192
0.0101184
-0.0220306
3.01627e-06
-6.88003e-05
0.18207
0.134052
-0.0320076
-0.0774938
-0.0854869
0.000960556
0.781997
0.000207162
-0.0289958
0.62474
-0.0281062
-0.0600601
9.57236e-06
0.000341069
-0.0599204
-0.0153014
0.00240092
-0.0520936
0.36056
0.27499
0.0012107
0.000507702
0.280352
-0.0205053
1.60689e-06
-0.00234717
-0.04544
-0.0359517
-0.0176199
-0.00382297
0.136766
3.42992e-05
0.119423
0.400982
0.000102262
0.0141338
-0.00066105
-0.12856
-0.0219706
-0.00101413
0.0437074
0.00041193
0.341259
0.00238478
0.0343445
0.0101571
0.981125
0.598194
-0.0834321
-0.0111935
9.37114e-06
-0.0549064
-0.0203519
0.220721
0.41672
-0.052
-0.0301505
-0.0242717
-0.00920933
0.221716
-0.000242817
0.725048
0.0370611
0.000106109
0.000103225
0.000202002
-0.0183623
-0.0253828
0.00115804
0.0387068
0.143241
-0.0769335
0.000818149
0.000154677
-0.0332853
-3.16877e-05
-0.00393611
-0.0159452
-0.000927324
-0.00291248
0.00618913
-0.00182849
-0.00518017
-0.0224092
0.599235
0.617351
0.053442
2.70902e-05
-0.000693413
0.382413
-0.000565384
-0.150715
-0.000230366
-0.0277043
-0.109791
-0.000223721
-0.00026572
-0.0457633
0.00201671
-6.58413e-05
-0.00173643
0.276182
-0.0475284
-1.36789e-05
0.137318
0.530746
0.539924
0.000981082
-0.142537
-0.0125357
0.690165
-0.0907796
-0.0930282
-0.0153257
-0.0172916
0.039301
-0.034508
0.543073
0.0992575
-0.000170529
-0.0721446
-0.0939523
-0.00508172
1.6391e-06
-0.00236627
0.326561
-0.000196831
-0.00870374
-0.00532926
-0.00151585
0.0122564
0.0402077
-0.000179127
-0.000124115
-0.0103878
-0.127494
-0.0482135
-0.100854
0.378805
-0.00309406
-0.000307479
-0.0497367
-0.0322623
0.0129987
0.0183225
0.000175798
0.101901
0.209781
0.0258797
0.0331037
-0.000771064
-0.0176613
-0.04219
0.00186527
7.62528e-06
-0.0124969
-0.00525379
-0.000907179
-0.0150276
-0.00106073
0.200686
-0.0119412
-0.173525
-0.0320992
-0.0141158
0.0159994
0.767011
-0.0570658
-0.000105175
0.757086
0.240797
0.010541
-0.00764924
0.0102349
-0.0331596
0.237633
0.000533083
-0.00424087
0.963674
0.458853
0.408158
-0.0591894
-0.00177588
-0.00155398
-1.38029e-05
-0.00164822
0.324555
0.116694
-0.0132924
-0.00818444
-0.000398634
-0.0623274
0.919241
0.640127
0.111674
-0.00365959
-0.0818358
-0.00700337
-0.000887262
-0.0303896
0.0158347
-0.0357867
-0.00457379
0.00130291
-0.120582
-0.128104
0.0412402
-0.0328181
-0.00688248
-0.0337965
-0.000216827
-0.00910056
-0.000844933
0.466271
0.000111693
6.56458e-06
-0.0417936
-0.0257828
-0.0373918
0.0526289
0.00013854
-0.115653
0.0836685
0.293884
1.04568
-0.00600608
-0.150539
0.0403572
-0.00265312
0.0340541
-0.000723612
0.0139636
-0.000187575
0.302119
-0.122613
0.0143214
0.147818
0.169514
0.00204856
0.00358404
8.50971e-06
0.656455
1.40855e-05
-0.058518
0.00051687
0.00230687
0.257317
0.143282
-0.101235
-0.0505361
-0.00532353
1.11252
-0.102225
9.62077e-06
-0.0202789
-4.66605e-07
-0.0229995
0.146309
0.299882
0.00127691
-0.0455393
-0.0122007
0.220588
-0.0289245
-0.0420416
0.932144
-0.0128375
0.00012109
-0.186894
0.97962
0.00223714
0.132617
-0.0576256
0.187508
0.00261164
0.0384003
-0.0962844
0.00683242
0.0748052
-0.0412587
0.189318
-0.0339631
-0.0253179
-0.000969421
-0.000982437
0.833987
2.21156e-05
-0.00757235
-2.10032e-05
-0.0104443
0.000539016
-0.00944523
0.294578
1.37808e-05
-0.00126074
-0.0100104
-0.182022
-0.032381
0.00161199
0.672112
-0.074017
0.256657
-0.0153401
0.230452
0.00874273
-0.000901439
-0.106414
0.00111366
0.855289
-0.0358519
-9.64295e-05
0.00310645
0.211153
-0.0145063
-0.000838775
-0.000110824
-0.120597
-0.00329627
-0.0128212
-0.0992155
5.64348e-06
-0.0881779
0.000644484
0.55495
-0.0134147
0.220518
0.00585847
-0.00474147
0.376
-0.0846161
-0.186628
-0.00562481
-0.12836
0.388654
0.396687
-0.0181858
-1.4258e-05
-0.0201172
0.00623838
5.16052e-05
0.0478523
0.618344
0.0168209
0.00220694
0.00875036
-0.0896812
-0.000172798
0.102584
0.0627204
0.095264
0.0176712
0.0367611
-0.000448195
0.26603
-0.114906
-0.188829
-0.00123805
0.0225297
0.208835
0.00115285
-0.0920026
0.329478
-0.0574384
-0.0936247
-0.0945234
-0.1359
-0.137644
0.0718932
0.338991
-0.146108
2.7458e-05
0.00119503
-0.0661725
-0.00225461
0.004542
2.00775e-05
-0.0073828
0.00537907
-5.72674e-05
0.0793432
-0.000607527
0.177197
-0.0440629
-0.00913732
-0.0088954
-0.0110162
-0.0905689
-0.00752194
-0.00128023
0.028554
0.108318
0.00586049
-0.0429104
-0.00377813
0.0386632
-0.0122227
-0.0250698
-0.0941946
-0.0206012
-1.00053e-05
-0.019783
0.754265
7.44507e-05
0.041511
-0.0725645
0.908692
0.0662327
-0.0601771
3.98057e-06
0.00234251
-0.116764
-1.16482e-05
-0.00345521
-2.13745e-06
-0.100202
0.00610155
-0.115965
-0.0298787
-0.000123458
0.421058
0.412013
-0.046673
0.000674294
-0.000175732
2.44021e-05
-4.70254e-05
0.78994
-0.00165599
0.00313898
0.0293205
0.00135783
-0.000713916
-0.0955483
-0.000236992
0.0596906
0.0017136
-0.00265634
-0.000896339
-0.0333585
-0.0540191
0.259107
0.0985713
-0.000167867
-0.0172285
0.000801267
-0.100762
-0.000738446
0.179716
-0.0137748
1.10345
-0.0240314
-0.00183084
0.104327
-0.0248571
0.545464
-0.0548358
-0.0146501
-0.0169291
0.0248112
-0.00470854
3.60361e-05
-0.0108899
0.465614
-0.0567622
-0.0041904
-0.0542343
-0.035241
0.226234
-0.000608091
0.410398
-0.00611112
-0.0882758
-0.000638954
0.017821
0.0617516
-0.0118775
0.472336
-0.00055904
0.045088
0.124709
0.000749014
-0.000119895
0.885038
0.0786345
-0.00173397
0.0399918
0.0207161
0.000231411
-0.10422
-0.0293309
-0.169071
-0.0140763
0.534536
0.00554161
0.113055
-0.000468997
0.638455
-0.0909522
-0.00690728
0.00843612
0.0427331
-0.0929826
-0.15884
-0.0112241
0.000111621
1.00728
-0.0296129
0.00118151
-0.0610653
-0.0516673
0.493752
0.00412433
-0.0214504
-4.45927e-05
0.0663895
0.0108672
-0.0501662
0.001169
-0.00454285
-0.0367367
7.07712e-05
-0.0681169
-0.00201028
-0.0195587
-0.0842509
0.458159
-0.0134966
0.013213
-0.0674779
-0.0428304
3.0137e-05
0.000254494
-0.00500608
7.33423e-05
-0.0147454
-0.0635452
-0.00266929
3.77613e-05
0.884021
0.00683813
0.000530423
-1.20817e-05
-0.00277583
0.465223
-0.0685085
1.01035
0.284467
0.0299304
0.440925
2.54101e-05
-0.0196098
-0.00105834
-0.00323613
0.298829
-0.0135942
1.00227
0.38999
-0.0751626
0.42178
0.011535
-0.018977
0.00311223
-0.071939
-0.00523162
-0.0681781
-0.0728961
-0.00397239
0.41037
-0.0131946
0.000239288
-0.00569918
-0.000832381
-0.0447177
-0.000172811
-0.00161721
-1.68271e-05
0.240424
-0.158086
0.423666
0.0372489
-0.00361771
-0.0461748
-0.0271195
0.103983
-0.00403603
-0.00136296
-0.0854619
-0.0604226
0.00999533
-0.05613
-0.00595992
0.005256
0.0024406
8.64206e-05
0.20051
-1.46949e-05
0.0800049
-0.00102213
7.04086e-06
0.00278735
-0.000835592
-0.00157477
-0.0216091
0.22766
0.224329
-0.0267256
-0.0169378
0.00402193
-0.00679671
-0.0136151
-1.47258e-05
-0.000601295
0.00101629
0.167922
-0.0118828
-0.0764373
-0.0716703
-0.00325247
-0.0342125
-0.0227384
-0.00224363
0.00726519
-0.0166277
0.368252
-0.0948324
0.00738377
0.00169569
-0.0511544
0.988728
-0.0134386
-0.00783806
0.0106058
0.117772
0.00553751
-0.00968944
0.411826
-0.000440782
0.0607365
-0.0328332
-0.0799094
0.00872537
-0.00499588
-0.00738112
0.0571601
-0.00481285
-0.000776222
-0.00378162
0.00350092
-0.000256873
0.0373559
-0.0125799
-0.00268655
2.36461e-05
0.243337
-1.80994e-05
-0.0443429
0.113521
-0.0342012
0.000268286
0.166351
-0.061527
0.265174
-5.48263e-06
-0.00531384
0.0678837
0.000291644
0.00680043
-0.00604525
0.0143523
-0.0279172
-0.0429968
-0.012554
-0.0035577
0.0135678
0.0286053
-0.0194609
-0.000205509
0.173927
-0.0533657
-0.00443174
-0.009297
0.000612242
-0.0880425
0.00013498
0.762937
0.286999
-0.000605047
-0.0288835
0.000181171
-0.00286476
-0.00788724
-0.0257209
0.244233
0.143071
0.00730999
0.0139504
-0.0955535
0.0477714
0.0157273
0.0174503
-0.0673848
0.0188798
0.294623
-0.0128023
0.617904
-0.00118223
-0.014586
-0.0687712
-7.65715e-05
-0.000952572
-2.97087e-05
0.614093
-0.0138116
0.000434388
-0.0208653
-0.00780316
-0.000384055
-0.0175785
0.3694
0.00140615
0.014895
-0.0421065
-0.000575312
-0.00609437
-0.00101925
1.01996
0.000336267
5.43052e-05
-0.00259121
-0.0195767
0.0280191
0.000819131
0.00958438
0.109387
-0.000130066
0.00284954
-0.0948589
-0.0111093
-0.0701202
2.59158e-06
0.000540889
-0.0209556
0.0431835
0.483958
0.135516
-0.0449967
2.82e-06
-0.0769999
-0.00343003
-0.0167584
-0.0162102
0.271031
0.725072
-0.000102277
0.22428
0.36276
-0.0128375
-0.0383939
-0.032434
-0.0219641
0.000194192
-0.0525996
-0.0115387
-7.84188e-05
-0.000648781
-0.002035
-0.00244981
-0.000825703
0.463802
0.446352
0.207699
-2.01788e-06
-0.0305642
-0.00746856
0.154282
0.77432
-0.000588253
-0.0266428
-0.0242016
0.345209
-0.025181
-0.0127834
-0.0252097
0.231146
0.000476976
-0.000577001
-0.0344623
-0.0630731
0.167289
0.0348588
-0.05795
-0.0325472
-0.00180783
0.0266053
-0.065369
0.00948907
-0.0522826
0.119714
-0.000390753
-0.000752628
0.10642
0.000325678
0.0157848
0.0433277
2.92505e-05
0.238325
-0.0141549
-0.00579614
1.05432
-0.0478341
-0.0143685
-0.0503821
-0.00362479
0.716515
0.00163056
0.993974
-0.000121751
-0.0365654
1.00819
0.00931666
0.70566
-0.00750145
5.95269e-05
-0.0377874
0.695161
-0.00201882
-0.00868489
-0.0106555
-0.00125377
-0.0282393
0.72522
0.145464
4.32553e-05
0.0264712
-0.00484919
0.0403156
-0.00110569
0.0315605
-0.0033739
-0.000535132
0.684455
0.728881
0.695742
-0.0663073
-0.0392226
0.000256299
-0.0723068
0.43704
0.019707
0.000394487
-0.0959506
0.000859922
-9.64729e-05
0.730726
0.000216901
0.00573206
-0.00246827
-0.0121264
0.706126
0.713215
0.751348
0.0159833
0.000731907
0.308658
0.0102918
0.0287466
-0.0118684
0.000127202
-0.00380955
-1.31814e-05
-0.00591157
-0.000911228
-0.00761657
-1.98336e-05
0.215676
0.00293558
-0.100486
-0.0121276
-0.0898743
-0.0211739
-0.000951069
0.504403
-0.0139981
7.31479e-05
-2.60173e-06
0.971205
5.74502e-05
0.0153803
0.0724106
-0.0233003
0.426262
-0.0068073
-0.0551366
-0.0473818
-0.000585817
0.000215799
0.396359
0.741693
-0.00194695
-0.02987
-0.000254805
0.714206
0.928621
-0.00181056
-0.00858669
0.026126
0.00414872
-0.03171
0.0001638
0.0136935
-0.0486105
0.0729123
0.4736
-0.0018917
0.0387899
0.0854761
0.0046794
-0.0564481
0.0380406
0.896729
0.241627
-0.0671054
0.71734
-0.000693272
0.772102
-0.00997734
0.60701
0.096976
-0.0065677
0.0428202
0.00332659
0.0238181
-0.091456
-0.00080933
-0.0300655
0.570618
-0.0343052
0.027792
-0.00186172
-0.0535911
0.229448
-0.0119722
-0.114802
0.0010259
-0.00469479
-0.0307637
-0.00273273
0.00272766
-0.011386
-0.000588975
0.00334384
0.591688
0.00295423
-0.0204383
-0.075519
-0.037418
-0.079281
-0.113625
0.00568254
2.73434e-06
5.16981e-05
0.361256
-0.079167
0.000112278
-0.0937599
0.253321
-0.0768333
-0.019254
0.000197913
-0.00239377
-0.058216
0.175747
-0.0117631
-0.000559863
-0.0580699
-0.0255336
1.01602
0.153986
0.0892126
-0.0675753
2.35399e-07
-0.0085878
0.0876518
-0.000418069
3.8616e-05
0.230264
0.131346
0.000891682
-0.00104607
0.00856168
-0.0528543
0.0136298
0.0104109
-0.0192381
0.000101064
0.278071
0.000849356
-0.000726783
-0.000237338
-0.000230889
-0.000141784
0.110871
0.00132674
-0.00352412
-0.0121395
-0.00625172
0.0377995
-0.00685126
-0.0522652
-0.0131798
0.638903
0.51046
-0.000560869
-0.00181375
0.126979
-0.000972435
-0.0280715
0.0540855
0.013651
-0.00116974
0.0273026
0.0533276
0.00179277
0.0934315
-7.81612e-05
0.00984415
-0.0323341
0.018128
-0.0185041
0.065225
0.000136892
-0.000233497
0.000446275
-1.52233e-05
-0.00194663
-0.0121728
-0.0160841
-0.0367727
0.0467336
0.0477104
0.0120852
-0.0859307
0.0135864
0.00718357
0.0170184
0.000107872
0.729981
-0.0103506
-0.0040455
-0.0472348
1.03005
1.35753e-05
0.035904
4.50454e-05
-0.0685715
-0.00798172
-0.0275417
0.229518
-0.00491432
4.33446e-05
0.121032
0.0958871
-0.00062707
0.0675671
1.19535e-05
0.222983
0.00783356
-0.0352576
-0.000120218
0.30126
0.0371203
-0.0251731
9.47357e-05
0.230146
0.438478
-0.00132744
1.66342e-05
-0.0449836
-0.0110665
0.00282373
0.0253291
0.777642
0.397308
0.000686236
0.414815
0.302576
-0.00344041
-0.0672355
-0.0482489
-0.0206296
-0.0735443
0.0576715
0.00111785
0.805394
0.186106
0.0158622
0.000197232
0.000883207
1.8884e-05
-0.000613514
-0.00335277
0.865803
5.06515e-05
0.104022
0.0348224
-0.00022146
0.779528
0.927058
0.264536
0.318681
-0.0712903
0.00320984
-0.000286153
-0.0134467
9.88013e-06
-0.00127668
-0.177842
5.3278e-05
-0.00235768
0.810833
-0.0141076
-2.17162e-06
0.866371
0.000653256
-0.0425781
-0.0860351
-0.00153144
-0.108512
-0.000232
0.115997
0.00427316
-0.0218087
0.00251543
-0.000720531
-0.000403615
-0.000213817
-0.179247
-0.0737236
0.208434
0.00354754
-0.0105547
0.292878
0.000133387
0.980529
-0.000570705
-0.100836
0.00290229
0.00212894
0.0654611
0.0685578
4.68889e-05
-0.0049906
0.000183519
-0.000749736
0.00113305
0.10833
0.0625676
0.449135
-0.0610144
-7.91701e-05
0.00026479
0.128844
0.425672
-0.00530714
-0.00753142
0.983047
-0.00328919
-0.0247757
0.00113105
0.0608804
-0.0607736
-0.0102394
0.213553
0.00174568
-0.000227438
0.00214949
-0.0535712
0.954157
0.731841
-0.0289582
-0.0507839
-0.0077678
0.00203313
6.93228e-05
0.0969546
0.243279
4.65868e-05
-0.0087182
-1.82763e-06
0.000231768
0.672372
4.74156e-07
-0.10047
-0.0764379
-0.128229
0.0887258
3.63462e-05
0.0123649
-0.00744889
0.607544
-0.0185257
0.00627974
-0.0366238
0.000863335
0.439688
0.289406
0.0131381
0.059023
0.818899
-0.0784324
-0.072795
-0.00222676
-0.00835919
-0.000372569
0.0235275
-6.05385e-06
0.22396
0.00368424
0.21802
-0.0425501
2.22731e-06
0.0668379
-0.000140906
3.18685e-05
-0.000831476
0.95424
0.911201
0.31919
0.000109083
0.153717
0.771131
-0.0010999
0.00154903
-0.0100688
0.0642057
0.697689
-0.0330556
0.159217
-0.00303947
-0.0769728
-0.08678
1.07068
-0.000653773
0.722617
0.112898
0.260157
0.000226676
0.0003208
0.0066861
-0.0107018
0.104246
-1.69883e-05
0.000120982
0.712872
-0.139796
0.000440216
0.752224
-0.00270742
0.00025192
0.544077
-0.00879128
-0.00177812
-0.0587048
0.120531
0.000452068
-9.78969e-05
0.00428472
-0.0047702
0.700779
0.947019
0.317125
1.04471
0.0443552
-0.0548293
0.831006
-4.19384e-05
-0.00381954
0.0645793
-0.00407921
-0.000713239
-7.779e-05
0.743561
0.0158832
-0.000703436
0.918391
0.0960058
0.162872
0.0539474
-0.00317422
-0.0248414
0.162633
0.0873435
0.727768
-0.029965
-0.000863977
0.669206
0.548535
0.0158018
0.473506
-0.0479326
-0.00922217
-0.0113438
-0.000693711
-0.000112559
0.681028
-0.0754249
-0.0194873
0.00104775
0.201752
-0.0373231
-0.024857
-0.00111041
-0.00475551
0.774822
-0.000882952
-0.0208654
-0.00350088
0.746834
-0.0233961
0.0245633
-0.00885892
0.00179349
0.199559
-0.0261013
0.808598
0.0216499
1.03933
0.34891
-0.0706766
0.0384574
-0.00204507
0.000109815
-0.0883463
0.71488
0.769162
0.885285
0.336102
0.691812
-0.000356736
0.826243
1.22548e-07
0.000124206
-0.0567841
0.899426
0.0625235
0.291145
9.06451e-05
-0.00249106
-0.114141
-0.0440144
0.703024
-0.000741403
-0.00905531
0.309385
0.00134358
-0.00499402
1.00288
0.0580343
-0.0546213
-0.19458
-0.000559767
0.0240243
-0.00370894
1.05373
0.0145587
0.00871602
0.0051203
-0.000225431
-0.0137992
0.24945
0.00617598
0.000204785
-0.128336
0.330334
-0.00168622
0.711762
-0.0907561
0.725636
-0.0399049
-0.027287
0.827532
-0.00626047
-0.0129577
-0.00040717
-0.00149097
-0.0744948
-0.0265421
-0.0426032
-0.0115302
-0.00502995
-0.134729
-0.0827577
0.710226
0.000390556
0.000994944
-0.0244115
0.141645
-0.140713
-0.0690815
4.26025e-05
-0.134554
0.0561035
-6.88765e-05
-0.10571
-0.10753
0.737547
-0.130623
0.696073
-0.0161507
0.104534
0.33812
-0.0407965
0.253749
-0.00203668
0.0823993
0.000742381
0.105059
0.242961
0.223868
-0.0334651
0.00736606
-0.000698507
0.230277
-6.11677e-05
-0.000100692
-0.00115157
-0.0155641
0.017339
0.0177272
0.582394
0.171018
0.965556
0.528331
-0.00172947
-0.0378684
-0.000134672
-0.0565386
-0.00140892
0.00695271
0.000841538
-0.0404944
0.441574
0.727728
-0.000284851
4.16102e-05
-0.000265038
3.26702e-05
-0.0106557
-0.000149941
0.143559
-0.0412446
0.241775
-0.113308
9.39763e-05
-0.0160731
-0.0460858
-0.0309007
-0.0190276
-0.0604702
0.0410428
-0.000143778
-4.69336e-07
0.00255669
-9.91711e-05
0.0794444
0.0183357
0.0455335
0.88506
0.0523472
-0.165635
-0.0991366
-0.000437961
0.0610696
-8.75696e-05
0.652839
0.119966
0.798817
0.000228851
-0.0378862
-0.00782018
0.0567057
0.08069
0.559455
-0.0087439
0.0308305
-0.00213449
-0.0229499
-0.00919915
-0.00698034
0.129523
0.00195684
-0.0104433
-0.023519
0.163158
0.0651024
1.21631e-05
-0.00095532
-0.00710313
-0.000639452
0.119747
-0.000707607
-0.0401815
0.156526
0.000127983
0.304116
0.000142073
-5.97269e-07
-0.109172
-0.024562
0.000249191
-0.0260376
0.00026784
0.841467
0.0146575
-0.0278419
0.794607
0.155057
-0.0360609
0.571767
-0.00311139
-0.00209332
-0.00232763
0.092865
1.11444
-0.00164365
-0.000612588
3.91898e-05
0.00926603
-0.00137033
0.0300047
0.00727623
-0.0240384
-0.0679027
0.0215606
0.0122217
-0.0216838
-0.000553492
-0.0491527
0.492957
-0.00201213
-0.0157699
-0.000210258
0.591762
0.0608404
0.49457
0.000574067
-0.000902242
-0.0276337
0.891703
0.176621
-0.0325519
-0.000100708
0.0365005
0.0704091
-0.0377161
0.234078
-0.0543099
0.0218538
-0.172209
0.563517
-0.0196098
0.310755
-0.00357774
1.04441
-0.0470644
-0.0125732
0.794212
-0.0490626
0.201713
-0.18565
0.229339
0.00761956
0.0576714
0.417828
0.0583222
-0.0547211
-0.0110364
-0.00876714
-0.0197098
-0.0226838
-0.00170345
-0.0656672
-0.0323221
0.00237594
-0.0749937
-0.094078
-3.35449e-06
0.0510107
-0.0104036
0.0297575
0.784482
0.447246
-0.0608549
-0.0813768
0.000621424
-0.0986581
-0.00519713
1.01032
-0.0403094
-0.0345891
0.447498
0.0561909
-0.0463333
0.189273
-0.0420801
-0.000657768
-0.0133631
0.011751
0.00085031
0.47069
-0.00303809
0.172875
0.287633
-0.00646586
0.307832
-0.128169
-0.000371831
0.00784706
0.0629049
0.354687
-0.00282996
0.0829681
-0.081125
0.0697881
-0.0264106
0.46953
-0.00545502
-0.101937
-0.00378603
0.000265854
0.697655
-0.00275133
-0.0401847
-7.07056e-05
0.264851
-3.15021e-05
-0.0567418
-0.00399055
-0.18484
0.000843497
-0.0119328
0.157815
-0.00443879
0.00116298
0.000821731
-0.004681
0.0293446
-5.78933e-05
8.0333e-06
-0.00969496
-0.0120487
-0.0264559
0.00957912
-0.0021191
0.0867635
0.0937176
-0.00138287
0.00127341
-0.000160841
0.683157
-0.00476147
-0.00798176
0.553302
-0.0212847
0.483858
0.0496055
0.738135
0.288267
0.128068
-0.00165092
-0.0130417
0.0934996
0.0242408
-0.00494351
0.000275205
0.00989576
-0.0604586
-0.00102997