/*--------------------------------*- C++ -*----------------------------------*\
  =========                 |
  \\      /  F ield         | OpenFOAM: The Open Source CFD Toolbox
   \\    /   O peration     | Website:  https://openfoam.org
    \\  /    A nd           | Version:  7
     \\/     M anipulation  |
\*---------------------------------------------------------------------------*/
FoamFile
{
    version     2.0;
    format      ascii;
    class       surfaceScalarField;
    location    "21";
    object      phi;
}
// * * * * * * * * * * * * * * * * * * * * * * * * * * * * * * * * * * * * * //

dimensions      [0 3 -1 0 0 0 0];

internalField   nonuniform List<scalar> 
44078
(
-595.007
670.606
-75.599
1069.28
-1076.07
6.78607
-334.249
380.887
-46.6381
221.364
-257.778
36.4148
-498.009
498.009
215.074
-260.404
45.3301
-385.328
372.355
12.9737
32.0086
-569.625
537.616
664.564
-833.999
169.435
-1009.38
1102.34
-92.9545
561.804
-152.19
-409.614
-533.656
535.461
-1.80522
-687.679
582.581
105.098
-859.806
868.863
-9.05715
279.994
59.9786
-339.972
384.632
-10.0899
-374.542
814.382
-666.913
-147.469
-419.543
416.346
3.19699
160.581
314.817
-475.398
289.434
-355.607
66.1734
-593.894
81.7082
512.186
724.854
-60.2902
49.2311
-383.48
136.379
-489.051
352.672
208.644
-83.7228
-124.922
1072.51
-3.22401
659.729
-680.851
21.1216
-297.41
30.9539
266.457
316.403
-36.4092
-443.824
543.828
-100.004
956.682
-246.884
-709.798
-682.8
770.577
-87.7762
250.695
-221.117
-29.5781
481.805
-75.2365
-406.569
98.8995
-396.31
261.598
-430.978
169.38
453.553
-601.616
148.063
290.705
-41.7053
-249
825.921
-981.093
155.172
1063.89
-237.972
-1018.37
1035.85
-17.4746
398.824
-87.109
-311.715
704.078
110.304
184.08
-312.025
127.945
1228.49
-777.718
-450.773
-591.026
147.202
536.166
-538.679
2.51331
230.476
645.571
-876.046
226.111
537.155
-763.266
-105.77
559.323
-389.572
180.405
209.167
-8.94408
-225.94
234.884
-674.663
-8.13707
237.214
-22.1399
423.292
-38.6604
-283.631
-61.3228
344.954
523.736
-499.316
-24.4203
-34.3417
-559.552
-465.932
46.4977
419.434
-294.653
-35.9311
330.584
799.483
17.5791
-817.063
-409.143
569.724
-15.844
-242.71
258.554
-222.205
483.803
-351.136
458.455
-107.318
255.263
212.105
-467.368
494.525
-121.018
-373.507
429.276
-50.5717
-378.704
-431.351
-17.0722
448.423
-986.835
-31.5355
1067.63
4.87673
328.815
250.888
-579.704
-245.886
548.302
-302.416
188.636
48.2577
-236.894
-430.564
380.614
49.9499
-388.581
390.741
-2.15966
303.664
-158.829
-144.835
-250.105
-58.481
308.586
-699.278
16.5325
682.745
404.916
-86.1053
-318.811
-250.062
250.062
70.0352
-762.517
692.481
-666.284
71.277
-947.211
848.238
98.9735
-319.418
-65.9104
-41.2709
229.036
-187.765
532.225
-121.629
-410.596
-644.435
-43.244
652.335
-69.7542
93.9352
82.2587
-176.194
-358.698
97.807
260.891
-306.334
56.2293
847.347
-621.236
579.014
-605.677
26.6633
219.292
-91.6775
-127.614
-387.236
156.533
230.703
-30.0287
257.45
-227.421
-846.783
847.627
-0.844283
-36.2888
-154.826
191.115
284.405
9.49363
-293.899
-711.438
12.1599
-262.773
281.206
-18.4331
778.719
20.7641
431.37
-642.478
211.109
203.751
-212.695
-765.096
830.568
-65.4724
668.02
-714.383
46.3638
74.6209
577.714
943.829
-846.981
-96.8482
-209.671
243.005
-33.3345
195.423
55.2721
352.316
129.174
-481.49
1009.1
-256.887
-752.213
17.2553
564.336
-581.591
-12.234
-587.751
599.985
541.619
-212.804
125.027
427.509
-552.537
-302.718
406.134
-103.416
76.7199
-814.821
738.101
-700.412
454.526
-13.3899
-203.189
216.579
25.8145
-861.612
835.797
-318.806
334.294
-15.4878
-19.8494
275.112
23.968
-891.074
867.106
-370.315
350.77
19.5452
-91.3224
-328.221
19.5838
-293.933
274.35
705.556
-787.316
81.76
726.048
-860.295
134.247
-159.246
343.327
178.587
125.077
217.488
-209.314
-8.17433
296.75
-321.344
24.5938
-134.207
565.577
630.437
326.244
158.164
94.8152
-252.979
274.053
-312.983
38.93
208.724
-252.822
44.0982
-30.4758
314.881
-357.649
-12.6657
1.94391
-183.548
181.604
217.99
-57.1073
-160.883
181.125
827.975
-198.072
-739.273
937.346
-101.082
-396.927
522.986
13.1799
234.615
-222.925
-11.6895
275.766
-213.375
-62.3913
8.65162
-225.456
216.805
-396.607
639.826
-243.218
46.8983
513.718
-560.617
984.137
-886.706
-97.4307
790.843
-787.078
-3.76525
-562.71
-247.207
809.916
-145.476
722.037
-576.561
452.825
-443.031
-9.79358
-251.281
8.81318
242.467
5.90933
-750.014
744.105
-180.939
-208.633
-243.592
230.286
13.3057
241.175
-19.8119
32.7716
1020.86
-572.447
-448.408
735.192
-933.264
-397.544
94.8252
10.7458
207.244
16.5633
-778.313
761.75
-90.3609
-856.851
415.842
-451.189
35.3475
-106.806
832.853
52.524
-736.78
684.256
-235.834
-15.447
274.053
15.1497
242.786
-257.935
-431.883
431.883
82.1586
680.447
-762.606
-311.858
49.085
-580.098
597.354
338.594
-307.919
-30.6745
-777.828
-63.2661
841.094
-154.064
452.793
-298.729
458.742
73.4822
430.004
-441.481
11.4773
265.692
-56.9689
-196.011
-346.027
542.038
499.914
-380.765
-119.149
-327.601
20.0553
307.545
786.292
-80.7363
-518.993
-81.5596
600.553
-661.014
661.014
-132.115
505.278
-373.163
96.5615
-321.257
224.695
-920.105
357.395
305.769
-356.266
50.4968
436.43
16.3946
793.111
-461.894
-331.217
929.74
-80.1169
-849.623
73.6072
145.684
-847.555
614.659
232.895
-32.759
276.489
-243.73
-204.663
222.839
-18.1762
-46.052
-487.604
875.535
-890.36
14.8255
-77.6696
428.976
-13.1337
789.279
-794.591
5.31196
244.227
-9.61241
29.9463
-239.617
822.12
-963.804
141.684
272.972
-338.87
65.8987
570.453
-570.453
899.935
-93.2213
-806.714
594.104
73.1046
-667.209
63.2825
-330.899
267.617
-208.746
280.299
-71.5529
-478.258
324.194
52.2435
737.036
-392.757
529.136
248.234
-174.627
-684.142
-176.153
484.975
-630.451
453.225
-500.726
47.5011
-905.98
1042.35
-136.365
-579.209
555.406
23.8031
506.758
-581.706
74.9484
129.803
740.461
-870.264
211.184
530.83
-742.014
723.354
505.136
322.526
741.368
320.969
-231.106
-89.863
-292.879
292.879
370.492
-401.365
30.873
-27.4022
1095.03
268.465
-321.712
53.2472
531.15
-484.251
-297.429
-562.376
551.382
-564.769
13.3877
-29.03
904.565
258.054
-290.813
-232.455
199.014
33.441
498.763
-587.457
88.6937
-197.534
959.123
-761.589
588.528
-81.77
772.346
-382.453
-389.893
337.726
-48.2916
471.979
548.877
-216.446
175.175
-743.837
59.6949
-943.121
37.1405
477.226
46.5103
-679.982
891.167
-704.418
-60.6776
183.451
-202.599
19.1476
-73.9952
915.279
-841.284
-38.0583
-817.79
855.848
179.972
-178.028
56.2715
164.851
-221.123
-7.41941
-365.798
373.217
328.061
-308.478
-612.916
216.309
-269.607
462.206
-192.599
908.567
-678.092
303.603
17.3662
293.337
10.2932
-303.63
-562.903
188.062
374.841
459.703
-29.6989
540.589
-736.6
-374.875
-13.7058
646.255
-746.158
99.9031
-186.359
137.539
48.8199
-656.052
638.9
17.1518
230.445
-215.295
70.6661
177.568
-744.133
826.292
-335.419
330.45
4.96886
67.9461
-362.227
294.281
254.33
-204.855
-49.4759
525.859
-328.269
-197.59
10.6212
-346.019
335.397
-496.839
484.605
-80.7436
306.959
-226.215
-662.858
161.313
501.545
-357.095
-30.1414
653.682
6.04733
444.371
-21.0793
-186.457
38.6127
147.844
-22.1236
733.155
-711.031
-862.108
991.911
319.173
-152.388
-166.786
677.294
-775.068
97.7745
425.601
346.745
706.15
59.8262
-765.977
818.109
81.826
561.576
-537.518
-24.0576
1093.74
-1012.33
-81.4085
2.43758
-292.599
290.162
298.031
-4.69403
69.1996
139.445
213.912
3.57628
196.922
-196.251
-0.671213
139.417
151.161
-290.578
-302.079
282.157
19.9222
-170.394
-295.119
465.512
418.559
-550.674
-316.98
197.922
-189.201
-8.72072
189.136
1010.91
-572.255
-438.658
525.644
-109.057
-416.587
160.453
507.567
79.9038
481.672
19.788
-698.767
715.555
-16.7881
42.4789
-545.633
503.154
-98.3069
-244.807
343.114
-447.782
38.7414
409.041
-140.219
-335.81
476.029
779.983
-1.26336
24.8347
186.046
-383.425
197.378
176.826
-257.57
-920.953
849.92
71.033
-292.461
305.258
-12.7975
675.869
-88.9164
-586.953
1047
-603.801
-443.197
196.24
-188.337
-7.90256
229.61
-120.112
-109.497
-420.216
417.634
2.58191
662.185
-30.6275
-631.557
-696.502
-2.26525
378.256
26.66
-583.374
462.097
121.276
585.05
-577.857
-7.19313
-855.761
44.4118
811.349
856.377
33.1973
-889.574
-424.151
283.932
-206.034
19.5779
-323.99
539.69
-215.699
-175.699
-56.7568
754.992
-793.05
-138.164
194.436
553.312
-179.626
-373.686
-123.371
-308.512
215.381
-215.67
0.288763
619.575
42.6095
683.317
-608.696
24.6768
-301.434
276.757
838.044
-876.591
38.5463
-319.521
11.602
958.775
-961.722
2.94654
44.6551
226.021
-270.676
680.159
-33.9044
571.525
-592.126
20.601
-827.983
853.798
195.129
-208.519
786.604
212.002
747.12
186.277
170.883
-357.16
-295.415
-5.97599
836.129
-85.2719
-750.857
586.198
-138.381
-447.817
252.818
-72.4129
79.273
415.252
71.9042
-280.651
473.715
-503.746
30.0317
141.214
-347.483
206.269
137.47
388.389
69.1091
860.631
653.17
-773.155
119.985
-22.2168
980.992
-266.766
-35.7847
302.551
-213.72
218.954
-5.23351
31.5707
157.065
47.8761
452.038
334.657
-342.076
-373.504
22.3675
-342.795
48.1418
838.328
-58.3453
62.0389
-242.323
180.284
-965.192
22.0709
-928.871
-36.3204
-486.033
59.1624
426.871
-738.05
907.294
-169.244
-228.919
-29.1672
258.086
-129.703
-75.7789
205.482
-133.601
-69.667
203.268
-165.032
236.531
-71.4995
853.468
422.427
-236.381
146.063
-11.7601
-567.449
-879.931
-41.0217
426.227
159.971
199.264
-523.255
200.806
-1107.17
906.365
19.7352
206.235
-225.97
-1.54436
-203.118
417.938
26.4332
89.0825
701.76
290.05
30.6921
-320.742
-474.918
599.945
728.878
72.7097
-801.588
-780.391
-6.92429
803.07
-856.352
53.282
313.683
-276.264
-37.4192
86.12
233.053
850.913
-864.911
13.998
978.824
-862.143
-116.681
939.346
-943.847
4.5015
-409.73
-173.644
-1.75547
-872.155
565.054
307.1
-178.209
160.453
17.7561
-245.647
385.064
139.23
91.0096
-230.24
756.012
264.978
-280.822
431.495
94.1489
784.207
-699.44
-84.7667
-52.3159
-128.251
-70.6172
198.869
-304.553
260.811
43.7423
862.816
-838.848
-20.9878
378.313
-357.325
-347.969
-9.67976
572.288
-582.857
10.5695
365.787
-327.138
-38.6492
-828.609
731.254
97.3548
-905.864
831.869
143.182
86.4271
-405.043
275.878
129.165
466.661
-453.317
-13.3435
620.816
-622.609
1.79313
517.966
-44.2511
-346.08
-125.043
471.123
25.0908
-291.857
-65.8169
-248.853
314.67
544.29
563.934
-1108.22
-900.86
849.224
51.6369
0.705138
-404.112
417.725
-13.6133
430.964
-399.202
-31.7621
673.859
-849.951
176.092
711.935
-883.66
171.725
-501.443
-161.415
-456.309
79.804
376.505
302.716
-5.89274
-296.824
-327.143
193.542
476.163
85.6406
-719.745
-108.864
12.481
184.441
-298.241
301.823
-3.58218
52.8116
-361.489
308.678
488.852
40.4562
-529.309
-236.186
300.612
-64.4255
-896.189
-19.6371
915.826
-160.375
-66.1997
226.574
5.85161
-850.418
844.567
804.702
-118.346
-686.356
308.666
144.591
-210.408
-874.868
-21.3203
808.792
41.1285
-0.0111717
550.92
-198.604
-519.425
-10.8747
530.3
-801.988
913.792
-111.804
312.887
-244.941
-403.926
305.619
-29.8436
590.612
63.0697
382.405
-241.191
278.989
514.122
-12.2055
24.2104
341.576
-769.009
70.4817
698.528
455.999
95.3824
-109.272
-56.6125
165.884
-851.8
-23.068
66.201
332.623
-189.583
229.03
-39.4471
42.8048
-278.991
-273.74
287.884
-14.1447
-17.3699
23.0898
-511.989
488.899
-611.77
-134.388
-19.5515
299.328
-279.777
-332.088
461.262
599.382
447.616
-1102.79
430.492
672.294
328.682
0.2483
-328.93
-201.217
-195.993
397.21
-524.099
556.108
-661.271
-19.5582
680.829
99.4635
83.0524
-182.516
-44.2561
799.248
839.504
-862.757
23.2534
807.385
-154.215
34.6751
-604.3
-322.229
-23.79
556.775
57.7065
-614.482
436.79
22.9122
-348.432
390.741
-42.3091
-854.014
-3.69951
857.714
-27.8212
-823.979
305.418
-285.136
-20.2823
625.216
-4.40007
586.082
-418.825
-167.257
-210.707
288.898
-78.1908
-79.6039
-293.9
-418.757
-47.1744
896.524
-184.589
-827.233
89.1827
-629.158
17.3887
-537.752
47.9923
489.759
820.546
-39.6221
-780.923
-274.844
109.812
3.15571
-356.235
353.08
863.663
-189.804
305.847
-3.13026
636.767
-65.2419
494.254
-5.40147
801.326
-712.244
-1045.14
-57.6425
444.398
22.2629
539.787
39.2272
722.619
-716.709
796.578
-38.7127
-757.865
189.739
-226.028
272.686
-11.8748
-117.677
209.272
-200.62
474.878
15.2982
-490.176
575.532
-94.5236
-481.009
-458.171
421.307
36.8643
128.819
672.507
9.58413
-71.2874
-777.648
848.936
66.8954
-673.738
606.842
223.181
-301.249
78.0676
-729.512
658.225
91.6816
713.021
-504.412
1048.7
238.356
-176.317
-282.607
-189.413
229.963
-40.5501
202.097
-263.072
60.9757
-178.559
317.789
-8.53955
-339.43
-50.9768
4.76817
-409.566
404.797
-47.4894
-161.228
-194.38
-27.6323
365.088
-337.456
-870.859
944.459
-73.6004
45.472
-527.928
482.456
54.218
-267.938
-755.681
105.961
649.72
343.905
-245.005
819.408
1.13752
-8.89367
222.721
-213.827
445.066
141.017
-122.187
-334.122
816.282
-201.623
-95.231
-914.15
605.509
-354.62
134.487
54.644
656.742
-586.707
494.524
-12.719
340.548
-34.7789
338.468
-420.779
82.3111
225.947
-272.301
46.3541
51.3344
245.432
-296.766
335.743
-506.136
-6.24099
761.956
-806.212
537.388
-62.5097
-107.971
739.469
-631.497
-268.271
301.665
-33.3939
-70.0017
293.183
199.729
-188.983
-279.161
10.8896
-1067.45
592.666
474.782
-35.8258
-77.7496
171.685
-307.895
293.549
14.3452
-675.984
692.547
267.222
-271.943
4.7215
-483.223
188.105
-507.765
-559.683
235.873
-277.578
847.157
-946.587
99.4304
-342.94
20.7113
488.602
-626.101
137.499
-2.83114
811.623
247.856
-282.676
34.8204
-303.291
-568.864
-37.0865
292.333
-25.1109
357.557
-116.767
-240.79
-20.3672
-850.072
870.439
-870.823
464.173
406.65
-55.3934
735.841
-460.487
41.7297
-152.526
-138.886
291.412
879.618
-833.373
-46.2449
390.046
-323.845
797.833
5.23665
108.095
79.8094
-187.905
-580.551
1024.4
-443.845
142.637
-190.415
47.778
-759.021
-144.965
903.986
132.504
225.053
853.499
-31.3793
813.469
-736.749
501.222
-421.949
7.44573
-250.156
69.4613
150.756
-220.217
306.137
244.783
-20.6328
-1098.2
619.196
479.003
8.75949
891.723
-60.5381
-831.185
-430.47
622.033
-191.563
57.1245
756.344
21.5652
-540.991
-590.493
-18.1679
608.661
433.794
142.69
-576.484
-264.784
-522.294
278.245
62.3031
-175.224
-74.8379
-405.666
352.252
53.4146
-781.62
319.725
199.602
-260.421
60.8198
218.439
-258.39
39.9504
428.844
-424.076
733.157
53.4258
-786.583
-201.443
46.6164
827.428
20.581
-848.008
-371.454
26.3935
345.061
118.639
860.184
-407.272
453.769
410.847
-72.3784
-954.604
99.7488
854.855
789.133
102.59
-33.9675
259.914
50.049
380.915
907.623
134.723
22.9337
-483.421
28.8376
-827.222
798.384
701.41
-772.711
71.3011
636.364
465.971
769.003
-56.0306
-712.972
191.713
-49.0756
76.0098
339.153
-415.162
-735.267
792.392
285.654
172.801
-242.654
167.684
74.9696
-111.252
-426.745
537.997
-31.3967
-212.195
1004.42
-573.93
51.3145
-280.233
205.431
-214.325
-105.74
-152.038
30.8237
820.09
-172.257
508
-606.965
764.057
-157.092
691.904
-714.028
-398.573
387.698
-443.092
-179.517
39.2369
348.613
-15.0094
-333.604
-46.2935
808.249
-505.252
-623.371
1128.62
287.207
-241.525
211.497
3.75598
195.973
-225.798
142.075
-885.369
909.04
-23.6707
-280.321
254.967
25.3545
72.6391
711.568
3.36222
765.641
634.858
-15.2825
-14.9589
-510.698
472.08
38.6186
933.1
17.1499
-950.25
-317.467
-53.9871
0.194912
-237.523
804.022
-70.865
529.007
-623.042
94.0352
-762.188
-84.5943
33.9727
279.71
896.875
10.7473
-490.174
440.376
49.7972
-950.464
-94.6796
41.0283
-400.331
359.303
-204.248
239.185
-34.9375
250.24
-48.1433
-39.4298
1050.29
-313.211
-737.076
579.525
-50.5183
61.4445
-261.055
-69.8444
-699.053
791.074
-92.0212
-54.1711
-20.844
239.283
504.532
-5.76849
92.7853
-870.614
-86.3496
208.721
-122.372
-201.024
213.675
-12.6508
-681.774
570.522
-455.727
478.817
343.675
46.3711
-459.559
424.311
35.2481
560.583
450.331
498.118
-459.734
-38.3835
492.346
-312.66
-179.685
-207.494
48.6651
349.212
-20.8286
-328.383
-233.42
44.0069
-292.284
272.435
-219.054
-636.707
-691.663
-81.4918
258.089
-58.4878
666.964
196.699
7.02717
223.259
817.201
-83.5737
-733.627
328.224
-141.942
646.823
-504.881
258.937
-288.104
-92.4407
526.235
-751.14
7.00651
-89.1043
-97.2544
500.01
-98.0869
792.096
-694.01
-193.882
225.441
-31.5597
-39.3738
-240.947
829.585
-737.903
218.665
-429.953
-412.36
842.313
866.432
-199.468
-44.9917
797.859
-752.867
597.279
-6.667
17.5818
-608.075
278.626
146.567
-425.192
-403.742
479.752
-24.4998
-314.645
339.144
-616.276
64.8873
551.389
-144.963
529.594
-384.631
-482.508
408.005
-482.229
74.2239
104.569
-172.849
68.2804
-164.603
350.88
-180.089
-194.786
736.15
-34.7395
102.221
581.096
-610.969
648.722
-37.7525
269.221
-288.772
-811.033
-51.7245
96.8286
-432.639
590.118
460.169
-615.736
172.644
422.588
-852.541
404.292
-681.85
28.6452
653.204
-223.239
266.581
-43.342
-816.304
886.695
-70.3913
-47.6934
-432.034
479.727
1005.36
-405.642
-599.718
-67.7363
-788.616
5.07571
300.342
-950.456
207.434
743.022
-857.685
-92.7702
-170.311
-7.89845
-777.772
731.478
-136.582
-299.439
436.02
-8.66677
-269.52
278.187
160.159
647.227
250.773
155.872
-406.645
-902.864
154.565
748.299
541.103
-580.857
39.7539
604.526
58.5819
-663.108
-45.3128
673.495
-639.906
-33.5892
352.314
-23.6325
-36.2782
235.453
-199.175
608.479
65.0164
12.8929
-793.284
721.531
-777.562
-179.746
249.207
327.639
164.707
147.546
-327.635
201.215
-204.396
3.18173
338.591
-198.076
-140.515
592.214
42.6437
-748.871
801.521
-52.6491
-427.711
-90.5806
518.291
-7.86285
-290.378
267.081
59.4993
-326.58
244.973
-96.7874
-148.186
418.145
-465.838
-61.7135
-740.275
-410.295
114.66
139.67
528.478
-454.857
-73.6209
-231.951
251.687
-197.609
190.676
6.93313
38.6006
-248.455
209.854
-321.439
378.148
-56.7086
217.601
-19.1737
-198.427
450.466
554.894
-257.519
555.377
-473.669
137.251
-197.269
60.0178
-195.866
-19.7386
215.604
701.253
-96.7275
236.196
-165.53
-357.153
271.997
85.1561
-423.345
-33.1387
456.484
-351.813
448.642
306.88
-323.46
16.5803
-14.7654
28.1958
473.026
462.601
35.5163
51.3418
-474.687
208.654
-9.63998
-335.254
-7.68568
-367.672
297.995
69.6769
340.561
-62.3164
675.586
220.938
-239.328
277.929
-285.815
305.87
116.256
654.763
-771.019
-737.741
-25.0444
762.785
24.2913
183.53
16.7722
-338.212
-690.622
621.06
69.5619
116.126
-193.486
166.858
26.6275
433.894
-155.269
-243.303
-185.031
428.334
-162.579
-348.12
217.577
-16.3623
-279.303
126.777
95.6925
-182.042
-1009.53
696.316
-346.894
346.894
851.477
242.259
-35.1746
-509.085
-500.442
208.226
327.235
527.928
42.5255
544.39
-50.1362
281.179
-259.804
-21.3748
-629.316
662.108
-32.7923
-50.3309
-531.811
-48.2875
-636.567
730.984
-94.417
83.74
-492.883
-352.704
539.333
5.0569
536.248
29.7538
-566.002
749.464
-646.884
6.97787
-103.314
-85.428
188.742
-393.657
101.373
309.295
-31.5342
-277.761
-142.76
-63.2745
-299.822
287.748
12.0738
-303.357
92.65
870.954
-195.369
-337.757
43.8232
769.221
-2.2438
-766.977
584.134
-658.869
74.7349
-922.865
830.384
92.4807
-22.539
-638.732
110.316
295.819
-21.7978
-260.301
282.099
-800.128
37.6118
-201.87
-288.035
266.237
-465.977
511.449
-254.168
276.264
-22.096
-299.465
300.982
-1.51725
-813.555
705.584
995.971
-148.814
-177.086
309.239
-264.584
360.104
-189.221
429.63
-318.445
-111.185
285.558
55.0039
817.111
-85.3748
-731.736
184.631
-681.47
-760.815
679.019
81.7957
6.02433
-616.973
624.895
-7.92164
61.0296
175.166
-102.915
521.473
-266.516
306.713
-40.1965
378.859
-457.964
79.1047
-608.54
649.079
-40.5393
586.096
43.7025
-629.799
250.113
-218.547
-31.5661
557.151
-25.8042
-531.347
198.962
-90.1849
-108.777
-101.847
-43.8392
145.686
959.042
-949.666
-9.37651
-575.489
-388.315
-45.6462
-758.972
804.618
-897.63
834.363
-601.435
370.492
230.944
605.04
-623.208
-11.8642
676.442
-664.577
51.2833
117.808
-169.092
-72.2453
-289.244
-855.987
-66.8781
15.4685
365.146
334.042
-739.684
208.327
0.327051
-225.692
225.692
395.331
-110.39
-284.941
-911.347
25.9779
-2.67943
-22.4309
-481.319
503.75
-753.798
-80.5177
486.656
-406.138
-252.378
-408.635
431.308
-10.001
-50.2838
256.519
153.832
184.759
-548.47
396.28
-168.555
419.328
338.107
-52.5497
763.42
-710.895
-283.378
-5.56915
270.109
-946.902
-3.56136
5.61616
927.484
532.416
-448.676
-845.788
576.649
269.139
11.0869
256.226
-267.313
350.344
-10.0467
-340.297
-461.258
30.7877
-835.67
749.394
86.276
-124.89
-192.577
219.898
42.1937
-262.092
212.769
125.338
-800.987
17.7721
-582.975
335.059
247.916
42.0532
254.697
360.311
-324.189
-36.1229
-397.289
408.797
-11.5072
847.405
-513.363
-454.874
312.931
-319.207
189.661
129.546
423.37
-720.8
568.318
-27.2159
811.238
-807.876
81.8942
117.068
-830.398
814.476
15.922
-795.159
46.288
-472.164
-527.849
1042.66
-186.28
931.087
-835.189
-95.8988
-521.121
-463.312
984.433
-48.0872
-253.992
43.0455
224.151
-229.134
4.9825
-21.668
-56.0588
733.353
470.506
-37.311
-433.195
-350.831
-212.072
27.1877
-65.2077
-273.663
-162.546
435.076
-272.53
-926.628
926.628
92.4082
-795.684
464.467
-510.464
69.0656
441.398
-210.901
-194.142
179.124
-171.317
-377.153
-559.255
387.938
607.485
55.4335
189.539
431.871
-928.401
496.531
-39.4083
329.458
-225.002
-261.031
-212.562
429.27
-101.631
-179.46
-139.746
-65.4733
-835.387
452.381
-517.945
65.5637
18.0817
-703.027
785.046
-82.0188
415.689
-419.637
3.94846
244.792
-566.697
529.694
37.0035
69.8689
134.038
-203.907
192.492
-228.771
378.944
-708.78
329.836
110.535
758.328
149.638
245.692
-68.5278
-491.973
469.542
291.723
-305.778
14.055
416.247
-37.3875
353.654
-381.286
-21.0082
-367.411
388.419
-37.6734
-283.671
330.455
11.898
-342.353
-437.055
274.509
-386.806
37.9507
631.174
-749.52
-409.51
531.081
-312.312
-91.7997
976.638
-866.103
-492.781
-312.281
805.062
292.13
35.6668
290.571
-326.238
-438.952
151.951
-276.841
-51.6034
450.499
-563.668
113.169
47.4152
613.599
-199.037
95.7229
340.217
-298.163
708.739
-329.796
271.684
-173.877
23.5736
364.551
-388.124
-27.3639
-292.494
-8.93973
-252.323
249.206
3.11687
2.68864
562.554
-540.989
49.1236
-891.585
113.272
800.952
-3.11876
328.37
-115.601
525.493
328.699
-854.193
598.388
239.941
676.287
-774.374
-758.222
106.165
652.057
288.368
61.8053
-350.174
183.29
-175.875
-7.41507
33.1643
274.681
572.945
-207.484
57.5381
149.946
-156.638
-607.08
763.718
-337.052
364.336
-27.2842
-272.633
288.641
-16.0081
-147.522
-174.19
-254.631
208.036
46.5952
920.1
-920.1
-87.1201
727.004
-639.884
293.334
-207.214
344.044
-68.1652
-658.179
188.288
26.8171
-215.105
27.3877
-588.678
561.291
40.4248
-265.137
224.712
908.503
-914.148
5.6449
301.328
-674.644
373.317
360.19
-319.162
50.9092
309.402
-350.74
876.233
556.864
-106.365
-72.2056
-240.777
-399.518
318.872
80.646
224.009
-345.027
330.027
-500.116
170.088
-264.882
41.6427
-873.303
-73.5989
33.263
-736.29
333.962
-177.429
796.375
-773.259
-23.1154
431.075
57.5214
-488.597
-685.473
610.611
74.862
-265.384
215.45
49.9337
319.337
-27.614
-426.045
-254.806
882.937
-838.236
-44.7005
-357.476
658.804
122.895
-550.605
-865.054
11.0397
-53.377
-606.159
659.536
46.2054
-141.043
-101.611
-920.815
389.825
530.99
187.573
3.1023
448.975
-33.286
543.45
276.991
-270.729
-6.26148
-333.498
-5.78897
339.287
-561.713
455.943
9.01253
-228.607
219.594
228.963
-40.675
-102.831
370.542
-267.711
-353.581
5.14858
433.994
-9.68319
55.6907
-813.528
757.838
-664.256
664.256
76.6801
182.257
-93.8308
-506.22
600.051
-854.495
938.119
-83.6246
741.144
55.2313
-14.1135
-834.575
848.689
323.221
-340.349
17.1287
324.303
13.1526
-337.455
584.872
-636.755
51.8837
47.1151
318.756
-365.871
-219.714
-122.268
341.982
192.032
-8.74187
108.042
-711.226
603.184
-760.036
267.255
347.441
-311.774
793.727
59.772
-77.2723
-433.191
340.429
-391.001
-682.026
103.072
578.954
325.829
-287.257
-38.572
-530.32
616.392
-86.0722
-81.6506
-362.713
444.364
406.202
-381.991
-613.757
-307.057
618.546
-721.246
102.7
-408.839
-436.949
837.866
-39.6997
-645.773
108.918
476.471
-585.388
563.547
-644.701
81.1546
43.482
-256.857
11.1118
-692.961
-318.326
321.481
-5.60084
570.438
-692.687
122.248
-344.477
-430.592
2.35812
-685.675
697.86
-12.1845
763.057
-164.669
645.28
-102.667
-542.613
227.094
301.383
286.008
-295.649
9.6409
807.725
-935.861
128.136
-659.287
-98.9355
-310.666
44.1502
-329.774
68.2376
261.537
-55.7061
640.578
99.8712
-270.335
170.464
356.901
-335.047
-21.8546
-359.926
-223.05
-21.2814
204.732
-34.1802
-168.418
228.245
145.973
-374.219
-270.654
318.605
-47.9505
590.93
-684.761
22.0781
287.217
-285.674
-44.1
-298.665
-302.771
-711.305
540.743
170.562
-112.09
-148.314
-157.472
65.7947
-577.36
536.211
41.1492
576.953
-1098.07
-24.0623
-1016.22
-140.866
372.373
56.8973
-21.9545
-51.3655
-760.411
128.913
856.114
-850.262
617.354
-76.6108
1.85877
589.223
-591.082
-288
-161.751
449.75
-55.9107
-209.473
11.1084
190.026
-211.042
21.0156
-999.385
249.371
448.973
-118.946
19.6037
-627.898
608.295
299.017
-364.781
29.8016
334.979
63.8639
573.561
-637.425
-101.547
772.893
-671.346
-669.591
-195.32
-734.675
37.8143
696.86
-29.2838
576.734
-547.45
927.247
-918.476
-8.7712
568.13
-621.507
-611.182
-23.5044
634.686
-394.521
123.867
276.102
-274.647
-1.4557
801.624
-772.786
-95.7833
730.752
-634.969
457.635
14.4449
-433.464
-669.678
604.131
65.5478
399.592
-92.0952
-563.957
-52.4028
-10.5428
-399.023
-38.7373
232.98
-194.243
20.0357
327.405
-359.39
363.48
-4.09077
748.46
-794.106
99.7711
158.315
211.091
-222.495
11.4036
684.164
-775.236
91.0717
-331.51
-692.621
-6.43164
795.807
75.1471
290.646
120.201
812.979
-17.1718
-31.1529
-1030.81
169.198
3.93249
22.7781
-568.411
152.081
-100.797
-1080.94
-255.987
264.999
74.0675
219.267
-107.438
-467.093
574.532
-2.39554
-477.412
479.807
838.912
-31.1866
570.004
75.2758
-48.9811
-220.661
269.642
749.849
-794.84
-159.571
387.817
-411.178
445.876
-34.6976
-679.345
723.032
-43.6871
296.62
-334.02
12.7634
390.592
-120.738
-269.855
178.081
-511.196
465.845
45.3509
4.02572
-459.975
464.454
-4.47848
613.6
-596.019
41.2038
-169.084
600.159
-291.836
57.415
440.594
40.5544
608.116
-648.67
-70.0488
-151.068
212.561
2.88925
32.5184
-388.12
23.3397
-414.919
3.74037
249.306
-251.173
1.86771
711.211
-682.566
-483.712
83.0301
400.682
-42.1899
626.324
-37.1891
-211.266
914.258
-141.743
-772.515
518.883
537.49
-1056.37
-301.495
-10.5308
289.318
4.23132
10.2817
271.875
-694.786
-5.25578
700.042
592.276
-748.914
-217.039
189.223
27.8167
-535.154
-13.7975
-659.94
25.8639
111.387
-136.696
-428.074
-107.706
207.577
20.5013
-641.36
620.858
-38.218
-497.905
536.123
-264.961
312.076
-69.2304
626.006
-731.453
754.858
-23.4047
217.659
-482.443
264.868
-276.239
11.3711
4.91518
-839.58
26.0249
249.22
-468.934
917.828
-928.514
10.6857
637.618
12.7516
-650.37
-50.3564
-541.769
-807.256
840.454
137.382
-207.999
897.669
-78.2611
237.316
-13.1651
-60.4534
-716.019
776.472
-89.0489
-596.627
-27.9646
564.213
-681.514
22.2271
203.368
-238.21
34.8418
-233.352
0.82324
232.528
-557.52
533.493
24.0264
-179.789
77.9417
51.8818
93.8098
-145.692
-880.258
314.376
18.4295
-332.805
54.9147
637.907
-692.821
-338.061
371.827
-33.766
-658.865
-22.6488
-663.264
779.52
-896.916
127.742
769.174
-143.7
-168.159
-444.061
63.2956
-457.944
-618.126
267.465
-2.48698
-286.816
288.747
-1.93098
163.138
-93.2694
-421.438
393.063
28.3752
-954.902
972.052
-313.425
108.034
205.39
104.768
47.3129
525.176
865.587
-885.955
276.436
-43.3828
379.376
-524.339
-789.817
811.634
-21.817
-349.235
-192.229
541.464
129.775
-168.67
38.8945
425.25
-528.165
754.649
-688.174
-66.4746
-261.442
-40.0524
348.389
-81.3079
312.92
-290.842
329.154
-652.023
-17.6549
5.62332
633.277
-354.764
109.758
20.6386
-891.498
549.493
-388.179
608.14
368.498
423.054
8.25452
744.681
-805.134
-39.3139
-14.4354
827.285
70.3842
421.032
-499.712
78.68
235.928
-186.851
-49.0774
-194.597
228.477
-33.8799
-4.99615
340.116
-335.12
-618.237
658.792
427.745
253.357
-213.595
-39.7625
360.21
519.409
312.391
-333.219
719.282
97.8289
82.0201
-604.982
522.962
639.612
-35.4819
33.7164
-930.706
114.147
816.559
197.884
-264.084
-248.357
-793.247
732.274
60.9723
5.14589
814.82
-819.966
933.805
-933.805
-377.049
17.6593
602.818
36.7944
-109.083
-36.1123
-189.819
225.932
437.398
27.6515
-465.05
-433.289
19.464
413.825
188.482
972.173
-453.29
-222.495
36.604
185.891
-627.54
630.674
-3.13334
449.48
-472.418
22.938
-430.493
-2.7966
41.1599
-769.973
728.813
-636.078
-64.3339
-548.574
518.378
30.1965
-388.139
308.535
34.847
-247.013
212.166
-170.846
-142.579
-27.8261
232.249
-19.6875
40.0623
318.831
-288.139
-71.3008
791.601
365.131
-50.7548
-769.829
32.0882
-890.02
814.441
75.5789
124.971
291.376
361.359
180.26
-757.759
859.117
327.663
195.66
-523.323
-161.465
594.434
-644.004
49.5704
492.107
55.4224
-547.529
647.302
-350.793
-296.51
-488.652
-117.025
-783.278
681.731
24.5978
-688.575
663.977
-711.246
108.491
602.755
-764.264
16.4597
44.5885
508.471
-87.4389
-526.758
354.501
565.961
-595.244
-35.3442
-65.0827
224.096
-159.013
64.9845
-701.552
-230.438
-227.506
162.423
-27.6971
282.888
-109.814
-173.074
175.182
-6.16628
-645.076
715.557
-42.982
212.334
-169.352
869.862
-630.155
13.1822
142.885
197.331
0.995154
397.39
-398.385
-220.756
-205.612
426.367
180.923
763.537
378.923
-355.35
-843.391
7.7211
626.39
-609.857
-1.47846
-818.213
819.691
589.524
16.0026
-605.526
852.414
47.0871
-899.501
307.174
-6.19135
120.466
-408.466
425.442
8.55234
-254.666
334.335
-79.6689
188.659
381.027
-90.3811
610.732
-54.3064
-556.426
-758.459
785.919
-27.4593
12.0455
657.234
-669.279
-646.84
116.521
-5.60951
-442.13
611.432
34.2387
322.663
-29.278
184.799
-85.335
-335.027
1.52835
95.9444
742.967
2.69696
-276.231
273.534
-426.748
-501.654
-57.4296
-757.77
815.199
268.533
-42.5119
189.327
-269.991
80.6646
182.296
-93.692
-218.665
-516.875
-581.324
-792.173
-18.8597
-161.767
-815.749
776.439
39.31
-34.2935
469.381
-435.088
59.7806
821.333
-881.113
192.896
-141.014
776.078
25.443
-232.781
196.668
19.6682
-304.619
284.951
575.704
-573.845
-649.484
116.993
532.491
-582.497
589.319
-6.82183
29.0484
256.959
-665.271
-441.9
608.532
45.7839
-654.316
-721.941
606.747
-679.201
72.4543
-137.415
-70.0684
449.868
-484.21
-847.049
852.195
107.973
-308.024
-588.892
-642.298
593.221
49.0776
176.973
-72.404
-43.0619
462.841
184.461
-574.95
62.9606
514.359
-526.726
12.3668
73.3503
-717.641
644.291
265.585
-16.2796
-309.189
164.964
144.224
-576.276
606.03
-135.526
487.047
-351.521
681.39
-86.9556
-0.308481
-316.264
316.573
-447.075
-442.733
889.808
-146.366
258.296
-111.93
-103.274
-578.752
-584.412
430.652
153.76
407.552
-43.4984