/*--------------------------------*- C++ -*----------------------------------*\
  =========                 |
  \\      /  F ield         | OpenFOAM: The Open Source CFD Toolbox
   \\    /   O peration     | Website:  https://openfoam.org
    \\  /    A nd           | Version:  7
     \\/     M anipulation  |
\*---------------------------------------------------------------------------*/
FoamFile
{
    version     2.0;
    format      ascii;
    class       volVectorField;
    location    "21";
    object      U;
}
// * * * * * * * * * * * * * * * * * * * * * * * * * * * * * * * * * * * * * //

dimensions      [0 1 -1 0 0 0 0];

internalField   nonuniform List<vector> 
29659
(
(1.01256 -0.0162258 2.13704e-22)
(1.01243 0.00538054 9.94191e-22)
(0.988975 -0.00402349 -1.25458e-21)
(0.963971 -0.0603473 3.92681e-22)
(0.99709 -6.24992e-05 1.78392e-22)
(0.947843 -0.0372534 -5.78089e-22)
(1.06826 -0.0920892 8.67813e-22)
(1.01647 -0.0245218 -2.11408e-23)
(1.00239 -0.00231368 3.11165e-23)
(1.00022 -5.8724e-05 9.50549e-24)
(1.01843 -0.0327501 -3.71393e-24)
(0.997524 -0.0197313 -4.66119e-22)
(0.999429 -0.000232452 2.30787e-23)
(0.999963 -1.28106e-05 3.47716e-25)
(1.2061 0.0675569 1.39844e-21)
(0.992776 -0.00233306 1.92179e-22)
(0.999811 -0.00101493 -8.6695e-24)
(1.15509 -0.0184194 -1.27974e-22)
(0.997462 -0.00214774 -6.08402e-23)
(0.98694 -0.000968758 -2.76167e-22)
(0.998975 -0.000327454 -8.14747e-23)
(1.00225 -0.00230891 1.09064e-22)
(0.988869 -0.00425641 1.37922e-21)
(0.997448 -0.000204918 7.82306e-23)
(0.811936 0.206203 4.32045e-22)
(1.01357 0.00424569 5.34959e-21)
(0.999384 -7.00744e-05 5.29134e-23)
(0.914998 0.16506 -3.15781e-20)
(1.21018 0.0647785 -3.80909e-21)
(0.999057 -0.0108026 -8.66876e-23)
(1.01816 -0.0131537 1.52441e-22)
(1.04485 -0.00911438 -1.13149e-21)
(0.978299 -0.140151 4.01369e-21)
(0.997822 -0.0273185 2.36537e-22)
(0.910196 0.157379 2.59356e-20)
(1.00429 -0.0388022 6.69599e-22)
(1.09325 0.0510075 -1.53412e-21)
(0.966424 -0.0338355 1.63779e-21)
(1.0063 -0.000977517 -4.17969e-22)
(1.00608 -0.000693671 7.94596e-22)
(1.00051 -0.000195304 -2.71002e-23)
(0.986791 -0.0363852 -1.63392e-21)
(0.999833 -0.000986295 -2.10366e-25)
(1.03145 -0.0843862 -2.70603e-21)
(1.00004 -6.68182e-06 -2.42336e-24)
(0.999294 -0.010956 6.53743e-23)
(0.99707 -0.0146659 -1.31983e-22)
(1.00009 -0.000100777 5.77234e-24)
(1.00395 -0.00432831 -4.37734e-22)
(1.09226 0.0476924 -6.32612e-22)
(1.13292 -0.10167 5.76311e-22)
(0.967957 -0.0530497 -1.85772e-21)
(1.04475 -0.00803674 3.9936e-22)
(0.949519 -0.0369206 -9.66309e-22)
(0.992954 -0.00239382 -1.69371e-22)
(1.20826 0.0539041 -2.45352e-21)
(0.995991 -0.00268149 6.07605e-23)
(0.998947 -0.000360853 1.03124e-22)
(1.00003 -0.0257503 -3.30153e-22)
(1.01288 -0.0691126 -1.20367e-21)
(0.999922 -8.44171e-06 1.08053e-24)
(0.997551 -0.00220028 -1.25488e-23)
(1.24793 -0.0193152 -3.37083e-22)
(1.00473 -0.0379169 -3.72482e-22)
(1.11384 0.135917 1.21791e-20)
(0.854152 0.0545909 6.75873e-20)
(0.998938 -0.0324159 -6.36681e-22)
(0.991389 -0.0164773 5.92953e-22)
(0.891803 0.0341715 2.71902e-20)
(1.00054 -0.000184537 1.75759e-23)
(1.01558 0.00509136 -7.28897e-21)
(0.985797 0.125708 1.80752e-20)
(1.00383 -0.0107253 -1.67289e-22)
(0.854084 0.24077 1.64382e-20)
(0.990422 -0.000756913 8.91638e-22)
(1.13165 -0.0601142 -4.72251e-23)
(1.27902 0.0662898 2.18404e-21)
(0.96765 -0.0191998 3.89575e-22)
(0.999941 -2.65915e-05 -2.79974e-24)
(1.0047 -0.0572038 -1.17595e-21)
(0.949555 -0.000866606 -6.38611e-22)
(1.03102 0.0532676 4.26522e-21)
(1.0128 -0.0169297 -6.41777e-22)
(1 -7.40912e-05 -2.3965e-24)
(1.07089 -0.0897456 -1.32932e-21)
(1.23599 -0.146224 -3.49741e-21)
(1.06937 0.129957 -2.51863e-20)
(0.999407 -0.000229034 -2.1033e-23)
(0.999447 -0.000207202 -6.19663e-24)
(0.922366 -0.0480002 -2.33982e-21)
(0.992873 -0.0627285 2.19218e-21)
(0.967534 -0.020114 4.36108e-22)
(1.00371 -0.00447455 7.46781e-23)
(1.0704 -0.0150091 -6.30217e-22)
(0.914913 -0.020547 -1.9617e-21)
(1.0935 0.153669 1.15766e-20)
(0.995723 -0.0811838 3.46069e-21)
(1.00056 -0.000457902 4.35811e-23)
(0.965236 -0.0757316 -3.45478e-21)
(1.21349 0.0935831 7.08873e-21)
(0.999938 -2.60327e-05 4.05923e-24)
(0.969169 -0.012502 -2.34243e-21)
(0.999924 -1.03921e-05 -5.66664e-25)
(1.05498 -0.0245761 -3.13796e-21)
(0.966312 -0.0528839 1.21531e-21)
(1.04627 0.0150515 7.30555e-21)
(1.01015 0.113489 2.66012e-20)
(0.99947 -0.000209703 -5.16076e-23)
(0.999994 -8.2353e-05 1.44142e-25)
(0.996856 -0.133512 -1.98924e-22)
(0.975615 -0.138655 -3.61783e-21)
(1.0497 -0.049204 1.95483e-22)
(1.00002 -2.31617e-06 5.12616e-25)
(0.998661 -0.0073091 -2.26636e-22)
(0.999867 -0.00261057 5.07387e-24)
(0.991094 0.127782 1.56596e-22)
(1.06343 0.0738605 -8.94812e-21)
(0.986072 -0.0086409 -9.48204e-22)
(1.00003 -8.10458e-05 9.14935e-25)
(1.0042 -0.0106187 -1.28662e-22)
(1.26304 -0.0674007 7.97387e-21)
(1.00848 0.0166676 1.17514e-20)
(1.18444 -0.0752347 -3.44211e-21)
(0.851182 0.0669239 -6.24959e-20)
(1.00129 -0.000424659 -1.05472e-22)
(1.17699 -0.0550837 3.2514e-22)
(1.15411 -0.0141132 -7.38221e-22)
(1.01809 -0.0666043 8.98101e-22)
(1.00473 -0.00410797 -3.90777e-22)
(1.00003 -0.000522032 2.66663e-24)
(1.03096 -0.0820955 9.64593e-22)
(1.2781 0.0606908 8.65018e-22)
(1.04395 0.22535 2.51653e-20)
(1.18924 -0.0914576 -1.10797e-21)
(1.05317 -0.024109 2.64438e-21)
(1.01763 -0.0126544 2.89285e-21)
(1.19181 0.229842 1.48085e-21)
(0.967759 -0.00092555 3.26686e-21)
(1.14637 -0.215856 1.10685e-20)
(1.2117 0.0876828 -5.48346e-21)
(1.17635 -0.0503411 -2.57691e-22)
(0.930192 -0.00605329 -2.57822e-21)
(0.942649 -0.051903 7.53454e-22)
(1.00002 -2.07036e-06 -2.16816e-25)
(0.999987 -4.06028e-06 4.94785e-26)
(0.997014 -0.000103671 -1.39481e-22)
(0.997294 -0.0143693 2.70771e-22)
(0.98079 -0.106396 -2.78712e-21)
(1.14517 -0.166601 5.02948e-21)
(1.27293 0.00738106 -8.17864e-22)
(1.03624 -0.0232883 1.43855e-21)
(1.02105 -0.0236384 4.69208e-22)
(1.00051 -0.000742115 6.81873e-23)
(0.999844 -0.000263285 4.79217e-24)
(1.00267 0.0367505 -2.60868e-20)
(1.00063 -0.0018196 7.47176e-24)
(0.992102 -0.0134057 3.34059e-25)
(1.21363 0.218075 -4.07583e-21)
(1.00799 0.0685822 -2.85441e-20)
(1.13585 -0.0979275 -1.18469e-21)
(0.9519 -0.00329282 1.09163e-21)
(0.965134 -0.0591166 2.83805e-21)
(1.2112 0.0578323 6.26413e-22)
(0.999941 -5.43987e-05 8.41379e-25)
(0.999986 -3.90266e-06 -1.97375e-26)
(0.98601 -0.0090818 3.4198e-22)
(0.94406 -0.0508446 -4.16719e-21)
(1.00006 -0.000267739 -6.98032e-24)
(1 -7.86947e-05 -1.35533e-24)
(0.991998 -0.00606298 -1.13102e-22)
(1.00004 -0.000506526 -2.19144e-24)
(1.00678 -0.00705987 -2.1614e-22)
(1.21129 0.226923 4.60128e-21)
(0.968227 -0.000488153 -2.76587e-21)
(1.04926 -0.132774 -1.20797e-21)
(0.994015 -0.000116914 5.75555e-22)
(1.00249 -0.00319974 2.31349e-23)
(0.968338 -0.012293 3.86922e-21)
(0.999013 -0.00729324 -2.04901e-23)
(1.18926 -0.0662646 1.9424e-21)
(0.999974 -1.19513e-05 8.7432e-25)
(1.01493 -0.0458293 -4.92783e-22)
(1.07348 0.131776 8.86953e-21)
(0.991748 -0.0153066 -3.43923e-23)
(1.13944 -0.212375 -1.0618e-20)
(1.04768 0.0644735 -7.99256e-21)
(0.992564 -0.0033432 -8.41565e-22)
(0.978678 -0.0181322 1.05323e-21)
(1.00447 -0.00412732 5.93586e-22)
(0.99914 -0.0100712 -1.3128e-22)
(0.999672 -8.7645e-06 5.69008e-24)
(1.00706 -0.0212624 8.71998e-23)
(0.842127 0.0334557 2.62747e-20)
(1.00176 0.0304534 2.01225e-20)
(0.983115 -0.00731171 2.65897e-23)
(0.992455 -0.013206 -3.72039e-22)
(0.965743 0.0708336 -2.53502e-20)
(1.01917 0.0420265 3.68315e-21)
(0.91669 -0.0203237 2.42902e-21)
(1.00135 -0.000570477 -8.22603e-23)
(1.08251 -0.114087 1.7419e-21)
(0.964442 -0.100387 3.62328e-21)
(0.997844 -0.0201406 2.23105e-22)
(1.00099 -0.00125124 -1.34101e-22)
(1.20037 0.233221 1.9084e-21)
(0.992254 -0.00607641 -7.66185e-23)
(1.00791 -0.00633016 -2.43273e-22)
(0.978776 -0.105786 3.62861e-21)
(0.99722 -0.136683 4.91702e-22)
(0.999956 -6.19249e-06 3.15439e-25)
(0.980533 0.189373 -2.77617e-20)
(0.998788 -2.74452e-05 -1.37246e-24)
(1 -6.32244e-05 -5.77614e-25)
(0.999361 -0.000244031 8.9811e-24)
(0.996267 -0.0630715 -8.07152e-22)
(1.245 -0.00311573 5.28017e-22)
(1.0161 -0.044926 5.05843e-23)
(1.00767 -0.00591313 -1.6695e-22)
(0.997476 -0.000282149 1.94674e-22)
(0.918232 -0.0226583 -4.54136e-22)
(1.00004 -0.000555038 -1.8118e-24)
(1.00056 -0.00185556 6.06195e-25)
(0.997281 -0.000239419 -1.28454e-22)
(1.03415 0.00129623 6.83903e-21)
(0.996912 -0.00463252 -4.17002e-23)
(0.998689 -0.00679217 6.70771e-23)
(1.03306 -0.00180194 3.33343e-21)
(1.00015 -0.000453475 8.37816e-24)
(1.00004 -5.74456e-06 6.39186e-25)
(1.00581 -0.000700934 8.51618e-23)
(0.971219 -0.0385458 -1.40129e-21)
(0.971709 -0.000474304 -1.35106e-21)
(0.99438 -0.000444963 -6.09352e-22)
(1.01682 0.00399767 6.02643e-21)
(0.98157 -0.00133845 6.49162e-22)
(1.02134 -0.0228556 -4.58456e-22)
(0.999962 -1.43017e-05 9.65872e-25)
(0.996555 -0.0030595 -2.35791e-22)
(1.00093 -0.00124141 1.45032e-22)
(1.08188 -0.110003 1.73467e-21)
(1.06229 -0.214379 7.70131e-21)
(0.998384 -0.00014609 1.00106e-22)
(1.00054 -0.000659911 -5.19668e-23)
(0.998574 -0.00663014 -2.2742e-23)
(1.00409 -0.0094848 -3.17679e-22)
(0.987201 -0.000715051 -1.18002e-21)
(0.999943 -5.18652e-05 -9.4445e-26)
(1.23064 -0.143375 -7.57246e-21)
(1.00005 -0.000567534 3.03269e-24)
(1.03376 0.00121923 -4.81834e-21)
(0.996118 -0.00268526 -1.22729e-22)
(1.00017 -0.000439678 3.30586e-24)
(1.04505 0.0156739 -4.64317e-21)
(0.95837 -0.0961254 -3.66661e-21)
(1.0003 -4.97392e-05 3.01064e-23)
(1 -1.47525e-05 -2.34242e-25)
(0.929998 -0.00433233 -2.93419e-21)
(1.04376 -0.19896 -1.19813e-21)
(0.989904 -0.00964939 -9.15371e-23)
(1.01698 -0.0680576 -2.3829e-22)
(1.03723 -0.0241597 -2.35458e-22)
(1.08019 0.124816 1.09259e-21)
(1.00009 -9.51396e-05 1.55896e-24)
(0.971766 -0.0377446 1.42512e-21)
(1.23022 -0.0727242 3.9338e-21)
(0.937817 0.102604 5.93384e-22)
(0.991647 -0.0149617 2.75074e-22)
(1.04573 0.0623585 9.82077e-21)
(1.13204 -0.0559737 9.20842e-24)
(0.999863 -0.00287324 -7.5275e-24)
(0.691054 0.0932698 3.52496e-20)
(0.999364 -0.00051386 -6.04437e-23)
(1.04839 -0.136603 -1.55446e-21)
(0.919594 -0.022639 2.9992e-21)
(1.00265 -0.00302415 -1.27151e-22)
(1.2139 -0.0278468 -3.97273e-22)
(0.989931 -0.00109748 -7.04774e-22)
(1.05588 0.244043 1.77717e-20)
(0.99592 -0.000310676 5.56116e-23)
(0.979291 -0.0195554 -5.52322e-23)
(0.999761 -0.00260978 -4.64739e-23)
(1.21905 0.138536 1.64498e-21)
(1.00006 -0.0204183 5.80456e-23)
(1.08895 0.156865 7.44916e-22)
(0.999401 -5.40751e-05 -2.33431e-23)
(0.99314 -0.00221605 -2.6801e-22)
(0.958516 0.243344 -1.18064e-20)
(1.03973 -0.000187117 -5.6068e-21)
(1.03281 -0.00127101 3.87946e-21)
(0.965557 -0.0489872 3.41245e-21)
(0.999821 -3.86089e-05 5.26413e-24)
(1.00397 -0.00915722 -3.63764e-23)
(0.999807 -0.00110923 -1.49528e-23)
(1 -5.99115e-05 -3.71842e-25)
(1.07148 0.0032002 1.47234e-21)
(1.00005 -6.23559e-06 4.43251e-26)
(0.976503 -0.0173433 2.46535e-21)
(1.22693 -0.0745931 -3.74569e-21)
(0.807236 0.216448 -3.17557e-20)
(1.05018 0.224019 -4.00952e-20)
(0.962461 -0.0830191 1.12904e-21)
(0.983637 -0.0354102 8.8349e-22)
(0.973082 -0.00182872 6.45188e-22)
(1.03997 -0.0452181 6.99054e-22)
(1.00773 -0.0209745 -1.68586e-22)
(0.978539 -0.0189994 -1.45379e-21)
(0.963387 -0.091112 5.02694e-22)
(1.0788 0.129181 -1.64933e-20)
(0.999305 0.030732 4.0637e-20)
(0.99849 -0.000178037 5.50023e-23)
(1.01288 0.114028 -3.6341e-20)
(1.07014 0.00155806 4.95512e-22)
(1.18914 -0.0725351 9.84864e-22)
(1.01612 -0.0188813 2.22205e-22)
(1.0013 -0.0188033 -2.78075e-22)
(1.02621 -0.062438 -6.08766e-22)
(0.993637 -0.00214354 -6.34717e-22)
(0.99685 -0.000779459 -4.11153e-23)
(0.999928 -8.20963e-06 5.55383e-24)
(0.998949 -0.010319 1.92443e-22)
(1.1106 -0.0570746 1.06829e-22)
(1.22504 0.143118 -2.63048e-21)
(1.00192 -0.00163976 6.04467e-23)
(0.967691 -0.0316957 -1.95706e-21)
(1.0184 -0.0193286 -7.01496e-22)
(0.999954 -1.9678e-05 -4.19405e-25)
(0.962874 -0.0869138 -1.80171e-21)
(0.758229 0.165886 -1.63215e-20)
(0.992656 -0.00571025 9.47213e-22)
(0.998708 -0.0054322 6.06411e-23)
(1.01682 -0.0186697 -1.38433e-22)
(1.00433 -0.0555516 1.49436e-21)
(1.11482 0.0289192 1.69483e-21)
(0.999406 -0.0117058 -3.18515e-23)
(0.999962 -6.29476e-05 1.67885e-24)
(1.00002 -3.26378e-06 2.75559e-25)
(0.996807 -0.000710033 -4.5521e-23)
(0.953706 0.242297 1.70651e-20)
(1.05917 -0.036837 6.1371e-22)
(1.06795 -0.212012 -2.00495e-21)
(1 -1.47904e-05 -6.32476e-26)
(1.04077 -0.203814 7.74994e-22)
(1.0997 -0.00950548 -1.90501e-21)
(0.993869 -0.000195431 -2.85676e-22)
(0.922566 -0.00824306 -3.63355e-21)
(0.998807 -0.00533723 -6.07771e-23)
(0.999483 -0.00023487 -3.74792e-24)
(0.972579 -0.0341138 -4.27019e-22)
(1.0011 -0.00137259 -6.4411e-23)
(1.19355 -0.0637247 -1.68609e-21)
(1.011 -0.00129828 -1.75556e-21)
(1.25557 0.0485037 -1.19875e-21)
(0.999905 -0.00283537 9.72034e-24)
(1.00515 -0.0166968 5.64488e-23)
(1.0082 0.0147286 -1.58872e-20)
(1.25848 -0.0664371 -3.19593e-21)
(1.0005 -0.000698389 -4.00661e-23)
(1.00053 -0.000618869 3.94476e-24)
(1.00065 0.151586 1.72929e-21)
(0.994215 -0.0639009 -4.37115e-22)
(0.999201 -0.0115279 3.88862e-23)
(1.01783 0.0471565 1.94223e-21)
(0.951007 0.036312 4.98813e-20)
(1.13348 -0.106356 -1.93335e-21)
(0.998943 -0.0312889 -1.9315e-22)
(1.24242 -0.000824127 -5.32268e-22)
(0.999086 -8.77287e-05 -4.06107e-23)
(0.989606 -0.00504574 2.50074e-22)
(0.996005 -0.000326465 -1.56161e-22)
(1.02119 0.0397833 4.53965e-24)
(0.999985 -0.000911494 -1.13531e-24)
(1.01063 -0.00157575 1.79366e-21)
(1.16917 -0.154307 1.43896e-22)
(1.03521 0.212596 3.9894e-20)
(0.86158 0.248946 -7.23835e-21)
(0.992791 -0.00333563 3.39245e-23)
(0.989605 -0.00942334 2.74177e-22)
(1.11146 0.141492 -9.64617e-21)
(1.01338 -0.0712438 1.73193e-21)
(0.999931 -9.79721e-06 -5.4289e-24)
(1.27662 0.028842 1.29546e-22)
(1.03343 0.00196297 -2.05359e-21)
(1.03285 0.00197123 -1.39484e-21)
(0.993125 -0.0162765 -4.03829e-22)
(1.02261 -0.00241214 -2.74421e-21)
(0.93113 0.217347 6.90727e-21)
(1.14008 -0.177389 -1.43198e-21)
(0.988359 0.203514 6.77775e-21)
(1.01408 0.194856 -1.16357e-20)
(0.999996 -7.88212e-05 -4.65118e-25)
(1.10719 -0.0557477 -1.28895e-22)
(1.14036 -0.171537 9.44692e-22)
(0.996767 -0.00467415 1.08539e-22)
(1.00196 -0.00176117 -9.96905e-23)
(0.942457 0.0422726 1.19318e-20)
(1.06115 -0.0379032 -7.81176e-22)
(1.00034 -9.14322e-05 6.77163e-24)
(0.977715 -0.0731745 -4.26157e-21)
(0.963517 -0.103034 -1.71287e-21)
(0.993291 -0.00227758 3.76855e-22)
(0.999855 -0.000255584 -6.03848e-24)
(1.11964 0.180813 -1.35552e-21)
(1.06227 0.0710072 1.50333e-20)
(1.00006 -0.0006213 -1.22053e-25)
(1.00492 -0.00443295 7.65812e-23)
(1.00633 -0.00444044 4.14104e-22)
(1.20667 -0.116203 5.61351e-21)
(0.965607 -0.047669 -3.09265e-21)
(1.00008 -0.000737313 -5.4008e-24)
(0.999982 -2.57389e-06 -6.11793e-26)
(1.0006 -0.000202448 1.02845e-23)
(1.11334 0.0310709 -1.67248e-22)
(0.966408 -0.0326417 -1.56648e-21)
(1.00473 0.0760117 8.38057e-21)
(0.934326 -0.0573695 1.80147e-21)
(0.984611 -0.0352501 -9.33651e-22)
(0.970889 -0.00142167 -2.58687e-21)
(1.01996 0.0451758 -9.56758e-21)
(1.24273 -0.0180414 -1.1809e-22)
(0.998537 -0.000189234 1.00472e-22)
(1.00951 -0.00722708 -4.40173e-22)
(1.00102 -0.00135866 7.30509e-23)
(0.991633 0.226644 -1.69136e-20)
(0.968877 -0.0295918 8.41371e-22)
(1.00131 -0.000345154 -3.45738e-23)
(0.990853 -0.00449412 -3.4159e-22)
(1.18098 -0.0459876 -1.22962e-22)
(0.999521 -0.0125771 -8.47535e-23)
(0.985963 -0.0155402 -1.90623e-22)
(1.00029 -0.000174676 -2.10182e-23)
(1.00029 -6.6333e-05 -9.40423e-25)
(0.750898 0.177683 2.45782e-20)
(0.990006 -0.00163438 -4.3794e-22)
(0.994175 -0.00588885 3.88756e-22)
(0.999544 -0.00231228 -4.36359e-23)
(0.999109 -6.69082e-05 -5.55808e-24)
(1.08919 0.118522 -5.51363e-21)
(1.17528 -0.154954 3.54121e-22)
(0.981943 -0.0529449 5.57181e-22)
(1.00002 -2.608e-06 -2.50039e-25)
(1 -4.81606e-05 -3.32295e-25)
(0.967657 -0.0306477 2.21267e-21)
(0.991741 -0.00239485 8.99942e-23)
(0.99369 -0.00273363 -5.17746e-23)
(1.01768 -0.00663883 8.47857e-22)
(1.00709 -0.00301125 1.48609e-22)
(1.00039 -0.0209124 -1.03617e-22)
(1.15031 -0.0341149 1.00773e-21)
(0.977307 -0.00553155 -5.44213e-22)
(0.990812 0.198287 -5.75936e-21)
(1.01739 -0.0327578 -1.63712e-22)
(1.00031 -0.00017537 2.33034e-23)
(0.9614 -0.0814768 1.66757e-22)
(0.979788 -0.0469291 -1.94378e-21)
(1.2064 -0.0220071 9.02205e-23)
(0.996484 -0.00769761 -1.15977e-22)
(0.986546 -0.0621055 -6.57636e-22)
(0.999974 -6.97454e-06 5.23704e-25)
(0.882025 0.174573 -2.49014e-20)
(1.01888 -0.00276876 1.54644e-21)
(1.0001 -0.000298496 -9.12579e-24)
(0.84206 0.0457899 -3.40831e-20)
(0.980655 -0.053204 1.24309e-21)
(0.999973 -8.14475e-06 9.22954e-26)
(1.00178 -0.00160295 2.9466e-23)
(0.961627 -0.0852036 -9.91272e-22)
(1.04787 -0.04758 2.25527e-22)
(1.06119 -0.0177718 1.81819e-21)
(0.999989 -4.35683e-06 -1.98798e-27)
(0.989953 -0.000834684 3.47984e-22)
(1.0273 -0.061106 1.07703e-21)
(0.993476 -0.00209005 5.20883e-22)
(0.999426 -6.20947e-05 -1.25038e-22)
(0.98981 -0.00521025 7.06145e-24)
(0.960017 0.0737839 2.94232e-21)
(0.991231 -0.0160056 -4.93921e-22)
(0.986556 -0.015221 1.39674e-22)
(1.00326 0.0425809 -8.10642e-21)
(0.996618 -0.00289031 1.22664e-22)
(0.98159 0.232856 -2.10785e-21)
(0.999971 -8.21315e-06 -2.75253e-25)
(0.987197 -0.0354918 3.79824e-22)
(0.978226 -0.100636 4.21205e-21)
(0.987781 -0.062511 1.12145e-21)
(1.22308 -0.0851593 1.12352e-21)
(0.998542 -0.00710193 1.51844e-22)
(1.01154 -0.030668 4.57954e-23)
(0.999894 -0.00305338 1.53233e-24)
(0.979003 -0.0276253 -1.09187e-21)
(1.04948 -0.0515601 4.63514e-23)
(0.999956 -1.8851e-05 1.99722e-24)
(1.00002 -1.51474e-06 -4.32495e-25)
(0.992145 -0.000536117 2.3707e-22)
(0.974803 0.136813 1.81529e-20)
(1.01585 -0.0253866 7.88319e-22)
(1.0032 -0.00451476 -1.21767e-22)
(0.917186 -0.0424527 2.51596e-21)
(1 -1.32459e-05 -1.94809e-25)
(1.00121 -0.00149832 -1.16209e-22)
(0.999956 -0.000869209 -1.39544e-24)
(1.01758 -0.0243523 8.93508e-22)
(0.9792 -0.02042 1.9381e-22)
(0.999524 -0.000365401 1.54612e-23)
(0.991806 -0.0142807 1.85567e-22)
(0.984669 -0.00901183 -2.01469e-22)
(1.00126 -0.000206876 -9.47587e-24)
(0.999971 -9.54654e-06 -1.80144e-25)
(1.23374 -0.0520321 -3.24798e-21)
(0.999591 -0.00227367 4.68615e-23)
(1.09615 -0.0148141 1.4601e-21)
(1.0599 0.197658 4.03257e-20)
(1.10359 0.142566 -9.01335e-21)
(1.00072 -0.0263934 -3.91339e-22)
(1.00695 -0.00272665 -4.92247e-23)
(1.02304 -0.00192513 1.68232e-21)
(0.999955 -0.00312121 -1.71227e-24)
(0.997261 -0.0133781 1.92085e-22)
(1 -2.21407e-05 -5.0541e-25)
(1.00904 0.196717 -8.31559e-22)
(0.984841 -0.0204576 2.70747e-22)
(1.01732 -0.00611759 -6.06237e-22)
(0.977819 -0.00574141 1.13362e-21)
(1.00456 -0.0164184 6.26703e-24)
(0.996695 -0.00757162 2.53468e-22)
(0.99987 -0.000261922 1.32446e-24)
(1.00002 -1.40038e-06 -2.22832e-24)
(0.994373 -0.00586555 -2.8313e-22)
(1.07048 -0.0170957 -9.82809e-22)
(1.00852 0.0718468 1.30646e-21)
(1.00152 -0.000613031 -1.39368e-22)
(0.967331 -0.0758273 -9.15801e-22)
(0.968794 -0.0287032 -3.71074e-22)
(0.9902 -0.000654812 -1.30584e-21)
(1.26891 0.00807121 4.85962e-22)
(0.998382 -0.00124514 -6.04265e-23)
(1.00464 -0.0185667 -1.41332e-22)
(0.993197 -0.00359489 2.64032e-22)
(0.999881 -0.000252471 1.13053e-24)
(0.961962 -0.0891833 1.13283e-21)
(1.00423 0.0660141 -1.31166e-20)
(1.04587 0.0562201 -1.00444e-20)
(0.971824 -0.0191986 -1.78677e-22)
(1.00325 0.0626653 -5.50187e-22)
(1.0001 -0.000280278 1.81714e-23)
(1.00002 -1.94125e-06 7.12681e-25)
(1.2723 0.02887 -1.73032e-22)
(1.21233 -0.0233003 4.95144e-22)
(0.851591 0.180145 -1.17188e-21)
(0.999884 -0.105129 3.15813e-21)
(0.971203 -0.00196249 -8.30598e-22)
(1.17996 -0.0405521 2.37724e-22)
(1.00145 -0.000639424 1.57949e-22)
(0.992949 -0.00484131 1.51354e-22)
(1.00057 -0.000215083 -9.72941e-24)
(0.986666 -0.000916509 -2.80211e-22)
(0.985336 -0.0167289 -3.96586e-22)
(0.999995 -4.31707e-05 1.13569e-24)
(0.998894 -4.26887e-05 2.33885e-23)
(1.03286 0.207142 -3.9102e-20)
(0.999839 -0.000902487 1.2985e-23)
(0.896105 0.15894 3.12442e-20)
(1 -2.10696e-05 3.82474e-25)
(1.26353 -0.0359535 -2.88589e-21)
(1.096 -0.017305 -3.12126e-21)
(1.15035 -0.0304516 -1.12017e-21)
(1.0013 -0.0006068 9.49428e-24)
(1.00023 -5.38515e-05 1.89817e-23)
(0.980772 0.127667 -2.76458e-20)
(1.09967 -0.0123314 6.28772e-21)
(0.977542 -0.102635 -3.82552e-21)
(1.03241 0.0559488 4.62614e-21)
(0.997225 -0.0268 1.64841e-22)
(0.983279 -0.00688811 -2.93023e-22)
(0.994933 -0.000279981 -1.56729e-22)
(1.26073 0.162614 -9.9408e-21)
(0.970146 -0.0343191 1.37549e-21)
(1.04058 -0.0433359 -4.9039e-22)
(0.992135 -0.0141505 -1.06634e-22)
(1 -1.31756e-05 -5.79498e-27)
(0.998398 -0.00117566 -5.12155e-23)
(1.00746 -0.00762702 2.57255e-22)
(0.97702 -0.0102321 1.45229e-21)
(0.97256 -0.0193545 2.67934e-22)
(0.946008 -0.0517996 -4.0434e-22)
(0.97678 -0.01085 -1.10164e-21)
(1.02463 0.00360229 8.12975e-22)
(0.997348 -0.000180732 3.22058e-24)
(0.924211 -0.0485998 1.29719e-21)
(0.982402 -0.0011735 -4.02273e-22)
(1.00005 -0.00027068 4.04186e-24)
(0.984645 -0.000938934 -2.77904e-22)
(1.0413 -0.046832 -7.19952e-22)
(1.02367 0.00387817 -4.49627e-21)
(0.967603 -0.0345237 -3.41316e-22)
(0.999978 -9.23845e-07 -2.22742e-27)
(0.978229 -0.0208723 2.91147e-22)
(1.00271 -0.0189724 2.97164e-23)
(1.00174 -0.00148866 3.79558e-23)
(1.16416 -0.175332 -4.33053e-21)
(1.00341 0.0632815 -3.06757e-20)
(1.00113 -0.00148012 1.07972e-22)
(0.984908 -0.000707994 3.76892e-24)
(1.1239 -0.106524 6.53033e-23)
(1.03472 0.000294245 6.84135e-21)
(0.982721 0.0537859 -3.16286e-21)
(1.00231 -0.00315137 3.33973e-23)
(1.0005 -0.0274892 1.22003e-22)
(1.18398 0.141777 -2.29145e-21)
(1.02219 0.035146 -2.3625e-20)
(0.988518 -0.0353725 1.00868e-21)
(1.00596 -0.00444512 -4.63079e-23)
(0.94022 -0.0614154 1.85007e-21)
(0.999997 -6.65596e-06 -2.03076e-25)
(0.9388 -0.00261239 -1.32633e-21)
(1.00011 -8.88034e-05 3.05227e-24)
(1.12072 -0.107835 -4.61935e-21)
(0.999958 -4.52319e-06 -2.16948e-25)
(1.00003 -7.92461e-05 2.69577e-24)
(1.00004 -0.0307368 -1.47661e-22)
(1.25117 -0.0156283 8.85857e-22)
(1.11365 0.24641 1.54322e-20)
(1.04542 -0.0482095 -1.08345e-21)
(1.01754 -0.0195148 4.6679e-22)
(0.999999 -5.14988e-06 7.8749e-26)
(0.992389 -0.00575108 -5.11293e-22)
(1.00011 -2.69826e-05 -2.17935e-24)
(0.996084 -0.00307634 1.76269e-22)
(1.00003 -7.37885e-05 -2.11028e-24)
(1.06145 -0.0153991 -5.669e-21)
(0.999412 -0.000604807 -6.15688e-23)
(1.08525 0.0699466 9.43048e-21)
(0.999843 -0.000279385 -9.44466e-24)
(0.98389 -0.00672839 -4.96518e-22)
(0.948453 -0.00140354 3.08306e-21)
(0.994672 -0.000383328 -2.02476e-22)
(0.972473 0.0746255 3.03317e-20)
(0.978386 -0.000922484 7.58628e-22)
(1.03325 -0.132128 2.68675e-22)
(0.993134 -0.00507784 7.84044e-22)
(1.03221 -0.00344043 -1.40707e-21)
(0.964117 -0.076989 3.96067e-21)
(1.02454 -0.00179756 -4.69936e-21)
(1.0503 -0.0901363 -1.12563e-22)
(0.999982 -2.03652e-06 1.42674e-26)
(0.999111 -0.0259815 1.35215e-22)
(0.995016 -0.000369477 2.466e-23)
(1.00031 -0.00011807 1.38951e-23)
(1.00011 -2.264e-05 3.75023e-24)
(1.26741 0.159053 1.07685e-20)
(0.9939 -0.00274248 4.37119e-22)
(1.03458 0.00126036 7.82521e-21)
(1.0013 -0.0281488 1.49569e-22)
(1.00108 -0.000388195 3.70889e-23)
(1.02984 -0.0107381 -5.11544e-21)
(1.00021 -5.05889e-05 -4.27835e-23)
(0.999969 -4.34811e-06 -2.54919e-26)
(0.939544 -0.00347947 1.02407e-21)
(0.995638 -0.00156414 1.96509e-22)
(1.00004 -7.18548e-05 2.86664e-24)
(1.11964 0.133669 6.39936e-21)
(0.782119 0.143992 -4.55303e-20)
(0.999737 -0.000295786 2.64133e-23)
(0.95075 -0.00283238 -8.50688e-22)
(1.00002 -1.93663e-06 5.00827e-25)
(0.92328 0.213145 -2.83169e-20)
(1.26779 -0.0362211 -3.7633e-21)
(0.964114 -0.0617644 -3.2075e-21)
(1.00006 -0.00071306 -6.59115e-24)
(1.03918 -0.0418326 1.19934e-21)
(1.03919 -0.00384106 -1.9412e-21)
(1.04065 -0.000270501 5.76447e-22)
(1.06259 -0.0186872 -6.97033e-22)
(0.99955 -0.0024375 -7.08161e-24)
(0.999837 -0.00108122 1.17006e-23)
(0.982549 -0.0203492 -8.62191e-22)
(1 -1.15923e-05 -7.79089e-25)
(1.00002 -1.57473e-06 -1.27203e-25)
(0.969069 -0.033715 -8.09198e-22)
(0.997526 -0.0801322 -1.70812e-21)
(0.947576 -0.0508239 -1.03539e-22)
(0.824322 0.206968 -1.04017e-21)
(1.00025 -3.27071e-05 -1.74049e-23)
(1.02202 -0.0997056 -3.64043e-21)
(1.00921 -0.00678575 -4.5281e-22)
(0.999971 -4.60116e-06 2.95147e-25)
(0.998737 -0.00505702 -1.31422e-22)
(1.00004 -0.000604589 -4.75632e-24)
(0.994462 -0.0165049 3.05377e-22)
(1.00006 -1.32962e-05 2.47712e-24)
(1.05248 -0.0884978 -2.61739e-22)
(1.02406 -0.00219273 4.55653e-21)
(0.983663 0.227206 5.91498e-21)
(1.03153 -0.00323285 5.28922e-21)
(0.999653 -0.000289622 2.17282e-23)
(1.00057 -0.000500012 -3.8009e-23)
(1.20632 -0.122104 -5.67258e-21)
(1.03448 0.000993055 -6.29549e-21)
(0.996137 -0.000506286 1.76432e-22)
(1.00002 -1.91904e-06 1.04474e-24)
(1.13324 0.106126 -1.0191e-20)
(1.12464 -0.214934 -1.85662e-21)
(0.999963 -0.102817 -1.40512e-21)
(0.981918 -0.00099931 -2.1284e-22)
(0.999973 -2.88377e-05 4.09641e-25)
(0.999656 -0.000273224 -1.26865e-23)
(1.13205 -0.218006 5.19519e-21)
(0.997747 -0.0641508 -4.71653e-22)
(1.05329 0.0383843 1.42364e-21)
(0.988058 0.191067 2.503e-20)
(1.03156 -0.128789 2.00619e-21)
(0.998422 -0.000108554 -3.15116e-23)
(0.999974 -1.3453e-05 -5.75201e-25)
(0.953997 -0.0659837 3.13844e-21)
(0.972274 -0.132218 -4.25079e-21)
(0.999747 -0.000306222 1.3921e-23)
(1.01234 -0.0298262 3.19743e-22)
(0.988909 -0.034425 -1.77665e-22)
(0.994217 -0.0029404 1.72383e-22)
(0.997332 0.0558137 -2.35296e-20)
(0.998396 -0.000703481 1.11919e-22)
(1.0658 -0.0667323 -1.05935e-22)
(1.28304 0.0677029 -2.28429e-21)
(0.990349 -0.00424019 -4.98446e-22)
(0.846708 0.169514 -4.41536e-21)
(0.85836 0.0779754 1.42444e-20)
(0.999962 -6.67003e-05 -1.6218e-24)
(0.999968 -0.000949874 3.3985e-25)
(0.978647 -0.00122548 -4.86128e-22)
(1.01645 -0.00603951 -1.09796e-21)
(0.952823 -0.00261064 1.77234e-21)
(1.00649 -0.00551414 -4.75335e-22)
(0.990696 -0.00425348 4.66398e-22)
(0.999292 -0.000644078 -4.73757e-23)
(0.941892 0.211327 -4.97457e-21)
(1.0852 0.0664104 -1.46667e-20)
(1.00284 -0.00305483 8.53869e-23)
(0.704489 0.0886799 -8.99532e-21)
(1.00002 -1.69432e-06 -7.30249e-25)
(1.03283 0.00808387 -1.10203e-20)
(0.992766 -0.127368 3.04679e-21)
(1.02505 -0.0996312 1.42217e-21)
(1.00012 -0.000272193 -9.68132e-25)
(0.950549 -0.00143157 1.45787e-21)
(1.02964 0.00735042 6.22082e-21)
(1.01603 -0.00647023 9.08272e-22)
(1.03858 -0.00245478 2.70792e-21)
(0.999441 -4.86348e-05 8.79225e-23)
(0.999405 -0.000644358 5.58245e-23)
(1.03122 -0.0595205 2.9444e-22)
(0.99571 -0.00168546 -5.63817e-22)
(0.984241 -0.0152177 -9.3435e-22)
(0.998892 -0.00458312 7.78027e-24)
(1.11321 0.0398177 6.75746e-21)
(0.998787 -0.0270707 -9.27504e-23)
(0.993834 -0.00623208 9.41266e-24)
(0.912842 -0.0359787 -3.70625e-21)
(1.00491 0.150618 2.84501e-21)
(1.13616 -0.0524664 -3.564e-22)
(1.02915 -0.0102809 4.11351e-21)
(0.999504 -0.000235745 1.65873e-23)
(0.999366 -0.000421418 7.55526e-24)
(0.978058 -0.027299 2.19677e-21)
(1.00124 -0.00161209 -8.60546e-23)
(0.996768 -0.000892607 -3.18583e-23)
(0.999974 -2.7669e-05 -1.49055e-25)
(0.999597 -0.00248335 1.48221e-24)
(1.02885 0.00678593 -2.42108e-21)
(0.980304 0.133867 -2.6495e-20)
(0.999841 -2.01286e-05 3.07585e-24)
(1.26821 0.119109 -7.47341e-21)
(0.999995 -5.38805e-05 -4.6168e-25)
(0.995963 -0.00364245 2.39943e-22)
(0.999989 -0.000123609 -1.95635e-25)
(1.00653 -0.00477257 -2.10951e-22)
(1.23502 -0.0560992 2.47882e-21)
(0.99995 -5.59849e-05 2.47321e-25)
(0.999949 -6.00194e-05 1.51633e-24)
(0.932982 -0.0580563 -1.72054e-21)
(1.00001 -1.14729e-05 -3.57942e-26)
(1.06661 -0.0187939 5.78754e-21)
(0.984889 -0.054188 1.78825e-21)
(0.999971 -0.000835422 8.26188e-25)
(1.12153 0.0796185 -8.03777e-21)
(1 -3.84665e-05 6.30449e-25)
(0.999504 -5.03324e-05 7.61233e-23)
(0.999889 -4.61835e-05 1.29209e-25)
(0.994057 -0.00624497 -1.45919e-22)
(0.999583 -0.00198019 -2.1932e-23)
(0.992295 -0.000406294 -1.59383e-22)
(1.00759 -0.15301 -3.53949e-22)
(0.99963 -0.00192845 1.46278e-23)
(1.00523 -0.00445148 -1.64333e-22)
(0.999969 -3.15439e-06 -1.16032e-25)
(1.11425 0.239047 -3.00728e-20)
(1.06374 -0.0680734 -3.17499e-22)
(1.13977 -0.0534767 1.40693e-22)
(0.956168 -0.00780019 1.91278e-21)
(0.971778 -0.00552949 -3.52012e-22)
(0.998849 -0.00494538 2.16911e-22)
(1.00363 -0.00339824 2.30677e-22)
(1.07467 0.0901566 4.08412e-21)
(0.978969 -0.0483038 2.64204e-22)
(1.1927 0.105315 3.09404e-21)
(0.945385 -0.0177443 -3.44529e-21)
(0.995818 -0.00351711 -2.26098e-22)
(0.999988 -5.37062e-06 -8.17901e-27)
(0.992963 -0.0036074 -3.1827e-22)
(1.06344 0.244949 8.0733e-21)
(1.11458 0.0960604 -1.91243e-21)
(0.979674 -0.0726111 1.45354e-21)
(0.925826 -0.0076779 7.96382e-22)
(1.11505 0.221222 8.23206e-21)
(0.989448 -0.000747308 4.13217e-22)
(0.985995 -0.116732 2.40755e-22)
(0.99999 -0.000118116 -1.25202e-24)
(0.983472 -0.054466 2.22548e-21)
(0.998968 -0.000291134 -1.15865e-22)
(0.724657 0.153875 -2.57846e-20)
(0.976694 -0.0956818 -3.18775e-21)
(0.999892 -4.14118e-05 5.18092e-24)
(0.921183 -0.0249624 -2.07831e-22)
(0.97885 -0.051248 1.22472e-22)
(1.05729 0.104711 1.49658e-20)
(0.996813 -0.000974141 -3.0044e-22)
(0.976399 -0.0494714 -7.88308e-22)
(0.99703 -0.0137168 -2.67943e-22)
(1.00013 -0.0297013 -3.06262e-22)
(0.998438 -0.000715775 -7.64903e-23)
(1.05496 0.102625 -1.82034e-20)
(1.05519 -0.209458 3.40093e-21)
(0.978159 -0.0217293 -6.45666e-22)
(0.983229 -0.0189158 1.37556e-23)
(0.984023 -0.0063546 -1.99775e-22)
(1.00652 -0.00260245 -1.93656e-22)
(1.11445 0.21303 3.2155e-20)
(0.978068 -0.017626 2.92726e-22)
(1.02201 0.0538268 1.01731e-20)
(1.00335 -0.00273128 1.75872e-22)
(1.22745 -0.0823078 -1.02029e-22)
(0.891808 0.171421 4.72226e-21)
(0.989239 -0.000582981 -1.42783e-21)
(0.999717 -5.30647e-05 1.41039e-23)
(1.08755 0.123084 4.26182e-21)
(1.02446 0.199401 -3.21894e-20)
(1.03025 -0.0574234 -3.4965e-22)
(1.10007 -0.0577751 4.25393e-23)
(0.994186 -0.0171196 -3.40261e-22)
(0.956841 -0.00705051 -1.13359e-21)
(1.1783 0.139911 9.33276e-21)
(0.952267 -0.0662571 5.30339e-22)
(0.99997 -2.76913e-05 6.12177e-25)
(0.990849 -0.000144021 -7.3503e-22)
(1.00005 -7.26222e-06 2.58507e-24)
(0.994488 -0.0003443 5.49826e-22)
(0.999969 -2.90793e-05 -9.62422e-25)
(0.997551 -0.0191341 4.48369e-22)
(0.998821 -4.73072e-05 4.13722e-23)
(0.996643 -0.00717988 2.93309e-23)
(1.21295 -0.105324 -9.55043e-22)
(0.999271 -0.000492575 4.08154e-23)
(0.999386 -0.000252791 2.75082e-23)