/*--------------------------------*- C++ -*----------------------------------*\
  =========                 |
  \\      /  F ield         | OpenFOAM: The Open Source CFD Toolbox
   \\    /   O peration     | Website:  https://openfoam.org
    \\  /    A nd           | Version:  7
     \\/     M anipulation  |
\*---------------------------------------------------------------------------*/
FoamFile
{
    version     2.0;
    format      ascii;
    class       surfaceScalarField;
    location    "22.5";
    object      phi;
}
// * * * * * * * * * * * * * * * * * * * * * * * * * * * * * * * * * * * * * //

dimensions      [0 3 -1 0 0 0 0];

internalField   nonuniform List<scalar> 
11512
(
145.217
-506.399
361.182
-767.437
0.899229
766.538
416.741
-373.234
-43.5068
645.703
263.014
-908.718
1510.51
-1069.42
-441.097
1216.27
-1527.11
310.842
-47.0701
472.985
-425.915
169.073
-841.226
672.153
961.994
-1610.76
648.762
-1766.44
1674.08
92.3581
-542.947
1759.21
-1141.7
1935.48
-793.778
606.179
181.344
-787.524
-25.3428
-1318.81
1344.15
222.127
-1988.57
1022.84
-385.03
-637.808
-185.978
331.196
483.498
190.658
-674.155
1154.86
-1315.03
160.166
-323.794
378.837
-55.0433
1008.42
-1321.3
312.879
1221.67
799.868
-2021.53
74.1527
-1645.74
1571.59
-485.679
-1163.68
1649.36
473.835
182.016
-655.851
-188.274
-318.126
497.721
1012.79
1653.08
-1811.45
158.369
-94.8747
-1689.62
1784.49
-1560.37
655.381
904.99
-310.791
653.044
-342.254
-192.98
-131.437
324.416
1289.15
-1215
355.307
-1407.28
1051.97
-1754.27
1754.27
100.206
1537.42
-1637.63
-1082.78
-477.592
644.905
-691.976
-387.01
942.037
-555.027
1331.79
-1317.19
-14.5988
-1100.46
713.453
623.768
399.07
-404.992
-24.6077
429.6
-454.242
789.981
-335.739
-1618.39
1618.39
1253.55
-1437.85
184.308
-489.042
1710.71
1253.82
-311.78
1660.72
-1161.22
-499.502
65.4978
-389.292
2066.88
-1136.28
-930.599
1819.41
-166.324
452.075
156.155
-608.23
-467.295
977.025
-509.729
-1174.98
1275.18
-567.022
969.842
-402.82
398.41
756.454
660.705
-491.633
-438.346
590.987
-152.641
1190.59
-835.281
2308.22
-1080.69
-1227.53
1164.39
-2010.73
846.337
-1607.78
1582.43
440.574
-1582.27
-758.837
1250.42
-491.578
-671.609
360.818
1661.43
-699.438
-1106.93
-870.9
1977.83
690.168
-377.224
-312.944
690.459
563.358
-258.214
1511.76
102.888
-312.981
210.093
-284.796
758.631
-333.535
561.182
-227.646
-324.454
807.952
-319.96
-141.998
461.958
321.754
94.987
1465.43
-457.005
-991.121
490.995
500.126
267.662
96.5381
-364.2
947.603
-341.424
-1703.11
639.487
1063.62
19.2122
-860.977
841.765
-276.742
591.11
-314.367
158.124
-1093.91
935.782
1050.87
-1066.49
15.6147
373.125
517.374
-890.499
-245.387
697.462
-1103.15
-482.529
1585.68
-677.161
949.905
-272.744
1354.87
-1449.75
-647.179
285.406
361.773
-470.205
-1011.5
1481.7
-537.086
-796.075
1333.16
575.438
-995.436
419.999
-262.733
-314.922
577.656
402.967
-300.079
-1043.96
576.661
955.556
-797.433
-110.386
943.737
-833.351
-203.346
411.428
-208.083
-632.924
-358.197
-386.742
962.18
1856.36
-1856.36
-475.497
-171.682
-949.416
1564.32
-614.907
470.75
-906.699
435.949
-922.55
355.527
-941.905
-1058.08
-1496.38
344.022
1152.36
-274.359
920.062
-325.947
625.048
-299.101
-1941.9
999.992
-1146.06
-350.323
560.372
-1509.79
1728.51
-1725.9
-2.6039
202.921
-611.254
408.334
-1466.11
975.817
490.293
279.904
220.616
-500.52
306.219
-639.755
235.392
-409.837
174.445
2017.48
-866.091
-1151.39
-552.154
147.162
615.675
838.781
-1454.46
-183.355
418.747
431.629
876.221
-1307.85
-904.614
389.569
515.045
-1049.56
1447.97
-1068.41
309.574
748.21
-95.1654
563.536
-292.171
-271.365
1016.57
-525.574
593.429
-1403.7
810.273
-1342.14
238.99
-542.141
265.398
-1188.59
914.227
1943.39
-990.244
-953.142
276.799
1579.56
-2097.98
897.339
1200.64
356.616
-33.3414
-323.275
-223.152
479.24
-256.088
-99.4089
-388.692
488.101
-461.585
141.625
338.03
-131.237
601.986
425.751
379.237
-804.987
-2041.79
1121.65
920.137
461.911
-527.471
65.5594
218.252
-359.039
140.787
1005.99
1011.49
1790.49
-253.064
738.804
-453.397
795.836
-1389.17
593.332
355.987
334.181
1058.83
-1039.62
-494.054
-245.087
739.141
470.879
-129.599
-341.28
795.814
-614.469
553.229
-734.262
181.033
503.332
1157.39
-1240.32
703.23
1038.35
-1524.03
-3.12055
-1439.42
1442.55
327.046
823.142
-1150.19
622.274
269.923
-892.198
-2270.86
1150.96
1119.9
-1105.92
-1164.94
185.164
368.064
959.032
-631.986
878.35
-898.135
19.7848
-2099.39
992.459
-219.415
-187.005
406.42
-41.9912
1770.5
-837.158
69.7214
-1030.6
-1067.38
-228.173
446.424
-683.513
208.016
-278.547
-426.545
705.091
1103.97
-1574.17
782.673
-1374.27
591.597
697.713
-434.699
1947.83
-1444.5
-378.283
-1375.98
68.3665
404.619
-534.872
535.771
23.6676
-581.563
557.896
569.366
-289.462
-600.325
276.217
324.108
785.644
-359.893
34.8109
321.806
1188.47
-1191.59
167.937
235.03
396.111
-674.658
618.698
-1005.44
-2026.76
2026.76
-263.698
-448.041
711.739
698.882
405.851
-1104.73
579.929
168.281
411.901
373.743
-2199.76
1328.86
-926.029
-679.955
1605.98
-482.4
-706.186
-256.236
554.611
-298.375
834.475
-207.425
-627.05
-452.151
655.072
365.674
-691.621
-371.398
-131.374
502.772
-1334.43
-477.02
639.139
-1121.54
-374.14
-1244.25
844.35
1463.87
303.565
-917.9
614.335
966.449
-342.681
1391.25
-797.82
441.897
-273.96
-324.685
-878.164
576.767
301.397
-340.42
-537.743
315.22
-414.629
-194.522
-157.83
352.353
-392.803
1091.68
434.024
-243.367
-386.701
1358.89
-171.283
-1187.61
-477.286
294.012
183.274
226.496
262.297
-488.794
4.83114
-739.093
592.166
-1729.06
1136.9
1484.8
-869.121
-1049.65
-416.459
-1056.24
574.26
481.98
1386.6
-410.781
928.744
-1411.27
-171.641
-189.223
360.863
-468.101
579.134
-1628.7
427.882
903.903
290.023
300.167
-590.19
568.043
1186.22
1103.09
-711.305
-391.784
396.42
-208.617
-187.803
-1419.43
446.34
737.094
-1183.43
1473.26
-544.52
-488.876
936.242
-447.366
426.158
1186.14
-1612.3
47.4093
-724.57
-151.155
418.816
199.509
-392.489
536.515
480.054
-601.721
44.9828
556.738
1024.52
-1307.65
283.131
669.142
-257.241
468.371
-1447.21
978.843
399.819
1688.12
-523.727
895.451
1047.94
-659.65
-1684.81
758.779
564.15
405.486
-969.636
456.055
78.9952
1750.1
-1829.1
1443.65
-379.491
-1064.16
1699.19
-1741.18
-365.781
-532.723
726.191
-193.468
-502.591
176.26
294.619
-373.162
-1225.94
214.442
-764.701
-639.001
-637.521
997.475
-359.955
-651.721
641.586
10.1358
654.848
-923.461
268.613
-715.879
354.686
361.193
-647.565
-696.145
349.973
346.173
-932.167
1400.54
-421.65
890.343
-468.694
-2205.32
5.55692
173.071
-532.583
359.512
143.201
1215.69
-101.866
-581.648
154.702
-593.048
1487.03
-704.358
386.739
-465.749
79.0096
-562.182
562.182
1222.98
395.406
1778.18
-1228.17
589.855
638.315
847.562
-51.7486
1292.28
774.598
-540.771
1336.61
294.106
297.004
271.192
-803.915
243.994
-698.236
227.014
-439.332
212.318
-247.377
585.507
-338.13
118.362
-365.739
-591.393
-564.668
1156.06
-375.346
547.758
-172.413
-1192.15
2032.03
-839.884
1288.72
-329.684
-398.154
135.421
-1983.01
819.328
1540.48
-850.106
-690.374
1987.02
-877.472
-1109.55
714.203
574.514
-240.171
467.185
-675.786
1150.44
-474.657
-769.455
1201.08
551.837
924.584
-1725.62
801.039
-550.393
-78.7257
629.118
304.702
258.834
413.146
-93.9075
-319.239
896.44
-83.5388
-812.901
927.627
-569.958
-357.668
1576.16
-472.193
892.765
-1628.95
736.189
1068.45
879.382
747.753
-438.27
-309.483
-1058.88
-258.304
568.075
576.438
-1144.51
-466.057
518.777
-52.7205
574.396
-338.527
-235.87
-987.299
565.649
594.782
890.014
-441.781
1096.63
1420.58
-783.96
-636.623
391.74
-923.713
531.973
-1035.72
402.792
562.715
-1051.59
467.348
-542.229
74.8805
480.935
309.045
-513.378
-48.8037
-794.058
-880.483
1674.54
185.541
210.878
-231.877
417.041
-28.4227
-564.24
592.663
497.507
870.217
-1367.72
-508.132
313.61
985.317
-88.8775
835.638
-1064.43
228.791
403.065
845.39
-1386.16
-456.415
835.651
1980.73
-1286.72
-694.006
269.656
608.695
255.6
795.273
90.5774
-974.146
883.569
1673.72
-1088.96
-584.759
-138.001
1888.11
-1866.11
-160.648
482.712
-620.873
138.161
-1012.43
527.795
484.638
-1730.46
538.316
-955.552
845.166
392.871
198.116
579.742
-276.178
-419.224
708.586
257.863
56.0426
718.74
-774.783
-1133.91
-894.081
2027.99
-542.58
1113.16
-570.577
-477.211
-325.976
106.561
-1656.78
862.724
-854.062
-609.93
1463.99
-329.785
-294.641
624.426
356.06
-654.858
298.798
251.102
-610.995
329.924
200.271
-530.195
356.988
-613.224
626.083
-270.024
315.553
-457.552
679.503
414.523
-188.026
-397.969
-298.177
1224.8
-2.46181
-1222.34
1038.93
-420.237
558.996
410.846
-1782.32
869.812
912.508
490.015
556.259
-1046.27
-533.009
203.224
-264.07
1181.71
-917.644
-1590.83
1212.55
504.621
-1096.01
386.804
-0.0652509
430.954
310.314
-741.268
369.103
-614.49
-36.083
758.66
-722.577
-525.149
795.072
392.755
321.208
526.355
651.897
97.7545
-412.103
314.348
1058.3
-644.729
-413.568
494.039
-1664.27
1170.23
-1140.32
1753.23
-612.902
1715.87
-1123.7
-334.208
610.425
-1183.63
1274.21
424.756
-799.606
1609.95
-810.339
-270.255
-207.031
-899.401
1471.9
1815.17
-610.853
-1204.32
-405.176
666.298
-1303.82
-124.675
-53.1947
466.341
-686.919
-354.181
-1236.65
-217.158
468.26
902.71
-561.365
172.672
-1674.79
-71.2878
1746.08
-1075.16
532.584
566.776
-1185.33
618.554
901.124
914.045
630.529
619.887
695.352
240.89
-1144.08
468.297
-398.285
421.953
616.613
-513.967
239.418
-732.101
492.683
702.594
-346.607
-315.167
183.731
-611.094
246.251
364.843
-886.717
-742.237
1087.67
-2145.75
396.554
-681.349
-342.829
-723.658
836.422
584.161
-343.394
318.786
376.076
230.389
640.849
-871.238
527.457
622.986
-546.235
174.837
359.705
-623.403
-1046.86
-848.607
1895.46
-1803.15
157.409
1106.8
-1370.87
1164.24
-718.735
-445.502
-504.301
1349.69
-1495.46
627.917
867.542
-284.787
-209.495
494.282
1428.43
558.589
352.708
-484.082
-481.284
-571.983
1053.27
-424.068
597.139
1583.03
-1130.51
-452.519
-785.24
337.199
654.577
403.719
-1623.42
416.181
1207.24
-187.654
517.578
797.657
785.377
201.746
-695.79
494.044
200.717
210.712
-280.897
-110.279
391.175
496.903
-2.1376
-494.765
-1643.68
594.032
-1609.92
1678.15
-68.2234
12.4692
-1622.39
1069.51
774.185
-343.232
-817.132
-218.584
-1134.58
-239.693
-312.18
681.283
-1812.79
-635.034
1211.47
218.147
758.877
-1331.97
-678.758
-465.917
621.354
-331.331
-1013.27
1350.8
-1932.98
582.182
647.042
1288.43
481.684
-2.44358
718.086
709.554
-1427.64
-637.131
330.569
306.562
436.562
-100.618
-335.944
144.628
312.865
155.858
-468.722
-591.807
1155.96
458.051
-638.469
-460.273
-401.893
862.167
-329.223
157.582
-456.683
156.604
-302.362
-710.072
542.569
-106.007
-575.8
967.539
574.248
-268.066
-306.182
453.462
-777.916
-648.551
452.512
-1129.38
-842.748
1186.77
-569.771
450.053
289.088
-461.009
83.7852
1027.68
-314.409
590.174
-275.766
-509.04
1578.55
-697.115
248.204
371.171
-619.375
223.793
493.182
-30.296
-462.886
-262.922
-193.761
1009.76
1108.86
564.859
-882.83
948.794
-65.9642
-452.628
167.841
-741.692
315.147
-596.889
326.152
376.442
836.161
-1243.99
407.826
776.488
-812.571
-948.865
-550.391
1499.26
-171.155
471.323
-555.601
263.429
1305.79
785.945
-584.199
1322.66
-683.523
487.329
-669.012
-406.654
-421.521
-378.581
800.102
500.911
-842.335
-464.129
96.6613
367.468
-314.238
572.471
726.691
-330.137
-234.253
-175.393
409.646
-492.142
134.522
357.62
1460.78
82.2395
-1543.02
-754.147
1348.93
-1144.77
-465.981
546.612
-175.441
1152.66
-376.174
1083.44
492.717
701.482
-430.29
-884.828
-522.45
-1328.36
-22.5571
985.669
-963.112
596.686
340.202
-936.888
-341.954
-210.2
-683.05
405.536
1621.22
-188.554
379.182
343.564
-722.746
-1839.76
-2106.7
1519.15
587.549
-2038.53
348.907
373.047
535.082
-908.129
-460.49
1019.49
-405.077
-671.915
1076.99
-2030.55
1391.21
639.34
597.98
-1003.06
43.0114
424.337
386.431
189.845
252.051
322.027
971.028
875.284
677.265
-322.578
-354.686
-289.96
618.102
-328.142
570.846
532.242
564.703
514.646
-1079.35
-796.106
-699.354
751.532
401.13
-412.308
711.106
-1193.39
1609.57
429.953
-1101.87
-344.865
545.136
-1384.79
882.516
502.27
-714.13
-344.532
-780.329
347.193
433.136
447.275
717.694
-1164.97
1075.94
-585.925
-417.076
669.181
-252.105
251.578
322.669
-466.602
-432.331
898.933
-231.813
566.694
-961.987
395.293
-463.15
600.598
-1681.29
423.933
670.377
-1094.31
523.24
101.809
113.411
-2212.8
546.1
-96.0478
1444.7
1777.1
-217.549
-1559.55
-438.512
1789.31
-1987.19
1194.56
792.632
398.608
349.145
-40.787
877.209
-1282.91
718.245
-868.495
-822.468
799.911
301.649
71.4904
-373.139
223.798
176.952
-400.75
1559.5
-841.414
-1530.93
-325.432
501.621
-221.306
-280.315
392.408
366.223
257.006
364.348
-10.5871
1002.94
-992.348
379.453
288.659
-668.112
-734.142
1817.39
-1083.25
-342.821
735.229
-1223.52
-414.11
-914.199
481.869
584.487
-788.464
203.977
759.423
-377.881
-381.541
-433.602
-449.228
450.562
1090.17
1240.46
-673.689
799.323
-345.861
384.704
327.035
-239.913
-225.836
-217.889
617.708
408.237
-845.972
437.734
227.35
353.318
-580.668
-420.742
828.979
754.191
-1146.99
892.327
-56.1661
-487.697
279.171
779.658
-96.3575
1384.79
1890.51
-54.1683
348.18
-319.928
417.683
-1087.63
1077.05
636.459
376.575
382.848
80.2096
421.411
262.167
504.37
-375.965
-261.166
-562.055
-89.6662
-367.368
364.604
2.76457
-257.832
-284.309
1010.85
-1540.69
529.843
-186.73
-186.504
-388.608
677.267
-1642.35
1590.97
-963.049
270.99
-677.644
584.328
1224.41
-1808.74
607.434
983.532
316.484
-1125.37
706.145
-288.108
-302.083
1383.17
-1451.69
833.007
618.68
433.36
-638.813
205.454
-385.12
485.527
-100.408
382.477
114.426
1724.45
452.889
-252.172
557.655
-1704.79
1147.14
-97.1098
395.933
343.215
334.049
-448.701
-614.838
1063.54
413.829
-870.244
-640.496
902.484
570.78
-483.098
-232.781
-436.607
-409.364
-307.551
-827.025
1821.1
-1821.1
-102.626
-1596.2
1698.82
296.6
277.796
-916.972
-555.546
1472.52
-408.196
972.899
-604.019
-1039.66
693.359
396.998
-1090.36
471.591
-156.038
573.071
1220.34
-1793.41
-1043.28
2114.57
-1071.29
-378.372
-293.237
-489.716
826.915
-1757.01
1605.26
151.747
1757.01
-1610.85
-146.159
-241.126
519.832
-278.706
-537.304
1620.75
1571.11
-1985.22
1096.15
-293.544
-265.02
558.563
231.684
-576.549
-708.319
296.011
1342.91
637.814
584.967
480.333
-1065.3
273.485
427.997
875.273
500.112
-1375.39
538.484
-1019.77
1574.95
-564.1
-775.69
-364.363
-132.153
496.516
-490.252
1207.95
-742.133
330.516
366.947
378.489
248.442
-626.931
610.173
831.685
-602.894
262.902
685.893
-483.098
-329.955
-239.423
569.378
1168.47
-678.166
607.711
468.14
-1075.85
-1287.86
1287.86
-383.87
760.445
-278.442
-482.563
761.005
497.628
442.575
-940.203
394.627
-673.069
606.929
-870.476
263.547
-367.584
-490.879
1075.85
-659.959
-712.596
1372.55
-378.65
945.344
-1552.76
675.283
33.9088
-426.662
392.753
-518.943
726.959
263.879
321.628
164.23
307.361
-529.865
241.757
1870.25
-1966.61
264.293
-716.444
457.816
-825.121
367.305
-911.397
1421.66
-510.264
-430.227
-483.972
600.833
1124.17
-1725
-714.579
336.206
-463.08
1033.93
-789.387
1052.29
-374.356
-624.168
-497.755
741.749
538.281
-356.265
911.457
-314.813
-177.329
1599.03
-1816.58
-348.776
-613.211
-345.89
480.412
272
-603.331
-177.735
1069.55
-790.379
203.182
-299.221
-276.588
575.809
392.483
-887.047
494.564
-481.297
-461.423
-917.9
-358.643
591.807
-233.165
-457.909
-438.241
-346.719
-183.476
-402.095
650.537
-447.732
774.767
-1072.05
623.352
-1407.33
553.266
-28.5235
-1838.66
1867.18
570.058
-450.379
1229.23
-696.642
298.84
-298.84
673.202
-449.262
1039.72
-1643.74
-1158.74
-947.96
288.933
329.169
893.065
716.88
-504.894
-304.235
809.129
1660.45
-1688.97
-433.612
339.859
229.507
1135.01
-527.304
-943.339
1550.49
-607.151
442.798
-252.953
375.535
396.355
-771.89
540.031
469.306
-1009.34
-331.505
662.021
-38.0757
1908.33
1600.09
992.519
-1696.88
726.682
-1176.76
450.074
-492.499
1367.77
836.861
-1341.16
-571.066
277.523
806.883
-401.397
549.462
-1192.22
642.753
-634.759
-1215.53
-695.689
1911.22
-192.858
559.635
-366.778
-179.524
317.894
-510.752
334.519
365.671
-700.19
-1488.56
757.043
731.522
884
-1434.39
822.869
-433.3
209.111
-360.266
-603.675
273.72
-655.922
-728.864
697.632
507.163
-1204.8
385.527
-205.854
-179.673
554.602
-957.422
-577.152
-428.021
743.168
-831.332
-1155.86
-1437.95
499.713
938.236
7.19349
-648.915
349.33
299.586
-1321.34
1048.8
272.548
-615.643
-456.409
-665.624
921.224
398.581
-194.149
-204.432
508.356
980.489
-1488.84
982.605
-560.453
165.662
394.791
-412.93
683.492
-419.199
-509.22
163.33
234.192
-1520.91
527.233
548.708
-769.399
250.456
144.309
-459.122
364.455
-825.878
1954.16
-1195.39
-758.775
424.674
-688.081
263.407
321.568
337.667
110.321
-447.988
-576.969
188.666
264.223
-691.792
1374.23
-682.438
424.097
474.876
-1189.01
262
1866.77
-1013.59
-853.182
784.302
-543.938
185.296
1402.32
-975.128
-427.196
329.234
-778.495
-616.568
1725.43
609.002
631.463
327.617
-25.9678
266.416
-1138.37
1725.72
-587.353
-1763.54
820.203
1763.09
-1692.58
-70.5098
-666.439
268.153
577.323
-728.055
230.3
1402.62
-565.762
384.273
451.379
-1858.71
1420.2
565.1
-441.904
-123.195
202.194
-548.914
-287.316
-189.895
-349.778
692.993
-588.855
224.492
617.281
549.201
-1166.48
1113.52
-1947.6
834.078
157.148
345.624
-1699.94
1661.86
310.574
-740.864
-170.841
379.952
760.219
679.378
-1439.6
1081.94
-1084.41
524.464
-1110.39
-626.768
248.839
377.929
536.823
-290.572
-614.275
-1029.46
290.533
-728.773
-912.321
174.516
156.746
228.781
402.137
289.272
-691.408
-635.867
-834.269
-978.524
488.828
-1065.8
-307.378
490.652
534.575
652.195
-277.489
-120.666
-413.359
729.843
267.086
-1202.82
566.95
1313.04
-552.819
442.897
-1020.05
-383.495
160.26
404.84
1023.2
551.742
-1719.41
1616.78
1637.08
-575.666
-1061.42
1905.58
-1894.64
-10.9409
218.041
-537.97
-358.168
561.35
-772.137
-329.771
-336.667
1022.81
705.375
-1512.19
806.818
324.861
-26.1856
1625.22
-1095.65
417.482
-1248.6
472.909
-61.169
1521.95
1197.13
-470.444
-486.744
-73.7088
-273.562
736.06
-1951.59
-708.019
360.695
-535.614
174.919
190.651
-505.059
1139.94
671.601
-1811.54
-625.203
183.298
941.753
-1497.3
-210.527
678.796
-468.27
877.822
1122.18
-742.967
1351.97
622.278
-493.469
-128.809
-343.631
1176.64
1048.43
-1980.43
931.994
-1177.02
541.982
1488.74
-586.257
-395.498
-150.737
-1245.01
571.323
1163.73
-100.111
946.214
775.876
-1722.09
-200.669
578.727
-1541.73
963.002
487.017
916.478
-1403.5
626.567
584.906
402.966
-1106.61
589.837
1111.57
1215.38
-452.181
-763.195
-1186.2
-1754.94
-6.01781
-1713.39
-204.789
-434.024
1610.42
-632.619
-977.804
-490.829
1121.36
-1320.83
634.778
686.057
-1363.94
1446.18
-1333.69
590.72
1520.48
-393.128
-584.539
189.042
-1487.06
228.115
176.385
236.885
385.393
439.685
406.146
-845.831
506.421
-938.858
900.295
-1444.82
-710.555
236.372
474.183
-1050.66
458.852
-483.053
867.326
697.234
19.4358
-536.874
170.097
-886.568
-1318.75
-712.899
346.928
365.971
399.316
-722.401
323.085
-474.974
-189.372
-708.763
723.706
1539.98
-593.767
820.916
738.584
1344.67
-844.556
-971.02
-570.709
-794.739
428.774
365.965
-1035.88
-639.482
300.762
338.72
-1433.69
-296.779
-788.656
395.737
392.92
-661.549
413.067
248.482
-687.807
268.608
412.859
486.074
389.933
439.046
477.64
384.527
595.692
-968.854
689.549
466.407
452.366
356.171
-808.537
1630.74
-1079.84
-550.895
-504.78
-289.394
-1031.95
452.402
347.7
409.748
593.132
-1002.88
-1383.66
751.037
-530.287
1148.84
363.299
-50.434
412.509
-863.917
451.407
-1898.07
301.876
439.824
-724.547
284.724
-191.263
401.424
-210.161
-660.786
302.193
358.593
-671.413
316.727
370.896
389.548
612.069
-1020.27
752.249
663.794
-1416.04
438.852
624.687
338.117
392.212
-730.328
407.02
328.209
602.335
676.032
414.141
602.161
-1031.37
429.212
-1674.38
1186.46
487.924
1696.57
-539.181
619.27
-1147.14
527.871
-640.587
345.946
437.62
-933.97
496.35
763.89
-453.576
350.946
342.048
577.626
-926.402
653.095
-1252.83
599.73
385.568
734.132
-1224.38
768.923
509.888
-1278.81
492.889
405.613
-898.502
-501.76
-936.189
-296.589
631.107
352.542
540.931
-893.473
330.404
331.617
-502.189
1944.73
436.12
-846.017
409.897
-917.665
-807.957
-746.398
364.856
-1228.72
439.332
-1739.84
1610.85
128.995
1750.14
-1605.26
-144.884
-782.468
-589.053
261.889
327.164
-1763.09
1985.22
538.927
790.91
-1329.84
440.155
715.906
689.904
385.623
-1075.53
-61.589
1617.14
-593.94
389.296
839.929
-646.537
324.234
322.303
-378.85
-296.59
548.169
-214.718
435.334
277.793
-662.138
384.345
260.582
-574.949
-279.694
442.748
-1032.73
589.98
538.064
1092.67
366.011
596.168
309.728
350.989
-660.717
1632.09
-926.717
1692.36
-1521.06
-171.301
-328.471
-821.513
412.149
857.308
-1067.83
-603.625
275.483
-1090.55
1628.61
-1591.64
-76.4299
1668.07
-341.736
-350.549
-370.651
539.373
595.642
-502.382
-25.0891
-549.701
502.118
-283.791
-218.327
1755.58
-1305.02
-621.867
296.039
325.828
403.164
357.313
734.372
-292.698
-399.469
-1750.14
1688.97
459.74
-1100.4
640.66
-42.5032
1659.28
570.906
476.326
-1047.23
103.43
1144.49
-1452.04
-12.4223
-1885.65
223.412
-595.52
306.858
288.662
-954.858
612.029
-896.937
466.709
-1128.11
672.79
455.32
379.182
269.801
-774.694
-311.823
1216.45
886.342
699.335
-1182.71
456.162
726.551
494.592
700.152
-1194.74
-361.574
-249.331
406.076
-959.663
438.904
520.759
21.2263
-1879.94
1081.2
-474.27
-505.789
558.64
-1378.11
819.469
-433.461
800.766
-405.809
500.596
-712.136
1721.89
405.725
-176.944
213.618
-163.261
-247.275
410.536
1895.34
-504.126
-1699.36
1050.92
-597.962
301.372
-1012.89
552.401
-312.949
544.413
905.066
-1449.48
-1103.22
437.6
-20.9933
-1945.62
1713.25
-664.822
-539.656
460.85
-1190.2
729.348
196.274
202.307
-279.59
772.713
699.185
836.893
816.903
-460.732
1084.43
-486.981
473.53
-188.347
-285.183
-1924.29
-713.338
-317.727
-641.425
-6.45433
647.879
461.314
-272.648
568.21
1063.88
-809.187
923.694
1244.02
-425.777
-181.97
-238.555
420.525
956.721
-888.368
-319.787
-1067.24
610.83
1561.65
-804.606
537.8
934.719
-399.032
737.166
-338.134
1130.06
-274.365
339.253
1349.55
-707.631
-216.082
448.341
-1198.39
750.05
-987.17
-125.552
1112.72
440.307
-954.81
514.503
177.509
732.271
483.105
743.306
-102.457
851.556
-426.182
1182.13
-796.506
552.384
-1465.42
913.033
-1216.64
1800.97
-431.708
-1510.19
879.42
-1401.87
-319.259
-422.009
1457.12
-1526.3
784.061
1491.43
196.969
276.561
-364.911
-1739.84
-289.484
-1014.42
1582.63
-1774.1
1774.1
1571.11
-1004.39
-632.323
-348.801
368.367
604.532
-375.196
-372.284
-1389.73
897.231
1125.1
600.623
1202.48
1789.49
-1216.41
-617.911
272.967
1659.15
-1916.69
257.533
815.385
-1267.9
1545.19
-561.66
791.375
321.782
-351.6
555.332
794.359
662.891
1365.1
-235.537
-445.529
-374.355
494.828
-338.674
471.953
735.994
-309.309
-138.679
-340.812
572.589
-231.777
32.724
-371.251
1107.38
-1720.28
-449.257
-496.644
-572.625
864.196
697.452
-1596.38
904.591
-452.102
-627.815
-514.803
1251.9
346.747
1723.8
-1702.58
-1660.45
1894.64
-1560.7
840.171
720.529
-383.679
-1798.46
917.98
583.75
818.873
-394.158
1794.46
-680.937
-420.07
684.212
438.183
-1122.39
-1102.27
444.2
752.926
-1617.14
473.252
900.978
169.918
-395.37
225.452
-1601.24
-387.323
-437.625
990.216
-678.062
1442.87
-976.295
1854.12
242.464
-540.533
492.569
-295.6
474.335
893.437
543.289
977.191
-463.313
-427.924
574.222
882.9
-1392.69
-40.9916
1578.58
-839.991
519.967
971.467
-1475.8
-1115.9
1775.97
-1242.45
-533.524
1206.07
-319.234
-886.832
-185.914
449.002
-263.088
-457.353
-251.306
425.565
-174.259
139.143
-388.473
1735.08
-1741.1
-467.921
-530.873
-903.518
438.087
-199.963
-238.123
632.031
-464.648
-361.816
-323.515
685.331
-936.778
399.035
-1167.06
676.234
412.382
-642.017
-437.329
1582.11
-865.228
530.196
-458.29
-569.857
-462.871
359.434
-348.731
-10.7023
-1113.08
416.436
-664.945
-1033.56
1698.5
-607.762
-1424.61
712.014
562.296
-1596.25
1033.96
-399.244
-475.879
157.362
537.99
-1258.4
743.601
539.255
1005.94
-2133.17
999.984
1133.19
-374.398
407.726
-382.405
-25.3208
1478.01
-377.447
449.629
1198.35
582.517
906.224
566.749
527.895
-1094.64
158.802
-450.331
-1692.58
252.005
1127.52
-621.561
518.608
1013.62
-1532.23
1092.81
-1643.7
187.904
704.423
555.208
-874.995
-1086.36
-167.392
422.694
-255.302
-586.49
-439.502
-636.741
-624.745
345.155
-1619.41
939.458
-477.048
215.784
-392.727
530.954
-307.542
-614.436
1197.06
-1286.52
927.147
359.371
-1023.71
-379.726
-762.364
-828.705
1692.9
-477.259
1795.1
-1585.19
-209.912
-1556.6
1018.66
537.939
-730.114
-254.199
435.841
-181.642
-599.39
384.769
270.025
-654.795
-524.232
997.455
627.287
-351.804
-1620.24
1050.47
571.802
1103.5
-1675.3
-424.323
-287.217
-373.569
-748.878
-480.255
-332.034
496.263
1557.99
-995.691
-774.505
1497.45
659.774
-319.915
725.883
1152.35
-1878.24
302.052
315.451
-487.45
-1933.69
1720.93
212.761
736.202
-475.449
-260.753
531.86
1060.77
-1592.63
359.434
-1725.81
-233.213
1752.36
-1580.66
1073.74
506.923
-1727.38
1.56624
-521.954
407.726
1699.94
-1720.93
939.434
625.049
-1564.48
373.777
-216.705
-157.071
-420.886
-266.92
67.7258
94.6394
-348.838
-426.952
-443.525
-404.507
213.244
1510.18
379.041
-217.668
-443.881
456.737
-192.514
329.808
1510.72
994.354
-165.517
-828.836
-1104.06
1704.89
-1728.9
1063.95
-707.393
-1021.5
-1265.07
1844.98
-579.912
1155.06
-1771.22
616.166
268.449
-877.823
1675.86
43.4227
-1719.28
-491.184
-1082.99
-1735.08
-981.174
553.251
1019.54
590.265
1132.99
-1723.26
280.611
-456.052
701.508
-384.782
387.874
924.527
681.457
-384.242
-647.132
582.929
1072.5
-1655.43
-405.744
-364.737
770.481
438.749
-1661.86
1521.06
140.8
580.828
-1043.91
544.758
1083.86
-1555.63
993.971
-233.897
226.828
334.522
1905.58
441.07
-74.4317
995.85
722.751
-1718.6
-696.92
1085.28
-1557.48
159.23
-570.328
192.652
264.084
-664.867
-563.853
582.63
1034.51
-710.901
-282.062
-1368.5
674.395
694.105
-408.046
756.791
79.0461
-835.837
562.101
-137.183
1557.38
-208.233
279.743
-775.26
-1933.69
1664.61
1026.34
354.686
308.034
455.856
-929.957
-994.336
-1767.26
633.609
1693.76
505.399
-474.565
1210.56
1087.07
-424.949
1029.48
-977.812
489.642
488.171
700.602
1047.91
-1748.51
481.58
485.96
-1493.92
-746.001
34.6962
778.345
-413.489
-890.784
384.995
-539.644
-801.518
614.335
-577.837
1397.31
1055.17
189.947
232.747
-550.659
1618.5
-774.368
1526.62
-1727.83
575.288
1152.55
540.089
-882.77
-1733.02
1916.69
-183.666
1721.73
176.354
-545.358
361.819
-267.18
-481.58
1210.93
568.273
1128.3
-491.195
428.404
856.809
-457.739
-774.072
432.982
341.09
1419.29
1089.56
-518.304
1422.9
-510.536
-533.136
1043.67
-602.798
489.976
-1208.71
1692.36
1839.57
-687.218
1585.93
-646.498
-1240.94
716.71
-562.767
196.422
-383.428
447.816
-237.104
-518.518
-1246.7
1870.95
-624.246
1173.45
-554.184
1120.26
-1659.44
1700.59
-573.975
-547.411
-549.839
1720.07
-316.713
-688.089
-473.395
1223.44
-1687.9
-1860.11
613.408
315.593
-942.643
162.478
208.778
-1719.02
1204.14
514.887
1162.84
558.889
-512.617
-465.43
1191.98
182.755
218.669
588.447
1251.12
-539.183
-1238.58
1777.76
-1025.3
999.986
866.784
-204.074
-1659.15
1702.58
-510.156
1411.13
-1733.02
-351.387
7.22942
344.157
-256.776
585.43
-328.655
88.028
488.739
780.57
-381.254
1257.52
1270.68
-413.371
850.637
-438.488
1817.52
-662.462
1586.62
-1723.8
-412.815
-756.872
309.299
447.573
-560.771
-563.5
79.7428
-1138.63
-985.297
-670.168
1655.46
-943.701
-1189.47
160.19
-425.21
-647.61
705.713
1167.44
650.081
1410.3
-591.427
1636.73
1318.04
-574.444
-487.681
192.081
-503.314
1396.75
1240.07
-565.679
-999.982
891.797
57.7916
-949.589
603.42
-506.188
1403.42
1495.06
-588.836
-357.516
357.516
-589.541
1623.5
1239.27
-486.345
1134.13
-66.6103
1851.1
-384.01
1489.47
-589.178
-507.694
1347.87
-651.052
1218.65
-567.6
1554.81
-591.807
756.611
576.619
-1333.23
-657.464
283.564
502.381
600.635
-1957.29
-997.453
1586.62
361.899
-361.899
-62.959
384.912
437.957
394.799
-12.3219
-326.957
907.339
-521.771
-427.788
812.7
-239.545
617.474
-428.574
1550.23
-444.347
-884.009
179.586
225.265
-404.851
601.172
1250.77
-1851.94
925.914
-459.205
-348.731
126.149
-1943.04
1816.89
-449.553
175.593
1181.09
-440.493
-740.593
-299.819
-590.965
-495.022
-382.405
-475.612
257.285
1158.22
-562.58
232.312
-374.333
142.021
-22.9712
-107.682
1375.98
-1268.3
34.6243
-596.68
-586.469
-447.799
447.799
-1262.34
1985.1
-1344.33
-212.61
-1824.52
239.33
-1025.75
-974.244
-180.319
-1638.95
708.998
1229.32
-1925.01
364.912
315.971
-680.883
-1850.02
1234.27
615.751
-559.945
559.945
-959.001
-40.0727
-1866.11
-558.169
1650.84
-676.272
1636.19
-601.673
-180.083
-1705.57
-581.282
-448.838
-594.845
-462.554
462.554
-1537.81
194.528
1343.28
166.505
223.638
-390.143
497.886
496.468
996.193
-475.434
1751.29
769.389
-418.188
392.867
522.402
1702.06
-594.688
-552.982
1636.84
465.62
1812.8
-645.358
-1804.31
-1938.07
-647.054
-475.496
475.496
-598.319
223.965
-695.596
1018.71
-466.312
-1074.91
-292.949
1579.56
1852.3
1635.36
-1635.36
-275.672
740.694
1761.51
595.798
1275.15
167.301
206.475
587.942
590.177
1603.49
-1603.49
218.006
-357.489
-437.723
454.031
950.976
-461.335
-638.99
-1130.97
1706.26
276.738
-1657.76
618.095
-289.149
465.503
1744.65
-592.102
-213.414
-423.811
379.332
732.24
1738.58
-613.48
-511.783
-773.724
1960.54
-870.459
-1090.08
1642.73
-704.135
1223.96
-1824.96
600.992
347.287
-887.82
-185.311
-102.178
1097.73
-486.895
138.924
625.714
-1655.18
433.865
618.521
-1804.31
-583.29
1787.43
883.634
-1162.89
1760.49
-597.601
1783.83
-575.546
-1208.29
437.853
928.709
-1741.1
924.562
-1488.95
256.368
1232.58
-832.696
-1254.22
-374.011
73.6397
300.372
581.756
265.67
1031.53
-440.114
845.809
-405.695
820.606
740.6
-1561.21
644.276
1066.43
-24.0346
-662.091
686.126
-1744.43
722.922
705.164
150.544
-1122.63
1936.77
-674.56
-1262.21
-537.183
1665.48
834.139
966.34
-1800.48
1227.86
683.356
-407.821
710.015
835.057
1027.57
-587.261
1761.51
625.972
1773.56
-1185.6
-587.964
-382.803
-338.724
721.527
121.452
-1185.61
1660.53
-540.28
-1437.79
1437.79
1250.56
594.422
1351.45
206.538
-560.842
281.466
-184.928
699.133
1113.66
478.116
-295.361
-869.667
-575.149
1739.54
-1739.54
997.991
-997.991
987.336
1025.17
-2012.51
1837.95
-613.991
-581.119
833.394
-947.853
-1052.16
998.238
691.1
-1689.34
-513.378
-359.22
-643.837
-808.433
2042.7
-1246.41
-613.697
1002.97
974.857
1289.77
646.997
322.658
1012.69
229.029
340.456
1186.22
1756.89
-1756.89
671.593
79.6087
-385.79
-997.058
-539.994
1674.13
989.992
1010.01
-1833.3
-219.236