/*--------------------------------*- C++ -*----------------------------------*\
  =========                 |
  \\      /  F ield         | OpenFOAM: The Open Source CFD Toolbox
   \\    /   O peration     | Website:  https://openfoam.org
    \\  /    A nd           | Version:  7
     \\/     M anipulation  |
\*---------------------------------------------------------------------------*/
FoamFile
{
    version     2.0;
    format      ascii;
    class       volVectorField;
    location    "5";
    object      U;
}
// * * * * * * * * * * * * * * * * * * * * * * * * * * * * * * * * * * * * * //

dimensions      [0 1 -1 0 0 0 0];

internalField   nonuniform List<vector> 
29659
(
(1.00915 -0.0119819 7.71826e-22)
(1.01141 0.00391953 2.92782e-21)
(0.991919 -0.00289194 -4.36377e-21)
(0.973021 -0.0431074 1.30152e-21)
(0.997853 -4.42877e-05 6.19771e-22)
(0.962048 -0.0263843 -2.02076e-21)
(1.04798 -0.0704615 3.95133e-22)
(1.01196 -0.0183454 -7.91999e-23)
(1.00178 -0.00169348 1.04002e-22)
(1.00017 -4.34403e-05 2.82497e-23)
(1.0133 -0.0245577 2.82097e-23)
(0.998113 -0.0143918 -1.43728e-21)
(0.999579 -0.00017574 8.42655e-23)
(0.999972 -9.11114e-06 2.08927e-24)
(1.15593 0.0512829 7.97049e-21)
(0.994673 -0.00171755 6.61983e-22)
(0.999846 -0.000743708 -3.42374e-23)
(1.11791 -0.0172162 -8.23299e-22)
(0.998141 -0.00159834 -2.12149e-22)
(0.990399 -0.000722322 -9.58474e-22)
(0.999249 -0.000235069 -2.90472e-22)
(1.00169 -0.00170269 3.65996e-22)
(0.991826 -0.00306757 4.79563e-21)
(0.998131 -0.000145145 2.73842e-22)
(0.855135 0.158147 1.02212e-21)
(1.01207 0.00313881 1.57646e-20)
(0.999544 -4.92999e-05 1.91839e-22)
(0.9335 0.123556 -7.73972e-20)
(1.15938 0.0493567 -2.02668e-20)
(0.999345 -0.00794152 -2.79445e-22)
(1.01356 -0.00958909 5.24413e-22)
(1.03397 -0.0078911 -3.77451e-21)
(0.979756 -0.0999592 1.17968e-20)
(0.998269 -0.0200469 6.86244e-22)
(0.929521 0.11745 6.35845e-20)
(1.00255 -0.0285724 1.52885e-21)
(1.07073 0.0366804 -4.97452e-21)
(0.975372 -0.0242327 5.64721e-21)
(1.00483 -0.000713205 -1.41327e-21)
(1.00459 -0.000401255 2.6702e-21)
(1.00038 -0.00016071 -8.42774e-23)
(0.989927 -0.0264401 -5.11941e-21)
(0.999866 -0.000721298 -6.35355e-25)
(1.02082 -0.0628817 -4.67906e-21)
(1.00003 -4.17895e-06 -6.05198e-24)
(0.999459 -0.00806665 2.20577e-22)
(0.997734 -0.0107039 -4.01492e-22)
(1.00007 -7.58147e-05 1.51974e-23)
(1.00286 -0.00323605 -1.48621e-21)
(1.06964 0.0343152 -2.05609e-21)
(1.09698 -0.0819223 6.69977e-23)
(0.976101 -0.0380266 -6.12436e-21)
(1.03347 -0.00690132 1.32468e-21)
(0.963275 -0.0262075 -3.39384e-21)
(0.994802 -0.0017765 -5.84031e-22)
(1.15839 0.041275 -1.30655e-20)
(0.997023 -0.00196916 2.07548e-22)
(0.999225 -0.000261921 3.67601e-22)
(0.99983 -0.0189073 -8.91164e-22)
(1.00798 -0.0509019 -2.67932e-21)
(0.999941 -8.03024e-06 5.00282e-24)
(0.9982 -0.00163143 -4.37507e-23)
(1.1954 -0.0174661 3.87648e-21)
(1.00287 -0.0279286 -8.04144e-22)
(1.08512 0.100239 3.73006e-20)
(0.884385 0.0409674 1.59553e-19)
(0.998791 -0.0238282 -1.75311e-21)
(0.99367 -0.0120242 1.98024e-21)
(0.911968 0.0257761 6.42089e-20)
(1.0004 -0.000156918 5.46034e-23)
(1.01339 0.0041366 -2.14925e-20)
(0.986654 0.0910233 4.53279e-20)
(1.00277 -0.00802346 -6.27819e-22)
(0.888492 0.183738 4.00453e-20)
(0.992962 -0.000564268 3.07864e-21)
(1.09821 -0.0493816 1.59792e-21)
(1.21415 0.0574977 2.33488e-20)
(0.976401 -0.0137137 1.36624e-21)
(0.999957 -2.02582e-05 -1.41823e-23)
(1.00238 -0.0419947 -2.86244e-21)
(0.963509 -0.000629493 -2.28027e-21)
(1.02447 0.0379219 1.22678e-20)
(1.00946 -0.0125167 -2.3169e-21)
(1 -5.41167e-05 -1.02963e-24)
(1.05003 -0.0689771 -3.79346e-22)
(1.17744 -0.128287 -2.89642e-21)
(1.05132 0.0947028 -7.17603e-20)
(0.999561 -0.000174234 -7.59616e-23)
(0.999591 -0.000154999 -2.23166e-23)
(0.944018 -0.0335841 -8.44741e-21)
(0.993808 -0.0456672 6.28518e-21)
(0.97629 -0.0143764 1.51273e-21)
(1.00268 -0.00335606 2.58046e-22)
(1.05259 -0.0128723 -2.27063e-21)
(0.939091 -0.0143616 -7.02461e-21)
(1.06978 0.113247 3.40293e-20)
(0.995191 -0.0590795 9.69768e-21)
(1.00042 -0.0003349 1.38999e-22)
(0.973512 -0.0541618 -1.081e-20)
(1.1606 0.071456 3.32611e-20)
(0.999954 -2.01818e-05 2.07155e-23)
(0.977541 -0.00899723 -8.16216e-21)
(0.999943 -1.00873e-05 -2.57835e-24)
(1.04082 -0.0191131 -1.17617e-20)
(0.974925 -0.0378744 4.08078e-21)
(1.03559 0.0101109 2.24116e-20)
(1.00737 0.080265 6.95075e-20)
(0.999608 -0.000156742 -1.88938e-22)
(0.999995 -5.9698e-05 -1.14427e-25)
(0.993188 -0.0964622 -5.12952e-22)
(0.978025 -0.0987351 -1.06162e-20)
(1.03586 -0.0376679 1.45234e-21)
(1.00001 -1.72478e-06 1.09769e-24)
(0.999013 -0.00535953 -7.65718e-22)
(0.999925 -0.00194439 2.80444e-23)
(0.991312 0.0924433 2.35386e-22)
(1.04759 0.0533981 -2.59788e-20)
(0.989775 -0.00626018 -3.28034e-21)
(1.00002 -5.97268e-05 1.73336e-24)
(1.00308 -0.0078963 -4.70831e-22)
(1.20935 -0.0612763 -6.85017e-21)
(1.00829 0.0122957 3.42134e-20)
(1.13953 -0.0636594 7.22404e-21)
(0.882454 0.0503931 -1.47732e-19)
(1.00096 -0.000312354 -3.41123e-22)
(1.13443 -0.0471614 -2.99048e-21)
(1.11706 -0.0139017 -4.41306e-21)
(1.01198 -0.049434 1.7234e-21)
(1.00348 -0.00309675 -1.31771e-21)
(1.00001 -0.000380748 5.38728e-24)
(1.02055 -0.0611918 1.65358e-21)
(1.21401 0.052994 1.25918e-20)
(1.03281 0.167249 6.94098e-20)
(1.14266 -0.0773768 1.1567e-21)
(1.03917 -0.0187714 9.94569e-21)
(1.01321 -0.00893615 9.98267e-21)
(1.14105 0.169444 4.99653e-21)
(0.976532 -0.000629325 1.15348e-20)
(1.09567 -0.171831 1.83182e-20)
(1.1595 0.0669683 -2.53658e-20)
(1.13393 -0.0432691 3.39147e-21)
(0.949844 -0.0042181 -9.38295e-21)
(0.95811 -0.036681 2.55148e-21)
(1.00002 -1.60297e-06 -4.57799e-25)
(0.99999 -2.64482e-06 1.01109e-24)
(0.9978 -7.1987e-05 -4.85443e-22)
(0.997887 -0.0105014 8.30335e-22)
(0.98342 -0.0764249 -8.34632e-21)
(1.10042 -0.133507 6.35072e-21)
(1.2167 0.00806875 1.55255e-20)
(1.02675 -0.017762 5.2126e-21)
(1.01512 -0.017758 1.79451e-21)
(1.00037 -0.000532043 2.1661e-22)
(0.999883 -0.000191995 2.02001e-23)
(1.00234 0.0379967 -7.31275e-20)
(1.00045 -0.00135795 2.46563e-23)
(0.994096 -0.00981099 3.47396e-24)
(1.15676 0.161473 -1.46425e-20)
(1.00723 0.0536617 -7.79241e-20)
(1.09939 -0.0792492 8.43588e-22)
(0.965191 -0.0023414 3.91775e-21)
(0.973901 -0.0422852 9.28343e-21)
(1.16062 0.0445069 3.28952e-21)
(0.999956 -4.04498e-05 4.44806e-24)
(0.999989 -2.41355e-06 -3.79959e-25)
(0.989742 -0.00659395 1.18627e-21)
(0.959151 -0.0359298 -1.43996e-20)
(1.00005 -0.000199954 -1.61957e-23)
(1 -5.75652e-05 -8.36482e-25)
(0.994086 -0.00444019 -3.82157e-22)
(1.00001 -0.000371483 -4.51389e-24)
(1.00489 -0.00518113 -7.45564e-22)
(1.15534 0.167703 1.65451e-20)
(0.976875 -0.000297328 -9.76958e-21)
(1.03116 -0.099487 -2.15763e-21)
(0.995581 -8.39368e-05 1.98983e-21)
(1.00184 -0.00236243 7.70676e-23)
(0.976907 -0.00882769 1.34925e-20)
(0.999269 -0.00535806 -6.76273e-23)
(1.14408 -0.0565598 -6.59438e-21)
(0.999981 -8.57626e-06 6.74619e-24)
(1.01042 -0.0340925 -3.6697e-22)
(1.05446 0.0959807 2.54003e-20)
(0.993965 -0.0111158 -1.21315e-22)
(1.09059 -0.168194 -1.7578e-20)
(1.03587 0.0464805 -2.29864e-20)
(0.994524 -0.0024541 -2.89207e-21)
(0.984375 -0.01311 3.63549e-21)
(1.00339 -0.0030976 2.00262e-21)
(0.999261 -0.00740176 -3.85969e-22)
(0.999754 -6.96803e-06 2.16179e-23)
(1.00499 -0.0158624 5.19149e-22)
(0.874948 0.0250866 6.17602e-20)
(1.00217 0.0357062 5.64192e-20)
(0.987626 -0.00527631 9.66021e-23)
(0.994375 -0.00967031 -1.23118e-21)
(0.967254 0.0510585 -6.15838e-20)
(1.01642 0.0300431 1.06002e-20)
(0.940311 -0.0141876 8.77652e-21)
(1.00098 -0.000456214 -2.68101e-22)
(1.05731 -0.0880503 1.88682e-21)
(0.97207 -0.0713857 1.10267e-20)
(0.998348 -0.0147253 6.986e-22)
(1.00074 -0.000935323 -4.33501e-22)
(1.14728 0.171797 6.84399e-21)
(0.994287 -0.00446338 -2.6445e-22)
(1.00586 -0.00469078 -8.26681e-22)
(0.982071 -0.0758464 1.0834e-20)
(0.993227 -0.0986633 1.28037e-21)
(0.999966 -4.71189e-06 1.65015e-24)
(0.984076 0.140586 -7.12923e-20)
(0.999103 -2.24458e-05 -4.71022e-24)
(1 -4.64453e-05 -1.97702e-25)
(0.999524 -0.000181386 3.22033e-23)
(0.99621 -0.0460166 -2.26882e-21)
(1.19212 -0.00360508 -1.4251e-20)
(1.01121 -0.0334613 1.84187e-22)
(1.00563 -0.00435333 -5.6826e-22)
(0.998149 -0.00020844 6.80126e-22)
(0.941365 -0.0158355 -1.5029e-21)
(1.00004 -0.000408294 -3.90784e-24)
(1.00041 -0.00139309 2.05701e-24)
(0.997999 -0.000170698 -4.47475e-22)
(1.02592 -0.000404148 2.10697e-20)
(0.997698 -0.00340687 -1.38861e-22)
(0.999047 -0.00500155 2.27292e-22)
(1.02473 -0.00175807 1.06135e-20)
(1.00011 -0.00034184 2.3505e-23)
(1.00003 -3.28939e-06 1.56751e-24)
(1.00437 -0.000539972 2.98812e-22)
(0.978601 -0.0277257 -4.57592e-21)
(0.97937 -0.000357054 -4.73785e-21)
(0.995863 -0.000318273 -2.11223e-21)
(1.01443 0.0029988 1.78236e-20)
(0.9865 -0.000968469 2.25141e-21)
(1.01547 -0.0173337 -1.69146e-21)
(0.999972 -1.01413e-05 5.89299e-24)
(0.997453 -0.00223891 -8.14138e-22)
(1.00071 -0.000919276 4.69269e-22)
(1.0571 -0.08494 1.77048e-21)
(1.03332 -0.160317 1.60883e-20)
(0.998806 -0.000104112 3.50036e-22)
(1.00039 -0.000481661 -1.67704e-22)
(0.998975 -0.00485829 -7.78278e-23)
(1.003 -0.00695321 -1.13958e-21)
(0.990611 -0.000531168 -4.10468e-21)
(0.999956 -3.7678e-05 -3.12974e-25)
(1.17313 -0.125144 -5.54647e-21)
(1.00005 -0.000422673 5.55216e-24)
(1.02568 -0.000421209 -1.48413e-20)
(0.997118 -0.00198359 -4.20535e-22)
(1.00012 -0.000325745 9.5574e-24)
(1.03462 0.0106306 -1.42542e-20)
(0.96797 -0.0681367 -1.15191e-20)
(1.00022 -3.88617e-05 9.14511e-23)
(1 -1.04276e-05 -1.1562e-27)
(0.949705 -0.00302531 -1.07115e-20)
(1.02159 -0.147085 -2.54088e-21)
(0.992598 -0.00704183 -3.13548e-22)
(1.01102 -0.0503914 -4.81936e-22)
(1.02752 -0.0184875 -8.54476e-22)
(1.05966 0.0917037 3.09728e-21)
(1.00007 -7.1599e-05 4.15606e-24)
(0.979044 -0.0271492 4.70598e-21)
(1.17904 -0.0642417 -5.69115e-21)
(0.948587 0.0748702 1.49222e-21)
(0.993923 -0.0108528 9.34703e-22)
(1.03441 0.0446954 2.81622e-20)
(1.09859 -0.0461165 1.21365e-21)
(0.999834 -0.0021196 -2.11368e-23)
(0.759058 0.0726994 8.19543e-20)
(0.99953 -0.000378773 -2.1896e-22)
(1.03029 -0.102278 -3.07384e-21)
(0.942316 -0.0158287 1.06102e-20)
(1.00195 -0.0022356 -4.24039e-22)
(1.16585 -0.0254153 1.09844e-20)
(0.992612 -0.00081284 -2.43921e-21)
(1.04198 0.180835 4.92577e-20)
(0.996988 -0.000236077 1.88467e-22)
(0.984793 -0.0141147 -1.89588e-22)
(0.999814 -0.00193956 -1.68117e-22)
(1.16227 0.104837 7.39556e-21)
(1.00001 -0.0148577 1.64655e-22)
(1.06636 0.115472 2.10387e-21)
(0.999558 -3.44406e-05 -8.40234e-23)
(0.994947 -0.001652 -9.20494e-22)
(0.968695 0.182845 -3.04537e-20)
(1.03012 -0.000657968 -1.76859e-20)
(1.02467 -0.000854772 1.23262e-20)
(0.974468 -0.034993 1.14093e-20)
(0.999866 -2.89269e-05 2.15989e-23)
(1.00296 -0.00662607 -1.33616e-22)
(0.999857 -0.000809589 -5.92852e-23)
(1 -4.38581e-05 -6.47171e-26)
(1.05374 0.00125901 5.06721e-21)
(1.00004 -4.43639e-06 1.47877e-25)
(0.982802 -0.0125523 8.50223e-21)
(1.17589 -0.0656559 5.02538e-21)
(0.85171 0.166213 -7.57509e-20)
(1.03746 0.166141 -1.10547e-19)
(0.971324 -0.0591176 3.59083e-21)
(0.987677 -0.0257666 2.79471e-21)
(0.98039 -0.0013212 2.26911e-21)
(1.0288 -0.0343822 4.29876e-21)
(1.00558 -0.0156374 -7.90705e-22)
(0.98425 -0.0137189 -5.01737e-21)
(0.971681 -0.0648124 1.56857e-21)
(1.0588 0.0948534 -4.76175e-20)
(0.999208 0.0482902 1.00789e-19)
(0.998886 -0.000128555 1.9266e-22)
(1.00991 0.0810945 -9.52013e-20)
(1.05259 -6.96177e-05 1.81875e-21)
(1.14364 -0.061725 -1.97732e-21)
(1.01207 -0.0140861 7.93511e-22)
(1.00077 -0.0138225 -6.05563e-22)
(1.01808 -0.0468101 -6.76113e-22)
(0.99532 -0.00159422 -2.18424e-21)
(0.997695 -0.000579685 -1.4379e-22)
(0.999947 -8.39668e-06 2.65831e-23)
(0.9991 -0.00756239 5.67845e-22)
(1.08152 -0.0458453 6.80073e-22)
(1.16633 0.108346 -1.16933e-20)
(1.00137 -0.00115358 2.02343e-22)
(0.976314 -0.0226807 -6.80003e-21)
(1.01349 -0.0145479 -2.53001e-21)
(0.999965 -1.50495e-05 -2.28016e-24)
(0.971483 -0.0618606 -5.69932e-21)
(0.81278 0.128104 -3.79712e-20)
(0.99459 -0.00419356 3.23679e-21)
(0.998992 -0.00396467 1.98284e-22)
(1.0125 -0.0140136 -4.95309e-22)
(1.00217 -0.0407091 3.68603e-21)
(1.08685 0.0193559 6.26274e-21)
(0.999587 -0.00856572 -1.0363e-22)
(0.999972 -4.51437e-05 1.39045e-23)
(1.00001 -2.21682e-06 5.55903e-25)
(0.997663 -0.000525896 -1.58666e-22)
(0.964962 0.182054 4.39598e-20)
(1.04323 -0.028622 2.7697e-21)
(1.0376 -0.15921 -4.53433e-21)
(1 -1.05601e-05 -3.70137e-26)
(1.01887 -0.150277 1.72359e-21)
(1.07484 -0.00947952 -8.05728e-21)
(0.995482 -0.000140664 -9.92129e-22)
(0.944496 -0.00573193 -1.3183e-20)
(0.999059 -0.00389861 -1.98889e-22)
(0.999617 -0.000174136 -1.38111e-23)
(0.979769 -0.0245572 -1.44331e-21)
(1.00081 -0.00101422 -2.08647e-22)
(1.1478 -0.0547035 6.31445e-21)
(1.00815 -0.00120051 -5.90201e-21)
(1.19669 0.0404219 -1.20466e-20)
(0.999835 -0.00209362 2.75028e-23)
(1.00371 -0.0123162 2.47989e-22)
(1.00774 0.0108754 -4.63925e-20)
(1.20495 -0.0602077 3.5638e-21)
(1.00036 -0.000499431 -1.27663e-22)
(1.00038 -0.000448313 1.2691e-23)
(0.999214 0.111775 4.50436e-21)
(0.994703 -0.0465209 -1.28518e-21)
(0.99946 -0.00843394 1.26317e-22)
(1.01542 0.0338428 5.55238e-21)
(0.956007 0.0262205 1.19871e-19)
(1.0969 -0.0856782 -6.88827e-23)
(0.998818 -0.0229339 -5.72557e-22)
(1.18968 -0.00176629 1.42597e-20)
(0.999327 -6.02152e-05 -1.458e-22)
(0.992392 -0.0036946 8.75071e-22)
(0.997048 -0.000243196 -5.39184e-22)
(1.01741 0.0281119 6.60366e-23)
(0.999984 -0.000668061 6.45106e-25)
(1.00792 -0.00140903 6.03084e-21)
(1.1206 -0.126389 2.03052e-22)
(1.02584 0.157773 1.07454e-19)
(0.894639 0.190055 -1.7762e-20)
(0.994692 -0.00244101 1.09539e-22)
(0.992386 -0.00689847 9.41969e-22)
(1.08327 0.104541 -2.95681e-20)
(1.00828 -0.0524563 3.82009e-21)
(0.999949 -9.08898e-06 -2.59343e-23)
(1.21712 0.0270767 2.47598e-20)
(1.02582 0.000301618 -6.2904e-21)
(1.0251 0.00066864 -4.24177e-21)
(0.994877 -0.0118923 -1.31247e-21)
(1.01681 -0.00246109 -9.07792e-21)
(0.947056 0.163166 1.72923e-20)
(1.09526 -0.141458 -2.00664e-21)
(0.990198 0.151387 1.74037e-20)
(1.00974 0.14461 -3.06657e-20)
(0.999996 -5.73752e-05 3.78904e-25)
(1.0789 -0.0447205 -2.28307e-21)
(1.0963 -0.136896 1.25807e-21)
(0.997586 -0.00342878 3.65345e-22)
(1.00143 -0.00125614 -3.32163e-22)
(0.94966 0.0304595 2.85551e-20)
(1.04486 -0.0293951 -3.5968e-21)
(1.00026 -6.4293e-05 2.04979e-23)
(0.982536 -0.0527045 -1.30706e-20)
(0.971306 -0.0732429 -5.24593e-21)
(0.995057 -0.00170415 1.2949e-21)
(0.99989 -0.000187681 -2.5513e-23)
(1.08877 0.133513 -4.7982e-21)
(1.04696 0.0513814 4.39947e-20)
(1.00005 -0.000454683 -1.05106e-24)
(1.00367 -0.00327935 2.58479e-22)
(1.00464 -0.00321438 1.40043e-21)
(1.1554 -0.0994758 1.75265e-21)
(0.974508 -0.034052 -1.03697e-20)
(1.00006 -0.000534848 -1.17355e-23)
(0.999986 -1.20129e-06 -6.02222e-25)
(1.00044 -0.000165107 3.20509e-23)
(1.08553 0.0210616 -6.36435e-22)
(0.975354 -0.0233455 -5.41102e-21)
(1.00421 0.0656766 2.21508e-20)
(0.95212 -0.0403413 6.15288e-21)
(0.988345 -0.0256313 -2.99956e-21)
(0.978814 -0.0010562 -9.18735e-21)
(1.01704 0.0323161 -2.73238e-20)
(1.19068 -0.0164778 8.0922e-22)
(0.998921 -0.000137569 3.52761e-22)
(1.00705 -0.00538443 -1.48847e-21)
(1.00076 -0.00101071 2.36628e-22)
(0.993213 0.169177 -4.38179e-20)
(0.977193 -0.0212117 2.93139e-21)
(1.00097 -0.000258301 -1.11069e-22)
(0.993297 -0.00328349 -1.18188e-21)
(1.1379 -0.0398495 6.32062e-21)
(0.999625 -0.00920666 -2.57049e-22)
(0.989657 -0.0113198 -6.44135e-22)
(1.00021 -0.000130223 -6.32756e-23)
(1.00021 -4.58253e-05 -2.80132e-24)
(0.807245 0.137536 5.7297e-20)
(0.992641 -0.00121328 -1.51365e-21)
(0.99569 -0.00434822 1.31405e-21)
(0.999646 -0.00170298 -1.48542e-22)
(0.999344 -4.48899e-05 -1.99388e-23)
(1.0665 0.0869128 -1.62605e-20)
(1.12562 -0.127667 3.73565e-22)
(0.986091 -0.0383596 1.70892e-21)
(1.00002 -1.93047e-06 -5.57219e-25)
(1 -3.50758e-05 -5.34703e-26)
(0.976311 -0.0219194 7.6718e-21)
(0.993911 -0.00175072 3.11667e-22)
(0.995355 -0.00200726 -1.79082e-22)
(1.01278 -0.00456348 2.85215e-21)
(1.0051 -0.0020496 5.04883e-22)
(1.00021 -0.015251 -2.78684e-22)
(1.1139 -0.02952 1.09799e-20)
(0.983406 -0.00402054 -1.8929e-21)
(0.992016 0.147119 -1.4815e-20)
(1.01266 -0.0244307 -8.73059e-22)
(1.00023 -0.000130455 7.02244e-23)
(0.970627 -0.0580019 5.40295e-22)
(0.9847 -0.0338638 -6.20881e-21)
(1.15936 -0.0204831 7.16712e-21)
(0.997357 -0.00565936 -3.83701e-22)
(0.989281 -0.0450287 -1.98989e-21)
(0.99998 -4.79007e-06 3.72776e-24)
(0.908068 0.131795 -5.98929e-20)
(1.01394 -0.00194406 5.1302e-21)
(1.00008 -0.000221842 -2.39706e-23)
(0.875273 0.0345757 -8.02574e-20)
(0.985196 -0.0385722 3.87281e-21)
(0.99998 -5.69978e-06 6.08782e-25)
(1.00132 -0.0011585 9.76256e-23)
(0.970653 -0.060613 -3.17178e-21)
(1.03457 -0.0362529 1.41939e-21)
(1.04519 -0.0144394 6.58031e-21)
(0.999991 -2.49644e-06 8.17777e-25)
(0.992638 -0.000601647 1.19933e-21)
(1.01884 -0.0457799 6.67999e-22)
(0.995194 -0.00156145 1.79276e-21)
(0.999575 -4.1141e-05 -4.54934e-22)
(0.992538 -0.0038194 2.84677e-23)
(0.963582 0.0525663 7.1577e-21)
(0.993546 -0.0116374 -1.66223e-21)
(0.99008 -0.0110912 4.76147e-22)
(1.00383 0.0419696 -2.25239e-20)
(0.997522 -0.00211433 4.27587e-22)
(0.985689 0.174257 -5.41683e-21)
(0.999979 -5.60415e-06 -1.9136e-24)
(0.990223 -0.0257882 1.19786e-21)
(0.981733 -0.0722209 1.19673e-20)
(0.990139 -0.0453625 3.35305e-21)
(1.17194 -0.0746047 -8.29145e-22)
(0.998941 -0.00520629 5.13169e-22)
(1.0081 -0.0226788 5.17744e-22)
(0.99997 -0.0022456 7.40258e-24)
(0.984478 -0.0199918 -3.67674e-21)
(1.03576 -0.0395018 6.14989e-22)
(0.999967 -1.42727e-05 1.15329e-23)
(1.00002 -1.33117e-06 -9.91375e-25)
(0.994226 -0.000383516 8.23271e-22)
(0.978586 0.100538 4.55988e-20)
(1.01137 -0.0189025 3.26826e-21)
(1.00235 -0.00332419 -4.13712e-22)
(0.940514 -0.0296336 9.15754e-21)
(1 -9.33825e-06 -1.22189e-25)
(1.0009 -0.00110227 -3.77626e-22)
(0.999962 -0.000636497 -5.35732e-24)
(1.01287 -0.0181523 3.46149e-21)
(0.984721 -0.0147356 6.65951e-22)
(0.99965 -0.000269341 5.72579e-23)
(0.993841 -0.0104143 6.01241e-22)
(0.988747 -0.00652617 -7.01636e-22)
(1.00093 -0.000150298 -3.05991e-23)
(0.999978 -6.61612e-06 -1.20381e-24)
(1.1828 -0.0464364 7.76604e-21)
(0.999675 -0.00167903 1.59379e-22)
(1.07214 -0.0135589 6.34501e-21)
(1.04426 0.146124 1.11411e-19)
(1.07728 0.105207 -2.701e-20)
(1.00033 -0.019416 -1.03638e-21)
(1.00491 -0.00180492 -1.67675e-22)
(1.01701 -0.00190789 5.57229e-21)
(1 -0.00230756 -8.48083e-24)
(0.997897 -0.00979699 6.01046e-22)
(0.999999 -1.6001e-05 -9.38322e-26)
(1.00606 0.145999 -2.27623e-21)
(0.988831 -0.0148603 9.12252e-22)
(1.01234 -0.00409143 -2.03823e-21)
(0.983806 -0.00417972 3.95361e-21)
(1.00331 -0.0120623 2.2286e-23)
(0.997519 -0.00558209 8.44213e-22)
(0.999903 -0.000192251 5.80611e-24)
(1.00002 -5.97265e-07 -5.18163e-24)
(0.995844 -0.00432756 -9.56984e-22)
(1.05271 -0.0145345 -3.69849e-21)
(1.00889 0.0565884 3.59428e-21)
(1.00111 -0.000463808 -4.56103e-22)
(0.97504 -0.0542497 -2.90005e-21)
(0.977158 -0.0205674 -1.29646e-21)
(0.9928 -0.000489556 -4.51681e-21)
(1.21275 0.0082161 -9.94691e-21)
(0.998815 -0.000918252 -2.12739e-22)
(1.00324 -0.0137035 -7.6103e-22)
(0.99499 -0.00263237 9.0816e-22)
(0.99991 -0.000185783 5.02551e-24)
(0.970753 -0.0634096 3.56746e-21)
(1.00509 0.0623717 -3.4994e-20)
(1.03496 0.0402366 -2.90947e-20)
(0.979367 -0.0138636 -6.20788e-22)
(1.00305 0.0607002 -1.5267e-21)
(1.00008 -0.000207439 4.67903e-23)
(1.00002 -1.67928e-06 1.6072e-24)
(1.21319 0.0266184 -9.32042e-21)
(1.16438 -0.0215982 -7.40316e-21)
(0.885204 0.136818 -2.8796e-21)
(0.99703 -0.0764141 8.08799e-21)
(0.979025 -0.0014502 -2.88358e-21)
(1.13718 -0.0353386 -8.88616e-21)
(1.00108 -0.000503938 5.16268e-22)
(0.994811 -0.0035546 5.20739e-22)
(1.00042 -0.000180732 -3.05317e-23)
(0.990204 -0.000694592 -9.72886e-22)
(0.98919 -0.0121644 -1.34413e-21)
(0.999996 -3.12476e-05 -1.2893e-24)
(0.999186 -3.31724e-05 8.31211e-23)
(1.02413 0.153706 -1.05292e-19)
(0.999877 -0.000664138 5.70765e-23)
(0.918823 0.11902 7.57318e-20)
(1 -1.53582e-05 6.81806e-26)
(1.21044 -0.0322289 8.54893e-21)
(1.07214 -0.0153517 -1.32621e-20)
(1.11385 -0.0266698 -1.20813e-20)
(1.00096 -0.000499578 3.11156e-23)
(1.00017 -4.03215e-05 5.66132e-23)
(0.982596 0.0924073 -6.94798e-20)
(1.0749 -0.0116741 2.61601e-20)
(0.981133 -0.0735513 -1.0841e-20)
(1.02591 0.0406534 1.3183e-20)
(0.99784 -0.0196072 4.88877e-22)
(0.987756 -0.00495717 -1.01987e-21)
(0.99627 -0.000220795 -5.44893e-22)
(1.19181 0.123968 -5.1291e-20)
(0.978046 -0.0246783 4.68055e-21)
(1.02934 -0.0329768 -2.78377e-21)
(0.994085 -0.010357 -3.44187e-22)
(1 -9.23288e-06 -1.27667e-26)
(0.998825 -0.000860445 -1.80196e-22)
(1.00539 -0.00558372 8.91129e-22)
(0.983229 -0.00738829 5.09684e-21)
(0.979906 -0.0139847 9.26227e-22)
(0.960512 -0.0366588 -1.38341e-21)
(0.983065 -0.00784832 -3.86529e-21)
(1.02054 0.00265061 2.42172e-21)
(0.998049 -0.000125531 1.11898e-23)
(0.945261 -0.0340421 4.65984e-21)
(0.987115 -0.000839382 -1.40276e-21)
(1.00003 -0.000202661 8.40499e-24)
(0.988748 -0.000669438 -9.71613e-22)
(1.02973 -0.0356257 -4.84078e-21)
(1.01959 0.00290172 -1.33982e-20)
(0.976212 -0.0247828 -1.17123e-21)
(0.999982 -8.26903e-07 -1.61196e-26)
(0.984013 -0.0150458 9.93374e-22)
(1.0018 -0.013901 1.23706e-23)
(1.00128 -0.00108853 1.25039e-22)
(1.11449 -0.142707 -5.40895e-21)
(1.00356 0.064326 -8.09967e-20)
(1.00084 -0.00109424 3.50593e-22)
(0.98893 -0.000496114 1.43573e-23)
(1.08948 -0.084974 -1.68777e-22)
(1.02624 0.00018327 2.12229e-20)
(0.980553 0.0433951 -7.67196e-21)
(1.00171 -0.0023302 1.11509e-22)
(1.00015 -0.0202372 3.27693e-22)
(1.13642 0.105768 -8.44604e-21)
(1.01894 0.0251301 -6.8384e-20)
(0.991188 -0.0257267 3.15085e-21)
(1.00442 -0.00327264 -1.56685e-22)
(0.956202 -0.0433286 6.28769e-21)
(0.999997 -4.4514e-06 2.82144e-25)
(0.955905 -0.00188951 -4.83549e-21)
(1.00008 -6.67084e-05 8.29426e-24)
(1.08699 -0.0856473 -1.32255e-21)
(0.999969 -3.05982e-06 -1.28937e-24)
(1.00003 -5.8669e-05 5.60389e-24)
(0.999648 -0.0225185 -3.86106e-22)
(1.19824 -0.0140983 -8.49638e-21)
(1.08472 0.181756 4.59251e-20)
(1.03273 -0.0367132 -7.74348e-21)
(1.01294 -0.0146915 1.68326e-21)
(0.999999 -2.9367e-06 -5.82363e-26)
(0.994385 -0.00422018 -1.74795e-21)
(1.00008 -1.80509e-05 -6.0082e-24)
(0.997112 -0.00226811 6.0946e-22)
(1.00003 -5.44708e-05 -4.36021e-24)
(1.04578 -0.0127269 -2.05464e-20)
(0.999567 -0.000446025 -2.24961e-22)
(1.06484 0.0506872 2.88249e-20)
(0.999889 -0.000207554 -4.02833e-23)
(0.988216 -0.00485084 -1.7356e-21)
(0.962746 -0.000994246 1.10783e-20)
(0.996081 -0.000264151 -7.03311e-22)
(0.972794 0.0548807 7.36647e-20)
(0.984215 -0.000693638 2.67401e-21)
(1.01946 -0.0978052 5.41433e-22)
(0.994949 -0.00372398 2.69129e-21)
(1.02447 -0.00271136 -4.53438e-21)
(0.972646 -0.0549804 1.23953e-20)
(1.01854 -0.00160707 -1.53834e-20)
(1.03473 -0.0682041 -1.52135e-22)
(0.999985 -6.53265e-07 1.59986e-25)
(0.999122 -0.0190914 3.71959e-22)
(0.996336 -0.000291182 8.54736e-23)
(1.00024 -9.01332e-05 4.18546e-23)
(1.00008 -1.51253e-05 1.0182e-23)
(1.19695 0.121973 5.57705e-20)
(0.995506 -0.00201572 1.5109e-21)
(1.02652 0.00138023 2.41464e-20)
(1.00066 -0.0206864 3.87347e-22)
(1.0008 -0.000298019 1.1851e-22)
(1.02203 -0.00780296 -1.70429e-20)
(1.00015 -3.24909e-05 -1.27221e-22)
(0.999977 -3.1142e-06 -1.73727e-25)
(0.956439 -0.00250888 3.74016e-21)
(0.996796 -0.00114902 6.84164e-22)
(1.00003 -5.31399e-05 6.27497e-24)
(1.08938 0.0984655 2.03155e-20)
(0.830874 0.110456 -1.07207e-19)
(0.999809 -0.000220913 1.0157e-22)
(0.964377 -0.00201282 -3.06127e-21)
(1.00002 -1.35139e-06 1.16103e-24)
(0.94078 0.160227 -7.02199e-20)
(1.21476 -0.032436 9.64571e-21)
(0.973111 -0.0441203 -1.05469e-20)
(1.00005 -0.000522443 -1.3396e-23)
(1.0283 -0.0318177 6.30671e-21)
(1.0292 -0.00276403 -6.22015e-21)
(1.03077 -0.000749021 1.80403e-21)
(1.04616 -0.0152623 -2.58655e-21)
(0.999704 -0.00180053 -2.72511e-23)
(0.999873 -0.000797287 4.63454e-23)
(0.987188 -0.0147522 -2.93782e-21)
(1 -8.01858e-06 -7.35252e-25)
(1.00002 -5.73465e-07 -2.91117e-25)
(0.977289 -0.024229 -2.77283e-21)
(0.996511 -0.058423 -4.57563e-21)
(0.96164 -0.0360008 -3.60586e-22)
(0.864729 0.158457 -2.131e-21)
(1.00019 -2.23833e-05 -5.22655e-23)
(1.01342 -0.0737208 -8.03315e-21)
(1.00682 -0.00503937 -1.53386e-21)
(0.999979 -3.20998e-06 1.9726e-24)
(0.999041 -0.0037028 -4.42574e-22)
(1.00004 -0.000446189 -8.80721e-24)
(0.995833 -0.0120475 9.94611e-22)
(1.00004 -9.86347e-06 6.32302e-24)
(1.03635 -0.0670839 -2.62194e-22)
(1.01825 -0.00197267 1.49298e-20)
(0.98711 0.169725 1.52427e-20)
(1.02365 -0.00250188 1.70296e-20)
(0.999746 -0.000211457 8.23789e-23)
(1.00042 -0.000373929 -1.2105e-22)
(1.15468 -0.104411 -1.95825e-21)
(1.0261 0.00125524 -1.94255e-20)
(0.997148 -0.000374673 6.10533e-22)
(1.00002 -6.25033e-07 2.43071e-24)
(1.09971 0.0783887 -3.36145e-20)
(1.07909 -0.168159 -3.12286e-21)
(0.997221 -0.0748204 -3.52319e-21)
(0.986769 -0.000715027 -7.48142e-22)
(0.999979 -2.08476e-05 3.59534e-24)
(0.999748 -0.000199081 -4.81422e-23)
(1.08437 -0.171462 8.90811e-21)
(0.99723 -0.0468539 -1.28947e-21)
(1.04114 0.0269048 4.14349e-21)
(0.989978 0.141635 6.41798e-20)
(1.01844 -0.0953142 4.3749e-21)
(0.998838 -7.51776e-05 -1.09935e-22)
(0.99998 -9.66662e-06 -4.38898e-24)
(0.965776 -0.0469295 1.04067e-20)
(0.975977 -0.0940372 -1.23949e-20)
(0.999817 -0.000226831 5.48098e-23)
(1.00881 -0.0222012 1.82491e-21)
(0.991502 -0.0250447 -5.38534e-22)
(0.995742 -0.00215794 5.95537e-22)
(0.996203 0.0597278 -5.85501e-20)
(0.998816 -0.000533309 3.89674e-22)
(1.04735 -0.0514012 1.26519e-21)
(1.21713 0.0591812 -2.32556e-20)
(0.992919 -0.00310548 -1.72407e-21)
(0.881278 0.12876 -1.07208e-20)
(0.88744 0.0591828 3.36059e-20)
(0.999972 -4.90169e-05 -1.38782e-23)
(0.999975 -0.000696431 -2.09757e-24)
(0.984412 -0.000915867 -1.7153e-21)
(1.01214 -0.00489083 -3.67193e-21)
(0.965849 -0.00184892 6.32809e-21)
(1.00476 -0.00404831 -1.60889e-21)
(0.99318 -0.0031178 1.61549e-21)
(0.999478 -0.000484093 -1.70914e-22)
(0.955028 0.15817 -1.24348e-20)
(1.06456 0.048169 -4.49274e-20)
(1.0021 -0.00225133 2.85548e-22)
(0.76948 0.0690776 -2.10258e-20)
(1.00002 -1.37541e-06 -1.65421e-24)
(1.02579 0.00547932 -3.33233e-20)
(0.990707 -0.0918901 8.19806e-21)
(1.01561 -0.0738405 3.10719e-21)
(1.00009 -0.000200307 -2.39661e-24)
(0.96423 -0.00103786 5.2163e-21)
(1.02266 0.00450696 1.8654e-20)
(1.01191 -0.00538813 3.04256e-21)
(1.02905 -0.00206571 8.60735e-21)
(0.999586 -3.15296e-05 3.20725e-22)
(0.999562 -0.000477447 2.03936e-22)
(1.02183 -0.0446851 -1.44051e-22)
(0.996849 -0.00124521 -1.95407e-21)
(0.98842 -0.0110952 -3.16511e-21)
(0.999169 -0.00337243 2.62523e-23)
(1.08557 0.0280082 2.34041e-20)
(0.998942 -0.0199105 -2.622e-22)
(0.995438 -0.00458667 2.88699e-23)
(0.937564 -0.0250592 -1.36689e-20)
(1.00258 0.110986 7.39339e-21)
(1.10155 -0.0432478 -9.25317e-21)
(1.02131 -0.00737234 1.37035e-20)
(0.999633 -0.000175014 6.10737e-23)
(0.999532 -0.000310474 2.74961e-23)
(0.983805 -0.0197508 7.44088e-21)
(1.00092 -0.00119122 -2.80326e-22)
(0.997629 -0.000660217 -1.10876e-22)
(0.99998 -1.99659e-05 -1.31831e-24)
(0.999722 -0.00183466 6.18912e-24)
(1.02212 0.00425683 -7.2391e-21)
(0.982715 0.0973599 -6.65679e-20)
(0.999882 -1.54929e-05 1.2756e-23)
(1.19976 0.0941205 -4.71545e-20)
(0.999996 -3.94632e-05 5.71453e-25)
(0.997028 -0.00267622 8.29093e-22)
(0.999992 -8.93065e-05 1.12042e-24)
(1.00481 -0.00348409 -7.13165e-22)
(1.18397 -0.0500861 -5.7145e-21)
(0.999964 -3.98218e-05 1.26336e-24)
(0.999962 -4.38043e-05 8.72917e-24)
(0.951139 -0.0407766 -5.87221e-21)
(1 -7.92151e-06 -5.79553e-26)
(1.04936 -0.0152149 2.16855e-20)
(0.988193 -0.0393123 5.43169e-21)
(0.999973 -0.000609475 4.61854e-24)
(1.09136 0.0586746 -2.62228e-20)
(1 -2.79814e-05 -5.94312e-26)
(0.999633 -3.42082e-05 2.81048e-22)
(0.999919 -3.36166e-05 4.94775e-25)
(0.99561 -0.00461611 -4.92534e-22)
(0.999685 -0.00145405 -7.93856e-23)
(0.994328 -0.000281222 -5.53102e-22)
(0.999621 -0.111031 -9.65546e-22)
(0.99972 -0.00141681 5.22967e-23)
(1.00387 -0.00327696 -5.54203e-22)
(0.999977 -2.2186e-06 -7.45783e-25)
(1.085 0.176357 -8.94134e-20)
(1.04586 -0.0522979 3.19787e-21)
(1.10447 -0.0441837 -1.25722e-21)
(0.968249 -0.00554678 6.8582e-21)
(0.979378 -0.00399985 -1.24828e-21)
(0.999128 -0.00362963 7.28272e-22)
(1.00269 -0.00248883 7.75205e-22)
(1.05637 0.0657618 1.19679e-20)
(0.984065 -0.0348326 8.45449e-22)
(1.14427 0.0791266 1.23501e-20)
(0.96052 -0.0126157 -1.2363e-20)
(0.99692 -0.00258263 -7.82277e-22)
(0.999991 -3.44682e-06 -1.46973e-24)
(0.994818 -0.00264069 -1.09533e-21)
(1.04768 0.181457 2.26702e-20)
(1.08625 0.0702087 -6.13744e-21)
(0.983926 -0.0523467 4.37421e-21)
(0.946775 -0.00533293 2.89517e-21)
(1.08543 0.163309 2.4539e-20)
(0.992252 -0.000548469 1.43793e-21)
(0.986538 -0.0840526 6.43094e-22)
(0.999993 -8.35164e-05 1.04925e-24)
(0.987178 -0.0394941 6.8221e-21)
(0.999243 -0.000217489 -4.1201e-22)
(0.786467 0.119638 -6.06783e-20)
(0.980891 -0.0686164 -9.36129e-21)
(0.99992 -2.95725e-05 2.29763e-23)
(0.943413 -0.0174542 -7.79905e-22)
(0.983935 -0.0369216 4.18538e-22)
(1.04269 0.0756945 4.2216e-20)
(0.997661 -0.000719336 -1.05141e-21)
(0.982202 -0.0355835 -2.52106e-21)
(0.997716 -0.0100304 -8.3109e-22)
(0.999754 -0.0217477 -8.15661e-22)
(0.998851 -0.000538791 -2.66311e-22)
(1.04115 0.0742289 -5.12895e-20)
(1.02874 -0.15587 7.29201e-21)
(0.983935 -0.0156504 -2.20887e-21)
(0.987679 -0.0137138 4.59185e-23)
(0.988316 -0.00457481 -6.94606e-22)
(1.00482 -0.00209149 -6.52161e-22)
(1.08499 0.157282 9.68106e-20)
(0.983939 -0.0127613 1.0143e-21)
(1.01839 0.0385704 2.87674e-20)
(1.00247 -0.00202502 5.91542e-22)
(1.176 -0.0724247 -2.11707e-22)
(0.915378 0.128848 1.11073e-20)
(0.992106 -0.000434144 -4.94722e-21)
(0.999791 -3.84868e-05 5.42573e-23)
(1.06527 0.0904585 1.2617e-20)
(1.01765 0.148064 -8.55908e-20)
(1.02118 -0.0430648 4.49503e-22)
(1.07339 -0.045979 1.16108e-21)
(0.995605 -0.0125725 -1.08752e-21)
(0.968726 -0.0050049 -4.05504e-21)
(1.13231 0.104345 3.45458e-20)
(0.964576 -0.0470897 1.88408e-21)
(0.999977 -1.98691e-05 4.8379e-24)
(0.993275 -0.000102679 -2.54902e-21)
(1.00004 -6.76533e-06 6.47719e-24)
(0.995939 -0.000235051 1.90613e-21)
(0.999976 -2.1383e-05 -7.47793e-24)
(0.998024 -0.0139826 1.34781e-21)
(0.999128 -3.87396e-05 1.46351e-22)
(0.997484 -0.00527589 9.92715e-23)
(1.16166 -0.0909964 -1.41513e-22)