/*--------------------------------*- C++ -*----------------------------------*\
  =========                 |
  \\      /  F ield         | OpenFOAM: The Open Source CFD Toolbox
   \\    /   O peration     | Website:  https://openfoam.org
    \\  /    A nd           | Version:  7
     \\/     M anipulation  |
\*---------------------------------------------------------------------------*/
FoamFile
{
    version     2.0;
    format      ascii;
    class       volVectorField;
    location    "7";
    object      U;
}
// * * * * * * * * * * * * * * * * * * * * * * * * * * * * * * * * * * * * * //

dimensions      [0 1 -1 0 0 0 0];

internalField   nonuniform List<vector> 
115546
(
(1.01642 -0.0272034 -3.92883e-22)
(0.999992 -7.02384e-08 -2.30414e-24)
(0.992403 -0.00622841 8.67627e-22)
(0.998112 -0.00203517 -1.58148e-22)
(1.00093 -0.00229243 2.70375e-23)
(0.999498 -0.000756584 5.20277e-23)
(1.00669 0.0654867 -2.31493e-20)
(1.02407 -0.0528576 3.70019e-22)
(0.999842 -0.000237508 -2.89387e-24)
(0.999992 1.13844e-07 4.83914e-25)
(0.99988 -1.05966e-05 1.68131e-23)
(1.00008 -6.2739e-05 8.29085e-24)
(0.999241 -0.00247976 -5.33575e-23)
(0.957448 -0.0027622 -3.25211e-21)
(0.99984 -0.000243939 2.52519e-23)
(0.962429 -0.0125879 -7.2339e-21)
(0.999932 -0.000178707 1.22357e-23)
(0.999809 -0.000125096 -2.82328e-23)
(0.989948 0.0627035 2.72363e-20)
(1.00096 -0.00232027 1.19796e-22)
(1.02719 -0.0538955 2.88218e-21)
(0.997011 -9.1654e-05 -7.69501e-23)
(0.99977 -0.000169639 -2.79842e-23)
(0.99707 -0.00295039 -1.04473e-22)
(0.945678 0.0175682 2.41204e-20)
(1.07303 0.0141132 1.16031e-20)
(1.20077 0.0140969 -1.99948e-21)
(1.00999 -0.00245536 3.01738e-21)
(0.99999 -2.66382e-05 1.51769e-24)
(1.00654 0.112209 -2.68687e-20)
(0.99993 -2.42308e-05 1.10632e-23)
(1.02922 0.00532748 2.53475e-21)
(1.00392 -0.00615035 -9.15873e-23)
(0.992264 -0.00328739 -8.18352e-22)
(0.938761 0.048256 1.09693e-20)
(0.998967 -0.000630898 3.23696e-22)
(1.0095 0.0729532 3.99253e-21)
(0.999931 -0.000183411 -5.27864e-24)
(1.1526 -0.123219 4.3235e-22)
(1.01498 0.0374014 3.81173e-20)
(1.02957 0.00563506 -4.94854e-21)
(0.999805 -0.000130063 -5.44608e-24)
(0.990396 -0.0113227 -1.59679e-21)
(0.998971 -0.00061098 -2.30476e-22)
(0.980185 -0.0299601 -2.34328e-22)
(0.957691 -0.00248367 3.38899e-21)
(1.0032 -0.00751247 5.6475e-22)
(1.00303 -0.000387961 2.76686e-22)
(1.00003 -0.00367979 -6.21157e-24)
(1.00008 -6.80853e-06 -3.9956e-23)
(1 -4.39647e-07 -2.33356e-25)
(0.998153 -8.44698e-05 2.53184e-22)
(1.0218 0.00632942 7.99945e-21)
(0.999993 -3.31018e-07 -3.73233e-25)
(0.99894 -0.00435952 2.12124e-22)
(1.02158 0.00652806 -2.06087e-21)
(1.01736 0.000248884 5.72873e-21)
(0.978072 -0.0208998 -8.765e-22)
(1.14846 0.0181319 5.71208e-21)
(0.994149 -0.00770981 1.82184e-21)
(0.999961 -0.00010042 -4.61698e-24)
(0.99702 -0.00312314 9.05882e-23)
(0.999626 -2.15341e-05 -4.99955e-23)
(0.990066 -0.00540303 2.35422e-22)
(0.999965 -2.59789e-05 -9.21805e-24)
(1.0005 -4.5244e-05 -1.34582e-23)
(0.999361 -0.00227052 2.25112e-22)
(1.02219 -0.00274295 5.08419e-21)
(1.22128 0.0428025 5.51839e-21)
(1.01755 0.000118337 2.3761e-21)
(1.03952 0.0725548 1.12148e-20)
(1.14523 0.062968 -9.41583e-21)
(1.01504 0.0368474 1.69095e-20)
(0.976511 -0.00194941 -6.12131e-22)
(1.00979 -0.0334565 -3.45134e-22)
(0.984399 -0.00507521 -3.28617e-22)
(1.09609 -0.0227454 -1.7575e-21)
(0.999594 -0.00131479 -8.64885e-23)
(0.997528 0.0448086 -8.78841e-21)
(1.07001 -0.00653275 3.84943e-22)
(1.07054 -0.0054495 1.88093e-21)
(0.999972 -1.00943e-06 3.08428e-25)
(0.979724 -0.0651714 3.22673e-21)
(1.00959 -0.000592169 -1.34958e-21)
(0.998147 -0.000537311 1.54898e-22)
(1.00008 -6.11236e-05 8.24336e-24)
(0.989895 -0.00846597 -1.07853e-21)
(0.999993 -9.6906e-06 -1.67903e-25)
(0.982865 -0.00534859 -1.6442e-23)
(0.999994 -1.62637e-05 3.77631e-25)
(1.16488 -0.0753343 8.66421e-23)
(0.993871 -0.00328466 5.11552e-22)
(0.999989 -2.66697e-05 -2.07616e-24)
(0.999221 -0.00056776 2.40212e-22)
(0.999757 -0.00015936 -4.72215e-23)
(1.00017 -2.59797e-05 1.48422e-23)
(0.99982 -8.41987e-06 -8.80012e-24)
(0.980207 -0.0648504 2.51925e-22)
(1.09655 -0.0714483 1.72598e-22)
(0.982953 -0.005194 -5.27944e-22)
(0.99996 -0.000102744 5.14322e-24)
(1.01233 -0.00431834 -3.10682e-21)
(1.00133 -0.00678913 -1.22901e-22)
(1.00138 -8.76843e-05 -1.28156e-24)
(1.03884 0.0714107 7.42902e-21)
(1.00183 -0.0476797 2.19571e-21)
(1.0085 0.0383507 -1.10555e-20)
(0.984961 -0.0416337 2.52736e-21)
(0.996551 -0.0155606 2.50233e-22)
(0.999991 -3.09098e-05 -3.95032e-25)
(1.08311 -0.00110596 -4.54982e-21)
(0.999822 -1.09011e-05 3.493e-24)
(1.0971 -0.0215329 1.09923e-21)
(0.99756 -0.0111066 -1.13686e-21)
(0.875584 0.0418654 -4.83304e-21)
(0.999753 -0.00663364 -4.10119e-22)
(0.999878 -8.82905e-06 -3.10449e-23)
(1.04961 0.0728426 -1.40608e-20)
(1.00001 -8.56198e-06 8.53256e-25)
(1.14579 0.0605544 6.52793e-21)
(1.04924 0.0744318 2.02471e-20)
(0.962059 -0.0128428 2.93703e-21)
(0.992636 -0.00656019 7.47625e-22)
(1.12305 0.0023194 3.54921e-21)
(0.999993 -8.59683e-07 -4.51942e-25)
(1.00669 0.111066 3.10172e-20)
(0.997038 -0.00320896 -9.52191e-23)
(0.932529 0.102235 -1.49393e-20)
(0.999084 -6.00684e-05 4.53501e-24)
(1.0153 -0.000389872 -3.80915e-21)
(1.02414 -0.0334549 -3.22967e-23)
(1.00012 -1.63778e-05 1.24847e-23)
(1.06833 0.082314 -9.05758e-21)
(1.00008 -5.79051e-05 -2.49514e-23)
(1.00001 -7.39935e-06 4.24377e-25)
(0.989258 0.0731407 4.38483e-20)
(0.951888 0.0465018 -6.6809e-21)
(1.00391 -0.00626551 -1.06483e-22)
(0.999004 -0.004395 -3.00335e-22)
(0.997052 -0.00308456 8.9266e-22)
(1.09556 0.144835 1.02051e-20)
(0.999942 -0.00633355 -1.40664e-22)
(1.00003 -1.95738e-06 -1.54983e-23)
(1.02652 0.00915071 1.03703e-21)
(1.02452 -0.032691 8.50925e-22)
(1 -4.99543e-07 2.3242e-25)
(1.00633 -0.00878489 -1.36428e-24)
(0.996995 -0.00325144 -2.90581e-22)
(1.022 -0.00252931 -7.84473e-21)
(1.00045 -0.00112203 -9.67923e-23)
(1.0013 -0.0471715 -1.65433e-21)
(0.979861 -0.0299578 1.75776e-21)
(0.993913 -0.00320171 3.28092e-22)
(0.999992 -8.11219e-07 2.02849e-25)
(0.99818 -7.91095e-05 1.48713e-22)
(1.00449 -0.00495455 6.77912e-22)
(0.999991 -3.1803e-05 4.07566e-25)
(1.06615 -0.0211943 4.77009e-21)
(0.985235 -0.000367164 -3.29008e-23)
(0.99978 -0.064586 -1.29672e-21)
(0.984573 -0.00521498 1.78819e-21)
(1.00626 -0.0086333 7.51424e-22)
(0.999634 -1.99705e-05 -3.66575e-23)
(0.997608 -0.0344061 2.08336e-22)
(0.996327 -0.00945483 -5.77375e-22)
(0.999516 -0.000286671 -1.54142e-22)
(1.01615 -0.00797771 1.59754e-21)
(0.993494 -0.0185133 -1.32975e-22)
(1.06728 -0.0215633 -6.7884e-21)
(0.995833 -0.00944653 7.0414e-22)
(0.994703 -0.00824357 1.30226e-21)
(1.00322 -0.00738107 -3.18537e-22)
(1.17293 -0.0847106 1.01255e-21)
(0.959061 -0.0100789 -5.22965e-21)
(0.997422 -0.0295757 1.38366e-22)
(1.01877 -0.00229931 -1.90338e-22)
(0.959134 -0.00949327 1.15802e-21)
(0.998806 -0.00147622 1.81421e-22)
(1.00457 -0.0088973 1.43935e-21)
(1.00002 -0.00361737 -1.90838e-23)
(1.00774 -0.006034 2.13011e-22)
(1.01018 -0.0332093 -3.69617e-22)
(0.984592 0.0656279 -1.21335e-20)
(1.02387 0.00892187 4.60078e-21)
(1.00798 0.0382133 2.60706e-20)
(0.999791 -0.000453178 -3.33393e-24)
(0.997879 -0.00170638 1.98435e-22)
(1.00006 0.00112891 -5.15707e-21)
(1.01627 -0.0139657 3.46013e-21)
(1.16258 -0.0757187 -5.61586e-22)
(0.998843 -0.00147729 5.5509e-23)
(0.999996 -0.0060191 9.89017e-23)
(0.992618 0.0368929 -1.75803e-20)
(0.987315 -0.0109849 3.19967e-21)
(1.07185 0.0141687 -1.53928e-20)
(0.99282 -0.0554746 -1.59538e-21)
(0.95882 -0.00924324 -3.45596e-22)
(0.994455 -0.000145894 -8.82102e-22)
(0.985657 -0.00892776 -2.32827e-21)
(1.00265 -0.021901 -4.08383e-22)
(1.01825 0.00916403 6.10614e-21)
(1.00113 0.0484502 1.48247e-20)
(1.0089 -0.00597203 6.25421e-22)
(0.999993 -1.32488e-05 -1.1939e-24)
(0.997952 -0.00146036 1.61868e-23)
(0.981995 -0.00986023 -1.23796e-21)
(0.999636 -0.000500796 -7.81274e-23)
(0.999966 -2.61925e-05 7.111e-24)
(1.01691 -0.0043489 -9.57999e-22)
(1.00751 -0.0386909 3.17765e-21)
(0.958874 -0.00867552 2.90095e-21)
(1.00932 0.0381596 -6.79929e-21)
(0.947602 0.0185218 -1.78578e-20)
(0.999995 -1.64201e-05 4.36508e-26)
(0.999421 -0.0162997 -1.10921e-21)
(0.987196 -0.0111296 -1.58142e-21)
(1.04569 -0.0178591 2.69291e-21)
(1.00345 -0.00720413 7.36205e-22)
(0.957509 -0.00191604 1.9623e-21)
(0.999921 -0.000116294 2.79809e-24)
(0.987567 -0.022001 -7.35478e-23)
(0.989037 -0.0105576 1.09321e-22)
(0.999943 -0.00466078 2.21284e-23)
(0.984645 -0.000473827 1.03608e-21)
(0.999993 -4.099e-07 5.34773e-25)
(0.967243 0.0624322 1.78705e-20)
(1.00271 -0.0108512 -1.8605e-22)
(0.984981 -0.00778639 -2.38629e-21)
(0.993174 -0.0548408 -8.9084e-22)
(0.973143 0.0281486 9.6968e-21)
(1.01124 -0.0029983 -3.05755e-22)
(0.982322 -0.0233807 3.20298e-22)
(1.08892 0.138781 -8.18871e-21)
(0.990671 -0.0176076 -1.34707e-21)
(1.02573 -0.0348644 -3.10698e-22)
(1.01807 0.00931136 9.24252e-21)
(1.0002 -1.93477e-05 1.60133e-23)
(1.0004 -0.00547237 1.17138e-23)
(0.991703 -0.0192452 4.79105e-22)
(0.998111 -0.00012413 -3.30585e-22)
(1.14293 -0.0621001 -1.56087e-22)
(1.00992 -0.0239689 3.49448e-23)
(1.00013 -0.0653589 1.6763e-21)
(1.09663 -0.0733673 -6.61307e-22)
(0.999049 -5.25193e-05 -2.27758e-22)
(1.00044 -0.00130383 -1.19029e-23)
(1.02637 0.00077749 6.51767e-21)
(0.983513 -0.0012354 -2.12408e-21)
(0.993727 -0.018566 -4.25617e-23)
(0.966439 -0.0215493 -1.54805e-21)
(0.998589 0.0208528 -9.46465e-21)
(0.99929 -0.000773646 -1.75719e-23)
(1.01531 0.000972955 -2.8124e-20)
(1.00001 -0.00152908 -2.22941e-24)
(0.930292 0.0960011 -2.68403e-20)
(1.00789 -0.00597409 -1.30141e-21)
(1.11146 -0.0234462 -4.00847e-21)
(1.01005 -0.000555565 1.26951e-21)
(1.00013 -2.80006e-06 8.34352e-23)
(1.02425 -0.0538845 6.96435e-23)
(1.00795 -0.00575321 -3.13935e-21)
(0.957763 -0.00162636 -1.20394e-21)
(1.02423 0.00933553 -6.51232e-21)
(1.14047 -0.132199 -8.85014e-22)
(0.996399 -0.0157059 2.02049e-22)
(0.998153 -0.00205205 5.45254e-22)
(1.12094 0.0021461 5.86261e-21)
(0.999078 -0.000138264 2.47563e-22)
(1.09456 -0.0112142 -2.30854e-21)
(1.0965 -0.0316916 3.11478e-22)
(0.999966 -1.39126e-05 -1.46318e-25)
(1.0164 -0.0136639 -8.63274e-22)
(1.00007 -0.00354179 -1.97188e-23)
(1.01016 -0.0242478 -1.02923e-22)
(0.999333 -0.0018892 -2.05972e-22)
(0.989396 -0.00853309 -5.33206e-22)
(0.980747 -0.0282065 1.84148e-21)
(0.997828 -0.0295499 9.03177e-23)
(0.998872 -0.00580518 3.44114e-22)
(0.985436 -0.0416514 -2.09879e-21)
(0.997865 -0.0346942 -4.89539e-22)
(0.999066 -4.55715e-05 -1.71824e-22)
(1.00001 -0.000856433 3.13294e-24)
(0.982165 -0.00968263 6.81999e-22)
(1 -0.000396791 4.42104e-24)
(1.00617 -0.00443133 1.96438e-21)
(0.968582 0.0615201 1.02602e-20)
(1.01618 0.000364278 -1.40171e-20)
(0.980875 -0.0675161 -1.95075e-21)
(1.14967 -0.116986 3.31766e-22)
(0.980453 -0.0280465 4.1094e-22)
(0.999994 -1.22209e-05 -8.19592e-25)
(1.14933 0.00702897 3.70322e-21)
(1.00933 0.0376134 -6.5507e-21)
(0.999937 -0.000237053 3.87821e-24)
(1.00971 -0.00576442 -1.77736e-21)
(0.999268 -0.000870941 -1.46554e-22)
(1.03084 0.00459377 3.89223e-21)
(1.00007 -0.00237789 -7.16709e-24)
(1.09875 -0.0319018 7.63669e-22)
(0.958398 -0.00705952 -1.54489e-21)
(0.994599 -0.0266997 4.82014e-22)
(1.21654 -0.0541041 -4.0201e-23)
(0.996688 -0.00430519 -5.53901e-22)
(0.987009 -0.0272907 -3.02218e-22)
(1.0596 -0.00546407 1.87687e-21)
(1.01239 -0.0294583 2.50969e-23)
(0.985063 -0.00766598 1.63181e-21)
(1.07808 -0.142469 -4.35453e-21)
(1.00464 -0.00879856 -9.06497e-24)
(0.99853 -0.000985391 -1.74859e-22)
(1.05762 0.0990915 1.65839e-20)
(1.07375 0.11756 1.2312e-20)
(0.991932 -0.0192885 -1.35186e-21)
(0.999186 -0.00249696 2.70209e-22)
(1.00135 -0.00654975 4.39296e-23)
(0.991724 0.0378511 -2.77187e-20)
(1.00042 -0.00131985 7.06779e-23)
(0.997142 -0.00296643 4.63823e-22)
(1.14853 -0.00255096 -9.40078e-22)
(1.04532 -0.0285635 6.07105e-22)
(0.999923 -0.000119002 -2.13606e-23)
(1.00876 -0.00607307 -4.87114e-22)
(0.877689 0.0397543 8.61641e-21)
(1.06339 0.000389314 -8.06476e-21)
(0.985034 -0.00305205 -2.59661e-21)
(1.0046 -0.00492298 -9.91093e-22)
(1.02833 0.00307393 4.78444e-21)
(0.958073 -0.0067768 3.00672e-21)
(1.15005 0.00908844 -5.79003e-21)
(0.998535 -0.00102489 1.24068e-22)
(0.999994 -1.24831e-05 1.50134e-24)
(0.999802 -0.00048167 5.34537e-23)
(0.99928 -0.000858814 2.2882e-22)
(0.896859 0.0119464 5.63892e-21)
(0.998249 -0.00242149 -3.9021e-22)
(1.07069 -0.0170838 3.02152e-21)
(0.999969 -1.38818e-05 6.22572e-25)
(0.999492 -0.000741715 -7.12128e-24)
(0.997867 -0.00167086 -2.46864e-22)
(0.993262 -0.00681882 -7.01774e-22)
(1.04243 -0.00208825 -1.44239e-20)
(1.20407 0.0130477 7.92243e-22)
(0.990316 -0.00506526 2.29783e-21)
(0.995413 -0.00533128 2.81201e-22)
(1.00091 -0.00171957 -3.98082e-23)
(0.998822 -0.00587926 -2.09418e-22)
(0.923488 0.09989 -4.41027e-22)
(0.983195 -0.013902 4.14818e-21)
(0.999155 -0.00564114 9.03913e-23)
(1.0668 0.0813116 4.76802e-21)
(1.01355 0.0146722 -8.22407e-21)
(1.00785 -0.00560974 2.84362e-21)
(0.998565 -0.00160603 3.21908e-22)
(1.00235 -0.021995 -5.11241e-23)
(1.0029 -0.012513 2.06453e-23)
(1.01611 -0.0266915 6.07886e-22)
(1 -1.19406e-06 7.89157e-27)
(0.999651 -0.000827922 1.59634e-22)
(1.01938 -0.0204932 -1.16899e-21)
(1.05612 0.0334605 1.1711e-20)
(0.986538 -0.0310348 6.06197e-22)
(1.00825 0.0720929 7.4512e-21)
(0.893229 0.0238097 -6.5255e-21)
(1.08391 -0.0271941 -3.42531e-21)
(1 -1.15555e-06 6.33488e-26)
(0.992605 -0.000192273 -1.39338e-21)
(0.991531 -0.0119867 8.54087e-22)
(1.00001 -0.004634 5.50566e-23)
(1 -1.73023e-06 -1.01494e-25)
(1.04557 -0.0713981 -9.93664e-22)
(1.15419 0.121136 -7.46037e-21)
(0.983721 -0.00121727 -2.10263e-21)
(0.99974 -1.36314e-05 -5.07904e-23)
(1.09601 -0.0047611 -3.75922e-21)
(1.00222 -0.00315723 8.09056e-23)
(1.00127 -0.00665268 -7.16194e-23)
(1.00008 -4.62816e-06 3.54712e-23)
(0.999322 -0.000837285 -1.29904e-22)
(1.02115 -0.0207245 -2.15758e-22)
(0.982112 -0.0231809 2.35392e-21)
(0.997361 -0.0158661 -4.0762e-22)
(0.99719 -0.0107757 -1.73915e-21)
(1.01955 -0.0208543 -1.35727e-21)
(1.00617 -0.00432781 -1.03331e-21)
(0.999943 -3.48333e-06 -1.52165e-23)
(1.08936 0.136114 1.68133e-20)
(0.96485 -0.0197662 3.39431e-22)
(1.00095 -0.00221152 -1.28434e-22)
(1.01872 -0.0452873 -3.40732e-22)
(1.02777 0.00450148 -1.7336e-20)
(1.01553 0.0296736 -2.02448e-20)
(0.989727 -0.00843489 8.04569e-22)
(1.01007 -0.0026104 1.61161e-21)
(0.989182 -0.0105407 1.0674e-22)
(0.999029 -0.00110853 -3.20581e-22)
(1.07628 -0.140836 2.72523e-21)
(1.0003 -0.000608637 9.42128e-23)
(1.00006 -0.00348447 4.18346e-23)
(0.989933 -0.00619061 2.5038e-21)
(0.984469 -0.0108853 1.08366e-21)
(0.999002 -0.00119234 3.55331e-22)
(1.02332 0.127009 -7.99775e-21)
(1.01631 0.0357932 1.53228e-21)
(1.10821 -0.136025 1.0818e-21)
(1.05446 -0.040226 -1.41564e-21)
(1.00001 -7.84322e-06 -8.34704e-25)
(0.997319 -0.00620984 1.72808e-22)
(1.04344 -0.0196706 1.06858e-21)
(0.996378 -0.000142927 2.14167e-22)
(0.99804 -0.0125043 -7.91376e-22)
(0.998504 -0.000975045 4.38973e-23)
(1.00095 -0.00171277 -1.17759e-22)
(0.998224 -0.00210306 -3.80864e-22)
(0.998126 -0.000518209 -1.2209e-22)
(0.998862 -0.00570514 -1.13939e-22)
(1.00011 -0.00341743 -1.26857e-23)
(1.02636 -0.0965541 5.39882e-22)
(1.00002 -1.18118e-05 8.10032e-24)
(1.00599 -0.00408288 -1.73654e-22)
(0.999995 -1.22867e-07 -2.54765e-26)
(0.958568 -0.00842635 -3.9708e-21)
(1.00011 -0.000101838 2.09629e-23)
(1.00587 0.0887616 1.76894e-20)
(1.07235 0.11587 -6.44894e-21)
(1.02421 0.0224776 -7.33365e-21)
(1.05365 -0.0395325 9.57084e-22)
(1.02078 0.0255628 -7.30482e-22)
(1.01745 0.000260041 8.09781e-21)
(0.999088 -0.00195029 4.17777e-23)
(1.00088 -0.000887359 -1.4218e-22)
(0.999886 -0.000334442 3.6196e-25)
(0.997582 -0.00124181 2.79547e-22)
(0.985319 -0.00773872 9.6628e-22)
(0.996734 -0.00423017 -2.21947e-22)
(0.997215 -0.00623459 4.63211e-22)
(1.01736 -0.0262877 -2.38292e-22)
(1.00011 -9.87503e-05 -2.55344e-23)
(0.999921 -4.06146e-05 -4.50913e-24)
(1.00007 -5.66863e-05 -1.84566e-23)
(0.999576 -0.00129387 9.1569e-23)
(1.01542 -0.000443723 3.60377e-21)
(1.01548 -0.0257902 5.23365e-22)
(0.989801 -0.00612509 -2.66811e-21)
(1 -0.000384972 -9.06586e-24)
(1.05273 -0.0698457 1.67344e-21)
(1.00043 -0.00125916 2.20065e-22)
(0.999928 -4.06073e-05 -1.77428e-23)
(1.01578 0.0291243 2.88723e-20)
(1.01888 -0.00248223 6.55425e-22)
(1.00193 0.0359508 4.63482e-20)
(1.00002 -1.5771e-05 -7.59146e-24)
(1.00002 -0.000288347 0)
(1.00093 -0.000969152 2.13993e-22)
(0.993813 -0.018933 6.45751e-22)
(0.997324 -0.00357146 -2.3143e-22)
(1.01766 -0.0645358 -1.02754e-21)
(0.983658 -0.000536188 1.41036e-21)
(1.04635 0.0203818 1.44151e-20)
(0.995701 -0.000108845 1.90646e-21)
(1.02501 0.12692 -4.20473e-21)
(1.00045 -0.0012401 -1.60373e-22)
(1.00093 -0.00217725 1.51439e-22)
(1.00146 0.0430571 -1.1853e-20)
(1.05869 0.0976888 -6.89409e-21)
(1.02739 -0.0548393 -1.80441e-21)
(1.00138 -0.00122581 3.76295e-23)
(0.95938 -0.0103247 5.7229e-21)
(0.99566 -0.000137068 -1.09265e-21)
(1.00002 -1.68048e-05 3.25667e-24)
(1.00599 -0.00419977 2.0658e-22)
(0.965354 -0.0203679 -8.58071e-22)
(0.99155 -0.0189383 -1.11133e-22)
(0.976296 -0.00195052 1.08337e-21)
(1.01751 -0.0268501 -2.10157e-24)
(1.0624 -1.44192e-05 1.33132e-20)
(0.999995 -1.42429e-07 -5.7803e-26)
(1.00141 -0.00120234 -7.65634e-23)
(1.01227 -0.00451021 2.21852e-21)
(1.02409 -0.0126681 -3.02561e-21)
(0.999132 0.0972816 -8.88106e-21)
(0.999999 -9.29023e-07 3.49845e-28)
(0.999969 -1.46738e-05 2.1721e-25)
(1.00092 -8.71432e-05 -3.70647e-22)
(0.991598 -0.0186882 -1.31858e-21)
(0.999674 -0.000495452 6.82822e-23)
(0.999935 -0.000257194 1.42011e-23)
(1.07065 -0.0222603 -3.44678e-21)
(0.927887 0.0118325 -2.36514e-20)
(1.09989 -0.0303193 -3.71241e-22)
(1.00308 0.0360765 -1.18358e-20)
(0.98941 -0.00195114 6.02167e-22)
(0.99788 0.0188042 6.06641e-21)
(1.01642 0.00609184 9.52622e-21)
(0.998248 -0.00212885 1.51729e-22)
(1.04401 -0.0713883 1.4205e-21)
(0.965204 -0.012151 4.97503e-21)
(0.997723 -0.0109944 8.06879e-22)
(1.00037 -0.00539483 4.25641e-24)
(0.998248 -0.00395488 2.79236e-22)
(0.999249 -0.000556199 7.21136e-23)
(0.998276 0.0415704 -5.04622e-20)
(0.990961 -0.017496 -1.97964e-21)
(1.01642 0.0874053 9.02543e-21)
(1.01277 -0.0297762 8.48258e-23)
(1.02433 0.0219395 4.07834e-21)
(0.989773 -0.00513199 1.01011e-21)
(0.993395 -0.00685891 -1.82373e-21)
(1.14562 -0.063119 1.59186e-23)
(1.01677 0.00938965 9.95258e-21)
(0.998603 -0.00161397 -3.6333e-22)
(1.00001 -0.00148351 5.00578e-24)
(0.999986 -0.00154075 7.36527e-24)
(0.999989 -1.33734e-06 -3.56552e-24)
(1.01437 -0.0259439 -6.50859e-22)
(0.981825 -0.0339951 -2.32338e-21)
(1.00011 -0.000246876 -3.06424e-23)
(1.03956 -0.0204515 -2.519e-22)
(0.999833 -0.000395938 8.70119e-24)
(0.999831 -0.000405299 -5.70835e-23)
(1.00107 -0.000138456 -2.93368e-23)
(1.01335 -0.029471 -2.92045e-23)
(1.00034 -3.02811e-05 -6.4272e-23)
(1.00065 -0.00436356 1.44486e-25)
(0.987881 -0.0022379 1.31283e-21)
(0.997875 -0.00308772 1.91569e-22)
(0.997585 -0.00128356 -9.69047e-22)
(0.991654 0.046913 -6.74617e-20)
(1.07011 -0.0496005 1.63929e-21)
(1.00527 -0.00792634 9.11251e-22)
(0.994668 -0.0083955 9.86768e-22)
(0.984551 -0.0212397 -3.12569e-22)
(1.0001 -0.00336347 4.35523e-24)
(1.00001 -1.55297e-05 -2.42622e-24)
(1 -1.50784e-06 -2.01558e-26)
(0.978836 -0.00409999 2.13905e-22)
(0.965369 -0.0118737 -5.07688e-21)
(0.984691 -0.0147759 -7.34931e-23)
(1.00001 -1.50769e-05 -6.78407e-24)
(0.99225 -0.00339428 1.54288e-21)
(1.04186 -0.00174395 1.33463e-20)
(1.22499 0.0420083 -6.65896e-21)
(1.08337 -0.028587 -2.33298e-21)
(0.999973 -1.43537e-06 -3.01185e-24)
(0.985409 -0.00762248 3.20388e-21)
(1.00241 -0.0208834 6.69632e-22)
(1.00005 -5.3116e-06 -1.98766e-24)
(0.99996 -0.000123619 3.35563e-24)
(0.983751 -0.000397789 -2.59329e-22)
(1.00089 -8.34759e-05 -1.22319e-22)
(1.0003 -0.00281733 -1.27408e-23)
(1.00805 -0.0567967 -5.07886e-22)
(1.00021 -2.03301e-05 -4.79694e-23)
(0.973898 -0.0272251 3.37287e-21)
(0.987811 -0.00233664 -1.32824e-21)
(0.989447 -0.00203406 1.07666e-21)
(0.990448 -0.00513766 3.75215e-22)
(1.00075 -0.00438329 -6.45836e-23)
(0.979912 -0.0152361 3.778e-21)
(1.00013 -0.000229129 3.90996e-23)
(1.00001 -6.70815e-06 -3.47529e-25)
(1.00264 -0.00274269 2.62894e-22)
(1.04256 0.0985135 -7.10576e-21)
(0.974629 0.0266302 4.833e-20)
(1.00843 0.026392 1.02049e-20)
(1.01524 -0.0261203 -1.59577e-22)
(0.994323 -0.00716072 -3.60106e-22)
(1.00737 0.0310713 5.42593e-20)
(1.00746 -0.00508367 -3.92198e-21)
(1.00011 -0.00020591 -2.70421e-23)
(1.01369 -0.000718187 -2.82381e-21)
(0.992542 -0.00666314 4.20117e-22)
(1.09587 -0.01215 -4.25092e-21)
(0.998268 -0.0038953 3.54098e-22)
(1.01678 -0.000369065 -8.88755e-21)
(1.0005 -5.65404e-05 1.21457e-22)
(1.00864 0.025823 6.92909e-21)
(1.00027 -2.56854e-05 -7.67115e-23)
(0.997281 -0.00384751 1.30884e-22)
(0.989899 -0.00517601 -2.77058e-22)
(1.01056 0.0367484 6.82108e-21)
(1.00013 -5.26667e-06 -7.43245e-23)
(0.991996 -0.0196841 1.7978e-21)
(1.01771 -0.0636716 1.9136e-21)
(1.04753 0.0204438 -1.13905e-20)
(0.99697 -0.0238689 -1.08637e-21)
(0.997247 -0.00353536 3.35921e-22)
(1.09847 -0.0629664 2.26858e-23)
(1.00003 -8.74639e-07 -6.10497e-24)
(1.10962 -0.133976 -4.46927e-22)
(0.997776 -0.00315254 2.05001e-22)
(1.00988 -0.00584485 -2.79517e-21)
(0.994028 -0.0189729 5.87542e-22)
(1.00141 -0.000108792 -4.52976e-22)
(1.15353 0.117332 -1.8535e-20)
(1.01616 0.0364509 -1.55174e-20)
(0.969657 0.0491486 2.26598e-20)
(1.02029 0.0253139 2.1667e-21)
(1.05462 0.0542699 8.20499e-21)
(1.09519 -0.0335273 -2.28355e-21)
(1.09761 0.146892 -1.77485e-22)
(1.00758 -0.00504112 4.35504e-21)
(1.03171 0.0538933 8.73348e-21)
(1.0018 0.0343665 -3.59841e-20)
(1.00025 -0.00284436 -7.45505e-24)
(0.999283 -0.00179611 -1.10351e-22)
(0.978532 0.0240503 -5.21606e-20)
(1.00002 -1.0443e-05 -1.48136e-24)
(1.14216 -0.129751 1.09048e-21)
(1.22059 0.0569178 -2.72635e-21)
(0.990465 -0.00856274 1.68431e-21)
(1.00053 -0.00115121 -1.44976e-23)
(1.02377 -0.0123991 -1.03074e-21)
(0.999275 -0.00083025 -1.18064e-22)
(1.00091 -0.000903535 -4.60403e-24)
(0.991241 0.0618589 -1.22295e-20)
(0.940955 0.0491459 1.94314e-20)
(0.999929 -3.26928e-06 -9.96417e-25)
(1.00014 -0.000229119 -3.89826e-23)
(1.04661 -0.026045 -7.85159e-22)
(1.00005 -0.0014122 3.0762e-24)
(1.22 -0.0541284 1.56993e-22)
(1.05753 0.0956368 -1.13504e-20)
(1.0349 0.0192816 2.27263e-21)
(0.999962 -0.000124336 -1.01503e-23)
(0.994327 -0.0329144 4.64318e-22)
(0.995648 -0.0277281 2.49595e-21)
(1.00029 -2.4454e-05 4.97048e-23)
(1.00848 -0.0185852 4.03008e-22)
(1.02638 0.000427509 3.45682e-21)
(0.945311 0.047558 -1.24322e-20)
(1.00003 -0.00146712 -7.95142e-25)
(0.999999 -1.05266e-06 -4.80785e-27)
(1.03184 0.0530114 6.44894e-21)
(1.00827 -0.0183797 6.71059e-22)
(0.999928 -3.77055e-06 -2.22897e-23)
(1.01915 -0.00900444 -6.7663e-22)
(1.00361 -0.00669904 -1.59407e-22)
(0.998247 -0.00231408 -3.35055e-23)
(0.998835 -4.35318e-05 9.99854e-23)
(1.16351 -0.117376 6.44909e-22)
(0.991344 -0.00312886 6.21501e-22)
(0.999286 -0.000816317 8.02932e-24)
(0.984662 -0.0109066 2.45741e-23)
(1.00014 -0.000221726 5.64218e-23)
(0.999934 -4.29892e-05 1.21474e-23)
(0.999837 -0.00657419 2.28098e-22)
(1.10882 -0.0141832 -6.30392e-22)
(0.999885 -3.0839e-05 1.03519e-23)
(0.987893 -0.00249933 -1.5921e-21)
(1.00038 -0.000537652 1.32479e-23)
(0.997186 -0.0235623 -4.69588e-22)
(1.01039 0.0372896 -8.95721e-21)
(0.999932 -0.000239381 -8.20348e-24)
(0.881016 0.0190055 -1.41959e-20)
(1.03965 -0.0442725 -2.47125e-22)
(0.996321 0.0224296 6.80806e-21)
(1.1064 -0.0146491 1.80849e-21)
(0.999729 -0.00015089 2.20926e-23)
(0.999984 -4.00135e-05 -1.36469e-24)
(0.999774 -0.000164785 -4.40373e-23)
(0.997362 -0.00354327 1.51704e-23)
(1.01407 0.00136496 0)
(0.999643 -0.00544609 1.65362e-22)
(0.992532 -0.000241684 3.319e-22)
(0.990136 0.0722443 -4.19147e-20)
(0.966146 -0.0133905 -4.39586e-21)
(0.965856 -0.013258 3.79374e-21)
(1.02135 -0.020158 9.93856e-22)
(1.0387 -0.0226524 3.94552e-21)
(0.990134 0.0528282 4.20887e-20)
(0.999733 -0.000175634 2.20428e-23)
(0.992212 -0.0197369 3.73185e-22)
(0.990283 -0.00853727 -1.61063e-21)
(1.0001 -0.000101058 2.97713e-23)
(1.01066 -0.0242671 4.36053e-23)
(1.00039 -0.000516081 -6.46806e-24)
(1.0147 -0.0261967 -3.88818e-22)
(0.985256 -0.0388219 4.61466e-22)
(0.91696 0.0615122 -2.46797e-20)
(0.972834 -0.0268749 -3.23099e-21)
(0.998869 -0.00131732 5.24699e-23)
(0.98947 -0.00818394 -2.85512e-21)
(1.00298 -0.012302 -2.59853e-24)
(1.06653 -0.0105242 -7.44163e-21)
(1.01758 0.00018606 -1.37932e-21)
(1.00469 -0.0231524 8.06792e-23)
(1.00001 -4.47342e-08 -8.7109e-25)
(1.00312 0.0356678 1.48326e-20)
(0.992947 -0.00376918 -1.70687e-22)
(0.958175 -0.00616095 2.7827e-21)
(0.999406 -0.00513874 1.25292e-22)
(1.01785 -0.0203526 -4.10082e-21)
(0.988701 -0.02551 2.87991e-21)
(1.00268 -0.00269074 1.1532e-22)
(1.19469 -0.0191459 -2.84176e-21)
(0.999583 -1.63928e-05 1.45517e-22)
(1.007 0.064353 2.33901e-20)
(0.999635 -0.00957811 -2.51263e-22)
(1.0278 0.00131387 -1.73947e-21)
(0.976997 -0.00401648 2.50574e-21)
(1.01151 -0.00196265 4.48394e-22)
(0.999993 -9.73374e-06 -5.76153e-25)
(0.987774 -0.0218568 -1.77971e-22)
(0.987829 -0.00259175 1.5025e-21)
(0.991387 -0.0181785 1.81185e-21)
(1.01911 -0.00932562 -4.93324e-22)
(1.00724 -0.0572621 -5.25885e-22)
(1.00015 -0.000221863 -6.43184e-23)
(1.00176 -0.0984566 -1.06543e-21)
(0.999235 -0.000571601 -2.96178e-22)
(0.999991 -3.61985e-05 9.71981e-26)
(0.999657 -0.00535525 -1.82111e-22)
(1.00012 -0.000237551 1.58782e-23)
(0.943359 0.0469957 1.69416e-20)
(1.00011 -9.94091e-05 -2.63611e-23)
(1.00638 0.0880077 -5.4512e-21)
(0.989258 -0.00864194 -4.50304e-22)
(1.01108 -0.00159985 -8.43248e-22)
(1.00154 -0.00123521 -4.10966e-22)
(1.05187 0.0119362 1.53072e-20)
(1.00215 -0.00319359 -4.9005e-22)
(1.01306 0.0150125 -7.06784e-21)
(1 -1.81164e-06 -4.8614e-26)
(1.01128 -0.0332266 -3.77497e-22)
(0.999312 -0.00261335 9.88497e-23)
(1.00091 -0.00211636 2.15201e-23)
(0.986221 -0.00896123 -6.88494e-22)
(1.00001 -8.73898e-06 3.51386e-24)
(1.15011 -0.00806941 -2.51278e-21)
(0.952151 0.103095 5.94837e-21)
(1.21723 0.0572989 6.12152e-21)
(1.00011 -0.000200817 5.25925e-23)
(1.07527 -0.0756872 -5.60154e-22)
(1.01427 0.00152885 -2.29189e-21)
(0.985927 0.0659901 2.97886e-20)
(1.00004 -0.00239753 -2.83338e-24)
(0.99987 -1.223e-06 -8.42314e-24)
(1.04556 -0.0255508 -9.80927e-22)
(1.00008 -7.14796e-05 -1.80932e-23)
(0.972178 0.0231577 -1.07761e-20)
(1.00261 -0.02072 4.74724e-23)
(1.15593 0.129597 -2.07014e-22)
(1.05502 0.0332442 -1.5557e-20)
(1.00008 -6.57122e-05 1.45061e-23)
(0.980776 -0.0666616 -1.82384e-21)
(1.00668 0.0202687 -1.54354e-20)
(0.999934 -4.0946e-05 5.71356e-25)
(1.04647 -0.0181705 7.06241e-21)
(0.997264 0.00917597 3.21944e-20)
(0.998819 -5.51514e-05 8.15611e-23)
(1.00125 -0.00688992 1.02433e-22)
(1.00019 -2.64812e-05 3.61348e-23)
(1.0034 -0.00734601 -4.21997e-22)
(0.989935 -0.00534136 1.26636e-22)
(0.99669 -5.75257e-05 1.32757e-22)
(1.02187 0.0900415 -1.22922e-20)
(0.997706 -0.0107758 5.4193e-22)
(0.911477 0.0864635 4.37389e-20)
(0.859552 0.00887926 3.9031e-20)
(0.998513 -5.06176e-05 -2.39831e-22)
(1.00002 -0.00021564 -1.96314e-24)
(1.01636 0.086154 -5.11199e-21)
(0.998225 -0.00219238 1.36467e-22)
(0.991191 -0.00214065 3.3728e-22)
(1.00013 -0.000237365 -8.98343e-24)
(1.03639 0.0218897 5.39896e-22)
(0.97718 -0.00401922 -3.5765e-21)
(0.925777 0.0485945 3.06626e-20)
(0.999346 -0.00232392 -1.41719e-22)
(0.999971 -0.000649877 -3.09306e-24)
(0.992961 -0.00386257 5.84681e-22)
(1.2262 0.0213996 -4.05696e-21)
(0.994668 -0.0329815 1.10658e-22)
(1.0737 -0.0201231 -1.14363e-21)
(1.0276 -0.0206228 -2.43618e-21)
(1.01736 0.00603308 -7.95659e-21)
(0.9999 -5.91707e-05 -6.9607e-24)
(1.15705 -0.0448339 5.63557e-22)
(1.00001 -1.47178e-05 -4.38639e-24)
(1.00084 -0.000734384 2.69398e-22)
(0.999994 -3.47898e-07 1.202e-25)
(1.10798 -0.130698 -2.52043e-21)
(1.02846 -0.0552805 1.46296e-21)
(1.01517 0.0283885 1.29205e-21)
(0.999989 -1.19129e-06 3.60118e-25)
(0.970482 0.0476872 -6.03809e-20)
(0.999795 -6.12359e-05 2.59163e-23)
(1.01092 -0.0240543 7.7233e-23)
(0.999685 -0.000174026 7.54158e-23)
(0.964906 -0.0201852 1.70071e-22)
(0.99478 -0.00853014 -1.5488e-21)
(1.06409 0.00895509 7.2344e-21)
(0.999932 -4.70705e-06 2.95003e-23)
(1.00764 -0.0380489 -1.01633e-21)
(1.00892 -0.0184854 1.09255e-22)
(0.994295 -0.00771129 -1.34466e-21)
(0.999989 -3.92042e-05 1.13992e-24)
(0.999958 -0.000643548 5.51655e-25)
(0.999889 -5.18465e-06 3.57808e-24)
(0.984989 -0.0256995 -2.03963e-21)
(1.00089 -0.00176397 1.16907e-22)
(0.999398 -0.00035705 -7.04658e-24)
(0.983504 -0.000128012 2.1337e-21)
(1.00005 -0.000107899 -1.84601e-25)
(1.00015 -0.000214569 5.21985e-23)
(1.00289 -0.0108529 1.39457e-22)
(0.999732 -0.000151211 1.30258e-23)
(1.00788 0.0308383 -2.40041e-20)
(1.03327 -0.00397554 1.11153e-20)
(1.22735 -0.0171424 -1.60361e-22)
(0.986674 -0.000396536 -2.77617e-22)
(1.00371 -0.0466252 1.50222e-21)
(0.999992 -7.78958e-07 -2.07413e-25)
(1.10056 -0.0639903 -6.79069e-23)
(0.984843 -0.0387043 -1.87197e-21)
(1.00018 -2.66582e-05 5.40374e-23)
(0.984847 -0.0150338 -9.32692e-22)
(0.999248 -0.00242642 -1.09619e-22)
(0.981578 -0.0106152 1.10311e-21)
(1.07287 -0.107252 -7.79731e-22)
(1.00026 -2.51904e-05 -5.70465e-23)
(1.01372 -0.0297357 3.12911e-23)
(0.999992 -3.7342e-05 -2.18783e-25)
(0.997222 -0.00332524 -2.1784e-22)
(0.999804 -6.17873e-05 2.42687e-24)
(1.02993 0.0472983 -1.1769e-21)
(0.995934 -0.00100112 -6.47432e-22)
(1.00007 -0.000129429 -5.29565e-25)
(0.999914 -4.12014e-05 1.09803e-23)
(1.01315 -0.00636435 2.75124e-21)
(0.977931 -0.0211801 3.18031e-22)
(0.998248 -0.00221659 -2.18491e-22)
(0.999985 -0.000676164 -5.59949e-24)
(1.02095 0.0910925 -1.50682e-21)
(1.00154 0.0480656 9.18114e-21)
(1.00094 -0.00209467 6.98358e-23)
(1.14544 0.0866413 -2.69212e-22)
(1.06009 -0.0803411 1.97409e-21)
(0.966509 -0.0219316 1.41962e-21)
(1.00003 -0.000212512 7.75126e-24)
(0.999994 -3.41669e-07 7.54307e-25)
(1.04333 0.0970427 9.14978e-21)
(0.981896 -0.00906443 3.40614e-22)
(1.00005 -0.000107605 -8.06835e-24)
(1.14528 0.0400256 6.91804e-21)
(0.999519 -0.000275902 9.34646e-23)
(0.999994 -2.98695e-06 1.421e-24)
(1.04832 -0.0049911 1.16188e-21)
(0.988344 -0.0497045 -6.57672e-22)
(0.973183 -0.0268201 4.30348e-21)
(0.963486 -0.0197057 6.1882e-22)
(0.993391 -0.0176419 -1.30904e-21)
(0.996514 -0.000118129 2.30062e-22)
(0.991284 -0.00223071 -2.68063e-21)
(1.00045 -0.00526742 -1.46971e-23)