/*--------------------------------*- C++ -*----------------------------------*\
  =========                 |
  \\      /  F ield         | OpenFOAM: The Open Source CFD Toolbox
   \\    /   O peration     | Website:  https://openfoam.org
    \\  /    A nd           | Version:  7
     \\/     M anipulation  |
\*---------------------------------------------------------------------------*/
FoamFile
{
    version     2.0;
    format      ascii;
    class       volScalarField;
    location    "30";
    object      p;
}
// * * * * * * * * * * * * * * * * * * * * * * * * * * * * * * * * * * * * * //

dimensions      [0 2 -2 0 0 0 0];

internalField   nonuniform List<scalar> 
30084
(
0.0149499
0.173944
-0.0150905
-0.0597849
-0.00428285
-0.0636125
-0.0264568
0.0143427
0.00341144
0.000274943
0.0092664
-0.00798485
-0.000899546
-6.55352e-05
0.197162
-0.0103021
-0.000373266
0.0809497
-0.00379594
-0.017811
-0.00155618
0.00320237
-0.0153198
-0.00373411
0.596908
0.172896
-0.000963514
0.507494
0.18999
-0.00289013
0.0269214
0.0829361
-0.0973504
-0.0113865
0.514026
-0.0126535
0.197678
-0.0457759
0.00970669
0.00932321
0.000700317
-0.0286265
-0.000338618
-0.0342962
3.35639e-05
-0.00261068
-0.00721487
8.94128e-05
0.00562473
0.192984
-0.0341012
-0.0525074
0.0855939
-0.0613358
-0.0100873
0.181247
-0.00601711
-0.0016029
-0.00803279
-0.0297436
-0.000142399
-0.0036902
0.0679798
-0.0111362
0.300245
0.566121
-0.0135358
-0.0144894
0.541209
0.000735243
0.171249
0.430498
0.0038614
0.562055
-0.0133205
0.0204307
0.198861
-0.0405458
-0.000110557
-0.0260215
-0.0565355
0.229318
0.0149654
-2.63519e-05
-0.0230991
-0.131938
0.322859
-0.000933765
-0.000870072
-0.0828039
-0.0383296
-0.0410812
0.00516614
0.0835955
-0.0857
0.329704
-0.0505271
0.000759098
-0.0681829
0.225636
-0.000115899
-0.0384125
-0.000138072
0.0598802
-0.0537118
0.148198
0.374045
-0.000838184
-4.27467e-05
-0.094399
-0.0970185
0.0182626
2.10517e-06
-0.00271751
-0.000349976
0.42094
0.248888
-0.0193025
8.43442e-06
0.00454271
-0.0180843
0.184936
-0.0026913
0.563137
0.00184097
0.0222197
0.0868426
-0.0245592
0.00688135
-2.80763e-05
-0.0319176
0.191204
0.417284
-0.0275587
0.0591523
0.0261533
0.355724
-0.0392261
-0.160669
0.21881
0.0310485
-0.0714344
-0.073132
1.55305e-06
-6.61912e-06
-0.00437743
-0.00677245
-0.0744556
-0.111772
0.116547
0.0440412
0.0215554
0.000679031
-0.000283486
0.240259
0.000799397
-0.0131831
0.340095
0.28423
-0.0296714
-0.0541892
-0.0583851
0.187257
-0.000117087
-7.17215e-06
-0.0194476
-0.0702816
4.13379e-05
-2.9343e-05
-0.0118391
-5.33916e-06
0.00962422
0.344535
-0.038415
-0.0775395
-0.00856081
0.00349426
-0.039969
-0.00222155
0.00858574
-4.18034e-05
-0.00695728
0.320558
-0.0134683
-0.160239
0.242031
-0.0106736
-0.0295147
0.00647106
-0.00284198
-0.000534743
0.00318537
0.572274
0.236599
-0.0226865
-0.0126325
0.484019
0.214675
-0.0848837
0.00192483
-0.0496298
-0.0821834
-0.00767331
0.00138041
0.354005
-0.0113784
0.0116596
-0.0737978
-0.0960889
-7.82249e-05
0.455294
-0.00184067
-2.83821e-05
-0.00100396
-0.0362706
0.0907053
-0.00502828
0.0113559
-0.00370574
-0.0856442
-5.36855e-06
0.000697799
-0.00399526
0.121846
-0.00490925
-0.00258465
0.0831546
0.000158138
3.08499e-05
0.00890741
-0.0459797
-0.0353297
-0.00801126
0.169488
-0.024224
0.0227175
-6.83436e-05
-0.00516147
0.00128447
-0.0454855
-0.156125
-0.0024279
0.000729553
-0.00269386
0.00477563
-0.0172629
-0.000112093
-0.119768
1.92222e-05
0.123694
-0.00581161
0.000189606
0.150298
-0.0816845
0.000384077
-9.11293e-06
-0.0715287
-0.147361
-0.0147805
-0.0264942
0.0439001
0.308908
9.58007e-05
-0.0435394
-0.00674033
0.495639
-0.0135027
0.2385
0.0258336
-0.000499592
0.67746
-0.000999313
-0.0826336
-0.0846695
0.00375906
0.0560767
-0.013821
0.421379
-0.00595601
-0.0292451
-0.00055029
0.274013
-0.00504027
0.335406
-0.000936472
-0.00985527
0.48319
0.106852
0.0830059
-0.0520199
-0.000305855
0.00464982
-0.000392128
-2.55835e-05
0.119016
4.12666e-05
-0.0318203
-0.0097128
0.603503
0.41373
-0.0718807
-0.0314157
-0.0335984
0.016468
0.00451079
-0.0299867
-0.0767218
0.315115
0.433585
-0.00226129
0.368371
0.115764
0.000486105
0.0190236
-0.00309344
-0.0152006
-0.00914338
-0.00457367
-0.000130451
-0.00329055
0.0293162
0.280078
0.00272271
-0.0437666
0.0221149
-8.665e-05
-0.0742823
0.633323
-0.0107727
-0.0025447
0.0203106
-0.0243382
0.154653
-0.00255147
-8.48835e-05
1.59705e-06
-0.0046096
0.486111
0.0420254
-0.156421
-7.95314e-06
-0.154418
0.0968648
-0.00871323
-0.0784431
-0.00233427
-0.000821084
-0.040537
0.0015326
0.01329
0.0179604
0.175345
-0.000407434
0.00349088
0.183516
-0.0142717
0.000665118
0.000710774
0.417198
-0.0381709
-0.00276691
0.22407
0.503489
-0.0421185
-0.012514
0.0956157
-0.00139735
-0.0143439
-0.00582775
0.210565
-0.000104519
0.0172862
-0.0991302
0.421905
0.554152
-0.0103659
-0.0151727
0.308789
-0.0308857
-0.000126812
0.15728
0.128355
0.130463
-0.0125806
0.0431701
0.500729
-0.131952
0.456557
0.426877
-3.87467e-05
0.0294984
-0.124439
-0.00517632
0.00278055
0.507851
0.0422744
0.000449854
-0.0571084
-0.0842619
-0.0096623
-0.000264977
0.342529
0.244098
2.48659e-05
0.00712681
0.00944163
-0.0752041
-0.0519889
4.95602e-05
-7.08361e-06
0.000824498
0.159953
-0.0453562
0.338692
-0.081362
-0.0304012
-0.0351839
0.219703
0.0721495
-0.00219614
0.0141323
0.00142484
0.460106
-0.0419273
0.00187042
-0.0128775
0.038691
-0.0027507
-0.0209209
0.000367774
0.000378474
0.641598
-0.0139363
-0.00886271
-0.000907192
-0.00136532
0.295265
-0.0994036
-0.0425139
4.11976e-06
-2.3667e-05
-0.0432465
-0.0116988
-0.00908131
0.0297878
0.0108153
-0.00478752
0.0559078
-0.029488
0.449502
0.00844237
0.000392787
-0.0714324
-0.0400981
0.0700011
-0.00607364
-0.04162
-3.91621e-05
0.541625
0.0337674
9.83051e-05
0.572331
-0.0440286
-4.16859e-05
0.00252794
-0.0733948
0.0198298
0.0757194
-5.60789e-06
-0.013751
-0.012558
-0.00938419
-0.000901113
-0.014196
0.488975
-0.0144127
-0.0202588
0.25057
-0.0050005
0.473937
-4.5649e-05
-0.0277472
-0.0786913
-0.0407514
-0.0298565
-0.00283542
0.00272935
-0.000361985
-0.0320694
0.0148349
-8.20297e-05
5.80192e-06
-0.0109727
0.447335
0.0126742
0.00440103
-0.0844735
-6.4941e-06
0.00169681
-0.000144375
0.0164754
-0.02954
-0.000756399
-0.0141009
-0.0211549
0.00179429
-4.82753e-05
0.0108771
-0.000818917
0.087428
0.393442
0.313473
-0.00759549
0.010631
0.0443675
-0.000258146
-0.00637773
-1.45178e-05
0.430724
-0.0234385
0.0293693
-0.0285829
0.00282785
-0.00564654
-0.00024143
7.21355e-06
-0.00857899
0.0791195
0.288882
0.00217748
-0.0645352
-0.0412225
-0.0136898
0.117831
-0.00243761
0.00174274
-0.00982307
-0.00022587
-0.0758821
0.318988
0.227384
-0.0376318
0.312166
0.000100505
3.41616e-06
0.156321
0.0648684
0.561019
-0.0700849
-0.035431
0.0464203
0.00207189
-0.0102511
0.000784485
-0.018198
-0.0219601
-3.06411e-05
-0.0016723
0.418212
-0.000322876
0.524833
-1.27634e-05
0.0354622
0.0828436
0.0607536
0.00183867
0.000293482
0.438934
0.0920311
-0.0798068
0.233712
-0.0115503
-0.0223277
-0.00726111
0.289961
-0.0427416
0.0194523
-0.0135104
-5.479e-06
-0.00241216
0.0104537
-0.0296878
-0.0367998
-0.0690331
-0.0300015
0.156861
-0.00390067
-0.0836564
-0.0231449
1.78107e-05
-0.0203753
0.0154951
0.159415
-0.0449976
-1.17299e-05
-0.0306918
-0.00098464
0.00247069
-0.13057
0.337821
0.00157765
-0.0201256
-0.0318798
0.108518
0.479268
0.00321888
-0.00848007
0.28451
0.202162
-0.0260515
0.00882274
-0.075561
-5.1309e-06
-0.0641232
0.000115446
-0.0331662
-7.44114e-05
1.49985e-05
-0.0110546
0.0737911
0.393539
0.0167103
0.0207212
-2.98007e-06
-0.0111414
0.00012472
-0.00584344
1.60691e-05
0.0803139
-0.000928953
0.229919
-0.000281445
-0.0214795
-0.0568389
-0.00759726
0.4762
-0.0275154
-0.0788923
-0.0100279
0.073901
-0.0703259
0.0484263
-0.0304386
-5.03934e-06
-0.00930506
-0.0071091
0.000406417
0.000118463
0.288128
-0.00880647
0.117863
-0.00790984
0.00151946
0.0539281
0.000257929
-4.82833e-05
-0.0630894
-0.00629923
2.19036e-05
0.294902
0.610774
-0.000437658
-0.0547924
4.98354e-06
0.508799
0.0329047
-0.0585507
2.39156e-05
0.0202702
0.0918531
0.10675
0.0744926
-0.000805096
-0.000342919
-0.0258912
-4.28905e-06
1.78312e-06
-0.0435109
-0.0494938
-0.0679285
0.585408
0.000321389
-0.0521763
0.0137639
-4.41794e-05
-0.0023431
6.41694e-06
-0.010795
5.10478e-05
-0.0276144
0.0468851
0.468459
0.0718146
-0.000564372
0.000776114
-0.0846336
0.115546
-0.00563405
7.94494e-06
0.258484
-0.161269
-0.0686748
-0.0235574
-5.57295e-05
-0.000558382
-0.167849
-0.0359238
0.191147
0.447365
-0.0774172
-0.0023579
-4.38259e-05
-0.0702372
-0.0960324
-0.000422545
0.00445781
-0.0251779
-0.00839533
0.433784
-0.00242667
0.00414781
0.209186
-0.0134816
0.563785
0.562971
-8.51095e-05
-0.000131395
-0.027072
0.0276201
-0.0532729
0.00948354
-0.0130508
-0.00110979
0.493924
0.224959
0.00404046
0.669798
3.85511e-06
0.145833
-0.0880153
-0.0509531
0.000122891
-0.0551534
0.15087
0.0264328
0.0966901
-0.000878093
-0.000943731
-0.00705693
-0.00623811
-0.0228226
-0.00203995
0.174111
-0.0103146
-0.00942756
-0.0851181
0.410367
0.0386278
0.0529534
-0.000789407
-0.000995414
-0.0330418
0.00173954
-0.00469322
-5.32772e-05
-0.000705381
0.151324
0.440686
-0.000273767
0.251737
-3.47007e-05
-0.00602957
-5.43853e-05
0.00971802
-0.000307382
-0.000100757
-0.000103963
-0.0835018
-3.4278e-06
0.0765195
-0.0401016
-0.000122573
0.232537
-2.21262e-05
-0.000783607
-0.000197236
-0.00904742
-0.000773987
-0.0108124
-0.102939
-0.000694988
0.00763129
-4.8926e-05
0.387991
0.00171203
0.0376507
-0.0499673
-0.036113
-0.00216965
0.00522284
0.266082
-0.0415704
0.242768
-0.0611075
-0.00622773
-8.08004e-06
-0.0101268
0.415697
0.251538
-0.0560223
-0.0754914
0.37547
-0.014537
-0.0823495
-5.35117e-05
-0.0418091
-0.00156497
0.65062
-0.0731644
-0.000192914
-0.0825963
-0.0423433
0.300221
-0.00463685
-0.044383
-0.00681467
-0.0102905
-0.00236142
0.29927
-0.153436
-0.0312083
-0.0246402
-0.0212699
0.0100094
0.369674
-0.0300912
0.234579
0.00485504
-0.0256833
0.533751
-0.0147618
-0.000464316
0.302176
0.421879
-0.00531072
0.0260156
-0.0116263
-0.0494328
0.284671
-0.0700518
-5.94026e-05
-0.0127096
3.85291e-05
-0.00787887
-6.27024e-05
-0.00817503
-0.00178535
-0.00563663
-0.0579568
-0.00113761
-0.000961298
-0.00206746
0.252584
-0.00371754
-0.00576106
-0.00535905
0.215069
0.00924816
-0.000743739
0.41293
0.555769
-0.0311226
0.493519
-0.0275038
0.391441
0.00952699
-0.0210211
0.00446603
-0.000870418
1.46226e-05
0.00442102
-0.0192497
-0.0309788
0.229542
-0.0358159
-0.0314879
-0.00166975
-0.044646
-0.0385053
0.0113463
-9.51873e-06
0.017848
0.173504
0.423221
0.034881
-0.0211626
0.184378
-0.000685767
0.0585049
-0.0280773
0.000997839
-0.081744
0.00510747
0.391973
-0.003569
-0.0009817
-0.000286657
-0.0776213
-0.00223847
0.65534
0.677114
0.0199115
-8.25196e-05
0.0138074
-4.3269e-05
0.0995421
-0.000971459
0.0356626
0.598996
0.0743676
1.57817e-05
-0.0129831
-4.7014e-05
-0.154999
-0.052459
0.496293
0.000339389
0.0191731
0.00474273
0.000430956
-0.00378046
-0.000552071
-0.00960056
-0.0562
-0.0355176
0.0108909
0.227586
-0.0206291
0.0102314
-0.0311599
-0.00296835
-0.0416367
9.31395e-06
4.7093e-05
-0.00359363
0.0447862
-0.0466887
-0.0248347
-0.00584544
0.00426709
-0.029101
0.301064
-0.0195496
-8.52626e-06
-0.0769281
0.460085
-0.0275768
-0.0185494
0.116445
-3.82154e-05
-0.00114074
-0.0434494
-6.84044e-05
-0.000763103
-4.35899e-05
0.670251
0.0139551
0.00563765
-3.29841e-08
1.13643e-06
-3.8406e-05
-3.91489e-06
-0.034082
0.423348
-0.0523122
-0.000829689
-0.000293344
-0.00833799
0.494448
-0.0765597
0.453669
0.0424329
0.178767
-0.00025466
0.488766
-0.00348515
-0.0143578
0.0249295
0.0127302
0.0145857
0.230969
-0.0601643
0.482391
0.340233
-0.0124771
-0.0419463
0.00199786
-0.0439754
-2.62875e-05
-0.00148907
0.00414323
0.096957
-0.00997909
-0.0342692
-0.00507248
0.580725
-0.101929
-7.33166e-05
-6.12382e-05
0.502199
-0.00749414
0.00334308
-0.0196358
-0.00345859
-0.0227884
-0.0145759
-0.0203169
0.132993
0.0477547
-0.0149951
-0.0212242
7.45926e-05
-0.00866129
-0.00184246
-0.0118463
-5.89335e-05
4.46559e-05
-0.0273351
-0.0299082
0.477925
-0.0325756
-0.000357293
-0.00234393
-0.000512157
0.410541
-0.0230563
-7.41841e-05
-0.0414206
-0.00674247
-0.00534827
-0.0410173
-0.0470606
0.00974083
0.0815279
-0.0900034
5.84765e-05
0.00856661
-0.0193926
-2.77113e-05
-0.000119046
0.146865
0.112576
0.0239468
-0.0687294
-0.0750052
0.000709122
0.51733
5.09251e-05
-0.0239512
0.435248
-0.0247837
-0.0527226
2.45992e-06
0.00016569
-0.0524559
-0.013576
0.00193358
-0.0459255
0.277003
0.325374
0.000926092
0.000297191
0.262236
-0.018106
-2.813e-05
-0.00220512
-0.0401927
-0.0311858
-0.0148744
-0.00311622
0.256086
1.01166e-05
0.0997025
0.326016
1.46204e-05
0.0149414
-0.000686171
-0.114703
-0.0193864
-0.00100204
0.037054
0.0002144
0.271644
0.00192234
0.0296844
0.0294251
0.604535
0.404845
-0.0742047
-0.00991239
2.39203e-06
0.0311378
-0.0179812
0.191353
0.369284
-0.045874
-0.0110203
-0.0213503
-0.00821753
0.175971
-0.000296752
0.486525
0.0325406
4.18419e-05
1.67134e-05
9.92672e-05
-0.0162559
-0.0223215
0.000838917
0.0898648
0.156588
-0.0682854
0.000586101
5.41284e-05
-0.0290823
-7.0017e-05
-0.00358644
-0.0139169
-0.000935787
0.0573146
0.00530491
-0.00172529
-0.00468231
-0.0196267
0.405156
0.415187
0.0466242
-3.51077e-05
-0.000715295
0.29084
-0.00060403
-0.117951
-0.000284822
-0.024232
-0.0977462
-0.000301874
-0.000318964
-0.039741
0.00159642
-0.000115816
-0.00165345
0.245632
-0.0417806
-7.48988e-05
0.115276
0.391212
0.404247
0.000685545
-0.119651
-0.0111555
0.457093
-0.0801026
-0.0821995
-0.00657151
-0.0153121
0.0343095
-0.0303553
0.404193
0.103632
-0.000253697
-0.0637498
-0.0837031
-0.00459043
-4.40711e-06
-0.00221886
0.246384
-0.000277779
-0.000282731
-0.00480615
-0.00144815
0.010462
0.034099
-0.000260536
-0.000178926
-0.00828236
-0.112185
-0.0421706
-0.0894361
0.279685
-0.00251473
-0.000371426
-0.0433435
-0.0281932
0.0113651
0.015657
2.70066e-05
0.0856671
0.173181
0.0220053
0.0286892
-0.000795938
-0.0156441
0.0480842
0.00147759
-0.00012798
-0.0108974
-0.00474685
-0.000919939
-0.0131223
-0.00104865
0.297525
-0.0105994
-0.158571
-0.0280376
-0.0125419
0.0135938
0.506538
-0.0504723
-0.000188953
0.486338
0.193512
0.00891957
-0.00685921
0.00865494
0.0232972
0.186847
0.000364373
-0.00354852
0.598826
0.327401
0.364112
-0.0517667
-0.00168633
-0.00148426
-7.34708e-05
-0.00157575
0.333173
0.097103
-0.00501009
-0.00592624
-0.000481098
-0.0127592
0.57018
0.436491
0.0936567
-0.0033431
-0.0727707
-0.00560246
-0.00089828
-0.0251838
0.0162176
-0.0314764
-0.004147
0.000965458
-0.108264
-0.113777
0.0349911
-0.0286852
-0.00471196
-0.0297851
-0.000271834
-0.0081026
-0.000854995
0.382963
2.01004e-05
3.51814e-07
-0.032303
-0.0227274
-0.0329881
0.0449319
-8.84597e-06
-0.103692
0.0775899
0.229051
0.640807
-0.00540459
-0.126825
0.0350498
-0.0024722
0.0889017
-0.000745645
0.0119613
-0.000265442
0.298571
-0.0667338
0.012221
0.157706
0.136984
0.001612
0.00321753
1.62457e-06
0.456231
-1.24627e-05
-0.0516244
0.000343901
0.00184933
0.212206
0.119676
-0.0892332
-0.0445957
-0.00478694
0.676029
-0.0919958
2.29635e-06
-0.0178258
-9.1986e-05
-0.018162
0.122137
0.229774
0.000971828
-0.0401712
-0.0108434
0.174699
0.0655617
-0.0370805
0.584691
-0.0114017
5.1859e-05
-0.158334
0.606756
0.00206385
0.108809
-0.0505932
0.17482
0.00211402
0.0389336
-0.0856929
0.00611998
0.0634844
-0.0315838
0.236167
-0.0298555
-0.0221864
-0.000975062
-0.000978686
0.531045
-2.97194e-05
-0.00644155
-5.55721e-05
-0.00929907
0.000363077
-0.00840539
0.290833
-1.11551e-05
-0.00122201
0.133906
-0.162587
-0.0275436
0.00123289
0.44286
-0.0635634
0.200602
-0.0135897
0.182653
0.00773025
-0.000913691
-0.0411318
0.000831793
0.543252
-0.0310137
-0.000179055
0.00253679
0.167717
-0.0128881
-0.000858102
-0.000192711
-0.105546
-0.0030248
-0.0112765
-0.0885144
4.91782e-07
-0.0787699
0.000396669
0.391035
-0.011791
0.175817
0.00500341
-0.00429367
0.3104
-0.0715412
-0.15352
-0.00504779
-0.115276
0.319344
0.337066
-0.0161102
-4.00064e-05
-0.0176883
0.00522167
-1.62682e-05
0.0786004
0.42136
0.0143416
0.00177092
0.010197
-0.0801515
-0.000230621
0.0953312
0.0568017
0.0888922
0.0151104
0.0316353
-0.000489457
0.206758
-0.053676
-0.169776
-0.00120181
0.0231007
0.171939
0.00087697
-0.0823382
0.252973
-0.0489045
-0.0840315
-0.0838931
-0.108435
-0.111828
0.0611091
0.254721
-0.128157
-2.48741e-05
0.000883859
-0.0228815
-0.00210245
0.00850031
-2.83036e-05
-0.00661152
0.00448187
-0.000108598
0.0665649
-0.000642516
0.142736
-0.0382677
-0.00715922
-0.00794205
-0.00982021
-0.0798469
-0.00674684
-0.00127298
0.0243505
0.0922426
0.00503887
-0.037845
-0.0034474
0.0336985
-0.0108806
-0.0220479
-0.0835943
-0.0181979
-6.85867e-05
-0.0174412
0.483945
9.71895e-06
0.164675
-0.0542574
0.573318
0.0563888
-0.0532654
-3.88901e-06
0.00187197
-0.105303
-3.3973e-05
-0.00316524
-8.0608e-06
-0.0896252
0.00510674
-0.101176
-0.0263248
-0.000178331
0.312475
0.301896
-0.0410714
0.000479939
-0.000239572
-2.41456e-05
-9.21429e-05
0.519799
-0.00157412
0.00256505
0.0250082
0.00104071
-0.000734744
-0.0848023
-0.000370008
0.0541966
0.00242206
-0.00247515
-0.000912726
-0.0294025
-0.0479008
0.211407
0.121745
-0.00022531
-0.0151822
0.000573931
-0.0676677
-0.00076726
0.160812
-0.0109364
0.672119
-0.0188227
-0.00173442
0.0877071
-0.021846
0.38634
-0.0486213
-0.0130037
-0.0150056
0.0210959
-0.0042575
-1.16189e-05
-0.0096756
0.34665
-0.0500575
-0.00380963
-0.0478171
-0.0310736
0.179068
-0.000638204
0.31786
-0.00338517
-0.0778424
-0.000666032
0.0152194
0.0535264
-0.00701145
0.373581
-0.000597771
0.038217
0.103555
0.000486716
-0.000202875
0.561102
0.0816892
-0.00132818
0.0345348
0.0231022
0.000104561
-0.070109
-0.0256417
-0.153056
-0.0122701
0.373135
0.004738
0.203504
-0.000508838
0.43691
-0.081408
-0.00620601
0.00710559
0.0363387
-0.0816537
-0.129169
-0.0100052
2.11211e-05
0.617783
-0.0260804
0.000889425
-0.0361895
-0.0455952
0.380918
0.00340232
-0.0189374
-8.91744e-05
0.104491
0.00923611
-0.0442475
0.000883059
-0.0041196
-0.032402
2.48534e-05
-0.0601708
-0.00189228
-0.0172398
-0.0744759
0.327107
-0.0120002
0.058554
-0.0532104
-0.0371972
-8.23997e-05
0.000124763
-0.00451337
2.62364e-05
-0.013085
0.0222391
-0.00248604
-2.88287e-05
0.551606
0.00574354
0.00032535
-7.95629e-05
-0.0025663
0.36825
-0.060665
0.61921
0.218821
0.0258484
0.321955
-3.33323e-05
-0.0170093
-0.00104864
-0.00297152
0.228795
-0.0119445
0.618077
0.296126
-0.0665312
0.307488
0.0101245
-0.0166993
0.00253452
-0.0550238
-0.00472838
-0.0602632
-0.0645265
-0.00361833
0.303676
-0.0117144
0.000127342
-0.00513906
-0.000838726
-0.0392833
-0.000235992
-0.00154729
-4.72631e-05
0.189849
-0.126437
0.312913
0.0327904
-0.003315
-0.0398391
-0.0236728
0.086289
-0.00367413
-0.00131271
-0.0761863
-0.0530244
0.0110128
-0.0496271
-0.00537018
0.0109198
0.00252493
6.61763e-06
0.165183
-8.08935e-05
0.0670715
-0.0010133
1.79164e-06
0.00226465
-0.000854168
-0.00150246
-0.0189328
0.212595
0.177463
-0.0233673
-0.0149281
0.00331368
-0.00610801
-0.0121057
-0.000139513
-0.000636341
0.000747979
0.136186
-0.0103729
-0.0673409
-0.0617583
-0.00285837
-0.0284861
-0.0171036
-0.00209288
0.00611178
-0.0147383
0.282585
-0.0838578
0.00656366
0.00185402
-0.0445937
0.608108
-0.0118966
-0.00629447
0.00900884
0.0976546
0.00461945
-0.00520224
0.305241
-0.000483015
0.052619
-0.0280969
-0.068584
0.0073538
-0.00451527
-0.00661628
0.0487602
-0.00435812
-0.000801491
-0.00136366
0.00287707
-0.000326331
0.0384228
-0.0111768
-0.00248746
-3.16349e-05
0.192045
-7.99832e-05
-0.0381333
0.094366
-0.0291788
0.000102395
0.134632
-0.0514909
0.20658
-0.000111377
-0.00478014
0.124226
0.000166956
0.0057131
-0.00544252
0.0121824
-0.0243922
-0.037866
-0.0107158
-0.00325333
0.0115333
0.0243192
0.121807
-0.00026083
0.140313
-0.0471541
-0.00401727
-0.00831046
0.000428406
-0.0745598
6.07036e-05
0.488713
0.261492
-0.000632939
-0.0252515
3.36038e-05
-0.00265708
-0.00672947
-0.0201769
0.191446
0.195212
0.0218962
0.0118653
-0.0854416
0.0436428
0.0639546
0.0784896
-0.0597728
0.0187414
0.254186
-0.0113838
0.423885
-0.0011566
-0.0129556
-0.0606434
-0.00015172
-0.000950722
-6.67306e-05
0.420788
-0.0122774
0.000260671
-0.0183204
-0.00634228
-0.000430483
-0.015576
0.326957
0.00105318
0.0127671
-0.0359996
-0.000663579
-0.00548888
-0.00100763
0.62685
0.000206559
1.77888e-05
-0.0023833
-0.016991
0.124921
0.000567153
0.0144291
0.092837
-0.000242688
0.0023193
-0.0851515
0.0829211
-0.0555358
1.26395e-07
0.000336029
-0.00318594
0.037457
0.353608
0.111141
-0.0395509
3.30693e-07
-0.0662037
-0.00314061
-0.0147365
-0.0142486
0.210452
0.469831
-0.000158368
0.177929
0.27733
-0.0114208
-0.0234284
-0.0279214
-0.0167256
9.23001e-05
-0.0464107
-0.0101576
-0.000202577
-0.000699315
-0.00190824
-0.00228253
-0.000843661
0.346956
0.369944
0.238452
-7.69868e-06
-0.0269312
0.0489893
0.12652
0.494777
-0.000617872
-0.0232816
-0.0213424
0.346891
-0.022131
-0.0111871
-0.00606293
0.18243
0.000295002
-0.000654501
-0.0298919
-0.0522248
0.173327
0.0544766
-0.0495417
-0.0278178
0.126349
0.0232796
-0.0573689
0.00802507
0.0385037
0.178567
-0.000457207
-0.000786836
0.126698
0.000198416
0.0369349
0.0368079
-3.63966e-05
0.32316
-0.0124294
-0.00522552
0.644064
-0.0421296
-0.0114747
-0.0438292
-0.00318936
0.465873
0.00126517
0.610258
-0.000199012
-0.021126
0.620158
0.00785529
0.464011
-0.0067229
-4.43644e-05
-0.0302159
0.472442
-0.00189384
-0.00776074
-0.00944432
-0.00121734
-0.024643
0.474841
0.133351
-1.70864e-05
0.023089
-0.00439162
0.0346853
-0.00108795
0.0268223
-0.00309118
-0.000615286
0.452236
0.48448
0.456953
-0.0588308
0.0558163
0.000123519
-0.0639971
0.32037
0.0183914
0.000227194
-0.0807903
0.000632407
-0.000152702
0.481964
0.000108766
0.00479433
-0.00229363
-0.0106219
0.461297
0.475365
0.488884
0.0136869
0.000491667
0.247157
0.00869365
0.0285439
-0.0105684
5.56404e-05
-0.00348237
-3.7248e-05
-0.00532567
-0.000914602
-0.00676473
-0.000122992
0.174944
0.00239078
-0.0885273
-0.0106794
-0.0803
-0.0186965
-0.000946453
0.386125
-0.0124422
-5.6838e-05
-5.88484e-05
0.600177
1.89675e-05
0.0130979
0.0674771
-0.0205478
0.338834
-0.00610107
-0.0487428
-0.0417009
-0.000671488
0.000110031
0.290371
0.485638
-0.0018371
-0.0254191
-0.000308329
0.479887
0.578675
-0.00171804
-0.00761616
0.0222687
0.00346596
-0.0278836
3.08229e-05
0.0116194
-0.0428804
0.0681149
0.389009
-0.00180227
0.0330104
0.135181
0.0513223
-0.0497476
0.0326626
0.562165
0.218906
-0.0592627
0.485786
-0.000733897
0.494171
-0.00852554
0.409784
0.0912817
-0.00588983
0.0423934
0.00272537
0.0202971
-0.080995
-0.000817823
-0.0264713
0.409775
-0.0300373
0.02935
-0.00176122
0.00801887
0.211927
-0.0105862
-0.0128809
0.00076042
-0.00424422
-0.0270908
-0.00253375
0.00219816
-0.0101462
-0.000620622
0.00274075
0.407133
0.00240475
-0.0180475
-0.06666
-0.0329221
-0.0703748
-0.100493
0.00474555
-6.4901e-06
-5.23031e-05
0.29214
-0.068033
4.56088e-05
-0.061563
0.201573
-0.0679287
-0.0169364
0.000102643
-0.00222765
-0.0515079
0.168716
-0.0100224
-0.000594321
-0.0513671
-0.0222366
0.623363
0.126451
0.0797316
-0.059517
-3.93155e-06
-0.00768466
0.0740892
-0.000471574
1.16826e-05
0.192299
0.115925
0.000659792
-0.00103202
0.00842258
-0.0445603
0.0116659
0.00913105
-0.017017
3.92952e-05
0.32194
0.000614919
-0.000794046
-0.000309369
-0.000285284
-0.000215377
0.0927284
0.000984259
-0.00322557
-0.0107918
-0.00548521
0.0325599
-0.00614223
-0.0461333
-0.0117224
0.441319
0.368063
-0.000603271
-0.00171848
0.112018
-0.000978703
-0.0238492
0.0788702
0.11123
-0.00114197
0.0232133
0.045342
0.00139015
0.123234
-0.000152128
0.00830949
-0.0141328
0.0155154
-0.0162943
0.0549467
5.49005e-05
7.80416e-05
0.000252249
-8.50236e-05
-0.00182123
-0.0108358
-0.014218
-0.032209
0.0719094
0.0434259
0.0102425
-0.075465
0.0125445
0.00736065
0.0145752
4.40982e-05
0.475215
-0.00920547
-0.00368264
-0.0112975
0.631276
3.31367e-06
0.0904719
-2.88503e-05
-0.0423167
-0.0071421
-0.0240105
0.190979
-0.00444874
-9.57267e-05
0.207457
0.0798115
-0.000661129
0.0573166
-2.56546e-05
0.177811
0.00729733
-0.0308163
-0.000198672
0.264583
0.031605
-0.0221922
1.22753e-05
0.184496
0.336449
-0.00128103
-7.69752e-05
-0.0395755
-0.0098642
0.00726104
0.0257717
0.496319
0.290713
0.000478917
0.364297
0.27141
-0.0031501
-0.0594727
-0.040586
-0.0175776
-0.0633114
0.162144
0.000838181
0.516115
0.165232
0.0135511
5.94593e-05
0.000638831
5.02359e-06
-0.000664718
-0.003083
0.5518
-1.88694e-05
0.0863018
0.0295764
-0.00028611
0.512476
0.578864
0.214179
0.247186
0.00905393
0.00261772
-0.000352766
-0.0119328
-2.67422e-05
-0.00123745
-0.160486
-7.51002e-05
-0.00210651
0.524918
-0.0125071
-3.42248e-05
0.546439
0.000450358
-0.0375302
-0.0766244
-0.00147159
-0.0951136
-0.000288982
0.171394
0.00352967
-0.018495
0.00203312
-0.000763269
-0.000466577
-0.000277293
-0.166031
-0.065263
0.165719
0.00291574
-0.00619211
0.25595
5.32783e-05
0.605527
-0.000660311
-0.0899594
0.00235443
0.00170514
0.055121
0.0580574
-2.55767e-05
-0.00450052
8.13142e-05
-0.000766884
0.000853769
0.0904527
0.0527246
0.341805
-0.0507687
-0.000133574
0.000146504
0.105837
0.372475
-0.00479439
-0.00674754
0.6057
-0.0030166
-0.0218448
0.000863333
0.0833667
-0.0494187
-0.0091198
0.169487
0.00136489
-0.000309015
0.0017224
0.00489365
0.595583
0.473862
-0.0255067
-0.0429027
-0.00692162
0.00162193
5.0609e-06
0.0807577
0.218073
-1.92074e-05
-0.00778728
-3.21156e-05
0.000103564
0.447407
-8.22577e-07
-0.0886989
-0.0658357
-0.112439
0.0748293
-1.30004e-05
0.0105148
-0.00662231
0.414105
0.0044825
0.00525563
-0.0320895
0.000622779
0.373926
0.222032
0.0114587
0.0607745
0.53064
-0.0696111
-0.0639165
-0.00207892
-0.00748352
-0.000459885
0.0258895
-0.000113902
0.177445
0.00302255
0.213444
-0.0369889
-3.67987e-06
0.061146
-0.000215687
-2.74815e-05
-0.000857847
0.591487
0.568337
0.335918
3.86746e-05
0.200912
0.492147
-0.00107887
0.00160394
-0.00897518
0.0933337
0.475646
-0.0290632
0.129953
-0.00279167
-0.0682683
-0.077359
0.653495
-0.00067739
0.472681
0.0940008
0.203071
6.93531e-05
0.000187521
0.005628
-0.00951221
0.0891175
-8.56292e-05
4.56772e-05
0.463879
-0.122424
0.000264323
0.485583
-0.00250296
0.000123853
0.396796
-0.00750001
-0.00170703
0.0217177
0.171386
0.000298656
-0.000174862
0.0035867
-0.00432112
0.460796
0.587855
0.305039
0.638126
0.139704
-0.0484377
0.535908
-0.00011533
-0.00348346
0.163847
-0.00370875
-0.000731133
-0.000131646
0.4842
0.0306343
-0.000728727
0.572665
0.0799024
0.266742
0.0460884
-0.00291517
-0.0218041
0.172079
0.0785913
0.482956
-0.0256015
-0.000870834
0.445028
0.413249
0.013775
0.348403
-0.0416436
-0.0082438
-0.00993032
-0.000716427
-0.000179925
0.449913
-0.0667052
0.0231716
0.000775397
0.16659
-0.0329197
-0.0195803
-0.00112646
-0.00413405
0.501573
-0.000888165
-0.0183071
-0.00321245
0.493808
-0.0203947
0.0209408
-0.00791256
0.00140767
0.161651
-0.0230052
0.512354
0.145316
0.635334
0.26079
-0.0625815
0.0326306
-0.00193825
0.0115003
-0.0228144
0.467393
0.497915
0.55569
0.335936
0.454441
-0.000443422
0.526368
-5.48655e-05
4.70462e-05
-0.0502927
0.567423
0.0526921
0.258577
-4.86636e-05
-0.00233058
-0.060742
-0.0377342
0.459427
-0.000758107
-0.00809593
0.33564
0.00103791
-0.00450856
0.615799
0.0492853
-0.0453153
-0.142587
-0.000616693
0.0834232
0.139415
0.643163
0.113798
0.0598756
0.00433699
-0.000282222
-0.00720357
0.199445
0.00589536
0.000107351
-0.0931674
0.250102
-0.00159938
0.473509
-0.0795145
0.478692
-0.0257581
-0.0239741
0.533104
-0.00563152
0.054696
-0.000468798
-0.00143313
-0.0659748
-0.0233731
-0.0375726
-0.0101953
0.00724652
-0.101611
-0.0735564
0.476643
0.000225259
0.000735565
-0.0212832
0.124648
-0.111414
-0.061104
-1.94196e-05
-0.0976907
0.0485965
-0.000142704
-0.092755
-0.000208848
0.482622
-0.112687
0.471893
-0.0142249
0.122956
0.255087
-0.0360046
0.326326
-0.00192599
0.112413
0.000781192
0.0877489
0.201327
0.177986
-0.0293211
0.00621905
-0.000770446
0.182168
-0.00010983
-0.000167186
-0.00112608
0.00110166
0.016402
0.0151801
0.404725
0.162422
0.598402
0.375749
-0.00163792
-0.0333306
-0.000213495
-0.0494982
-0.00136464
0.00583141
0.000610558
-0.0345701
0.335161
0.470842
-0.000337478
1.26681e-05
0.0524136
-3.97241e-05
-0.00944651
-0.000227837
0.139156
-0.0363588
0.189859
-0.0997004
1.02268e-05
-0.014253
-0.0408037
-0.0262807
-0.0168387
-0.0534674
0.0588939
-0.000199287
-5.8478e-05
0.00205527
-0.000180419
0.0830863
0.109055
0.0400301
0.556825
0.0454596
-0.147894
-0.0886926
-0.000498438
0.0517916
-0.000163607
0.446032
0.0999722
0.519733
0.000106473
-0.0333262
-0.00700088
0.0505238
0.208615
0.409861
-0.00779349
0.032279
-0.00201654
-0.0196022
-0.00821673
-0.00626538
0.107071
0.00154824
-0.00860652
-0.0207088
0.257119
0.0672486
-7.04165e-07
-0.000955955
-0.00637426
-0.000664357
0.118633
-0.000727759
-0.0319058
0.152663
5.62241e-05
0.25861
6.51642e-05
-5.26681e-06
-0.0960883
-0.0193454
0.000134152
-0.0228808
0.000122934
0.541665
0.0124895
-0.0245145
0.505169
0.126699
-0.0318036
0.398291
-0.00286793
-0.00196003
-0.00217733
0.08561
0.675099
-0.00158685
-0.000683673
-2.58544e-05
0.00784223
-0.00133008
0.0255056
0.00610969
-0.0211941
-0.0599061
0.018481
0.0105741
-0.0190151
-0.00059598
-0.0126238
0.394965
-0.00190815
-0.0139714
-0.000273133
0.406277
0.0546282
0.390811
0.000396862
-0.000918972
-0.0241823
0.558681
0.144895
-0.0286183
-0.000166187
0.0315201
0.106376
-0.0244834
0.201917
-0.0480026
0.0196011
-0.154718
0.410011
-0.0166515
0.245074
-0.00327979
0.640007
-0.0414866
-0.0111769
0.511222
-0.0432784
0.16355
-0.168565
0.181249
0.00640595
0.0497834
0.320579
0.0497926
-0.0483386
-0.00983706
-0.00774524
-0.0143649
-0.000227835
-0.00161621
-0.0576245
-0.0284679
0.00189484
-0.0664088
-0.0841902
-6.25943e-05
0.140581
-0.00926615
0.147259
0.515148
0.364826
-0.0538372
-0.0723992
0.000405959
-0.0823036
-0.0045316
0.620346
-0.0355333
-0.0304885
0.36022
0.0477133
-0.0405397
0.23265
-0.0371675
-0.000725592
-0.0118848
0.00999559
0.000583568
0.378259
-0.00280501
0.139975
0.332052
-0.00581485
0.235447
-0.111126
-0.000418946
0.0066299
0.088632
0.345009
-0.00261854
0.0839588
-0.0720362
0.070575
-0.0232098
0.368584
0.00546472
-0.0699643
-0.00328999
0.000152918
0.4698
-0.00254163
-0.0323386
-0.000143282
0.205504
-9.06149e-05
-0.0486069
-0.00261079
-0.146914
0.000585691
-0.0104263
0.200068
-0.00402999
0.000887031
0.00056562
-0.00424081
0.0579264
-0.000106227
-4.60271e-05
-0.00865211
-0.0107145
-0.0230688
0.00808773
-0.00199451
0.0743071
0.0786867
-0.00135895
0.000978388
-0.00024338
0.463644
-0.00431566