/*--------------------------------*- C++ -*----------------------------------*\
  =========                 |
  \\      /  F ield         | OpenFOAM: The Open Source CFD Toolbox
   \\    /   O peration     | Website:  https://openfoam.org
    \\  /    A nd           | Version:  7
     \\/     M anipulation  |
\*---------------------------------------------------------------------------*/
FoamFile
{
    version     2.0;
    format      ascii;
    class       volScalarField;
    location    "30";
    object      p;
}
// * * * * * * * * * * * * * * * * * * * * * * * * * * * * * * * * * * * * * //

dimensions      [0 2 -2 0 0 0 0];

internalField   nonuniform List<scalar> 
7807
(
1.51644
1.23956
1.65569
1.53446
0.730402
0.231943
1.68447
0.929132
0.475205
1.31977
0.182808
0.823471
0.976753
1.19627
1.32743
1.06649
1.52149
1.02315
1.00972
1.20081
1.27926
0.76393
1.15254
1.48147
1.04279
1.52406
0.720836
1.2319
1.43031
1.02528
1.0858
1.72313
1.15319
0.629621
0.395328
1.28121
1.03714
1.67367
0.987605
0.546304
0.989148
1.06113
1.19959
1.25421
0.495127
0.294738
0.756711
0.979426
0.302813
1.20118
0.86948
1.22172
1.06618
1.1559
1.28089
0.920984
1.00141
0.928697
1.12104
0.628127
0.245031
0.903045
1.19593
0.83112
0.633549
1.08668
0.467117
0.0400079
1.37512
0.971684
0.281491
1.17965
1.02717
1.12361
1.00453
1.15496
1.64743
1.2732
1.32454
1.18189
0.963591
1.72766
1.33575
1.11666
0.840991
0.808797
0.94173
1.05563
0.734237
0.86071
1.43651
1.25585
0.40873
0.97874
0.885666
1.08382
1.17951
1.15813
0.840722
0.701971
1.15948
1.33373
0.871654
0.171991
1.26511
1.44663
1.91425
0.926343
0.011199
1.19813
1.51929
1.20387
0.0181976
1.20781
1.44637
0.64439
1.21824
1.39327
1.16337
1.1351
1.17001
1.71433
1.20332
1.06164
1.15351
0.765473
1.06337
0.998261
0.662788
1.07971
1.22109
1.32107
0.665232
0.742998
1.13348
1.51247
1.96451
0.153319
0.989356
1.26147
1.12337
1.18231
1.15679
1.116
1.92057
1.18069
1.43247
1.12285
1.11797
1.70941
1.27171
1.26137
0.820057
1.35878
1.33276
1.64181
1.16464
0.976885
1.75964
0.288807
0.983644
1.49259
0.1803
0.924913
0.899215
1.5736
1.57519
1.75239
0.92334
0.873721
0.0474217
1.12664
0.63392
1.24601
1.00054
1.10338
1.28113
1.42361
0.416666
0.661483
1.53741
0.239655
0.384451
1.67599
1.23921
1.19354
1.16084
1.11411
1.17805
1.27386
0.181129
1.17527
1.42952
0.875748
0.311946
1.46686
0.741779
1.07353
1.17238
0.0474375
0.802397
1.52174
1.45511
1.66136
1.21883
1.20616
1.19864
1.24663
1.51966
0.496391
0.228839
1.77689
1.05445
0.661804
1.17385
1.06904
1.61317
1.62564
1.1819
1.7362
0.723886
1.03661
1.16897
1.29831
1.20021
1.48958
1.77519
0.392008
1.05907
1.40704
0.959307
1.3899
0.739588
1.73161
1.64378
0.936144
1.00577
0.537338
1.42458
0.354118
1.026
1.18025
0.312338
0.856585
0.731919
1.43041
0.198489
0.867659
1.17929
1.69418
1.31146
1.77385
0.225931
1.17057
0.553399
1.65558
0.895716
1.94115
1.02003
0.809018
1.2071
1.25298
0.636242
0.489938
0.640352
0.966301
1.19874
0.208494
1.16205
0.878915
0.420091
0.677033
1.80938
0.954224
0.642253
1.84822
0.854485
1.5168
0.55043
1.12559
0.0648436
1.14847
1.29003
1.28953
1.12312
0.654782
1.19688
1.08163
0.452845
0.630374
0.892342
0.967833
0.85406
0.814015
1.11969
1.20309
1.10808
1.26279
1.14894
1.60865
1.61841
0.773685
1.26815
0.0418095
0.915491
1.08539
1.47295
1.3555
0.365489
0.906636
1.13509
1.43833
0.762058
0.877917
0.761935
1.33716
1.20806
1.57624
0.795907
1.25003
0.406128
1.00442
0.2989
1.11058
0.555207
1.14189
1.24861
1.14542
1.12766
1.04329
0.605335
1.205
1.08773
1.3447
1.4332
1.18093
1.24716
1.08996
0.960441
1.18905
1.73878
1.2488
1.22212
1.7751
0.809965
0.798744
1.25193
0.818632
1.17756
0.958682
0.845093
0.79252
1.42233
0.43987
0.626277
0.331039
0.844816
1.01954
0.0821843
0.710749
1.11625
1.69927
1.13813
1.04869
1.78699
1.63747
1.32269
1.27693
1.13574
0.966603
1.55763
0.992618
1.55412
1.18083
1.2025
1.45777
1.5522
1.15766
1.34553
1.48714
1.52807
1.24617
0.869034
0.912388
0.378333
1.17036
1.00745
0.831107
0.415769
0.782014
1.19725
1.36671
1.07694
1.04028
0.902987
1.24551
0.976026
0.98569
1.4648
0.76577
0.270143
0.462037
0.387942
1.10036
1.41475
0.940149
1.1983
1.19423
1.67992
0.998805
0.998135
0.935092
1.79365
0.714308
1.57053
1.43836
0.384394
1.1797
0.856391
1.18459
0.620112
1.32903
1.09687
0.987247
0.713047
1.41654
1.44159
1.19167
1.12006
0.900415
1.16118
1.35497
1.77474
1.22692
1.01662
0.0201532
1.04655
0.828302
1.19679
1.19757
1.25749
1.721
1.42417
1.20662
1.47568
1.81777
1.16418
0.83277
1.55441
0.811436
0.503763
1.002
0.350998
1.19162
1.09426
1.14724
0.824569
1.47241
0.82033
0.248633
1.19942
0.807904
1.30974
1.16696
1.1557
1.3031
1.40843
1.3586
1.3644
0.528042
1.36012
1.35377
0.674347
1.0681
0.631743
1.13693
1.14902
0.918544
0.757167
1.41809
0.19634
0.483659
0.807797
1.10147
1.16624
1.13568
1.14902
1.19678
1.19729
1.20352
1.54158
1.25814
0.96017
1.73444
1.18117
1.02652
1.13763
1.08435
1.08378
1.01803
1.21801
1.24666
0.266371
1.19562
0.340164
1.62765
1.38413
0.919264
0.999021
0.451937
1.74412
1.57802
1.34401
1.42834
1.18285
2.12687
0.423042
1.25239
1.03771
1.4294
1.78353
1.34368
1.4142
1.0394
0.487859
1.41658
1.23577
1.75603
1.30839
1.50413
0.974877
1.70023
1.56631
0.999252
0.979101
1.39602
1.16845
0.449938
1.03891
1.17763
1.19413
1.03657
1.03983
0.489721
1.57576
1.0293
0.389647
1.20028
0.641152
0.507684
1.05644
1.49211
1.20028
1.7892
0.296469
1.48731
1.18894
0.473051
0.141166
1.42639
1.48588
0.907385
1.46564
0.206195
1.47786
1.18467
1.01352
1.89459
1.17033
1.4209
1.11521
1.47434
1.48132
1.07101
1.09993
1.01835
0.8708
0.517419
1.023
1.5413
0.24511
1.46935
1.20327
1.64899
1.45734
1.17839
1.75702
0.792803
1.16581
1.21939
1.12496
0.960448
1.1865
1.27622
1.74538
0.253334
0.811973
1.2034
0.0622065
1.62411
0.802152
0.0719251
0.472571
0.561916
1.10577
1.188
0.777983
0.328046
0.966416
1.05767
1.19769
1.2135
1.16058
0.169942
1.18362
1.04164
1.4007
1.67568
0.882059
1.40479
0.448545
1.0274
1.29899
0.964322
1.50479
1.04045
1.25785
1.30677
1.42166
1.09084
1.00952
1.45205
1.1942
1.6532
1.00191
1.52246
0.998292
0.728592
1.40394
1.16693
1.31867
0.79408
0.0605381
1.19644
1.46104
0.880917
1.39581
1.03459
1.184
1.23484
1.14037
0.789616
0.97229
1.19302
1.12369
1.00578
0.589632
1.66425
1.39929
1.20362
0.499033
1.56895
0.169874
0.484968
1.40736
1.14331
1.44021
1.23168
1.14711
1.23944
1.19263
1.30023
0.754726
1.15726
0.291651
1.04491
1.4961
1.06733
0.854502
1.18127
0.809569
0.718011
1.80875
1.00854
0.681989
0.051841
1.38099
1.14236
0.632534
0.845526
1.42025
1.34695
1.15504
0.116028
1.44491
1.09392
1.46275
1.0794
1.10893
1.131
0.378522
1.30067
1.34005
1.32597
1.20708
1.54438
0.944292
1.44714
1.06042
1.19624
0.578433
1.099
0.579862
1.42886
1.50224
0.785092
1.15973
1.08548
1.21218
1.20772
0.798032
1.24539
1.75444
1.30915
0.445779
1.34191
1.00129
2.79379
1.03005
1.12236
1.18204
1.12491
1.10115
0.972441
1.05785
0.961029
1.27057
0.371503
1.19588
1.28307
1.59942
1.15255
1.4458
0.794386
1.227
1.16278
1.48906
0.972231
0.471245
1.09522
1.0128
1.24289
1.10858
1.10912
1.26925
1.0535
1.17807
1.19403
0.0739011
1.28798
1.19201
1.42547
1.2325
1.31522
1.20395
1.56119
1.21836
1.14066
1.18643
1.90446
1.20908
1.03669
1.1978
1.2059
1.20057
1.2124
1.44321
0.857875
1.54798
0.993246
0.640799
0.831102
1.32396
1.70714
0.967083
1.19396
1.43258
0.160766
1.0976
1.18601
1.25835
0.992765
0.831309
1.15645
0.994862
0.190592
1.16856
1.51878
1.18249
1.06325
0.778384
1.43282
0.660331
0.742529
0.5684
0.816133
1.33776
1.20398
1.11243
1.07682
0.309215
1.19975
1.24596
1.19066
1.14533
1.10943
0.492589
1.0598
1.18046
1.32131
1.65997
0.872268
1.17841
0.924914
1.21518
1.42226
0.575908
0.513523
1.40336
1.30769
1.15306
0.867065
0.803064
1.17658
0.571042
1.17841
1.01279
1.60745
1.51561
1.22813
1.19322
0.966511
1.15651
1.29345
1.19523
1.18982
0.0563955
1.28556
1.11215
1.1994
1.17855
1.16872
0.602048
0.86067
1.46004
1.132
0.0324679
0.856587
1.21574
0.444742
1.19742
0.41262
1.07949
1.19624
1.22494
0.408042
0.197707
1.34771
1.19906
1.76766
1.51469
1.27761
0.808891
1.17169
0.475677
1.21823
1.20555
1.2931
1.06143
1.50504
1.15641
0.618741
1.15179
1.1977
0.779291
1.20371
1.17828
1.15266
1.12892
1.24723
1.17026
1.10928
1.22064
1.44409
1.20933
0.00930924
1.20211
1.17961
1.21348
1.10704
0.651258
1.18313
1.1994
1.18299
1.17667
1.4009
1.2167
1.11145
1.12314
1.22013
1.2075
1.20782
0.564798
1.37827
1.47028
0.931057
1.46551
1.20379
1.21637
1.20147
1.45854
1.31478
1.75004
0.0633591
1.34872
1.43194
1.02195
0.734976
1.03664
1.27578
0.320128
1.04511
1.18876
1.03566
1.07255
0.399851
1.22931
0.637226
0.657806
1.51448
1.07338
1.35766
1.1408
1.46705
1.14188
0.709907
1.20851
1.0953
1.70086
0.686372
1.18696
0.63277
0.592525
1.12699
1.21869
0.28701
0.939611
1.18778
0.725731
0.222664
0.418705
1.38473
1.2477
1.03674
0.661806
1.06089
1.03587
1.07871
0.628054
1.57448
1.21681
1.4854
1.54147
0.450098
1.34928
1.36668
0.651111
0.567725
0.73694
1.27048
1.20843
1.16847
1.15931
1.19403
1.41766
1.20498
0.0795721
1.05583
1.09156
1.12214
0.875694
1.02465
0.680189
1.1479
0.571042
0.64669
1.05335
0.872956
1.08658
0.0935842
1.02347
1.17883
1.24972
1.23392
0.952052
0.991297
0.954284
0.892256
1.19547
0.955362
0.373867
0.651168
1.16154
0.995788
0.887414
1.04174
1.09286
1.18961
0.988884
1.39095
0.998792
1.16907
1.12652
1.07532
1.02561
0.852905
0.908916
0.846239
1.0129
1.02822
1.45105
1.40607
1.27915
1.66019
0.276862
0.955357
1.02646
0.951052
1.36185
1.05925
1.291
0.971207
1.46721
0.788898
0.785539
1.23095
1.16856
0.525555
1.14356
0.90291
1.0678
0.164652
0.909152
0.777616
1.04425
1.24965
1.13797
1.0504
1.01388
1.11491
1.32513
0.782102
0.760946
0.765166
1.7684
0.554939
1.31167
1.07169
1.0615
1.10203
1.1629
1.11351
1.12526
1.0598
0.88509
0.357377
0.868023
1.10584
1.30812
0.716187
1.41931
1.11636
1.01197
0.65532
1.10445
0.351417
1.37863
1.10815
1.09074
1.08115
0.985152
1.12743
0.729929
1.13602
1.30313
1.0913
1.19881
0.710707
1.09046
1.05109
1.0216
0.842231
1.36823
0.791861
1.06291
0.68336
1.39605
1.13761
1.09847
0.843072
0.975847
0.825237
1.44832
1.26364
1.45914
0.966744
0.720898
0.689673
0.807398
1.43859
1.17499
0.937708
0.492169
1.09595
1.18708
0.779326
1.15929
1.03007
1.20773
0.882751
1.12224
2.18181
1.17419
1.07428
1.17009
0.194422
1.25406
0.842942
1.09992
0.911273
1.12285
1.01882
0.623189
0.826987
0.810787
1.45461
0.885535
0.757748
0.881577
1.17354
0.946788
1.06018
0.9856
0.943283
0.907671
0.839191
1.46054
1.14904
0.833219
0.840256
1.0903
1.01326
1.15511
0.77782
1.29493
1.12259
0.947276
0.781518
1.019
1.72746
1.45665
0.98649
0.58579
0.804045
1.19022
0.870354
1.10252
0.618421
1.15031
0.755533
1.02242
1.2394
0.774657
1.09434
0.706638
1.60774
0.948521
0.98517
1.25909
0.818072
1.087
1.34968
1.71598
0.985451
0.996685
0.739528
0.678142
0.16461
0.0370628
0.976921
0.644685
1.38056
0.712801
0.75366
1.02232
0.480514
1.14998
1.19421
1.0361
1.1514
1.09397
1.33502
1.2101
1.28933
1.23571
1.28935
1.33645
0.999442
0.680696
0.998563
1.19747
0.841941
1.01897
1.31948
1.56374
1.19134
0.572266
0.391571
0.694819
0.11122
1.12178
0.673205
0.98143
1.15801
0.555288
0.828464
0.474141
1.31251
1.01831
1.23228
0.799185
1.63856
1.517
0.984095
1.20719
1.10343
1.09529
1.01986
0.773377
1.19733
1.18754
1.14905
1.24357
0.467662
1.44781
1.19518
0.953572
1.18926
1.08869
0.60663
0.95946
0.700922
1.15167
0.848773
1.42828
0.492472
0.96331
0.545823
1.22047
0.969088
0.796434
1.22547
0.61027
1.30743
1.36886
1.09822
0.723603
0.384297
0.619306
0.588309
1.17714
1.34114
1.29673
0.480366
1.10588
0.614057
1.49523
1.17572
1.50645
1.14305
0.555595
0.613759
0.946202
0.893326
0.699897
0.110533
1.14151
1.14171
0.465439
0.655635
1.05226
0.12315
1.40893
0.702597
1.15887
1.05171
0.906276
1.16424
1.17871
1.38315
1.202
1.0512
0.505768
1.16181
1.06241
1.28819
1.37692
1.62588
0.685161
1.17
1.1658
1.55739
1.18006
0.361895
0.920128
0.856092
0.893688
1.15621
1.33044
0.566594
1.21692
0.966695
1.32863
0.584335
0.519746
1.22168
1.5324
1.16809
1.4068
0.852882
0.458968
0.0126662
1.20418
1.13437
0.60929
1.36305
0.977319
0.898779
1.8044
0.696429
0.880749
1.17372
1.20786
0.773679
1.35727
1.20748
0.399923
1.17902
0.545038
0.379499
1.39035
1.19285
0.547705
1.17246
1.08191
0.820427
1.21306
0.780255
1.07042
0.808374
0.851586
1.1812
1.13059
1.22839
0.71579
1.40582
1.46689
1.20495
1.08936
1.08145
0.879406
1.40674
1.36059
1.09232
0.432757
1.07266
1.13875
1.1914
1.10783
0.800078
1.27321
1.0992
0.370772
0.374426
1.2167
1.13154
1.08034
1.05421
1.2801
1.14904
0.515553
0.794485
0.541511
1.15344
0.153908
0.769654
1.19903
1.19788
1.38533
0.835444
0.841849
1.07917
1.08293
0.406134
1.15619
1.38289
1.39285
0.129292
0.342476
1.39752
0.818042
1.20011
1.12285
0.810377
0.725858
1.17801
1.23912
1.40375
1.14433
0.719498
1.10911
1.16971
0.635765
0.461343
0.693926
1.25722
1.15807
1.40766
0.454462
1.88807
1.27294
0.466432
0.79162
0.572664
0.588119
0.155803
0.44309
1.20262
0.695556
0.524355
0.434158
1.36688
0.900618
0.439037
0.369379
1.58661
1.07093
1.24543
0.787487
0.656549
1.29033
0.401131
1.11164
1.19576
0.748571
1.01608
0.335396
0.478608
1.11392
1.20421
0.915716
1.19984
1.22198
0.163645
1.06496
1.12362
1.31327
0.738145
0.411213
1.16916
0.908254
0.691363
1.1616
0.400757
1.25932
0.539834
0.68166
1.29441
0.906116
1.16982
1.76435
0.801591
0.459604
1.17291
1.1892
1.03483
0.856294
0.383395
1.10804
0.368805
1.45107
1.84535
1.34839
0.794632
0.849199
0.168547
1.10564
0.363658
1.08821
0.765854
0.594736
0.829677
1.0429
0.356639
0.668083
1.07634
0.509454
1.03065
1.04023
1.1911
0.828715
1.81157
0.771409
0.763703
0.453885
1.00647
1.16
0.981516
0.448338
0.329225
0.901302
0.395532
0.34194
1.05617
0.58836
0.149417
1.1626
0.91693
1.19921
0.750354
0.266698
0.811556
1.17201
1.05884
1.154
0.761566
0.616499
0.596814
0.719591
0.390518
1.55262
0.700484
0.142507
0.716374
0.804083
0.669488
1.16755
1.14876
0.534782
0.934059
0.151401
0.948754
0.283569
1.13758
0.422098
0.560356
0.964868
0.257574
1.00821
0.493322
0.700167
1.05077
0.163318
1.6632
1.1655
1.14166
0.218834
0.135017
0.823243
0.683802
1.16554
0.123672
0.0878308
0.662297
0.00046886
0.508444
0.524488
0.579736
0.605362
1.17705
1.71001
1.1598
1.60112
0.946977
1.08725
0.147136
0.638801
1.0074
0.430547
0.460288
0.391176
1.33242
0.864994
0.604327
3.05154
0.573557
0.692173
0.540599
0.0333136
1.33037
0.814821
0.658931
0.413968
0.78866
0.255846
0.845683
1.14725
0.546021
0.898912
-0.0589246
1.01371
0.492696
1.44539
0.562968
0.687885
1.19872
0.825207
0.509457
0.716092
0.246475
1.42027
1.19133
0.728611
0.530717
0.931704
0.623366
1.25713
1.36309
1.29798
0.702134
0.0445588
0.00711663
1.29352
0.443912
1.164
1.16646
1.05283
1.28626
1.84602
0.732737
1.45662
1.04889
1.107
1.42495
0.508083
1.18501
0.115322
0.971208
1.15585
0.228994
1.17536
0.653348
1.19681
1.01022
1.12986
1.1436
0.979054
1.1762
1.15468
0.390405
0.974576
0.435203
1.13922
0.139439
0.399072
1.23831
1.41098
0.00733781
1.1491
0.858362
0.315897
1.10254
0.108698
1.01216
0.585512
1.14138
0.345587
0.346821
0.869029
0.52985
1.40455
1.11146
1.3445
0.3585
0.572258
1.09856
0.0195256
1.17054
1.19331
1.15965
1.86617
0.932604
0.118904
1.12873
1.12274
0.938689
0.456999
0.324556
1.14889
0.401564
0.621444
0.0178555
0.459326
1.10125
1.39252
1.21224
1.34315
0.906164
0.00172347
1.04491
1.17876
0.142185
0.1099
0.47638
0.246713
0.508864
1.48068
1.16745
0.228894
0.133189
1.19334
1.46718
1.43543
0.202176
1.1294
1.09819
1.05111
1.14855
1.03815
0.822331
1.37509
0.336422
1.09436
1.42029
1.15485
0.330639
1.16602
0.427916
1.52826
1.1783
0.380685
0.235725
1.44801
0.036563
0.468569
0.975537
0.222837
1.51309
0.97998
0.916656
1.20876
0.864256
1.19556
1.44252
1.16239
1.24304
0.636786
0.206531
0.761282
0.302559
0.228805
1.23429
1.43768
1.38963
0.600706
1.53455
1.11383
0.127338
1.13193
0.314083
1.10199
1.17582
1.07578
0.926261
0.737653
1.00995
0.597338
0.769648
1.14373
0.828213
0.385721
0.16451
0.255348
1.12908
0.292799
1.12324
1.55529
0.943518
0.213533
0.834646
0.251611
1.35585
0.508436
0.275506
0.287107
0.138456
1.48214
0.500841
1.50271
1.1842
0.385197
1.16385
0.750399
1.40065
2.09818
0.708354
0.0185441
0.211066
0.185359
1.40098
0.0092091
0.718564
1.05767
1.49197
0.0957023
0.181423
0.0189921
0.146028
1.065
0.0182005
1.50962
1.08034
0.338457
0.148052
0.762869
1.1231
0.00936588
0.234786
1.41512
0.171556
1.1157
1.20723
0.370936
0.00848028
1.18157
0.00939947
1.42152
0.0824418
0.583684
0.121338
0.369194
1.29195
0.0723167
0.754266
0.157703
1.13686
0.874797
0.902164
0.993499
1.39586
0.67428
0.352575
0.958907
0.952727
0.449243
0.483478
0.704747
0.257831
1.44061
1.03945
1.72856
0.0924468
0.939043
0.609017
1.39013
0.281608
1.10447
0.134651
0.739105
1.12082
0.448237
1.03337
1.15954
0.978253
0.285678
1.18815
0.475327
0.715021
0.894763
1.15328
0.779361
0.51463
0.566687
0.833439
0.704532
0.193367
0.688627
2.1713
0.32597
0.828591
1.1236
1.1992
1.17329
1.15161
1.07392
0.776091
1.14417
0.304748
0.330549
1.80791
0.309997
1.44279
0.532418
0.584764
0.674756
1.2119
0.549814
0.961413
0.211799
0.533488
0.364156
0.30761
1.02948
0.417317
0.440853
0.30066
0.576251
0.234405
1.14823
1.48663
0.102682
0.575458
0.580346
0.175975
0.641598
0.102254
0.645777
0.562728
0.516995
1.1762
0.619688
0.796793
0.0767531
0.887657
0.500717
0.0916165
0.126081
0.0923804
0.619953
0.606766
1.15122
1.1149
1.1806
0.87615
0.920964
1.25446
1.18298
0.270592
1.12645
0.99689
0.6391
0.999942
1.1669
1.70204
0.528865
0.133513
0.759057
0.26404
0.121611
1.24961
0.959874
1.27547
1.16236
1.75778
0.561312
0.053842
0.40741
0.189963
0.68358
1.41298
1.49496
0.154412
0.45371
0.262707
1.47747
1.20478
1.08312
0.0782956
0.115912
0.939858
0.59849
1.19108
1.04336
0.274605
0.877509
1.12784
0.261011
0.800035
0.396386
1.15431
0.719676
1.39957
0.109742
0.730259
0.966986
0.127556
0.436178
1.08028
0.115411
0.654238
0.216832
1.02625
1.15221
0.968902
1.07184
0.941344
0.961732
0.962996
0.784432
0.287827
0.409349
0.187255
0.157366
0.239513
1.01519
1.17879
0.559865
1.1821
0.797314
1.1797
0.310545
0.257258
0.706694
1.23893
0.145329
1.17711
1.05188
1.3093
1.18674
0.181568
0.820581
0.464747
1.19453
1.3608
0.251659
1.17488
1.10111
0.857022
0.269231
0.108339
1.23113
1.01545
0.246017
0.915757
0.336225
0.492839
1.35547
0.085205
0.308188
0.493939
0.240373
0.658115
0.293949
0.867238
0.520116
1.01061
0.709415
0.527925
1.14929
1.14526
0.92384
0.0993231
0.175373
1.19399
0.918339
1.15471
0.291459
0.897281
0.175217
0.205065
1.30759
0.887942
0.802339
0.274319
1.07095
0.252359
1.1781
0.234418
1.20111
0.330692
0.0727342
0.299268
0.664231
1.21362
1.04134
1.19198
0.240187
0.379383
1.19168
1.15842
0.938734
0.119405
1.22518
1.16745
1.21099
0.245901
0.131594
0.386421
1.20897
1.18903
0.672707
0.939349
0.347471
1.47886
0.305778
0.268695
0.396265
0.413704
0.14917
0.854901
0.438438
0.821641
1.18644
0.985058
1.14694
0.325108
0.222453
1.2755
1.20593
0.874393
1.33546
0.462368
0.178061
0.16096
1.38626
0.42472
0.535107
0.223172
1.18943
1.01504
0.325089
0.570673
0.974665
0.898961
0.630999
1.49766
1.1821
0.883208
1.68913
0.488785
0.758538
1.02967
1.24991
0.217215
0.353068
0.13963
0.918968
1.15548
0.595559
1.16029
0.924077
0.31945
0.0534932
0.953029
1.18834
1.2513
1.22534
1.14274
1.13464
1.27274
1.10691
0.281854
0.568544
1.23379
0.552816
0.628266
0.697745
0.408494
0.584765
0.963323
0.0924215
0.308856
1.24606
1.23494
0.692819
0.560176
0.171808
1.52857
0.936275
0.721682
1.1126
0.427392
0.453833
0.402883
0.277732
0.59072
1.13665
1.17085
0.0795491
0.651538
1.1505
1.14237
1.18107
0.545247
0.729427
1.06101
0.228813
0.345788
1.17792
0.151507
1.40697
0.402864
0.856475
0.392568
0.481714
1.19873
0.956898
1.0502
0.756847
0.169672
1.06266
1.22157
1.01694
0.427659
1.29529
1.40178
0.103228
1.15993
0.341886
0.200535
0.215465
0.575527
1.0675
0.430068
0.509191
1.05483
1.08993
1.0061
1.61545
0.375391
0.297902
1.41443
1.16823
0.867766
0.585902
1.41071
0.397344
0.755113
0.483675
0.451778
0.199419
0.228624
0.26323
1.02619
0.280041
0.878912
1.1434
1.50433
0.733491
0.230765
0.880838
1.27487
1.17898
0.619667
1.16978
1.60499
0.234796
1.705
0.100899
0.885933
1.10877
0.552272
1.78628
0.504331
0.0961372
0.765126
0.211172
0.61803
0.487515
0.296965
0.747547
0.478296
0.443865
0.826722
1.51835
1.24981
1.08821
1.13898
0.0778336
0.280245
0.907141
1.18426
0.183492
1.16013
0.272137
1.31406
1.22645
1.13179
0.719895
1.04175
0.661246
1.00948
1.07605
1.00531
1.25336
0.0410478
1.49669
1.29807
0.813711
1.47494
1.01802
0.0864625
0.34719
0.276187
0.400843
0.488968
1.52488
0.656758
1.5311
0.869197
1.40761
1.48679
1.38715
0.944803
0.206078
0.555602
0.906526
1.18328
1.16326
0.713446
0.43552
1.13181
0.793494
0.550313
0.654132
0.660074
0.85023
1.14852
0.282187
1.12998
1.25254
0.258484
0.536143
1.06884
1.18469
0.617227
0.564177
0.358524
0.546699
1.36487
1.06322
1.16412
0.715939
1.36849
1.14119
0.380148
0.3028
1.26898
0.599484
1.35141
1.1078
1.00694
0.591534
0.785756
1.13961
0.575141
0.580122
1.1996
1.18691
1.41715
1.18332
1.1004
0.665392
0.212426
0.900516
0.313678
1.18843
1.18882
0.586303
0.927617
0.826714
1.1963
0.612655
0.541063
0.424728
1.14359
0.263141
0.576431
1.34299
1.43077
1.18856
1.18599
1.20516
1.25962
0.706482
1.12629
0.357091
0.0498703
0.642376
0.0412738
0.64735
0.523263
0.949741
1.21367
0.982864
1.13256
1.22337
1.18684
0.88314
1.18619
0.551238
0.965416
1.04081
0.55733
1.29183
0.903099
1.01584
1.07769
0.872567
0.932077
0.876973
1.22496
0.688119
1.06074
1.04952
1.74788
1.10385
1.29765
1.27863
1.15225
0.806467
0.54564
0.768348
0.499251
0.762203
1.0991
0.320078
0.684048
1.52953
0.805848
1.14273
1.01112
0.643143
0.935951
0.240178
0.18789
1.21984
0.297456
0.82449
1.29753
0.983947
0.660976
1.11087
0.918623
0.841359
1.19148
0.712518
0.882849
1.16978
0.753763
0.958208
0.767288
1.02672
0.694057
1.2245
0.768007
0.925758
1.17588
1.07297
0.720939
1.17388
1.02935
1.02428
0.638046
0.92552
1.19526
0.636528
0.920482
1.18057
1.04284
0.697341
1.48839
1.12572
0.189952
0.946861
1.17133
0.66736
1.45356
0.952705
0.684413
1.20983
0.731056
1.00286
1.34945
0.751732
0.690625
0.487577
0.524929
0.869947
1.02453
0.746765
1.08425
1.32762
1.11928
1.19882
0.680843
0.829574
0.826081
1.21096
0.509603
1.15672
0.594948
1.032
0.738569
0.876184
1.27576
1.36765
1.19996
0.293679
1.46054
0.883721
0.983326
1.16821
1.20148
1.04261
0.215126
0.880638
0.946826
0.818223
0.89182
0.748536
1.2998
1.1649
0.995368
0.900126
1.22226
1.07289
1.05845
0.738456
0.810918
0.815692
1.36152
0.745195
1.18392
0.670238
0.920144
0.99862
1.20033
1.00952
1.19793
0.303915
0.325818
1.08669
1.02122
0.904887
1.18644
1.32538
1.16192
0.514665
1.17479
0.724924
1.16863
1.09248
1.15557
1.15552
1.16176
1.19152
1.25639
1.28217
1.3065
1.33066
1.35509
1.42406
1.44623
1.46672
1.50215
0.934882
0.983028
1.30406
1.14191
0.7364
1.19622
1.14184
0.808449
0.862049
0.0404448
1.04176
1.06759
0.28621
0.806059
0.930163
1.16119
1.15432
1.13405
1.17269
0.618847
0.739822
0.213707
1.19592
0.995772
1.13862
1.12341
0.777214
0.743382
0.872184
0.196531
1.19909
0.604504
0.558008
1.09949
0.959395
0.866791
0.541755
1.1794
1.00854
1.29646
1.16149
1.11173
1.4021
1.05424
0.899493
1.08217
0.865364
0.982986
1.06401
1.67148
0.914266
0.47315
0.934824
1.00719
0.0451665
1.26968
0.951752
1.62469
1.22923
1.18474
1.09818
1.2654
1.01379
0.256142
0.0768168
0.889768
1.19124
0.456913
1.58836
0.83216
0.933404
0.785544
0.540558
1.02786
1.37856
1.23117
1.34789
0.602426
1.02218
0.0340459
1.12214
1.04159
1.05981
1.21198
0.909707
0.951213
0.862064
1.03415
0.0730573
1.05433
0.864315
0.574177
0.538379
1.22133
0.803099
1.38388
0.98742
0.920207
1.21189
1.29695
1.20894
1.06674
1.26284
1.01858
1.42829
1.24538
0.86163
1.15975
0.896392
0.235375
0.56381
0.353253
0.963021
0.905397
0.530289
1.07844
1.08116
0.838827
0.661184
0.848451
1.15101
1.38775
1.14305
1.16821
0.931139
1.31359
0.740992
1.31724
1.00627
0.879473
1.16132
1.18437
1.32831
0.251171
1.11533
0.653448
0.835413
0.711273
0.931117
1.34892
0.856977
1.51308
1.0702
1.2646
1.03948
0.859603
0.998015
1.2587
1.18674
1.4987
1.23679
1.1019
1.41777
1.15354
0.914855
1.17828
0.950056
1.12228
1.39807
0.859116
1.52534
0.946593
1.28915
0.422148
1.30731
1.38553
1.17187
1.06369
0.498857
0.0431517
0.903952
0.94888
1.13807
1.13097
0.922195
1.13648
1.40503
1.25382
1.20311
1.08959
0.823248
0.874629
1.47255
0.897577
1.41027
1.18412
0.895895
0.623885
0.782409
1.11021
0.681611
0.901525
1.18386
0.587973
0.947374
1.18873
1.15647
1.46575
-0.00410418
1.10018
0.729803
1.09696
0.527319
1.18159
1.34924
1.17899
1.11936
0.977595
1.03243
0.885168
0.929501
1.26934
1.14621
0.100588
1.05275
1.02635
0.577843
0.993143
1.05941
1.00509
1.1278
0.206106
1.39036
1.14819
0.977393
0.560775
0.991373
0.544178
1.23048
0.61105
1.09564
0.772782
1.13508
0.922474
0.945023
1.07712
0.504196
1.0038
0.943695
1.41294
0.733263
0.975928
0.953318
0.940272
1.3475
1.0386
1.22128
1.09868
0.769848
1.3407
1.19936
0.756477
0.333608
1.21791
1.16152
0.942126
1.12137
1.11156
0.697569
1.26286
1.11686
1.0377
0.998607
1.53849
1.10877
1.23336
1.14205
0.516776
0.131786
1.03696
1.04186
1.4014
1.00839
1.16581
0.504604
1.72862
1.68006
0.715489
1.45755
1.75528
1.12954
0.0987258
1.37883
1.38078
0.854465
1.09787
0.790463
0.139507
1.37482
1.28056
0.142069
1.18006
0.764612
1.17905
1.30611
1.13736
1.17073
1.11797
0.830857
0.742238
0.982772
1.29291
1.15807
1.43868
0.975482
1.25174
1.05454
0.433547
1.05284
0.872749
1.36821
1.02262
1.37665
0.842822
1.19813
1.13413
1.37233
1.03666
0.927382
1.14474
0.536632
1.05312
1.33306
1.04962
1.398
1.06211
1.0697
1.1999
1.26777
1.22436
1.07252
0.652911
1.13438
0.684942
1.01462
0.924962
1.1615
1.07404
1.18045
0.832276
1.22987
1.15153
1.12861
1.27765
1.33196
0.848163
0.066319
0.955327
1.44915
0.279436
0.915102
1.00754
0.51122
1.11638
1.06736
0.8537
0.685303
0.667793
0.531193
1.13013
1.08173
1.13146
1.15838
0.852029
1.55783
1.2061
1.13629
1.14073
0.762704
0.519951
1.07134
0.670852
0.978486
1.57303
1.38151
1.36386
0.878248
1.02171
0.750241
1.21854
1.34724
1.32659
1.38647
1.39957
1.08535
0.648473
0.775805
1.21017
1.09507
1.41047
0.176912
0.967444
-0.184208
1.12213
1.16809
0.693123
1.12522
1.1395
1.17514
1.39472
1.37162
1.27199
1.37648
1.29239
1.29201
0.194386
1.11906
1.13013
1.17527
1.10732
1.13972
1.28142
1.18451
0.687216
1.1686
1.3316
1.36708
1.20808
1.34104
1.08766
1.09616
1.20989
0.916781
1.68817
0.340829
1.19511
1.24229
1.0458
0.918635
1.15988
1.71385
1.10631
1.24123
0.929552
1.215
0.515024
1.48332
1.15996
1.11585
1.20016
1.17961
1.23586
1.62986
1.54811
0.88841
0.552453
0.862737
0.525384
1.1384
0.872484
1.23526
0.199709
0.779705
1.30874
1.61231
1.11761
0.0185014
1.75326
1.20013
1.22142
0.831879
1.36334
1.18781
1.26158
1.38506
0.08483
1.35942
1.12629
0.430747
1.2329
1.21931
1.24048
1.64425
1.64289
0.958504
1.20251
0.667867
1.12654
1.13409
0.31293
1.38069
1.19788
1.13468
1.22304
0.961619
0.169733
0.939141
1.10569
1.53236
1.14162
0.789226
0.363737
0.887763
0.2794
1.12234
1.14875
0.970068
1.15258
1.16235
1.15532
0.0698245
1.16758
0.886224
1.19993
1.23481
0.32021
0.00754925
1.66657
1.5881
1.74382
1.50128
1.18386
0.847671
1.18446
1.1677
0.498811
1.57269
1.25805
0.603865
1.33616
1.31446
1.28416
1.18499
1.17726
1.47518
1.17818
1.2384
0.917818
1.16617
1.16683
1.27256
1.29306
1.31867
1.34194
1.43192
1.45624
1.30744
1.16967
1.81785
0.942127
1.28109
1.16359
0.894806
1.31269
1.23035
0.992493
1.19478
1.16681
1.16771
0.3812
1.15904
1.61615
1.2656
1.59093
1.53571
1.73839
1.23984
1.17513
1.6418
1.18124
1.41309
0.596217
0.860576
0.661454
1.17464
1.31115
1.22561
1.18215
1.23464
1.17215
1.28976
1.13926
1.31543
1.17393
0.67814
1.08526
1.16528
0.946104
1.20585
1.08289
1.91182
0.0882535
1.24611
0.929895
1.02029
0.902809
1.28856
0.821074
1.18418
0.258508
0.92853
1.30922
1.1474
1.07174
1.06366
0.196408
1.28907
1.36622
1.15731
1.14506
1.28776
0.935584
0.796957
1.39843
0.146957
1.23412
1.12203
1.19275
0.0650417
0.666973
0.169429
1.18159
1.39803
0.108476
0.961631
0.336863
1.2355
1.10845
0.410527
1.13608
1.19139
1.67788
0.314903
1.25908
0.704631
0.609659
0.608646
1.38877
1.21725
1.17338
1.18003
1.49966
1.12582
1.36977
0.0446253
1.53293
1.3055
0.092036
1.19673
1.28783
0.503997
0.299103
1.13625
1.14363
1.71249
0.340553
1.14689
1.14303
0.170609
1.19235
0.761437
1.11229
1.44969
1.12452
1.1102
0.965038
0.934068
1.53834
1.60273
0.75406
1.20407
1.13811
1.51004
1.21634
0.499877
1.27515
1.19864
1.20066
0.670176
1.14166
1.31774
1.17165
1.23828
1.16822
1.19141
1.1657
1.18708
0.165017
1.11678
1.72903
0.68989
1.00755
0.919158
1.9484
1.32341
0.00809629
0.0182698
1.41053
1.40926
1.0401
1.18434
1.17517
0.231155
1.07844
1.08882
1.38136
0.844483
1.47094
1.09013
1.22378
1.63236
0.459909
1.10005
1.17652
1.195
1.08147
0.977526
1.58321
1.22334
1.30647
1.1654
1.19214
0.358874
1.42929
0.820944
0.493751
1.16883
1.29764
0.739897
1.0719
1.19169
1.35188
0.876632
1.14663
0.801344
1.09297
0.510681
1.21054
0.828339
1.29922
1.14137
1.41957
0.984508
0.248292
0.656781
1.7247
0.210182
1.17171
1.16572
1.56898
1.24791
0.702378
1.04759
1.15318
1.17977
1.25364
1.16985
1.34324
1.02118
1.32752
1.13126
1.0605
1.58257
0.867563
1.08389
1.4207
1.3635
1.78666
1.17259
1.12165
0.638907
1.1819
1.19936
1.33121
1.01386
1.12237
0.614507
1.12226
0.836324
1.2541
1.12446
1.2212
0.747008
1.1312
0.600161
1.31752
1.14699
0.640813
0.247259
1.26258
1.71975
1.25745
1.10475
1.02111
0.911927
1.60149
1.1428
0.0853257
1.21436
1.2172
0.050519
0.993361
1.13249
0.986163
0.879363
1.34465
1.56056
1.52593
1.15403
0.840231
1.16247
0.477979
1.44563
1.70158
0.323015
0.982553
1.27227
1.70992
0.134417
1.56599
1.71517
1.16439
0.823663
1.01224
1.5802
0.947364
1.1896
1.83244
0.90428
1.58933
1.09353
1.07281
1.6931
1.38957
1.5904
1.54931
0.799398
0.0647041
1.43772
1.25955
0.985419
1.26814
1.25203
1.19605
1.09477
1.57629
0.894227
0.942791
1.20245
1.23668
1.08961
1.18997
1.21387
1.54184
1.21886
1.08765
1.68358
0.780986
0.224527
1.22446
1.163
1.2367
0.427368
0.958899
0.124068
1.22667
1.15103
0.17583
0.712177
0.78852
0.4458
1.27742
1.00224
0.916442
1.06529
1.17891
0.981375
0.846255
1.54109
1.11437
1.11562
0.686992
1.01138
0.372262
1.17681
1.34615
1.24597
1.40669
0.938895
1.32579
1.42499
1.47591
1.08761
1.68419
1.08797
1.54555
1.19058
0.0607227
1.12087
1.11671
1.10188
1.38041
1.16498
0.707065
1.64698
0.925489
1.38036
1.13343
1.34357
1.27145
0.845369
1.12351
1.19676
0.747965
0.598517
0.997272
1.14995
0.895392
0.895162
1.1919
1.42434
0.946054
1.11804
0.0627581
1.77297
1.72804
0.945983
0.688693
1.11615
1.11935
1.17127
0.450537
1.29286
1.15446
0.590865
0.576682
1.19349
0.625422
1.10855
1.15883
1.56193
1.18759
1.62754
0.608388
0.994026
1.02838
1.3402