/*--------------------------------*- C++ -*----------------------------------*\
  =========                 |
  \\      /  F ield         | OpenFOAM: The Open Source CFD Toolbox
   \\    /   O peration     | Website:  https://openfoam.org
    \\  /    A nd           | Version:  7
     \\/     M anipulation  |
\*---------------------------------------------------------------------------*/
FoamFile
{
    version     2.0;
    format      ascii;
    class       volVectorField;
    location    "2";
    object      U;
}
// * * * * * * * * * * * * * * * * * * * * * * * * * * * * * * * * * * * * * //

dimensions      [0 1 -1 0 0 0 0];

internalField   nonuniform List<vector> 
117990
(
(1.01884 -0.0218828 -9.04842e-21)
(0.999997 1.17536e-07 2.83593e-24)
(0.992733 -0.00625059 1.42293e-21)
(0.998207 -0.00199471 -4.22478e-22)
(1.00094 -0.00214413 5.64194e-22)
(0.999526 -0.000728531 1.63353e-23)
(0.999956 0.0380747 -8.99564e-20)
(1.0356 -0.041992 -8.03889e-22)
(0.99986 -0.000241655 3.51371e-24)
(0.999997 7.11102e-07 -6.53812e-25)
(0.999917 -7.9343e-06 7.15843e-23)
(1.00006 -6.16887e-05 1.31806e-22)
(0.999316 -0.00238177 1.34119e-22)
(0.952641 -0.00344696 3.57008e-21)
(0.999857 -0.000247838 -2.46425e-23)
(0.959273 -0.0154378 4.63338e-21)
(0.999957 -0.000177632 -1.29413e-22)
(0.999823 -0.000130129 -7.94168e-23)
(0.99156 0.0348665 1.02621e-19)
(1.00096 -0.00216252 2.20283e-21)
(1.03886 -0.0413959 -9.98395e-21)
(0.997074 -8.88564e-05 -3.23262e-22)
(0.999785 -0.000176848 -6.90608e-23)
(0.997219 -0.00288788 -2.89735e-22)
(0.969491 0.00926355 8.59905e-20)
(1.04582 0.0229429 5.72313e-20)
(1.09678 0.0671736 -1.52935e-20)
(1.0088 -0.00198333 2.20001e-20)
(0.999997 -1.87354e-05 -3.99408e-23)
(0.994968 0.0612024 -1.03161e-19)
(0.999934 -2.13591e-05 3.91229e-23)
(1.02123 0.00658833 1.30493e-20)
(1.00379 -0.00548201 -1.19053e-21)
(0.992419 -0.00330265 -3.06083e-21)
(0.965295 0.0249963 3.89625e-20)
(0.999019 -0.000605299 1.09609e-21)
(1.00068 0.0423875 1.54257e-20)
(0.999961 -0.000182201 5.21073e-23)
(1.15578 0.00583954 -4.98897e-22)
(1.00808 0.0245514 1.6133e-19)
(1.0215 0.00684608 -2.54417e-20)
(0.999819 -0.000134825 -1.55799e-23)
(0.991037 -0.0116557 -2.23955e-22)
(0.999017 -0.000586039 -7.74906e-22)
(0.98277 -0.0335924 3.24611e-23)
(0.952951 -0.00308132 -3.72139e-21)
(1.00325 -0.00682914 1.03521e-20)
(1.00283 -0.000400047 2.92156e-21)
(1.00011 -0.00345583 7.07028e-22)
(1.00006 -5.16542e-06 -6.13203e-22)
(1 -2.5146e-07 -4.13655e-24)
(0.998204 -8.70385e-05 1.05031e-21)
(1.01607 0.00546979 4.03654e-20)
(0.999998 3.47128e-07 6.49812e-25)
(0.999107 -0.00415976 -1.77521e-21)
(1.01581 0.00561988 -1.02681e-20)
(1.01379 0.000134165 3.0318e-20)
(0.978794 -0.0235902 1.81871e-22)
(1.07882 0.0500601 3.29665e-20)
(0.994557 -0.00765033 1.67955e-22)
(0.999968 -0.000108423 5.52727e-23)
(0.997174 -0.00305055 2.21918e-22)
(0.999626 -2.28374e-05 -2.04799e-22)
(0.990278 -0.00551945 5.23481e-22)
(0.999979 -1.88702e-05 -9.87282e-24)
(1.00047 -5.40724e-05 -1.61561e-22)
(0.999426 -0.00217295 -8.98409e-22)
(1.01785 -0.000868956 2.91001e-20)
(1.09276 0.081332 3.77766e-20)
(1.01392 0.000355833 1.28432e-20)
(1.01569 0.0462927 4.5382e-20)
(1.06417 0.0655807 -4.30548e-20)
(1.00808 0.0242884 7.1886e-20)
(0.975433 -0.00220628 -2.07885e-21)
(1.01472 -0.0296489 2.71338e-21)
(0.984296 -0.00544287 -9.40257e-22)
(1.07193 0.0116741 -1.17649e-20)
(0.999619 -0.00125589 4.39165e-22)
(0.997548 0.0254856 -3.36173e-20)
(1.05089 0.0103742 2.58653e-21)
(1.05092 0.0113025 1.03433e-20)
(0.999989 2.68501e-06 9.00464e-25)
(0.993857 -0.0756463 5.21386e-21)
(1.00855 -0.000628192 -9.88189e-21)
(0.998208 -0.000538153 6.21287e-22)
(1.00006 -6.05837e-05 1.3138e-22)
(0.990283 -0.00871658 -1.32291e-21)
(0.999997 -6.05201e-06 2.7635e-24)
(0.982651 -0.00580526 -3.8411e-23)
(0.999995 -1.00163e-05 -2.05033e-23)
(1.12678 0.0263806 -1.95989e-21)
(0.994062 -0.00326189 1.83024e-21)
(0.999991 -1.60587e-05 4.66078e-23)
(0.999255 -0.00054861 7.16565e-22)
(0.999762 -0.000170099 -1.3262e-22)
(1.00015 -2.71542e-05 2.11966e-22)
(0.999834 -8.9116e-06 -3.75305e-23)
(0.994232 -0.0750365 3.66125e-22)
(1.09794 -0.0139991 -1.40961e-21)
(0.982738 -0.00563904 -1.48559e-21)
(0.999967 -0.000108056 -7.21454e-23)
(1.01084 -0.00338786 -2.17487e-20)
(1.00149 -0.00632211 -6.80509e-21)
(1.00133 -6.3718e-05 -1.31269e-23)
(1.01554 0.0457003 3.00693e-20)
(1.01173 -0.0464696 -2.99154e-22)
(1.00445 0.0236208 -4.61438e-20)
(0.991268 -0.0457024 5.22595e-22)
(0.997752 -0.0152746 -8.17579e-22)
(0.999992 -2.42249e-05 3.99346e-23)
(1.05641 0.0180292 -2.45211e-20)
(0.999835 -1.17892e-05 1.48852e-23)
(1.07194 0.0128852 7.34924e-21)
(0.99824 -0.0107402 5.3593e-21)
(0.93393 0.0204064 -1.60183e-20)
(0.999953 -0.00625816 9.39115e-21)
(0.999913 -5.3593e-06 -1.31453e-22)
(1.02076 0.0480642 -5.71824e-20)
(1 -6.27498e-06 1.45222e-23)
(1.06482 0.0647281 2.96107e-20)
(1.02029 0.0488093 8.23684e-20)
(0.958826 -0.0158101 -2.0322e-21)
(0.992975 -0.00656299 1.05674e-21)
(1.07437 0.0345627 2.14898e-20)
(0.999996 -7.25549e-07 6.44071e-25)
(0.995158 0.0607005 1.19196e-19)
(0.997197 -0.0031422 -2.87758e-22)
(0.960305 0.0514826 -5.28541e-20)
(0.999104 -5.6823e-05 1.84986e-23)
(1.01304 -0.000284925 -2.32769e-20)
(1.02765 -0.0248651 -9.85261e-22)
(1.0001 -1.42245e-05 1.84556e-22)
(1.02765 0.0558566 -3.71271e-20)
(1.00006 -5.66646e-05 -4.04355e-22)
(1 -6.00352e-06 7.2974e-24)
(0.990147 0.040382 1.65043e-19)
(0.972058 0.0242806 -2.40412e-20)
(1.0038 -0.0055977 -1.4812e-21)
(0.999166 -0.00419772 2.40983e-21)
(0.997202 -0.00301251 2.47482e-21)
(1.02863 0.0861833 3.91837e-20)
(1.00016 -0.00597204 4.98337e-21)
(1.00002 -4.0216e-07 -2.44932e-22)
(1.01878 0.00856157 5.1625e-21)
(1.02765 -0.0240606 1.57065e-20)
(0.999999 -4.40849e-07 4.13219e-24)
(1.00621 -0.0075532 -3.70344e-24)
(0.99715 -0.00317152 -7.37031e-22)
(1.01761 -0.000730551 -4.48943e-20)
(1.00043 -0.0010626 -1.59253e-21)
(1.01097 -0.0461352 3.82428e-22)
(0.982404 -0.0336439 -3.71172e-22)
(0.994096 -0.00317397 1.19561e-21)
(0.999993 -6.03645e-07 -4.48589e-25)
(0.99823 -7.67826e-05 6.16448e-22)
(1.00432 -0.00448418 7.56911e-21)
(0.999992 -2.47992e-05 -5.39386e-23)
(1.05377 0.000103222 3.10588e-20)
(0.985049 -0.000388191 -1.46692e-22)
(1.01697 -0.0653565 -1.5044e-21)
(0.984479 -0.00559937 5.04989e-21)
(1.00615 -0.00738581 8.79047e-21)
(0.999633 -1.97681e-05 -1.4947e-22)
(1.0029 -0.0340819 -2.66367e-22)
(0.996856 -0.0092234 1.32853e-21)
(0.999534 -0.000280879 -4.83571e-22)
(1.01434 -0.00582204 1.11343e-20)
(0.995118 -0.0187067 2.18947e-22)
(1.05459 0.000264945 -4.49084e-20)
(0.996352 -0.00926583 -1.37461e-21)
(0.995144 -0.00813781 -5.92327e-22)
(1.00325 -0.00668466 -5.84645e-21)
(1.13473 0.0287999 -9.7328e-21)
(0.954966 -0.0125644 5.15048e-21)
(1.00144 -0.0292172 -2.73462e-22)
(1.01526 -0.00114347 -1.18076e-21)
(0.955039 -0.011841 -1.18684e-21)
(0.998866 -0.00143216 3.91725e-22)
(1.0046 -0.0079338 2.26047e-20)
(1.00009 -0.00339401 1.10318e-21)
(1.00727 -0.00513633 1.75486e-21)
(1.01497 -0.0293132 3.21929e-21)
(0.988645 0.0360471 -4.56021e-20)
(1.01705 0.00798563 2.26628e-20)
(1.00422 0.0236124 1.08774e-19)
(0.99981 -0.000445233 5.79362e-24)
(0.997973 -0.00167414 6.78979e-22)
(1.00012 0.0018614 -2.47841e-20)
(1.01541 -0.010631 2.9056e-20)
(1.12668 0.0247116 9.45936e-21)
(0.998901 -0.0014338 1.102e-22)
(1.00018 -0.0056672 -3.3069e-21)
(0.994787 0.0202276 -6.52204e-20)
(0.98779 -0.0115638 2.13447e-21)
(1.04509 0.0226689 -7.58307e-20)
(1.00511 -0.0584472 -1.4768e-21)
(0.954632 -0.0115449 3.34526e-22)
(0.9945 -0.000150885 -3.77459e-21)
(0.985852 -0.00952586 -3.28144e-21)
(1.00488 -0.0204061 4.33794e-21)
(1.01318 0.00702945 2.98852e-20)
(0.999049 0.0282448 5.77144e-20)
(1.00823 -0.00508797 5.20302e-21)
(0.999996 -3.72484e-06 1.9918e-23)
(0.998023 -0.00142786 5.32552e-23)
(0.981942 -0.0108153 -9.72816e-22)
(0.99966 -0.00048247 -3.03513e-23)
(0.999977 -1.88866e-05 7.60052e-24)
(1.01431 -0.00283057 -6.00478e-21)
(1.01417 -0.0352988 -9.36286e-21)
(0.954665 -0.0108326 -3.08833e-21)
(1.00495 0.0244107 -2.84639e-20)
(0.97048 0.00973974 -6.36633e-20)
(0.999996 -9.63482e-06 -2.76705e-24)
(1.00075 -0.0155825 8.40409e-21)
(0.987674 -0.0117245 -9.20769e-22)
(1.03898 -0.00533088 1.75327e-20)
(1.00347 -0.00653253 1.20169e-20)
(0.952696 -0.00239213 -2.11316e-21)
(0.999929 -0.000126866 -8.57654e-24)
(0.989454 -0.0233628 4.4512e-23)
(0.989543 -0.0109807 5.51476e-23)
(1.00005 -0.00440109 -2.42803e-22)
(0.984428 -0.000516657 4.5305e-21)
(0.999998 -3.43805e-07 -9.2536e-25)
(0.979404 0.0332889 6.53268e-20)
(1.00317 -0.00995968 -8.68103e-21)
(0.985042 -0.00835626 -4.5437e-21)
(1.00523 -0.0575719 -7.19729e-22)
(0.983795 0.015029 3.5189e-20)
(1.01 -0.0024129 -2.12237e-21)
(0.983947 -0.0257078 -8.84164e-23)
(1.02704 0.0829545 -3.18023e-20)
(0.992039 -0.0181854 1.16469e-21)
(1.02949 -0.0254734 -6.93495e-21)
(1.01308 0.00716923 4.51227e-20)
(1.00018 -1.8272e-05 2.23445e-22)
(1.00056 -0.00511772 6.54235e-21)
(0.993411 -0.0197544 -5.01694e-22)
(0.998164 -0.00012474 -1.37251e-21)
(1.1126 0.0180057 -2.51419e-20)
(1.01217 -0.0206042 2.3141e-22)
(1.01765 -0.0660502 2.00339e-21)
(1.09932 -0.0148432 9.1983e-21)
(0.999068 -5.20898e-05 -9.26749e-22)
(1.00042 -0.00123404 -2.78838e-22)
(1.02031 0.00263751 3.50698e-20)
(0.983216 -0.00134016 -9.09387e-21)
(0.995366 -0.0187364 9.21511e-23)
(0.965135 -0.0259821 1.83943e-22)
(0.998717 0.0160828 -3.47166e-20)
(0.999322 -0.000735933 -3.80184e-23)
(1.01167 0.000958382 -1.42613e-19)
(1.00001 -0.00146065 1.07035e-22)
(0.959422 0.048379 -9.4626e-20)
(1.00739 -0.00511869 -1.15342e-20)
(1.07982 0.017987 -3.07525e-20)
(1.00894 -0.00035387 9.16749e-21)
(1.00011 -2.97965e-06 1.21013e-21)
(1.03623 -0.0428707 -6.41302e-24)
(1.00734 -0.00477079 -2.7281e-20)
(0.953 -0.00202658 1.29554e-21)
(1.01735 0.008274 -3.22339e-20)
(1.15951 -0.00541582 1.53679e-21)
(0.997621 -0.0154647 -6.09803e-22)
(0.998247 -0.00201183 1.51758e-21)
(1.07357 0.033914 3.3955e-20)
(0.999098 -0.000133423 9.97513e-22)
(1.06613 0.0169995 -1.37899e-20)
(1.0761 0.00718544 2.68248e-21)
(0.999982 -6.96555e-06 -1.07887e-24)
(1.01547 -0.0103446 -7.18099e-21)
(1.00015 -0.00330971 2.97451e-21)
(1.01245 -0.0208025 -7.26708e-21)
(0.999387 -0.00181975 4.62352e-22)
(0.98977 -0.00882379 -6.1012e-22)
(0.983092 -0.03145 -4.15456e-22)
(1.00184 -0.029095 -1.18035e-22)
(0.999086 -0.0055259 -2.99348e-21)
(0.991811 -0.0455959 -4.50413e-22)
(1.00326 -0.0343017 7.61229e-22)
(0.999084 -4.26421e-05 -6.97938e-22)
(1.00002 -0.000815673 2.5414e-22)
(0.982118 -0.0105959 5.54354e-22)
(1.00001 -0.000399047 3.38361e-22)
(1.00568 -0.00376816 1.83853e-20)
(0.98023 0.0327998 3.75899e-20)
(1.01259 0.000280024 -7.20239e-20)
(0.996312 -0.0779176 -3.28731e-21)
(1.15032 0.00496889 -9.29466e-22)
(0.982715 -0.0313249 -8.38952e-23)
(0.999998 -6.43467e-06 1.63544e-23)
(1.08329 0.0463065 2.25092e-20)
(1.00482 0.0241928 -2.75192e-20)
(0.999937 -0.0002449 -6.63303e-23)
(1.0089 -0.0046427 -1.41347e-20)
(0.999309 -0.000825958 -2.57083e-22)
(1.02241 0.00625553 2.01697e-20)
(1.0001 -0.00226496 -1.82155e-21)
(1.07738 0.00818969 6.91282e-21)
(0.953986 -0.0088309 1.70317e-21)
(0.997844 -0.0269154 -8.22107e-22)
(1.12811 0.0578528 5.79512e-21)
(0.996904 -0.0041639 -3.53077e-22)
(0.989852 -0.0291865 1.8831e-22)
(1.04419 0.00747193 1.04118e-20)
(1.01593 -0.0250729 -8.67253e-22)
(0.985126 -0.00820057 3.23449e-21)
(1.14669 -0.0673929 -1.72818e-21)
(1.00465 -0.00785323 3.96434e-23)
(0.998581 -0.000962024 -5.86082e-22)
(1.02018 0.0617767 6.69082e-20)
(1.02404 0.0720065 4.96742e-20)
(0.993653 -0.0197875 1.71731e-21)
(0.999261 -0.00239556 -7.15799e-22)
(1.0015 -0.00608428 1.89115e-21)
(0.994111 0.0206968 -1.02722e-19)
(1.0004 -0.00124451 1.29318e-21)
(0.997287 -0.0029115 1.30609e-21)
(1.08653 0.0424424 -5.77606e-21)
(1.04259 -0.0131524 5.14099e-21)
(0.999927 -0.000125759 6.15926e-23)
(1.00815 -0.00521581 -4.06992e-21)
(0.934987 0.0194466 2.87507e-20)
(1.04449 0.0123672 -4.26545e-20)
(0.984872 -0.0032686 -1.00866e-20)
(1.00441 -0.00444934 -1.11153e-20)
(1.02112 0.00470954 2.51786e-20)
(0.953576 -0.0084905 -3.30064e-21)
(1.08281 0.0475016 -3.48843e-20)
(0.998583 -0.00100246 4.15789e-22)
(0.999998 -7.28922e-06 -3.13657e-23)
(0.999819 -0.000472292 -3.35009e-22)
(0.999319 -0.00082392 4.04927e-22)
(0.944624 0.0059421 1.92795e-20)
(0.998359 -0.00235303 -8.25946e-22)
(1.05515 0.00426641 1.87214e-20)
(0.99999 -1.12449e-05 8.37353e-25)
(0.999523 -0.00070931 -2.09309e-24)
(0.997966 -0.00164078 -8.36954e-22)
(0.993612 -0.0068179 -8.37588e-22)
(1.03195 0.00435764 -7.91787e-20)
(1.09819 0.0678856 6.11128e-21)
(0.990517 -0.00515352 6.03238e-21)
(0.995696 -0.00522127 2.61073e-22)
(1.00087 -0.00162368 -6.23839e-22)
(0.999033 -0.00561641 1.88092e-21)
(0.955993 0.0500008 -1.48852e-21)
(0.983633 -0.0151543 5.42875e-22)
(0.999363 -0.00535916 -1.00397e-21)
(1.02711 0.0550992 1.95464e-20)
(1.00932 0.0104918 -3.87094e-20)
(1.00723 -0.00464638 2.48065e-20)
(0.998629 -0.00156644 8.21447e-22)
(1.00461 -0.0205854 4.45018e-22)
(1.00351 -0.0114608 1.17595e-21)
(1.01843 -0.0215183 1.43317e-20)
(1 -6.64412e-07 1.93505e-25)
(0.999681 -0.000789799 -5.06102e-22)
(1.01953 -0.0152589 -1.17419e-20)
(1.03162 0.0291733 5.34143e-20)
(0.990151 -0.0333478 -3.31225e-22)
(1.00009 0.0418301 2.88806e-20)
(0.942801 0.0117859 -2.21366e-20)
(1.06733 0.00388935 -2.45968e-20)
(1 -7.57477e-07 1.46049e-24)
(0.992622 -0.000189949 -6.12101e-21)
(0.992256 -0.0122256 -2.68407e-22)
(1.00012 -0.00438306 -3.01426e-21)
(1 -1.03216e-06 -2.53113e-24)
(1.06422 -0.0461861 1.49619e-21)
(1.05342 0.0877458 -3.01368e-20)
(0.983432 -0.0013163 -9.04596e-21)
(0.999749 -1.35261e-05 -2.14196e-22)
(1.06448 0.0208854 -2.18033e-20)
(1.00214 -0.00295497 1.19625e-21)
(1.00143 -0.0061955 -3.78008e-21)
(1.00006 -8.21561e-07 5.44578e-22)
(0.999354 -0.000807859 -1.97159e-22)
(1.02119 -0.0150258 -1.86122e-21)
(0.98368 -0.0255181 -6.0289e-22)
(0.998611 -0.0154668 1.79306e-21)
(0.997859 -0.0104607 6.89214e-21)
(1.0198 -0.0154894 -1.40861e-20)
(1.00566 -0.00370806 -9.77212e-21)
(0.999987 -3.20528e-06 -6.12107e-23)
(1.02761 0.081907 6.56161e-20)
(0.962972 -0.0240278 -1.03001e-22)
(1.00097 -0.00205853 -2.32651e-21)
(1.02728 -0.037475 1.64596e-21)
(1.0205 0.00565147 -8.95472e-20)
(1.00933 0.0200004 -8.8927e-20)
(0.990108 -0.00869829 1.03293e-21)
(1.00895 -0.00203189 1.17805e-20)
(0.989686 -0.0109514 7.55527e-23)
(0.999077 -0.00107251 -6.59279e-22)
(1.14421 -0.0683669 1.13969e-21)
(1.00028 -0.000580992 1.54577e-21)
(1.00014 -0.00325532 -5.3322e-21)
(0.990194 -0.00634245 5.3441e-21)
(0.984732 -0.0117492 7.29961e-22)
(0.999047 -0.00115069 7.35263e-22)
(1.0012 0.0696209 -3.2118e-20)
(1.00888 0.0237277 6.57596e-21)
(1.15348 -0.0340857 -6.18778e-22)
(1.05419 -0.0177122 -1.63135e-20)
(1 -6.27898e-06 -1.38799e-23)
(0.997615 -0.00600934 -5.04058e-22)
(1.03806 -0.00738855 7.24321e-21)
(0.996445 -0.000142373 9.04391e-22)
(0.998866 -0.0120369 4.58151e-21)
(0.998559 -0.000953831 1.49074e-22)
(1.00091 -0.0016047 -1.78184e-21)
(0.998323 -0.00204603 -9.93935e-22)
(0.998178 -0.000516643 -4.90149e-22)
(0.999083 -0.0054343 1.08208e-21)
(1.00018 -0.00321261 3.25813e-21)
(1.06467 -0.0815541 8.69308e-22)
(1.00001 -1.12839e-05 1.35189e-22)
(1.00551 -0.00350881 -1.64145e-21)
(0.999998 7.32868e-07 2.1839e-25)
(0.954266 -0.0105401 4.20059e-21)
(1.0001 -9.95656e-05 3.30303e-22)
(0.997007 0.049962 6.79846e-20)
(1.02373 0.0711749 -2.60381e-20)
(1.01533 0.0169794 -3.37855e-20)
(1.05324 -0.017562 1.11261e-20)
(1.01237 0.0180904 -3.31796e-21)
(1.01398 0.000302334 4.31098e-20)
(0.999153 -0.00188301 -6.41158e-24)
(1.00086 -0.000825013 -1.75461e-21)
(0.999899 -0.000329315 -9.24471e-26)
(0.997671 -0.0012237 1.05326e-21)
(0.985416 -0.00826231 1.78096e-21)
(0.996946 -0.00410452 -2.14808e-22)
(0.997514 -0.00602653 -1.03365e-21)
(1.01939 -0.0207573 -5.43344e-21)
(1.0001 -9.71375e-05 -4.03462e-22)
(0.999945 -4.36693e-05 -1.42034e-23)
(1.00005 -5.39539e-05 -3.01116e-22)
(0.999607 -0.00124351 -3.79022e-22)
(1.01298 -0.000213817 2.19975e-20)
(1.01764 -0.0209876 1.1524e-20)
(0.990036 -0.00629242 -5.74852e-21)
(1.00001 -0.000377197 -7.1505e-22)
(1.06884 -0.0403732 -5.84285e-21)
(1.00041 -0.00118977 3.88787e-21)
(0.999936 -3.65921e-05 -4.73576e-23)
(1.00962 0.0198326 1.27049e-19)
(1.01548 -0.00136764 3.7856e-21)
(1.00185 0.0241078 1.90877e-19)
(1.00001 -1.28461e-05 -1.29116e-22)
(1.00003 -0.000294093 0)
(1.00089 -0.000915616 2.65126e-21)
(0.995516 -0.0191011 -1.16475e-21)
(0.997491 -0.00348679 -4.0029e-22)
(1.03546 -0.0562423 -3.89048e-22)
(0.983378 -0.000569941 6.11888e-21)
(1.02891 0.0196313 6.87838e-20)
(0.995771 -0.000108289 8.08573e-21)
(1.00193 0.0698297 -1.69555e-20)
(1.00042 -0.00117033 -2.82883e-21)
(1.00095 -0.00201366 2.74128e-21)
(1.00054 0.0259752 -4.71813e-20)
(1.02093 0.0612411 -2.77978e-20)
(1.03951 -0.0421411 5.40302e-21)
(1.00132 -0.00117145 4.61272e-22)
(0.955377 -0.0128489 -5.61189e-21)
(0.995735 -0.000129634 -4.63332e-21)
(1.00001 -1.31491e-05 5.54255e-23)
(1.0055 -0.0035941 1.9612e-21)
(0.963663 -0.024698 1.79074e-22)
(0.993153 -0.0194024 1.69335e-22)
(0.975206 -0.00219208 3.36269e-21)
(1.01968 -0.0212751 -1.66516e-21)
(1.04411 0.0117863 7.04833e-20)
(0.999997 1.7876e-07 1.00963e-24)
(1.00134 -0.00113774 -9.5551e-22)
(1.01088 -0.00362623 1.57162e-20)
(1.02135 -0.00768743 -2.10537e-20)
(0.992969 0.0534234 -3.3786e-20)
(0.999999 -3.79809e-08 1.8554e-26)
(0.999989 -1.41561e-05 4.14258e-25)
(1.00089 -8.75725e-05 -4.13403e-21)
(0.993157 -0.019139 1.544e-21)
(0.999699 -0.00048397 -1.75977e-23)
(0.999937 -0.000262512 -3.93881e-22)
(1.05707 0.00128935 -2.24801e-20)
(0.960342 0.00601169 -8.3016e-20)
(1.07732 0.00962505 -3.10271e-21)
(1.00203 0.0230751 -4.96629e-20)
(0.989455 -0.00198837 2.6291e-21)
(0.997966 0.0134893 2.21283e-20)
(1.01206 0.00483115 4.71573e-20)
(0.998344 -0.00207238 3.81977e-22)
(1.06289 -0.0472172 -1.67848e-21)
(0.962664 -0.0146758 -1.5642e-21)
(0.998391 -0.0106135 -3.92153e-21)
(1.00053 -0.0050366 -3.45885e-21)
(0.998414 -0.00379293 -6.76208e-22)
(0.999277 -0.000534486 2.05554e-22)
(0.998095 0.0238475 -1.91758e-19)
(0.992334 -0.0180292 1.93581e-21)
(1.00233 0.050353 3.50614e-20)
(1.01636 -0.0252466 -6.47126e-21)
(1.01546 0.0166852 1.87833e-20)
(0.989957 -0.0052603 2.61606e-21)
(0.993769 -0.00685506 -1.80229e-21)
(1.11406 0.0190839 -1.71332e-21)
(1.01195 0.00712244 4.83933e-20)
(0.998674 -0.00157397 -8.89317e-22)
(1.00002 -0.00141452 2.31553e-21)
(0.999987 -0.00146623 -1.7312e-21)
(0.999998 -2.1114e-06 -2.15636e-24)
(1.01673 -0.0213225 -1.91405e-20)
(0.985595 -0.0377751 7.40627e-22)
(1.00011 -0.00024738 -5.88609e-22)
(1.03545 -0.00927829 -1.89452e-21)
(0.999851 -0.00038916 -3.71635e-23)
(0.999847 -0.000400023 3.54275e-22)
(1.00102 -0.000122251 -3.24664e-22)
(1.0168 -0.0247407 4.01978e-21)
(1.00032 -3.40286e-05 -8.25946e-22)
(1.0007 -0.00409157 4.99269e-23)
(0.987866 -0.00231756 5.57608e-21)
(0.998013 -0.00300593 3.38318e-22)
(0.997671 -0.00126696 -3.66754e-21)
(0.993665 0.0261421 -2.53396e-19)
(1.06947 -0.0164463 3.06128e-20)
(1.00518 -0.00698219 1.13381e-20)
(0.99513 -0.00828675 -4.92959e-22)
(0.986058 -0.0229965 1.12934e-22)
(1.00017 -0.00315812 -1.94933e-21)
(1.00001 -1.20164e-05 -4.70168e-23)
(0.999999 -7.69696e-07 -1.09891e-24)
(0.978109 -0.00461673 7.43615e-22)
(0.96283 -0.0143392 1.5992e-21)
(0.985337 -0.0159491 3.31987e-24)
(1.00001 -1.03971e-05 -1.29207e-22)
(0.992414 -0.00340691 5.74172e-21)
(1.03144 0.00448871 7.32393e-20)
(1.0941 0.0821767 -4.5616e-20)
(1.06755 0.00289671 -1.70263e-20)
(0.999991 8.74917e-07 -8.13879e-24)
(0.985502 -0.00812792 6.31565e-21)
(1.00437 -0.0194928 -7.15177e-21)
(1.00004 -6.44025e-06 -3.10725e-23)
(0.999971 -0.000136199 -7.07717e-23)
(0.983483 -0.000419173 -1.13155e-21)
(1.00086 -7.25495e-05 -1.3687e-21)
(1.00033 -0.00266758 -2.98423e-22)
(1.02195 -0.0532685 -9.78062e-23)
(1.00019 -2.25187e-05 -6.64506e-22)
(0.974996 -0.0316623 -1.42541e-22)
(0.987807 -0.00241452 -5.64566e-21)
(0.989493 -0.00207287 4.66877e-21)
(0.99066 -0.00521737 9.46676e-22)
(1.0008 -0.00410729 -2.77428e-21)
(0.980135 -0.0169658 3.77678e-22)
(1.00013 -0.000227165 6.94349e-22)
(1 -5.31446e-06 -5.88945e-24)
(1.00248 -0.00249977 3.34406e-21)
(1.0133 0.0592213 -2.83562e-20)
(0.984775 0.014253 1.75913e-19)
(1.00568 0.0176905 4.49658e-20)
(1.01755 -0.021365 -3.69829e-21)
(0.994728 -0.00707996 -1.16691e-22)
(1.00456 0.0197425 2.34358e-19)
(1.007 -0.00441256 -3.41785e-20)
(1.0001 -0.000206879 -4.94476e-22)
(1.01187 -0.000353118 -1.81049e-20)
(0.992894 -0.00666446 5.60887e-22)
(1.06731 0.0169681 -2.64974e-20)
(0.998428 -0.00374389 -6.68488e-22)
(1.01381 0.000177309 -5.15112e-20)
(1.00047 -5.89513e-05 1.47548e-21)
(1.00575 0.0172434 3.06967e-20)
(1.00025 -2.85708e-05 -1.02559e-21)
(0.997486 -0.00374695 1.19116e-22)
(0.990091 -0.00529664 -7.6617e-22)
(1.00577 0.0238143 2.86966e-20)
(1.00011 -7.72047e-06 -1.08213e-21)
(0.993781 -0.0201753 -2.1818e-21)
(1.03501 -0.0553562 2.9712e-22)
(1.02966 0.0198103 -5.42902e-20)
(0.999644 -0.0235162 2.90355e-21)
(0.997437 -0.00346226 5.42704e-22)
(1.09367 -0.00836065 -5.54542e-21)
(1.00001 -8.55804e-07 -9.64372e-23)
(1.15232 -0.0323492 2.66715e-22)
(0.997918 -0.0030741 3.42302e-22)
(1.00911 -0.00480784 -2.20535e-20)
(0.995746 -0.0191147 -1.17841e-21)
(1.00135 -7.54343e-05 -5.0973e-21)
(1.05407 0.0864051 -7.48278e-20)
(1.00874 0.0241571 -6.60676e-20)
(0.981444 0.0262744 8.28681e-20)
(1.01208 0.0179182 9.7848e-21)
(1.02644 0.0399233 3.49758e-20)
(1.07629 0.00559693 -2.01991e-20)
(1.02909 0.0872398 -7.91859e-22)
(1.00709 -0.00438792 3.78944e-20)
(1.01472 0.0357405 3.62713e-20)
(1.00153 0.0241357 -1.48275e-19)
(1.00027 -0.0026889 -1.36845e-22)
(0.999336 -0.00172972 1.66248e-22)
(0.986857 0.0130093 -1.89825e-19)
(1 -7.99413e-06 -2.55812e-23)
(1.15824 -0.0036015 -1.77555e-21)
(1.08859 0.0845595 -1.67507e-20)
(0.990875 -0.0087712 1.8814e-21)
(1.00051 -0.00109403 -2.04391e-22)
(1.021 -0.00758799 -7.12545e-21)
(0.999311 -0.000792687 -2.10582e-22)
(1.00087 -0.000853641 -5.79117e-23)
(0.992382 0.0346537 -4.62715e-20)
(0.966433 0.0255531 6.94279e-20)
(0.999961 6.73549e-06 -4.21943e-24)
(1.00014 -0.000226288 -6.87769e-22)
(1.0426 -0.0108972 -6.22203e-21)
(1.00006 -0.00134622 1.70012e-22)
(1.1285 0.0592886 -1.32497e-20)
(1.02073 0.060165 -4.56996e-20)
(1.02229 0.0165882 1.08205e-20)
(0.999973 -0.000136039 2.06306e-22)
(0.999047 -0.0334928 -4.88031e-22)
(0.999164 -0.0277294 -4.65032e-21)
(1.00027 -2.10965e-05 6.58385e-22)
(1.00967 -0.0160216 9.7593e-21)
(1.02045 0.00247729 1.87121e-20)
(0.968724 0.0247099 -4.4435e-20)
(1.00004 -0.00139846 -5.82243e-22)
(0.999998 -1.7549e-07 -3.20661e-25)
(1.0149 0.0353489 2.69215e-20)
(1.00939 -0.0158962 1.71391e-20)
(0.999968 1.06085e-05 -9.14582e-23)
(1.0168 -0.00602375 -4.54261e-21)
(1.00362 -0.00604796 -2.16671e-21)
(0.998352 -0.00224995 -6.84461e-23)
(0.998869 -3.95868e-05 4.0756e-22)
(1.15357 0.0148893 -2.171e-21)
(0.991468 -0.00315391 2.44367e-21)
(0.999321 -0.00077852 6.65203e-24)
(0.984946 -0.0117535 2.66357e-23)
(1.00015 -0.000221172 9.7039e-22)
(0.999945 -4.33764e-05 2.69701e-23)
(1.00003 -0.00622064 -5.30858e-21)
(1.07449 0.0213276 -4.41239e-21)
(0.999897 -4.05099e-05 4.00774e-23)
(0.987903 -0.00257201 -6.63376e-21)
(1.00036 -0.000513883 1.91314e-22)
(0.999798 -0.0231328 1.44138e-21)
(1.00548 0.0241986 -3.77858e-20)
(0.999933 -0.000245346 2.0266e-22)
(0.936672 0.00930657 -4.74064e-20)
(1.0447 -0.0275891 -8.56012e-21)
(0.996934 0.0139616 2.49864e-20)
(1.07354 0.0201716 1.15939e-20)
(0.999736 -0.000158654 7.02938e-23)
(0.999983 -3.05498e-05 3.1232e-23)
(0.999788 -0.000174513 -1.10344e-22)
(0.997514 -0.00344978 4.40479e-23)
(1.0106 0.000929831 0)
(0.999813 -0.00514176 -3.51203e-21)
(0.992555 -0.000237246 1.45827e-21)
(0.990699 0.0400566 -1.57911e-19)
(0.9639 -0.0161293 8.99877e-22)
(0.963542 -0.0159882 -8.15844e-22)
(1.02115 -0.0144865 9.47735e-21)
(1.0355 -0.0111851 2.99823e-20)
(0.992473 0.0295462 1.58382e-19)
(0.99975 -0.000176352 6.21364e-23)
(0.994016 -0.0202022 -4.67839e-22)
(0.990685 -0.00875931 -1.86435e-21)
(1.00009 -0.000104527 4.8286e-22)
(1.01292 -0.0208429 4.21023e-21)
(1.00037 -0.000487359 -9.2651e-23)
(1.0171 -0.0214319 -1.02597e-20)
(0.990747 -0.0423951 -6.18277e-23)
(0.954011 0.0308929 -8.64455e-20)
(0.973686 -0.0314458 1.1377e-22)
(0.998925 -0.00127518 1.02281e-22)
(0.989821 -0.00844675 -4.02115e-21)
(1.00356 -0.0112292 -5.92357e-22)
(1.05018 0.00686548 -4.28602e-20)
(1.01403 0.000491301 -7.4699e-21)
(1.00709 -0.0211478 -9.22766e-22)
(1 -2.77147e-07 -1.45245e-23)
(1.0019 0.0228847 6.21278e-20)
(0.993136 -0.00376113 -5.63317e-22)
(0.95367 -0.00770675 -3.06523e-21)
(0.999592 -0.00487824 -1.58819e-21)
(1.01827 -0.0155406 -4.37643e-20)
(0.991332 -0.0268849 -2.34972e-21)
(1.0025 -0.00246597 1.45747e-21)
(1.10795 0.0559078 -3.3004e-20)
(0.999582 -1.75139e-05 5.93538e-22)
(1.00029 0.037646 9.09764e-20)
(1.00007 -0.00908263 3.72569e-21)
(1.02118 0.00335224 -9.30004e-21)
(0.976026 -0.00455502 5.97239e-21)
(1.01 -0.00146105 3.11399e-21)
(0.999997 -6.77607e-06 6.37919e-24)
(0.989637 -0.0231556 1.15919e-22)
(0.987825 -0.00269016 6.25125e-21)
(0.992882 -0.0186578 -1.88701e-21)
(1.01691 -0.00631497 -3.34046e-21)
(1.02138 -0.0541073 -2.34079e-22)
(1.00015 -0.000221544 -1.0988e-21)
(1.03992 -0.102269 -2.22568e-21)
(0.999265 -0.000552369 -8.71942e-22)
(0.999986 -3.01444e-05 2.88865e-23)
(0.999816 -0.00504974 3.88814e-21)
(1.00012 -0.000235083 2.93735e-22)
(0.967703 0.0244656 6.07317e-20)
(1.00009 -0.000105264 -4.22792e-22)
(0.997384 0.0496277 -2.10462e-20)
(0.98964 -0.00893366 -6.17421e-22)
(1.0096 -0.00128555 -5.88373e-21)
(1.00146 -0.00115829 -5.14099e-21)
(1.03426 0.015891 7.60787e-20)
(1.00207 -0.00298044 -7.09329e-21)
(1.009 0.0107363 -3.3259e-20)
(0.999999 -1.50185e-06 -1.19027e-24)
(1.01602 -0.0289611 4.75216e-21)
(0.999399 -0.00249157 -5.08043e-22)
(1.00085 -0.00199228 4.27922e-22)
(0.986468 -0.00951784 -9.45594e-22)
(1 -6.71975e-06 5.91411e-23)
(1.08915 0.0410298 -1.92762e-20)
(0.96973 0.0527798 2.13809e-20)
(1.08752 0.0837664 3.72784e-20)
(1.0001 -0.000203661 9.59891e-22)
(1.08808 -0.0302502 2.89558e-21)
(1.01084 0.0010545 -1.14783e-20)
(0.989285 0.0363648 1.1181e-19)
(1.00006 -0.00228052 4.50014e-22)
(0.999892 -5.7506e-07 -3.56219e-23)
(1.04162 -0.010954 -7.47211e-21)
(1.00007 -6.92966e-05 -2.92584e-22)
(0.983448 0.0124441 -3.90963e-20)
(1.00452 -0.0193042 -7.90159e-22)
(1.05253 0.0908399 -8.56837e-22)
(1.03103 0.0288595 -7.09967e-20)
(1.00006 -6.50209e-05 2.34628e-22)
(0.995864 -0.0769336 -3.02984e-21)
(1.0045 0.0137624 -7.04193e-20)
(0.999946 -3.87972e-05 1.81456e-25)
(1.03965 -0.00525313 4.68832e-20)
(0.99746 0.00645907 1.16601e-19)
(0.998857 -5.16541e-05 3.3441e-22)
(1.00141 -0.00641735 4.84676e-21)
(1.00017 -2.46469e-05 5.09051e-22)
(1.00343 -0.00667558 -7.10052e-21)
(0.990138 -0.00546867 2.63782e-22)
(0.99676 -6.20854e-05 5.59277e-22)
(1.00477 0.0524097 -4.80245e-20)
(0.998352 -0.010397 -2.73344e-21)
(0.950524 0.0430561 1.51579e-19)
(0.926277 0.00432468 1.28941e-19)
(0.998557 -4.97019e-05 -9.87241e-22)
(1.00003 -0.000215364 -6.91929e-23)
(1.00247 0.0498361 -1.98376e-20)
(0.998328 -0.00213673 3.27289e-22)
(0.991271 -0.00216165 1.4403e-21)
(1.00013 -0.000235284 -1.65037e-22)
(1.02263 0.0185102 2.57903e-21)
(0.976236 -0.00453242 -8.89493e-21)
(0.958755 0.0248666 1.08161e-19)
(0.999403 -0.00223288 5.69403e-22)
(0.999982 -0.000625904 -4.08403e-22)
(0.993164 -0.00385066 1.8703e-21)
(1.10066 0.0776709 -3.58835e-20)
(0.999428 -0.0334739 -7.7804e-23)
(1.05821 0.00377011 -7.30033e-21)
(1.02633 -0.0130882 -2.01851e-20)
(1.01269 0.00497032 -3.94528e-20)
(0.999893 -6.50588e-05 -2.12977e-23)
(1.10807 0.0312248 1.1074e-20)
(1 -9.18678e-06 -8.44911e-23)
(1.00079 -0.000690062 3.28258e-21)
(0.999997 1.06704e-07 -2.20107e-24)
(1.14849 -0.0329467 1.9578e-21)
(1.04066 -0.0420214 -4.58227e-21)
(1.00935 0.019291 5.8008e-21)
(0.999998 -2.84706e-06 2.35671e-25)
(0.981848 0.0255518 -2.20989e-19)
(0.999815 -6.09728e-05 9.92451e-23)
(1.01305 -0.0206411 4.35796e-21)
(0.999702 -0.000179522 2.42408e-22)
(0.963097 -0.0245326 -3.69795e-23)
(0.995243 -0.00841801 1.00779e-21)
(1.04237 0.0175703 3.64634e-20)
(0.999972 -7.29055e-06 1.21449e-22)
(1.01406 -0.0346447 2.95595e-21)
(1.01004 -0.0158268 1.8838e-21)
(0.994706 -0.00764658 -1.22703e-22)
(0.999989 -3.40752e-05 -1.04877e-22)
(0.99997 -0.00061926 -4.49235e-22)
(0.999924 -1.3794e-05 1.50648e-23)
(0.987307 -0.0278309 9.70577e-22)
(1.00085 -0.00166591 1.87766e-21)
(0.999424 -0.00034627 -2.06038e-23)
(0.983202 -0.000132551 9.24822e-21)
(1.00003 -0.000108651 -3.61497e-24)
(1.00015 -0.000204667 8.7695e-22)
(1.00336 -0.00994323 6.5499e-21)
(0.999736 -0.000156547 4.14274e-23)
(1.00503 0.0195105 -1.03862e-19)
(1.02608 0.00083582 6.27716e-20)
(1.11496 0.0697786 -2.07058e-21)
(0.986581 -0.000427595 -1.2389e-21)
(1.01327 -0.0446415 -8.08926e-22)
(0.999993 -7.04177e-07 5.46658e-25)
(1.09537 -0.00770786 6.28662e-21)
(0.990234 -0.0423873 2.28119e-22)
(1.00016 -2.88047e-05 7.67051e-22)
(0.985527 -0.0162135 4.93964e-23)
(0.999316 -0.00233063 3.965e-22)
(0.981535 -0.0116936 5.70207e-22)
(1.11022 -0.0517414 2.05313e-22)
(1.00024 -2.41344e-05 -7.6904e-22)
(1.01721 -0.0248705 -1.27123e-20)
(0.999986 -3.00936e-05 -1.17185e-22)
(0.997404 -0.00326701 -4.62882e-22)
(0.999819 -6.3728e-05 1.00515e-23)
(1.0149 0.0317676 -4.9718e-21)
(0.996019 -0.00100356 -2.70135e-21)
(1.00006 -0.000131923 -6.17212e-24)
(0.999949 -5.2477e-05 3.72982e-23)
(1.01171 -0.00493678 1.97014e-20)
(0.978662 -0.0239406 -3.92974e-23)
(0.99835 -0.00215807 -5.32997e-22)
(0.999996 -0.000651337 -9.90505e-22)
(1.00421 0.0528558 -5.90591e-21)
(0.999516 0.0281498 3.59144e-20)
(1.00088 -0.00198158 1.26132e-21)
(1.05805 0.0739906 -1.10612e-21)
(1.08083 -0.0435463 -3.68573e-21)
(0.965276 -0.0264301 -1.60719e-22)
(1.00003 -0.000213154 2.74266e-22)
(1 -2.58058e-07 -1.76132e-24)
(1.01387 0.0586145 3.65914e-20)
(0.98178 -0.00993071 3.92359e-22)
(1.00004 -0.000107868 -1.60615e-22)
(1.07047 0.0572005 3.44438e-20)
(0.999538 -0.000273522 3.01473e-22)
(0.999997 -8.67959e-07 -7.69529e-24)
(1.03673 0.00432081 6.61033e-21)
(0.997817 -0.0538133 -4.62984e-22)
(0.974075 -0.0313095 -1.55946e-22)
(0.961272 -0.0241191 -2.2724e-22)
(0.994889 -0.0178354 2.14204e-21)
(0.996582 -0.00011121 9.70063e-22)
(0.991375 -0.00225663 -1.15674e-20)
(1.00059 -0.00492449 -5.1387e-21)
(1.02559 0.0282333 -3.37736e-20)