/*--------------------------------*- C++ -*----------------------------------*\
  =========                 |
  \\      /  F ield         | OpenFOAM: The Open Source CFD Toolbox
   \\    /   O peration     | Website:  https://openfoam.org
    \\  /    A nd           | Version:  7
     \\/     M anipulation  |
\*---------------------------------------------------------------------------*/
FoamFile
{
    version     2.0;
    format      ascii;
    class       volVectorField;
    location    "13.5";
    object      U;
}
// * * * * * * * * * * * * * * * * * * * * * * * * * * * * * * * * * * * * * //

dimensions      [0 1 -1 0 0 0 0];

internalField   nonuniform List<vector> 
7807
(
(1.06555 0.117691 9.47072e-21)
(1.04955 -0.0368519 3.13187e-21)
(0.994735 0.0941938 -1.8694e-20)
(1.03174 0.0598505 2.68753e-20)
(0.999245 -0.000901516 -5.24053e-23)
(0.999964 -9.78781e-06 -5.30743e-24)
(0.990356 0.0779458 -3.67807e-20)
(0.995251 -0.00172937 -1.13288e-23)
(0.999888 -0.000168467 -8.99073e-24)
(1.02168 0.000151283 -1.29129e-21)
(0.999967 -1.13287e-05 5.85391e-24)
(1.00203 -0.00120275 -2.19851e-22)
(0.992694 -0.0022277 5.52593e-22)
(1.01686 -0.00173519 -8.48531e-21)
(1.021 0.000861808 5.45538e-21)
(0.992227 -0.0139871 -1.08279e-21)
(1.06752 0.123185 -1.99498e-20)
(0.990141 -0.00286275 -1.93668e-22)
(1.00222 -0.00861635 -7.90801e-23)
(0.986159 -0.0915663 -8.5587e-22)
(1.03126 -0.00348774 -2.93327e-21)
(1.00134 -0.000637882 4.15814e-22)
(1.01616 -0.00312115 7.39634e-22)
(1.01014 0.0265006 -1.38063e-20)
(0.986824 -0.00360032 -8.8601e-22)
(1.06152 0.116104 -9.43955e-21)
(0.999265 -0.000850272 -3.74982e-23)
(1.02134 -0.00136695 3.3276e-21)
(1.00522 0.0136813 -1.77678e-21)
(1.00339 -0.00918002 6.64015e-23)
(0.987991 -0.0149506 -1.98732e-21)
(0.886899 0.0344282 5.38119e-21)
(1.01566 -0.00362206 4.54517e-21)
(0.999576 -0.000363221 6.51479e-23)
(0.999906 -4.59305e-06 1.21647e-25)
(1.02079 0.000556096 1.92293e-21)
(1.00409 -0.0101167 7.75129e-23)
(0.994205 0.075546 -5.8906e-21)
(0.996836 -0.00738019 8.88028e-22)
(0.9997 -5.16882e-05 6.17611e-23)
(0.997167 -0.00757834 -1.02315e-22)
(0.992362 -0.013037 -4.05419e-22)
(1.01172 -0.0991139 3.53062e-21)
(1.13724 -0.0386727 -1.32944e-22)
(0.99982 -9.20779e-06 1.97945e-23)
(0.99993 -1.52009e-05 -5.52142e-24)
(1.00122 -0.000535221 -2.54111e-22)
(0.996514 -0.00665138 -5.24854e-22)
(0.99994 -2.74899e-05 -4.42248e-24)
(0.990201 -0.0919664 1.23364e-21)
(1.00293 -0.0010599 2.36354e-22)
(1.02134 -0.000229883 -3.46247e-21)
(0.982739 -0.00435551 -2.98853e-21)
(1.01096 -0.0280078 1.72897e-22)
(1.02078 -0.000714705 -1.15e-21)
(0.995821 -0.00239286 -1.00888e-22)
(1.00201 -0.0081137 1.64198e-22)
(0.995223 -0.00149152 7.52356e-22)
(0.979115 -0.0181956 -3.55132e-21)
(0.999563 -0.000322242 -8.37392e-23)
(1.00004 -2.17839e-05 -1.01347e-23)
(1.00387 -0.00100678 2.6421e-22)
(1.0173 -0.00106308 -1.99356e-21)
(1.00216 -0.00104207 2.22563e-22)
(0.999153 -0.000185517 1.20651e-22)
(0.988525 -0.0155159 3.54224e-22)
(0.999915 -0.000170688 6.83034e-24)
(1.00001 -2.12117e-06 7.12402e-25)
(1.13428 0.0659666 5.0651e-21)
(0.996618 -0.00629257 -1.54698e-22)
(0.999934 -1.84529e-05 4.89976e-24)
(0.97373 -0.0548395 -6.43894e-21)
(0.987396 -0.00398657 4.30406e-22)
(0.97596 -0.00540915 5.9161e-22)
(0.990577 -0.00315332 6.06144e-22)
(0.96746 -0.0265573 -7.7914e-22)
(0.99803 0.0954709 3.00287e-20)
(1.02949 -0.00333013 3.7219e-21)
(1.07625 0.00120889 -7.76602e-21)
(0.957984 -0.0454451 -8.28756e-21)
(0.993038 -0.00245941 -8.48331e-22)
(0.998971 0.0476083 3.66989e-20)
(1.0354 0.00571814 8.64492e-21)
(0.975492 -0.00964428 2.71385e-21)
(0.998808 -0.00230479 -8.37997e-23)
(0.99799 -0.000291289 8.96618e-23)
(0.994933 -0.00228309 1.03719e-21)
(0.983428 -0.00486191 1.9234e-21)
(0.999423 -0.00107368 5.62616e-23)
(0.996002 -0.000622343 3.22149e-22)
(1.00542 0.0155546 1.31387e-20)
(1.16658 -0.0232768 3.25378e-22)
(0.999881 -5.11344e-05 -1.1805e-23)
(1.00172 -0.00689708 6.67636e-23)
(0.996845 -0.00094872 2.91494e-22)
(0.97559 -0.00302875 -4.72873e-21)
(0.976028 -0.0543726 4.52159e-22)
(1.01244 -0.0269141 1.94522e-23)
(0.998701 -0.00222295 2.85847e-23)
(0.998993 -0.000170095 4.04945e-23)
(0.952748 -0.0163737 2.05757e-21)
(1.07695 0.00581426 6.3021e-21)
(0.997026 -0.00107624 -7.27118e-22)
(0.999976 -8.50061e-07 -4.46615e-25)
(1.16943 -0.0121403 1.32247e-22)
(1.02686 0.0263194 -1.26904e-20)
(0.941485 0.0243463 6.18479e-21)
(0.995535 -0.00226606 -4.19429e-22)
(0.999992 -1.86943e-06 7.50199e-26)
(1.02295 -0.0118838 -1.6223e-21)
(1.03495 0.0568079 -3.12157e-20)
(1.02613 -0.0726249 -3.6845e-21)
(0.99999 -2.19163e-06 -1.29417e-25)
(1.02457 -0.0124829 -3.54603e-22)
(1.02378 0.0253971 1.33396e-20)
(1.00037 -0.000514632 -2.00553e-23)
(1.06903 -0.0841356 -7.11531e-23)
(1.0272 0.0150783 -3.08499e-21)
(0.984999 -0.0429416 2.72858e-21)
(0.975656 -0.0065866 -6.16181e-22)
(0.949428 -0.010761 -4.97568e-21)
(1.00085 0.033886 -2.38942e-20)
(1.01757 -0.0974348 -4.86711e-21)
(1.00862 -0.0069775 1.36006e-22)
(0.951219 -0.0122866 1.96234e-21)
(0.999176 -0.00123823 1.25644e-22)
(0.988904 -0.0112453 6.57255e-22)
(1.00268 -0.00779863 -1.13543e-22)
(0.999104 -0.000136546 -2.69084e-22)
(0.987954 -0.0137347 3.3045e-23)
(1.20262 -0.0382547 -2.44225e-22)
(1.07108 -0.000874836 1.30996e-21)
(0.999475 -0.000483973 7.08963e-24)
(0.999336 -0.00110422 -1.09056e-22)
(0.974293 -0.00883338 8.08298e-22)
(1.03286 0.0501718 1.1583e-20)
(0.995138 0.0273585 4.2204e-20)
(0.999978 -2.62058e-06 -5.24532e-25)
(1.00689 -0.00272957 1.10528e-22)
(0.930475 -0.0134951 -6.27138e-21)
(0.977493 -0.00389319 -2.41561e-21)
(0.99034 -0.059457 -3.92064e-21)
(0.967975 -0.0285819 1.05575e-21)
(0.97733 -0.00486966 -5.31124e-23)
(0.935903 0.0191276 2.4047e-20)
(1.0126 -0.0429715 -1.25249e-22)
(1.01088 0.0157573 -6.7256e-21)
(0.981362 -0.0217211 -1.82554e-21)
(0.966159 -0.00530559 6.72649e-22)
(1.00049 0.0422925 -1.18889e-20)
(1.02168 0.00152905 4.86097e-21)
(1.15413 -0.0261991 6.75225e-22)
(0.998672 -0.00180874 -2.94849e-22)
(1.13933 0.0585856 9.39254e-22)
(1.03373 0.00534663 -8.95992e-21)
(1.00462 0.0784297 -2.99821e-20)
(0.962413 -0.0313048 3.2542e-21)
(0.992689 -0.00169656 1.86592e-22)
(0.95072 0.0638403 5.41515e-20)
(0.999945 -2.27281e-05 -4.12344e-24)
(1.00129 -0.00723872 -5.05771e-23)
(1.0108 0.0295296 9.92274e-21)
(0.999981 -1.78767e-05 2.35967e-24)
(0.99849 -0.00469687 -4.11394e-22)
(0.996436 -0.000913138 -1.39679e-22)
(1.0037 0.0344269 -3.22956e-21)
(1.00202 0.0305801 1.19386e-20)
(0.94364 0.0705543 1.79357e-20)
(0.998264 -0.00454671 -2.60416e-22)
(0.997234 -0.000335331 -1.57766e-22)
(1.00001 -1.96977e-06 -6.67355e-25)
(0.946237 -0.00659913 -8.58232e-21)
(1.00035 -0.00045556 2.76325e-23)
(1.05133 -0.0333895 -3.66078e-21)
(1.00702 -0.00305005 7.34085e-22)
(0.966978 -0.00627139 1.39029e-21)
(1.16005 -0.00254831 1.30344e-21)
(1.09301 0.0657543 4.13107e-22)
(0.999882 -5.91356e-05 6.43248e-24)
(0.999549 -0.000572798 -7.38054e-23)
(1.0326 0.0630608 -4.72609e-21)
(0.999945 -1.72238e-05 -2.01119e-24)
(0.9999 -1.08135e-05 3.0684e-24)
(0.990557 0.0826627 -3.04397e-20)
(1.05153 -0.0399205 1.09542e-21)
(1.01267 -0.0615571 -2.19162e-21)
(0.986846 -0.0415579 -3.86823e-21)
(0.978155 -0.00703533 1.7694e-21)
(1.00982 -0.0443724 2.08865e-22)
(0.932197 -0.0113934 3.295e-21)
(0.99998 -1.6316e-05 -8.67715e-25)
(0.976496 -0.0508863 -1.5377e-21)
(1.09537 0.0724996 -9.90053e-21)
(0.997008 -0.00131091 1.0448e-22)
(1.00007 -5.71472e-06 -7.11265e-24)
(1.06748 0.0689312 9.78818e-22)
(0.998903 -0.000351887 2.86752e-22)
(0.988718 -0.0131985 1.05246e-21)
(1.00713 -0.0420424 7.04294e-22)
(1.00002 -2.20926e-06 -2.90955e-25)
(1.00076 -0.00179955 -1.13269e-22)
(1.02965 0.0497397 1.42193e-20)
(1.08307 0.0779316 -1.25764e-20)
(1.00071 0.069317 -4.0187e-21)
(1.06498 -0.0782065 1.21097e-21)
(1.02946 -0.0690686 8.82394e-22)
(1.11394 -0.111758 -4.45801e-22)
(1.02124 -0.00261452 9.83855e-21)
(1.02727 0.0472633 -4.63483e-21)
(0.999809 -1.92164e-05 -2.32252e-23)
(1.00004 -1.83324e-05 2.70546e-24)
(0.955721 0.00988333 -2.39373e-20)
(0.993494 -0.01248 -3.80398e-22)
(0.999455 -0.000434622 -7.09862e-23)
(0.978686 -0.049974 3.16313e-21)
(0.988378 -0.0118715 -7.66477e-22)
(1.013 0.0725675 -3.38478e-20)
(1.00971 0.0703754 -7.17166e-21)
(0.987711 -0.0610758 1.0923e-21)
(0.908871 0.047813 -2.04045e-20)
(0.998981 -0.000403112 -2.10528e-22)
(0.990188 -0.00245408 6.9255e-22)
(0.950835 -0.0149635 2.71178e-21)
(1.03005 0.000650818 -2.08474e-21)
(1.0171 -0.123481 -4.87818e-22)
(1.08475 0.115935 -2.04968e-20)
(0.950772 0.0561281 -4.63903e-20)
(1.00006 -9.92665e-05 8.15291e-24)
(1.00852 -0.00661328 3.65474e-22)
(1.02526 0.0173589 1.66484e-20)
(0.996609 -0.00550363 -6.78144e-22)
(1.02944 0.0155009 -2.11649e-21)
(0.999527 -0.00116159 -1.77032e-23)
(0.923805 0.0797834 3.62118e-20)
(1.00508 0.0725456 6.53304e-21)
(0.994935 -0.00196336 6.59539e-22)
(1.00346 -0.00768482 -1.62656e-23)
(0.999718 -6.39932e-05 -1.14879e-22)
(1.11588 0.0922371 5.15998e-21)
(0.999913 -1.13432e-05 9.09441e-24)
(0.995359 -0.010205 3.12908e-22)
(0.940222 -0.0298246 3.71005e-21)
(0.999934 -2.36339e-05 -2.02856e-24)
(0.998916 -0.00267421 -7.2392e-23)
(0.999632 -0.00113113 3.28462e-23)
(1.06062 0.0416487 1.24714e-20)
(0.999982 -2.28652e-05 2.78918e-24)
(0.995834 -0.000480971 3.65736e-25)
(0.960267 -0.0450586 9.60574e-21)
(0.888019 0.0256889 -1.18614e-20)
(1.07038 -0.00520065 -1.75976e-21)
(0.933693 0.053726 2.76918e-20)
(0.999959 -8.30136e-06 -4.93023e-24)
(1.00492 -0.0428231 -6.73081e-23)
(0.999834 -0.000287334 -2.54547e-23)
(1.00011 0.0803406 -2.99742e-20)
(1.00343 -0.000665095 -3.40457e-22)
(0.993083 0.0313665 1.3805e-20)
(1.00274 -0.00937072 -3.17961e-22)
(1.00068 -0.00186841 1.22315e-22)
(1.02827 -0.0312669 -9.25458e-22)
(1.02111 -0.0013468 -9.11437e-21)
(1.00051 -0.000307076 5.67545e-23)
(0.999794 -5.11001e-05 5.79711e-25)
(1.00044 -0.000416084 1.28329e-22)
(0.996425 -0.00582943 -6.01396e-22)
(1.01939 -0.0637755 2.31142e-21)
(0.99996 -1.13755e-05 3.33627e-24)
(0.963958 -0.0299596 2.27892e-21)
(0.996619 -0.0010596 -2.61205e-23)
(0.999868 -4.35472e-05 1.25455e-23)
(0.999448 -0.000539269 2.31512e-23)
(0.98845 0.049152 3.3286e-20)
(0.992641 -0.000794284 2.72132e-22)
(0.999313 -0.00010714 -2.41664e-23)
(0.91433 0.0114565 4.54038e-20)
(0.998783 -0.00258112 -1.64264e-22)
(1.05392 0.0892127 -1.12345e-20)
(0.999815 -0.000267203 4.66254e-23)
(1.00784 -0.0212077 1.6063e-22)
(1.00002 -1.07157e-06 -2.39931e-25)
(0.984184 -0.0347242 -1.57947e-21)
(1.02967 0.000756967 3.21196e-21)
(1.1619 0.00647254 -3.64511e-21)
(0.979383 -0.0195682 3.00448e-21)
(0.999635 -0.000582052 8.53637e-23)
(0.984211 -0.0781279 1.9741e-21)
(0.984476 -0.000460008 1.26149e-21)
(0.999833 -2.04857e-05 1.25907e-24)
(1.00042 -0.000358843 -1.13594e-22)
(0.99813 -0.00332867 2.25591e-22)
(0.992981 -0.00141142 -8.11612e-22)
(1.00284 -0.00086035 -4.04709e-22)
(0.998886 -0.00185033 1.06285e-22)
(0.976771 -0.00898684 4.25396e-22)
(1.02369 -0.0613287 -1.73503e-21)
(0.976893 -0.00753869 1.89417e-21)
(1.13064 -0.031148 8.38216e-23)
(0.969058 -0.00845069 -2.42402e-21)
(1.01489 0.093407 3.38174e-21)
(1.01124 0.095805 -2.4959e-20)
(0.998643 -0.000733617 -1.83596e-22)
(1.18345 0.00473692 2.71978e-21)
(0.999985 -3.35832e-06 -2.91395e-25)
(0.99811 -0.00411979 -2.73103e-22)
(0.974958 -0.00211614 4.85298e-21)
(1.00779 0.0235255 8.24361e-21)
(1.03707 0.00956691 -8.35675e-21)
(1.00009 -3.51017e-05 1.60935e-23)
(0.998191 -0.00388891 -1.78372e-23)
(0.970202 -0.00934266 1.82693e-21)
(1.04716 0.0362219 -4.94307e-21)
(0.999109 -0.00114696 9.4608e-23)
(1.00306 -0.000787842 2.27739e-22)
(1.00114 -0.000923269 -2.06084e-23)
(1.11524 0.0221261 7.41567e-21)
(1.202 -0.0505765 -1.92517e-21)
(1.03229 0.112312 1.61641e-20)
(0.99855 -0.000221931 -1.79712e-22)
(1.06031 -0.0380061 -2.96853e-21)
(0.999896 -6.51551e-05 -1.01657e-23)
(1.00452 -0.006832 -7.91213e-22)
(0.99995 -1.25788e-05 -1.41859e-24)
(0.986559 -0.0208362 5.15844e-22)
(0.999686 -7.0891e-05 -2.20846e-23)
(1.01195 -0.0205196 1.92037e-22)
(1.20644 0.00707469 -1.47819e-21)
(0.974957 -0.0279203 3.58011e-21)
(1.00891 -0.0206149 -1.09839e-22)
(1.00775 -0.00589648 -4.76699e-22)
(0.999333 -0.000138561 1.08311e-22)
(1.02519 -0.0165146 1.15204e-21)
(0.997215 -0.0181918 4.60942e-22)
(1.07157 0.0102397 -3.61682e-21)
(1.05597 0.0398165 5.6749e-21)
(1.16307 -0.122884 -4.26691e-24)
(1.13453 -0.0475861 -2.8471e-22)
(0.983799 -0.000947242 -1.35092e-21)
(1.00468 -0.00339732 7.30193e-22)
(0.942553 -0.0282324 -1.43442e-21)
(0.936212 0.0699861 -5.58164e-20)
(1.11565 -0.0486163 -6.88326e-22)
(1.02489 -0.00986248 -4.38585e-21)
(0.91658 0.051533 -2.77303e-20)
(0.998594 -0.000159778 8.87119e-23)
(0.998405 -0.000910709 -5.67333e-23)
(1.15093 -0.035909 -3.92065e-23)
(0.999022 -0.00198153 -5.66515e-23)
(1.01275 -0.0399575 1.41231e-22)
(1.00539 -0.00178443 2.5712e-22)
(0.997373 -0.000406787 -1.40181e-22)
(0.998072 -0.000348821 -2.21298e-22)
(1.02941 0.0227887 9.75799e-21)
(0.999938 -0.000144721 -4.59705e-25)
(1.00048 -0.000239259 -5.05219e-23)
(1.00008 -1.47203e-05 1.21713e-23)
(0.996784 -0.000656301 7.53178e-22)
(0.994227 -0.00888686 8.42278e-22)
(0.999984 -2.77517e-06 2.18677e-25)
(0.999002 -0.000240642 2.30339e-23)
(0.980123 -0.017226 1.05886e-21)
(0.954791 0.0146526 1.49117e-20)
(1.01073 -0.0215247 -1.25285e-22)
(0.993532 -0.0116605 1.35254e-21)
(0.96612 0.055014 6.44002e-21)
(1.00099 0.0330409 2.13888e-20)
(1.06166 -9.59879e-05 -2.92638e-21)
(1.17489 0.0102707 -1.23902e-21)
(0.944861 -0.00487815 4.68196e-21)
(1.00467 -0.00387499 -3.60639e-22)
(1.00814 0.038835 -1.18339e-21)
(0.989307 -0.00220403 -1.65531e-21)
(1.03644 0.0883919 5.034e-22)
(1.0096 -0.0477338 1.45071e-23)
(1.03824 -0.10959 -1.60627e-21)
(1.07879 0.0749311 7.73488e-21)
(1.03865 0.0934373 -1.43476e-20)
(0.965292 -0.0258162 5.09516e-21)
(1.03832 0.00782796 -5.46076e-21)
(1.08919 0.120229 1.92481e-20)
(1.04859 0.089611 2.10168e-20)
(1.02199 -0.00193876 3.11615e-21)
(0.997201 -0.00141427 1.64169e-22)
(0.996095 -0.00218343 1.43604e-22)
(0.999917 -2.13943e-05 -4.84487e-24)
(1.01642 -0.0264291 2.46231e-22)
(0.989005 -0.00185138 3.89591e-22)
(1.00095 -0.00228617 -9.97005e-23)
(0.999901 -2.35073e-05 -9.06514e-24)
(0.998504 -0.000677049 7.15886e-23)
(0.981521 -0.0771043 -3.24563e-21)
(1.10001 0.0328561 3.31638e-21)
(0.983311 -0.00596981 -2.15433e-21)
(0.999524 -0.0119988 4.87349e-22)
(0.996457 -0.000682978 -4.02149e-22)
(1.05781 -0.0404143 9.73661e-23)
(0.993307 -0.00148948 -1.30426e-21)
(1.00232 -0.00698599 3.08077e-22)
(1.10114 0.114916 3.07713e-21)
(0.998281 -0.000326921 -5.15309e-22)
(0.99998 -4.35549e-05 -1.80852e-24)
(0.999951 -0.000173182 -1.09863e-24)
(1.00004 -0.000102161 1.11908e-23)
(0.97917 -0.00783568 9.90574e-22)
(1.02779 0.0205424 -1.1578e-20)
(0.996231 -0.000523588 1.56065e-23)
(1.02132 -0.00855382 2.83102e-21)
(1.02478 -0.128485 3.34053e-21)
(0.995441 0.0706535 -6.19317e-22)
(1.00386 -0.0070978 2.63458e-22)
(1.0063 -0.00434096 -1.17917e-22)
(0.99525 -0.00246989 -5.24084e-22)
(0.99282 0.0494863 -3.2604e-20)
(0.999028 -0.000113866 7.32538e-23)
(1.03563 0.115936 -8.22932e-21)
(1.00887 0.0163948 -1.29266e-20)
(0.999892 -2.89839e-05 1.06207e-23)
(1.00769 -0.04867 -1.37414e-21)
(0.99691 -0.000757065 -3.71299e-22)
(0.993761 -0.0601615 4.78889e-21)
(1.00051 -0.000122882 5.04159e-23)
(1.05716 0.00249202 4.09022e-21)
(1.00704 -0.0153284 -1.17313e-23)
(1.00586 -0.00379305 6.10633e-23)
(0.999216 -0.00015423 -1.45012e-22)
(1.06557 0.0392168 6.14335e-21)
(1.04296 0.0348263 1.94494e-21)
(1.01066 -0.0643119 2.22951e-21)
(0.980999 -0.0200901 -2.03901e-22)
(0.99802 -0.00355128 -1.95289e-22)
(1.00165 -0.0388548 -2.54123e-21)
(1.13459 0.0496624 -6.66044e-21)
(0.893447 0.0399829 -2.60312e-20)
(1.08241 -0.0722908 -1.04929e-21)
(1.00491 -0.00738825 -1.26347e-22)
(0.999993 -2.18715e-06 -4.95554e-26)
(0.98733 -0.00484053 -1.72003e-21)
(0.997895 -0.00036522 4.78965e-22)
(1.02423 -0.0163046 1.67625e-21)
(1.00855 -0.104001 -1.49599e-21)
(1.18208 -0.00778107 -6.51173e-22)
(0.986467 0.0667646 -4.01964e-20)
(1.05088 0.0333101 8.2231e-21)
(1.11565 -0.100666 2.07619e-21)
(1.06743 0.0748734 3.25347e-21)
(0.999158 0.0334645 3.87244e-20)
(1.01838 -0.00255858 2.30689e-21)
(1.00112 -0.00219025 2.27631e-22)
(1.02235 0.0528232 7.11542e-21)
(0.999214 -0.00193859 1.26573e-22)
(0.999832 -0.000157834 1.00031e-23)
(0.982454 -0.00202908 6.06414e-22)
(1.00009 -3.27649e-05 3.05583e-24)
(1.12304 -0.119652 1.37476e-21)
(1.0041 -0.0170479 -4.5224e-23)
(0.986305 -0.0341111 2.63389e-21)
(1.00174 -0.00151337 1.13927e-22)
(1.06229 0.0659311 1.71776e-20)
(0.998351 -0.000306044 -4.25202e-23)
(0.999977 -3.47353e-05 -2.36467e-25)
(1.03176 -0.114427 1.79832e-21)
(1.00154 -0.00126152 -6.64923e-23)
(1.09905 -0.00465633 -8.7725e-22)
(0.955222 -0.0153284 9.55688e-22)
(0.934029 -0.0186619 4.90738e-22)
(1.18794 0.0508698 -4.72376e-22)
(1.02312 0.0162799 -4.34969e-21)
(1.0197 0.00459672 2.67819e-21)
(1.01852 0.00428334 -1.08835e-21)
(0.99981 -4.22484e-05 3.58265e-24)
(1.1074 0.0321863 2.61323e-21)
(1.07197 0.0139438 4.21241e-21)
(0.999532 -0.000617399 3.34633e-23)
(0.984086 -0.00647413 2.50328e-21)
(1.00057 -0.000194102 -5.61031e-23)
(1.01181 -0.0188228 -1.34018e-21)
(1.0093 -0.0270097 -1.79301e-23)
(1.00421 -0.00131984 2.52474e-24)
(0.999306 -0.00122934 -1.5234e-22)
(1.11464 0.0848996 -1.57725e-20)
(0.99998 -2.1168e-05 -3.33549e-24)
(1.0002 -9.98478e-05 -1.52371e-23)
(1.00192 -0.000983278 -4.58929e-24)
(0.978217 -0.00337576 1.68283e-21)
(1.01793 -0.0102831 2.02349e-21)
(0.985245 -0.0287381 -3.78551e-21)
(0.973015 -0.00525777 -9.79613e-22)
(1.01588 -0.0606865 1.22498e-21)
(1.04344 -0.137169 -3.50946e-21)
(1.02643 -0.0284938 5.9172e-22)
(1.02645 0.0534562 -4.08014e-20)
(1.19703 0.0130365 6.25846e-22)
(0.993832 -0.00250145 -6.82612e-23)
(0.919706 0.0746743 4.30479e-20)
(0.978604 -0.0562611 5.55075e-21)
(0.993967 -0.00947265 2.65496e-22)
(0.973696 -0.00434705 1.61722e-21)
(0.998341 -0.0175603 -1.36211e-22)
(0.97961 -0.00247887 2.57068e-21)
(0.990522 -0.00383857 -4.9914e-22)
(1.0255 -0.0119887 -3.07526e-21)
(1.12357 -0.0520954 1.86626e-22)
(0.999976 -4.11371e-05 -2.77013e-25)
(1.02178 -0.0114092 -3.31417e-22)
(0.999909 -2.87104e-05 -5.12523e-24)
(1.00871 0.0808976 8.04806e-21)
(1.1358 0.0720025 1.17026e-20)
(0.995513 -0.00188248 1.64489e-22)
(0.986482 -0.00174673 -2.29164e-21)
(0.999824 -5.14801e-05 -2.64381e-23)
(0.997561 0.0455998 2.44347e-20)
(1.02731 0.0922007 1.89411e-20)
(1.10971 0.0241081 -4.00361e-21)
(1.12063 0.10944 -1.32118e-20)
(0.978708 -0.0597638 -2.35178e-21)
(0.998657 0.0115823 -3.63424e-20)
(0.999942 -0.000126085 4.40631e-24)
(1.04577 -0.0242368 4.24514e-21)
(0.982098 -0.00154749 -9.50047e-23)
(1.08587 0.0635294 -3.66801e-21)
(0.942409 0.0511657 -3.37701e-20)
(1.13823 0.0429792 8.57741e-21)
(1.04593 0.0275667 1.38809e-21)
(1.00018 -0.0118678 -7.10375e-23)
(0.999815 -7.95361e-05 -2.4378e-23)
(1.12283 0.0952051 5.49691e-21)
(1.18995 -0.0302252 -9.94503e-24)
(0.995784 0.0508709 -7.9489e-22)
(1.09209 -0.00591539 7.36638e-21)
(1.02913 0.0435087 1.20169e-20)
(0.993445 -0.00224053 -2.31691e-22)
(0.992409 0.0669497 1.0959e-20)
(1.03102 0.0877438 6.72028e-21)
(0.991618 -0.00322093 -1.39838e-21)
(0.993006 -0.00300724 -5.178e-22)
(1.13328 0.0859859 2.66583e-22)
(0.931398 -0.017313 -6.61063e-21)
(0.999921 -0.00014754 -6.99379e-24)
(0.987957 -0.00522382 2.21206e-21)
(0.937104 -0.0242373 4.83137e-21)
(0.991867 -0.0749752 -6.90957e-22)
(1.00887 -0.00244692 -2.02854e-21)
(1.00761 -0.0053404 1.34828e-22)
(0.999885 -0.00018287 -1.35982e-23)
(1.02907 0.0972724 -2.84846e-20)
(1.00054 -0.0106171 1.21274e-23)
(0.999904 -5.60908e-05 4.52534e-24)
(1.02318 -0.0562503 1.08399e-21)
(0.999543 -0.000404021 2.97467e-23)
(0.999794 -7.33282e-05 1.8183e-24)
(1.00513 -0.0113463 -1.51136e-22)
(1.05208 0.0655438 2.31984e-20)
(1.02329 -0.102182 2.50313e-21)
(0.958177 0.0515402 1.99156e-20)
(1.00006 -1.11821e-05 -8.62918e-24)
(1.05674 0.0690663 -2.42676e-20)
(1.01572 -0.0484218 9.4939e-22)
(0.999931 -0.000177167 -2.00231e-24)
(1.00002 -5.46568e-06 -2.79963e-24)
(1.00322 0.0106682 -2.14067e-21)
(1.04797 0.0565701 8.62979e-21)
(0.996378 -0.00230351 1.42703e-22)
(1.04419 0.0439666 -1.11636e-20)
(1.00003 -1.83828e-05 2.05949e-24)
(1.04449 0.0487869 -1.55376e-20)
(1.14829 -0.124686 2.9521e-21)
(0.991153 -0.00288522 1.53987e-21)
(0.999235 0.0182404 -4.98001e-20)
(0.978874 -0.0469613 3.68994e-21)
(1.12453 0.103826 1.30404e-20)
(0.974944 -0.00436484 9.74999e-22)
(1.04845 0.0514745 2.02225e-20)
(1.0525 0.0595657 -6.23633e-21)
(0.984905 -0.0079677 3.59783e-21)
(0.980125 -0.00981251 -2.66144e-21)
(0.995523 -0.00941794 7.78129e-22)
(0.997421 -0.00068617 -1.21282e-22)
(0.99982 -0.0001774 2.79178e-23)
(1.00035 -0.0101079 -2.14229e-23)
(1.03997 0.0833112 -3.39676e-21)
(0.999974 -3.22245e-05 8.71472e-25)
(1.03985 0.0419965 1.47726e-20)
(1.0369 -0.101423 3.70052e-21)
(1.00519 0.0516824 9.62814e-21)
(1.0397 0.0378867 -1.67776e-20)
(0.934418 -0.0227372 -5.92675e-22)
(0.963963 0.0658783 -4.18304e-20)
(0.998573 -0.00107715 1.04021e-23)
(1.01601 -0.0242935 5.99179e-22)
(1.05364 -0.0721296 7.54461e-22)
(0.980519 -0.00232088 -1.52505e-22)
(0.994204 -0.00315421 6.88796e-22)
(1.01322 -0.0499279 -8.80303e-22)
(1.05156 -0.0162413 -4.41801e-22)
(0.925732 0.0463057 5.28269e-20)
(1.00004 -1.87867e-05 9.65242e-24)
(0.998318 -0.00115073 1.37857e-22)
(1.02166 -0.0720441 4.30536e-23)
(1.00002 -4.52065e-06 3.54235e-25)
(1.00913 0.0864501 3.95498e-21)
(1.00154 -0.00108129 0)
(1.00001 -5.56185e-06 2.7779e-25)
(1.00017 -7.99738e-05 3.58029e-23)
(1.00038 -0.000103629 7.11944e-25)
(0.98684 -0.0194413 2.59778e-21)
(1.02126 -0.015462 -1.21248e-21)
(0.998641 -0.000830232 2.16118e-22)
(0.999924 -1.51839e-05 9.56176e-24)
(0.993806 -0.0029582 3.83178e-22)
(1.00444 -0.0118571 -1.161e-22)
(0.998067 -0.110964 -4.09774e-21)
(0.939998 -0.00766789 4.74868e-22)
(1.01722 -0.00914936 3.50033e-21)
(0.999975 -2.4934e-06 2.79862e-24)
(1.10308 -0.144287 4.40258e-21)
(0.988157 -0.00362657 -8.86974e-22)
(1.12089 0.0780488 -9.5114e-22)
(1.00033 0.0165368 -7.02986e-21)
(1.00116 -0.00329787 5.3745e-23)
(1.10957 0.0681368 -1.49168e-20)
(1.00014 -8.86438e-05 -3.54346e-26)
(0.98874 -0.00407241 2.61159e-23)
(1.02156 0.000845797 -5.56867e-21)
(0.994229 -0.00358363 -2.82144e-22)
(1.05347 0.0777864 -1.38097e-21)
(0.98866 -0.006365 -1.66723e-21)
(1.04696 -0.0220333 -3.58289e-21)
(1.02236 0.00183552 -5.97462e-21)
(1.05555 0.0354198 -3.53295e-21)
(1.00725 -0.0140961 -5.86654e-22)
(0.991019 -0.00412798 4.14899e-23)
(1.0734 0.0654704 1.09021e-20)
(0.985536 -0.0826022 -3.72217e-21)
(0.999109 0.0850549 3.29822e-20)
(0.992083 -0.00464445 -1.61411e-21)
(1.05615 0.100299 -1.47656e-22)
(0.992065 -0.00407778 4.31087e-22)
(0.998985 -0.000484025 -1.40171e-23)
(1.04529 0.0248943 3.85724e-21)
(1.01483 -0.0278446 -1.71791e-22)
(1.03269 0.00288394 8.46619e-21)
(1.00156 -0.000793622 7.3784e-23)
(1.00001 -3.99559e-06 1.2802e-25)
(1.01095 -0.126183 1.47105e-21)
(1.09953 0.108999 -1.73913e-20)
(1.00139 -0.003196 -7.10882e-23)
(1.1179 0.0698137 1.48451e-21)
(0.989288 -0.00592546 -1.08876e-21)
(1.09454 -0.151038 -1.48546e-21)
(1.04469 -0.037292 1.10857e-22)
(0.984979 -0.0305701 2.1234e-21)
(0.998533 -0.000943768 -9.11881e-23)
(0.992278 -0.00102446 -3.26444e-22)
(0.978934 -0.0708732 -2.28125e-21)
(0.97293 -0.00946646 3.70143e-21)
(0.991563 -0.00380533 1.14363e-21)
(0.999872 -0.000411713 1.18056e-23)
(0.99299 0.0897968 -4.01883e-21)
(1.10666 0.0605925 9.16164e-21)
(1.02275 -0.00938704 -1.07254e-21)
(0.999825 -0.000137341 1.85092e-23)
(1.02902 0.0828512 -1.28475e-20)
(1 -2.22655e-05 7.54194e-25)
(0.999838 -0.000121766 3.64969e-23)
(1.09871 0.0593286 7.80425e-21)
(1.01064 -0.0232609 4.10637e-22)
(1.10818 0.0984911 1.45572e-20)
(1.02145 -0.00285593 2.36313e-21)
(1.0159 -0.011592 -2.52912e-22)
(1.09107 -0.0591404 2.24898e-22)
(1.05886 -0.125103 3.56804e-21)
(1.18792 0.0433934 -2.03788e-21)
(1.00113 -0.000789769 -1.61505e-22)
(0.95709 -0.0166865 -3.77867e-22)
(0.999984 -5.35353e-05 -5.04951e-25)
(1.00481 -0.0104621 1.05223e-22)
(1.05696 0.0746262 8.69324e-21)
(0.985713 -0.00744944 2.5089e-21)
(0.997569 -0.00137668 1.92077e-22)
(1.01555 -0.0384447 -3.86403e-22)
(0.998292 -0.00101639 1.32173e-23)
(0.999658 -0.00101077 3.84427e-23)
(0.919475 0.0107291 9.37319e-21)
(0.991605 -0.00500772 -9.1475e-22)
(0.999539 -0.000678519 -1.16205e-22)
(0.999983 -6.98715e-07 -5.57016e-25)
(1.01585 0.00560627 1.16258e-20)
(0.97567 -0.0260531 -5.58886e-22)
(0.999717 -0.000513513 3.38488e-23)
(0.997574 -0.000794799 2.47416e-22)
(1.0214 0.0183476 4.72605e-21)
(1.06183 0.009874 9.11807e-22)
(0.965041 -0.0235655 -3.15828e-21)
(1 -1.39901e-05 5.09083e-25)
(1.00168 0.0136788 3.08012e-20)
(0.988029 -0.0168964 -1.77985e-21)
(1.06224 0.0601259 -1.7284e-20)
(1.01151 -0.0012822 -3.05729e-21)
(1.01322 -0.00112489 6.96278e-21)
(0.971345 -0.0118017 5.04479e-21)
(0.999915 -6.0484e-05 -2.94243e-24)
(1.0215 0.000108528 -1.06298e-21)
(1.06623 0.00748382 -1.35907e-21)
(1.1663 0.0484397 6.09114e-21)
(1.04275 -0.0961782 6.80348e-22)
(1.0372 0.0785949 1.02554e-20)
(1.00534 -0.00151898 -4.91592e-23)
(1.07939 0.0688984 -1.49883e-20)
(1.00041 -0.013828 -1.29225e-22)
(1.01931 -0.0542181 -2.29522e-21)
(0.999659 -0.000153706 -3.73417e-23)
(1.00353 -0.0181248 8.28295e-23)
(0.99991 -0.000397772 3.7607e-24)
(1.04176 0.0299511 -1.12694e-20)
(1.0723 0.108243 -3.07462e-20)
(0.998709 -0.00111432 7.27253e-23)
(1.01698 -0.0115617 8.1858e-23)
(0.984344 -0.00450812 8.63386e-22)
(1.04585 -0.0834673 2.20156e-22)
(1.04079 -0.0889647 -1.8541e-21)
(0.998382 -0.000802451 1.44749e-22)
(1.04247 -0.02472 -1.49595e-21)
(0.926936 0.00300135 -1.5862e-20)
(1.16238 0.0311279 4.50609e-21)
(0.999953 -0.000152544 9.09724e-24)
(1.05753 0.00726738 -3.33527e-21)
(0.997582 -0.00854832 -3.71924e-22)
(0.993793 0.00270776 3.4306e-20)
(0.989281 -0.00518738 1.5173e-21)
(0.99716 -0.0256089 -4.35362e-22)
(1.01767 -0.0338435 -6.43707e-23)
(0.995834 -0.0265415 -7.392e-23)
(0.99931 -0.0203827 -9.4111e-22)
(0.993394 -0.00321894 2.64218e-22)
(0.99961 -0.0137125 5.15423e-22)
(1.00184 -0.00592703 -8.21997e-23)
(1.05305 -0.019733 9.76627e-22)
(1.00009 -2.70068e-05 -2.34211e-23)
(1.18625 -0.0895948 -6.26883e-22)
(1.1477 -0.0064229 1.06384e-21)
(1.0187 0.0948776 2.31342e-20)
(0.966826 -0.0222522 4.80633e-21)
(1.10035 0.0944135 -7.38042e-21)
(1.00173 -0.000631124 2.59469e-22)
(1.0686 -0.0703517 -6.90959e-23)
(1.00577 -0.0367651 -9.26436e-22)
(1.01873 0.0320104 1.3393e-20)
(0.993864 -0.00387943 6.53128e-22)
(1.0001 -0.000169368 1.56144e-23)
(0.98869 -0.0175584 2.3219e-21)
(0.996312 -0.00914621 -2.94788e-22)
(1.03962 -0.0226478 2.95566e-21)
(0.974369 -0.00722015 -3.12744e-21)
(0.979045 -0.00916745 8.76768e-22)
(1.11939 -0.0317395 8.06116e-22)
(0.986834 -0.00289995 -1.4964e-21)
(1.01535 -0.0355564 1.85014e-22)
(0.993621 -0.0793667 2.60183e-21)
(1.00001 -7.44422e-06 2.38781e-25)
(1.05397 -0.0125368 5.23659e-21)
(0.994911 -0.0711467 -6.99839e-21)
(1.10584 0.0818538 7.1027e-21)
(1.0916 -0.0659764 -6.79747e-22)
(1.03135 0.00239458 7.21758e-22)
(1.02974 -0.0983477 -4.95881e-21)
(1.03719 0.103638 6.31643e-21)
(1.03365 -0.0330886 1.20464e-21)
(0.970026 -0.0109207 -2.98538e-21)
(1.01565 -0.0449605 -1.00175e-21)
(0.964179 0.00446989 1.52144e-20)
(1.15015 -0.0931282 3.0642e-22)
(0.988663 -0.00482515 -4.60616e-22)
(1.03259 -0.123396 -3.88318e-22)
(1.02782 -0.0633961 1.40415e-21)
(1.04654 -0.11278 -7.7246e-22)
(1.0433 -0.077083 -1.64862e-21)
(1.07292 0.0594275 1.37978e-20)
(0.997591 -0.00157699 1.27829e-23)
(1.00729 0.0375715 4.95943e-21)
(1.00698 -0.00139903 3.64871e-22)
(0.99966 -0.000518202 -4.8769e-23)
(0.998955 -0.0022271 3.48772e-22)
(1.05345 0.00133857 -1.277e-21)
(0.886445 0.00379905 4.52297e-22)
(1.00153 -0.00631847 4.75557e-23)
(1.01917 -0.0503207 3.3741e-22)
(1.02145 0.020786 -7.85915e-21)
(1.00002 -7.30105e-06 -4.86254e-25)
(0.981151 -0.00921148 2.12105e-21)
(1.02024 -0.00876716 2.5172e-21)
(1.07083 -0.0373218 2.18084e-21)
(1.00704 -0.000840829 2.04327e-21)
(0.998621 -0.00193803 6.4806e-23)
(0.986446 -0.0388698 7.39376e-23)
(0.998184 -0.00822666 -1.01805e-22)
(1.00003 -5.04217e-06 5.33638e-24)
(0.980949 -0.0459489 -6.20471e-21)
(1.04537 0.0730606 -3.65575e-21)
(1.01918 -0.0295662 1.68162e-22)
(0.985065 -0.00509193 -1.62371e-21)
(1.00159 -0.000366628 -9.35154e-23)
(1.02416 0.0228303 1.03688e-20)
(0.999668 -0.000611088 -2.25876e-23)
(0.998914 -0.000633018 -7.1633e-24)
(0.999688 -0.000168893 -3.40277e-23)
(0.999359 -0.00207472 -8.65442e-23)
(1.15408 0.0495162 4.9087e-21)
(1.02754 -0.033658 1.70943e-21)
(1.00779 -0.0176907 2.18148e-22)
(0.984041 -0.00749928 -7.39799e-22)
(1.00004 -4.9623e-05 5.20574e-24)
(1.07685 -0.118681 4.47202e-21)
(1.19188 -0.0152611 1.51105e-22)
(1.08301 -0.128024 -2.16735e-21)
(0.998419 -0.0325578 -8.0716e-22)
(1.01241 -0.00858407 2.34301e-21)
(0.999815 -9.63187e-05 1.53922e-23)
(0.989989 -0.0114413 -9.29543e-22)
(0.962681 -0.0475661 -3.75723e-21)
(1.15219 0.0331662 3.69888e-22)
(1.0037 0.0505084 -3.47947e-22)
(0.999017 -0.00313389 7.02452e-23)
(0.948733 -0.0338551 2.17534e-21)
(0.99587 -0.00273634 -6.22283e-22)
(1.03165 -0.0306225 -2.86164e-22)
(1.08419 0.0567119 1.50125e-21)
(1.0004 -0.000131523 -7.88667e-23)
(0.999865 -0.000205591 -5.43767e-24)
(1.13135 0.091973 1.56139e-21)
(1.14723 0.0157274 -7.29041e-22)
(1.01703 -0.0144942 8.76428e-22)
(0.997429 -0.00172378 3.27393e-22)
(0.998173 -0.000446533 -3.23893e-23)
(0.969485 -0.0481539 9.14402e-22)
(0.99985 -0.000344885 -1.83872e-23)
(1.01719 -0.0312456 5.41152e-22)
(0.98805 -0.00144041 3.10844e-21)
(1.00061 0.0186554 -5.8263e-21)
(1.04893 0.077667 -1.87423e-21)
(1.06356 -0.0650442 2.63451e-22)
(0.99882 -0.0714198 2.61719e-21)
(1.00564 -0.00147312 1.02379e-21)
(1.0139 -0.0233586 -8.97719e-22)
(1.13935 0.000249273 3.99586e-21)
(0.9987 -0.0795967 -1.6092e-21)
(1.01844 -0.0431566 5.43289e-22)
(0.999999 -6.82142e-06 9.21009e-27)
(1.12692 -0.0137693 2.47976e-21)
(0.976401 -0.00293885 2.92632e-22)
(0.99824 -0.0885716 3.22119e-21)
(1.0186 -0.027235 -1.47876e-21)
(0.959163 -0.0157743 -6.74926e-22)
(0.999652 -0.000299603 -1.66406e-23)
(0.997379 -0.00129285 -1.45918e-22)
(1.03598 0.036019 1.29439e-20)
(0.972843 -0.0110395 -1.13568e-21)
(0.999986 -1.69516e-06 5.95034e-25)
(0.997488 -0.000526399 -3.41916e-22)
(1.14703 -0.0791578 -3.32091e-21)
(0.999854 -4.6448e-05 3.86653e-23)