/*--------------------------------*- C++ -*----------------------------------*\
  =========                 |
  \\      /  F ield         | OpenFOAM: The Open Source CFD Toolbox
   \\    /   O peration     | Website:  https://openfoam.org
    \\  /    A nd           | Version:  7
     \\/     M anipulation  |
\*---------------------------------------------------------------------------*/
FoamFile
{
    version     2.0;
    format      ascii;
    class       volScalarField;
    location    "19";
    object      p;
}
// * * * * * * * * * * * * * * * * * * * * * * * * * * * * * * * * * * * * * //

dimensions      [0 2 -2 0 0 0 0];

internalField   nonuniform List<scalar> 
115546
(
-0.00152273
-1.46444e-05
-0.0175701
-0.00435456
0.00228401
-0.00104168
0.369519
-0.0397836
-0.000328968
-1.54121e-05
-0.000351703
0.000311866
-0.00185056
-0.0716115
-0.00032922
-0.0677596
-9.83242e-05
-0.000466009
0.431014
0.00236107
-0.0403713
-0.00649581
-0.000528651
-0.00683705
0.569793
0.0986789
-0.0401631
0.0297016
-1.26362e-05
0.422937
-0.000188066
0.114353
0.00796549
-0.0169981
0.577667
-0.00227218
0.369616
-9.50351e-05
-0.1758
0.256674
0.115234
-0.000471041
-0.0235561
-0.00227619
-0.0539875
-0.071616
0.00497361
0.00805772
-0.000330484
0.000294953
2.16876e-06
-0.00410873
0.125744
-7.98565e-06
-0.00310402
0.127258
0.102548
-0.0492579
0.027133
-0.0149045
-5.39829e-05
-0.00702307
-0.00101701
-0.0220886
-8.6216e-05
0.00147835
-0.00151515
0.0779629
-0.0362281
0.0943019
0.285515
0.0963794
0.25342
-0.0462387
-0.0198691
-0.033216
0.0130856
-0.000830973
0.405966
0.0601
0.0617197
-8.18601e-05
-0.0915345
0.0289918
-0.00406602
0.000302029
-0.0234403
-1.20459e-05
-0.0351946
-2.15361e-06
-0.102076
-0.0136172
-1.44205e-05
-0.00171681
-0.000572485
0.000595963
-0.0005251
-0.091413
-0.0734122
-0.0350761
-5.62429e-05
0.0367474
0.00108546
0.00372935
0.285595
-0.047944
0.275796
-0.0573713
-0.0161397
-3.44117e-07
0.059161
-0.000519548
0.0155239
-0.0102716
0.711695
-0.00252899
-0.000354688
0.262856
6.08396e-05
0.093656
0.265979
-0.0694577
-0.0173058
0.0342788
-2.54877e-06
0.420544
-0.00693746
0.588606
-0.00218641
0.0585098
-0.00542646
0.000430804
0.240437
0.000301453
6.12481e-05
0.437827
0.548969
0.00777288
-0.00295095
-0.00694135
0.260174
-0.00178378
0.000126454
0.131737
-0.00365431
2.69788e-06
0.0120328
-0.0070589
0.0790534
0.00123959
-0.0477539
-0.0552713
-0.0135117
-2.6936e-06
-0.00404108
0.0104087
1.49623e-06
0.0283663
-0.0315961
-0.0708881
-0.0327307
0.011924
-0.000998215
-0.0341084
-0.0115443
-0.00110235
0.0415241
-0.0236324
0.0278626
-0.0126108
-0.0140753
0.00522889
-0.143202
-0.0711657
-0.0294586
0.0735336
-0.0711197
-0.00265946
0.00703128
-0.000344475
0.0188213
-0.0193136
0.447237
0.134098
0.276577
-0.000351088
-0.00476561
0.16174
0.0259762
-0.100393
-0.00259935
-0.00152429
0.458643
-0.02949
0.100713
-0.066563
-0.0713946
-0.0120945
-0.0316492
-0.0123185
0.143599
0.368951
0.02252
-1.17489e-05
-0.00461251
-0.0384811
-0.000770063
-8.26835e-05
0.0558678
-0.0299231
-0.0709841
0.273004
0.566906
-8.05938e-07
-0.0113129
-0.0298493
0.0399674
0.00594232
-0.0721
-0.000154365
-0.0369666
-0.0263871
-0.00103467
-0.0324216
-8.52612e-06
0.506388
0.000952484
-0.0329866
-0.0654432
0.513995
0.0340425
-0.04396
0.271659
-0.0278522
-0.0068158
0.144662
0.00068344
-0.000174014
-0.0268805
-0.00416657
-0.0849272
-0.00388478
-0.0713232
-0.0771575
-0.00227539
0.00118044
0.0966813
-0.0342822
-0.0232132
-0.064869
0.469183
-0.00156224
0.12413
0.000100543
0.594851
0.0193525
-0.00457431
0.0306662
0.000484128
-0.0415656
0.0196903
-0.0716434
0.13526
-0.173989
-0.016743
-0.00424918
0.0364208
-0.00216593
0.0304464
-0.00502491
-9.0437e-05
0.0269698
-0.000187557
-0.00370162
-0.00154506
-0.0245038
-0.0497724
-0.0289116
-0.003972
-0.0574167
-0.0345431
-0.0022437
0.000178004
-0.0376383
0.00016997
0.0153112
0.500982
0.116983
-0.0885354
-0.163709
-0.0501766
-9.03719e-06
0.0187616
0.269249
-3.19632e-05
0.0252708
-0.00162763
0.110132
7.95161e-05
-0.00582338
-0.0715309
-0.0299581
-0.125897
-0.00801598
-0.0413772
0.0673825
-0.00926999
-0.032661
-0.163499
0.00728584
-0.0032521
0.288292
0.275923
-0.0266548
-0.00200102
0.00133002
0.458496
0.00112729
-0.00663276
0.000914791
0.0137598
-0.000146651
0.0219234
0.707589
0.0804427
-0.0317745
0.0107918
0.105633
-0.0722051
0.0191927
-0.00324847
-8.84925e-06
-0.000318104
-0.00159115
0.665895
-0.00405047
0.0357825
-8.44546e-05
-0.00106244
-0.00476883
-0.0162142
0.0821467
-0.0537702
-0.0215081
-0.0112179
0.00229429
-0.00417622
0.607695
-0.0376922
-0.00323843
0.240263
0.170731
0.0195498
-0.00328433
-0.0130844
-0.000558703
-0.000961179
1.91546e-06
-0.00066786
0.0160985
0.166247
-0.0452
0.372485
0.670531
0.0102771
2.06987e-06
-0.0162586
-0.0222189
-0.000852581
3.29931e-06
-0.061414
0.144267
-0.0340436
-0.000736287
0.0424492
0.00523704
0.00106436
0.000289576
-0.00146165
0.0182416
-0.0442182
-0.0148401
-0.0105668
0.0155479
0.0154645
-0.000168541
0.267211
-0.0664171
0.00235952
-0.0314645
0.111811
0.223283
-0.0237588
0.0298078
-0.0259977
-0.0021439
-0.163804
0.000913349
-0.000196719
-0.022325
-0.034422
-0.00222071
0.383288
0.246446
-0.172132
-0.00865814
6.18987e-05
-0.00758862
0.0352812
-0.00783812
-0.0103145
-0.00330483
0.00241188
-0.00400778
-0.00412924
-0.00389406
-4.84482e-05
-0.103881
9.93393e-05
0.0151727
-3.04561e-07
-0.0715606
0.00042481
0.402586
0.277912
0.183456
-0.00821421
0.198797
0.101038
-0.00211988
0.00238866
-0.000153023
-0.00531489
-0.0321548
-0.00792141
-0.00785802
0.00170393
0.00041767
-0.000206021
0.00027652
-0.000874803
0.0596164
-0.000212421
-0.0228074
0.000158145
-0.0593834
0.00115335
-0.000180933
0.220889
0.0726961
0.292724
0.000105694
0.00020705
0.00248912
-0.0232392
-0.00658371
-0.0626258
-0.0339127
0.146519
-0.00933094
0.383038
0.00119478
0.00227717
0.341151
0.282937
-0.0418072
0.0035789
-0.0706908
-0.00936426
0.000106524
0.0150772
-0.0659642
-0.0275478
-0.0466946
0.000473895
0.0798598
-4.25278e-07
0.00365577
0.0361872
0.0428439
0.42437
4.99649e-07
-8.29652e-05
0.00253721
-0.0275594
-0.000659414
-3.11633e-05
0.0277763
0.604673
-0.00425667
0.273926
-0.0225554
0.48468
0.136779
-0.00396334
-0.0630858
-0.0630804
-0.00985037
-0.000193127
-0.00458912
-0.00165932
0.412869
-0.0272506
0.36738
-0.00985547
0.181297
-0.022547
-0.0158995
-0.0825439
0.147735
-0.00316636
0.000107965
2.43087e-05
-3.15498e-05
-0.00129954
-0.0535347
0.000423187
0.0323852
-0.000261914
-0.000262624
0.00292337
-0.00839278
0.00105823
0.000820031
-0.0260282
-0.00508333
-0.00531537
0.433385
-0.027499
0.00998248
-0.0141036
-0.0397162
-7.25675e-05
5.64106e-05
5.52525e-07
-0.0418838
-0.0627406
-0.0358461
5.5119e-05
-0.0170755
0.0838693
-0.0478802
0.01071
-7.91396e-05
-0.0319595
-0.0121
0.000206194
-4.08931e-05
-0.0334962
0.00246697
0.000551981
-0.0561276
0.000700697
-0.0596358
-0.0262362
-0.022477
-0.021194
0.00108034
-0.0441695
0.000483199
5.83251e-05
0.00640174
0.319153
0.510588
0.219062
-0.00136368
-0.0141054
0.24053
0.0189243
0.000422592
0.0478204
-0.0174507
0.0254413
-0.00451057
0.0726747
0.00147347
0.216627
0.000860054
-0.00652274
-0.0223473
0.262537
0.000470011
-0.0267323
-0.0615481
0.144421
-0.0240693
-0.00649755
-0.0588635
0.000145027
-0.170208
-0.00534693
0.0258515
-0.0229269
0.00380645
0.144959
0.249609
0.502481
0.198851
0.217245
-0.00771306
0.262212
0.0194176
0.266975
0.296812
0.000365507
-0.00163766
0.507706
7.37064e-05
-0.175769
-0.0239696
-0.0223618
0.00144612
0.0431578
-0.00160405
0.00243744
0.425458
0.571613
-0.000206909
0.000497135
0.0206031
0.000235171
-0.129519
0.284483
0.157195
-3.39737e-05
-0.0368234
-0.0298109
0.000914473
0.00270683
0.0953366
0.561996
0.000166902
5.89027e-07
0.264098
0.00243277
-0.00021156
0.0459581
0.00681907
-0.00400233
-0.00270984
-0.171984
-0.0189547
-0.00157471
-0.0341198
0.00051098
-0.000164168
-0.00225169
0.0145165
-0.000309764
-0.0260036
0.0011506
-0.023213
0.265713
-4.7182e-05
0.703091
-0.0196359
0.484391
0.0171531
-0.000670453
-1.45534e-05
-0.000520651
-0.0065213
0.131948
-0.00211286
-0.0163124
0.434768
-0.063591
-0.0639139
0.0196502
0.0260775
0.432499
-0.000612189
-0.0264564
-0.0227164
0.000387659
-0.00393127
0.00116971
-0.000685935
-0.0540969
0.622623
-0.0609693
-0.00250853
-0.0241743
-6.19323e-05
0.0520608
0.0956884
-0.0107206
8.08023e-06
0.271247
-0.0156515
-0.0723117
-0.00233328
0.0144121
-0.0371747
0.00654728
-0.0724529
-0.00113368
0.366714
-0.00495098
0.0986642
-0.0457589
0.0362151
-1.30458e-05
-0.036534
-0.0260986
-0.0271058
0.0448086
-0.0566433
0.000526257
-0.113824
-0.00169466
8.09647e-06
-0.00200155
0.000453975
0.567706
0.000397145
0.399733
-0.0247311
0.0347198
0.0040151
0.115237
0.005005
0.172656
3.51203e-06
-0.0177491
-0.00169872
0.0021521
-0.0303993
6.73335e-05
-0.0140753
0.54266
-0.0217024
0.000424273
-0.0720146
0.131341
0.444184
-6.23729e-05
-0.000380068
0.0213833
0.000323885
0.518275
-0.011396
0.139823
0.167522
0.000312797
-0.0878999
0.19674
-0.000165546
0.039379
0.504423
-0.00271972
0.000842098
0.000650241
0.00572421
-0.0222681
-0.00712702
0.356613
-0.00970912
0.634778
0.735624
-0.00336361
0.000168028
0.367302
-0.00400034
-0.0193848
0.000469277
0.163706
-0.0457292
0.603429
-0.0015843
0.000107487
-0.0156927
-0.0719273
-0.0365324
0.0279331
0.0250949
0.134001
-0.000247047
-0.063537
5.10262e-05
0.00225544
-5.95112e-07
-0.165866
-0.0424225
0.218747
-3.28271e-05
0.502073
-0.000545196
-0.00326014
-0.000772342
-0.0665105
-0.014001
0.0985829
-0.000200123
-0.0292267
0.0034386
-0.0145348
4.36382e-07
7.38664e-05
-0.000321521
-0.0431478
0.00224196
-0.00134722
-0.0347736
0.000215431
0.000532518
0.00138223
-0.000656886
0.238661
0.078124
-0.0984314
-0.028571
-0.0445995
-3.15575e-06
-0.0625
-0.0547856
0.00061281
-0.0357464
-0.00183571
-0.0391629
-0.120406
0.000837867
-0.00827495
8.95966e-06
-0.00649095
-0.000510065
0.252353
-0.00879966
0.000293239
-0.000230225
0.035867
-0.0503703
-0.00396247
0.000148151
0.360057
0.364941
0.00224935
0.117955
-0.0795191
-0.0647759
0.000177541
-4.41887e-06
0.314957
-0.0381086
0.000225915
0.0630363
-0.00110104
-8.91857e-06
0.0741671
-0.0661515
-0.0606517
-0.0678732
-0.0231036
-0.00750586
-0.0190218
7.42625e-05
0.188476
-0.00017138
-0.031754
0.0615887
-4.39265e-05
-0.0734489
-0.00486219
0.162076
0.000479785
-0.00988361
0.465737
0.0569995
-0.0308777
-0.0230431
0.274948
0.0426375
-0.0141382
-0.0341254
0.28096
-0.00149331
-0.000450919
-0.105017
-0.0110203
-0.0143041
0.659862
-0.00727619
-8.36788e-06
-0.184653
0.00343595
0.00769897
0.172273
-0.124525
0.00331136
-0.00248992
0.164901
-0.0236692
0.0742504
-0.00460082
0.131654
0.10013
-0.0307557
0.123708
0.242123
-0.000508765
0.0752564
0.567251
-0.103033
0.000666263
-0.0394531
0.156347
-0.00508413
0.0369647
0.270911
-0.00434135
-0.00215966
-0.0061983
-0.004687
0.0486884
0.0520735
0.000527369
0.433396
0.621514
-0.0388356
-0.00229343
0.0217257
-0.0456504
-0.0353272
0.254426
0.36196
-0.00251733
-0.0364031
-0.0454247
-0.000940285
0.0929157
-0.0671864
-0.00340433
0.0743445
0.000440382
0.173915
-0.0888658
0.143357
0.0387206
-0.163795
0.400767
-0.00162561
-0.0328972
-0.0668312
-0.000224321
-0.0253777
-0.0668421
-0.119695
-0.0439768
-0.00524065
-0.0148201
0.0286839
-0.129991
-0.000455183
-0.0146912
-0.0721548
0.211122
-0.0573875
-0.0606286
-0.0103937
0.00227417
0.216252
-0.0220908
-2.10506e-05
-0.00302209
0.00189787
-0.0139366
-0.0224532
-0.00213115
0.0815653
-0.17739
0.0202419
-0.0415386
0.0937644
0.0498247
0.00219879
0.0041399
-0.00440565
0.686116
-0.03149
2.5759e-06
-0.00335278
-0.000478327
0.363808
-0.0151861
-9.50759e-07
-0.00938485
-0.000982
-0.0395188
0.1383
0.0958499
-0.0682806
-0.0229631
0.00148147
0.462564
-0.0295481
0.107425
-0.00661718
-0.0928796
0.012423
0.00427095
-0.000196182
-0.0133908
-0.0002324
-0.0416188
-0.00133761
-0.10463
0.000114308
0.124101
5.92663e-05
-0.00311269
0.000161058
0.141429
-0.0249886
0.412251
0.0126837
0.117259
-0.135554
0.000673651
0.407498
-0.043564
-0.022983
0.746043
-0.000659602
-0.0103551
-0.165272
0.0397443
6.05693e-05
-0.00606393
0.00787221
-0.0407506
-0.0302254
0.503895
0.00345131
-0.169291
0.13773
-0.116369
0.00530189
0.00235153
-1.94705e-06
-0.000183652
-0.00209578
0.0330697
-0.00057399
-0.00359314
-0.00153104
0.439503
0.419673
-0.0308777
0.000132503
-0.0619579
0.0577203
-0.0766871
0.000127295
-0.0718507
-0.0441159
9.01354e-05
-0.00575141
0.0485638
-0.034225
-1.40761e-06
-0.062625
0.669191
-0.0588655
0.000419943
-0.0678784
0.0405446
0.000702304
0.000118087
-0.163523
-0.00220302
-0.12022
-1.97014e-06
-0.0100965
-0.0441445
0.604882
-0.0102674
0.00755578
-0.0235217
-0.000252427
0.141764
-0.000498276
0.0315119
0.153317
-6.83425e-05
0.0427173
0.00261052
0.60247
0.744894
0.0171007
0.544702
0.470196
-0.0610949
0.0257206
0.000304257
-0.0149183
-0.0511866
-0.00217789
-0.000203806
0.00532584
-0.000891673
-5.69824e-05
-0.0140373
-0.000755564
-0.0302545
-0.0649115
0.000159843
-0.000281882
-0.140356
0.000162994
-3.47783e-05
0.1367
0.0182995
-0.0274036
-0.00127469
-0.0674042
0.0175287
0.110316
-0.00300157
0.00535734
0.170978
0.0672841
-0.0437554
0.00296848
0.000893415
-4.63814e-05
-0.0305271
0.361286
0.0234267
-1.09128e-05
-0.16295
0.000142771
-4.43042e-05
0.134283
0.000898235
0.594351
-0.00211904
0.26981
-0.00449076
0.00524205
-0.00482721
-0.000232662
0.166858
-0.00104011
0.00219766
0.552259
0.504825
0.694433
-0.00266544
-0.143838
0.0972225
2.46938e-05
-0.0442346
-0.0056617
0.267704
0.338165
0.00420331
-0.0760304
9.8161e-05
0.0729853
0.000971376
-0.0104641
0.00742548
-0.00100034
-0.00476286
-0.0072369
-0.00388887
0.147174
0.139535
0.00303357
0.166112
-0.0325699
-0.17214
-0.00747228
0.0472873
-0.024848
0.690709
0.409658
0.0346355
-0.0224427
5.24634e-05
-9.83248e-05
-0.0298197
-0.0533217
-0.0289054
0.0648044
0.255494
-0.119015
0.132728
-0.000330516
0.0126237
-0.00646741
0.228192
-0.0699809
-6.66909e-05
0.172425
-0.000103012
0.000170608
-3.40691e-05
6.69775e-07
5.24124e-07
0.229501
0.00439284
-0.0267913
0.000205158
-0.15449
-0.0490016
0.424403
0.0031492
-0.000881679
-0.00341931
-3.41435e-05
-0.000710264
-0.0838107
0.0263048
0.161039
-0.00639918
0.138329
-0.022669
0.0110482
0.0316321
0.000885664
0.545246
7.74887e-05
-0.00378965
-0.000657054
-0.0227596
-0.0101849
0.23967
-0.00404282
4.45285e-05
-0.0689975
-0.00547678
0.254731
-3.23973e-05
0.000261473
0.000223173
-0.0365844
0.00354719
-0.0279298
-0.0674625
0.107984
0.412866
-0.00219594
0.000328462
0.00325292
-0.00155557
0.116837
-0.0537718
-0.00390164
0.0427922
-0.179947
0.000931884
-0.0692231
-0.00318541
0.00366605
-0.0485296
5.97639e-05
0.0359786
0.258535
0.386147
0.199426
-0.00023766
-0.141904
7.41497e-05
-0.0368075
-0.0371527
0.127736
-0.00993398
-0.107715
-0.0344628
-0.0354031
-3.74932e-05
-0.00985049
-0.0335952
-0.0992698
5.89339e-05
0.0968064
-0.000774442
0.32833
0.0600447
0.0185667
0.000137644
0.00104003
-0.00282283
3.49787e-05
0.119783
-0.0101921
-0.0958097
-0.0741177
0.06466
0.431518
-0.010798
-0.0344382
0.149708
0.0262523
-0.00138066
0.0213172
0.700557
0.00232842
0.0290646
-0.133708
-0.0042503
-0.0324066
-0.00350296
0.335044
0.000196489
0.133039
0.448557
-1.19374e-05
-0.0149486
0.000112552
0.105588
-0.0134105
0.0107878
-0.00694058
-0.00440383
-0.0323579
0.000312415
0.00121875
-0.0154534
0.0121137
-0.0032214
6.84794e-06
-0.00253016
-0.0356912
-0.0660706
-0.00424924
-2.68243e-05
0.0215885
-0.00137555
0.00117228
0.0351925
0.190977
-0.0209205
-0.0186184
0.128337
-0.000145951
0.000396959
-0.0367435
2.56527e-06
2.40085e-05
-0.0114213
0.144291
0.00227903
-0.00747665
-0.00261576
0.0261794
0.000152583
-0.000519457
0.000110721
0.104874
-0.00142693
-0.003907
0.0249775
-3.9496e-06
0.000501796
-0.000145712
0.226747
-0.00143042
-0.00648889
-8.7331e-05
-0.0599953
0.181127
-0.00295193
-0.100941
-5.00655e-05
-1.61079e-05
0.0123993
0.000380423
-0.000203663
0.411941
0.00668159
-0.00257442
-0.069005
0.000325268
0.000914361
-0.0107897
-0.000806245
-0.0011746
0.530514
-0.000297186
-0.0360095
0.283257
-0.000204108
-0.0338784
-0.000628473
-0.0265127
-0.0466828
0.0325719
-0.00785304
-0.000537682
-0.00682616
-0.0768365
-0.00267844
-0.00745918
0.00127418
-0.000972426
-8.72327e-05
-0.000289333
-0.0383294
-0.0280076
0.115632
0.00368906
-0.0149556
0.678693
0.130721
-0.0577803
-0.000276438
-0.0273638
-0.0369393
0.0539003
-0.053398
-0.0621216
0.106285
0.113257
-0.0184326
-0.0526926
0.41154
-0.0412323
0.000274997
-0.0683816
-0.0714811
0.00317088
0.00860538
-0.024644
-0.00159038
0.0367291
-0.0352193
0.360083
-0.0404862
0.366908
-0.044195
-0.00081223
0.00431292
0.000201379
6.786e-05
-4.33524e-05
0.212448
-4.97137e-05
-0.0323544
0.000934234
0.0128022
-0.0461028
-0.000488385
-0.00810662
-0.0340005
-0.000181921
0.195901
0.0078511
-0.00117086
-0.0325442
0.105254
-1.49877e-06
0.056821
0.000953223
0.260592
-0.000495961
-0.0451219
-0.033855
-0.00116022
-0.000871852
0.139366
0.225926
0.223924
-0.00576514
-0.035118
0.356969
0.084038
0.0102518
-2.80529e-06
0.129411
0.0240405
0.000556387
-0.0634281
0.440635
-0.0227124
0.000960022
0.625274
-0.000171156
-0.00490924
0.101997
0.239418
0.117978
0.116371
0.475537
0.335034
-0.000296075
-0.000761486
-0.00128026
-0.00117034
0.11728
-0.0322745
0.387346
-0.00500771
-0.00750234
-0.018242
-0.0594838
0.000761761
0.00121684
-0.00074753
-0.0412623
-0.000634063
0.0227851
2.62586e-05
6.01397e-05
0.000286985
-4.57352e-05
0.000913612
-0.0772507
0.00367191
-0.0904792
-0.100448
0.654489
-0.0442538
-9.616e-05
-0.00232596
-0.121244
-0.00115582
-0.00019184
-0.0150929
-0.0015155
-0.000637205
-0.00756745
0.0409191
-2.60021e-05
0.0214393
0.00800201
0.000395659
-0.000384858
0.00403422
0.0202762
-0.0415411
0.071357
-0.00665283
-0.0132645
0.000710458
-0.0455833
-0.00142913
2.78027e-05
0.000198803
-0.0045105
0.168788
-0.0932714
-0.00631505
-0.0107425
-0.0712789
-0.00058121
0.436893
-0.0121382
0.106082
0.000933932
-0.000731754
0.000147296
-0.0408142
-0.0700949
0.433274
0.463054
0.131742
-0.0148099
-0.0344923
-4.95739e-05
3.82303e-05
-0.00875031
-0.0980504
0.212074
-0.0958744
-0.0384217
-0.0354418
0.186434
0.0644702
-0.116713
2.19418e-06
0.112829
0.176588
0.013702
-2.07648e-05
-0.00885028
-0.00476747
0.221686
0.122564
0.00738327
0.000696759
0.676116
-0.0132204
-1.9436e-05
6.1041e-06
0.0236444
-0.0148343
0.0969396
2.46328e-05
-0.0741111
0.00317635
0.000122904
0.504795
-0.00507104
0.098316
-0.00955664
0.000951693
0.030799
-0.0727506
0.295723
-0.0224457
-0.0136502
0.526498
0.000908177
0.0300377
0.13166
0.384745
-0.00139834
0.108164
6.02032e-07
0.000667814
0.144641
-0.0114653
0.0169577
0.0559882
0.000383331
0.214101
-0.0663132
-2.92911e-07
-0.0622597
-0.0019084
-0.00748344
-0.00031037
-7.8459e-05
-0.0412519
-0.058726
0.00101123
-0.00395002
0.00246283
0.118709
0.405431
0.000230569
-0.00242621
-0.000560945
-0.04
-0.000346482
9.65614e-05
-3.60147e-05
0.408832
-0.00480395
0.00119318
-0.0294401
-0.032454
-0.0630644
0.409693
0.326232
0.232969
9.83945e-07
-0.159564
-0.0422348
-0.0084592
-0.0527398
-0.00145138
0.174351
-0.018183
0.0105454
-0.000858668
0.0310172
-0.0626654
0.0258675
3.21221e-06
0.0606533
-7.16973e-05
-0.000337496
0.0843163
-0.0017713
-0.035982
0.660489
-0.0105003
0.00174222
-0.00294944
0.15199
0.242689
0.427126
0.259846
-0.0644936
-0.00246165
-0.000948894
-0.00473005
-0.0312782
0.00320187
-0.000104519
-0.0268962
0.00225142
-0.026801
-0.0106554
-1.22191e-05
-0.0348075
0.020083
0.477105
0.136332
-1.44257e-05
0.0634674
0.000993389
-0.0606157
-0.0644824
-0.0126876
0.410899
-0.000642729
-0.0406494
0.0146654
-0.000554149
0.000180661
-0.0329295
0.126228
-0.0374208
-0.0389241
0.0442931
-0.0764672
-4.26581e-06
3.59793e-05
0.0383557
0.00920554
-0.0312708
-0.000945673
0.281726
-0.000177899
-1.65183e-06
-0.000988231
0.00378439
-0.0113936
-2.16374e-05
-0.0277839
0.0740395
0.150509
-0.00262548
0.361828
-0.0188756
0.152609
-0.0100913
0.0110357
0.00011574
0.0301066
0.0387347
0.0652545
0.584626
0.192247
-0.0100009
0.00333481
0.23034
-0.00948492
0.287568
2.78207e-06
0.10919
0.20357
0.471781
0.000284327
-5.01153e-06
0.317364
0.457108
0.118669
6.30314e-05
-0.135817
0.0802741
-0.00371597
-0.00152147
0.0234664
0.0293487
0.0110318
0.364775
-0.00237536
-0.042942
-0.00263442
0.0278072
-0.00158535
0.422395
0.11124
0.0357986
-0.000989918
0.107888
-0.0583853
0.012827
-0.0373834
0.000333204
-0.0345566
0.0205435
-0.00742996
-0.00294987
-0.0557201
-0.00840078
-1.40223e-05
-0.0873806
-0.00363655
0.000463537
0.0122779
-0.00200851
-0.00390141
0.0331416
-6.05544e-05
0.0470399
-0.0512224
0.32571
-0.000283239
0.628698
-1.73429e-05
-0.00798482
0.00863424
-5.99579e-05
-0.00669539
-0.00176189
-0.0644112
0.193347
-0.0229067
-0.0314488
-0.0433661
0.304235
-1.63179e-05
-0.104678
0.0456131
0.0105383
-3.43718e-06
0.670148
0.00784653
0.0180172
-0.00442259
-0.00179354
-7.53698e-05
0.328504
-0.00629543
0.137579
0.000293697
-0.0515952
-0.00140467
-7.25162e-06
0.338302
-8.91782e-05
0.172607
0.547349
0.297542
-0.00879434
0.157898
0.181073
0.283108
0.360307
0.223956
0.494464
-1.13248e-05
-0.0293531
0.169495
-0.00056137
0.286771
-0.0430215
-1.3367e-05
-0.000291266
-0.033809
0.632715
0.0322276
0.0072555
0.104822
-0.000316319
0.000150543
0.0105189
-0.0290787
0.0107281
0.265287
0.603495
-0.0242263
0.370315
-0.0411215
0.040615
0.4196
0.000222794
0.247121
-0.00646016
0.0351581
0.00220028
-0.0890383
-0.0118629
-0.0299579
-9.88897e-06
-0.0181397
-8.36795e-06
0.170761
0.630543
-0.164243
0.00114336
-0.0305372
-0.0374439
-8.35946e-05
0.00783331
-0.031178
0.0081734
-0.0260259
-0.0275321
-0.00080149
0.00123777
0.0511001
0.00025645
-0.0350814
-2.75398e-05
0.117774
-0.00156325
-0.0371048
0.000251164
-0.00629837
-0.0372284
-0.014232
-0.00436283
0.00105071
0.0721842
-0.0353063
-0.0685605
-0.000204598
0.0486146
0.0510508
-0.0511704
0.360658
-0.00759854
-0.0694881
0.0120342
-0.0045358
0.00898978
0.000111393
-0.117901
-0.022167
-0.00411259
-0.000199314
-0.00105148
0.102806
-4.37144e-07
-0.000573603
0.000140882
-3.63761e-05
-0.00241304
0.412138
0.70376
-0.000519234
-0.00159285
-3.65423e-05
-0.0542673
0.00459369
-0.010458
0.0305632
-0.00199014
0.137453
0.00421839
-0.00135016
-0.000727696
-0.00629996
0.00505386
-0.000385786
0.306958
-0.00204138
0.621814
-0.0240111
-7.13094e-06
0.107956
-0.00102259
-0.0282552
0.168021
-0.00396528
-0.0232104
0.594895
-0.040403
0.00353121
-0.048872
0.0574677
-0.00762205
0.0308943
-6.47328e-05
-0.0286841
0.00106716
0.446321
-0.00553396
-0.0315481
0.0313159
-0.007483
0.0321149
-0.00251031
-0.00643721
0.153474
0.00169304
-0.0997359
-0.00740016
-0.00228464
-0.000618014
0.00879738
-0.0427338
-0.00152062
-0.0478504
0.00805174
0.00118223
-0.0373051
-0.000436453
-0.000525755
-0.00201868
-8.87552e-05
-0.0657763
0.00163265
0.138649
3.93783e-05
-0.000709048
0.000114631
0.555994
-9.00871e-05
-0.0569525
0.0847644
0.156114
0.000518393
-0.00410613
0.00419458
0.00269475
-0.0159181
-0.0425907
-0.0370959
-0.0236015
-0.00653911
-0.00055564
0.114951
0.036596
-0.029315
-0.00134248
-0.155891
-0.0418693
-0.000217454
-0.00778287
0.0549459
0.594414
0.406902
-0.00390796
-0.107154
-0.0121443
-0.000648035
-0.000267792
-0.0265386
-1.23078e-06
-0.071249
-0.0258445
-1.38316e-05
6.40601e-05
-0.0446429
0.0149464
-0.0304044
0.0510107
8.68571e-05
-0.0424133
0.0218123
-0.0282874
0.000248627
-0.0408576
-0.000617103
0.206225
-0.00079035
-0.0500904
-7.69138e-06
-0.00184132
-0.0335899
-0.104817
-0.00696952
-0.0309283
0.000202103
0.057984
-0.0130584
-0.0284802
-0.0646676
0.00658229
0.0763716
0.63695
0.00846924
0.0573021
0.000583382
8.93328e-05
-0.000260008
-0.0356785
-2.96997e-05
-0.00155192
0.144291
0.551214
0.590553
-0.000953461
0.324531
-0.0070605
0.00109067
0.00598862
0.0330768
-0.020494
6.25516e-05
0.0518406
-0.00476924
-0.0951769
-0.0697324
-0.0712578
-0.02655
1.05412e-05
0.00132577
-0.00834905
0.216041
-0.0394208
-0.00929331
-0.0354383
0.584727
-0.00245516
0.150434
-7.2497e-05
-0.0358828
-0.00441279
4.58547e-05
0.00145179
0.0305608
-0.00407257
-0.0699459
0.0044821
0.0349782
0.40184
-0.00781928
2.29324e-06
-3.15611e-05
-0.0281508
0.0435729
-0.026798
-0.0101587
0.00175351
0.00078309
0.120551
-6.43906e-05
-0.00481058
-0.000970044
-0.00741088
-0.00334808
-0.00417707
0.132091
0.0119277
0.00769255
0.0336234
0.742723
-0.0651962
0.23299
0.134847
-0.0486988
-0.0526356
0.00671437
-0.0489815
-0.00586601
0.139444
-0.0167261
0.000113358
-0.00651912
-1.23038e-06
-0.062395
-0.00289936
-0.00216742
-0.00698722
0.294367
-0.00030338
-3.09549e-05
0.0839841
-0.111609
1.26726e-05
2.35363e-05
0.00167756
-0.13862
-6.16581e-05
-0.043366
-0.000561665
-0.0310144
-0.0313784
-0.00582875
-0.0107603
0.204787
-0.0403182
0.000295744
-0.000916146
0.279465
-0.00790434
0.018594
0.000108305
-0.023951
-0.0241722
0.000144983
-0.00136589
-0.0265148
0.00466871
0.419945
-7.07446e-05
-0.109985
-0.00102524
-0.000425636
-0.000532759
-0.00432751
0.204219
0.00550717
-2.09635e-06
0.149459
-0.012599
-0.000616739
-0.0945088
-0.00143571
0.0426609
-0.0519201
-0.000247906
-0.00193201
0.00594307
-0.0300279
9.08961e-05
-0.123725
-0.0293347
0.020594
-0.0297641
0.0138824
0.414045
-0.00748687
0.0515909
0.13257
-0.000633282
0.000634226
0.263644
8.52208e-06
0.7308
-0.00900428
-1.13499e-06
0.153811
0.196014
-0.150952
0.0290429
-0.0383499
0.0435483
-0.00621401
0.0133797
-8.22468e-07
-0.0080752
0.0672055
-0.0271127
-0.0161546
-0.0028431
-0.0492494
-0.00479992
-0.0030617
-0.000213445
0.0547066
0.581191
-0.0362472
-6.45489e-07
-5.95266e-05
0.00188004
-0.00177879
-0.124875
0.15386
-0.0516734
-0.0266819
-0.0692209
-0.0752077
0.557468
7.09853e-05
0.0257418
0.0078665
-0.0505765
0.00234752
0.0763697
-0.00281776
-0.00102155
-0.00834542
-9.23398e-05
-3.81747e-05
0.0582544
-0.00195194
0.279544
-6.52067e-05
0.0554113
-0.0100091
-0.0268433
-0.025503
-0.00700666
-0.0700477
0.0144143
-1.31374e-05
0.0865044
-0.0797061
-0.00108304
0.105264
-0.0511187
-0.0156672
-0.0335773
-0.168264
0.11086
-0.13592
0.0861176
0.00176525
-0.0231318
0.000220324
0.149675
0.0174343
-0.000296079
-1.54099e-05
0.119694
-0.00110937
0.0555616
0.257042
-0.125911
-5.62825e-05
-0.024043
0.433891
0.105583
-0.00653167
0.151725
0.127524
0.0512604
0.000435048
-0.00206197
0.0215824
0.195845
-0.0349171
0.00117086
-0.00104536
0.000104328
-0.0466724
0.00222589
0.0554912
0.0872297
-0.0218136
-0.0967018
-0.0359796
-0.0572176
-0.0236062
0.368381
0.0360017
-0.073942
-0.00152532
-5.31883e-06
-0.000169846
-0.0784166
0.00242409
-0.000303414
0.1307
0.136127
-0.0342514
0.115633
0.00682287
0.442058
-0.0015116
0.173566
-0.0547897
-0.000731753
-1.83565e-05
0.0387105
-0.0325051
-0.00104696
-0.0134202
0.236308
0.262027
-0.0185262
0.415067
0.181562
-0.032262
-0.0283402
-0.0448923
-0.00393119
0.147783
-0.0470798
-0.000388343
-3.90748e-06
-0.000890714
-0.0304008
-0.00562373
-0.0240158
-0.0432057
-0.076801
-0.00121707
0.459637
-0.00816936
0.250127
0.636472
0.161181
-0.0283159
-1.20282e-05
-0.0311735
0.00212464
-0.0082296
0.429002
0.120946
0.10997
0.56066
0.00804989
0.0437878
-0.0334706
4.53581e-05
0.339429
-0.00490881
-0.0392136
-0.0244401
0.0102458
2.3821e-05
-0.0491233
0.0806488
2.16316e-06
0.630146
0.0806623
-0.000466517
-0.000304273
-0.00132877
0.278123
0.0918686
-2.21515e-06
-0.00137913
0.000102019
-0.000251039
0.0019628
-0.00135443
-0.00786922
-0.00393212
-0.00218593
-0.00827111
-0.000543226
-0.000459571
0.0349892
-1.25882e-05
-8.17529e-06
-0.0254879
-0.028321
0.00471283
0.342793
-0.0167922
-0.000519144
-0.00822955
-3.80245e-07
0.00470342
-0.0475918
-0.069022
-0.0941178
-0.000411152
0.258574
0.0394679
0.145969
0.0175271
-0.00404966
-0.0215418
-0.0052211
5.91183e-05
0.0108302
-0.0859979
0.000308613
-0.0291337
-0.0249976
-1.27995e-05
0.666252
0.127289
-0.00122639
-0.0501769
0.172987
-0.0241795
-0.00987668
-1.49693e-05
-0.0317021
-0.0167264
-2.28862e-06
0.077838
-1.37955e-05
-0.00120172
-0.0377312
-0.0698687
-0.00557142
-0.00635854
-7.76383e-06
-0.0492172
0.00229009
0.159153
-0.0325299
-6.09738e-05
-0.00579636
-0.000992794
-0.0638878
-0.121961
-0.0608293
-0.00874378
-0.061994
0.118732
0.00137929
-3.58103e-05
-0.00295865
-0.0260641
0.0331337
0.513818
-0.0217187
0.709333
0.000418013
-0.038539
-0.0688314
0.329192
0.40876
-0.0105793
-0.00159866
-0.04262
-1.21988e-05
0.548743
0.279792
0.0936657
-0.0398696
0.0817179
0.114822
0.522699
0.210893
0.229667
-0.0512221
-0.0814826
0.255546
-0.0661789
-0.00149776
-0.0312316
0.0259925
0.00091023
-0.0229146
-0.000266423
0.00659913
-0.000853018
0.00256806
-0.0192502
8.83365e-05
-0.0312338
-0.0779629
-0.0515478
-6.09955e-06
-0.004525
-7.7892e-05
3.46092e-05
0.138864
-0.0572307
-0.0141727
-0.000478961
0.0134094
-1.02043e-05
-8.21791e-05
-0.000488806
-0.000356521
-0.0924037
-0.0481457
-0.000112532
0.111675
-0.00195801
-0.0469203
0.0498411
-0.00718666
-0.00162638
0.000155614
0.0137569
-0.0400135
-0.00203629
3.72288e-05
0.00471888
-0.0503085
-0.0269413
0.044461
0.000558563
-0.03131
0.627607
0.00111938
0.00142564
0.0597189
-0.000478259
-0.00108946
-3.21538e-05
-2.03693e-06
-0.000137486
0.0224077
-0.0567321
0.464653
0.668083
-0.000391221
-5.4231e-05
-0.000393951
-0.0465812
0.74927
0.0524585
-0.0669165
-0.0408737
-7.43767e-05
0.00101942
-0.0320667
-0.00156928
-0.0377219
0.0133999
-0.0337656
-0.0198087
0.00192463
0.580392
-0.089678
0.000583219
-0.00147088
0.0276069
-0.0217265
-0.12254
-0.0669612
-0.0086568
0.316385
0.436746
0.135092
0.281864
0.101286
-0.063305
-0.00861105
0.00545022
0.105507
-0.033493
0.000471123
-1.46282e-05
-0.0847687
-0.11764
-0.000822571
-0.0192141
-0.0562064
-0.0597667
0.425304
-0.00198673
-0.0306312
-0.0089841
-0.0285563
0.121186
0.0282434
0.00548156
0.00404956
-0.0162672
-0.00553701
-0.0117752
-0.0335776
-0.00485755
-0.0595854
0.241744
-0.0359764
-0.0161713
-0.00458922
0.188125
-0.064026
-0.0460707
-0.0614493
-9.26792e-06
0.273429
0.0698046
-0.0176915
0.00227897
-0.0243131
-0.0142588
-0.00208229
-0.0515565
-0.0104787
-0.091843
-0.00615253
0.00244785
0.000103034
-0.000260474
0.0386907
-1.94082e-05
-0.0153474
-0.0386051
-0.0362302
-0.000265158
0.000193613
0.000248142
0.00231321
0.0314042
0.019157
-0.0506706
-0.0477982
-0.0207721
-0.0113349
-0.00256197
0.53047
-0.0116348
-0.0041924
0.362362
-0.016147
0.334323
0.510307
-0.0101024
0.128467
-0.0140094
0.0109737
-0.00292306
-0.00221173
-0.000415364
-0.0394319
-0.120111
-0.0381495
0.00301558
0.128687
-0.0193903
-0.120252
-0.000387562
-0.000452247
0.257914
0.189632
-0.0122875
0.276303
-0.00933722
0.43068
-0.00680936
-0.00453174
0.0387149
0.0574396
-0.000190606
-0.00135967
0.21238
-0.02892
-4.16488e-05
0.593121
0.12172