/*--------------------------------*- C++ -*----------------------------------*\
  =========                 |
  \\      /  F ield         | OpenFOAM: The Open Source CFD Toolbox
   \\    /   O peration     | Website:  https://openfoam.org
    \\  /    A nd           | Version:  7
     \\/     M anipulation  |
\*---------------------------------------------------------------------------*/
FoamFile
{
    version     2.0;
    format      ascii;
    class       surfaceScalarField;
    location    "32";
    object      phi;
}
// * * * * * * * * * * * * * * * * * * * * * * * * * * * * * * * * * * * * * //

dimensions      [0 3 -1 0 0 0 0];

internalField   nonuniform List<scalar> 
176195
(
191.049
67.7342
-258.783
-472.813
101.807
371.006
-62.6476
-65.4705
128.118
62.7168
-220.552
157.835
-506.6
353.004
153.596
175.596
-313.905
138.309
-114.63
181.299
-66.6689
-93.0693
222.54
-129.471
-360.109
328.781
31.3272
-464.134
-8.67885
-219.12
339.653
-120.532
508.538
-359.969
-148.569
-137.379
340.551
-203.172
1.41159
3.66217
-5.07376
-66.3833
-293.725
-24.3426
-4.84135
29.184
-457.405
105.107
352.298
-394.607
84.8439
309.763
-235.529
299.896
-64.3672
-364.877
-141.723
-89.0379
209.112
-120.075
83.3746
-83.8013
0.426641
370.25
-258.673
-111.577
108.265
-240.707
132.442
-413.734
335.366
78.3687
40.4322
114.723
-155.155
-57.9129
21.7493
36.1637
-273.92
597.447
-323.528
-258.267
-178.725
436.992
-38.7867
107.149
-68.362
418.811
-331.738
-87.0731
-330.422
-6.0934
336.515
-309.41
478.786
-169.376
-47.4705
-41.3562
88.8267
-193.171
-120.999
314.171
175.853
38.6778
-214.531
-151.793
80.2727
71.5202
-117.08
-340.325
-246.325
-22.664
268.989
97.9375
142.129
-240.066
102.589
-433.01
-67.9536
-326.654
-80.3139
-40.5925
120.906
-55.0004
230.854
-11.0394
92.3787
-81.3393
3.82742
-2.4158
296.468
70.9172
-367.386
698.661
-395.285
-303.376
435.742
-182.961
-252.781
423.73
-548.216
124.486
-391.237
478.745
-87.5082
161.253
-61.697
-99.5556
-482.194
378.742
103.452
-503.594
450.252
53.3414
-137.845
-152.849
290.695
-365.764
-116.43
653.505
-420.951
-232.555
-105.31
88.7053
16.6043
-74.3841
24.8792
49.5049
109.779
-177.003
67.2244
-506.827
332.104
174.724
-156.412
254.876
-98.4636
304.604
-115.754
-188.851
-74.4303
106.446
-32.0158
289.637
90.1553
-379.792
14.0282
-460.003
445.975
-350.599
227.305
123.294
-204.683
452.315
-247.632
-34.8063
7.96279
26.8435
-643.464
313.984
329.48
7.74235
97.3181
-105.06
-29.1453
32.8843
-3.73897
284.689
-186.752
-54.3507
31.383
22.9677
-113.951
-80.3317
194.283
44.1364
-85.7111
41.5748
-96.8873
103.252
-6.36505
240.608
-400.528
159.92
-411.736
87.5106
324.226
-264.688
128.228
136.46
-131.396
-133.292
426.13
-429.19
3.05985
1.26224
-94.6911
93.4288
-403.891
737.751
-333.86
-62.776
143.478
-80.702
342.511
166.027
-88.2303
116.941
-28.7111
-322.46
472.096
-149.636
59.4166
-60.369
0.95235
-89.9822
442.093
-352.111
57.3108
-133.763
76.4523
117.487
-13.1072
-104.38
209.729
-467.996
144.307
81.2821
-225.589
-391.83
279.971
111.86
-609.646
437.933
171.713
244.438
-301.142
56.704
94.8019
-93.5397
-139.293
-39.4468
178.74
5.20273
54.2139
-320.79
-186.037
234.623
-540.43
305.807
358.455
-187.845
-170.61
-589.43
609.253
-19.8233
129.814
-122.072
205.616
-134.154
-71.462
-421.516
224.702
196.815
-80.564
127.007
-46.4431
-146.449
195.862
-49.4131
-314.947
-66.0602
381.007
9.76919
119.771
-129.54
-52.5531
296.991
-10.3546
-86.5327
146.247
76.9197
-223.167
-217.741
85.5463
132.195
210.449
-356.941
146.493
-294.378
75.2581
-116.5
138.425
-21.9254
364.1
-543.629
179.529
9.52506
-38.6703
-143.35
26.8501
0.667402
-25.01
-153.141
66.5516
86.5893
91.588
-14.5204
-77.0676
-230.405
531.699
-301.294
-121.024
82.2374
-204.843
48.4309
-191.4
115.78
75.6197
-133.788
-35.1865
168.974
-649.477
651.639
-2.16204
-122.333
240.785
-118.452
590.217
-302.071
-288.146
-41.8285
95.3913
-53.5627
552.691
-210.18
-329.607
482.722
-153.116
-171.602
244.409
-72.8069
-399.14
339.664
59.4753
78.9158
-388.326
137.186
-275.031
153.111
101.765
83.4841
-11.8707
-71.6134
-206.952
360.727
-153.775
507.857
-509.203
1.3464
399.432
-152.64
-246.791
-271.38
149.047
142.007
-533.244
510.16
-370.917
-139.244
-78.537
-126.306
-518.283
313.6
-214.489
-226.102
440.592
111.127
94.4886
70.2838
-81.3232
5.95173
111.535
-566.787
272.811
293.975
79.353
81.8995
-439.022
514.81
-75.7878
-410.689
95.7416
-142.872
209.069
-66.1976
65.0948
-64.36
-0.734757
-204.417
169.754
34.6628
78.5057
-34.3694
175.226
334.934
140.786
163.819
-204.309
143.07
61.2394
239.096
-144.329
-94.767
143.896
131.773
-275.669
522.793
-295.827
-226.966
-36.8955
-102.47
139.366
-188.562
45.6905
-215.475
127.082
88.3936
-191.102
133.87
57.2322
-114.228
410.697
164.57
-145.403
-19.1664
17.6697
-9.09502
-8.57472
-89.0498
-64.2194
153.269
231.85
-522.913
291.063
9.93865
7.73109
132.065
119.852
-251.917
145.8
-375.534
229.735
281.395
154.347
-340.583
-171.55
512.133
-195.946
81.9949
61.1007
-252.178
191.077
-277.879
446.098
-168.219
-173.661
-247.855
-199.408
377.737
-178.329
98.9137
-204.406
105.492
312.923
187.077
-147.806
357.737
-209.931
-86.7822
144.093
-132.708
264.773
-360.773
195.833
164.94
422.189
32.3585
-454.547
-137.116
74.478
62.6384
-125.14
165.572
60.0527
-165.755
105.702
16.8851
-6.94644
-53.5135
50.5732
2.94023
33.7932
-86.1488
52.3556
76.6878
129.281
-205.968
-578.991
437.082
141.909
-348.262
317.255
31.0071
427.352
86.9579
-514.31
481.629
-477.545
-4.08369
-245.573
143.673
101.9
79.7501
-39.458
-40.2921
347.71
-221.993
-125.717
-90.4409
380.078
-246.463
-255.115
501.579
88.6415
-221.198
132.557
9.56949
7.31561
-13.6902
238.392
-13.4833
-400.251
-384.99
295.007
-126.568
-78.3586
204.927
-59.5532
-77.5632
-166.844
269.121
-102.277
-206.453
-156.272
362.725
-0.401215
4.22864
-135.672
-241.092
376.765
109.673
27.7958
-137.469
101.135
-11.3602
-89.7747
122.348
-347.682
225.334
-38.3757
69.3582
-30.9824
-73.4995
-430.094
-325.937
110.654
215.283
-187.791
-104.965
292.756
100.962
-38.0007
-62.9608
170.003
-109.95
-430.538
32.0895
398.448
-12.4888
-517.193
529.682
94.1191
-118.002
23.8829
-6.40475
-58.9717
65.3764
79.2179
-152.474
73.2558
-240.955
114.109
126.846
-194.345
-384.646
-686.237
307.973
378.264
433.392
-215.678
-217.714
-41.4359
137.787
-96.3513
137.058
-90.4575
-46.6006
-142.422
-10.3657
152.788
-283.647
166.498
117.149
-176.109
-28.3077
23.4647
-162.758
208.009
-159.433
-48.5763
-215.657
442.777
-227.12
492.923
-290.38
-202.543
68.9139
-44.237
-24.6768
-136.12
99.2242
-54.2617
7.48357
46.7781
339.638
148.657
-488.295
-314.451
166.185
148.266
262.543
-594.805
332.262
404.31
-201.598
-202.712
198.324
-134.616
-63.7084
4.23676
-344.82
100.732
-28.353
-72.3789
-741.427
397.245
344.182
527.108
-527.108
-216.927
123.858
460.425
-456.188
2.32472
-2.72593
-517.608
239.729
140.525
168.453
-308.978
11.2065
-157.656
204.704
-141.987
67.5048
24.0833
128.201
-209.991
81.7906
-58.129
119.504
-61.375
-128.081
71.4385
56.6427
411.827
-132.602
-279.225
-362.45
214.644
469.52
-188.125
-221.86
-61.7873
180.741
134.169
-314.91
-125.027
54.0025
71.0242
67.9509
-102.784
34.8328
-169.173
80.1231
-245.197
299.388
-54.1916
58.3942
-138.958
-112.441
-91.868
74.2215
142.691
-406.621
263.93
53.3988
26.3514
465.327
-221.485
-243.841
219.15
249.621
-468.771
0.271733
-326.209
565.651
-581.162
15.511
131.949
-110.508
-21.4411
-234.617
-8.14237
242.76
111.599
-43.6484
-500.662
67.816
432.846
27.1248
44.7574
-71.8822
276.871
-290.561
-231.185
405.02
-173.836
-586.805
383.302
203.503
304.471
-233.319
-71.1525
-231.11
-157.967
389.077
-137.514
366.452
-228.938
-75.9341
-52.1471
8.8599
-13.2911
4.43124
122.63
-184.337
61.707
-55.1386
-1.36958
56.5081
245.693
-161.217
-84.476
109.487
15.8869
-125.373
-183.394
273.266
-89.8719
-242.031
169.666
72.3655
62.0175
38.944
363.459
-124.775
-238.684
-179.735
325.535
-103.692
-103.879
207.571
98.0271
-12.4765
-85.5506
-59.8248
91.3827
-31.5578
-132.657
91.2208
-323.361
185.983
-189.792
380.948
-191.156
493.843
-71.6545
231.708
-447.365
214.037
-105.772
40.9492
-89.8847
48.9355
-52.4992
-144.717
197.216
244.01
-379.682
-85.7679
513.12
-60.3147
-157.426
241.257
-13.0635
-228.193
-71.8929
34.5353
37.3577
-444.213
5.19134
273.051
-459.021
185.97
11.0717
-2.21183
71.1417
-44.0169
110.862
-214.553
-431.459
-69.2031
179.255
181.54
-360.795
220.312
84.159
245.739
-109.21
-136.529
124.148
120.693
-244.841
-206.222
70.6538
135.568
76.9647
-352.901
275.936
335.098
-159.503
191.88
-92.9663
74.0436
65.5326
-139.576
-64.1223
251.229
-187.107
-43.0337
-14.8793
65.4661
-102.642
37.1755
203.056
-70.2901
-132.766
-228.611
-215.635
444.246
-176.912
-68.285
-128.032
-44.502
172.534
38.5242
54.2831
-92.8073
327.994
-169.447
-158.547
-109.877
68.0481
-511.284
308.701
202.582
442.055
18.3701
109.151
-239.31
130.159
171.625
-94.9371
207.532
65.7259
-273.258
-62.5713
253.62
-105.634
-299.636
405.271
-214.505
381.721
-167.215
-117.399
277.07
-159.671
-5.9381
170.138
-164.2
150.846
-123.418
-27.4285
-87.9151
-63.8778
-273.026
154.348
118.678
136.989
-8.50239
-128.486
-438.407
332.773
-52.4072
53.6073
-1.20013
-140.116
67.691
72.4253
322.723
-200.375
-169.348
473.317
-303.969
250.591
-167.307
-83.2841
-44.94
55.151
-10.211
38.0444
30.8695
21.7234
210.246
-231.97
105.219
-41.5639
-63.6555
101.935
345.996
-447.931
168.663
523.212
-99.4817
147.483
137.413
-284.896
-152.414
317.507
-165.093
136.25
-42.1305
186.303
-123.662
-62.6416
-49.1488
175.525
-126.377
148.56
-265.959
495.427
-276.276
-364.645
362.39
2.25542
67.0728
-73.4776
-47.1584
7.02963
40.1288
569.769
-216.765
-57.4609
197.905
-140.444
-306.563
463.888
-157.325
263.783
122.102
-385.885
28.5031
-116.733
-584.373
310.453
-3.29261
104.427
-277.442
117.761
159.68
279.25
84.209
-312.643
-177.14
489.783
272.422
197.098
-63.7124
-31.643
95.3554
54.4976
10.7632
-65.2608
-175.709
311.472
-135.763
123.564
-117.684
-5.88005
-146.838
306.322
-159.484
192.983
173.791
-366.774
117.976
73.9878
-191.964
143.816
-473.423
-158.154
245.608
-87.4542
-150.048
261.387
-111.339
-47.1678
73.1407
-25.9729
231.165
-126.762
-104.404
-204.053
100.174
244.156
-472.767
-66.2027
195.175
-128.972
-128.392
65.6163
191.073
108.315
423.154
-150.732
112.195
-236.979
124.784
354.157
72.4741
-426.631
-249.336
512.662
-263.325
-232.469
-266.683
14.1217
-4.55217
619.039
-402.679
-216.36
7.13017
105.837
-112.967
-93.5375
33.7126
341.37
-353.989
12.6185
-75.2712
193.247
-290.943
340.554
-49.6104
397.332
256.174
175.106
111.037
-286.143
-591.902
428.852
163.05
-320.851
421.094
-100.243
-90.8384
172.104
-81.2657
98.1859
-36.1683
94.5224
151.171
117.403
-275.557
-113.437
268.701
-155.264
405.349
213.69
331.98
-320.234
-11.7457
325.192
-542.576
217.384
331.088
-90.4799
-133.164
-516.313
74.8604
-218.438
143.577
33.3975
-97.1099
329.564
135.763
216.32
-170.956
-45.3645
222.273
220.504
136.978
223.477
-360.455
-60.4943
324.278
485.669
-253.819
-314.166
-66.3742
380.54
-290.909
-185.008
475.918
440.574
-274.965
-165.609
572.653
-315.35
-257.303
-47.3275
-88.7923
-33.3401
219.364
-186.024
76.5293
115.655
-192.184
42.3372
-72.4472
30.11
29.9849
250.691
-280.676
-60.4545
10.7877
49.6668
35.0635
88.5002
447.971
-225.697
412.585
157.184
-408.767
68.0021
340.765
8.35769
89.6694
-203.322
114.284
-217.781
-243.329
461.11
-18.1535
9.05846
-13.8528
-46.6017
170.764
-461.674
246.09
9.46141
-47.6694
38.208
192.597
-54.81
-40.1755
-14.1752
-261.391
147.954
-23.3502
264.607
-324.128
499.059
-174.931
291.552
-509.332
488.71
-254.088
141.913
203.667
-345.58
-157.163
47.1674
109.995
-367.396
488.589
-121.193
303.35
-226.385
656.332
-267.519
-388.814
96.0575
96.5398
344.04
-150.015
-194.026
-241.806
428.365
-186.558
174.613
-201.613
26.9997
-280.906
43.2918
237.614
32.2467
-108.181
62.8419
-333.008
270.166
13.5571
-54.5187
40.9617
469.348
-288.724
-180.624
292.701
-514.615
221.914
-208.024
141.821
170.931
79.6596
44.7082
-23.5511
-21.1571
237.345
-91.0973
267.344
166.048
303.22
-183.391
-119.828
-263.989
142.737
121.252
-527.934
251.234
276.7
157.841
-78.623
-42.8528
139.64
-96.7868
-187.575
-54.4561
318.97
22.4002
79.3734
-11.6715
-67.7019
-73.5897
147.633
-16.8021
-125.62
-556.127
335.432
220.696
265.179
-156.029
197.405
206.905
207.458
-409.056
-473.373
237.599
235.773
-243.025
170.195
72.8305
123.46
-69.9721
-53.4876
-255.585
-181.343
436.928
144.351
113.797
-258.148
-402.074
251.086
150.988
-236.771
-165.303
-671.605
441.412
230.193
-274.213
86.6377
649.048
-335.864
-313.185
-185.055
-178.499
363.554
-53.106
63.1587
-10.0526
-118.107
238.512
-120.406
-174.393
83.5548
-406.397
513.645
-107.248
-10.1922
157.774
-147.581
-427.688
234.481
193.207
-77.4387
-113.663
132.289
-117.346
-14.943
287.157
135.996
575.959
-319.309
-256.65
253.064
-519.691
266.627
14.7515
-51.0609
36.3094
23.461
21.2471
-60.159
111.231
-51.0716
275.776
300.183
41.278
-88.7485
-287.879
223.757
-5.76459
-29.0417
-5.09228
142.081
344.55
81.5801
61.1185
37.0674
42.9117
-176.359
133.447
370.784
-523.23
152.446
-80.8978
329.717
-248.82
-17.7515
60.0887
208.785
447.548
-133.348
395.384
-262.036
101.493
-213.76
112.267
-367.378
-318.859
-27.6758
-49.5479
77.2236
13.1332
-66.2393
-40.9364
54.4934
100.999
-35.5325
184.566
-369.622
-93.6663
30.0717
63.5947
-397.22
-61.7853
459.005
-338.517
523.734
-185.218
104.069
-431.803
327.735
70.3523
-110.755
40.4025
-27.805
-402.733
276.788
97.3688
-374.156
180.236
-105.376
189.143
-97.9451
-91.1979
492.125
-147.476
-344.648
-446.925
52.7669
394.158
320.201
119.211
-439.411
-617.668
641.365
-23.6969
-88.0813
-65.0597
-90.8004
32.6714
150.765
152.455
317.09
-670.992
353.902
430.525
-416.497
429.159
-152.372
602.114
-328.662
-273.452
-200.58
202.995
-2.41573
-12.5833
91.9567
-41.318
-226.476
267.794
60.7542
466.354
-53.8846
-78.7721
190.107
-113.577
264.841
-234.856
109.033
61.1066
-170.14
152.797
-186.137
-177.039
101.411
75.6281
558.658
-558.658
320.308
-127.325
239.529
-120.537
-118.992
-363.993
-222.812
-136.743
89.4157
-448.844
-140.586
-39.4451
-5.49488
137.851
-410.606
165.032
245.574
67.2378
-358.181
-18.2668
149.476
-131.209
119.868
-48.4296
63.5956
19.8885
-71.269
-375.656
138.646
-182.846
44.1998
83.8638
-398.03
-317.954
184.606
-171.67
-136.393
308.063
29.373
395.849
-425.222
-328.173
503.179
-175.006
-118.273
258.798
23.0282
-3.70481
-19.3234
-82.652
120.963
-38.3109
224.163
227.839
-452.002
364.498
-222.585
342.601
-122.289
-333.148
-258.754
19.4066
-254.935
-291.541
98.3697
-403.215
300.483
102.732
59.0276
-456.247
131.889
109.276
-241.165
-193.312
-205.043
398.354
-50.7856
-4.35298
110.803
-102.446
-201.643
-135.752
337.395
-307.258
226.36
-124.197
-36.5817
160.779
-179.292
122.484
56.8081
388.813
-566.767
177.955
317.408
-210.923
-106.485
131.902
361.021
196.96
79.632
-276.592
405.556
-208.151
146.679
-514.075
177.676
-39.0299
154.426
162.982
-63.7787
-339.436
243.04
-440.468
197.427
471.672
-279.961
-191.712
100.253
-237.509
137.256
-161.485
-5.6699
167.154
205.215
19.6257
-224.841
45.6645
-75.4536
29.7891
199.678
142.924
-38.9388
93.4364
-377.622
436.65
138.431
224.04
-362.47
-113.204
323.652
94.593
-79.0576
-15.5354
44.4563
-304.23
259.774
-55.4306
68.5638
282.988
-514.773
231.785
-89.4526
198.486
235.553
-448.337
217.153
-190.432
-5.66347
196.096
12.2975
144.305
-156.603
332.784
136.563
64.1256
30.4674
301.032
-13.0609
-287.971
-129.294
444.126
-314.832
110.154
260.097
23.7154
195.649
335.831
157.139
-492.971
340.149
-288.273
-51.8753
-10.0633
-42.3438
-216.168
44.5665
-1.94811
-29.8836
31.8317
24.1759
-26.1239
-336.084
183.67
-119.387
-146.217
265.604
364.614
-58.8422
-305.772
-219.942
-27.6861
247.629
-134.748
80.863
37.6631
-120.315
-106.319
-315.508
421.826
-88.5073
-133.352
579.091
-296.103
-62.7891
114.285
31.9816
-146.266
-306.141
129.332
176.809
35.2288
-69.7043
34.4755
130.377
119.644
-250.021
-120.535
83.8742
36.6605
-116.438
323.97
-149.447
-51.214
200.66
-384.827
-258.637
-230.491
116.819
113.672
-229.805
528.133
-298.328
390.414
-327.572
-37.9251
-55.5043
93.4293
7.26952
3.80223
-180.632
340.747
-160.115
-121.425
283.672
-162.247
170.287
-91.1392
-79.1477
-319.299
423.368
-42.3457
78.5618
-36.2162
-237.756
241.923
-4.16696
-168.228
53.5979
203.964
-3.49527
-200.468
-172.199
432.323
-260.124
51.3857
-17.2559
-34.1298
301.27
-604.809
303.539
-496.727
174.268
156.609
-46.9358
-65.7471
10.3165
-166.346
84.3304
82.0157
-182.977
426.018
193.591
-92.0982
57.586
-435.208
-46.625
-134.419
181.044
-119.682
-509.097
351.614
157.484
269.286
70.8624
-348.029
-137.929
485.958
-94.5808
299.03
121.822
-114.692
-49.6532
-75.3735
-309.185
-313.456
622.641
-263.354
-271.038
534.392
-200.336
277.569
-77.2334
380.375
-278.44
-261.824
-249.46
340.635
-509.984
115.369
81.6863
-197.055
-392.552
246.502
146.05
140.483
272.101
-48.8606
85.5422
-36.6817
-330.357
528.335
-197.978
58.4675
-106.362
47.8944
-202.992
70.2744
132.717
14.2731
8.75516
-91.8715
412.072
-61.6157
202.094
-140.478
550.823
-214.992
-218.406
279.506
-327.597
190.082
-273.886
273.886
-108.062
239.951
-561.923
298.682
263.24
-425.022
-32.1519
457.174
176.885
-133.973
-37.7959
-11.8579
49.6538
-157.177
151.239
136.667
-496.636
5.44405
126.505
-147.955
-290.846
438.802
-222.732
361.162
-275.709
108.865
521.1
-295.236
-225.864
-131.86
-29.6249
167.742
-355.587
-606.252
420.876
185.376
-320.682
-87.0136
-78.8045
13.2447
65.5597
-90.5603
-52.42
142.98
147.218
90.1264
-132.207
198.025
-65.8181
-4.4857
133.998
-129.512
141.311
-142.259
0.947915
191.063
-339.134
148.071
98.373
-141.226
-97.1478
-110.876
47.9734
-82.9252
34.9518
-409.815
-166.329
338.149
-171.82
40.9591
10.4266
2.82478
-239.946
237.121
-185.115
-165.485
212.315
-403.764
191.449
-99.7492
61.8242
-37.1636
34.9034
2.26018
20.1511
-144.348
-56.6247
183.2
-126.576
161.45
129.08
-290.53
-211.325
-275.466
486.791
173.661
-410.546
236.885
67.1404
54.7107
-121.851
-542.582
308.073
234.509
537.756
-353.664
-184.092
-500.638
176.51
171.622
148.686
-87.5007
-115.821
298.066
-358.56
-343.427
-129.945
-317.423
-93.1827
-355.368
150.918
204.45
-213.519
125.012
-26.3702
270.416
-244.046
-37.697
-193.989
116.551
75.7164
170.391
-246.107
253.46
-444.156
190.696
207.14
-118.498
-317.029
106.106
173.877
-64.0984
-321.94
-117.31
439.25
397.974
-185.659
-319.483
323.476
-3.99302
-91.9253
123.334
-31.4083
-440.809
225.175
-267.965
134.576
133.388
68.1302
-68.1302
-215.45
-244.161
459.611
476.293
-418.707
87.2745
-275.065
-10.6032
311.635
305.153
186.972
-211.94
-118.991
330.931
24.0705
-40.8232
16.7527
-33.9154
62.4962
-28.5808
-214.113
152.616
61.4965
-322.217
-244.57
-50.1037
-126.936
129.796
-15.5116
-285.612
-324.033
-112.853
52.6941
165.554
174.996
28.0014
36.0747
-64.0761
-302.77
231.465
71.3054
409.869
192.245
-176.072
-98.1414
-331.027
-178.071
-147.165
-62.2295
209.395
-72.0083
-249.647
321.655
-222.995
188.051
34.9443
-50.5478
-39.3938
89.9416
326.688
-514.398
187.709
197.143
-342.682
145.538
271.231
-500.217
228.986
-41.3287
-63.981
-217.559
120.412
227.229
-415.027
187.799
-145.911
55.3511
-319.27
-28.9924
-265.875
406.358
-4.55564
-11.3371
15.8927
217.021
-148.235
-68.7856
-8.25452
-46.0072
-178.899
369.961
482.821
-464.916
-17.9048
-38.1231
108.475
-55.9484
75.2065
-19.2581
249.87
-465.319
-22.8708
-34.425
57.2958
-108.406
252.301
389.932
-506.483
116.552
292.831
11.0631
-303.894
20.8788
-110.827
89.9485
-46.1672
81.3961
45.5593
-11.2353
-34.324
-20.2752
115.013
-94.7378
-6.35874
61.961
-55.6022
73.9581
-25.9847
431.526
-164.182
-178.741
228.025
-49.284
-302.573
-18.278
176.644
-117.899
-58.7451
138.435
-305.785
167.35
-205.099
-173.723
378.822
5.93982
211.081
-266.079
161.643
104.436
136.971
-340.351
203.38
-346.607
221.219
125.388
234.225
-134.597
-99.6276
-176.469
97.9103
78.5588
239.926
-486.389
-128.389
-67.7592
196.149
-48.2508
-81.869
130.12
135.574
-163.328
27.7544
32.9672
72.2522
80.4615
-42.7172
-37.7444
-32.5982
-129.436
162.035
7.52333
103.28
-123.995
-110.087
234.082
-288.75
-7.64329
296.394
47.7287
-166.233
118.505
126.511
76.5454
101.415
72.4621
-176.189
183.999
-7.80955
-78.8045
-55.9884
445.92
-310.065
63.7401
415.957
39.5465
-455.504
457.636
-378.72
-475.341
213.517
121.112
58.7727
-179.885
77.5344
-36.5852
113.132
-230.958
117.826
204.539
-370.867
-128.565
22.5158
270.315
-56.6002
260.564
225.05
221.048
-456.858
284.659
-85.5759
36.7153
439.432
-176.889
132.228
-109.963
-22.2643
236.746
-308.755
296.315
-119.185
-177.13
310.07
-273.921
-36.1482
176.216
-128.488
-266.606
-215.104
481.71
-224.449
33.2668
191.182
498.902
-494.006
-4.89576
246.574
-79.6143
-166.96
323.621
317.983
-641.603
162.007
-26.4338
-135.841
284.394
-148.553
-115.363
290.469
-53.9623
114.945
-60.9829
-158.038
-87.5353
-30.2595
40.2683
-10.0088
31.4257
-180.872
376.024
100.27
-438.355
31.9579
-91.6378
-214.503
69.6498
-41.6484
-115.621
206.225
-90.6045
-21.9235
-52.4606
47.7082
-15.4543
-32.2539
-128.856
96.2574
-575.837
332.139
243.698
44.5455
-120.064
75.5181
-117.277
230.409
-26.9822
69.6524
-42.6703
31.718
15.9902
-182.537
364.97
-182.434
52.7213
-133.385
80.664
-44.3189
9.71056
34.6084
232.687
-75.8689
-156.818
180.036
-132.439
-47.5967
-393.514
-277.182
-198.159
-144.25
158.312
-14.0626
205.156
-352.664
147.508
-40.7488
10.4893
-128.803
300.425
-69.1913
-342.545
254.496
-111.759
-174.454
116.993
-210.794
181.642
29.1526
329.062
-131.918
67.5496
-59.0992
-8.45038
-187.007
-23.7873
69.3522
-237.405
168.053
111.284
-198.785
121.423
-20.4031
-34.487
54.8901
-148.537
211.868
-63.331
212.006
-73.8235
-138.182
-253.899
-34.8511
128.869
57.4346
-0.948523
8.21804
47.2922
68.9833
-116.275
-110.786
91.5701
19.2157
-73.843
-25.1164
-29.5618
54.6782
565.177
-432.353
-132.824
369.622
-71.5558
132.764
-120.467
-424.876
462.958
-38.0814
-121.699
263.803
-142.104
-230.283
317.558
42.5711
37.8904
-68.3318
-71.7845
-79.3821
207.583
-207.338
288.361
-81.0224
-303.908
347.724
-43.8165
-308.748
183.781
124.967
52.522
-37.7705
33.5439
-0.659559
-254.315
-240.671
494.986
187.355
377.822
-556.57
293.215
131.523
-131.523
-144.557
154.186
-9.62881
179.087
-121.938
-57.1496
246.301
-540.824
294.524
99.0507
133.636
-231.687
336.525
-104.839
105.717
-61.1716
-116.104
72.6946
43.4092
156.822
329.605
-486.427
242.093
-94.8754
-340.186
178.645
161.541
81.1437
-199.947
118.803
265.431
210.859
-476.29
-95.4701
148.191
-130.114
-33.5587
163.673
129.839
-150.114
-227.4
451.562
-226.765
139.303
87.4612
111.99
-65.8374
-46.1523
-168.161
428.115
-259.954
273.405
-120.608
-9.16535
139.59
-130.424
225.522
205.505
-431.026
-274.607
-281.962
-88.3593
341.819
41.4296
-77.3658
35.9362
-158.83
376.095
-217.265
173.265
-92.1212
278.403
-169.667
-108.736
242.33
-130.135
-176.535
7.06942
-11.625
-622.137
302.828
143.48
500.218
-507.594
7.37623
264.564
140.483
-405.048
54.1677
13.3819
-234.663
-293.272
124.84
-177.34
93.8433
-294.179
-130.063
167.533
-37.4695
171.948
-313.137
141.189
-133.469
384.703
-105.159
93.593
11.5664
50.9131
-132.782
81.3794
-149.513
68.134
229.38
114.66
203.351
-130.31
-73.0408
-6.2218
211.437
-462.272
329.694
132.579
-258.919
-363.218
181.314
65.2606
201.405
-579.717
378.313
-97.0366
-70.4897
167.526
24.8762
-71.5076
46.6313
351.569
169.532
-27.9109
443.868
224.133
-246.797
469.742
-204.311
94.7884
-241.833
147.045
-557.969
335.557
222.412
-215.175
-304.097
519.272
-365.993
565.801
-199.807
272.286
146.525
-173.406
198.498
-25.0922
-133.615
277.967
328.041
-256.897
-71.1441
-133.628
262.188
-128.561
-191.357
-169.416
59.9276
-340.436
280.508
111.388
16.2764
-127.664
125.803
-135.995
450.025
-356.521
-93.5042
-227.466
80.7313
146.734
81.7705
342.125
-423.896
1.85023
-39.0138
322.754
127.271
-171.766
41.6517
-101.175
-3.98394
-227.721
517.604
-289.883
-22.0692
173.729
-151.66
250.675
-459.636
208.962
-41.4032
-21.1571
62.5603
311.745
119.781
-33.9249
11.653
22.2718
-250.575
228.114
22.4614
-243.12
122.534
120.586
192.944
397.273
37.678
7.88128
-323.893
-138.379
207.477
-474.083
416.347
-514.759
98.4119
217.911
168.998
-29.9519
-139.046
228.468
-159.115
85.8133
-407.753
-26.537
-28.5592
55.0963
55.8221
20.0167
-75.8387
-190.18
62.1487
130.428
100.737
176.507
-380.041
203.533
-47.662
70.9084
-23.2464
177.02
-335.85
379.269
-174.112
322.139
-85.3926
-474.421
-267.006
-258.025
490.509
-232.484
425.806
-319.134
-106.673
-11.0119
-445.909
456.92
-412.174
-182.582
594.756
-274.586
-6.32059
140.646
-59.2668
-669.805
350.309
319.496
-323.838
-75.302
-80.9236
-95.5455
118.504
-51.3635
81.5083
-56.6291
-569.535
382.718
186.817
33.7406
-54.1437
-10.9189
29.8755
-18.9566
133.811
-143.673
200.82
-321.123
120.302
288.539
-226.917
-61.6216
86.3159
-395.104
308.788
169.156
-67.7412
141.879
205.831
-68.4581
-110.834
123.003
-102.124
474.671
-331.336
-143.334
-257.78
352.209
-94.4287
34.5065
162.399
312.272
-416.569
31.7389
384.83
-277.02
-240.588
8.88843
-129.509
120.621
-123.524
-100.659
224.183
119.011
154.387
-273.398
-6.64092
-353.939
-315.866
-18.1607
32.74
-14.5792
-200.409
336.079
-135.669
578.993
-232.997
415.94
-107.239
-291.076
107.682
75.965
-20.143
-270.949
-54.0705
325.02
95.6255
-408.268
-403.212
161.406
61.5608
-6.81577
-54.7451
99.7676
-173.019
73.2516
-126.911
288.361
-457.945
328.651
188.188
-168.562
505.135
-182.381
-209.404
399.512
-190.108
121.042
-335.88
214.838
513.709
-124.896
85.1248
113.199
-245.06
71.6545
178.726
-154.388
-24.3381
-182.449
285.105
-102.656
179.413
399.58
154.696
-256.371
101.675
392.434
-141.348
368.068
122.553
-490.621
289.143
-195.987
-93.1561
558.127
-590.438
32.3111
193.796
-125.009
-68.7868
417.521
-388.148
-16.9973
-173.435
-113.481
-124.283
237.765
338.887
-290.534
-48.3527
25.0464
8.49747
-304.945
474.932
-169.986
-81.6784
-11.988
-177.236
155.167
-4.11931
29.788
-99.8418
70.0539
317.177
23.8674
-341.044
-1.741
-33.7723
35.5133
-103.269
457.426
118.7
177.616
-151.821
323.769
-215.466
166.317
388.839
68.7972
-164.808
-175.378
36.6716
155.208
-243.341
67.2697
-69.1207
146.327
-77.2064
-35.545
-3.90014
423.774
-159.21
-451.536
431.992
19.5436
-127.456
495.524
36.4262
-70.3049
33.8787
34.3713
-30.1695
-51.982
82.1515
-189.793
78.5619
-24.3942
149.709
28.5958
-178.305
43.08
-136.215
93.1348
-272.222
122.173
-75.909
-25.3328
101.242
-266.806
-305.063
101.901
203.162
67.5141
-42.6378
88.275
-129.718
41.4435
74.5422
-198.066
82.1558
191.11
-166.064
185.478
-19.4146
11.3484
-43.5538
32.2053
-123.158
73.752
49.4061
-369.166
169.758
-211.011
436.533
100.965
-211.251
110.286
237.685
112.375
-350.06
10.2592
-22.1688
11.9096
326.403
99.403
290.178
-45.3013
-244.876
-179.419
403.252
-223.832
212.244
-71.1064
324.851
-253.745
327.875
121.5
-449.376
474.555
302.763
124.575
-427.338
284.664
-559.271
167.428
-13.7406
-153.688
-362.683
193.382
169.301
-111.644
-183.69
295.334
27.2356
31.8133
-59.0489
-42.1089
-115.054
-12.1165
-439.419
-358.09
175.553
83.8888
107.939
-191.827
-376.811
305.705
168.955
168.564
-337.519
-26.1082
123.696
-97.5879
-126.596
-150.14
276.736
568.931
-256.008
24.4715
58.903
-201.923
-257.002
458.925
-74.7705
125.684
-270.945
455.056
-184.111
-404.983
41.6858
363.297
-218.69
-276.854
495.545
-101.864
-101.127
-567.078
366.747
200.331
266.997
-135.477
-131.52
-172.222
341.177
-100.399
24.4901
37.1682
-63.7053
136.983
-4.75517
-117.306
-491.909
249.824
242.086
-208.581
21.5743
-224.663
104.125
-260.953
-314.884
-77.3051
-229.953
152.18
-362.597
210.418
-179.157
-160.513
46.3321
114.181
-245.978
-71.0512
-81.191
-34.0796
115.271
0.26108
-3.69331
3.43223
-379.933
211.771
54.1988
-101.021
46.8218
114.648
-144.6
211.816
-398.473
186.657
24.9869
-295.936
-126.783
262.898
-136.115
-159.136
252.979
120.257
-75.8982
-55.279
131.177
525.656
-536.668
-111.479
-192.429
280.51
228.418
-508.928
-201.459
-7.12269
-96.972
207.834
403.43
-431.341
53.8671
-26.6315
457.557
-162.083
-295.474
144.237
151.655
-295.893
11.612
-83.7528
-68.5372
152.29
173.799
14.9472
-188.747
322.373
70.0605
279.605
59.2822
-504.074
175.901
43.0787
-70.0608
-73.5942
28.9183
44.6758
85.0806
-8.96144
-76.1192
-119.715
-73.3543
193.069
13.1708
-142.476
129.305
-63.4377
22.0346
193.518
-183.697
-9.82166
218.939
-276.067
57.1283
-194.707
74.9925
-44.8136
-40.8976
-53.1388
-127.536
180.675
144.206
254.96
177.363
-197.302
170.931
125.9
-121.863
-4.03751
-456.564
295.744
160.821
242.176
-132.9
312.767
192.368
337.431
145.561
-482.992
-122.475
-148.905
-538.859
253.334
285.526
149.566
-306.241
156.675
105.573
97.7782
-115.51
106.345
-91.6045
126.635
-35.0305
-341.597
-281.025
622.622
-515.496
420.844
94.6515
-239.708
113.14
-65.3941
-479.989
-17.6929
497.682
276.954
309.123
-586.077
-130.175
-137.79
-174.346
-134.402
190.375
-40.6663
-385.697
170.522
29.3375
145.275
33.7698
-265.13
176.653
88.4763
40.1335
38.3722
-147.584
-129.788
277.373
105.9
-76.1122
425.712
-271.282
-154.43
-219.236
340.278
-270.524
18.3469
455.665
25.9641
-59.1633
-39.3901
98.5534
457.847
0.542278
-458.389
-175.581
365.984
-190.403
73.2659
53.0644
-126.33
-437.072
247.197
189.875
-87.5967
-93.9153
-171.214
71.4836
-35.0575
-163.083
329.946
-166.864
163.947
123.787
-287.734
-84.7222
-31.3815
-302.985
-227.367
530.352
127.584
476.097
-327.045
-149.052
-100.581
88.4718
-62.6539
-25.8179
-7.05858
-40.6108
213.204
-269.804
276.592
-353.897
-496.639
410.871
140.68
-270.855
214.098
233.872
526.121
-254.889
-225.034
46.293
67.6925
33.306
-80.5766
85.6325
-0.551871
-288.005
327.902
-39.8974
-315.003
-2.95111
76.0423
-111.501
35.4584
152.494
301.96
-200.059
235.099
-137.888
-97.2108
-35.3782
-0.166834
-284.354
43.3954
-73.5649
245.893
-77.1386
-168.755
-333.101
610.055
493.411
-180.644
-348.557
238.641
109.916
-22.9734
480.82
-192.569
465.62
-85.0259
-158.046
243.071
115.832
-222.229
106.396
27.0235
356.279
-334.163
-246.829
580.992
199.567
-388.895
189.328
-287.792
386.847
-99.0553
-104.203
406.966
301.104
-153.621
126.239
-92.1978
366.673
-274.475
-37.0414
35.3004
-123.142
-22.7238
145.866
171.966
164.113
123.077
-77.9222
-263.824
341.746
-385.382
-78.752
-128.855
-242.061
-377.599
214.517
-403.254
403.254
-17.3271
-297.311
314.638
210.008
-380.67
170.662
153.57
92.3234
38.9939
-9.49109
-29.5028
195.37
-400.413
288.248
-506.938
228.246
-52.7207
133.207
189.517
65.6907
167.295
-232.986
185.949
-107.485
-78.4639
-73.9663
-278.712
352.679
104.628
-200.315
95.6867
-92.2121
125.56
-33.3476
322.552
9.42788
-45.5851
56.3483
-244.256
300.138
-55.8816
28.9555
138.473
34.224
31.9832
-66.2072