/*--------------------------------*- C++ -*----------------------------------*\
  =========                 |
  \\      /  F ield         | OpenFOAM: The Open Source CFD Toolbox
   \\    /   O peration     | Website:  https://openfoam.org
    \\  /    A nd           | Version:  7
     \\/     M anipulation  |
\*---------------------------------------------------------------------------*/
FoamFile
{
    version     2.0;
    format      ascii;
    class       volVectorField;
    location    "32";
    object      U;
}
// * * * * * * * * * * * * * * * * * * * * * * * * * * * * * * * * * * * * * //

dimensions      [0 1 -1 0 0 0 0];

internalField   nonuniform List<vector> 
117990
(
(1.02963 -0.0994478 -5.10886e-19)
(0.997949 1.3181e-05 -2.62065e-21)
(0.660923 0.0598033 -1.70982e-19)
(0.814926 -0.103776 3.81465e-20)
(1.14106 -0.0806041 4.80674e-20)
(0.890143 -0.145241 9.56417e-23)
(0.644739 -0.00502285 -1.17989e-18)
(1.21494 -0.118176 -1.20007e-19)
(0.950684 -0.0656423 -6.63879e-22)
(0.997888 8.46819e-05 5.54013e-22)
(0.957725 -0.00409678 8.50376e-21)
(1.02648 -0.0217308 4.5786e-21)
(0.991442 -0.118485 5.2133e-20)
(-0.0319425 -0.0416824 1.29819e-18)
(0.950427 -0.0671337 6.58787e-21)
(0.191094 -0.195272 2.92489e-18)
(0.978334 -0.05404 2.30363e-21)
(0.939894 -0.0372221 -1.08299e-20)
(1.03004 -0.313461 1.17731e-18)
(1.14193 -0.078762 1.7266e-19)
(1.21872 -0.0842632 -1.14747e-18)
(0.418663 -0.00928255 -1.96684e-20)
(0.931388 -0.048526 -9.65072e-21)
(0.770958 -0.0753081 2.23051e-20)
(1.49285 -0.0662865 8.3224e-19)
(0.745095 0.463419 1.3688e-18)
(-0.312246 0.364763 -1.58063e-19)
(1.31371 0.00787552 8.90798e-19)
(0.996732 -0.00939098 3.04293e-21)
(1.14592 0.396685 -1.07621e-18)
(0.976616 -0.00861262 7.02189e-21)
(1.13291 0.208491 3.22807e-19)
(1.18992 -0.0294884 -6.54474e-20)
(0.494485 0.0155012 9.23998e-20)
(1.53235 -0.0609207 3.56235e-19)
(0.757373 -0.122108 7.62424e-20)
(0.68511 0.187622 1.97385e-19)
(0.97831 -0.055181 -1.11643e-21)
(0.121291 2.62476 2.50687e-20)
(0.768718 0.0714137 2.77023e-18)
(1.13293 0.210153 -6.27163e-19)
(0.939172 -0.0384503 -2.02651e-21)
(0.703215 0.0684822 3.88355e-19)
(0.755885 -0.1196 -5.35198e-20)
(0.932858 -0.262108 4.93589e-20)
(-0.0284448 -0.0389003 -1.35131e-18)
(1.12106 -0.00895704 6.27274e-19)
(1.29281 -0.0133079 1.52786e-19)
(1.07936 -0.085611 6.80946e-20)
(1.02611 -0.00237389 -2.09106e-20)
(1.00115 -0.000107796 1.03922e-23)
(0.570826 -0.0141736 7.03421e-20)
(1.12307 0.141607 9.74794e-19)
(0.998288 -5.07837e-05 -4.23444e-22)
(1.00013 -0.0763864 -2.43205e-19)
(1.12127 0.140262 -2.4223e-19)
(1.217 0.0236964 8.03419e-19)
(0.735338 -0.27827 2.75963e-19)
(-0.395807 0.385222 6.23704e-19)
(0.755378 0.0480511 -4.93868e-19)
(0.986979 -0.0326369 -2.39408e-21)
(0.772444 -0.0676972 -2.06695e-20)
(0.877849 -0.00636171 -1.74064e-20)
(0.556245 0.0898861 -4.50839e-20)
(0.988657 -0.0090458 -7.72796e-21)
(1.14135 -0.00507978 -1.30862e-20)
(1.00368 -0.117785 -2.78126e-19)
(1.2114 0.11211 8.44477e-19)
(-0.062165 0.276893 3.37572e-19)
(1.24016 0.0214242 3.51163e-19)
(0.608913 0.418864 6.89265e-19)
(-0.238805 0.117364 -8.32838e-19)
(0.778975 0.0756963 1.2485e-18)
(0.390487 -0.0425509 3.14067e-19)
(1.02577 -0.140597 2.48342e-19)
(0.505645 0.00800068 9.87272e-20)
(0.359976 0.542798 -3.28515e-19)
(0.984414 -0.131216 1.04946e-19)
(0.992337 -0.500078 -4.26864e-19)
(0.892561 0.348955 8.3943e-20)
(0.881164 0.357993 2.94046e-19)
(0.991499 -0.000328625 2.63953e-22)
(1.12963 -0.567593 -3.9561e-19)
(1.34878 0.000625072 -4.02834e-19)
(0.590624 -0.0825203 3.82507e-20)
(1.02544 -0.0211119 4.5018e-21)
(0.641714 0.0896612 2.32782e-19)
(0.998118 -0.00328394 -3.4605e-22)
(0.499579 -0.0511054 1.45376e-21)
(0.998165 -0.00554899 1.4938e-21)
(-0.429431 1.26766 4.89526e-21)
(0.571155 -0.0101328 -5.66168e-20)
(0.996342 -0.0093029 -3.85918e-21)
(0.804024 -0.117031 5.82307e-20)
(0.926927 -0.0456375 -1.65989e-20)
(1.05926 -0.00844706 8.9556e-21)
(0.935991 -0.00275016 -3.80459e-21)
(1.13916 -0.563534 -3.15404e-20)
(0.520754 1.20725 -3.32475e-20)
(0.497302 -0.0469991 1.96763e-19)
(0.986711 -0.0333271 2.42939e-21)
(1.27763 0.0217113 -8.25215e-19)
(1.09627 -0.0369569 -5.01737e-19)
(1.22304 -0.00727022 -1.6274e-21)
(0.602542 0.417879 4.62283e-19)
(1.20384 -0.263633 -4.30172e-19)
(0.821715 -0.0711992 -7.64696e-19)
(1.0641 -0.360021 -3.40488e-19)
(0.868257 0.0907246 -1.19947e-19)
(0.997032 -0.0108797 -1.82673e-21)
(0.646372 0.418578 -6.55205e-19)
(0.936753 -0.00361742 1.52448e-21)
(0.332916 0.552389 2.06704e-19)
(0.925424 0.0792173 7.15196e-19)
(1.48458 0.116894 -1.11145e-19)
(1.03523 -0.0170754 9.07954e-19)
(0.957166 -0.00345827 -1.57083e-20)
(0.590549 0.408393 -8.97595e-19)
(1.00359 -0.0029203 1.60894e-22)
(-0.249166 0.13767 5.7515e-19)
(0.59529 0.405499 1.2848e-18)
(0.187592 -0.196975 -1.17284e-18)
(0.678476 0.0617264 -1.54427e-19)
(-0.148054 0.487102 4.68429e-19)
(0.998093 -0.000283115 -5.22153e-22)
(1.13497 0.400733 1.24333e-18)
(0.77672 -0.0678015 1.79908e-20)
(1.45634 0.316427 -3.64374e-19)
(0.74879 -0.011918 1.32649e-21)
(1.3205 0.00278634 -7.39498e-19)
(1.06416 -0.122724 -5.70595e-20)
(1.04053 -0.00591526 7.08841e-21)
(0.537302 0.329859 -5.76969e-19)
(1.02546 -0.0200609 -1.37274e-20)
(1.00378 -0.00251847 7.50731e-23)
(1.05738 -0.0495759 1.84783e-18)
(1.49681 -0.146115 -2.29395e-19)
(1.1844 -0.0263967 -8.33763e-20)
(1.00526 -0.076085 3.34437e-19)
(0.774912 -0.0711061 -1.88203e-19)
(0.676048 -0.281097 3.73127e-19)
(1.0562 -0.0293596 4.60167e-19)
(1.00941 -0.00068385 -5.51738e-21)
(1.09305 0.191583 1.21574e-19)
(1.06324 -0.118459 8.40162e-19)
(1.00103 -0.000145346 -1.01244e-23)
(1.16087 0.0388433 6.20485e-23)
(0.773567 -0.0630539 6.36651e-20)
(1.21412 0.112024 -1.30352e-18)
(1.11432 -0.0969921 -1.66644e-19)
(1.19717 -0.263763 3.28324e-19)
(0.923989 -0.259972 -3.57152e-19)
(0.566153 -0.0113783 -3.56351e-20)
(0.99781 -0.000254501 2.34659e-22)
(0.57526 -0.0132954 4.14198e-20)
(1.2178 -0.0270447 3.95032e-19)
(0.99703 -0.0111199 2.33343e-21)
(0.936624 0.327705 1.02238e-18)
(0.473907 0.00777501 8.72669e-21)
(1.3961 -0.36348 1.72103e-19)
(0.506093 0.0150129 -5.38365e-19)
(1.16293 0.0386325 4.72325e-19)
(0.879801 -0.0058075 -1.2857e-20)
(1.03266 -0.201677 -4.63405e-20)
(0.898289 0.051902 2.69047e-19)
(0.865198 -0.0707401 -4.53151e-20)
(1.21876 0.00957442 4.04358e-19)
(0.859318 0.0331754 4.19061e-20)
(0.910552 0.33584 -1.49336e-18)
(0.869381 0.0587882 -3.10214e-19)
(0.792848 0.0432059 -4.08836e-19)
(1.12806 -0.014766 -3.54246e-19)
(-0.379658 1.35222 6.53268e-20)
(0.0902584 -0.155253 2.0475e-18)
(0.962764 -0.169894 -3.90223e-20)
(1.24761 0.0686351 -3.71876e-20)
(0.0851572 -0.149683 -4.51893e-19)
(0.865628 -0.135161 -4.46283e-20)
(1.11563 0.025962 1.31104e-18)
(1.07801 -0.0886281 1.11318e-19)
(1.23143 0.018206 7.90763e-20)
(1.02074 -0.140393 2.83389e-19)
(1.16005 -0.24762 -5.07303e-19)
(1.09343 0.170702 5.22778e-19)
(0.830817 -0.0831683 1.79799e-18)
(0.947193 -0.113396 -2.79497e-22)
(0.752436 -0.0924611 -1.89281e-20)
(1.00017 0.00307255 -5.42318e-19)
(1.14028 -0.0207443 1.18991e-18)
(-0.424693 1.30207 -1.57545e-20)
(0.871722 -0.134847 -1.48394e-20)
(1.06563 -0.0356415 -3.08151e-19)
(1.07124 -0.450754 -7.43468e-19)
(0.656542 0.0102813 -7.32711e-19)
(0.762406 0.46168 -1.81375e-18)
(1.25517 -0.383788 2.04442e-19)
(0.0755081 -0.144611 1.34588e-19)
(0.305581 -0.000896279 -4.02674e-20)
(0.570241 -0.00727025 5.32259e-19)
(0.938689 -0.0375507 3.91952e-19)
(1.0848 0.139618 6.84306e-19)
(0.819238 -0.418188 7.71632e-19)
(1.24271 0.027448 2.34472e-19)
(0.997913 -0.00447586 -2.35723e-21)
(0.732489 -0.0955165 -2.04601e-21)
(0.551685 -0.132916 3.6138e-19)
(0.901171 -0.119312 -1.37016e-20)
(0.988925 -0.00909361 5.95211e-21)
(1.2572 0.027728 -1.96199e-19)
(1.08911 -0.173809 -1.21233e-18)
(0.0692509 -0.138617 -1.14067e-18)
(0.816686 -0.0496026 -4.75901e-19)
(1.48604 -0.0735789 -6.16977e-19)
(0.99826 -0.00557003 1.95674e-22)
(0.895799 0.0624008 8.81304e-19)
(0.658609 0.00371998 3.64377e-19)
(1.09736 0.229782 5.84762e-19)
(1.13761 -0.0197883 7.09251e-19)
(-0.0364532 -0.0310745 -7.81508e-19)
(0.975221 -0.0370923 1.19897e-21)
(0.933489 -0.158666 1.47567e-20)
(0.663887 0.0536263 -2.57316e-20)
(1.07681 -0.0685234 -3.2031e-20)
(0.483903 0.00856754 -4.47059e-19)
(0.998266 -0.000106103 6.08208e-22)
(1.41304 -0.188796 6.44658e-19)
(1.04559 0.0477014 -6.0377e-19)
(0.531341 -0.0146355 5.74583e-19)
(1.25257 -0.377059 1.17713e-19)
(1.31733 -0.256382 3.66167e-19)
(1.29662 0.019256 -8.10015e-20)
(0.918239 -0.257699 -6.2942e-20)
(0.688799 -0.191402 -3.26758e-19)
(0.846423 0.0119054 3.54528e-19)
(1.07149 -0.114865 -3.83059e-19)
(1.08317 0.138411 1.02575e-18)
(1.06912 -0.0062843 1.00935e-20)
(1.09721 -0.0499916 5.48144e-19)
(0.872441 -0.00458925 -1.28215e-19)
(0.564789 -0.0203877 -9.13877e-20)
(-0.351514 1.15988 -2.73855e-19)
(0.996273 -0.0750977 7.77544e-21)
(1.40524 -0.364229 -2.19264e-19)
(0.5449 1.2553 2.3875e-19)
(0.741518 -0.0104841 -6.75123e-20)
(1.10908 -0.0925984 -3.31219e-20)
(1.16284 0.157628 9.33985e-19)
(0.494863 0.00333451 9.79102e-19)
(0.859075 0.0335539 1.50742e-20)
(0.445791 -0.249718 5.29581e-19)
(1.01415 -0.229977 -3.84139e-19)
(0.841187 -0.144015 -2.52633e-21)
(1.1512 0.02115 -3.52472e-18)
(1.05875 -0.115534 1.73859e-20)
(1.46853 0.289177 -6.80407e-19)
(1.23248 0.0176967 -5.43672e-19)
(0.039207 0.615896 -7.44629e-19)
(1.34713 0.00419445 3.68012e-19)
(1.04675 -0.00101693 4.82471e-20)
(1.22962 -0.115451 -1.26445e-20)
(1.23813 0.0203065 -1.26913e-18)
(-0.0308919 -0.0241765 4.79711e-19)
(1.08799 0.178615 -7.50266e-19)
(0.447789 3.05735 -4.44312e-20)
(0.865588 0.0907569 -9.25539e-20)
(0.822934 -0.105818 -1.21039e-19)
(-0.125328 0.485825 7.6053e-19)
(0.752189 -0.0284602 7.3372e-20)
(0.409605 0.4881 -3.86131e-19)
(0.347923 0.588797 7.26362e-20)
(0.989276 -0.00489386 -5.26745e-23)
(1.14573 -0.0188776 -2.9026e-19)
(1.08406 -0.0901122 2.88426e-19)
(0.996855 -0.0768007 -4.56471e-19)
(0.975908 -0.129785 2.02527e-19)
(0.632664 0.0845169 1.15911e-19)
(0.932032 -0.258772 -3.68933e-19)
(0.961206 -0.166451 -1.90854e-20)
(1.00029 -0.0311299 -3.68502e-19)
(1.06981 -0.357493 2.74003e-19)
(1.03494 -0.203701 1.21529e-19)
(0.744745 -0.00902833 -5.10091e-20)
(1.02622 -0.119714 2.70516e-20)
(0.546505 -0.123514 -1.89953e-19)
(0.995389 -0.0988618 1.14232e-20)
(1.24811 0.00346623 8.96469e-19)
(1.39841 -0.215477 3.77276e-19)
(1.17735 0.0117154 -1.82122e-18)
(1.16136 -0.579706 2.30805e-19)
(0.0686775 2.48653 1.6328e-20)
(0.924799 -0.257794 -8.98661e-20)
(0.998328 -0.00409977 -1.77808e-21)
(-0.419556 0.44783 4.07918e-19)
(0.825114 -0.0411172 -4.64508e-19)
(0.982776 -0.0681711 -1.37394e-22)
(1.24387 0.0302617 -6.14084e-19)
(0.846581 -0.138869 -1.54517e-21)
(1.13789 0.211891 5.03854e-19)
(1.07339 -0.104331 -2.17679e-19)
(0.297461 0.615395 1.85851e-19)
(0.0376013 -0.114611 6.12027e-19)
(0.935045 -0.162514 -1.29863e-19)
(-0.143471 0.611529 -3.07266e-20)
(0.791745 -0.0413545 1.61449e-19)
(1.00301 -0.233015 4.9115e-20)
(1.04488 0.286796 2.9255e-19)
(0.994091 -0.116266 -6.15497e-20)
(0.529934 -0.00795322 -3.97406e-19)
(2.09898 2.53027 -2.07971e-20)
(1.12118 0.0246666 5.04231e-21)
(0.738625 -0.136146 -1.21125e-20)
(0.67722 0.257725 8.92239e-19)
(0.676424 0.0541431 5.92574e-19)
(0.871766 -0.00288242 3.85695e-19)
(0.977844 -0.113379 -2.68695e-19)
(1.10431 -0.0417448 1.36805e-19)
(1.0786 -0.460617 -1.16538e-18)
(1.10704 -0.0925067 1.41344e-19)
(0.778547 -0.0795686 -9.87867e-20)
(-0.419847 0.492555 -1.02785e-19)
(1.10262 0.153718 2.04659e-19)
(0.975874 -0.0379156 -9.09586e-21)
(1.23986 0.0257851 -1.84087e-19)
(1.48999 0.106002 2.00656e-19)
(0.97373 0.329123 -1.12899e-18)
(0.484899 0.0319495 9.16892e-19)
(1.21939 -0.0261329 -5.80784e-19)
(1.14753 0.184496 6.4582e-19)
(0.0278729 -0.10793 -1.19243e-18)
(-0.422376 0.431659 -6.42515e-19)
(0.748137 -0.136517 8.56192e-21)
(0.998263 -0.00424325 3.35655e-21)
(0.952557 -0.118218 -2.63038e-21)
(0.848761 -0.143872 7.41684e-21)
(1.52477 0.0182714 1.57634e-19)
(0.875654 -0.104686 1.32773e-19)
(0.87855 0.341812 5.93575e-19)
(0.9902 -0.00488654 5.93067e-22)
(0.884289 -0.144946 -3.91585e-22)
(0.745499 -0.0918065 2.65397e-20)
(0.698353 0.0537785 1.50749e-19)
(1.11283 0.243491 -2.1827e-18)
(-0.281076 0.366785 6.12479e-20)
(0.549453 0.085224 -4.12661e-19)
(0.755507 -0.0181994 -6.34013e-20)
(1.15503 -0.0845548 -5.16759e-20)
(0.99536 -0.0279104 2.29105e-19)
(1.4605 0.297118 -6.11231e-21)
(0.692361 -0.153874 -1.01189e-18)
(1.02027 -0.0420416 -1.15849e-19)
(0.5437 0.338331 3.0401e-19)
(1.01704 0.124143 -8.18193e-19)
(1.24055 0.0181696 1.15736e-18)
(0.838093 -0.122179 -6.66638e-20)
(0.93706 -0.0373448 4.32156e-20)
(1.01506 0.0612556 8.17978e-20)
(1.03051 -0.0961324 8.12601e-19)
(1.00077 -0.00036492 -1.41175e-24)
(0.938561 -0.145521 -6.61456e-20)
(1.09964 -0.0477077 -5.09903e-19)
(0.705872 0.532643 1.09548e-18)
(1.02376 -0.265146 -8.5164e-20)
(0.685293 0.157111 3.75605e-19)
(1.53297 0.0476985 -1.59334e-19)
(0.636546 0.452856 -7.58203e-19)
(1.00061 -0.000376171 -1.04583e-23)
(0.321939 0.00168038 1.08748e-19)
(0.739575 0.0821054 -2.26829e-19)
(1.08237 -0.0693325 -2.86696e-19)
(1.00036 -0.000549951 6.20849e-23)
(1.40213 0.288328 2.10092e-19)
(0.0752706 -0.411615 -4.37066e-19)
(0.494892 0.0056555 9.59356e-19)
(0.909872 -0.00406877 -1.97669e-20)
(0.384133 0.467647 -5.79754e-19)
(1.17964 -0.0656393 7.37029e-20)
(1.0988 -0.0389962 -2.7992e-19)
(1.02551 -0.00168396 1.85493e-20)
(0.859531 -0.150403 -2.7179e-21)
(1.10804 -0.0477974 -7.45974e-20)
(0.911411 -0.258819 -4.80672e-19)
(0.872027 0.0813491 2.27647e-19)
(0.917758 0.0779817 9.9804e-19)
(1.09762 -0.0481194 -6.202e-19)
(1.25997 5.13314e-05 -4.78893e-19)
(0.981241 -0.00114028 -1.0358e-20)
(0.669882 -0.172613 6.94418e-19)
(0.37561 -0.247816 -1.19859e-19)
(1.14376 -0.0816953 -1.86046e-19)
(1.12988 -0.152183 1.75221e-19)
(1.13653 0.194638 -2.23457e-18)
(0.870791 0.117509 -1.64897e-18)
(0.63777 0.0888353 -1.73267e-19)
(1.30694 0.0115263 4.78196e-19)
(0.665713 0.0559192 -2.35669e-20)
(0.847637 -0.150837 4.12627e-20)
(2.12734 2.4239 1.16005e-20)
(1.07857 -0.0822303 1.4179e-19)
(1.08284 -0.0912229 -5.22416e-19)
(0.579554 0.0924287 -5.02311e-19)
(0.615781 -0.0765357 -2.55083e-19)
(0.862434 -0.137106 -6.18811e-20)
(1.10615 0.246835 -2.74666e-19)
(0.787931 0.0989505 1.16384e-19)
(1.29211 3.17379 2.11375e-20)
(1.02438 0.232468 -6.81037e-19)
(1.00378 -0.0026712 -1.64461e-22)
(0.934387 -0.015727 -9.59458e-20)
(1.0977 0.190926 2.49422e-19)
(0.364791 -0.0114923 4.48297e-20)
(0.912287 0.0871727 5.59291e-19)
(0.730258 -0.134207 3.49055e-21)
(1.16102 -0.0824019 -1.44437e-19)
(0.839788 -0.106211 9.82278e-20)
(0.58397 -0.0781864 -3.03792e-20)
(1.00007 -0.0362367 1.30457e-19)
(1.08765 -0.0914859 3.16253e-19)
(1.96522 -0.00471992 -3.31086e-20)
(1.00683 -0.00410639 2.46939e-21)
(1.27246 -0.00343613 -8.05094e-20)
(0.998305 -5.74239e-06 -4.60743e-23)
(0.0598961 -0.133262 1.56233e-18)
(1.03677 -0.0335954 1.25711e-20)
(0.933523 0.396122 7.86247e-19)
(0.677278 0.0711302 -3.14984e-19)
(0.9506 0.235409 -6.81127e-19)
(1.03976 0.219456 4.66832e-19)
(0.906381 0.199582 -6.49561e-20)
(1.22143 0.0236513 1.15265e-18)
(0.934884 -0.117211 -2.76503e-20)
(1.15918 -0.0632222 -1.48184e-19)
(0.967638 -0.0881346 7.38951e-23)
(0.647496 -0.0943467 6.9628e-23)
(0.535371 0.000595548 -2.30883e-19)
(0.793804 -0.0464148 6.0941e-20)
(0.928006 -0.0123546 -2.30351e-19)
(1.0438 -0.095426 -3.04278e-19)
(1.03626 -0.0325427 -1.52424e-20)
(0.973515 -0.0144255 -2.61065e-21)
(1.0229 -0.0195096 -9.9091e-21)
(0.975142 -0.131754 -9.87616e-20)
(1.31684 0.00325488 6.97755e-19)
(1.02997 -0.0887801 6.46126e-19)
(0.571381 0.0951318 5.34412e-19)
(0.994979 -0.0970275 -2.36262e-20)
(1.30288 0.42116 -4.72952e-19)
(1.10851 -0.0940711 4.19104e-19)
(0.976256 -0.0143741 -1.08587e-20)
(0.876059 0.123258 2.36473e-18)
(1.24147 0.0665069 1.12407e-19)
(0.956109 -0.157754 3.00578e-18)
(1.00732 -0.00553752 -2.457e-21)
(1.00451 -0.0803759 0)
(1.16456 -0.0633473 2.20696e-19)
(0.861376 0.0249739 -2.15951e-19)
(0.829434 -0.0716451 6.28287e-20)
(1.42754 -0.170155 1.79166e-19)
(0.495317 0.00302766 -6.57011e-19)
(0.960633 0.409365 1.50197e-18)
(0.32099 -0.00500328 3.03363e-19)
(1.09487 0.237602 -1.4356e-19)
(1.11057 -0.0936726 -3.04718e-19)
(1.14272 -0.0820196 2.19378e-19)
(0.924078 -0.329224 -6.80947e-19)
(0.665406 0.262412 -3.72176e-19)
(1.23181 -0.0800092 6.65262e-19)
(1.18825 -0.0630124 3.39338e-20)
(0.100787 -0.159789 -2.23847e-18)
(0.320637 -0.00687267 -1.74413e-19)
(1.00737 -0.00587292 1.04431e-21)
(1.26339 -0.00218497 9.6467e-20)
(0.398626 -0.24915 2.99003e-19)
(0.867449 0.000699309 3.40385e-20)
(0.385585 -0.044375 -5.52808e-19)
(1.04137 -0.0995511 -1.10848e-19)
(0.992017 0.319805 1.86513e-18)
(0.998261 -1.58738e-05 -1.36111e-22)
(1.19439 -0.0590204 -6.67636e-20)
(1.27151 0.0201129 6.04952e-19)
(1.17261 0.0398659 -7.39431e-19)
(1.09984 0.434641 -3.71905e-19)
(0.999865 -0.000212007 1.11481e-24)
(0.990273 -0.00517936 1.99218e-22)
(1.18739 -0.0042693 -3.2839e-19)
(0.864753 0.00682608 3.71835e-19)
(0.912152 -0.119066 1.07867e-20)
(0.982221 -0.0730237 -4.25467e-21)
(0.864205 0.359604 -7.39873e-19)
(1.5233 -0.0149474 -7.56424e-19)
(0.27352 0.621364 -8.0633e-20)
(0.944217 -0.107783 -8.27341e-19)
(0.412129 0.044243 -1.10146e-19)
(1.02379 -0.208413 2.40074e-19)
(1.11091 0.0989801 1.10775e-18)
(0.848749 -0.106549 -4.16511e-20)
(1.41509 0.252673 -2.84725e-19)
(0.237647 -0.202837 -2.07972e-18)
(0.931672 0.0745099 -5.16652e-19)
(1.0971 -0.0509138 -2.94263e-19)
(0.943073 -0.0745621 -1.72794e-19)
(0.811453 -0.117541 1.7166e-20)
(1.00083 -0.450766 -2.39159e-18)
(0.846296 0.0207034 5.40721e-19)
(0.829638 0.405991 4.33528e-19)
(0.997454 -0.123387 -4.41834e-19)
(0.958851 0.234689 3.7891e-19)
(0.53201 0.0957509 -1.89138e-19)
(0.705315 0.0517562 4.0905e-19)
(-0.378018 1.17136 -1.05915e-20)
(1.0789 0.128881 1.09328e-18)
(0.849439 -0.125914 8.18641e-20)
(1.05819 -0.117157 3.40582e-19)
(1.05302 -0.113968 -2.63965e-19)
(0.997299 -0.000360796 -3.77817e-21)
(1.01982 -0.092907 -1.12282e-18)
(0.975128 -0.29911 3.68429e-19)
(1.02747 -0.0724598 -2.30444e-20)
(1.11957 0.140434 -6.98337e-20)
(0.956217 -0.101386 8.17829e-22)
(0.956235 -0.103283 -1.37559e-21)
(1.19853 -0.0106845 -2.51307e-20)
(1.0001 -0.119091 2.70353e-19)
(1.10898 -0.00920707 -5.51538e-20)
(1.12213 -0.0635748 4.10753e-21)
(0.444274 0.0525769 -3.25955e-19)
(0.861021 -0.104144 -6.06478e-20)
(0.656511 -0.0930058 -8.31318e-21)
(1.05609 -0.511091 -2.98171e-18)
(0.869587 0.494273 1.16954e-18)
(1.16571 0.0159233 6.20468e-19)
(0.792639 0.0451122 -3.14668e-19)
(0.913939 -0.216668 6.40561e-20)
(1.08601 -0.0915905 -1.87565e-19)
(1.00349 -0.00540394 -2.85769e-22)
(0.999904 -0.00048712 4.0776e-23)
(0.44289 -0.0748329 -1.0864e-19)
(0.234459 -0.202277 2.1195e-18)
(0.737967 -0.121999 1.68886e-20)
(1.00339 -0.00520422 -7.47384e-22)
(0.502898 0.0171877 -1.75394e-19)
(1.11701 0.242964 2.01666e-18)
(-0.017192 0.291177 -4.03278e-19)
(0.647285 0.465718 -5.29195e-19)
(0.991782 -0.000487583 -2.67723e-21)
(0.532906 0.00515066 -7.55523e-19)
(0.937419 -0.0143375 -6.49832e-19)
(1.01716 -0.00179579 -9.07519e-22)
(0.986883 -0.0389619 1.23913e-21)
(0.490287 -0.00359135 1.19569e-19)
(1.1855 -0.00382585 -1.09052e-19)
(1.10827 -0.0890385 -2.40227e-20)
(1.31706 -0.239821 9.70551e-20)
(1.07082 -0.00674957 -3.07941e-20)
(0.730464 -0.247947 -9.34996e-19)
(0.452415 0.0602832 3.302e-19)
(0.41429 0.0458631 -1.8699e-19)
(0.557349 0.0842518 -6.8128e-20)
(1.1273 -0.0633227 -2.19368e-19)
(0.66033 -0.237486 -1.13157e-18)
(1.03701 -0.0697167 2.85075e-20)
(1.00357 -0.00228924 -5.84268e-23)
(1.20681 -0.0641433 1.85236e-19)
(0.771451 0.323294 -3.58039e-19)
(1.30271 -0.259037 1.84654e-18)
(0.941683 0.056637 8.40215e-19)
(1.02755 -0.0914967 -2.08862e-19)
(0.756978 0.0375645 9.42421e-20)
(0.912529 0.00346066 4.18598e-18)
(1.2474 0.0147425 -1.60162e-18)
(1.03105 -0.0626579 -1.88955e-20)
(1.32255 0.00477215 -6.14076e-19)
(0.677896 0.0657741 -8.88196e-20)
(0.375559 0.493387 -7.34811e-19)
(0.944185 -0.0795453 -2.07692e-19)
(1.29119 0.0105176 -1.53342e-18)
(1.14018 -0.00737166 1.18802e-19)
(0.943641 0.0616417 5.79352e-19)
(1.08994 -0.00784708 -5.58587e-20)
(0.843191 -0.0637321 -4.10157e-20)
(0.540807 0.0916749 5.12534e-20)
(0.821903 -0.0095171 4.86059e-19)
(1.04529 -0.00188498 -4.28255e-20)
(0.876983 -0.0117462 -5.01584e-19)
(1.41212 -0.168539 -3.54588e-19)
(0.952256 0.41408 -1.18237e-18)
(0.891303 -0.0862817 3.83114e-19)
(0.819735 -0.0715498 -9.3388e-20)
(0.390553 1.04598 -1.45109e-19)
(1.01083 -0.000301171 -2.37046e-21)
(1.22758 3.13084 -9.30954e-21)
(0.85288 -0.100528 -6.48213e-20)
(1.2441 0.0300732 -9.51687e-19)
(0.861029 0.0254006 -2.06363e-19)
(1.22248 -0.00718526 -3.49272e-19)
(0.0585643 -0.378011 -1.10158e-18)
(0.778064 0.0939465 -1.1505e-18)
(1.37322 -0.29084 8.49092e-19)
(0.908493 0.194096 1.9021e-19)
(0.554081 0.487495 6.29093e-19)
(0.37734 0.595462 -5.68366e-19)
(0.670398 -0.310755 -1.03116e-20)
(1.25011 0.0150228 1.77357e-18)
(0.577172 0.342858 5.96083e-19)
(0.963179 -0.158016 -2.33581e-18)
(1.09825 -0.0876375 -1.03921e-20)
(0.959249 -0.134655 9.39103e-20)
(1.2585 -0.259713 -1.99976e-18)
(1.00468 -0.00362708 -3.26189e-22)
(0.383746 2.96472 5.50018e-20)
(-0.0393629 0.204543 -1.75615e-19)
(0.655007 0.0904615 -3.66712e-19)
(1.12244 -0.0951709 -1.93415e-20)
(1.17971 0.0371853 -2.49757e-19)
(0.843222 -0.143719 -4.36447e-21)
(1.16095 -0.062302 -4.41923e-21)
(0.994051 -0.332336 -5.39623e-19)
(1.52719 -0.0680274 6.45214e-19)
(0.976047 -0.00131069 -6.20218e-22)
(1.0388 -0.0695012 -2.84528e-20)
(1.09858 0.169866 -2.38924e-19)
(1.06534 -0.117131 2.31094e-20)
(-0.105884 0.590285 7.19225e-20)
(0.658754 0.279131 -6.26825e-19)
(1.00716 0.315276 2.32511e-19)
(0.987534 -0.0392142 -3.36007e-21)
(1.01933 -0.222471 -8.81105e-20)
(0.94335 -0.170313 -6.87243e-19)
(1.0953 -0.00669908 3.73306e-20)
(1.01114 -0.0280962 5.77841e-19)
(1.16488 0.160063 5.04564e-19)
(1.51513 -0.0996304 -4.18887e-19)
(1.06261 -0.116335 -8.59913e-20)
(0.999749 -0.000270421 1.75714e-23)
(0.584394 0.342271 4.4942e-19)
(1.00984 -0.0270702 1.0253e-18)
(0.975576 -0.0014927 -1.38436e-20)
(1.21121 0.0120988 -1.56917e-19)
(1.16348 -0.0335372 -1.21304e-19)
(0.867738 -0.105141 1.15785e-20)
(0.698362 -0.00830583 2.94212e-20)
(-0.0695377 2.27087 4.09427e-20)
(0.455536 0.0358377 -7.24356e-20)
(0.844758 -0.145535 -6.70777e-22)
(0.618949 -0.0706138 -5.02778e-21)
(1.04104 -0.0674807 4.08867e-20)
(0.978065 -0.0150877 7.61333e-21)
(1.0431 -0.0221302 -5.11691e-19)
(0.109486 0.538023 -1.06835e-19)
(0.961208 -0.0110756 5.33439e-21)
(0.453487 0.062718 3.92075e-19)
(1.11614 -0.0793872 1.69938e-20)
(0.887896 -0.0784439 1.79743e-19)
(0.816002 -0.0176444 -6.42791e-19)
(0.98121 -0.0686689 1.53241e-21)
(1.496 0.0451387 -3.41984e-19)
(1.09787 0.0563333 -4.64546e-19)
(1.04047 -0.250842 2.75107e-19)
(0.159472 0.535299 3.00598e-19)
(0.916284 -0.0419672 7.69756e-21)
(0.994787 -0.0136525 -2.03169e-21)
(0.93245 -0.0473174 -1.54355e-20)
(0.830721 -0.0729903 -1.81993e-21)
(1.12351 0.0255247 0)
(1.05015 -0.0516542 -3.55457e-19)
(0.323473 0.00236301 -2.52546e-20)
(1.03145 -0.0702126 -1.77996e-18)
(0.280942 -0.220007 1.78513e-18)
(0.274459 -0.216468 -1.54521e-18)
(1.11135 -0.0434729 3.98606e-19)
(1.11618 0.109807 1.10713e-18)
(1.05911 -0.469462 1.84825e-18)
(0.921024 -0.0492909 7.4871e-21)
(0.876466 -0.0104145 -1.04334e-19)
(0.650693 0.0901911 3.49332e-19)
(1.03342 -0.0333443 1.7795e-20)
(1.00194 -0.0816146 2.67813e-19)
(1.11843 -0.0782871 -8.25689e-21)
(1.0199 -0.0881947 -5.95627e-19)
(1.0461 -0.335167 -6.92328e-20)
(1.53512 0.112426 -6.99891e-19)
(0.699416 -0.244689 9.09514e-19)
(0.849832 -0.135284 -1.3431e-20)
(0.62727 0.0894379 6.11743e-19)
(1.02417 0.0588135 -4.33905e-20)
(0.9547 0.325678 -1.26666e-18)
(1.23643 0.0225729 -2.04871e-19)
(0.954047 -0.0648922 -7.99627e-20)
(1.00215 -2.52236e-05 -1.73728e-23)
(0.944743 -0.098188 1.03149e-18)
(0.55793 0.0113932 2.16065e-20)
(0.0189302 -0.100777 -1.10791e-18)
(1.03925 -0.0583623 -1.83968e-19)
(1.09265 -0.0521346 -1.97279e-18)
(0.97767 -0.195934 -5.38517e-19)
(1.2117 -0.0645884 8.0863e-20)
(-0.382561 0.532131 -2.20984e-19)
(0.864424 -0.00494744 4.92981e-20)
(0.63152 -0.023671 1.19983e-18)
(0.983051 0.0298643 3.60507e-19)
(1.15976 0.170244 -2.43831e-19)
(0.405311 -0.0854864 -1.24807e-18)
(1.31775 0.0136192 1.19005e-19)
(0.998012 -0.00335104 -9.92122e-22)
(0.929498 -0.150969 3.64814e-20)
(0.452203 0.0595225 -3.71479e-19)
(0.858387 0.0150935 -4.99347e-19)
(1.20833 0.00852084 -1.16078e-19)
(1.32518 -0.247753 9.31602e-20)
(1.04245 -0.0673043 -4.66023e-20)
(1.69855 -0.535843 7.1655e-20)
(0.80847 -0.118894 -7.0923e-20)
(0.99714 -0.0124541 -8.81257e-22)
(1.05253 -0.0545699 3.95271e-19)
(1.0322 -0.0714285 1.17424e-20)
(1.5214 -0.0913727 5.75063e-19)
(1.03444 -0.0327609 -1.56939e-20)
(0.912308 0.388516 -2.50181e-19)
(0.631582 0.0800289 9.75786e-20)
(1.3327 0.00706328 -2.26366e-19)
(1.20774 -0.0575862 -3.40256e-19)
(1.02639 0.345307 1.78711e-18)
(1.17507 -0.0650778 -4.24635e-19)
(1.01347 0.119609 -7.02726e-19)
(1.00022 -0.000621923 2.86098e-23)
(1.01906 -0.141084 3.86076e-19)
(1.01492 -0.108863 -1.26601e-19)
(1.14023 -0.0826137 3.72853e-20)
(0.581489 0.00891014 1.55996e-19)
(1.00414 -0.00299145 7.30197e-22)
(-0.433415 0.527513 -3.21591e-19)
(1.42818 0.353262 1.61418e-19)
(-0.0765475 0.188805 3.95589e-19)
(1.03144 -0.0611384 3.66705e-20)
(1.04219 0.964626 1.27585e-19)
(1.12465 0.0283927 -2.77027e-19)
(1.13162 -0.23904 1.24133e-18)
(1.06284 -0.101689 5.79801e-20)
(0.953878 -0.000498275 -4.16285e-21)
(1.09819 0.163273 -2.79622e-19)
(1.02751 -0.0243785 -1.01834e-20)
(1.32958 -0.216099 -4.05012e-19)
(0.937897 -0.0120152 -6.89448e-20)
(0.110033 -0.477871 -9.014e-21)
(0.71372 0.528081 -1.45806e-18)
(1.0265 -0.0226486 8.06269e-21)
(1.15652 -0.570012 2.23264e-19)
(0.98339 0.0732637 -1.3977e-18)
(0.978049 -0.0144123 3.74508e-22)
(1.09534 0.234377 1.58897e-18)
(1.03139 -0.1017 1.23563e-18)
(0.695418 -0.0110533 2.37115e-20)
(1.09008 -0.0335709 3.51599e-19)
(1.06536 -0.00863186 2.25489e-20)
(1.13221 -0.0149602 -4.22095e-19)
(0.54897 0.0911741 -2.4709e-20)
(0.388649 -0.00553817 3.08307e-20)
(0.821448 0.414546 -5.98712e-19)
(0.934976 0.0702992 -3.55494e-19)
(1.48186 0.245512 1.01959e-18)
(1.43849 0.0224783 8.98733e-19)
(0.634696 -0.00966673 -6.80295e-20)
(1.00408 -0.063957 -1.90816e-21)
(0.814033 0.398226 -2.4246e-19)
(0.851985 -0.105469 -4.08843e-20)
(0.406365 0.0269555 -3.38952e-20)
(1.03433 -0.0715216 -6.58812e-21)
(0.966092 0.348129 5.79638e-20)
(0.410092 -0.083677 1.77728e-18)
(1.54973 0.0135262 9.42193e-19)
(1.00326 -0.122013 1.72299e-19)
(1.00546 -0.13568 -3.16299e-20)
(0.567502 0.0132301 -7.55796e-20)
(-0.0260831 0.371734 -2.3312e-19)
(1.02047 -0.219695 -1.73655e-20)
(0.827492 0.361566 -2.32464e-19)
(1.15566 0.00262836 -7.77351e-19)
(1.11967 0.105205 -9.30231e-19)
(0.96722 -0.0201735 -3.57269e-21)
(-0.484881 0.860955 1.1738e-19)
(1.003 -0.00502684 -3.57757e-22)
(1.15398 -0.0587771 2.78585e-19)
(0.998186 -8.37127e-05 2.91094e-22)
(1.2175 3.01299 -4.64104e-20)
(1.2345 -0.0672339 -5.45681e-19)
(0.887461 0.119069 1.12254e-19)
(0.997233 -0.000402696 3.79924e-22)
(1.36456 -0.303523 -2.29451e-18)
(0.932622 -0.0195393 1.06866e-20)
(1.00507 -0.0811954 2.68644e-19)
(0.903713 -0.0465195 2.5341e-20)
(0.385166 -0.248588 -5.96153e-20)
(0.797808 0.044577 5.15787e-19)
(0.92287 0.381449 8.98885e-19)
(0.977045 -0.001823 1.88945e-20)
(1.08146 -0.169481 3.85234e-19)
(1.0172 -0.027772 1.03817e-19)
(0.764641 0.0431096 3.64375e-19)
(0.996384 -0.0134164 4.07954e-21)
(1.00097 -0.136846 -3.34291e-20)
(0.961521 -0.00188728 2.0679e-21)
(0.989155 -0.243056 3.41414e-19)
(1.15056 -0.0855383 1.58566e-19)
(0.838785 -0.0831208 -1.90798e-21)
(0.500217 -0.00177696 -1.00009e-18)
(1.01444 -0.0349867 -1.0691e-22)
(1.0444 -0.0644593 3.79308e-20)
(1.05033 0.0491298 4.55884e-19)
(0.917602 -0.0423841 4.59867e-21)
(0.907537 0.0131468 -1.86221e-18)
(1.16997 0.194991 1.80053e-18)
(-0.00822873 0.445159 2.74413e-21)
(0.436546 0.010625 8.7335e-20)
(1.1881 -0.242202 -3.36556e-19)
(0.997859 -0.000245418 -2.39833e-22)
(0.355247 1.08764 1.60602e-19)
(1.04186 -0.335423 2.52813e-19)
(1.0611 -0.00861296 3.32395e-20)
(0.746984 -0.121035 2.15082e-19)
(0.99083 -0.121955 1.24952e-19)
(0.565866 -0.155162 -3.09586e-19)
(1.72046 1.5766 2.51007e-20)
(1.0878 -0.00784702 -4.03081e-20)
(1.00321 -0.119157 -8.42372e-19)
(0.997155 -0.0127941 3.51887e-21)
(0.805868 -0.0778794 5.48376e-20)
(0.936303 -0.0203661 1.05003e-21)
(0.623069 0.307457 -8.52525e-20)
(0.454168 -0.0411456 -3.44494e-20)
(1.02145 -0.0416284 -2.80302e-22)
(0.970816 -0.0145564 6.23602e-21)
(1.24242 0.0177073 7.56835e-19)
(0.739389 -0.277706 -1.0503e-19)
(0.858781 -0.105778 6.44975e-20)
(1.01341 -0.133653 -7.93442e-20)
(0.836553 0.414637 -6.85034e-20)
(0.817061 -0.411589 4.88313e-19)
(1.14449 -0.082009 1.02872e-19)
(-0.0892195 -0.0916118 -1.69397e-20)
(1.39707 0.714933 -3.26682e-19)
(0.454679 -0.248945 -4.85216e-19)
(1.00526 -0.0631955 7.54532e-21)
(0.998578 -0.000113458 8.63491e-22)
(0.756963 0.328216 4.68318e-19)
(0.534061 -0.121087 -1.11734e-19)
(1.01553 -0.0349496 -4.74594e-21)
(-0.328092 0.273664 6.9086e-19)
(0.865039 -0.068416 2.77798e-20)
(0.998398 -0.000930762 2.05252e-21)
(1.10174 0.250211 1.92234e-19)
(1.16864 -0.394901 8.38277e-20)
(0.706168 -0.246242 -1.20944e-18)
(0.345586 -0.245518 -2.1996e-19)
(0.855087 0.0544548 4.34513e-19)
(0.374939 -0.00986755 5.00659e-20)
(0.411533 0.0256784 2.76445e-19)
(1.1021 -0.0525407 -4.32332e-19)
(0.739529 0.483194 -6.61954e-19)
(0.966236 -0.0890712 5.78926e-22)
(0.946769 -0.1723 -1.30146e-19)
(1.09749 0.268721 1.34547e-19)
(0.979162 -0.08554 3.07403e-21)
(1.39008 0.666436 4.50636e-19)
(0.991476 -0.0683125 8.22152e-19)
(0.994035 0.299638 -1.79087e-18)
(1.07733 -0.0260179 3.02646e-19)
(0.92634 0.0328975 -9.29577e-20)
(1.27716 0.436977 -6.07018e-19)
(1.26074 0.0280882 5.64165e-19)
(1.12504 -0.161603 -4.67826e-20)
(0.714952 0.0730937 -3.69176e-19)
(0.574959 0.395544 1.24449e-18)
(0.427434 0.465365 4.12138e-19)
(0.426358 0.0016781 3.17355e-20)
(0.982236 -0.200436 -2.36055e-19)
(0.647432 0.28516 1.11727e-19)
(0.822768 -0.0414103 1.71703e-20)
(0.945427 -0.00243446 1.53881e-22)
(1.60634 -0.509801 3.65758e-19)
(0.753592 -0.0224718 1.26895e-19)
(0.766191 0.0403906 9.44661e-20)
(1.52363 0.129645 -2.28464e-19)
(0.384969 -0.00283637 7.14827e-20)