/*--------------------------------*- C++ -*----------------------------------*\
  =========                 |
  \\      /  F ield         | OpenFOAM: The Open Source CFD Toolbox
   \\    /   O peration     | Website:  https://openfoam.org
    \\  /    A nd           | Version:  7
     \\/     M anipulation  |
\*---------------------------------------------------------------------------*/
FoamFile
{
    version     2.0;
    format      ascii;
    class       surfaceScalarField;
    location    "19";
    object      phi;
}
// * * * * * * * * * * * * * * * * * * * * * * * * * * * * * * * * * * * * * //

dimensions      [0 3 -1 0 0 0 0];

internalField   nonuniform List<scalar> 
172499
(
201.219
56.797
-258.016
-473.774
102
371.774
-111.355
-77.294
188.649
112.834
-278.304
165.47
-435.909
323.598
112.312
138.3
-337.116
198.816
-147.601
286.692
-139.091
-81.6374
194.541
-112.904
-363.392
351.914
11.4778
-465.118
-8.65615
-229.973
354.478
-124.505
495.002
-360.235
-134.767
-169.51
341.101
-171.591
89.175
-90.1246
0.949636
-44.0198
-319.373
-106.076
60.7586
45.3176
-456.098
86.4998
369.598
-411.569
77.0235
334.545
-118.786
286.114
-167.329
-331.911
-103.999
-73.3313
182.576
-109.245
199.067
-197.007
-2.0606
392.803
-290.247
-102.556
159.757
-313.177
153.419
-230.071
201.939
28.1317
-117.333
226.038
-108.706
67.9111
72.0333
-139.944
-207.554
462.186
-254.632
-263.251
-175.897
439.148
-51.2949
100.733
-49.4385
427.817
-342.023
-85.7938
-246.423
-67.6646
314.087
-267.294
405.869
-138.575
-101.133
-75.9997
177.133
-74.31
-98.4355
172.745
182.21
95.3871
-277.598
-224.145
93.3809
130.764
-99.6912
-356.406
114.684
-146.572
31.8886
118.76
200.528
-319.288
157.445
-403.868
-57.6025
-353.966
-131.137
-35.5693
166.706
-118.97
301.181
-38.5454
102.128
-63.5827
-2.30586
91.4809
264.109
65.6807
-329.79
543.678
-303.553
-240.125
397.838
-148.38
-249.457
414.135
-534.082
119.947
-390.721
478.202
-87.4803
279.799
-101.708
-178.091
-472.159
330.016
142.144
-504.398
451.002
53.3963
-119.133
-166.095
285.227
-316.899
-155.26
554.564
-365.567
-188.997
-132.512
81.9904
50.5221
85.383
75.901
-161.284
127.82
-229.807
101.987
-515.347
327.477
187.87
-186.319
330.931
-144.612
345.983
-129.393
-216.59
-104.634
185.653
-81.0182
295.883
87.1809
-383.064
9.4287
-401.258
391.83
-351.658
197.295
154.362
-219.09
398.897
-179.808
79.4912
-144.953
65.4617
-535.788
254.677
281.111
-108.238
201.655
-93.4168
199.273
-152.604
-46.6691
369.94
-251.18
-134.647
67.9392
66.7076
-95.7005
-91.2956
186.996
80.4199
-164.386
83.9658
-206.473
49.1812
157.292
202.543
-402.993
200.45
-246.855
-142.218
389.073
-293.496
218.303
75.1921
-77.873
-215.623
429.784
-432.782
2.99806
39.3182
-84.6093
45.2911
-306.073
557.569
-251.496
-137.26
240.795
-103.534
342.477
152.525
-108.822
177.731
-68.9087
-324.471
472.877
-148.406
105.656
-117.824
12.1675
-86.6976
441.524
-354.826
134.147
-5.15826
-128.989
202.532
-20.405
-182.127
206.539
-469.79
221.262
50.2047
-271.467
-420.558
315.18
105.377
-574.971
416.886
158.085
261.964
-321.803
59.8394
94.4372
-55.119
86.5239
-162.57
76.0457
0.465539
105.191
-314.488
-200.858
199.822
-434.532
234.709
327.964
-177.988
-149.977
-485.451
499.355
-13.9042
105.475
-213.712
169.651
-93.8223
-75.8289
-503.152
316.827
186.325
-39.2436
102.24
-62.9964
-141.965
225.216
-83.2509
-311.342
-71.1292
382.471
-122.816
232.925
-110.109
-54.6598
316.624
-175.49
-30.9828
134.04
107.03
-241.07
-107.039
46.5073
60.5319
204.385
-345.45
141.064
-307.575
77.6027
-93.779
219.941
-126.162
363.999
-541.568
177.569
49.72
149.553
-212.241
118.462
-66.1376
-39.9387
-222.926
115.189
107.737
46.066
-170.49
124.424
-230.663
532.609
-301.946
-112.47
61.175
-264.833
78.5138
-114.887
75.648
39.2391
-181.058
-41.6948
222.753
-506.804
509.545
-2.74165
-107.916
235.605
-127.689
567.177
-287.765
-279.411
-172.579
186.063
-13.4838
538.962
-196.485
-329.439
480.847
-151.408
-117.369
227.302
-109.934
-259.112
176.819
82.2931
62.8008
-330.095
148.078
-267.211
182.753
148.178
84.6858
52.7591
-137.445
-191.392
341.11
-149.718
502.984
-504.542
1.55853
380.498
-197.095
-183.403
-266.842
158.926
141.96
-532.682
438.15
-331.86
-106.29
-115.446
-149.387
-452.14
233.05
-226.694
-167.589
394.282
107.516
62.1356
55.2583
-93.8038
7.83419
194.698
-567.957
273.279
294.678
133.118
146.681
-360.245
427.378
-67.1337
-412.191
100.849
-67.1853
220.342
-153.156
132.826
-133
0.173816
-152.694
112.362
40.3318
150.413
-69.9932
137.705
300.446
158.349
187.634
-189.395
147.286
42.1089
263.673
-143.552
-120.121
139.933
173.383
-313.316
444.987
-259.422
-185.565
-60.7328
-105.673
166.406
-189.825
122.639
-241.277
123.755
117.522
-241.587
156.087
85.5004
-101.975
366.084
-97.0035
-28.0308
125.034
26.6635
60.7068
-87.3702
-72.4009
-82.482
154.883
219.537
-436.494
216.957
-71.6391
98.3025
193.689
85.7957
-279.485
114.196
-333.291
219.095
277.171
120.666
-288.911
-131.393
420.304
-192.73
97.0293
149.098
-260.279
111.181
-207.984
415.468
-207.483
-273.235
-229.917
-162.557
384.872
-222.315
95.421
-261.834
166.413
311.35
188.65
-137.008
325.47
-188.462
126.221
7.92618
-106.078
299.767
-338.824
188.995
149.828
452.891
-166.371
-286.52
-202.686
116.482
86.2042
-232.784
115.451
70.0291
-131.142
61.1125
21.3407
-92.9797
-172.769
163.639
9.1299
55.8408
-146.765
90.9245
83.3414
137.742
-221.083
-568.514
389.249
179.266
-187.445
361.1
-173.655
363.322
56.6992
-420.022
481.283
-479.311
-1.97173
-338.427
169.048
169.38
135.528
-90.4811
-45.0471
369.964
-271.353
-98.6117
-87.3018
383.185
-213.193
-196.336
409.529
97.6635
-209.255
111.592
-68.2216
89.5623
49.5824
267.244
17.0591
-247.13
-384.205
297.507
-163.103
-63.9862
227.089
-85.1036
-117.583
-99.7559
253.026
-153.27
-183.42
-137.099
320.519
79.2942
-81.6
-123.609
-261.418
385.027
130.493
8.83065
-139.323
134.861
-0.419269
-134.442
135.141
-329.485
194.344
-75.4867
138.967
-63.4801
-73.5438
-430.854
-178.236
16.2551
161.98
-199.986
-81.0862
281.072
184.69
-68.5398
-116.151
138.002
-67.9729
-349.377
100.507
248.869
0.204242
-412.903
412.698
68.7429
-117.855
49.112
49.6821
-131.444
81.7622
83.9593
-176.342
92.3829
-237.155
122.02
115.135
-225.357
-343.157
-641.874
285.501
356.374
392.673
-204.813
-187.86
-55.4641
160.283
-104.819
239.734
-166.291
-73.4426
-44.2794
149.44
-105.161
-293.062
166.199
126.863
-118.111
-34.5823
153.276
-66.7523
278.211
-217.234
-60.9774
-234.636
407.631
-172.995
447.143
-220.972
-226.17
134.622
-86.3285
-48.2935
-162.899
102.166
-63.9065
-32.4916
96.3981
203.071
282.31
-485.381
-370.519
240.918
129.602
226.744
-530.359
303.615
387.337
-236.618
-150.719
118.75
-73.6075
-45.1423
-6.1961
-282.715
-74.0192
177.456
-103.437
-561.669
299.25
262.419
503.698
-503.698
-187.145
105.507
370.03
-376.226
-3.79587
83.09
-479.974
271.99
-127.949
124.246
3.70284
40.8147
-182.78
257.911
-145.077
-104.916
150.982
179.55
-279.926
100.376
104.083
96.5769
-200.66
-100.589
207.489
-106.901
415.213
-131.529
-283.683
-327.436
190.428
428.045
-150.874
-222.698
-70.3637
141.824
177.432
-319.256
-188.114
104.257
83.8575
44.7361
-99.5335
54.7975
-170.79
98.3893
-248.199
297.846
-49.6474
75.6365
-114.88
-121.228
-68.1673
97.1532
184.438
-404.77
220.332
69.5111
66.0171
456.582
-254.296
-202.287
172.418
206.414
-378.832
65.5716
-243.807
497.31
-507.349
10.0397
116.931
-71.183
-45.7476
100.011
-150.082
50.0713
108.949
-64.2129
-500.323
66.1285
434.194
-167.701
29.2779
138.423
367.844
-318.261
-258.595
409.611
-151.016
-480.587
302.713
177.874
364.235
-244.487
-119.748
-139.993
-213.396
353.389
-161.506
345.147
-183.641
-230.779
130.19
-68.6445
-22.9079
91.5524
110.258
-192.652
82.394
-60.5633
132.463
-71.8996
308.879
-193.287
-115.591
85.2762
38.5946
-123.871
-129.059
281.705
-152.647
-252.519
166.118
86.4004
111.866
72.8247
100.542
-128.779
28.2368
-172.745
286.941
-91.9818
-187.458
279.44
124.567
16.3212
-140.889
-96.9368
162.481
-65.5445
-152.354
96.8903
-330.315
160.805
-179.975
346.426
-166.451
338.901
113.989
177.813
-412.449
272.773
-113.016
-178.922
122.882
56.0396
-4.3362
-179.385
183.722
262.75
-386.359
-57.7661
421.088
-34.6895
-72.3497
183.044
71.5239
-254.568
-142.809
59.5523
83.2568
-367.961
7.7168
196.292
-412.532
216.241
29.4024
-98.0469
-151.809
-15.8918
194.058
-286.04
-432.874
-67.4488
141.685
229.431
-371.116
219.134
145.101
123.898
-58.0095
-65.888
172.19
102.073
-274.263
-256.494
167.564
88.9307
80.3355
-357.607
277.272
352.995
-214.695
243.319
-147.898
83.5682
107.95
-191.518
-132.156
268.401
-136.245
128.031
-60.1196
91.412
-181.702
90.2903
265.962
-89.2695
-176.693
-170.414
-212.845
383.259
-174.995
-73.2038
-69.1277
-34.6655
103.793
78.3912
49.5502
-127.941
320.531
-173.09
-147.441
-214.433
41.8532
-509.146
345.585
163.561
364.871
5.15918
170.228
-290.327
120.099
185.422
-102.081
181.596
90.3589
-271.955
-50.9046
252.123
-105.321
-299.56
404.881
-171.278
388.652
-217.374
-113.024
262.34
-149.316
-172.348
282.714
-110.366
145.033
-98.1701
-46.8625
-145.822
-78.3223
-137.021
81.9846
55.0364
273.993
-157.097
-116.896
-438.081
332.76
-160.794
163.531
-2.73734
-185.715
111.71
74.0044
303.798
-168.657
-168.961
473.04
-304.079
199.96
-88.6421
-111.318
65.2317
87.5554
-152.787
72.7456
61.8764
25.6713
229.889
-255.56
94.7838
105.402
-200.186
63.3647
305.903
-369.267
147.989
510.434
-96.299
225.776
95.8186
-321.595
-141.73
299.092
-157.362
136.027
-67.284
213.443
-118.118
-95.3256
-80.8317
203
-122.169
139.223
-252.247
395.955
-223.537
-371.328
369.337
1.99142
141.451
-91.7689
-58.157
-37.2306
95.3875
489.037
-165.439
-62.9979
185.047
-122.049
-229.867
427.416
-197.549
276.293
173.692
-449.985
68.4427
-177.265
-454.492
246.938
-22.2626
157.124
-324.766
187.384
137.382
2.89469
97.6477
-316.481
-132.093
448.574
267.511
160.534
-75.1427
-84.3564
159.499
96.7006
2.49466
-99.1953
-242.102
354.613
-112.511
124.546
-117.553
-6.99319
-166.051
391.346
-225.295
-126.682
131.882
-5.20024
55.6115
122.924
-178.536
142.048
-471.487
-169.541
261.35
-91.8091
-97.4409
249.238
-151.798
-133.375
197.697
-64.3224
254.539
-162.452
-92.0875
-274.584
87.1258
237.316
-407.73
-39.472
214.07
-174.598
-225.783
88.5224
196.105
101.741
381.83
-114.32
82.7508
-135.802
53.051
353.322
69.9339
-423.256
-196.455
406.608
-210.154
-232.838
-267.158
22.7988
-91.0204
601.513
-379.313
-222.2
-38.1515
129.71
-91.559
-160.695
63.7579
304.429
-391.023
86.5942
-137.205
192.816
-392.17
379.84
12.3301
330.11
224.454
147.967
156.958
-304.925
-504.772
382.562
122.21
-352.513
426.174
-73.6609
-99.4157
252.703
-153.287
179.755
-67.8896
128.762
180.117
125.836
-295.377
-124.568
270.036
-145.468
382.828
218.686
336.28
-330.401
-5.87922
325.156
-529.557
204.401
341.47
-138.927
-102.764
-404.04
64.8052
-216.439
151.633
80.5474
-155.69
357.39
99.1928
182.171
-81.6564
-100.515
237.954
169.677
134.618
233.656
-368.273
-100.827
377.12
413.626
-194.088
-405.361
14.2272
391.134
-291.196
-180.982
472.178
421.596
-291.799
-129.797
489.777
-249.583
-240.194
-70.5013
-92.3973
-59.6963
272.283
-212.586
57.7473
84.0834
-141.831
83.7801
-141.049
57.269
157.949
156.861
-314.81
-184.968
31.31
153.658
35.7517
88.7947
412.081
-174.127
374.938
114.099
-263.886
-151.844
415.729
-30.9079
155.475
-174.707
101.375
-161.208
-219.943
381.15
-25.383
86.0898
-37.9614
-147.007
166.344
-457.54
199.501
-32.9742
-56.9684
89.9426
217.254
-56.9711
-90.3391
-44.3076
-260.611
136.043
-103.25
286.294
-324.718
499.956
-175.238
261.321
-422.529
397.599
-197.777
104.143
195.898
-300.041
-142.809
65.21
77.5994
-367.321
488.641
-121.32
307.407
-227.071
554.675
-227.514
-327.161
115.429
101.825
358.784
-116.942
-241.842
-271.734
434.52
-162.786
139.683
-245.884
106.202
-160.501
32.6607
127.84
-153.367
-77.4115
153.199
-394.671
241.472
10.8333
-119.288
108.455
454.22
-194.88
-259.34
303.278
-477.12
173.843
-227.633
188.161
90.4117
109.548
101.705
-5.98932
-95.7155
253.799
-119.759
249.784
142.888
322.622
-180.852
-141.769
-326.832
217.29
109.542
-487.628
399.543
88.0849
184.085
-100.126
-108.315
188.444
-80.1295
-181.698
-70.8204
348.564
-44.1351
118.653
10.9602
-129.613
-117.759
201.328
-130.447
86.1672
-529.637
360.25
169.387
311.434
-141.205
226.335
161.002
161.363
-397.981
-474.618
238.099
236.519
-248.222
164.465
83.7568
112.566
-42.8116
-69.7541
-219.075
-203.087
422.163
101.308
147.725
-249.033
-407.091
282.508
124.583
-272.153
-134.938
-561.657
373.506
188.152
-283.686
101.988
585.978
-299.8
-286.178
-148.867
-176.723
325.59
-132.415
137.388
-4.97258
-165.318
274.733
-109.415
-254.408
154.992
-414.676
302.08
112.595
106.241
92.0812
-198.322
-370.429
194.093
176.336
-112.483
-129.104
141.942
-104.719
-37.2228
276.237
105.593
573.969
-316.415
-257.554
253.319
-519.759
266.441
55.7931
-117.307
61.514
95.068
6.63685
-62.4181
145.422
-83.0036
272.974
300.995
72.2663
-173.399
-289.344
157.188
118.953
-39.4616
115.771
158.222
347.271
82.5129
107.914
71.8411
38.7982
-187.188
148.39
365.27
-514.25
148.98
-60.9429
326.11
-265.167
-33.9415
117.722
174.722
379.953
-146.844
359.047
-212.203
67.0105
-165.103
98.093
-341.003
-300.871
-63.2198
-35.8824
99.1022
6.58792
-139.003
-107.302
118.135
176.855
-85.4426
179.143
-328.01
-138.188
78.434
59.7537
-351.891
-87.6956
439.587
-338.28
521.847
-183.567
108.485
-370.643
262.158
55.1999
-143.36
88.1598
-113.165
-236.212
292.429
108.864
-401.293
177.607
-112.801
250.072
-141.866
-108.206
554.88
-192.647
-362.233
-370.168
52.6409
317.527
331.646
90.7633
-422.409
-479.027
499.118
-20.0917
-146.183
-76.743
-94.2179
198.301
142.754
179.868
249.7
-535.875
286.175
376.978
-367.549
461.539
-169.11
552.988
-298.829
-254.158
-224.054
245.083
-21.0292
-52.0204
170.673
-96.2425
-255.677
351.919
56.7837
446.915
-67.1164
-85.238
142.665
-84.9179
321.444
-163.495
129.858
58.7398
-188.597
166.965
-226.661
-68.2923
-100.446
168.738
552.67
-552.67
-3.29887
-123.383
281.06
-168.411
-112.649
-309.489
-171.099
-162.625
92.1241
-366.434
-119.017
-77.0411
142.273
203.889
-293.946
185.675
108.271
12.0274
-404.197
129.889
105.967
-235.856
88.7365
118.753
134.431
-49.7453
-67.0889
-303.079
76.4043
-249.942
173.538
-12.8469
-392.514
-298.267
151.423
-132.344
-183.808
316.151
113.362
235.316
-348.678
-328.357
500.85
-172.493
-91.2623
-36.6863
-72.5553
104.139
-31.5838
-99.3835
181.368
-81.9847
227.824
169.538
-397.362
317.042
-212.899
405.792
-186.659
-304.333
-200.438
154.388
-273.174
-162.894
88.5842
-412.913
308.089
104.824
83.9424
-435.834
90.6234
150.552
-241.176
-221.95
-153.349
375.299
40.5733
-101.137
132.431
-163.339
-116.524
-225.179
341.703
-301.843
240.9
-100.834
-52.3469
153.18
-188.264
109.591
78.6724
358.232
-517.277
159.045
319.277
-212.85
-106.427
156.49
290.653
78.9685
84.1906
-163.159
387.204
-160.869
146.88
-514.2
257.556
-181.152
157.558
161.719
-64.6916
-348.222
217.736
-377.276
159.539
408.478
-237.451
-171.027
75.4297
-260.39
184.96
-228.819
-10.1099
238.929
65.8974
-157.342
91.4449
83.7526
-161.296
77.5436
193.569
212.224
-48.7629
145.464
-334.313
418.256
135.779
234.096
-369.875
-105.22
309.605
77.6552
106.615
-184.27
41.7841
-314.672
272.888
-139.296
145.884
278.637
-458.07
179.433
-93.092
222.95
271.601
-455.235
196.639
-95.2289
0.589558
94.6394
38.3946
121.4
-159.795
219.336
234.884
-114.296
191.951
339.874
-28.4388
-311.436
-124.033
444.717
-320.684
101.949
290.854
44.5545
227.728
316.687
134.508
-451.195
327.958
-268.324
-59.6339
-32.3383
-128.456
-208.543
91.174
-76.6318
-30.7805
107.412
13.6577
-90.2895
-315.048
173.318
-75.1031
-176.809
251.912
190.734
128.127
-318.861
-222.593
-47.5639
270.157
-153.378
86.2615
81.8163
-181.2
-84.0282
-318.656
402.685
-79.934
-142.765
517.64
-239.003
-70.6154
74.499
52.778
-127.277
-169.327
82.25
87.0774
71.6072
-91.6491
20.0419
106.057
172.824
-278.881
-186.805
105.891
80.914
-137.339
318.935
-98.6945
-126.288
224.983
-327.179
-208.608
-243.915
127.736
116.179
-229.282
527.005
-297.723
442.622
-289.423
-72.527
-94.27
166.797
-74.0325
103.435
-183.589
323.538
-139.949
-118.332
269.673
-151.341
163.097
-69.0673
-94.0293
-251.177
359.662
143.105
-85.9547
-57.1499
-274.098
280.007
-5.90911
-277.767
130.166
196.081
10.5027
-206.583
-197.62
388.174
-190.553
125.016
-60.7566
-64.2594
227.384
-468.726
241.342
-497.836
173.365
164.504
-34.0115
-140.042
0.745721
-189.823
88.0266
101.796
-149.401
367.138
146.314
-79.304
80.8739
-415.187
-42.2061
-69.7171
111.923
-105.57
-509.238
357.364
151.874
249.081
78.8778
-305.754
-160.759
466.513
-83.9258
298.799
102.53
-140.681
-54.6806
-133.434
-232.952
-243.492
476.445
-198.328
-242.927
441.255
-285.953
273.992
11.9604
313.708
-250.343
-297.11
-212.037
340.839
-509.8
100.391
95.9108
-196.302
-383.254
212.331
170.922
157.268
217.67
-77.576
142.705
-65.1286
-330.358
526.168
-195.81
-186.945
134.39
52.5551
-130.949
43.2071
87.7414
52.617
-125.172
-63.9187
395.564
94.241
64.0855
-158.326
503.302
-186.615
-115.402
264.5
-318.599
157.092
-287.026
287.026
-150.14
240.764
-548.842
281.59
267.251
-238.868
-96.0073
334.876
186.907
-148.109
-125.303
132.841
-7.53847
-251.693
79.3456
123.365
-483.6
39.8182
77.1124
-137.218
-311.584
448.802
-232.459
368.238
-249.107
149.351
500.457
-244.121
-256.336
-191.315
-37.5042
150.067
-328.055
-568.473
398.496
169.977
-285.394
-156.655
-203.486
37.8307
165.655
-51.5361
-113.238
164.774
133.547
120.252
-66.3525
111.7
-45.3477
-0.533903
62.1332
-61.5993
222.952
-222.001
-0.950827
212.842
-337.856
125.013
69.2237
-177.539
-72.9104
-154.723
104.994
-199.255
94.2606
-393.449
-264.559
335.871
-71.3119
83.8884
41.1275
-19.617
-116.952
136.569
-150.478
-201.18
155.869
-386.692
230.822
-173.74
101.213
88.2798
47.4306
-135.71
37.5126
-138.346
-157.117
239.602
-82.4849
155.336
107.768
-263.105
-155.909
-287.253
443.161
171.142
-421.691
250.549
107.145
-157.105
49.96
-540.729
308.915
231.814
465.291
-323.431
-141.859
-501.516
176.799
-126.026
122.727
-68.0639
-106.643
311.564
-412.391
-344.523
-130.095
-158.445
-135.501
-380.701
155.938
224.762
-213.953
134.019
-46.2815
307.247
-260.966
-91.1312
-241.258
128.775
173.996
103.249
-277.246
258.806
-454.47
195.664
196.731
-99.0674
-316.666
103.816
223.76
-95.9399
-327.565
-112.152
439.717
383.593
-227.724
-331.85
336.471
-4.62153
-71.3988
122.974
-51.5755
-380.42
167.575
-312.415
126.493
185.922
132.636
-132.636
-194.94
-256.077
451.017
471.556
-390.682
64.5091
-264.495
3.96355
335.911
333.509
221.371
-241.013
-47.8018
288.814
126.445
6.35832
-132.804
-73.1521
139.293
-66.1413
-182.424
113.864
68.5603
-323.01
-244.947
-164.684
96.3919
116.845
-42.3464
-272.637
-302.335
-144.82
82.4019
132.715
208.386
73.2931
34.3529
-107.646
-45.1626
137.814
-92.6511
379.786
173.202
-170.482
-113.204
-336.287
-172.951
-156.456
-100.238
256.694
-69.3792
-272.653
342.032
-350.586
190.461
160.125
-91.6592
-103.877
195.536
337.806
-505.067
167.261
209.162
-354.617
145.455
235.021
-413.911
178.89
-79.3204
-53.192
-237.959
165.049
166.891
-395.148
228.258
-151.079
99.5424
-380.058
192.612
-205.81
363.078
-75.9954
143.249
-67.2537
90.6827
-142.76
52.0772
26.9811
-90.8876
-154.026
366.869
483.498
-465.546
-17.9517
-96.2953
151.495
-78.2967
135.347
-57.0505
260.884
-455.824
-57.4894
164.5
-107.011
-149.267
289.2
390.877
-507.238
116.361
231.578
76.3263
-307.905
48.914
-101.493
52.5785
-35.9201
107.527
59.0741
32.6659
-91.74
-41.7723
142.23
-100.458
-10.7919
160.801
-150.01
176.611
-71.6164
387.361
-137.577
-72.3806
276.706
-204.325
-303.722
-48.7914
182.45
-103.749
-78.7005
197.376
-304.225
106.849
-239.805
-147.219
387.024
-85.2877
175.97
-274.278
162.292
111.986
230.134
-356.878
126.744
-324.194
203.995
120.199
252.16
-133.498
-118.662
-134.497
69.1187
65.3785
183.737
-396.93
-109.275
-73.3505
182.626
-44.6742
-135.428
180.102
98.3135
-245.601
147.287
-112.625
207.408
185.992
-98.6362
-87.3561
-57.358
-111.007
168.365
-39.3386
171.77
-163.767
-117.511
281.278
-304.782
-8.64998
313.432
49.1352
-110.208
61.0728
168.977
96.9857
116.669
107.091
-85.406
97.4041
-11.9981
-203.486
-55.6414
446.518
-2.8163
117.5
377.303
13.3984
-390.701
389.044
-326.244
-476.728
179.619
59.3712
48.5305
-107.902
-145.774
-33.1471
83.1341
-259.875
176.741
119.088
-383.647
-175.811
-34.664
266.242
-68.8696
264.95
257.248
158.219
-411.237
213.617
-143.574
65.9977
389.46
-162.716
242.159
-105.813
-136.346
259.029
-328.408
304.881
-184.526
-120.355
180.553
-169.608
-10.9451
116.83
-67.6951
-215.359
-235.522
450.881
-194.466
32.7134
161.753
492.304
-485.626
-6.6778
240.626
-69.3009
-171.325
244.384
246.786
-491.17
271.544
-173.231
-164.493
300.916
-136.423
-159.44
307.407
-134.874
220.225
-85.3511
-189.703
-148.725
71.2963
-152.285
80.9891
105.534
-204.228
352.132
119.423
-241.027
-173.649
-63.228
-106.099
116.504
-43.2107
-172.412
275.537
-103.126
-65.5023
150.885
116.885
-43.8336
-73.0515
-136.816
79.4576
-581.54
371.694
209.846
58.3774
-137.821
79.4439
-178.707
261.841
-66.31
131.457
-65.147
71.8345
45.0506
-142.891
363.756
-220.865
-123.869
-101.539
225.408
-57.7591
-37.3351
95.0942
337.767
-145.133
-192.634
242.858
-84.3786
-158.479
-379.835
-310.354
-166.374
-55.5176
-96.7781
152.296
122.073
-312.086
190.014
142.83
-71.534
-122.535
-3.49082
174.597
-421.452
312.277
-94.9869
-163.387
100.39
-171.553
82.7464
88.8065
338.86
-129.697
159.73
-127.984
-31.7455
-79.8006
-91.7522
65.5919
-131.795
66.2032
100.821
-168.885
115.742
-64.1067
-104.143
168.25
-90.3555
224.747
-134.391
121.655
-40.2912
-81.3634
-269.313
-35.4693
121.755
91.6884
-84.8908
10.8583
-98.5244
212.895
-114.371
-97.3921
99.3885
-1.99635
-99.1399
-77.9955
-95.9153
173.911
483.859
-385.899
-97.9599
422.844
-111.28
139.923
-101.528
-425.694
463.887
-38.1927
-178.575
305.372
-126.798
-237.013
301.522
99.5049
86.4874
-70.4183
-115.297
-93.0197
272.57
-147.294
297.66
-150.366
40.8463
58.0125
-98.8588
-296.818
157.5
139.318
116.763
-60.9696
-83.0464
-69.5573
-220.019
-187.405
407.424
139.552
344.308
-456.345
258.017
239.749
-239.749
-68.1674
80.6311
-12.4636
185.239
-106.793
-78.4462
246.001
-540.002
294.002
182.933
154.834
-252.687
356.459
-103.773
123.166
-64.7887
-203.639
130.07
73.5697
156.959
330.238
-487.197
254.065
-120.518
-317.548
162.04
155.509
92.95
-184.236
91.2861
281.686
156.817
-438.503
-228.523
104.654
91.4668
-162.061
70.5946
137.575
-179.347
-170.099
397.923
-180.95
108.833
72.1176
173.567
-105.855
-67.7116
-94.7789
370.658
-275.879
332.497
-165.532
-34.8041
106.727
-71.9232
180.192
179.192
-359.384
-207.52
-248.825
-90.7732
349.579
98.0938
-184.141
86.0469
-204.871
399.385
-194.514
157.93
-64.9803
318.7
-219.32
-99.3797
140.351
-57.6003
-219.801
-159.475
83.48
-620.248
303.833
132.859
493.635
-501.551
7.91632
210.362
189.284
-399.646
114.274
45.4554
-373.202
-114.426
149.597
-153.933
14.7508
-300.703
-24.7194
-122.284
147.003
158.897
-296.394
137.498
125.915
273.629
-131.825
88.2978
43.5269
47.4733
-182.901
35.7288
-69.7252
33.9963
263.368
95.4164
262.421
-173.476
-88.9444
145.591
-79.6933
-395.267
274.885
120.381
-260.073
-360.176
186.069
54.5573
144.955
-455.929
310.974
-64.7142
-78.5261
143.24
33.2472
-124.848
91.6004
288.652
211.806
-2.87239
380.175
-77.7606
-68.8118
428.757
-147.071
79.0294
-131.707
52.6777
-464.019
260.514
203.504
-201.768
-245.584
447.352
-366.487
566.486
-200
280.968
146.849
-173.831
249.738
-75.907
-162.687
263.996
351.968
-277.067
-74.9007
-179.529
290.696
-111.167
-184.902
-153.922
-109.787
-171.403
281.189
87.0611
31.7727
-118.834
188.734
-82.493
440.458
-378.716
-61.7418
-184.322
114.217
70.1054
84.4735
268.061
-352.535
121.404
-33.1244
347.457
93.0013
-66.9995
158.466
-101.417
-30.408
-225.968
514.175
-288.208
3.98902
191.679
-195.668
225.173
-393.234
168.061
-80.9658
-41.3692
122.335
288.938
98.4237
-83.4151
-20.8563
104.271
-129.734
111.924
17.8099
-187.062
126.634
60.4279
182.86
384.316
97.482
-38.4079
-269.908
-125.359
228.517
-443.876
413.732
-509.864
96.1326
67.8301
223.1
-31.8238
-191.276
130.444
-64.852
80.9102
-408.475
-77.5861
-88.6073
166.193
100.198
-8.20867
-91.9894
-112.847
43.7189
120.453
134.086
152.314
-329.165
176.851
-91.6407
161.694
-70.0535
152.446
-357.318
358.648
-236.576
341.852
-82.8233
-361.15
-200.519
-288.29
472.792
-184.502
429.262
-324.291
-104.972
-9.26112
-342.041
351.302
-336.464
-176.368
512.832
-151.789
-8.71126
65.6188
-29.89
-505.286
262.646
242.64
-161.593
-97.5187
-72.0313
-62.466
-47.8356
154.98
-95.2236
171.125
-554.693
382.757
171.937
97.4969
-161.604
-23.9667
89.2321
-65.2654
181.405
-146.381
197.202
-318.179
120.978
322.444
-255.471
-66.9727
87.4114
-397.453
310.041
215.296
-98.6272
114.572
255.392
-90.1158
-98.1478
108.95
-60.036
474.802
-299.343
-175.459
-267.298
363.998
-96.6994
-121.723
191.96
282.842
-417.834
31.8681
385.966
-289.179
-190.795
142.766
-221.376
78.6103
-130.08
-81.0916
211.172
107.638
210.886
-318.525
39.723
-265.947
-239.34
-92.5831
-33.4331
126.016
-203.525
326.175
-122.65
481.347
-175.444
412.978
-67.3926
-301.854
172.795
94.5337
5.66441
-273.443
-33.15
306.593
57.2996
-373.781
-408.884
137.15
128.976
-16.8418
-112.134
168.99
-277.877
108.887
-108.817
264.153
-458.715
334.683
-77.0033
-80.339
497.282
-149.826
-240.479
406.752
-166.273
218.908
-346.268
127.36
470.113
-111.881
57.4545
61.2954
-309.166
135.335
354.893
-202.825
-152.068
-171.89
296.9
-125.01
133.817
347.53
168.964
-269.625
100.662
389.874
-107.367
361.528
128.623
-490.151
329.095
-226.107
-102.988
473.79
-502.717
28.9266
123.316
-76.2395
-47.0764
338.805
-225.443
-11.2867
-83.9422
-80.6916
-182.214
262.905
40.5696
-123.306
82.7364
-148.956
65.9096
-307.188
474.403
-167.215
-87.2673
-50.9204
-194.64
198.629
104.951
47.6673
-129.843
82.1758
288.461
3.849
-292.31
-145.239
91.8307
53.4083
-100.813
454.136
182.204
122.677
-145.634
304.531
-236.834
156.002
335.64
53.4046
-158.552
-158.996
16.8944
226.424
-250.262
79.7803
-141.143
241.015
-99.8715
58.973
-136.014
414.884
-204.523
-371.032
376.845
-5.81263
-132.712
494.24
67.2737
-138.309
71.0357
131.9
-68.4217
-141.749
210.171
-152.103
185.648
-71.3743
68.1405
23.2807
-91.4212
61.9033
-128.161
66.2575
-255.397
157.956
-98.337
-69.2622
167.599
-267.754
-293.771
126.889
166.882
117.693
-84.4462
53.7379
-113.482
59.7441
57.1201
-187.2
143.838
137.868
-116.756
268.894
-152.138
-141.402
88.2761
53.1257
-80.0815
201.719
-121.637
-375.356
212.799
-182.577
362.769
151.923
-271.118
119.194
252.031
166.51
-418.542
-53.2549
-32.2605
85.5154
331.451
97.8109
337.066
-147.73
-189.336
-157.688
406.186
-248.498
165.254
-70.9641
325.726
-254.762
327.681
121.68
-449.36
474.561
336.768
134.398
-471.166
249.321
-456.84
190.068
-27.032
-163.036
-338.417
183.646
154.771
-127.295
16.5525
110.743
89.9914
18.9123
-108.904
-60.792
-82.0175
12.5768
-383.609
-356.319
213.428
61.3671
192.624
-253.991
-377.993
307.029
222.316
123.329
-345.644
-54.907
108.047
-53.14
-100.547
-150.213
250.76
568.645
-257.295
63.1705
135.897
-139.937
-280.249
420.186
-122.813
170.287
-221.939
384.692
-162.753
-359.101
44.1429
314.958
-178.085
-279.153
457.238
-67.6606
-63.2879
-564.252
366.718
197.534
300.619
-182.034
-118.584
-124.088
346.404
-167.423
69.0859
111.211
-188.797
152.813
89.3463
-162.529
-490.526
250.993
239.533
-170.993
91.1924
-266.178
97.7663
-293.961
-287.578
-58.2173
-243.626
95.9323
-332.259
236.326
-203.411
-173.003
64.2325
108.771
-246.911
-69.7551
-114.233
-38.4816
152.714
-49.9747
-43.47
93.4447
-319.051
224.272
23.1294
-91.6303
68.5009
158.178
-190.002
153.874
-365.569
211.695
3.94764
-277.391
-191.622
316.437
-124.816
-240.438
255.189
106.516
-132.904
-89.4754
222.38
402.16
-411.421
113.21
-72.364
285.338
189.736
-475.074
-80.8714
-90.1217
-78.4798
272.538
364.699
-367.571
95.0122
-5.02082
409.956
-125.946
-284.01
106.032
166.651
-272.683
140.8
-52.1605
-120.887
173.048
276.657
-122.572
-154.085
347.761
42.113
128.918
-88.3487
-501.73
173.373
67.708
-134.018
-131.113
68.9572
62.1562
-52.9384
165.971
-113.033
-141.607
-76.8317
218.439
25.3576
-97.5632
72.2056
-124.07
43.1046
177.283
-186.237
8.95371
230.77
-281.244
50.4746
-218.537
76.9301
-87.6727
-76.713
-52.5873
-68.6471
121.234
142.567
187.528
200.646
-225.506
179.225
176.848
-136.275
-40.5728
-377.973
270.08
107.893
234.82
-84.2673
336.148
161.134
335.08
103.108
-438.189
-130.091
-136.751
-537.844
251.051
286.793
224.535
-309.802
85.2672
142.167
120.253
-94.9943
60.1902
-40.1616
98.3128
-58.1513
-271.852
-220.087
491.94
-415.521
441.842
-26.3202
-267.217
104.114
-127.698
-457.691
-21.2492
478.94
209.919
243.887
-453.806
-123.838
-188.577
-149.106
-147.711
95.2432
-27.1027
-337.368
135.6
-32.2913
171.974
-127.442
-274.391
174.079
100.312
83.4676
66.9454
-131.262
-143.999
275.261
139.845
-92.1782
416.403
-294.469
-121.934
-137.366
356.274
-210.163
-50.1158
457.154
24.1297
-114.403
-75.3539
189.757
454.655
-0.195354
-454.459
-91.7854
326.947
-235.161
116.786
82.426
-199.212
-374.708
222.944
151.765
-130.424
-107.437
-166.954
141.065
-73.7909
-108.132
290.339
-182.206
138.199
142.153
-280.352
-150.434
-53.2054
-246.224
-177.593
423.816
117.006
476.437
-332.685
-143.753
-153.817
147.584
-93.2898
-54.2938
33.8849
-90.8533
202.843
-271.712
294.396
-352.614
-404.496
346.73
193.557
-317.395
230.723
181.358
439.68
-204.659
-236.388
164.007
94.426
82.4286
-92.3383
111.626
-164.564
-270.926
290.073
-19.1467
-277.236
-21.031
77.5747
-140.579
63.0039
116.185
286.238
-159.35
247.832
-139.106
-108.726
-80.5854
139.558
-270.163
120.47
-188.892
311.102
-62.547
-248.555
-260.094
470.013
484.804
-148.656
-370.09
267.191
102.9
-22.284
476.939
-221.844
418.136
-86.0432
-203.163
289.206
104.999
-263.145
158.146
11.5515
291.162
-334.611
-247.387
581.998
147.748
-348.15
200.401
-292.78
392.816
-100.036
-114.526
451.294
352.325
-126.548
176.041
-89.5785
369.586
-280.008
-79.8876
-65.3515
-245.098
155.481
89.617
176.395
149.78
64.2429
-59.7299
-279.81
339.54
-386.13
-78.9872
-134.213
-197.647
-338.034
229.902
-412.883
412.883
172.373
-337.713
165.34
179.569
-340.533
160.965
231.673
79.4296
53.6621
37.8163
-91.4785
218.135
-371.484
287.699
-465.785
241.317
-38.3165
144.739
159.059
72.7515
197.914
-270.666
124.897
-72.6736
-52.2236
-71.8647
-293.437
365.302
114.863
-185.423
70.5601
-72.9559
186.677
-113.721
331.915
4.36561
-77.8684
80.3631
-276.283
321.611
-45.3275
42.2317
147.836
92.1784
18.1497
-110.328
-316.565
-42.5369
36.0909
-169.466
-193.132
-130.128