/*--------------------------------*- C++ -*----------------------------------*\
  =========                 |
  \\      /  F ield         | OpenFOAM: The Open Source CFD Toolbox
   \\    /   O peration     | Website:  https://openfoam.org
    \\  /    A nd           | Version:  7
     \\/     M anipulation  |
\*---------------------------------------------------------------------------*/
FoamFile
{
    version     2.0;
    format      ascii;
    class       volVectorField;
    location    "4";
    object      U;
}
// * * * * * * * * * * * * * * * * * * * * * * * * * * * * * * * * * * * * * //

dimensions      [0 1 -1 0 0 0 0];

internalField   nonuniform List<vector> 
29540
(
(1.00516 -0.00701536 1.34988e-22)
(1.00696 0.00236089 5.14876e-22)
(0.995426 -0.00160998 -7.94022e-22)
(0.984016 -0.0230924 2.60819e-22)
(0.998776 -2.44508e-05 1.08909e-22)
(0.978827 -0.0138886 -3.96184e-22)
(1.02411 -0.0448536 1.29518e-22)
(1.00668 -0.0108514 -1.36545e-23)
(1.00102 -0.00096911 1.84004e-23)
(1.0001 -2.48934e-05 5.41424e-24)
(1.00725 -0.0145489 3.77985e-24)
(0.99879 -0.00817378 -2.5531e-22)
(0.999759 -0.000101502 1.39318e-23)
(0.999984 -5.21043e-06 2.42395e-25)
(1.10779 0.0493611 1.71948e-21)
(0.996975 -0.000972306 1.19561e-22)
(0.999909 -0.000424014 -5.0799e-24)
(1.07975 -0.0157324 -1.56992e-22)
(0.998943 -0.000913209 -3.71422e-23)
(0.994579 -0.000404176 -1.7699e-22)
(0.999573 -0.000131932 -4.93622e-23)
(1.00097 -0.000980455 6.49205e-23)
(0.995368 -0.00171036 8.77205e-22)
(0.998939 -8.02677e-05 4.79991e-23)
(0.924565 0.0714778 2.00967e-22)
(1.00734 0.00186515 2.76236e-21)
(0.999739 -2.74286e-05 3.18416e-23)
(0.961372 0.06039 -1.38193e-20)
(1.11166 0.0486722 -4.53666e-21)
(0.9996 -0.00453548 -4.83707e-23)
(1.00785 -0.0056508 9.17526e-23)
(1.02042 -0.00519636 -6.67503e-22)
(0.983271 -0.0530153 2.43132e-21)
(0.998753 -0.0114159 1.22643e-22)
(0.959884 0.0571364 1.1095e-20)
(1.00082 -0.0164356 2.82326e-22)
(1.04356 0.024461 -9.20391e-22)
(0.985984 -0.0130922 1.05576e-21)
(1.00281 -0.000407033 -2.46535e-22)
(1.00264 -0.000205011 4.65979e-22)
(1.00022 -9.38729e-05 -1.54313e-23)
(0.993841 -0.0147398 -9.3268e-22)
(0.999921 -0.000410694 -1.25038e-25)
(1.00893 -0.0373372 -9.5957e-22)
(1.00002 -2.20496e-06 -1.33742e-24)
(0.999639 -0.00461512 3.8221e-23)
(0.998605 -0.00608235 -7.03395e-23)
(1.00004 -4.35978e-05 3.21784e-24)
(1.00163 -0.00188215 -2.61672e-22)
(1.04293 0.0228499 -3.78185e-22)
(1.05314 -0.0607635 6.23453e-23)
(0.985895 -0.0205378 -1.18481e-21)
(1.02003 -0.00451848 2.33417e-22)
(0.97949 -0.013839 -6.51834e-22)
(0.997046 -0.00101022 -1.05153e-22)
(1.11327 0.040714 -2.78558e-21)
(0.998295 -0.00111607 3.66622e-23)
(0.999558 -0.000148113 6.2471e-23)
(0.999643 -0.0108037 -1.58737e-22)
(1.00266 -0.0294317 -5.17228e-22)
(0.999966 -5.00434e-06 6.80514e-25)
(0.998973 -0.000929365 -7.60029e-24)
(1.16162 -0.0264247 7.43687e-22)
(1.00103 -0.0160866 -1.47511e-22)
(1.04362 0.0675448 7.26086e-21)
(0.941374 0.0193728 2.6833e-20)
(0.998871 -0.0135888 -3.16424e-22)
(0.996319 -0.00677363 3.52135e-22)
(0.954766 0.0126861 1.07735e-20)
(1.00023 -9.23703e-05 1.00087e-23)
(1.00814 0.00253674 -3.76692e-21)
(0.989935 0.0487103 7.76372e-21)
(1.00154 -0.00465824 -1.12131e-22)
(0.937494 0.0837112 7.59115e-21)
(0.996018 -0.000322385 5.55912e-22)
(1.06034 -0.0384586 2.62407e-22)
(1.16593 0.0844165 6.30593e-21)
(0.986756 -0.00741897 2.55056e-22)
(0.999975 -1.15867e-05 -1.83737e-24)
(1.00007 -0.0240184 -5.4506e-22)
(0.979955 -0.000337686 -4.36909e-22)
(1.01421 0.0227013 2.15989e-21)
(1.00537 -0.00732131 -4.08039e-22)
(1 -3.10349e-05 -1.0857e-24)
(1.02551 -0.0442657 -1.62916e-22)
(1.08757 -0.121836 -1.00679e-21)
(1.02434 0.058229 -1.3241e-20)
(0.999748 -0.000101076 -1.26278e-23)
(0.999766 -8.90089e-05 -3.71601e-24)
(0.969366 -0.0171278 -1.76536e-21)
(0.995138 -0.0255636 1.18098e-21)
(0.98668 -0.00777905 2.84559e-22)
(1.00152 -0.00194494 4.5347e-23)
(1.03209 -0.00894049 -4.03839e-22)
(0.967223 -0.00728668 -1.44925e-21)
(1.03191 0.0722589 6.71501e-21)
(0.994994 -0.0330404 1.89461e-21)
(1.00024 -0.000190993 2.53973e-23)
(0.983715 -0.0289964 -2.21727e-21)
(1.10544 0.0687444 7.62115e-21)
(0.999974 -1.16424e-05 2.67461e-24)
(0.987437 -0.00490138 -1.51584e-21)
(0.999968 -6.28075e-06 -3.51574e-25)
(1.02424 -0.0123363 -2.07976e-21)
(0.985274 -0.0204111 8.02304e-22)
(1.02161 0.00606602 3.97617e-21)
(1.0021 0.0446598 1.20624e-20)
(0.999775 -9.01335e-05 -3.11972e-23)
(0.999997 -3.4083e-05 5.91157e-26)
(0.990466 -0.052709 -1.02977e-22)
(0.982566 -0.0521841 -2.18569e-21)
(1.02002 -0.0236972 2.47383e-22)
(1.00001 -1.02303e-06 2.64645e-25)
(0.999414 -0.00305602 -1.31356e-22)
(0.999963 -0.00111539 3.71284e-24)
(0.992273 0.0497846 2.88185e-23)
(1.02714 0.0334837 -4.68278e-21)
(0.994197 -0.00348938 -6.03042e-22)
(1.00001 -3.42566e-05 4.7725e-25)
(1.00173 -0.00456513 -8.33124e-23)
(1.15681 -0.0898998 2.92329e-22)
(1.00508 0.00732848 6.00681e-21)
(1.0889 -0.058497 8.54126e-22)
(0.940349 0.0237859 -2.54745e-20)
(1.00055 -0.000178574 -6.08953e-23)
(1.0892 -0.0435823 -4.90866e-22)
(1.07928 -0.0129101 -8.28847e-22)
(1.00509 -0.0289077 3.4459e-22)
(1.00199 -0.00179784 -2.31025e-22)
(1 -0.000216571 1.61488e-24)
(1.00895 -0.0363721 3.32741e-22)
(1.1686 0.0787475 3.36898e-21)
(1.00265 0.0928501 1.52858e-20)
(1.08712 -0.0705723 7.29302e-23)
(1.02312 -0.0120964 1.75372e-21)
(1.00766 -0.0051789 1.74525e-21)
(1.05329 0.123106 1.16056e-21)
(0.986946 -0.000327444 2.25162e-21)
(1.02732 -0.111283 4.44639e-21)
(1.10616 0.0644351 -5.76066e-21)
(1.08959 -0.0400871 5.61007e-22)
(0.972813 -0.00216874 -1.8917e-21)
(0.976465 -0.0191597 5.22267e-22)
(1.00001 -9.3032e-07 -1.10237e-25)
(0.999994 -1.5222e-06 6.7121e-26)
(0.998748 -3.90316e-05 -8.63831e-23)
(0.998693 -0.00597963 1.44719e-22)
(0.987366 -0.0413125 -1.67141e-21)
(1.04102 -0.0930882 1.60675e-21)
(1.19645 0.0125608 3.4848e-21)
(1.01555 -0.0109661 9.18711e-22)
(1.00849 -0.0105817 3.13547e-22)
(1.00021 -0.000301555 3.98469e-23)
(0.999933 -0.000109214 2.90749e-24)
(1.00127 0.022666 -1.28054e-20)
(1.00025 -0.000779847 4.44522e-24)
(0.996563 -0.00554484 6.5217e-25)
(1.06449 0.125038 -3.48025e-21)
(1.0038 0.0311837 -1.35488e-20)
(1.0552 -0.0596237 3.75593e-23)
(0.980849 -0.0012419 7.60859e-22)
(0.984529 -0.0227097 1.80424e-21)
(1.11448 0.0445101 7.29342e-22)
(0.999974 -2.31128e-05 5.55688e-25)
(0.999994 -1.34272e-06 -2.58446e-26)
(0.994179 -0.00368187 2.14177e-22)
(0.977037 -0.0187944 -2.85083e-21)
(1.00003 -0.000115043 -3.81384e-24)
(1 -3.31413e-05 -6.24881e-25)
(0.996623 -0.00250793 -6.893e-23)
(1 -0.000212348 -1.3444e-24)
(1.00278 -0.00299822 -1.30754e-22)
(1.06131 0.127745 4.10758e-21)
(0.987136 -0.000141287 -1.85522e-21)
(1.01027 -0.0591542 -4.54194e-22)
(0.997493 -4.55942e-05 3.55547e-22)
(1.00105 -0.00135683 1.3655e-23)
(0.98708 -0.00479862 2.56568e-21)
(0.999559 -0.00305951 -1.14886e-23)
(1.09483 -0.0539686 -9.24297e-22)
(0.999989 -4.85005e-06 7.14866e-25)
(1.00515 -0.0199771 -8.61939e-23)
(1.02599 0.0594388 4.7472e-21)
(0.996507 -0.00624913 -2.15808e-23)
(1.02573 -0.108139 -4.11188e-21)
(1.02047 0.0285048 -4.10405e-21)
(0.996881 -0.00138726 -5.14785e-22)
(0.991124 -0.00723231 6.59729e-22)
(1.00196 -0.0018027 3.52304e-22)
(0.999512 -0.00423646 -6.56247e-23)
(0.999858 -4.14671e-06 3.44315e-24)
(1.00266 -0.00923622 9.17503e-23)
(0.937124 0.0117505 1.05814e-20)
(1.00133 0.0214096 9.855e-21)
(0.993014 -0.00292808 1.77708e-23)
(0.996728 -0.00546804 -2.17514e-22)
(0.981858 0.0263215 -1.02474e-20)
(1.00982 0.0179525 1.85758e-21)
(0.967836 -0.00720274 1.77576e-21)
(1.00056 -0.000266428 -4.78132e-23)
(1.02696 -0.0568414 4.6099e-22)
(0.981873 -0.0378454 2.2333e-21)
(0.998919 -0.00838229 1.23803e-22)
(1.00042 -0.000537501 -7.7769e-23)
(1.05554 0.126333 1.69242e-21)
(0.996739 -0.0025265 -4.71014e-23)
(1.00337 -0.00272537 -1.44532e-22)
(0.986748 -0.0408695 2.2094e-21)
(0.990235 -0.0537763 2.66529e-22)
(0.999981 -2.59187e-06 2.02921e-25)
(0.983492 0.0730536 -1.30639e-20)
(0.999487 -1.36516e-05 -8.10871e-25)
(1 -2.66373e-05 -2.60558e-25)
(0.999727 -0.000104223 5.37921e-24)
(0.996426 -0.0259025 -4.28461e-22)
(1.15896 -0.00670716 -2.95937e-21)
(1.00562 -0.0196516 3.18185e-23)
(1.00322 -0.0025239 -9.9377e-23)
(0.998948 -0.000118228 1.18927e-22)
(0.96835 -0.00805549 -3.03192e-22)
(1.00003 -0.000232687 -9.37306e-25)
(1.00023 -0.000802699 3.4928e-25)
(0.998862 -9.48564e-05 -7.85957e-23)
(1.01553 -0.000400245 3.69232e-21)
(0.998671 -0.00194 -2.40832e-23)
(0.999441 -0.0028578 3.88535e-23)
(1.01466 -0.00112785 1.85633e-21)
(1.00006 -0.00019683 4.82148e-24)
(1.00002 -1.75239e-06 3.47621e-25)
(1.00253 -0.000321575 5.19805e-23)
(0.987578 -0.0150732 -9.17657e-22)
(0.988482 -0.00019935 -8.88722e-22)
(0.997656 -0.00017602 -3.79181e-22)
(1.00877 0.00175781 3.12251e-21)
(0.992405 -0.000535589 4.18615e-22)
(1.00876 -0.0103894 -2.96671e-22)
(0.999984 -5.74086e-06 6.85951e-25)
(0.99854 -0.00126802 -1.42221e-22)
(1.00041 -0.00052694 8.4266e-23)
(1.02737 -0.0549654 4.35108e-22)
(1.00066 -0.0905372 3.5823e-21)
(0.999317 -5.84005e-05 6.0666e-23)
(1.00022 -0.00027495 -3.05993e-23)
(0.999407 -0.00276528 -1.34503e-23)
(1.00169 -0.00399495 -2.02885e-22)
(0.994704 -0.000296122 -7.51404e-22)
(0.999975 -2.12655e-05 -5.44274e-26)
(1.087 -0.11779 -2.08862e-21)
(1.00003 -0.000242369 1.56624e-24)
(1.01537 -0.00035802 -2.59934e-21)
(0.998349 -0.00112884 -7.4038e-23)
(1.00007 -0.00018631 1.89439e-24)
(1.02099 0.00642142 -2.5287e-21)
(0.979992 -0.0358879 -2.40845e-21)
(1.00012 -2.24985e-05 1.72009e-23)
(1 -5.91949e-06 -9.81647e-26)
(0.972744 -0.00155733 -2.1608e-21)
(0.997585 -0.0820848 -5.49819e-22)
(0.995776 -0.00395866 -5.57991e-23)
(1.00443 -0.0293736 -9.34186e-23)
(1.01602 -0.0114528 -1.50957e-22)
(1.03002 0.0580664 5.82579e-22)
(1.00004 -4.11744e-05 8.70775e-25)
(0.987845 -0.014775 8.76532e-22)
(1.12402 -0.0748381 -4.19553e-22)
(0.971407 0.0376672 2.57676e-22)
(0.9965 -0.00609448 1.66753e-22)
(1.01973 0.0272598 4.98523e-21)
(1.06107 -0.0360763 2.05525e-22)
(0.999885 -0.0012097 -2.69181e-24)
(0.883977 0.0328519 1.55494e-20)
(0.999731 -0.000215931 -3.6393e-23)
(1.00937 -0.0605523 -6.46352e-22)
(0.968834 -0.00806543 2.13451e-21)
(1.00112 -0.00128609 -7.49686e-23)
(1.12392 -0.0296821 2.02423e-21)
(0.995826 -0.000459959 -4.44322e-22)
(1.00421 0.10093 1.05716e-20)
(0.998287 -0.000135432 3.37509e-23)
(0.99133 -0.00778809 -3.43596e-23)
(0.999886 -0.00111443 -2.60586e-23)
(1.09251 0.0951591 1.73525e-21)
(0.999868 -0.00845648 2.91575e-23)
(1.02953 0.0727555 4.05363e-22)
(0.999747 -1.81822e-05 -1.39984e-23)
(0.997131 -0.000941611 -1.65062e-22)
(0.971467 0.090673 -6.70765e-21)
(1.01809 -0.000553965 -3.11216e-21)
(1.01467 -0.00051416 2.15311e-21)
(0.985148 -0.0188262 2.23384e-21)
(0.999923 -1.66226e-05 3.26061e-24)
(1.00168 -0.0037858 -2.39332e-23)
(0.999917 -0.000460346 -8.60728e-24)
(1 -2.51119e-05 -1.64803e-25)
(1.03314 0.000352184 9.09291e-22)
(1.00002 -2.50424e-06 2.94037e-26)
(0.990266 -0.00691063 1.55881e-21)
(1.11999 -0.0743019 3.11951e-22)
(0.922846 0.0745953 -1.57129e-20)
(1.00499 0.0931871 -2.35221e-20)
(0.982277 -0.0314406 7.46438e-22)
(0.992625 -0.0143229 5.22427e-22)
(0.98905 -0.000720076 4.24342e-22)
(1.01595 -0.0212094 7.39111e-22)
(1.00303 -0.00909845 -1.38883e-22)
(0.991036 -0.00756325 -9.10979e-22)
(0.982102 -0.0344319 3.23471e-22)
(1.02903 0.0597428 -8.96913e-21)
(0.999283 0.0277377 1.67962e-20)
(0.999364 -7.28069e-05 3.34363e-23)
(1.00354 0.0454157 -1.66522e-20)
(1.03235 -0.000516897 3.23537e-22)
(1.09294 -0.058215 -2.27278e-22)
(1.00691 -0.00832232 1.38877e-22)
(1.00027 -0.00793592 -1.04859e-22)
(1.00879 -0.0278757 -1.48437e-22)
(0.997342 -0.00090697 -3.89593e-22)
(0.998693 -0.000329029 -2.52996e-23)
(0.99997 -5.19042e-06 3.56742e-24)
(0.999407 -0.00431436 9.74327e-23)
(1.04888 -0.0334578 1.22967e-22)
(1.09333 0.0992647 -2.85636e-21)
(1.00078 -0.000654493 3.57898e-23)
(0.986529 -0.0122708 -1.26435e-21)
(1.00769 -0.00863845 -4.42024e-22)
(0.99998 -8.69056e-06 -2.83318e-25)
(0.982193 -0.0328878 -1.17768e-21)
(0.907271 0.0574835 -6.9403e-21)
(0.996913 -0.00237149 5.76962e-22)
(0.999396 -0.00225162 3.38752e-23)
(1.00714 -0.00830974 -8.63066e-23)
(1.00002 -0.0232645 6.8963e-22)
(1.05578 0.0131314 1.18332e-21)
(0.99972 -0.00488456 -1.78937e-23)
(0.999984 -2.57082e-05 1.34819e-24)
(1.00001 -1.25578e-06 1.40922e-25)
(0.998676 -0.000297705 -2.81234e-23)
(0.970054 0.0898179 9.69388e-21)
(1.02517 -0.0185611 4.84553e-22)
(1.00284 -0.0908229 -9.8473e-22)
(1 -6.01065e-06 -2.74703e-26)
(0.995627 -0.0832134 3.711e-22)
(1.04727 -0.00748203 -1.4632e-21)
(0.997442 -7.63987e-05 -1.79486e-22)
(0.970057 -0.00291935 -2.64431e-21)
(0.999435 -0.00221956 -3.36983e-23)
(0.999781 -9.97613e-05 -2.26986e-24)
(0.988341 -0.0133952 -2.67599e-22)
(1.00046 -0.000580649 -3.74166e-23)
(1.09866 -0.0535161 9.10172e-22)
(1.00472 -0.000715601 -1.02633e-21)
(1.15514 0.0531127 -2.90397e-21)
(0.999879 -0.00119871 3.52804e-24)
(1.00202 -0.00711864 4.36648e-23)
(1.00468 0.00649553 -8.14613e-21)
(1.15284 -0.0858472 8.11534e-23)
(1.0002 -0.000282964 -2.34435e-23)
(1.00022 -0.000254973 2.32897e-24)
(0.994534 0.0607664 8.20145e-22)
(0.995562 -0.0260828 -2.4124e-22)
(0.999658 -0.00480732 2.18681e-23)
(1.0091 0.0201249 9.73765e-22)
(0.976709 0.0132852 1.9953e-20)
(1.05218 -0.0634039 -1.98823e-22)
(0.998918 -0.013064 -1.02631e-22)
(1.15573 -0.00413381 2.93894e-21)
(0.999616 -3.32516e-05 -2.48578e-23)
(0.99569 -0.00208142 1.58957e-22)
(0.99832 -0.000137789 -9.64867e-23)
(1.01032 0.0166818 1.22712e-23)
(0.99999 -0.000380577 -6.13625e-25)
(1.00459 -0.00083403 1.04889e-21)
(1.05459 -0.0956853 4.43063e-23)
(1.00083 0.0871864 2.34001e-20)
(0.939647 0.0867849 -3.52862e-21)
(0.996975 -0.00137721 1.92867e-23)
(0.995662 -0.00388405 1.68177e-22)
(1.04164 0.0699568 -5.80999e-21)
(1.00271 -0.0303187 7.41964e-22)
(0.999971 -5.54533e-06 -3.4832e-24)
(1.18974 0.0445624 6.05182e-21)
(1.01555 6.98253e-05 -1.10288e-21)
(1.01505 0.000355973 -7.42961e-22)
(0.996981 -0.00672101 -2.31488e-22)
(1.00985 -0.00160015 -1.58667e-21)
(0.964255 0.0793793 3.23489e-21)
(1.03602 -0.0960593 -5.17492e-22)
(0.985022 0.0790263 3.49759e-21)
(0.995312 0.0783793 -6.03502e-21)
(0.999997 -3.30204e-05 -1.89093e-25)
(1.04721 -0.0324164 -3.84828e-22)
(1.03798 -0.0936813 3.23134e-22)
(0.998605 -0.00194846 6.38434e-23)
(1.00081 -0.000712328 -5.8925e-23)
(0.973363 0.0153254 4.76594e-21)
(1.02619 -0.0190937 -6.34477e-22)
(1.00015 -3.60679e-05 3.84042e-24)
(0.98859 -0.028733 -2.54311e-21)
(0.981348 -0.0387477 -1.05531e-21)
(0.997191 -0.000972989 2.3204e-22)
(0.999937 -0.000107355 -3.67516e-24)
(1.03762 0.0878045 -1.02412e-21)
(1.02705 0.0321765 7.90505e-21)
(1.00003 -0.000259004 -1.26611e-25)
(1.00211 -0.00189434 4.53415e-23)
(1.00266 -0.00185109 2.44981e-22)
(1.08779 -0.0918868 9.77033e-22)
(0.985194 -0.0183249 -1.98359e-21)
(1.00004 -0.000303832 -2.91834e-24)
(0.999992 -6.41963e-07 -5.75071e-26)
(1.00025 -9.56596e-05 5.86463e-24)
(1.0547 0.0143088 -1.17415e-22)
(0.985988 -0.0126053 -1.01299e-21)
(1.00187 0.0372178 3.83432e-21)
(0.973245 -0.0208144 1.30025e-21)
(0.992984 -0.0142592 -5.51334e-22)
(0.988194 -0.000584367 -1.79686e-21)
(1.01012 0.0192767 -4.7898e-21)
(1.15538 -0.0240657 1.3793e-22)
(0.999384 -7.80521e-05 6.11801e-23)
(1.00405 -0.00314893 -2.60613e-22)
(1.00044 -0.000580234 4.24549e-23)
(0.984087 0.0875717 -9.10794e-21)
(0.987039 -0.0115026 5.43928e-22)
(1.00055 -0.00014913 -1.98719e-23)
(0.996194 -0.0018488 -2.11725e-22)
(1.09369 -0.0380089 1.09577e-21)
(0.999724 -0.00525129 -4.4214e-23)
(0.994069 -0.00632533 -1.15738e-22)
(1.00012 -7.47259e-05 -1.19974e-23)
(1.00012 -2.57761e-05 -5.34206e-25)
(0.904763 0.0614139 1.09086e-20)
(0.995833 -0.000686109 -2.7655e-22)
(0.997527 -0.00247023 2.3272e-22)
(0.999788 -0.000971308 -2.40671e-23)
(0.999625 -2.44759e-05 -3.39645e-24)
(1.03481 0.056149 -3.04232e-21)
(1.05741 -0.0982789 1.07332e-22)
(0.99127 -0.0211762 3.20404e-22)
(1.00001 -1.10663e-06 -1.31435e-25)
(1 -2.00348e-05 -1.47227e-25)
(0.986549 -0.0118544 1.43035e-21)
(0.996545 -0.000986192 5.61336e-23)
(0.997356 -0.00113274 -3.19417e-23)
(1.00736 -0.00263334 4.98652e-22)
(1.00291 -0.0011546 8.82665e-23)
(0.999968 -0.00868751 -4.93094e-23)
(1.07528 -0.0253941 2.00519e-21)
(0.990682 -0.00221526 -3.5486e-22)
(0.98643 0.0771933 -2.84582e-21)
(1.00694 -0.0144081 -1.50954e-22)
(1.00013 -7.46859e-05 1.32978e-23)
(0.981985 -0.0308088 1.14027e-22)
(0.990701 -0.0186344 -1.15243e-21)
(1.11791 -0.0233239 1.32241e-21)
(0.998453 -0.00321858 -6.74694e-23)
(0.992708 -0.0249552 -3.87885e-22)
(0.999989 -2.72412e-06 4.14869e-25)
(0.949017 0.0625681 -1.08947e-20)
(1.00811 -0.00115793 8.94164e-22)
(1.00004 -0.000127095 -5.12555e-24)
(0.937247 0.0162719 -1.36508e-20)
(0.990786 -0.0212731 7.53859e-22)
(0.999988 -3.27429e-06 6.96551e-26)
(1.00076 -0.0006628 1.73388e-23)
(0.981835 -0.0321836 -6.63211e-22)
(1.01933 -0.0226934 2.42608e-22)
(1.02712 -0.00963717 1.16821e-21)
(0.999995 -1.39777e-06 4.20287e-26)
(0.995843 -0.000335263 2.201e-22)
(1.00928 -0.0272961 1.69888e-22)
(0.997268 -0.000890947 3.21596e-22)
(0.999756 -2.24198e-05 -7.55347e-23)
(0.995769 -0.00215286 5.17893e-24)
(0.979869 0.0268303 1.20021e-21)
(0.996249 -0.00654124 -2.96579e-22)
(0.994305 -0.00620453 8.544e-23)
(1.00222 0.0248581 -3.93784e-21)
(0.998588 -0.00119675 7.49395e-23)
(0.979978 0.0888816 -1.16957e-21)
(0.999988 -3.20157e-06 -2.14939e-25)
(0.994021 -0.014387 2.18121e-22)
(0.986797 -0.0390208 2.38138e-21)
(0.99314 -0.0251938 6.5084e-22)
(1.11216 -0.0802793 1.65823e-23)
(0.99938 -0.0029659 8.81172e-23)
(1.00424 -0.0132334 8.76358e-23)
(0.999993 -0.00127883 9.88668e-25)
(0.991031 -0.0110258 -6.77987e-22)
(1.01987 -0.024826 1.0292e-22)
(0.999981 -8.10759e-06 1.37812e-24)
(1.00001 -7.54351e-07 -2.32224e-25)
(0.996735 -0.000215642 1.49573e-22)
(0.985009 0.0529036 7.98417e-21)
(1.00627 -0.011137 5.68167e-22)
(1.00133 -0.00191681 -7.30556e-23)
(0.967705 -0.0150338 1.90557e-21)
(1 -5.33256e-06 -8.45914e-26)
(1.00051 -0.000630498 -6.76259e-23)
(0.999977 -0.000362463 -8.71277e-25)
(1.00725 -0.0107327 6.04572e-22)
(0.991278 -0.00812924 1.20687e-22)
(0.9998 -0.0001538 9.39933e-24)
(0.996389 -0.00587073 1.06775e-22)
(0.993622 -0.00363305 -1.27097e-22)
(1.00053 -8.62148e-05 -5.4583e-24)
(0.999987 -3.81878e-06 -1.36655e-25)
(1.13606 -0.057752 9.87515e-22)
(0.999806 -0.00096032 2.56966e-23)
(1.04527 -0.0102346 1.14527e-21)
(1.01197 0.08486 2.28721e-20)
(1.03794 0.0690948 -5.28935e-21)
(0.999915 -0.0111156 -1.85649e-22)
(1.00279 -0.00101405 -2.92877e-23)
(1.00993 -0.00116501 9.71877e-22)
(1.00001 -0.00131956 -1.12751e-24)
(0.998718 -0.00558123 1.04714e-22)
(1 -9.01198e-06 -2.22221e-25)
(0.993422 0.0785839 -4.60396e-22)
(0.993557 -0.00828191 1.63807e-22)
(1.00708 -0.00235275 -3.55865e-22)
(0.990912 -0.00230705 7.27508e-22)
(1.0018 -0.0069531 3.97288e-24)
(0.99855 -0.00318085 1.46923e-22)
(0.999944 -0.000109875 7.99544e-25)
(1.00001 -2.7294e-07 -1.19334e-24)
(0.997617 -0.00245798 -1.69297e-22)
(1.03214 -0.0100691 -6.6098e-22)
(1.00488 0.0328406 6.20791e-22)
(1.00064 -0.000266634 -8.11301e-23)
(0.984521 -0.0291077 -5.82037e-22)
(0.987043 -0.0111472 -2.46627e-22)
(0.995927 -0.000279887 -8.26747e-22)
(1.18969 0.0122103 -2.1994e-21)
(0.999326 -0.000522233 -3.68115e-23)
(1.0017 -0.00791104 -1.34646e-22)
(0.997143 -0.00148592 1.61525e-22)
(0.999948 -0.000106191 7.03931e-25)
(0.981716 -0.0336429 7.39126e-22)
(1.00272 0.0358074 -6.02579e-21)
(1.0204 0.0245911 -5.15773e-21)
(0.988353 -0.00758829 -1.17692e-22)
(1.00139 0.0351682 -2.68662e-22)
(1.00004 -0.000118723 1.01606e-23)
(1.00001 -9.49335e-07 3.77675e-25)
(1.18415 0.042346 -2.28719e-21)
(1.12304 -0.0252479 -1.30372e-21)
(0.938646 0.0635805 -5.43078e-22)
(0.994501 -0.0425254 1.62817e-21)
(0.988303 -0.000800307 -5.46841e-22)
(1.09396 -0.0338741 -1.52998e-21)
(1.00062 -0.000294525 9.18869e-23)
(0.997042 -0.00200887 9.28053e-23)
(1.00024 -0.000106723 -5.56861e-24)
(0.994473 -0.000392968 -1.82814e-22)
(0.993794 -0.00678485 -2.41214e-22)
(0.999998 -1.78149e-05 4.31804e-25)
(0.999535 -1.91795e-05 1.42241e-23)
(1.00063 0.0850256 -2.13085e-20)
(0.999928 -0.000378729 8.09538e-24)
(0.954831 0.0572249 1.31716e-20)
(1 -8.72292e-06 1.67259e-25)
(1.17789 -0.0530395 1.21732e-21)
(1.04524 -0.0114677 -2.42627e-21)
(1.0755 -0.0230389 -2.20715e-21)
(1.00055 -0.000297102 5.55843e-24)
(1.0001 -2.30017e-05 1.07986e-23)
(0.987571 0.0490082 -1.1914e-20)
(1.04726 -0.00903515 4.76958e-21)
(0.98636 -0.0396245 -2.19277e-21)
(1.01504 0.0245226 2.32673e-21)
(0.998522 -0.0111333 8.77648e-23)
(0.99309 -0.00274831 -1.86969e-22)
(0.997887 -0.000130423 -9.82166e-23)
(1.10129 0.122684 -1.34746e-20)
(0.987416 -0.0134163 8.66043e-22)
(1.01637 -0.0203814 -4.79387e-22)
(0.996532 -0.00585519 -6.07793e-23)
(1 -5.26191e-06 -3.22501e-27)
(0.999331 -0.000487045 -3.11377e-23)
(1.00305 -0.00323783 1.563e-22)
(0.990568 -0.00406109 9.43128e-22)
(0.988649 -0.00766148 1.74366e-22)
(0.977722 -0.0192239 -2.76151e-22)
(0.990475 -0.00431989 -7.13494e-22)
(1.0125 0.00158967 4.26331e-22)
(0.99889 -6.88097e-05 1.96577e-24)
(0.969972 -0.0173934 9.8383e-22)
(0.992751 -0.000462851 -2.60002e-22)
(1.00002 -0.000116844 2.23657e-24)
(0.993665 -0.000372 -1.81006e-22)
(1.01645 -0.0220225 -8.29331e-22)
(1.01193 0.00174282 -2.35635e-21)
(0.986423 -0.0134222 -2.1865e-22)
(0.99999 -5.56508e-07 -1.73868e-27)
(0.990879 -0.00828234 1.80719e-22)
(1.00086 -0.00797208 2.02126e-24)
(1.00073 -0.000623375 2.22106e-23)
(1.04595 -0.102764 -1.39192e-21)
(1.00166 0.0368544 -1.39306e-20)
(1.00048 -0.000627387 6.28265e-23)
(0.993766 -0.000272199 2.72612e-24)
(1.04737 -0.0612239 -1.73444e-23)
(1.01569 5.85992e-05 3.71904e-21)
(0.989183 0.022629 -1.27132e-21)
(1.00098 -0.00133973 1.97892e-23)
(0.999797 -0.0115858 5.86129e-23)
(1.07452 0.0852115 -1.87974e-21)
(1.01145 0.0150272 -1.1999e-20)
(0.994561 -0.0143845 5.74184e-22)
(1.00254 -0.00189523 -2.74101e-23)
(0.975234 -0.0225037 1.30803e-21)
(0.999998 -2.46579e-06 -6.23206e-26)
(0.975968 -0.00100243 -9.963e-22)
(1.00004 -3.83887e-05 1.70934e-24)
(1.0456 -0.0609322 -6.73506e-22)
(0.999982 -1.60513e-06 -1.53592e-25)
(1.00001 -3.37128e-05 1.42891e-24)
(0.999405 -0.0128485 -6.95439e-23)
(1.16633 -0.0222916 -1.62826e-21)
(1.02318 0.110846 1.03007e-20)
(1.01819 -0.0228635 -1.3165e-21)
(1.00738 -0.00872058 2.94343e-22)
(1 -1.53395e-06 2.64209e-26)
(0.996795 -0.00238697 -3.12353e-22)
(1.00005 -1.01123e-05 -1.21871e-24)
(0.998349 -0.00128801 1.06797e-22)
(1.00001 -3.12703e-05 -1.11627e-24)
(1.02765 -0.00857495 -3.6435e-21)
(0.999753 -0.000254729 -3.72328e-23)
(1.0385 0.033215 5.31895e-21)
(0.999938 -0.000118816 -5.93623e-24)
(0.993352 -0.00269366 -3.15995e-22)
(0.979559 -0.000523553 2.18132e-21)
(0.99778 -0.000143404 -1.26199e-22)
(0.984809 0.0285487 1.22483e-20)
(0.99115 -0.000393098 5.13897e-22)
(1.0041 -0.0566091 1.13089e-22)
(0.997119 -0.00210306 4.78832e-22)
(1.01455 -0.0017067 -7.95401e-22)
(0.983196 -0.0293662 2.65351e-21)
(1.0109 -0.00096552 -2.68854e-21)
(1.01654 -0.0419136 -3.36164e-23)
(0.999992 -2.77922e-07 1.50196e-26)
(0.999226 -0.0109015 6.64344e-23)
(0.997925 -0.000171433 1.5367e-23)
(1.00014 -5.20998e-05 7.88114e-24)
(1.00005 -8.52426e-06 2.09673e-24)
(1.10577 0.124808 1.47576e-20)
(0.997441 -0.00113899 2.69186e-22)
(1.01594 0.000940617 4.23153e-21)
(1.00005 -0.0118427 6.95915e-23)
(1.00046 -0.000172803 2.1326e-23)
(1.01289 -0.00469154 -2.99301e-21)
(1.00009 -1.77036e-05 -2.4504e-23)
(0.999987 -1.81721e-06 -2.04216e-26)
(0.976248 -0.00132861 7.67274e-22)
(0.99818 -0.000649449 1.21635e-22)
(1.00002 -3.05721e-05 1.53291e-24)
(1.04646 0.0674549 4.00174e-21)
(0.915587 0.0500521 -1.9371e-20)
(0.999891 -0.000127407 1.59533e-23)
(0.980419 -0.0010654 -5.90285e-22)
(1.00001 -7.28731e-07 2.68939e-25)
(0.961746 0.0775607 -1.29042e-20)
(1.18425 -0.0555957 1.25191e-21)
(0.984029 -0.0236328 -2.2294e-21)
(1.00003 -0.000298068 -3.43618e-24)
(1.0158 -0.0196211 1.08991e-21)
(1.01736 -0.00176159 -1.0929e-21)
(1.01848 -0.000615028 3.17978e-22)
(1.02769 -0.010239 -4.6257e-22)
(0.99984 -0.00102996 -4.49013e-24)
(0.999925 -0.000456642 6.64962e-24)
(0.992653 -0.00819207 -5.3019e-22)
(1 -4.57361e-06 -3.50217e-25)
(1.00001 -2.94115e-07 -6.74866e-26)
(0.987022 -0.0131559 -5.14602e-22)
(0.995764 -0.0327846 -8.91661e-22)
(0.978333 -0.0189193 -7.19277e-23)
(0.928749 0.072019 -3.63473e-22)
(1.00011 -1.24523e-05 -9.93615e-24)
(1.00374 -0.0426935 -1.61375e-21)
(1.00392 -0.00293929 -2.68528e-22)
(0.999988 -1.8652e-06 2.27967e-25)
(0.999436 -0.00210965 -7.52209e-23)
(1.00003 -0.000254996 -2.44292e-24)
(0.997521 -0.00681294 1.75197e-22)
(1.00002 -5.65154e-06 1.36959e-24)
(1.01755 -0.0414363 -6.23355e-23)
(1.01076 -0.00123015 2.613e-21)
(0.981181 0.0870313 3.09983e-21)
(1.014 -0.00156791 2.98112e-21)
(0.999855 -0.000120182 1.32302e-23)
(1.00024 -0.000214918 -2.21086e-23)
(1.08524 -0.0952837 -1.03316e-21)
(1.01558 0.000765198 -3.40076e-21)
(0.998378 -0.000212131 1.09178e-22)
(1.00001 -2.90654e-07 5.60175e-25)
(1.05745 0.0568763 -6.64418e-21)
(1.02038 -0.104782 -7.33277e-22)
(0.994774 -0.0417358 -6.9317e-22)
(0.99256 -0.000393016 -1.38181e-22)
(0.999988 -1.16946e-05 3.37039e-25)
(0.999856 -0.000112983 -7.74327e-24)
(1.02197 -0.107786 2.07528e-21)
(0.996937 -0.0264351 -2.45902e-22)
(1.02483 0.0165362 7.36143e-22)
(0.986147 0.0742212 1.18549e-20)
(1.00388 -0.0551476 8.96238e-22)
(0.999337 -4.17456e-05 -1.90746e-23)
(0.999988 -5.40882e-06 -4.66512e-25)
(0.980053 -0.0247953 2.20432e-21)
(0.981972 -0.0496369 -2.63308e-21)
(0.999896 -0.000129949 8.49362e-24)
(1.00472 -0.0130186 3.14557e-22)
(0.994761 -0.0140135 -9.83175e-23)
(0.997574 -0.00121967 1.05832e-22)
(0.997468 0.0325038 -9.80695e-21)
(0.999324 -0.000308256 6.80783e-23)
(1.02593 -0.0331429 1.98742e-22)
(1.16739 0.0890467 -6.6303e-21)
(0.995983 -0.00175181 -3.11155e-22)
(0.937324 0.0598079 -1.95267e-21)
(0.94233 0.028234 5.82601e-21)
(0.999984 -2.80777e-05 -1.3242e-24)
(0.999985 -0.000396746 1.50876e-25)
(0.991261 -0.00051682 -3.27533e-22)
(1.00705 -0.0029538 -6.41123e-22)
(0.981199 -0.000979699 1.23283e-21)
(1.00272 -0.0023426 -2.8201e-22)
(0.99613 -0.00175911 2.90385e-22)
(0.999702 -0.00027889 -2.85579e-23)
(0.968184 0.0778664 -2.31815e-21)
(1.03851 0.0315965 -8.25806e-21)
(1.0012 -0.00129248 5.04066e-23)
(0.888639 0.0312369 -3.89216e-21)
(1.00001 -7.53065e-07 -3.88202e-25)
(1.01558 0.00324678 -5.87488e-21)
(0.989666 -0.0500867 1.67528e-21)
(1.00493 -0.0429996 6.24186e-22)
(1.00005 -0.000114488 -5.34665e-25)
(0.980341 -0.000556563 1.00589e-21)
(1.01355 0.00258062 3.28423e-21)
(1.00691 -0.00327379 5.31897e-22)
(1.01739 -0.00136316 1.50896e-21)
(0.999763 -1.69008e-05 5.33016e-23)
(0.99975 -0.000273252 3.37489e-23)
(1.0111 -0.0268634 -5.60293e-24)
(0.998208 -0.000706748 -3.45298e-22)
(0.993391 -0.00618982 -5.69601e-22)
(0.999512 -0.00192267 4.45527e-24)
(1.05441 0.0193916 4.39218e-21)
(0.999129 -0.0113676 -4.66134e-23)
(0.997382 -0.00260045 5.07776e-24)
(0.966293 -0.0126678 -2.88814e-21)
(0.996335 0.0606736 1.34523e-21)
(1.06352 -0.0344828 -1.58933e-21)
(1.01243 -0.00445985 2.39807e-21)
(0.99979 -0.000100392 1.00415e-23)
(0.999733 -0.000176868 4.5511e-24)
(0.990667 -0.0108792 1.37633e-21)
(1.00053 -0.000682936 -5.01537e-23)
(0.998654 -0.0003731 -1.95671e-23)
(0.999989 -1.11924e-05 -1.18271e-25)
(0.999846 -0.00104987 1.05821e-24)
(1.0132 0.002426 -1.27436e-21)
(0.987307 0.0514603 -1.14679e-20)
(0.999933 -9.04665e-06 1.9066e-24)
(1.12546 0.107914 -1.29035e-20)
(0.999998 -2.25982e-05 -1.7513e-25)
(0.998301 -0.00151833 1.45814e-22)
(0.999996 -5.06573e-05 -3.66399e-26)
(1.00276 -0.00201665 -1.24803e-22)
(1.13567 -0.0626352 -7.40655e-22)
(0.99998 -2.2419e-05 1.61195e-25)
(0.999978 -2.49826e-05 1.03297e-24)
(0.972714 -0.0209852 -1.28531e-21)
(1 -4.52472e-06 -1.79576e-26)
(1.02976 -0.0102778 3.8963e-21)
(0.992373 -0.0217819 1.01342e-21)
(0.999983 -0.000346569 5.61581e-25)
(1.05528 0.0419045 -5.11727e-21)
(1 -1.60501e-05 2.67405e-25)
(0.99979 -1.86415e-05 4.64292e-23)
(0.999954 -1.91605e-05 8.05057e-26)
(0.997481 -0.0026255 -8.70837e-23)
(0.999817 -0.000828239 -1.27151e-23)
(0.996791 -0.00015455 -1.00762e-22)
(0.99206 -0.0608686 -1.98818e-22)
(0.999837 -0.000807143 8.34383e-24)
(1.00222 -0.00189054 -9.7207e-23)
(0.999987 -1.30764e-06 -8.79885e-26)
(1.02484 0.108477 -1.95117e-20)
(1.02496 -0.0335232 4.99989e-22)
(1.0657 -0.0355405 -2.08927e-22)
(0.982469 -0.00295927 1.34397e-21)
(0.988468 -0.00218535 -2.4154e-22)
(0.999485 -0.00206919 1.23688e-22)
(1.00154 -0.00143129 1.36537e-22)
(1.03155 0.0418688 2.18845e-21)
(0.990309 -0.0191352 1.57059e-22)
(1.08938 0.0690745 2.68295e-21)
(0.9783 -0.00664782 -2.46295e-21)
(0.998241 -0.00146456 -1.378e-22)
(0.999995 -1.93378e-06 -7.84654e-26)
(0.997046 -0.00148995 -1.94686e-22)
(1.00675 0.102383 4.94291e-21)
(1.05003 0.0486128 -1.18647e-21)
(0.989347 -0.0286193 8.44135e-22)
(0.971224 -0.00272341 5.83131e-22)
(1.02867 0.102432 5.21612e-21)
(0.995621 -0.000308559 2.62277e-22)
(0.988297 -0.0456177 1.31367e-22)
(0.999996 -4.70651e-05 -5.22024e-25)
(0.991815 -0.02184 1.27868e-21)
(0.999569 -0.000125127 -7.01715e-23)
(0.896053 0.0535114 -1.13549e-20)
(0.986631 -0.0370751 -1.88745e-21)
(0.999955 -1.66819e-05 3.2709e-24)
(0.969373 -0.00890376 -1.58038e-22)
(0.990153 -0.0202478 8.08963e-23)
(1.02188 0.0461732 7.74595e-21)
(0.998672 -0.000406192 -1.85329e-22)
(0.989264 -0.0194496 -4.72285e-22)
(0.99861 -0.00571076 -1.45082e-22)
(0.999495 -0.0124093 -1.46447e-22)
(0.999344 -0.00031001 -4.63146e-23)
(1.02116 0.0451882 -9.37552e-21)
(0.999377 -0.0874856 1.59262e-21)
(0.990819 -0.00860666 -4.03506e-22)
(0.992939 -0.00761714 8.28452e-24)
(0.993409 -0.00253852 -1.27763e-22)
(1.00278 -0.00124176 -1.13948e-22)
(1.03003 0.0993316 2.04421e-20)
(0.99089 -0.00703991 1.84623e-22)
(1.01071 0.0229599 5.04662e-21)
(1.00141 -0.0011675 1.0412e-22)
(1.11695 -0.0804091 -4.8717e-23)
(0.952485 0.0616249 1.93059e-21)
(0.995541 -0.000246565 -9.05456e-22)
(0.999881 -2.19497e-05 8.59754e-24)
(1.03353 0.0581717 2.38076e-21)
(0.998531 0.0812587 -1.77236e-20)
(1.01083 -0.0258585 5.21528e-23)
(1.04328 -0.0325995 1.93563e-22)
(0.997378 -0.0071269 -1.92483e-22)
(0.982724 -0.0026704 -7.95427e-22)
(1.07208 0.0830397 7.69048e-21)
(0.979435 -0.0248328 3.97014e-22)
(0.999987 -1.10682e-05 4.88486e-25)
(0.996196 -5.71205e-05 -4.61904e-22)
(1.00002 -4.10502e-06 1.42313e-24)
(0.997698 -0.000126489 3.43586e-22)