/*--------------------------------*- C++ -*----------------------------------*\
  =========                 |
  \\      /  F ield         | OpenFOAM: The Open Source CFD Toolbox
   \\    /   O peration     | Website:  https://openfoam.org
    \\  /    A nd           | Version:  7
     \\/     M anipulation  |
\*---------------------------------------------------------------------------*/
FoamFile
{
    version     2.0;
    format      ascii;
    class       surfaceScalarField;
    location    "22.5";
    object      phi;
}
// * * * * * * * * * * * * * * * * * * * * * * * * * * * * * * * * * * * * * //

dimensions      [0 3 -1 0 0 0 0];

internalField   nonuniform List<scalar> 
29574
(
587.92
-435.341
-152.579
270.734
43.0977
-313.832
945.789
-1136.32
190.531
-395.208
994.364
-599.156
-632.408
671.016
-38.6081
-687.325
54.9169
215.994
-39.7435
-176.251
638.279
-491.378
-146.901
208.457
-288.511
80.0536
90.86
547.419
-85.2649
256.518
-171.253
-289.703
291.224
-1.52021
-233.099
-19.8767
252.976
34.6319
553.288
621.058
-650.037
28.9792
-965.145
569.937
-313.379
353.178
-39.7989
-90.6993
-1025.11
1115.81
-257.683
230.409
27.2741
305.221
-34.4869
-303.849
293.667
10.1822
-30.8227
-258.881
-494.224
585.084
262.127
-319.52
57.3935
945.789
-355.049
65.2011
289.848
891.925
-975.958
84.0339
339.529
-147.199
-192.33
-158.96
-107.164
266.124
-111.97
-145.713
-592.319
740.842
-148.523
334.292
-279.41
-54.8815
404.737
-88.9004
-315.837
555.805
-293.369
-262.435
-717.108
780.481
-63.3731
-731.107
138.787
158.623
-389.981
231.358
932.325
-932.325
784.446
-345.058
-439.389
275.813
447.726
-723.539
2.06881
800.566
-802.635
-319.833
101.66
218.173
-884.588
725.272
159.316
973.468
-81.5438
-104.44
-250.609
116.278
72.4398
-188.718
1141.29
-488.381
-652.905
338.985
-243.986
-94.9988
842.851
-30.4373
-812.414
238.979
-229.212
-9.76722
-787.813
70.7055
46.1088
-755.539
709.43
-296.069
-128.206
424.274
763.053
-835.587
72.5339
173.815
-391.703
217.888
15.2361
-209.5
194.264
380.327
-110.027
-270.3
694.748
-751.353
56.605
-58.9871
-294.289
353.276
-85.3592
-228.02
-645.978
403.666
242.311
-50.2204
244.14
-193.92
479.732
-482.329
2.59742
-207.115
-367.857
574.972
-697.577
828.035
-130.458
-715.085
107.286
607.799
540.028
-569.79
29.7625
-650.695
-64.3903
-175.013
-355.713
530.726
-114.27
-98.7951
213.065
360.626
-552.925
192.298
330.8
-226.588
-104.211
675.239
-54.1813
-271.705
-36.3463
308.052
1063.48
-564.681
-498.796
-79.8323
473.971
-394.139
335.919
-112.943
-222.977
-226.438
15.401
211.037
928.703
-652.89
591.385
-832.931
241.546
632.807
-525.521
816.858
-194.415
-622.444
298.517
-104.494
-194.023
296.667
-88.2096
133.77
-183.991
-626.077
-258.511
238.147
-282.062
43.9145
-32.9303
135.998
-103.068
-675.94
468.825
118.757
-303.753
184.996
-435.45
719.62
-284.17
739.013
148.788
-887.8
904.489
-130.164
-774.326
172.757
-282.722
109.965
201.024
137.961
424.113
55.619
248.97
-76.2129
-779.376
789.724
-10.3481
-322.36
237.095
1028.41
-924.905
-103.501
278.424
-159.667
405.697
-416.808
11.1113
159.715
138.364
-298.079
460.671
-183.087
-277.584
1233.47
-1233.47
472.099
38.1199
-510.219
-15.289
257.24
-241.951
-480.007
244.61
235.398
265.052
8.93373
-273.986
-291.25
-63.9349
355.185
47.0026
-205.963
179.171
36.8235
395.627
-110.043
-285.585
-264.887
-401.347
666.234
-569.81
489.978
-568.672
-431.416
-411.585
-160.345
571.929
576.773
56.0339
-316.434
2.58986
313.844
-1028.4
237.105
791.299
-170.79
909.803
52.7971
257.007
-309.804
378.495
-626.552
248.057
233.778
-361.925
128.147
130.816
424.988
789.825
-880.525
14.2251
225.264
-239.489
182.757
156.771
241.088
93.204
118.241
-529.826
-29.4042
-150.908
180.312
21.2051
217.774
856.743
-854.674
291.041
493.405
118.705
-361.813
243.108
267.213
966.257
301.32
-74.5541
-226.766
-277.308
-26.5412
-406.282
35.5592
370.723
102.108
64.2509
-166.359
290.962
-238.165
30.7618
-302.467
181.452
149.348
-300.893
190.528
110.365
-576.179
94.3151
481.863
-128.002
246.707
-306.13
87.819
218.311
-94.4254
-223.174
317.599
8.39631
310.461
-318.858
-764.6
-211.358
127.471
-221.896
221.649
971.752
-67.2622
-230.028
-51.0372
281.065
151.15
665.708
-286.89
-19.2399
-753.038
126.961
74.9453
187.181
68.7852
-159.725
90.9402
-11.0655
-222.034
-171.284
345.099
-237.114
197.371
-36.3588
-406.011
-170.167
-201.398
-674.206
875.604
-143.965
111.035
345.938
59.7588
271.773
26.7439
438.82
35.1514
-356.993
515.616
355.218
-53.8985
-167.696
-150.23
317.926
11.7311
-224.479
212.747
399.415
-442.78
43.3652
97.1906
95.0713
-192.262
45.9813
358.756
-571.569
509.084
62.4856
-534.27
-32.8278
567.097
-438.718
-131.092
-5.28001
221.036
-215.756
60.1014
-229.278
169.177
735.549
196.776
342.49
37.9688
-380.459
-70.4181
216.522
-146.104
267.008
38.2132
227.307
-123.974
-103.333
585.448
-224.822
29.971
998.435
144.236
209.077
117.569
-326.647
295.096
-280.871
246.428
-393.416
146.988
71.8748
-996.78
-597.804
422.791
217.611
-148.825
-45.0114
310.163
-265.151
93.7426
248.747
-54.7011
321.116
-266.415
325.103
-58.0957
-6.24966
215.327
259.551
-397.115
137.564
-94.0805
330.411
-236.33
-479.156
147.161
-334.54
187.379
268.345
-378.77
110.424
-313.191
285.342
27.8496
-8.46536
-327.936
336.401
774.035
-727.926
197.761
-182.525
619.519
-634.803
15.2847
414.128
125.9
-851.461
510.066
341.395
-39.0403
304.011
-264.971
-86.3985
-150.602
237.001
-296.53
558.582
504.895
513.707
-513.707
-533.034
-495.37
-263.595
-216.413
898.907
-607.866
-0.230875
264.902
-264.671
-162.749
-276.75
439.5
66.2443
163.391
-229.635
525.872
-961.322
-348.027
284.092
-12.6945
-393.588
352.481
-360.947
-1068.66
499.986
-485.091
485.091
-641.558
-6.35098
647.909
656.067
-277.572
291.304
132.731
-424.035
-330.097
314.808
-217.397
205.621
11.7757
-555.663
841.775
-286.112
306.671
-68.5237
568.73
-96.6301
-413.171
245.475
181.366
67.6041
-658.791
496.041
244.9
-357.842
87.9035
-174.302
271.326
112.271
-383.597
352.11
-118.332
-989.123
-244.347
622.29
-45.5174
-81.6868
282.973
-201.286
547.721
-471.557
-76.1634
-78.6562
772.625
-693.969
-53.212
896.063
263.345
1.70766
-116.612
182.857
-91.4386
567.456
-476.017
-542.333
197.276
-166.33
11.6496
154.68
-132.12
423.423
-48.9467
227.435
-178.489
-72.7915
-247.041
192.824
-90.7165
-77.2991
193.577
19.6211
-248.696
229.074
34.2277
456.544
-490.772
710.339
49.3843
-759.723
286.641
20.0305
-78.1791
-158.935
-141.178
44.1371
241.591
-285.728
34.5845
361.043
207.87
-763.533
306.314
-194.494
-87.5675
122.54
-820.677
698.136
66.639
-400.684
-169.107
-294.136
212.514
81.6219
-331.082
-314.896
567.763
-999.179
237.641
-50.2421
-187.399
-58.4278
259.845
-201.417
-1039.94
347.111
692.834
-46.4382
377.994
-331.555
324.707
55.6194
-237.361
86.6672
150.694
359.008
-106.686
-252.322
386.584
-140.156
-159.788
298.151
264.73
-214.371
141.563
-199.991
-109.605
617.436
-507.831
753.863
-162.478
-117.571
-371.099
488.67
854.05
-731.51
261.903
-217.766
-29.9334
-327.06
-536.937
74.5795
86.9715
-161.551
366.138
-89.2941
-276.844
-90.3297
186.444
-96.1139
395.54
-135.989
-119.139
-352.688
471.827
7.64444
843.959
-851.604
-776.654
803.99
-27.3363
-242.558
49.5584
193
-754.158
440.319
313.839
51.2528
-163.223
0.162776
175.11
-175.273
-297.761
266.939
6.16498
-230.446
224.281
247.127
-26.0908
178.872
-547.585
368.713
230.337
-210.716
-40.2512
-186.186
-64.2667
579.883
362.145
-79.4992
-282.646
-733.879
741.524
-462.715
362.923
99.7922
460.713
-342.472
483.513
-854.703
371.19
-292.174
-99.5284
-726.503
28.9266
-179.144
-58.2177
-645.809
631.64
14.1687
-181.111
351.402
-170.291
317.133
311.437
262.944
-169.167
-93.7765
264.928
-260.872
-492.167
-198.154
-84.5679
272.522
-208.861
-63.6608
-562.596
17.4316
545.165
173.566
-76.3752
1006.27
-1006.27
433.643
-501.204
-538.741
157.234
191.305
-348.54
-490.566
460.632
-331.822
295.476
-327.417
417.581
168.625
-586.207
50.6332
712.42
561.805
-144.224
439.11
-599.454
103.322
209.334
-312.655
-207.936
-213.772
421.707
314.749
75.456
-390.205
-297.326
-544.665
841.991
491.327
-756.214
380.818
28.7742
-409.592
-1025.11
417.623
96.083
289.277
-277.546
301.186
-360.173
-11.6584
121.945
-110.287
13.6538
-262.214
-254.233
11.8015
242.431
250.766
21.7553
319.086
-389.504
226.737
-92.967
-555.645
-198.624
-105.129
-391.159
-362.999
-974.766
-183.31
1158.08
-497.434
963.383
-465.948
-130.457
-4.039
134.496
-668.616
636.835
31.781
-247.281
378.496
-131.216
244.365
303.356
2.30056
-211.801
873.922
-912.461
38.5393
435.319
-120.657
222.317
-378.025
165.647
212.377
-255.963
69.6866
186.276
-497.181
-65.4159
134.98
-245.007
357.239
-85.9131
-1115.44
914.039
-559.181
467.743
-97.8654
210.85
-112.985
-71.7124
382.961
-311.249
382.267
-358.39
-23.8765
-367.949
45.5955
-211.925
-313.936
691.46
-377.523
-68.3995
-253.96
-91.0345
471.852
4.42164
192.157
-196.579
938.194
203.092
-362.398
-15.6268
170.616
211.651
-372.841
-456.259
829.101
-866.27
377.889
434.283
-949.565
515.282
101.83
-439.843
338.013
-278.349
188.019
-11.7732
468.317
-134.842
-199.698
-427.573
148.163
616.134
6.15619
24.7528
212.888
437.856
-78.7796
-359.077
-107.31
-87.8151
195.125
130.012
232.935
-305.726
9.11168
-107.806
-41.2133
149.019
-384.44
-18.4308
402.87
-27.2626
328.726
-301.464
-103.228
493.978
-390.75
-420.42
388.593
-73.8444
-902.621
823.965
358.378
-320.258
-70.0156
-323.401
-73.4072
-323.708
-655.499
-123.877
-535.199
297.138
238.06
-291.46
64.8711
-128.52
124.34
38.2365
192.175
410.883
-603.058
29.4586
-291.388
47.4023
27.2915
293.824
150.873
-260.916
-53.6259
-287.31
340.936
-810.722
796.289
14.4333
232.202
-252.607
20.4045
362.477
536.43
273.821
-380.507
-19.4308
306.071
-724.583
694.146
289.473
-210.952
-78.5208
297.451
12.7113
-175.027
-165.401
-312.461
477.862
-214.714
-98.4777
301.974
-391.268
440.281
-559.42
118.769
77.229
-195.998
206.026
-128.333
-77.6938
278.04
-650.882
157.124
-512.837
242.694
-93.4691
-149.225
47.6816
-812.282
-430.878
309.757
-389.257
-591.734
693.564
-503.222
97.2104
368.307
-665.633
119.104
-234.246
115.143
-849.884
897.566
-30.2415
-6.93518
807.501
-219.196
216.808
2.38804
-311.457
197.267
114.19
-241.947
-136.823
-56.7777
425.55
-368.772
552.476
-662.081
44.7458
-227.576
182.83
172.893
-128.148
345.206
83.0759
-264.187
172.918
19.9068
-142.817
766.806
107.116
-449.238
171.655
-214.514
178.494
36.0205
191.269
-240.216
-2.38461
191.869
-189.485
-351.277
297.651
-223.14
-14.5212
237.661
-545.841
428.271
208.817
-200.421
-580.959
-64.8494
614.808
4.71021
-314.829
-214.996
175.373
-88.5851
-86.7884
-115.463
-97.9694
213.432
175.965
-239.57
63.6043
-44.09
292.014
-247.924
-225.917
214.015
11.9023
-196.088
-29.8297
353.296
84.5604
985.983
-718.771
-279.521
-309.07
240.671
190.899
32.996
-223.895
-981.275
803.396
177.879
-367.121
170.334
196.786
-504.698
-147.272
651.97
-158.936
-806.209
-12.5524
-285.527
-468.299
449.869
-97.0917
-214.365
257.674
2.17056
658.715
-101.661
-557.053
347.444
-450.672
-159.211
756.273
-597.062
-229.536
-207.96
437.495
-286.251
270.261
15.9896
5.94312
-68.9262
244.892
-113.863
-180.272
-527.801
-7.39776
-16.1644
-90.6834
-744.904
39.8035
-432.244
-213.093
97.6302
-278.981
171.817
699.041
255.883
-306.92
163.656
63.6511
-332.31
-2.53344
334.843
-265.711
9.7482
-36.976
-996.926
778.597
218.329
-21.3828
227.004
-88.0069
273.003
493.623
-523.435
29.8118
-302.104
-160.611
-361.409
396.968
-45.2032
136.783
-91.5799
999.423
-822.204
-177.219
43.6821
-576.999
533.317
-26.9878
-125.455
152.443
-156.577
-134.882
487.467
-63.3546
-256.959
501.323
-558.906
120.993
437.913
-208.598
273.799
520.121
-388.678
-131.444
294.606
8.39572
-303.002
-278.782
197.095
672.341
-102.365
-569.976
432.602
-240.427
-433.164
389.467
43.6975
269.083
13.8894
-289.753
-42.5567
-180.254
56.2797
200.933
-500.517
65.7835
434.734
-261.657
261.426
-392.83
365.567
-324.349
-67.4672
-417.623
-456.741
399.964
-530.606
1001.8
-471.191
-118.761
73.558
-175.664
-191.456
488.173
-50.1899
-437.983
-17.354
-299.246
316.6
-504.19
561.872
-57.6821
441.342
203.519
-100.233
-103.287
198.171
-242.261
199.084
-201.469
-311.567
102.706
465.701
-422.019
-11.0532
-275.197
65.7603
-903.437
903.437
122.764
3.49116
420.559
-424.05
-163.647
181.463
-17.8165
-511.787
303.851
-424.442
68.3503
356.092
56.1666
119.207
-509.932
405.027
104.906
-206.832
436.53
50.9376
308.094
41.9673
-350.061
337.79
-80.783
-423.353
-48.2041
116.382
-357.56
285.848
338.385
-251.702
-86.6822
-32.1802
145.098
-112.918
-974.766
-296.605
-186.808
83.326
103.482
-338.682
249.781
-426.192
-523.373
247.07
560.005
-807.076
-145.22
-531.37
676.59
-481.809
166.98
-20.1444
193.062
214.716
-15.6315
-657.351
640.566
16.7847
80.5975
352.005
289.311
-71.6557
-217.655
-101.762
-559.93
661.692
-576.36
814.691
-238.331
-595.826
57.8208
-806.237
205.757
600.481
-985.522
433.714
551.808
-287.403
-271.503
-117.455
475.833
-968.583
437.978
-675.549
814.395
-138.846
652.177
-753.939
-210.553
251.34
-230.135
124.319
-799.868
-164.238
-694.376
858.614
674.041
-1.69993
501.233
326.802
-91.6278
292.652
-92.0889
88.0499
-151.751
219.173
-587.029
254.097
-226.882
-27.2155
-122.928
343.636
-220.708
-171.097
-120.291
522.896
-29.2729
-291.44
274.086
13.2418
623.593
-703.877
-650.674
-254.594
-245.924
38.5767
217.941
26.0363
480.601
-506.638
-383.974
346.232
37.7421
-140.981
156.382
561.619
440.178
-378.841
-170.16
549.001
172.608
-257.967
-105.508
286.96
-71.1069
-353.336
182.154
-256.709
-233.451
314.049
202.399
-129.96
-446.892
-538.631
-290.36
-11.2208
301.581
-332.852
195.418
137.434
-173.768
178.189
-242.973
-89.8787
225.227
-219.062
250.562
-282.369
31.8071
316.253
-87.1316
-229.122
-805.228
646.292
-311.964
-328.08
80.7987
-321.065
349.84
274.289
-77.6165
518.958
181.856
-18.465
266.498
558.76
-825.258
-194.443
165.798
40.2285
-572.799
407.398
-977.035
302.829
318.6
-816.035
-473.079
-73.0043
546.084
-527.938
450.362
77.5756
282.878
-207.081
43.434
-645.581
388.622
-39.3718
158.475
-355.118
381.155
137.232
-525.91
-121.746
-36.755
218.121
-7.41813
277.679
270.593
-80.6826
175.754
771.214
1.41085
295.531
-280.316
-15.2157
-274.724
-87.0891
-89.918
-33.5913
265.794
714.487
248.895
54.0526
218.951
341.62
-96.7205
-65.432
315.645
-250.212
-455.661
84.5616
494.698
-230.47
-264.228
288.606
-296.024
-16.6888
-674.13
690.818
224.146
-828.086
460.138
-235.458
75.3404
-357.986
-123.766
-394.107
517.873
-124.856
136.506
246.461
-338.088
327.496
-17.0347
-869.424
335.155
88.1396
-364.983
-726.02
-521.932
-459.343
238.455
103.226
-355.548
229.385
-334.893
159.606
83.0878
151.938
-222.05
70.1119
-512.346
159.658
502.384
-922.804
-148.055
59.4701
458.282
26.8087
-574.804
-422.122
18.0562
-599.015
-3.59233
298.198
-102.123
411.439
-309.316
-107.306
-84.9555
151.369
-227.944
-68.5863
-343.747
378.331
-261.972
-55.1323
317.104
-66.2792
261.697
-285.148
-260.09
242.084
18.0061
43.794
-250.403
325.743
369.536
-64.1919
-319.782
-21.4415
235.456
204.986
-28.3328
-176.653
-86.9897
-466.655
53.8142
412.841
-291.253
-134.018
425.271
183.369
-215.549
334.6
-240.958
61.8142
-196.575
-121.284
317.859
816.113
332.611
-39.1994
-210.733
249.932
-22.73
-505.208
-290.36
-732.871
342.54
390.331
3.59828
-296.968
-9.46469
250.552
-12.7915
229.599
281.817
-331.366
49.5494
-463.472
-134.332
-543.363
180.477
362.886
211.2
26.4613
237.872
344.648
-612.616
267.968
241.564
-411.117
169.554
-358.411
407.462
-664.595
257.133
986.736
-956.765
-771.065
457.129
-448.693
-114.373
563.066
172.112
123.419
-312.804
578.196
-412.147
-166.049
386.164
-213.557
-828.407
252.047
250.53
244.169
-238.138
81.5604
401.132
-86.3237
179.541
-181.743
2.20167
232.623
11.517
578.599
-611.427
-503.078
173.013
330.065
75.1015
-362.28
-126.469
488.749
87.9943
391.818
-209.664
265.157
59.9468
-456.407
154.303
311.325
108.676
-420.001
118.349
-216.214
-188.506
-229.212
-206.129
-361.592
17.8456
-28.4989
-628.852
-35.3235
231.014
-195.69
-300.04
185.497
114.544
-387.382
-120.222
507.605
-275.05
-72.9774
188.891
16.0946
-344.664
81.2583
183.205
75.92
-259.125
-265.987
-141.026
407.014
-367.04
-291.512
271.709
19.8024
112.662
-342.212
229.55
163.269
-231.182
67.913
-36.885
-121.605
-284.76
406.366
-366.63
231.788
211.53
-440.742
-249.941
107.333
142.608
-463.547
151.086
35.0803
-440.161
405.081
-196.959
-63.1314
182.866
425.127
-351.549
-73.5784
-209.196
202.887
6.30905
-263.957
122.811
141.146
-77.504
-137.01
-328.251
-116.828
920.224
-216.094
-32.6011
271.788
-478.695
318.084
108.398
-308.23
199.832
-400.053
-143.088
543.141
-471.803
-215.522
219.988
-29.0888
278.204
690.036
-706.725
-49.1105
-272.296
321.406
82.354
-711.433
629.079
208.21
97.0138
-305.224
305.634
-114.329
-238.272
225.719
-363.072
-47.8432
410.915
-710.529
39.2587
671.27
-500.58
-158.211
-96.2728
-296.557
522.673
-41.2568
-774.52
-19.736
794.256
-204.914
560.447
-355.532
-212.368
478.866
148.63
-510.91
322.626
-113.292
122.88
444.576
-426.067
429.558
-321.169
-146.602
467.771
-523.601
50.5217
317.035
45.8875
20.3197
-258.591
263.329
-72.7398
-190.59
-107.705
-110.827
298.846
-83.9747
-273.585
46.7602
227.039
-299.377
-99.4545
398.832
-277.931
346.232
-68.3008
-83.7314
275
-333.93
-138.904
472.834
-233.076
103.311
129.765
-133.077
-50.9608
55.8271
-651.208
595.381
-181.088
-252.076
-302.307
-245.278
-334.558
-96.3199
-209.899
-79.4562
289.355
415.168
639.752
170.953
-227.774
56.8206
164.701
528.863
224.936
38.3928
177.038
-254.656
77.6185
-402.776
-143.065
-527.153
-98.4889
363.416
-180.233
316.073
-33.1949
654.812
-158.77
-4.60925
229.836
-241.865
277.885
-36.0199
713.594
0.672763
287.934
-601.865
492.292
109.573
220.261
69.0493
205.124
-43.2209
219.846
-324.975
76.7588
-327.367
18.6282
-355.014
358.67
-3.65591
83.5175
-186.585
169.153
48.4733
-320.463
319.734
0.729486
291.897
-347.03
247.879
-18.805
-369.973
-120.592
-63.6089
281.782
11.9833
242.114
302.52
5.53121
-389.381
-116.852
506.233
-78.4372
-150.775
-196.275
-31.3009
56.1992
250.115
259.895
-293.486
316.149
-59.3796
-258.294
286.686
-28.3919
-1061.52
716.702
344.818
-421.519
130.266
329.383
8.70618
-338.089
-67.2767
353.124
565.893
-177.031
-35.3948
212.426
-71.2389
-226.523
-261.678
-62.1824
323.86
-285.121
-60.0814
345.203
-69.9632
-510.038
-91.8272
-797.946
785.577
12.3698
33.9123
248.725
-282.637
39.9767
318.411
-188.942
475.193
-286.251
-231.739
-77.331
-478.417
103.624
-210.931
185.965
-244.183
-315.267
-113.111
428.378
-118.954
466.267
-347.313
-381.542
-86.7577
-235.728
-102.361
2.17704
-436.68
-122.501
-200.844
683.685
15.5056
647.948
-663.453
-197.663
46.755
229.603
-814.89
585.287
146.865
-388.813
304.929
-47.6887
89.918
-1020.27
-223.352
-111.542
438.972
-5.32984
-520.275
-391.822
-118.398
-657.421
205.633
-398.436
192.803
-6.90957
298.924
-340.566
-92.7911
433.357
-16.3829
-280.992
297.375
830.015
-116.421
-491.73
479.957
-59.3205
-715.199
-92.0613
457.629
-846.777
783.404
296.642
-473.217
402.11
-93.7907
-117.161
162.631
176.243
-338.873
-438.237
-246.056
183.712
19.169
-202.881
-209.375
914.86
30.9286
-991.997
559.753
-211.798
-101.683
313.482
751.693
38.1324
357.999
-73.9064
373.079
-355.234
-402.035
407.309
-5.27333
329.119
-325.244
-3.87508
362.85
-84.6458
-17.9427
-431.883
-145.116
-222.211
-126.329
-197.929
-114.726
-610.496
817.176
-206.68
-239.419
-3.55443
-218.59
-436.839
-462.23
412.04
77.5199
-305.464
-93.7701
-125.298
219.068
-43.1642
389.041
-345.877
353.77
-56.1184
217.89
-69.1108
-148.779
98.5102
-223.965
134.488
130.242
311.195
-102.986
-330.727
-90.9888
228.949
566.537
-138.267
26.2386
-773.563
747.324
-272.733
110.681
-191.364
-30.1256
-76.7079
343.647
57.9591
771.81
-699.276
856.428
-110.857
-745.571
377.143
-74.9864
-302.156
103.208
-216.193
-91.7444
507.807
-416.063
-230.005
-58.5059
22.9172
-734.35
452.165
-76.5946
-290.657
285.781
4.87609
-212.121
-42.3154
254.436
203.131
26.0674
-229.198
-35.2806
-89.8024
-449.445
-612.075
-427.15
201.496
0.646927
-198.715
-19.9996
244.146
56.9961
-537.839
480.843
-327.111
221.94
-397.604
150.404
-350.101
683.935
-327.563
68.0193
-268.633
200.613
-142.327
307.975
593.795
-154.685
-205.154
-141.543
229.898
908.868
89.5677
-301.581
225.368
46.4027
725.407
-11.7982
191.34
-323.472
-93.3355
397.56
-87.8023
-453.289
-519.132
152.821
366.311
-164.856
-534.83
699.686
-573.808
1009.13
-749.615
139.118
-480.532
-274.264
273.364
113.22
-934.372
56.3946
877.977
-349.587
397.523
-95.5491
-9.57029
362.052
330.539
15.6932
228.091
-196.412
-31.6795
-307.36
97.9847
-193.289
-15.9076
243.007
373.778
-99.9572
668.306
-134.989
288.371
107.169
567.033
-126.752
516.129
-105.246
254.316
-37.9756
-216.341
439.815
-494.865
-337.601
832.467
543.591
-246.452
-294.951
-552.607
80.7779
471.829
311.297
-70.6259
-711.338
677.446
33.8919
524.255
-74.3867
-29.3624
635.102
-605.74
-377.949
290.817
293.391
85.1053
426.363
135.442
-383.352
216.411
-33.5811
361.562
-7.79285
-434.012
-125.742
-48.5653
592.08
322.47
-316.05
-6.42007
-526.883
63.4107
-383.568
-332.424
299.229
51.4618
326.532
-293.63
344.229
-53.4119
-145.599
-271.783
-267.18
-16.4661
283.646
-401.359
-112.347
-34.8327
547.174
-38.0901
-5.5596
473.877
580.903
-26.3548
-159.639
-268.076
326.895
-58.8189
-57.7527
225.083
32.1131
-743.451
-322.601
-235.977
356.303
-390.237
-66.504
463.392
643.001
212.906
-855.907
-155.262
582.107
-129.942
325.596
-244.442
-81.154
-73.6285
-598.586
-207.651
32.7378
200.478
130.061
-139.475
207.388
-283.393
-300.746
348.951
-48.2045
219.877
313.949
-431.405
728.374
429.702
-305.426
372.881
-67.4558
-265.699
-471.554
-219.765
837.47
18.9579
414.163
-52.6003
-966.548
32.1763
391.577
-72.4912
-745.333
-12.7574
-310.643
634.19
206.433
-87.6639
-95.0123
10.9519
295.12
-387.627
-4.39864
392.026
-240.694
-142.903
201.866
-113.081
-474.362
-98.4369
497.557
-90.159
346.563
-5.20167
-318.506
-107.143
-133.057
-518.715
373.495
-112.904
652.934
-630.017
-275.29
374.383
-99.0935
-237.43
66.3336
281.629
22.3821
-446.176
-476.627
-408.605
973.187
-465.29
-507.898
576.878
-109.135
-518.829
-126.752
-95.8656
18.0439
521.717
-133.095
19.0894
54.298
176.716
-226.707
-222.532
56.4926
-102.897
557.014
-134.222
-404.573
-341.013
286.132
264.423
1.37022
438.172
-91.6098
-52.3889
-148.456
-148.024
-306.64
31.4427
75.8523
-272.127
440.719
-652.077
610.203
-112.932
-497.271
758.849
-726.736
429.517
-73.2137
-249.032
-285.749
41.7671
589.493
-126.101
-758.308
784.546
216.336
-2.04186
-214.294
-146.385
223.905
462.791
-62.8268
615.572
-146.747
-280.78
281.452
-109.563
-77.2446
-210.025
267.323
-57.2974
-96.9353
269.048
299.259
-43.3759
-37.0202
250.303
-473.529
-277.823
271.242
-235.526
-35.7163
-427.126
415.572
11.5542
-17.6169
-135.946
306.562
293.758
-299.315
5.55714
-249.432
-85.1659
-14.0046
135.95
-320.87
416.265
-42.983
787.143
-744.16
-507.628
346.7
-32.7502
33.8376
345.215
13.4268
-358.642
7.11508
382.351
227.195
498.078
34.8024
501.822
17.1366
356.039
-47.9452
-69.355
246.393
262.852
52.7923
-871.312
886.817
-302.489
283.414
19.0748
-547.948
248.78
1.52296
801.945
-592.463
-209.481
259.964
-183.721
-76.2428
433.413
228.238
30.032
492.864
-198
617.637
-419.636
96.2809
-51.383
845.591
-794.208
-425.361
303.755
476.259
198.98
234.283
1.17392
223.015
-187.111
-483.346
670.457
40.0567
207.823
62.4775
-559.541
571.042
-508.556
814.051
-263.931
-550.12
-287.234
-191.922
68.1854
270.935
0.774217
-225.071
-284.861
-357.866
-508.403
3.7967
185.396
-189.192
290.942
263.779
193.092
-792.463
768.521
23.942
-24.154
408.02
-455.472
47.4518
278.829
79.6975
-0.368809
782.476
-782.108
96.0012
230.893
60.592
84.2211
-291.777
305.133
-13.3567
-918.993
-55.7727
195.666
-129.866
-487.582
617.448
-293.857
853.862
-147.579
-396.072
-130.811
-560.732
105.341
383.409
29.794
-254.415
-26.3647
198.844
-144.546
14.3426
854.674
48.7633
-14.677
302.611
472.462
-356.752
-115.71
-630.253
237.014
393.24
134.309
164.538
362.082
-356.418
269.736
146.949
281.429
229.592
253.854
32.8326
69.6203
-483.502
413.881
835.452
-239.686
-595.766
168.198
215.645
-383.844
364.733
401.979
248.265
3.82609
-626.321
-306.004
268.883
-889.76
367.806
80.9732
-475.08
80.7124
-635.874
-98.4754
245.284
-358.89
388.651
553.824
-568.192
645.009
-76.8168
-11.1386
372.182
410.8
-347.651
-38.5271
171.034
-132.507
-303.27
295.276
-17.5969
662.886
-346.338
-22.5738
376.495
-353.921
87.1491
-179.695
253.661
-73.9665
-289.264
235.213
54.0514
273.373
540.678
138.484
-402.442
450.73
-1115.81
1115.44
125.646
-10.3242
438.616
166.535
-55.8535
414.947
347.428
214.796
22.2051
289.872
364.41
-25.8133
-338.597
-649.786
648.874
0.911806
230.626
196.485
-11.0891
501.601
-431.981
-211.385
765.209
300.385
83.1675
270.634
-367.354
-173.034
26.7895
244.453
779.578
-172.553
-607.025
-884.89
956.765
295.845
373.476
252.376
-243.67
554.128
-992.365
461.514
341.296
328.25
-37.0067
465.979
291.312
59.4545
-416.769
357.315
-217.543
326.413
-13.6021
-23.7616
-824.33
694.166
854.383
-202.206
334.076
281.597
124.539
339.472
-19.988
-319.483
269.3
313.502
293.57
-188.391
88.1578
-272.948
282.568
-9.61985
443.328
-558.36
-248.715
-3.2298
218.026
461.517
-578.368
-276.151
21.7359
466.992
-128.944
-235.234
364.178
-331.263
-187.87
634.576
106.267
426.401
-943.675
517.274
-459.926
418.124
41.802
-3.0013
252.759
-249.757
351.037
-263.888
259.139
-236.374
-22.7644
317.733
40.0297
-219.724
-849.884
82.4872
355.516
-438.003
-32.5051
723.283
-690.778
322.377
-295.407
-26.9696
-445.662
470.456
322.494
-264.535
-399.984
978.642
-578.658
277.092
-13.8233
197.535
541.899
458.101
-182.501
207.98
12.4745
-220.455
-27.857
398.58
-593.423
33.5734
559.849
202.748
257.815
-360.175
-41.8561
-385.27
-914.86
863.477
-492.102
1034
336.553
-58.2694
238.437
-1.82475
-236.612
488.766
-434.951
55.1368
-706.344
-459.776
-0.150377
-256.958
318.56
-469.477
-499.107
298.23
-18.7767
-279.453
-959.525
426.491
-797.946
156.476
32.7327
-189.208
30.1313
598.947
648.157
-633.989
-277.472
836.232
-72.9501
222.298
376.904
-545.95
169.046
-132.013
354.368
-222.355
-704.095
750.497
-386.251
218.295
-223.546
232.644
-9.09776
-275.591
701.992
313.658
637.089
27.7034
-786.011
-231.491
242.328
-353.87
-36.9188
-228.549
240.35
-897.566
981.599
175.491
39.2244
-214.715
263.239
-315.442
-74.0621
4.75599
390.979
210.369
-601.348
502.741
-902.726
519.668
-53.9666
-222.301
-3.00237
225.304
-114.261
-192.379
-303.221
74.0988
-165.976
-136.491
302.389
291.206
-264.416
-117.209
-316.846
434.055
280.599
289.254
-17.5405
-293.074
310.614
-690.995
16.8653
856.743
-918.993
986.736
-989.123
966.257
1006.76
-1006.76
-884.89
-1020.27
277.601
-247.807
-242.325
-248.487
-187.131
-2.35345
753.182
-965.744
212.562
-886.817
11.2288
-281.528
191.561
-35.0855
-763.477
791.181
227.671
-6.83743
-220.834
-278.198
261.815
-11.8456
-249.432
261.277
248.22
-14.2
-234.02
201.505
-228.72
-23.6125
-253.141
276.753
-187.656
200.405
-12.7487
250.15
280.689
-347.299
406.754
104.843
-181.757
76.9145
-390.308
-606.473
-193.887
207.159
-13.2716
-419.571
-84.0581
503.629
194.012
-174.843
40.7156
201.48
-25.9888
-360.323
273.234
509.773
-121.122
209.617
461.158
-53.1379
310.877
-395.58
84.7031
18.5377
-636.709
666.84
263.2
-461.201
-783.699
730.29
53.4098
480.782
497.86
71.2834
438.49
-273.575
266.665
-73.0839
-710.615
236.291
-337.974
725.689
-932.368
342.431
-760.407
417.977
127.174
263.805
-205.718
-58.0874
-53.3621
-387.494
-868.149
592.558
-1.87706
256.993
3.79366
-307.756
303.962
16.225
-49.9274
235.806
281.518
-37.065
185.258
-58.2368
-127.021
738.715
20.1341
272.429
302.541
6.51795
179.417
-228.027
48.6098
234.927
-299.982
296.39
-327.105
-202.865
217.109
-14.244
74.6194
-494.19
240.499
175.765
-83.3049
836.487
-609.168
443.12
574.49
-677.991
219.705
-332.997
310.463
-442.477
185.903
-312.232
218.231
-192.164
-329.205
214.876
-190.005
-7.59652
197.601
216.703
-331.429
368.104
-266.123
-101.981
-5.25351
486.097
-442.484
-560.371
1002.85
-754.008
651.643
-50.5499
-320.29
370.84
21.3858
57.5798
-291.689
282.224
-268.963
-7.18744
196.616
62.242
-258.858
-183.561
-214.875
-295.521
223.069
-208.638
-14.4308
-307.756
-409.07
409.07
186.267
-658.07
166.464
178.636
303.962
727.248
-234.956
-41.9103
-645.652
687.562
525.521
-87.6074
235.436
-364.57
315.459
393.772
243.139
4.29347
231.949
-172.02
-59.9289
-32.8055
-686.788
686.788
-175.783
-387.143
-92.4639
-118.467
206.461
20.2763
-141.4
209.004
-423.077
478.696
-147.59
-202.511
740.195
-504.287
-235.909
-110.52
-105.672
547.492
-178.78
-112.843
-41.4352
-488.302
529.738
-500.61
-287.203
511.418
-18.5541
-18.6489
-739.521
552.41
-457.954
-65.6466
767.843
19.2994
230.819
-112.939
773.706
-660.767
103.19
868.303
683.19
854.277
147.973
-217.084
-386.485
-73.2902
-235.093
249.605
-228.672
49.3843
-168.539
-897.817
41.3961
856.421
11.5191
392.147
813.086
-261.884
246.696
15.1878
1066.39
-542.378
-524.011
-168.584
4.07397
475.883
202.58
-36.7824
268.937
280.064
423.425
-772.038
956.299
-184.262
-346.737
5.7237
231.8
17.6374
666.048
-85.6597
-216.829
-166.348
-242.257
209.254
92.3064
634.942
689.908
-731.818
91.4388
-795.533
22.8081
654.638
752.257
-849.585
97.3283
-627.623
535.845
91.7781
627.24
-563.553
-63.6863
-446.452
521.071
56.4993
-79.5931
-122.304
201.897
122.778
305.489
-602.878
444.666
188.613
-188.613
-199.353
218.573
-879.216
436.732
-667.658
537.792
-552.607
871.312
-954.616
23.7613
-237.448
204.75
-165.894
-222.919
-246.16
21.0382
357.293
35.3196
341.823
-351.291
-362.853
37.6087
434.3
-680.752
-55.3073
-726.76
782.068
225.275
-267.59
55.1489
104.723
-230.02
-623.626
655.407
-196.684
-47.4989
8.13645
545.136
146.324
-308.846
-23.5776
-455.104
957.845
864.253
-864.253
333.141
43.3542
10.6905
463.187
-761.523
17.3634
651.114
15.7266
80.3091
417.36
-497.669
215.023
302.075
-3.87658
9.00143
673.202
17.6165
-852.247
644.596
195.527
303.216
-498.743
-826.226
562.295
210.272
-412.012
19.5625
-649.579
-184.594
-54.1432
238.737
-80.9285
196.351
-115.423
15.207
44.6587
356.172
40.7958
-201.803
17.3508
-286.507
526.296
659.713
63.5699
12.3373
137.172
-84.5413
-198.096
196.313
395.531
-501.424
-707.834
-64.204
-198.488
-466.982
-476.693
-274.056
-360.748
624.588
-515.015
6.71248
798.556
-805.268
318.082
50.0214
392.45
-59.3093
620.146
-55.9089
-564.237
313.789
-18.3131
-571.537
-102.331
673.868
-28.3408
-252.53
-607.711
448.941
-170.024
-72.1582
242.182
235.948
611.286
66.3065
-238.469
-86.5058
24.5314
203.814
-546.108
638.414
193.879
3.6558
-199.926
396.579
-196.653
311.083