/*--------------------------------*- C++ -*----------------------------------*\
  =========                 |
  \\      /  F ield         | OpenFOAM: The Open Source CFD Toolbox
   \\    /   O peration     | Website:  https://openfoam.org
    \\  /    A nd           | Version:  7
     \\/     M anipulation  |
\*---------------------------------------------------------------------------*/
FoamFile
{
    version     2.0;
    format      ascii;
    class       surfaceScalarField;
    location    "31";
    object      phi;
}
// * * * * * * * * * * * * * * * * * * * * * * * * * * * * * * * * * * * * * //

dimensions      [0 3 -1 0 0 0 0];

internalField   nonuniform List<scalar> 
43924
(
-594.916
667.226
-72.3096
1064.08
-1072.43
8.35207
-334.876
382.098
-47.2219
226.424
-258.796
32.3711
-498.425
498.425
220.523
-263.613
43.0907
-372.895
366.343
6.55224
27.1674
-564.241
537.074
663.783
-833.589
169.806
-1009.31
1102.27
-92.9675
555.839
-145.61
-410.229
-531.743
536.321
-4.57787
-687.819
582.654
105.165
-859.813
868.874
-9.06021
265.59
65.3383
-330.928
385.625
-10.3909
-375.234
814.557
-666.869
-147.687
-410.712
408.081
2.63074
161.102
314.787
-475.889
290.479
-357.018
66.5397
-594.029
81.6706
512.358
724.508
-60.7248
49.8726
-384.749
136.52
-489.426
352.906
231.584
-120.424
-111.16
1068.07
-3.98839
659.835
-680.976
21.1417
-281.957
3.46198
278.495
307.343
-41.7531
-442.099
543.832
-101.733
952.874
-248.407
-704.467
-674.174
762.209
-88.0353
243.334
-223.46
-19.8741
479.125
-70.6503
-408.474
126.601
-408.558
266.288
-431.075
164.786
440.779
-588.3
147.521
291.426
-38.3474
-253.079
824.658
-979.258
154.6
1062.13
-237.47
-1018.17
1035.71
-17.5327
402.376
-91.91
-310.466
704.033
110.524
189.051
-308.829
119.778
1228.48
-777.707
-450.769
-591.194
149.095
538.295
-538.674
0.378711
230.499
645.534
-876.033
224.75
537.246
-761.996
-106.861
547.641
-376.797
173.478
203.318
-13.7495
-224.899
238.649
-667.544
-6.62988
239.369
-18.8467
424.084
-38.4586
-282.187
-52.4926
334.679
524.588
-499.771
-24.8171
-34.2775
-559.751
-463.675
42.5715
421.104
-297.278
-28.611
325.889
799.503
17.5783
-817.082
-409.156
570.258
-15.4077
-245.614
261.021
-216.889
483.177
-329.906
439.501
-109.595
261.506
236.176
-497.682
496.171
-125.348
-370.824
428.634
-48.0121
-380.622
-448.41
-27.297
475.707
-986.689
-31.4857
1061.75
6.31461
305.864
276.449
-582.314
-243.262
546.955
-303.693
172.336
77.4868
-249.822
-431.821
381.62
50.2017
-378.703
381.447
-2.74358
301.212
-171.088
-130.124
-250.894
-60.8909
311.785
-699.295
16.5404
682.754
406.764
-91.6375
-315.127
-254.144
254.144
80.6647
-761.257
680.592
-663.238
68.3218
-947.219
848.227
98.9922
-313.947
-58.9485
-49.6894
222.769
-173.079
522.135
-131.94
-390.195
-644.531
-43.2883
652.456
-69.8014
100.119
80.6861
-180.805
-355.221
90.9203
264.301
-309.579
58.6855
846.142
-621.392
568.558
-596.577
28.019
226.166
-95.9261
-130.24
-365.779
140.035
225.744
-21.9595
251.831
-229.871
-846.719
847.449
-0.729834
-30.3927
-160.165
190.558
277.239
1.75743
-278.997
-711.449
12.1542
-266.116
283.325
-17.2091
778.736
20.7675
428.245
-633.943
205.698
202.837
-216.587
-757.663
820.35
-62.6869
649.602
-716.031
66.4289
74.6741
577.782
943.843
-846.975
-96.8685
-216.001
238.575
-22.5737
198.35
44.9842
351.71
122.089
-473.799
1009.09
-256.885
-752.209
18.5109
563.69
-582.2
-12.8489
-587.365
600.214
539.525
-233.661
112.432
425.417
-537.848
-303.168
407.72
-104.552
76.7425
-814.827
738.084
-698.69
455.428
-24.3387
-196.222
220.561
20.9828
-855.907
834.925
-309.213
327.077
-17.8633
-34.1407
295.647
24.0782
-890.805
866.726
-363.738
342.734
21.0034
-88.6924
-322.019
11.9681
-286.44
274.472
703.95
-786.654
82.7033
726.148
-860.279
134.131
-150.07
339.121
189.502
111.71
199.597
-204.985
5.38834
286.099
-314.158
28.0591
-129.51
557.755
626.12
326.754
145.58
82.7039
-228.284
276.705
-316.126
39.4218
196.842
-234.377
37.5343
-23.1544
300.394
-350.032
-13.7053
1.55197
-187.563
186.011
223.554
-62.1021
-161.452
181.124
827.97
-198.074
-739.276
937.35
-101.148
-397.277
522.799
15.4962
227.343
-224.513
-2.82917
260.031
-202.571
-57.4602
18.1167
-236.58
218.463
-395.413
633.667
-238.255
51.2559
508.552
-559.808
984.087
-886.483
-97.6031
790.91
-787.09
-3.82045
-574.589
-236.235
810.823
-145.93
722.104
-576.174
455.189
-443.617
-11.5717
-226.375
7.78908
218.586
30.2639
-762.076
731.813
-174.499
-202.297
-247.512
233.667
13.8449
241.171
-14.7467
25.1566
1020.87
-572.445
-448.429
735.195
-933.269
-399.487
96.3197
15.2084
208.345
16.483
-778.247
761.764
-90.3831
-856.836
417.38
-452.183
34.8033
-106.679
832.827
54.1039
-736.393
682.289
-212.973
-13.4026
276.705
5.28461
241.679
-246.963
-432.632
432.632
82.7763
679.563
-762.339
-314.725
48.6093
-579.44
597.951
332.133
-299.567
-32.5664
-777.832
-63.27
841.102
-146.401
447.449
-301.049
440.159
81.9758
428.903
-442.807
13.9038
246.004
-49.1618
-204.62
-332.417
537.037
501.18
-381.345
-119.835
-328.314
17.8603
310.454
785.437
-81.4863
-520.485
-79.6307
600.116
-661.076
661.076
-127.415
502.516
-375.101
95.4486
-341.474
246.025
-919.368
344.78
306.712
-358.277
51.5656
436.745
18.4436
809.769
-489.24
-320.529
918.752
-69.9652
-848.787
77.31
148.856
-847.25
614.28
232.97
-26.3655
265.566
-239.201
-210.349
221.323
-10.974
-43.0845
-488.659
875.044
-890.179
15.135
-67.3922
429.662
-12.2818
788.291
-792.037
3.74575
244.454
-17.1115
20.3988
-236.4
822.129
-963.817
141.687
251.165
-340.867
89.7014
570.651
-570.651
899.942
-93.2378
-806.704
594.242
73.0794
-667.321
56.8579
-327.398
270.54
-206.093
281.524
-75.4303
-472.895
326.494
53.481
734.81
-393.013
529.532
255.94
-178.63
-684.011
-176.268
484.561
-630.491
453.554
-501.135
47.5812
-898.293
1033.09
-134.792
-580.342
555.67
24.6716
505.995
-582.239
76.2446
129.12
733.83
-862.95
211.291
530.719
-742.01
723.344
505.132
322.105
740.024
324.99
-232.001
-92.9894
-295.424
295.424
371.054
-402.047
30.993
-27.9401
1089.69
269.842
-323.536
53.6944
530.249
-478.993
-297.429
-562.384
551.656
-565.564
13.9076
-29.3379
904.382
253.623
-279.989
-214.219
191.836
22.3826
498.977
-587.738
88.7606
-197.677
959.054
-761.377
588.738
-82.7438
771.727
-383.542
-388.185
339.017
-48.5383
471.996
548.878
-210.764
161.074
-743.849
59.8382
-934.852
36.5588
477.627
46.9612
-679.874
891.165
-695.579
-62.0834
188.322
-201.161
12.8396
-74.0079
915.211
-841.203
-38.0533
-817.793
855.846
183.989
-182.437
41.4923
165.264
-206.757
-8.95795
-365.939
374.897
322.387
-310.419
-606.605
211.192
-249.169
446.658
-197.488
908.554
-678.054
303.521
21.4688
282.903
17.549
-300.452
-567.819
170.065
397.754
460.654
-31.7509
526.446
-731.066
-366.189
-12.5147
646.884
-746.154
99.2702
-219.691
152.339
67.352
-656.219
638.962
17.2566
218.286
-213.002
74.4086
181.531
-743.135
825.911
-332.889
327.085
5.80374
68.0338
-363.292
295.259
237.167
-204.697
-32.4697
526.48
-328.629
-197.852
8.35842
-346.677
338.318
-497.292
484.443
-82.6357
290.894
-208.259
-661.014
158.09
502.924
-347.439
-18.3398
653.794
6.04065
445.476
-21.3922
-167.728
17.7691
149.959
-22.0314
725.954
-703.923
-854.644
983.764
320.736
-149.838
-170.897
677.323
-775.112
97.7887
424.04
347.687
706.357
59.6142
-765.971
818.101
81.8412
552.714
-529.081
-23.6335
1093.72
-1012.31
-81.4061
4.61752
-295.863
291.245
294.687
-11.7835
91.1376
140.446
209.734
-10.1368
194.946
-199.821
4.87532
143.93
148.8
-292.73
-304.655
284.358
20.297
-163.541
-295.858
459.399
420.13
-547.545
-319.956
196.062
-193.712
-2.34953
190.99
1009.17
-561.538
-447.634
525.876
-109.126
-416.75
140.84
508.761
78.7179
473.996
22.9199
-692.982
712.884
-19.9027
45.9136
-547.45
501.536
-89.3648
-246.828
336.193
-448.827
39.1377
409.689
-140.481
-336.024
476.505
780
-1.2647
23.3473
184.056
-375.322
191.266
159.118
-241.754
-920.76
849.321
71.4386
-296.25
305.753
-9.50281
670.335
-84.8431
-585.491
1047.01
-603.806
-443.207
194.333
-192.511
-1.82252
255.774
-112.958
-142.817
-421.541
418.189
3.35241
663.179
-31.5533
-631.626
-694.127
1.14522
374.153
32.6118
-570.667
451.815
118.852
583.362
-578.216
-5.14661
-855.761
44.3973
811.363
856.372
33.1979
-889.57
-424.592
284.111
-202.558
34.8299
-322.596
531.549
-208.954
-170.848
-43.3707
754.994
-793.047
-141.944
183.436
542.364
-175.423
-366.941
-123.555
-309.078
220.636
-221.698
1.06118
619.538
43.6411
683.438
-608.764
21.1302
-301.681
280.551
837.556
-876.412
38.8554
-314.215
14.6487
955.617
-958.807
3.19004
57.0905
214.561
-271.652
680.236
-33.3522
568.884
-592.619
23.7351
-828.405
849.387
188.835
-213.173
786.41
212.126
746.928
162.648
187.175
-349.823
-298.363
-7.83162
825.428
-73.4865
-751.941
596.395
-132.592
-463.803
244.236
-70.7578
83.7193
412.452
75.2746
-281.368
473.828
-503.884
30.0567
142.409
-348.781
206.372
137.672
388.808
58.9507
859.802
653.065
-773.258
120.193
-22.6537
978.271
-251.113
-35.4548
286.568
-216.503
209.241
7.26184
3.31645
169.019
48.4421
452.738
335.067
-344.025
-358.814
28.9084
-338.475
41.197
838.344
-58.3438
79.1421
-250.573
171.431
-957.242
22.3893
-920.81
-36.4319
-486.048
56.7991
429.249
-733.145
901.909
-168.763
-206.221
-53.4738
259.695
-120.383
-73.4023
193.786
-149.462
-50.9555
200.417
-140.827
229.906
-89.0794
853.46
413.165
-229.108
139.648
-12.4817
-567.86
-879.316
-41.4439
443.424
152.971
193.302
-515.898
200.759
-1107.05
906.295
26.9218
202.293
-229.215
-10.032
-200.317
418.687
26.7894
89.1498
701.76
279.818
19.4143
-299.233
-472.025
584.457
728.776
72.8374
-801.614
-778.686
-7.96789
801.145
-855.341
54.1959
306.021
-263.542
-42.4798
82.9872
237.748
850.79
-864.959
14.1685
978.829
-862.148
-116.681
939.146
-943.698
4.55215
-399.993
-170.674
-4.82336
-873.26
548.433
324.827
-184.187
161.73
22.4564
-244.12
388.05
140.612
91.7355
-232.347
755.462
266.329
-281.737
431.657
94.2192
782.903
-696.677
-86.2261
-52.6225
-109.49
-85.9915
195.482
-308.027
260.63
47.3967
862.551
-838.473
-21.6597
379.582
-357.922
-342.067
-7.96525
570.666
-583.56
12.8942
368.226
-327.299
-40.9277
-828.515
731.216
97.2995
-905.8
831.793
142.431
113.343
-406.259
276.861
129.398
468.094
-453.937
-14.157
621.252
-622.649
1.39717
518.098
-44.2706
-325.419
-130.682
456.101
26.1528
-277.266
-71.8867
-246.512
318.398
544.287
563.93
-1108.22
-900.866
849.217
51.6491
-2.27419
-404.969
418.882
-13.913
431.916
-399.737
-32.179
672.195
-845.929
173.735
711.29
-881.917
170.627
-502.961
-158.053
-446.562
78.0258
368.536
305.164
-6.43103
-298.733
-325.611
176.149
474.885
80.9537
-719.704
-108.812
6.96938
187.976
-302.173
300.796
1.37699
52.413
-357.369
304.956
490.171
39.5336
-529.705
-231.574
300.77
-69.1956
-896.194
-19.6389
915.833
-189.846
-42.9608
232.807
6.42533
-846.488
840.063
804.707
-118.418
-686.289
331.624
141.581
-213.468
-874.876
-21.3181
808.589
40.7326
-5.48788
543.149
-191.439
-510.759
-13.2209
523.98
-801.992
913.795
-111.803
313.753
-245.719
-397.487
308.122
-30.14
590.701
63.0931
383.812
-241.403
298.175
511.593
-14.173
26.3063
341.92
-778.094
87.2745
690.82
456.661
94.9958
-124.936
-35.7668
160.703
-851.806
-23.0702
70.4347
331.941
-196.809
227.875
-31.0667
48.249
-279.823
-263.384
284.003
-20.6188
-18.5496
27.896
-512.93
485.034
-611.206
-134.948
-22.7107
302.222
-279.512
-330.667
452.755
599.386
447.626
-1102.78
430.488
672.29
329.387
0.330353
-329.717
-226.525
-173.546
400.071
-524.548
551.715
-661.215
-18.5647
679.78
99.1454
88.6005
-187.746
-44.2517
799.246
838.988
-862.576
23.5885
807.48
-154.415
38.2863
-602.527
-325.274
-21.403
556.805
57.7899
-614.595
439.499
21.1549
-349.304
392.788
-43.4837
-853.67
-3.7727
857.443
-27.8186
-823.988
307.989
-282.761
-25.228
625.209
-3.9571
574.272
-411.326
-162.947
-214.598
277.099
-62.5016
-84.6265
-274.188
-420.551
-43.1248
894.843
-183.554
-822.172
89.0267
-629.291
18.0842
-539.593
50.3226
489.271
820.55
-39.6272
-780.922
-261.954
121.127
0.321861
-356.088
355.766
859.725
-187.53
307.633
-2.46803
636.635
-67.751
494.2
-4.02903
801.381
-712.231
-1045.14
-57.6417
444.904
23.1906
531.666
36.8916
728.732
-698.468
796.12
-38.5231
-757.597
194.01
-224.402
275.209
-14.5792
-118.069
217.053
-198.936
474.946
15.5449
-490.491
576.24
-97.6356
-478.605
-459.323
421.888
37.4357
128.882
672.499
3.55121
-96.5442
-760.191
856.736
75.7749
-669.22
593.445
226.77
-303.961
77.191
-742.751
646.206
91.7493
712.958
-504.409
1048.7
245.776
-166.634
-280.476
-179.063
247.384
-68.321
208.403
-261.761
53.3573
-179.998
320.61
-9.23353
-332.834
-51.1301
5.43806
-410.745
405.307
-47.5435
-161.933
-195.085
-29.9812
367.623
-337.642
-870.854
944.465
-73.6115
45.4971
-528.1
482.603
35.697
-252.2
-755.828
106.165
649.663
354.586
-227.985
819.406
1.14388
-5.15302
224.532
-219.379
437.013
137.259
-119.228
-327.334
815.975
-201.695
-95.2108
-914.096
612.531
-336.081
131.038
47.6455
653.855
-573.19
495.281
-16.1567
342.328
-35.616
339.001
-421.408
82.4075
198.756
-250.527
51.7716
47.7458
249.577
-297.322
335.851
-499.393
-4.11785
761.957
-806.208
537.676
-62.7302
-106.022
737.57
-631.547
-269.309
303.959
-34.6499
-68.6827
295.452
205.075
-189.867
-281.59
12.2816
-1060.18
588.106
472.077
-35.8723
-76.4864
176.605
-309.567
295.007
14.5606
-676.022
692.505
268.367
-273.23
4.86278
-476.71
180.852
-503.624
-556.559
240.066
-278.413
847.163
-946.594
99.431
-343.707
18.4332
486.204
-626.784
140.579
-2.47372
811.063
233.262
-266.264
33.0022
-322.696
-550.563
-37.4238
293.64
-25.2728
346.21
-114.305
-231.904
-20.2101
-842.439
862.649
-876.787
484.416
392.371
-56.0693
735.632
-457.979
37.4287
-142.252
-131.919
274.17
875.647
-822.518
-53.1286
392.937
-322.502
796.981
4.16406
105.764
85.6574
-191.422
-580.554
1024.4
-443.844
145.754
-194.349
48.5951
-758.981
-144.986
903.967
130.027
216.182
853.51
-31.3807
813.472
-736.729
503.114
-419.395
6.33273
-251.946
51.1474
147.563
-198.711
306.782
236.367
-23.7923
-1098.2
619.197
479.003
8.12068
891.699
-60.5442
-831.155
-430.582
622.832
-192.25
57.1458
756.326
23.1501
-533.91
-590.523
-18.2909
608.814
419.02
144.057
-563.077
-264.731
-522.358
278.881
63.4472
-178.233
-75.9111
-406.313
352.753
53.5605
-791.257
302.018
200.989
-262.144
61.1545
220.501
-251.377
30.8761
430.022
-424.584
727.55
52.2155
-779.766
-202.848
42.683
821.848
20.749
-842.597
-359.076
18.9738
340.102
118.64
860.189
-409.485
452.057
411.426
-72.4255
-954.501
99.7066
854.794
789.106
102.593
-42.8423
241.598
50.528
381.388
899.401
133.684
26.983
-484.962
28.7145
-826.91
798.196
697.853
-766.635
68.7813
636.318
465.957
769.01
-56.0321
-712.978
195.487
-49.7331
76.3606
339.411
-415.771
-735.248
792.394
269.384
170.117
-270.107
168.077
102.029
-111.192
-426.829
538.02
-32.0912
-215.42
1004.42
-573.927
80.4641
-286.686
212.559
-217.712
-103.199
-155.596
30.6582
820.132
-165.513
501.364
-601.595
756.337
-154.742
684.703
-706.734
-393.602
380.381
-442.7
-179.949
39.4874
348.733
-12.3102
-336.423
-46.2899
808.247
-505.248
-623.367
1128.62
287.812
-236.621
214.662
8.06417
197.011
-246.23
125.806
-885.309
908.971
-23.6619
-271.984
254.803
17.1808
73.9194
708.984
3.36375
765.647
635.685
-16.1468
-15.0727
-512.239
471.145
41.0943
933.083
17.1527
-950.236
-312.687
-46.389
-0.32426
-234.426
797.199
-69.6482
529.016
-623.121
94.1047
-761.987
-84.7318
39.4518
266.569
888.886
10.5154
-490.752
440.83
49.9215
-950.457
-94.6796
41.8033
-386.431
344.628
-193.477
220.949
-27.4715
246.892
-38.489
-39.7256
1050.3
-313.219
-737.078
579.592
-50.5756
52.527
-263.793
-63.6048
-692.788
778.444
-85.6559
-74.4454
-10.8469
231.347
504.76
-5.78324
92.7895
-870.621
-91.9454
212.779
-120.834
-194.488
215.426
-20.9377
-681.793
570.601
-451.107
479.003
342.637
50.3001
-460.531
424.807
35.7237
579.839
429.333
498.429
-459.936
-38.4927
481.506
-309.71
-171.796
-203.117
32.0288
350.473
-21.4242
-329.049
-250.268
71.2049
-321.271
287.13
-219.039
-636.722
-691.565
-81.6926
259.716
-58.7266
662.573
197.152
6.9723
226.694
816.351
-84.7487
-731.603
328.813
-142.096
647.01
-504.915
241.575
-295.048
-95.9009
514.921
-750.857
7.72249
-115.404
-104.287
500.007
-95.7251
784.611
-688.886
-198.079
220.206
-22.1273
-30.7117
-241.272
829.589
-737.84
222.053
-428.099
-407.734
835.833
862.636
-200.063
-43.9921
789.763
-745.771
597.375
-6.67409
17.7236
-608.247
280.264
138.964
-419.229
-404.095
480.456
-22.3211
-317.516
339.837
-616.986
65.7938
551.192
-142.8
517.623
-374.823
-480.136
409.502
-483.103
73.6012
105.166
-178.191
73.0253
-178.269
340.917
-176.391
-189.798
730.088
-32.2348
102.283
581.155
-611.035
648.869
-37.8344
269.183
-291.894
-810.492
-52.0846
97.0795
-433.103
590.119
460.178
-615.785
173.085
418.286
-846.385
386.006
-681.883
28.6517
653.232
-197.978
250.463
-52.4853
-816.297
886.702
-70.405
-48.3096
-432.19
480.499
1005.36
-405.619
-599.741
-68.7783
-786.563
10.6873
297.301
-950.463
207.424
743.038
-857.707
-92.7561
-172.776
-11.4108
-777.768
731.478
-132.584
-296.636
429.22
-15.1961
-266.538
281.734
160.341
647.139
240.613
152.552
-393.165
-902.868
154.575
748.293
541.172
-580.943
39.7704
604.538
58.595
-663.133
-44.4351
673.831
-639.874
-33.9563
353.105
-23.7188
-24.5479
224.454
-199.906
608.387
65.4437
13.8767
-792.563
721.538
-777.57
-175.087
226.234
324.29
157.215
143.768
-320.159
203.577
-207.536
3.95948
341.541
-199.444
-142.098
592.122
43.5629
-747.679
801.061
-53.3825
-408.736
-97.8176
506.554
-12.9777
-289.195
251.381
61.5705
-312.952
249.777
-99.977
-149.8
418.316
-466.625
-61.7151
-740.276
-410.881
94.5869
142.58
510.347
-442.642
-67.7045
-229.142
256.064
-202.86
195.057
7.8037
24.3084
-226.517
202.209
-322.497
379.279
-56.7817
212.414
-10.6179
-201.796
450.448
554.913
-261.708
555.517
-473.846
140.598
-228.044
87.4461
-201.039
-12.2666
213.306
701.277
-96.739
243.314
-168.905
-357.461
276.277
81.1836
-424.676
-20.8273
445.503
-352.029
449.108
311.391
-323.354
11.9633
-16.7945
32.3537
470.76
462.775
35.6539
38.8261
-463.502
190.107
1.72954
-338.33
-5.37723
-370.059
297.502
72.5572
342.105
-63.2241
673.694
221.149
-230.673
254.981
-288.85
306.711
103.734
655.938
-759.673
-736.663
-25.7149
762.378
31.3024
164.739
16.7765
-339.273
-690.683
621.103
69.5795
121.239
-176.901
168.481
8.42019
428.307
-148.043
-240.296
-178.58
418.876
-165.331
-346.908
220.717
-17.14
-263.15
120.898
92.4499
-184.395
-1009.54
696.317
-347.817
347.817
851.466
242.253
-35.2596
-509.095
-500.441
209.933
326.388
528.1
42.5513
545.613
-51.4128
275.192
-248.061
-27.1315
-629.397
662.282
-32.8855
-50.2891
-532.494
-46.9465
-635.75
717.945
-82.1946
84.2274
-493.384
-353.08
539.429
6.18395
529.246
23.1766
-552.422
747.573
-647.301
7.42727
-109.909
-69.1936
179.103
-412.277
91.0064
312.169
-33.3355
-278.834
-152.702
-49.8558
-302.032
289.31
12.7219
-292.291
77.6931
869.418
-195.725
-334.688
48.2471
768.119
-1.45888
-766.661
584.175
-659.009
74.8331
-922.858
830.377
92.4804
-23.4951
-637.72
110.096
297.623
-23.334
-261.243
284.577
-787.814
26.5571
-203.688
-290.723
267.389
-466.12
511.617
-243.523
271.647
-28.1241
-303.095
299.954
3.14036
-810.888
704.866
995.978
-148.815
-169.927
310.26
-253.17
360.928
-173.753
419.091
-312.164
-106.927
287.481
54.6238
812.715
-89.9361
-722.779
184.292
-681.583
-755.014
671.845
83.1697
5.60093
-617.318
624.237
-6.91878
64.5821
178.732
-98.7503
518.88
-267.98
293.43
-25.4495
379.138
-458.286
79.1481
-608.632
649.21
-40.5781
585.679
44.3198
-629.999
244.025
-221.155
-22.8692
556.408
-24.295
-532.113
229.357
-118.515
-110.841
-124.187
-48.5233
172.71
955.661
-946.562
-9.09909
-575.496
-388.321
-46.299
-756.682
802.981
-897.638
834.368
-589.303
363.71
225.594
605.085
-623.376
-14.4893
673.517
-659.027
26.0378
141.698
-167.736
-70.788
-286.581
-855.979
-66.8786
15.4612
366.158
334.075
-739.694
199.643
-9.53578
-229.025
229.025
407.15
-137.356
-269.794
-911.271
25.9614
-3.14614
-26.4084
-477.402
503.81
-753.742
-80.6447
487.044
-406.4
-252.399
-408.677
432.341
-10.4536
-56.2709
258.564
155.547
185.995
-543.198
397.588
-166.355
406.968
339.52
-52.039
762.715
-708.612
-284.233
-7.5497
270.707
-946.896
-3.56101
5.61163
927.471
532.958
-448.731
-838.268
574.05
264.218
3.16735
259.647
-262.815
350.224
-7.11368
-343.11
-461.971
31.3885
-835.029
748.753
86.2759
-128.59
-184.097
194.755
45.6386
-240.393
213
126.52
-800.991
17.7761
-589.534
326.966
262.568
37.7605
248.339
362.087
-325.26
-36.8273
-388.224
400.878
-12.6536
847.415
-513.34
-455.001
312.905
-322.74
191.694
131.046
423.379
-720.808
568.397
-27.225
811.246
-807.882
79.8319
149.525
-828.934
811.781
17.1529
-794.665
46.9862
-472.163
-527.847
1042.65
-186.28
931.096
-835.18
-95.916
-521.121
-463.314
984.435
-48.6143
-256.041
53.0052
225.943
-233.146
7.20311
-22.0922
-56.0683
733.391
468.727
-33.851
-434.876
-366.867
-200.952
19.5112
-86.2684
-254.598
-157.648
424.884
-267.236
-925.721
925.721
92.8709
-805.918
485.388
-510.843
69.1821
441.661
-211.659
-194.599
172.869
-165.125
-378.073
-553.922
388.796
602.221
57.9302
191.847
420.909
-929.894
508.985
-29.3843
309.203
-223.124
-262.924
-215.88
419.071
-94.7808
-181.504
-141.236
-65.4865
-835.379
452.493
-518.092
65.5991
17.2623
-695.446
777.135
-81.6891
415.76
-420.857
5.097
246.809
-567.867
529.723
38.1449
100.779
118.032
-218.812
194.991
-219.539
378.937
-708.786
329.849
110.54
758.334
166.873
240.277
-68.6553
-492.281
465.872
292.756
-307.243
14.4873
416.515
-37.3771
353.948
-383.929
-22.5235
-367.582
390.106
-40.0921
-274.066
322.279
15.1749
-337.454
-427.273
269.624
-388.463
40.3247
631.113
-749.532
-410.003
532.118
-313.281
-91.6886
976.648
-866.108
-492.741
-312.303
805.045
293.776
38.871
290.285
-329.156
-455.878
143.414
-272.004
-51.7953
451.074
-563.908
112.834
47.4245
613.651
-186.675
76.7658
329.022
-291.261
708.746
-329.808
269.367
-178.446
24.0072
364.825
-388.832
-28.4387
-296.291
-5.39029
-256.419
251.26
5.15945
1.17687
555.639
-532.489
40.4963
-891.589
113.342
799.159
-2.17826
329.675
-116.675
525.49
328.705
-854.195
598.397
239.947
671.172
-766.897
-749.285
104.885
644.4
281.024
63.6756
-344.699
187.153
-180.01
-7.14364
26.836
274.534
572.915
-197.139
37.1756
159.964
-156.854
-606.932
763.786
-339.551
361.052
-21.501
-254.688
291.79
-37.1022
-148.443
-175.093
-255.49
212.049
43.4416
920.094
-920.094
-87.3243
727.048
-639.724
294.24
-211.253
345.007
-68.1466
-657.834
190.179
27.8657
-218.045
40.0632
-585.368
545.305
39.3971
-240.711
201.314
908.292
-913.993
5.70017
301.019
-674.518
373.499
346.222
-304.419
51.7587
310.328
-350.746
876.235
557.06
-105.986
-72.8497
-243.277
-400.167
322.802
77.3656
220.334
-345.682
332.804
-500.101
167.297
-249.632
51.654
-873.296
-73.5991
33.4715
-728.918
319.373
-179.339
796.382
-773.242
-23.1393
431.01
51.5915
-482.601
-685.578
610.666
74.9126
-249.2
209.692
39.5085
320.762
-28.0064
-426.114
-254.862
878.02
-834.179
-43.8414
-357.681
658.7
127.956
-536.692
-864.744
11.0735
-55.823
-601.028
656.851
43.7689
-137.601
-132.506
-917.784
411.461
506.323
192.327
2.72997
450.039
-34.2788
543.447
278.856
-269.425
-9.43091
-334.597
-6.05297
340.65
-551.539
444.677
-0.589154
-204.019
204.608
231.75
-41.5712
-96.3173
358.855
-262.538
-355.608
6.30397
434.869
-10.0615
59.8646
-809.556
749.691
-664.289
664.289
54.0643
187.51
-89.708
-505.54
595.248
-854.479
938.108
-83.6289
741.125
55.2564
-14.138
-834.537
848.675
324.248
-341.611
17.3635
325.13
14.4157
-339.545
584.315
-636.898
52.583
45.3387
313.747
-359.085
-213.773
-120.105
333.878
196.272
-9.11838
106.55
-710.547
603.997
-760.014
267.273
350.598
-311.727
793.736
59.7743
-77.3777
-433.465
342.374
-390.386
-681.248
101.612
579.636
320.106
-283.343
-36.7622
-531.222
614.855
-83.6326
-81.9183
-362.924
444.842
408.648
-382.342
-592.451
-325.333
602.325
-725.241
122.915
-407.43
-430.838
837.859
-39.7407
-645.838
120.45
460.235
-580.685
563.562
-644.786
81.2242
40.1151
-242.686
11.1096
-692.993
-321.12
321.442
3.86172
570.541
-692.719
122.178
-344.502
-430.61
-2.29905
-684.85
698.109
-13.2583
763.071
-164.674
645.565
-102.899
-542.666
217.247
293.1
289.87
-297.418
7.5481
807.724
-935.878
128.154
-651.675
-97.6098
-293.293
25.3124
-325.68
81.1299
244.551
-56.3772
640.692
89.7856
-255.356
165.57
357.781
-335.757
-22.0239
-342.587
-246.947
-15.0315
203.353
-27.7727
-173.389
229.451
138.565
-368.016
-271.726
319.623
-47.8973
588.733
-678.441
23.8026
288.367
-267.178
-58.5029
-292.261
-297.042
-711.332
540.702
170.63
-111.338
-152.275
-162.46
66.5335
-578.313
536.384
41.9292
576.955
-1098.08
-24.8637
-1014.33
-140.791
367.679
51.3918
-22.6427
-51.3911
-758.74
127.193
852.092
-845.667
617.39
-76.6872
1.86024
589.239
-591.1
-282.989
-164.969
447.958
-44.8004
-204.4
7.23014
196.859
-210.924
14.0647
-993.904
231.827
448.566
-115.762
19.6707
-627.972
608.302
298.413
-364.91
26.9187
337.991
60.7817
573.458
-634.239
-103.014
771.507
-668.493
-669.468
-195.49
-728.211
38.5276
689.683
-32.7795
569.749
-536.97
923.718
-915.253
-8.46537
563.281
-619.103
-611.187
-23.6455
634.832
-395.896
124.17
277.854
-274.682
-3.17178
801.334
-772.62
-96.0259
730.867
-634.841
459.452
11.6935
-433.947
-669.861
604.139
65.7217
399.173
-92.2047
-564.014
-55.7726
-11.1973
-399.548
-27.9025
214.665
-186.763
23.1921
327.406
-360.456
364.356
-3.89948
746.207
-792.506
121.358
138.337
213.91
-225.759
11.8494
684.152
-775.282
91.1308
-321.502
-680.639
-12.1489
795.023
74.3959
291.008
120.418
811.529
-16.5061
-33.1916
-1029.6
173.692
3.94034
19.9303
-567.38
157.948
-131.91
-1082.89
-241.776
241.187
71.0867
223.153
-107.667
-467.123
574.79
-2.47648
-477.499
479.976
838.925
-31.2016
570.071
75.4935
-43.133
-204.033
247.166
743.003
-786.995
-152.277
381.728
-404.787
444.325
-39.5376
-679.281
723.182
-43.9009
286.984
-358.017
16.5431
393.234
-141.542
-251.692
175.54
-511.567
466.101
45.466
4.76397
-461.287
461.664
-0.376742
613.76
-596.036
34.6011
-162.75
593.759
-294.578
57.4853
440.94
41.3353
607.456
-648.791
-79.3897
-144.071
197.013
12.6781
31.5317
-391.311
26.4017
-413.406
8.61902
250.986
-253.041
2.05423
711.246
-682.594
-484.981
84.0223
400.958
-42.2725
626.448
-21.7368
-204.78
914.264
-141.771
-772.493
518.881
537.487
-1056.37
-292.335
-16.4941
290.822
4.18476
10.2679
274.091
-691.229
-3.10327
694.333
592.141
-748.995
-211.731
193.209
18.5215
-526.187
-22.9055
-646.314
6.34839
134.25
-137.322
-428.242
-105.695
195.481
17.158
-635.52
618.362
-38.7612
-497.791
536.552
-261.655
306.994
-69.3013
626.106
-728.504
753.776
-25.2718
217.711
-482.442
249.023
-260.146
11.1232
11.6505
-838.466
27.5775
243.732
-457.505
910.519
-920.615
10.0966
636.85
13.6787
-650.528
-53.3057
-539.313
-807.251
840.449
120.309
-206.301
897.672
-78.2664
241.119
-15.1768
-60.3928
-715.991
776.384
-87.8752
-596.975
-21.9231
551.169
-673.173
21.498
207.402
-233.453
26.0507
-236.781
2.31843
234.462
-558.56
533.512
25.0476
-210.214
86.0274
60.1309
88.2933
-148.424
-880.252
314.603
19.9963
-334.599
54.9615
637.888
-692.849
-340.646
367.502
-26.8556
-651.244
-21.9287
-665.062
768.797
-896.667
127.554
769.113
-145.921
-168.804
-445.282
63.9372
-456.907
-615.526
268.847
-2.51812
-290.062
290.795
-0.732693
174.514
-73.7343
-422.685
393.736
28.9487
-954.884
972.037
-288.551
97.5285
191.023
133.008
24.9395
522.935
857.929
-878.139
276.772
-39.0241
370.03
-512.83
-789.416
811.352
-21.9361
-347.459
-186.022
533.481
132.503
-174.053
41.5505
426.32
-525.07
747.088
-682.995
-64.0922
-260.249
-32.0856
333.132
-81.7505
315.709
-291.907
331.627
-652.039
-17.8213
5.53695
633.425
-369.818
141.833
20.6502
-891.504
548.103
-390.014
608.143
368.505
423.605
8.73638
744.646
-805.039
-40.0768
-14.127
827.284
70.3886
421.119
-499.831
78.7128
237.199
-199.863
-37.3354
-185.711
210.908
-25.1976
-10.2351
342.632
-332.397
-617.543
658.879
438.462
249.984
-218.042
-31.9429
363.885
511.762
312.995
-334.419
710.17
102.545
78.169
-601.459
523.29
639.779
-35.6406
40.4798
-930.46
113.958
816.502
214.543
-257.504
-251.367
-793.29
732.264
61.0256
5.24016
814.362
-819.602
928.905
-928.905
-378.039
17.5829
602.824
36.9553
-109.138
-25.5517
-190.697
216.249
437.567
27.8123
-465.379
-435.1
21.2126
413.887
186.827
972.169
-453.287
-229.025
39.659
189.366
-627.226
630.798
-3.57154
430.391
-469.969
39.5779
-430.749
-4.35065
45.3934
-765.093
719.7
-636.626
-62.0639
-549.387
518.481
30.906
-374.21
289.583
25.6655
-239.288
213.623
-161.031
-127.52
-28.8371
224.4
-27.3861
45.1856
297.556
-278.142
-71.6479
791.607
366.814
-52.2115
-769.363
32.7001
-890.026
814.429
75.5961
122.865
285.216
375.792
163.733
-755.014
858.778
329.94
189.298
-519.237
-164.443
594.448
-644.034
49.5856
483.21
55.4173
-538.627
639.088
-344.305
-294.783
-480.018
-116.558
-781.671
678.658
27.0768
-685.891
658.814
-711.31
108.508
602.802
-763.568
23.5868
35.238
508.582
-87.4634
-519.754
354.241
555.867
-588.647
-35.4054
-67.1831
230.479
-163.295
51.5089
-687.259
-233.454
-234.107
166.923
-29.9571
268.454
-106.446
-162.008
162.759
-7.92654
-633.913
721.187
-32.931
198.652
-165.721
869.867
-629.411
12.0928
136.619
192.403
1.00504
397.543
-398.548
-222.275
-198.538
420.813
180.933
763.532
379.573
-355.566
-842.617
7.58765
626.404
-609.864
-0.746449
-812.202
812.948
589.545
16.07
-605.615
845.869
46.1547
-892.024
310.405
-10.45
124.174
-407.163
425.911
8.95763
-255.233
335.003
-79.7699
193.55
381.538
-90.5297
611.209
-55.218
-555.991
-756.463
782.391
-25.9279
12.873
649.16
-662.033
-645.855
114.634
-6.7372
-442.385
605.891
34.4681
323.313
-30.4782
189.176
-90.0311
-336.437
1.84007
95.96
742.965
3.62354
-277.667
274.044
-422.606
-507.288
-57.4438
-757.756
815.199
266.208
-51.6468
190.27
-263.344
73.0735
195.519
-94.7903
-222.053
-516.876
-581.323
-792.01
-18.4818
-166.747
-815.756
776.444
39.3116
-34.4618
469.721
-435.259
59.7815
821.338
-881.119
197.472
-137.341
774.927
26.1342
-222.944
197.392
20.3483
-306.753
286.405
575.721
-573.861
-645.739
129.903
515.836
-563.52
587.748
-24.2281
31.6218
258.248
-665.217
-441.838
608.54
45.8112
-654.351
-721.935
606.756
-679.211
72.4548
-151.119
-46.0205
450.037
-484.314
-846.571
851.812
106.173
-307.813
-588.854
-642.407
593.272
49.1351
181.652
-76.4865
-43.612
459.589
179.5
-571
58.0698
514.264
-527.166
12.902
73.1825
-717.663
644.481
267.454
-16.4681
-313.017
166.291
146.726
-569.538
592.715
-131.658
476.612
-344.954
681.418
-86.9693
0.883023
-317.894
317.011
-446.917
-442.764
889.681
-143.031
248.218
-105.188
-101.861
-579.387
-573.132
421.075
152.057
403.416
-37.7563
-365.66