/*--------------------------------*- C++ -*----------------------------------*\
  =========                 |
  \\      /  F ield         | OpenFOAM: The Open Source CFD Toolbox
   \\    /   O peration     | Website:  https://openfoam.org
    \\  /    A nd           | Version:  7
     \\/     M anipulation  |
\*---------------------------------------------------------------------------*/
FoamFile
{
    version     2.0;
    format      ascii;
    class       volVectorField;
    location    "31";
    object      U;
}
// * * * * * * * * * * * * * * * * * * * * * * * * * * * * * * * * * * * * * //

dimensions      [0 1 -1 0 0 0 0];

internalField   nonuniform List<vector> 
29540
(
(1.00895 -0.0118652 2.68407e-23)
(1.00843 0.00402774 1.3238e-22)
(0.99215 -0.00284359 -1.69469e-22)
(0.973275 -0.0411244 5.76561e-23)
(0.997922 -4.44363e-05 2.40925e-23)
(0.963331 -0.0249888 -8.23269e-23)
(1.04531 -0.0735498 1.49406e-22)
(1.01164 -0.0180273 -2.62146e-24)
(1.00171 -0.00166444 3.85643e-24)
(1.00016 -4.19852e-05 9.95265e-25)
(1.01279 -0.0241421 -9.72597e-25)
(0.998028 -0.0141073 -6.31693e-23)
(0.999591 -0.000166284 3.31467e-24)
(0.999974 -9.20695e-06 9.25731e-26)
(1.1671 0.0884043 2.15268e-22)
(0.994851 -0.00165586 2.60198e-23)
(0.999865 -0.00072731 -1.51736e-24)
(1.1318 -0.0164592 -1.16726e-23)
(0.998183 -0.00153046 -8.2079e-24)
(0.990734 -0.000682311 -3.78164e-23)
(0.999267 -0.000234448 -1.12589e-23)
(1.00161 -0.00166057 1.35222e-23)
(0.992075 -0.00300775 1.87301e-22)
(0.998177 -0.000146038 1.0583e-23)
(0.885179 0.117226 6.58506e-23)
(1.00929 0.00319175 7.10252e-22)
(0.999559 -5.00829e-05 7.55352e-24)
(0.943038 0.0996208 -4.35072e-21)
(1.17284 0.0879134 -6.29425e-22)
(0.999258 -0.00773827 -1.19274e-23)
(1.01311 -0.00970689 1.9412e-23)
(1.0333 -0.00690446 -1.47994e-22)
(0.975989 -0.0948914 5.95675e-22)
(0.998053 -0.0195311 3.21463e-23)
(0.940927 0.0949379 3.4916e-21)
(1.00228 -0.027983 9.62838e-23)
(1.06913 0.04354 -2.14633e-22)
(0.975983 -0.023187 2.23863e-22)
(1.00453 -0.000707994 -5.28166e-23)
(1.00437 -0.000507846 1.00537e-22)
(1.00037 -0.000139125 -3.11693e-24)
(0.989977 -0.0255927 -2.22155e-22)
(0.99988 -0.000706944 -1.94352e-26)
(1.01869 -0.0630254 -4.23079e-22)
(1.00003 -4.77821e-06 -1.91766e-25)
(0.999427 -0.007851 8.80305e-24)
(0.997796 -0.0104782 -1.79225e-23)
(1.00006 -7.21525e-05 4.95714e-25)
(1.00283 -0.0031228 -5.48658e-23)
(1.06876 0.0406925 -8.78476e-23)
(1.09646 -0.0945802 1.15526e-22)
(0.976309 -0.0363617 -2.63545e-22)
(1.03324 -0.00606804 5.20896e-23)
(0.964463 -0.0248135 -1.34704e-22)
(0.994977 -0.00169894 -2.28467e-23)
(1.17645 0.0753566 -3.77611e-22)
(0.997134 -0.00190981 8.18374e-24)
(0.999246 -0.000258331 1.42639e-23)
(0.999675 -0.0184657 -4.57579e-23)
(1.00667 -0.0503174 -1.76907e-22)
(0.999944 -6.01426e-06 2.17254e-25)
(0.998247 -0.00156829 -1.68937e-24)
(1.25883 -0.0175974 -2.12191e-22)
(1.00264 -0.0273713 -5.35425e-23)
(1.0679 0.111369 1.85951e-21)
(0.912444 0.0325959 8.76939e-21)
(0.998699 -0.0231995 -8.79467e-23)
(0.993724 -0.0116786 7.86589e-23)
(0.93544 0.0208853 3.51528e-21)
(1.00038 -0.000131334 2.01639e-24)
(1.01079 0.00382961 -9.67959e-22)
(0.988107 0.0832087 2.38552e-21)
(1.00269 -0.00773481 -2.04676e-23)
(0.906049 0.136372 2.41829e-21)
(0.993189 -0.000534695 1.2006e-22)
(1.1042 -0.0564085 -3.61147e-23)
(1.24413 0.145896 4.14246e-22)
(0.977147 -0.0131909 5.32114e-23)
(0.999958 -1.89705e-05 -6.16444e-25)
(1.00165 -0.0411919 -1.71254e-22)
(0.965007 -0.000582833 -8.88812e-23)
(1.02124 0.0402317 5.72149e-22)
(1.00911 -0.0123806 -8.12086e-23)
(1 -5.32529e-05 6.6478e-26)
(1.04765 -0.0721081 -2.33305e-22)
(1.16553 -0.185218 -7.81148e-22)
(1.03929 0.0976709 -3.60979e-21)
(0.999575 -0.000163848 -3.00217e-24)
(0.999604 -0.000148228 -8.79755e-25)
(0.946268 -0.0313738 -3.5021e-22)
(0.992955 -0.0443628 3.06923e-22)
(0.977053 -0.0138171 6.01575e-23)
(1.00265 -0.00322641 9.34119e-24)
(1.0536 -0.0118919 -8.14207e-23)
(0.941985 -0.0133508 -2.91452e-22)
(1.05004 0.118391 1.79199e-21)
(0.993577 -0.0574518 5.00563e-22)
(1.0004 -0.00032844 5.01018e-24)
(0.973282 -0.0515431 -5.20142e-22)
(1.16092 0.116992 1.29088e-21)
(0.999956 -1.86003e-05 9.01518e-25)
(0.97828 -0.00861167 -3.19196e-22)
(0.999946 -7.37148e-06 -1.12348e-25)
(1.04095 -0.0192444 -3.97855e-22)
(0.975202 -0.036178 1.74775e-22)
(1.03416 0.0118919 9.75526e-22)
(1.00408 0.0784679 3.55083e-21)
(0.99962 -0.000150011 -7.44461e-24)
(0.999996 -5.91335e-05 -1.40141e-26)
(0.988883 -0.0929335 -2.96542e-23)
(0.9745 -0.0935497 -5.3621e-22)
(1.03556 -0.0382402 1.60251e-23)
(1.00001 -1.80527e-06 3.29248e-26)
(0.99901 -0.00523349 -3.08e-23)
(0.999901 -0.00186904 1.19175e-24)
(0.990972 0.0851485 1.73526e-23)
(1.04346 0.0577723 -1.23498e-21)
(0.990075 -0.00608483 -1.29058e-22)
(1.00002 -5.81106e-05 4.30312e-26)
(1.00296 -0.00766343 -1.58671e-23)
(1.26348 -0.115963 2.86346e-21)
(1.00545 0.0120076 1.56535e-21)
(1.15479 -0.0839931 -9.35101e-22)
(0.910443 0.0398489 -8.31272e-21)
(1.00093 -0.000305082 -1.27757e-23)
(1.15198 -0.0594327 1.35049e-22)
(1.13079 -0.0118576 -7.60062e-23)
(1.01064 -0.0489082 1.36118e-22)
(1.00339 -0.00296428 -4.90984e-23)
(1.00002 -0.000373867 4.65464e-26)
(1.01858 -0.0613399 1.49175e-22)
(1.24853 0.13824 1.79961e-22)
(1.00626 0.149137 4.37737e-21)
(1.15419 -0.103656 -2.81502e-22)
(1.03954 -0.0188142 3.34081e-22)
(1.01272 -0.0093428 3.69706e-22)
(1.08147 0.194418 2.96836e-22)
(0.977386 -0.000637613 4.66958e-22)
(1.06555 -0.184863 1.92784e-21)
(1.16253 0.110566 -9.92871e-22)
(1.15223 -0.0537788 -1.27941e-22)
(0.952084 -0.00400143 -3.74541e-22)
(0.959399 -0.0345687 1.12376e-22)
(1.00001 -1.63346e-06 -1.42469e-26)
(0.999991 -3.18034e-06 4.93455e-26)
(0.997868 -7.37492e-05 -1.90371e-23)
(0.99796 -0.0102729 3.65128e-23)
(0.98125 -0.0731684 -4.05405e-22)
(1.08397 -0.151003 9.03256e-22)
(1.29788 0.0471196 -6.53163e-22)
(1.02645 -0.01767 1.83535e-22)
(1.01505 -0.0175021 5.82369e-23)
(1.00037 -0.0005326 7.71203e-24)
(0.999889 -0.000188673 8.70679e-25)
(1.00155 0.0216291 -3.48669e-21)
(1.00045 -0.00130361 8.94997e-25)
(0.994277 -0.0095142 3.17283e-26)
(1.09753 0.197188 -8.36526e-22)
(1.00456 0.0443314 -3.7969e-21)
(1.09982 -0.0921066 -2.54072e-22)
(0.966582 -0.00222166 1.53836e-22)
(0.974118 -0.0403533 4.04462e-22)
(1.17742 0.0812911 1.02347e-22)
(0.999958 -3.90834e-05 1.95857e-25)
(0.99999 -3.07235e-06 -1.84672e-26)
(0.990027 -0.00639452 4.57029e-23)
(0.960374 -0.0339244 -5.98312e-22)
(1.00004 -0.000191711 -4.7198e-25)
(1 -5.65266e-05 2.5219e-26)
(0.99428 -0.0043011 -1.5316e-23)
(1.00003 -0.000362893 -3.6042e-26)
(1.00486 -0.00511954 -2.7285e-23)
(1.09262 0.201119 9.80833e-22)
(0.977708 -0.00033748 -3.84571e-22)
(1.02448 -0.100252 -1.88999e-22)
(0.99574 -8.30457e-05 7.73755e-23)
(1.00178 -0.00230101 2.86822e-24)
(0.977711 -0.00845963 5.39767e-22)
(0.999262 -0.00522446 -2.82847e-24)
(1.16313 -0.0755036 5.96762e-22)
(0.999982 -8.61817e-06 3.01932e-25)
(1.00964 -0.0335841 -7.86534e-23)
(1.04179 0.0997607 1.28884e-21)
(0.993994 -0.0108562 -4.52942e-24)
(1.06221 -0.179909 -1.77886e-21)
(1.0328 0.0494459 -1.08994e-21)
(0.994695 -0.00237226 -1.12225e-22)
(0.984778 -0.012633 1.40682e-22)
(1.0032 -0.00297822 7.48299e-23)
(0.99933 -0.0072173 -1.80802e-23)
(0.999765 -6.24649e-06 8.63129e-25)
(1.00485 -0.0154104 8.88249e-24)
(0.905573 0.0199 3.47388e-21)
(1.00096 0.0175778 2.68253e-21)
(0.988013 -0.00512878 3.58969e-24)
(0.99453 -0.00937786 -4.93875e-23)
(0.980013 0.0439161 -3.24237e-21)
(1.01289 0.0314408 4.91035e-22)
(0.94314 -0.0132322 3.53355e-22)
(1.00097 -0.00040813 -9.99787e-24)
(1.0523 -0.0929819 2.99659e-22)
(0.971081 -0.0678454 5.35927e-22)
(0.998248 -0.0144073 3.00747e-23)
(1.00071 -0.000897078 -1.59674e-23)
(1.08475 0.199287 4.19535e-22)
(0.994461 -0.00431172 -1.02074e-23)
(1.00568 -0.00459485 -3.08171e-23)
(0.980026 -0.0725573 5.3802e-22)
(0.988723 -0.0949394 7.57413e-23)
(0.999969 -4.36796e-06 7.38167e-26)
(0.977238 0.119687 -3.94674e-21)
(0.999133 -1.95701e-05 -1.86613e-25)
(1 -4.54158e-05 1.87653e-26)
(0.999543 -0.000174649 1.2812e-24)
(0.995305 -0.0448309 -1.14067e-22)
(1.25116 0.0120058 5.77751e-22)
(1.01054 -0.0329737 6.29204e-24)
(1.00551 -0.00428964 -2.111e-23)
(0.998197 -0.000200865 2.62727e-23)
(0.944113 -0.014767 -6.71297e-23)
(1.00003 -0.000397401 -1.19466e-25)
(1.0004 -0.00132897 8.94258e-26)
(0.998058 -0.000170397 -1.7364e-23)
(1.02503 0.00109933 9.02052e-22)
(0.997781 -0.00330643 -5.56633e-24)
(0.999034 -0.00486214 9.13631e-24)
(1.02428 -0.00132126 4.35347e-22)
(1.00011 -0.000324596 7.55025e-25)
(1.00003 -4.13658e-06 5.03796e-26)
(1.00418 -0.000510597 1.06771e-23)
(0.979112 -0.0265558 -2.07937e-22)
(0.980109 -0.000327196 -1.86088e-22)
(0.995998 -0.000315942 -8.23849e-23)
(1.01174 0.00300695 7.99811e-22)
(0.986959 -0.000937243 8.91032e-23)
(1.01529 -0.0169251 -5.76968e-23)
(0.999973 -1.0257e-05 2.60398e-25)
(0.997533 -0.00218142 -3.1429e-23)
(1.00066 -0.000890217 1.72567e-23)
(1.05265 -0.0897243 2.96842e-22)
(1.01475 -0.156226 1.20642e-21)
(0.998844 -0.000104223 1.37363e-23)
(1.00039 -0.000473695 -5.93703e-24)
(0.998953 -0.00474539 -3.10798e-24)
(1.00289 -0.00684342 -3.95794e-23)
(0.990918 -0.000503527 -1.60137e-22)
(0.99996 -3.72413e-05 -1.21746e-26)
(1.16386 -0.179036 -1.76767e-21)
(1.00004 -0.000406352 1.27493e-25)
(1.02472 0.00104283 -6.35107e-22)
(0.997224 -0.0019125 -1.64615e-23)
(1.00012 -0.000314879 3.21681e-25)
(1.03319 0.0123439 -6.19889e-22)
(0.967447 -0.064573 -5.58894e-22)
(1.00021 -3.56452e-05 3.27866e-24)
(1 -1.06794e-05 1.15562e-26)
(0.951961 -0.00286322 -4.26192e-22)
(1.00744 -0.142533 -1.86087e-22)
(0.992764 -0.0068263 -1.21502e-23)
(1.0097 -0.0498775 -3.53369e-23)
(1.02718 -0.0183623 -3.00949e-23)
(1.04771 0.0963866 1.60529e-22)
(1.00007 -6.81161e-05 1.37344e-25)
(0.97951 -0.0260337 1.95958e-22)
(1.21259 -0.101748 1.18581e-21)
(0.960925 0.0644911 7.8839e-23)
(0.993928 -0.0106093 3.65265e-23)
(1.03152 0.0477981 1.32686e-21)
(1.10516 -0.0524506 -1.92829e-23)
(0.999898 -0.00205622 -1.43085e-24)
(0.817497 0.0552385 5.2245e-21)
(0.999545 -0.000367653 -8.62385e-24)
(1.02312 -0.102765 -2.40977e-22)
(0.945001 -0.0147785 4.35807e-22)
(1.00189 -0.00217504 -1.58062e-23)
(1.20361 -0.0304568 -3.82002e-22)
(0.992842 -0.000774305 -9.5613e-23)
(1.00876 0.161378 3.03763e-21)
(0.997091 -0.000220215 7.62077e-24)
(0.98518 -0.0136357 -7.37885e-24)
(0.999825 -0.00186814 -7.59784e-24)
(1.1398 0.154785 3.29945e-22)
(0.999822 -0.0146519 7.99688e-24)
(1.04646 0.119293 1.12929e-22)
(0.999571 -3.873e-05 -3.30602e-24)
(0.99511 -0.0015728 -3.60802e-23)
(0.958821 0.146129 -2.02724e-21)
(1.02934 -3.5219e-05 -7.38704e-22)
(1.0241 -0.000943779 5.06213e-22)
(0.974868 -0.0335026 4.89509e-22)
(0.999872 -2.75593e-05 8.7521e-25)
(1.00281 -0.00660863 -4.47407e-24)
(0.999861 -0.000794224 -2.73076e-24)
(1 -4.3032e-05 1.4892e-26)
(1.05447 0.00296853 1.94202e-22)
(1.00004 -4.49232e-06 4.85249e-27)
(0.983281 -0.012051 3.32727e-22)
(1.20675 -0.10195 -1.08087e-21)
(0.882562 0.122452 -5.11002e-21)
(1.00977 0.14963 -6.73962e-21)
(0.970982 -0.0562318 1.71697e-22)
(0.9878 -0.0248031 1.23095e-22)
(0.981055 -0.00126454 8.85612e-23)
(1.02834 -0.03453 6.88222e-23)
(1.00534 -0.0152139 -1.92933e-23)
(0.984667 -0.0132348 -1.94322e-22)
(0.971055 -0.0616582 7.56944e-23)
(1.04586 0.0991316 -2.41339e-21)
(0.999464 0.0159863 5.20614e-21)
(0.99892 -0.000127278 7.57354e-24)
(1.00562 0.0793218 -4.88974e-21)
(1.05342 0.00161685 6.35269e-23)
(1.16102 -0.0826601 2.66583e-22)
(1.0115 -0.0138704 2.81728e-23)
(1.00075 -0.0135211 -4.00248e-23)
(1.01683 -0.0464693 -9.6411e-23)
(0.995462 -0.00152187 -8.50737e-23)
(0.997751 -0.000553935 -5.53374e-24)
(0.999949 -5.80277e-06 1.14639e-24)
(0.999191 -0.00739187 2.66983e-23)
(1.08537 -0.0505514 8.63461e-24)
(1.14082 0.160832 -5.75306e-22)
(1.00137 -0.00118103 7.42078e-24)
(0.976906 -0.021757 -2.65998e-22)
(1.01317 -0.0142429 -8.84819e-23)
(0.999967 -1.40758e-05 -9.96631e-26)
(0.971012 -0.0588501 -2.72052e-22)
(0.856538 0.0951956 -2.31851e-21)
(0.994748 -0.00405403 1.26513e-22)
(0.999059 -0.00388618 8.3666e-24)
(1.01202 -0.0137254 -1.74879e-23)
(1.00146 -0.0400014 2.13445e-22)
(1.0899 0.0273242 2.34074e-22)
(0.999498 -0.00839227 -4.35601e-24)
(0.999973 -4.52813e-05 6.47393e-25)
(1.00001 -2.54148e-06 1.6215e-26)
(0.997721 -0.00050462 -6.16064e-24)
(0.956654 0.144987 2.93458e-21)
(1.04376 -0.029145 7.19571e-23)
(1.01866 -0.15615 -3.02985e-22)
(1 -1.06923e-05 1.02347e-27)
(1.00446 -0.144898 1.20805e-22)
(1.0785 -0.00749475 -2.37432e-22)
(0.995636 -0.000138909 -3.88403e-23)
(0.947059 -0.00541062 -5.24927e-22)
(0.999131 -0.00381903 -8.38151e-24)
(0.99963 -0.000168077 -5.44202e-25)
(0.980181 -0.0235519 -5.81813e-23)
(1.00079 -0.000984491 -7.71676e-24)
(1.16907 -0.0738964 -5.35761e-22)
(1.00795 -0.00092794 -2.23399e-22)
(1.23513 0.0998859 -1.75335e-22)
(0.99993 -0.00202964 1.85279e-24)
(1.00356 -0.0120768 6.50621e-24)
(1.00527 0.0106117 -2.11763e-21)
(1.25738 -0.110676 -1.16987e-21)
(1.00036 -0.000501379 -4.53313e-24)
(1.00038 -0.000444245 4.43869e-25)
(0.993809 0.100672 2.43282e-22)
(0.993814 -0.0452812 -6.08718e-23)
(0.999353 -0.00826232 5.3385e-24)
(1.01178 0.0349954 2.59358e-22)
(0.971857 0.0224 6.38136e-21)
(1.09569 -0.0989396 -4.00218e-22)
(0.998739 -0.0223972 -2.6123e-23)
(1.24589 0.0151401 -5.73475e-22)
(0.999346 -6.30086e-05 -5.68113e-24)
(0.992591 -0.00356762 3.36898e-23)
(0.997152 -0.000231576 -2.12499e-23)
(1.01445 0.0299085 6.34057e-25)
(0.999989 -0.000652985 1.83293e-25)
(1.00768 -0.00113325 2.28257e-22)
(1.1073 -0.152247 2.19397e-23)
(1.00379 0.140626 6.83128e-21)
(0.909416 0.140822 -1.11549e-21)
(0.994856 -0.00236781 4.50571e-24)
(0.992555 -0.00666291 3.64069e-23)
(1.06485 0.114743 -1.48992e-21)
(1.00686 -0.0518774 2.56091e-22)
(0.999951 -6.94505e-06 -1.11837e-24)
(1.28284 0.0920733 -3.65621e-22)
(1.02444 0.0015963 -2.71213e-22)
(1.02401 0.00157755 -1.8435e-22)
(0.994958 -0.0115617 -5.36718e-23)
(1.01648 -0.00176257 -3.54768e-22)
(0.94754 0.129435 1.00252e-21)
(1.07634 -0.156924 -2.62629e-22)
(0.97973 0.12857 1.05967e-21)
(0.995199 0.127351 -1.78433e-21)
(0.999997 -5.66595e-05 4.44687e-26)
(1.08248 -0.049009 1.2147e-23)
(1.07881 -0.152638 1.69061e-22)
(0.997677 -0.00333538 1.45848e-23)
(1.00141 -0.00126656 -1.22476e-23)
(0.966443 0.026303 1.53175e-21)
(1.04528 -0.0300991 -9.15621e-23)
(1.00025 -6.55817e-05 7.48766e-25)
(0.981831 -0.0506003 -6.10536e-22)
(0.970272 -0.0694965 -2.51789e-22)
(0.995216 -0.00161648 5.07083e-23)
(0.999897 -0.000183206 -1.09186e-24)
(1.05882 0.141962 -2.45464e-22)
(1.04296 0.0555379 2.06405e-21)
(1.00004 -0.000445199 -3.93935e-26)
(1.00352 -0.00320066 9.64626e-24)
(1.00455 -0.00321619 5.23059e-23)
(1.1599 -0.137553 1.23292e-21)
(0.974948 -0.0326068 -4.3364e-22)
(1.00006 -0.000528508 -3.15034e-25)
(0.999988 -2.07236e-06 -2.76295e-26)
(1.00043 -0.000144341 1.18815e-24)
(1.08837 0.0289768 -2.19738e-23)
(0.976006 -0.0223695 -2.14473e-22)
(1.00247 0.0453534 1.11315e-21)
(0.953721 -0.0378506 2.75801e-22)
(0.98849 -0.0247236 -1.27574e-22)
(0.979541 -0.00098013 -3.70245e-22)
(1.01339 0.0337869 -1.27717e-21)
(1.24959 -0.0154776 -5.76233e-23)
(0.998953 -0.000135386 1.38701e-23)
(1.00685 -0.00526316 -5.59533e-23)
(1.00073 -0.000974226 8.74899e-24)
(0.978319 0.141367 -2.74419e-21)
(0.977768 -0.0203422 1.14072e-22)
(1.00094 -0.000248044 -4.18478e-24)
(0.993476 -0.0031842 -4.55764e-23)
(1.15833 -0.0496748 -1.61101e-22)
(0.999572 -0.0090199 -1.16777e-23)
(0.989914 -0.0109316 -2.54213e-23)
(1.00021 -0.000125074 -2.27552e-24)
(1.00021 -4.78051e-05 -1.00622e-25)
(0.852582 0.10172 3.64003e-21)
(0.992894 -0.00115387 -5.96078e-23)
(0.995824 -0.00418666 5.19625e-23)
(0.99967 -0.00165517 -6.65005e-24)
(0.999362 -4.81617e-05 -7.79869e-25)
(1.05509 0.0937203 -7.99964e-22)
(1.1123 -0.155847 6.90273e-23)
(0.985908 -0.0369406 7.76285e-23)
(1.00001 -1.95475e-06 -1.68353e-26)
(1 -3.4604e-05 1.34761e-26)
(0.97691 -0.0210357 3.01636e-22)
(0.994119 -0.00169761 1.20953e-23)
(0.995497 -0.001942 -6.94193e-24)
(1.01283 -0.00490208 1.08799e-22)
(1.00511 -0.00218759 1.88138e-23)
(1.00005 -0.015014 -1.44554e-23)
(1.126 -0.0327542 8.26929e-24)
(0.983971 -0.00384392 -7.51306e-23)
(0.981824 0.126085 -8.60593e-22)
(1.01202 -0.024107 -1.79215e-23)
(1.00022 -0.000125544 2.53102e-24)
(0.970384 -0.0551256 2.56001e-23)
(0.984688 -0.0326772 -2.66976e-22)
(1.19343 -0.0217973 -1.42548e-22)
(0.997456 -0.00549423 -1.56374e-23)
(0.988597 -0.0435482 -9.49558e-23)
(0.999981 -5.12524e-06 1.65986e-25)
(0.924111 0.102781 -3.50004e-21)
(1.01372 -0.00205867 1.98667e-22)
(1.00007 -0.000213637 -7.67368e-25)
(0.9054 0.0272088 -4.47377e-21)
(0.984996 -0.0370631 1.79105e-22)
(0.999981 -5.95052e-06 2.63122e-26)
(1.00127 -0.00115387 3.61765e-24)
(0.970301 -0.05763 -1.51497e-22)
(1.03425 -0.0368659 2.1581e-23)
(1.0461 -0.0139869 2.33571e-22)
(0.999992 -3.42432e-06 3.92195e-26)
(0.992858 -0.000589316 4.76233e-23)
(1.01775 -0.0455505 1.7552e-22)
(0.995349 -0.00148353 7.02069e-23)
(0.999589 -4.45159e-05 -1.79366e-23)
(0.992735 -0.0036846 9.08984e-25)
(0.97636 0.0462731 3.78182e-22)
(0.99362 -0.0113436 -6.56846e-23)
(0.990337 -0.0107159 1.85736e-23)
(1.00174 0.0253219 -1.08143e-21)
(0.997578 -0.00206059 1.64042e-23)
(0.972134 0.143265 -3.5504e-22)
(0.99998 -5.97739e-06 -8.43842e-26)
(0.990295 -0.0249833 5.16295e-23)
(0.980119 -0.0691288 6.20075e-22)
(0.989412 -0.0439078 1.61418e-22)
(1.19579 -0.113176 3.08983e-22)
(0.998926 -0.00508401 2.06616e-23)
(1.00784 -0.0223826 1.96557e-24)
(0.999917 -0.00218588 3.42175e-25)
(0.984805 -0.0192388 -1.48531e-22)
(1.03521 -0.0400476 4.77772e-25)
(0.999969 -1.3465e-05 5.05751e-25)
(1.00002 -1.0938e-06 -2.84933e-26)
(0.99441 -0.00038131 3.21889e-23)
(0.980184 0.088686 2.4503e-21)
(1.01116 -0.01865 9.48822e-23)
(1.00229 -0.00325414 -1.52065e-23)
(0.943059 -0.0276239 3.74611e-22)
(1 -9.62625e-06 2.93174e-27)
(1.00087 -0.00107517 -1.40042e-23)
(0.999968 -0.000622507 -2.02235e-25)
(1.01246 -0.017935 1.10375e-22)
(0.985101 -0.0142363 2.58694e-23)
(0.99966 -0.000261535 2.25753e-24)
(0.994055 -0.0101286 2.48425e-23)
(0.989087 -0.00633386 -2.6926e-23)
(1.00091 -0.00014881 -1.15215e-24)
(0.999979 -6.88971e-06 -5.27267e-26)
(1.22762 -0.0716859 -1.12055e-21)
(0.999704 -0.00162787 7.13251e-24)
(1.07534 -0.0120986 1.77993e-22)
(1.02052 0.137233 6.53967e-21)
(1.05939 0.113413 -1.38298e-21)
(1.00015 -0.0189457 -5.43505e-23)
(1.00501 -0.00198407 -6.21739e-24)
(1.01681 -0.00140276 2.16999e-22)
(0.999961 -0.00223492 -3.87409e-25)
(0.997949 -0.00956796 2.58051e-23)
(1 -1.58893e-05 2.12804e-26)
(0.99216 0.12777 -1.30603e-22)
(0.989042 -0.0143674 3.60539e-23)
(1.01258 -0.00452332 -7.76808e-23)
(0.984325 -0.00399233 1.53539e-22)
(1.00314 -0.0118662 7.97756e-25)
(0.997608 -0.00540546 3.37954e-23)
(0.999907 -0.00018775 2.5729e-25)
(1.00002 -1.05422e-06 -1.5714e-25)
(0.995965 -0.00417122 -3.78019e-23)
(1.05362 -0.013595 -1.25487e-22)
(1.00478 0.0464442 1.71563e-22)
(1.00109 -0.000439533 -1.70073e-23)
(0.974671 -0.0517309 -1.34789e-22)
(0.977735 -0.0197271 -5.156e-23)
(0.993032 -0.000462054 -1.78094e-22)
(1.28947 0.0455747 4.11644e-22)
(0.998842 -0.000888502 -8.22735e-24)
(1.00316 -0.0134141 -1.46897e-23)
(0.995142 -0.00255306 3.52043e-23)
(0.999915 -0.000181008 2.16027e-25)
(0.970258 -0.0602803 1.71348e-22)
(1.00213 0.0387808 -1.73135e-21)
(1.03204 0.0432523 -1.35722e-21)
(0.980016 -0.0132606 -2.48596e-23)
(1.00157 0.0367281 -7.42902e-23)
(1.00007 -0.000200671 1.47758e-24)
(1.00001 -1.41066e-06 4.79426e-26)
(1.27641 0.0882349 8.60194e-23)
(1.20166 -0.0237413 3.11761e-22)
(0.907206 0.10445 -1.70444e-22)
(0.994213 -0.0742334 4.75998e-22)
(0.979757 -0.00135365 -1.15935e-22)
(1.15803 -0.0431137 2.40582e-22)
(1.00104 -0.000457901 1.92612e-23)
(0.994961 -0.00343757 2.0185e-23)
(1.00041 -0.000153243 -1.13336e-24)
(0.990541 -0.00064525 -3.90202e-23)
(0.989455 -0.011759 -5.27516e-23)
(0.999996 -3.10258e-05 -1.18936e-25)
(0.999209 -3.0375e-05 3.24686e-24)
(1.00331 0.137347 -6.21305e-21)
(0.999884 -0.000646406 2.4698e-24)
(0.932876 0.0949259 4.19429e-21)
(1 -1.511e-05 -1.62987e-26)
(1.28601 -0.0537798 -1.2766e-21)
(1.07517 -0.0142827 -3.8994e-22)
(1.12628 -0.0288626 -1.30862e-23)
(1.00093 -0.000433881 1.1523e-24)
(1.00017 -3.84511e-05 2.01514e-24)
(0.984772 0.0838959 -3.65174e-21)
(1.07844 -0.00997496 7.92373e-22)
(0.979483 -0.070352 -5.72787e-22)
(1.02211 0.0422247 6.22898e-22)
(0.997643 -0.0191456 2.24339e-23)
(0.988131 -0.00483359 -3.96517e-23)
(0.996391 -0.000198385 -2.13155e-23)
(1.15027 0.195175 -2.58533e-21)
(0.978505 -0.0236209 1.8662e-22)
(1.02891 -0.0331332 -5.09576e-23)
(0.994291 -0.0100417 -1.42034e-23)
(1 -9.58063e-06 -4.44791e-28)
(0.998853 -0.000839037 -6.99299e-24)
(1.00535 -0.00553747 3.24775e-23)
(0.98373 -0.00711385 1.9733e-22)
(0.980523 -0.013379 3.70641e-23)
(0.961629 -0.03463 -5.8678e-23)
(0.983557 -0.00754125 -1.49334e-22)
(1.01763 0.00274466 1.08214e-22)
(0.998105 -0.00012879 4.35609e-25)
(0.947453 -0.0318025 1.96586e-22)
(0.987541 -0.000823187 -5.50214e-23)
(1.00003 -0.000193788 1.89916e-25)
(0.989118 -0.000661257 -3.82205e-23)
(1.02926 -0.035843 -6.59976e-23)
(1.01691 0.00294011 -5.98426e-22)
(0.976765 -0.0236895 -4.6597e-23)
(0.999985 -6.99471e-07 -7.56213e-28)
(0.984417 -0.0145322 3.90625e-23)
(1.00176 -0.0136713 4.96649e-24)
(1.00124 -0.00107086 4.65201e-24)
(1.09433 -0.16587 -7.74715e-22)
(1.00178 0.0360272 -4.04655e-21)
(1.00081 -0.00106183 1.30019e-23)
(0.989303 -0.000499052 5.25857e-25)
(1.0873 -0.0966111 1.68113e-23)
(1.02549 0.000233788 9.00004e-22)
(0.990487 0.0308382 -4.03002e-22)
(1.00165 -0.00226571 4.13644e-24)
(0.999966 -0.0197263 1.6898e-23)
(1.11437 0.139307 -4.37979e-22)
(1.0153 0.0265081 -3.15186e-21)
(0.991226 -0.0249464 1.37409e-22)
(1.00428 -0.00321614 -5.85659e-24)
(0.957381 -0.0407638 2.78989e-22)
(0.999998 -4.99559e-06 2.21673e-26)
(0.957803 -0.00173896 -1.97151e-22)
(1.00008 -6.3587e-05 2.79281e-25)
(1.08427 -0.096685 -9.06121e-22)
(0.99997 -3.1937e-06 -5.57476e-26)
(1.00002 -5.6816e-05 1.53188e-25)
(0.999543 -0.0220404 -2.04861e-23)
(1.26456 -0.010249 5.23028e-22)
(1.03694 0.175964 2.8188e-21)
(1.03232 -0.0371723 -9.28947e-23)
(1.01253 -0.014362 5.88983e-23)
(0.999999 -3.96138e-06 -5.96068e-27)
(0.994559 -0.00408185 -6.8465e-23)
(1.00008 -1.94721e-05 -2.09468e-25)
(0.997198 -0.00219182 2.34584e-23)
(1.00002 -5.29318e-05 -1.18928e-25)
(1.04634 -0.0120781 -7.27299e-22)
(0.999579 -0.00043268 -8.84836e-24)
(1.06036 0.0575301 1.32763e-21)
(0.999887 -0.000200057 -1.67277e-24)
(0.98856 -0.00472616 -6.66935e-23)
(0.964264 -0.000943713 4.40131e-22)
(0.996205 -0.000272472 -2.73838e-23)
(0.984031 0.0458079 3.87844e-21)
(0.984735 -0.000641584 1.07086e-22)
(1.01346 -0.0971757 4.20943e-23)
(0.99509 -0.0036064 1.04616e-22)
(1.02362 -0.00257597 -1.83778e-22)
(0.972454 -0.0523106 6.22504e-22)
(1.01792 -0.00131857 -6.07955e-22)
(1.03191 -0.0695849 -1.81672e-23)
(0.999987 -1.69522e-06 7.08864e-27)
(0.999012 -0.0186073 1.86041e-23)
(0.996449 -0.000261836 3.34387e-24)
(1.00022 -8.44625e-05 1.52674e-24)
(1.00008 -1.63903e-05 3.4885e-25)
(1.15647 0.198347 2.82005e-21)
(0.995645 -0.00194859 5.84962e-23)
(1.02534 0.00100308 1.03107e-21)
(1.00052 -0.0202255 2.08506e-23)
(1.00077 -0.000278757 4.45613e-24)
(1.02183 -0.00805756 -6.6353e-22)
(1.00015 -3.63603e-05 -4.4385e-24)
(0.999978 -3.19393e-06 -7.49918e-27)
(0.958297 -0.0023176 1.51511e-22)
(0.996885 -0.00111246 2.64404e-23)
(1.00003 -5.15551e-05 1.81288e-25)
(1.07245 0.111552 9.88006e-22)
(0.869772 0.083092 -6.37951e-21)
(0.999811 -0.000211711 4.18329e-24)
(0.965808 -0.00190852 -1.19024e-22)
(1.00002 -1.41345e-06 3.44234e-26)
(0.94381 0.126514 -4.03334e-21)
(1.29451 -0.0559781 -1.69175e-21)
(0.973309 -0.0420972 -4.96482e-22)
(1.00004 -0.00051108 -3.70067e-25)
(1.02793 -0.0319063 1.30489e-22)
(1.02896 -0.00287152 -2.54396e-22)
(1.03004 -9.03417e-05 7.62121e-23)
(1.04721 -0.0147451 -8.94902e-23)
(0.999673 -0.00174469 -1.06462e-24)
(0.999883 -0.000774366 2.15659e-24)
(0.987438 -0.0142506 -1.14907e-22)
(1 -8.49158e-06 -1.60909e-27)
(1.00001 -1.24987e-06 -8.79921e-27)
(0.977789 -0.0231761 -1.09924e-22)
(0.994922 -0.0568489 -2.4862e-22)
(0.96271 -0.0340388 -1.50403e-23)
(0.891753 0.117899 -1.38637e-22)
(1.00018 -2.34328e-05 -1.86157e-24)
(1.01014 -0.072985 -5.47553e-22)
(1.00663 -0.00493833 -5.74861e-23)
(0.99998 -3.39737e-06 8.60214e-26)
(0.999082 -0.00361868 -1.81219e-23)
(1.00003 -0.000433087 -2.22673e-25)
(0.995908 -0.0117464 4.05265e-23)
(1.00004 -9.55047e-06 2.07548e-25)
(1.03367 -0.0686016 -4.31323e-23)
(1.01756 -0.00160824 5.90251e-22)
(0.973974 0.140632 9.38579e-22)
(1.02313 -0.00242778 6.89666e-22)
(0.999752 -0.00020742 3.29173e-24)
(1.00041 -0.000358439 -4.36359e-24)
(1.15632 -0.14365 -1.2571e-21)
(1.02529 0.000757113 -8.28569e-22)
(0.997246 -0.000359333 2.40255e-23)
(1.00002 -1.45856e-06 7.40046e-26)
(1.09007 0.0954402 -1.57324e-21)
(1.05229 -0.175649 -3.0806e-22)
(0.99452 -0.0727155 -2.07743e-22)
(0.987202 -0.000700384 -2.89439e-23)
(0.999981 -2.0562e-05 1.70509e-25)
(0.999754 -0.000195641 -1.92931e-24)
(1.05569 -0.180342 8.58402e-22)
(0.996274 -0.0456902 -6.75016e-23)
(1.03869 0.0302129 1.92434e-22)
(0.981157 0.121619 3.58674e-21)
(1.01282 -0.0946364 3.07011e-22)
(0.998871 -7.75532e-05 -4.32101e-24)
(0.999982 -9.65413e-06 -1.97046e-25)
(0.966344 -0.0444401 4.84099e-22)
(0.973145 -0.0890416 -6.54796e-22)
(0.999819 -0.000219233 2.23312e-24)
(1.00844 -0.0217901 3.33881e-23)
(0.991531 -0.0242943 -2.43284e-23)
(0.995869 -0.00209023 2.30586e-23)
(0.998351 0.030258 -3.03031e-21)
(0.998853 -0.000501076 1.54929e-23)
(1.04658 -0.0534055 -3.60782e-23)
(1.24531 0.152667 -5.58198e-22)
(0.99312 -0.00300211 -6.69806e-23)
(0.904962 0.0984489 -6.21522e-22)
(0.914459 0.0465023 1.9058e-21)
(0.999973 -4.78946e-05 -6.507e-25)
(0.999977 -0.000680671 -1.8764e-25)
(0.984917 -0.000852787 -6.81623e-23)
(1.01193 -0.00443075 -1.40673e-22)
(0.967206 -0.00176348 2.50974e-22)
(1.00466 -0.00399285 -6.00701e-23)
(0.993366 -0.00301283 6.24246e-23)
(0.999493 -0.000460479 -6.75157e-24)
(0.953768 0.127211 -7.19172e-22)
(1.06082 0.0547486 -2.05743e-21)
(1.00204 -0.00219768 1.06248e-23)
(0.82529 0.0522185 -1.29683e-21)
(1.00001 -1.2157e-06 -4.92774e-26)
(1.02389 0.00624026 -1.46637e-21)
(0.986905 -0.088395 4.5757e-22)
(1.0123 -0.0732957 2.13998e-22)
(1.00009 -0.000194949 -7.54974e-26)
(0.965675 -0.000963753 2.0415e-22)
(1.0215 0.00567129 8.27478e-22)
(1.01161 -0.00473783 1.16427e-22)
(1.02848 -0.00179507 3.54825e-22)
(0.9996 -3.49268e-05 1.26593e-23)
(0.999574 -0.000460856 8.01276e-24)
(1.02076 -0.0446889 5.23003e-23)
(0.996937 -0.00119875 -7.55485e-23)
(0.988711 -0.0106797 -1.24624e-22)
(0.999194 -0.00328009 1.07319e-24)
(1.08728 0.0365936 9.47996e-22)
(0.99875 -0.0193778 -1.26561e-23)
(0.99558 -0.00442963 1.28444e-24)
(0.940359 -0.0233351 -5.59584e-22)
(0.996416 0.100563 3.99139e-22)
(1.10968 -0.0497539 9.64254e-23)
(1.02133 -0.00771746 5.31692e-22)
(0.999645 -0.00016872 2.40565e-24)
(0.999546 -0.000301428 1.08744e-24)
(0.984157 -0.0189884 2.9947e-22)
(1.00089 -0.00115697 -1.04327e-23)
(0.997692 -0.000634457 -4.29429e-24)
(0.999982 -1.97289e-05 -6.47166e-26)
(0.999707 -0.00177771 2.08951e-25)
(1.0209 0.00522405 -3.22147e-22)
(0.983803 0.0875526 -3.51816e-21)
(0.999886 -1.44221e-05 5.2027e-25)
(1.18573 0.175764 -2.01685e-21)
(0.999996 -3.87046e-05 5.12037e-26)
(0.997108 -0.00259597 3.20109e-23)
(0.999992 -8.8669e-05 7.23578e-26)
(1.00469 -0.00345739 -2.66461e-23)
(1.22768 -0.0792009 8.83023e-22)
(0.999965 -4.02459e-05 5.51515e-26)
(0.999964 -4.31186e-05 3.88834e-25)
(0.952812 -0.0382372 -2.72801e-22)
(1 -8.41266e-06 -1.60938e-27)
(1.05044 -0.0149284 7.45551e-22)
(0.98788 -0.0379447 2.47923e-22)
(0.999979 -0.000598319 2.08366e-25)
(1.08725 0.0714736 -1.20847e-21)
(1 -2.7696e-05 -3.19849e-26)
(0.999645 -3.61716e-05 1.10665e-23)
(0.999921 -3.31597e-05 1.8292e-26)
(0.995738 -0.00443937 -1.94559e-23)
(0.9997 -0.00141722 -3.39031e-24)
(0.994517 -0.000289297 -2.17001e-23)
(0.993098 -0.107021 -5.25293e-23)
(0.999734 -0.00138015 2.26313e-24)
(1.00375 -0.00321597 -2.07033e-23)
(0.999978 -2.32767e-06 -3.22508e-26)
(1.03946 0.17246 -5.32645e-21)
(1.04484 -0.0542348 -9.66727e-23)
(1.11318 -0.0511413 5.05453e-23)
(0.969444 -0.00528832 2.72395e-22)
(0.980141 -0.00381915 -4.98605e-23)
(0.999163 -0.00353955 2.99093e-23)
(1.0026 -0.00245112 2.88803e-23)
(1.04966 0.0710542 5.73698e-22)
(0.984061 -0.0335923 3.63431e-23)
(1.13748 0.116251 5.45727e-22)
(0.962087 -0.0118841 -4.96838e-22)
(0.997006 -0.00250602 -3.02126e-23)
(0.999992 -4.10097e-06 -7.09662e-26)
(0.994977 -0.00256128 -4.24102e-23)
(1.01248 0.163427 1.40464e-21)
(1.07829 0.0827562 -2.84277e-22)
(0.983206 -0.0503381 2.07097e-22)
(0.949201 -0.00505497 1.1554e-22)
(1.04521 0.163492 1.41499e-21)
(0.992501 -0.000526676 5.59799e-23)
(0.983662 -0.0805999 3.61054e-23)
(0.999993 -8.4827e-05 1.35337e-25)
(0.986881 -0.0380674 3.09534e-22)
(0.999261 -0.000208276 -1.6057e-23)
(0.837855 0.0889322 -3.75604e-21)
(0.979499 -0.0657235 -4.7344e-22)
(0.999923 -2.97485e-05 9.61309e-25)
(0.946006 -0.016314 -3.0012e-23)
(0.983842 -0.0356217 1.73823e-23)
(1.03528 0.0789369 2.11818e-21)
(0.997724 -0.000692515 -4.04632e-23)
(0.982238 -0.034277 -1.09217e-22)
(0.997779 -0.0098056 -3.61131e-23)
(0.999637 -0.0213037 -4.24145e-23)
(0.998883 -0.000509966 -1.05388e-23)
(1.03387 0.0772476 -2.56579e-21)
(1.01182 -0.151363 5.24452e-22)
(0.984353 -0.0151264 -8.69435e-23)
(0.987939 -0.0132598 1.84863e-24)
(0.988655 -0.00446478 -2.71477e-23)
(1.00469 -0.00188071 -2.44862e-23)
(1.04721 0.158936 5.48171e-21)
(0.984363 -0.0122706 3.92329e-23)
(1.01465 0.0401437 1.36095e-21)
(1.0024 -0.00196643 2.19767e-23)
(1.20309 -0.112262 -1.87686e-23)
(0.92972 0.101652 6.34736e-22)
(0.992354 -0.000410459 -1.94372e-22)
(0.999798 -3.80846e-05 2.16631e-24)
(1.053 0.0966263 6.27129e-22)
(1.00011 0.131529 -5.20221e-21)
(1.02021 -0.0430597 -6.53237e-23)
(1.07595 -0.0499433 -1.01102e-23)
(0.995702 -0.0121763 -4.55296e-23)
(0.969906 -0.00478418 -1.61728e-22)
(1.11086 0.135875 1.73738e-21)
(0.96518 -0.0445525 8.0173e-23)
(0.999979 -1.97466e-05 2.20833e-25)
(0.993491 -0.000102066 -9.92929e-23)
(1.00003 -5.16487e-06 2.10121e-25)
(0.996075 -0.000244706 7.46452e-23)
(0.999978 -2.07544e-05 -3.46363e-25)
(0.99806 -0.0136827 6.23468e-23)
(0.999156 -3.36858e-05 5.72697e-24)
(0.997575 -0.00512479 3.92656e-24)
(1.1724 -0.130297 -2.22498e-22)