/*--------------------------------*- C++ -*----------------------------------*\
  =========                 |
  \\      /  F ield         | OpenFOAM: The Open Source CFD Toolbox
   \\    /   O peration     | Website:  https://openfoam.org
    \\  /    A nd           | Version:  7
     \\/     M anipulation  |
\*---------------------------------------------------------------------------*/
FoamFile
{
    version     2.0;
    format      ascii;
    class       volVectorField;
    location    "24";
    object      U;
}
// * * * * * * * * * * * * * * * * * * * * * * * * * * * * * * * * * * * * * //

dimensions      [0 1 -1 0 0 0 0];

internalField   nonuniform List<vector> 
7639
(
(1.13366 0.165476 1.05781e-21)
(1.04136 -0.0461802 4.50189e-23)
(1.00007 0.138395 -2.86318e-21)
(1.05178 0.0762908 3.46514e-21)
(0.999306 -0.000848207 -5.75774e-24)
(0.999967 -8.06243e-06 -6.50989e-25)
(0.992229 0.112808 -5.54971e-21)
(0.995573 -0.00158192 -1.16802e-24)
(0.999899 -0.000157268 -1.0818e-24)
(1.02384 0.000659288 -1.54426e-22)
(0.999969 -9.59651e-06 7.17897e-25)
(1.00189 -0.00108731 -2.31382e-23)
(0.993255 -0.00198769 5.83416e-23)
(1.01852 -0.00191447 -9.49897e-22)
(1.02325 0.00112245 6.54173e-22)
(0.992437 -0.0125669 -1.18467e-22)
(1.14017 0.175782 -2.24786e-21)
(0.990961 -0.00252708 -2.04097e-23)
(1.00184 -0.00826278 -6.60333e-24)
(0.975739 -0.0732675 -1.00558e-22)
(1.03345 -0.00728618 -3.17516e-22)
(1.00126 -0.000640342 4.344e-23)
(1.01641 -0.00324649 8.107e-23)
(1.01285 0.0333433 -1.8018e-21)
(0.98802 -0.00313605 -9.25839e-23)
(1.12502 0.164397 -1.08779e-21)
(0.999338 -0.000805207 -4.07447e-24)
(1.02219 -0.00220656 3.79895e-22)
(1.00567 0.0158508 -2.26208e-22)
(1.00302 -0.00885011 5.23344e-24)
(0.988557 -0.0130738 -2.12444e-22)
(0.841733 0.0479712 9.10085e-22)
(1.0162 -0.00397868 4.99421e-22)
(0.999602 -0.000339319 7.19144e-24)
(0.999913 -5.43943e-06 1.3547e-26)
(1.02329 -0.000195607 2.26863e-22)
(1.00348 -0.00972669 6.57462e-24)
(0.998248 0.109058 -8.71817e-22)
(0.996818 -0.00675738 9.7043e-23)
(0.999721 -4.98127e-05 6.90627e-24)
(0.997149 -0.00696309 -1.09661e-23)
(0.992575 -0.0117798 -4.32695e-23)
(0.992224 -0.0841928 4.61187e-22)
(1.11461 -0.0966502 1.41504e-22)
(0.999833 -1.01465e-05 2.23847e-24)
(0.999934 -1.35154e-05 -6.48955e-25)
(1.00118 -0.000521936 -2.65276e-23)
(0.996659 -0.00617079 -5.74821e-23)
(0.999944 -2.54445e-05 -5.24687e-25)
(0.978431 -0.0743817 1.45764e-22)
(1.00277 -0.000958656 2.50906e-23)
(1.02174 -0.00127637 -3.93768e-22)
(0.984462 -0.00371604 -3.1169e-22)
(1.0077 -0.0272828 8.39149e-24)
(1.02366 -0.000881769 -1.31244e-22)
(0.996106 -0.00218586 -1.0722e-23)
(1.00178 -0.00769751 1.47868e-23)
(0.995544 -0.00136915 8.00768e-23)
(0.980854 -0.0153298 -3.75878e-22)
(0.999587 -0.00030181 -9.21993e-24)
(1.00004 -1.99537e-05 -9.35486e-25)
(1.00364 -0.00103297 2.80415e-23)
(1.01869 -0.00123236 -2.24574e-22)
(1.00204 -0.00094588 2.34315e-23)
(0.999202 -0.000164769 1.30491e-23)
(0.989002 -0.013591 3.6448e-23)
(0.99992 -0.000157334 8.36018e-25)
(1.00001 -2.12125e-06 6.13803e-26)
(1.20927 0.0134747 1.32507e-22)
(0.996815 -0.00585384 -1.74617e-23)
(0.999938 -1.66434e-05 5.75289e-25)
(0.972839 -0.0440877 -7.25601e-22)
(0.988521 -0.00348511 4.5011e-23)
(0.978698 -0.00453789 6.10969e-23)
(0.991353 -0.00279404 6.3675e-23)
(0.970818 -0.0213942 -8.18128e-23)
(1.00548 0.140112 4.581e-21)
(1.03157 -0.00687987 4.05336e-22)
(1.08492 -0.0196473 -5.22995e-22)
(0.961859 -0.0352276 -8.95169e-22)
(0.99357 -0.00220109 -8.94174e-23)
(1.00057 0.0673848 5.31616e-21)
(1.04098 0.00224726 9.60703e-22)
(0.978243 -0.00802441 2.8181e-22)
(0.998855 -0.00213612 -9.3626e-24)
(0.998129 -0.000270993 9.66099e-24)
(0.995276 -0.00208346 1.09746e-22)
(0.985048 -0.00416302 1.99725e-22)
(0.999465 -0.0010015 6.16807e-24)
(0.996284 -0.000565183 3.4302e-23)
(1.00604 0.0181417 1.68612e-21)
(1.14962 -0.110876 -2.73095e-22)
(0.999888 -4.62594e-05 -1.35517e-24)
(1.00147 -0.00652233 6.22428e-24)
(0.997055 -0.000869504 3.10769e-23)
(0.97846 -0.00252302 -4.92383e-22)
(0.974676 -0.0439943 4.73398e-23)
(1.00933 -0.0265281 1.99857e-23)
(0.998738 -0.00206034 3.10253e-24)
(0.999049 -0.000162981 4.35124e-24)
(0.959845 -0.0126361 2.11129e-22)
(1.08796 -0.0150116 4.5175e-22)
(0.99722 -0.000989381 -7.7472e-23)
(0.999978 -1.04283e-06 -5.52587e-26)
(1.16232 -0.105193 -2.30628e-22)
(1.0355 0.0308689 -1.58113e-21)
(0.920557 0.0347698 9.80434e-22)
(0.995848 -0.00206314 -4.4599e-23)
(0.999993 -2.01287e-06 1.15743e-26)
(1.02212 -0.0142621 -1.62583e-22)
(1.05501 0.0711608 -4.02094e-21)
(1.00972 -0.0686119 -5.69789e-22)
(0.999991 -2.40381e-06 -1.88797e-26)
(1.02369 -0.0150307 -3.51794e-23)
(1.03142 0.0296487 1.66333e-21)
(1.00036 -0.000487039 -2.03184e-24)
(1.03815 -0.0926308 -4.01342e-23)
(1.03304 0.0159776 -3.76434e-22)
(0.983265 -0.0362836 3.12297e-22)
(0.978435 -0.00551457 -6.38501e-23)
(0.957448 -0.00823017 -5.09391e-22)
(1.0014 0.0360051 -3.45582e-21)
(0.996571 -0.0845384 -6.29694e-22)
(1.00831 -0.00719488 1.39736e-23)
(0.958784 -0.00944121 1.99863e-22)
(0.999221 -0.00116209 1.37461e-23)
(0.989655 -0.00995791 7.06294e-23)
(1.00232 -0.007354 -1.00823e-23)
(0.999158 -0.000121544 -2.9161e-23)
(0.988662 -0.0120563 3.78749e-24)
(1.15475 -0.152461 -1.75771e-22)
(1.0781 -0.0192354 9.2014e-23)
(0.999506 -0.00046087 7.81635e-25)
(0.999376 -0.00102505 -1.20024e-23)
(0.977271 -0.00731703 8.37872e-23)
(1.0504 0.0631273 1.45661e-21)
(0.995335 0.0308614 6.35374e-21)
(0.99998 -2.13436e-06 -6.50258e-26)
(1.00631 -0.00279224 1.18489e-23)
(0.943222 -0.00996761 -6.40669e-22)
(0.980024 -0.00329412 -2.53349e-22)
(0.984932 -0.0501648 -4.66683e-22)
(0.971083 -0.0230423 1.11089e-22)
(0.979866 -0.0041039 -5.4468e-24)
(0.912034 0.0273673 3.88098e-21)
(1.00633 -0.0409218 -1.7427e-23)
(1.01214 0.0193062 -8.54439e-22)
(0.982508 -0.0184121 -1.96042e-22)
(0.970672 -0.00425632 7.02974e-23)
(1.00141 0.0530928 -1.71247e-21)
(1.02353 0.000307989 5.65309e-22)
(1.13727 -0.101622 -1.34386e-23)
(0.998781 -0.00170171 -3.2439e-23)
(1.20821 -0.0020112 -5.98326e-23)
(1.0388 0.00225691 -1.00355e-21)
(1.01425 0.112289 -4.32218e-21)
(0.966523 -0.0247529 3.44382e-22)
(0.993256 -0.0015316 1.98618e-23)
(0.932188 0.0932587 8.55609e-21)
(0.999948 -2.15862e-05 -4.94084e-25)
(1.00105 -0.00686977 -3.17884e-24)
(1.01306 0.0367473 1.30875e-21)
(0.999982 -1.66747e-05 3.14485e-25)
(0.998517 -0.00434006 -4.58904e-23)
(0.996673 -0.000839631 -1.48919e-23)
(1.00421 0.0425373 -4.32897e-22)
(1.00239 0.0313368 1.62718e-21)
(0.921861 0.102456 2.88232e-21)
(0.998283 -0.00419714 -2.85041e-23)
(0.997427 -0.000318975 -1.69663e-23)
(1.00001 -2.5687e-06 -5.67401e-26)
(0.955087 -0.00498135 -8.76038e-22)
(1.00034 -0.000435261 2.80389e-24)
(1.04401 -0.0432406 -5.49811e-23)
(1.00657 -0.00304194 7.9062e-23)
(0.971333 -0.0050499 1.4439e-22)
(1.16371 -0.0882217 -2.91456e-22)
(1.14961 0.0535959 1.1114e-23)
(0.99989 -5.65347e-05 7.40443e-25)
(0.999585 -0.000532031 -8.25228e-24)
(1.05483 0.0811304 -6.13869e-22)
(0.999949 -1.54165e-05 -2.39418e-25)
(0.999907 -1.0611e-05 3.54745e-25)
(0.992859 0.120427 -4.65104e-21)
(1.04192 -0.0497353 -5.13988e-23)
(1.00211 -0.0563899 -3.06836e-22)
(0.984936 -0.0353981 -4.41284e-22)
(0.980524 -0.00593072 1.8377e-22)
(1.0037 -0.0415012 3.27542e-23)
(0.944515 -0.00843805 3.37178e-22)
(0.99998 -1.51977e-05 -1.11981e-25)
(0.975522 -0.0414146 -1.72335e-22)
(1.15855 0.062327 -6.92704e-22)
(0.997206 -0.00120517 1.11275e-23)
(1.00006 -5.75558e-06 -6.84271e-25)
(1.11166 0.0753958 9.7192e-23)
(0.998969 -0.000331634 3.08457e-23)
(0.989372 -0.0116295 1.12853e-22)
(1.00179 -0.0389969 1.06583e-22)
(1.00001 -1.86015e-06 -2.45148e-26)
(1.00074 -0.00168879 -1.14114e-23)
(1.04558 0.0632633 1.85109e-21)
(1.14355 0.0804738 -1.12485e-21)
(1.00732 0.0988405 -5.79854e-22)
(1.03781 -0.0869243 2.80865e-22)
(1.01345 -0.0667439 1.26501e-22)
(1.05509 -0.131255 -1.13462e-22)
(1.02276 -0.00231045 1.13236e-21)
(1.04117 0.0589716 -6.00277e-22)
(0.999822 -1.87478e-05 -2.6206e-24)
(1.00003 -1.75993e-05 2.46813e-25)
(0.940447 0.0147828 -3.75207e-21)
(0.993589 -0.0113363 -4.11039e-23)
(0.999486 -0.000410826 -7.75625e-24)
(0.977336 -0.0409924 3.58111e-22)
(0.989163 -0.0104819 -8.2666e-23)
(1.02653 0.102094 -4.75588e-21)
(1.02127 0.0991512 -9.95172e-22)
(0.9826 -0.0509827 1.27549e-22)
(0.872436 0.0676303 -3.40386e-21)
(0.999044 -0.000375885 -2.2684e-23)
(0.991001 -0.00218145 7.41943e-23)
(0.95842 -0.0114895 2.77666e-22)
(1.03265 -0.00240107 -2.33248e-22)
(0.989127 -0.102141 -5.62522e-23)
(1.17293 0.150166 -1.84176e-21)
(0.932615 0.0817596 -7.27651e-21)
(1.00005 -9.27641e-05 7.6935e-25)
(1.00833 -0.0066349 3.90958e-23)
(1.03125 0.0190396 2.0445e-21)
(0.996776 -0.00508081 -7.32494e-23)
(1.03594 0.0157139 -2.55655e-22)
(0.999557 -0.00108958 -2.00147e-24)
(0.892116 0.114886 6.06795e-21)
(1.01427 0.103295 9.64483e-22)
(0.995275 -0.00179838 6.97454e-23)
(1.00301 -0.00741284 -1.70573e-24)
(0.999739 -5.71895e-05 -1.28538e-23)
(1.21343 0.0758226 2.52913e-22)
(0.999919 -9.19537e-06 1.05672e-24)
(0.995479 -0.00928618 3.47485e-23)
(0.949834 -0.0222712 3.82985e-22)
(0.999938 -2.23772e-05 -2.38466e-25)
(0.998944 -0.00249574 -7.8907e-24)
(0.999653 -0.00105853 3.6321e-24)
(1.08773 0.03894 1.33402e-21)
(0.999983 -2.16217e-05 3.80669e-25)
(0.996128 -0.000434488 4.15826e-26)
(0.963664 -0.0351453 1.02935e-21)
(0.843562 0.0359638 -2.00615e-21)
(1.07522 -0.0234274 -1.30128e-22)
(0.908345 0.0776235 4.45446e-21)
(0.999961 -7.03926e-06 -6.00004e-25)
(0.999752 -0.0393252 -7.17797e-24)
(0.999843 -0.000270842 -2.9292e-24)
(1.0075 0.115683 -4.40662e-21)
(1.00337 -0.000698877 -3.62399e-23)
(0.993433 0.0420382 2.05606e-21)
(1.00225 -0.00887918 -2.75691e-23)
(1.00066 -0.00180498 1.21532e-23)
(1.02323 -0.0340539 -3.43984e-23)
(1.02285 -0.00133437 -1.04819e-21)
(1.00049 -0.000292857 5.83216e-24)
(0.999806 -4.72268e-05 6.83203e-26)
(1.00043 -0.00039502 1.31224e-23)
(0.996606 -0.00538629 -6.55329e-23)
(1.00691 -0.059942 3.62816e-22)
(0.999963 -9.49355e-06 4.05232e-25)
(0.967825 -0.0238269 2.39977e-22)
(0.996842 -0.00096558 -2.80648e-24)
(0.999878 -3.96717e-05 1.44156e-24)
(0.999471 -0.000510947 2.51963e-24)
(0.987601 0.070051 4.99208e-21)
(0.993227 -0.000715341 2.88347e-23)
(0.999351 -9.26647e-05 -2.63817e-24)
(0.881387 0.0162266 7.47383e-21)
(0.998815 -0.00239828 -1.78834e-23)
(1.09878 0.116583 -1.3197e-21)
(0.999825 -0.000250321 5.28336e-24)
(1.00594 -0.0204343 -5.03104e-25)
(1.00002 -1.40649e-06 -2.14438e-26)
(0.983642 -0.0295117 -1.75875e-22)
(1.0318 -0.00248434 3.63295e-22)
(1.17352 -0.0835595 5.96033e-22)
(0.980996 -0.0165029 3.18771e-22)
(0.999653 -0.000538012 9.53855e-24)
(0.976848 -0.0633035 2.26126e-22)
(0.986006 -0.000404974 1.31782e-22)
(0.999845 -1.71198e-05 1.43456e-25)
(1.00041 -0.000345083 -1.16086e-23)
(0.998232 -0.00310921 2.46577e-23)
(0.993539 -0.00128191 -8.61037e-23)
(1.00261 -0.000846218 -4.28537e-23)
(0.998957 -0.00171826 1.17156e-23)
(0.979323 -0.00752203 4.42881e-23)
(1.0109 -0.0590588 -2.61687e-22)
(0.97945 -0.00632254 1.95776e-22)
(1.1158 -0.0856183 -3.75634e-23)
(0.972986 -0.00687569 -2.52632e-22)
(1.03304 0.13481 4.95327e-22)
(1.02723 0.139044 -3.70423e-21)
(0.99872 -0.000683854 -1.97417e-23)
(1.18937 -0.106897 -1.35208e-21)
(0.999986 -2.90334e-06 -3.64509e-26)
(0.998187 -0.00385049 -3.01513e-23)
(0.977925 -0.00175862 5.08931e-22)
(1.00958 0.0298518 1.0805e-21)
(1.0434 0.00705059 -9.53221e-22)
(1.00008 -3.01397e-05 1.57497e-24)
(0.998298 -0.00363367 -2.00496e-24)
(0.973889 -0.00763113 1.89442e-22)
(1.06607 0.03732 -5.76787e-22)
(0.999157 -0.0010708 1.02576e-23)
(1.00294 -0.000703365 2.42138e-23)
(1.00107 -0.000889941 -2.1401e-24)
(1.14348 -0.0231456 1.41436e-22)
(1.14641 -0.157713 -9.89872e-22)
(1.06702 0.16495 2.25898e-21)
(0.998638 -0.000219495 -1.92856e-23)
(1.05023 -0.0512596 5.21688e-23)
(0.999902 -6.08253e-05 -1.18199e-24)
(1.00411 -0.00661497 -8.19061e-23)
(0.999953 -1.21694e-05 -1.70226e-25)
(0.986993 -0.0180752 5.55027e-23)
(0.999704 -6.71381e-05 -2.45803e-24)
(1.00991 -0.0205705 1.84116e-23)
(1.20598 -0.132632 1.45511e-21)
(0.976777 -0.0230576 3.84236e-22)
(1.00705 -0.0200135 -6.17098e-24)
(1.00749 -0.00590847 -5.07043e-23)
(0.999374 -0.000120524 1.18263e-23)
(1.02358 -0.0188094 1.13351e-22)
(0.996564 -0.0167033 5.56436e-23)
(1.08391 -0.00700662 -2.99019e-22)
(1.08036 0.0380839 6.25185e-22)
(1.07499 -0.163931 1.30722e-23)
(1.10685 -0.101236 -4.54095e-22)
(0.985412 -0.0008213 -1.41326e-22)
(1.00443 -0.00331918 7.7227e-23)
(0.951645 -0.0211996 -1.48288e-22)
(0.910821 0.101193 -9.04954e-21)
(1.09253 -0.0900431 5.09474e-22)
(1.02513 -0.0122349 -4.61904e-22)
(0.883521 0.0733844 -4.55837e-21)
(0.998684 -0.000165736 9.53615e-24)
(0.9985 -0.000843231 -6.09385e-24)
(1.12708 -0.105762 -4.88578e-22)
(0.999082 -0.0018608 -6.29293e-24)
(1.00713 -0.038386 2.95512e-23)
(1.00514 -0.00163223 2.70671e-23)
(0.997554 -0.00037412 -1.51312e-23)
(0.998207 -0.000314862 -2.3859e-23)
(1.03832 0.0244378 1.19701e-21)
(0.999942 -0.000134575 -9.35188e-26)
(1.00047 -0.000237349 -5.19037e-24)
(1.00007 -1.21379e-05 1.17188e-24)
(0.997 -0.000589023 8.11435e-23)
(0.994485 -0.00811141 9.10892e-23)
(0.999985 -2.19399e-06 2.79661e-26)
(0.999058 -0.000222915 2.45324e-24)
(0.981764 -0.0145796 1.11812e-22)
(0.938669 0.0214003 2.36906e-21)
(1.00856 -0.0211806 1.63981e-24)
(0.993664 -0.0106227 1.48002e-22)
(0.954917 0.0799038 1.00099e-21)
(1.00152 0.0339495 3.01414e-21)
(1.06819 -0.0135078 -2.55419e-22)
(1.1887 -0.0935311 4.58719e-22)
(0.95405 -0.00366793 4.81423e-22)
(1.00439 -0.00382587 -3.81546e-23)
(1.01245 0.0512676 -1.68924e-22)
(0.990235 -0.00192946 -1.74903e-22)
(1.06867 0.121412 4.56283e-23)
(1.0028 -0.0442302 4.55045e-24)
(1.00737 -0.0991722 -2.27962e-22)
(1.13414 0.0773165 7.17675e-22)
(1.07401 0.129426 -1.8695e-21)
(0.969158 -0.0206572 5.31985e-22)
(1.04403 0.00470442 -6.06906e-22)
(1.18522 0.156935 1.69906e-21)
(1.08957 0.119576 2.59213e-21)
(1.02364 -0.00285664 3.55794e-22)
(0.997381 -0.00130182 1.74877e-23)
(0.996358 -0.00200418 1.52609e-23)
(0.999923 -2.15333e-05 -5.59896e-25)
(1.01307 -0.0268892 1.14198e-23)
(0.989964 -0.00161755 4.13102e-23)
(1.00089 -0.00212512 -1.00316e-23)
(0.999907 -2.20006e-05 -1.04497e-24)
(0.998609 -0.000625636 7.72137e-24)
(0.975144 -0.0619993 -3.76139e-22)
(1.13406 0.00249802 2.047e-22)
(0.984934 -0.00512522 -2.24858e-22)
(0.999154 -0.0111374 6.11516e-23)
(0.996695 -0.000642015 -4.3011e-23)
(1.04694 -0.0523182 -9.39784e-24)
(0.993828 -0.00134803 -1.38118e-22)
(1.00206 -0.00665934 3.02753e-23)
(1.20671 0.13514 3.03224e-22)
(0.998398 -0.000299427 -5.54815e-23)
(0.999981 -4.13112e-05 -2.66438e-25)
(0.999954 -0.000161888 -1.48554e-25)
(1.00004 -9.49544e-05 1.00361e-24)
(0.981363 -0.00662255 1.03259e-22)
(1.03591 0.0222567 -1.40726e-21)
(0.996492 -0.000488983 1.68457e-24)
(1.02133 -0.0101233 3.00886e-22)
(0.992877 -0.107626 4.34498e-22)
(0.999346 0.101602 -1.00034e-22)
(1.00346 -0.00675177 2.69529e-23)
(1.00588 -0.00430431 -1.27388e-23)
(0.995567 -0.00224499 -5.53801e-23)
(0.993025 0.0692577 -4.86289e-21)
(0.999087 -0.000115862 7.91199e-24)
(1.0735 0.171154 -1.11489e-21)
(1.00974 0.0204162 -1.65771e-21)
(0.999898 -2.70204e-05 1.22304e-24)
(1.00097 -0.0446767 -1.87657e-22)
(0.997107 -0.000680935 -3.96139e-23)
(0.987407 -0.051335 5.71704e-22)
(1.00049 -0.000125581 5.19259e-24)
(1.06452 -0.00898057 3.67749e-22)
(1.00586 -0.014958 -8.89057e-25)
(1.0055 -0.00387707 6.41301e-24)
(0.999264 -0.000144433 -1.57157e-23)
(1.09246 0.0335759 6.22305e-22)
(1.05997 0.0367457 2.19089e-22)
(0.999735 -0.0581483 3.04394e-22)
(0.982318 -0.0170441 -2.1408e-23)
(0.998132 -0.00331813 -2.12717e-23)
(0.997719 -0.0355195 -3.38873e-22)
(1.19192 -0.00817383 -7.62524e-23)
(0.850683 0.0557678 -4.42343e-21)
(1.05389 -0.0898629 -2.9899e-22)
(1.00452 -0.00716564 -1.23105e-23)
(0.999994 -2.64286e-06 -8.75744e-27)
(0.988457 -0.00423745 -1.8014e-22)
(0.998036 -0.000342008 5.14937e-23)
(1.02234 -0.0186435 1.64712e-22)
(0.988709 -0.0868703 -1.86923e-22)
(1.17562 -0.114775 5.00563e-22)
(0.985289 0.0962696 -6.02856e-21)
(1.0697 0.0319556 9.22832e-22)
(1.06174 -0.125587 4.63908e-22)
(1.11495 0.0849401 3.27909e-22)
(0.999177 0.0369098 5.71932e-21)
(1.01816 -0.00263204 2.56447e-22)
(1.00106 -0.00205589 2.30338e-23)
(1.03629 0.0698038 9.4622e-22)
(0.999256 -0.00181521 1.40159e-23)
(0.999841 -0.000149882 1.15761e-24)
(0.984259 -0.0017098 6.40148e-23)
(1.00008 -2.93819e-05 2.95789e-25)
(1.05599 -0.140342 2.15957e-22)
(1.00296 -0.0162706 -1.39104e-23)
(0.985433 -0.029246 2.95728e-22)
(1.00165 -0.00141054 1.18309e-23)
(1.10185 0.0736576 1.87734e-21)
(0.998467 -0.000284048 -4.56851e-24)
(0.999979 -3.30339e-05 -2.54806e-26)
(1.00151 -0.100332 2.46616e-22)
(1.00146 -0.00121432 -6.92764e-24)
(1.10573 -0.0399846 -6.67152e-23)
(0.961801 -0.0119162 9.85346e-23)
(0.945708 -0.0137877 4.85964e-23)
(1.24883 -0.0795713 9.40318e-23)
(1.02833 0.0185304 -5.33148e-22)
(1.02239 0.00509911 3.28808e-22)
(1.02106 0.00492682 -1.29149e-22)
(0.999822 -3.8918e-05 4.09354e-25)
(1.14263 -0.00421623 1.27484e-22)
(1.08636 -0.00303119 3.49648e-22)
(0.999554 -0.000577769 3.68879e-24)
(0.985591 -0.00557999 2.6082e-22)
(1.00054 -0.000186074 -5.78146e-24)
(1.01005 -0.0189633 -1.11461e-22)
(1.00626 -0.0262201 -1.1012e-23)
(1.00396 -0.00124821 2.15387e-25)
(0.999342 -0.00114724 -1.66703e-23)
(1.20215 0.0643313 -7.66209e-22)
(0.999981 -1.98138e-05 -4.40094e-25)
(1.00018 -9.7721e-05 -1.5291e-24)
(1.00175 -0.000955676 -5.02509e-25)
(0.980663 -0.00285421 1.77431e-22)
(1.01744 -0.0114189 2.09458e-22)
(0.985144 -0.0246679 -4.17643e-22)
(0.976275 -0.00436681 -1.02634e-22)
(1.00474 -0.056476 1.71494e-22)
(1.0017 -0.11825 -4.67961e-22)
(1.02212 -0.0312033 3.05152e-23)
(1.04201 0.0698374 -5.35075e-21)
(1.20837 -0.115971 -9.80347e-22)
(0.994284 -0.0022753 -7.18772e-24)
(0.886426 0.107161 7.29832e-21)
(0.976383 -0.0458387 6.21547e-22)
(0.994208 -0.00860121 2.87319e-23)
(0.976871 -0.00362574 1.68922e-22)
(0.997605 -0.0162036 -1.5864e-23)
(0.981853 -0.00208994 2.6954e-22)
(0.991298 -0.00340546 -5.24665e-23)
(1.02518 -0.0140963 -3.14678e-22)
(1.09607 -0.0974139 -1.27885e-22)
(0.999977 -3.85897e-05 -3.6986e-26)
(1.0214 -0.0130527 -3.61764e-23)
(0.999915 -2.68592e-05 -5.94529e-25)
(1.02099 0.115563 1.16219e-21)
(1.22006 0.0187466 1.31186e-22)
(0.995832 -0.00171605 1.75004e-23)
(0.987755 -0.00151318 -2.42828e-22)
(0.999836 -4.79907e-05 -2.99654e-24)
(0.999388 0.0620557 3.57109e-21)
(1.05416 0.130332 2.56367e-21)
(1.13946 -0.0158368 -5.82251e-23)
(1.24035 0.103546 -4.79309e-22)
(0.975995 -0.0485156 -2.70801e-22)
(0.998118 0.0113857 -5.54846e-21)
(0.999946 -0.000118802 5.59997e-25)
(1.04189 -0.0326037 2.90928e-22)
(0.983948 -0.00130296 -9.93265e-24)
(1.13687 0.0553403 -3.18632e-22)
(0.920883 0.0739917 -5.37643e-21)
(1.1893 -0.0205618 -1.76548e-22)
(1.06051 0.0260166 1.51217e-22)
(0.999767 -0.0110553 -1.04026e-23)
(0.999825 -7.47478e-05 -2.74853e-24)
(1.22876 0.073774 1.77905e-22)
(1.15751 -0.136702 2.08312e-22)
(0.996472 0.0722673 -1.05027e-22)
(1.09794 -0.0369324 2.35964e-22)
(1.04248 0.0537351 1.56926e-21)
(0.993944 -0.00203061 -2.44894e-23)
(0.994069 0.0959809 1.62226e-21)
(1.0593 0.121856 8.77256e-22)
(0.992274 -0.00288552 -1.47027e-22)
(0.993538 -0.00270242 -5.4603e-23)
(1.23415 0.0445302 -2.21981e-23)
(0.943811 -0.012732 -6.76795e-22)
(0.999927 -0.000138144 -8.69519e-25)
(0.988999 -0.00458661 2.31677e-22)
(0.947755 -0.0180011 4.94387e-22)
(0.983133 -0.0623837 -7.84584e-23)
(1.00865 -0.0022894 -2.19777e-22)
(1.0075 -0.00538905 1.38521e-23)
(0.999892 -0.000171836 -1.62494e-24)
(1.05838 0.138606 -3.87837e-21)
(1.00013 -0.0100468 1.77994e-24)
(0.999911 -5.29147e-05 5.27348e-25)
(1.01194 -0.0546949 2.12635e-22)
(0.999573 -0.000379361 3.2685e-24)
(0.999806 -6.72758e-05 2.08397e-25)
(1.00444 -0.0109563 -1.40484e-23)
(1.08554 0.0786415 2.68433e-21)
(0.999403 -0.0895278 3.37169e-22)
(0.943537 0.0747923 3.12634e-21)
(1.00006 -9.00236e-06 -8.2295e-25)
(1.09464 0.08162 -2.77239e-21)
(1.00776 -0.0461901 1.54229e-22)
(0.999934 -0.000168515 -2.4618e-25)
(1.00002 -5.43685e-06 -2.5356e-25)
(1.00316 0.0120674 -2.71749e-22)
(1.07548 0.0663745 1.02081e-21)
(0.996613 -0.00211709 1.51942e-23)
(1.06467 0.049333 -1.34378e-21)
(1.00002 -1.76481e-05 1.85303e-25)
(1.06665 0.0563399 -1.83458e-21)
(1.06665 -0.156136 6.13725e-22)
(0.991864 -0.00258179 1.61761e-22)
(0.998935 0.0179287 -7.46113e-21)
(0.977876 -0.038694 4.15587e-22)
(1.24164 0.0874516 3.5404e-22)
(0.977905 -0.00363637 1.01777e-22)
(1.07379 0.0586651 2.3999e-21)
(1.08363 0.0690154 -7.43794e-22)
(0.986266 -0.00690135 3.77152e-22)
(0.98212 -0.0083177 -2.77565e-22)
(0.995627 -0.00863407 8.53393e-23)
(0.997593 -0.000636203 -1.29776e-23)
(0.999829 -0.000166899 3.16242e-24)
(0.999946 -0.00959762 -3.19037e-24)
(1.07298 0.111888 -4.4549e-22)
(0.999976 -3.02696e-05 1.12236e-25)
(1.05804 0.0477816 1.77306e-21)
(1.00906 -0.0931083 5.51137e-22)
(1.01088 0.0737718 1.38265e-21)
(1.05617 0.0420208 -2.03707e-21)
(0.945824 -0.0168091 -6.1545e-23)
(0.952366 0.0962326 -6.55355e-21)
(0.998662 -0.0010068 1.09771e-24)
(1.01313 -0.0247961 4.43331e-23)
(1.03131 -0.077651 1.55342e-22)
(0.98262 -0.0019726 -1.62564e-23)
(0.994612 -0.00286596 7.27621e-23)
(1.00532 -0.0468125 -1.35149e-22)
(1.05085 -0.0268676 -2.89866e-23)
(0.89691 0.0666212 8.55522e-21)
(1.00004 -1.69078e-05 8.93578e-25)
(0.998421 -0.00107225 1.4789e-23)
(1.00648 -0.0669614 6.72289e-24)
(1.00001 -4.37617e-06 3.01421e-26)
(1.02269 0.12414 5.76852e-22)
(1.00149 -0.00104804 0)
(1.00001 -5.72145e-06 2.29974e-26)
(1.00016 -7.62953e-05 3.58892e-24)
(1.00035 -0.000105511 7.22966e-26)
(0.987314 -0.0169341 2.81411e-22)
(1.02022 -0.0173082 -1.17528e-22)
(0.998724 -0.000784554 2.32541e-23)
(0.999927 -1.50482e-05 1.10945e-24)
(0.994261 -0.00268142 4.04188e-23)
(1.00382 -0.0113812 -9.6523e-24)
(0.979953 -0.0890924 -5.12713e-22)
(0.950381 -0.00574746 4.81567e-23)
(1.01688 -0.0101546 3.7169e-22)
(0.999977 -2.39873e-06 3.47298e-25)
(1.03337 -0.144772 6.67735e-22)
(0.989192 -0.00319873 -9.27451e-23)
(1.20518 0.046751 -8.85224e-25)
(1.00042 0.0143426 -9.90087e-22)
(1.00108 -0.00309221 5.33424e-24)
(1.17736 0.0431709 -8.21933e-22)
(1.00013 -8.29624e-05 1.59311e-28)
(0.989698 -0.00359573 2.67904e-24)
(1.02383 0.000373947 -6.52009e-22)
(0.994633 -0.00326132 -2.97912e-23)
(1.09316 0.0978591 -1.663e-22)
(0.989592 -0.00561137 -1.74958e-22)
(1.04404 -0.0306518 -2.64218e-22)
(1.0243 0.000942139 -7.0421e-22)
(1.07687 0.0322274 -3.74441e-22)
(1.00623 -0.0137794 -5.41174e-23)
(0.991734 -0.00367541 4.35258e-24)
(1.1188 0.0661876 1.0449e-21)
(0.977121 -0.06679 -4.38891e-22)
(1.00647 0.123408 4.86838e-21)
(0.992679 -0.0041732 -1.70274e-22)
(1.1074 0.1352 -5.83996e-23)
(0.992668 -0.00365917 4.55011e-23)
(0.999048 -0.000452596 -1.51651e-24)
(1.05874 0.022324 4.39151e-22)
(1.01131 -0.0278515 -1.46523e-24)
(1.03711 -0.000565027 9.42223e-22)
(1.00153 -0.00073605 7.6914e-24)
(1.00001 -4.39713e-06 1.05829e-26)
(0.984653 -0.1023 1.86162e-22)
(1.19811 0.124105 -1.30228e-21)
(1.00129 -0.0030026 -7.32593e-24)
(1.1916 0.0370343 5.17429e-23)
(0.990162 -0.0052441 -1.14557e-22)
(1.02655 -0.145035 -2.42637e-22)
(1.03671 -0.0449902 -1.46396e-23)
(0.98473 -0.0261697 2.35255e-22)
(0.998627 -0.000878107 -9.82667e-24)
(0.992898 -0.000923801 -3.46863e-23)
(0.974416 -0.0568656 -2.61722e-22)
(0.976121 -0.0078003 3.83452e-22)
(0.992228 -0.00340509 1.20329e-22)
(0.999879 -0.000387637 1.40075e-24)
(0.997226 0.131419 -6.37458e-22)
(1.16596 0.0344849 4.65884e-22)
(1.02244 -0.0112957 -1.164e-22)
(0.999835 -0.000129745 2.10976e-24)
(1.05457 0.114121 -1.71562e-21)
(1 -2.11821e-05 4.50759e-26)
(0.999848 -0.000115647 4.17513e-24)
(1.15316 0.0395 5.04877e-22)
(1.00811 -0.0229317 2.39369e-23)
(1.20463 0.0959755 9.20907e-22)
(1.02254 -0.00327664 2.67298e-22)
(1.01501 -0.0123365 -2.42716e-23)
(1.06682 -0.0838271 2.01917e-22)
(1.01582 -0.116508 5.44177e-22)
(1.23879 -0.0841881 4.07737e-22)
(1.00108 -0.000749164 -1.68594e-23)
(0.963205 -0.0130433 -3.80706e-23)
(0.999984 -5.06436e-05 -7.83582e-26)
(1.00421 -0.00996514 1.00645e-23)
(1.09741 0.0902607 9.95444e-22)
(0.98699 -0.00647926 2.63367e-22)
(0.997721 -0.00127478 2.04996e-23)
(1.00983 -0.0376907 -8.86401e-23)
(0.998394 -0.000946183 1.40631e-24)
(0.999676 -0.000951481 4.32023e-24)
(0.888542 0.0154022 1.52783e-21)
(0.99224 -0.00448356 -9.63573e-23)
(0.999554 -0.000631196 -1.27606e-23)
(0.999985 -5.5562e-07 -7.1819e-26)
(1.01806 0.00650954 1.43867e-21)
(0.977468 -0.0216159 -5.7959e-23)
(0.999733 -0.000477221 3.80657e-24)
(0.99773 -0.000740223 2.6467e-23)
(1.02629 0.0212159 5.91387e-22)
(1.07298 -0.0025666 9.20917e-23)
(0.9691 -0.0188579 -3.30568e-22)
(1 -1.34054e-05 1.45462e-26)
(1.00153 0.0128584 3.96069e-21)
(0.988475 -0.0147949 -1.91769e-22)
(1.09866 0.0646892 -1.88076e-21)
(1.01136 -0.00116789 -3.3477e-22)
(1.01324 -0.00122391 7.64984e-22)
(0.974748 -0.00967112 5.22548e-22)
(0.999921 -5.62775e-05 -3.45104e-25)
(1.02352 0.000141152 -1.31814e-22)
(1.07686 -0.00743428 -1.07223e-22)
(1.22574 -0.0495186 -4.81042e-22)
(1.01482 -0.091366 1.26743e-22)
(1.06692 0.104742 1.30008e-21)
(1.00493 -0.00148975 -5.33752e-24)
(1.1302 0.0675497 -1.42907e-21)
(0.999758 -0.0129097 -1.77822e-23)
(1.00923 -0.0519182 -3.65346e-22)
(0.999678 -0.000143438 -4.12538e-24)
(1.00231 -0.0172728 2.70919e-23)
(0.999916 -0.000372038 5.27373e-25)
(1.05684 0.0308067 -1.32658e-21)
(1.14242 0.142492 -3.29899e-21)
(0.998789 -0.00103745 7.82106e-24)
(1.01632 -0.0126674 4.18215e-24)
(0.985856 -0.003889 9.04064e-23)
(1.02127 -0.083258 5.81036e-23)
(1.0158 -0.085558 -2.76014e-22)
(0.998475 -0.000747722 1.5578e-23)
(1.03858 -0.0321815 -9.58979e-23)
(0.898375 0.00449289 -2.5587e-21)
(1.20108 -0.0607591 -4.18364e-22)
(0.999956 -0.000144013 1.20619e-24)
(1.06691 -0.00368 -3.22912e-22)
(0.997544 -0.00792163 -4.17513e-23)
(0.99386 0.00302712 5.27951e-21)
(0.990168 -0.00458826 1.59255e-22)
(0.99568 -0.0232558 -5.24757e-23)
(1.01269 -0.0341179 -5.08073e-24)
(0.994434 -0.0239182 -7.39697e-24)
(0.998226 -0.0187654 -1.18353e-22)
(0.993883 -0.00290254 2.7829e-23)
(0.999014 -0.0127561 6.35135e-23)
(1.00164 -0.00561794 -8.22225e-24)
(1.0509 -0.0308039 7.05784e-23)
(1.00009 -2.23397e-05 -2.29333e-24)
(1.10716 -0.163239 -3.54108e-22)
(1.14981 -0.0798046 -1.81934e-22)
(1.03982 0.136638 3.26061e-21)
(0.970604 -0.017921 5.01249e-22)
(1.186 0.0956336 -4.94152e-22)
(1.00164 -0.000573752 2.73179e-23)
(1.04377 -0.082246 -2.21743e-24)
(1.0016 -0.0343145 -1.28043e-22)
(1.02495 0.0398341 1.75403e-21)
(0.994297 -0.00351873 6.91202e-23)
(1.00009 -0.000159406 1.5154e-24)
(0.989009 -0.0154305 2.50411e-22)
(0.996347 -0.0084247 -3.23722e-23)
(1.03658 -0.0291765 2.33187e-22)
(0.977375 -0.00599807 -3.23292e-22)
(0.981232 -0.00773966 9.16558e-23)
(1.10608 -0.0786066 -7.11982e-23)
(0.988041 -0.00254616 -1.58414e-22)
(1.01027 -0.035106 5.88346e-23)
(0.983697 -0.0659674 3.19007e-22)
(1.00001 -7.01191e-06 1.91407e-26)
(1.05497 -0.02415 4.21679e-22)
(0.986167 -0.0600017 -8.54719e-22)
(1.18412 0.0683373 3.88255e-22)
(1.0636 -0.0893135 -3.74338e-22)
(1.03544 -0.00068774 7.83477e-23)
(1.00497 -0.0887434 -7.02573e-22)
(1.07402 0.148265 8.15446e-22)
(1.02756 -0.0373615 4.98715e-23)
(0.973705 -0.00890852 -3.10187e-22)
(1.00852 -0.0432768 -1.80877e-22)
(0.952861 0.00650459 2.38191e-21)
(1.08539 -0.14201 1.82407e-22)
(0.989632 -0.00425701 -4.84439e-23)
(0.999397 -0.106502 -5.31039e-23)
(1.01382 -0.0619218 2.55781e-22)
(1.01202 -0.104061 -8.48538e-23)
(1.02155 -0.0775588 -2.99432e-22)
(1.11422 0.0573437 1.36824e-21)
(0.997742 -0.00146458 1.35199e-24)
(1.0106 0.0485111 6.65893e-22)
(1.00662 -0.00142227 3.9367e-23)
(0.99968 -0.000482385 -5.45304e-24)
(0.999027 -0.00206698 3.85598e-23)
(1.05957 -0.00899784 -1.0466e-22)
(0.841508 0.00535689 7.63412e-23)
(1.00132 -0.00599396 4.12399e-24)
(1.01019 -0.0486234 5.20417e-23)
(1.02698 0.024571 -9.81062e-22)
(1.00002 -6.57259e-06 -4.49785e-26)
(0.983013 -0.00784486 2.21684e-22)
(1.01999 -0.0101539 2.66739e-22)
(1.0602 -0.0554459 -3.76945e-23)
(1.00675 -0.000753561 2.21067e-22)
(0.998702 -0.00183469 7.06918e-24)
(0.984958 -0.0331289 4.71401e-24)
(0.99812 -0.0076374 -1.24123e-23)
(1.00003 -5.10932e-06 4.89138e-25)
(0.979642 -0.0381537 -7.0015e-22)
(1.07806 0.0928596 -4.48528e-22)
(1.01507 -0.0304656 2.75797e-23)
(0.986469 -0.00441036 -1.69415e-22)
(1.0015 -0.000377569 -9.81677e-24)
(1.03065 0.0260867 1.29027e-21)
(0.999687 -0.000582286 -2.50854e-24)
(0.998983 -0.000592976 -7.86576e-25)
(0.999706 -0.000156984 -3.76566e-24)
(0.999393 -0.00194697 -9.69214e-24)
(1.21507 -0.0324467 -1.05677e-22)
(1.02182 -0.0359628 1.51597e-23)
(1.00633 -0.0173211 1.42784e-23)
(0.985533 -0.00647116 -7.75015e-23)
(1.00004 -4.68111e-05 4.72842e-25)
(1.02963 -0.119003 7.48192e-22)
(1.17396 -0.130084 7.12508e-24)
(1.02927 -0.12703 -3.56318e-22)
(0.995862 -0.0295052 -9.90558e-23)
(1.01191 -0.00894151 2.4874e-22)
(0.999826 -9.12189e-05 1.73591e-24)
(0.990587 -0.0101607 -9.93613e-23)
(0.965246 -0.0373014 -4.07864e-22)
(1.19392 -0.0468123 1.03852e-22)
(1.00874 0.0716138 -4.82459e-23)
(0.999049 -0.00292534 7.84431e-24)
(0.95592 -0.0257296 2.28327e-22)
(0.996146 -0.00250395 -6.61673e-23)
(1.02645 -0.0344003 4.37187e-24)
(1.12948 0.0461511 9.74628e-23)
(1.00037 -0.000123745 -8.1285e-24)
(0.999871 -0.000196736 -6.42274e-25)
(1.2381 0.0563211 1.17513e-23)
(1.1711 -0.0597489 1.28844e-22)
(1.01537 -0.0153008 8.8095e-23)
(0.997588 -0.0015961 3.49159e-23)
(0.998286 -0.000424265 -3.47319e-24)
(0.97043 -0.0384797 9.96468e-23)
(0.999858 -0.000324394 -2.13279e-24)
(1.01286 -0.031602 -9.08445e-24)
(0.989125 -0.00126283 3.28193e-22)
(1.00074 0.0164501 -8.25412e-22)
(1.08584 0.0996132 -2.38526e-22)
(1.04203 -0.0759792 1.44545e-22)
(0.989112 -0.061012 3.133e-22)
(1.00548 -0.00133652 1.09348e-22)
(1.01132 -0.0235943 -6.12719e-23)
(1.14892 -0.0660016 -2.82934e-22)
(0.987424 -0.0671121 -1.95511e-22)
(1.0113 -0.0424256 1.03009e-22)
(0.999999 -6.67956e-06 8.67244e-27)
(1.12599 -0.0684849 -2.8698e-22)
(0.979159 -0.00246276 3.09376e-23)
(0.985097 -0.0736345 3.86638e-22)
(1.01502 -0.0280965 -7.32162e-23)
(0.964868 -0.0124171 -6.92251e-23)
(0.999671 -0.000275537 -1.84374e-24)
(0.997551 -0.00119363 -1.5586e-23)
(1.05043 0.040711 1.57416e-21)
(0.976007 -0.00909392 -1.17374e-22)
(0.999987 -1.82868e-06 7.72595e-26)
(0.997648 -0.000493607 -3.6693e-23)
(1.09309 -0.131988 -1.09652e-21)