/*--------------------------------*- C++ -*----------------------------------*\
  =========                 |
  \\      /  F ield         | OpenFOAM: The Open Source CFD Toolbox
   \\    /   O peration     | Website:  https://openfoam.org
    \\  /    A nd           | Version:  7
     \\/     M anipulation  |
\*---------------------------------------------------------------------------*/
FoamFile
{
    version     2.0;
    format      ascii;
    class       surfaceScalarField;
    location    "22";
    object      phi;
}
// * * * * * * * * * * * * * * * * * * * * * * * * * * * * * * * * * * * * * //

dimensions      [0 3 -1 0 0 0 0];

internalField   nonuniform List<scalar> 
44730
(
-595.474
668.277
-72.8032
1063.4
-1072.31
8.90846
-334.696
381.685
-46.9889
224.33
-259.503
35.1731
-498.313
498.313
217.53
-262.385
44.8554
-378.284
375.367
2.91613
27.7037
-565.792
538.088
663.997
-833.704
169.706
-1009.32
1102.28
-92.9646
558.084
-146.593
-411.491
-532.756
536.351
-3.59464
-687.791
582.641
105.15
-859.815
868.875
-9.06048
247.96
64.3615
-312.322
385.298
-10.2796
-375.019
814.508
-666.882
-147.625
-395.603
406.439
-10.8364
160.939
314.806
-475.745
290.112
-356.513
66.4004
-593.999
81.6821
512.317
724.604
-60.6071
49.6167
-384.312
136.481
-489.327
352.846
240.599
-133.705
-106.894
1067.68
-4.27466
659.817
-680.954
21.1368
-275.962
-7.95269
283.914
289.151
-41.1909
-442.736
543.928
-101.193
954.085
-248.678
-705.407
-672.425
762.198
-89.7731
252.626
-226.08
-26.5458
480.654
-72.3445
-408.31
137.874
-413.836
265.552
-432.202
166.649
433.905
-578.642
144.737
291.725
-40.4943
-251.23
824.985
-979.722
154.736
1062.57
-237.589
-1018.22
1035.73
-17.5179
401.52
-89.8083
-311.712
704.046
110.462
191.303
-313.88
122.577
1228.47
-777.705
-450.769
-591.26
148.524
537.752
-538.881
1.12917
230.493
645.54
-876.032
225.103
537.246
-762.349
-104.772
538.677
-383.076
166.92
216.156
-10.8215
-226.506
237.328
-667.872
-4.55251
238.75
-21.2199
423.836
-38.538
-269.073
-44.442
313.515
524.326
-499.643
-24.6833
-34.296
-559.703
-464.939
43.9352
421.004
-298.999
-30.8035
329.802
799.504
17.5783
-817.082
-409.163
570.102
7.10236
-241.109
234.007
-218.957
484.51
-314.203
428.11
-113.906
263.391
244.775
-508.166
496.403
-124.002
-372.402
429.118
-49.0777
-380.041
-453.602
-31.3411
484.944
-986.718
-31.4982
1060.85
6.82593
293.977
289.312
-583.289
-243.995
547.425
-303.429
167.677
88.2589
-255.935
-431.4
381.289
50.1104
-370.844
387.493
-16.6494
272.074
-153.965
-118.109
-250.856
-59.5432
310.399
-699.295
16.5399
682.755
408.18
-90.1691
-318.01
-251.974
251.974
85.9715
-761.051
675.08
-664.285
68.8109
-947.217
848.227
98.9898
-322.26
-56.0236
-18.4453
216.141
-197.695
517.856
-139.736
-378.12
-644.513
-43.2778
652.432
-69.7907
95.7799
82.4725
-178.252
-358.749
94.6331
264.116
-308.177
57.3208
846.485
-621.382
564.164
-597.227
33.0629
221.784
-92.9635
-128.82
-353.124
127.906
225.219
-25.8509
256.622
-230.772
-846.73
847.492
-0.761401
-34.4312
-157.811
192.242
259.864
3.35382
-263.217
-711.45
12.1548
-264.522
282.473
-17.9512
778.737
20.7674
431.98
-635.23
203.25
204.262
-215.083
-754.597
817.559
-62.9621
639.762
-717.198
77.4357
74.6623
577.769
943.841
-846.977
-96.8642
-216.676
245.504
-28.8279
199.795
52.8316
356.369
120.493
-476.862
1009.09
-256.884
-752.208
18.1125
563.943
-582.056
-12.6664
-587.484
600.15
538.581
-244.604
105.563
423.532
-529.095
-303.092
407.173
-104.081
76.7387
-814.824
738.086
-699.293
455.297
13.8457
-214.662
200.816
19.7785
-855.169
835.39
-322.979
319.502
3.47733
-39.5148
302.906
24.0474
-890.869
866.822
-346.878
345.236
1.64134
-73.9443
-321.659
13.7258
-290.328
276.602
704.378
-786.858
82.4798
726.12
-860.282
134.162
-152.929
344.232
172.488
99.5859
192.142
-205.328
13.1864
301.366
-307.146
5.78077
-126.483
558.463
626.982
327.103
150.458
66.3854
-216.843
275.503
-314.686
39.1828
224.946
-257.826
32.8804
-22.5015
282.365
-353.592
6.71467
1.86161
-185.239
183.377
220.63
-58.7254
-161.904
181.123
827.969
-198.074
-739.276
937.35
-101.131
-397.182
523.04
14.712
234.543
-226.375
-8.16768
274.487
-226.224
-48.2627
32.6434
-222.432
189.789
-397.46
635.173
-237.713
51.3828
509.821
-561.204
984.094
-886.54
-97.5544
790.896
-787.089
-3.80699
-573.725
-236.906
810.631
-145.8
722.085
-576.285
454.417
-443.557
-10.8606
-206.536
-5.64079
212.177
35.1806
-763.742
728.561
-165.415
-217.662
-245.439
231.929
13.5102
242.353
-18.023
20.0785
1020.87
-572.448
-448.427
735.195
-933.269
-398.779
95.6868
12.0355
208.594
16.5027
-778.261
761.759
-90.3794
-856.838
416.854
-451.874
35.0202
-106.712
832.833
53.7764
-736.603
682.827
-204.524
-2.01185
275.503
6.35598
249.741
-256.097
-432.404
432.404
82.6106
679.812
-762.422
-313.485
48.9622
-579.697
597.809
323.493
-311.152
-12.3406
-777.833
-63.27
841.103
-148.409
450.406
-301.997
429.158
88.6972
429.548
-442.483
12.9343
269.335
-44.3888
-208.855
-325.153
534.009
500.764
-381.173
-119.591
-328.297
19.0306
309.266
785.684
-81.3063
-520.095
-80.2525
600.348
-661.069
661.069
-128.604
503.621
-375.018
94.8439
-348.327
253.483
-919.451
345.726
306.419
-357.503
51.0844
436.772
17.6449
814.155
-498.189
-315.965
914.597
-65.3805
-849.217
74.7089
147.075
-847.326
614.381
232.945
-22.329
271.962
-249.633
-208.733
224.651
-15.9185
-44.1267
-488.629
875.174
-890.223
15.0482
-54.0661
429.465
-12.6108
788.623
-792.684
4.06071
247.147
-12.6043
26.3339
-243.01
822.13
-963.818
141.688
241.908
-343.22
101.311
570.608
-570.608
899.94
-93.2358
-806.704
594.213
73.0868
-667.3
59.9997
-330.749
270.749
-175.785
260.147
-84.3626
-475.879
327.469
53.2414
735.382
-392.946
529.427
251.062
-176.353
-684.045
-176.237
484.681
-630.481
453.468
-501.025
47.5577
-896.951
1031.86
-134.91
-579.997
555.613
24.3842
506.275
-582.113
75.8383
129.426
733.467
-862.893
211.261
530.748
-742.008
723.343
505.131
322.217
740.358
323.515
-232.121
-91.3939
-294.307
294.307
370.886
-401.839
30.9535
-28.1543
1089.01
269.318
-322.825
53.5061
531.439
-480.056
-297.429
-562.385
551.589
-565.323
13.734
-29.2519
904.426
263.324
-285.653
-233.359
205.997
27.3619
498.927
-587.671
88.7432
-197.635
959.066
-761.431
588.711
-82.4362
772.023
-383.332
-388.691
338.558
-48.4459
471.995
548.88
-205.416
186.971
-743.844
59.7996
-933.67
36.7184
477.515
46.8105
-679.9
891.16
-693.077
-61.52
186.767
-204.193
17.4267
-74.0041
915.22
-841.216
-38.0512
-817.794
855.845
181.645
-179.783
49.7562
172.89
-222.646
-8.31644
-365.996
374.312
326.398
-312.672
-607.996
210.536
-235.332
437.437
-202.105
908.552
-678.059
304.355
19.1596
304.422
-11.342
-293.08
-568.434
161.591
406.843
460.471
-30.9224
519.075
-727.93
-370.77
-0.0740183
646.703
-746.163
99.4606
-231.289
157.62
73.6689
-656.178
638.95
17.2285
227.431
-221.075
71.7785
179.284
-743.411
826.022
-305.975
320.753
-14.7784
68.012
-362.934
294.922
231.664
-208.473
-23.1908
526.302
-328.527
-197.775
9.54648
-346.723
337.177
-497.162
484.495
-70.2762
271.147
-200.871
-662.075
159.256
502.819
-344.18
-8.94448
653.775
6.04232
445.115
-21.2788
-161.14
8.81688
152.323
-23.1353
725.654
-702.518
-854.319
983.745
320.985
-152.011
-168.974
677.321
-775.108
97.7869
424.517
347.506
706.298
59.6751
-765.973
818.1
81.8395
552.384
-525.245
-27.1385
1093.72
-1012.31
-81.4059
3.45553
-294.441
290.986
285.104
19.318
99.0382
141.561
210.643
-18.5009
197.849
-199.068
1.21868
141.997
150.281
-292.277
-303.531
283.422
20.1092
-163.155
-299.076
462.231
420.159
-548.763
-318.75
199.104
-192.48
-6.62451
193.826
1009.09
-561.251
-447.837
525.821
-109.109
-416.712
129.913
509.849
82.2474
470.136
0.513734
-694.388
714.047
-19.6589
44.9167
-547.242
502.325
-90.8776
-249.011
339.889
-448.488
38.9974
409.491
-140.402
-335.968
476.369
780.001
-1.26469
23.8333
196.456
-381.396
184.94
155.01
-225.286
-920.81
849.482
71.3276
-294.667
306.171
-11.5041
671.689
-85.1205
-586.568
1047.01
-603.807
-443.208
197.28
-191.387
-5.89222
265.448
-110.924
-154.524
-421.098
418.037
3.06098
662.898
-31.261
-631.637
-695.317
0.929092
377.371
30.809
-557.198
444.656
112.542
584.027
-578.236
-5.79099
-855.763
44.4001
811.362
856.371
33.1982
-889.569
-424.467
284.065
-202.717
41.5773
-327.811
533.803
-205.992
-184.285
-49.074
754.995
-793.046
-147.464
197.22
536.712
-167.783
-368.929
-123.5
-308.904
217.494
-217.944
0.449907
619.579
43.3198
683.413
-608.751
23.2344
-302.255
279.021
837.687
-876.455
38.7684
-304.488
-6.66409
956.294
-959.451
3.15704
57.7871
192.116
-249.903
680.219
-33.5161
569.859
-592.839
22.9794
-829.018
848.797
203.525
-189.679
786.459
212.09
746.976
150.562
196.068
-346.63
-298.749
-7.23296
821.264
-68.1756
-753.088
598.289
-129.953
-468.336
251.192
-84.2715
82.318
414.085
85.0928
-260.877
473.805
-503.856
30.0506
141.95
-348.326
206.376
137.612
388.69
54.4728
860.125
653.094
-773.228
120.135
-22.6011
978.895
-282.768
-17.776
300.544
-220.496
206.229
14.2673
-6.85169
174.528
48.2362
452.528
334.996
-343.313
-350.871
36.6682
-342.593
43.5941
838.345
-58.3439
81.7268
-227.954
146.227
-955.81
22.1408
-919.577
-36.2333
-486.291
57.7627
428.528
-733.647
902.611
-168.964
-198.029
-63.8863
261.915
-119.36
-89.153
208.513
-158.054
-42.3505
200.404
-129.179
228.174
-98.9951
853.461
417.432
-220.976
155.126
-12.2396
-567.757
-879.483
-41.3263
448.789
149.499
191.169
-518.98
200.77
-1107.08
906.306
22.9648
205.923
-228.888
-4.26471
-204.468
418.454
26.6612
89.1338
701.762
279.663
7.84736
-287.511
-469.782
575.346
728.803
72.8023
-801.605
-779.141
-7.71684
801.643
-855.644
54.0012
297.328
-281.838
-15.49
85.2742
235.711
850.823
-864.944
14.121
978.829
-862.148
-116.681
939.19
-943.728
4.53873
-394.059
-163.139
-2.94203
-873
545.483
327.517
-180.713
161.731
18.9825
-245.362
387.359
139.983
91.4255
-231.408
755.883
262.582
-255.48
431.62
94.201
783.334
-697.34
-85.9936
-52.5356
-101.587
-94.1292
195.716
-306.635
261.302
45.3334
862.613
-838.566
-21.3962
379.146
-357.75
-327.136
-26.456
571.324
-583.495
12.1707
367.34
-327.441
-39.8999
-828.533
731.22
97.3128
-905.809
831.805
142.786
122.662
-405.848
276.518
129.329
467.625
-453.764
-13.8611
621.127
-622.642
1.51589
518.071
-44.2661
-311.08
-135.755
446.835
7.62199
-290.39
-68.9299
-248.721
317.651
544.286
563.929
-1108.21
-900.864
849.216
51.6477
-0.464675
-404.697
418.497
-13.7997
431.609
-399.579
-32.0302
672.796
-846.735
173.939
711.489
-882.364
170.875
-502.857
-159.218
-433.127
63.0786
370.048
304.122
-6.15333
-297.969
-326.681
168.627
476.343
81.7412
-719.709
-108.824
10.7945
187.055
-301.059
302.307
-1.24758
28.7054
-333.914
305.208
489.773
39.8587
-529.632
-235.087
302.185
-67.0982
-896.195
-19.6376
915.833
-201.64
-34.1736
235.813
6.44997
-847.217
840.767
804.702
-118.399
-686.303
339.619
143.759
-212.689
-874.876
-21.319
808.64
40.8416
-1.78824
546.907
-190.538
-508.133
-18.0599
526.193
-801.992
913.795
-111.803
313.466
-245.454
-401.483
310.605
-30.0345
590.686
63.0884
383.321
-241.371
305.2
508.955
-13.3644
25.3737
341.967
-777.642
87.1696
690.472
456.459
95.1293
-133.301
-26.5577
159.859
-851.807
-23.0693
68.6188
332.902
-194.547
231.021
-36.4737
45.8247
-280.911
-281.682
274.344
7.33767
-18.1698
27.0767
-513.857
486.78
-611.381
-134.782
-21.075
301.176
-280.101
-335.156
455.649
599.387
447.628
-1102.77
430.486
672.289
329.163
0.299274
-329.463
-239.014
-162.613
401.627
-525.543
553.247
-661.26
-18.8232
680.083
100.044
84.6242
-184.668
-44.2498
799.245
839.127
-862.621
23.4944
807.453
-154.359
38.1161
-603.908
-324.064
-22.6594
556.8
57.7695
-614.569
438.592
21.8787
-349.069
392.026
-42.9565
-853.754
-3.75268
857.507
-27.8188
-823.988
276.772
-281.331
4.55857
625.216
-4.08927
567.613
-412.66
-154.953
-219.841
273.261
-53.4202
-90.5576
-260.314
-420.478
-44.4611
895.272
-183.783
-822.782
89.1356
-629.259
17.8779
-539.129
49.5468
489.582
820.551
-39.628
-780.923
-257.023
127.844
1.67308
-356.493
354.82
860.51
-187.714
306.938
-2.81513
636.987
-67.128
494.271
-4.49783
801.369
-712.236
-1045.13
-57.6414
444.768
22.8571
532.104
32.0599
730.49
-695.31
796.24
-38.5752
-757.665
192.623
-227.054
274.285
-12.9829
-117.934
205.195
-172.552
474.933
15.4692
-490.403
576.42
-96.8745
-479.546
-458.945
421.717
37.2285
128.867
672.502
7.71653
-98.3441
-759.209
857.553
79.9105
-666.61
586.7
225.055
-302.86
77.8051
-743.036
644.691
91.7317
712.971
-504.407
1048.69
225.957
-144.231
-277.269
-175.73
254.494
-78.7635
208.155
-266.039
57.8843
-179.382
319.365
9.00573
-336.142
-51.0864
5.18783
-410.353
405.165
-47.5285
-161.675
-194.838
-28.9011
366.704
-337.803
-870.853
944.464
-73.6106
45.4913
-528.063
482.571
25.5559
-246.052
-755.787
106.107
649.68
359.328
-221.453
819.406
1.14516
-32.8809
221.597
-188.716
437.279
130.335
-104.833
-328.294
816.053
-201.672
-95.2142
-914.102
615.926
-326.614
124.052
52.5999
652.591
-566.62
495.563
-14.9087
341.655
-35.2358
338.841
-421.221
82.3799
192.27
-232.257
39.9874
49.9967
247.743
-297.739
339.044
-502.199
-4.96453
761.957
-806.207
537.597
-62.6634
-106.438
738.11
-631.672
-268.999
303.011
-34.0119
-69.5269
294.582
202.251
-190.215
-280.552
11.5526
-1058.94
587.293
471.646
-35.859
-77.9858
173.766
-308.922
294.457
14.4649
-676.012
692.515
267.949
-272.75
4.80025
-479.832
180.756
-502.854
-556.085
238.146
-278.64
847.166
-946.597
99.4312
-343.726
19.6623
487.203
-627.006
139.803
-2.57198
811.212
259.446
-279.608
20.1614
-323.347
-549.653
-37.3283
293.158
-25.2091
358.898
-127.76
-231.137
-19.9058
-841.843
861.749
-877.387
488.916
388.471
-55.8857
735.697
-459.384
38.9064
-143.058
-119.247
262.305
874.593
-818.473
-56.12
392.371
-323.752
797.236
4.40764
108.188
81.7913
-189.98
-580.555
1024.4
-443.843
143.947
-192.104
48.1568
-758.985
-144.98
903.966
141.76
217.138
853.511
-31.3812
813.47
-736.731
503.231
-420.913
-14.799
-226.31
37.843
151.76
-189.603
310.67
236.237
-23.628
-1098.2
619.198
479.001
8.36695
891.7
-60.5419
-831.158
-430.567
622.593
-192.025
57.1425
756.327
27.0885
-535.222
-590.517
-18.2577
608.775
409.881
143.959
-553.84
-264.745
-522.344
278.712
62.9422
-176.608
-75.3658
-406.119
352.605
53.514
-793.018
294.829
200.418
-261.444
61.0256
225.869
-260.17
34.3018
429.635
-424.447
727.943
51.7432
-779.686
-203.424
45.6124
822.373
20.8141
-843.187
-364.983
18.0986
346.884
118.64
860.189
-409.198
453.133
411.255
-72.414
-954.52
99.717
854.803
789.109
102.591
-30.3001
222.57
50.3596
381.249
898.65
133.212
25.7537
-485.138
28.748
-826.987
798.239
699.14
-767.362
68.2221
636.324
465.957
769.011
-56.0312
-712.98
193.364
-49.4172
76.2452
339.341
-415.586
-735.25
792.392
256.342
171.768
-280.16
168.655
111.505
-111.207
-426.809
538.017
-31.6938
-213.745
1004.41
-573.926
92.5557
-290.585
180.626
-213.507
-105.379
-154.124
30.7041
820.118
-164.99
504.033
-602.409
755.699
-153.29
683.229
-706.364
-395.481
377.421
-442.822
-179.821
39.4157
349.014
-13.6426
-335.371
-46.2885
808.246
-505.246
-623.366
1128.61
288.142
-240.864
215.013
5.02599
197.225
-254.419
120.715
-885.317
908.98
-23.6636
-278.606
258.806
19.7993
73.7123
709.621
3.36235
765.648
635.453
-15.8742
-15.0417
-511.908
471.721
40.1877
933.082
17.1524
-950.234
-319.414
-45.5686
-0.409271
-234.888
797.208
-69.2647
529.017
-623.105
94.0881
-762.037
-84.6932
13.7589
283.57
887.882
10.7678
-490.585
440.703
49.8826
-950.454
-94.6793
45.2467
-376.746
331.5
-217.093
241.177
-24.0836
251.648
-43.4927
-39.6037
1050.3
-313.221
-737.079
579.579
-50.5621
52.2415
-264.214
-66.5355
-688.856
772.552
-83.6953
-84.7722
-13.6261
239.495
504.706
-5.7791
92.7898
-870.623
-88.5784
211.246
-122.668
-202.108
217.661
-15.5538
-681.79
570.583
-452.83
479.907
343.728
48.6432
-460.219
424.663
35.5563
582.098
426.99
498.345
-459.885
-38.4603
486.427
-316.443
-169.984
-183.257
29.2925
350.034
-21.1884
-328.845
-256.952
81.2213
-331.822
292.307
-219.042
-636.72
-691.593
-81.6357
259.063
-58.6454
663.242
197.269
7.02644
224.902
816.628
-84.4978
-732.13
328.637
-142.053
646.962
-504.909
235.536
-299.422
-96.7522
506.633
-750.945
7.53337
-124.434
-106.855
500.006
-95.5273
783.224
-687.697
-199.203
226.963
-27.7599
-33.1891
-245.417
829.584
-737.852
220.28
-427.632
-406.86
834.492
863.42
-200.178
-42.7538
788.636
-745.883
597.359
-6.67264
17.6848
-608.202
282.873
140.384
-423.257
-403.997
480.242
-23.3675
-316.37
339.737
-616.787
65.5148
551.272
-137.315
506.065
-368.75
-481.542
409.002
-482.842
73.8404
105.338
-174.883
69.5446
-185.917
336.478
-192.61
-178.16
730.668
-31.528
102.269
581.144
-611.022
648.834
-37.8125
269.624
-290.699
-810.639
-51.9827
97.0017
-432.969
590.12
460.18
-615.776
172.954
417.525
-845.157
376.912
-681.881
28.651
653.23
-187.777
230.861
-43.0845
-816.296
886.7
-70.4036
-48.1003
-432.162
480.262
1005.36
-405.624
-599.737
-68.5562
-787.088
-16.2997
293.072
-950.464
207.426
743.038
-857.705
-92.7586
-171.967
-8.74677
-777.767
731.479
-128.194
-300.703
428.897
-11.8995
-269.147
281.047
160.289
647.163
232.315
149.649
-381.963
-902.867
154.573
748.293
541.162
-580.929
39.767
604.539
58.5926
-663.131
-44.7623
673.734
-639.887
-33.8466
352.853
-23.6894
-31.223
236.025
-204.802
608.417
65.3173
13.6469
-792.788
721.539
-777.57
-178.046
215.889
330.223
156.204
130.775
-323.385
202.456
-205.909
3.45276
340.25
-198.893
-141.358
592.175
43.278
-748.004
801.2
-53.196
-396.62
-102.283
498.903
-10.213
-290.846
240.236
55.2688
-295.505
247.139
-98.0092
-149.13
418.282
-466.382
-61.7155
-740.277
-410.709
84.0407
147.623
496.161
-433.894
-62.2674
-232.265
255.23
-199.638
192.484
7.15369
12.0966
-215.879
203.782
-322.133
378.897
-56.764
218.536
-15.7386
-202.798
450.452
554.909
-260.62
555.486
-473.804
142.229
-238.99
96.7616
-199.921
-16.9165
216.838
701.276
-96.737
238.868
-167.09
-358.663
274.97
83.6926
-426.157
-12.9965
439.154
-351.972
448.973
309.97
-324.606
14.6356
-16.0895
31.0367
472.195
462.732
35.6128
31.0404
-457.198
207.926
-1.92886
-337.132
-6.59451
-369.236
298.004
71.2318
341.54
-62.828
674.154
221.118
-230.898
242.995
-287.558
306.589
97.7131
657.078
-754.791
-736.954
-25.541
762.495
3.42243
157.688
16.7784
-338.912
-690.675
621.098
69.5768
126.357
-169.435
170.921
-1.48669
432.135
-149.262
-251.26
-171.517
422.778
-164.356
-347.553
219.119
-16.663
-252.254
109.196
95.3384
-183.917
-1009.54
696.319
-347.513
347.513
851.465
242.253
-35.2328
-509.097
-500.443
209.468
326.882
528.063
42.5452
545.25
-50.9792
267.819
-266.833
-0.985376
-629.381
662.24
-32.8594
-50.3001
-532.326
-47.3707
-635.262
710.754
-75.4915
84.0728
-493.236
-352.973
539.447
5.80265
523.867
20.7583
-544.626
748.072
-647.181
7.29372
-117.212
-60.4185
177.63
-418.63
86.808
310.941
-32.3975
-278.544
-158.125
-44.592
-301.113
288.714
12.3989
-288.717
68.8763
869.816
-195.662
-338.177
47.8485
768.424
-1.66328
-766.761
584.167
-658.975
74.8082
-922.856
830.376
92.4801
-23.2446
-638.015
110.239
296.934
-22.5266
-260.997
283.523
-782.222
21.1709
-202.882
-289.555
267.028
-466.089
511.58
-261.362
262.814
-1.45205
-302.072
301.378
0.693878
-811.583
705.145
995.981
-148.815
-169.162
288.028
-230.241
362.297
-166.229
416.306
-320.516
-95.79
286.717
54.8229
811.231
-91.4935
-719.737
184.395
-681.556
-755.799
671.748
84.0515
5.82442
-617.247
624.457
-7.20913
62.0747
176.793
-99.7386
519.898
-271.211
288.036
-16.8253
379.064
-458.202
79.1375
-608.615
649.184
-40.5685
585.812
44.1367
-629.948
250.909
-222.611
-28.2984
556.698
-24.7711
-531.927
240.071
-128.273
-111.798
-131.866
-50.174
182.04
956.365
-947.228
-9.13673
-575.496
-388.322
-46.1877
-757.206
803.394
-897.639
834.369
-583.455
366.844
216.612
605.076
-623.334
-14.7471
674.551
-659.804
17.6047
150.289
-167.894
-51.932
-281.982
-855.977
-66.8781
15.467
365.822
334.069
-739.693
213.941
-6.01508
-227.307
227.307
412.643
-149.195
-263.448
-911.282
25.9649
-3.08596
-25.6156
-478.863
504.479
-753.75
-80.6078
486.939
-406.331
-252.397
-408.672
432.004
-10.2877
-53.0642
258.987
154.75
185.5
-545.227
398.634
-163.84
396.155
339.013
-52.2956
762.982
-709.206
-284.103
-6.91169
270.977
-946.893
-3.56112
5.61205
927.47
532.797
-448.725
-839.668
575.706
263.962
6.57366
260.462
-267.036
350.648
-8.51631
-342.131
-461.752
31.1848
-835.194
748.92
86.2747
-133.335
-186.079
188.885
33.9417
-222.827
212.979
126.034
-800.991
17.8564
-592.21
322.884
269.326
58.3981
242.967
361.425
-324.898
-36.5273
-371.899
394.351
-22.4514
847.413
-513.345
-454.969
312.916
-321.072
190.743
130.329
423.38
-720.809
568.385
-27.2232
811.246
-807.883
79.393
160.678
-829.382
812.44
16.9415
-794.817
46.8133
-472.163
-527.846
1042.65
-186.28
931.094
-835.181
-95.9134
-521.12
-463.315
984.435
-48.3698
-255.162
58.7392
225.329
-231.071
5.74271
-21.9653
-56.0673
733.388
469.691
-35.0563
-434.634
-372.982
-195.451
24.5342
-96.7057
-246.514
-146.029
422.362
-276.333
-925.915
925.915
92.7348
-807.607
491.641
-510.741
69.1481
441.593
-211.394
-194.453
166.172
-165.904
-379.323
-555.882
389.978
598.985
56.3409
190.799
419.482
-929.943
510.461
-19.2643
298.928
-223.974
-262.316
-214.904
422.812
-92.5889
-180.531
-140.541
-65.4852
-835.379
452.47
-518.061
65.5908
17.4799
-693.746
776.596
-82.8496
415.796
-420.463
4.66674
245.937
-567.522
529.757
37.7649
112.005
113.215
-225.221
198.521
-229.744
378.939
-708.788
329.848
110.54
758.335
174.325
238.318
-68.6162
-492.952
467.337
292.398
-306.696
14.2978
416.446
-37.3817
354.06
-382.961
-21.8991
-367.631
389.53
-18.7171
-288.429
300.379
25.6906
-326.069
-424.63
278.601
-387.895
39.2639
631.127
-749.526
-409.86
532.12
-312.952
-91.7453
976.65
-866.109
-492.749
-312.298
805.047
295.595
37.2902
290.82
-328.11
-457.905
144.939
-278.274
-51.7411
450.902
-563.842
112.94
47.4234
613.645
-183.011
65.7996
341.025
-282.626
708.748
-329.808
271.875
-177.242
23.8581
364.752
-388.61
-28.0742
-294.828
-7.42741
-254.356
250.482
3.87372
1.50694
557.102
-530.013
46.3012
-891.585
113.324
799.627
-2.39115
329.211
-116.232
525.489
328.707
-854.196
598.398
239.947
669.839
-765.366
-748.809
106.428
642.381
293.963
42.4062
-336.37
184.937
-177.559
-7.37854
31.0995
274.573
572.919
-194.731
29.4399
165.291
-156.793
-606.972
763.766
-340.187
363.769
-23.5822
-246.977
295.1
-48.1232
-148.075
-174.749
-255.858
210.226
45.6317
920.092
-920.092
-87.2668
727.034
-639.767
294.753
-209.479
344.685
-68.1671
-657.924
189.328
27.2452
-216.573
47.6546
-583.62
535.966
26.52
-222.982
196.462
908.34
-914.025
5.68533
301.108
-674.553
373.446
336.078
-290.831
51.4024
310.023
-350.747
876.237
557.007
-106.105
-72.5661
-242.12
-400.636
321.45
79.1858
222.067
-346.069
332.258
-500.523
168.265
-229.866
42.0895
-873.295
-73.5986
34.8732
-728.62
311.215
-183.31
796.379
-773.245
-23.1343
433.606
51.3375
-484.943
-685.557
610.656
74.9013
-264.342
220.839
43.5025
320.238
-27.8402
-426.103
-254.851
878.749
-834.918
-43.8307
-357.621
658.729
131.413
-528.033
-864.818
11.0641
-55.9602
-601.868
657.828
34.91
-136.617
-143.542
-917.03
415.564
501.466
189.45
3.03415
449.705
-33.9094
543.446
252.963
-268.49
15.5275
-334.221
-5.9388
340.16
-543.395
438.623
-12.0905
-190.14
202.23
230.402
-41.0742
-89.0668
361.172
-272.105
-354.838
5.7691
434.59
-9.92708
61.1621
-808.505
747.343
-664.286
664.286
44.607
190.929
-89.4719
-506.92
596.392
-854.479
938.107
-83.6284
741.128
55.2511
-14.1329
-834.54
848.672
323.897
-341.166
17.2683
324.913
13.8263
-338.739
584.485
-636.867
52.3815
27.6751
312.815
-340.49
-202.669
-121.987
324.657
193.805
-8.86747
107.002
-710.827
603.826
-760.018
267.269
349.47
-312.18
793.736
59.7749
-77.3475
-433.394
341.768
-390.846
-681.551
102.071
579.48
322.685
-266.2
-56.4846
-531.164
615.41
-84.2462
-81.8342
-362.868
444.702
407.794
-382.421
-590.468
-326.562
596.669
-725.614
128.946
-408.924
-430.744
837.858
-39.7315
-645.826
127.586
450.74
-578.326
563.561
-644.768
81.2073
27.724
-253.948
11.1099
-692.991
-320.079
321.752
-2.31308
570.517
-692.712
122.196
-344.499
-430.609
0.234733
-685.125
698.075
-12.9493
763.071
-164.674
645.486
-102.831
-542.655
209.214
286.947
288.143
-296.959
8.81611
807.726
-935.877
128.151
-649.606
-99.2027
-285.245
14.0342
-327.103
89.8382
237.264
-56.182
640.667
87.1776
-268.453
181.276
357.495
-335.532
-21.9626
-333.839
-258.371
-19.4683
206.235
-32.4808
-171.713
234.092
138.859
-372.951
-271.343
319.274
-47.9312
590.029
-679.5
22.9113
288.03
-259.292
-67.8105
-284.522
-298.933
-711.327
540.714
170.613
-112.324
-150.061
-159.264
66.3006
-578.026
536.352
41.6741
576.955
-1098.08
-24.6123
-1014.55
-140.81
373.231
49.581
-22.4138
-51.3852
-759.254
127.582
852.798
-846.348
617.382
-76.6684
1.85993
589.239
-591.099
-285.045
-164.393
449.438
-48.1169
-216.225
9.52738
194.273
-213.464
19.1919
-993.484
229.742
449.018
-116.76
19.6544
-627.956
608.302
299.757
-365.284
28.4237
336.86
61.3831
573.893
-635.276
-102.816
771.973
-669.158
-669.501
-195.442
-728.832
39.7881
689.044
-32.3308
565.301
-532.97
924.425
-915.925
-8.5001
564.165
-620.126
-611.186
-23.6071
634.794
-395.417
124.074
251.773
-271.981
20.2073
801.406
-772.658
-95.957
730.834
-634.877
458.967
12.7541
-433.806
-669.811
604.139
65.6723
399.531
-92.1752
-564.003
-43.3721
-10.9508
-399.402
-30.6717
234.138
-203.466
21.6573
327.812
-360.097
364.072
-3.97511
746.736
-792.924
130.922
130.994
212.502
-224.081
11.5789
684.155
-775.272
91.1174
-318.691
-675.163
-13.6937
795.244
74.5718
290.903
120.352
811.901
-16.6568
-10.5248
-1029.84
174.673
3.93855
20.8348
-568.077
160.662
-143.058
-1082.56
-240.342
228.252
73.251
221.502
-107.6
-467.119
574.72
-2.45372
-477.48
479.934
838.924
-31.1986
570.056
75.4296
-29.974
-201.577
231.551
743.066
-785.82
-152.458
386.55
-407.568
446.095
-38.5271
-679.299
723.139
-43.84
300.785
-366.259
17.9327
395.495
-152.316
-243.179
174.187
-511.467
466.036
45.4316
4.21093
-461.56
463.128
-1.56733
613.718
-596.033
37.184
-162.982
596.588
-293.394
57.4653
440.848
41.1106
607.658
-648.768
-74.619
-151.461
209.685
11.1544
31.5321
-390.177
24.8925
-415.192
7.62447
250.3
-252.257
1.95689
711.243
-682.592
-484.573
83.6751
400.898
-42.2518
626.419
-9.74524
-206.133
914.261
-141.765
-772.496
518.882
537.486
-1056.37
-297.584
-16.2966
290.248
4.20892
10.2858
273.136
-692.25
-2.68793
694.938
592.178
-748.971
-219.109
193.642
25.4667
-523.674
-27.1972
-639.413
-0.0151771
142.244
-137.116
-428.206
-119.863
207.041
16.8366
-636.4
619.563
-38.5911
-497.837
536.428
-263.048
290.723
-69.2845
626.084
-729.297
754.214
-24.9163
217.699
-482.444
232.042
-251.527
19.4855
-14.0199
-838.874
27.2914
242.096
-444.766
909.179
-919.323
10.1443
637.084
13.4161
-650.5
-52.585
-540.254
-807.25
840.449
113.018
-207.147
897.674
-78.2678
239.2
-13.8714
-60.4077
-715.994
776.402
-88.2115
-596.914
-19.7341
543.601
-672.591
22.9846
208.155
-240.18
32.0249
-235.072
1.38841
233.683
-558.254
533.545
24.709
-220.758
88.8919
55.1622
93.1855
-148.348
-880.251
314.632
19.316
-333.948
54.9507
637.893
-692.844
-341.821
370.56
-28.7391
-649.306
-23.2854
-666.559
764.272
-896.732
127.606
769.126
-144.811
-168.674
-444.875
63.7024
-457.013
-615.299
242.416
20.1659
-288.56
289.985
-1.42459
179.53
-67.5243
-422.265
393.532
28.7328
-954.882
972.035
-324.321
123.987
200.335
143.104
17.5589
523.835
857.318
-877.223
277.541
-41.8306
365.17
-502.486
-789.518
811.42
-21.9028
-351.958
-183.76
535.719
131.015
-170.599
39.5837
426.443
-526.182
747.006
-683.811
-63.1947
-264.83
-32.7535
315.067
-74.8315
314.54
-291.628
330.692
-652.038
-17.7732
5.5604
633.39
-375.888
154.435
20.6492
-891.502
548.938
-389.682
608.144
368.506
423.443
8.56112
744.65
-805.058
-39.8044
-20.2122
827.284
70.3901
421.102
-499.807
78.705
208.909
-188.477
-20.4319
-206.285
230.203
-23.9187
-7.97292
342.587
-334.614
-617.754
658.864
438.749
254.55
-218.481
-36.0698
365.676
508.917
312.812
-334
707.177
104.053
79.0332
-602.644
523.61
639.734
-35.5955
12.9823
-930.523
114.01
816.513
221.294
-255.468
-250.355
-793.28
732.267
61.0134
5.21417
814.479
-819.693
928.212
-928.212
-377.713
17.6159
602.824
36.9102
-109.126
-30.284
-196.955
227.239
437.526
27.763
-465.289
-434.522
20.5457
413.977
190.008
972.168
-453.287
-224.999
37.4435
187.556
-627.321
630.765
-3.44362
420.697
-469.485
48.7882
-430.782
-3.74057
46.4923
-763.317
716.825
-636.654
-62.6384
-549.143
518.468
30.6749
-366.632
276.074
29.0627
-246.972
217.909
-163.501
-160.82
-28.497
236.085
-26.4001
50.9016
284.094
-276.247
-71.5196
791.608
366.222
-51.5896
-769.499
32.5447
-890.024
814.429
75.5942
132.544
273.895
383.443
155.137
-755.67
858.861
331.866
190.275
-522.141
-162.924
594.449
-644.032
49.583
478.395
59.573
-537.968
640.015
-342.96
-297.055
-475.78
-121.447
-782.205
679.39
27.212
-686.882
659.67
-711.302
108.506
602.796
-764
-4.01921
34.8923
508.561
-87.4581
-522.214
357.225
552.32
-584.651
-35.3884
-65.8215
226.478
-160.656
44.3152
-679.577
-234.29
-229.944
164.122
-28.249
290.111
-121.99
-168.121
170.248
-8.79325
-634.232
721.402
-34.3104
211.993
-177.683
869.865
-629.661
12.4133
155.102
185.923
1.00225
397.509
-398.511
-225.244
-198.941
424.185
180.932
763.532
379.371
-355.513
-842.817
7.62307
626.405
-609.865
-0.390872
-812.691
813.082
589.542
16.0532
-605.596
844.67
46.0775
-890.748
309.549
-8.17081
123.428
-408.473
425.776
8.81447
-255.053
334.794
-79.7418
192.17
381.388
-90.4849
611.083
-54.9393
-556.143
-757.049
783.101
-26.0518
14.7506
647.463
-662.214
-646.309
115.145
-6.08699
-442.319
606.865
34.3859
323.109
-29.9256
186.771
-86.7267
-335.925
1.70345
95.9574
742.967
3.2199
-277.133
273.913
-422.419
-507.524
-57.4417
-757.757
815.199
242.893
-50.7769
198.184
-272.015
73.831
201.474
-95.6144
-220.28
-516.877
-581.322
-792.051
-18.5873
-166.277
-815.756
776.445
39.3105
-34.4101
469.627
-435.217
59.7818
821.338
-881.12
196.645
-141.482
775.241
25.9584
-233.812
203.528
20.0191
-305.878
285.859
575.721
-573.861
-644.265
137.853
506.412
-553.607
587.402
-33.7949
30.1719
257.971
-665.225
-441.851
608.541
45.8057
-654.346
-721.935
606.757
-679.212
72.455
-157.597
-37.1335
449.995
-484.291
-846.692
851.906
106.37
-307.871
-588.861
-642.384
593.262
49.1221
178.898
-73.5602
-43.4474
462.204
177.811
-573.034
59.1767
514.303
-527.038
12.7348
73.2315
-717.661
644.429
266.682
-16.3818
-311.18
165.763
145.417
-564.599
585.357
-120.327
464.055
-343.728
681.416
-86.9671
0.38392
-317.303
316.919
-446.958
-442.753
889.711
-161.944
260.888
-98.944
-102.298
-579.253
-565.356
418.04
147.315
405.774
-39.4785