/*--------------------------------*- C++ -*----------------------------------*\
  =========                 |
  \\      /  F ield         | OpenFOAM: The Open Source CFD Toolbox
   \\    /   O peration     | Website:  https://openfoam.org
    \\  /    A nd           | Version:  7
     \\/     M anipulation  |
\*---------------------------------------------------------------------------*/
FoamFile
{
    version     2.0;
    format      ascii;
    class       volScalarField;
    location    "13";
    object      p;
}
// * * * * * * * * * * * * * * * * * * * * * * * * * * * * * * * * * * * * * //

dimensions      [0 2 -2 0 0 0 0];

internalField   nonuniform List<scalar> 
29540
(
0.0181256
0.216031
-0.0179942
-0.0680989
-0.0050663
-0.07348
-0.028959
0.0174676
0.00417432
0.000366104
0.0114929
-0.00950711
-0.00103217
-5.77171e-05
0.20463
-0.0121978
-0.000387188
0.0726313
-0.00449883
-0.0210457
-0.00182506
0.00391754
-0.0181869
-0.00443809
0.808907
0.21459
-0.00110842
0.685149
0.191932
-0.00343809
0.0324233
0.100207
-0.103756
-0.013251
0.693058
-0.0138163
0.240271
-0.0537449
0.0117075
0.0112949
0.000876538
-0.0329472
-0.000347205
-0.0369205
6.12621e-05
-0.00305868
-0.00827094
0.000142589
0.00686086
0.233933
-0.0416839
-0.0604397
0.10348
-0.0712853
-0.0119337
0.182256
-0.00707257
-0.00187737
-0.0092528
-0.0326323
-0.000138863
-0.00436335
-0.0103746
-0.0121179
0.381117
0.762156
-0.0153724
-0.0171318
0.727578
0.000915602
0.212557
0.573383
0.00480738
0.764947
-0.0157571
0.0121665
0.178767
-0.0480916
-0.000104361
-0.0289857
-0.0661592
0.289899
0.0180302
-2.70985e-06
-0.0253847
-0.161195
0.416983
-0.00107146
-0.000997975
-0.0960389
-0.0433822
-0.0485045
0.0063232
0.0978189
-0.0985309
0.425824
-0.055418
0.000956495
-0.0751794
0.249493
-0.00011004
-0.0453034
-0.000134691
0.0698784
-0.0618375
0.182231
0.492998
-0.000959759
-2.03685e-05
-0.0962443
-0.103325
0.0208979
5.34051e-06
-0.00317619
-0.000375845
0.560099
0.31359
-0.0229296
4.09993e-05
0.00557713
-0.12104
0.230179
-0.0326366
0.759721
0.00225119
-0.00194372
0.080008
-0.0259905
0.00836191
1.70825e-05
-0.0342656
0.161095
0.557363
-0.0586124
0.0692485
0.0314737
0.461686
-0.0461836
-0.152677
0.238939
0.00667308
-0.0839805
-0.0827629
3.83931e-06
-4.76047e-06
-0.00518762
-0.00772344
-0.0815333
-0.114445
0.0247565
0.0524885
0.0261351
0.000864191
-0.000296649
0.304755
0.0010307
-0.0153602
0.435908
0.365691
-0.0392026
-0.0636745
-0.0662767
0.191559
-0.000109274
-5.25521e-06
-0.0230666
-0.0805905
8.9161e-05
-5.70089e-06
-0.0138829
4.49467e-05
0.011707
0.444683
-0.0454834
-0.0779075
-0.010136
0.00426809
-0.0466574
-0.002571
-0.0232057
-3.50259e-05
-0.007209
0.413528
-0.0161083
-0.150966
0.305664
-0.0126134
-0.0349536
0.00783261
-0.0031601
-0.000596475
0.0044403
0.771537
0.299857
-0.0268929
-0.0147458
0.648107
0.270628
-0.0972536
0.002364
-0.0535625
-0.08926
-0.0091032
0.0017067
0.458241
-0.0134034
0.0141244
-0.0817019
-0.0987854
-7.04638e-05
0.610384
-0.00215569
-7.16532e-06
-0.00115262
-0.0409071
0.0153159
-0.0050006
0.0137672
-0.00439885
-0.097082
3.36371e-05
0.00091081
-0.00473326
0.149921
-0.00572978
-0.00302653
0.101441
0.000234906
5.71126e-05
0.0108141
-0.0521502
-0.041501
-0.00951554
0.210402
-0.0286308
0.0276131
-6.04217e-05
-0.00610059
0.00158952
-0.0491762
-0.136901
-0.00285418
0.000929848
-0.00320008
0.00582436
-0.0205259
-0.000103919
-0.15614
6.37798e-05
0.152248
-0.00684039
0.000272177
0.185047
-0.090328
0.0004995
-1.62694e-06
-0.0841354
-0.131403
-0.0175791
-0.0286204
0.0522732
0.396192
0.000149728
-0.0501461
-0.0635872
0.664368
-0.0162211
0.301263
0.0190125
-0.000471045
0.915592
-0.00115021
-0.0815776
-0.0958833
0.00457967
0.0103034
-0.01645
0.564191
-0.00703485
-0.0345725
-0.000583325
0.326255
-0.00594139
0.434488
-0.00107776
-0.0116403
0.655029
0.130503
0.101257
-0.0606177
-0.000327733
0.00565198
-0.000409105
-4.44678e-06
0.141264
7.25639e-05
-0.037486
-0.0666774
0.818118
0.551786
-0.0804511
-0.0361261
-0.0397034
0.0192527
0.00584253
-0.035412
-0.084475
0.405493
0.578717
-0.00266249
0.485097
0.137359
-0.0330158
0.0228739
-0.00330082
-0.0155067
-0.0108222
-0.00545255
-0.000126285
-0.00366892
0.0230288
0.333447
0.0033464
-0.0515983
0.0266529
-7.87021e-05
-0.0823641
0.85697
-0.012715
-0.00286648
0.0244242
-0.0275092
0.179023
-0.00303954
-7.25667e-05
4.8188e-06
-0.00550642
0.65926
0.0478634
-0.138039
-3.04917e-07
-0.138096
0.10862
-0.0103477
-0.0910771
-0.00262577
-0.000939367
-0.047458
0.00189057
-0.0230372
0.0217319
0.140641
-0.000348279
0.00440158
0.228045
-0.117148
0.000850656
0.00090596
0.555026
-0.0432511
-0.00332109
0.28317
0.676216
-0.0529095
-0.0144091
0.0240458
-0.00163284
-0.0171239
-0.0068803
0.264886
-7.22692e-05
0.0209176
-0.114207
0.562144
0.755268
-0.0122474
-0.0179941
0.393753
-0.0341157
-0.000122419
0.0849252
0.158167
0.160858
-0.0147556
0.0524411
0.67781
-0.127878
0.611916
0.569717
-1.61479e-05
0.0245891
-0.116443
-0.00602491
0.00341081
0.681921
0.0475135
0.00057234
-0.0636742
-0.0910063
-0.0114131
-0.000274474
0.442739
0.307386
7.19032e-05
0.0086387
0.0114362
-0.103304
-0.0602887
0.000102727
-5.58043e-06
0.00102412
0.186061
-0.0533633
0.442774
-0.0912849
-0.0349242
-0.0420033
0.277377
0.000405669
-0.00258306
0.017083
0.00175957
0.618813
-0.0495954
0.0022865
-0.0153015
0.0112715
-0.0032003
-0.0247076
0.000479389
0.00049266
0.868017
-0.0164688
-0.0103948
-0.000983862
-0.00159457
0.376086
-0.116114
-0.047811
9.64401e-06
-5.00861e-06
-0.0512143
-0.0138264
-0.010777
0.0360797
0.0131569
-0.00561241
0.0470393
-0.0346574
0.602075
0.0102273
0.000509214
-0.0802295
-0.0460898
0.0298446
-0.00705068
-0.0479779
-3.33166e-05
0.731594
0.0408852
0.000158968
0.771599
-0.0492781
-3.55109e-05
0.00309082
-0.0821371
0.0224621
0.0887589
-3.79138e-06
-0.0163829
-0.0129222
-0.0110829
-0.00103432
-0.0169068
0.654403
-0.0171307
-0.0238635
0.319708
-0.00595608
0.638101
-3.92983e-05
-0.0319596
-0.0827509
-0.0470365
-0.0804081
-0.00333518
0.00374228
-0.000387611
-0.0376782
0.0171235
-7.40818e-05
1.31519e-05
-0.013052
0.598012
0.0154923
0.00537594
-0.0985379
4.54482e-07
0.0020884
-0.000123427
0.019737
-0.0348868
-0.000863649
-0.0163002
-0.0250515
0.00219392
-4.15628e-05
-0.0549859
-0.000879155
0.0986323
0.519719
0.401135
-0.00868535
0.0129511
0.0539005
-0.000261083
-0.00733977
-3.552e-06
0.57586
-0.0276937
0.0355913
-0.0338092
0.00352731
-0.00658906
-0.000247206
1.58799e-05
-0.0100705
0.092455
0.373588
0.00267011
-0.0727058
-0.0492215
-0.0161652
0.0282819
-0.0028745
0.00238156
-0.0116234
-0.000228572
-0.0840539
0.413853
0.286301
-0.0438555
0.40595
0.000160844
8.16114e-06
0.0890274
0.0201802
0.759933
-0.0738175
-0.0419558
0.0210518
0.00253675
-0.0121353
0.000977144
-0.0215026
-0.0259086
-1.46394e-05
-0.00196071
0.557442
-0.000335334
0.708674
-2.23285e-06
-0.0737906
0.0933983
0.0532632
0.00225845
0.000388869
0.585243
0.102901
-0.0846992
0.295644
-0.0136274
-0.0265536
-0.00862661
0.345705
-0.0500923
0.0227896
-0.0156158
1.57872e-06
-0.00284346
0.012746
-0.03527
-0.0429004
-0.0792639
-0.0356456
0.194487
-0.00462116
-0.0955776
-0.027441
6.37267e-05
-0.0242401
0.0181192
0.197675
-0.0527822
-9.58157e-06
-0.0362478
-0.000941769
0.00302739
-0.129378
0.441294
0.00194246
-0.0239062
-0.0434171
0.133015
0.642707
0.00393626
-0.0097147
0.345935
0.253707
-0.0301184
0.0106789
-0.0868045
-2.24913e-06
-0.0758994
0.000172671
-0.0434161
-6.69574e-05
4.86077e-05
-0.0126268
-0.00718918
0.522081
0.0194494
0.0249363
-8.88203e-07
-0.013139
0.000181553
-0.00691052
4.91458e-05
0.0946136
-0.00106874
0.285318
-0.000298016
-0.025631
-0.0669853
-0.00903676
0.637818
-0.032722
-0.0812774
-0.0118674
0.0899723
-0.0774567
0.0587182
-0.0318449
-3.99148e-06
-0.0107085
-0.00846481
0.000523419
0.00017431
0.341857
-0.0104442
0.144732
-0.00900419
0.00186294
0.0651366
0.000346668
-4.22025e-05
-0.075018
-0.00749974
5.58854e-05
0.37215
0.827266
-0.000483753
-0.0646201
1.18781e-05
0.688125
-0.0835885
-0.0678287
6.83609e-05
0.0237715
0.111577
0.130306
0.0870501
-0.000927188
-0.000349407
-0.03058
2.00509e-06
4.69767e-06
-0.0509629
-0.0537707
-0.0777707
0.793556
0.000422519
-0.0553346
0.0166322
-3.8239e-05
-0.00268334
4.68537e-05
-0.012687
8.67583e-05
-0.0290982
0.0568721
0.630332
0.0874129
-0.000634134
0.000979718
-0.109049
0.141659
-0.00666345
1.75303e-05
0.316897
-0.14697
-0.0715853
-0.0280104
-4.52548e-05
-0.000628136
-0.150166
-0.0404713
0.237545
0.599475
-0.0793071
-0.00277953
-3.66152e-05
-0.0789423
-0.102824
-0.000465971
0.00581304
-0.0291338
-0.00994656
0.577918
-0.00284453
0.00358023
0.191852
-0.0160071
0.763336
0.757877
-7.27818e-05
-0.000105649
-0.0322905
0.0333948
-0.0626696
0.0114802
-0.0155019
-0.00128174
0.66696
0.278301
0.00492811
0.904294
9.13256e-06
0.180122
-0.0918847
-0.0540904
0.000187658
-0.0648815
0.186389
0.0319772
0.117867
-0.001008
-0.00108558
-0.00743816
-0.0074052
-0.0269089
-0.00233902
0.204656
-0.011882
-0.0110423
-0.100237
0.545445
0.0243782
0.0640079
-0.000901471
-0.00114808
-0.0387339
0.00213862
-0.00558968
-4.31045e-05
-0.000810083
0.187001
0.587753
-0.000291478
0.273368
-1.67312e-05
-0.0071467
-3.00937e-05
0.0117669
-0.0637163
-9.15763e-05
-9.44371e-05
-0.0932383
2.97701e-06
0.0884844
-0.0454504
-9.6174e-05
0.282161
-6.06422e-06
-0.000896195
-0.00020245
-0.0106258
-0.000848544
-0.0128401
-0.103378
-0.000756186
0.00924536
-4.28146e-05
0.513231
0.00138155
0.0220246
-0.0591269
-0.0421119
-0.00247416
0.00635019
0.336477
-0.0476748
0.280166
-0.071395
-0.00738031
-5.67291e-06
-0.011989
0.556213
0.311233
-0.0621437
-0.0880711
0.493732
-0.0172212
-0.0873195
-2.98988e-05
-0.04719
-0.00183795
0.882003
-0.079164
-0.000197593
-0.0944231
-0.0492104
0.385532
-0.00552282
-0.0510119
-0.0078531
-0.0117894
-0.00277271
0.384401
-0.134654
-0.0366914
-0.0291999
-0.0254163
0.0121159
0.484828
-0.0355868
0.297324
0.00591404
-0.0818214
0.719914
-0.01751
-0.000515307
0.386147
0.562471
-0.00564474
0.0224554
-0.0135131
-0.0584379
0.347116
-0.0795888
-4.95204e-05
-0.0150816
6.85686e-05
-0.0093509
-5.24646e-05
-0.00942224
-0.00209307
-0.00660112
-0.0960685
-0.00131627
-0.00110546
-0.0023857
0.321042
-0.00439713
-0.00680683
-0.00625573
0.26728
0.0111939
-0.000807381
0.550102
0.747434
-0.0368644
0.667555
-0.0325072
0.516686
0.0115463
-0.0231945
0.00543393
-0.000998129
3.04828e-05
0.00539278
-0.0226708
-0.0368179
0.290411
-0.042169
-0.0373377
-0.00195834
-0.0896921
-0.0444608
0.0137278
-7.8584e-06
0.0207114
0.146807
0.56311
0.0310841
-0.0249689
0.22998
-0.000732667
0.0709083
-0.0331859
0.00128767
-0.0932485
0.00650825
0.518092
-0.00422263
-0.00113023
-0.000278728
-0.0842564
-0.00257713
0.886824
0.914833
0.0240503
-7.47454e-05
0.016735
-3.66073e-05
0.109771
-0.00111839
0.0430424
0.817158
0.0392439
3.25265e-05
-0.015392
-1.99339e-05
-0.135009
-0.0617467
0.66697
0.000443274
0.02317
0.00597994
0.000552063
-0.00448742
-0.00061843
-0.0113864
-0.0637501
-0.0414091
0.0134988
0.275259
-0.0243927
0.0124129
-0.0368403
-0.00351784
-0.0485665
2.02724e-05
8.14804e-05
-0.00424565
0.0537164
-0.0508717
-0.0292247
-0.00693882
0.00520263
-0.0322572
0.366862
-0.023423
-6.15264e-06
-0.0897799
0.614247
-0.056254
-0.0219403
0.114836
-9.87792e-06
-0.00132372
-0.0503043
-6.0341e-05
-0.000872562
-3.76542e-05
0.904999
0.0168667
0.00685629
6.90318e-07
3.63091e-06
-1.84275e-05
-2.22398e-06
-0.0404018
0.565186
-0.0616315
-0.000907795
-0.00031454
-0.00965683
0.662595
-0.0839157
0.607889
0.0377231
0.221557
-0.000255077
0.655583
-0.00412124
-0.0169172
0.0206582
0.0155648
0.0177604
0.290891
-0.0701882
0.647504
0.439083
-0.0147544
-0.0491952
0.00199212
-0.0509559
-7.48207e-06
-0.00174275
0.00504165
0.118128
-0.0118332
-0.0405666
-0.00592317
0.78963
-0.101142
-6.30755e-05
-5.36149e-05
0.674401
-0.00890555
0.00432212
-0.0233319
-0.00411143
-0.026761
-0.0172762
-0.05158
0.120574
0.0440802
-0.0177831
-0.0249804
0.000131746
-0.0102695
-0.00192431
-0.0140725
-5.13079e-05
8.83441e-05
-0.0298217
-0.0350897
0.64054
-0.0354338
-0.000377514
-0.00271157
-0.000572358
0.546731
-0.048656
-6.43165e-05
-0.045901
-0.00799736
-0.006254
-0.047878
-0.0553224
0.0118497
0.0962831
-0.0940953
0.000110161
0.0103777
-0.0232828
-1.88897e-05
-0.00011414
0.181425
0.13672
-0.0103539
-0.0811563
-0.0811553
0.000892853
0.703899
0.000110832
-0.0270303
0.581279
-0.029271
-0.0614559
5.80081e-06
0.000246942
-0.0611897
-0.016133
0.00237218
-0.0547905
0.353951
0.410822
0.0011477
0.000407722
0.321724
-0.0214216
-1.97645e-05
-0.00255236
-0.0470894
-0.0364356
-0.0169227
-0.00315251
0.282468
2.18844e-05
0.121546
0.419589
5.10818e-05
0.0180072
-0.000778515
-0.106955
-0.0230178
-0.00115646
0.0448846
0.000311539
0.344562
0.00234905
0.0358148
0.0256575
0.817472
0.537973
-0.0868873
-0.0117664
5.85399e-06
-0.0366622
-0.0213149
0.232405
0.484395
-0.0544793
-0.0157725
-0.0253016
-0.00974915
0.21887
-0.000317987
0.657772
0.0392084
7.45079e-05
5.3357e-05
0.000152022
-0.0192536
-0.0264412
0.00108461
0.0687866
0.172571
-0.0803223
0.000815931
9.89687e-05
-0.034082
-6.27413e-05
-0.00424035
-0.0164139
-0.00104462
0.0212872
0.00662155
-0.00202184
-0.00557437
-0.0231254
0.538409
0.553397
0.0559284
-1.50085e-05
-0.000813417
0.373314
-0.000681157
-0.121858
-0.000304326
-0.0285462
-0.102683
-0.000314202
-0.000342871
-0.0459448
0.00200351
-0.000110842
-0.00192853
0.302988
-0.0489002
-5.92483e-05
0.140017
0.517022
0.536723
0.000894733
-0.111432
-0.0132439
0.610679
-0.0884833
-0.090535
-0.00768513
-0.018241
0.0413826
-0.0358696
0.536689
0.115353
-0.000265267
-0.0740912
-0.0981989
-0.00537963
-2.33518e-06
-0.00255079
0.313495
-0.000286538
-0.000464649
-0.00563525
-0.00169964
0.0127232
0.0413317
-0.000274319
-0.00018185
-0.00940244
-0.106308
-0.0493517
-0.0962888
0.359296
-0.00238249
-0.000402892
-0.0495815
-0.0333864
0.0137892
0.0189032
7.8629e-05
0.104001
0.212858
0.0266019
0.0345898
-0.000909836
-0.0185546
-0.0208023
0.00181746
-0.000100024
-0.0128507
-0.00565044
-0.00105261
-0.0154341
-0.00120887
0.360313
-0.0125562
-0.140207
-0.0328803
-0.0148704
0.0164774
0.685184
-0.059512
-0.000184864
0.651861
0.240741
0.0108206
-0.00816978
0.010527
-0.0121756
0.232533
0.000474164
-0.00387265
0.815126
0.427063
0.476127
-0.0606531
-0.00197779
-0.00173874
-5.93105e-05
-0.00183293
0.425595
0.118465
-0.0058776
-0.0066119
-0.000525918
-0.0427277
0.766886
0.582189
0.113743
-0.00395305
-0.0852145
-0.00627713
-0.00103245
-0.028373
0.0192061
-0.0373276
-0.00491643
0.00123004
-0.109849
-0.106717
0.0423444
-0.0337643
-0.00525148
-0.035368
-0.000289166
-0.00953981
-0.000981538
0.505353
5.89291e-05
3.17124e-06
-0.0347716
-0.0269685
-0.0390166
0.0543329
4.03746e-05
-0.108573
0.0908168
0.288971
0.87264
-0.00637847
-0.118393
0.0422883
-0.00290134
0.0647212
-0.000851259
0.0144552
-0.000280874
0.372444
-0.103427
0.0147667
0.175871
0.169116
0.00201614
0.0040824
4.7886e-06
0.612853
-3.06722e-06
-0.0609593
0.000451412
0.00230554
0.262997
0.145731
-0.0943974
-0.0526256
-0.00560261
0.911233
-0.0959307
5.92513e-06
-0.0211485
-7.05634e-05
-0.0200058
0.148744
0.290783
0.00121178
-0.0472331
-0.0128314
0.217063
-0.00309261
-0.0436552
0.796682
-0.0134744
8.76689e-05
-0.151397
0.824888
0.00271946
0.133443
-0.0582992
0.206232
0.00258827
0.0446208
-0.100731
0.00768592
0.0769199
-0.0334424
0.269313
-0.035317
-0.0262867
-0.00112189
-0.00112788
0.716544
-1.28788e-05
-0.00747044
-4.79797e-05
-0.01102
0.000473826
-0.00987502
0.360989
-2.23995e-06
-0.0014254
0.0504545
-0.145919
-0.0315523
0.00154874
0.591552
-0.0684257
0.251655
-0.0161531
0.227576
0.00949394
-0.00104877
-0.0915441
0.00104637
0.735326
-0.0365262
-0.000174008
0.00309706
0.208126
-0.0152379
-0.000981604
-0.000190263
-0.10425
-0.00357854
-0.0132503
-0.0943681
2.88012e-06
-0.0905594
0.000549068
0.517307
-0.013852
0.218445
0.00617865
-0.00504797
0.396911
-0.0737581
-0.153548
-0.00592024
-0.107335
0.410263
0.4349
-0.0190095
-3.417e-05
-0.0209847
0.00635893
8.62613e-06
0.0706625
0.560219
0.0173325
0.00216549
0.0120953
-0.0920184
-0.000240985
0.111434
0.067248
0.10321
0.0182342
0.0381908
-0.000544985
0.259662
-0.0986537
-0.149716
-0.00139843
0.0271834
0.211456
0.00108888
-0.0946923
0.321573
-0.0531157
-0.095733
-0.0995582
-0.113462
-0.113605
0.0740081
0.324334
-0.11917
-7.18517e-06
0.00114243
-0.046822
-0.00247754
0.0100485
-1.24484e-05
-0.00784586
0.00545599
-0.000102367
0.0809049
-0.000727427
0.176324
-0.0443996
-0.00806309
-0.00941955
-0.0117062
-0.0881607
-0.00804906
-0.00144419
0.0294515
0.111538
0.0062814
-0.0445856
-0.00407893
0.0406202
-0.0129143
-0.026133
-0.0982175
-0.021576
-5.42646e-05
-0.0207184
0.650379
3.68351e-05
0.121782
-0.0595177
0.780695
0.0683425
-0.0626974
-1.12339e-06
0.00229927
-0.108672
-2.8768e-05
-0.00374533
-6.50021e-06
-0.0942679
0.00621179
-0.0998971
-0.0311804
-0.000181238
0.404543
0.390347
-0.0479194
0.000607215
-0.000249347
-7.69866e-06
-8.48175e-05
0.706644
-0.0018473
0.00312946
0.030203
0.00129178
-0.00083734
-0.100037
-0.000387839
0.0640621
0.00322587
-0.00290712
-0.00104635
-0.0348689
-0.0553297
0.262684
0.125802
-0.000234958
-0.0179972
0.000733473
-0.0825214
-0.000839738
0.191782
-0.0123324
0.911704
-0.0205367
-0.00203649
0.106467
-0.025905
0.510663
-0.0561682
-0.0154981
-0.0177842
0.025496
-0.0050114
6.15099e-06
-0.0114477
0.452029
-0.0592695
-0.00452343
-0.0564738
-0.0368206
0.221836
-0.000721785
0.410056
-0.00341411
-0.0860956
-0.000755098
0.0183891
0.0641804
-0.00736249
0.491093
-0.000674857
0.0463047
0.126455
0.000657098
-0.000201723
0.762284
0.0899262
-0.00128606
0.0416451
0.0266301
0.000165062
-0.085612
-0.030373
-0.136104
-0.0143497
0.491539
0.00590729
0.204188
-0.000568444
0.583021
-0.0935715
-0.00739054
0.00864599
0.0440031
-0.0873284
-0.126681
-0.0118984
6.03225e-05
0.834423
-0.0309317
0.00111581
-0.0422067
-0.053803
0.502476
0.00414859
-0.0224495
-8.18168e-05
0.0955831
0.0111825
-0.0522135
0.00110958
-0.00488611
-0.0383758
4.83824e-05
-0.0703228
-0.00221046
-0.020468
-0.0866077
0.425883
-0.0142136
0.0375644
-0.0560423
-0.0430956
-5.70507e-05
0.000188764
-0.00529009
5.04726e-05
-0.0156111
-0.048207
-0.00292258
-6.5047e-06
0.741383
0.0069856
0.000441785
-6.39286e-05
-0.00301472
0.482885
-0.0715761
0.835646
0.27663
0.031239
0.418349
-1.43984e-05
-0.0199448
-0.00120983
-0.00351344
0.2896
-0.0139844
0.841592
0.380416
-0.0764525
0.398172
0.0123043
-0.0197448
0.00310994
-0.0578761
-0.0056144
-0.0704076
-0.0761376
-0.00427616
0.392715
-0.0138485
0.000187282
-0.00608051
-0.000962389
-0.0473452
-0.000245497
-0.00180416
-4.03645e-05
0.236942
-0.12587
0.405364
0.0393182
-0.00390347
-0.0451024
-0.0278914
0.105376
-0.00435751
-0.00153082
-0.0880446
-0.0618392
0.0134147
-0.0585738
-0.00636935
0.0122285
0.00340827
3.93058e-05
0.202957
-6.60197e-05
0.0815819
-0.00116967
4.29462e-06
0.00276474
-0.000978504
-0.00176127
-0.022283
0.254224
0.220265
-0.0280542
-0.0176892
0.00404545
-0.00728928
-0.0143593
-0.000103185
-0.000720664
0.000945663
0.167874
-0.0121426
-0.0769249
-0.0666383
-0.00325768
-0.0313021
-0.0189276
-0.00246813
0.0074471
-0.0174976
0.36147
-0.0909737
0.0081954
0.00245574
-0.0524159
0.821454
-0.0140619
-0.0070713
0.0109154
0.119265
0.00563062
-0.0054636
0.39459
-0.00053744
0.0632932
-0.0324284
-0.0721912
0.00893473
-0.00531137
-0.00785758
0.0589447
-0.00516966
-0.000914596
-0.000980211
0.00354751
-0.000350174
0.0439711
-0.0132148
-0.00293056
-1.37273e-05
0.239675
-6.4281e-05
-0.0432502
0.115128
-0.0334632
0.000172714
0.166114
-0.054199
0.259534
-9.09538e-05
-0.00560834
0.109361
0.000235988
0.00694521
-0.00643953
0.014798
-0.0291012
-0.0448271
-0.0124933
-0.00384989
0.0139827
0.0293977
0.0306881
-0.000276392
0.173276
-0.055247
-0.00471854
-0.00986122
0.000550496
-0.0773158
9.93444e-05
0.656007
0.322601
-0.000717809
-0.0297895
0.000122528
-0.00311828
-0.00780657
-0.0221444
0.238889
0.207217
0.0196164
0.0143853
-0.0980567
0.0515996
0.0406512
0.0479365
-0.0696126
0.0223597
0.315408
-0.0134689
0.563426
-0.00133892
-0.0153851
-0.0665244
-0.000144812
-0.00109371
-5.9615e-05
0.559184
-0.0145355
0.000355973
-0.0217385
-0.00717202
-0.000475802
-0.0184269
0.418103
0.00136757
0.0154061
-0.0407888
-0.000716402
-0.00650486
-0.00116102
0.85244
0.000283705
3.6143e-05
-0.00276725
-0.0199892
0.0774596
0.000730715
0.0163764
0.112356
-0.000242822
0.00287765
-0.0969179
0.0205959
-0.0580638
1.34474e-06
0.000454171
-0.00825327
0.045148
0.463013
0.136251
-0.047466
1.58972e-06
-0.0704755
-0.00372942
-0.0174319
-0.0168632
0.26483
0.62977
-0.000157317
0.221417
0.354832
-0.0135454
-0.0264736
-0.0317169
-0.0187501
0.000144023
-0.0545746
-0.0119737
-0.000190008
-0.00078783
-0.00223217
-0.00269108
-0.000965761
0.452659
0.485395
0.276902
-6.20883e-06
-0.0318795
0.0165217
0.155267
0.66434
-0.00070136
-0.0279434
-0.0253288
0.448062
-0.0262132
-0.0131551
-0.0113664
0.227419
0.000397833
-0.000716311
-0.0343662
-0.0561341
0.196465
0.0515089
-0.0553038
-0.0326519
0.0521018
0.0281653
-0.0656752
0.009723
-0.0350339
0.180259
-0.000505795
-0.000892889
0.132471
0.00027451
0.0320052
0.0445864
-1.52917e-05
0.405544
-0.0145727
-0.00619927
0.87159
-0.0497038
-0.013244
-0.0520165
-0.00367806
0.623734
0.00158396
0.823404
-0.000199525
-0.024223
0.842336
0.0095508
0.620601
-0.007985
-1.16199e-05
-0.0332195
0.636321
-0.00221926
-0.00920949
-0.0112176
-0.00141627
-0.0290677
0.636482
0.156629
4.839e-06
0.0279541
-0.00520729
0.0418665
-0.00125614
0.0324247
-0.00367664
-0.000673562
0.604099
0.652427
0.610615
-0.0684415
-0.0177392
0.000188597
-0.075457
0.416143
0.0221985
0.000316211
-0.0816064
0.000802027
-0.000151153
0.647168
0.000165323
0.00584809
-0.00268961
-0.0124674
0.617049
0.638588
0.656021
0.0164887
0.000642489
0.311062
0.0105385
0.033536
-0.0125273
9.2769e-05
-0.00410666
-3.17121e-05
-0.00630068
-0.00105119
-0.00793698
-0.000105431
0.216375
0.00291729
-0.090595
-0.0125739
-0.0927849
-0.0221637
-0.00108784
0.510522
-0.0147546
-2.28345e-05
-4.4245e-05
0.811611
3.82764e-05
0.0158386
0.0783181
-0.0243887
0.439139
-0.00722782
-0.0575381
-0.0491525
-0.000722494
0.000165126
0.374607
0.652174
-0.00215463
-0.0293233
-0.000331421
0.646013
0.782684
-0.00200858
-0.00890769
0.026906
0.00421595
-0.0329303
7.68941e-05
0.0140744
-0.0500425
0.0790513
0.514557
-0.00209248
0.0400111
0.126262
0.0277275
-0.0589305
0.0394659
0.759385
0.264678
-0.0708245
0.656289
-0.000829234
0.663037
-0.00999128
0.546307
0.106253
-0.00698034
0.0489686
0.0033247
0.0245415
-0.095423
-0.000938283
-0.0313065
0.544405
-0.0351358
0.0337967
-0.00205223
-0.0346582
0.254214
-0.0125372
-0.122967
0.000963828
-0.00498583
-0.0320005
-0.00298613
0.00271785
-0.0120453
-0.000701272
0.00334033
0.539935
0.0030113
-0.0215319
-0.0763325
-0.0386226
-0.0828983
-0.102958
0.00577337
-3.23021e-06
-2.08753e-05
0.37179
-0.0723592
7.97949e-05
-0.0731148
0.251783
-0.0775473
-0.0201302
0.000153539
-0.00261458
-0.0606789
0.196949
-0.011636
-0.000669633
-0.0605556
-0.0261586
0.843648
0.155083
0.0945284
-0.0652116
-2.65772e-06
-0.00913056
0.0898062
-0.000518135
2.49659e-05
0.23594
0.13788
0.000830233
-0.00118743
0.0106926
-0.0489508
0.0141333
0.0111461
-0.0201678
7.07056e-05
0.405623
0.000784538
-0.000879528
-0.000330692
-0.000304902
-0.000219157
0.112922
0.00128458
-0.00381512
-0.0128097
-0.00637354
0.0393221
-0.00728757
-0.0542877
-0.0138901
0.589998
0.484013
-0.000679115
-0.00199384
0.133321
-0.00112666
-0.027393
0.0750994
0.0570145
-0.0013253
0.0280535
0.0549021
0.00174293
0.123671
-0.000145947
0.0100593
-0.0184811
0.0187915
-0.0191705
0.0666726
9.5154e-05
0.000428783
0.000355759
-6.97429e-05
-0.00206517
-0.012849
-0.0169138
-0.0380429
0.0668112
0.0515575
0.012306
-0.0806401
0.0151991
0.00935154
0.01753
7.70081e-05
0.636644
-0.0108891
-0.00435936
-0.0313446
0.855098
8.30504e-06
0.0676835
-3.09844e-06
-0.0490173
-0.00847088
-0.0282608
0.23484
-0.00527188
-6.07234e-05
0.211156
0.0973372
-0.000749972
0.0694117
-1.4293e-05
0.220994
0.00905903
-0.0362488
-0.000198619
0.329538
0.0382441
-0.0263419
4.68779e-05
0.229345
0.437369
-0.00149409
-5.30881e-05
-0.0460952
-0.0117239
0.00846406
0.0301349
0.667111
0.37487
0.000619589
0.476764
0.336906
-0.00372446
-0.0705151
-0.0449755
-0.0202535
-0.0684688
0.129495
0.00105914
0.694851
0.198181
0.016384
0.000110673
0.000813648
1.16998e-05
-0.000748201
-0.00362983
0.748764
6.22376e-06
0.105389
0.0357603
-0.000303841
0.694241
0.78436
0.266844
0.313384
-0.0599752
0.00320589
-0.000381873
-0.0141185
-1.58229e-05
-0.00143954
-0.143296
-4.25868e-05
-0.00234795
0.71036
-0.014822
-2.51723e-05
0.737077
0.000587337
-0.0446654
-0.086438
-0.00171197
-0.0971601
-0.000308612
0.171611
0.00430465
-0.0216954
0.00248422
-0.000858528
-0.00051604
-0.000293401
-0.142749
-0.0749067
0.205647
0.00360072
-0.00662505
0.31716
9.29089e-05
0.822044
-0.000712751
-0.10491
0.00289013
0.00208497
0.0668487
0.0703635
-3.58368e-07
-0.00529675
0.000131545
-0.000876413
0.00107246
0.110169
0.0639042
0.445397
-0.0536689
-0.000130097
0.000210973
0.129709
0.490562
-0.0056991
-0.00800938
0.818838
-0.00356531
-0.025922
0.00110141
0.0813569
-0.0518118
-0.0108152
0.21034
0.00169448
-0.000328749
0.00210633
-0.0335708
0.811706
0.634307
-0.0302342
-0.0475328
-0.00812604
0.00198798
3.15032e-05
0.0984732
0.264377
4.39525e-06
-0.00924181
-2.34957e-05
0.00016387
0.597168
-3.13374e-07
-0.0930973
-0.0704763
-0.10839
0.0908118
5.18907e-06
0.0127443
-0.00772831
0.55008
-0.00197126
0.00638802
-0.0378129
0.000795168
0.491585
0.280873
0.0139099
0.0687509
0.719796
-0.0785345
-0.071503
-0.00244127
-0.00888506
-0.000500364
0.0296127
-9.42296e-05
0.220873
0.00370586
0.252016
-0.0430103
-1.59762e-06
0.0722128
-0.00021919
-7.5383e-06
-0.000975241
0.800498
0.767475
0.430026
7.27699e-05
0.21674
0.662349
-0.00125088
0.0020837
-0.010672
0.0879935
0.642472
-0.0343355
0.15982
-0.00320677
-0.0796912
-0.0894421
0.884577
-0.000771835
0.632995
0.1146
0.254623
0.000131934
0.00026217
0.00684953
-0.0112659
0.107615
-7.09648e-05
8.26015e-05
0.620804
-0.113658
0.000359115
0.651218
-0.00293906
0.000187644
0.525415
-0.00859482
-0.00196381
-0.0428284
0.174108
0.00039583
-0.00017071
0.00436808
-0.00512911
0.616241
0.796272
0.382534
0.861383
0.101599
-0.0569901
0.726763
-0.000103051
-0.0040832
0.136516
-0.0043573
-0.000834276
-0.000127961
0.649719
0.0290497
-0.000831215
0.773792
0.097441
0.304863
0.055706
-0.00344664
-0.0256911
0.193669
0.0929294
0.649884
-0.029602
-0.00100062
0.593995
0.551307
0.0167098
0.455665
-0.047656
-0.0097973
-0.0116633
-0.000816403
-0.000179566
0.600758
-0.0760011
0.00166087
0.00108755
0.204547
-0.0390051
-0.0212776
-0.00126255
-0.00474137
0.674287
-0.00102026
-0.0216308
-0.0037849
0.665657
-0.02395
0.0252995
-0.00938961
0.00173922
0.199597
-0.0272993
0.688672
0.0876975
0.859365
0.333143
-0.0737621
0.0395145
-0.00225156
0.0107372
-0.0730701
0.625455
0.668962
0.750151
0.43022
0.607348
-0.000477896
0.709294
-4.01353e-05
8.45337e-05
-0.058504
0.770224
0.0638939
0.32035
-1.28632e-05
-0.00273494
-0.094965
-0.0427968
0.614106
-0.000865278
-0.00961112
0.428743
0.00128341
-0.00533093
0.832658
0.0597002
-0.0490604
-0.165808
-0.000689928
0.0562507
0.0628181
0.870688
0.0603894
0.0341837
0.00536078
-0.000300909
-0.00775942
0.248694
0.00739115
0.000159787
-0.103559
0.318469
-0.00186647
0.635844
-0.0843116
0.64277
-0.0293481
-0.028026
0.722452
-0.00666011
0.0130196
-0.000519379
-0.00165971
-0.0782542
-0.027648
-0.0445351
-0.0120773
0.00558661
-0.108127
-0.0855367
0.641953
0.000314617
0.000930755
-0.0249926
0.148386
-0.113131
-0.0712432
2.74322e-06
-0.108282
0.0584064
-0.000134573
-0.0939475
-0.113898
0.647647
-0.106987
0.63523
-0.0168526
0.129407
0.325257
-0.0426135
0.4113
-0.0022057
0.110365
0.00126233
0.106844
0.248754
0.221377
-0.0344623
0.00755941
-0.000853971
0.227043
-0.000103875
-0.000164857
-0.00130764
-0.00263998
0.0198233
0.0184323
0.537012
0.189364
0.811379
0.495242
-0.00191161
-0.0398786
-0.000214847
-0.0576282
-0.00151794
0.00711456
0.000774522
-0.0392338
0.435258
0.631581
-0.000366762
2.69306e-05
0.0235673
-1.6705e-05
-0.0112273
-0.000232097
0.159927
-0.0428969
0.236511
-0.099919
4.47946e-05
-0.0169447
-0.0475773
-0.0301284
-0.0198722
-0.0631231
0.0574164
-0.000205401
-4.3055e-05
0.00252509
-0.000176791
0.0908805
0.0601208
0.0480319
0.753075
0.0548035
-0.134218
-0.102499
-0.000553985
0.0627411
-0.000158241
0.596474
0.121857
0.70329
0.000165975
-0.0391868
-0.00831071
0.0602156
0.197976
0.545407
-0.00921905
0.0369476
-0.00238386
-0.0227685
-0.00974078
-0.00743523
0.130955
0.00191481
-0.00981067
-0.024432
0.29029
0.0752309
4.49201e-06
-0.00110023
-0.0075628
-0.000754654
0.134516
-0.000828911
-0.034391
0.175258
9.34823e-05
0.322494
0.000105378
-3.86192e-06
-0.102993
-0.0214253
0.000196071
-0.0270975
0.00019441
0.736393
0.0151093
-0.0292712
0.67888
0.155744
-0.0376664
0.527565
-0.00338263
-0.00229424
-0.00255882
0.100102
0.916479
-0.00184425
-0.00075633
-3.44359e-06
0.00948759
-0.00154312
0.0308322
0.00742939
-0.0251895
-0.0700881
0.0223887
0.0128626
-0.0224893
-0.000671312
-0.0328363
0.523998
-0.00221785
-0.0165906
-0.000288797
0.539017
0.0651123
0.51726
0.000513725
-0.00105271
-0.0284436
0.75405
0.178042
-0.0338432
-0.000164171
0.0380522
0.0983848
-0.0267295
0.24685
-0.0566852
0.0237178
-0.137827
0.545229
-0.0192225
0.309232
-0.00386684
0.870142
-0.0490395
-0.0132619
0.688274
-0.0510327
0.201959
-0.147416
0.225866
0.00778833
0.0599965
0.414334
0.0601529
-0.0571727
-0.0116763
-0.00913316
-0.0159396
-0.0063861
-0.00183964
-0.0665001
-0.0339184
0.00235451
-0.0775473
-0.0959042
-4.74553e-05
0.107652
-0.0109912
0.0971522
0.699081
0.477742
-0.0634796
-0.0830188
0.000536569
-0.0845691
-0.00521011
0.840625
-0.0419277
-0.0361862
0.47077
0.0577779
-0.0469747
0.265165
-0.0438122
-0.000803429
-0.0140957
0.0121194
0.000787768
0.498098
-0.00330349
0.172555
0.422727
-0.00693696
0.29837
-0.109956
-0.000462082
0.00804663
0.0857616
0.445061
-0.0030861
0.0943162
-0.0813523
0.0796164
-0.027443
0.483506
0.00433374
-0.0790493
-0.00374795
0.00021754
0.631279
-0.00297907
-0.0352701
-0.000135993
0.258179
-7.92835e-05
-0.0540032
-0.00263802
-0.151245
0.000776875
-0.0122375
0.217779
-0.00474479
0.00110107
0.000749458
-0.00499981
0.0496099
-0.000100061
-3.05102e-05
-0.0102528
-0.0126961
-0.0271072
0.00981826
-0.00233658
0.0896932
0.0956292
-0.00156948
0.00121176
-0.000252079
0.62254
-0.0051117
-0.00833991
0.536194
-0.0220351
0.491278
0.0569698
0.642015
0.283327
0.134026
-0.00182905
-0.0061645
0.0965918
0.0268403
-0.00530214
0.000220123
0.0101431