/*--------------------------------*- C++ -*----------------------------------*\
  =========                 |
  \\      /  F ield         | OpenFOAM: The Open Source CFD Toolbox
   \\    /   O peration     | Website:  https://openfoam.org
    \\  /    A nd           | Version:  7
     \\/     M anipulation  |
\*---------------------------------------------------------------------------*/
FoamFile
{
    version     2.0;
    format      ascii;
    class       volVectorField;
    location    "13";
    object      U;
}
// * * * * * * * * * * * * * * * * * * * * * * * * * * * * * * * * * * * * * //

dimensions      [0 1 -1 0 0 0 0];

internalField   nonuniform List<vector> 
29540
(
(1.0069 -0.00930423 4.61038e-23)
(1.00799 0.00310696 1.98003e-22)
(0.993927 -0.00218376 -2.83475e-22)
(0.979026 -0.0311198 9.40902e-23)
(0.998386 -3.429e-05 3.9819e-23)
(0.971818 -0.018786 -1.39018e-22)
(1.03305 -0.0585042 1.33603e-22)
(1.0089 -0.0141986 -4.62867e-24)
(1.00133 -0.00129421 6.37203e-24)
(1.00012 -3.27079e-05 1.66302e-24)
(1.00968 -0.0190158 -1.61683e-25)
(0.998393 -0.0109088 -9.84089e-23)
(0.999682 -0.000129896 5.44403e-24)
(0.99998 -7.03438e-06 1.46015e-25)
(1.13824 0.0656427 5.02924e-22)
(0.996005 -0.00128136 4.31054e-23)
(0.999893 -0.00056368 -2.4266e-24)
(1.10395 -0.0180274 -4.02106e-23)
(0.998589 -0.00119042 -1.35958e-23)
(0.992824 -0.000528159 -6.31497e-23)
(0.999431 -0.000180926 -1.86195e-23)
(1.00126 -0.0012924 2.2364e-23)
(0.993866 -0.00231125 3.13221e-22)
(0.998586 -0.000112136 1.75628e-23)
(0.903482 0.0959808 8.85756e-23)
(1.00864 0.00245379 1.06263e-21)
(0.999657 -3.87584e-05 1.24016e-23)
(0.951225 0.0804075 -6.00601e-21)
(1.143 0.0649221 -1.3729e-21)
(0.999412 -0.00600866 -1.91693e-23)
(1.01022 -0.00763764 3.24708e-23)
(1.02637 -0.0061164 -2.40196e-22)
(0.979265 -0.071554 9.15269e-22)
(0.998346 -0.0151222 4.82381e-23)
(0.94933 0.0765229 4.82113e-21)
(1.00142 -0.0217225 1.27283e-22)
(1.05622 0.03272 -3.41249e-22)
(0.981401 -0.0176046 3.74252e-22)
(1.00356 -0.000551144 -8.68714e-23)
(1.00343 -0.000375062 1.64741e-22)
(1.00029 -0.000111484 -5.10029e-24)
(0.992019 -0.0196469 -3.48472e-22)
(0.999905 -0.000547733 -3.22066e-26)
(1.01291 -0.0492101 -4.97121e-22)
(1.00002 -3.57474e-06 -3.41807e-25)
(0.999532 -0.00609924 1.45631e-23)
(0.998232 -0.00810842 -2.7414e-23)
(1.00005 -5.63788e-05 8.55552e-25)
(1.00219 -0.00243676 -9.10936e-23)
(1.05577 0.0304804 -1.39891e-22)
(1.07172 -0.0775923 9.46614e-23)
(0.981434 -0.027586 -4.28354e-22)
(1.02628 -0.00542994 8.42886e-23)
(0.972679 -0.0186779 -2.28332e-22)
(0.996102 -0.00131731 -3.78834e-23)
(1.14529 0.0544572 -8.35619e-22)
(0.997769 -0.00147943 1.34056e-23)
(0.999414 -0.000199779 2.35835e-23)
(0.999601 -0.0143254 -6.59118e-23)
(1.00418 -0.0390073 -2.3176e-22)
(0.999956 -4.94247e-06 3.43403e-25)
(0.998637 -0.00121879 -2.79722e-24)
(1.20839 -0.0278254 -2.88804e-24)
(1.00171 -0.0212566 -6.88486e-23)
(1.05659 0.0882098 2.82645e-21)
(0.924701 0.0262505 1.19076e-20)
(0.998749 -0.0179693 -1.27956e-22)
(0.995101 -0.00901143 1.28403e-22)
(0.942995 0.0167084 4.77545e-21)
(1.0003 -0.000105992 3.30068e-24)
(1.00977 0.00299599 -1.44873e-21)
(0.988523 0.0652369 3.32663e-21)
(1.00206 -0.00604813 -3.62818e-23)
(0.920971 0.111692 3.32365e-21)
(0.994726 -0.000415458 1.99479e-22)
(1.07994 -0.0481812 2.63225e-23)
(1.20885 0.110446 1.59439e-21)
(0.982385 -0.0100176 8.98174e-23)
(0.999967 -1.48741e-05 -9.75539e-25)
(1.0006 -0.0318558 -2.33873e-22)
(0.973228 -0.000442326 -1.52046e-22)
(1.01819 0.0307441 8.49425e-22)
(1.00704 -0.0097156 -1.39389e-22)
(1 -4.12034e-05 5.37046e-26)
(1.0349 -0.0575261 -2.00752e-22)
(1.12068 -0.153887 -7.48315e-22)
(1.03242 0.0770838 -5.31569e-21)
(0.999669 -0.000128 -4.92469e-24)
(0.999692 -0.000115688 -1.44325e-24)
(0.958991 -0.023316 -6.07636e-22)
(0.993904 -0.0340465 4.5912e-22)
(0.982304 -0.0104957 1.00728e-22)
(1.00205 -0.00252053 1.56619e-23)
(1.04209 -0.0107886 -1.39702e-22)
(0.955986 -0.00990949 -5.00788e-22)
(1.04181 0.0943582 2.66879e-21)
(0.993991 -0.0440368 7.41716e-22)
(1.00031 -0.000255014 8.29877e-24)
(0.97878 -0.0389755 -8.18595e-22)
(1.13452 0.0898311 2.48095e-21)
(0.999966 -1.46146e-05 1.42699e-24)
(0.983279 -0.00655438 -5.35592e-22)
(0.999958 -6.09681e-06 -1.7717e-25)
(1.03188 -0.0159877 -7.02726e-22)
(0.9806 -0.0274258 2.87631e-22)
(1.02776 0.00853129 1.50283e-21)
(1.00294 0.0609354 5.04289e-21)
(0.999705 -0.000117116 -1.22214e-23)
(0.999997 -4.57467e-05 -1.82496e-26)
(0.989015 -0.0706745 -4.17608e-23)
(0.978223 -0.0704729 -8.23266e-22)
(1.02694 -0.0306949 6.07879e-23)
(1.00001 -1.20307e-06 6.18823e-26)
(0.999221 -0.00406018 -4.99738e-23)
(0.999923 -0.00145446 2.05333e-24)
(0.991175 0.0667188 1.92354e-23)
(1.03569 0.0445645 -1.84301e-21)
(0.992313 -0.00467271 -2.15298e-22)
(1.00002 -4.51979e-05 8.35546e-26)
(1.00228 -0.00598448 -2.76064e-23)
(1.20694 -0.108502 2.09909e-21)
(1.00566 0.00973971 2.32607e-21)
(1.11813 -0.0728885 -4.98015e-22)
(0.923217 0.0321332 -1.12957e-20)
(1.00072 -0.000236711 -2.09899e-23)
(1.11752 -0.0534071 -2.10671e-24)
(1.10337 -0.014293 -2.21076e-22)
(1.00729 -0.0380938 1.67961e-22)
(1.00264 -0.00232355 -8.09743e-23)
(1.00002 -0.000290359 1.48078e-25)
(1.01289 -0.0479203 1.7389e-22)
(1.2123 0.103593 8.10369e-22)
(1.00531 0.121066 6.30989e-21)
(1.11645 -0.0884106 -1.86017e-22)
(1.03074 -0.0156197 5.91542e-22)
(1.00992 -0.00729719 6.13171e-22)
(1.06998 0.157906 4.53054e-22)
(0.98261 -0.000478339 7.9086e-22)
(1.04209 -0.145466 2.24704e-21)
(1.13556 0.0843871 -1.88778e-21)
(1.11803 -0.0488975 2.11638e-23)
(0.96354 -0.00297965 -6.50762e-22)
(0.96872 -0.0259166 1.85742e-22)
(1.00001 -1.06622e-06 -2.61294e-26)
(0.999992 -2.07101e-06 7.56393e-26)
(0.998345 -5.64839e-05 -3.15289e-23)
(0.99836 -0.00795208 5.61683e-23)
(0.984107 -0.0554772 -6.27504e-22)
(1.05837 -0.120566 9.60037e-22)
(1.25013 0.0227648 2.31981e-22)
(1.02054 -0.0142739 3.15862e-22)
(1.01153 -0.0138572 1.04533e-22)
(1.00029 -0.000411697 1.27956e-23)
(0.999913 -0.000146411 1.39285e-24)
(1.00184 0.0260444 -5.09448e-21)
(1.00035 -0.00101689 1.49252e-24)
(0.995521 -0.00734609 1.56418e-25)
(1.0838 0.15996 -1.31971e-21)
(1.00486 0.041308 -5.48547e-21)
(1.07444 -0.0758914 -1.73869e-22)
(0.97442 -0.00167783 2.642e-22)
(0.979685 -0.0305631 6.54e-22)
(1.1465 0.0592723 2.21379e-22)
(0.999967 -3.03626e-05 3.08543e-25)
(0.999992 -1.97909e-06 -2.8386e-26)
(0.992277 -0.00491321 7.6388e-23)
(0.969467 -0.025446 -1.00407e-21)
(1.00003 -0.000149332 -8.19088e-25)
(1 -4.37129e-05 1.24092e-26)
(0.995553 -0.00332201 -2.50602e-23)
(1.00002 -0.000281641 -1.22156e-25)
(1.00376 -0.00399424 -4.55877e-23)
(1.07974 0.163414 1.55273e-21)
(0.982857 -0.000246225 -6.51512e-22)
(1.01569 -0.0780318 -2.2539e-22)
(0.996693 -6.39034e-05 1.28308e-22)
(1.00139 -0.00179373 4.73921e-24)
(0.982839 -0.00643287 9.06218e-22)
(0.999416 -0.00405581 -4.51403e-24)
(1.12536 -0.0667903 2.43169e-22)
(0.999986 -6.54703e-06 4.75641e-25)
(1.00701 -0.0262476 -7.58947e-23)
(1.03451 0.0787572 1.90201e-21)
(0.995319 -0.00836836 -7.71965e-24)
(1.03977 -0.141434 -2.07513e-21)
(1.02713 0.0379578 -1.61901e-21)
(0.995884 -0.00183513 -1.85719e-22)
(0.988218 -0.00966497 2.34768e-22)
(1.0025 -0.00233075 1.23457e-22)
(0.999447 -0.00560259 -2.70454e-23)
(0.999817 -4.9792e-06 1.40707e-24)
(1.00365 -0.0120542 2.41048e-23)
(0.919024 0.0160422 4.70687e-21)
(1.00137 0.0226188 3.92077e-21)
(0.990729 -0.00392873 6.21252e-24)
(0.99572 -0.00724204 -7.98828e-23)
(0.979489 0.0360975 -4.47137e-21)
(1.01178 0.0241423 7.27926e-22)
(0.956839 -0.0098235 6.11275e-22)
(1.00075 -0.000323658 -1.64618e-23)
(1.03749 -0.0739454 3.06586e-22)
(0.976638 -0.0511201 8.32324e-22)
(0.99856 -0.0111496 4.73867e-23)
(1.00055 -0.000699766 -2.61928e-23)
(1.07289 0.161988 6.50428e-22)
(0.995696 -0.00333295 -1.69625e-23)
(1.00443 -0.00359888 -5.09196e-23)
(0.983225 -0.054957 8.30774e-22)
(0.988798 -0.0721517 1.07481e-22)
(0.999976 -3.40055e-06 1.15642e-25)
(0.980302 0.0965003 -5.54742e-21)
(0.999325 -1.5573e-05 -3.0482e-25)
(1 -3.52593e-05 1.63467e-26)
(0.999644 -0.000135894 2.09818e-24)
(0.995672 -0.0344682 -1.68653e-22)
(1.20398 -0.00289522 -1.79196e-22)
(1.00771 -0.0257962 1.08897e-23)
(1.00429 -0.00335729 -3.49386e-23)
(0.998601 -0.000155649 4.35434e-23)
(0.957553 -0.0109705 -1.08678e-22)
(1.00002 -0.000309307 -1.8673e-25)
(1.00031 -0.00103795 1.5872e-25)
(0.998492 -0.0001313 -2.87359e-23)
(1.02028 0.000487027 1.38873e-21)
(0.998269 -0.00256296 -8.96549e-24)
(0.999243 -0.00377543 1.48549e-23)
(1.01932 -0.00121129 6.85167e-22)
(1.00008 -0.000253742 1.27889e-24)
(1.00002 -2.97837e-06 8.88183e-26)
(1.00327 -0.000393507 1.79761e-23)
(0.983708 -0.0202033 -3.34202e-22)
(0.984685 -0.000252801 -3.13469e-22)
(0.996895 -0.000243105 -1.36809e-22)
(1.01049 0.00232928 1.19934e-21)
(0.989928 -0.000717652 1.48844e-22)
(1.01175 -0.0134301 -1.00891e-22)
(0.999979 -7.87517e-06 4.12306e-25)
(0.998081 -0.00168904 -5.18435e-23)
(1.00052 -0.000693142 2.83336e-23)
(1.03794 -0.0714454 2.99627e-22)
(1.00505 -0.120178 1.56556e-21)
(0.999101 -8.07334e-05 2.26392e-23)
(1.0003 -0.00036696 -9.89328e-24)
(0.999183 -0.00368089 -5.09154e-24)
(1.00223 -0.00533519 -6.81038e-23)
(0.99297 -0.000389935 -2.67864e-22)
(0.999968 -2.87845e-05 -2.00405e-26)
(1.11959 -0.148768 -1.66143e-21)
(1.00003 -0.000316779 2.08866e-25)
(1.02005 0.000454397 -9.77699e-22)
(0.99784 -0.00148387 -2.70316e-23)
(1.00009 -0.000245307 5.39778e-25)
(1.02701 0.00891733 -9.55379e-22)
(0.974012 -0.0485459 -8.84876e-22)
(1.00016 -2.79835e-05 5.44833e-24)
(1 -7.97215e-06 1.09523e-26)
(0.96345 -0.00213322 -7.42279e-22)
(1.0004 -0.109289 -2.41396e-22)
(0.994385 -0.00526406 -2.01192e-23)
(1.00652 -0.0387954 -4.42934e-23)
(1.0211 -0.014844 -5.18551e-23)
(1.03942 0.0760599 2.35577e-22)
(1.00005 -5.32456e-05 2.36137e-25)
(0.984026 -0.0198165 3.17562e-22)
(1.16361 -0.0916955 7.67424e-22)
(0.964778 0.0510262 1.103e-22)
(0.995276 -0.00817352 6.04099e-23)
(1.02612 0.0366071 1.9678e-21)
(1.08086 -0.0450822 2.73169e-23)
(0.99991 -0.00160064 -1.91057e-24)
(0.847234 0.0453581 7.02303e-21)
(0.999646 -0.000285622 -1.4175e-23)
(1.01452 -0.0798966 -3.01004e-22)
(0.958213 -0.0109855 7.41871e-22)
(1.00147 -0.00169625 -2.60779e-23)
(1.16108 -0.033843 1.34735e-22)
(0.994458 -0.000601678 -1.59185e-22)
(1.00762 0.131375 4.37168e-21)
(0.99774 -0.000172466 1.24046e-23)
(0.988515 -0.0104298 -1.22654e-23)
(0.999861 -0.00145371 -1.20053e-23)
(1.1183 0.122575 5.92313e-22)
(0.999778 -0.0113487 1.19213e-23)
(1.03882 0.0951509 1.64673e-22)
(0.999666 -2.94391e-05 -5.43434e-24)
(0.996206 -0.00122112 -5.96225e-23)
(0.965253 0.11918 -2.85257e-21)
(1.02352 -0.000466437 -1.15567e-21)
(1.01919 -0.000804783 7.95613e-22)
(0.9804 -0.0253778 8.02544e-22)
(0.9999 -2.15998e-05 1.41777e-24)
(1.00217 -0.00513594 -7.85744e-24)
(0.999892 -0.000616494 -4.33561e-24)
(1 -3.33747e-05 1.47723e-26)
(1.04332 0.000946806 3.22808e-22)
(1.00003 -3.47447e-06 8.53012e-27)
(0.987076 -0.00921565 5.5455e-22)
(1.15867 -0.0912598 -7.14006e-22)
(0.901351 0.10035 -6.95746e-21)
(1.00829 0.12143 -9.71227e-21)
(0.976918 -0.0424085 2.73442e-22)
(0.990367 -0.0190283 1.94042e-22)
(0.985413 -0.000967044 1.4953e-22)
(1.02145 -0.0275639 1.96609e-22)
(1.00405 -0.0119021 -4.09334e-23)
(0.988125 -0.0101214 -3.2424e-22)
(0.97681 -0.0464805 1.19326e-22)
(1.03797 0.0783358 -3.57627e-21)
(0.999436 0.0226492 7.25028e-21)
(0.99916 -9.82961e-05 1.24908e-23)
(1.00436 0.0615665 -6.9516e-21)
(1.04242 -9.39822e-05 1.10749e-22)
(1.12321 -0.072301 1.45345e-22)
(1.00893 -0.0109361 4.7984e-23)
(1.00048 -0.0104982 -5.19319e-23)
(1.01213 -0.0364585 -9.99774e-23)
(0.99648 -0.00118147 -1.4073e-22)
(0.998256 -0.00043057 -9.20265e-24)
(0.99996 -4.88565e-06 1.81488e-24)
(0.999333 -0.0057356 4.00283e-23)
(1.06532 -0.0424825 3.06462e-23)
(1.11942 0.127671 -9.98396e-22)
(1.00106 -0.000908363 1.23111e-23)
(0.982119 -0.0165268 -4.46986e-22)
(1.01018 -0.0112864 -1.51897e-22)
(0.999974 -1.09628e-05 -1.57906e-25)
(0.976865 -0.0443742 -4.32112e-22)
(0.879659 0.0780296 -3.1199e-21)
(0.99592 -0.00313345 2.08705e-22)
(0.999254 -0.00301546 1.3258e-23)
(1.00931 -0.0108488 -2.96631e-23)
(1.00049 -0.030928 2.93362e-22)
(1.07238 0.0189428 4.07842e-22)
(0.99959 -0.00651229 -7.04124e-24)
(0.999979 -3.50033e-05 1.01506e-24)
(1.00001 -1.667e-06 3.08934e-26)
(0.998232 -0.000391887 -1.02229e-23)
(0.963397 0.118235 4.12589e-21)
(1.03364 -0.0238886 1.48582e-22)
(1.008 -0.120365 -4.11295e-22)
(1 -8.00851e-06 2.83904e-29)
(0.997964 -0.110913 1.59247e-22)
(1.06188 -0.0083573 -4.65193e-22)
(0.996614 -0.000106662 -6.46314e-23)
(0.959793 -0.00402019 -9.09996e-22)
(0.99931 -0.00296402 -1.32137e-23)
(0.999712 -0.000130924 -8.92436e-25)
(0.984587 -0.017946 -9.59096e-23)
(1.00061 -0.000766587 -1.26622e-23)
(1.13023 -0.0659669 -2.02675e-22)
(1.00621 -0.000778252 -3.64975e-22)
(1.19685 0.0715462 -7.14877e-22)
(0.99993 -0.00157978 2.48296e-24)
(1.0027 -0.0094069 1.3081e-23)
(1.00545 0.00861106 -3.14847e-21)
(1.20144 -0.103507 -8.18057e-22)
(1.00028 -0.00038711 -7.52943e-24)
(1.00029 -0.000343853 7.42047e-25)
(0.994005 0.080108 3.44692e-22)
(0.994524 -0.0347647 -9.25623e-23)
(0.999483 -0.00641022 8.60633e-24)
(1.01095 0.0270595 3.83232e-22)
(0.972281 0.0182206 8.76107e-21)
(1.07082 -0.0809887 -3.25599e-22)
(0.998794 -0.0173405 -3.97482e-23)
(1.19978 0.00012946 1.78143e-22)
(0.999491 -4.80235e-05 -9.40251e-24)
(0.994265 -0.00275269 5.66281e-23)
(0.997787 -0.000180306 -3.51014e-23)
(1.01288 0.0228258 2.97131e-24)
(0.999991 -0.000507143 2.6168e-25)
(1.00601 -0.0009346 3.72953e-22)
(1.07638 -0.123137 2.40994e-23)
(1.00305 0.113882 9.75228e-21)
(0.923843 0.115416 -1.5386e-21)
(0.996009 -0.00183008 7.15299e-24)
(0.994227 -0.00514211 6.04174e-23)
(1.05412 0.0911058 -2.26341e-21)
(1.00427 -0.040204 3.34142e-22)
(0.999962 -5.71477e-06 -1.77044e-24)
(1.24009 0.0620181 9.53518e-22)
(1.01993 0.000932289 -4.16157e-22)
(1.01957 0.000991693 -2.81525e-22)
(0.996041 -0.00893196 -8.59217e-23)
(1.01297 -0.00151731 -5.72097e-22)
(0.955515 0.105236 1.39394e-21)
(1.05211 -0.124671 -2.88821e-22)
(0.982535 0.103982 1.48721e-21)
(0.995608 0.102742 -2.53188e-21)
(0.999998 -4.37599e-05 5.72225e-26)
(1.06312 -0.0411579 -6.77809e-23)
(1.05432 -0.121485 1.83996e-22)
(0.998187 -0.00258411 2.3647e-23)
(1.00109 -0.000980473 -2.02825e-23)
(0.967941 0.0210364 2.09637e-21)
(1.03483 -0.024669 -1.92583e-22)
(1.00019 -5.06867e-05 1.23307e-24)
(0.985285 -0.038492 -9.50633e-22)
(0.975975 -0.0523329 -3.92337e-22)
(0.996288 -0.00125627 8.38142e-23)
(0.999919 -0.00014215 -1.75135e-24)
(1.0496 0.114004 -3.86558e-22)
(1.03532 0.0427984 3.09435e-21)
(1.00003 -0.000345792 -7.32467e-26)
(1.00275 -0.00250163 1.592e-23)
(1.00354 -0.00250549 8.62663e-23)
(1.11869 -0.115546 1.06526e-21)
(0.980471 -0.0247021 -7.11933e-22)
(1.00004 -0.000409532 -5.3639e-25)
(0.99999 -1.23984e-06 -4.35536e-26)
(1.00033 -0.000115292 1.94448e-24)
(1.07117 0.0203657 -3.95766e-23)
(0.981425 -0.0169798 -3.58928e-22)
(1.00242 0.0474953 1.58614e-21)
(0.964413 -0.0282578 4.59291e-22)
(0.990889 -0.0189707 -2.03227e-22)
(0.984259 -0.00075422 -6.29863e-22)
(1.01219 0.0259394 -1.88672e-21)
(1.2005 -0.025251 -1.36015e-23)
(0.999186 -0.000104584 2.28883e-23)
(1.00533 -0.00412371 -9.22958e-23)
(1.00057 -0.000759594 1.43578e-23)
(0.981567 0.114862 -3.8626e-21)
(0.98279 -0.0154672 1.92068e-22)
(1.00073 -0.000192752 -6.85463e-24)
(0.994948 -0.00245531 -7.59193e-23)
(1.12315 -0.0460628 1.03686e-22)
(0.999635 -0.00699755 -1.78657e-23)
(0.99216 -0.0084093 -4.17755e-23)
(1.00016 -9.75091e-05 -3.77196e-24)
(1.00016 -3.63086e-05 -1.66596e-25)
(0.876429 0.0834661 4.90234e-21)
(0.994492 -0.000896238 -9.91419e-23)
(0.996751 -0.00324561 8.49615e-23)
(0.99974 -0.00128502 -1.03958e-23)
(0.999504 -3.638e-05 -1.28781e-24)
(1.04551 0.0737285 -1.1984e-21)
(1.08012 -0.126293 7.07662e-23)
(0.988699 -0.0282418 1.20379e-22)
(1.00001 -1.38218e-06 -3.12653e-26)
(1 -2.67553e-05 1.34001e-26)
(0.982132 -0.0159769 5.06105e-22)
(0.995437 -0.00131147 2.01434e-23)
(0.996505 -0.00150239 -1.15201e-23)
(1.00999 -0.00381832 1.77835e-22)
(1.00396 -0.00168218 3.10713e-23)
(0.999946 -0.0116388 -2.10233e-23)
(1.0985 -0.0306748 4.10942e-22)
(0.987632 -0.00294906 -1.25821e-22)
(0.984262 0.1018 -1.20883e-21)
(1.00911 -0.0189481 -4.23749e-23)
(1.00017 -9.79e-05 4.19243e-24)
(0.9765 -0.04156 4.13758e-23)
(0.987863 -0.0249468 -4.2464e-22)
(1.15335 -0.0260792 1.63695e-22)
(0.998004 -0.00425889 -2.51603e-23)
(0.990617 -0.0333169 -1.46608e-22)
(0.999985 -3.82881e-06 2.62251e-25)
(0.935487 0.0834224 -4.78618e-21)
(1.01076 -0.00160107 3.21633e-22)
(1.00006 -0.000166454 -1.30788e-24)
(0.918981 0.0219856 -6.06705e-21)
(0.98801 -0.0283291 2.80728e-22)
(0.999985 -4.46841e-06 4.1955e-26)
(1.00099 -0.00089098 5.97746e-24)
(0.976364 -0.0434362 -2.42201e-22)
(1.02597 -0.0295559 6.37828e-23)
(1.03606 -0.0121037 4.02462e-22)
(0.999994 -2.1538e-06 6.10608e-26)
(0.994473 -0.000454781 7.90257e-23)
(1.01286 -0.0357582 1.61815e-22)
(0.996391 -0.00115298 1.16155e-22)
(0.99968 -3.39903e-05 -2.94385e-23)
(0.994375 -0.00284371 1.71649e-24)
(0.97652 0.0371289 5.22876e-22)
(0.995021 -0.00874391 -1.07841e-22)
(0.992484 -0.00824635 3.07043e-23)
(1.0024 0.0292985 -1.57675e-21)
(0.99812 -0.00159515 2.72145e-23)
(0.976378 0.116585 -4.98081e-22)
(0.999984 -4.48265e-06 -1.3378e-25)
(0.992269 -0.019185 8.12835e-23)
(0.983386 -0.0524058 9.20835e-22)
(0.991221 -0.0336127 2.47589e-22)
(1.14901 -0.0992287 2.23732e-22)
(0.99916 -0.00394339 3.35291e-23)
(1.00584 -0.0174891 1.80607e-23)
(0.999941 -0.00170008 5.85763e-25)
(0.988164 -0.0147233 -2.44034e-22)
(1.02662 -0.0321038 2.08003e-23)
(0.999975 -1.04791e-05 7.99358e-25)
(1.00001 -8.01858e-07 -5.46979e-26)
(0.995669 -0.000292099 5.36632e-23)
(0.981967 0.0701954 3.41927e-21)
(1.0085 -0.0146646 1.81088e-22)
(1.00178 -0.00253284 -2.52948e-23)
(0.956671 -0.0204902 6.53423e-22)
(1 -7.14704e-06 -5.70532e-28)
(1.00067 -0.000836351 -2.29902e-23)
(0.999975 -0.000483552 -3.35369e-25)
(1.00955 -0.0141335 1.99987e-22)
(0.988449 -0.0108892 4.30391e-23)
(0.999735 -0.000203313 3.71505e-24)
(0.995342 -0.00781336 3.96352e-23)
(0.99155 -0.00485849 -4.51615e-23)
(1.0007 -0.000114944 -1.88952e-24)
(0.999984 -5.21847e-06 -8.37081e-26)
(1.17791 -0.0689178 -5.9575e-22)
(0.999766 -0.0012647 1.11254e-23)
(1.05923 -0.0118791 3.58635e-22)
(1.01713 0.110741 9.42272e-21)
(1.04951 0.0900802 -2.08008e-21)
(0.999963 -0.0147065 -7.76156e-23)
(1.00387 -0.00151327 -1.02954e-23)
(1.0132 -0.00120679 3.50158e-22)
(0.999973 -0.00173934 -6.66066e-25)
(0.998362 -0.00740318 4.01801e-23)
(1 -1.20985e-05 1.8617e-26)
(0.993067 0.103119 -1.89152e-22)
(0.991466 -0.0110336 5.9185e-23)
(1.00976 -0.00349794 -1.26963e-22)
(0.98791 -0.00306497 2.57669e-22)
(1.00238 -0.00923224 1.35863e-24)
(0.998124 -0.00419389 5.46032e-23)
(0.999927 -0.000145613 4.07865e-25)
(1.00001 -6.76287e-07 -2.88789e-25)
(0.996862 -0.00323361 -6.18076e-23)
(1.04207 -0.0121595 -2.23177e-22)
(1.00524 0.0430817 2.52454e-22)
(1.00085 -0.00034394 -2.79942e-23)
(0.979832 -0.039144 -2.13969e-22)
(0.982775 -0.0149967 -8.69841e-23)
(0.994605 -0.000359855 -2.96334e-22)
(1.24164 0.0220636 -1.45617e-22)
(0.999101 -0.000690097 -1.36301e-23)
(1.00236 -0.010448 -3.6042e-23)
(0.99623 -0.0019737 5.82854e-23)
(0.999933 -0.000140415 3.46032e-25)
(0.976254 -0.0454226 2.71583e-22)
(1.00266 0.0432469 -2.4789e-21)
(1.02658 0.0330335 -2.0236e-21)
(0.984563 -0.0101154 -4.16666e-23)
(1.002 0.0416489 -1.08802e-22)
(1.00006 -0.000156172 2.52627e-24)
(1.00001 -1.06299e-06 8.99408e-26)
(1.23328 0.0590741 -3.97701e-22)
(1.15991 -0.0282284 -4.04364e-23)
(0.921579 0.0850605 -2.35167e-22)
(0.993854 -0.0567811 6.66809e-22)
(0.98442 -0.00104002 -1.93812e-22)
(1.12333 -0.0408075 -1.33836e-22)
(1.00081 -0.000361375 3.16927e-23)
(0.996087 -0.00265891 3.34592e-23)
(1.00032 -0.000123229 -1.85743e-24)
(0.992676 -0.000501095 -6.51884e-23)
(0.991802 -0.00903847 -8.68853e-23)
(0.999997 -2.39283e-05 -1.56081e-25)
(0.999385 -2.41104e-05 5.36452e-24)
(1.00262 0.111101 -8.87584e-21)
(0.999909 -0.00050226 3.99414e-24)
(0.942657 0.0766849 5.76052e-21)
(1 -1.14952e-05 -1.40597e-26)
(1.23076 -0.0602941 -6.71772e-22)
(1.05906 -0.0135919 -7.69022e-22)
(1.09886 -0.027568 -4.5458e-22)
(1.00072 -0.000345883 1.9018e-24)
(1.00013 -3.01381e-05 3.35094e-24)
(0.985642 0.0658565 -5.0979e-21)
(1.06177 -0.010332 1.52928e-21)
(0.982852 -0.0532824 -8.49052e-22)
(1.01895 0.0323974 9.20307e-22)
(0.998037 -0.0148093 3.41969e-23)
(0.990822 -0.00369985 -6.64375e-23)
(0.997199 -0.000155933 -3.54504e-23)
(1.12913 0.156727 -4.62702e-21)
(0.983315 -0.0179765 3.09141e-22)
(1.02195 -0.0264924 -1.32161e-22)
(0.995526 -0.007754 -2.26083e-23)
(1 -7.09887e-06 -6.77255e-28)
(0.99911 -0.00065078 -1.15786e-23)
(1.00414 -0.00431994 5.43853e-23)
(0.987449 -0.00544422 3.3295e-22)
(0.984951 -0.01021 6.18992e-23)
(0.970398 -0.0259999 -9.77741e-23)
(0.987317 -0.00577301 -2.5192e-22)
(1.01507 0.00206571 1.63246e-22)
(0.998529 -9.85251e-05 7.20257e-25)
(0.959858 -0.0236533 3.39599e-22)
(0.990377 -0.000628985 -9.22857e-23)
(1.00003 -0.000151007 3.62145e-25)
(0.991586 -0.000504566 -6.42253e-23)
(1.02212 -0.0286124 -2.12402e-22)
(1.01448 0.0022407 -9.02102e-22)
(0.981989 -0.0180031 -7.767e-23)
(0.999988 -5.18428e-07 -1.19098e-27)
(0.987923 -0.0111088 6.46518e-23)
(1.00127 -0.010621 4.52022e-24)
(1.00097 -0.000830511 7.66412e-24)
(1.06551 -0.132832 -8.24466e-22)
(1.00188 0.0427388 -5.76626e-21)
(1.00063 -0.000826671 2.13412e-23)
(0.991727 -0.000379063 9.4125e-25)
(1.06443 -0.0786672 9.52303e-24)
(1.02051 0.000100169 1.39329e-21)
(0.988855 0.0297952 -5.55361e-22)
(1.00128 -0.00176604 6.84572e-24)
(0.999804 -0.0153077 2.43213e-23)
(1.09617 0.11037 -6.9779e-22)
(1.01361 0.0202421 -4.68395e-21)
(0.992984 -0.0191713 2.15181e-22)
(1.00333 -0.00251275 -9.66089e-24)
(0.967097 -0.0305033 4.63526e-22)
(0.999998 -3.38471e-06 2.88627e-26)
(0.967817 -0.00131099 -3.42943e-22)
(1.00006 -4.96429e-05 4.76459e-25)
(1.06207 -0.0784964 -7.85074e-22)
(0.999977 -2.42617e-06 -8.9121e-26)
(1.00002 -4.42373e-05 2.8585e-25)
(0.999422 -0.0170749 -2.90551e-23)
(1.214 -0.0223204 4.82784e-23)
(1.03178 0.143224 4.15552e-21)
(1.02446 -0.0297388 -3.2881e-22)
(1.00969 -0.0113674 1.01211e-22)
(0.999999 -2.46293e-06 -7.18344e-27)
(0.995772 -0.00315385 -1.12976e-22)
(1.00006 -1.47713e-05 -3.53411e-25)
(0.997821 -0.00169907 3.88207e-23)
(1.00002 -4.1177e-05 -2.22173e-25)
(1.03637 -0.0106204 -1.25442e-21)
(0.999673 -0.000336264 -1.45704e-23)
(1.04951 0.0441298 2.037e-21)
(0.999913 -0.000155884 -2.73417e-24)
(0.991155 -0.00361927 -1.12113e-22)
(0.972672 -0.000710704 7.56645e-22)
(0.997056 -0.000207725 -4.55282e-23)
(0.983065 0.0386106 5.34426e-21)
(0.98823 -0.000496157 1.81159e-22)
(1.00742 -0.0750932 5.25995e-23)
(0.996187 -0.00278921 1.73049e-22)
(1.01884 -0.00215633 -2.91633e-22)
(0.978126 -0.0395202 9.79624e-22)
(1.01415 -0.00110706 -9.75178e-22)
(1.02288 -0.0548427 -1.99082e-23)
(0.99999 -9.14324e-07 1.15682e-26)
(0.999082 -0.0144282 2.70406e-23)
(0.997245 -0.000205689 5.55112e-24)
(1.00018 -6.621e-05 2.51546e-24)
(1.00006 -1.23701e-05 5.9535e-25)
(1.13466 0.159292 5.05922e-21)
(0.99662 -0.00150807 9.70658e-23)
(1.02057 0.000691374 1.58975e-21)
(1.00022 -0.015695 2.94108e-23)
(1.0006 -0.000218239 7.29755e-24)
(1.01715 -0.00648203 -1.07617e-21)
(1.00012 -2.74987e-05 -7.46463e-24)
(0.999983 -2.43172e-06 -1.20287e-26)
(0.968188 -0.0017461 2.63913e-22)
(0.997584 -0.000861391 4.39839e-23)
(1.00002 -4.01075e-05 3.31066e-25)
(1.06036 0.0882375 1.5304e-21)
(0.890465 0.067906 -8.64036e-21)
(0.999854 -0.000165125 6.80203e-24)
(0.973836 -0.00144026 -2.04834e-22)
(1.00001 -1.00317e-06 6.4418e-26)
(0.952318 0.102859 -5.58603e-21)
(1.23908 -0.0631055 -9.66054e-22)
(0.979037 -0.0318549 -8.06133e-22)
(1.00003 -0.000396514 -6.08786e-25)
(1.02122 -0.0255074 3.1119e-22)
(1.023 -0.00258111 -4.02209e-22)
(1.02407 -0.000549163 1.1864e-22)
(1.03688 -0.012753 -1.57186e-22)
(0.99975 -0.00135537 -1.81063e-24)
(0.999908 -0.000601395 3.40558e-24)
(0.990242 -0.0109265 -1.90133e-22)
(1 -6.21687e-06 -2.16809e-26)
(1.00001 -7.13252e-07 -1.63478e-26)
(0.982777 -0.0176298 -1.83014e-22)
(0.995029 -0.0436247 -3.57917e-22)
(0.97122 -0.0255761 -2.53143e-23)
(0.908932 0.0964705 -1.75742e-22)
(1.00014 -1.79759e-05 -3.09766e-24)
(1.00603 -0.0565077 -7.17081e-22)
(1.00516 -0.00386866 -9.48736e-23)
(0.999984 -2.55112e-06 1.37132e-25)
(0.999277 -0.00280638 -2.89596e-23)
(1.00003 -0.000336917 -3.63748e-25)
(0.996766 -0.00908181 6.50561e-23)
(1.00003 -7.4397e-06 3.61849e-25)
(1.02425 -0.0541549 -4.35872e-23)
(1.01387 -0.00135404 9.47218e-22)
(0.97788 0.114295 1.31809e-21)
(1.01838 -0.00200629 1.0935e-21)
(0.999807 -0.00016103 5.40185e-24)
(1.00032 -0.000279564 -7.22369e-24)
(1.11553 -0.120115 -1.09337e-21)
(1.02042 0.000577693 -1.27753e-21)
(0.99786 -0.000279435 3.97177e-23)
(1.00001 -9.4409e-07 1.35712e-25)
(1.07451 0.0745065 -2.48863e-21)
(1.03242 -0.137451 -3.63344e-22)
(0.994158 -0.0556658 -2.87291e-22)
(0.990118 -0.00053487 -4.88485e-23)
(0.999985 -1.58067e-05 2.60911e-25)
(0.999809 -0.00015191 -3.16613e-24)
(1.03475 -0.141294 1.0184e-21)
(0.996384 -0.0351524 -9.828e-23)
(1.03175 0.0226721 2.87755e-22)
(0.983667 0.0980382 5.03822e-21)
(1.00705 -0.0731337 3.9874e-22)
(0.999123 -5.96499e-05 -7.11441e-24)
(0.999985 -7.37349e-06 -3.10092e-25)
(0.973727 -0.0334621 7.91264e-22)
(0.977379 -0.0670418 -9.97068e-22)
(0.99986 -0.000170647 3.64766e-24)
(1.00635 -0.0170605 8.51852e-23)
(0.993231 -0.0186766 -3.7391e-23)
(0.996793 -0.00161717 3.82246e-23)
(0.997832 0.0363129 -4.22298e-21)
(0.999108 -0.00039254 2.54656e-23)
(1.0349 -0.0429552 1.3386e-23)
(1.21071 0.116174 -1.76253e-21)
(0.994673 -0.00231593 -1.11545e-22)
(0.919646 0.080135 -8.53967e-22)
(0.926463 0.0375802 2.58579e-21)
(0.999979 -3.72463e-05 -1.01915e-24)
(0.999982 -0.0005284 -2.79839e-25)
(0.98837 -0.000658309 -1.15406e-22)
(1.00931 -0.00355727 -2.2933e-22)
(0.974892 -0.00133097 4.29288e-22)
(1.00362 -0.00311939 -9.92643e-23)
(0.994863 -0.00232496 1.04062e-22)
(0.999606 -0.000359316 -1.10907e-23)
(0.96068 0.103246 -9.99051e-22)
(1.04978 0.0418996 -3.16038e-21)
(1.00158 -0.00171369 1.75538e-23)
(0.853626 0.0428627 -1.74873e-21)
(1.00001 -9.07256e-07 -9.24089e-26)
(1.01974 0.00457687 -2.23361e-21)
(0.987729 -0.0671745 6.63071e-22)
(1.00766 -0.0568392 2.78972e-22)
(1.00007 -0.000151537 -1.30226e-25)
(0.973735 -0.000731324 3.49783e-22)
(1.01775 0.00409908 1.25392e-21)
(1.00908 -0.00383013 1.90039e-22)
(1.0227 -0.00175821 5.57876e-22)
(0.999689 -2.6435e-05 2.07781e-23)
(0.999668 -0.000358652 1.3196e-23)
(1.01523 -0.035186 3.72575e-23)
(0.997623 -0.000929524 -1.25211e-22)
(0.99124 -0.00821307 -2.05038e-22)
(0.999367 -0.00254641 1.71328e-24)
(1.07057 0.0265609 1.57179e-21)
(0.998879 -0.0150204 -1.87371e-23)
(0.996561 -0.00343004 1.95656e-24)
(0.95472 -0.0172827 -9.8484e-22)
(0.996244 0.0799761 5.65359e-22)
(1.08448 -0.0431734 -2.46284e-22)
(1.01671 -0.00617746 8.62297e-22)
(0.999724 -0.000131443 3.94643e-24)
(0.999647 -0.000234355 1.78265e-24)
(0.987674 -0.0145263 4.93857e-22)
(1.00069 -0.000900567 -1.71306e-23)
(0.998209 -0.000492566 -7.11687e-24)
(0.999986 -1.51294e-05 -9.75094e-26)
(0.999774 -0.00138091 3.87428e-25)
(1.01731 0.00380782 -4.87267e-22)
(0.984997 0.0689845 -4.91007e-21)
(0.999911 -1.13062e-05 8.39942e-25)
(1.15891 0.138773 -4.08614e-21)
(0.999997 -2.9991e-05 6.81358e-26)
(0.997753 -0.00201086 5.2957e-23)
(0.999994 -6.86929e-05 1.06606e-25)
(1.00365 -0.00269753 -4.39507e-23)
(1.17751 -0.0751101 4.76185e-22)
(0.999972 -3.09446e-05 8.70595e-26)
(0.999972 -3.33738e-05 6.10625e-25)
(0.963722 -0.0285226 -4.54127e-22)
(1 -6.15442e-06 -2.84967e-27)
(1.03943 -0.0129841 1.31724e-21)
(0.99018 -0.0290431 3.82723e-22)
(0.999983 -0.000464485 3.34314e-25)
(1.07154 0.0549338 -1.91034e-21)
(1 -2.13665e-05 -3.49751e-26)
(0.999724 -2.76371e-05 1.81838e-23)
(0.999938 -2.57237e-05 3.06076e-26)
(0.996685 -0.0034419 -3.17984e-23)
(0.999764 -0.00110084 -5.41855e-24)
(0.99575 -0.000219876 -3.61589e-23)
(0.991525 -0.0815133 -7.75571e-23)
(0.999791 -0.00107245 3.59155e-24)
(1.00292 -0.00251241 -3.4159e-23)
(0.999983 -1.76665e-06 -5.1482e-26)
(1.03384 0.140207 -7.85898e-21)
(1.03355 -0.043515 2.88946e-23)
(1.08723 -0.0444262 -6.49256e-24)
(0.976587 -0.0039993 4.67395e-22)
(0.984699 -0.00291705 -8.47296e-23)
(0.99934 -0.0027457 4.77191e-23)
(1.00203 -0.00190768 4.77178e-23)
(1.04094 0.0552644 8.59463e-22)
(0.987365 -0.0256325 5.7851e-23)
(1.11474 0.0901911 9.39964e-22)
(0.971004 -0.00894279 -8.54095e-22)
(0.997673 -0.00194096 -5.00267e-23)
(0.999993 -2.75226e-06 -1.09844e-25)
(0.996101 -0.00197983 -7.02362e-23)
(1.01082 0.133057 2.03298e-21)
(1.06451 0.0642772 -4.46679e-22)
(0.98633 -0.0383265 3.18589e-22)
(0.961388 -0.00375801 2.006e-22)
(1.03853 0.132504 2.09382e-21)
(0.994195 -0.000408834 9.36141e-23)
(0.985622 -0.0611787 5.21451e-23)
(0.999994 -6.53327e-05 1.77573e-25)
(0.989419 -0.0291187 4.80369e-22)
(0.999426 -0.000161897 -2.64999e-23)
(0.864217 0.0730312 -5.0825e-21)
(0.983042 -0.0498215 -7.18319e-22)
(0.99994 -2.29932e-05 1.54061e-24)
(0.958951 -0.0121306 -5.35024e-23)
(0.987159 -0.0271675 2.90916e-23)
(1.02912 0.061656 3.11047e-21)
(0.998234 -0.000537569 -6.73187e-23)
(0.985968 -0.0261091 -1.73771e-22)
(0.998228 -0.00758501 -5.59281e-23)
(0.999509 -0.0165045 -6.06294e-23)
(0.999132 -0.000398894 -1.7323e-23)
(1.028 0.0602783 -3.76628e-21)
(1.00314 -0.116262 6.87887e-22)
(0.987864 -0.0115605 -1.4419e-22)
(0.990633 -0.0101705 3.01588e-24)
(0.99123 -0.00341697 -4.54423e-23)
(1.00365 -0.00149402 -4.02501e-23)
(1.04014 0.128602 8.15644e-21)
(0.987903 -0.00938963 6.56293e-23)
(1.01315 0.030837 2.00206e-21)
(1.00187 -0.00153597 3.63238e-23)
(1.15505 -0.0991324 -2.23259e-23)
(0.940092 0.0823325 8.59369e-22)
(0.994082 -0.000319993 -3.23953e-22)
(0.999843 -2.94485e-05 3.53313e-24)
(1.04383 0.0761842 9.39299e-22)
(0.999824 0.106239 -7.40976e-21)
(1.01486 -0.0339026 -3.77198e-23)
(1.05794 -0.0415643 3.11853e-23)
(0.996599 -0.00942525 -7.21514e-23)
(0.976936 -0.0036171 -2.76984e-22)
(1.09312 0.107593 2.82216e-21)
(0.972856 -0.0335209 1.37971e-22)
(0.999983 -1.51761e-05 3.44193e-25)
(0.994961 -7.81693e-05 -1.65478e-22)
(1.00003 -4.20518e-06 3.69409e-25)
(0.996954 -0.000186313 1.23966e-22)
(0.999983 -1.60635e-05 -5.37235e-25)
(0.998399 -0.0105863 9.52675e-23)
(0.999343 -2.68925e-05 9.44702e-24)