/*--------------------------------*- C++ -*----------------------------------*\
  =========                 |
  \\      /  F ield         | OpenFOAM: The Open Source CFD Toolbox
   \\    /   O peration     | Website:  https://openfoam.org
    \\  /    A nd           | Version:  7
     \\/     M anipulation  |
\*---------------------------------------------------------------------------*/
FoamFile
{
    version     2.0;
    format      ascii;
    class       volScalarField;
    location    "8.5";
    object      p;
}
// * * * * * * * * * * * * * * * * * * * * * * * * * * * * * * * * * * * * * //

dimensions      [0 2 -2 0 0 0 0];

internalField   nonuniform List<scalar> 
7807
(
0.473429
0.0111074
0.60406
0.405285
-0.00181203
-6.95431e-06
0.590602
-0.0115525
-0.000147472
0.173364
-7.70155e-06
0.00463671
-0.0176581
0.0867066
0.179822
-0.0292729
0.487155
-0.0237611
-0.000247072
-0.15379
0.119893
0.00295962
0.0628932
0.3166
-0.0314825
0.482445
-0.00166683
0.106793
0.268366
0.00296295
-0.0394311
0.789641
0.0620832
-0.000844648
-8.01613e-05
0.142296
0.00346495
0.574218
-0.0126279
-0.000433564
-0.0118215
-0.0281345
-0.148312
-0.0137642
-0.000205987
-5.7251e-05
0.0029436
-0.0124685
-4.62105e-05
-0.150896
0.00712455
0.101141
-0.0403253
-0.0127361
0.141344
-0.0107008
0.000227049
-0.0114281
-0.0597947
-0.000863906
8.77347e-05
0.00933131
0.0868838
0.00516102
-0.00161735
-0.0389575
-0.000116776
1.09664e-05
0.223024
-0.0115709
-4.95327e-05
-0.115536
-0.0306219
-0.0534001
-0.0230974
-0.0874063
0.597821
0.116887
0.127112
-0.123267
-0.0170969
0.516952
0.173024
-0.0580216
-0.00357268
-0.00427221
-0.0127383
-0.0393563
-0.00149592
-0.00885862
0.274884
-0.00565525
-0.000133176
0.000509602
-0.00729168
-0.0518496
-0.110984
-0.00726863
-0.0038388
-0.00200262
-0.0990223
0.140286
-0.00701322
1.20931e-06
0.0144255
0.288569
0.682379
-0.0112297
1.19422e-06
0.057785
0.385715
-0.0904495
1.4794e-06
0.0617699
0.287457
0.000796958
-0.0943434
0.23418
-0.0826425
-0.055305
-0.0997173
0.495476
-0.140151
0.0212573
-0.0973205
-0.00218622
-0.0338165
0.00209037
-0.00170137
-0.0385453
-0.0655635
0.124719
-0.00112457
-0.00173033
-0.0595324
0.372878
0.583025
8.04005e-07
0.0167894
-0.129111
-0.049527
-0.100977
-0.0890028
-0.0510501
0.684696
-0.0426043
0.271492
-0.0595673
-0.0700559
0.494653
0.135339
0.000829339
-0.00344258
0.195349
0.171859
0.544475
-0.100682
-0.0172254
0.689635
-3.78832e-05
-0.0010627
0.326557
2.96598e-06
-0.00596153
-0.00823288
0.395769
0.39663
0.71374
-0.00651693
-0.00598358
1.2719e-05
-0.0968758
0.000783193
0.0222054
0.0182808
-0.0688917
0.0432465
0.29255
-0.000137947
-0.000962442
0.415049
-3.37283e-05
-8.63993e-05
0.597792
0.00343083
-0.0796402
-0.077924
-0.0510751
-0.0490303
-0.127197
1.17158e-06
-0.105955
0.305828
-0.00723387
0.000140951
0.350957
-0.00232254
-0.0361275
-0.0477827
1.38396e-05
0.00156934
0.37862
0.346065
0.539061
-0.0838873
-0.080179
-0.148423
0.116425
0.370403
-0.00022123
7.91112e-05
0.644902
-0.0251913
-0.00115215
-0.101655
-0.035507
0.504291
0.509885
-0.10841
0.765093
-0.00216049
-0.0231573
-0.100757
0.143044
-0.183185
0.431962
0.68357
0.000127875
0.0226622
0.247972
-0.0112703
0.23005
-0.0013511
0.763666
0.531375
-0.0124689
0.00403059
-0.000400459
0.315151
-7.29887e-05
-0.0181745
-0.128662
-5.35275e-05
-0.00365655
-0.00111679
0.28258
3.75634e-06
-0.00920211
-0.119759
0.781191
0.11088
0.722188
-1.37241e-05
-0.0526026
-0.000322782
0.564297
0.00899398
0.585799
0.000417048
0.00123864
0.00846361
0.12148
0.00112113
-0.000275133
0.000983433
-0.0118879
-0.0777461
-1.22076e-05
-0.0969146
-0.00790919
-0.000150191
-0.00125982
0.571762
-0.0166075
-0.00124528
0.718221
-0.00389459
0.434702
-0.000350873
-0.00469776
1.89402e-05
-0.0721445
0.137105
0.0607982
-0.0608361
-0.000836303
-0.1349
-0.0344668
-0.000192643
0.00094761
-0.00585804
-0.0163687
0.00633255
-0.00302659
-0.0552014
-0.068221
-0.0536672
0.0055265
-0.0682784
0.545629
0.562219
-0.00311388
0.0285832
1.93571e-06
-0.00655594
-0.0528922
0.308583
0.192896
0.00018861
-0.00599713
-0.0667977
0.285943
-0.00228916
0.00790503
0.00244359
0.144482
-0.0892107
0.54591
-0.00308615
0.0118982
-0.000122019
0.00778937
-2.67104e-05
-0.0490957
-0.000480734
0.00537888
-0.000668203
-0.0778215
-0.00121518
0.0199342
-0.00121212
0.0497806
-0.0241627
0.157783
0.283786
-0.179507
-0.0299261
-0.0354051
0.0113559
-0.124491
0.727094
-0.0242895
0.0775575
0.753359
-0.00294325
-0.00374071
-0.0176734
-0.00280551
-0.036019
0.0147131
-0.00565647
-0.00409547
0.263066
-7.73496e-05
0.00107053
0.000154599
-0.007094
-0.0198454
1.60202e-06
-0.00202987
-0.0570422
0.65232
0.000301014
-0.0244686
0.645081
0.444029
0.133201
0.0458613
-0.0990345
0.010664
0.38537
-0.0249808
0.476314
-0.0562593
-0.151728
0.345708
0.483387
-0.0902303
0.182364
0.433718
0.44811
0.114457
-0.00688308
-0.00993433
-7.43902e-05
0.00148589
-0.0254133
0.00174517
-9.64104e-05
-0.00331817
-0.135408
0.19362
-0.0405134
-0.0102006
-0.00805109
0.00508788
-0.0157113
0.00210775
0.394707
-0.00370103
1.06822e-06
-6.37584e-05
0.000108758
-0.0497593
0.255502
-0.00849487
0.0705018
-0.191262
0.561664
0.00572132
0.0149631
-0.0121229
0.55598
-0.00187331
0.5448
0.276609
-0.000110834
-0.060812
-0.0069342
-0.0976598
0.00110673
0.144763
0.00351133
0.0138591
-0.00149247
0.263781
0.288384
-0.0895756
-0.0584165
-0.00622928
-0.0504994
0.184665
0.778912
-0.0678739
0.00878425
2.23001e-06
-0.0314453
-0.00451249
0.0446815
-0.160517
0.00601453
0.588688
0.268343
-0.127455
0.367834
0.543191
0.0688843
0.00227667
0.410921
-0.00243851
-0.000266751
-0.0378727
0.000174062
-0.163859
-0.00626703
-0.0670657
0.00396315
0.353787
-0.0035294
-1.8298e-06
-0.163989
0.00355988
0.0935847
-0.0950142
-0.124875
0.105639
0.24946
0.205673
0.210959
-0.000245973
0.183304
0.170875
-0.00109856
-0.0393894
0.00118876
0.00902872
-0.0143689
0.0106408
-0.00189117
0.300145
1.98261e-06
0.000380012
0.00413014
-0.048271
0.0503647
-0.061735
-0.0587536
-0.0741346
-0.19259
0.013603
0.401727
0.0203274
-0.0154109
0.766193
-0.109989
-0.0209493
-0.057515
-0.0207133
-0.0444085
-0.0238153
0.0701875
-0.0333592
-4.10328e-06
0.0609199
-8.54876e-05
0.536694
0.23873
-0.0109835
-0.0299914
-0.00022616
0.516895
0.510244
0.156943
0.336947
-0.116099
0.593904
-6.73891e-05
0.0474501
-0.0391055
0.298517
0.700031
0.164045
0.254359
-0.00827408
-0.000265549
0.306224
-0.0408228
0.538781
0.094356
0.353146
-0.0159961
0.566918
0.488877
-0.0209287
-0.0176571
0.267464
-0.127937
-0.000103268
-0.0304353
-0.127077
-0.123856
0.0262044
0.02074
-0.000172803
0.517903
-0.00597116
-0.000105735
-0.0591165
-0.000923128
-0.000290502
0.00487905
0.374603
-0.147508
0.663042
0.000130089
0.374458
-0.0501028
-9.6969e-05
4.43892e-05
0.265329
0.356168
-0.00941652
0.320754
6.51202e-05
0.338155
-0.177621
-0.0216396
0.561497
-0.0969449
0.319614
-0.0550585
0.338285
0.355801
-0.0389954
-0.0497857
-0.0171333
-0.00579371
-0.000305841
-0.00607932
0.453571
-5.64709e-06
0.321959
-0.138689
0.483257
0.30646
-0.129183
0.659608
-0.00344437
0.00594167
-0.0733327
-0.0437729
-0.0151237
-0.056486
0.0766724
0.731549
9.65362e-05
-0.00408557
-0.0908393
1.67633e-05
0.54825
0.00366131
1.80461e-05
0.000366682
0.000710247
-0.0467583
0.0434603
-0.00316039
-6.73259e-05
-0.0158362
0.00238971
-0.178041
-0.112299
0.0512338
1.31338e-06
-0.199359
-0.0287247
0.270343
0.467988
0.00167586
0.269207
0.000288861
-0.0278482
0.15712
-0.0154145
0.405604
-0.0299268
0.0551726
0.163169
0.266467
0.00631339
-0.0229817
0.328977
-0.143619
0.576686
-0.0210994
0.457385
-0.0206681
-0.00220314
0.241992
-0.00473544
0.157973
0.00382555
1.54078e-05
-0.19284
0.383594
0.00230411
0.257784
-0.0282283
-0.20768
0.00868327
-0.0645042
-0.00344791
-0.0175052
-0.130281
-0.062323
-0.0215289
-0.000300525
0.604196
0.256072
0.0700223
-0.000271638
0.48182
2.88534e-05
-0.000239305
0.266014
-0.00379335
0.343568
0.105421
0.0382505
-0.0398927
-0.175331
0.0955617
0.00251662
-0.0933798
6.31728e-06
0.00566855
0.391072
-0.0369555
-0.0060029
-0.0282939
-0.00406575
-0.00101805
0.715688
-0.0224503
-0.00113502
3.23804e-06
0.225145
-0.0740569
-0.000645434
-0.00557266
0.260793
0.166046
-0.0881362
1.87372e-05
0.281919
-0.0416041
0.336287
0.03778
0.0471006
-0.067095
-9.0769e-05
0.159196
0.154115
0.137567
-0.125509
0.448515
0.0130784
0.325895
-0.0108925
-0.0583432
-0.000597506
-0.00951619
-0.000219124
0.272322
0.441094
-0.00314752
0.0433669
-0.0373103
-0.0995383
-0.113529
-0.00373204
0.0428396
0.697598
0.105233
-5.59266e-05
0.16171
-0.0114101
0.608557
-0.0276112
-0.0351858
-0.0141437
-0.0393984
-0.0225418
-0.0169829
-0.0127186
0.00153965
0.0651358
0.000198847
-0.136721
0.0456002
0.539062
-0.0842629
0.348208
0.00406458
-0.0638774
-0.0396056
0.327251
-0.0164752
0.000197982
-0.0411027
-0.0151805
0.0475549
-0.0580327
-0.0512938
0.0147104
-0.0307197
-0.0221357
-0.130485
1.79706e-05
0.0915965
-0.115189
0.308406
-0.0560774
0.156491
-0.135703
0.511188
0.00905857
-0.0686564
-0.0427263
0.633631
-0.12193
-0.028619
-0.178003
-0.0690753
-0.155151
-0.0884253
0.312409
-0.0060914
0.376081
0.0190765
-0.000753586
-0.00304896
0.141302
0.771428
0.00038489
-0.0503927
0.273054
5.22899e-05
-0.0473734
0.0637823
0.0156509
0.0193622
-0.00379041
-0.0745006
-0.00955819
6.54596e-05
-0.09258
0.412725
-0.00100891
-0.0362601
0.00372806
0.273616
-0.000784485
-0.00243999
-0.000549432
-0.00216052
0.156773
0.000156545
0.00149706
-0.0403337
0.000103848
-0.157264
-0.0163738
-0.175785
-0.0442915
0.0323079
-0.000273885
-0.0316366
-0.119109
0.124197
0.48427
-0.00361454
-0.121817
-0.0109088
0.0138879
0.283971
0.00078898
-0.000230233
0.283787
0.0943216
0.0320559
-0.00658481
-0.00399354
-0.110811
-0.000322221
-0.00851423
-0.0269785
0.421249
0.417403
-0.0542394
-0.111272
0.0156726
0.00345104
0.0671289
-0.125943
-0.0348203
8.29366e-06
0.0486299
-0.051848
-0.13966
0.00389078
-0.089926
-0.000673402
-0.00636374
0.307552
-0.063982
8.23532e-07
-0.00551043
-0.0988205
-0.000183844
-0.042028
-4.44907e-05
0.00515135
-0.171752
-0.0578312
-2.05404e-06
6.87319e-05
0.196803
-0.0926798
0.517491
0.439819
0.0337535
-0.00174658
-0.0352873
0.000396004
-0.0840374
-0.139746
0.0722135
-0.0361229
0.439479
0.0139025
0.000432112
0.00740467
-0.153646
0.00385809
-0.0497865
-0.11544
-0.00269003
0.0355024
0.113823
0.0129311
-0.053666
-0.0838874
0.283652
-0.0580337
1.18008e-06
-0.155363
-0.117126
-0.0667475
0.00454528
0.0013851
0.0117014
-0.169646
0.0550254
-0.0567355
0.252557
-0.0750978
0.00879502
0.030456
0.0239147
-0.0592573
-0.103245
-0.000199541
0.222695
0.308204
0.0121735
0.386988
-0.123605
0.0775214
-0.0925302
0.298083
0.16109
0.732799
1.47251e-05
0.172786
0.275537
0.0237701
-0.00225423
-0.0280812
0.028842
9.90732e-05
-0.0311225
-0.0985289
-0.0311526
-0.0373118
0.000234128
-0.0578555
-0.00058929
-0.00107147
0.344471
0.00772726
0.203088
0.0325984
0.302237
0.0149465
-0.000800523
-0.12041
0.0100104
0.500786
0.0018079
-0.102837
-0.000391622
-0.000673098
0.00730318
-0.0836293
-5.61711e-07
-0.0160451
0.0480549
-0.00251271
7.20297e-05
-2.47745e-05
0.22837
-0.0258561
0.00895901
-0.00142741
0.0118945
0.0251601
0.0113021
-0.000471572
0.534908
-0.0983541
0.322556
0.471947
-0.000175985
0.184886
0.191585
-0.00105797
-0.000358665
-0.000930727
0.0228418
0.0232526
-0.0292038
-0.0446599
-0.129368
0.258848
-0.139106
2.34338e-05
-0.0336505
-0.0370936
-0.0596077
-0.00627323
0.00757461
0.00175977
0.0458465
-0.000570286
-0.000423275
-0.0315387
-0.00702722
-0.0435341
1.11978e-06
-0.025444
0.0561779
-0.0137376
-0.0383368
-0.014088
-0.0193882
-0.0144412
-0.00818031
0.00978293
-0.014486
-7.42879e-05
-0.000642199
0.0369118
-0.0195887
-0.00802382
0.011727
-2.64187e-05
-0.208066
-0.0188151
0.233994
-0.019611
-0.102767
-0.0505232
-0.0398084
-0.0260264
-0.00574385
0.00240698
-0.00555392
-0.02159
-0.0261784
0.303739
0.246028
0.0891979
0.468261
-3.20493e-05
-0.00735157
-0.0260108
-0.0135961
0.183864
-0.0342211
0.0907895
-0.00921177
0.33772
-0.00311565
-0.00271697
0.0257478
-0.0412482
-0.000255252
-0.047236
-0.00918415
-0.034392
5.49612e-06
-0.0102819
0.00277741
-0.0304706
0.059401
0.0582688
0.0304
-0.0234871
-0.0552589
0.178293
-0.00225691
-0.00286176
-0.00298744
0.645747
-0.000131364
0.126725
-0.0342738
-0.0355624
-0.0423915
-0.0840555
-0.0473763
-0.0596471
-0.0332981
-0.0076764
-6.3795e-05
-0.00648824
-0.0345384
0.15713
0.00239599
0.294141
-0.0579538
-0.0228029
-0.00110734
-0.050945
-6.59835e-05
0.223207
-0.0535322
-0.0458342
-0.0419672
-0.00902609
-0.0629589
-0.0022624
-0.072005
0.15944
-0.0439714
-0.143159
-0.00195856
-0.04616
-0.0322483
0.0241715
-0.00522565
0.214093
-0.00340222
-0.0297045
-0.00104435
0.238517
-0.0687532
-0.0439826
-0.00464079
-0.0166863
-0.00442944
0.315939
0.028775
0.371279
-0.00994636
-0.00136207
-0.00167236
-0.00372417
0.331945
-0.114249
-0.0119003
0.000452187
-0.0191607
-0.0277577
-0.00173806
-0.0342564
-0.0270047
0.0927419
-0.00783282
0.00227857
0.60611
-0.114594
-0.0461655
-0.107401
6.20889e-05
0.120983
-0.00544486
-0.0437465
-0.0095609
-0.0624328
0.00463548
-0.000713689
-0.00416687
0.00470005
0.29125
-0.00891048
-0.00266699
-0.00757998
-0.106707
-0.0137757
-0.0357997
0.00513113
-0.0140192
-0.0139069
-0.00518613
0.300883
-0.0824728
0.00459261
-0.00624089
-0.0460488
-0.0217958
-0.0879648
-0.00238328
0.146124
0.0364927
-0.0133804
-0.00280226
-0.0242299
0.675204
0.293203
-0.0188936
-0.000657938
-0.0037426
0.00087584
-0.00662793
0.0329456
-0.000580988
-0.0379064
-0.0028092
-0.0275865
-0.0230299
-0.00192602
-0.0256885
-0.00187399
0.446755
-0.0118817
-0.0189867
-0.00233105
-0.00258252
-0.0495602
0.18005
0.603715
-0.0185051
-0.0200488
-0.00291422
-0.000771295
2.4446e-05
2.54117e-06
-0.017339
-0.000895359
0.216632
-0.0011476
-0.0026541
0.0113515
-0.000239131
-0.0790367
-0.116785
0.0273275
0.0643619
0.0423648
0.149244
-0.0780578
0.143606
0.110899
0.150466
0.187538
-0.020935
-0.00125234
-0.0124958
-0.13075
-0.00517638
-0.0253414
0.117949
0.504909
-0.102759
-0.000558422
-8.16339e-07
-0.00190428
1.6133e-05
0.0104894
-0.000866513
-0.0099946
-0.084387
0.000723739
0.00367895
-0.000201528
0.119245
-0.0253387
-0.0566973
-0.00227127
0.446231
0.45777
-0.0177991
-0.126843
-0.0474321
-0.0393539
-0.0249727
-0.00288586
-0.148016
-0.068572
-0.0812858
-0.0323054
-3.48832e-05
0.302627
-0.0343425
-0.0152927
-0.06344
0.0292071
-0.000674262
-0.0145506
-0.00183423
0.0174431
-0.00307142
0.289999
0.000468641
0.0154817
-0.000417689
-0.0863303
0.0134878
-0.00162633
0.0143022
0.000495426
0.0913917
0.196163
-0.00301085
-0.0020727
-8.9605e-05
-0.000741727
-0.000610867
-0.109486
0.191011
0.069653
-0.000233002
0.0114937
-0.000616281
0.327598
-0.109975
0.391874
-0.077101
-0.000489282
-0.000428168
-0.0127641
-0.00880869
-0.0010507
4.43076e-07
0.0398104
0.0466262
-0.000208118
-0.000551321
-0.0333557
6.475e-07
0.25033
-0.00145114
-0.0941133
-0.0329883
-0.00989017
-0.100593
-0.116071
0.227063
-0.0417301
-0.0333531
-0.000312063
-0.100239
-0.0331109
0.0522211
0.220535
0.496751
-0.00148409
-0.107229
0.0168666
0.462042
0.064159
-7.80497e-05
-0.0102836
-0.00619469
-0.00824911
-0.0744036
0.152627
0.000207335
0.0283927
0.00299962
0.138665
-0.000613773
-0.000139599
-0.0874349
0.428166
-0.0962431
0.247859
-0.00272912
-0.000178658
8.56091e-07
-0.141597
-0.0643569
-0.000483609
0.186119
0.0172887
-0.00877643
0.543364
-0.00073104
-0.00650054
-0.109746
-0.0492945
-0.00321875
0.204864
-0.111745
-0.000115908
0.0159314
-0.000219912
-6.91526e-05
0.225471
-0.00503896
-0.000469249
-0.0858939
-0.0425908
-0.00499305
-0.0569785
0.00336523
-0.0366987
0.00213603
-0.00565252
-0.117236
-0.0670196
0.0300546
-0.00144557
0.245356
0.3025
-0.137523
0.0125875
0.0299043
-0.00714812
0.247483
0.184043
-0.045448
-0.000134757
0.0134388
-0.0893621
0.0147961
-0.0521107
-0.0033797
0.0776701
-0.0492296
-8.88504e-05
-4.37783e-05
-0.0650713
-0.0530161
-0.0426073
0.0134208
0.0389456
-0.081644
-0.000168402
-0.00246614
-0.000252502
-0.0697988
1.9796e-06
-0.00289711
-0.0889582
-0.169193
0.23183
-0.00480078
0.00605783
-0.0394027
-0.0428187
-9.85687e-05
-0.0721438
0.23401
0.235487
4.01648e-05
-6.55789e-05
0.239495
-0.00403172
-0.160522
-0.0621222
0.00484181
0.00044533
-0.114706
-0.0314111
0.244936
-0.0914139
-0.0020516
-0.0231227
-0.102897
-0.000779013
-0.000204547
-0.00137311
-0.00151892
-0.0872098
0.260818
-0.000181383
0.633474
0.0254978
0.000158651
-0.00188532
0.000296275
0.000336756
9.57892e-06
0.000185929
-0.0881785
-0.00113933
0.000565777
-0.000158346
0.212997
-0.00906355
-0.000159531
-1.46694e-05
0.538792
-0.0382293
-0.0332615
0.00133774
-0.000976401
0.102066
-7.09113e-05
-0.029497
-0.130527
0.003083
-0.014014
-5.62123e-05
-0.000189281
-0.056188
-0.120338
0.0109225
-0.136651
-0.0916959
-5.57957e-07
0.0339972
0.0527475
0.169145
-0.00240694
-0.000120797
-0.103008
-0.00971674
-0.000848891
-0.0838234
-0.000103089
0.0681905
-0.000117197
-0.00162578
0.0746868
-0.00456685
-0.102202
0.611274
-0.00281593
0.000361423
-0.107012
-0.110616
0.0128284
0.00686804
-0.000103588
-0.0538094
-5.26291e-05
0.28794
0.722396
0.161869
0.00434691
0.00508285
7.41227e-06
-0.0514075
-2.70747e-05
-0.0182147
-0.00261662
0.000443327
-0.00493129
-0.0199925
-7.70809e-05
0.00112512
-0.0194941
-0.000314515
-0.0197782
-0.0290804
-0.019217
-0.00234035
0.659301
-0.00139526
0.00346582
0.000319082
0.0216206
-0.0825408
0.0145855
-0.000152125
-5.62303e-05
0.00308071
-7.95415e-05
2.80873e-06
-0.0238441
0.000913627
8.60248e-07
-0.0903116
-0.00494304
-0.0912437
-0.00244106
-2.5786e-05
-0.00444564
-0.0225677
-0.0291937
-0.0512393
0.00326271
0.000634856
-0.000586692
-0.00258982
-5.11263e-05
0.402621
0.00214288
4.01306e-06
0.000615484
-0.0033052
-0.000606914
-0.104517
-0.0919093
-0.000160017
-0.0117578
3.37096e-05
-0.00608948
-3.23907e-05
0.0574702
-0.00011198
-0.000246985
-0.00780241
8.59127e-06
0.0210318
-0.000216698
-0.00173634
0.0298441
3.40785e-05
0.526195
-0.0964556
-0.0737418
5.4645e-06
1.2188e-06
0.00246515
-0.00155929
-0.0988772
3.79389e-06
1.13336e-05
0.000941745
1.1175e-07
0.000491315
0.000589658
-0.000548508
0.00103418
-0.0890174
0.644624
-0.0703844
0.491376
0.0138046
-0.0342263
5.59636e-06
-0.00103442
-0.021609
0.0001926
0.000371074
0.000223732
0.1341
-0.00295571
-0.000329113
0.604633
-0.000522212
0.000656907
0.000659794
1.55978e-06
0.146167
-0.00355697
0.00151612
0.000170122
-0.00123706
-2.35887e-05
-0.0021555
-0.07892
-0.000445542
-0.00367836
1.27163e-07
-0.00323173
-0.000209245
0.282207
-0.000500495
-0.000541664
-0.109906
0.00538571
-8.99448e-05
-0.00190375
-1.78647e-05
0.260161
-0.131447
-0.000684162
-0.000388118
-0.004618
-0.000276099
0.0953167
0.190631
0.0777984
0.000524593
1.24043e-06
7.16464e-07
0.102423
0.000331309
-0.0944907
-0.0531795
-0.0298564
0.0667252
0.673807
0.00273982
0.320392
-0.0279395
-0.052691
0.2644
-0.000331407
-0.116568
6.41373e-06
-0.0156955
-0.0770342
8.57444e-05
-0.100376
-0.00117045
-0.0182954
-0.0120397
-0.0666579
-0.0737257
-0.00748787
-0.116457
-0.0692569
-0.00011615
-0.0182555
-2.84239e-05
-0.0586687
-3.35273e-07
-0.000124547
0.0311584
0.251297
1.27825e-06
-0.0823764
0.00493955
0.000119371
-0.0423426
2.10627e-05
-0.0203714
-0.0003535
-0.0601838
0.000168353
-5.05114e-05
-0.0039668
-6.0557e-05
0.245852
-0.054607
0.154713
1.41232e-06
0.000821386
-0.0497851
3.89865e-06
-0.102878
-0.115248
-0.0936847
0.642183
-0.0111079
2.7876e-06
0.0417038
-0.0661542
-0.0057291
-3.02754e-06
-4.56532e-05
-0.0821015
0.000172594
0.00115037
2.49216e-06
0.000210154
-0.043365
0.258608
-0.111454
0.168053
-0.00892994
3.58091e-07
0.00776791
-0.104785
5.52132e-07
4.93186e-06
0.000420107
9.75807e-05
0.000531234
0.412747
0.0580218
8.74501e-05
2.89293e-05
-0.112896
0.304581
0.277593
1.14358e-06
-0.0639764
-0.0391932
-0.0214991
-0.0810889
-0.0179017
-0.00443298
0.220079
-8.71877e-06
-0.0467761
0.260729
-0.0882379
1.5513e-05
-0.102526
-0.000138453
0.480731
0.0454541
1.74195e-05
4.5279e-06
0.293452
8.39519e-06
-0.000157627
-0.0179542
4.15027e-05
0.39181
0.0034304
-0.0110116
-0.106494
-0.00610996
-0.151953
0.281687
-0.0287029
-0.0304975
0.00129982
9.80808e-06
-0.00175321
2.49266e-05
1.42645e-05
0.0411733
0.27574
0.232712
-0.000558784
0.360224
-0.0269913
2.50772e-05
-0.0732261
1.50389e-05
-0.0501521
0.0475479
-0.0295446
0.00578432
0.00254469
-0.0138551
0.0002716
-0.00257346
0.030545
-0.00383306
-1.83289e-05
5.10641e-05
-2.0688e-05
0.0511651
9.38217e-05
-0.0465612
0.378815
-0.0108596
7.97535e-05
-0.00505755
2.10584e-05
0.181816
-0.000296813
-2.53942e-05
-2.63724e-05
9.00989e-06
0.316077
-0.00014873
0.375827
-0.121646
0.000153609
-0.0993124
-0.0010031
0.242139
0.613857
-0.0017161
4.81675e-06
4.33894e-05
7.21782e-06
0.239571
1.88578e-06
0.00129632
-0.0367664
0.354084
1.98758e-05
3.89914e-05
5.32514e-06
4.37495e-05
-0.0362085
4.19186e-06
0.457921
-0.0322804
-6.16183e-05
4.83241e-05
-0.002688
-0.0461064
2.58313e-06
-1.53346e-05
0.254769
5.60857e-05
-0.0573102
-0.100736
0.000180201
1.93806e-06
-0.185334
2.42212e-06
0.263212
2.49098e-05
-0.000535339
2.77759e-05
-0.000100791
0.150003
1.36801e-05
-0.00241128
2.94055e-05
0.0178595
-0.00585166
-0.00925529
-0.00114368
0.238083
-0.000495889
-4.4928e-05
-0.013246
-0.013151
-0.000174528
-4.08412e-05
-0.00136171
7.36784e-05
0.326628
-0.020606
0.661904
1.33613e-05
-0.0124034
-0.000255039
0.224493
9.4543e-05
-0.0496027
4.06916e-05
-0.00225486
-0.0592292
-0.000180718
-0.0274319
-0.0903867
0.0061892
2.35009e-05
-0.117574
-0.000246824
-0.000633916
-0.00860608
-0.0333131
0.00154161
-5.252e-05
-0.000495279
-0.00199254
-0.00175351
3.84421e-05
-0.00158688
0.608232
0.000141808
-0.00458859
-0.0621125
-0.116151
-0.114076
-0.0765633
-0.0388073
-0.00115266
-0.0362182
0.000119043
-4.2767e-05
0.62995
-4.74553e-05
0.301816
-0.000377504
0.000477117
-0.00142326
-0.112079
-0.000449406
-0.000977556
1.39463e-05
-0.000396983
1.68826e-05
-3.82327e-05
-0.0226706
-8.09084e-05
-1.91147e-06
-3.92407e-05
0.000149404
2.0003e-05
-0.0806739
0.415567
7.2241e-06
-0.000545641
7.02294e-07
5.38483e-05
-0.000931793
2.29802e-05
-0.00106302
0.000336549
-0.000347705
-0.112775
-0.000810213
-0.00293158
1.57261e-05
-0.00342514
0.000430461
1.92618e-06
1.02109e-05
2.54165e-05
-0.000788673
0.00064955
-0.0831797
-0.0522958
-0.110703
5.8002e-06
-0.00431127
-0.00886077
-0.108242
-3.76615e-05
0.0224894
0.00892864
-0.00104725
-0.0203035
-0.0883398
0.603428
-0.000387426
7.03536e-06
0.000966859
8.41459e-05
3.3454e-05
0.120067
0.00399152
0.139675
-0.0755046
0.573204
-0.00045449
1.02934e-05
0.000199109
9.91294e-06
-0.00147835
0.253421
0.326732
1.70831e-05
-0.000142536
1.49102e-05
0.312294
0.0274739
-0.0149882
2.166e-05
3.40526e-05
0.0105134
-0.00066021
-0.135669
-0.0294554
5.7663e-05
0.00453942
-0.0604306
-2.02439e-05
0.00230953
-3.80436e-05
-0.0788608
-0.00207392
0.238005
3.07006e-05
0.00222281
-0.00227198
3.17507e-05
0.000224609
-0.0409613
2.97983e-05
-0.000917633
5.06366e-05
-0.028765
-0.0755342
-0.0069734
-0.0167804
-0.0128136
0.0135896
-0.0146897
-0.00311258
0.000106589
0.000145376
4.49227e-05
3.85408e-05
-1.61559e-05
0.0123356
-0.114922
0.00061213
-0.0907989
-0.0038418
-0.1034
0.00012996
2.87206e-05
0.00169667
-0.0452619
3.7133e-05
-0.0897975
-0.0277016
0.109439
-0.0910475
5.03171e-05
-0.00433475
0.000249435
-0.133552
0.207679
4.25165e-05
-0.113358
-0.0433609
-0.00549611
7.22749e-05
8.98039e-06
0.0447582
-0.0242683
5.5164e-05
-0.0101903
2.90681e-05
0.000272507
0.196827
6.15594e-06
3.6659e-05
-7.88664e-05
6.56924e-05
0.0011523
0.000126709
-0.00685339
0.00028809
-0.0218159
0.00138497
-0.000228209
-0.0660281
-0.0781731
-0.0103503
2.40514e-06
4.43056e-05
-0.125925
0.00802922
-0.0845509
6.36026e-05
-0.00831166
1.43618e-06
5.10313e-05
0.125651
-0.00939351
-0.00346177
3.08984e-05
-0.0333671
8.28159e-05
-0.121806
5.69524e-05
-0.139251
5.38515e-05
6.27469e-06
0.000125785
0.00131809
-0.112684
-0.0266304
-0.134873
4.62477e-05
0.000132111
-0.138738
-0.0534271
-0.0116417
1.34533e-05
-0.0486609
-0.0988352
-0.137009
3.39362e-05
1.26207e-05
3.74732e-05
-0.125044
-0.131778
0.00087431
-0.0153363
-2.23798e-05
0.398222
0.000134694
4.68345e-05
0.000197457
2.12767e-05
1.40239e-05
-0.00565338
0.000154328
-0.00395552
-0.12814
-0.0186069
-0.089504
7.62519e-05
-1.1301e-05
0.0899271
-0.0996808
-0.00619267
0.178798
2.85463e-05
1.29469e-05
1.2266e-05
0.228458
0.000225339
-8.75671e-06
2.44189e-05
-0.124339
-0.0223331
3.97873e-05
6.74869e-05
-0.0157754
-0.00853218
0.000488264
0.33226
-0.118823
-0.000738623
0.76516
-4.92609e-06
-0.00129024
-0.0169219
-0.135249
3.44009e-05
3.10611e-05
3.94685e-05
0.00633648
-0.0672434
-0.000440141
-0.0931782
-0.0104845
6.25439e-05
4.64885e-06
-0.0140831
-0.0128382
-0.00633038
-0.0835403
-0.0766516
-0.0685463
0.0288297
-0.0501803
-2.37137e-05
0.000422044
0.0146793
0.000682427
-0.000178576
0.000890805
6.55585e-05
-0.000150929
-0.0169278
4.28075e-06
5.09216e-06
0.0624482
-0.029472
-0.000395588
-7.09269e-05
1.88814e-05
0.357492
-0.01111
0.000882534
-0.0527121
0.000292202
0.000255253
0.000221311
-1.25718e-05
0.000580686
-0.0704493
0.024119
4.81418e-06
-0.000315733
-0.0803477
-0.0636736
0.0773524
-0.00041519
0.00247626
0.0270778
3.1053e-05
9.7044e-05
-0.0975349
4.179e-05
0.247637
4.10219e-05
0.00577561
0.000216175
0.000283189
-0.120959
-0.0127385
-0.0311846
-0.00309759
4.83736e-05
0.00717363
0.0977722
-0.0218737
-0.000103255
0.150083
0.243796
1.82521e-05
-0.0943668
-3.10967e-05
1.76041e-05
-7.9447e-06
-0.000496242
0.0302757
2.29463e-05
0.000307049
-0.0379102
-0.045036
-0.0321999
0.437332
5.21372e-05
-2.91937e-05
0.254375
-0.0168842
-0.00607522
-0.000596782
0.251486
8.06052e-05
-0.000773456
6.96615e-05
5.52673e-05
5.74748e-05
6.55742e-05
0.000107812
-0.0267758
4.10207e-05
-0.00570813
-0.0770858
0.372324
-0.000471929
-1.14939e-05
0.00646712
0.135192
-0.0958375
-0.000721346
-0.112123
0.438311
7.35047e-05
0.552346
1.14081e-05
0.004152
0.0375806
0.000532947
0.57835
-7.08636e-06
9.43697e-06
0.001353
5.83797e-05
-0.000854468
0.000330101
4.4786e-05
-0.00257811
3.05287e-05
-0.000115826
-0.00473838
0.353065
0.0850783
0.0338477
-0.0722184
7.68474e-06
1.48223e-05
0.00405353
-0.113718
1.65194e-05
-0.07833
-1.61315e-05
0.164161
0.0986711
-0.0636672
-0.00188485
-0.0225412
-0.000973122
-0.0212263
0.00219595
-0.0144393
0.103792
8.25201e-06
0.420432
0.0802068
-0.001398
0.322803
-0.0232093
3.05553e-06
5.81572e-05
0.000103401
-0.000132549
-0.000109612
0.353053
-0.00119292
0.364716
-0.00249955
0.248436
0.340979
0.225729
-0.0119148
2.25846e-05
5.74813e-05
-0.0148796
-0.193637
-0.0950837
0.00195088
5.02672e-05
-0.063723
-0.000918562
-8.5221e-06
0.00130131
-0.00126078
-0.00171131
0.0525537
0.000112974
-0.0787003
0.0954067
9.19891e-05
0.000324504
-0.0279757
-0.120011
-0.000803132
-0.000503145
4.71481e-05
0.000296524
0.193914
-0.0315395
-0.094985
0.00166593
0.194044
-0.07372
7.09434e-05
5.73703e-05
0.0467476
-0.00016186
0.166217
-0.0026757
-0.0194353
-0.000478615
0.00203106
-0.0702521
-7.54842e-05
0.000595495
-0.00405892
-0.135902
0.265931
-0.107065
-0.0489351
-0.000341613
-8.21405e-06
0.00965022
8.34542e-05
-0.13402
-0.130593
0.000689247
0.00385598
0.00523524
-0.180772
0.000772932
0.000224049
7.13992e-05
-0.0772358
6.14511e-05
0.000687576
0.190823
0.270417
-0.191036
0.0786075
0.0780871
0.0412945
-0.000423471
0.0153011
0.000167955
1.48375e-05
-0.000187485
6.17108e-06
-6.6449e-05
-0.000354324
-0.0128294
-0.0991655
-0.016846
-0.0581111
0.0862069
0.070804
0.00538005
-0.127555
0.000182034
0.00550277
0.0156196
-0.00043415
0.125271
-0.00310955
-0.0201338
0.0167751
0.00779473
-2.37792e-05
-0.00655981
0.0711293
0.000992383
-0.0346081
-0.0297463
0.675882
-0.0473457
0.134133
0.0551614
-0.0754491
0.00285697
0.000110803
-0.00328
7.66829e-05
-0.00326822
-0.0471678
-3.15397e-05
-0.000224574
0.440641
-0.00409203
-0.0766436
-0.0275112
0.000172916
-0.00388775
9.20328e-06
3.2678e-05
0.063357
7.6292e-05
-0.00364755
0.127824
0.00794489
0.00144399
0.0271254
-0.00959251
0.00584486
-0.172904
0.00101379
-0.00715454
-0.106964
-0.00147866
-0.0137371
0.000742319
-0.00143285
0.00122428
0.061543
-0.000823144
0.00768846
-0.0885314
-0.0374177
0.000194009
-0.0855057
-0.0260762
-0.0253252
4.975e-05
0.00938596
-0.144313
-0.000976345
-0.00849189
-0.0799668
-0.00337057
-0.00160069
0.339081
-0.0448878
1.20199e-06
0.0120241
-0.102334
-0.00130896
0.291543
-0.00532194
0.0012774
0.0951159
-0.00202887
0.011103
0.198131
-0.000237003
0.00149478
0.000224386
4.13338e-05
-0.00582712
-0.0148578
-0.000495611
-0.0427161
0.162788
-0.0621822
-0.152233
0.00149299
-0.00479668
-0.00149615
-0.0883648
3.75275e-05
0.0244174
6.60258e-06
-0.0233155
-0.00252664
-0.00649475
0.0515508
0.198185
-0.163219
-1.64843e-05
0.321573
-0.00389424
-0.00639263
-0.10645
-0.171718
-0.028097
2.39494e-06
-0.00268251
0.0102396
-0.00439368
-0.00770038
0.000312
0.141675
-0.0886436
-0.0191632
-0.008952
0.0383407
-0.00898936
-0.00595429
0.00222105
-0.000563469
-0.0043226
0.192256
0.000842895
-0.188937
-0.000212652
-0.00996515
-0.00835882
-0.183699
-0.0205668
-0.21202
-2.60038e-05
-2.5884e-05
-0.0122372
0.0147177
0.00158326
-0.230996
0.149447
-0.0944294
0.000229091
-0.243101
-0.000240014
-0.246954
-0.0457616
-0.234118
-0.219596
-0.193998
-0.117965
0.0196619
0.0709165
0.117576
0.164385
0.209885
0.335219
0.374061
0.410233
0.469152
-0.0110567
-0.0137307
0.114744
-0.039586
0.00101642
0.0231839
-0.0756847
0.000298367
-0.00183055
4.10612e-06
-0.0262694
0.0268362
8.02863e-05
-0.000966185
-0.014586
-0.0176601
-0.248216
-0.0305411
-0.108572
-7.41119e-05
0.000530843
-4.49756e-07
-0.111603
-0.0161971
-0.0706287
-0.0251179
0.00218958
1.86108e-05
0.00651887
-7.37185e-07
-0.025781
-7.53036e-05
0.000444914
-0.0160321
-0.0161401
-0.0012595
0.000393534
0.0777747
-0.0189764
0.113027
-0.24962
-0.020198
0.295468
-0.0327545
0.00460837
-0.0397664
-0.00540375
-0.0177763
-0.0253241
0.471221
-0.00336546
9.86341e-05
-0.0100967
-0.0169123
9.69968e-06
0.129883
-0.00805439
0.448585
-0.0329336
-0.0741935
-0.0482354
0.0798273
-0.0108035
-1.2176e-05
1.23134e-06
-0.00699939
-0.122389
8.76121e-05
0.519434
-0.00429165
-0.00886587
-0.00055681
-0.000399153
-0.013598
0.253182
-0.0619846
0.19063
0.000772333
-0.0245446
2.30441e-06
0.0420716
-0.0167492
0.0297484
-0.0388021
-0.00893352
-0.00322583
0.00118648
0.0165274
1.63205e-06
-0.0202743
1.34594e-05
-0.000461068
0.000583028
-0.0520303
-0.000152926
0.225472
-0.0179653
0.00453069
-0.11786
0.0705556
-0.125289
-0.0241884
0.0661681
-0.0280632
0.26773
-0.015299
-0.00550696
-0.0943873
-0.00229045
-1.05387e-05
0.000527274
0.000128068
-0.00566983
0.00567041
9.7705e-05