/*--------------------------------*- C++ -*----------------------------------*\
  =========                 |
  \\      /  F ield         | OpenFOAM: The Open Source CFD Toolbox
   \\    /   O peration     | Website:  https://openfoam.org
    \\  /    A nd           | Version:  7
     \\/     M anipulation  |
\*---------------------------------------------------------------------------*/
FoamFile
{
    version     2.0;
    format      ascii;
    class       volVectorField;
    location    "11.5";
    object      U;
}
// * * * * * * * * * * * * * * * * * * * * * * * * * * * * * * * * * * * * * //

dimensions      [0 1 -1 0 0 0 0];

internalField   nonuniform List<vector> 
7807
(
(1.06588 0.0995572 5.06765e-20)
(1.05672 -0.0227618 1.57874e-19)
(1.02644 0.0816531 -8.08208e-20)
(1.04183 0.0600726 1.61783e-19)
(1.01964 -0.00222659 2.46498e-20)
(1.00509 -0.0175038 1.86032e-20)
(1.02499 0.0758009 -1.60032e-19)
(1.01705 -0.00292664 6.22263e-22)
(1.01673 -0.00150832 2.12645e-20)
(1.02861 0.000799437 -1.39283e-20)
(1.01281 -0.00641041 -2.05132e-20)
(1.02054 -0.002393 -3.94527e-20)
(1.01383 -0.00365133 -3.8674e-20)
(1.02665 -0.00103211 -1.65162e-19)
(1.02749 0.00156843 5.81298e-20)
(1.01613 -0.009325 6.16428e-20)
(1.06659 0.103581 -1.07574e-19)
(1.00923 -0.00211689 1.07715e-20)
(1.02263 -0.00583693 -3.12154e-20)
(1.00917 -0.0631774 1.32983e-20)
(1.0394 0.0028036 -4.45962e-20)
(1.01988 0.000415038 1.11854e-19)
(1.0288 -0.00181327 2.13583e-20)
(1.01319 0.0328439 -9.83059e-20)
(1.00385 -0.00165929 3.83102e-20)
(1.06316 0.0979497 -5.08112e-20)
(1.01999 -0.00176262 2.05583e-20)
(1.03187 0.000736345 5.44408e-20)
(1.00672 0.0172413 -1.43201e-20)
(1.02216 -0.00566337 2.7866e-20)
(1.01249 -0.00996668 8.79449e-20)
(0.712749 0.0159904 1.66303e-20)
(1.02754 -0.00185377 1.15198e-19)
(1.01759 -0.00314462 -4.63522e-20)
(0.663765 -0.00244942 1.50059e-22)
(1.02858 0.00228348 2.22112e-20)
(1.02342 -0.00730677 2.05306e-20)
(1.02575 0.0742685 -2.71788e-20)
(1.01731 -0.00603955 -1.11278e-19)
(0.979567 -0.00405067 -5.58325e-20)
(1.01776 -0.00596689 1.12004e-20)
(1.01613 -0.00901898 2.30054e-20)
(1.02803 -0.069942 -6.36592e-20)
(1.12811 -0.022371 -2.2947e-20)
(0.636953 -0.00301939 -2.6339e-20)
(0.992464 0.000203246 1.24231e-20)
(1.01858 0.000495252 -6.80372e-20)
(1.01862 -0.00537756 6.55017e-20)
(1.01642 -0.000283899 1.1615e-20)
(1.01215 -0.0636567 -1.95954e-20)
(1.02109 -0.0018712 3.15144e-20)
(1.03266 0.00177506 -5.87965e-20)
(0.985969 -0.00087931 1.0569e-19)
(1.0275 -0.018387 2.24467e-20)
(1.02803 0.000692203 -1.70913e-20)
(1.01771 -0.00332825 1.13611e-20)
(1.02098 -0.00481986 4.92284e-20)
(1.01574 -0.00287868 -7.32643e-20)
(1.007 -0.0114442 1.00341e-19)
(1.01753 -0.00399616 5.62541e-20)
(1.01573 -0.00118949 -2.82497e-20)
(1.02226 -8.28763e-05 2.99825e-20)
(1.0276 -0.000389625 -3.73297e-20)
(1.01958 -0.00201149 4.02787e-20)
(0.996134 -0.00611748 -4.3852e-20)
(1.01289 -0.0102372 -1.40341e-20)
(1.01586 -0.00210521 -1.98163e-20)
(1.01372 0.000208046 2.86764e-21)
(1.1227 0.0644246 5.18349e-20)
(1.01881 -0.00463264 2.63766e-20)
(1.01182 -0.0009194 -1.12175e-20)
(1.00216 -0.0361038 1.17639e-19)
(1.01152 -0.00266733 -1.90332e-20)
(0.945123 -0.00362287 -1.61055e-20)
(1.01399 -0.00210002 -3.3775e-20)
(0.99856 -0.01693 1.60065e-20)
(1.02752 0.0825686 1.29487e-19)
(1.03789 0.00246672 5.60401e-20)
(1.07718 0.00929194 -1.15933e-19)
(0.991979 -0.0291801 1.32634e-19)
(1.01641 -0.00353316 5.94955e-20)
(1.01704 0.0707447 1.82844e-19)
(1.04116 0.0111245 9.82066e-20)
(1.00317 -0.00521056 -7.15427e-20)
(1.01761 -0.00341977 3.35893e-20)
(0.922751 -0.00791214 -1.82574e-20)
(1.01684 -0.00322347 -9.76967e-20)
(1.00043 -0.00224975 -6.76733e-20)
(1.01862 -0.00200804 -2.82399e-20)
(0.930022 -0.00391561 -3.50892e-20)
(1.00696 0.0196207 1.01607e-19)
(1.15252 -0.00900914 3.57267e-20)
(1.01453 -0.00208253 1.9715e-20)
(1.0211 -0.00497933 2.29887e-20)
(1.01656 -0.00293707 -4.15495e-20)
(0.723588 -0.00380389 1.23967e-19)
(1.00373 -0.035923 -7.07447e-21)
(1.02851 -0.0173873 -3.86745e-20)
(1.01708 -0.00344257 -6.74035e-21)
(0.980855 0.000750822 -1.22712e-20)
(0.966543 -0.0118926 -3.37255e-20)
(1.07766 0.013109 8.71558e-20)
(1.01745 -0.00259762 1.03279e-19)
(0.688749 -0.00121669 5.79588e-22)
(1.15468 0.00037163 2.26863e-20)
(1.03223 0.0308394 -9.78874e-20)
(0.917878 0.046422 2.25787e-20)
(1.01764 -0.00315001 4.34225e-20)
(1.01255 -0.000645242 -9.84388e-22)
(1.03535 -0.00549203 -4.73111e-20)
(1.04397 0.0576444 -1.87771e-19)
(1.03949 -0.0503729 1.20566e-19)
(1.01273 -0.000330828 1.2209e-21)
(1.03698 -0.00582533 -1.02673e-20)
(1.02884 0.0303316 1.02175e-19)
(1.01808 -0.000312351 -1.51147e-20)
(1.07296 -0.0594442 8.89498e-21)
(1.03251 0.0192953 -2.70983e-20)
(1.01028 -0.0284052 -7.22571e-20)
(0.981967 -0.00325862 1.71216e-20)
(0.84142 -0.00800994 7.96913e-20)
(1.00719 0.0587872 -1.21789e-19)
(1.03258 -0.0689493 8.74483e-20)
(1.02481 -0.00315787 1.31617e-20)
(0.901126 -0.0090076 -3.13622e-20)
(1.01832 -0.00253546 -6.01164e-20)
(1.01391 -0.00739944 -3.22844e-20)
(1.02123 -0.00542897 -3.77791e-20)
(0.933581 -0.00599313 9.90419e-20)
(1.01318 -0.00900485 -2.11942e-21)
(1.18318 -0.0212799 1.05349e-20)
(1.07289 0.00732026 1.94392e-20)
(1.01822 -0.00340331 -4.37629e-21)
(1.01801 -0.00219968 6.27031e-20)
(0.997678 -0.00510255 -2.05177e-20)
(1.04182 0.0518908 7.4767e-20)
(1.0182 0.0931674 2.03968e-19)
(0.912727 0.00309567 2.35758e-21)
(1.0257 -0.00174572 7.21314e-21)
(0.739719 0.00303496 8.41687e-20)
(0.864777 -0.00514695 7.0087e-20)
(1.01357 -0.0400195 9.0681e-20)
(0.998903 -0.018321 -2.14526e-20)
(0.941911 -0.00346108 1.27489e-21)
(0.78554 0.0113835 8.86581e-20)
(1.02949 -0.0284585 5.93577e-21)
(1.01385 0.0196116 -5.42602e-20)
(1.00832 -0.0137468 5.39292e-20)
(0.777909 0.00241997 -1.48096e-20)
(1.00854 0.065624 -6.0798e-20)
(1.03062 0.00344395 6.48775e-20)
(1.14209 -0.0117115 1.54662e-20)
(1.01881 -0.00229523 9.46656e-20)
(1.12719 0.0585972 1.24194e-20)
(1.03975 0.0105238 -1.04006e-19)
(1.02978 0.0752368 -1.40638e-19)
(0.995374 -0.020173 -5.76972e-20)
(0.998408 -0.00544214 -1.44799e-20)
(1.01984 0.0635238 2.03939e-19)
(1.01667 -0.000982233 1.21664e-20)
(1.02114 -0.00493108 -5.73685e-20)
(1.01452 0.0366632 6.75287e-20)
(1.01383 -0.00238298 -1.46274e-20)
(1.01859 -0.00407969 1.14878e-19)
(1.01038 -0.000959925 1.85132e-20)
(1.00679 0.0452412 -2.03564e-20)
(1.0042 0.0427405 7.31306e-20)
(1.0142 0.061297 6.34671e-20)
(1.01828 -0.00453134 4.97239e-20)
(0.880278 -0.00318973 2.3237e-20)
(1.01462 0.00129037 -2.87591e-21)
(0.592255 -0.0045798 1.27001e-19)
(1.01839 -0.000874422 2.02097e-20)
(1.0581 -0.0200627 -1.84706e-19)
(1.02552 -0.00225173 4.70211e-20)
(0.86137 -0.00293204 -3.01159e-20)
(1.14662 0.00826084 4.21576e-20)
(1.08925 0.0623661 4.21071e-21)
(1.0149 -0.00234226 -1.14371e-20)
(1.01842 -0.00213089 5.73881e-20)
(1.04285 0.0620424 -2.6923e-20)
(1.01309 0.000946856 5.3292e-21)
(0.873635 -0.00710732 -6.01166e-21)
(1.02525 0.0769719 -1.31581e-19)
(1.05848 -0.024865 8.00579e-20)
(1.02944 -0.0419587 7.66905e-20)
(1.01156 -0.0274657 1.03715e-19)
(1.00052 -0.00515565 -5.18766e-20)
(1.02753 -0.0295086 -1.46504e-20)
(0.69194 -0.00572905 -4.44767e-20)
(1.01295 -0.00287576 4.55529e-21)
(1.00422 -0.0335345 2.89771e-20)
(1.09091 0.0678308 -7.78101e-20)
(1.01756 -0.00248632 -1.48754e-20)
(1.01695 -0.000415411 -1.41839e-20)
(1.06936 0.0644266 6.09115e-21)
(1.01791 0.00114225 -9.35836e-20)
(1.01367 -0.00849824 -4.81376e-20)
(1.02545 -0.0279093 -5.24597e-20)
(1.01513 -0.000983193 -1.20713e-21)
(1.01885 -0.00196547 -4.91965e-20)
(1.03908 0.0522916 8.46061e-20)
(1.081 0.0715121 -8.77261e-20)
(1.02694 0.0720703 -1.84501e-20)
(1.06966 -0.054738 -5.01356e-20)
(1.04211 -0.0476256 -2.47992e-20)
(1.10878 -0.0823993 1.2965e-20)
(1.03044 -0.00222617 1.46902e-19)
(1.03603 0.051367 -3.12703e-20)
(0.844425 -0.0130908 2.53975e-20)
(1.01655 -0.000491284 8.16802e-21)
(0.650325 0.0501758 -9.76675e-20)
(1.01655 -0.00893009 2.498e-20)
(1.01821 -0.00372309 3.88737e-20)
(1.00576 -0.0330198 -6.71092e-20)
(1.01368 -0.00778888 3.581e-20)
(1.03345 0.0711613 -1.68879e-19)
(1.031 0.0706559 -3.75947e-20)
(1.01176 -0.0409689 -2.33875e-20)
(0.934072 0.031778 -6.73841e-20)
(1.02014 -0.000463408 7.08943e-20)
(0.997451 -0.00233022 -3.76584e-20)
(0.944703 -0.0113451 -4.37058e-20)
(1.03809 0.00576526 -2.90986e-20)
(1.03109 -0.0889512 5.87499e-21)
(1.07975 0.100299 -1.22024e-19)
(1.02217 0.0602348 -1.78125e-19)
(1.01587 -0.00148673 2.05916e-20)
(1.02416 -0.00352358 1.73787e-20)
(1.03028 0.0216834 1.41644e-19)
(1.01847 -0.00456207 8.73023e-20)
(1.03477 0.0198629 -1.86859e-20)
(1.01845 -0.0020412 2.04878e-20)
(0.998721 0.058681 1.24014e-19)
(1.02967 0.0726243 2.89597e-20)
(1.01678 -0.00305601 -5.94845e-20)
(1.02255 -0.00541568 -3.43949e-21)
(1.00537 -0.00318827 1.06494e-19)
(1.10589 0.0846519 4.18231e-20)
(0.871719 0.00537363 -2.07545e-20)
(1.0177 -0.00678966 -2.44658e-20)
(0.975982 -0.018638 -5.01496e-20)
(1.01628 -0.000236422 4.68945e-21)
(1.01788 -0.00340398 2.49593e-20)
(1.01844 -0.00209738 -2.27178e-20)
(1.06322 0.0427624 9.5553e-20)
(1.01462 -0.00223037 -1.93235e-20)
(0.830249 0.00446906 -1.7061e-22)
(0.993556 -0.0290514 -1.54756e-19)
(0.580748 0.0205747 -3.6374e-20)
(1.07246 0.00375464 -2.8624e-20)
(1.01158 0.0486467 9.91247e-20)
(0.992036 -0.0113314 1.50721e-20)
(1.0238 -0.0285509 -4.46642e-21)
(1.01713 -0.00291493 4.43215e-20)
(1.02816 0.0761927 -1.34117e-19)
(1.02058 0.000548029 -3.70166e-20)
(1.02383 0.0856455 6.52811e-20)
(1.02204 -0.00674307 -9.25046e-20)
(1.01972 -0.0014182 6.26422e-20)
(1.04032 -0.0193393 -7.14318e-20)
(1.02985 -0.00090195 -1.36954e-19)
(1.01823 -0.00065799 3.12486e-20)
(1.00484 -0.00631577 -1.65326e-21)
(1.01829 -0.000989712 7.88874e-20)
(1.01867 -0.0047365 7.37564e-20)
(1.03465 -0.0436259 -9.5587e-20)
(1.01391 -0.00715957 -1.00386e-20)
(0.996309 -0.0192096 -4.22618e-20)
(1.01604 -0.00154925 3.98295e-21)
(1.01467 -0.00178356 -2.0674e-20)
(1.01836 -0.00357222 -1.1713e-20)
(1.02316 0.0788576 1.54794e-19)
(0.782335 -0.00366618 -1.759e-20)
(0.921631 -0.00734558 1.08012e-20)
(0.438687 0.0324997 1.54428e-19)
(1.01774 -0.00387182 4.73741e-20)
(1.05953 0.0790942 -6.54751e-20)
(1.01694 -0.00297037 -6.45025e-20)
(1.02507 -0.0139581 6.83211e-20)
(1.01598 0.000550953 -9.00715e-22)
(1.01 -0.0225901 4.44887e-20)
(1.03818 0.00591691 4.20069e-20)
(1.14798 0.0158814 -9.73766e-20)
(1.00712 -0.0124255 -8.60016e-20)
(1.01776 -0.00245369 -7.16628e-20)
(1.00854 -0.0532749 -3.34824e-20)
(0.230213 0.0012166 -4.77985e-20)
(0.845936 0.00647252 -4.03128e-21)
(1.01826 -0.000845976 -6.99954e-20)
(1.0189 -0.00329797 -5.50697e-20)
(0.977565 -0.00876437 5.65317e-20)
(1.02236 -0.000735375 -6.09535e-20)
(1.01823 -0.00257117 -3.15448e-20)
(1.00427 -0.00506274 -1.20888e-20)
(1.03786 -0.041915 6.42381e-20)
(0.999106 -0.00364471 -5.24787e-20)
(1.12251 -0.0160896 6.56677e-21)
(0.967331 -0.0037665 5.56334e-20)
(1.03549 0.081955 1.52049e-20)
(1.0336 0.0831837 -1.14305e-19)
(1.01789 -0.00223176 4.97274e-20)
(1.16618 0.0149705 1.23817e-19)
(1.01376 -0.0044191 1.73512e-21)
(1.01927 -0.00379309 5.86549e-20)
(0.544258 0.00601855 -1.27836e-19)
(1.01014 0.0291187 5.78542e-20)
(1.04277 0.0141805 -8.658e-20)
(1.01617 -0.00166648 2.81578e-20)
(1.01918 -0.00301416 8.53044e-21)
(0.986515 -0.0037742 -4.20042e-20)
(1.05183 0.0388375 -3.85366e-20)
(1.01829 -0.002607 -3.40819e-20)
(1.01994 -0.00147629 2.80413e-20)
(1.01938 -0.000572304 -6.53488e-21)
(1.10855 0.027638 1.00548e-19)
(1.18268 -0.0318343 6.4666e-20)
(1.04457 0.0930213 7.57773e-20)
(0.961106 0.00157821 4.60349e-20)
(1.06536 -0.0234084 -1.56798e-19)
(1.01497 -0.00207323 2.00632e-20)
(1.02281 -0.00505453 -9.67393e-20)
(1.01673 -0.001006 4.21531e-21)
(1.01201 -0.0134271 -1.48098e-20)
(1.00744 -0.00440347 1.83504e-20)
(1.02809 -0.0128597 9.55839e-21)
(1.18572 0.0175341 -1.05146e-19)
(1.00393 -0.0179233 -8.39446e-20)
(1.02594 -0.0131476 -1.99435e-20)
(1.02377 -0.00295205 -2.86065e-20)
(0.984773 -0.00905504 -4.95222e-20)
(1.03725 -0.0097842 3.14174e-20)
(1.01895 -0.0116097 -4.35931e-20)
(1.07303 0.0167685 -4.3344e-20)
(1.0594 0.0415281 4.63127e-20)
(1.14933 -0.0925653 -9.90233e-22)
(1.12599 -0.0298302 5.75656e-20)
(0.402902 -0.00337301 5.09382e-20)
(1.02267 -0.00210356 6.76558e-20)
(0.977863 -0.0177521 2.05044e-20)
(1.00959 0.058249 -1.98826e-19)
(1.11032 -0.0306506 -1.00868e-19)
(1.03537 -0.00371164 -9.29913e-20)
(0.977417 0.0380693 -9.42933e-20)
(0.896491 -0.00893589 -2.24767e-20)
(1.01778 -0.0024212 1.36215e-20)
(1.13952 -0.0198688 5.71887e-20)
(1.01885 -0.00294154 2.79511e-20)
(1.02968 -0.0262007 -2.03352e-20)
(1.0232 -0.00237098 2.15712e-20)
(0.944728 -0.00279243 2.25551e-20)
(0.963718 -0.00367227 4.62719e-20)
(1.03436 0.0275849 7.77708e-20)
(1.01603 -0.0018519 8.66522e-21)
(1.01822 -0.000241735 -2.75175e-20)
(1.01604 -0.000461878 2.44559e-20)
(0.987755 -0.000753893 -1.04735e-19)
(1.01729 -0.00652036 -6.60604e-20)
(1.01287 -0.0160856 -2.41415e-21)
(1.0165 -0.00166698 -6.78509e-21)
(1.00774 -0.0108494 -3.11827e-20)
(0.852981 0.0315255 5.59157e-20)
(1.02734 -0.0138728 -4.29568e-20)
(1.0168 -0.0084211 -9.24249e-20)
(1.02633 0.0665009 2.60512e-20)
(1.00439 0.0498316 1.17385e-19)
(1.06482 0.0074513 -4.14885e-20)
(1.1588 0.0194851 -4.70613e-20)
(0.450456 0.00735951 -6.92605e-20)
(1.02268 -0.00238749 -3.53677e-20)
(1.01332 0.048635 -5.83749e-21)
(0.964617 -0.00291122 8.28532e-20)
(1.04779 0.0785605 3.17903e-21)
(1.02731 -0.0318211 -2.53032e-21)
(1.04817 -0.0789543 2.83578e-20)
(1.07785 0.0691837 5.40342e-20)
(1.04917 0.0817 -7.42494e-20)
(0.997078 -0.0163854 -9.97336e-20)
(1.04442 0.0126071 -6.11583e-20)
(1.0826 0.103876 1.14648e-19)
(1.0558 0.0792859 1.16456e-19)
(1.0313 0.000486821 4.73142e-20)
(1.01774 -0.00266564 -2.45185e-20)
(1.01772 -0.00337546 -1.68271e-20)
(1.01315 0.000224972 9.82672e-21)
(1.03167 -0.0167209 2.96132e-20)
(0.912002 -0.000203727 -1.94692e-20)
(1.01873 -0.00285114 -3.57639e-20)
(1.00144 -0.0113361 1.66819e-20)
(1.01818 -0.00158451 -1.88205e-20)
(1.00663 -0.0523851 5.53075e-20)
(1.09578 0.0360274 3.7019e-20)
(1.00818 -0.00376673 7.85007e-20)
(1.01911 -0.00790643 -1.05279e-19)
(0.990605 0.00133673 5.15473e-20)
(1.0637 -0.0254803 5.5759e-21)
(0.993246 -0.00742364 9.87082e-20)
(1.02106 -0.00460622 6.86547e-20)
(1.09229 0.101194 1.81184e-20)
(0.977355 -0.000595518 1.1401e-19)
(1.01512 -0.00197396 1.65908e-20)
(1.01647 -0.00181167 6.02424e-21)
(1.01587 -0.00169557 3.88206e-20)
(1.00571 -0.0050867 -2.97989e-20)
(1.03259 0.0249486 -9.78171e-20)
(0.923468 -0.00669784 -1.47499e-21)
(1.03326 -0.0040615 6.35364e-20)
(1.03696 -0.0932027 -4.20885e-20)
(1.02643 0.0733277 -2.97429e-21)
(1.02237 -0.0054386 3.67138e-20)
(1.02481 -0.00293909 -6.37962e-21)
(1.01726 -0.00320886 4.86861e-20)
(1.02063 0.0795946 -1.52701e-19)
(0.913536 -0.00376716 -2.46423e-20)
(1.04636 0.0955116 -3.93525e-20)
(1.01148 0.0203823 -9.97993e-20)
(1.00803 -0.00336947 -1.93785e-20)
(1.02584 -0.0325786 5.74819e-20)
(1.00752 -0.00120708 5.10501e-20)
(1.01604 -0.0406886 -1.13947e-19)
(1.01787 0.000400599 2.64451e-20)
(1.06085 0.00977968 5.61087e-20)
(1.02472 -0.00994363 -2.06231e-21)
(1.02402 -0.00195947 1.06151e-20)
(0.99953 -0.00697582 6.1455e-20)
(1.06764 0.0406503 5.00455e-20)
(1.04804 0.0380265 1.45107e-20)
(1.02804 -0.0437423 -6.48312e-20)
(1.00823 -0.0127722 5.58321e-21)
(1.0192 -0.00344833 3.87684e-20)
(1.02194 -0.025429 1.32603e-19)
(1.12367 0.0509759 -7.58426e-20)
(0.813448 0.025517 -8.22386e-20)
(1.08357 -0.0500045 4.67327e-20)
(1.02335 -0.00528119 -2.01446e-20)
(1.01327 -0.000770508 9.63804e-22)
(1.01373 -0.00333449 7.69632e-20)
(0.971766 -0.00423428 -9.10102e-20)
(1.03705 -0.00937827 5.19524e-20)
(1.02552 -0.0734385 2.27862e-20)
(1.16529 0.00436214 -4.68151e-20)
(1.02509 0.0733622 -1.76106e-19)
(1.0551 0.0361758 6.94118e-20)
(1.11037 -0.0733466 -4.78134e-20)
(1.06936 0.068973 2.0786e-20)
(1.01152 0.0732367 1.8985e-19)
(1.03193 -0.00229814 5.42457e-20)
(1.01907 -0.00170787 7.87918e-20)
(1.03355 0.0564105 4.21844e-20)
(1.01879 -0.00271989 -5.94591e-20)
(1.01613 -0.00306291 -1.72176e-20)
(0.729945 -0.00218178 -2.06828e-20)
(1.01796 -0.00128611 5.92564e-21)
(1.11608 -0.0890301 -1.71925e-20)
(1.02305 -0.011126 4.86953e-20)
(1.01128 -0.0223653 -8.06349e-20)
(1.01944 -0.00124709 2.52475e-20)
(1.06537 0.0621881 1.14789e-19)
(0.982957 -0.00183455 9.49285e-21)
(1.01508 -0.00216301 1.20106e-22)
(1.04294 -0.0825082 -2.93127e-20)
(1.01952 -0.000419832 -1.55859e-20)
(1.09604 0.00520482 -1.08859e-20)
(0.968204 -0.0112948 -1.68291e-20)
(0.886847 -0.00584339 -5.26073e-21)
(1.16859 0.0545027 -8.83075e-21)
(1.02805 0.0203017 -3.62251e-20)
(1.0252 0.00641298 2.49437e-20)
(1.02361 0.00581003 -1.17486e-20)
(0.995945 -0.016382 -5.65869e-21)
(1.10186 0.0356423 2.93068e-20)
(1.07328 0.0197343 5.23429e-20)
(1.0192 -0.00282427 -2.33318e-20)
(1.01015 -0.0038706 -9.08222e-20)
(1.01887 -0.000269922 -2.93149e-20)
(1.02802 -0.0116691 -1.12673e-19)
(1.02719 -0.0178789 2.09926e-20)
(1.02327 -0.00140153 -6.62553e-22)
(1.01832 -0.00258646 7.42476e-20)
(1.10551 0.0786816 -1.23869e-19)
(1.01443 -0.00296877 1.97391e-20)
(1.01767 0.000167605 -1.71182e-20)
(1.02169 -0.000915572 -3.75439e-22)
(0.828782 -0.00463714 -4.83911e-20)
(1.03115 -0.00542708 6.34096e-20)
(1.01074 -0.0187173 1.19674e-19)
(0.88994 -0.000849096 2.41473e-20)
(1.03194 -0.0414179 -4.30371e-20)
(1.05122 -0.100882 4.63477e-20)
(1.03912 -0.0174771 3.81372e-20)
(1.03739 0.0558802 -2.43138e-19)
(1.17751 0.0223387 6.32283e-20)
(1.01679 -0.00391383 6.13851e-21)
(0.99601 0.0546013 1.43228e-19)
(1.00556 -0.0374532 -1.07608e-19)
(1.0172 -0.00722908 -1.97599e-20)
(0.840024 0.00580364 -4.17969e-20)
(1.01927 -0.0114789 9.08473e-21)
(0.736724 0.00549602 -7.87399e-20)
(1.01493 -0.00310568 2.80112e-20)
(1.03605 -0.00616939 -7.06452e-20)
(1.11696 -0.0334156 2.19823e-20)
(1.01513 -0.00202944 1.61241e-21)
(1.0337 -0.00559321 -5.0684e-21)
(1.01197 -0.00168672 1.03489e-20)
(1.03218 0.0760371 3.7961e-20)
(1.12358 0.0695765 1.15308e-19)
(1.01793 -0.00303181 -1.68011e-20)
(0.802948 -0.000852301 9.4993e-20)
(1.01057 -0.00439612 3.45639e-20)
(1.01165 0.0740936 1.20771e-19)
(1.04226 0.0810336 9.4173e-20)
(1.10392 0.0290618 -5.48041e-20)
(1.10828 0.09882 -9.80399e-20)
(1.00553 -0.0398209 4.60402e-20)
(1.00568 0.0681434 -1.78985e-19)
(1.01601 -0.00173117 -1.80274e-20)
(1.05371 -0.0130769 1.23819e-19)
(0.587675 0.0104097 2.66062e-21)
(1.08369 0.060465 -2.9233e-20)
(1.02037 0.0549368 -1.24824e-19)
(1.12696 0.0456301 1.15741e-19)
(1.05068 0.0314097 1.13147e-20)
(1.01956 -0.00789075 3.17936e-20)
(1.01504 -0.0043107 3.00033e-20)
(1.11126 0.0875412 4.35538e-20)
(1.17236 -0.014516 -1.95862e-20)
(1.02071 0.0775371 -4.66206e-21)
(1.09024 0.00391082 1.35186e-19)
(1.03699 0.0475983 7.59379e-20)
(1.0164 -0.00413154 1.8122e-20)
(1.02529 0.073687 4.84327e-20)
(1.04436 0.0782644 3.5594e-20)
(1.01609 -0.00272914 8.50249e-20)
(1.017 -0.00372392 3.78059e-20)
(1.12054 0.0808258 3.17551e-21)
(0.842666 0.0017433 8.48062e-20)
(1.01606 -0.00188557 2.38466e-20)
(1.0142 -0.00376357 -1.00391e-19)
(0.953546 -0.0148111 -6.40097e-20)
(1.01419 -0.0512774 1.1618e-20)
(1.02479 -0.00203537 -9.86948e-20)
(1.02333 -0.00238181 8.84694e-21)
(1.01768 -0.00249886 3.06647e-20)
(1.04324 0.0839679 -1.39767e-19)
(1.02086 -0.00782667 -8.14618e-21)
(1.01491 -0.00183073 -9.25762e-21)
(1.03749 -0.0380794 -7.68385e-20)
(1.01821 -0.00348581 -1.83145e-20)
(1.01477 -0.00434753 -2.89802e-21)
(1.02253 -0.00740558 -2.17364e-20)
(1.05789 0.0621881 1.47084e-19)
(1.03686 -0.0727076 -4.3919e-20)
(1.02648 0.063086 7.69441e-20)
(1.01627 -0.000992862 -1.90865e-20)
(1.06128 0.0645462 -1.55904e-19)
(1.03186 -0.0323527 -5.9902e-20)
(1.01659 -0.00229138 6.27067e-21)
(1.01555 0.000282089 -9.55532e-21)
(1.0042 0.0134339 -1.70663e-20)
(1.05401 0.0556459 5.58714e-20)
(1.01776 -0.00335938 -1.80158e-20)
(1.04996 0.0457731 -7.94288e-20)
(1.01522 -0.000214415 7.06745e-21)
(1.05092 0.0498443 -1.07198e-19)
(1.13696 -0.0937437 -4.71544e-20)
(1.01444 -0.00245427 -9.20573e-20)
(1.00193 0.0506258 -2.40672e-19)
(1.006 -0.0309637 -8.13044e-20)
(1.11192 0.0946742 1.00618e-19)
(0.861705 -0.00385635 -2.48677e-20)
(1.0541 0.0515337 1.375e-19)
(1.05772 0.0575758 -4.03347e-20)
(1.01138 -0.00496891 -1.3646e-19)
(1.00814 -0.00601505 8.0906e-20)
(1.01785 -0.00667933 -7.58807e-20)
(1.01464 -0.00253105 2.0356e-20)
(1.01636 -0.00295878 -3.88207e-20)
(1.02077 -0.0078121 1.34221e-20)
(1.04993 0.0751343 -1.81653e-20)
(1.01509 -0.00213222 -4.42808e-21)
(1.04593 0.0445792 1.0441e-19)
(1.0474 -0.0725669 -7.56481e-20)
(1.0228 0.0623103 4.75639e-20)
(1.04541 0.0409769 -1.22101e-19)
(0.933708 -0.0130643 8.58024e-21)
(1.02257 0.0678173 -1.65537e-19)
(1.01821 -0.00258797 8.34142e-24)
(1.03136 -0.0152713 4.42821e-20)
(1.06077 -0.0500076 -2.76274e-20)
(0.74434 0.000997961 4.71908e-21)
(1.01703 -0.00385765 -5.6416e-20)
(1.03001 -0.0334964 4.76161e-20)
(1.05727 -0.00626749 -1.09452e-20)
(0.990445 0.0413717 1.8428e-19)
(1.01461 -0.000995879 2.64348e-20)
(1.01812 -0.0026977 -3.12322e-20)
(1.03637 -0.0499207 1.76539e-22)
(1.01635 -0.000662619 1.54173e-21)
(1.03235 0.078475 1.83742e-20)
(1.01925 -0.000106705 0)
(1.01522 0.000854651 1.34265e-21)
(1.01598 -0.000192011 4.22407e-20)
(1.01911 0.000168621 5.13596e-22)
(1.01216 -0.0126918 -1.00966e-19)
(1.03336 -0.00838513 -3.58187e-20)
(1.01819 -0.0026848 -6.12364e-20)
(0.998406 0.0154501 -2.0505e-20)
(1.017 -0.00383485 -2.95442e-20)
(1.02212 -0.00743658 -2.39298e-20)
(1.01728 -0.0782624 5.68456e-20)
(0.594106 -0.000822159 -6.92906e-21)
(1.03064 -0.00485611 9.79165e-20)
(0.915183 -0.00441151 -1.05043e-20)
(1.099 -0.108858 -5.88549e-20)
(1.01142 -0.00473461 4.20982e-20)
(1.11095 0.0735575 -8.72696e-21)
(1.00122 0.0287387 -3.89786e-20)
(1.01882 -0.00241729 2.29573e-20)
(1.10238 0.0649488 -1.2863e-19)
(1.01591 -0.000574685 -8.15402e-22)
(1.01382 -0.00402065 -8.15805e-22)
(1.02913 0.00197563 -6.97733e-20)
(1.01711 -0.00400441 2.28019e-20)
(1.0593 0.0709486 -9.20424e-21)
(1.01429 -0.00453799 7.77059e-20)
(1.05408 -0.0113741 -9.59699e-20)
(1.03001 0.0039211 -7.05411e-20)
(1.05901 0.0379519 -2.70832e-20)
(1.02479 -0.00920521 -6.23513e-20)
(1.01554 -0.00339246 -2.24853e-21)
(1.07393 0.0618488 7.81204e-20)
(1.00945 -0.056512 5.84302e-20)
(1.02813 0.0779311 1.48682e-19)
(1.01619 -0.00403733 1.04634e-19)
(1.06063 0.0868785 5.18729e-22)
(1.01633 -0.00364643 -2.79284e-20)
(1.01906 -0.00168455 5.33111e-21)
(1.04985 0.0292747 3.32719e-20)
(1.03079 -0.0180323 -3.3007e-20)
(1.03907 0.00832565 1.01128e-19)
(1.01782 -0.000800556 1.73626e-20)
(1.01555 0.000954143 6.20678e-22)
(1.02617 -0.0907129 -2.09625e-20)
(1.09168 0.096475 -1.13206e-19)
(1.01907 -0.00242641 -2.05711e-20)
(1.10901 0.0667032 1.43095e-20)
(1.01465 -0.00447994 5.53704e-20)
(1.09189 -0.114134 1.99873e-20)
(1.05318 -0.0231255 1.46495e-20)
(1.0105 -0.0199463 -6.47729e-20)
(1.01835 -0.00248491 2.44822e-20)
(0.864063 -0.00461158 2.2254e-20)
(1.00504 -0.0477508 4.00208e-20)
(0.996848 -0.00503339 -9.10198e-20)
(1.01602 -0.00328032 -7.03514e-20)
(1.01738 -0.00230977 -2.86233e-20)
(1.02584 0.0796271 -1.61803e-20)
(1.10034 0.0587394 8.16725e-20)
(1.03464 -0.00433886 -2.28512e-20)
(1.01605 -0.00323682 -2.63255e-20)
(1.04303 0.0754815 -6.70306e-20)
(1.01494 -0.000901175 7.60711e-21)
(1.01579 -0.00304712 -5.44887e-20)
(1.094 0.0574642 6.95673e-20)
(1.02752 -0.0150207 6.12538e-20)
(1.09937 0.0889611 1.04059e-19)
(1.03158 -0.00135472 3.97418e-20)
(1.03018 -0.00693942 -1.21926e-20)
(1.09036 -0.0394504 -4.17247e-20)
(1.06398 -0.0918571 -5.65738e-20)
(1.16889 0.0480478 -4.22948e-20)
(1.01932 -0.000776798 -4.66632e-20)
(0.981076 -0.0111877 5.95833e-21)
(1.01537 -0.00146919 5.43789e-21)
(1.02266 -0.00777705 1.56226e-20)
(1.06158 0.0687669 5.30896e-20)
(1.01204 -0.00460241 -1.01742e-19)
(1.01798 -0.00272142 -3.14784e-20)
(1.03167 -0.0251513 6.54808e-20)
(1.01806 -0.00284701 -1.72727e-21)
(1.01848 -0.00217692 -4.14385e-20)
(0.456703 0.00759795 3.2572e-20)
(1.01589 -0.00415974 5.45383e-20)
(1.01776 -0.00320998 7.74443e-20)
(0.675185 -0.00296972 3.07007e-21)
(1.02018 0.00730633 1.05239e-19)
(1.00432 -0.0167642 1.22527e-20)
(1.01775 -0.00256337 -3.60139e-20)
(1.01803 -0.00206664 -4.20035e-20)
(1.02617 0.0226619 3.83354e-20)
(1.06461 0.0161479 9.70496e-21)
(0.996845 -0.0148348 6.31128e-20)
(1.01455 -0.000875549 8.53693e-21)
(1.00234 0.0179901 2.35227e-19)
(1.01266 -0.011196 7.30465e-20)
(1.0652 0.057698 -1.19254e-19)
(1.02655 -0.00104396 -1.06668e-19)
(1.0274 -0.000336067 2.16004e-19)
(0.999996 -0.00605142 -1.17647e-19)
(1.01509 -0.00158706 6.53217e-21)
(1.02906 0.000642559 -8.61378e-21)
(1.0684 0.0141498 -1.80488e-20)
(1.15029 0.0514408 8.79197e-20)
(1.05208 -0.0686257 -2.40571e-20)
(1.04791 0.0722575 5.74454e-20)
(1.02464 -0.00120126 -2.58326e-21)
(1.07849 0.0645616 -1.07191e-19)
(1.02002 -0.00950718 4.0612e-20)
(1.03452 -0.0366272 1.17233e-19)
(1.01711 -0.00328178 2.94983e-20)
(1.02284 -0.0116766 -9.87741e-20)
(1.01736 -0.00216919 -2.53531e-20)
(1.04653 0.0334316 -9.04188e-20)
(1.07146 0.0934767 -1.75977e-19)
(1.01846 -0.00248592 -1.88306e-20)
(1.03095 -0.00614525 7.86372e-21)
(1.00128 -0.00246025 -3.36267e-20)
(1.05467 -0.05879 -1.4179e-20)
(1.05069 -0.063003 3.78977e-20)
(1.01746 -0.00297692 -3.30996e-20)
(1.05099 -0.013396 -4.93552e-20)
(0.206662 -0.00416469 -5.48554e-20)
(1.14759 0.0366587 7.87261e-20)
(1.01628 -0.00174049 -4.56169e-20)
(1.061 0.0137076 -3.86582e-20)
(1.01873 -0.00639967 5.80204e-20)
(0.648159 0.000920985 2.03234e-19)
(1.01469 -0.00418211 -7.49791e-20)
(1.01856 -0.0167338 2.64577e-20)
(1.03308 -0.0217848 -2.7612e-21)
(1.01793 -0.0171579 1.00954e-21)
(1.01984 -0.0132203 1.02243e-19)
(1.01694 -0.00379883 -1.83063e-20)
(1.01961 -0.00965346 -8.79559e-20)
(1.021 -0.00443592 -2.08511e-20)
(1.05884 -0.00922273 2.20369e-20)
(1.01513 -0.00142691 -4.07004e-20)
(1.16932 -0.0648336 2.80825e-20)
(1.13632 0.00472483 3.3259e-20)
(1.03755 0.0826536 1.08973e-19)
(0.998114 -0.0138751 -9.91349e-20)
(1.09357 0.0852205 -5.21078e-20)
(1.01934 -0.000563926 5.21015e-20)
(1.07252 -0.0485929 -1.93838e-21)
(1.02468 -0.0242141 5.93798e-20)
(1.02423 0.0381935 9.12124e-20)
(1.01704 -0.00407399 -5.17026e-20)
(1.01671 -0.00132184 3.03452e-20)
(1.01313 -0.0116184 -1.01267e-19)
(1.01815 -0.00674338 2.96754e-20)
(1.0483 -0.0122268 8.14991e-20)
(0.98213 -0.00277986 8.00459e-20)
(1.00724 -0.00558713 -2.69099e-20)
(1.1133 -0.0167789 2.60413e-20)
(0.977834 -0.00282077 6.4036e-20)
(1.03148 -0.0231348 -5.4936e-20)
(1.01539 -0.0545125 -4.85141e-20)
(1.01514 -0.00169527 1.34306e-21)
(1.05897 -0.00310315 9.46602e-20)
(1.01651 -0.0485705 1.47304e-19)
(1.0987 0.0757168 5.77666e-20)
(1.09083 -0.0450006 6.82481e-20)
(1.038 0.00753931 1.03815e-20)
(1.04192 -0.0699878 1.01277e-19)
(1.04808 0.0880655 3.25858e-20)
(1.04461 -0.0205376 7.40913e-20)
(0.995305 -0.00529006 6.99087e-20)
(1.03181 -0.0298884 8.49063e-20)
(0.428069 0.0194832 6.11622e-20)
(1.139 -0.0674681 -2.71945e-20)
(1.0145 -0.00400823 2.31947e-20)
(1.04327 -0.0895233 5.95442e-21)
(1.04103 -0.0433942 -7.14256e-20)
(1.05461 -0.0817373 3.77469e-21)
(1.05275 -0.053861 5.76385e-20)
(1.07357 0.0571118 1.02382e-19)
(1.01795 -0.0028042 -1.57241e-21)
(1.01129 0.0471116 3.19416e-20)
(1.02436 -0.000959396 2.34207e-20)
(1.01794 -0.00234344 4.46614e-20)
(1.01913 -0.00257024 -1.33124e-19)
(1.05792 0.00850963 -1.97225e-20)
(0.121462 0.00776484 1.29003e-21)
(1.02091 -0.00452613 3.00066e-20)
(1.03443 -0.0337359 -1.53369e-20)
(1.02624 0.0253036 -6.25486e-20)
(1.01531 -0.000758568 -1.36769e-21)
(1.00877 -0.00572409 -6.90363e-20)
(1.03262 -0.00435157 6.31654e-20)
(1.07384 -0.0223463 9.44782e-20)
(1.02417 -0.000774152 1.22578e-19)
(1.01916 -0.00323537 -1.85213e-20)
(1.01128 -0.0255203 3.11253e-22)
(1.01919 -0.00617774 3.00197e-20)
(1.01457 0.000842166 1.59538e-20)
(1.00744 -0.0303523 1.39077e-19)
(1.05324 0.0679668 -2.2919e-20)
(1.03375 -0.0186897 -1.09055e-20)
(1.00904 -0.00206575 6.20799e-20)
(1.02036 0.000107038 -1.96848e-20)
(1.02924 0.0276348 8.31744e-20)
(1.0184 -0.00268813 1.74935e-20)
(1.01873 -0.00235715 3.92941e-21)
(1.01721 -0.00330599 2.95603e-20)
(1.01885 -0.0025721 5.35946e-20)
(1.13991 0.0518069 6.05165e-20)
(1.03983 -0.0213947 1.77489e-19)
(1.02548 -0.0113868 4.30931e-20)
(1.01068 -0.00462536 2.78267e-20)
(1.01594 -0.000644734 1.58775e-20)
(1.07858 -0.0872914 -7.99776e-20)
(1.17373 -0.00181266 1.61629e-21)
(1.08321 -0.0948977 3.6337e-20)
(1.0196 -0.0213412 4.04921e-20)
(1.02728 -0.00516423 9.74829e-20)
(1.01544 -0.0039501 -1.93028e-20)
(1.01448 -0.007599 4.55662e-20)
(0.995035 -0.0308465 6.25838e-20)
(1.13895 0.0380189 5.28536e-23)
(1.0202 0.0637726 -2.28693e-21)
(1.01881 -0.00339909 -3.10716e-20)
(0.986304 -0.0215433 -3.17517e-20)
(1.01764 -0.00341342 7.08317e-20)
(1.04287 -0.0188819 -2.91264e-20)
(1.08248 0.0550156 1.20726e-20)
(1.01916 -0.000765436 -5.33176e-20)
(1.01698 -0.00303538 1.21635e-20)
(1.11855 0.0856142 1.38287e-20)
(1.13534 0.02335 -1.84015e-20)
(1.03209 -0.00919059 3.27387e-20)
(1.01792 -0.00292423 -5.22263e-20)
(1.00643 -0.00433065 6.96081e-21)
(0.999627 -0.0315558 -1.57739e-20)
(1.01698 -0.00271015 3.64368e-20)
(1.03257 -0.0200573 1.01865e-19)
(0.792718 -0.00467336 -1.4523e-19)
(1.00127 0.0284793 -3.15475e-20)
(1.05596 0.0709201 -1.11172e-20)
(1.06853 -0.0444145 -4.1317e-20)
(1.01937 -0.0488611 -5.19764e-20)
(1.022 -0.00184611 7.60715e-20)
(1.02966 -0.0146604 -9.03323e-20)
(1.12917 0.0100992 9.08575e-20)
(1.01908 -0.054843 2.94916e-20)
(1.0338 -0.0285431 -5.17867e-20)
(1.01433 -0.000611175 -1.68821e-21)
(1.1192 -0.0017761 7.8226e-20)
(0.73139 -0.00732263 -7.76297e-21)
(1.01835 -0.0615144 -5.35973e-20)
(1.03329 -0.0171793 -1.40797e-19)
(0.983337 -0.00942359 1.18607e-20)
(1.01704 -0.00312827 1.44844e-20)
(1.01787 -0.00251734 2.46729e-20)
(1.04202 0.0397657 9.33415e-20)
(1.00128 -0.00596312 2.77718e-20)
(1.01544 -0.00227263 -2.95304e-21)
(0.99749 -0.0023827 5.67421e-20)
(1.13646 -0.0557985 1.00941e-19)
(1.01487 -0.00218513 -5.75351e-20)
(1.03649 -0.0321771 2.08894e-20)
(1.016 -0.00164161 2.24698e-21)
(1.02371 -0.0086558 6.44573e-21)
(1.01734 -0.0746198 -2.63656e-20)
(1.06327 -0.0451857 3.1026e-20)
(1.01605 -0.00149725 1.85241e-20)
(1.01502 0.000756146 -9.55433e-21)
(1.02471 0.00209808 2.98796e-21)
(1.02924 -0.047235 -1.11973e-20)
(1.0023 0.0375711 -2.46824e-21)
(1.06194 0.0827708 1.34343e-21)
(1.10912 -0.0102889 -3.38853e-20)