/*--------------------------------*- C++ -*----------------------------------*\
  =========                 |
  \\      /  F ield         | OpenFOAM: The Open Source CFD Toolbox
   \\    /   O peration     | Website:  https://openfoam.org
    \\  /    A nd           | Version:  7
     \\/     M anipulation  |
\*---------------------------------------------------------------------------*/
FoamFile
{
    version     2.0;
    format      ascii;
    class       surfaceScalarField;
    location    "1";
    object      phi;
}
// * * * * * * * * * * * * * * * * * * * * * * * * * * * * * * * * * * * * * //

dimensions      [0 3 -1 0 0 0 0];

internalField   nonuniform List<scalar> 
44730
(
-595.321
663.301
-67.9804
1058.15
-1069.54
11.3839
-335.586
383.426
-47.8398
231.885
-261.053
29.1682
-498.899
498.899
225.576
-267.129
41.5526
-357.992
366.19
-8.19877
20.553
-557.808
537.255
662.844
-833.09
170.246
-1009.22
1102.2
-92.983
548.986
-136.632
-412.354
-529.837
537.553
-7.71578
-687.985
582.741
105.244
-859.821
868.885
-9.06367
244.326
49.1566
-293.483
386.73
-10.7267
-376.003
814.775
-666.84
-147.935
-378.388
385.406
-7.01843
161.698
314.759
-476.457
291.617
-358.544
66.9277
-594.181
81.6291
512.552
724.093
-61.2489
50.5477
-386.133
136.692
-489.858
353.165
254.838
-156.483
-98.3554
1063.59
-5.43147
659.958
-681.118
21.1595
-266.342
-26.5134
292.855
274.591
-30.2648
-440.084
543.907
-103.822
948.52
-250.856
-697.664
-660.487
750.011
-89.5241
242.35
-230.194
-12.1558
476.582
-65.4725
-411.11
156.641
-422.982
272.564
-432.356
159.792
412.852
-563.717
150.865
292.776
-35.5299
-257.246
823.156
-977.075
153.919
1059.99
-236.831
-1017.93
1035.54
-17.6109
406.867
-96.9954
-309.872
704
110.775
199.32
-309.162
109.842
1228.46
-777.694
-450.765
-591.306
151.222
540.985
-538.931
-2.05427
230.527
645.492
-876.019
223.124
537.352
-760.476
-112.709
525.561
-359.547
151.931
207.617
-17.9414
-224.98
242.922
-657.132
-3.35463
241.942
-16.3662
424.992
-38.2622
-246.566
-53.4881
300.054
525.562
-500.293
-25.2685
-34.2078
-559.973
-461.516
38.0346
423.482
-303.16
-19.5741
322.734
799.526
17.5763
-817.103
-409.164
570.863
0.54067
-221.149
220.608
-210.932
483.496
-292.369
417.992
-125.623
267.141
260.561
-527.701
498.751
-130.357
-368.395
428.089
-45.2428
-382.846
-463.795
-38.4312
502.226
-986.506
-31.4255
1054.62
8.96111
274.976
311.37
-586.346
-240.011
545.303
-305.292
158.901
105.953
-264.854
-433.213
382.749
50.4641
-350.978
369.137
-18.1595
253.011
-135.569
-117.442
-251.973
-63.1241
315.097
-699.314
16.5505
682.763
410.966
-98.448
-312.518
-257.975
257.975
101.732
-763.548
661.816
-659.836
64.5157
-947.229
848.216
99.013
-313.658
-44.3331
-15.2295
195.088
-179.858
517.342
-156.491
-360.851
-644.647
-43.3387
652.597
-69.856
104.859
80.1819
-185.041
-353.558
84.3048
269.253
-312.935
60.9616
844.735
-621.61
548.969
-582.193
33.2241
231.883
-99.192
-132.691
-337.234
108.871
228.363
-13.6401
248.252
-234.612
-846.65
847.252
-0.602472
-25.6872
-165.776
191.463
240.56
13.8016
-254.362
-711.461
12.1472
-269.449
285.59
-16.1407
778.754
20.7722
426.246
-621.985
195.739
202.932
-220.874
-745.9
803.596
-57.6961
624.201
-721.341
97.1398
74.7359
577.861
943.86
-846.969
-96.8916
-226.906
239.458
-12.5514
204.597
37.7528
354.986
109.74
-464.727
1009.09
-256.883
-752.206
19.9253
562.96
-582.886
-13.5493
-586.937
600.486
538.584
-263.608
85.9135
427.341
-513.255
-303.739
409.487
-105.748
76.7697
-814.834
738.064
-696.719
456.708
8.16311
-194.543
186.38
13.7598
-849.844
836.084
-301.513
297.86
3.6534
-48.9183
316.059
24.2104
-890.515
866.305
-326.797
324.262
2.53534
-74.2971
-304.091
2.1475
-278.885
276.738
702.039
-785.906
83.8662
726.262
-860.258
133.996
-138.529
337.849
153.435
99.5759
182.445
-206.859
24.4138
281.019
-285.26
4.24063
-120.195
546.441
620.649
327.872
158.49
47.348
-205.838
279.396
-319.296
39.9
214.728
-233.483
18.7544
-31.4639
272.024
-331.729
4.93175
1.28357
-191.129
189.846
228.868
-66.0805
-162.787
181.121
827.967
-198.077
-739.277
937.354
-101.223
-397.676
522.903
18.0827
223.925
-229.019
5.09416
250.163
-215.077
-35.0858
21.9622
-201.946
179.984
-395.187
625.835
-230.648
57.806
502.126
-559.932
984.017
-886.218
-97.7987
790.989
-787.105
-3.88421
-579.686
-232.263
811.949
-146.475
722.199
-575.724
457.982
-444.483
-13.4984
-186.386
-22.1882
208.574
55.7934
-774.129
718.335
-150.99
-208.558
-251.199
236.891
14.3075
242.38
-10.495
28.0249
1020.89
-572.443
-448.452
735.196
-933.274
-401.642
97.9027
18.6147
210.253
16.3882
-778.167
761.779
-90.4083
-856.82
419.109
-453.334
34.2252
-106.533
832.795
56.0731
-736.084
680.011
-197.592
11.2055
279.396
-9.77888
249.281
-239.503
-433.463
433.463
83.488
678.524
-762.012
-317.693
48.2435
-578.709
598.635
302.257
-290.154
-12.1027
-777.835
-63.2746
841.11
-136.652
442.272
-305.62
415.018
102.323
427.829
-444.341
16.5122
242.65
-27.9215
-224.196
-307.865
532.061
502.604
-382.014
-120.59
-329.309
15.7675
313.542
784.458
-82.4185
-522.308
-77.4071
599.715
-661.145
661.145
-121.473
499.436
-377.963
93.756
-360.942
267.186
-919.913
340.228
307.793
-360.439
52.6459
437.285
20.6971
824.13
-517.067
-307.063
902.219
-51.4966
-850.723
80.1552
151.728
-846.896
613.85
233.046
-10.737
254.408
-243.671
-217.367
222.584
-5.21698
-39.8212
-490.016
874.425
-889.92
15.495
-39.1013
430.488
-11.3795
787.174
-788.956
1.78177
247.739
-23.8139
11.9941
-238.901
822.139
-963.83
141.691
228.253
-347.817
119.564
570.882
-570.882
899.95
-93.2565
-806.694
594.398
73.0533
-667.451
50.3376
-325.497
275.16
-170.819
243.746
-72.9274
-467.548
330.896
55.0273
732.147
-393.294
529.986
262.4
-182.245
-683.851
-176.408
484.077
-630.552
453.934
-501.604
47.6697
-886.952
1019.7
-132.744
-581.706
556.052
25.6535
505.13
-582.842
77.712
128.228
724.463
-852.69
211.413
530.591
-742.004
723.333
505.126
321.628
738.359
329.434
-233.424
-96.0099
-298.028
298.028
371.677
-402.798
31.1206
-29.1361
1083.76
271.305
-325.462
54.1571
530.224
-472.418
-297.429
-562.393
551.978
-566.459
14.4813
-29.7229
904.148
257.235
-267.972
-207.983
197.841
10.1429
499.226
-588.065
88.8389
-197.83
958.963
-761.133
588.991
-83.861
771.203
-384.945
-386.258
340.428
-48.8116
472.016
548.879
-186.443
171.213
-743.854
60.0034
-922.769
35.8168
478.121
47.4406
-679.747
891.16
-681.379
-64.521
194.071
-202.196
8.12528
-74.0184
915.135
-841.117
-38.0462
-817.797
855.843
187.534
-186.25
27.1606
175.496
-202.656
-10.6135
-366.141
376.754
317.804
-315.657
-598.415
203.228
-212.276
427.209
-214.933
908.539
-678.012
304.178
25.256
279.617
-7.86586
-271.751
-570.804
147.909
422.895
461.819
-33.9899
501.832
-726.028
-352.744
1.76637
647.631
-746.152
98.5213
-252.973
166.502
86.4703
-656.412
639.039
17.3724
209.036
-218.815
77.2914
185.108
-741.94
825.428
-290.007
299.19
-9.18308
68.1303
-364.473
296.343
225.047
-214.716
-10.3315
527.186
-329.042
-198.144
6.19338
-347.666
341.473
-497.828
484.279
-53.1144
253.259
-200.144
-659.206
154.502
504.704
-343.862
6.6275
653.922
6.03624
446.734
-21.7412
-151.102
-4.61871
155.721
-22.1693
715.565
-693.396
-844.04
972.267
323.319
-148.244
-175.074
677.356
-775.16
97.8041
422.264
348.939
706.612
59.3739
-765.986
818.092
81.8583
537.56
-513.722
-23.8374
1093.7
-1012.3
-81.4029
6.68947
-299.258
292.568
264.236
15.3806
112.477
142.361
213.088
-30.6433
194.992
-204.426
9.43409
148.659
146.805
-295.465
-307.321
286.654
20.6676
-152.783
-299.985
452.768
422.714
-544.187
-323.116
196.454
-199.28
2.82571
202.742
1008.07
-564.133
-443.933
526.145
-109.211
-416.934
110.861
513.34
77.534
460.026
0.743306
-685.577
709.941
-24.3644
49.9888
-549.958
499.969
-77.0696
-252.263
329.332
-450.021
39.5865
410.434
-140.788
-336.244
477.033
780.021
-1.26689
21.5989
192.197
-366.05
173.853
157.721
-210.835
-920.522
848.626
71.8958
-300.253
306.89
-6.6374
663.28
-79.0027
-584.277
1047.03
-603.811
-443.218
194.538
-197.658
3.11985
281.45
-105.802
-175.647
-423.036
418.861
4.17532
664.422
-32.6483
-631.774
-691.438
5.86141
371.179
39.7868
-543.593
428.31
115.282
581.348
-578.564
-2.78456
-855.759
44.3805
811.378
856.366
33.1996
-889.566
-425.09
284.302
-202.836
51.734
-324.6
520.759
-196.159
-180.009
-27.974
754.998
-793.044
-155.231
182.391
519.016
-163.972
-355.044
-123.762
-309.7
225.214
-226.805
1.59051
619.602
44.8198
683.582
-608.846
18.0077
-302.608
284.6
836.943
-876.158
39.2148
-285.124
-5.02959
951.517
-955.041
3.52402
43.9755
186.988
-230.964
680.347
-32.7158
565.931
-593.577
27.6459
-830.979
844.738
185.287
-177.124
786.187
212.255
746.708
131.808
211.093
-342.901
-303.221
-9.95751
809.519
-52.4502
-757.069
602.801
-125.147
-477.654
236.379
-84.4488
88.9065
409.845
73.4886
-244.307
473.956
-504.04
30.0841
143.73
-350.216
206.486
137.907
389.28
39.9648
862.254
652.946
-773.383
120.436
-23.4256
974.943
-265.431
-8.93786
274.369
-227.487
202.897
24.5894
-23.5739
182.475
49.0634
453.541
335.573
-346.187
-344.308
51.9393
-336.136
32.9756
838.362
-58.3411
65.6324
-208.86
143.227
-945.624
22.8546
-909.097
-36.5262
-486.292
54.2472
432.044
-726.558
894.962
-168.404
-184.91
-80.2803
265.19
-101.238
-91.0485
192.286
-171.589
-29.3706
200.959
-111.999
226.566
-114.568
853.452
400.496
-208.299
148.925
-13.3167
-568.389
-878.613
-41.9088
459.261
143.54
182.368
-506.968
200.702
-1106.92
906.216
33.7435
200.088
-233.831
-16.874
-200.493
419.551
27.1824
89.2286
701.76
284.517
-10.0787
-274.438
-472.004
557.917
728.657
72.9797
-801.637
-776.621
-9.2843
798.78
-854.111
55.3311
272.176
-259.943
-12.233
80.628
242.691
850.643
-865.008
14.3657
978.833
-862.153
-116.68
938.902
-943.512
4.61061
-376.905
-166.688
-7.47641
-873.603
534.742
338.861
-189.541
163.644
25.8972
-243.087
391.746
142
92.4876
-234.488
758.022
241.547
-241.006
431.843
94.302
781.458
-693.419
-88.0382
-52.9766
-90.0047
-106.416
196.421
-311.756
261.018
50.7384
862.259
-838.048
-22.3879
380.981
-358.593
-308.875
-22.8543
568.762
-584.423
15.6616
370.937
-327.629
-43.3073
-828.407
731.175
97.2321
-905.728
831.709
141.817
139.633
-407.592
277.944
129.648
469.763
-454.707
-15.0559
621.789
-622.718
0.929096
518.249
-44.2935
-287.607
-149.993
437.601
0.486245
-265.918
-77.9812
-245.258
323.24
544.284
563.926
-1108.21
-900.872
849.21
51.6628
-4.86655
-405.921
420.17
-14.249
432.986
-400.344
-32.6427
670.272
-840.962
170.69
710.53
-879.878
169.348
-505.011
-154.196
-412.305
61.0977
351.207
307.723
-6.96962
-300.753
-329.281
157.692
474.362
74.624
-719.659
-108.748
2.64261
192.35
-306.918
300.782
6.13619
32.4809
-316.355
283.874
491.7
38.5015
-530.201
-228.259
302.521
-74.2614
-896.2
-19.6412
915.842
-221.205
-19.3352
240.54
7.22515
-841.438
834.213
804.712
-118.5
-686.212
354.317
139.334
-217.315
-874.885
-21.3155
808.35
40.2765
-9.88825
534.597
-179.611
-495.727
-20.1945
515.922
-801.995
913.796
-111.801
314.712
-246.582
-391.511
314.442
-30.4695
590.802
63.1204
385.347
-241.617
318.472
505.658
-16.2523
28.4867
342.45
-782.718
96.6595
686.058
457.414
94.5638
-145.895
-12.8834
158.779
-851.812
-23.0728
74.9199
331.947
-205.551
229.497
-23.9464
53.9769
-282.236
-259.266
253.821
5.44429
-19.8821
34.1603
-515.157
480.996
-610.536
-135.616
-25.7459
305.418
-279.672
-332.597
442.337
599.391
447.638
-1102.77
430.484
672.286
330.162
0.417283
-330.579
-260.023
-145.427
405.45
-526.184
546.737
-661.184
-17.3903
678.574
99.605
92.7593
-192.364
-44.2454
799.243
838.344
-862.323
23.979
807.595
-154.648
43.4184
-601.226
-328.526
-19.1402
556.837
57.8849
-614.722
442.629
19.19
-350.346
395.024
-44.6778
-853.281
-3.86093
857.142
-27.8156
-823.996
259.895
-259.925
0.0301435
625.252
-3.46312
548.95
-398.159
-150.79
-229.414
269.762
-40.348
-103.676
-240.633
-423.132
-38.3838
892.869
-182.339
-815.507
88.9494
-629.424
18.8876
-541.945
53.0157
488.929
820.555
-39.6333
-780.921
-250.499
138.5
-2.51874
-356.245
358.764
854.81
-184.538
309.557
-1.83419
636.726
-70.7947
494.188
-2.48837
801.445
-712.216
-1045.13
-57.6411
445.544
24.219
518.97
29.9988
737.816
-682.023
795.574
-38.2699
-757.304
199.033
-224.72
277.988
-16.9704
-118.501
187.185
-165.223
475.02
15.8216
-490.842
577.483
-101.463
-476.02
-460.619
422.555
38.064
128.954
672.491
-1.20389
-112.302
-751.522
863.824
94.7847
-665.304
570.519
230.32
-306.847
76.527
-749.614
637.312
91.8261
712.886
-504.405
1048.69
207.25
-141.617
-257.526
-169.54
265.965
-96.4252
218.078
-264.467
46.3891
-181.502
323.502
6.17683
-315.052
-51.3214
6.15884
-412.065
405.906
-47.6044
-162.689
-195.856
-32.4086
370.443
-338.035
-870.848
944.472
-73.6243
45.5312
-528.297
482.766
10.6297
-238.116
-756.009
106.4
649.608
367.103
-210.462
819.403
1.15143
-24.8047
203.187
-178.382
422.988
125.961
-101.235
-311.07
815.636
-201.786
-95.1848
-914.035
623.428
-312.058
120.857
42.1881
652.696
-550.964
496.587
-20.005
344.246
-36.4533
339.598
-422.109
82.5104
192.024
-218.18
26.1562
44.6953
253.852
-298.548
338.908
-491.691
-1.85475
761.959
-806.204
537.998
-62.9773
-103.64
735.399
-631.76
-270.512
306.374
-35.8623
-67.5865
297.906
210.168
-191.554
-284.113
13.6008
-1050.94
581.781
469.155
-35.9237
-76.1397
180.999
-311.347
296.568
14.7791
-676.068
692.456
269.608
-274.609
5.00067
-469.698
169.713
-497.873
-553.064
244.328
-279.858
847.168
-946.599
99.4311
-344.81
16.2841
483.653
-628.028
144.375
-2.05488
810.404
242.445
-252.931
10.4857
-331.137
-542.466
-37.8139
295.055
-25.4465
340.411
-126.235
-214.176
-20.1127
-831.185
851.298
-878.917
500.468
378.449
-56.8705
735.395
-455.615
32.4821
-152.141
-102.105
254.246
872.295
-805.787
-66.5077
396.678
-321.759
795.971
2.8096
104.787
90.4497
-195.237
-580.557
1024.4
-443.842
148.51
-197.872
49.3619
-758.935
-145.01
903.945
139.609
200.801
853.521
-31.3819
813.477
-736.707
506.028
-417.122
-7.62253
-213.526
20.5106
158.339
-178.85
311.371
223.226
-28.1581
-1098.2
619.199
479.001
7.4519
891.672
-60.55
-831.122
-430.729
623.739
-193.011
57.1717
756.305
28.0557
-523.783
-590.559
-18.4286
608.987
388.796
152.328
-541.125
-264.671
-522.434
279.626
64.6198
-181.021
-76.954
-407.033
353.313
53.7204
-797.653
280.586
202.432
-263.948
61.5153
230.074
-250.167
20.0932
431.357
-425.198
719.909
50.318
-770.227
-205.575
39.7985
814.41
20.9897
-835.4
-345.271
5.96252
339.309
118.64
860.193
-412.469
450.503
412.076
-72.4774
-954.378
99.6559
854.723
789.078
102.594
-16.1869
208.211
51.0661
381.92
887.107
132.589
31.759
-487.373
28.5784
-826.566
797.988
693.675
-758.68
65.0047
636.265
465.938
769.018
-56.034
-712.984
198.904
-50.3937
76.7519
339.7
-416.452
-735.227
792.399
237.624
180.368
-297.621
168.626
128.995
-111.123
-426.925
538.048
-32.7211
-218.478
1004.41
-573.925
111.784
-296.694
170.561
-195.365
-101.639
-159.414
30.4689
820.174
-154.797
493.705
-594.274
744.965
-150.691
673.803
-695.972
-387.296
367.102
-442.266
-180.452
39.772
349.186
-9.66114
-339.525
-46.2845
808.244
-505.244
-623.365
1128.61
289.023
-233.544
219.903
11.3854
198.783
-267.535
111.052
-885.244
908.896
-23.6519
-266.032
258.931
7.10045
75.5098
705.948
3.36568
765.652
636.723
-17.1207
-15.1972
-514.129
470.284
43.8456
933.063
17.1562
-950.22
-312.049
-33.2222
-1.09734
-235.9
787.675
-67.766
529.024
-623.209
94.1857
-761.765
-84.8853
10.6562
261.52
877.182
9.92484
-491.413
441.352
50.0605
-950.45
-94.6798
58.16
-371.558
313.398
-206.695
216.006
-9.31144
246.871
-28.7929
-40.042
1050.31
-313.228
-737.079
579.666
-50.6421
35.955
-268.353
-57.1446
-684.241
757.05
-72.809
-101.028
2.19271
227.881
505.023
-5.79653
92.794
-870.629
-96.8761
217.28
-120.404
-192.853
220.657
-27.8045
-681.815
570.692
-445.965
480.125
342.207
54.4717
-461.637
425.386
36.2508
590.586
417.481
498.792
-460.172
-38.6195
468.59
-311.376
-157.214
-171.169
35.5997
351.854
-22.0675
-329.786
-268.028
98.4885
-350.609
301.691
-219.02
-636.739
-691.464
-81.9188
261.431
-58.9985
656.773
198.037
6.94687
229.944
815.366
-86.1819
-729.184
329.466
-142.266
647.222
-504.957
226.149
-306.429
-107.593
496.39
-750.542
8.60175
-142.041
-110.932
500.004
-91.577
773.686
-682.11
-206.013
219.588
-13.5748
-19.6727
-246.359
829.595
-737.769
225.254
-426.478
-400.519
826.996
857.932
-201.159
-41.9818
777.969
-735.987
597.483
-6.6809
17.8844
-608.443
285.288
128.7
-413.988
-404.501
481.253
-20.1136
-320.619
340.732
-617.869
66.8532
551.016
-141.665
492.79
-351.125
-477.941
411.21
-484.124
72.9132
106.247
-182.753
76.5057
-198.984
330.792
-184.345
-168.399
722.024
-28.349
102.357
581.225
-611.115
649.038
-37.9238
269.551
-295.296
-809.826
-52.4971
97.3744
-433.619
590.12
460.188
-615.847
173.58
411.737
-838.215
363.405
-681.922
28.6589
653.263
-187.202
218.571
-31.3693
-816.29
886.71
-70.4204
-48.9956
-432.377
481.373
1005.36
-405.593
-599.768
-70.0626
-784.049
-11.5191
271.414
-950.471
207.414
743.057
-857.731
-92.7402
-175.637
-13.9046
-777.764
731.48
-123.371
-294.977
418.347
-21.6981
-264.645
286.343
160.55
647.044
211.66
154.656
-366.316
-902.874
154.586
748.287
541.251
-581.04
39.7889
604.551
58.6101
-663.161
-43.4966
674.26
-639.887
-34.3727
353.978
-23.8161
-13.4281
220.279
-206.851
608.304
65.9558
15.1012
-791.723
721.543
-777.577
-183.521
204.032
324.565
144.026
122.836
-307.181
205.914
-210.514
4.6
344.552
-200.882
-143.669
592.111
44.612
-746.26
800.513
-54.2526
-373.457
-116.874
490.331
-17.8434
-289.075
238.169
39.5187
-277.688
254.206
-102.695
-151.511
418.522
-467.518
-61.7179
-740.277
-411.555
69.8147
155.232
478.934
-429.989
-48.9453
-228.142
261.885
-207.354
198.91
8.44381
-4.69452
-203.45
208.145
-323.671
380.524
-56.8521
211.134
-2.93711
-208.197
450.427
554.934
-266.956
555.678
-474.049
143.567
-258.274
114.707
-207.8
-5.76853
213.569
701.303
-96.7526
249.341
-172.049
-359.178
281.382
77.7962
-434.657
3.2212
431.436
-352.251
449.626
316.726
-324.48
7.75379
-19.0423
37.1917
468.837
462.979
35.8132
14.4797
-449.137
181.646
16.1947
-341.66
-3.15039
-372.742
297.222
75.52
343.777
-64.1502
671.394
221.476
-233.928
229.233
-292.024
307.792
80.8457
661.812
-742.658
-735.394
-26.5313
761.926
4.97028
145.898
16.7745
-340.446
-690.753
621.153
69.5999
139.602
-159.024
175.374
-16.35
423.475
-138.187
-245.345
-160.636
405.98
-168.404
-345.725
223.727
-17.8132
-243.88
91.7393
90.5498
-187.426
-1009.55
696.319
-348.834
348.834
851.454
242.247
-35.3558
-509.106
-500.441
211.855
325.697
528.297
42.5855
547.089
-52.9015
246.347
-246.052
-0.294783
-629.492
662.485
-32.9925
-50.2491
-533.286
-45.4238
-639.764
698.443
-58.6788
84.7821
-493.947
-353.506
539.653
7.43653
519.997
8.17746
-528.174
745.303
-647.842
7.95484
-127.836
-48.7781
176.614
-430.098
79.4892
315.181
-35.0828
-280.098
-166.308
-36.5284
-304.354
290.996
13.3578
-285.552
56.1374
867.655
-196.262
-333.491
54.6063
766.797
-0.493971
-766.303
584.224
-659.168
74.9446
-922.85
830.37
92.48
-24.6165
-636.567
109.912
299.575
-24.8053
-262.341
287.146
-769.042
5.49344
-205.54
-293.507
268.702
-466.281
511.812
-240.818
242.552
-1.73389
-307.47
299.837
7.63343
-807.749
704.109
995.983
-148.815
-158.327
266.366
-222.391
365.947
-154.854
396.827
-307.841
-88.9861
289.518
54.2589
807.89
-98.9196
-708.971
183.898
-681.726
-747.16
661.453
85.7071
5.20318
-617.74
623.523
-5.78292
67.3104
182.03
-93.4258
516.14
-278.154
281.903
-3.74914
379.453
-458.65
79.1961
-608.739
649.363
-40.6236
585.203
45.0153
-630.218
242.155
-226.834
-15.321
555.564
-22.5469
-533.017
259.316
-146.894
-112.422
-146.87
-53.1069
199.977
951.255
-942.557
-8.69745
-575.503
-388.327
-47.1624
-753.839
801.002
-897.648
834.373
-562.147
351.587
210.56
605.139
-623.568
-18.4677
670.197
-651.729
1.6789
165.088
-166.767
-53.612
-262.743
-855.971
-66.879
15.4687
367.281
334.114
-739.707
203.252
-21.6062
-232.2
232.2
422.185
-168.615
-253.571
-911.186
25.9427
-3.78696
-31.4857
-473.014
504.5
-753.676
-80.795
487.487
-406.692
-252.423
-408.722
433.499
-10.9444
-62.0324
262.12
157.248
187.303
-537.189
400.557
-172.361
384.021
341.068
-51.5503
761.964
-705.891
-285.335
-9.8019
271.86
-946.889
-3.56051
5.6057
927.458
533.584
-448.802
-828.347
571.486
256.861
-5.46433
265.807
-260.342
350.446
-4.17429
-346.272
-462.771
32.0423
-834.26
748.031
86.2294
-139.706
-172.343
188.104
20.2187
-208.323
213.304
127.764
-800.994
17.8607
-597.93
317.166
280.764
56.0444
224.975
364.042
-326.471
-37.5713
-358.006
373.796
-15.7896
847.426
-513.311
-455.144
312.878
-326.244
193.728
132.516
423.388
-720.817
568.486
-27.2355
811.254
-807.888
77.2588
182.057
-827.226
808.48
18.7455
-794.074
47.8138
-472.162
-527.843
1042.65
-186.281
931.107
-835.172
-95.9354
-521.12
-463.317
984.437
-49.1535
-258.168
67.5427
227.975
-236.98
9.00491
-22.5899
-56.0796
733.436
466.966
-29.9217
-437.045
-383.874
-186.93
13.1358
-113.275
-234.542
-137.922
402.788
-264.866
-926.012
926.012
93.4098
-812.062
504.999
-511.281
69.3214
441.96
-212.493
-195.099
155.152
-156.549
-380.641
-547.738
391.19
596.617
60.0222
194.184
414.225
-929.132
514.907
-4.57325
289.09
-221.21
-265.081
-219.844
406.394
-81.8295
-183.521
-142.723
-65.5014
-835.371
452.62
-518.256
65.6358
16.2555
-683.699
765.615
-81.9155
415.889
-422.223
6.33394
248.874
-569.303
529.854
39.4492
130.757
104.088
-234.844
203.175
-216.603
378.929
-708.792
329.863
110.545
758.34
186.608
235.577
-68.7958
-493.367
461.881
293.896
-308.822
14.9263
416.816
-37.3625
354.435
-386.844
-24.1433
-367.839
391.982
-16.6604
-268.6
289.745
16.0557
-305.8
-405.967
268.045
-390.284
42.8137
631.045
-749.544
-410.571
533.642
-314.352
-91.5694
976.658
-866.113
-492.696
-312.329
805.026
298.23
42.0121
290.39
-332.403
-464.692
131.137
-270.843
-52.0084
451.733
-564.185
112.452
47.435
613.71
-178.946
51.1093
318.688
-262.644
708.752
-329.823
268.429
-184.124
24.4864
365.137
-389.623
-29.6503
-300.411
-2.19651
-260.409
253.509
6.90065
-0.684839
545.997
-517.942
33.4446
-891.59
113.423
796.963
-0.992422
331.118
-117.814
525.485
328.712
-854.197
598.407
239.955
664.206
-755.783
-734.873
102.835
632.038
273.552
41.5537
-315.105
190.607
-183.622
-6.98549
21.6965
274.368
572.885
-190.389
17.3896
172.999
-157.113
-606.758
763.87
-343.978
358.892
-14.9139
-235.938
301.276
-65.3373
-149.411
-176.051
-257.122
216.14
40.9825
920.088
-920.088
-87.5604
727.097
-639.537
296.08
-215.452
346.074
-68.1295
-657.469
192.091
28.7923
-220.883
66.1339
-585.887
519.753
11.2933
-206.473
195.179
908.04
-913.804
5.76407
300.671
-674.373
373.701
329.96
-271.8
52.6714
311.371
-350.752
876.237
557.287
-105.554
-73.5046
-245.792
-401.579
327.279
74.3005
216.564
-346.921
336.396
-500.514
164.118
-215.586
28.3842
-873.29
-73.5995
34.4674
-718.166
302.6
-193.729
796.392
-773.226
-23.166
433.229
42.5842
-475.814
-685.705
610.732
74.9726
-240.714
213.775
26.9391
322.309
-28.4128
-426.191
-254.927
871.588
-828.969
-42.6192
-357.916
658.587
143.315
-516.772
-864.394
11.1132
-59.5164
-594.324
653.84
30.7768
-134.129
-163.492
-914.244
428.669
485.575
196.429
2.48053
451.231
-35.3418
543.445
237.617
-247.646
10.029
-335.82
-6.3078
342.128
-534.208
421.499
-27.3069
-174.232
201.539
234.478
-42.3866
-77.1135
340.825
-263.712
-357.806
7.45989
435.857
-10.4704
68.0324
-805.398
737.366
-664.326
664.326
29.983
196.166
-83.5881
-505.737
589.325
-854.461
938.096
-83.6341
741.107
55.2856
-14.1674
-834.492
848.659
325.389
-342.994
17.6049
326.118
15.68
-341.798
583.676
-637.071
53.3948
31.5256
293.215
-324.741
-202.927
-109.741
312.668
200.032
-9.42503
104.825
-709.865
605.04
-759.991
267.295
354.128
-312.116
793.744
59.7767
-77.5055
-433.776
344.618
-389.861
-680.392
99.9258
580.466
301.375
-252.163
-49.2117
-532.499
613.23
-80.7317
-82.2333
-363.142
445.375
411.432
-382.945
-581.285
-332.959
583.878
-727.568
143.69
-406.297
-422.05
837.851
-39.7872
-645.917
144.29
434.289
-578.579
563.577
-644.88
81.3024
15.7472
-230.824
11.1075
-693.029
-324.187
321.668
11.7444
570.661
-692.754
122.093
-344.53
-430.63
-6.68779
-683.923
698.404
-14.4808
763.085
-164.678
645.899
-103.17
-542.729
193.607
285.327
293.837
-299.554
5.717
807.722
-935.897
128.174
-639.402
-95.4712
-274.628
-3.52593
-331.33
103.18
228.15
-57.1502
640.826
67.8441
-245.299
177.455
358.75
-336.537
-22.2129
-320.394
-277.536
-10.2282
204.299
-23.0183
-179.178
236.062
127.073
-363.135
-272.889
320.74
-47.8508
586.603
-670.191
25.4702
289.711
-249.102
-82.228
-276.552
-285.595
-711.362
540.655
170.707
-111.232
-155.897
-166.585
67.3929
-579.458
536.644
42.8143
576.958
-1098.08
-25.7585
-1014.98
-140.701
365.694
40.6999
-23.4058
-51.4195
-756.86
125.101
846.951
-839.725
617.431
-76.7753
1.86184
589.258
-591.119
-277.641
-169.15
446.791
-30.1596
-210.554
3.76691
204.57
-213.506
8.93568
-990.913
216.784
448.451
-112.055
19.7522
-628.06
608.308
298.883
-365.439
24.139
341.3
56.8613
573.716
-630.577
-104.919
770.031
-665.112
-669.331
-195.678
-719.129
39.8692
679.26
-40.6439
558.631
-517.987
919.109
-911.1
-8.00905
556.997
-616.514
-611.193
-23.8047
634.998
-397.411
124.521
236.931
-250.652
13.721
801.011
-772.433
-96.31
731.007
-634.697
461.625
8.65845
-434.485
-670.067
604.148
65.919
398.866
-92.332
-564.08
-30.0759
-11.8992
-400.166
-12.9238
208.746
-195.822
26.3279
327.8
-361.636
365.332
-3.69574
743.45
-790.612
145.673
119.517
216.631
-228.87
12.2393
684.138
-775.336
91.1986
-311.594
-660.351
-23.8898
794.126
73.5296
291.414
120.662
809.858
-15.7319
-11.5727
-1030.13
180.288
3.94863
16.7154
-566.673
164.158
-162.479
-1082.66
-241.417
214.11
68.8481
227.232
-107.93
-467.149
575.08
-2.5681
-477.594
480.162
838.94
-31.2181
570.153
75.7463
-13.5364
-202.598
216.134
733.411
-775.393
-140.932
376.994
-397.91
443.756
-45.8457
-679.208
723.35
-44.1426
281.2
-381.328
20.3861
400.409
-170.014
-230.395
171.34
-511.998
466.401
45.597
5.30006
-463.451
458.917
4.53457
613.941
-596.056
27.2014
-153.486
586.715
-297.423
57.5684
441.331
42.2489
606.674
-648.923
-88.6861
-141.508
186.613
27.1617
30.1507
-394.863
29.4239
-412.711
14.8007
252.75
-254.981
2.23154
711.285
-682.626
-486.462
85.1609
401.301
-42.3638
626.588
6.49798
-209.948
914.273
-141.802
-772.471
518.882
537.484
-1056.37
-283.443
-25.7191
292.426
4.14198
10.2725
276.381
-687.026
0.265191
686.76
591.98
-749.093
-211.834
199.933
11.9011
-510.667
-41.4422
-623.862
-12.8734
156.441
-138.015
-428.444
-121.15
188.994
12.1131
-627.889
615.776
-39.3728
-497.67
537.043
-244.847
276.373
-69.3808
626.218
-724.884
752.484
-27.5994
217.768
-482.439
211.45
-246.024
34.5733
-13.5959
-837.267
29.5181
227.026
-429.953
900.056
-909.142
9.08655
635.948
14.7891
-650.737
-56.9098
-536.668
-807.247
840.446
102.47
-208.886
897.676
-78.273
244.808
-16.8329
-60.3207
-715.962
776.282
-86.5155
-597.408
-7.33073
527.327
-659.836
20.4341
214.585
-233.566
18.9804
-240.112
3.60451
236.508
-559.828
533.628
26.2003
-240.748
93.878
67.4148
85.1361
-152.551
-880.247
314.935
21.6243
-336.559
55.0149
637.866
-692.881
-345.799
364.038
-18.2391
-638.925
-20.9106
-672.003
752.848
-896.379
127.339
769.04
-148.088
-169.605
-446.651
64.6366
-456.58
-612.958
228.8
12.7469
-293.343
293.004
0.339521
186.663
-55.906
-424.08
394.522
29.5577
-954.864
972.02
-293.394
117.166
176.228
160.295
3.86257
520.573
846.933
-867.046
278.042
-35.3514
348.427
-490.092
-788.963
811.051
-22.0886
-348.275
-174.764
523.04
135.041
-178.5
43.4595
428.217
-521.643
736.114
-676.267
-59.8463
-263.207
-20.2357
300.621
-62.4517
318.651
-293.181
334.322
-652.059
-18.0086
5.44395
633.595
-386.333
175.871
20.6635
-891.511
546.875
-392.373
608.147
368.511
424.243
9.25637
744.609
-804.93
-40.918
-32.43
827.282
70.3938
421.215
-499.967
78.7516
197.166
-169.01
-28.1561
-197.881
205.976
-8.09453
-15.7706
346.31
-330.539
-616.735
658.984
435.867
249.727
-225.471
-24.2561
372.566
499.729
313.668
-335.735
695.802
112.088
73.1859
-597.287
524.101
639.967
-35.8191
13.0033
-930.166
113.736
816.43
232.409
-251.744
-254.774
-793.341
732.254
61.0866
5.35916
813.832
-819.191
923.267
-923.267
-379.132
17.4965
602.831
37.136
-109.203
-13.9087
-199.633
213.542
437.761
27.9895
-465.751
-437.216
23.135
414.081
187.696
972.165
-453.284
-234.608
41.9435
192.664
-626.87
630.941
-4.07177
406.52
-470.489
63.9688
-431.208
-6.00788
53.7862
-759.059
705.273
-637.436
-59.283
-550.348
518.641
31.7073
-359.971
256.296
14.7616
-235.618
220.856
-144.312
-149.081
-29.9742
225.646
-39.0331
61.9675
268.215
-278.294
-72.0217
791.612
368.684
-53.7491
-768.831
33.4366
-890.032
814.417
75.6153
123.855
261.551
397.003
141.581
-751.716
858.398
335.274
180.663
-515.937
-167.297
594.464
-644.067
49.603
466.039
57.5013
-523.54
627.51
-333.616
-293.894
-463.589
-118.604
-779.92
675.001
30.8443
-682.981
652.137
-711.384
108.529
602.855
-765.823
-3.50035
18.1251
508.707
-87.4919
-511.273
356.476
537.957
-578.601
-35.4722
-68.9193
235.862
-166.942
25.2308
-664.995
-239.008
-239.649
170.73
-31.5443
271.344
-121.577
-149.767
150.194
-11.0467
-629.824
726.484
-17.4296
192.249
-174.819
869.873
-628.586
10.846
146.826
171.862
1.0146
397.716
-398.73
-227.465
-188.046
415.511
180.945
763.527
380.299
-355.812
-841.718
7.45741
626.42
-609.87
0.511657
-804.026
803.515
589.57
16.1426
-605.712
836.669
44.6654
-881.335
314.326
-14.4894
128.853
-406.495
426.46
9.39713
-255.851
335.738
-79.8872
199.566
382.107
-90.6933
611.77
-56.2658
-555.504
-754.115
778.032
-23.9174
14.9975
636.251
-651.249
-644.931
112.433
-7.75325
-442.677
598.716
34.7255
324.025
-31.6886
193.22
-93.6147
-337.976
2.15542
95.9775
742.963
4.59434
-279.22
274.625
-423.687
-505.445
-57.4604
-757.74
815.2
227.957
-40.9694
201.036
-262.278
61.2424
210.04
-97.2264
-225.254
-516.878
-581.321
-791.79
-18.0364
-174.081
-815.763
776.449
39.3135
-34.6477
470.103
-435.455
59.7827
821.341
-881.124
203.611
-136.196
773.551
26.9612
-219.785
205.876
21.0331
-309.009
287.976
575.74
-573.878
-645.508
154.305
491.203
-533.669
588.323
-54.6542
33.9686
259.869
-665.148
-441.77
608.548
45.8418
-654.39
-721.928
606.767
-679.222
72.455
-167.395
-22.9945
450.219
-484.427
-846.012
851.371
103.817
-307.58
-588.799
-642.533
593.332
49.2003
185.793
-79.5462
-44.2212
456.741
170.769
-567.059
51.9027
514.166
-527.674
13.5086
72.9964
-717.693
644.696
269.413
-16.6635
-316.784
167.698
149.085
-560.854
569.032
-120.441
443.913
-323.472
681.449
-86.9855
2.13944
-319.682
317.542
-446.741
-442.794
889.535
-161.474
245.834
-84.3601
-100.253
-580.139
-551.174
401.145
150.029
399.568
-30.8487
-368.72
-6.08355
172.586