/*--------------------------------*- C++ -*----------------------------------*\
  =========                 |
  \\      /  F ield         | OpenFOAM: The Open Source CFD Toolbox
   \\    /   O peration     | Website:  https://openfoam.org
    \\  /    A nd           | Version:  7
     \\/     M anipulation  |
\*---------------------------------------------------------------------------*/
FoamFile
{
    version     2.0;
    format      ascii;
    class       surfaceScalarField;
    location    "35";
    object      phi;
}
// * * * * * * * * * * * * * * * * * * * * * * * * * * * * * * * * * * * * * //

dimensions      [0 3 -1 0 0 0 0];

internalField   nonuniform List<scalar> 
31093
(
588.245
-435.577
-152.668
271.132
43.234
-314.366
945.82
-1136.3
190.477
-395.179
994.313
-599.134
-632.255
670.934
-38.6793
-687.218
54.9628
222.571
-41.83
-180.741
586.969
-453.864
-133.105
208.24
-290.168
81.9279
77.1277
509.841
-87.3951
262.905
-175.509
-246.149
273.829
-27.6793
-232.385
-20.9013
253.287
34.7074
553.537
621.072
-649.947
28.8748
-965.103
569.924
-290.882
353.119
-62.2368
-93.4495
-985.771
1079.22
-262.355
232.507
29.8486
305.665
-34.5335
-307.417
296.005
11.4123
-0.342935
-245.807
-455.213
532.341
277.288
-332.242
54.9544
945.82
-358.335
91.2119
267.123
891.924
-975.942
84.0174
339.835
-146.548
-193.288
-174.328
-100.944
275.272
-115.599
-146.757
-592.236
740.802
-148.567
362.76
-310.868
-51.8917
347.944
-60.1886
-287.755
555.731
-293.815
-261.916
-717.1
780.437
-63.3375
-731.07
138.834
143.531
-353.305
209.774
932.366
-932.366
784.587
-345.018
-439.569
279.705
423.754
-703.459
2.45764
799.945
-802.402
-271.448
80.6724
190.776
-860.686
688.392
172.294
973.431
-81.5063
-134.102
-224.233
116.699
72.6128
-189.312
1086.74
-463.745
-622.999
319.809
-259.477
-60.3322
842.897
-30.4244
-812.473
239.09
-228.47
-10.6205
-787.769
70.6697
47.6037
-753.523
705.919
-280.702
-148.778
429.481
762.967
-835.51
72.5422
156.95
-392.221
235.27
15.1707
-209.354
194.183
379.514
-109.253
-270.262
694.652
-751.302
56.6499
-59.7876
-294.251
354.039
-54.5339
-236.349
-663.148
431.499
231.649
-50.4752
244.958
-194.483
480.091
-482.566
2.47447
-178.991
-349.782
528.773
-697.679
828.133
-130.454
-714.874
107.253
607.621
513.799
-573.644
59.8452
-650.477
-64.3977
-161.652
-370.835
532.487
-141.118
-71.8279
212.945
362.28
-554.28
192
330.147
-250.928
-79.219
675.156
-54.0846
-270.885
-37.2237
308.109
1062.06
-554.705
-507.353
-75.5804
476.334
-400.754
331.813
-139.507
-192.306
-227.224
15.3522
211.872
904.095
-624.391
566.952
-832.632
265.68
632.646
-525.393
816.78
-194.389
-622.392
306.273
-97.0231
-209.25
298.328
-90.0879
134.143
-184.619
-591.463
-269.223
237.533
-282.411
44.8783
-62.1606
165.812
-103.652
-622.285
443.294
148.263
-305.773
157.51
-405.622
682.838
-277.216
738.98
148.785
-887.765
904.474
-130.166
-774.309
185.129
-302.077
116.948
215.725
104.084
424.273
55.8186
263.716
-78.5876
-779.267
789.644
-10.3764
-329.907
242.512
979.847
-885.65
-94.1978
280.027
-131.763
405.607
-416.579
10.9723
181.681
104.289
-285.97
467.769
-201.273
-266.496
1218.11
-1218.11
480.804
30.111
-510.915
-42.0213
253.109
-211.088
-483.12
232.777
250.344
265.544
8.93515
-274.479
-250.396
-80.9529
331.349
38.4567
-212.785
183.138
39.4325
394.856
-109.48
-285.375
-264.376
-401.983
666.359
-572.292
496.712
-568.677
-431.389
-367.179
-170.934
538.113
576.642
56.0047
-310.225
-10.9453
321.17
-1030.04
259.95
770.09
-170.784
909.765
54.1019
259.236
-313.338
383.706
-603.927
220.22
233.582
-362.789
129.208
131.324
424.407
757.293
-850.743
39.3298
184.09
-223.419
183.782
156.053
271.23
91.5293
134.187
-501.366
-30.8626
-150.229
181.092
22.0977
216.993
856.454
-853.996
290.989
493.597
139.138
-347.731
208.593
260.4
957.705
262.584
-37.6072
-224.977
-279.559
-27.8588
-406.087
35.6202
370.467
100.908
65.8564
-166.764
294.444
-240.342
31.5048
-302.39
202.309
127.838
-295.816
215.748
80.0684
-549.066
66.3342
482.731
-96.7439
235.882
-271.034
92.8504
178.184
-94.5834
-223.063
317.647
-23.161
297.739
-274.578
-764.6
-211.341
127.456
-222.039
190.695
971.735
-67.2608
-230.192
-52.4386
282.63
151.131
665.649
-238.047
-32.987
-734.005
142.541
83.9615
193.326
68.5284
-159.424
90.896
-10.1212
-222.264
-196.234
353.184
-243.879
202.049
-36.4179
-412.86
-136.206
-190.958
-662.644
853.602
-171.349
109.189
345.78
59.8267
286.052
20.2212
443.598
32.7368
-327.421
470.952
337.479
-74.8942
-199.378
-118.298
317.675
-5.8093
-187.852
193.661
398.861
-442.746
43.885
105.163
111.123
-216.285
21.8496
326.094
-571.865
509.276
62.5889
-546.236
-26.4202
572.657
-446.224
-126.069
-29.0051
216.159
-187.154
29.9006
-200.302
170.402
735.577
196.788
331.377
70.5197
-401.897
-82.0382
201.412
-119.374
267.341
38.3243
227.491
-124.122
-103.368
586.413
-224.133
27.2224
952.625
157.544
251.344
104.064
-355.408
278.333
-239.003
268.723
-398.092
129.369
66.3872
-952.037
-594.205
432.553
217.117
-148.589
-10.7215
272.641
-261.919
65.6281
265.749
-21.0815
299.354
-278.273
325.488
-58.1467
15.1027
236.241
274.01
-384.768
110.757
-72.6848
327.345
-254.661
-481.975
185.887
-362.008
176.121
255.348
-400.832
145.484
-312.258
284.781
27.4777
-9.16398
-327.772
336.936
771.292
-723.688
197.442
-182.271
619.707
-634.987
15.279
415.95
97.8487
-863.221
535.635
327.586
-39.0891
303.765
-264.676
-85.5098
-150.417
235.926
-279.401
574.028
488.03
513.89
-513.89
-517.102
-512.938
-253.542
-229.579
899.025
-608.036
-1.24025
266.216
-264.976
-182.221
-244.91
427.131
102.51
137.735
-240.245
505.768
-911.391
-326.041
245.088
-12.8059
-393.282
352.411
-361.575
-1068.64
499.958
-485.227
485.227
-641.44
-6.38909
647.829
631.948
-248.242
307.402
127.1
-434.502
-316.223
274.202
-218.428
208.292
10.1352
-519.654
818.319
-298.665
307.019
-69.4859
570.361
-89.5575
-419.214
219.837
192.824
70.8919
-635.053
452.832
215.781
-355.288
87.9961
-173.506
239.077
94.0703
-333.147
352.85
-119.268
-972.432
-245.673
622.166
-45.5241
-61.6048
279.684
-218.08
553.444
-456.832
-96.6126
-73.4574
767.054
-693.597
-53.2245
896.122
263.801
1.7422
-85.9233
188.434
-61.8839
527.12
-465.236
-542.503
197.485
-165.274
10.647
154.627
-123.758
431.16
-49.0992
234.637
-185.538
-59.4345
-212.014
193.435
-92.5273
-77.5417
194.241
20.9994
-249.92
228.921
34.7397
456.06
-490.799
710.458
49.3834
-759.842
286.07
20.949
-80.6367
-163.243
-114.136
11.1633
255.425
-266.589
34.1513
360.704
223.279
-742.932
325.868
-194.009
-88.4024
122.538
-820.644
698.106
68.1363
-376.16
-197.484
-295.592
227.354
68.2379
-354.821
-308.328
567.772
-999.161
236.461
-49.4347
-187.026
-33.1389
216.638
-183.499
-1037.44
330.809
706.632
-46.7137
380.316
-333.603
324.562
54.9527
-256.306
114.528
141.779
355.481
-82.5795
-272.901
382.628
-113.905
-192.251
296.54
289.951
-214.91
137.338
-170.477
-82.8439
590.937
-508.093
750.954
-184.002
-123.615
-332.679
456.294
854.015
-731.477
239.281
-228.117
-31.1313
-296.29
-537.157
73.3754
89.174
-162.549
343.582
-53.0292
-290.553
-84.3902
189.865
-105.475
374.473
-100.463
-92.7108
-364.83
457.541
7.65264
843.934
-851.587
-776.564
803.937
-27.3733
-242.537
76.505
166.032
-754.026
440.139
313.887
49.7415
-165.34
-1.34975
176.337
-174.987
-261.211
260.868
6.30341
-231.213
224.909
222.74
-6.5814
148.404
-527.161
378.758
231.4
-210.4
-40.2901
-186.934
-57.7292
528.681
323.668
-42.8242
-280.843
-733.864
741.516
-474.802
341.744
133.058
440.877
-306.69
471.931
-861.787
389.856
-311.717
-80.504
-726.601
28.9224
-165.638
-90.6686
-645.722
631.508
14.2142
-182.168
351.813
-169.645
312.946
322.5
262.94
-169.908
-93.0322
282.796
-270.304
-463.701
-209.019
-93.0575
269.925
-178.777
-91.1485
-525.953
-8.36522
534.318
201.123
-95.9604
1006.22
-1006.22
433.601
-492.647
-544.795
149.014
208.411
-357.426
-453.344
422.213
-332.086
294.862
-326.407
430.039
139.413
-569.452
50.6037
712.364
544.282
-114.243
399.206
-570.14
96.1676
224.596
-320.763
-210.972
-228.238
439.21
267.755
79.8212
-347.577
-297.372
-544.661
842.033
491.739
-756.115
356.674
9.02226
-365.697
-985.771
417.739
96.1512
244.499
-250.308
301.354
-361.142
-37.868
156.448
-118.58
14.8854
-262.152
-254.687
11.8629
242.824
227.554
42.3714
275.481
-357.519
227.428
-93.2846
-511.593
-170.459
-135.314
-391.228
-362.798
-942.687
-172.124
1114.81
-496.566
942.45
-445.884
-143.083
-19.7443
162.827
-668.546
636.71
31.8365
-248.811
342.1
-93.2887
264.087
289.357
2.29826
-211.652
873.991
-912.546
38.5549
445.295
-106.384
187.056
-383.657
189.335
194.322
-231.385
43.9745
187.41
-489.996
-35.9572
135.18
-244.433
310.36
-71.283
-1085.62
894.66
-521.059
459.176
-128.252
248.532
-120.28
-72.8969
386.255
-313.358
370.362
-318.008
-52.3543
-391.29
46.3487
-211.623
-287.705
677.066
-389.361
-68.88
-261.027
-68.1144
424.789
4.43525
192.273
-196.708
896.592
190.152
-338.314
-45.3432
187.359
183.004
-372.808
-456.212
829.02
-825.785
362.041
449.562
-951.736
502.173
84.0001
-414.803
330.803
-285.662
201.272
-12.2935
468.353
-169.951
-192.057
-460.378
149.51
616.006
6.15973
23.989
212.472
429.012
-101.004
-328.008
-110.873
-88.1841
199.057
124.138
202.758
-262.193
9.11429
-118.472
-59.8807
178.352
-386.582
-18.2563
404.838
0.215395
283.293
-283.508
-103.238
493.759
-390.521
-412.225
347.241
-79.4858
-895.923
822.465
357.147
-327.036
-89.3445
-308.747
-91.1068
-293.661
-655.42
-123.847
-512.863
266.197
246.666
-288.307
37.3785
-112.444
127.944
15.6288
190.131
415.791
-605.922
29.494
-272.351
12.8737
-5.07178
304.426
150.852
-260.333
-51.3367
-246.38
297.717
-810.709
796.249
14.4603
231.399
-252.565
21.166
362.448
536.577
292.772
-375.351
-20.3509
306.421
-724.604
694.179
289.176
-211.478
-77.6983
292.22
-19.5796
-189.494
-164.887
-315.462
480.349
-214.294
-97.964
316.101
-369.13
451.242
-543.953
119.555
76.1889
-195.744
206.639
-128.809
-77.8301
277.999
-650.807
148.333
-519.168
247.415
-94.0546
-153.36
47.6809
-812.281
-433.295
308.587
-351.411
-569.074
653.074
-480.576
67.7165
368.311
-665.683
155.673
-253.098
97.4248
-849.874
897.555
-30.2724
-7.37066
807.316
-218.136
216.44
1.69608
-314.162
198.087
116.075
-229.258
-171.573
-57.0927
426.91
-369.817
553.034
-635.878
47.1502
-231.678
184.528
176.315
-129.165
296.828
82.2775
-264.445
174.905
18.5294
-145.052
766.872
107.119
-452.251
185.755
-240.626
174.614
66.0116
198.387
-247.486
-3.30275
191.578
-188.275
-310.391
259.054
-222.393
-15.4817
237.875
-511.444
387.829
171.92
-195.081
-580.826
-64.8962
614.962
4.7458
-274.466
-226.9
194.018
-76.6832
-117.334
-119.378
-100.475
219.853
136.009
-210.318
74.309
-75.6296
288.481
-212.851
-225.674
213.029
12.6453
-195.057
-30.6173
323.958
105.053
974.199
-713.8
-286.518
-315.664
246.784
191.502
33.0454
-224.548
-979.143
802.941
176.202
-395.789
168.848
226.941
-502.794
-122.696
625.49
-158.922
-806.181
13.5515
-299.521
-470.299
452.043
-98.8879
-215.274
232.115
-15.4771
659.093
-101.791
-557.302
347.209
-450.447
-159.252
756.299
-597.047
-214.363
-223.453
437.816
-285.736
269.707
16.0293
5.94654
-76.8379
212.847
-100.153
-195.439
-526.313
13.451
-16.143
-90.695
-744.815
40.5469
-432.224
-220.238
100.86
-288.646
187.702
698.949
256.283
-308.722
163.807
63.6835
-309.378
15.4477
293.93
-266.703
35.3179
-37.038
-996.863
778.547
218.315
-19.6574
227.95
-116.65
274.16
493.523
-523.911
30.3876
-281.658
-193.144
-361.054
396.675
-36.4304
156.972
-120.541
962.088
-800.166
-161.922
21.124
-531.464
510.34
-6.3564
-163.815
170.172
-178.269
-110.038
487.812
-63.5394
-236.012
500.099
-559.459
121.55
437.909
-182.672
273.883
508.138
-354.588
-153.551
295.012
8.26329
-303.276
-275.132
213.527
656.273
-85.9249
-570.348
435.07
-244.939
-433.541
389.827
43.7135
285.114
-5.42978
-249.295
-60.0832
-180.46
56.3375
200.537
-500.67
66.3925
434.278
-262.794
261.553
-349.104
349.32
-332.173
-67.4883
-417.739
-458.108
401.016
-530.613
1001.8
-471.187
-132.331
95.9004
-176.855
-218.934
488.458
-50.299
-438.159
-17.2847
-299.097
316.382
-504.379
562.648
-58.2691
407.134
203.221
-100.177
-103.044
163.774
-239.403
198.008
-201.311
-305.552
126.775
422.414
-401.29
-11.2202
-274.516
82.6515
-902.174
902.174
130.81
3.36605
420.387
-423.753
-168.176
185.087
-16.911
-524.765
313.793
-425.37
68.9651
356.405
43.2239
150.794
-487.414
368.27
119.145
-239.043
436.702
51.1096
308.452
42.0744
-350.527
341.217
-81.9811
-432.624
-24.2077
116.59
-360.586
287.689
330.431
-221.551
-108.88
-54.0015
145.819
-91.8175
-942.687
-299.321
-216.004
119.584
96.4201
-295.663
235.474
-432.555
-519.18
252.499
525.337
-777.836
-144.949
-531.543
676.492
-448.418
173.952
-18.8175
193.723
214.444
-16.4365
-657.381
640.538
16.8422
78.9507
356.12
296.291
-67.7436
-228.547
-98.4902
-524.916
623.407
-575.628
809.646
-234.017
-572.683
58.599
-784.548
185.674
598.874
-980.996
413.705
567.291
-287.999
-271.46
-124.125
481.273
-968.581
437.968
-675.521
814.365
-138.844
615.052
-713.542
-211.75
251.172
-229.074
124.316
-799.838
-164.254
-694.299
858.553
669.638
-13.3651
501.301
326.833
-58.951
274.676
-116.201
96.4571
-117.467
191.593
-541.375
254.522
-227.402
-27.12
-137.83
321.433
-183.603
-186.022
-86.3286
523.288
-29.7646
-291.096
273.811
13.1783
623.532
-703.913
-650.601
-255.128
-245.543
40.3051
222.599
19.8549
438.26
-458.115
-367.578
349.645
17.9335
-141.589
156.941
561.637
440.163
-351.508
-193.695
545.203
191.913
-246.446
-82.2942
284.603
-71.5358
-353.835
194.6
-232.207
-237.03
315.981
202.831
-130.218
-460.43
-520.566
-296.087
-12.3899
308.476
-286.803
162.488
124.315
-174.063
178.498
-199.707
-87.0956
225.895
-219.592
249.989
-282.683
32.6947
271.358
-62.3801
-208.978
-805.197
646.275
-311.422
-302.205
53.3932
-295.219
304.242
273.56
-103.355
510.489
191.099
-53.3644
284.945
530.543
-815.487
-194.147
166.238
40.4017
-575.273
410.386
-951.504
288.86
303.645
-800.211
-473.153
-73.1321
546.285
-540.97
469.234
71.7365
282.327
-211.457
43.2801
-635.684
399.672
-13.1469
168.82
-319.81
339.665
155.475
-510.062
-139.631
-37.702
230.526
-7.53084
277.237
270.937
-86.5074
197.63
769.608
-2.55392
301.275
-286.373
-14.9022
-239.283
-108.448
-114.857
-34.3105
265.709
688.018
254.432
80.4793
193.681
336.408
-120.627
-82.0537
289.269
-207.216
-425.414
92.7348
495.137
-230.545
-264.593
287.947
-295.477
-16.6286
-674.087
690.716
226.057
-834.883
443.592
-240.038
41.1141
-321.957
-93.4514
-386.136
479.587
-125.173
135.82
259.183
-318.134
289.524
8.21437
-875.905
329.668
53.9399
-344.493
-725.96
-521.981
-457.162
237.805
79.1626
-352.064
248.971
-331.265
161.276
86.1392
125.957
-222.382
96.4243
-496.693
131.863
512.555
-924.779
-170.842
94.1585
458.389
26.8376
-574.765
-422.098
18.086
-598.912
-3.42226
298.435
-98.4265
375.353
-276.926
-125.695
-90.5905
129.155
-194.661
-84.7398
-343.51
377.661
-222.116
-56.4105
278.527
-65.2948
227.783
-296.387
-260.266
242.332
17.9342
43.7968
-247.962
289.076
370.32
-39.8658
-327.713
-22.1938
235.222
204.43
-28.8073
-175.623
-107.631
-466.97
53.9708
413
-292.334
-134.545
426.879
156.853
-210.854
313.123
-262.638
97.0005
-197.117
-123.336
320.453
789.964
328.134
-40.6374
-210.669
251.307
-18.9801
-521.99
-296.087
-742.721
369.398
373.324
2.86498
-296.68
-4.24649
275.477
-12.1717
228.612
254.64
-339.698
85.0578
-473.206
-120.999
-551.344
210.07
341.273
210.597
27.2786
237.872
323.121
-621.953
298.832
217.832
-420.434
202.601
-362.711
387.312
-675.812
288.5
941.053
-913.831
-748.822
461.117
-405.805
-116.034
521.839
175.953
125.323
-332.709
562.571
-377.109
-185.461
388.849
-196.936
-822.52
246.891
250.824
244.313
-238.706
60.4374
378.886
-104.684
179.056
-180.847
1.79108
233.296
11.6618
588.214
-614.634
-512.13
204.076
308.054
74.2656
-339.23
-155.073
494.302
91.0327
376.8
-182.2
265.503
59.9846
-468.039
186.38
287.376
146.919
-434.294
122.635
-250.887
-162.057
-229.314
-206.263
-360.84
17.3306
-28.5637
-628.817
-36.8468
232.492
-195.645
-325.966
172.588
153.378
-363.827
-95.6446
459.472
-236.693
-89.3472
187.856
16.5745
-316.575
82.0344
168.364
113.681
-282.045
-274.757
-137.242
411.999
-363.35
-291.867
272.057
19.8097
149.844
-366.616
216.772
150.481
-255.398
104.917
-36.2787
-85.1663
-293.151
378.317
-391.083
221.133
211.717
-441.031
-281.745
137.031
144.714
-466.965
151.503
35.1543
-440.476
405.322
-197.16
-63.1055
160.711
387.673
-338.206
-49.4676
-211.995
203.815
8.17967
-258.992
140.429
118.563
-108.911
-131.715
-287.411
-115.77
918.71
-216.007
-33.9133
285.736
-486.752
293.608
137.957
-343.485
205.528
-378.436
-117.451
495.887
-471.79
-215.428
220.633
-29.1305
241.055
689.967
-706.596
-48.9475
-272.614
321.561
82.4945
-711.44
628.945
215.817
97.2622
-313.08
312.773
-104.361
-218.352
231.903
-363.816
-48.2056
412.022
-710.557
39.3089
671.248
-459.215
-175.837
-65.7158
-283.389
522.633
-5.062
-774.475
-19.7314
794.206
-170.104
521.699
-351.595
-192.632
477.576
178.698
-517.928
331.791
-107.195
87.0792
440.041
-425.933
429.299
-333.888
-138.875
472.763
-523.797
50.6437
327.192
14.552
52.758
-271.11
267.006
-58.6292
-208.377
-98.8154
-107.131
308.402
-84.7403
-275.846
73.0218
200.862
-301.743
-99.9045
401.647
-289.331
352.704
-63.3732
-84.6178
283.005
-344.423
-130.478
474.901
-266.241
133.283
132.958
-142.377
-15.8134
41.7533
-652.64
610.887
-181.24
-252.301
-272.864
-254.297
-337.017
-96.2783
-217.006
-79.5984
296.605
415.326
639.683
177.706
-264.886
87.1807
146.493
506.58
237.617
29.3883
201.733
-254.132
52.3984
-361.321
-150.123
-531.232
-77.3392
360.135
-180.029
316.568
-34.241
626.24
-173.408
-4.48396
230.379
-241.993
279.272
-37.2789
713.648
0.482155
287.464
-602.051
492.385
109.665
229.417
66.8735
199.224
-43.8608
193.758
-329.073
105.563
-329.796
19.3876
-354.957
358.038
-3.08049
116.487
-220.139
176.793
24.9166
-320.474
319.093
1.38133
251.044
-307.455
248.877
-19.956
-335.984
-117.36
-48.3156
239.091
11.8728
242.649
301.827
6.28168
-363.728
-139.144
502.872
-77.6237
-150.846
-198.702
-32.9765
89.2977
236.57
259.12
-293.431
299.505
-59.3464
-235.416
244.311
-8.89526
-1060.72
707.583
353.142
-423.396
131.062
293.568
-2.94897
-290.619
-68.0445
355.733
577.388
-182.529
-35.5772
218.107
-37.8193
-223.392
-262.919
-63.3219
326.241
-286.116
-61.4846
347.601
-70.0184
-510.139
-91.9114
-797.903
785.538
12.3655
71.8973
223.638
-295.535
50.4893
285.693
-183.283
481.504
-298.222
-238.868
-76.796
-431.942
111.241
-236.936
171.636
-262.304
-327.536
-108.826
436.361
-90.9576
420.575
-329.618
-384.071
-86.2282
-247.769
-70.3648
2.08344
-428.248
-92.8117
-199.851
683.578
10.2602
637.217
-647.477
-197.929
47.7003
229.709
-815.012
585.303
180.538
-409.796
278.599
-25.4898
117.969
-1017.94
-242.65
-88.6149
438.454
-4.853
-474.081
-402.009
-108.906
-657.396
212.991
-422.828
209.837
24.7374
263.744
-324.444
-64.6542
389.098
12.9488
-292.602
279.653
830.078
-116.43
-491.888
479.595
-59.3231
-715.152
-61.181
410.501
-846.717
783.38
296.217
-474.18
402.644
-95.0356
-116.442
199.215
169.227
-368.441
-438.23
-247.516
183.95
19.2222
-203.172
-221.409
914.876
30.9438
-991.99
559.766
-224.66
-97.1164
321.777
726.375
30.9183
332.689
-87.6014
372.422
-355.092
-401.923
406.716
-4.79345
330.652
-326.006
-4.64615
341.156
-100.101
-18.6469
-411.322
-120.142
-242.718
-114.708
-213.957
-106.806
-605.549
791.327
-185.777
-206.831
7.1238
-195.788
-390.16
-462.578
412.279
93.3598
-288.021
-133.095
-112.39
245.485
-43.1179
388.647
-345.529
311.717
-52.6636
219.361
-71.0185
-148.343
86.3536
-250.169
121.433
168.517
318.467
-102.649
-308.101
-112.69
216.773
528.841
-141.012
26.2605
-773.554
747.294
-299.129
122.093
-208.601
-30.268
-43.2697
304.138
35.942
771.745
-699.203
856.387
-110.849
-745.538
376.659
-74.8701
-301.789
127.803
-248.083
-91.107
507.635
-416.528
-232.423
-57.7445
22.7606
-734.2
412.807
-108.071
-290.625
285.015
5.61009
-196.612
-77.1535
273.766
202.463
27.0064
-229.47
-35.8642
-121.865
-451.996
-608.729
-427.424
202.462
-18.9119
-228.222
-22.0747
248.131
57.6103
-538.199
480.589
-291.232
247.387
-424.242
186.182
-378.239
696.984
-321.869
67.9641
-268.507
200.543
-112.125
301.46
561.391
-162.185
-234.642
-143.788
228.978
865.741
86.8842
-308.476
229.889
46.4097
725.335
-11.4526
190.509
-323.379
-93.2002
362.388
-53.8013
-457.646
-529.045
156.732
372.314
-151.2
-507.81
659.01
-567.445
1012.74
-721.372
115.823
-483.298
-302.488
292.035
90.5933
-914.278
64.801
849.477
-357.074
379.046
-62.9454
-10.2033
362.614
340.487
12.2168
231.435
-197.889
-33.5464
-323.431
102.022
-194.436
-17.5588
243.291
370.315
-77.5434
619.418
-109.078
299.114
75.3584
554.163
-102.92
518.298
-102.506
258.668
-39.1727
-219.495
399.34
-476.461
-320.621
797.082
530.66
-264.463
-301.347
-556.769
80.4624
476.307
317.464
-70.6796
-711.27
677.411
33.859
526.187
-74.1443
-29.1259
635.046
-605.92
-325.834
263.454
289.556
52.5439
437.036
107.246
-386.483
219.963
-35.4355
317.768
-6.05092
-436.921
-129.21
-32.2655
592.157
321.654
-315.654
-6.00019
-521.698
48.4917
-390.909
-333.189
298.948
52.1906
328.126
-301.624
296.65
-33.1967
-144.27
-254.978
-244.268
5.64262
238.625
-401.487
-112.402
-35.5721
547.428
-38.1524
-5.09707
473.45
548.015
-26.3637
-170.8
-273.603
332.838
-59.2349
-94.2744
247.481
32.1295
-743.4
-302.059
-214.463
357.326
-391.642
-66.4665
449.313
622.629
221.694
-844.323
-141.716
541.606
-128.799
331.866
-252.552
-79.3145
-109.458
-595.539
-189.009
34.3366
209.605
130.882
-129.737
234.654
-263.963
-268.253
303.39
-35.1363
243.533
313.22
-437.345
699.506
415.305
-263.915
332.964
-69.0492
-247.914
-476.995
-210.546
837.434
18.9526
363.486
-45.7178
-940.862
26.584
355.843
-80.362
-745.275
15.684
-324.431
634.092
206.334
-86.779
-89.3803
11.8146
294.606
-361.865
4.93705
356.928
-209.366
-123.782
239.121
-109.211
-478.716
-96.5575
499.301
-88.9151
363.233
25.8794
-319.54
-83.3164
-106.917
-518.627
373.678
-117.604
652.841
-630.08
-292.976
372.53
-79.5537
-225.099
39.0773
281.384
22.3804
-443.959
-480.82
-426.551
972.313
-469.765
-502.548
539.215
-80.0399
-529.955
-105.729
-61.8549
18.0642
514.448
-114.776
-16.6078
56.0415
176.45
-241.836
-210.415
42.1066
-70.0158
556.06
-123.507
-404.172
-361.292
309.401
263.613
2.09598
424.801
-61.5682
-51.5393
-148.312
-176.655
-305.991
31.4751
78.7624
-277.464
440.728
-652.07
585.83
-86.3341
-499.496
758.802
-726.672
397.998
-40.6719
-274.811
-306.07
39.5818
549.142
-99.8286
-758.271
784.532
215.271
-1.28502
-213.986
-118.633
211.993
463.939
-62.9232
569.498
-126.204
-280.304
280.786
-106.454
-109.55
-199.605
232.897
-33.2918
-97.6169
273.57
300.832
-44.5493
-61.6531
250.144
-473.455
-277.847
271.964
-236.095
-35.8687
-384.217
395.262
-11.0454
-17.7125
-98.9813
286.34
310.107
-312.87
2.76354
-256.146
-120.172
-1.66874
158.117
-320.271
418.532
-43.0076
787.11
-744.103
-507.964
352.487
-39.2668
35.3
344.523
13.5896
-358.113
7.17263
382.655
206.313
482.08
36.999
472.554
37.935
356.448
-47.9955
-43.3045
245.038
221.945
67.3241
-856.532
866.792
-303.262
283.291
19.9707
-548.992
247.909
2.23467
758.76
-561.949
-196.812
259.691
-182.688
-77.0037
433.357
227.917
30.5636
492.724
-197.9
617.443
-419.543
73.473
-51.406
845.617
-794.211
-394.494
309.327
476.279
198.877
233.352
1.87046
225.691
-175.487
-489.129
664.616
41.0463
207.83
63.0937
-557.424
571.244
-508.655
794.445
-272.995
-521.449
-304.738
-177.237
34.85
271.254
0.803445
-227.644
-259.77
-341.244
-484.541
3.02051
185.062
-188.083
292.412
264.756
185.855
-792.453
768.486
23.9673
-1.07848
408.374
-456.238
47.8647
289.48
49.2197
6.39848
755.538
-761.936
98.0669
234.771
27.1571
94.9961
-291.331
304.53
-13.1996
-893.376
-49.3115
194.599
-127.281
-490.353
617.634
-292.277
817.614
-138.57
-406.406
-115.291
-560.669
134.933
359.369
32.1467
-253.717
-26.5866
199.929
-143.887
14.3988
853.996
48.1776
-14.5736
302.038
472.56
-356.65
-115.91
-626.288
259.373
366.915
133.249
175.153
372.678
-347.955
239.075
145.596
290.765
229.742
233.963
10.3485
69.7747
-483.821
414.046
808.276
-246.867
-561.409
187.638
201.991
-389.629
324.32
401.863
255.07
3.79629
-626.343
-306.023
250.354
-889.725
367.629
52.0673
-438.203
77.7292
-635.966
-98.2341
245.358
-358.172
368.514
556.041
-568.241
645.113
-76.8722
-10.8403
371.545
413.073
-311.376
-40.9439
173.752
-132.808
-303.219
294.785
-17.5479
646.791
-346.235
-22.7192
376.432
-353.713
67.7917
-181.54
229.3
-47.7602
-252.467
232.431
20.0359
282.617
511.828
164.777
-402.36
411.267
-1079.22
1085.62
108.042
-10.5445
447.154
180.731
-58.6378
415.733
355.201
214.377
21.5497
251.809
364.446
-25.9732
-338.473
-649.687
648.789
0.897659
229.613
195.432
-10.37
501.78
-432.005
-210.696
766.737
271.124
83.3263
240.216
-360.843
-177.582
26.9518
245.012
742.05
-149.68
-592.37
-847.444
913.831
312.676
355.921
211.785
-214.734
554.15
-992.38
424.246
327.917
292.203
-38.0394
471.587
291.297
59.6341
-416.977
357.343
-231.739
317.212
-13.3241
3.75494
-824.322
694.157
807.679
-192.627
333.683
248.513
95.171
339.702
-20.1694
-319.533
269.223
273.618
299.017
-187.897
87.7198
-272.588
282.223
-9.63579
420.131
-525.082
-252.753
-2.72142
217.098
433.871
-573.014
-275.634
21.917
456.33
-115.29
-248.788
364.078
-335.215
-193.83
634.586
106.216
426.371
-943.607
517.236
-459.835
417.96
41.8751
-3.06275
252.616
-249.554
347.423
-279.631
259.869
-236.976
-22.8935
276.357
14.9078
-196.448
-849.874
63.7194
330.779
-394.499
-32.5271
723.317
-690.79
322.81
-295.644
-27.1664
-445.663
449.356
277.078
-241.136
-400.001
978.679
-578.679
283.194
-13.9376
197.888
536.052
463.948
-201.659
207.008
12.802
-219.81
-27.9827
398.45
-593.58
33.6113
559.969
201.35
269.134
-339.499
-14.3514
-369.866
-914.876
863.47
-497.452
1033.5
336.464
-58.4467
238.502
-1.91763
-236.585
488.933
-434.962
66.8836
-719.524
-459.577
-0.258004
-256.558
318.12
-469.475
-499.106
298.831
-18.9472
-279.884
-959.988
442.886
-797.903
156.158
32.3823
-188.54
30.011
598.934
648.081
-633.867
-289.572
820.115
-94.8916
222.73
389.448
-528.857
139.41
-133.133
357.827
-224.693
-704.031
750.441
-386.141
243.081
-223.71
232.933
-9.2234
-275.574
701.945
313.729
607.56
27.7233
-785.995
-231.886
261.47
-350.085
-58.1304
-229.074
240.937
-897.555
981.573
175.862
39.3652
-215.228
263.553
-272.606
-84.9136
24.7943
400.499
209.003
-609.501
502.767
-902.768
487.693
-65.279
-221.85
-2.53213
224.382
-114.138
-191.853
-263.394
54.4161
-166.51
-135.881
302.641
291.936
-264.984
-117.412
-316.467
433.878
280.212
288.838
-17.7213
-293.304
311.026
-690.885
16.7975
856.454
-893.376
941.053
-972.432
957.705
961.85
-961.85
-847.444
-1017.94
242.098
-209.951
-242.678
-215.417
-186.636
-1.63991
737.131
-956.03
218.899
-866.792
10.5416
-280.803
191.004
-34.8459
-763.436
791.159
228.169
-6.96963
-221.199
-259.083
272.032
-11.9857
-250.003
261.989
248.961
-14.3164
-234.645
201.795
-228.915
-23.7739
-253.704
277.478
-188.085
200.981
-12.8967
250.005
281.11
-347.164
406.798
103.962
-180.913
76.9509
-368.782
-583.255
-194.349
207.772
-13.4225
-419.743
-84.1987
503.942
194.1
-174.878
40.5257
202.022
-26.1598
-349.494
241.046
463.112
-94.5974
199.14
461.782
-53.4087
324.791
-397.723
72.9327
18.6221
-636.726
666.737
263.125
-461.025
-783.718
730.283
53.4347
480.792
497.887
46.2603
416.852
-239.866
264.604
-73.1149
-710.603
248.587
-345.704
716.818
-902.595
320.697
-723.382
402.685
126.834
264.542
-206.261
-58.2813
-53.5939
-387.351
-868.094
592.52
-1.85785
257.513
3.23818
-312.649
309.411
16.1154
-51.2084
235.587
282.22
-37.2074
185.749
-58.4008
-127.348
738.653
20.1486
272.989
301.838
6.63206
179.38
-229.662
50.2817
251.15
-299.934
296.512
-301.977
-203.361
217.761
-14.4
74.7632
-494.506
254.283
164.249
-87.928
825.059
-594.679
409.218
550.125
-644.323
233.308
-340.503
313.602
-446.735
203.494
-318.201
218.314
-191.307
-335.552
231.191
-189.556
-7.38061
196.937
231.699
-338.505
368.74
-266.537
-102.203
-5.70446
486.293
-442.488
-560.374
1002.86
-736.642
650.717
-50.6566
-320.713
371.37
21.3815
58.1875
-312.164
307.918
-268.131
-7.50351
204.362
61.7929
-266.155
-189.264
-233.564
-309.632
223.748
-209.224
-14.5235
-312.649
-413.522
413.522
186.128
-657.918
185.634
167.55
309.411
727.46
-235.074
-41.8539
-645.67
687.524
525.993
-88.0847
235.44
-364.519
315.572
395.701
242.981
4.41095
232.775
-172.57
-60.2052
-32.1371
-686.835
686.835
-177.115
-387.239
-98.3107
-138.625
207.141
20.2871
-157.397
228.289
-423.021
478.84
-180.061
-198.177
704.13
-489.507
-214.624
-136.021
-112.061
525.65
-146.892
-84.0788
-39.6519
-490.378
530.03
-500.554
-287.215
511.705
-18.9811
-18.5584
-731.198
555.711
-458.014
-65.7826
767.792
19.3182
231.015
-112.977
773.724
-660.747
97.986
826.465
683.184
830.632
147.734
-218.752
-386.4
-73.1765
-234.022
250.225
-225.31
49.539
-199.593
-897.766
41.3962
856.37
28.5801
402.919
813.09
-261.591
246.466
15.1247
1066.47
-542.411
-524.055
-169.099
3.62253
475.972
203.267
-37.0296
291.057
254.147
428.541
-772.056
956.328
-184.272
-369.427
8.13455
231.483
17.6047
665.973
-86.7939
-216.468
-198.537
-228.015
217.211
92.3832
635.076
689.911
-731.765
91.4347
-795.466
22.832
654.579
752.329
-849.65
97.3216
-627.526
535.812
91.7138
627.334
-563.603
-63.7311
-446.496
521.259
57.0619
-115.748
-113.742
229.49
155.303
305.791
-585.152
409.315
192.187
-192.187
-199.124
218.945
-879.226
436.738
-667.191
539.91
-556.769
856.532
-944.46
23.7691
-238.13
204.287
-197.98
-211.816
-250.977
20.6373
357.024
35.2179
341.442
-351.279
-364.564
38.5583
402.234
-666.698
-55.3384
-726.77
782.108
207.822
-284.976
55.2835
142.659
-255.049
-623.515
655.352
-179.491
-82.813
8.28517
548.819
128.247
-308.707
-24.4814
-455.136
957.903
864.202
-864.202
332.971
43.461
10.2719
463.178
-761.485
17.3823
651.097
15.6393
80.4601
417.648
-498.109
214.566
302.467
-4.03256
9.16268
673.144
17.5713
-827.138
638.129
195.543
303.172
-498.715
-810.239
537.244
210.791
-412.564
19.4242
-649.504
-193.642
-52.8408
246.483
-115.27
223.789
-108.519
15.3819
44.7374
355.873
40.8018
-201.009
17.4874
-248.622
511.883
659.716
63.6004
12.4937
132.939
-117.768
-177.767
196.399
387.555
-496.04
-707.855
-64.2013
-197.396
-466.946
-476.661
-274.122
-360.865
624.707
-515.041
6.71105
798.508
-805.219
318.547
50.1935
392.445
-59.4743
620.327
-55.8706
-564.457
313.911
-19.0491
-573.407
-100.854
674.26
-2.89007
-236.113
-585.693
412.285
-188.375
-38.7663
227.141
242.354
611.33
66.2991
-213.78
-115.293
24.5658
203.311
-546.147
638.531
194.166
3.72214
-199.696
396.186
-196.489
295.671
-853.496
557.824