/*--------------------------------*- C++ -*----------------------------------*\
  =========                 |
  \\      /  F ield         | OpenFOAM: The Open Source CFD Toolbox
   \\    /   O peration     | Website:  https://openfoam.org
    \\  /    A nd           | Version:  7
     \\/     M anipulation  |
\*---------------------------------------------------------------------------*/
FoamFile
{
    version     2.0;
    format      ascii;
    class       surfaceScalarField;
    location    "6";
    object      phi;
}
// * * * * * * * * * * * * * * * * * * * * * * * * * * * * * * * * * * * * * //

dimensions      [0 3 -1 0 0 0 0];

internalField   nonuniform List<scalar> 
44730
(
-595.338
665.46
-70.1219
1061.02
-1071.33
10.306
-335.207
382.685
-47.4785
228.598
-260.273
31.6745
-498.653
498.653
222.167
-265.073
42.9056
-367.016
369.727
-2.7106
23.766
-561.286
537.52
663.353
-833.361
170.007
-1009.26
1102.23
-92.9757
553.023
-141.196
-411.827
-531.109
537.024
-5.91562
-687.905
582.7
105.205
-859.821
868.883
-9.06193
246.633
56.1137
-302.747
386.113
-10.5296
-375.584
814.654
-666.85
-147.803
-387.017
395.137
-8.11959
161.367
314.781
-476.148
290.973
-357.674
66.7014
-594.107
81.6507
512.457
724.321
-60.9676
50.1532
-385.36
136.597
-489.634
353.036
247.761
-145.267
-102.494
1065.96
-4.93085
659.902
-681.056
21.1534
-270.675
-17.6794
288.354
281.873
-35.2399
-441.287
543.918
-102.631
950.905
-249.827
-701.078
-666.128
755.533
-89.405
246.185
-227.96
-18.2254
478.348
-68.4983
-409.85
147.549
-418.223
269.413
-432.171
162.758
422.672
-570.993
148.321
292.273
-37.6109
-254.662
823.971
-978.25
154.279
1061.12
-237.15
-1018.05
1035.62
-17.5701
404.456
-93.865
-310.591
704.013
110.641
195.381
-310.887
115.506
1228.46
-777.696
-450.767
-591.36
150.073
539.522
-538.862
-0.6605
230.511
645.51
-876.021
223.976
537.309
-761.286
-109.417
532.089
-370.185
159.403
210.782
-14.9453
-225.537
240.482
-661.994
-4.13416
240.539
-18.3721
424.486
-38.3729
-257.306
-49.6787
306.985
525.027
-500.015
-25.0122
-34.2434
-559.864
-462.99
40.6542
422.336
-301.055
-24.5671
325.622
799.521
17.5776
-817.098
-409.172
570.538
2.93545
-230.771
227.836
-214.436
483.849
-302.796
423.076
-120.28
264.927
252.595
-517.522
497.669
-127.584
-370.085
428.558
-46.9292
-381.629
-458.134
-35.0212
493.156
-986.593
-31.4556
1057.91
8.04981
283.452
301.084
-584.536
-241.813
546.285
-304.472
163.113
97.2688
-260.382
-432.436
382.118
50.3182
-360.641
377.32
-16.6796
262.639
-144.54
-118.099
-251.478
-61.6029
313.081
-699.309
16.5478
682.761
409.56
-94.8009
-314.759
-255.431
255.431
94.8984
-762.9
668.002
-661.766
66.4282
-947.223
848.218
99.0053
-317.066
-49.9504
-18.7968
206.341
-187.544
517.804
-148.848
-368.956
-644.591
-43.314
652.529
-69.8291
101.11
81.0558
-182.166
-355.638
88.7201
266.918
-310.895
59.417
845.48
-621.504
556.234
-588.906
32.6718
227.671
-96.6193
-131.051
-344.897
117.897
227
-18.9263
251.685
-232.758
-846.679
847.349
-0.669876
-29.3404
-162.325
191.665
249.92
9.03692
-258.957
-711.459
12.1496
-267.342
284.242
-16.9004
778.75
20.7713
428.527
-627.847
199.32
203.409
-218.354
-750.394
810.261
-59.8667
631.075
-719.38
88.3053
74.7057
577.824
943.853
-846.973
-96.8804
-221.994
241.574
-19.5804
202.172
44.0132
355.236
114.763
-469.999
1009.09
-256.884
-752.206
19.1426
563.404
-582.546
-13.1744
-587.164
600.338
538.268
-254.816
94.784
425.913
-520.697
-303.454
408.486
-105.033
76.758
-814.829
738.071
-697.842
456.029
9.64236
-203.931
194.289
16.4495
-852.665
836.215
-311.026
308.557
2.4696
-44.4011
309.328
24.1402
-890.654
866.513
-337.004
333.946
3.05766
-74.8651
-312.152
7.28625
-283.817
276.531
703.065
-786.313
83.2476
726.202
-860.268
134.066
-144.975
340.356
162.725
99.9133
187.084
-206.132
19.0487
289.934
-296.113
6.17923
-123.313
551.84
623.412
327.493
154.781
56.5036
-211.284
277.731
-317.328
39.5968
217.043
-243.558
26.5149
-27.4844
277.405
-341.791
4.78774
1.51693
-188.652
187.135
225.361
-63.0295
-162.331
181.122
827.967
-198.077
-739.276
937.353
-101.185
-397.468
522.877
16.6456
228.159
-227.599
-0.559978
260.863
-218.577
-42.2861
26.6565
-212.046
185.39
-396.08
629.986
-233.906
54.815
505.524
-560.339
984.048
-886.355
-97.6931
790.951
-787.1
-3.85131
-573.634
-237.487
811.122
-146.174
722.143
-575.969
456.381
-444.028
-12.3531
-196.21
-14.296
210.506
45.1053
-768.709
723.604
-158.301
-211.884
-248.757
234.786
13.9714
242.257
-13.6589
24.5667
1020.89
-572.446
-448.444
735.194
-933.271
-400.398
96.9441
15.8959
209.465
16.4341
-778.203
761.769
-90.3988
-856.824
418.129
-452.692
34.563
-106.606
832.808
55.0495
-736.27
681.22
-201.094
4.8839
277.731
-2.25161
248.744
-246.493
-433.015
433.015
83.1064
679.086
-762.192
-315.886
48.5444
-579.145
598.287
312.778
-299.539
-13.2389
-777.836
-63.2722
841.108
-141.973
445.781
-303.808
421.752
96.0523
428.597
-443.568
14.9713
253.785
-36.7421
-217.491
-315.663
533.154
501.808
-381.648
-120.16
-328.861
17.1617
311.699
784.995
-81.9297
-521.323
-78.6412
599.964
-661.119
661.119
-124.702
501.274
-376.572
94.1641
-354.391
260.227
-919.991
346.357
307.189
-359.177
51.9877
437.018
19.3627
818.058
-507.352
-310.706
908.215
-57.603
-850.612
77.9018
149.769
-847.076
614.077
232.999
-16.5028
262.128
-245.626
-213.494
223.2
-9.70518
-41.6584
-489.45
874.754
-890.056
15.3018
-46.3135
430.028
-11.8989
787.801
-790.601
2.79972
247.197
-19.0374
18.1383
-240.132
822.136
-963.828
141.691
234.637
-345.466
110.829
570.769
-570.769
899.945
-93.2495
-806.696
594.326
73.0665
-667.392
54.5028
-327.624
273.121
-174.089
252.161
-78.0723
-471.192
329.219
54.2325
733.569
-393.154
529.751
257.664
-179.762
-683.935
-176.333
484.344
-630.518
453.737
-501.36
47.6229
-891.847
1025.47
-133.625
-580.94
555.834
25.1056
505.642
-582.545
76.9033
128.701
728.639
-857.34
211.346
530.659
-742.005
723.334
505.128
321.887
739.235
326.872
-232.829
-94.0425
-296.439
296.439
371.342
-402.395
31.0521
-28.6929
1086.6
270.46
-324.341
53.8806
530.558
-475.743
-297.43
-562.392
551.813
-565.974
14.1616
-29.5136
904.267
259.313
-275.816
-218.337
200.209
18.1276
499.102
-587.901
88.7989
-197.747
959.005
-761.258
588.88
-83.2389
771.519
-384.218
-387.301
339.622
-48.6495
472.01
548.879
-196.379
177.582
-743.852
59.917
-927.977
36.1304
477.846
47.1814
-679.81
891.155
-686.893
-63.5016
190.835
-202.812
11.9767
-74.0132
915.166
-841.153
-38.0467
-817.796
855.843
185.061
-183.544
37.3042
173.343
-210.648
-9.61236
-366.091
375.703
321.392
-314.106
-602.686
206.606
-223.089
432.23
-209.141
908.539
-678.028
304.212
22.6597
290.741
-8.38854
-282.353
-568.897
154.032
414.865
461.243
-32.6456
509.779
-727.27
-360.872
0.231064
647.214
-746.157
98.9431
-242.125
162.042
80.0827
-656.315
639.001
17.3144
216.848
-219.1
75.0087
182.655
-742.586
825.693
-298.55
309.573
-11.0233
68.083
-363.811
295.728
228.264
-211.746
-16.5183
526.809
-328.821
-197.988
7.62008
-347.237
339.617
-497.538
484.363
-61.2692
262.054
-200.785
-660.467
156.558
503.909
-344.181
-0.716355
653.866
6.03634
446.024
-21.5375
-155.895
1.85956
154.036
-22.447
720.156
-697.709
-848.782
977.482
322.227
-149.773
-172.454
677.344
-775.143
97.799
423.221
348.298
706.473
59.5017
-765.974
818.093
81.8517
544.26
-519.237
-25.0229
1093.7
-1012.3
-81.4044
5.30997
-297.184
291.874
274.786
15.9557
105.853
141.907
211.941
-24.8571
196.025
-202.022
5.9971
145.79
148.255
-294.045
-305.692
285.267
20.4257
-157.592
-299.252
456.843
421.434
-546.136
-321.241
197.372
-196.245
-1.12736
198.663
1009.05
-566.247
-442.804
526.011
-109.167
-416.844
119.287
511.788
79.4186
464.841
1.75128
-689.596
711.777
-22.1814
47.7808
-548.724
500.943
-83.3552
-250.503
333.858
-449.348
39.3254
410.023
-140.616
-336.14
476.756
780.015
-1.26574
22.5953
193.338
-372.727
179.389
156.696
-217.965
-920.644
848.986
71.6579
-297.842
306.527
-8.68503
667.103
-81.8857
-585.217
1047.03
-603.81
-443.215
195.51
-194.863
-0.647156
273.469
-108.264
-165.205
-422.193
418.492
3.70106
663.727
-32.0288
-631.698
-693.205
3.60888
373.729
35.8306
-550.537
436
114.537
582.596
-578.49
-4.10589
-855.762
44.3895
811.373
856.367
33.1995
-889.566
-424.827
284.21
-202.715
46.8196
-325.69
526.505
-200.815
-180.561
-37.7761
754.997
-793.043
-150.743
188.048
527.432
-166.262
-361.17
-123.651
-309.364
221.979
-223.105
1.12568
619.556
44.1714
683.512
-608.806
20.204
-302.402
282.198
837.271
-876.292
39.0202
-294.727
-4.81209
953.651
-957.007
3.35611
50.3437
190.05
-240.394
680.277
-33.0634
567.64
-593.21
25.5701
-830.507
846.956
193.769
-184.126
786.301
212.185
746.82
140.424
203.997
-344.42
-301.136
-8.76452
815.212
-59.4242
-755.788
599.574
-127.121
-472.453
242.873
-83.4704
86.0192
411.65
78.6308
-252.72
473.897
-503.968
30.0706
142.95
-349.401
206.451
137.777
389.032
46.3328
861.883
653.009
-773.314
120.305
-23.0289
976.68
-271.636
-14.5576
286.194
-224.152
204.49
19.6616
-15.4266
178.54
48.7068
453.102
335.326
-344.938
-347.612
44.8161
-338.713
37.6578
838.358
-58.3423
73.1139
-218.418
145.304
-950.576
22.5987
-914.115
-36.4612
-486.279
55.7778
430.501
-729.785
898.379
-168.594
-191.144
-72.3386
263.482
-110.245
-88.7063
198.951
-165.087
-35.533
200.62
-120.132
227.295
-107.163
853.455
408.002
-214.664
150.618
-12.8404
-568.099
-878.983
-41.661
453.544
146.029
186.472
-512.161
200.732
-1106.98
906.25
29.1265
202.451
-231.577
-11.5736
-201.921
419.069
26.9548
89.1894
701.762
282.375
-1.60644
-280.769
-471.219
566.003
728.719
72.9052
-801.624
-777.734
-8.57916
800.047
-854.787
54.7405
285.057
-269.702
-15.3542
82.5534
239.673
850.718
-864.979
14.2608
978.833
-862.152
-116.681
939.021
-943.601
4.58027
-384.878
-165.659
-5.56865
-873.148
541.069
332.079
-185.817
162.765
23.053
-244.02
389.81
141.142
92.0326
-233.175
757.609
251.653
-248.717
431.752
94.2586
782.256
-695.117
-87.1386
-52.7843
-95.5391
-100.508
196.047
-309.54
261.093
48.4476
862.404
-838.263
-21.9595
380.195
-358.236
-318.085
-23.706
569.943
-584.044
14.101
369.368
-327.547
-41.8214
-828.457
731.191
97.2667
-905.757
831.744
142.227
131.242
-406.845
277.327
129.518
468.812
-454.277
-14.5346
621.489
-622.681
1.19129
518.179
-44.2817
-298.757
-143.445
442.202
5.38137
-277.017
-74.0924
-246.647
320.739
544.284
563.926
-1108.21
-900.868
849.211
51.6575
-3.01332
-405.398
419.449
-14.0508
432.39
-400.015
-32.3748
671.397
-843.493
172.095
710.955
-880.949
169.994
-504.056
-156.412
-422.637
62.8232
359.814
306.172
-6.61018
-299.562
-327.926
162.839
475.133
77.8895
-719.676
-108.781
6.0329
189.992
-304.339
301.346
2.99329
31.6516
-325.498
293.847
490.856
39.0963
-529.952
-231.065
302.217
-71.1517
-896.199
-19.6387
915.838
-211.639
-26.44
238.079
6.8824
-844.033
837.15
804.705
-118.457
-686.248
346.759
141.152
-215.244
-874.881
-21.3179
808.468
40.5175
-6.51176
539.914
-184.678
-501.53
-18.7244
520.254
-801.995
913.797
-111.802
314.178
-246.095
-395.781
312.426
-30.2792
590.758
63.1084
384.484
-241.534
311.872
506.186
-15.0101
27.1381
342.23
-778.146
88.9028
689.243
457.003
94.81
-139.817
-19.4451
159.262
-851.81
-23.0705
72.1909
332.265
-200.648
229.897
-29.2489
50.4542
-281.519
-269.354
264.28
5.074
-19.1413
31.0277
-514.5
483.472
-610.917
-135.24
-23.7524
303.582
-279.83
-333.42
448.183
599.389
447.636
-1102.77
430.482
672.286
329.738
0.367856
-330.106
-250.128
-153.176
403.304
-525.765
549.531
-661.218
-18.0097
679.228
99.7135
89.4125
-189.126
-44.2461
799.243
838.689
-862.457
23.7679
807.531
-154.523
40.9999
-602.286
-326.612
-20.6253
556.824
57.8371
-614.661
440.849
20.3934
-349.778
393.726
-43.9478
-853.477
-3.81406
857.291
-27.8176
-823.993
269.185
-270.271
1.08598
625.218
-3.72805
557.919
-404.652
-153.267
-224.921
271.489
-46.5673
-97.6257
-249.986
-421.906
-41.0847
893.896
-182.941
-818.778
88.9926
-629.363
18.4467
-540.658
51.4935
489.164
820.556
-39.6328
-780.923
-253.531
133.399
-0.724196
-356.329
357.053
857.296
-185.899
308.428
-2.25611
636.836
-69.1955
494.214
-3.35859
801.414
-712.225
-1045.13
-57.64
445.187
23.6249
524.872
31.3624
734.739
-689.634
795.861
-38.4091
-757.452
196.205
-225.545
276.384
-15.291
-118.258
196.041
-169.384
474.989
15.6693
-490.658
576.963
-99.4333
-477.53
-459.894
422.191
37.7034
128.919
672.495
2.50886
-101.493
-758.695
860.188
88.2449
-666.288
578.043
228.083
-305.129
77.0459
-743.719
642.225
91.787
712.918
-504.403
1048.69
216.574
-143.46
-266.898
-172.377
260.217
-87.8398
213.465
-264.781
51.3157
-180.588
321.73
6.63681
-324.722
-51.2153
5.74271
-411.325
405.582
-47.5723
-162.255
-195.42
-30.8831
368.813
-337.93
-870.849
944.468
-73.6197
45.5123
-528.201
482.689
17.7321
-241.884
-755.909
106.274
649.635
363.095
-215.547
819.404
1.15213
-27.9311
212.217
-184.286
429.378
128.54
-103.692
-318.944
815.808
-201.731
-95.1965
-914.059
619.413
-318.329
122.78
46.5483
653.044
-558.146
496.131
-17.7824
343.134
-35.9446
339.274
-421.732
82.4579
192.431
-225.188
32.7572
46.9185
251.229
-298.148
338.672
-496.264
-3.17847
761.958
-806.204
537.832
-62.8426
-104.841
736.545
-631.703
-269.857
304.929
-35.0722
-68.3925
296.476
206.8
-190.904
-282.587
12.73
-1054.97
584.5
470.473
-35.8971
-76.8413
177.951
-310.313
295.665
14.6473
-676.045
692.479
268.894
-273.814
4.91986
-474.036
174.784
-500.321
-554.652
241.678
-279.289
847.171
-946.603
99.4319
-344.332
17.7194
485.165
-627.515
142.349
-2.28243
810.751
248.714
-265.101
16.387
-322.834
-550.314
-37.6022
294.238
-25.3446
348.216
-126.016
-222.2
-20.0542
-836.16
856.215
-876.927
493.603
383.324
-56.4375
735.523
-457.222
35.3164
-148.084
-110.291
258.375
873.827
-811.807
-62.0206
394.741
-322.55
796.52
3.52719
106.114
86.8366
-192.951
-580.557
1024.4
-443.84
146.596
-195.444
48.848
-758.952
-144.997
903.95
139.77
208.447
853.519
-31.3825
813.473
-736.715
504.72
-418.701
-10.4157
-220.356
28.827
155.248
-184.075
310.689
229.225
-26.1016
-1098.2
619.2
479
7.83516
891.682
-60.5458
-831.136
-430.659
623.248
-192.589
57.1605
756.312
27.2591
-528.789
-590.54
-18.3593
608.899
398.67
148.699
-547.369
-264.704
-522.396
279.225
63.9093
-179.156
-76.2741
-406.646
353.012
53.6341
-794.21
286.858
201.575
-262.879
61.3039
227.577
-254.034
26.4572
430.608
-424.865
723.605
51.0325
-774.637
-204.524
42.1992
818.016
20.8952
-838.911
-353.973
11.6966
342.276
118.64
860.193
-410.991
451.645
411.727
-72.4529
-954.435
99.6823
854.753
789.089
102.593
-22.9315
215.363
50.756
381.634
892.555
132.916
29.1104
-486.333
28.65
-826.738
798.088
696.085
-762.567
66.4822
636.286
465.945
769.016
-56.0318
-712.984
196.567
-49.9711
76.5323
339.551
-416.084
-735.234
792.395
246.545
176.531
-288.867
168.522
120.345
-111.158
-426.878
538.036
-32.2854
-216.472
1004.41
-573.925
102.435
-293.579
176.406
-204.337
-103.152
-157.121
30.5684
820.15
-159.562
498.234
-597.885
749.897
-152.013
678.273
-700.72
-390.722
371.997
-442.503
-180.177
39.6224
349.083
-11.355
-337.728
-46.2854
808.244
-505.243
-623.363
1128.61
288.597
-236.543
217.616
8.75183
198.048
-260.979
115.711
-885.27
908.926
-23.6563
-271.288
258.503
12.7853
74.7183
707.538
3.36318
765.653
636.141
-16.5854
-15.1332
-513.153
470.899
42.2546
933.068
17.1549
-950.223
-314.948
-39.0247
-0.761805
-235.356
792.051
-68.4465
529.024
-623.169
94.1451
-761.876
-84.8028
13.7058
271.351
882.228
10.3279
-491.057
441.073
49.9835
-950.449
-94.6794
52.3145
-374.399
322.084
-209.469
226.56
-17.0904
248.647
-35.1817
-39.8524
1050.31
-313.23
-737.08
579.634
-50.6094
44.3158
-266.422
-61.2024
-686.865
764.418
-77.5533
-93.2892
-4.97468
232.552
504.894
-5.79155
92.7939
-870.63
-93.3757
214.646
-121.27
-196.385
219.008
-22.623
-681.804
570.647
-448.924
479.951
342.789
51.9521
-461.019
425.069
35.9493
583.391
425.661
498.6
-460.051
-38.5489
476.529
-313.266
-163.263
-177.31
32.7698
351.078
-21.6879
-329.39
-262.467
90.0895
-341.179
296.778
-219.03
-636.732
-691.515
-81.7981
260.419
-58.8437
659.706
197.59
6.97827
227.807
815.915
-85.4379
-730.477
329.118
-142.177
647.114
-504.937
230.558
-302.897
-102.883
501.553
-750.711
8.1245
-133.265
-108.86
500.004
-93.3117
778.252
-684.94
-202.691
222.344
-19.6524
-25.7501
-245.538
829.588
-737.801
223.145
-427.213
-403.397
830.61
860.34
-200.634
-42.4917
782.842
-740.35
597.436
-6.67869
17.8012
-608.341
283.952
133.973
-417.924
-404.286
480.819
-21.5248
-318.772
340.296
-617.376
66.2613
551.115
-140.127
499.43
-359.303
-479.489
410.241
-483.563
73.3216
105.809
-179.46
73.6504
-192.906
333.33
-187.283
-173.589
725.86
-29.7753
102.32
581.191
-611.075
648.954
-37.8788
269.553
-293.306
-810.184
-52.2737
97.2065
-433.346
590.12
460.189
-615.817
173.313
414.414
-841.628
369.285
-681.907
28.6559
653.252
-187.85
224.813
-36.9633
-816.291
886.706
-70.4149
-48.6083
-432.287
480.895
1005.36
-405.606
-599.756
-69.3933
-785.394
-12.8231
282.008
-950.47
207.418
743.051
-857.722
-92.7475
-174.027
-11.7905
-777.765
731.48
-125.968
-297.168
423.136
-17.4734
-266.506
283.98
160.437
647.094
221.214
152.564
-373.778
-902.871
154.581
748.29
541.218
-580.998
39.78
604.548
58.6031
-663.151
-44.0359
674.015
-639.869
-34.1456
353.5
-23.7612
-21.1818
226.525
-205.344
608.345
65.6697
14.449
-792.183
721.544
-777.576
-180.985
209.812
326.784
149.745
127.219
-314.501
204.444
-208.565
4.12058
342.717
-200.031
-142.686
592.108
44.0332
-747.026
800.81
-53.7842
-384.371
-110.318
494.689
-14.5916
-289.747
239.583
46.823
-286.406
251.218
-100.734
-150.484
418.419
-467.028
-61.7176
-740.277
-411.187
76.6538
151.611
487.266
-432.182
-55.0842
-229.758
258.884
-204.128
196.214
7.91401
3.30123
-209.471
206.17
-323.006
379.829
-56.8229
213.963
-8.39581
-205.567
450.437
554.926
-264.12
555.6
-473.949
142.851
-248.658
105.807
-204.258
-10.4796
214.737
701.295
-96.7465
244.961
-169.952
-358.823
278.551
80.2725
-430.912
-4.2067
435.118
-352.145
449.351
313.748
-324.423
10.6755
-17.7811
34.4955
470.224
462.875
35.7245
22.0522
-452.964
192.529
7.68008
-339.704
-4.62721
-371.222
297.558
73.6641
342.818
-63.5933
672.614
221.282
-232.603
235.904
-290.105
307.266
88.3487
660.08
-748.429
-736.076
-26.0891
762.165
5.43127
151.457
16.7811
-339.787
-690.724
621.133
69.5909
133.473
-163.933
173.25
-9.31762
427.138
-143.187
-247.347
-166.07
413.417
-166.635
-346.518
221.774
-17.3296
-248.096
100.012
92.474
-185.85
-1009.55
696.319
-348.273
348.273
851.456
242.249
-35.3034
-509.106
-500.443
210.861
326.163
528.201
42.5672
546.255
-52.041
257.271
-255.274
-1.99737
-629.447
662.382
-32.935
-50.2656
-532.877
-46.2676
-638.088
704.237
-66.1489
84.4705
-493.642
-353.28
539.524
6.7315
522.177
13.6411
-535.818
746.521
-647.531
7.66228
-122.795
-54.3678
177.163
-424.086
82.9062
313.351
-33.9249
-279.426
-162.324
-40.391
-302.961
290.015
12.9464
-287.079
62.1577
868.579
-195.965
-335.353
51.5355
767.514
-1.01722
-766.497
584.2
-659.088
74.8881
-922.85
830.37
92.4799
-24.0209
-637.198
110.049
298.437
-23.8288
-261.768
285.597
-775.271
12.3711
-204.407
-291.809
267.981
-466.206
511.718
-249.994
252.902
-2.90752
-305.092
300.421
4.67067
-809.389
704.548
995.987
-148.815
-163.347
277.094
-226.75
364.078
-160.082
405.932
-313.169
-92.7624
288.322
54.4959
809.886
-95.786
-714.1
184.116
-681.653
-751.073
666.251
84.8225
5.46688
-617.523
623.918
-6.39437
65.1436
179.817
-96.2975
517.731
-274.895
284.837
-9.94207
379.292
-458.465
79.1732
-608.69
649.291
-40.6003
585.471
44.6371
-630.108
245.54
-224.713
-20.8264
556.071
-23.5239
-532.547
249.694
-137.643
-112.051
-139.377
-51.6207
190.998
953.545
-944.639
-8.90639
-575.501
-388.327
-46.7192
-755.321
802.04
-897.645
834.373
-572.25
358.378
213.872
605.112
-623.471
-16.7218
672.078
-655.356
9.48442
157.744
-167.228
-53.6046
-271.894
-855.972
-66.8786
15.4616
366.656
334.096
-739.702
206.819
-14.2901
-230.123
230.123
417.272
-159.294
-257.978
-911.221
25.9514
-3.46204
-28.8616
-475.573
504.435
-753.703
-80.7117
487.255
-406.543
-252.414
-408.705
432.855
-10.6639
-58.1856
260.636
156.187
186.53
-540.732
399.536
-168.712
389.926
340.183
-51.8607
762.397
-707.348
-284.795
-8.54728
271.433
-946.888
-3.56054
5.60812
927.46
533.239
-448.768
-833.455
573.286
260.169
-0.206801
263.251
-263.044
350.503
-6.03625
-344.467
-462.336
31.6763
-834.665
748.406
86.2586
-136.376
-178.571
188.738
26.7631
-215.501
213.161
127.022
-800.993
17.8513
-594.747
319.463
275.285
56.0536
233.88
362.903
-325.787
-37.1165
-365.077
383.463
-18.3859
847.421
-513.326
-455.074
312.896
-324.043
192.453
131.589
423.387
-720.816
568.449
-27.2303
811.251
-807.887
78.2858
171.408
-828.167
810.233
17.9345
-794.408
47.382
-472.162
-527.845
1042.65
-186.28
931.102
-835.174
-95.9279
-521.12
-463.316
984.436
-48.8141
-256.878
63.3621
226.823
-234.467
7.64451
-22.3138
-56.0753
733.419
468.154
-32.1628
-435.991
-378.387
-190.51
17.9405
-105.411
-240.055
-142.377
411.988
-269.611
-926.322
926.322
93.1133
-808.504
497.798
-511.05
69.2432
441.807
-212.018
-194.827
160.655
-160.852
-379.88
-551.335
390.483
598.024
58.4789
192.739
418.347
-929.025
510.679
-11.5428
293.918
-222.399
-263.879
-217.672
413.668
-86.884
-182.249
-141.793
-65.4959
-835.372
452.562
-518.181
65.6191
16.8038
-688.534
770.646
-82.1125
415.846
-421.467
5.62117
247.625
-568.487
529.779
38.7082
121.526
108.505
-230.031
200.577
-221.759
378.935
-708.793
329.858
110.544
758.339
180.627
236.645
-68.7203
-493.118
464.256
293.249
-307.911
14.6624
416.666
-37.3743
354.276
-385.16
-23.1718
-367.751
390.922
-18.7552
-277.358
295.476
20.0609
-315.537
-414.689
272.312
-389.263
41.2661
631.077
-749.534
-410.263
532.946
-313.748
-91.6502
976.657
-866.113
-492.717
-312.316
805.033
296.825
39.9971
290.54
-330.537
-458.581
137.426
-273.803
-51.8961
451.372
-564.039
112.667
47.4314
613.687
-180.946
58.1509
328.658
-272.605
708.753
-329.819
269.793
-181.073
24.2148
364.976
-389.191
-28.9634
-298
-4.40155
-257.822
252.198
5.62381
0.275173
550.875
-523.616
38.8828
-891.586
113.383
798.141
-1.62159
330.292
-117.131
525.487
328.711
-854.198
598.405
239.952
667.044
-760.355
-741.376
104.388
636.988
282.567
42.8846
-325.452
188.219
-181.08
-7.1391
25.6394
274.453
572.896
-192.404
23.2118
169.192
-156.971
-606.851
763.822
-342.166
360.852
-18.686
-241.075
298.269
-57.1938
-148.842
-175.499
-256.512
213.607
42.9057
920.089
-920.089
-87.4334
727.069
-639.635
295.435
-212.881
345.476
-68.1492
-657.654
190.916
28.1397
-219.055
57.796
-585.133
527.337
18.5565
-214.566
196.01
908.164
-913.895
5.7304
300.858
-674.449
373.591
333.17
-280.855
52.1131
310.79
-350.752
876.239
557.168
-105.796
-73.1056
-244.222
-401.112
324.727
76.3849
218.953
-346.537
334.514
-500.458
165.944
-222.736
34.8858
-873.289
-73.5989
34.387
-722.921
306.859
-188.962
796.385
-773.232
-23.1532
433.16
46.5938
-479.754
-685.643
610.7
74.9426
-250.559
216.018
34.5413
321.419
-28.1704
-426.158
-254.898
874.814
-831.678
-43.1361
-357.788
658.646
137.927
-522.298
-864.569
11.0919
-57.8299
-597.725
655.555
33.2048
-135.228
-153.639
-915.66
420.87
494.79
193.508
2.70538
450.581
-34.7351
543.444
245.908
-257.656
11.7486
-335.129
-6.15696
341.286
-538.859
429.442
-20.0674
-181.933
202
232.75
-41.8342
-83.2013
350.171
-266.97
-356.524
6.74526
435.308
-10.2388
65.1133
-807.262
742.148
-664.312
664.312
36.9804
193.578
-86.2615
-506.169
592.431
-854.466
938.099
-83.6324
741.114
55.2716
-14.1539
-834.507
848.661
324.743
-342.205
17.4616
325.584
14.8947
-340.478
584.028
-636.981
52.9529
30.5015
302.318
-332.82
-203.385
-115.129
318.515
197.411
-9.19189
105.77
-710.275
604.505
-760.001
267.284
352.094
-312.097
793.743
59.7763
-77.4335
-433.616
343.377
-390.306
-680.898
100.864
580.034
311.265
-259.456
-51.809
-531.89
614.131
-82.2418
-82.0534
-363.037
445.09
409.827
-382.689
-590.162
-325.498
589.698
-726.036
136.337
-407.422
-426.033
837.852
-39.7645
-645.878
136.854
441.898
-578.751
563.573
-644.837
81.2638
22.7028
-241.28
11.1084
-693.016
-322.413
321.688
5.78712
570.601
-692.739
122.138
-344.52
-430.623
-3.74657
-684.445
698.269
-13.8238
763.082
-164.676
645.717
-103.02
-542.696
200.856
286.41
291.385
-298.412
7.02693
807.725
-935.892
128.167
-644.289
-97.0871
-279.654
4.75894
-329.332
96.8236
232.508
-56.7298
640.758
77.5098
-255.415
177.905
358.216
-336.112
-22.104
-326.14
-268.608
-14.0666
204.902
-26.9386
-175.873
234.755
132.483
-367.238
-272.224
320.111
-47.8873
588.054
-674.315
24.3713
288.979
-253.944
-75.3882
-280.565
-291.685
-711.349
540.681
170.667
-111.638
-153.435
-163.534
66.9149
-578.816
536.497
42.3188
576.957
-1098.08
-25.2678
-1015.63
-140.747
368.716
44.9522
-22.9819
-51.4059
-757.89
126.187
849.562
-842.68
617.413
-76.7315
1.86132
589.252
-591.113
-280.822
-167.031
447.853
-38.4821
-212.077
6.21174
200.021
-213.211
13.1897
-993.099
224.39
448.638
-114.124
19.7103
-628.017
608.306
299.156
-365.345
25.9665
339.378
58.8775
573.744
-632.622
-103.994
770.85
-666.857
-669.402
-195.577
-723.483
39.7346
683.748
-37.0229
562.024
-525.001
921.489
-913.249
-8.24009
560.251
-618.081
-611.19
-23.722
634.912
-396.549
124.325
244.917
-260.912
15.9945
801.173
-772.523
-96.1579
730.93
-634.772
460.464
10.435
-434.198
-669.958
604.144
65.8143
399.155
-92.2653
-564.05
-36.4507
-11.4937
-399.832
-21.4347
219.172
-197.737
24.3252
327.769
-360.975
364.789
-3.81415
744.899
-791.618
138.497
124.986
214.877
-226.839
11.9615
684.144
-775.31
91.1654
-314.901
-667.299
-19.5661
794.604
73.975
291.198
120.529
810.723
-16.1186
-12.1595
-1030.45
177.787
3.94469
18.4724
-567.196
162.375
-152.891
-1081.53
-241.057
220.99
70.6646
224.77
-107.787
-467.142
574.929
-2.5195
-477.55
480.07
838.936
-31.2103
570.109
75.6076
-21.3994
-202.285
223.685
737.816
-780.308
-146.202
380.957
-402.115
444.659
-42.5439
-679.246
723.261
-44.0148
289.802
-373.595
19.2037
397.913
-161.662
-236.251
172.762
-511.769
466.244
45.525
4.85617
-462.563
460.731
1.83179
613.847
-596.045
31.5634
-157.823
590.983
-295.693
57.5232
441.13
41.7495
607.111
-648.861
-82.5608
-145.399
196.4
19.6181
30.7815
-392.83
27.4859
-413.755
11.6394
251.702
-253.818
2.11535
711.27
-682.614
-485.621
84.4989
401.123
-42.3188
626.519
-1.25626
-208.215
914.267
-141.787
-772.48
518.881
537.483
-1056.36
-289.518
-21.3696
291.497
4.16843
10.2742
274.992
-689.29
-1.14049
690.43
592.067
-749.038
-214.444
196.912
17.5321
-516.69
-35.161
-631.127
-6.54055
149.392
-137.631
-428.343
-119.215
196.724
14.3138
-631.702
617.389
-39.0341
-497.744
536.778
-253.173
283.675
-69.3423
626.166
-726.861
753.278
-26.4176
217.74
-482.444
221.336
-248.847
27.5113
-12.4314
-837.934
28.5444
233.852
-437.238
904.522
-914.054
9.53174
636.449
14.179
-650.628
-55.0075
-538.203
-807.247
840.446
107.495
-208.003
897.677
-78.2727
242.416
-15.5938
-60.3577
-715.972
776.33
-87.2496
-597.195
-12.7789
534.956
-665.693
21.4048
211.486
-235.958
24.4722
-237.968
2.67207
235.296
-559.111
533.561
25.5505
-230.745
91.3675
62.2133
88.3767
-150.59
-880.247
314.809
20.6327
-335.442
54.9887
637.878
-692.867
-343.836
366.738
-22.9018
-643.908
-21.7858
-669.982
758.331
-896.532
127.456
769.076
-146.691
-169.196
-445.882
64.2339
-456.978
-614.353
236.146
15.5065
-291.295
291.696
-0.401025
183.097
-61.5707
-423.294
394.086
29.2076
-954.868
972.023
-306.552
118.44
188.112
151.804
10.5709
521.956
851.792
-871.846
277.746
-38.0731
356.105
-496.232
-789.195
811.2
-22.0056
-349.654
-178.985
528.639
133.334
-175.208
41.8738
427.305
-523.602
741.158
-679.616
-61.5423
-263.566
-25.9518
307.851
-68.2675
316.874
-292.503
332.752
-652.049
-17.9088
5.49059
633.51
-380.955
165.408
20.6585
-891.507
547.733
-391.175
608.146
368.511
423.894
8.9605
744.623
-804.981
-40.4348
-26.7603
827.282
70.3943
421.173
-499.905
78.7314
203.463
-178.501
-24.9623
-199.88
216.036
-16.156
-12.402
344.616
-332.213
-617.182
658.931
433.753
251.529
-222.186
-29.3428
369.822
504.005
313.307
-334.994
701.196
108.69
75.8528
-599.679
523.826
639.869
-35.7251
14.2859
-930.32
113.855
816.465
226.866
-253.306
-252.857
-793.315
732.259
61.0564
5.2941
814.106
-819.4
925.9
-925.9
-378.524
17.5495
602.828
37.0411
-109.171
-21.2212
-197.701
218.922
437.663
27.8933
-465.557
-436.022
22.0064
414.016
188.447
972.165
-453.284
-230.583
40.0889
190.494
-627.065
630.866
-3.80103
413.013
-470.036
57.023
-430.984
-5.03844
50.7018
-761.436
710.734
-637.071
-60.7714
-549.813
518.555
31.2587
-363.307
265.682
21.1405
-240.198
219.058
-154.075
-152.477
-29.332
229.429
-33.0291
56.8732
275.878
-277.485
-71.8055
791.612
367.624
-52.8149
-769.117
33.0415
-890.028
814.42
75.6081
127.322
267.814
390.6
147.668
-753.449
858.589
333.483
184.985
-518.468
-165.44
594.46
-644.055
49.5951
471.967
58.0665
-530.033
633.173
-338.059
-295.114
-469.471
-119.436
-780.861
676.868
29.1242
-684.628
655.503
-711.354
108.52
602.834
-765.474
-2.37172
26.6797
508.651
-87.478
-516.109
356.547
544.644
-581.667
-35.4368
-67.628
231.945
-164.317
33.6981
-671.786
-236.75
-235.599
167.971
-30.2001
278.561
-120.365
-158.195
159.346
-9.91501
-634.62
723.523
-25.5081
200.477
-174.969
869.869
-629.047
11.5235
149.73
178.929
1.01035
397.634
-398.644
-226.173
-193.021
419.194
180.941
763.528
379.904
-355.689
-842.18
7.5158
626.417
-609.869
0.0660809
-807.958
807.892
589.561
16.1072
-605.668
840.642
45.2699
-885.912
312.224
-11.8025
126.463
-407.285
426.16
9.14832
-255.515
335.339
-79.8244
196.261
381.803
-90.6051
611.471
-55.6871
-555.784
-755.389
780.234
-24.8451
14.6476
641.58
-656.227
-645.494
113.604
-7.05226
-442.526
602.368
34.5766
323.639
-30.9401
190.49
-90.776
-337.092
1.96334
95.9706
742.965
3.99311
-278.323
274.329
-424.248
-504.777
-57.4533
-757.746
815.199
235.566
-45.5158
199.001
-266.095
67.0943
205.774
-96.3163
-223.145
-516.879
-581.321
-791.907
-18.2771
-170.431
-815.76
776.449
39.3119
-34.5466
469.903
-435.356
59.7826
821.34
-881.122
200.446
-138.232
774.292
26.5174
-225.35
204.129
20.5954
-307.662
287.067
575.735
-573.874
-645.198
147.023
498.175
-542.945
588.318
-45.3729
32.3616
259.024
-665.179
-441.802
608.547
45.828
-654.375
-721.93
606.765
-679.22
72.4554
-162.576
-29.8282
450.13
-484.374
-846.301
851.595
104.951
-307.705
-588.827
-642.472
593.304
49.1687
182.893
-77.0838
-43.8925
458.996
174.177
-569.624
55.124
514.228
-527.399
13.1711
73.0949
-717.679
644.584
268.243
-16.541
-314.407
166.872
147.535
-562.958
576.6
-120.931
453.749
-332.818
681.438
-86.9781
1.38272
-318.656
317.273
-446.833
-442.775
889.608
-160.242
252.05
-91.8078
-101.134
-579.764
-557.999
408.861
149.138