/*--------------------------------*- C++ -*----------------------------------*\
  =========                 |
  \\      /  F ield         | OpenFOAM: The Open Source CFD Toolbox
   \\    /   O peration     | Website:  https://openfoam.org
    \\  /    A nd           | Version:  7
     \\/     M anipulation  |
\*---------------------------------------------------------------------------*/
FoamFile
{
    version     2.0;
    format      ascii;
    class       volVectorField;
    location    "4.5";
    object      U;
}
// * * * * * * * * * * * * * * * * * * * * * * * * * * * * * * * * * * * * * //

dimensions      [0 1 -1 0 0 0 0];

internalField   nonuniform List<vector> 
7807
(
(1.04651 0.0926462 2.2258e-20)
(1.03759 -0.0290329 9.60655e-21)
(0.993843 0.0699692 -4.07193e-20)
(1.0232 0.0463366 6.03203e-20)
(0.99937 -0.000672643 -1.29073e-22)
(0.999973 -9.19705e-06 -1.45734e-23)
(0.990388 0.0584606 -7.90123e-20)
(0.996427 -0.00131982 -2.82313e-23)
(0.999905 -0.000131723 -2.3945e-23)
(1.01716 -0.00114597 -2.96912e-21)
(0.999975 -1.0376e-05 1.60614e-23)
(1.00157 -0.00098721 -5.19769e-22)
(0.994439 -0.00180652 1.34435e-21)
(1.01167 -0.00136492 -1.98383e-20)
(1.01623 0.000119599 1.2535e-20)
(0.993812 -0.0104608 -2.56989e-21)
(1.04742 0.0977319 -4.68926e-20)
(0.992533 -0.00227298 -4.72596e-22)
(1.00175 -0.00638425 -2.00439e-22)
(0.988627 -0.0688975 -1.94428e-21)
(1.02353 -0.00160019 -6.92087e-21)
(1.00102 -0.000438065 9.76121e-22)
(1.0122 -0.00265342 1.74838e-21)
(1.008 0.0200762 -3.10185e-20)
(0.990039 -0.00283818 -2.16974e-21)
(1.04342 0.0911006 -2.20262e-20)
(0.999359 -0.000633974 -9.31172e-23)
(1.0168 -0.000398032 7.77612e-21)
(1.00447 0.0106242 -4.04962e-21)
(1.00229 -0.00698177 1.67849e-22)
(0.991232 -0.0113137 -4.81332e-21)
(0.917846 0.0239439 1.10837e-20)
(1.01107 -0.00291402 1.07714e-20)
(0.999672 -0.00027995 1.62501e-22)
(0.999927 -1.31636e-06 3.17137e-25)
(1.01549 0.00051349 4.41357e-21)
(1.00325 -0.00759235 1.92716e-22)
(0.99258 0.0558777 -1.2702e-20)
(0.997911 -0.00571777 2.13776e-21)
(0.999763 -3.60383e-05 1.54772e-22)
(0.997934 -0.00580356 -2.49241e-22)
(0.994089 -0.00949413 -9.80315e-22)
(1.00734 -0.0753811 7.41881e-21)
(1.10692 -0.0331403 -1.40934e-21)
(0.999859 -3.86545e-06 5.02694e-23)
(0.999946 -1.35332e-05 -1.43917e-23)
(1.00087 -0.000393396 -5.96724e-22)
(0.997187 -0.00480031 -1.26142e-21)
(0.999954 -2.19665e-05 -1.168e-23)
(0.991623 -0.0692991 2.78652e-21)
(1.00225 -0.000864184 5.62157e-22)
(1.01677 0.000527314 -8.09024e-21)
(0.986989 -0.00340819 -7.31808e-21)
(1.00833 -0.0219153 4.84257e-22)
(1.01457 -0.00115464 -2.67356e-21)
(0.996811 -0.00186002 -2.4614e-22)
(1.00118 -0.00638361 4.14796e-22)
(0.996461 -0.00110544 1.8334e-21)
(0.984159 -0.0136641 -8.63605e-21)
(0.999675 -0.000250183 -2.0869e-22)
(1.00003 -1.71354e-05 -2.14598e-23)
(1.00298 -0.000686558 6.29917e-22)
(1.01258 -0.000932717 -4.64448e-21)
(1.00166 -0.000884293 5.26019e-22)
(0.999363 -0.000159953 2.9831e-22)
(0.991454 -0.011838 8.74969e-22)
(0.999937 -0.000137771 1.85209e-23)
(1.00001 -1.57619e-06 1.48613e-24)
(1.10593 0.0536462 1.35188e-20)
(0.997142 -0.00467898 -3.63765e-22)
(0.99995 -1.47326e-05 1.27843e-23)
(0.979685 -0.0413064 -1.51142e-20)
(0.990422 -0.00311384 1.05324e-21)
(0.981948 -0.00399793 1.45446e-21)
(0.992806 -0.00249827 1.47911e-21)
(0.975414 -0.0198763 -1.90768e-21)
(0.996181 0.0712037 6.53517e-20)
(1.02202 -0.00167731 8.77053e-21)
(1.05949 0.000534963 -1.98036e-20)
(0.968084 -0.0340754 -1.99663e-20)
(0.994669 -0.00197092 -2.06429e-21)
(0.998689 0.033624 7.89706e-20)
(1.02572 0.00473388 2.02251e-20)
(0.981402 -0.0073144 6.65752e-21)
(0.999087 -0.00177748 -2.07092e-22)
(0.99842 -0.000220674 2.17734e-22)
(0.996201 -0.0017394 2.53168e-21)
(0.987475 -0.00380116 4.7095e-21)
(0.99954 -0.000830948 1.39282e-22)
(0.99695 -0.000502773 7.82369e-22)
(1.00451 0.0121345 2.97794e-20)
(1.13108 -0.0212513 2.68016e-21)
(0.999912 -4.07389e-05 -3.04497e-23)
(1.00133 -0.00537577 1.64172e-22)
(0.997579 -0.000733405 7.09466e-22)
(0.981427 -0.00239601 -1.16066e-20)
(0.9815 -0.0408843 1.03516e-21)
(1.0092 -0.0209234 -8.98209e-23)
(0.999094 -0.00173922 6.9505e-23)
(0.999252 -0.000112447 9.99685e-23)
(0.964391 -0.0122188 5.10805e-21)
(1.06057 0.00457539 1.5862e-20)
(0.997742 -0.00084766 -1.76951e-21)
(0.999981 -2.5815e-07 -1.23283e-24)
(1.13416 -0.0122738 1.76965e-21)
(1.02057 0.019265 -2.87814e-20)
(0.954796 0.0178525 1.29087e-20)
(0.996566 -0.00176824 -1.01941e-21)
(0.999994 -1.39627e-06 3.0388e-25)
(1.01754 -0.00848813 -3.92688e-21)
(1.02717 0.043964 -7.00589e-20)
(1.01922 -0.0561651 -7.04477e-21)
(0.999992 -1.39767e-06 -4.5261e-25)
(1.01925 -0.00856457 -8.60143e-22)
(1.01775 0.0190747 3.0238e-20)
(1.00026 -0.000383576 -4.66568e-23)
(1.05056 -0.0653913 7.61679e-23)
(1.02104 0.0110884 -7.04766e-21)
(0.988255 -0.0323572 6.35086e-21)
(0.98164 -0.00486923 -1.50867e-21)
(0.961947 -0.00806538 -1.2378e-20)
(1.00051 0.0293405 -5.13957e-20)
(1.01169 -0.073979 -1.02322e-20)
(1.00619 -0.0051329 3.3375e-22)
(0.963295 -0.009204 4.8818e-21)
(0.999366 -0.000933682 3.10712e-22)
(0.99136 -0.0084001 1.57583e-21)
(1.00213 -0.00621836 -2.87065e-22)
(0.999317 -0.000133034 -6.65001e-22)
(0.990721 -0.0102327 7.66012e-23)
(1.16058 -0.0358202 3.48319e-22)
(1.05502 -0.00104458 3.32497e-21)
(0.999597 -0.000356323 1.76155e-23)
(0.999478 -0.000857092 -2.70496e-22)
(0.980515 -0.00671096 1.98189e-21)
(1.02551 0.0363798 2.61404e-20)
(0.994478 0.0229632 8.89416e-20)
(0.999983 -2.64575e-06 -1.44306e-24)
(1.00565 -0.0019707 2.63621e-22)
(0.947812 -0.00977609 -1.56678e-20)
(0.982973 -0.00282349 -5.94157e-21)
(0.992153 -0.0448629 -8.85081e-21)
(0.975774 -0.0213959 2.58385e-21)
(0.982891 -0.00360745 -1.31032e-22)
(0.951654 0.0143108 4.97561e-20)
(1.00914 -0.0328301 -2.62194e-22)
(1.00903 0.0116452 -1.52765e-20)
(0.985782 -0.0165686 -4.39344e-21)
(0.974521 -0.00411711 1.65919e-21)
(0.999768 0.0314503 -2.56335e-20)
(1.01654 0.0022499 1.12179e-20)
(1.1209 -0.0229411 2.053e-21)
(0.998899 -0.00137703 -7.21831e-22)
(1.11057 0.0469256 2.78049e-21)
(1.02508 0.0040419 -2.09303e-20)
(1.00184 0.0587127 -6.53384e-20)
(0.971416 -0.0233342 7.97188e-21)
(0.994444 -0.00126535 4.5292e-22)
(0.962107 0.044729 1.1381e-19)
(0.999957 -1.67236e-05 -1.09799e-23)
(1.00093 -0.00551851 -1.31827e-22)
(1.00886 0.0226505 2.21847e-20)
(0.999985 -1.36726e-05 7.0637e-24)
(0.998829 -0.00365181 -9.86914e-22)
(0.997318 -0.000717875 -3.39531e-22)
(1.00326 0.0250221 -7.16932e-21)
(1.00206 0.0263213 2.63733e-20)
(0.956109 0.0505243 3.76914e-20)
(0.998802 -0.00356823 -6.28708e-22)
(0.997833 -0.00023731 -3.79861e-22)
(1.00001 -5.40866e-07 -1.37505e-24)
(0.959572 -0.00510195 -2.14154e-20)
(1.00024 -0.000343843 6.41903e-23)
(1.03996 -0.0265037 -1.1213e-20)
(1.00579 -0.00224719 1.75978e-21)
(0.975065 -0.00483138 3.4322e-21)
(1.1266 -0.00389204 5.30568e-21)
(1.07148 0.0521142 1.0888e-21)
(0.999909 -4.26307e-05 1.66712e-23)
(0.99963 -0.000450549 -1.83834e-22)
(1.0225 0.0482011 -1.05995e-20)
(0.999958 -1.45269e-05 -5.33018e-24)
(0.999922 -7.59965e-06 7.96573e-24)
(0.9905 0.0613503 -6.5602e-20)
(1.03833 -0.031265 3.84731e-21)
(1.00948 -0.0469093 -4.45827e-21)
(0.989725 -0.0313965 -9e-21)
(0.983433 -0.00530673 4.33487e-21)
(1.00702 -0.0341035 4.13232e-22)
(0.949101 -0.00819 8.21799e-21)
(0.999985 -1.30211e-05 -2.51538e-24)
(0.981803 -0.0382769 -3.58937e-21)
(1.07398 0.0580473 -2.44714e-20)
(0.997712 -0.00102072 2.54221e-22)
(1.00006 -3.20641e-06 -1.60652e-23)
(1.05102 0.0542473 2.32343e-21)
(0.999162 -0.000261572 7.05336e-22)
(0.991208 -0.0100428 2.52164e-21)
(1.00535 -0.0323966 1.43008e-21)
(1.00001 -2.14669e-06 -6.10978e-25)
(1.00053 -0.00143007 -2.63315e-22)
(1.02288 0.0365245 3.17977e-20)
(1.06166 0.0613824 -3.0211e-20)
(0.998509 0.0512774 -8.74161e-21)
(1.04758 -0.0610335 1.51818e-21)
(1.02137 -0.0534785 1.73765e-21)
(1.08424 -0.0896875 -4.57148e-22)
(1.01595 -0.00305689 2.29575e-20)
(1.02052 0.0369359 -1.0379e-20)
(0.999851 -1.35959e-05 -5.8904e-23)
(1.00003 -1.34472e-05 5.6774e-24)
(0.966531 0.00708502 -4.99827e-20)
(0.995064 -0.00923042 -9.1565e-22)
(0.999588 -0.000326454 -1.75734e-22)
(0.983469 -0.0375795 7.39701e-21)
(0.990907 -0.00885595 -1.82996e-21)
(1.00855 0.0536601 -7.44203e-20)
(1.00541 0.0521646 -1.57642e-20)
(0.989903 -0.0461479 2.48392e-21)
(0.932427 0.0340276 -4.2205e-20)
(0.999226 -0.000312043 -5.17712e-22)
(0.992588 -0.00185252 1.6827e-21)
(0.962969 -0.0111569 6.74705e-21)
(1.02342 0.00164097 -4.87763e-21)
(1.01068 -0.0936778 -1.04707e-21)
(1.0623 0.092983 -4.9262e-20)
(0.962266 0.0394051 -9.75127e-20)
(1.00005 -7.66932e-05 1.79353e-23)
(1.00615 -0.00518675 8.70107e-22)
(1.01935 0.013313 3.79639e-20)
(0.997368 -0.00416277 -1.64106e-21)
(1.02258 0.0117979 -4.84527e-21)
(0.999631 -0.000883791 -4.45597e-23)
(0.942004 0.0566105 7.57399e-20)
(1.00223 0.0538252 1.41065e-20)
(0.99623 -0.00145751 1.61016e-21)
(1.00285 -0.00577766 -3.93058e-23)
(0.999774 -6.11419e-05 -2.88266e-22)
(1.08918 0.0746806 1.30553e-20)
(0.999931 -1.26829e-05 2.35419e-23)
(0.996209 -0.00781129 7.32536e-22)
(0.954953 -0.0222061 9.17233e-21)
(0.999949 -1.76218e-05 -5.3093e-24)
(0.999203 -0.00202911 -1.78683e-22)
(0.999716 -0.000878041 8.14585e-23)
(1.04511 0.0312253 2.91924e-20)
(0.999986 -1.72075e-05 8.47393e-24)
(0.996824 -0.000395176 8.44581e-25)
(0.969747 -0.0337586 2.31384e-20)
(0.918337 0.0175986 -2.43855e-20)
(1.05462 -0.00431483 -4.4601e-21)
(0.948864 0.0380366 5.76905e-20)
(0.999969 -8.06869e-06 -1.3338e-23)
(1.00391 -0.0329407 -1.48521e-22)
(0.999872 -0.000215926 -6.58068e-23)
(0.998172 0.0604069 -6.49552e-20)
(1.00244 -0.00042933 -8.11287e-22)
(0.992655 0.0217215 2.92632e-20)
(1.00227 -0.00743876 -7.98414e-22)
(1.00045 -0.00137717 2.82537e-22)
(1.02109 -0.0246147 -2.65679e-21)
(1.01581 -0.0017523 -2.12664e-20)
(1.00038 -0.000233201 1.33281e-22)
(0.999842 -4.12002e-05 1.5362e-24)
(1.00033 -0.000318116 3.01145e-22)
(0.997222 -0.00441425 -1.44675e-21)
(1.01404 -0.0491021 4.46053e-21)
(0.99997 -1.05049e-05 9.02513e-24)
(0.9726 -0.022386 5.55555e-21)
(0.997435 -0.000861412 -6.37595e-23)
(0.999895 -3.92454e-05 3.22874e-23)
(0.999595 -0.000402937 5.72096e-23)
(0.988604 0.0362996 7.07653e-20)
(0.994371 -0.000615881 6.58449e-22)
(0.999487 -0.00010901 -5.9661e-23)
(0.935486 0.00813308 9.35091e-20)
(0.999125 -0.00199929 -4.03769e-22)
(1.03975 0.0693282 -2.59303e-20)
(0.999859 -0.000208363 1.1883e-22)
(1.00613 -0.0169597 5.05725e-22)
(1.00001 -5.63254e-07 -5.00527e-25)
(0.987648 -0.0262523 -3.73222e-21)
(1.02338 0.00215178 7.48449e-21)
(1.12874 0.00326716 -1.34799e-20)
(0.984297 -0.0146394 7.2911e-21)
(0.999732 -0.000468174 2.13156e-22)
(0.987257 -0.0586184 4.61319e-21)
(0.98818 -0.000304602 3.07963e-21)
(0.999868 -2.2087e-05 3.12852e-24)
(1.0003 -0.0002691 -2.66603e-22)
(0.998537 -0.00250136 5.47698e-22)
(0.994538 -0.0010368 -1.96649e-21)
(1.00231 -0.00060821 -9.63798e-22)
(0.999147 -0.00146684 2.58851e-22)
(0.982392 -0.00678839 1.0425e-21)
(1.0175 -0.0466342 -3.41118e-21)
(0.982533 -0.00566896 4.65151e-21)
(1.10141 -0.0273204 5.04382e-22)
(0.976577 -0.00634924 -5.98197e-21)
(1.00898 0.0706888 7.42404e-21)
(1.00608 0.0727315 -5.4942e-20)
(0.998992 -0.000566024 -4.4903e-22)
(1.14691 0.000586584 1.48529e-20)
(0.999988 -2.82487e-06 -8.35215e-25)
(0.998497 -0.00302017 -6.56913e-22)
(0.981052 -0.00165488 1.19387e-20)
(1.00602 0.0169035 1.84943e-20)
(1.02873 0.006613 -1.94259e-20)
(1.00007 -3.01167e-05 3.6404e-23)
(0.998486 -0.00295856 -4.29913e-23)
(0.977477 -0.00702074 4.50781e-21)
(1.03571 0.0274911 -1.136e-20)
(0.999331 -0.000891083 2.32619e-22)
(1.00235 -0.000693234 5.40563e-22)
(1.00088 -0.000679331 -4.84389e-23)
(1.08944 0.0162918 2.03039e-20)
(1.16003 -0.0458139 8.11534e-22)
(1.0205 0.0861754 3.63781e-20)
(0.998908 -0.000124034 -4.42216e-22)
(1.04622 -0.0303961 -9.64987e-21)
(0.99992 -5.17868e-05 -2.6433e-23)
(1.00354 -0.00520811 -1.92163e-21)
(0.999961 -8.9725e-06 -3.78673e-24)
(0.989524 -0.0157886 1.2262e-21)
(0.999762 -5.42266e-05 -5.52763e-23)
(1.009 -0.0156997 4.66923e-22)
(1.16608 0.00148904 -1.18193e-20)
(0.980773 -0.0209571 8.63904e-21)
(1.00671 -0.0163527 -2.97784e-22)
(1.00591 -0.00445472 -1.14644e-21)
(0.999489 -0.000132262 2.67096e-22)
(1.01946 -0.0131292 2.80323e-21)
(0.997473 -0.0137887 1.04924e-21)
(1.05624 0.00859643 -8.85254e-21)
(1.04142 0.0303093 1.31911e-20)
(1.1227 -0.101152 -2.32649e-22)
(1.10495 -0.0395295 2.39202e-21)
(0.987757 -0.00067107 -3.30066e-21)
(1.00356 -0.00259223 1.74157e-21)
(0.956667 -0.0210178 -3.5511e-21)
(0.951317 0.0501106 -1.1687e-19)
(1.08842 -0.0401032 -5.77087e-21)
(1.01859 -0.00747875 -1.04615e-20)
(0.93718 0.0365033 -5.76554e-20)
(0.998915 -6.60414e-05 2.18032e-22)
(0.998784 -0.000714438 -1.38737e-22)
(1.11835 -0.0306652 3.13451e-21)
(0.999238 -0.00148849 -1.40154e-22)
(1.00924 -0.0306221 2.2402e-22)
(1.00419 -0.0015181 6.02616e-22)
(0.997952 -0.00036034 -3.37418e-22)
(0.998466 -0.0003285 -5.3866e-22)
(1.02139 0.0182416 2.22011e-20)
(0.999952 -0.000114148 -1.826e-24)
(1.00035 -0.00017282 -1.18605e-22)
(1.00006 -1.38631e-05 2.74083e-23)
(0.997562 -0.000593686 1.83015e-21)
(0.995382 -0.00660834 2.02727e-21)
(0.999987 -2.99269e-06 6.4607e-25)
(0.999249 -0.000190571 5.67615e-23)
(0.984871 -0.012938 2.57726e-21)
(0.966737 0.0100519 3.10799e-20)
(1.00822 -0.0170356 -3.88664e-22)
(0.99508 -0.00839286 3.23127e-21)
(0.973855 0.0397211 1.35681e-20)
(1.00064 0.0290426 4.65397e-20)
(1.04789 -0.00114862 -7.19364e-21)
(1.1397 0.00536658 -5.8899e-21)
(0.958641 -0.0037916 1.16876e-20)
(1.00363 -0.00285344 -8.63226e-22)
(1.00564 0.0283679 -2.55224e-21)
(0.991863 -0.00180685 -4.02087e-21)
(1.02538 0.0676997 1.21992e-21)
(1.00691 -0.0369287 1.7511e-23)
(1.02664 -0.0841766 -3.14486e-21)
(1.05855 0.0593756 1.847e-20)
(1.02681 0.0719397 -3.2408e-20)
(0.973724 -0.0193396 1.2502e-20)
(1.03108 0.00550399 -1.27778e-20)
(1.06552 0.0965533 4.64028e-20)
(1.03558 0.0695257 4.79795e-20)
(1.01606 -0.00184864 7.28251e-21)
(0.997884 -0.00110526 4.00415e-22)
(0.997012 -0.00167632 3.50059e-22)
(0.999935 -1.37337e-05 -1.26144e-23)
(1.01242 -0.020394 6.85306e-22)
(0.991698 -0.00151302 9.48739e-22)
(1.00072 -0.00184837 -2.31749e-22)
(0.999923 -1.79047e-05 -2.34705e-23)
(0.998814 -0.000545939 1.74657e-22)
(0.985329 -0.0578394 -7.55197e-21)
(1.07784 0.0253555 8.41858e-21)
(0.987329 -0.00456463 -5.28271e-21)
(0.99954 -0.00942377 1.09384e-21)
(0.997336 -0.000475342 -9.73465e-22)
(1.04499 -0.0315217 3.61713e-22)
(0.994836 -0.00116595 -3.1754e-21)
(1.0017 -0.00525205 7.54897e-22)
(1.07631 0.0934687 7.416e-21)
(0.998651 -0.00026773 -1.26175e-21)
(0.999985 -3.25943e-05 -5.79349e-24)
(0.999961 -0.00013671 -3.20555e-24)
(1.00003 -8.06244e-05 2.34286e-23)
(0.984192 -0.00595799 2.42579e-21)
(1.02036 0.0152859 -2.6452e-20)
(0.997131 -0.000364049 3.74591e-23)
(1.01592 -0.00656882 6.73723e-21)
(1.01584 -0.0978396 6.71473e-21)
(0.994427 0.0516886 -1.27462e-21)
(1.00297 -0.00568587 6.42063e-22)
(1.00507 -0.00310091 -2.85132e-22)
(0.996428 -0.00193842 -1.2792e-21)
(0.994329 0.0366416 -6.9395e-20)
(0.99926 -4.34051e-05 1.81162e-22)
(1.02306 0.0891421 -1.86302e-20)
(1.00794 0.0118203 -2.92963e-20)
(0.999918 -2.25279e-05 2.74844e-23)
(1.00566 -0.037681 -2.90117e-21)
(0.997697 -0.000664489 -8.99815e-22)
(0.994702 -0.0452472 1.07986e-20)
(1.00037 -8.01473e-05 1.18902e-22)
(1.04368 0.00148838 9.98386e-21)
(1.0054 -0.0117705 -3.01096e-23)
(1.00454 -0.00265006 1.49919e-22)
(0.99939 -0.000111141 -3.58029e-22)
(1.0513 0.0290509 1.45448e-20)
(1.03211 0.0267264 4.50061e-21)
(1.00745 -0.0490499 4.64987e-21)
(0.985479 -0.0151522 -4.97703e-22)
(0.998457 -0.00267936 -4.731e-22)
(1.00057 -0.0294239 -5.4073e-21)
(1.10644 0.0392946 -1.81687e-20)
(0.922325 0.0283114 -5.36038e-20)
(1.0614 -0.0578883 -7.15931e-22)
(1.00365 -0.0057698 -3.07656e-22)
(0.999995 -1.04924e-06 -2.38721e-25)
(0.99035 -0.00371289 -4.21233e-21)
(0.998377 -0.00026458 1.16185e-21)
(1.01937 -0.0118815 4.10002e-21)
(1.00451 -0.0790193 -3.2134e-21)
(1.14501 -0.00982656 -4.64923e-21)
(0.988015 0.0494116 -8.60071e-20)
(1.03883 0.0249294 1.90642e-20)
(1.08631 -0.0809027 2.49399e-21)
(1.05091 0.0592619 7.70885e-21)
(0.99882 0.0284101 8.24441e-20)
(1.01454 -0.00227344 5.48248e-21)
(1.00083 -0.00170009 5.30631e-22)
(1.01605 0.0387836 1.57987e-20)
(0.999382 -0.00151347 3.12514e-22)
(0.999872 -0.000116871 2.61597e-23)
(0.986731 -0.00168941 1.48514e-21)
(1.00008 -2.64426e-05 6.80307e-24)
(1.09092 -0.0962666 2.14614e-21)
(1.00302 -0.0132335 -5.15934e-23)
(0.989531 -0.0257385 6.20787e-21)
(1.00132 -0.00122808 2.6844e-22)
(1.0467 0.0515198 4.00912e-20)
(0.998696 -0.000227244 -1.04332e-22)
(0.999983 -2.58645e-05 -5.72077e-25)
(1.02163 -0.0876049 3.58321e-21)
(1.00118 -0.000923197 -1.55889e-22)
(1.0774 -0.003961 -2.16892e-21)
(0.966219 -0.0114471 2.36586e-21)
(0.950373 -0.0139391 1.22942e-21)
(1.15244 0.0401273 -1.67475e-21)
(1.01784 0.0116821 -9.9088e-21)
(1.01547 0.00299649 6.12292e-21)
(1.01435 0.00283541 -2.49949e-21)
(0.999853 -3.36756e-05 9.17389e-24)
(1.08381 0.0250453 6.77408e-21)
(1.05658 0.0109263 1.03202e-20)
(0.999648 -0.00046374 8.40362e-23)
(0.98793 -0.00493474 6.13679e-21)
(1.00045 -0.000143689 -1.3232e-22)
(1.0088 -0.0143716 -3.37547e-21)
(1.00738 -0.0202796 1.89156e-23)
(1.00337 -0.00106223 7.41396e-24)
(0.999475 -0.000953375 -3.7679e-22)
(1.08871 0.0687478 -3.98421e-20)
(0.999985 -1.66656e-05 -9.8573e-24)
(1.00015 -7.08708e-05 -3.5239e-23)
(1.00156 -0.000695828 -1.06506e-23)
(0.983384 -0.00250092 4.14184e-21)
(1.01357 -0.00783738 4.85911e-21)
(0.98858 -0.0216064 -8.99199e-21)
(0.979607 -0.00383865 -2.4037e-21)
(1.01187 -0.0463532 2.49318e-21)
(1.02968 -0.104933 -6.94619e-21)
(1.01982 -0.0217097 1.62796e-21)
(1.02043 0.0393353 -9.10536e-20)
(1.15874 0.00704588 6.86725e-21)
(0.99532 -0.00190291 -1.69314e-22)
(0.939428 0.0529081 8.958e-20)
(0.983263 -0.0421678 1.3027e-20)
(0.995345 -0.00695683 6.38517e-22)
(0.979989 -0.00315584 3.98069e-21)
(0.998726 -0.0135725 -3.10679e-22)
(0.984449 -0.00193902 6.31404e-21)
(0.992762 -0.00299322 -1.21847e-21)
(1.01942 -0.0104306 -7.39696e-21)
(1.0944 -0.0427198 1.47007e-21)
(0.999982 -3.20222e-05 -7.97843e-25)
(1.01613 -0.00939109 -7.85156e-22)
(0.999929 -2.24984e-05 -1.3324e-23)
(1.00498 0.0605713 1.75634e-20)
(1.10688 0.0588471 3.11396e-20)
(0.996524 -0.00146896 3.99578e-22)
(0.989713 -0.00143207 -5.59481e-21)
(0.999863 -4.1341e-05 -6.71815e-23)
(0.996513 0.0329989 5.23296e-20)
(1.01799 0.0700073 4.23939e-20)
(1.08569 0.0178113 -1.1043e-20)
(1.09382 0.0894576 -3.38863e-20)
(0.983227 -0.0449367 -5.44157e-21)
(0.999275 0.0133541 -7.60962e-20)
(0.999955 -9.50273e-05 1.2261e-23)
(1.03567 -0.0187912 1.10681e-20)
(0.986526 -0.00128398 -2.34992e-22)
(1.06594 0.0499213 -8.88092e-21)
(0.955709 0.036882 -7.04662e-20)
(1.10952 0.0338037 2.46755e-20)
(1.0358 0.0213926 3.23242e-21)
(1.00014 -0.00928233 -1.55066e-22)
(0.999861 -6.14602e-05 -6.18974e-23)
(1.0952 0.0770094 1.41007e-20)
(1.14987 -0.0284454 -1.23952e-21)
(0.996319 0.0369962 -1.76267e-21)
(1.07122 -0.00554692 2.02013e-20)
(1.02295 0.0330204 2.68219e-20)
(0.994954 -0.00169492 -5.65066e-22)
(0.993058 0.0494909 2.35897e-20)
(1.02121 0.0667921 1.5134e-20)
(0.993665 -0.00248441 -3.41452e-21)
(0.994645 -0.00234687 -1.26626e-21)
(1.10496 0.0705118 7.7539e-22)
(0.948477 -0.0129275 -1.64677e-20)
(0.999938 -0.000111608 -1.91015e-23)
(0.990845 -0.00400081 5.41952e-21)
(0.952689 -0.0180919 1.19929e-20)
(0.993062 -0.0564005 -1.61289e-21)
(1.00679 -0.00218088 -4.85597e-21)
(1.0053 -0.0040661 3.2759e-22)
(0.999908 -0.000136006 -3.63449e-23)
(1.01889 0.074384 -6.37864e-20)
(1.00049 -0.00782513 2.61218e-23)
(0.999926 -4.19318e-05 1.17775e-23)
(1.01697 -0.0433468 1.74789e-21)
(0.999648 -0.000309207 7.39217e-23)
(0.999841 -5.81824e-05 4.71913e-24)
(1.00392 -0.00887987 -3.71692e-22)
(1.03947 0.050039 5.34882e-20)
(1.01554 -0.0779595 5.07346e-21)
(0.96719 0.03708 4.18111e-20)
(1.00005 -1.13117e-05 -1.89454e-23)
(1.0422 0.0538944 -5.61428e-20)
(1.0114 -0.0371912 1.80889e-21)
(0.999949 -0.000132379 -5.47898e-24)
(1.00002 -3.7362e-06 -5.85674e-24)
(1.00281 0.00773759 -4.89687e-21)
(1.03587 0.0435197 1.97833e-20)
(0.997254 -0.00177987 3.48166e-22)
(1.03367 0.0334376 -2.54695e-20)
(1.00002 -1.37296e-05 4.18829e-24)
(1.034 0.0370854 -3.56412e-20)
(1.11027 -0.101306 3.74892e-21)
(0.993279 -0.00219974 3.75373e-21)
(0.999628 0.0202309 -1.05334e-19)
(0.983625 -0.0353132 8.6644e-21)
(1.0972 0.0850333 3.36921e-20)
(0.980937 -0.00334297 2.37973e-21)
(1.0367 0.0393571 4.63453e-20)
(1.03972 0.0459092 -1.42769e-20)
(0.988521 -0.00603352 8.80481e-21)
(0.984921 -0.00742993 -6.51832e-21)
(0.996567 -0.00699621 1.8584e-21)
(0.998007 -0.000515143 -2.94804e-22)
(0.999866 -0.000136362 7.1408e-23)
(1.00046 -0.00733343 -4.56788e-23)
(1.02851 0.0637796 -7.63026e-21)
(0.99998 -2.50703e-05 2.47402e-24)
(1.03009 0.0321426 3.37176e-20)
(1.02588 -0.0780155 7.08687e-21)
(1.00311 0.035295 2.08678e-20)
(1.03023 0.0292137 -3.81966e-20)
(0.950695 -0.016978 -1.47362e-21)
(0.970344 0.0471976 -8.83199e-20)
(0.998903 -0.000812274 2.49902e-23)
(1.012 -0.018836 1.55258e-21)
(1.03977 -0.0561939 1.12681e-21)
(0.985171 -0.00173923 -3.67456e-22)
(0.995622 -0.00241624 1.68455e-21)
(1.00967 -0.0386352 -1.72816e-21)
(1.03899 -0.0131156 -1.15575e-21)
(0.943662 0.0322551 1.09804e-19)
(1.00003 -1.58947e-05 2.04928e-23)
(0.998714 -0.000873817 3.37166e-22)
(1.01585 -0.0552389 5.86062e-23)
(1.00001 -3.29738e-06 7.27525e-25)
(1.00447 0.0652948 8.63182e-21)
(1.0011 -0.000826146 0)
(1.00001 -3.5869e-06 5.50443e-25)
(1.00012 -6.01555e-05 8.25212e-23)
(1.0003 -6.66925e-05 1.66885e-24)
(0.98984 -0.0145405 6.24316e-21)
(1.01506 -0.0120785 -2.96756e-21)
(0.998957 -0.00060094 5.29127e-22)
(0.999946 -9.96971e-06 2.49308e-23)
(0.995271 -0.00227287 9.35874e-22)
(1.00308 -0.00931872 -2.93249e-22)
(0.99639 -0.083604 -8.79853e-21)
(0.954861 -0.00568042 1.18746e-21)
(1.01287 -0.00697373 8.3357e-21)
(0.999981 -1.92504e-06 7.7521e-24)
(1.07454 -0.113827 7.75565e-21)
(0.991009 -0.00271885 -2.16977e-21)
(1.09443 0.0628385 -2.53995e-21)
(1.00045 0.0208324 -1.5312e-20)
(1.00081 -0.00261474 1.28419e-22)
(1.08543 0.0544011 -3.77478e-20)
(1.0001 -6.84906e-05 -4.46456e-26)
(0.991479 -0.00310248 6.25035e-23)
(1.01607 0.000610977 -1.28164e-20)
(0.995602 -0.0027089 -6.90224e-22)
(1.04012 0.0596188 -3.15732e-21)
(0.991368 -0.00483747 -4.08302e-21)
(1.03638 -0.0184891 -9.21233e-21)
(1.0175 0.0025678 -1.37441e-20)
(1.0425 0.0277758 -8.27027e-21)
(1.00547 -0.0109344 -1.4461e-21)
(0.993172 -0.00319608 1.012e-22)
(1.05568 0.0515389 2.59767e-20)
(0.987751 -0.0621637 -8.35223e-21)
(0.997171 0.063355 7.15946e-20)
(0.993959 -0.00351706 -3.94795e-21)
(1.04091 0.0787379 -2.03717e-22)
(0.993984 -0.0031274 1.05471e-21)
(0.999219 -0.000367358 -3.44518e-23)
(1.03476 0.0205528 8.92268e-21)
(1.01118 -0.0216967 -5.23651e-22)
(1.02428 0.00258744 1.97906e-20)
(1.00109 -0.000643667 1.73891e-22)
(1.00001 -2.48589e-06 2.53931e-25)
(1.00603 -0.0956586 3.10581e-21)
(1.07482 0.0881429 -4.25487e-20)
(1.00104 -0.00253124 -1.67951e-22)
(1.09207 0.0558558 3.87653e-21)
(0.991823 -0.00449271 -2.6646e-21)
(1.06784 -0.118215 -2.12203e-21)
(1.03342 -0.0290568 4.61542e-22)
(0.988452 -0.0230093 5.03544e-21)
(0.998862 -0.000724688 -2.22974e-22)
(0.9941 -0.000768493 -7.90345e-22)
(0.98353 -0.0531166 -5.32891e-21)
(0.979552 -0.00717136 9.10358e-21)
(0.993566 -0.00292531 2.79513e-21)
(0.999902 -0.000311523 3.09711e-23)
(0.99218 0.0667695 -8.63484e-21)
(1.08294 0.0482427 2.33443e-20)
(1.01779 -0.00735502 -2.53136e-21)
(0.999867 -0.000105007 4.74367e-23)
(1.02002 0.0629274 -2.87523e-20)
(1 -1.67006e-05 1.11638e-24)
(0.999875 -9.01634e-05 9.38009e-23)
(1.07622 0.0470286 1.95469e-20)
(1.00847 -0.0177753 1.09518e-21)
(1.08287 0.0801743 3.61304e-20)
(1.01636 -0.00301636 5.52376e-21)
(1.01242 -0.00905217 -6.2016e-22)
(1.06893 -0.0475275 -8.95057e-22)
(1.04133 -0.0969188 6.39214e-21)
(1.15207 0.0340024 -7.34436e-21)
(1.00084 -0.000626293 -3.79535e-22)
(0.967613 -0.0124605 -9.45929e-22)
(0.999988 -4.02484e-05 -1.68566e-24)
(1.00382 -0.00834092 2.56535e-22)
(1.04266 0.0587507 2.01617e-20)
(0.989094 -0.00563901 6.13937e-21)
(0.998162 -0.00106063 4.68495e-22)
(1.01149 -0.0293156 -5.54253e-22)
(0.998711 -0.000776578 3.19071e-23)
(0.999739 -0.000763835 9.66577e-23)
(0.939153 0.00715059 1.9361e-20)
(0.993613 -0.00380921 -2.23833e-21)
(0.999682 -0.000535417 -2.90672e-22)
(0.999987 -8.2149e-07 -1.68303e-24)
(1.01253 0.00401313 2.65632e-20)
(0.981474 -0.0194153 -1.37471e-21)
(0.999783 -0.000404078 8.48356e-23)
(0.99816 -0.00061653 6.01917e-22)
(1.01683 0.0138119 1.07361e-20)
(1.04818 0.00720988 2.16066e-21)
(0.973556 -0.0176377 -7.74169e-21)
(1 -1.04095e-05 4.09172e-25)
(1.00186 0.0121163 6.99416e-20)
(0.991075 -0.0127523 -4.30486e-21)
(1.04707 0.0469477 -4.0375e-20)
(1.00884 -0.00123263 -7.28839e-21)
(1.0101 -0.000886652 1.65443e-20)
(0.978345 -0.00888065 1.24214e-20)
(0.999935 -4.78562e-05 -7.69771e-24)
(1.01653 -0.000178628 -2.44506e-21)
(1.05077 0.00525077 -3.36352e-21)
(1.13304 0.0388531 1.84669e-20)
(1.03055 -0.0740947 1.14932e-21)
(1.02631 0.0600906 2.31975e-20)
(1.00433 -0.0010835 -1.13532e-22)
(1.06035 0.0549651 -3.57244e-20)
(1.00043 -0.0106263 -2.87598e-22)
(1.01419 -0.0417496 -4.36859e-21)
(0.99974 -0.000117623 -9.31984e-23)
(1.00255 -0.0138368 8.31193e-23)
(0.99993 -0.000310536 1.12556e-23)
(1.03132 0.022519 -2.58613e-20)
(1.05259 0.0860555 -7.22231e-20)
(0.999014 -0.000864028 1.78001e-22)
(1.01269 -0.00877318 2.24947e-22)
(0.9881 -0.0034365 2.11141e-21)
(1.03356 -0.0645743 2.41229e-22)
(1.02939 -0.0685369 -3.55014e-21)
(0.998812 -0.000612626 3.53559e-22)
(1.03221 -0.0188029 -3.95277e-21)
(0.947004 0.00149375 -3.28143e-20)
(1.1295 0.0235463 1.44573e-20)
(0.999963 -0.000114744 2.60949e-23)
(1.04447 0.00542483 -7.99068e-21)
(0.998111 -0.00645002 -8.81564e-22)
(0.993115 0.00210165 7.14867e-20)
(0.991854 -0.00396104 3.71488e-21)
(0.997816 -0.0196167 -9.88528e-22)
(1.01312 -0.0258836 -1.64721e-22)
(0.996444 -0.0203034 -1.7097e-22)
(0.99925 -0.015818 -2.10989e-21)
(0.994975 -0.00249798 6.44031e-22)
(0.999905 -0.0105335 1.18346e-21)
(1.00139 -0.00462472 -2.00136e-22)
(1.04024 -0.0163261 2.51448e-21)
(1.00007 -2.60754e-05 -5.31204e-23)
(1.14281 -0.076001 4.90071e-22)
(1.11576 -0.00716277 4.09681e-21)
(1.01165 0.071781 5.1349e-20)
(0.974872 -0.0166432 1.18032e-20)
(1.07643 0.0760757 -1.82519e-20)
(1.00132 -0.000521374 6.12978e-22)
(1.05145 -0.0550626 -1.8471e-22)
(1.00418 -0.0280465 -1.94941e-21)
(1.01485 0.0240543 2.99801e-20)
(0.995332 -0.00295102 1.59665e-21)
(1.00008 -0.000129203 3.50054e-23)
(0.991506 -0.0131812 5.61046e-21)
(0.997154 -0.00690558 -7.03713e-22)
(1.02999 -0.0182182 7.54078e-21)
(0.980539 -0.0054251 -7.68221e-21)
(0.98408 -0.0069558 2.14712e-21)
(1.09247 -0.0265468 2.80072e-21)
(0.990028 -0.00215688 -3.63806e-21)
(1.0113 -0.0272494 1.44538e-22)
(0.994034 -0.059803 5.73793e-21)
(1.00001 -5.92252e-06 4.47208e-25)
(1.04021 -0.0103846 1.32203e-20)
(0.995472 -0.0538078 -1.56123e-20)
(1.08191 0.0656138 1.78812e-20)
(1.06923 -0.0531866 8.79297e-22)
(1.02281 0.00211433 1.69772e-21)
(1.02068 -0.0753072 -9.87478e-21)
(1.02548 0.079676 1.43633e-20)
(1.02549 -0.0257184 3.40171e-21)
(0.977331 -0.00823192 -7.34943e-21)
(1.01142 -0.0344738 -1.78202e-21)
(0.971393 0.00300641 3.17297e-20)
(1.11343 -0.0766899 -4.99944e-22)
(0.991359 -0.00367669 -1.12826e-21)
(1.02193 -0.0943769 -7.72858e-22)
(1.02012 -0.0484472 2.42452e-21)
(1.03268 -0.0869556 -1.58412e-21)
(1.03178 -0.0597307 -2.77783e-21)
(1.05554 0.0468367 3.27583e-20)
(0.998162 -0.00119157 3.11481e-23)
(1.00429 0.027702 1.10398e-20)
(1.00546 -0.00100595 8.72477e-22)
(0.999733 -0.000397397 -1.21948e-22)
(0.999146 -0.00172897 8.60922e-22)
(1.04099 0.00128701 -3.17346e-21)
(0.917346 0.00249847 9.26177e-22)
(1.00114 -0.00480869 1.1813e-22)
(1.01413 -0.0387618 6.57184e-22)
(1.01652 0.0150423 -1.78401e-20)
(1.00002 -5.9075e-06 -1.04401e-24)
(0.985656 -0.00697135 5.19508e-21)
(1.01555 -0.00664131 5.9938e-21)
(1.05423 -0.0296755 6.96161e-21)
(1.00545 -0.000793722 4.89201e-21)
(0.998903 -0.00138542 1.59699e-22)
(0.989481 -0.0294906 2.16998e-22)
(0.998544 -0.00627114 -2.31921e-22)
(1.00002 -3.28567e-06 1.12374e-23)
(0.985214 -0.0346019 -1.45446e-20)
(1.03336 0.0565117 -8.31596e-21)
(1.01441 -0.0228631 3.19801e-22)
(0.988663 -0.00387544 -3.97033e-21)
(1.00124 -0.000228348 -2.20818e-22)
(1.01901 0.0175267 2.35601e-20)
(0.99975 -0.000452186 -5.641e-23)
(0.99916 -0.000476128 -1.77248e-23)
(0.999763 -0.000133627 -8.502e-23)
(0.999493 -0.00157572 -2.14265e-22)
(1.12232 0.0396989 1.38995e-20)
(1.02105 -0.0269218 5.28337e-21)
(1.00604 -0.0135497 5.77522e-22)
(0.987861 -0.0056643 -1.81208e-21)
(1.00003 -3.81463e-05 1.08444e-23)
(1.05529 -0.0925772 7.39017e-21)
(1.1527 -0.0164584 3.7292e-22)
(1.05963 -0.100368 -3.6033e-21)
(0.998574 -0.0247867 -1.82154e-21)
(1.00941 -0.00642321 5.59591e-21)
(0.99986 -7.19035e-05 3.91112e-23)
(0.992207 -0.00870784 -2.23916e-21)
(0.971539 -0.0356161 -9.03979e-21)
(1.12056 0.0256705 5.31988e-22)
(1.00167 0.0349179 -7.48528e-22)
(0.99924 -0.00238213 1.71427e-22)
(0.961212 -0.0251995 5.35308e-21)
(0.996838 -0.00210671 -1.51801e-21)
(1.02396 -0.0239648 -9.2497e-22)
(1.0646 0.0445289 3.73672e-21)
(1.00032 -0.000100986 -1.84962e-22)
(0.9999 -0.000147591 -1.44762e-23)
(1.10344 0.0754081 4.15151e-21)
(1.11575 0.010937 -2.71838e-21)
(1.0141 -0.0113741 2.11054e-21)
(0.998057 -0.00132123 7.99578e-22)
(0.99863 -0.000293447 -7.92937e-23)
(0.97654 -0.0360414 2.19307e-21)
(0.999887 -0.000261139 -4.77331e-23)
(1.01278 -0.0241584 1.76787e-21)
(0.990963 -0.00110372 7.59004e-21)
(1.00057 0.0221879 -1.26501e-20)
(1.03614 0.0594077 -4.21853e-21)
(1.04767 -0.0508659 -3.04237e-22)
(0.9983 -0.0540046 5.88511e-21)
(1.00419 -0.00118426 2.43574e-21)
(1.01046 -0.0179746 -2.35769e-21)
(1.10948 -0.00157314 1.31093e-20)
(0.997894 -0.0601237 -3.5636e-21)
(1.01357 -0.0329742 9.29881e-22)
(0.999999 -5.20516e-06 1.98578e-25)
(1.099 -0.0129918 8.96376e-21)
(0.981929 -0.0022745 7.13612e-22)
(0.997453 -0.0669615 7.18199e-21)
(1.01391 -0.0211742 -4.09823e-21)
(0.96913 -0.0117723 -1.67174e-21)
(0.999743 -0.000239189 -4.16567e-23)
(0.997992 -0.000996492 -3.56243e-22)
(1.02719 0.0276549 2.94483e-20)
(0.979454 -0.00832445 -2.79507e-21)
(0.999989 -1.23027e-06 1.722e-24)
(0.998117 -0.000378721 -8.30234e-22)
(1.11221 -0.0656219 -1.7872e-21)