/*--------------------------------*- C++ -*----------------------------------*\
  =========                 |
  \\      /  F ield         | OpenFOAM: The Open Source CFD Toolbox
   \\    /   O peration     | Website:  https://openfoam.org
    \\  /    A nd           | Version:  7
     \\/     M anipulation  |
\*---------------------------------------------------------------------------*/
FoamFile
{
    version     2.0;
    format      ascii;
    class       surfaceScalarField;
    location    "20.5";
    object      phi;
}
// * * * * * * * * * * * * * * * * * * * * * * * * * * * * * * * * * * * * * //

dimensions      [0 3 -1 0 0 0 0];

internalField   nonuniform List<scalar> 
31093
(
588.072
-435.46
-152.613
270.911
43.1693
-314.08
941.958
-1130.8
188.838
-395.208
994.333
-599.126
-633.204
670.674
-37.4698
-687.3
54.0965
215.054
-34.6736
-180.381
581.534
-444.867
-136.667
212.627
-289.568
76.9415
81.7622
499.771
-78.1386
255.523
-177.385
-243.106
267.501
-24.3951
-235.323
-17.9435
253.266
34.6674
553.405
621.681
-650.424
28.7421
-965.116
569.909
-285.375
344.27
-58.8948
-91.0147
-971.096
1062.11
-257.477
233.372
24.1053
305.412
-34.5017
-301.224
294.846
6.37761
-3.48675
-239.619
-445.949
527.711
271.439
-320.77
49.3306
941.958
-360.462
94.8067
265.655
890.327
-974.606
84.2785
340.713
-149.449
-191.263
-169.877
-95.5476
265.425
-108.747
-148.73
-592.232
740.97
-148.739
362.585
-310.73
-51.8546
344.495
-64.2598
-280.236
556.362
-292.156
-264.206
-717.285
780.43
-63.1449
-731.307
139.075
135.772
-347.075
211.303
932.329
-932.329
783.654
-346.687
-436.967
273.918
417.388
-691.306
3.4953
793.315
-796.81
-268.724
84.1427
184.582
-859.56
683.666
175.893
972.39
-82.063
-138.416
-222.046
116.549
72.5279
-189.077
1073.89
-459.768
-614.118
313.457
-251.76
-61.6977
842.883
-30.4217
-812.462
239.219
-230.85
-8.36875
-787.811
70.5264
48.2025
-744.856
696.654
-270.641
-145.24
415.882
762.811
-835.865
73.0539
152.176
-380.209
228.033
15.8655
-211.122
195.256
382.275
-111.9
-270.375
694.683
-751.588
56.9052
-54.9949
-297.24
352.234
-55.5811
-229.794
-663.955
433.159
230.796
-50.4439
244.912
-194.468
480.571
-483.047
2.47549
-182.225
-339.366
521.591
-697.624
828.084
-130.46
-716.136
108.203
607.933
511.521
-575.296
63.7745
-650.979
-65.1571
-153.84
-366.332
520.172
-145.386
-68.7522
214.138
363.953
-550.614
186.661
321.892
-242.828
-79.0641
675.552
-53.8702
-273.876
-34.3535
308.229
1062.29
-556.489
-505.806
-67.8499
464.978
-397.128
332.911
-143.687
-189.224
-227.213
15.3347
211.878
888.845
-614.927
565.953
-832.944
266.992
633.568
-525.365
816.898
-194.993
-621.905
294.153
-90.1979
-203.955
296.897
-84.2705
134.021
-184.464
-586.829
-272.73
240.297
-282.344
42.0472
-63.3752
167.321
-103.946
-615.501
433.276
152.165
-307.428
155.263
-403.245
673.34
-270.096
738.989
148.767
-887.756
904.508
-130.214
-774.294
184.605
-301.279
116.674
209.153
104.304
424.624
55.9468
263.055
-78.4502
-779.191
790.027
-10.836
-320.591
242.452
970.109
-879.466
-90.6429
281.707
-129.542
407.381
-418.152
10.7708
184.669
101.412
-286.08
454.107
-196.751
-257.356
1199.05
-1199.05
474.596
24.2514
-498.847
-46.8763
254.802
-207.925
-470.257
224.681
245.576
265.267
8.93327
-274.2
-246.013
-85.7204
331.734
35.4918
-205.369
182.879
32.1754
397.508
-111.721
-285.787
-259.518
-402.04
661.558
-560.737
492.887
-568.641
-431.438
-360.069
-175.557
535.626
576.71
56.8588
-299.248
-12.6526
311.901
-1029.93
259.242
770.689
-170.775
909.764
47.9229
260.783
-308.706
374.043
-592.466
218.423
237.572
-362.583
125.011
129.226
427.136
746.035
-837.049
34.4257
182.881
-217.307
181.361
159.352
271.054
91.5306
139.429
-499.497
-26.7944
-153.139
179.934
19.7583
219.461
850.842
-847.347
292.474
491.181
143.372
-347.95
204.578
255.404
943.648
259.033
-39.9164
-219.116
-280.211
-21.0123
-407.828
36.3327
371.495
105.421
62.4306
-167.852
289.671
-241.749
29.2276
-303.103
195.57
126.322
-296.872
219.351
77.521
-537.113
66.6211
470.492
-92.7029
236.075
-264.486
87.3976
177.088
-95.1896
-223.878
319.068
-18.4684
289.325
-270.856
-762.899
-211.707
127.716
-222.906
187.526
971.732
-67.2245
-232.931
-47.6706
280.602
151.604
665.295
-235.895
-28.5904
-733.076
146.247
86.0495
185.39
69.7831
-161.027
91.2439
-12.7786
-222.544
-189.815
341.992
-235.882
201.209
-36.6242
-401.849
-135.264
-187.853
-651.626
839.479
-172.912
109.536
346.855
60.5265
277.489
16.6639
437.828
27.1499
-326.489
462.261
330.186
-71.1533
-203.693
-114.883
318.577
-11.2868
-183.434
194.721
401.217
-442.901
41.6844
104.961
110.785
-215.746
25.8248
318.671
-571.816
509.249
62.5669
-544.892
-27.0157
571.907
-442.094
-118.643
-33.8825
218.462
-184.579
25.6272
-197.646
172.019
735.55
196.779
331.467
73.3937
-404.861
-87.4849
202.425
-114.94
267.144
38.2686
228.756
-124.947
-103.809
582.421
-218.468
25.5265
944.583
154.859
253.901
103.757
-357.659
270.622
-236.196
260.095
-387.152
127.057
64.7481
-944.214
-580.228
426.388
219.324
-149.541
-14.0155
268.591
-254.576
63.3058
268.161
-23.3116
293.48
-270.169
325.255
-58.1112
15.9574
237.944
265.413
-375.63
110.216
-71.3828
317.934
-246.552
-467.392
188.654
-364.751
176.097
255.146
-403.588
148.442
-315.218
286.375
28.8434
-5.80211
-329.623
335.425
762.329
-714.126
199.326
-183.46
619.604
-634.887
15.2829
417.248
94.2735
-862.795
535.717
327.078
-39.735
305.656
-265.921
-87.9144
-150.981
238.896
-279.896
572.461
489.834
513.76
-513.76
-519.116
-510.816
-245.915
-224.342
897.407
-604.933
3.24075
263.142
-266.383
-187.213
-240.43
427.643
106.47
136.231
-242.701
496.729
-899.974
-326.076
240.355
-13.1907
-394.637
353.944
-359.746
-1068.64
499.995
-485.126
485.126
-642.035
-5.48412
647.519
620.322
-246.279
303.505
119.926
-423.431
-316.494
269.617
-219.861
204.55
15.312
-514.202
816.496
-302.294
306.779
-66.4824
557.474
-82.8778
-420.929
217.236
192.323
70.7318
-634.054
446.84
212.785
-356.471
87.7667
-175.681
231.334
97.4094
-328.743
352.131
-114.558
-956.7
-242.353
622.921
-46.2114
-61.008
272.272
-211.264
540.025
-445.558
-94.4672
-69.7721
754.76
-684.988
-53.2209
896.104
263.542
1.72525
-83.7699
190.24
-64.1725
518.052
-453.879
-541.576
194.889
-168.245
13.1575
155.088
-116.331
419.836
-40.594
224.461
-183.867
-63.1873
-205.537
194.029
-88.6078
-77.4501
194
16.8456
-248.095
231.25
32.387
458.333
-490.72
710.394
49.3844
-759.778
288.75
18.0291
-74.0557
-161.827
-112.203
13.5908
247.956
-261.547
36.0582
361.449
227.041
-741.243
328.54
-196.257
-86.0869
122.566
-820.615
698.05
63.9657
-373.6
-201.696
-286.752
220.213
66.5387
-356.213
-307.742
567.742
-999.18
239.664
-51.5344
-188.129
-28.0784
211.651
-183.573
-1037.91
332.897
705.012
-40.8586
375.27
-334.412
324.879
57.3964
-259.375
117.426
141.949
345.447
-81.1915
-264.256
372.438
-112.343
-196.417
297.829
292.411
-214.201
139.859
-167.938
-82.3297
579.637
-497.307
751.447
-185.494
-128.328
-326.25
454.578
853.981
-731.415
235.488
-221.897
-37.0993
-289.39
-537.148
78.255
85.0013
-163.256
336.53
-54.7014
-281.828
-76.8284
181.205
-104.377
366.472
-101.059
-91.1096
-355.678
446.788
7.60651
843.965
-851.571
-776.517
804.209
-27.6912
-243.98
79.9204
164.059
-754.286
441.376
312.91
56.3892
-165.136
2.98249
174.212
-177.195
-256.999
253.512
6.30364
-231.13
224.826
221.572
-3.10998
147.194
-515.639
368.445
229.858
-213.013
-40.2643
-186.948
-62.2004
524.462
318.362
-45.7932
-272.569
-733.894
741.5
-477.029
340.345
136.684
441.216
-301.788
472.547
-861.035
388.488
-301.909
-78.2996
-726.55
28.9255
-165.568
-93.807
-646.319
631.652
14.6674
-179.253
351.752
-172.499
304.347
313.218
263.819
-168.497
-95.3217
274.065
-273.244
-459.832
-208.513
-92.7663
271.368
-175.608
-95.7599
-516.832
-5.57489
522.407
200.794
-95.8329
1006.23
-1006.23
433.604
-494.194
-543.715
142.288
203.092
-345.379
-450.436
413.337
-331.735
297.381
-327.641
419.049
137.963
-557.013
50.2477
712.563
532.408
-113.359
392.649
-568.206
89.1135
220.525
-309.638
-210.516
-227.823
438.339
260.528
84.105
-344.633
-297.387
-544.694
842.081
490.569
-750.087
346.715
14.2615
-360.976
-971.096
417.651
96.1085
238.591
-249.878
303.196
-358.191
-38.8295
157.88
-119.05
9.46002
-263.613
-254.43
11.8332
242.596
225.736
45.6318
269.183
-356.668
227.191
-93.1708
-507.067
-168.224
-139.205
-390.113
-364.173
-938.812
-169.858
1108.67
-498.171
941.378
-443.207
-143.029
-19.907
162.936
-669.042
636.799
32.2428
-240.36
335.978
-95.6184
258.647
281.378
1.98756
-213.109
873.948
-912.498
38.5494
443.511
-101.212
185.354
-373.227
182.571
190.656
-229.947
41.1596
188.787
-478.499
-38.3328
134.393
-246.294
307.358
-76.0238
-1067.89
880.036
-512.354
448.182
-128.746
249.095
-120.349
-66.4807
381.68
-315.2
361.217
-313.156
-48.0614
-390.248
44.6316
-212.877
-282.168
663.582
-381.414
-59.9585
-260.632
-71.7546
418.469
4.42843
192.195
-196.623
884.322
189.564
-331.442
-41.7849
180.495
180.723
-373.358
-455.802
829.16
-816.308
356.54
447.506
-951.404
503.899
79.5398
-411.302
331.763
-274.844
198.015
-9.65719
467.99
-172.546
-192.205
-460.266
149.536
616.096
6.82522
26.0053
213.658
429.662
-105.155
-324.507
-103.654
-90.9966
194.651
115.38
196.156
-259.344
9.11212
-118.314
-59.9632
178.277
-386.678
-11.8859
398.564
-4.16831
280.202
-276.033
-104.217
495.005
-390.788
-413.53
344.908
-84.3807
-882.594
812.822
346.222
-321.971
-85.6041
-301.548
-87.0495
-288.58
-655.838
-123.353
-510.856
261.947
248.909
-281.587
38.7589
-115.73
128.492
16.0253
180.69
414.108
-594.798
28.6388
-267.11
15.3507
-2.29065
295.771
150.549
-262.27
-55.8764
-240.341
296.218
-810.842
796.235
14.6067
233.975
-253.024
19.049
363.18
534.227
283.924
-365.116
-17.1375
305.887
-724.614
694.192
291.425
-210.969
-80.4558
284.481
-15.8893
-185.73
-157.255
-317.009
474.264
-215.439
-99.7795
306.678
-361.379
440.689
-531.799
117.9
79.1042
-197.004
206.994
-129.047
-77.9474
277.565
-650.923
141.707
-508.04
244.162
-98.2105
-145.952
47.9809
-810.88
-427.536
299.591
-345.384
-567.167
646.707
-470.18
68.3308
368.324
-665.711
159.534
-256.201
96.667
-848.046
896.027
-30.4125
-8.87362
802.188
-221.071
217.512
3.55847
-311.437
199.502
111.935
-228.89
-174.698
-52.0324
422.99
-370.957
541.98
-624.309
40.0223
-226.638
186.615
171.631
-131.609
293.566
85.5913
-264.844
171.378
22.6506
-141.606
766.832
107.116
-439.356
182
-243.989
175.481
68.5081
198.274
-238.868
-1.12377
192.593
-191.469
-308.692
252.815
-225.163
-12.772
237.935
-508.727
380.399
170.565
-189.033
-580.99
-65.3285
614.878
4.72616
-268.079
-231.418
195.874
-76.4764
-119.397
-123.36
-92.0431
215.403
136.933
-206.041
69.1087
-70.6886
280.884
-210.195
-226.585
215.869
10.716
-197.941
-28.6437
320.757
108.905
958.824
-703.42
-275.928
-306.856
246.898
191.259
33.0125
-224.272
-968.546
796.109
172.437
-396.657
169.001
227.656
-491.838
-122.453
614.291
-158.948
-806.168
16.0258
-302.106
-464.399
452.513
-94.0857
-217.351
231.991
-20.34
655.379
-98.5755
-556.804
347.496
-451.712
-159.28
756.363
-597.083
-207.579
-219.122
426.7
-287.415
271.93
15.4853
5.93874
-72.1622
209.095
-97.4889
-189.263
-527.648
16.792
-16.1558
-91.156
-744.709
38.6558
-432.266
-215.993
92.6335
-278.778
183.231
698.871
258.578
-306.249
164.47
64.2865
-310.175
20.1329
290.042
-268.408
38.462
-37.3903
-996.387
778.331
218.056
-24.6392
229.189
-120.485
275.749
495.187
-522.36
27.1723
-280.065
-196.964
-361.991
398.324
-36.2863
157.686
-121.4
957.059
-798.307
-158.752
25.62
-524.269
498.649
-5.58363
-166.047
171.63
-172.277
-109.31
488.193
-63.5683
-229.319
487.966
-557.795
118.196
439.6
-180.548
275.355
508.335
-350.391
-157.944
295.852
8.21483
-304.067
-267.699
206.691
643.423
-83.3344
-560.089
426.657
-245.967
-433.33
389.628
43.7021
276.416
-4.1442
-244.745
-65.4303
-181.348
56.4004
203.064
-500.32
63.5835
436.736
-260.333
263.573
-343.888
339.72
-322.986
-67.4742
-417.651
-453.702
401.669
-530.591
1001.81
-471.223
-132.607
96.321
-176.878
-219.779
488.493
-50.267
-438.226
-16.9256
-300.706
317.632
-497.389
559.151
-61.7624
403.18
204.853
-100.563
-104.29
162.398
-233.087
200.974
-202.098
-306.478
130.87
417.428
-391.808
-10.3348
-277.08
82.4803
-893.994
893.994
133.033
4.75454
420.492
-425.246
-161.775
183.607
-21.8319
-523.616
313.1
-421.9
64.4707
357.429
42.7429
153.131
-486.482
363.931
122.551
-238.862
436.988
51.2047
308.258
42.0227
-350.281
336.212
-75.429
-422.144
-23.4139
113.803
-355.953
289.472
331.205
-218.424
-112.782
-57.3764
146.966
-89.5897
-938.812
-301.034
-218.823
122.277
96.546
-292.26
228.001
-431.337
-520.067
255.845
519.157
-775.001
-147.241
-529.752
676.993
-444.98
176.9
-22.5061
193.884
215.468
-14.4942
-657.564
640.641
16.9233
70.8618
355.795
286.09
-61.0098
-225.08
-102.114
-516.86
618.974
-568.974
798.496
-229.522
-573.702
54.891
-770.275
181.978
588.297
-981.594
414.206
567.388
-284.646
-273.149
-125.308
471.531
-968.598
438.007
-675.476
814.345
-138.868
605.36
-707.474
-210.03
251.945
-232.187
124.342
-799.819
-164.564
-694.112
858.677
657.58
-14.1568
501.269
326.815
-60.1802
269.334
-116.488
96.5807
-118.644
192.786
-532.152
254.936
-227.845
-27.0909
-142.025
321.053
-179.028
-180.142
-86.9685
521.643
-26.4553
-292.345
275.42
12.9403
623.859
-703.974
-650.796
-252.807
-247.512
33.3011
222.222
25.1011
427.907
-453.008
-358.611
340.522
18.0891
-141.461
156.795
561.612
440.202
-348.379
-197.558
545.936
185.43
-241.011
-81.6671
277.238
-67.1516
-354.748
188.234
-228.151
-238.108
308.97
202.618
-130.09
-458.833
-522.76
-295.745
-12.3447
308.089
-284.108
157.781
126.327
-173.891
178.32
-193.953
-90.1547
226.05
-219.746
252.427
-282.542
30.1143
267.873
-66.1243
-201.749
-805.208
646.26
-313.675
-295.653
55.2929
-287.611
301.872
276.04
-108.526
511.706
193.28
-57.049
289.195
526.688
-815.883
-195.066
166.42
40.5745
-567.172
409.917
-935.787
284.16
301.508
-799.679
-473.345
-73.1309
546.476
-539.982
468.466
71.5159
285.269
-210.356
48.5815
-620.759
391.44
-11.2644
170.799
-312.697
337.798
158.968
-509.36
-136.491
-37.6427
229.966
-6.74441
278.674
270.456
-86.279
197.064
759.856
-5.09551
299.115
-277.569
-21.5452
-235.446
-112.504
-118.953
-32.2298
266.205
684.678
256.7
83.8642
191.884
337.376
-124.592
-86.9887
289.113
-202.124
-423.355
97.105
495.558
-230.778
-264.78
290.335
-297.08
-17.6619
-673.325
690.987
228.02
-834.325
444.077
-235.263
43.6987
-316.268
-95.4398
-376.057
471.497
-124.713
137.87
251.465
-311.645
284.623
4.70134
-874.967
330.075
55.4309
-337.259
-726.27
-517.493
-451.053
240.494
78.2754
-342.531
240.962
-322.629
164.34
79.8222
123.993
-223.763
99.7704
-485.339
129.661
510.922
-924.451
-172.476
96
458.307
26.8187
-574.608
-421.779
18.623
-599.613
-3.25659
299.109
-103.108
373.434
-270.326
-125.362
-90.3843
128.484
-191.079
-88.8163
-344.055
380.113
-216.45
-61.0683
277.518
-68.9661
226.747
-287.304
-261.308
243.478
17.8302
43.8262
-240.653
284.352
367.667
-39.6013
-319.01
-20.1845
236.053
206.033
-27.7515
-178.281
-111.916
-467.259
54.0468
413.212
-294.71
-128.343
423.052
154.211
-211.587
306.896
-265.714
100.145
-200.76
-116.447
317.207
787.201
319.237
-36.1701
-213.311
249.482
-18.9969
-520.985
-295.745
-742.593
370.148
372.445
6.07076
-298.227
-4.27722
275.331
-13.9152
231.428
252.846
-341.69
88.8443
-464.821
-115.408
-552.477
213.478
338.999
212.891
25.0435
237.838
320.797
-622.801
302.004
216.165
-422.492
206.327
-364.641
385.377
-676.289
290.912
931.415
-905.888
-734.641
452.474
-398.323
-120.559
518.882
169.537
129.577
-330.427
562.337
-372.52
-189.817
378.454
-193.024
-810.856
241.882
251.082
244.476
-233.103
60.8263
378.593
-108.975
180.479
-183.395
2.91645
233.231
11.681
586.913
-613.929
-513.526
207.516
306.01
77.2248
-336.937
-158.874
495.811
85.3961
368.062
-179.828
265.297
59.9584
-469.843
189.778
285.808
150.683
-436.491
122.89
-251.636
-160.116
-229.271
-206.189
-363.493
19.4385
-28.6268
-628.937
-32.5666
230.558
-197.992
-328.962
172.498
156.463
-354.403
-98.8641
453.268
-232.237
-93.8389
190.588
15.445
-311.322
85.032
168.168
116.843
-285.01
-274.3
-128.993
403.292
-364.045
-291.659
271.855
19.8039
152.864
-369.557
216.693
150.458
-258.412
107.954
-38.6143
-86.7986
-284.455
371.254
-393.661
221.116
211.659
-440.93
-282.896
137.816
145.08
-462.83
145.821
35.1166
-440.303
405.187
-198.172
-63.1364
158.66
381.533
-329.494
-52.0391
-208.21
205.736
2.47446
-259.935
143.47
116.465
-111.828
-132.161
-285.416
-113.33
909.439
-218.376
-29.7191
280.387
-488.37
291.406
138.89
-345.088
206.198
-368.887
-120.359
489.247
-471.056
-216.245
220.369
-29.11
236.568
689.474
-707.136
-48.9381
-273.094
322.032
80.8895
-710.468
629.579
214.849
89.2754
-304.124
301.916
-98.8242
-217.539
233.564
-364.808
-43.4692
408.277
-710.715
39.378
671.337
-453.811
-180.242
-69.0018
-274.887
522.266
-8.80911
-774.411
-19.5618
793.973
-171.447
512.915
-341.468
-189.55
478.744
182.36
-519.297
320.649
-100.125
88.9782
429.073
-425.928
430.682
-328.958
-131.602
460.56
-524.045
50.6997
329.165
11.1797
55.8021
-273.341
257.753
-55.725
-202.028
-92.6975
-99.6124
297.628
-77.8591
-278.094
76.5241
198.831
-302.801
-93.3006
396.101
-284.608
340.735
-56.1271
-75.9705
274.245
-339.484
-123.38
462.863
-267.193
133.915
133.278
-139.565
-18.2245
41.6013
-652.125
610.524
-181.161
-252.17
-268.65
-246.988
-337.875
-89.6615
-216.548
-71.1077
287.656
415.363
639.644
178.495
-266.723
88.2276
142.014
504.693
230.097
27.6563
194.98
-248.303
53.3234
-354.112
-154.614
-532.474
-75.4054
349.47
-181.276
315.705
-30.4358
624.59
-177.749
-4.45685
230.507
-244.432
277.223
-32.7913
713.611
1.51409
288.821
-602.08
492.412
109.668
225.944
60.1459
199.843
-35.1171
191.65
-330.854
109.384
-331.429
17.527
-355.168
360.511
-5.3431
117.56
-221.506
181.513
24.6439
-320.586
321.552
-0.96624
244.625
-305.693
247.375
-16.1256
-328.752
-121.684
-52.4629
237.045
11.8651
243.071
304.446
3.78263
-360.712
-142.972
503.684
-79.8549
-150.995
-200.406
-26.2315
92.1477
236.392
261.782
-294.012
292.85
-64.0669
-228.51
241.748
-13.2375
-1060.88
708.674
352.206
-421.356
126.646
285.523
2.21116
-287.734
-61.6897
351.162
577.319
-182.202
-27.0232
209.225
-40.4289
-216.57
-265.234
-57.3796
322.613
-288.603
-55.898
344.501
-70.0743
-510.191
-91.8888
-797.786
785.45
12.3352
75.6224
222.667
-298.29
56.2551
281.012
-173.833
468.373
-294.539
-238.352
-68.5044
-426.158
111.104
-236.466
171.433
-265.24
-323.639
-100.832
424.471
-94.0498
414.484
-320.434
-384.602
-79.7962
-240.366
-71.2795
2.1011
-417.475
-94.8797
-202.516
683.99
9.21786
637.175
-646.392
-198.544
45.4053
227.274
-812.034
584.759
183.181
-412.071
276.907
-22.1057
121.591
-1007.32
-234.875
-87.7536
440.674
-7.06975
-467.751
-396.793
-102.055
-657.401
212.781
-422.155
209.374
21.1178
259.766
-315.456
-67.793
383.249
10.2523
-284.411
274.159
830.035
-116.424
-491.133
481.476
-59.537
-714.874
-64.1826
403.903
-846.631
783.486
298.567
-470.32
403.169
-91.7781
-119.191
200.662
169.365
-370.027
-438.263
-245.878
184.601
19.5291
-204.13
-220.858
911.841
30.1175
-992.005
559.739
-221.037
-89.9121
310.949
714.837
31.1975
332.52
-92.1648
374.877
-355.438
-402.195
409.077
-6.88126
326.442
-327.302
0.860474
340.861
-104.293
-16.1394
-401.231
-123.037
-235.727
-109.652
-209.218
-100.42
-593.8
777.134
-183.334
-205.068
11.1152
-192.661
-384.458
-462.474
412.207
97.2075
-288.287
-136.102
-112.215
248.316
-44.053
390.409
-346.356
310.24
-57.4246
218.112
-66.2998
-151.812
86.1646
-252.211
121.207
171.204
309.46
-94.6109
-302.063
-108.324
212.628
525.645
-145.246
26.352
-773.626
747.274
-298.516
121.709
-207.988
-30.2709
-45.5522
299.064
39.3631
771.919
-698.865
856.295
-110.816
-745.479
378.7
-76.0012
-302.699
127.758
-248.107
-94.4349
509.151
-414.716
-228.106
-61.4624
24.4827
-734.951
405.086
-111.796
-291.01
287.701
3.30826
-196.329
-80.2742
276.603
204.806
24.5731
-229.379
-33.6158
-125.525
-451.502
-609.379
-427.357
203.913
-15.4512
-231.68
-15.4749
243.495
54.3972
-536.634
482.236
-286.205
247.485
-424.363
188.294
-380.499
697.225
-313.939
68.789
-270.241
201.452
-111.448
294.02
558.884
-166.235
-237.424
-144.005
231.761
856.336
88.2471
-308.089
229.639
46.8096
725.109
-12.5255
193.005
-324.933
-93.2193
355.88
-56.2892
-445.289
-528.302
156.428
371.873
-152.83
-498.762
651.592
-568.663
1012.17
-708.783
114.983
-471.086
-303.843
283.081
89.3577
-913.278
67.0898
846.188
-345.618
370.684
-64.0058
-6.67906
360.623
333.262
7.47244
227.114
-199.898
-27.2163
-322.662
101.804
-196.3
-11.9105
243.006
359.77
-75.8454
610.176
-111.528
290.316
76.1557
541.443
-100.754
509.553
-95.4456
253.329
-32.3622
-220.967
393.172
-468.746
-317.156
785.901
530.464
-268.517
-291.452
-556.126
80.3635
475.762
309.442
-62.5444
-711.096
677.541
33.5559
520.858
-68.3457
-31.4661
635.461
-603.994
-322.127
256.002
281.019
54.9597
426.4
106.008
-380.66
215.373
-28.7573
310.36
-0.119625
-431.175
-129.377
-36.6032
590.455
324.401
-316.809
-7.592
-509.314
44.4934
-379.766
-331.534
301.099
46.7021
328.568
-292.518
293.473
-37.4709
-144.426
-254.178
-237.77
1.4714
236.298
-401.394
-112.366
-33.5635
547.369
-38.1205
-7.42796
475.418
543.252
-26.362
-175.034
-274.325
325.938
-51.6123
-97.5461
250.603
32.4639
-743.56
-300.048
-213.262
347.071
-392.516
-61.1864
438.73
620.678
223.947
-844.624
-141.569
537.832
-132.746
322.801
-251.355
-71.4459
-112.512
-584.473
-185.802
28.604
209.643
123.619
-129.848
237.802
-262.327
-260.726
300.301
-39.5753
247.055
302.311
-427.619
695.025
413.646
-257.403
330.931
-73.528
-246.713
-465.037
-210.481
837.381
18.9139
360.674
-50.3141
-938.682
25.4046
354.329
-85.1464
-744.606
13.3308
-314.879
634.719
207.132
-89.2314
-93.7305
8.89052
296.997
-361.921
9.17422
352.747
-210.208
-118.535
240.45
-101.911
-477.306
-89.8659
492.608
-82.6906
352.459
22.1792
-310.759
-82.0352
-105.399
-519.135
371.894
-117.721
653.167
-628.684
-284.364
361.485
-77.1207
-220.457
40.3151
282.581
23.0746
-444.518
-479.933
-428.876
972.473
-468.916
-503.557
529.992
-81.81
-518.029
-102.73
-64.3654
18.4509
502.238
-110.798
-20.0338
51.6337
178.925
-235.734
-203.622
46.6315
-71.0632
543.726
-117.337
-406.044
-360.563
308.708
266.276
-0.0707362
414.734
-62.2746
-53.687
-148.829
-180.297
-308.153
31.0722
70.9226
-271.329
439.435
-651.142
573.944
-86.2494
-487.694
758.896
-726.433
390.215
-43.1444
-277.671
-308.841
32.2474
540.57
-101.841
-758.232
784.584
218.232
-3.20822
-215.023
-115.423
212.63
459.748
-58.0783
562.221
-128.945
-281.611
283.125
-106.835
-111.987
-201.145
230.428
-29.2828
-103.307
272.844
298.333
-39.7551
-62.9399
250.81
-473.446
-278.142
271.765
-235.954
-35.8112
-378.971
386.907
-7.93579
-18.1251
-99.9835
280.478
309.342
-312.159
2.81758
-251.44
-121.643
-1.31136
159.191
-322.844
406.681
-43.2248
787.179
-743.954
-507.777
345.656
-43.3452
31.1053
347.091
12.5371
-359.628
7.14312
382.485
202.583
481.083
30.8145
469.958
41.748
356.219
-47.9613
-44.3652
239.345
217.191
71.922
-856.309
865.527
-301.998
285.489
16.5089
-550.075
250.613
0.196328
750.126
-552.487
-197.639
260.83
-185.598
-75.2329
433.246
228.948
27.4826
494.16
-199.17
618.466
-419.296
72.6853
-50.6869
842.951
-792.264
-387.513
300.714
476.681
198.871
236.11
-0.057209
227.098
-170.193
-481.905
652.097
38.1637
209.212
58.1815
-558.269
571.335
-508.768
793.272
-275.986
-517.286
-296.108
-171.284
36.727
271.068
0.786246
-229.528
-256.954
-338.535
-477.773
4.90316
186.115
-191.018
293.782
266.715
190.13
-792.551
768.467
24.0845
2.1964
408.981
-452.699
43.7183
286.727
51.4927
5.77842
743.469
-749.248
89.8748
236.063
29.776
97.8792
-292.548
306.788
-14.2398
-890.931
-47.8811
197.496
-121.968
-487.59
609.558
-294.074
813.231
-138.775
-398.729
-110.586
-561.218
138.656
357.155
37.1767
-256.031
-25.5796
198.682
-147.048
8.46807
847.347
46.6467
-15.4576
304.279
473.384
-357.202
-116.182
-626.432
262.767
363.665
124.176
173.452
367.54
-348.504
235.722
136.323
288.149
229.85
227.278
14.4695
69.8385
-484.038
414.2
805.943
-249.681
-556.262
183.659
195.943
-379.602
322.696
402.007
254.296
3.68408
-626.323
-306.006
245.665
-889.856
367.996
54.9037
-430.961
71.3561
-634.537
-100.414
247.504
-360.781
359.218
555.482
-568.288
645.147
-76.859
-12.4442
373.894
412.812
-305.666
-34.8504
170.104
-135.254
-303.385
296.973
-18.2983
634.452
-347.242
-23.0303
377.579
-354.549
65.377
-183.782
227.984
-44.2019
-248.778
226.085
22.6931
285.741
507.532
168.287
-404.164
404.27
-1062.11
1067.89
103.51
-9.42286
441.671
180.205
-58.4962
416.279
345.966
215.534
23.3615
247.022
365.607
-26.2194
-339.387
-650.138
648.51
1.62792
232.506
198.274
-12.1586
502.178
-432.339
-210.914
766.395
263.698
87.5056
236.923
-361.514
-179.001
26.9156
244.849
730.011
-149.776
-580.235
-841.14
905.888
303.286
346.691
210.854
-208.643
554.128
-992.391
416.148
319.066
284.65
-42.2157
460.585
291.484
59.8818
-417.724
357.842
-224.82
308.284
-13.3199
-0.23398
-824.353
694.139
799.392
-194.033
334.646
241.103
98.035
340.564
-20.2928
-320.271
269.584
266.864
290.232
-189.816
89.2533
-274.051
284.219
-10.1677
415.577
-519.729
-255.273
-4.24474
219.779
430.576
-573.548
-277.071
21.0396
445.691
-110.274
-244.563
354.838
-334.868
-193.434
634.833
106.137
426.471
-943.312
516.842
-460.823
418.422
42.4009
-3.41232
254.204
-250.791
336.548
-271.171
259.702
-236.852
-22.8496
269.949
11.0165
-194.798
-848.046
67.3713
321.814
-389.185
-31.5388
721.221
-689.682
323.351
-296.135
-27.216
-445.689
439.184
272.836
-233.472
-400.009
978.679
-578.67
286.214
-14.106
198.707
537.134
462.866
-195.013
209.839
11.8008
-221.64
-28.368
399.863
-593.493
33.592
559.901
202.521
261.103
-332.383
-17.6177
-361.354
-911.841
861.154
-496.443
1033.58
337.239
-54.0417
239.768
-2.14196
-237.626
489.418
-435.371
66.438
-718.563
-460.226
-0.596821
-258.566
319.325
-469.512
-499.085
299.124
-18.9461
-280.178
-959.872
440.757
-797.786
157.273
33.5118
-190.785
31.4578
598.121
648.614
-633.947
-292.892
819.58
-90.9242
217.246
379.33
-516.977
137.647
-125.571
353.523
-227.952
-703.744
750.553
-387.544
234.96
-224.48
233.874
-9.39367
-275.169
701.639
314.344
597.296
27.8305
-786.063
-232.302
253.174
-340.927
-61.1043
-228.847
240.68
-896.027
980.306
176.261
39.6601
-215.921
265.542
-267.09
-89.5782
28.15
399.561
208.734
-608.295
502.754
-902.763
478.276
-60.8485
-223.104
-3.95287
227.057
-114.368
-193.784
-258.414
56.6651
-165.153
-137.95
303.058
291.932
-265.016
-115.835
-318.442
434.277
281.515
290.039
-17.7786
-293.879
311.657
-691.189
17.8636
850.842
-890.931
931.415
-956.7
943.648
949.419
-949.419
-841.14
-1007.32
242.397
-205.22
-241.441
-210.328
-188.163
-3.3064
736.589
-956.672
220.084
-865.527
12.8673
-283.242
193.137
-35.8638
-763.368
791.198
228.782
-7.05549
-221.726
-253.986
264.238
-11.9669
-250.11
262.077
248.819
-14.2802
-234.539
202.452
-229.543
-23.7477
-253.771
277.519
-188.428
201.4
-12.9717
250.543
281.345
-347.787
407.669
106.269
-183.241
76.9722
-364.156
-580.058
-194.636
208.117
-13.4804
-419.848
-84.1758
504.024
195.34
-175.811
42.4566
202.534
-26.2735
-349.917
237.413
456.657
-97.4391
199.317
458.643
-49.6626
319.063
-386.496
67.4329
18.9982
-635.576
667.033
262.679
-461.849
-783.781
730.309
53.4714
480.809
497.871
49.6167
407.04
-236.419
257.537
-73.1446
-710.636
244.671
-334.583
703.775
-887.109
318.439
-714.264
395.825
129.504
264.251
-206.057
-58.1944
-49.5303
-388.299
-867.612
592.443
-2.6185
260.231
3.24736
-312.312
309.065
17.5913
-46.0184
236.307
281.996
-37.1468
185.52
-58.3213
-127.199
738.468
20.4283
272.986
304.351
6.76364
181.912
-227.749
45.837
243.218
-300.943
297.686
-293.605
-203.601
218.041
-14.4407
74.8038
-494.652
249.474
157.207
-88.8046
825.393
-594.426
404.609
547.296
-637.939
229.189
-329.314
314.556
-440.127
198.244
-307.896
218.58
-194.007
-324.462
225.638
-190.984
-8.22061
199.204
226.847
-327.266
368.545
-266.437
-102.108
-2.96523
485.202
-442.523
-560.357
1002.88
-723.131
639.797
-50.6015
-320.561
371.162
21.3849
53.5292
-311.526
307.249
-270.757
-6.31389
203.243
54.1742
-257.417
-188.915
-233.24
-308.912
223.508
-209.019
-14.4892
-312.312
-413.074
413.074
187.532
-658.588
180.008
161.983
309.065
727.449
-235.037
-41.7477
-645.876
687.624
523.882
-84.2823
236.356
-365.253
316.315
388.042
244.036
4.51627
232.6
-172.461
-60.1387
-36.1415
-686.797
686.797
-175.341
-388.284
-98.1299
-138.336
206.918
20.2736
-156.912
227.644
-423.586
479.533
-182.136
-198.363
699.615
-488.797
-210.818
-136.107
-111.999
514.278
-145.833
-80.7167
-34.1333
-488.345
522.479
-500.428
-287.383
510.215
-16.0543
-22.7922
-717.86
547.667
-458.247
-65.7975
767.68
19.4989
231.732
-113.021
773.804
-660.783
93.6066
815.168
683.219
828.992
150.808
-217.108
-387.484
-72.7426
-237.02
249.971
-219.002
49.7976
-201.026
-897.356
41.2791
856.077
29.564
403.595
811.412
-263.541
247.792
15.7492
1066.42
-542.393
-524.029
-169.311
6.1876
475.289
203.503
-37.0836
294.887
251.05
430.062
-772.058
956.341
-184.282
-368.636
8.0726
232.449
18.4428
665.547
-82.4307
-219.567
-201.605
-227.27
210.225
92.3761
635.072
690.099
-731.847
91.8463
-795.59
23.0947
654.446
752.329
-849.655
97.3261
-627.594
536.127
91.4672
627.351
-563.634
-63.7174
-446.779
521.583
52.095
-118.469
-113.856
232.325
156.375
305.618
-584.56
404.318
191.997
-191.997
-200.092
219.388
-879.253
436.73
-658.502
536.534
-556.126
856.309
-945.113
24.1207
-238.245
205.595
-200.647
-211.424
-249.258
22.4857
357.627
36.2641
342.436
-352.578
-361.101
33.7988
397.958
-666.475
-55.3371
-726.801
782.138
207.31
-287.584
55.3989
145.234
-257.448
-623.571
655.814
-179.057
-86.1833
8.30573
538.354
125.228
-310.658
-20.8764
-455.124
957.879
864.033
-864.033
333.655
43.9241
12.5921
462.826
-761.563
17.6087
650.142
16.8918
80.4524
417.61
-498.062
215.826
303.195
-4.08621
9.31628
672.528
18.4594
-812.758
626.956
195.743
303.058
-498.802
-809.776
533.79
210.986
-410.843
21.1461
-649.83
-191.859
-46.3059
238.165
-117.542
226.232
-108.69
15.5223
45.3143
356.732
41.592
-203.509
17.4513
-241.842
513.64
658.789
62.4316
12.5028
125.297
-121.361
-176.929
197.328
388.293
-497.006
-707.873
-64.185
-200.288
-467.077
-476.235
-274.092
-360.796
624.822
-515.153
6.78056
798.25
-805.03
318.398
50.147
393.451
-59.7958
617.027
-53.2819
-563.745
313.789
-16.4076
-571.233
-95.9596
667.193
-6.76519
-229.431
-584.544
406.795
-181.859
-40.6499
222.509
234.51
611.298
66.2473
-211.88
-118.974
25.0431
204.805
-546.236
638.612
194.756
3.95071
-200.056
397.719