/*--------------------------------*- C++ -*----------------------------------*\
  =========                 |
  \\      /  F ield         | OpenFOAM: The Open Source CFD Toolbox
   \\    /   O peration     | Website:  https://openfoam.org
    \\  /    A nd           | Version:  7
     \\/     M anipulation  |
\*---------------------------------------------------------------------------*/
FoamFile
{
    version     2.0;
    format      ascii;
    class       volScalarField;
    location    "32.5";
    object      p;
}
// * * * * * * * * * * * * * * * * * * * * * * * * * * * * * * * * * * * * * //

dimensions      [0 2 -2 0 0 0 0];

internalField   nonuniform List<scalar> 
7807
(
0.272316
0.00593491
0.417548
0.273164
-0.00150074
-6.48873e-05
0.421829
-0.00901756
-0.000208957
0.119289
-6.07801e-05
0.00407796
-0.0134905
0.0609009
0.12398
-0.0177196
0.282665
-0.0175285
0.00184985
-0.0846374
0.0826741
0.00268351
0.0452628
0.222239
-0.0227865
0.282314
-0.00138769
0.0748303
0.18835
0.00423288
-0.0239692
0.639366
0.0445163
-0.000840012
-0.00018039
0.098649
0.00485529
0.408864
-0.00759767
-0.000586885
-0.00693506
-0.0169552
-0.0868008
-0.0374168
-0.000348994
-0.000140733
0.00262486
-0.00789265
-0.000116439
-0.0824954
0.00614099
0.0709795
-0.0286992
-0.00386757
0.097751
-0.0080508
0.00196262
-0.0089904
-0.0370019
-0.000873074
6.95016e-05
0.00786516
0.0612744
0.00450263
-0.00167829
-0.0234998
-0.000166215
6.39701e-06
0.101314
-0.00743052
-0.000129256
-0.0666319
-0.0220554
-0.0369467
-0.0169906
-0.0525396
0.411233
0.0808847
0.073982
-0.0719061
-0.0129428
0.378985
0.116033
-0.038876
-0.00248837
-0.00394047
-0.00964069
-0.0278548
-0.00113735
-0.00763373
0.19231
-0.0441239
-0.000230364
0.00205215
-0.00607597
-0.0384498
-0.0627268
-0.000210896
-0.00274385
-0.00199829
-0.0636796
0.0826822
-0.00576025
-3.50775e-05
-0.0336665
0.197094
0.555583
-0.00856679
-9.75835e-07
0.0420152
0.258455
-0.0529953
-2.72209e-06
0.0446761
0.197405
0.000786239
-0.06348
0.160086
-0.0465305
-0.0380361
-0.06624
0.362411
-0.0798869
0.017321
-0.0644437
-0.00167342
-0.0217621
0.00338891
-0.00177508
-0.0243065
-0.0960357
0.0743562
-0.00105286
-0.00134032
-0.0402539
0.25088
0.447735
-3.01826e-05
0.013725
-0.083145
-0.0350019
-0.056464
-0.0531645
-0.0356002
0.560951
-0.0216923
0.189469
-0.0363029
-0.0485245
0.36145
0.0942692
-0.0337936
-0.00262163
0.0809888
0.115362
0.379599
-0.0605726
-0.0134271
0.52159
-0.000105628
0.00099738
0.229761
-3.30295e-05
-0.00356644
-0.00683542
0.282964
0.283766
0.540922
-0.00403693
-0.0053396
7.42181e-06
-0.0683983
0.00077794
0.0136097
0.0149296
-0.0479513
-0.0114754
0.16415
-0.000229122
-0.000882979
0.278099
-0.00010542
-0.00019424
0.423374
0.000890517
-0.0447417
-0.0438301
-0.0352016
-0.0258139
-0.0811672
-3.60488e-05
-0.0603991
0.170029
-0.00581599
0.000129312
0.213143
-0.00216582
-0.0229024
-0.0247305
8.96935e-06
0.0015903
0.257452
0.199892
0.382091
-0.057589
-0.0470026
-0.113232
0.0812564
0.254661
-0.000374477
6.13987e-05
0.525723
-0.0150517
-0.00109204
-0.0576781
-0.0227849
0.347033
0.354771
-0.0621728
0.60692
-0.00200888
-0.0171335
-0.0653549
0.0981423
-0.107355
0.240073
0.523052
0.000114039
0.0181218
0.170022
-0.00719031
0.15688
-0.000962954
0.576115
0.372424
-0.00956377
0.00496961
-0.000544292
0.159087
-0.000165059
-0.011065
-0.079064
-0.000128751
-0.00235893
-0.000761664
0.177281
-3.30517e-05
-0.00792137
-0.0700085
0.6387
0.065473
0.563004
-7.97389e-05
-0.0280211
-0.000331565
0.396149
0.00753411
0.448839
0.00246459
0.00134144
0.00913355
0.084759
0.00107005
-0.000407599
0.000945439
-0.00758412
-0.0441251
-7.45752e-05
-0.0587572
-0.00651429
-0.000253473
-0.00112896
0.42996
-0.0134646
-0.00138007
0.609582
-0.00259516
0.268977
-0.000369794
0.000689617
1.28187e-05
-0.0418648
0.0942483
-0.00235097
-0.0374132
-0.000741932
-0.0724399
-0.0261364
-0.000321699
0.000919917
-0.00390034
-0.0130134
0.00551503
-0.0022316
-0.0371883
-0.0372667
-0.0366395
-0.0241413
-0.0460155
0.365393
0.379373
-0.00268525
-0.0341162
-1.31489e-05
-0.00425587
-0.0384729
0.216652
0.129044
0.000178944
-0.00393549
-0.0446941
0.187054
-0.001801
0.00671517
0.0022757
0.065733
-0.111621
0.345171
-0.00287218
0.00492088
-0.000205386
0.00768332
-9.43665e-05
-0.0293755
-0.000625061
0.00792683
-0.063522
-0.0466757
0.00322334
0.0164092
-0.00133464
0.0366958
-0.0131318
0.0964194
0.180806
-0.14765
-0.0452809
-0.0267161
0.00956964
-0.0770199
0.551347
-0.0364897
0.0545731
0.595463
-0.00277234
-0.00314934
-0.0443673
-0.00197442
-0.0179776
0.011811
-0.00504425
-0.0037595
0.179246
-0.000122041
0.00102654
0.000144085
-0.00611149
-0.012454
-1.5874e-05
-0.00198665
-0.0355563
0.520485
0.00448175
-0.014727
0.489512
0.321913
0.0828969
-0.0216886
-0.0689554
0.00926094
0.274114
-0.018972
0.307661
-0.0306831
-0.0925592
0.203171
0.309156
-0.0549894
0.121409
0.236853
0.281408
0.0793088
-0.00546826
-0.00754157
-0.000158548
0.0056121
-0.0193442
0.00177912
-0.000193509
-0.00292088
-0.0724611
0.102708
-0.0281687
-0.00497086
-0.0067863
0.00227225
-0.0123909
0.00324843
0.209959
-0.00340303
-3.9483e-05
-9.90516e-05
9.11574e-05
-0.0338863
0.174259
-0.00718337
0.0500754
-0.116583
0.401068
0.00610437
0.0126309
-0.00910818
0.415618
-0.00192376
0.340558
0.193437
-0.000211405
-0.0337947
-0.00590009
-0.0533657
0.00105581
0.0917523
0.00602848
0.0117114
-0.00155448
0.162845
0.190507
-0.0519976
-0.0358021
-0.00414207
-0.0274161
0.0786638
0.628366
-0.0531384
0.00845254
-1.57534e-06
-0.0222398
-0.00410953
0.0336024
-0.0947867
-0.046332
0.42949
0.174201
-0.100339
0.222669
0.406097
0.049595
0.00219349
0.283676
-0.00164431
-0.000335021
-0.0285904
0.000162956
-0.126691
-0.000691545
-0.0377918
0.00352048
0.218677
-0.00322473
-4.34519e-05
-0.0996827
0.00319328
0.0451876
-0.0615439
-0.0819097
0.00500539
0.171598
0.141984
0.145751
-0.000375531
0.0936945
0.104329
-0.000965908
-0.0271318
0.00113302
0.0101449
-0.00443448
0.00880154
-0.00142302
0.153042
-3.5868e-05
0.000371598
0.00365548
-0.0351858
0.0370781
-0.0356588
-0.0406616
-0.0403714
-0.118241
0.0130538
0.274757
-0.049047
-0.0115563
0.583331
-0.0607893
-0.0130182
-0.0409347
-0.0106688
-0.0331529
-0.0172188
0.0497382
-0.0426746
-4.66883e-05
0.0435185
-0.000174413
0.36966
0.110935
-0.00857266
-0.0230919
-0.000344625
0.380722
0.334364
0.0751845
0.161267
-0.0656307
0.461556
-0.000113116
0.0325404
-0.0291345
0.170929
0.545504
0.0651664
0.167802
-0.00347745
-0.000371727
0.147454
-0.0749383
0.397207
0.0470784
0.241525
-0.0122001
0.409046
0.319655
-0.0153259
-0.0130531
0.124521
-0.0831564
-0.00015337
-0.0213058
-0.0800181
-0.0678853
0.0203762
0.0168537
-0.000230122
0.336563
-0.0019474
-0.000187571
-0.0329311
-0.000898905
-0.000408296
0.00598574
0.23768
-0.0881603
0.509224
0.000115728
0.234861
-0.0265384
-0.000136452
3.22949e-05
0.185737
0.230524
-0.00706014
0.210978
4.65112e-05
0.221694
-0.141056
-0.0160429
0.425649
-0.0549804
0.153218
-0.0392514
0.219187
0.226942
-0.0262741
-0.0331173
-0.0103123
-0.00499041
-0.000363934
-0.00214686
0.292147
-4.90821e-05
0.21418
-0.0846908
0.345682
0.204073
-0.0817814
0.494842
-0.0028236
0.00834592
-0.046989
-0.0317004
-0.0110032
-0.0307858
0.048924
0.576405
7.82442e-05
-0.0033233
-0.0505445
1.03167e-05
0.376049
0.0032427
9.74205e-06
0.000353843
0.00070187
-0.027828
0.0321922
-0.00268282
-0.000152933
-0.0116634
0.00416461
-0.103514
-0.0749051
0.0376514
-3.99023e-05
-0.142651
-0.0208484
0.131523
0.341086
0.00200263
0.139309
0.000281192
-0.0199729
0.108264
-0.011041
0.2528
-0.0204861
0.0365014
0.112151
0.171036
0.00774225
-0.0164119
0.19698
-0.081447
0.40221
-0.014819
0.278912
-0.0147229
-0.00200643
0.160096
0.00161347
0.106691
0.00334669
8.40018e-06
-0.115711
0.204324
0.00253585
0.127368
-0.0194805
-0.143338
0.00655586
-0.0369099
-0.00289333
-0.014024
-0.0709947
-0.0418035
-0.0155123
-0.000259815
0.423821
0.134509
0.0497404
-0.000349003
0.318333
6.85752e-06
-0.000321502
0.145095
0.00214229
0.179891
0.0736299
0.0293162
-0.0378296
-0.116472
0.0026748
0.00231741
-0.0599467
-3.25301e-05
0.0064231
0.244878
-0.025107
-0.00477316
-0.0129883
-0.00336403
-0.000710566
0.597982
-0.015633
-0.000957348
-1.04498e-05
0.156263
-0.0439834
-0.000574073
-0.00472267
0.180009
0.103817
-0.0540866
2.04279e-06
0.197938
-0.0248426
0.208762
0.0284409
0.0348282
-0.0440759
-0.000165686
0.109459
0.0951222
0.0370074
-0.0768834
0.292588
0.0106607
0.191656
-0.00447021
-0.0317258
-0.000684125
-0.00270947
-0.000184036
0.180478
0.257511
-0.00255577
0.0326172
-0.0265794
-0.0610928
-0.0694499
-0.00318055
0.0297785
0.569834
0.0190765
-9.4235e-05
0.102663
-0.00642942
0.488622
-0.0193087
-0.0188344
-0.00428034
-0.0217714
-0.0114251
-0.0123912
-0.00584549
0.00266021
0.0411937
0.000190625
-0.127766
-0.00579697
0.357831
-0.0521083
0.186542
0.00357398
-0.0447377
-0.0199106
0.227918
-0.0116952
0.000192478
-0.0243061
-0.00895072
0.0326932
-0.0400719
-0.0345495
-0.0114996
-0.0224637
-0.00931187
-0.0737373
9.2342e-06
0.057327
-0.0637918
0.162702
-0.0485751
0.106007
-0.0806175
0.322824
0.00910771
-0.045566
-0.0220427
0.516436
-0.104365
-0.0202159
-0.108555
-0.0390275
-0.0977063
-0.0542413
0.188017
-0.0047502
0.267594
0.0152863
-0.00068411
-0.0021275
0.0909966
0.645262
0.00186254
-0.0271184
0.188234
3.89455e-05
-0.0317535
0.0457821
0.00492167
0.0154993
-0.00283149
-0.042043
-0.00523336
5.03408e-05
-0.0523642
0.266172
0.00385171
-0.0255181
0.00329623
0.187972
-0.000665026
-0.00214518
-0.000623616
-0.00136153
0.0537369
0.00361208
0.00495219
-0.0274122
7.91061e-05
-0.106456
-0.0629466
-0.123959
-0.0236042
0.0253754
-0.000369205
-0.0199886
-0.0682473
0.0360006
0.348101
-0.00218903
-0.073194
-0.00803569
0.0123552
0.164361
0.000775937
-0.000272789
0.132623
0.0223629
0.0252619
-0.00506784
-0.00355601
-0.0630221
-0.000304671
-0.000923572
-0.0206913
0.303035
0.264304
-0.0376072
-0.0613335
0.0125646
0.00676543
0.00926166
-0.0708938
-0.0171227
-1.17631e-06
0.00478673
-0.0378471
-0.0776019
0.00693278
-0.0581497
-0.000694631
-0.00512244
0.20636
-0.0424089
-7.16021e-06
-0.0048176
-0.0928376
-0.000288023
-0.0218266
-8.5893e-05
0.00678479
-0.10044
-0.0377935
-3.62499e-05
5.30788e-05
0.136269
-0.048812
0.38336
0.269553
0.000789113
-0.00102974
-0.01724
0.0003842
-0.0956959
-0.0882549
-0.00239397
-0.0248537
0.258882
0.0134647
0.000476827
0.00922714
-0.113019
0.00338737
-0.0272334
-0.0662608
0.00268959
0.0275255
0.0789286
0.0128928
-0.0340657
-0.0644383
0.196437
-0.0328936
-5.11669e-07
-0.10149
-0.0704232
-0.0396673
0.00681016
0.00131528
0.0120144
-0.100551
0.0398423
-0.0394391
0.139358
-0.0464798
0.0097327
0.0241663
0.0187721
-0.0402899
-0.107319
-0.000176959
0.154789
0.214673
0.00994406
0.209897
-0.0736654
0.0547416
-0.0483105
0.20644
0.109871
0.562847
7.02643e-06
0.110912
0.183796
0.0186631
-0.00195998
-0.0214935
-0.00950283
7.49265e-05
-0.0214964
-0.0542492
-0.0235038
-0.02594
0.000229135
-0.0791405
-0.000499305
-0.00116191
0.244068
0.00832996
0.0752615
0.025284
0.21263
0.0139955
-0.000529425
-0.099368
0.0103252
0.364094
0.00168521
-0.0571506
-0.000297543
-0.000736174
0.00901472
-0.0537084
-4.16262e-05
-0.0130377
0.0352675
-0.00257577
5.2928e-05
-6.11831e-05
0.158914
-0.0306157
0.00866554
-0.00146596
0.0109656
0.0196124
0.0108605
-0.000388116
0.341905
-0.0861713
0.225224
0.298445
-0.000279548
0.065797
0.119059
-0.00102397
-0.000352266
-0.000571399
-0.00127548
0.0189728
-0.0137373
-0.0238731
-0.0696847
0.17681
-0.0968276
1.58421e-05
-0.0227912
-0.0217797
-0.0408732
-0.00555745
0.00766902
0.0016274
0.0342342
-0.000681804
-0.000310528
-0.0204771
-0.00546722
-0.0290671
-2.09103e-05
-0.0175054
0.0408165
-0.0183083
-0.0282226
-0.0103629
-0.0139447
-0.0109428
-0.00659152
0.0108072
-0.0113065
-0.000137586
-0.000532019
0.0286746
-0.0145028
-0.00624541
0.010697
0.003497
-0.131459
-0.0131819
0.162539
-0.0149267
-0.0596198
-0.0286701
-0.0265351
-0.0183536
-0.00477176
0.00289181
-0.00447578
-0.0165491
-0.0189581
0.197818
0.155875
0.0585611
0.33951
-9.43056e-05
-0.00417478
-0.0193251
-0.00972804
0.100004
-0.0237184
0.0562894
-0.00541844
0.21274
-0.00247675
-0.00207779
0.0189702
-0.0211224
-0.000285704
-0.0254749
-0.0074091
-0.0243922
-2.69906e-05
-0.00834113
0.00254394
-0.0205922
0.0407323
0.042333
0.023359
-0.0165098
-0.0364575
0.123076
-0.00163409
-0.00250214
-0.00269381
0.484783
-0.000113412
0.081122
-0.0248298
-0.0239023
-0.0306549
-0.0472721
-0.0332768
-0.0395163
-0.0214609
-0.0057944
-0.000126323
-0.00539877
-0.0254569
0.107471
0.00216058
0.156799
-0.03796
-0.0156565
-0.00117452
-0.0334884
-0.000133065
0.154182
-0.0349215
-0.030396
-0.0277666
-0.00496387
-0.0382556
-0.0021391
-0.0464496
0.109538
-0.0300189
-0.0796223
-0.00186269
-0.0312993
-0.0216299
0.0190054
-0.00409372
0.148573
-0.00304627
-0.0224483
-0.00086571
0.165903
-0.0446818
-0.0307104
-0.00411235
-0.0116676
-0.00349416
0.193474
0.0129389
0.203205
-0.00609739
-0.00104444
-0.00160534
-0.00295538
0.178686
-0.0682534
-0.00850074
0.000439943
-0.00928151
-0.0129822
-0.00115125
-0.0170441
-0.0184334
0.0649805
-0.00622136
0.00556014
0.477703
-0.0696185
-0.0333043
-0.0651317
4.4798e-05
0.0838633
-0.0044728
-0.0311697
-0.0070285
-0.0410431
0.00535715
-0.00068579
-0.00367528
0.00415112
0.204256
-0.00732144
-0.00227244
-0.00582939
-0.0608203
-0.0103042
-0.0257638
0.00552179
-0.0107929
-0.0111414
-0.00413713
0.207683
-0.0524312
0.00407575
-0.0053369
-0.0319438
-0.0170836
-0.0561379
-0.00178673
0.0998689
0.0281141
-0.00973886
-0.00219859
-0.016498
0.496831
0.205683
-0.0138306
-0.000737833
-0.00302397
0.00469481
-0.00500828
0.0256878
-0.000531202
-0.0196997
-0.00250205
-0.0202586
-0.0735784
-0.0013552
-0.0137834
-0.00172154
0.317097
-0.00802701
-0.0143132
-0.0218811
-0.00245375
-0.0347757
0.0676459
0.439944
-0.0131502
-0.013926
-0.00268674
-0.000594828
1.72116e-06
-5.20865e-06
-0.012436
-0.000854558
0.118262
-0.00085561
-0.00230369
0.0103708
-0.000328697
-0.0506569
-0.0657676
0.0212059
0.0463486
0.0316231
0.0523513
-0.0461237
0.0983384
0.0777244
0.103649
0.129656
-0.0157442
-0.00108824
-0.00726099
-0.0736963
-0.00444346
-0.0181645
0.0362261
0.323604
-0.0570243
-0.000615806
-3.62883e-05
-0.00186337
-8.57261e-07
0.0108662
-0.000715569
-0.00581619
-0.054255
0.000698066
0.00328399
-0.000279329
0.0736044
-0.0185662
-0.0411258
-0.0015431
0.322838
0.274181
-0.0123346
-0.0797983
-0.0325205
-0.0282101
-0.0174025
-0.002378
-0.0857004
-0.0379701
-0.048724
-0.0625294
-6.24318e-05
0.19457
-0.017252
-0.0118119
-0.0346292
0.0230898
-0.000679645
-0.0103079
-0.00172694
0.0156188
-0.00195114
0.171519
0.000451801
0.012534
-0.000528999
-0.088109
0.0110425
-0.000973511
0.0118376
0.000524852
0.0254149
0.126051
0.00160117
-0.00182792
-0.000159187
-0.000735215
-0.000644733
-0.0682406
0.131968
0.0168855
-0.000343031
0.0114098
-0.000585342
0.231399
-0.0672751
0.252154
-0.0489254
-0.000574326
-0.000365217
-0.00902618
-0.00703279
-0.00080525
-2.35455e-05
0.0303203
0.034647
-0.000301562
-0.000426315
-0.0233942
-2.83345e-05
0.173952
-0.00117751
-0.0590675
-0.0226005
-0.00787566
-0.06199
-0.0684358
0.157992
-0.0222916
-0.0239438
-0.000402801
-0.0631703
-0.0244957
0.0118752
0.106693
0.34801
-0.00148589
-0.0661375
0.0153018
0.304789
0.0460104
-0.000151406
-0.00748156
-0.00508821
-0.00616568
-0.0535653
0.0988223
0.000231955
0.0219302
0.00378979
0.0848136
-0.000664417
-0.000154759
-0.0815318
0.279003
-0.0611543
0.154672
-0.00160104
-0.000257375
-3.07955e-06
-0.0925749
-0.0470805
-0.000434055
0.113613
0.0139103
-0.00664973
0.405541
-0.000500897
-0.00461821
-0.0659962
-0.0277296
-0.00287331
0.142053
-0.0662304
-0.000210511
0.0146555
-0.000221278
-0.000127308
0.147662
0.0011063
-0.000577477
-0.0572383
-0.0287408
-0.00438016
-0.0331956
0.00301574
-0.0268365
0.00207543
-0.00436955
-0.0720143
-0.0431721
0.0220568
-0.0011313
0.163386
0.212497
-0.0986886
0.0118669
0.0233692
-0.00533484
0.172924
0.116258
-0.032211
-0.000206148
0.0121082
-0.0610576
0.013825
-0.0325096
-0.0026526
0.050951
-0.0320588
-0.000173762
-9.21516e-05
-0.0399925
-0.0299956
-0.0301551
0.0119646
0.00813403
-0.0498206
-0.000194177
-0.00175908
-0.000263662
-0.0393349
-3.09667e-05
-0.0024351
-0.051045
-0.10736
0.118149
-0.00373224
0.00523577
-0.0250014
-0.0295628
-0.000162884
-0.0515296
0.111987
0.164029
2.88745e-05
-0.000140756
0.167024
-0.00316114
-0.096146
-0.0454811
0.00424213
0.00060708
-0.0740041
-0.025219
0.171016
-0.0622368
-0.00185064
-0.0114771
-0.0593079
-0.000735669
-0.000306092
-0.00113953
-0.0121535
-0.0570138
0.147916
-0.000267284
0.499175
-0.0168064
0.000150182
-0.00122539
0.000321126
0.000365836
-1.85953e-05
0.000178004
-0.0585933
-0.000913549
0.000550922
-0.000251756
0.147887
-0.0071005
-0.00024534
-5.51892e-05
0.351881
-0.0252328
-0.0374522
0.00141801
-0.000919885
0.0662672
-0.000123511
-0.0155562
-0.12505
0.00273231
-0.0080236
-0.000121716
-0.000262578
-0.0354249
-0.0694222
0.00902267
-0.114912
-0.0622484
-3.59133e-05
0.0258981
0.0386268
0.116493
-0.00215764
-0.000198158
-0.0629254
-0.00752768
-0.00063277
-0.055135
-0.000173597
0.0463941
-0.000110641
-0.00159913
0.00363344
-0.00264785
-0.0650585
0.455651
-0.00207069
0.000350015
-0.0614696
-0.061387
0.0114694
0.00591264
-0.000190763
-0.0359464
-0.000105743
0.201988
0.605902
0.0852198
0.00380587
0.00451562
-2.40252e-05
-0.0323227
-7.15666e-05
-0.00867728
-0.00213281
0.000470875
-0.00418612
-0.0116741
-0.000154673
0.00109401
-0.0100522
-0.000395695
-0.0122982
-0.019454
-0.00768738
-0.00145319
0.542404
-0.000874803
0.00305182
0.000311148
0.0171536
-0.0554788
0.0119476
-0.000223815
-0.000125491
0.0033343
-0.000137753
-3.56854e-05
-0.014068
0.000880043
-3.08052e-05
-0.0571001
-0.00284731
-0.062099
-0.00206068
-8.55588e-05
-0.00389674
-0.00934005
-0.0180158
-0.0273426
0.00290382
0.000661445
-0.00058704
-0.00244372
-9.88702e-05
0.279965
0.0019555
-2.5352e-05
0.00073428
-0.00253917
-0.000451016
-0.070411
-0.0605826
-0.000163485
-0.00855405
1.61993e-05
-0.00326951
-9.21595e-05
0.0417506
-0.000176514
-0.000233908
-0.00439908
-2.93528e-05
0.0167268
-0.000284171
-0.00157693
0.0230904
1.4742e-05
0.374699
-0.0599157
-0.0471466
-3.17636e-05
-2.67736e-05
0.00233631
-0.00147895
-0.0578247
-2.18198e-05
-3.26008e-06
0.00093089
-3.6825e-06
0.0004797
0.000567592
-0.000574994
0.000992951
-0.0587088
0.468606
-0.0390198
0.337189
0.0112519
-0.0200163
-2.37175e-05
-0.00110019
-0.0146727
0.000184288
0.000360354
0.00021639
0.0713361
-0.00169518
-0.000272981
0.48268
-0.000680404
0.000736458
0.000635187
-5.87944e-06
0.0405672
-0.00272041
0.00142682
0.000160697
-0.000670117
-8.56542e-05
-0.00117096
-0.0496745
-0.00051996
-0.00199563
-1.79578e-06
-0.000604061
-0.00032459
0.198223
-0.000551382
-0.000343288
-0.0769023
0.00470917
-0.00010548
-0.0016603
-7.7063e-05
0.181595
-0.0815292
-0.000372868
-0.000482927
-0.00234387
-0.000195453
0.0664177
0.123318
0.0373176
0.000640626
-8.62775e-06
-1.14022e-06
0.0645649
0.000321913
-0.0679701
-0.0281511
-0.0189683
-0.0171697
0.547202
0.00244375
0.202428
-0.0175314
-0.0337071
0.184546
-0.00044499
-0.0731957
-1.64037e-05
-0.0108539
-0.0549786
6.93655e-05
-0.0560916
-0.00118037
-0.00742473
-0.00673959
-0.0482177
-0.0480151
-0.00391285
-0.069436
-0.0494478
-0.000232492
-0.0146178
-6.33813e-05
-0.0428407
-3.53536e-05
-0.000231361
0.0218213
0.175652
-6.37644e-08
-0.0513758
0.00444362
9.60787e-05
-0.024741
6.67666e-06
-0.0163582
-0.000322241
-0.0436628
0.00016261
-0.000107726
-0.00251389
-5.73978e-05
0.171434
-0.0352286
0.084078
-3.64275e-05
0.000791271
-0.0375058
7.02564e-07
-0.0640474
-0.0740265
-0.0622514
0.503812
-0.00785093
-2.22688e-05
0.0314721
-0.0474085
-0.00311602
-2.91551e-05
-0.000105717
-0.053284
0.000163257
0.00109992
-6.37139e-07
0.000203633
-0.0325645
0.119984
-0.0706144
0.109121
-0.00648169
-1.37155e-06
0.00777624
-0.058377
-2.62407e-05
-1.76363e-05
0.000405778
8.13784e-05
0.000511368
0.230034
0.0420052
7.07627e-05
1.30231e-05
-0.0734244
0.212632
0.188468
-5.63238e-05
-0.041539
-0.0228621
-0.0125896
-0.0539378
-0.010315
-0.00355293
0.152984
-5.0391e-05
-0.030676
0.180483
-0.0552242
-2.06329e-05
-0.0683826
-0.00021654
0.289102
0.0339418
-1.60209e-05
-3.41965e-05
0.196976
3.88708e-06
-0.000225475
-0.0140941
1.56596e-05
0.256587
0.00416235
-0.00889715
-0.0709568
-0.00457697
-0.0865815
0.195667
-0.0133555
-0.0285993
0.00125028
-2.43791e-05
-0.00126266
-9.36789e-06
-1.99672e-05
0.0292117
0.193111
0.162078
-0.000544066
0.257814
-0.013752
8.78519e-06
-0.0514958
-2.12605e-05
-0.0323176
0.035064
-0.0172769
0.0055222
0.00230878
-0.0111485
0.000316326
-0.00204974
0.0237809
-0.00349274
-5.79212e-05
3.62833e-05
-7.57265e-05
0.0376387
6.9297e-05
-0.0262521
0.270675
-0.00723825
6.34185e-05
-0.00420835
-1.24892e-05
0.0837893
-0.000439643
-8.04665e-05
-0.000104316
-1.65925e-05
0.222639
-0.000187531
0.2467
-0.0691563
0.000143717
-0.0593389
-0.000596876
0.169081
0.495415
-0.00171561
2.74707e-06
1.94019e-05
-2.63744e-05
0.150291
6.15912e-07
0.00130105
-0.0283164
0.234166
7.59676e-06
1.81787e-05
3.25707e-06
3.03398e-05
-0.0240724
1.93703e-06
0.267947
-0.019007
-0.000150178
3.65472e-05
-0.00250334
-0.0330307
1.46266e-06
-6.9542e-05
0.178333
4.16156e-05
-0.0366837
-0.0596851
0.000168651
7.55369e-07
-0.142108
1.30515e-06
0.1763
1.74627e-05
-0.0005468
1.36187e-05
-0.000213618
0.103035
3.3125e-06
-0.00199812
9.50066e-06
0.0157
-0.00410493
-0.00769445
0.00102465
0.16602
-0.000330042
-9.79278e-05
-0.0105944
-0.0102273
-0.000296695
-6.3484e-05
-0.00109025
4.98148e-05
0.182326
-0.0122789
0.487189
-1.25641e-06
-0.00913132
-0.000190819
0.145744
7.09462e-05
-0.030649
2.83597e-05
-0.00192106
-0.0383183
-0.000281678
-0.0184837
-0.0560396
0.00623213
-1.0671e-05
-0.0642132
-0.000407461
-0.000360758
-0.0066471
-0.0163993
0.00157788
-5.86709e-05
-0.000531711
-0.00111289
-0.00155025
1.57397e-05
-0.00146795
0.478721
0.000122367
-0.00394223
-0.0398566
-0.0806138
-0.0707164
-0.0540187
-0.0253169
-0.000641646
-0.0185633
9.60218e-05
-9.91458e-05
0.479601
-0.000114564
0.188666
-0.000549851
0.000498472
-0.00137632
-0.0740671
-0.000509698
0.000782802
-1.89143e-05
-0.000478499
-1.76571e-05
-9.68608e-05
-0.0174623
-0.000133089
-3.12189e-05
-0.000101023
0.000184092
-1.26157e-05
-0.0485189
0.237039
-1.25234e-05
-0.000734755
4.01417e-05
3.78749e-05
-0.00101495
1.06505e-05
-0.00109961
0.000354659
-0.000446465
-0.0714105
-0.000842581
-0.00221433
5.38747e-06
-0.001896
0.000420801
-1.88677e-05
-1.24105e-05
1.58065e-05
-0.000967594
0.000672667
-0.050322
-0.0314511
-0.0718868
0.000715282
-0.00224223
-0.0201928
-0.0723865
-0.000114647
0.0188704
0.0083834
-0.00127497
-0.0139019
-0.0622069
0.434509
-0.000510128
-1.88841e-05
0.00108819
6.13112e-05
2.12002e-05
0.0838778
0.00446728
0.0963279
-0.0419537
0.423302
-0.000638067
2.24872e-06
0.000191226
-2.25232e-05
-0.00165938
0.165334
0.231253
-6.94366e-06
-0.000207931
-2.10689e-05
0.219507
0.0217158
-0.00677234
1.37683e-05
2.32243e-05
0.00880059
-0.000847618
-0.0800495
-0.0194682
2.9986e-05
0.00427306
-0.0358394
-7.33285e-05
0.00220706
-8.07314e-05
-0.05158
-0.00210271
0.157451
1.97154e-05
0.00205219
-0.000102287
1.78234e-05
0.000217289
-0.0265177
1.73991e-05
-0.0011104
2.7588e-05
-0.0228242
-0.0508868
-0.0036814
-0.00837456
-0.0101119
0.0109972
-0.0102471
-0.00296223
8.41435e-05
0.000133034
2.48183e-05
2.15006e-05
-6.87125e-05
0.0109833
-0.0653049
0.000614236
-0.050251
-0.00369506
-0.0573928
0.000109201
-3.08854e-06
0.00160389
-0.0636786
2.16908e-05
-0.049906
-0.0171681
0.0170398
-0.0504828
3.2459e-05
-0.00413036
0.00024394
-0.130912
0.143908
1.39858e-05
-0.0668945
-0.0256333
-0.00506299
4.71145e-05
-1.08847e-05
0.0320396
-0.0191606
2.94731e-05
-0.00800887
-4.55305e-06
0.000270849
0.133653
-1.05474e-05
4.45442e-06
-0.000102819
4.26505e-05
0.00110546
0.000109829
-0.00623267
0.000293341
-0.0146057
0.00135591
-0.000250866
-0.036771
-0.0483239
-0.00738932
-1.88728e-05
2.58905e-05
-0.0687389
0.00698635
-0.0533013
3.57075e-05
-0.00609598
-4.4978e-05
2.9667e-05
0.0818869
-0.00823179
-0.00332365
-1.37148e-06
-0.0203387
6.14095e-05
-0.0745602
3.28291e-05
-0.0838273
2.43224e-05
-7.55347e-06
0.000106033
0.00125705
-0.0867457
-0.0207572
-0.0776452
1.93443e-05
0.000119376
-0.0858068
-0.0286572
-0.00984999
-6.24437e-06
-0.0315139
-0.0567662
-0.0851612
4.06122e-06
-9.74516e-06
7.36393e-06
-0.0862145
-0.0753456
0.000889418
-0.0128279
-6.7299e-05
0.227919
0.000118262
1.77048e-05
0.000189171
-8.78528e-06
-1.068e-05
-0.00429366
0.000143238
-0.00305499
-0.0725663
-0.0151152
-0.0638747
5.02792e-05
-6.24555e-05
0.0599991
-0.0575839
-0.00559883
0.121542
8.238e-06
-1.65616e-05
-1.52209e-05
0.122523
0.000217329
1.16071e-06
-5.83529e-06
-0.0682927
-0.0178222
7.77408e-06
9.93812e-05
-0.0107355
-0.00753901
0.000529547
0.233465
-0.0667508
0.000204752
0.613083
-1.99448e-05
-0.000829061
-0.00989245
-0.0839105
7.47435e-06
-1.80185e-06
2.57735e-05
0.00583145
-0.0371855
-0.000407103
-0.0552095
-0.0090175
3.41526e-05
-5.86143e-06
-0.0117707
-0.00376051
-0.0113543
-0.0710138
-0.0506385
-0.0437155
0.006094
-0.030872
-7.62891e-05
0.000440055
0.0107059
0.000658895
-9.42837e-05
0.000939971
4.01817e-05
-0.000108987
-0.0139989
-1.49151e-05
-3.38083e-05
0.0432464
-0.0212352
-0.00019451
-4.62771e-05
-7.02949e-06
0.253431
-0.00772573
0.000965148
-0.031894
0.00028479
0.000248105
0.000214958
-5.87485e-05
0.000598013
-0.0427368
0.0200549
-1.13697e-05
-0.000197081
-0.0470715
-0.0360539
0.0551786
-0.000592069
0.00223297
0.021207
2.09879e-06
7.63016e-05
-0.0540897
2.67197e-05
0.173064
1.2261e-05
0.00508076
0.000208629
0.000278615
-0.0775887
-0.00852253
-0.0204781
-0.00285024
3.19591e-05
0.00786895
0.0686294
-0.0141738
-0.00016155
0.102905
0.169204
3.70549e-06
-0.0581729
-7.98917e-05
-1.25731e-05
-5.42403e-05
-0.000682843
0.023403
-4.89537e-06
0.000307954
-0.0282302
-0.0292598
-0.0251688
0.313076
2.33606e-05
-8.31838e-05
0.177902
-0.00608865
-0.0044675
-0.000786723
0.175333
5.63183e-05
-0.000377084
5.91917e-05
3.51791e-05
3.83169e-05
4.4073e-05
9.15067e-05
-0.0202849
1.04481e-05
-0.00391488
-0.0498296
0.246403
-0.000169831
-6.0091e-05
0.00569302
0.0928667
-0.0532209
-0.000904712
-0.0781748
0.311791
5.30368e-05
0.400141
-5.729e-06
0.00405267
0.0286587
0.000539967
0.431346
-1.50787e-05
-7.68533e-06
0.001413
3.77719e-05
-0.00103694
0.000326274
1.40784e-05
-0.00233018
1.49365e-05
-0.000174344
-0.00390199
0.248457
0.0592413
0.025993
-0.0490091
-6.46811e-06
-2.15641e-05
0.00413253
-0.0633274
-1.20051e-05
-0.0523004
-6.46521e-05
0.112187
0.0691024
-0.0376097
-0.00161116
-0.0139021
-0.00117864
-0.0170639
0.00470538
-0.00858915
0.0720456
2.27633e-06
0.249043
0.0417945
-0.000707963
0.218485
-0.0154058
-1.52867e-05
3.00083e-05
8.24811e-05
-0.000252517
-0.000145865
0.25131
-0.00117316
0.257504
-0.00128633
0.173437
0.229354
0.126908
-0.0081991
-6.40708e-06
8.10525e-05
-0.0122906
-0.136925
-0.0553027
0.00181601
2.70174e-05
-0.0430358
-0.000381343
1.01601e-05
0.0012357
-0.00127731
-0.000778631
0.0384062
9.35186e-05
-0.0542309
0.0663837
7.16808e-05
0.000333195
-0.016563
-0.0665678
-0.000877236
-0.000624338
1.73966e-05
0.000310763
0.0963609
-0.0196807
-0.0547444
0.0015955
0.10894
-0.0442599
4.57479e-05
2.84445e-05
0.0266543
-0.000107324
0.0935679
0.00182689
-0.015674
-0.000460311
0.00197621
-0.0413964
-4.07486e-05
0.000606427
0.00196366
-0.0833258
0.163066
-0.0698458
-0.0309624
-0.000199336
-5.53707e-05
0.00807286
5.7713e-05
-0.0833749
-0.0748939
0.000695371
0.00413891
0.00456944
-0.112736
0.000787264
0.000237268
4.88258e-05
-0.0472832
3.50199e-05
0.00068966
0.130807
0.187774
-0.126471
0.0557958
0.0550516
0.0253376
-0.000192201
0.0141062
0.000153632
9.94293e-06
-8.80383e-05
-9.17377e-07
3.35002e-05
-0.000428644
-0.00892923
-0.0624342
-0.0113616
-0.0335386
0.0602485
0.0503611
0.00492795
-0.0728331
0.000201399
0.00565301
0.0135976
-0.00046596
0.0854898
-0.00147814
-0.0127687
0.0144565
0.00662581
0.00125487
-0.00475646
0.0505372
0.0010061
-0.0227641
-0.0190891
0.506358
-0.0286966
0.0914084
0.0292816
-0.0433738
0.00266074
0.000127976
-0.00304835
7.18924e-05
-0.00312761
-0.0292811
-8.34446e-05
-5.4996e-05
0.280273
-0.0039188
-0.0477388
-0.0217776
0.000251287
-0.00169933
-2.78114e-05
9.1261e-06
0.0452982
5.00176e-05
-0.00348992
0.0863823
0.00759092
0.00136854
0.022008
-0.00677036
0.00503356
-0.123739
0.00105772
-0.00524165
-0.0640263
-0.00103091
-0.00946928
0.000918883
0.00115991
0.00120696
0.0439869
-0.000382206
0.00682746
-0.0614587
-0.0239925
0.000381999
-0.0608508
-0.0173864
-0.0199032
0.000129977
0.00795559
-0.0798833
-0.00100805
-0.00572716
-0.0562003
0.000218696
-0.00139605
0.229517
-0.0250228
-5.03092e-05
0.00989116
-0.0581943
-0.00125717
0.203314
-0.00260715
0.0012354
0.0668701
-0.0017044
0.0100414
0.137084
7.85103e-05
0.00142614
0.000221207
4.6872e-05
-0.00532859
-0.00848465
-0.000159215
-0.0279243
0.108832
-0.0425316
-0.0832176
0.00141476
-0.00387959
-0.00073663
-0.0523026
3.56909e-05
0.0203136
5.61086e-05
-0.0184913
-0.00232307
-0.00587893
-0.027493
0.128986
-0.0913361
-6.35392e-05
0.206071
-0.00232951
-0.00301938
-0.067071
-0.0951466
-0.0181621
-3.61701e-05
-0.0013491
0.00870371
-0.00367162
-0.00557861
0.000531937
0.0966424
-0.0501871
-0.0129782
-0.00786433
0.0283
-0.00291715
-0.0012324
0.00206806
-3.74369e-05
-0.00366725
0.126208
0.000965781
-0.137864
-6.69788e-05
-0.0086281
-0.0043061
-0.104497
-0.0134247
-0.123405
-7.6963e-05
-7.43387e-05
-0.00481866
0.0127899
0.00221413
-0.144378
0.0979142
-0.0555183
0.000232741
-0.161678
1.20632e-05
-0.170626
-0.0294246
-0.186409
-0.185684
-0.177187
-0.13868
-0.0577164
-0.0257318
0.00432942
0.0343996
0.0649198
0.152972
0.181984
0.208802
0.255806
-0.00945723
-0.00864463
0.0721315
-0.0207853
0.00109277
0.0191752
-0.0464498
0.000632958
-0.000807135
-3.64198e-06
-0.0165828
0.0211666
5.47432e-05
-0.000382152
-0.0122662
-0.00675024
-0.188697
-0.015337
-0.0641224
-4.03305e-06
0.00069687
-6.3032e-05
-0.062357
-0.0102755
-0.0420525
-0.0121543
0.00208658
0.000273212
0.00567951
-3.9997e-05
-0.011971
-1.6492e-05
0.000456442
-0.00705785
-0.0134221
-0.000332661
0.000402515
0.0554516
-0.0120802
0.0738591
-0.179838
-0.0094489
0.124631
-0.0217193
0.00446592
-0.024829
-0.00385649
-0.0145916
-0.0147851
0.341974
-0.00156025
8.68469e-05
-0.00682188
-0.0104374
3.40098e-06
0.0893145
-0.00479666
0.320875
-0.0916344
-0.050195
-0.0307966
0.0537301
-0.00579402
-5.92174e-05
-9.27993e-06
-0.0049165
-0.0671534
7.23955e-05
0.343468
-0.00326028
-0.00582573
-0.000104853
-0.000453556
-0.00748788
0.0945957
-0.0721079
0.129874