/*--------------------------------*- C++ -*----------------------------------*\
  =========                 |
  \\      /  F ield         | OpenFOAM: The Open Source CFD Toolbox
   \\    /   O peration     | Website:  https://openfoam.org
    \\  /    A nd           | Version:  7
     \\/     M anipulation  |
\*---------------------------------------------------------------------------*/
FoamFile
{
    version     2.0;
    format      ascii;
    class       surfaceScalarField;
    location    "28";
    object      phi;
}
// * * * * * * * * * * * * * * * * * * * * * * * * * * * * * * * * * * * * * //

dimensions      [0 3 -1 0 0 0 0];

internalField   nonuniform List<scalar> 
31093
(
588.174
-435.528
-152.646
271.049
43.2109
-314.26
944.006
-1133.71
189.707
-395.193
994.324
-599.13
-632.705
670.815
-38.1105
-687.261
54.5559
218.959
-38.5207
-180.439
584.615
-449.828
-134.787
210.3
-289.842
79.5417
79.2943
505.321
-83.102
259.34
-176.238
-244.911
271.106
-26.1954
-233.786
-19.4846
253.271
34.6917
553.482
621.354
-650.169
28.8152
-965.11
569.917
-288.717
349.463
-60.7468
-92.3325
-979.152
1071.48
-259.943
232.838
27.1057
305.571
-34.5219
-304.428
295.399
9.02816
-1.79349
-243.117
-451.06
530.354
274.447
-327.089
52.6418
944.006
-359.315
92.7968
266.518
891.177
-975.316
84.1388
340.241
-147.928
-192.313
-172.236
-98.8131
271.049
-112.309
-147.634
-592.236
740.882
-148.646
362.609
-310.745
-51.8637
346.476
-62.1094
-284.367
556.034
-293.026
-263.008
-717.186
780.435
-63.2488
-731.182
138.946
139.994
-350.532
210.538
932.351
-932.351
784.147
-345.805
-438.342
277.018
420.916
-697.934
2.94538
796.836
-799.782
-270.312
82.3276
187.984
-860.285
686.336
173.949
972.944
-81.7665
-136.011
-223.303
116.661
72.585
-189.246
1081.02
-461.998
-619.017
317.176
-256.173
-61.0028
842.889
-30.4232
-812.466
239.149
-229.61
-9.53887
-787.79
70.6039
47.8696
-749.478
701.609
-276.433
-146.967
423.399
762.897
-835.678
72.7809
155.149
-387.122
231.973
15.5143
-210.161
194.647
380.835
-110.517
-270.319
694.669
-751.437
56.7684
-57.516
-295.658
353.174
-55.1362
-233.58
-663.357
432.081
231.276
-50.4762
244.968
-194.492
480.289
-482.762
2.47356
-180.547
-345.055
525.602
-697.655
828.111
-130.456
-715.471
107.697
607.774
512.81
-574.385
61.5751
-650.72
-64.7511
-158.207
-368.564
526.771
-143.017
-70.4863
213.504
363.036
-552.532
189.496
326.85
-247.515
-79.335
675.341
-53.9873
-272.315
-35.8522
308.167
1062.15
-555.359
-506.794
-72.0547
470.998
-398.943
332.34
-141.368
-190.972
-227.262
15.3372
211.925
897.158
-620.14
566.78
-832.729
265.949
633.083
-525.385
816.838
-194.673
-622.165
301.051
-94.2865
-206.764
297.613
-87.3133
134.103
-184.58
-589.43
-270.855
238.849
-282.372
43.523
-62.6059
166.341
-103.735
-619.32
438.772
149.971
-306.532
156.561
-404.637
678.6
-273.963
738.985
148.776
-887.761
904.49
-130.188
-774.302
184.934
-301.772
116.838
212.899
104.277
424.415
55.8741
263.47
-78.5364
-779.234
789.825
-10.591
-325.432
242.33
975.551
-882.969
-92.5817
280.801
-130.83
406.4
-417.274
10.8744
182.979
103.074
-286.053
461.538
-199.023
-262.515
1209.35
-1209.35
477.788
27.5233
-505.311
-44.2005
253.918
-209.717
-477.24
229.239
248.001
265.447
8.9342
-274.381
-248.485
-83.1249
331.61
37.423
-209.659
182.894
36.0657
396.119
-110.544
-285.575
-262.106
-401.997
664.103
-566.865
494.811
-568.661
-431.412
-364.02
-173.058
537.079
576.678
56.4042
-305.386
-11.5157
316.902
-1029.96
259.396
770.559
-170.78
909.765
51.1862
259.898
-311.085
379.259
-598.749
219.49
235.462
-362.672
127.21
130.327
425.707
752.227
-844.559
37.0693
183.629
-220.698
182.619
157.622
271.106
91.5026
136.581
-500.601
-28.914
-151.614
180.528
20.9737
218.175
853.825
-850.879
291.688
492.458
141.049
-347.886
206.836
258.136
951.217
261.117
-38.695
-222.422
-279.801
-24.6268
-406.878
35.9494
370.929
103.055
64.2056
-167.261
292.123
-240.937
30.4154
-302.731
199.415
127.435
-296.315
217.319
78.9958
-543.783
66.5777
477.206
-94.9634
236.013
-268.139
90.3569
177.783
-94.8622
-223.41
318.273
-20.9964
293.975
-272.978
-763.803
-211.513
127.556
-222.418
189.323
971.734
-67.2438
-231.472
-50.1666
281.639
151.353
665.485
-237.185
-30.9544
-733.667
144.238
84.6627
189.784
69.1266
-160.156
91.0294
-11.3952
-222.391
-193.299
348.448
-240.043
201.523
-36.5129
-407.871
-135.913
-189.576
-657.592
847.168
-171.905
109.299
346.251
60.1492
282.164
18.8864
440.813
30.1842
-327.077
467.071
334.354
-73.2363
-201.275
-116.812
318.086
-8.30997
-185.904
194.214
399.985
-442.825
42.8395
105.073
110.995
-216.067
23.7122
322.764
-571.838
509.259
62.5791
-545.613
-26.7153
572.329
-444.177
-122.689
-31.2078
217.255
-186.047
28.0067
-199.163
171.156
735.566
196.785
331.427
71.7192
-403.146
-84.5398
201.931
-117.392
267.267
38.3039
228.072
-124.522
-103.55
584.519
-221.484
26.4538
949.097
156.152
252.29
103.931
-356.221
274.879
-237.809
264.816
-393.293
128.477
65.6381
-948.607
-587.784
429.577
218.121
-148.995
-12.2538
270.898
-258.644
64.6495
266.778
-22.1616
296.892
-274.731
325.401
-58.1336
15.428
236.862
270.148
-380.725
110.577
-72.3255
323.398
-251.073
-475.456
186.964
-363.067
176.104
255.265
-401.958
146.693
-313.642
285.515
28.1266
-7.56639
-328.647
336.214
767.109
-719.239
198.301
-182.786
619.664
-634.945
15.2805
416.541
96.269
-862.957
535.439
327.518
-39.3925
304.618
-265.225
-86.6568
-150.67
237.327
-279.693
573.306
488.847
513.84
-513.84
-517.963
-511.993
-250.173
-227.067
898.264
-606.575
0.889757
264.74
-265.63
-184.495
-242.927
427.422
104.204
137.131
-241.335
501.679
-906.316
-326.133
243.008
-12.9841
-393.894
353.135
-360.702
-1068.64
499.976
-485.188
485.188
-641.723
-5.96342
647.686
626.704
-247.445
305.352
123.949
-429.301
-316.401
272.201
-219.064
206.464
12.6002
-517.252
817.588
-300.336
306.899
-68.05
564.346
-86.5587
-419.979
218.704
192.641
70.8291
-634.684
450.189
214.481
-355.848
87.87
-174.527
235.577
95.657
-331.234
352.495
-117.033
-965.233
-244.12
622.523
-45.8445
-61.5757
276.811
-215.235
547.281
-451.801
-95.48
-71.7921
761.363
-689.571
-53.2226
896.111
263.709
1.73755
-85.0391
189.243
-63.0024
523.096
-460.094
-542.064
196.259
-166.7
11.8552
154.845
-120.501
425.853
-45.2976
229.902
-184.604
-61.2033
-209.108
193.696
-90.6403
-77.5144
194.175
19.0134
-249.032
230.019
33.6234
457.142
-490.766
710.43
49.3837
-759.814
287.346
19.553
-77.5726
-162.471
-113.336
12.2978
252.225
-264.523
35.0554
361.064
224.997
-742.249
326.984
-195.079
-87.2932
122.551
-820.631
698.08
66.1414
-375.036
-199.349
-292.097
224.321
67.7766
-355.292
-308.065
567.758
-999.17
237.983
-50.4417
-187.541
-30.8539
214.446
-183.592
-1037.62
331.69
705.925
-43.9645
377.897
-333.932
324.718
56.1177
-257.614
115.739
141.875
351.175
-82.1689
-269.006
378.188
-113.372
-194.064
297.138
290.895
-214.564
138.532
-169.385
-82.7316
585.871
-503.139
751.164
-184.384
-125.789
-329.817
455.606
854
-731.448
237.827
-225.53
-33.8856
-293.191
-537.147
75.6863
87.16
-162.846
340.549
-53.8743
-286.674
-81.2795
186.1
-104.82
370.959
-100.811
-92.1386
-360.597
452.735
7.6309
843.949
-851.58
-776.545
804.066
-27.5212
-243.21
77.9993
165.211
-754.154
440.724
313.43
52.8681
-165.177
0.723871
175.307
-176.031
-259.406
257.613
6.31425
-231.203
224.889
222.276
-5.02163
147.956
-522.011
374.054
230.649
-211.635
-40.2734
-186.989
-59.8086
526.88
321.345
-44.2249
-277.12
-733.878
741.509
-475.762
341.148
134.614
441.108
-304.527
472.323
-861.448
389.124
-307.364
-79.7577
-726.578
28.9236
-165.633
-91.9812
-646.005
631.579
14.4256
-180.772
351.775
-171.004
309.091
318.387
263.355
-169.226
-94.1287
278.849
-271.672
-461.995
-208.826
-92.9466
270.612
-177.402
-93.2098
-521.912
-7.01572
528.927
200.975
-95.9027
1006.22
-1006.22
433.608
-493.206
-544.409
146.312
205.85
-352.163
-452.115
418.23
-331.917
296.065
-326.984
424.982
138.877
-563.859
50.4382
712.459
538.955
-113.973
396.295
-569.354
93.2529
222.51
-315.763
-210.764
-228.033
438.797
264.535
81.8026
-346.338
-297.377
-544.675
842.053
491.179
-753.285
352.163
11.4642
-363.627
-979.152
417.705
96.1349
241.882
-250.192
302.218
-359.734
-38.2219
156.943
-118.721
12.322
-262.803
-254.596
11.8537
242.742
226.787
43.8247
272.686
-357.226
227.354
-93.2511
-509.637
-169.517
-137.015
-390.705
-363.449
-941.062
-171.118
1112.18
-497.349
942.098
-444.749
-143.029
-19.8047
162.834
-668.78
636.755
32.0252
-244.976
339.388
-94.4117
261.437
285.844
2.13601
-212.297
873.972
-912.524
38.5524
444.641
-104.033
186.361
-379.075
186.269
192.806
-230.803
42.7523
188.051
-484.779
-37.1324
134.806
-245.323
309.086
-73.5089
-1077.56
887.98
-517.191
454.188
-128.402
248.674
-120.272
-69.867
384.03
-314.163
366.293
-315.902
-50.3904
-390.634
45.5195
-212.22
-285.302
670.934
-385.632
-64.7822
-260.65
-69.8319
421.994
4.43319
192.245
-196.679
891.093
189.922
-335.389
-43.6867
184.255
182.038
-373.067
-456.021
829.088
-821.567
359.569
448.672
-951.609
502.937
81.9806
-413.269
331.288
-280.852
199.573
-11.044
468.186
-170.977
-192.091
-460.22
149.475
616.052
6.471
24.9575
213.026
429.35
-102.875
-326.476
-107.424
-89.4696
196.894
120.17
199.782
-260.985
9.11325
-118.39
-59.905
178.295
-386.578
-15.2727
401.851
-1.82805
281.967
-280.139
-103.694
494.347
-390.653
-412.776
346.28
-81.745
-889.753
817.961
352.109
-324.586
-87.6189
-305.674
-89.2697
-291.455
-655.618
-123.616
-512.003
264.31
247.693
-285.656
38.141
-113.999
128.119
16.0343
185.761
414.916
-600.677
29.0923
-270.178
14.0049
-3.7671
300.659
150.71
-261.253
-53.4502
-243.69
297.14
-810.772
796.244
14.5281
232.633
-252.784
20.1506
362.793
535.471
288.724
-370.892
-18.8171
306.164
-724.607
694.184
290.242
-211.226
-79.016
288.786
-17.8877
-187.599
-161.323
-316.123
477.446
-214.822
-98.8199
311.866
-365.741
446.354
-538.493
118.756
77.5879
-196.344
206.833
-128.953
-77.8807
277.796
-650.863
145.4
-513.964
245.768
-95.9444
-149.824
47.822
-811.625
-430.543
304.525
-348.749
-568.288
650.268
-475.964
68.0939
368.316
-665.693
157.281
-254.413
97.132
-849.017
896.839
-30.337
-8.07023
804.906
-219.536
216.946
2.59065
-312.812
198.726
114.087
-229.092
-172.866
-54.708
425.039
-370.331
547.941
-630.673
43.7748
-229.219
185.445
174.038
-130.263
295.439
83.8555
-264.627
173.197
20.4991
-143.378
766.854
107.118
-446.403
183.888
-242.009
174.988
67.0212
198.139
-243.437
-2.25101
192.058
-189.807
-309.715
256.264
-223.717
-14.1829
237.899
-510.303
384.514
171.387
-192.383
-580.907
-65.0973
614.926
4.73796
-271.625
-228.976
194.707
-76.5904
-118.117
-121.053
-96.6043
217.657
136.515
-208.435
71.9204
-73.4104
285.155
-211.745
-226.107
214.389
11.7174
-196.439
-29.6671
322.563
106.787
967.12
-708.984
-281.886
-311.456
246.674
191.428
33.033
-224.461
-974.191
799.74
174.451
-396.011
168.859
227.152
-497.777
-122.676
620.453
-158.934
-806.175
14.6008
-300.654
-467.49
452.217
-96.5943
-216.218
232.138
-17.6921
657.339
-100.275
-557.064
347.348
-451.042
-159.264
756.328
-597.064
-211.406
-221.325
432.731
-286.497
270.73
15.7671
5.94283
-74.7022
211.217
-99.2683
-192.829
-526.951
14.9486
-16.1481
-90.9103
-744.767
39.6384
-432.243
-218.139
97.086
-284.344
185.531
698.915
257.35
-307.516
164.097
63.9757
-309.825
17.5775
292.248
-267.496
36.6928
-37.2013
-996.641
778.447
218.194
-22.0354
228.499
-118.334
274.895
494.31
-523.174
28.8632
-280.967
-194.795
-361.488
397.437
-36.3629
157.191
-120.828
959.936
-799.439
-160.497
23.2341
-528.289
505.055
-6.06026
-164.643
170.704
-175.752
-109.905
487.966
-63.5511
-233.12
494.557
-558.667
119.962
438.706
-181.773
274.57
508.279
-352.74
-155.54
295.379
8.23142
-303.611
-272.136
210.56
650.428
-84.8321
-565.596
431.092
-245.331
-433.459
389.75
43.7092
281.514
-4.70324
-247.303
-62.5221
-180.872
56.3498
201.735
-500.506
65.059
435.447
-261.61
262.5
-346.806
344.978
-328.008
-67.4827
-417.705
-456.009
401.301
-530.603
1001.81
-471.204
-132.395
96.0319
-176.807
-219.203
488.466
-50.2865
-438.18
-17.1128
-299.819
316.932
-501.09
560.989
-59.8994
405.405
203.945
-100.32
-103.625
163.254
-236.664
199.43
-201.681
-306.008
128.606
420.238
-397.004
-10.7977
-275.7
82.5849
-898.346
898.346
131.823
4.01943
420.443
-424.462
-165.102
184.293
-19.1909
-524.27
313.507
-423.719
66.8381
356.881
43.0313
151.676
-487.062
366.372
120.69
-238.932
436.816
51.1501
308.378
42.0555
-350.434
338.789
-78.8911
-427.788
-24.0135
115.275
-358.344
288.477
330.823
-220.195
-110.629
-55.5034
146.354
-90.8509
-941.062
-300.107
-217.095
120.628
96.4666
-294.19
232.08
-432.118
-519.492
254.057
522.603
-776.659
-146.035
-530.699
676.733
-446.934
175.309
-20.5835
193.78
214.93
-15.5
-657.465
640.587
16.8785
75.2065
355.885
291.56
-64.8057
-226.755
-100.175
-521.319
621.493
-572.502
804.48
-231.978
-573.333
56.8374
-778.07
184.085
593.985
-981.247
414.134
567.113
-286.41
-272.257
-124.555
476.664
-968.589
437.986
-675.501
814.356
-138.855
610.716
-710.89
-210.911
251.54
-230.567
124.328
-799.829
-164.399
-694.214
858.613
664.074
-13.6461
501.286
326.825
-59.5673
272.466
-116.279
96.4747
-118.078
192.208
-537.263
254.697
-227.603
-27.094
-139.743
321.334
-181.591
-183.498
-86.6807
522.51
-28.1994
-291.658
274.545
13.0689
623.686
-703.939
-650.694
-254.026
-246.48
37.054
222.286
22.2851
433.605
-455.89
-363.636
345.503
18.133
-141.571
156.909
561.625
440.181
-350.13
-195.42
545.55
189.043
-244.18
-82.2255
281.641
-69.4649
-354.255
191.765
-230.46
-237.457
312.664
202.765
-130.18
-459.711
-521.536
-295.961
-12.3746
308.335
-285.683
160.392
125.291
-174.004
178.437
-197.153
-88.5301
225.979
-219.665
251.152
-282.611
31.4589
269.857
-64.1519
-205.705
-805.203
646.268
-312.498
-299.276
54.2993
-291.784
303.248
274.717
-105.693
511.098
192.075
-54.9438
286.825
528.907
-815.732
-194.579
166.335
40.4988
-571.432
410.109
-944.348
286.756
302.728
-800.077
-473.229
-73.1316
546.36
-540.471
468.828
71.6435
283.725
-210.816
45.7142
-628.921
395.801
-12.3816
169.663
-316.622
338.907
157.052
-509.792
-138.031
-37.68
230.321
-7.15697
277.887
270.705
-86.4179
197.413
765.059
-3.69592
300.113
-282.152
-17.9612
-237.613
-110.272
-116.685
-33.3138
265.947
686.599
255.499
81.9613
192.934
336.88
-122.399
-84.3065
289.284
-204.978
-424.56
94.743
495.305
-230.637
-264.669
289.059
-296.216
-17.1148
-673.731
690.846
226.906
-834.62
443.986
-237.688
42.3317
-319.452
-94.4311
-381.562
475.993
-124.948
136.803
255.804
-315.371
287.388
6.5864
-875.509
329.896
54.6845
-341.359
-726.106
-519.879
-454.313
239.088
78.9775
-347.983
245.453
-327.679
162.636
83.1325
125.138
-223.023
97.8859
-491.618
131.021
511.878
-924.653
-171.433
94.8431
458.358
26.8305
-574.692
-421.949
18.3365
-599.244
-3.33673
298.716
-100.603
374.57
-273.967
-125.562
-90.5054
128.927
-193.1
-86.5928
-343.775
378.83
-219.595
-58.5719
278.167
-67.0065
227.398
-292.568
-260.716
242.845
17.871
43.789
-244.692
287.024
369.056
-39.8968
-323.739
-21.2287
235.618
205.168
-28.2905
-176.878
-109.565
-467.085
54.0028
413.082
-293.425
-131.622
425.047
155.712
-211.215
310.489
-263.927
98.2939
-198.805
-120.06
318.865
788.818
324.431
-38.5043
-211.91
250.415
-18.9886
-521.483
-295.961
-742.593
369.471
373.122
4.3905
-297.417
-4.25406
275.36
-13.0078
229.953
253.894
-340.576
86.6817
-469.229
-118.555
-551.803
211.52
340.283
211.693
26.2065
237.856
322.147
-622.265
300.118
217.131
-421.325
204.194
-363.581
386.582
-675.935
289.352
936.781
-910.327
-742.4
457.098
-402.472
-118.13
520.602
172.882
127.231
-331.682
562.529
-375.084
-187.446
384.368
-195.325
-817.11
244.608
250.931
244.375
-236.498
60.7462
378.829
-106.628
179.7
-182.036
2.33542
233.286
11.6818
587.658
-614.374
-512.706
205.547
307.159
75.6781
-338.224
-156.74
494.964
88.3485
372.963
-181.198
265.426
59.9749
-468.794
187.827
286.711
148.509
-435.22
122.693
-251.095
-161.249
-229.295
-206.233
-362.107
18.3323
-28.5914
-628.874
-34.7989
231.545
-196.746
-327.166
172.556
154.61
-359.564
-97.1752
456.739
-234.741
-91.3918
189.145
16.0234
-314.231
83.4294
168.299
114.965
-283.264
-274.375
-133.491
407.866
-363.632
-291.789
271.981
19.8075
151.063
-367.806
216.744
150.485
-256.627
106.142
-37.3897
-85.9972
-289.194
375.191
-392.091
221.114
211.692
-440.987
-282.101
137.286
144.814
-464.958
148.835
35.1402
-440.408
405.268
-197.618
-63.0977
159.83
384.953
-334.261
-50.6914
-210.147
204.683
5.46457
-259.452
141.788
117.664
-110.105
-131.904
-286.602
-114.641
914.381
-217.121
-31.9108
283.151
-487.446
292.651
138.272
-344.007
205.735
-374.116
-118.846
492.962
-471.447
-215.814
220.549
-29.121
239.086
689.737
-706.852
-48.938
-272.818
321.756
81.7395
-710.985
629.246
215.187
93.6421
-308.829
307.97
-102.119
-218.036
232.636
-364.267
-45.971
410.238
-710.629
39.3397
671.29
-456.836
-177.848
-67.2732
-279.533
522.463
-6.81075
-774.446
-19.652
794.098
-170.805
517.787
-346.982
-191.311
478.136
180.286
-518.51
326.697
-104.187
88.0305
435.066
-425.936
429.956
-331.423
-135.649
467.073
-523.897
50.6683
328.056
13.0912
54.0398
-272.075
263.156
-57.637
-205.519
-96.3553
-103.914
303.487
-81.5051
-276.839
74.5622
200.007
-302.181
-96.8037
398.984
-286.948
347.136
-60.1878
-80.6905
278.829
-341.989
-127.321
469.31
-266.522
133.481
133.041
-140.989
-17.0017
41.8223
-652.424
610.602
-181.209
-252.251
-271.046
-250.965
-337.363
-93.1797
-216.607
-75.7286
292.336
415.335
639.667
177.965
-265.516
87.5512
144.471
505.797
234.32
28.8354
198.89
-251.805
52.9152
-358.11
-152.193
-531.775
-76.6926
355.542
-180.621
316.152
-32.4263
625.585
-175.396
-4.46036
230.439
-243.134
278.275
-35.141
713.631
0.97078
288.089
-602.057
492.391
109.665
227.64
63.92
199.536
-39.8212
192.866
-329.881
107.241
-330.545
18.4906
-355.062
359.219
-4.15736
116.857
-220.592
178.969
24.9478
-320.53
320.268
0.261558
248.178
-306.75
248.147
-18.1278
-332.742
-119.373
-50.2652
238.249
11.8587
242.839
303.08
5.08775
-362.4
-140.862
503.262
-78.6954
-150.915
-199.417
-29.8024
90.4746
236.51
260.394
-293.708
296.749
-61.5364
-232.301
243.224
-10.9234
-1060.78
708.07
352.709
-422.397
128.972
289.945
-0.544625
-289.4
-65.052
353.529
577.262
-182.225
-31.6859
213.911
-39.0466
-220.36
-263.97
-60.5118
324.481
-287.254
-58.8325
346.086
-70.0429
-510.156
-91.9007
-797.849
785.498
12.3514
73.4704
223.273
-296.743
53.1341
283.693
-179.043
475.361
-296.317
-238.449
-73.0078
-429.396
111.169
-236.731
171.581
-263.562
-325.501
-105.251
430.752
-92.4319
417.886
-325.454
-384.267
-83.2231
-244.532
-70.8399
2.08285
-423.356
-93.8343
-201.112
683.774
9.80435
637.281
-647.086
-198.211
46.5974
228.563
-813.612
585.049
181.599
-410.691
277.901
-23.9829
119.552
-1012.99
-239.272
-88.4073
439.513
-5.90408
-471.291
-399.45
-105.861
-657.399
212.857
-422.492
209.635
23.0832
262.072
-320.372
-66.1433
386.515
11.679
-289.127
277.448
830.059
-116.427
-491.535
480.491
-59.4234
-715.023
-62.6054
407.584
-846.679
783.43
297.335
-472.346
402.881
-93.4732
-117.753
199.718
169.244
-368.962
-438.245
-246.709
184.238
19.3802
-203.618
-221.2
913.448
30.5589
-991.997
559.753
-222.783
-93.9988
316.782
721.148
31.079
332.695
-89.6869
373.595
-355.263
-402.059
407.843
-5.78442
328.638
-326.597
-2.04124
341.094
-102.008
-17.4503
-406.756
-121.533
-239.456
-112.707
-211.614
-104.148
-600.164
784.902
-184.738
-206.108
8.95477
-194.459
-387.645
-462.532
412.246
95.1081
-288.208
-134.287
-112.316
246.603
-43.5539
389.475
-345.921
311.14
-54.876
218.734
-68.756
-149.978
86.27
-250.913
121.339
169.556
314.177
-98.9903
-305.534
-110.832
215.109
527.487
-142.973
26.3028
-773.588
747.285
-298.608
121.954
-208.372
-30.2692
-44.3468
301.96
37.5556
771.828
-699.047
856.345
-110.834
-745.511
377.611
-75.3983
-302.213
127.763
-248.035
-92.6872
508.356
-415.669
-230.337
-59.5049
23.5735
-734.559
409.358
-109.687
-290.81
286.301
4.50922
-196.511
-78.4521
274.963
203.584
25.8374
-229.422
-34.7932
-123.445
-451.816
-608.963
-427.392
203.137
-17.3088
-229.656
-18.9469
245.853
56.0878
-537.46
481.372
-289.039
247.362
-424.17
186.977
-379.068
696.989
-318.607
68.3489
-269.279
200.93
-111.953
298.222
560.347
-164.052
-235.682
-143.829
230.312
861.568
87.5288
-308.335
229.799
46.5968
725.232
-11.97
191.67
-324.074
-93.2004
359.512
-54.9875
-451.924
-528.754
156.608
372.146
-151.996
-503.738
655.734
-567.882
1012.52
-715.696
115.532
-477.638
-302.812
287.975
90.2129
-913.958
65.853
848.105
-351.754
375.387
-63.5213
-8.53148
361.667
336.98
10.1559
229.324
-198.778
-30.5464
-323.134
101.933
-195.269
-14.8782
243.152
365.699
-76.9753
615.322
-110.267
295.169
75.7901
548.43
-102.076
514.167
-99.2511
256.068
-35.984
-220.084
396.609
-472.971
-319.093
792.064
530.623
-266.313
-297.093
-556.513
80.4253
476.088
313.607
-66.9326
-711.19
677.473
33.7176
523.645
-71.4275
-30.2319
635.245
-605.013
-324.242
260.09
285.698
53.6901
432.131
106.824
-383.686
217.724
-32.2799
314.459
-3.31837
-434.167
-129.235
-34.2967
591.356
322.965
-316.207
-6.75742
-516.04
46.8107
-385.689
-332.394
299.967
49.6018
328.295
-297.298
295.29
-35.2005
-144.289
-254.637
-241.356
3.70051
237.655
-401.452
-112.389
-34.6084
547.399
-38.1394
-6.20144
474.388
545.916
-26.3627
-172.745
-273.786
329.488
-55.702
-95.6279
248.779
32.2859
-743.476
-301.186
-213.972
352.701
-392.023
-63.9867
444.517
621.877
222.655
-844.532
-141.662
539.993
-130.635
327.555
-251.811
-75.7442
-110.708
-590.443
-187.628
31.6113
209.411
127.569
-129.783
235.925
-263.247
-264.859
302.07
-37.2109
245.052
308.198
-432.753
697.568
414.611
-261.011
332.135
-71.1234
-247.393
-471.498
-210.491
837.41
18.9347
362.317
-47.8579
-940.01
26.0512
355.25
-82.5635
-744.963
14.502
-320.176
634.388
206.712
-87.9565
-91.4071
10.418
295.746
-361.974
6.87516
355.098
-209.832
-121.403
239.55
-105.867
-477.975
-93.4573
496.128
-86.0195
358.386
24.1573
-315.613
-82.9171
-106.362
-518.871
372.836
-117.614
652.998
-629.424
-289.006
367.664
-78.6577
-223.165
39.6671
281.911
22.7069
-444.145
-480.508
-427.503
972.369
-469.459
-502.91
535.119
-80.9304
-524.417
-104.504
-63.0517
18.2447
508.898
-113.097
-18.0618
53.9268
177.618
-238.93
-207.473
44.227
-70.5715
550.351
-120.774
-405.041
-360.969
309.105
264.888
1.05868
420.382
-61.9959
-52.5695
-148.543
-178.227
-306.976
31.2765
75.0522
-274.469
440.121
-651.634
580.505
-86.4033
-494.102
758.847
-726.561
394.551
-41.8498
-275.949
-307.218
36.1929
545.336
-100.819
-758.254
784.557
216.688
-2.21088
-214.477
-117.226
212.334
461.945
-60.644
566.289
-127.517
-280.915
281.886
-106.593
-110.502
-200.362
231.856
-31.494
-100.215
273.098
299.62
-42.2706
-62.1347
250.462
-473.453
-277.985
271.897
-236.046
-35.8509
-381.928
391.514
-9.58615
-17.908
-99.4999
283.754
309.812
-312.592
2.77943
-253.811
-120.702
-1.53217
158.475
-321.499
413.127
-43.1085
787.143
-744.035
-507.89
349.22
-41.0219
33.2932
345.737
13.093
-358.83
7.16134
382.589
204.645
481.691
34.0548
471.448
39.6499
356.361
-47.9829
-43.8678
242.757
219.857
69.4271
-856.54
866.344
-302.649
284.328
18.3214
-549.479
249.204
1.25782
754.939
-557.702
-197.237
260.234
-184.084
-76.1498
433.311
228.405
29.1044
493.405
-198.497
617.929
-419.432
73.358
-51.0672
844.363
-793.296
-391.402
305.405
476.465
198.876
234.672
0.945625
226.266
-173.134
-485.712
658.845
39.6669
208.48
60.7713
-557.819
571.276
-508.696
794.015
-274.384
-519.631
-300.721
-174.735
35.758
271.184
0.797359
-228.521
-258.541
-340.064
-481.503
3.9286
185.558
-189.486
293.017
265.649
187.859
-792.499
768.478
24.0217
0.373339
408.654
-454.559
45.9058
288.029
50.3394
6.07202
750.076
-756.148
94.2252
235.262
28.3801
96.3094
-291.899
305.59
-13.6901
-892.395
-48.666
195.986
-124.826
-489.014
613.84
-293.137
815.74
-138.674
-402.773
-113.266
-560.931
136.56
358.404
34.4772
-254.807
-26.108
199.314
-145.388
11.763
850.879
47.4666
-14.9905
303.079
472.921
-356.891
-116.03
-626.364
260.777
365.586
129.323
174.163
370.109
-348.243
237.614
141.39
289.363
229.791
230.948
12.276
69.8015
-483.905
414.103
807.328
-248.188
-559.14
185.654
199.377
-385.032
323.685
401.939
254.547
3.74452
-626.335
-306.016
248.458
-889.787
367.81
53.4215
-434.984
74.8452
-635.295
-99.2641
246.364
-359.42
364.307
555.855
-568.258
645.124
-76.8658
-11.5973
372.661
412.905
-308.839
-38.0331
171.968
-133.934
-303.302
295.79
-17.9024
641.184
-346.713
-22.8618
376.947
-354.085
66.9427
-182.586
228.77
-46.1842
-250.9
229.632
21.2674
284.08
509.935
166.309
-403.212
408.154
-1071.48
1077.56
106.125
-10.0135
444.49
180.539
-58.5852
415.974
350.801
214.908
22.4187
249.703
364.958
-26.0867
-338.871
-649.901
648.661
1.24079
230.996
196.79
-11.2317
501.946
-432.145
-210.761
766.616
267.773
85.2686
238.78
-361.179
-178.201
26.9435
244.953
736.656
-149.802
-586.854
-844.689
910.327
308.428
351.742
211.451
-211.996
554.139
-992.385
420.62
323.91
288.808
-39.8997
466.532
291.388
59.7454
-417.297
357.552
-228.765
313.172
-13.3212
1.9005
-824.336
694.148
804.029
-193.313
334.14
245.173
96.5405
340.073
-20.2286
-319.844
269.397
270.598
295.051
-188.762
88.4421
-273.238
283.128
-9.88988
418.122
-522.721
-253.938
-3.45294
218.361
432.423
-573.285
-276.306
21.499
451.501
-113.134
-246.704
359.839
-335.079
-193.674
634.702
106.18
426.418
-943.47
517.052
-460.296
418.179
42.1174
-3.23388
253.326
-250.092
342.727
-275.784
259.816
-236.935
-22.8814
273.505
13.1726
-195.758
-849.017
65.437
326.723
-392.16
-32.0588
722.33
-690.272
323.039
-295.845
-27.1935
-445.674
444.756
275.238
-237.682
-400.004
978.678
-578.674
284.607
-14.032
198.27
536.439
463.561
-198.778
208.336
12.3163
-220.652
-28.1596
399.088
-593.543
33.6033
559.94
201.904
265.569
-336.409
-15.8994
-366.028
-913.448
862.38
-497.09
1033.53
336.799
-56.3718
239.064
-2.03204
-237.032
489.138
-435.135
66.5962
-719.021
-459.884
-0.412544
-257.471
318.683
-469.493
-499.096
298.958
-18.9542
-280.004
-959.944
441.982
-797.849
156.646
32.9234
-189.569
30.6929
598.553
648.333
-633.908
-291.06
819.967
-93.1762
220.611
384.793
-523.545
138.752
-129.576
355.73
-226.154
-703.898
750.495
-386.805
239.558
-224.037
233.351
-9.31399
-275.385
701.803
313.986
602.943
27.773
-786.027
-232.064
257.771
-346.178
-59.4441
-228.993
240.847
-896.839
980.978
176.048
39.5215
-215.57
264.479
-270.173
-87.0532
26.2952
400.09
208.905
-608.995
502.76
-902.764
483.468
-63.2304
-222.436
-3.21293
225.649
-114.231
-192.745
-261.198
55.493
-165.86
-136.871
302.81
291.944
-265
-116.667
-317.405
434.072
280.799
289.389
-17.7536
-293.542
311.296
-691.03
17.2992
853.825
-892.395
936.781
-965.233
951.217
956.286
-956.286
-844.689
-1012.99
242.335
-207.858
-242.089
-213.15
-187.361
-2.44529
737.025
-956.358
219.333
-866.344
11.6522
-281.971
191.981
-35.3349
-763.405
791.178
228.45
-7.02161
-221.428
-256.972
268.652
-11.9862
-250.054
262.04
248.921
-14.3077
-234.613
202.085
-229.179
-23.7708
-253.736
277.507
-188.245
201.192
-12.9466
250.263
281.204
-347.438
407.184
105.054
-181.989
76.9347
-366.72
-581.887
-194.484
207.947
-13.4629
-419.779
-84.1895
503.969
194.668
-175.287
41.4387
202.277
-26.2292
-349.732
239.46
460.265
-95.9577
199.257
460.295
-51.6419
321.97
-392.576
70.6057
18.8079
-636.186
666.879
262.92
-461.417
-783.746
730.295
53.4511
480.799
497.879
47.846
412.419
-238.395
261.478
-73.128
-710.618
246.575
-340.574
710.846
-895.583
319.734
-719.304
399.57
128.094
264.445
-206.191
-58.2532
-51.6782
-387.799
-867.87
592.485
-2.21503
258.773
3.24048
-312.522
309.282
16.812
-48.7431
235.93
282.14
-37.1874
185.674
-58.3756
-127.298
738.568
20.2795
272.99
303.041
6.7081
180.568
-228.721
48.1532
247.673
-300.365
297.028
-298.19
-203.474
217.905
-14.4315
74.7804
-494.56
251.914
161.213
-88.2611
825.286
-594.628
407.182
548.92
-641.501
231.21
-335.397
313.973
-443.549
200.956
-313.663
218.438
-192.601
-330.611
228.492
-190.193
-7.78825
197.981
229.287
-333.435
368.664
-266.497
-102.167
-4.40776
485.78
-442.504
-560.366
1002.87
-730.493
645.661
-50.6362
-320.652
371.288
21.3828
55.9838
-311.884
307.63
-269.369
-6.93695
203.656
58.3921
-262.048
-189.096
-233.396
-309.351
223.671
-209.157
-14.5143
-312.522
-413.344
413.344
186.791
-658.238
183.022
165.426
309.282
727.448
-235.057
-41.8056
-645.766
687.572
524.994
-86.2887
235.83
-364.834
315.896
392.078
243.436
4.47326
232.738
-172.546
-60.1927
-34.0344
-686.82
686.82
-176.247
-387.696
-98.2305
-138.5
207.074
20.2803
-157.211
228.041
-423.266
479.14
-180.86
-198.208
702.175
-489.252
-212.923
-136.023
-112.013
520.58
-146.526
-82.609
-37.0889
-489.388
526.477
-500.497
-287.294
511.002
-17.597
-20.5456
-725.068
551.935
-458.108
-65.7892
767.741
19.4022
231.319
-112.996
773.761
-660.764
96.289
821.413
683.2
829.996
149.179
-217.935
-386.906
-72.9779
-235.444
250.137
-222.52
49.655
-200.104
-897.575
41.3415
856.233
28.9648
403.117
812.304
-262.467
247.044
15.4231
1066.44
-542.402
-524.043
-169.226
4.83774
475.653
203.41
-37.0753
292.769
252.781
429.211
-772.056
956.332
-184.276
-369.083
8.1144
231.941
17.999
665.775
-84.7157
-217.934
-199.818
-227.685
213.986
92.3791
635.069
689.999
-731.804
91.6278
-795.526
22.9547
654.518
752.326
-849.649
97.3234
-627.561
535.961
91.6003
627.338
-563.613
-63.7247
-446.612
521.392
54.7163
-116.82
-113.779
230.599
155.659
305.725
-584.955
407.106
192.119
-192.119
-199.584
219.136
-879.238
436.734
-663.12
538.294
-556.513
856.54
-944.801
23.9335
-238.195
204.883
-199.064
-211.626
-250.039
21.5131
357.317
35.7078
341.903
-351.856
-362.898
36.3009
400.345
-666.659
-55.3372
-726.782
782.12
207.631
-286.083
55.334
143.65
-255.966
-623.545
655.57
-179.335
-84.2276
8.30389
543.962
126.973
-309.629
-22.7646
-455.13
957.89
864.124
-864.124
333.274
43.6733
11.3709
463.017
-761.523
17.488
650.649
16.2292
80.4567
417.627
-498.084
215.148
302.781
-4.06502
9.23891
672.856
17.9893
-820.622
632.994
195.637
303.12
-498.757
-810.131
535.746
210.883
-411.744
20.2383
-649.662
-192.627
-49.9688
242.595
-116.141
224.71
-108.569
15.4503
45.0028
356.268
41.1687
-202.163
17.48
-245.591
512.658
659.282
63.0481
12.5063
129.536
-119.3
-177.443
196.804
387.944
-496.383
-707.862
-64.1939
-198.773
-467.009
-476.462
-274.108
-360.836
624.752
-515.086
6.74363
798.388
-805.131
318.487
50.1771
392.894
-59.6198
618.773
-54.6531
-564.119
313.854
-17.7886
-572.355
-98.5783
670.933
-4.69589
-233.114
-585.25
409.855
-185.535
-39.6496
225.184
238.577
611.315
66.2749
-212.977
-116.903
24.7887
203.986
-546.182
638.561
194.425
3.84481
-199.856
396.883
-197.027
292.574