/*--------------------------------*- C++ -*----------------------------------*\
  =========                 |
  \\      /  F ield         | OpenFOAM: The Open Source CFD Toolbox
   \\    /   O peration     | Website:  https://openfoam.org
    \\  /    A nd           | Version:  7
     \\/     M anipulation  |
\*---------------------------------------------------------------------------*/
FoamFile
{
    version     2.0;
    format      ascii;
    class       surfaceScalarField;
    location    "30";
    object      phi;
}
// * * * * * * * * * * * * * * * * * * * * * * * * * * * * * * * * * * * * * //

dimensions      [0 3 -1 0 0 0 0];

internalField   nonuniform List<scalar> 
43924
(
-594.9
667.012
-72.1128
1063.91
-1072.35
8.44434
-334.926
382.186
-47.2605
226.735
-258.882
32.1469
-498.467
498.467
220.847
-263.819
42.9718
-372.074
366.023
6.05127
26.8779
-563.908
537.03
663.725
-833.552
169.827
-1009.29
1102.26
-92.9687
555.471
-145.212
-410.259
-531.627
536.371
-4.744
-687.838
582.666
105.172
-859.817
868.879
-9.06143
265.475
64.4679
-329.943
385.7
-10.411
-375.289
814.57
-666.865
-147.705
-409.831
407.056
2.77525
161.14
314.788
-475.928
290.557
-357.122
66.5659
-594.046
81.668
512.378
724.477
-60.7519
49.9147
-384.841
136.533
-489.464
352.931
232.084
-121.18
-110.903
1067.95
-4.04634
659.852
-680.996
21.1438
-281.602
2.78565
278.817
306.585
-41.1101
-441.991
543.829
-101.838
952.627
-248.49
-704.137
-673.684
761.69
-88.0064
243.028
-223.682
-19.346
478.965
-70.3765
-408.588
127.259
-408.862
266.572
-431.083
164.511
439.826
-587.666
147.84
291.487
-38.159
-253.328
824.569
-979.132
154.564
1062
-237.435
-1018.15
1035.69
-17.5379
402.595
-92.1961
-310.399
704.029
110.541
189.398
-308.67
119.272
1228.47
-777.702
-450.767
-591.2
149.209
538.423
-538.672
0.248734
230.501
645.527
-876.028
224.662
537.244
-761.906
-107.269
547.095
-375.764
172.717
203.047
-14.0245
-224.86
238.884
-667.091
-6.59299
239.513
-18.6662
424.146
-38.4462
-280.941
-53.0428
333.984
524.653
-499.809
-24.8441
-34.2722
-559.774
-463.538
42.3369
421.201
-297.459
-28.1647
325.624
799.51
17.5781
-817.088
-409.16
570.3
-15.7146
-244.462
260.177
-216.568
483.14
-328.915
439.125
-110.21
261.577
236.636
-498.213
496.27
-125.607
-370.663
428.599
-47.8587
-380.74
-448.648
-27.5143
476.163
-986.669
-31.481
1061.54
6.41237
305.101
277.313
-582.414
-243.101
546.868
-303.767
172.064
78.1031
-250.167
-431.918
381.699
50.2197
-377.738
380.646
-2.90838
300.23
-170.014
-130.217
-250.956
-61.0304
311.986
-699.301
16.5422
682.758
406.89
-91.9743
-314.915
-254.395
254.395
81.3874
-761.434
680.047
-663.045
68.1453
-947.22
848.224
98.9955
-313.65
-58.4239
-49.0724
221.567
-172.494
522.217
-132.747
-389.47
-644.545
-43.2931
652.473
-69.8068
100.465
80.6127
-181.078
-355.036
90.5193
264.517
-309.784
58.8279
846.055
-621.393
567.911
-595.921
28.0099
226.565
-96.1667
-130.398
-365.118
139.16
225.958
-21.4867
251.531
-230.044
-846.709
847.43
-0.720696
-30.0667
-160.487
190.554
276.21
2.39487
-278.605
-711.454
12.153
-266.323
283.465
-17.142
778.742
20.7684
427.996
-633.375
205.379
202.804
-216.828
-757.346
819.78
-62.4345
648.991
-716.225
67.2342
74.6804
577.792
943.845
-846.974
-96.871
-216.453
238.411
-21.9583
198.584
44.444
351.664
121.633
-473.296
1009.09
-256.884
-752.207
18.5887
563.647
-582.236
-12.8908
-587.337
600.228
539.529
-234.428
111.536
425.65
-537.186
-303.202
407.827
-104.625
76.7461
-814.826
738.08
-698.578
455.477
-24.3622
-195.312
219.674
20.7747
-855.764
834.99
-308.255
325.937
-17.6823
-34.4509
296.028
24.0853
-890.775
866.69
-362.636
341.716
20.9196
-88.6742
-321.157
11.4987
-285.992
274.493
703.841
-786.6
82.7593
726.156
-860.277
134.121
-149.498
338.896
188.39
111.84
199.223
-205.109
5.88564
285.231
-312.995
27.7636
-129.252
557.248
625.85
326.777
146.122
81.7316
-227.854
276.88
-316.333
39.4531
196.84
-233.592
36.7523
-23.7051
299.915
-348.968
-13.6682
1.53079
-187.802
186.272
223.888
-62.3835
-161.504
181.123
827.968
-198.075
-739.277
937.351
-101.155
-397.312
522.787
15.6367
226.986
-224.657
-2.32951
259.082
-202.382
-56.7006
17.4491
-235.435
217.985
-395.315
633.276
-237.96
51.5119
508.232
-559.744
984.077
-886.461
-97.6161
790.919
-787.092
-3.82627
-574.527
-236.278
810.805
-145.961
722.106
-576.145
455.335
-443.655
-11.6797
-225.432
6.87411
218.558
30.627
-762.226
731.599
-173.743
-202.021
-247.753
233.877
13.8758
241.196
-14.461
25.6441
1020.88
-572.447
-448.433
735.196
-933.271
-399.616
96.4141
15.4555
208.432
16.4749
-778.239
761.764
-90.3864
-856.833
417.484
-452.253
34.7691
-106.668
832.824
54.1975
-736.356
682.159
-212.753
-12.6787
276.88
4.6016
241.753
-246.355
-432.696
432.696
82.814
679.499
-762.313
-314.91
48.587
-579.396
597.984
330.998
-298.592
-32.4059
-777.834
-63.2713
841.105
-145.935
447.126
-301.192
439.585
82.6327
428.84
-442.89
14.05
245.122
-48.2822
-205.341
-331.654
536.995
501.273
-381.39
-119.883
-328.367
17.7336
310.634
785.372
-81.5312
-520.573
-79.5122
600.085
-661.089
661.089
-127.132
502.345
-375.212
95.3989
-341.816
246.417
-919.373
344.846
306.779
-358.413
51.6339
436.767
18.5683
809.935
-489.646
-320.29
918.285
-69.3663
-848.919
77.5192
149.046
-847.22
614.248
232.972
-25.8182
264.862
-239.044
-210.707
221.286
-10.5795
-42.9066
-488.72
875.002
-890.158
15.1565
-66.631
429.712
-12.2274
788.217
-791.869
3.65188
244.521
-17.5344
19.8625
-236.315
822.133
-963.822
141.689
250.648
-341.079
90.4313
570.676
-570.676
899.942
-93.241
-806.701
594.26
73.0777
-667.338
56.4799
-327.208
270.728
-205.766
280.545
-74.7789
-472.568
326.633
53.5541
734.663
-393.039
529.573
256.387
-178.868
-683.998
-176.278
484.53
-630.491
453.588
-501.176
47.5882
-897.907
1032.59
-134.682
-580.419
555.691
24.7282
505.945
-582.27
76.3251
129.068
733.453
-862.521
211.299
530.708
-742.007
723.34
505.129
322.075
739.929
325.242
-232.067
-93.1751
-295.595
295.595
371.103
-402.105
31.0023
-27.987
1089.53
269.941
-323.666
53.7253
530.182
-478.67
-297.429
-562.388
551.681
-565.623
13.9422
-29.3596
904.361
253.452
-279.27
-213.377
191.7
21.6769
499.003
-587.77
88.7675
-197.687
959.043
-761.356
588.75
-82.8046
771.681
-383.603
-388.078
339.113
-48.5561
472
548.88
-209.691
160.619
-743.849
59.8507
-934.424
36.517
477.661
46.9919
-679.862
891.161
-695.094
-62.2517
188.626
-201.124
12.4989
-74.0087
915.198
-841.19
-38.0503
-817.794
855.844
184.229
-182.698
40.6123
165.5
-206.113
-9.05306
-365.953
375.006
322.058
-310.559
-606.203
210.887
-248.135
446.272
-198.137
908.548
-678.047
303.535
21.707
281.76
17.4761
-299.236
-567.808
169.536
398.273
460.715
-31.8747
525.712
-731.053
-365.382
-12.3558
646.924
-746.151
99.2273
-220.329
152.615
67.7138
-656.237
638.971
17.2661
217.603
-213.001
74.6198
181.768
-743.062
825.876
-331.912
325.899
6.01283
68.0421
-363.374
295.332
236.954
-205.045
-31.9088
526.537
-328.662
-197.875
8.22725
-346.727
338.5
-497.322
484.431
-81.6659
290.009
-208.343
-660.898
157.896
503.003
-347.513
-17.6048
653.812
6.04007
445.56
-21.4135
-167.367
17.2421
150.125
-21.9757
725.524
-703.548
-854.216
983.283
320.852
-149.706
-171.146
677.33
-775.122
97.7915
423.941
347.74
706.372
59.5975
-765.97
818.098
81.8444
552.064
-528.594
-23.4704
1093.71
-1012.31
-81.4052
4.74352
-296.064
291.321
293.476
-11.7159
91.5851
140.499
209.907
-10.6836
194.868
-200.052
5.18401
144.2
148.666
-292.865
-304.829
284.509
20.3202
-163.113
-295.897
459.01
420.218
-547.35
-320.14
195.995
-193.998
-1.99771
191.45
1009.2
-561.623
-447.577
525.903
-109.134
-416.769
140.043
508.948
78.5022
473.562
22.7431
-692.625
712.711
-20.086
46.1196
-547.554
501.435
-88.8091
-246.966
335.775
-448.907
39.1652
409.741
-140.503
-336.045
476.548
780.007
-1.26508
23.2563
183.93
-374.666
190.735
159.394
-241.06
-920.736
849.272
71.4643
-296.485
305.801
-9.31591
669.993
-84.6029
-585.39
1047.02
-603.808
-443.211
194.261
-192.775
-1.486
256.296
-112.821
-143.475
-421.632
418.23
3.402
663.241
-31.6124
-631.629
-693.97
1.34502
373.917
32.9726
-570.076
451.056
119.02
583.256
-578.233
-5.02226
-855.762
44.3952
811.367
856.369
33.1981
-889.568
-424.633
284.13
-202.598
35.2307
-322.471
531.002
-208.531
-170.878
-42.4993
754.995
-793.045
-142.382
182.995
541.574
-175.259
-366.315
-123.571
-309.126
220.947
-222.051
1.10318
619.534
43.7068
683.455
-608.774
20.9276
-301.712
280.785
837.515
-876.391
38.8763
-313.155
14.5632
955.405
-958.613
3.2079
56.2235
214.36
-270.584
680.239
-33.315
568.719
-592.642
23.9229
-828.491
849.266
187.978
-212.34
786.39
212.135
746.908
161.877
187.804
-349.681
-298.556
-7.94424
824.99
-72.8422
-752.148
596.421
-132.447
-463.974
243.62
-70.9035
83.985
412.285
74.6202
-280.387
473.844
-503.903
30.0595
142.488
-348.872
206.384
137.69
388.848
58.3116
859.974
653.055
-773.265
120.21
-22.6812
978.087
-250.708
-34.7786
285.487
-216.862
209.148
7.71363
2.72932
169.334
48.4801
452.793
335.097
-344.15
-358.591
29.6759
-338.235
40.7764
838.35
-58.3435
78.1202
-249.532
171.412
-956.843
22.4182
-920.395
-36.4476
-486.051
56.6571
429.394
-732.846
901.575
-168.729
-205.759
-54.0928
259.852
-119.501
-73.7368
193.238
-150.03
-50.4388
200.469
-140.131
229.881
-89.7504
853.459
412.437
-228.507
139.581
-12.5286
-567.891
-879.266
-41.4706
443.661
152.76
192.919
-515.389
200.753
-1107.04
906.283
27.3363
202.091
-229.427
-10.4979
-200.209
418.746
26.8138
89.1571
701.761
280.163
18.5293
-298.693
-472.175
583.711
728.766
72.8481
-801.614
-778.569
-8.03135
801.014
-855.264
54.2501
304.623
-262.622
-42.0004
82.8163
238.035
850.778
-864.961
14.1824
978.831
-862.15
-116.681
939.121
-943.678
4.55649
-399.188
-170.888
-4.99751
-873.256
548.356
324.9
-184.537
161.823
22.7143
-244.037
388.237
140.703
91.7851
-232.488
755.624
265.126
-280.841
431.677
94.2266
782.811
-696.499
-86.3118
-52.6432
-109.041
-86.5112
195.552
-308.244
260.636
47.6076
862.521
-838.436
-21.7031
379.671
-357.968
-341.068
-7.8996
570.563
-583.599
13.0354
368.378
-327.313
-41.0645
-828.501
731.208
97.2936
-905.788
831.78
142.428
113.868
-406.351
276.933
129.418
468.19
-453.981
-14.2095
621.282
-622.651
1.36965
518.117
-44.2729
-324.376
-131.384
455.76
25.5235
-276.232
-72.2452
-246.389
318.634
544.285
563.928
-1108.21
-900.866
849.214
51.6517
-2.44299
-405.037
418.969
-13.9328
431.987
-399.78
-32.2076
672.079
-845.673
173.594
711.237
-881.795
170.558
-503.048
-157.851
-445.516
77.8727
367.643
305.328
-6.46349
-298.865
-325.758
175.728
474.801
80.6705
-719.696
-108.806
6.666
188.202
-302.418
300.751
1.66682
52.5191
-356.349
303.83
490.254
39.4765
-529.73
-231.319
300.798
-69.4793
-896.197
-19.6387
915.836
-190.528
-42.4487
232.977
6.45748
-846.238
839.78
804.705
-118.425
-686.281
332.035
141.414
-213.66
-874.879
-21.3178
808.566
40.7061
-5.79092
542.646
-190.982
-510.233
-13.2921
523.525
-801.993
913.796
-111.803
313.82
-245.778
-397.097
308.288
-30.1605
590.716
63.0961
383.91
-241.422
298.532
511.403
-14.2912
26.4321
341.946
-778.084
87.2832
690.801
456.71
94.971
-125.47
-35.2238
160.694
-851.809
-23.0704
70.687
331.908
-197.256
227.857
-30.6005
48.5719
-279.891
-262.365
282.813
-20.4479
-18.6231
28.1852
-512.981
484.796
-611.167
-134.985
-22.8948
302.401
-279.506
-330.574
452.207
599.389
447.631
-1102.77
430.486
672.287
329.444
0.335678
-329.78
-227.35
-172.853
400.203
-524.564
551.442
-661.204
-18.5023
679.706
99.142
88.9105
-188.052
-44.2489
799.244
838.945
-862.556
23.6109
807.487
-154.431
38.4996
-602.407
-325.462
-21.2647
556.81
57.7986
-614.608
439.666
21.0486
-349.365
392.923
-43.5576
-853.635
-3.77783
857.413
-27.8179
-823.991
306.846
-281.575
-25.2716
625.208
-3.92641
573.445
-410.68
-162.765
-215.09
277.017
-61.9269
-85.2912
-273.3
-420.656
-42.8826
894.724
-183.487
-821.86
89.0138
-629.297
18.1304
-539.705
50.4646
489.24
820.551
-39.6288
-780.922
-261.724
121.593
0.154456
-356.085
355.931
859.473
-187.394
307.757
-2.42854
636.62
-67.901
494.198
-3.94379
801.388
-712.231
-1045.13
-57.6414
444.94
23.2502
531.099
36.8127
728.926
-698.299
796.081
-38.5102
-757.57
194.276
-224.342
275.37
-14.7334
-118.098
216.017
-198.568
474.955
15.5634
-490.518
576.276
-97.8212
-478.455
-459.407
421.933
37.4739
128.889
672.499
3.22011
-96.5724
-760.22
856.792
76.4618
-669.224
592.762
226.987
-304.133
77.146
-742.738
646.166
91.7555
712.95
-504.406
1048.69
244.714
-166.594
-279.392
-178.86
247.781
-68.9211
208.82
-261.745
52.9245
-180.096
320.799
-9.27841
-331.79
-51.1394
5.48159
-410.827
405.345
-47.5477
-161.985
-195.138
-30.1214
367.78
-337.659
-870.851
944.465
-73.6142
45.5
-528.122
482.622
35.0526
-251.914
-755.839
106.181
649.658
354.856
-227.596
819.405
1.14612
-4.8042
223.523
-218.719
436.371
137.074
-119.01
-326.506
815.946
-201.698
-95.2078
-914.085
612.797
-335.484
130.893
47.2648
653.92
-572.532
495.326
-16.3617
342.449
-35.6698
339.047
-421.463
82.4164
198.94
-249.901
50.9609
47.5437
249.829
-297.373
335.846
-498.96
-3.9894
761.957
-806.206
537.702
-62.7472
-105.904
737.444
-631.54
-269.383
304.108
-34.7246
-68.6113
295.598
205.395
-189.94
-281.746
12.3627
-1059.88
587.895
471.985
-35.8766
-76.4293
176.895
-309.687
295.112
14.5751
-676.026
692.501
268.451
-273.323
4.87236
-476.292
180.395
-503.431
-556.449
240.321
-278.48
847.167
-946.599
99.4313
-343.764
18.302
486.056
-626.819
140.763
-2.45019
811.016
232.838
-265.154
32.3168
-322.619
-550.636
-37.4463
293.735
-25.2844
345.489
-114.37
-231.119
-20.2175
-842.009
862.227
-876.78
484.533
392.247
-56.1115
735.61
-457.827
37.1717
-142.826
-131.027
273.853
875.605
-822.013
-53.5917
393.116
-322.429
796.915
4.09913
105.653
85.9891
-191.642
-580.555
1024.4
-443.843
145.94
-194.585
48.645
-758.973
-144.988
903.96
130.042
215.447
853.515
-31.3814
813.471
-736.725
503.226
-419.241
6.69732
-251.16
50.3331
147.957
-198.29
306.816
235.83
-23.9767
-1098.2
619.198
479.001
8.07978
891.693
-60.5445
-831.148
-430.595
622.893
-192.298
57.1494
756.322
23.1762
-533.409
-590.528
-18.302
608.83
418.073
144.482
-562.555
-264.726
-522.366
278.928
63.5211
-178.417
-75.978
-406.369
352.797
53.5722
-791.296
301.65
201.086
-262.265
61.1786
220.746
-251.054
30.3086
430.104
-424.622
727.212
52.1584
-779.371
-202.957
42.4701
821.505
20.7577
-842.263
-358.298
18.4584
339.84
118.64
860.191
-409.616
451.953
411.477
-72.4305
-954.485
99.702
854.783
789.1
102.592
-41.9962
240.936
50.561
381.426
898.929
133.66
27.225
-485.052
28.7053
-826.879
798.174
697.617
-766.262
68.6451
636.309
465.953
769.013
-56.0321
-712.981
195.714
-49.7744
76.3861
339.435
-415.821
-735.244
792.393
268.518
170.607
-270.651
168.084
102.567
-111.186
-426.838
538.024
-32.1326
-215.62
1004.41
-573.925
81.175
-286.934
211.946
-216.75
-103.067
-155.815
30.6446
820.134
-165.095
500.942
-601.242
755.891
-154.649
684.319
-706.295
-393.235
379.942
-442.673
-179.979
39.5068
348.748
-12.1517
-336.597
-46.2877
808.245
-505.246
-623.365
1128.61
287.864
-236.359
214.872
8.30304
197.092
-246.684
125.504
-885.298
908.958
-23.6607
-271.522
254.847
16.675
73.9946
708.816
3.36337
765.65
635.737
-16.2025
-15.0825
-512.333
471.09
41.2438
933.077
17.1532
-950.23
-312.434
-45.8646
-0.354706
-234.511
796.799
-69.5865
529.019
-623.132
94.1123
-761.967
-84.7421
38.9737
265.649
888.46
10.4685
-490.804
440.873
49.9314
-950.452
-94.6792
42.4959
-386.278
343.782
-193.392
220.097
-26.7043
246.748
-37.9275
-39.7463
1050.3
-313.223
-737.079
579.601
-50.5819
51.7293
-263.972
-63.236
-692.652
777.803
-85.1514
-75.1104
-10.204
230.95
504.787
-5.78459
92.7911
-870.625
-92.2681
213.033
-120.765
-194.201
215.594
-21.3931
-681.796
570.61
-450.823
479.008
342.582
50.5342
-460.603
424.847
35.7561
579.83
429.37
498.459
-459.957
-38.5017
480.788
-309.54
-171.248
-202.531
32.517
350.562
-21.4626
-329.1
-250.638
71.7782
-321.843
287.393
-219.037
-636.725
-691.557
-81.7084
259.831
-58.7447
662.3
197.172
6.97012
226.907
816.285
-84.8176
-731.467
328.859
-142.109
647.029
-504.92
241.247
-295.34
-96.4406
514.514
-750.83
7.7673
-115.913
-104.416
500.005
-95.5525
784.226
-688.673
-198.39
219.982
-21.5925
-30.17
-241.352
829.586
-737.831
222.262
-428.069
-407.472
835.541
862.393
-200.093
-43.9769
789.313
-745.336
597.391
-6.67493
17.7361
-608.264
280.374
138.491
-418.865
-404.127
480.513
-22.1918
-317.693
339.885
-617.031
65.8525
551.178
-143.05
517.042
-373.992
-479.992
409.602
-483.163
73.5618
105.213
-178.502
73.2899
-178.831
340.708
-176.096
-189.286
729.718
-32.1011
102.291
581.164
-611.044
648.886
-37.8419
269.191
-292.086
-810.447
-52.1082
97.0994
-433.145
590.12
460.182
-615.788
173.115
418.05
-846.119
385.447
-681.892
28.6531
653.239
-198.135
249.905
-51.77
-816.294
886.702
-70.408
-48.3504
-432.205
480.555
1005.36
-405.616
-599.745
-68.8396
-786.424
10.7582
296.088
-950.466
207.423
743.043
-857.712
-92.754
-172.936
-11.6019
-777.766
731.479
-132.391
-296.374
428.765
-15.5795
-266.376
281.956
160.355
647.131
239.608
152.84
-392.448
-902.868
154.577
748.291
541.185
-580.958
39.7726
604.542
58.5971
-663.14
-44.3793
673.853
-639.871
-33.982
353.17
-23.7253
-23.8715
223.937
-200.066
608.379
65.4737
13.9361
-792.505
721.541
-777.573
-175.431
225.764
324.09
156.697
143.319
-319.415
203.728
-207.73
4.00227
341.738
-199.538
-142.2
592.115
43.6219
-747.594
801.021
-53.4278
-407.722
-98.5188
506.241
-13.2761
-289.142
251.379
60.6906
-312.07
250.067
-100.162
-149.905
418.332
-466.682
-61.7158
-740.277
-410.927
93.9747
142.979
509.59
-442.545
-67.0449
-229.006
256.342
-203.169
195.317
7.85193
23.4966
-226.01
202.513
-322.577
379.365
-56.7887
212.18
-10.1346
-202.045
450.445
554.915
-261.968
555.535
-473.867
140.666
-228.643
87.9768
-201.369
-11.8476
213.217
701.283
-96.741
243.728
-169.109
-357.501
276.543
80.958
-425.123
-20.0874
445.211
-352.05
449.15
311.672
-323.369
11.6968
-16.9179
32.6022
470.624
462.794
35.665
38.0712
-463.194
189.208
2.49193
-338.521
-5.2434
-370.208
297.479
72.7287
342.211
-63.2836
673.566
221.158
-230.912
254.409
-289.038
306.771
103.017
656.196
-759.213
-736.585
-25.7566
762.342
31.1107
164.327
16.7775
-339.354
-690.695
621.112
69.5826
121.896
-176.49
168.709
7.78087
427.968
-147.593
-240.095
-178.063
418.157
-165.497
-346.836
220.912
-17.1842
-262.809
119.984
92.2831
-184.551
-1009.54
696.319
-347.89
347.89
851.462
242.251
-35.2666
-509.099
-500.442
210.035
326.336
528.122
42.5542
545.69
-51.4927
273.988
-247.182
-26.8067
-629.408
662.302
-32.8937
-50.2854
-532.533
-46.8632
-636.017
717.451
-81.4338
84.2617
-493.422
-353.115
539.436
6.25424
529.132
22.5739
-551.706
747.445
-647.33
7.45868
-110.446
-68.6839
179.13
-412.595
90.7514
312.35
-33.4406
-278.91
-153.044
-49.5538
-302.181
289.419
12.7618
-292.22
77.1306
869.309
-195.743
-334.516
48.5234
768.04
-1.40961
-766.631
584.182
-659.024
74.8428
-922.853
830.373
92.48
-23.5545
-637.65
110.085
297.742
-23.4234
-261.311
284.734
-787.287
25.853
-203.81
-290.893
267.47
-466.139
511.639
-242.623
270.484
-27.8614
-303.322
299.909
3.41299
-810.714
704.81
995.982
-148.815
-169.476
309.025
-252.801
361.1
-173.296
418.195
-311.633
-106.563
287.611
54.6008
812.625
-90.2857
-722.339
184.268
-681.59
-754.653
671.423
83.2303
5.57575
-617.334
624.191
-6.85652
64.782
178.946
-98.5001
518.718
-268.347
293.223
-24.8753
379.167
-458.32
79.153
-608.646
649.229
-40.5821
585.649
44.3602
-630.009
243.743
-221.361
-22.3824
556.359
-24.2019
-532.157
229.942
-119.067
-110.875
-124.617
-48.6088
173.226
955.438
-946.356
-9.0817
-575.499
-388.323
-46.3381
-756.528
802.866
-897.642
834.371
-588.336
363.025
225.311
605.092
-623.394
-14.6379
673.325
-658.687
25.547
142.178
-167.725
-70.8152
-285.534
-855.975
-66.8783
15.4614
366.237
334.08
-739.696
199.393
-10.185
-229.232
229.232
407.488
-138.072
-269.416
-911.257
25.9595
-3.17532
-26.6464
-477.161
503.807
-753.732
-80.6559
487.083
-406.427
-252.404
-408.685
432.417
-10.4838
-56.6184
258.709
155.657
186.081
-542.87
397.658
-166.82
406.428
339.618
-52.0075
762.659
-708.462
-284.294
-7.66998
270.757
-946.891
-3.56105
5.61069
927.466
532.999
-448.737
-837.798
573.869
263.928
2.69735
259.878
-262.576
350.224
-6.94071
-343.283
-462.023
31.4283
-834.975
748.701
86.2742
-128.899
-183.534
194.893
44.847
-239.74
213.019
126.599
-800.992
17.7785
-589.716
326.716
263
37.8434
247.388
362.211
-325.337
-36.8737
-387.517
399.847
-12.3293
847.416
-513.337
-455.014
312.905
-322.969
191.826
131.143
423.383
-720.812
568.411
-27.2262
811.249
-807.885
79.7884
150.154
-828.83
811.604
17.2264
-794.623
47.0291
-472.162
-527.846
1042.65
-186.28
931.097
-835.178
-95.9188
-521.121
-463.315
984.436
-48.6487
-256.181
53.3914
226.063
-233.389
7.32651
-22.1217
-56.0703
733.401
468.619
-33.6437
-434.976
-367.204
-200.604
19.0864
-86.9362
-254.143
-157.231
423.985
-266.754
-925.728
925.728
92.9019
-805.936
485.647
-510.881
69.1923
441.689
-211.716
-194.636
172.342
-164.751
-378.12
-553.589
388.838
602.174
58.0731
191.994
420.925
-929.887
508.962
-28.6593
308.823
-223.012
-263.04
-216.086
418.401
-94.3109
-181.636
-141.333
-65.4894
-835.376
452.509
-518.112
65.6032
17.2105
-695.044
776.673
-81.6288
415.768
-420.937
5.16957
246.947
-567.942
529.726
38.2167
101.418
117.749
-219.168
195.24
-219.112
378.937
-708.789
329.852
110.542
758.337
167.319
240.168
-68.6661
-492.293
465.647
292.831
-307.348
14.5162
416.543
-37.3769
353.972
-384.093
-22.6169
-367.596
390.213
-39.7981
-273.197
321.708
14.6643
-336.372
-426.412
269.181
-388.569
40.467
631.106
-749.531
-410.042
532.175
-313.353
-91.6841
976.653
-866.111
-492.735
-312.306
805.041
293.893
39.0592
290.278
-329.337
-455.854
142.842
-271.741
-51.8109
451.116
-563.926
112.81
47.4263
613.663
-186.56
76.1133
328.041
-290.198
708.749
-329.812
269.247
-178.727
24.0363
364.849
-388.885
-28.5062
-296.527
-5.18579
-256.669
251.395
5.27334
1.08739
555.156
-531.979
40.0215
-891.588
113.349
799.036
-2.12123
329.767
-116.747
525.489
328.708
-854.196
598.401
239.95
670.961
-766.513
-748.711
104.731
643.979
280.065
63.4751
-343.541
187.385
-180.255
-7.12964
26.4876
274.52
572.909
-197.016
36.7302
160.285
-156.871
-606.919
763.79
-339.712
360.865
-21.153
-254.268
292.086
-37.8182
-148.508
-175.158
-255.561
212.294
43.2672
920.09
-920.09
-87.3403
727.05
-639.709
294.317
-211.5
345.081
-68.1478
-657.803
190.303
27.9257
-218.229
40.9132
-585.544
544.631
38.5536
-239.964
201.41
908.268
-913.972
5.70479
300.995
-674.506
373.511
346.006
-303.51
51.8145
310.396
-350.748
876.237
557.075
-105.959
-72.893
-243.44
-400.218
323.042
77.1759
220.116
-345.722
332.967
-500.096
167.129
-248.951
50.8159
-873.293
-73.5987
33.4303
-728.475
319.046
-179.887
796.381
-773.239
-23.1425
430.994
51.2293
-482.223
-685.593
610.675
74.9186
-248.37
209.54
38.8298
320.864
-28.0331
-426.126
-254.87
877.713
-833.921
-43.7915
-357.695
658.69
128.533
-536.256
-864.711
11.0758
-55.9619
-600.714
656.675
43.5294
-137.524
-133.127
-917.757
411.538
506.219
192.607
2.71003
450.11
-34.3422
543.445
277.855
-268.263
-9.59208
-334.678
-6.07049
340.749
-551.179
443.91
-1.3614
-203.325
204.686
231.928
-41.6245
-95.7394
357.983
-262.244
-355.741
6.37519
434.934
-10.0872
60.1841
-809.474
749.29
-664.297
664.297
53.5081
187.739
-89.4673
-505.482
594.949
-854.474
938.103
-83.6296
741.122
55.2597
-14.141
-834.528
848.669
324.325
-341.705
17.3791
325.188
14.4931
-339.681
584.275
-636.903
52.6277
45.4868
312.747
-358.234
-213.82
-119.484
333.305
196.525
-9.13993
106.458
-710.5
604.042
-760.01
267.275
350.792
-311.733
793.739
59.7754
-77.3872
-433.494
342.492
-390.351
-681.195
101.521
579.674
319.031
-282.538
-36.4936
-531.269
614.755
-83.4852
-81.9389
-362.945
444.883
408.8
-382.368
-592.505
-325.252
602.068
-725.226
123.158
-407.322
-430.476
837.856
-39.7455
-645.848
121.24
459.54
-580.78
563.565
-644.797
81.2317
39.3486
-241.73
11.1091
-693.001
-321.292
321.446
4.38303
570.552
-692.723
122.171
-344.507
-430.615
-2.57035
-684.794
698.118
-13.3245
763.076
-164.675
645.59
-102.918
-542.672
216.5
293.09
290.107
-297.538
7.43014
807.725
-935.882
128.157
-651.261
-97.4497
-292.886
24.5385
-325.95
81.7445
244.205
-56.4205
640.696
88.8477
-254.465
165.617
357.85
-335.815
-22.0357
-342.036
-247.68
-14.6915
203.317
-27.4279
-173.697
229.555
138.075
-367.63
-271.804
319.7
-47.8957
588.584
-678.051
23.9033
288.447
-266.791
-59.1587
-291.89
-296.446
-711.336
540.699
170.637
-111.308
-152.511
-162.748
66.5817
-578.379
536.398
41.9806
576.956
-1098.08
-24.9157
-1014.36
-140.784
367.391
51.0104
-22.6878
-51.3943
-758.627
127.088
851.835
-845.378
617.394
-76.6951
1.86042
589.245
-591.105
-282.687
-165.163
447.85
-44.0496
-204.32
7.00815
197.276
-210.968
13.6913
-993.931
231.705
448.537
-115.57
19.6777
-627.982
608.304
298.396
-364.928
26.7513
338.177
60.5972
573.441
-634.039
-103.099
771.41
-668.311
-669.457
-195.504
-727.799
38.5289
689.27
-33.166
569.493
-536.327
923.488
-915.041
-8.44705
562.983
-618.945
-611.188
-23.6581
634.846
-395.998
124.194
276.899
-273.476
-3.42288
801.305
-772.6
-96.0447
730.875
-634.83
459.562
11.5274
-433.989
-669.877
604.141
65.7361
399.15
-92.2148
-564.023
-55.0085
-11.2399
-399.587
-27.1258
213.82
-186.694
23.3778
327.414
-360.538
364.425
-3.88738
746.057
-792.395
121.928
137.924
214.087
-225.962
11.8749
684.15
-775.288
91.1376
-321.403
-680.018
-12.634
794.96
74.349
291.041
120.437
811.425
-16.4654
-33.0899
-1029.62
173.852
3.94119
19.7594
-567.314
158.087
-132.54
-1082.84
-241.949
240.588
70.9239
223.393
-107.686
-467.128
574.814
-2.48358
-477.511
479.994
838.929
-31.2037
570.079
75.5109
-42.2628
-204.21
246.473
742.589
-786.566
-151.797
381.352
-404.399
444.231
-39.8311
-679.275
723.193
-43.918
286.139
-358.439
16.6224
393.454
-142.268
-251.186
175.431
-511.604
466.128
45.4755
4.80469
-461.363
461.494
-0.130875
613.775
-596.039
34.2055
-162.362
593.356
-294.751
57.4917
440.975
41.3849
607.409
-648.794
-79.9352
-143.747
196.177
13.3625
31.4749
-391.509
26.5815
-413.314
8.91503
251.104
-253.169
2.06543
711.255
-682.601
-485.067
84.0868
400.98
-42.2807
626.462
-20.9632
-205.047
914.263
-141.774
-772.489
518.881
537.486
-1056.37
-291.785
-16.885
290.931
4.18184
10.2679
274.241
-690.999
-2.9852
693.984
592.129
-749
-211.527
193.494
18.0326
-525.626
-23.5567
-645.667
5.97377
134.692
-137.365
-428.258
-105.965
194.813
16.9665
-635.162
618.195
-38.7982
-497.784
536.582
-260.709
306.196
-69.3091
626.119
-728.316
753.698
-25.382
217.716
-482.443
248.009
-259.962
11.9534
11.3658
-838.384
27.67
242.992
-456.812
910.168
-920.219
10.0508
636.796
13.7371
-650.533
-53.482
-539.16
-807.249
840.447
119.898
-206.409
897.674
-78.2687
241.352
-15.2891
-60.3865
-715.985
776.372
-87.802
-596.992
-21.3292
550.461
-672.635
21.3745
207.693
-233.264
25.5701
-236.992
2.40128
234.591
-558.627
533.514
25.1122
-210.795
86.1781
60.5965
88.0139
-148.61
-880.249
314.622
20.0923
-334.715
54.9668
637.886
-692.853
-340.813
367.248
-26.435
-650.829
-21.8066
-665.335
768.352
-896.643
127.539
769.104
-146.057
-168.853
-445.37
63.9801
-456.896
-615.456
267.977
-2.85081
-290.266
290.931
-0.66556
174.789
-73.3712
-422.774
393.788
28.9863
-954.877
972.031
-287.597
97.6453
189.952
133.577
24.5096
522.794
857.499
-877.717
276.813
-38.7779
369.242
-512.293
-789.379
811.323
-21.9436
-347.316
-185.635
532.952
132.666
-174.365
41.6982
426.377
-524.878
746.639
-682.668
-63.9703
-260.218
-31.5677
332.441
-81.0617
315.885
-291.981
331.78
-652.042
-17.8348
5.52931
633.442
-370.155
142.559
20.6529
-891.504
548.017
-390.121
608.145
368.507
423.648
8.76847
744.639
-805.026
-40.1264
-14.8007
827.283
70.3907
421.132
-499.848
78.7167
236.63
-198.754
-37.8767
-185.671
210.096
-24.4249
-10.5463
342.79
-332.243
-617.494
658.879
438.377
249.835
-218.344
-31.4902
364.226
511.379
313.042
-334.505
709.704
102.921
77.9379
-601.239
523.302
639.795
-35.6538
40.1906
-930.436
113.943
816.493
214.925
-257.374
-251.552
-793.295
732.264
61.0317
5.2463
814.321
-819.567
928.736
-928.736
-378.116
17.5787
602.826
36.9689
-109.145
-24.9028
-190.904
215.807
437.586
27.8248
-465.41
-435.212
21.3196
413.893
186.778
972.167
-453.286
-229.407
39.8292
189.577
-627.202
630.804
-3.60119
429.831
-470.063
40.2313
-430.767
-4.44565
45.7351
-764.96
719.225
-636.651
-61.9264
-549.443
518.49
30.953
-373.982
288.691
25.0957
-238.892
213.797
-160.086
-127.51
-28.9011
224.107
-27.9299
45.7464
296.864
-278.335
-71.6728
791.61
366.924
-52.3018
-769.323
32.7379
-890.025
814.426
75.5995
122.474
284.582
376.355
163.174
-754.836
858.744
330.073
188.906
-518.979
-164.625
594.453
-644.041
49.5882
482.672
55.3134
-537.985
638.563
-343.919
-294.644
-479.502
-116.419
-781.561
678.462
27.2176
-685.714
658.497
-711.324
108.511
602.812
-763.701
23.3025
34.4255
508.598
-87.4666
-519.305
354.21
555.249
-588.415
-35.4102
-67.3051
230.852
-163.547
50.6444
-686.661
-233.661
-234.492
167.187
-30.0822
267.895
-106.665
-161.23
161.93
-8.01445
-633.952
721.235
-32.1865
197.96
-165.773
869.867
-629.36
12.0252
136.392
191.649
1.00595
397.562
-398.568
-222.374
-198.089
420.463
180.935
763.53
379.622
-355.586
-842.555
7.57963
626.409
-609.867
-0.714887
-811.833
812.548
589.55
16.077
-605.626
845.571
46.0864
-891.657
310.608
-10.699
124.397
-407.084
425.949
8.98497
-255.28
335.059
-79.7792
193.858
381.583
-90.5425
611.237
-55.2765
-555.96
-756.327
782.166
-25.8387
12.865
648.705
-661.57
-645.788
114.519
-6.80063
-442.412
605.55
34.4842
323.366
-30.5528
189.437
-90.2953
-336.539
1.86047
95.9624
742.966
3.68182
-277.764
274.082
-422.631
-507.256
-57.4463
-757.752
815.199
265.387
-51.0271
190.473
-263.01
72.5377
195.853
-94.8394
-222.262
-516.877
-581.322
-791.991
-18.4565
-167.083
-815.758
776.447
39.3114
-34.4749
469.753
-435.278
59.7819
821.34
-881.122
197.77
-137.173
774.844
26.1772
-222.481
197.578
20.391
-306.898
286.507
575.727
-573.866
-645.877
130.669
515.208
-562.772
587.866
-25.0935
31.7701
258.337
-665.207
-441.829
608.543
45.815
-654.358
-721.933
606.76
-679.215
72.4552
-151.506
-45.5096
450.055
-484.328
-846.528
851.774
106.066
-307.795
-588.848
-642.421
593.28
49.1418
181.928
-76.7155
-43.6482
459.352
179.211
-570.756
57.7744
514.259
-527.197
12.9387
73.1692
-717.667
644.498
267.584
-16.4804
-313.259
166.381
146.878
-569.429
592.003
-131.661
475.623
-343.962
681.425
-86.9719
0.956999
-318
317.043
-446.902
-442.764
889.666
-143.236
247.68
-104.444
-101.774
-579.421
-572.516
420.307
152.209
403.169
-37.4098
-365.759
4.57311
148.042
-252.277
353.235