/*--------------------------------*- C++ -*----------------------------------*\
  =========                 |
  \\      /  F ield         | OpenFOAM: The Open Source CFD Toolbox
   \\    /   O peration     | Website:  https://openfoam.org
    \\  /    A nd           | Version:  7
     \\/     M anipulation  |
\*---------------------------------------------------------------------------*/
FoamFile
{
    version     2.0;
    format      ascii;
    class       surfaceScalarField;
    location    "40";
    object      phi;
}
// * * * * * * * * * * * * * * * * * * * * * * * * * * * * * * * * * * * * * //

dimensions      [0 3 -1 0 0 0 0];

internalField   nonuniform List<scalar> 
11380
(
156.79
-588.539
431.75
-801.92
27.4191
774.501
479.915
-372.611
-107.304
726.853
229.279
-956.131
1509.69
-1069.34
-440.35
1216.23
-1527.08
310.841
48.1106
452.04
-500.151
169.493
-839.145
669.652
961.793
-1610.64
648.842
-1792.14
1700.1
92.0411
-542.947
1759.18
-1144.07
1937.67
-793.602
602.75
181.493
-784.243
-28.2636
-1333.43
1361.69
226.931
-2019.07
1019.76
-389.101
-630.658
-235.265
392.055
479.821
190.541
-670.362
1152.56
-1317.76
165.2
-337.192
373.905
-36.7126
1020.1
-1348.57
328.466
1221.88
801.112
-2022.99
79.9719
-1665.17
1585.19
-550.598
-1128.84
1679.44
469.138
181.802
-650.94
-197.992
-390.547
496.973
1012.72
1673.6
-1837.67
164.071
-119.607
-1681.98
1801.59
-1562.03
663.242
898.786
-315.432
650.908
-335.477
-181.029
-70.2117
251.241
1304.88
-1224.9
355.496
-1407
1051.51
-1754.17
1754.17
102.999
1559.85
-1662.85
-1090.66
-471.369
690.281
-642.17
-391.59
942.291
-550.7
1331.55
-1316.98
-14.5681
-1099.84
708.249
617.227
402.532
-423.519
-0.537713
424.057
-508.322
822.546
-314.224
-1618.22
1618.22
1253.49
-1437.79
184.308
-489.994
1711.87
1250.19
-307.901
1660.67
-1161.16
-499.512
45.199
-382.391
2070.3
-1139.11
-931.187
1843.85
-170.242
446.364
155.9
-602.264
-488.703
986.069
-497.366
-1193.19
1296.19
-564.575
967.683
-403.108
391.968
760.593
659.338
-489.844
-437.436
583.565
-146.129
1190.41
-834.911
2308.27
-1080.73
-1227.54
1165.9
-2015.18
849.283
-1628.54
1600.28
440.267
-1584.34
-758.36
1249.84
-491.477
-668.348
352.917
1661.37
-699.576
-1106.93
-870.909
1977.84
751.675
-377.823
-373.852
691.417
558.775
-258.225
1511.71
87.2763
-302.38
215.104
-284.386
753.525
-331
554.295
-223.295
-324.058
803.878
-319.84
-133.194
453.034
307.035
172.88
1493.41
-473.308
-1034.61
494.987
539.623
253.085
102.366
-355.451
943.999
-341.249
-1714.74
569.452
1145.29
18.3395
-884.927
866.588
-270.66
583.356
-312.696
159.995
-1093.88
933.887
1049.62
-1065.33
15.7011
373.165
514.807
-887.972
-244.888
691.252
-1102.02
-483.234
1585.25
-675.388
947.865
-272.476
1344.99
-1464.59
-666.95
258
408.949
-470.224
-1011.39
1481.62
-532.653
-801.244
1333.9
573.943
-993.619
419.676
-258.609
-311.574
570.182
393.413
-306.137
-1052.95
564.243
955.711
-795.716
-110.478
943.276
-832.798
-195.1
401.216
-206.116
-675.17
-359.44
-386.709
960.651
1856.34
-1856.34
-527.778
-139.172
-946.125
1608.41
-662.285
392.452
-821.218
428.765
-920.189
355.614
-941.896
-1058.08
-1509.94
334.133
1175.81
-251.309
978.162
-353.248
634.332
-281.084
-1941.89
999.991
-1167.1
-342.847
604.747
-1550.87
1728.48
-1726.42
-2.05621
171.068
-607.727
436.659
-1503.72
988.887
514.836
266.335
228.838
-495.173
300.333
-631.333
226.933
-398.443
171.509
2024.81
-854.276
-1170.53
-549.512
125.992
610.506
848.419
-1458.92
-181.205
408.138
432.289
875.07
-1307.36
-897.862
382.753
515.109
-1056.66
1448.63
-1067.83
309.472
740.91
-90.0016
580.543
-341.613
-238.93
1057.3
-562.311
593.598
-1403.34
809.741
-1341.79
239.765
-534.419
263.758
-1237.62
986.309
1935.48
-1005.97
-929.505
276.792
1579.54
-2106.1
903.09
1203.01
345.511
-34.9404
-310.57
-221.666
473.923
-252.257
-81.4415
-398.985
480.427
-452.438
132.597
332.629
-135.868
528.32
445.205
362.65
-807.855
-2059.93
1154.1
905.827
461.209
-518.888
57.6791
212.975
-352.178
139.203
954.907
1069.9
1817.11
-257.258
761.224
-503.224
793.927
-1387.86
593.934
355.488
396.186
1084.48
-1066.14
-453.563
-344.902
798.465
459.353
-121.125
-338.228
792.893
-611.401
477.416
-738.949
261.533
503.334
1157.34
-1240.28
707.626
1013.27
-1563.87
-3.10018
-1439.42
1442.52
329.875
819.951
-1149.83
620.571
269.828
-890.398
-2274.6
1191.05
1083.56
-1117.81
-1156.8
89.3622
388.054
959.451
-629.577
876.931
-896.805
19.8735
-2099.4
992.468
-211.998
-183.009
395.006
-42.4337
1770.91
-853.203
51.2828
-1036.8
-1069.3
-225.539
438.514
-703.038
175.26
-294.065
-481.58
775.645
1103.85
-1574.07
782.037
-1373.87
591.834
731.055
-501.777
1947.78
-1444.44
-378.277
-1375.9
9.04612
442.994
-534.221
561.64
47.0007
-600.286
553.285
564.005
-297.67
-592.989
270.943
322.045
788.652
-343.447
35.2941
310.217
1188.47
-1191.57
153.51
239.904
456.479
-750.544
616.993
-1003.7
-2026.83
2026.83
-302.46
-482.806
785.266
698.264
405.803
-1104.07
579.395
161.515
430.698
357.954
-2199.78
1328.87
-924.78
-681.924
1606.7
-460.65
-776.968
-290.11
625.236
-335.126
882.442
-305.489
-576.952
-485.492
656.56
345.501
-698.749
-404.362
-102.943
507.304
-1355.74
-481.935
714.295
-1174.94
-374.125
-1244.1
844.386
1463.89
311.295
-873.234
561.939
964.937
-347.71
1390.92
-797.323
433.751
-280.242
-318.467
-924.868
654.427
270.441
-428.878
-495.99
321.799
-403.241
-116.026
-172.825
288.851
-392.867
1091.13
432.059
-241.518
-376.304
1383.12
-170.018
-1213.11
-476.58
314.52
162.06
274.919
302.815
-577.734
-80.0151
-658.934
592.288
-1729.16
1136.87
1490.01
-879.507
-1056.16
-447.568
-1054.05
575.48
478.569
1424.95
-436.064
927.709
-1410.94
-209.993
-112.42
322.413
-465.98
574.715
-1631.38
427.767
903.783
295.36
374.502
-669.862
568.004
1186.17
1100.33
-704.687
-395.645
383.617
-197.148
-186.469
-1419.38
448.264
734.857
-1183.12
1473.03
-545.324
-512.996
1000.34
-487.342
426.178
1186.11
-1612.29
47.4721
-722.86
-156.166
409.251
143.925
-324.954
574.625
482.673
-505.766
-20.6637
526.43
1024.49
-1307.62
283.129
674.35
-243.652
468.553
-1447.14
978.592
345.379
1691.41
-525.514
849.41
1086.07
-654.519
-1685.16
760.379
553.228
430.07
-983.298
461.371
79.3559
1750.38
-1829.73
1443.5
-379.491
-1064
1699.3
-1741.74
-362.632
-554.946
727.703
-172.756
-502.589
165.907
293.446
-373.048
-1225.84
214.451
-764.864
-638.476
-550.342
979.915
-429.572
-649.106
638.783
10.3231
654.527
-923.073
268.546
-613.897
294.917
318.979
-645.617
-781.745
372.073
409.672
-931.897
1400.45
-436.874
898.558
-461.683
-2205.33
5.55502
160.977
-523.434
362.457
141.874
1241.25
-74.2544
-628.783
147.625
-585.061
1486.75
-704.71
394.777
-459.23
64.4535
-557.427
557.427
1222.88
395.348
1778.66
-1226.76
590.866
635.894
844.03
-51.1369
1293.67
776.626
-541.882
1335.81
292.656
290.7
252.606
-807.552
218.524
-726.846
221.36
-431.743
210.383
-327.85
649.595
-321.744
76.2629
-404.113
-590.471
-564.778
1155.25
-423.83
565.379
-141.549
-1192.14
2032.02
-839.881
1286.52
-327.071
-392.608
133.999
-1990.3
861.454
1585.58
-871.228
-714.347
1987.12
-877.545
-1109.58
715.117
571.405
-238.578
459.938
-694.817
1212.96
-518.138
-768.344
1200.63
552.298
924.403
-1726.7
802.298
-615.434
-51.1858
666.62
295.506
285.037
444.895
-59.4833
-385.411
895.803
-83.6377
-812.165
954.565
-609.096
-345.469
1576.08
-472.229
900.31
-1633.41
733.1
1068.41
879.367
742.93
-429.099
-313.831
-1058.65
-258.329
584.632
566.64
-1151.27
-524.076
527.585
-3.50909
567.436
-328.244
-239.192
-992.915
556.041
591.44
898.573
-441.695
1096.22
1441
-807.274
-633.723
381.735
-918.859
537.124
-1081.24
406.072
605.81
-1118.81
452.902
-558.396
105.494
474.48
348.066
-508.58
-48.8473
-793.02
-885.531
1678.55
175.295
208.322
-287.677
377.039
10.6934
-610.886
600.192
517.123
871.895
-1389.02
-424.586
308.56
984.542
-88.7394
834.429
-1063.57
229.144
447
843.68
-1385.56
-474.275
836.926
1986.82
-1292.2
-694.617
269.035
607.897
255.139
794.485
119.369
-1018.68
899.309
1673.68
-1088.81
-584.876
-138.266
1888.64
-1866.2
-160.633
481.499
-619.613
138.114
-1008.49
529.335
479.151
-1730.45
538.313
-955.032
844.554
392.419
191.146
549.823
-238.528
-408.283
703.478
261.458
-31.617
747.879
-716.262
-1145.72
-882.192
2027.92
-577.758
1157.77
-580.015
-498.085
-316.176
104.178
-1660.94
867.916
-798.492
-678.459
1476.95
-327.08
-293.656
620.737
355.265
-727.51
372.245
270.991
-614.439
352.932
177.406
-530.338
395.165
-685.275
700.963
-345.698
314.225
-447.419
700.648
490.831
-215.912
-481.301
-300.444
1241.23
1.83145
-1243.06
1037.38
-420.385
556.726
410.957
-1782.24
869.79
912.45
478.946
575.411
-1054.36
-529.571
202.491
-266.246
1183.3
-917.058
-1590.75
1212.47
504.522
-1094.99
380.513
14.264
485.566
313.126
-798.692
363.77
-608.658
-44.5568
762.86
-718.304
-523.806
793.634
420.344
319.272
524.758
647.388
93.361
-472.117
378.756
1057.29
-643.981
-413.311
494.08
-1664.27
1170.19
-1140.15
1753.2
-613.05
1715.94
-1123.65
-332.58
603.524
-1196.3
1315.67
424.059
-799.996
1628.93
-828.933
-292.946
-183.634
-947.66
1475.03
1820.38
-609.543
-1210.84
-405.382
761.147
-1311.49
-124.556
-111.115
556.01
-714.942
-354.19
-1236.56
-204.426
475.418
901.175
-555.246
156.261
-1675.17
-71.441
1746.61
-1117.07
539.309
559.547
-1189.91
630.362
900.67
919.713
630.152
619.685
742.001
258.337
-1203.54
508.726
-384.938
431.939
608.834
-511.643
222.582
-724.191
501.609
760.537
-405.049
-245.489
175.277
-627.011
284.081
342.93
-883.342
-750.069
1087.66
-2145.74
392.062
-676.448
-342.662
-722.663
838.05
602.947
-328.828
328.29
426.207
332.104
568.638
-900.742
548.996
663.959
-551.748
147.386
393.947
-696.407
-1070.49
-829.467
1899.96
-1822.44
157.272
1106.07
-1372.32
1214.89
-694.383
-520.504
-505.508
1349.19
-1495.33
627.975
867.357
-281.527
-207.98
489.507
1428.48
558.642
379.88
-482.822
-472.683
-582.486
1055.17
-429.862
590.839
1584.31
-1133.04
-451.273
-864.81
382.004
654.087
403.205
-1623.41
416.213
1207.2
-164.896
517.828
797.274
787.035
181.919
-720.177
538.259
192.752
208.464
-268.323
-109.987
378.31
499.262
40.346
-539.607
-1679.66
623.503
-1628.29
1704.68
-76.3947
18.4294
-1646.72
1069.37
829.907
-344.34
-864.288
-216.953
-1134.57
-239.297
-311.643
675.414
-1813.44
-650.846
1217.49
231.266
754.803
-1336.07
-679.113
-466.715
690.342
-394.982
-1013.24
1350.85
-1933.2
582.349
648.6
1289.07
475.772
-1.84874
715.957
726.212
-1442.17
-630.685
319.617
311.067
431.131
-100.798
-330.333
127.417
335.362
132.849
-468.211
-615.542
1168.77
437.919
-665.625
-457.615
-401.689
859.303
-299.461
89.4684
-448.882
142.745
-297.502
-710.984
534.868
-103.737
-583.786
965.52
567.999
-265.681
-302.318
449.575
-773.633
-649.973
485.173
-1129.33
-863.834
1197.97
-569.771
428.101
370.364
-505.245
127.422
1025.27
-311.638
585.77
-274.132
-509.038
1578.41
-759.837
325.604
363.422
-689.026
214.473
546.866
-1.96944
-544.897
-270.202
-178.68
994.027
1108.74
564.946
-910.001
961.243
-51.2418
-448.043
166.517
-819.429
337.848
-585.781
382.603
377.934
881.988
-1300.64
418.656
773.497
-818.053
-948.711
-550.408
1499.12
-162.085
536.587
-570.949
229.335
1330.6
815.995
-634.076
1386.52
-672.224
486.385
-615.556
-401.906
-418.268
-378.192
796.46
497.664
-838.914
-494.755
71.0108
423.744
-303.264
572.563
721.991
-329.929
-222.453
-173.605
396.058
-485.469
118.11
367.359
1467.03
85.8562
-1552.88
-761.579
1353.02
-1144.8
-465.836
613.764
-250.342
1155.66
-382.161
1083.35
492.735
704.734
-452.129
-884.375
-522.629
-1328.2
-13.4126
985.632
-972.22
633.396
393.451
-1026.85
-364.452
-185.059
-690.551
405.565
1621.27
-231.415
398.819
326.703
-725.523
-1839.73
-2106.73
1519.16
587.563
-2040.6
358.621
424.547
556.812
-981.359
-460.76
1017.49
-454.854
-687.538
1142.39
-2030.59
1391.22
639.37
616.558
-1071.41
7.69867
445.203
385.61
176.635
257.116
384.781
1041.1
950.263
671.69
-317.373
-354.317
-283.981
611.352
-327.371
565.383
534.949
563.537
514.193
-1077.73
-795.904
-699.428
748.775
406.882
-415.19
787.436
-1193.35
1609.56
478.123
-1165.66
-368.769
546.174
-1398.63
953.598
445.035
-725.42
-332.44
-734.719
260.896
473.823
447.579
716.535
-1164.11
1083.47
-604.529
-445.173
674.016
-228.843
248.209
319.79
-463.704
-432.445
896.148
-215.62
600.774
-988.095
387.321
-445.249
600.597
-1681.33
424.187
669.16
-1093.35
515.421
118.911
113.417
-2212.82
605.109
-177.008
1445.87
1777.1
-217.543
-1559.56
-438.651
1789.5
-1987.6
1194.72
792.883
390.268
352.662
-57.1689
895.219
-1282.01
717.231
-865.392
-819.986
806.573
284.292
89.775
-374.067
217.961
169.841
-387.802
1574.19
-858.236
-1530.9
-325.432
519.418
-251.08
-268.338
388.467
365.058
256.108
434.234
-13.7377
1005.3
-991.567
444.394
295.965
-740.359
-734.297
1817.55
-1083.25
-342.267
730.734
-1242.59
-420.257
-911.213
478.768
660.227
-867.31
207.083
754.759
-373.263
-381.496
-461.559
-448.442
457.501
1154.81
1245.25
-685.701
795.452
-345.876
424.263
361.002
-221.825
-237.406
-305.685
651.065
408.189
-842.158
433.969
287.598
387.461
-675.058
-417.26
825.449
753.494
-1146.36
931.01
-49.0223
-477.535
282.358
802.123
-97.4458
1386.52
1890.52
-33.1081
347.628
-385.172
478.533
-1090.63
1076.89
700.501
376.319
378.44
106.754
412.664
246.131
528.37
-380.559
-250.126
-559.359
-89.747
-374.19
356.301
17.8882
-256.567
-277.852
1010.5
-1540.64
530.14
-137.309
-235.302
-445.913
741.878
-1663.83
1590.83
-962.856
344.831
-746.737
584.353
1224.4
-1808.75
607.47
983.361
329.733
-1131.25
722.969
-347.162
-322.7
1405.3
-1464.86
850.413
614.448
474.371
-652.925
178.555
-411.413
483.867
-72.4537
415.235
84.0267
1725.52
442.467
-249.715
557.702
-1704.79
1147.09
-105.028
428.812
342.688
329.003
-448.895
-613.292
1062.19
399.459
-873.734
-639.387
901.636
571.397
-426.071
-187.826
-432.624
-409.534
-308.044
-826.529
1821.08
-1821.08
-95.82
-1619.59
1715.41
299.291
268.145
-916.45
-555.89
1472.34
-408.096
971.634
-640.695
-1038.96
736.254
403.33
-1139.58
462.051
-147.826
573.087
1220.33
-1793.42
-1045.18
2114
-1068.82
-382.605
-285.743
-519.355
901.359
-1770.26
1615.41
154.851
1770.26
-1625.12
-145.145
-234.561
511.893
-277.332
-537.336
1620.68
1594.67
-2014.93
1142.33
-347.968
-241.939
589.907
208.809
-577.577
-780.194
365.003
1345.78
641.042
593.916
472.558
-1066.47
255.755
448.98
875.01
500.114
-1375.12
547.913
-1020.6
1574.92
-564.423
-791.918
-412.288
-166.658
578.946
-490.645
1207.18
-738.648
326.204
365.048
402.807
226.864
-629.671
611.616
831.192
-602.048
247.229
714.014
-426.071
-385.772
-219.787
605.559
1168.32
-713.736
602.777
472.031
-1074.81
-1282.11
1282.11
-379.723
756.042
-266.627
-491.907
758.534
516.147
429.504
-945.651
401.447
-668.074
597.2
-870.786
273.586
-367.728
-483.378
1077.29
-656.277
-717.515
1373.79
-370.816
971.59
-1552.85
675.306
-7.19465
-406.699
413.893
-579.299
754.559
344.017
305.578
156.01
306.042
-605.957
258.794
1871.67
-1969.12
240.696
-726.188
472.302
-825.411
353.109
-893.014
1463.89
-570.874
-430.542
-480.671
601.027
1124.11
-1725.14
-711.044
328.439
-466.757
1032.14
-822.055
1069.28
-367.575
-616.561
-545.564
764.088
534.843
-353.041
915.606
-326.979
-158.49
1599.04
-1816.59
-339.497
-648.598
-357.801
475.911
283.879
-678.861
-152.64
1092.59
-810.235
181.722
-380.576
-268.066
648.643
380.289
-899.287
518.998
-473.139
-481.152
-873.234
-394.012
596.277
-202.265
-457.841
-462.051
-371.463
-158.875
-427.903
654.767
-484.985
845.987
-1070.61
621.718
-1406.13
607.636
-29.8801
-1845.48
1875.36
570.296
-451.676
1269.9
-730.591
237.405
-237.405
677.62
-469.768
1039.12
-1679.82
-1158.75
-947.979
283.275
328.077
912.246
716.682
-540.899
-288.533
829.432
1666.63
-1696.51
-432.15
325.834
238.171
1134.18
-531.403
-943.347
1550.51
-607.166
436.518
-259.883
380.318
467.482
-847.8
559.581
457.228
-1016.81
-330.475
656.68
-38.4518
1910.12
1643.87
991.926
-1696.64
725.902
-1176.07
450.166
-492.548
1367.56
835.251
-1340.76
-608.815
260.847
823.416
-393.346
540.966
-1196.89
655.928
-629.017
-1215.51
-695.752
1911.27
-165.474
560.61
-395.135
-144.741
348.816
-514.291
343.916
354.014
-697.93
-1499.93
755.245
744.681
883.844
-1434.25
817.833
-435.081
196.244
-352.409
-643.45
257.677
-728.096
-670.537
695.452
508.897
-1204.35
374.674
-205.169
-169.505
552.016
-955.124
-603.009
-472.883
810.731
-831.402
-1156.2
-1437.91
499.828
938.079
41.8323
-689.688
334.383
355.305
-1338.33
1052.08
286.251
-613.865
-456.749
-665.163
920.302
391.365
-182.097
-209.268
508.611
980.18
-1488.79
989.084
-556.472
164.019
392.452
-486.992
690.603
-449.907
-503.54
145.739
233.767
-1525.97
516.465
567.009
-808.324
229.025
125.892
-452.871
348.55
-829.701
1954.16
-1195.38
-758.783
475.512
-717.947
242.435
317.925
350.697
91.0121
-441.709
-597.128
181.246
261.22
-691.904
1373.99
-682.086
424.086
521.471
-1246.89
255.326
1866.76
-1013.59
-853.173
783.228
-550.694
156.682
1402.24
-975.024
-427.212
312.552
-782.32
-616.67
1725.41
601.97
643.278
328.259
-43.9677
245.43
-1138.25
1725.72
-587.468
-1763.57
820.224
1788
-1714.03
-73.9684
-668.17
283.232
659.671
-754.728
209.164
1402.37
-567.114
369.469
467.457
-1858.96
1420.31
572.465
-486.476
-85.9892
178.454
-549.916
-332.081
-166.004
-344.938
687.626
-684.654
272.366
634.807
540.196
-1175
1113.29
-1947.84
834.55
129.793
377.512
-1701.71
1663.26
292.742
-744.871
-175.974
372.218
774.671
676.594
-1451.26
1100.95
-1099.12
514.903
-1119.43
-619.508
242.05
377.458
557.79
-273.709
-658.407
-1021.41
271.517
-733.568
-912.324
149.197
146.987
227.686
427.748
269.44
-697.188
-648.943
-834.755
-978.683
478.235
-1075.36
-332.768
494.828
529.923
668.044
-274.132
-118.476
-464.273
794.006
246.113
-1208.7
559.761
1322.01
-547.342
431.409
-1034.42
-377.87
127.775
444.69
1022.91
552.008
-1733.83
1638.01
1672.49
-628.5
-1043.99
1910.11
-1900.39
-9.71255
240.268
-625.44
-380.221
561.942
-791.935
-342.665
-325.505
1014.08
718.456
-1543.8
825.342
238.753
-26.1771
1625.22
-1140.27
426.538
-1303.76
511.841
-62.9743
1530
1196.54
-470.642
-483.636
-72.8359
-251.335
736.129
-1951.64
-703.192
372.333
-530.603
158.27
189.47
-501.108
1139.99
671.679
-1811.67
-638.285
151.809
941.259
-1497.15
-210.561
678.615
-468.054
881.424
1118.58
-753.846
1355.82
657.813
-559.704
-98.1084
-333.954
1184.37
1070.13
-1981.16
911.031
-1184.94
534.093
1488.61
-586.97
-430.595
-121.153
-1250.78
565.078
1177.59
-32.2937
946.435
776.484
-1722.92
-182.913
579.121
-1541.67
962.551
487.052
916.165
-1403.22
640.853
576.634
427.718
-1106.56
587.646
1118.64
1214.52
-451.915
-762.608
-1186.2
-1754.92
-1.23679
-1732.59
-176.028
-476.897
1615.93
-641.41
-974.524
-490.764
1120.92
-1326.25
630.291
695.956
-1368.59
1454.44
-1339.28
585.434
1520.38
-440.06
-593.394
162.799
-1521.51
219.661
176.393
212.629
445.184
473.669
417.453
-891.121
506.547
-938.534
899.376
-1444.7
-734.115
216.422
517.693
-1063.91
448.364
-499.795
869.264
694.884
6.32328
-539.5
144.365
-886.571
-1318.76
-707.701
342.005
365.696
390.852
-718.994
328.142
-468.374
-189.331
-707.474
732.593
1540.64
-594.202
836.817
737.376
1344.43
-844.319
-970.479
-571.193
-789.499
429.257
360.242
-1034.25
-633.271
295.191
338.08
-1433.68
-296.774
-784.383
391.492
392.891
-677.211
449.627
227.584
-698.602
248.695
412.855
483.293
389.729
435.72
475.117
384.186
593.895
-966.943
714.036
454.734
450.144
355.513
-805.657
1630.68
-1079.74
-550.942
-505.223
-302.133
-1036.2
449.185
347.275
409.807
591.252
-1001.06
-1388.97
747.556
-522.095
1152.46
362.991
-27.6296
412.679
-860.491
447.812
-1910.66
291.075
436.967
-721.129
284.162
-195.065
393.959
-198.894
-655.762
292.223
363.539
-665.552
311.234
370.433
385.61
610.755
-1018.85
750.127
667.633
-1417.76
438.914
623.273
335.519
390.851
-726.37
403.2
327.534
624.254
716.225
438.581
633.457
-1058.31
424.855
-1694.93
1148.59
546.341
1696.53
-539.192
615.749
-1146.24
530.488
-636.484
342.828
437.875
-931.304
493.429
815.475
-502.349
350.13
337.496
611.424
-950.921
655.919
-1251.45
595.529
430.909
732.93
-1223.58
767.696
510.43
-1278.13
517.807
393.179
-910.987
-501.938
-935.969
-285.66
629.576
352.337
539.175
-891.512
326.318
330.361
-502.204
1944.72
434.395
-843.761
409.366
-917.296
-809.404
-741.543
360.047
-1253.79
431.74
-1757.55
1625.12
132.434
1759.48
-1615.41
-144.069
-778.5
-581.52
255.659
325.861
-1788
2014.93
539.663
789.631
-1329.29
440.208
715.04
689.112
385.587
-1074.7
13.1605
1617.13
-594.222
389.398
880.502
-641.149
320.579
320.569
-378.699
-294.508
542.717
-202.979
431.816
273.174
-654.674
381.501
254.144
-566.839
-274.39
442.998
-1031.02
588.019
538.096
1092.59
365.886
594.765
306.604
348.592
-655.195
1663.05
-944.593
1693.27
-1522.09
-171.174
-327.377
-817.586
408.051
856.927
-1067.49
-596.687
269.316
-1090.47
1628.56
-1620.3
-68.6898
1688.99
-341.027
-349.996
-370.361
543.199
590.981
-499.152
-19.7354
-549.229
493.927
-282.46
-211.468
1784.19
-1326.69
-615.512
290.937
324.575
395.896
357.34
733.79
-287.435
-399.538
-1759.48
1696.51
459.995
-1099.14
639.149
-39.4607
1677.47
570.177
476.143
-1046.32
102.135
1143.8
-1451.84
-2.04053
-1908.62
216.595
-589.263
305.18
284.083
-953.723
611.061
-893.835
463.293
-1127.04
671.378
455.666
416.374
256.242
-797.142
-365.689
1214.69
885.458
699.797
-1182.19
456.156
726.033
494.954
698.838
-1193.79
-420.067
-248.406
395.393
-957.323
439.338
517.985
21.1813
-1880.14
1080.5
-483.305
-525.184
559.51
-1377.78
818.267
-447.792
800.901
-405.943
510.415
-717.892
1711.92
394.635
-166.949
210.091
-153.862
-246.336
400.198
1895.37
-504.149
-1724.99
1049.67
-591.592
297.085
-1010.82
550.056
-311.513
544.611
904.632
-1449.24
-1102.05
436.882
-21.4623
-1947.65
1719.54
-649.408
-538.062
461.028
-1189.47
728.445
200.617
190.748
-276.101
779.054
695.971
834.33
814.272
-458.759
1083.27
-536.792
464.469
-181.1
-283.37
-1926.64
-711.844
-316.089
-638.16
-6.15545
644.316
451.658
-270.411
576.381
1086.67
-823.331
921.168
1243.36
-426.093
-105.21
-298.526
403.735
954.817
-888.072
-302.774
-1065.75
609.005
1572.25
-817.004
538.052
934.289
-411.505
735.93
-324.424
1129.32
-271.426
382.843
1349.14
-710.465
-208.394
448.399
-1197.83
749.432
-949.906
-217.696
1167.6
437.312
-952.616
515.303
153.203
731.794
482.729
749.062
-180.424
848.399
-426.522
1181.3
-795.71
552.837
-1465.24
912.405
-1216.63
1800.98
-431.702
-1510.19
878.947
-1401.58
-327.553
-471.139
1456.86
-1531.53
781.464
1491.31
189.739
274.73
-377.648
-1757.55
-271.002
-1033.96
1610.34
-1798.79
1798.79
1594.67
-1004.16
-627.808
-361.859
368.225
603.408
-432.011
-384.864
-1389.5
896.952
1125.01
600.713
1201.89
1789.49
-1216.4
-632.069
270.558
1659.45
-1917.11
257.661
817.205
-1268.48
1545.09
-561.73
809.674
348.099
-383.258
556.247
792.941
625.029
1402.89
-297.194
-446.023
-399.123
490.637
-334.736
472.242
734.938
-323.692
-118.017
-360.777
574.863
-214.087
39.0263
-367.27
1107.23
-1720.28
-494.552
-517.149
-576.396
863.44
708.809
-1596.12
904.215
-452.536
-644.743
-516.471
1251.33
373.104
1724
-1702.82
-1666.63
1900.39
-1560.46
839.977
720.483
-422.92
-1803.76
918.228
584.836
817.53
-381.479
1794.75
-681.454
-473.941
722.132
452.557
-1174.69
-1104.58
444.337
752.207
-1617.08
473.335
900.655
160.993
-384.284
223.291
-1621.93
-397.138
-488.922
990.082
-691.018
1442.68
-973.658
1855.08
240.773
-559.365
483.95
-294.211
474.356
893.201
543.606
976.774
-463.894
-427.768
574.692
882.163
-1392.68
-40.9961
1592.22
-854.848
519.99
971.324
-1475.7
-1115.89
1796.18
-1241.68
-554.505
1205.88
-319.618
-886.265
-177.696
438.969
-261.273
-457.117
-249.981
415.427
-165.445
129.74
-378.146
1753.49
-1754.73
-489.578
-530.91
-903.343
427.411
-191.09
-236.321
627.173
-512.293
-420.447
-326.649
747.096
-991.774
495.785
-1166.57
675.809
401.766
-660.099
-435.363
1599.23
-882.552
530.213
-458.8
-567.765
-463.252
352.395
-341.316
-11.0789
-1152.61
422.018
-665.306
-1033.34
1698.65
-632.497
-1426.44
708.927
562.477
-1596.22
1033.74
-436.712
-482.797
166.008
575.993
-1258.11
741.634
539.302
1005.79
-2133.16
999.975
1133.18
-400.72
400.972
-375.538
-25.4342
1477.89
-390.62
449.721
1140.12
583.078
905.528
564.705
528.538
-1093.24
149.057
-473.354
-1714.03
231.395
1127.43
-641.197
518.829
1013.36
-1532.19
1092.71
-1643.65
194.187
736.823
574.945
-877.718
-1086.1
-161.787
413.446
-251.659
-585.498
-464.128
-636.469
-618.799
342.698
-1620.65
938.729
-477.426
213.941
-380.89
522.974
-306.379
-641.238
1196.77
-1341.09
956.853
384.24
-1026.34
-409.707
-774.202
-839.551
1702.99
-477.735
1798.82
-1594.39
-204.431
-1556.52
1018.53
537.988
-740.813
-246.343
425.625
-179.282
-620.629
384.96
262.623
-647.583
-524.737
1020.78
620.796
-351.48
-1620.16
1050.39
571.862
1103.41
-1675.27
-451.075
-276.502
-379.26
-758.675
-524.951
-331.418
487.428
1557.96
-995.483
-773.047
1497.42
653.589
-327.755
725.885
1152.33
-1878.21
324.992
321.431
-487.894
-1936.89
1723.18
213.715
730.466
-475.611
-254.855
531.909
1060.66
-1592.57
352.395
-1734.63
-233.22
1752.38
-1580.6
1073.67
506.932
-1741.78
7.14591
-522.415
400.972
1701.71
-1723.18
938.881
626.04
-1564.92
361.821
-212.339
-149.483
-453.679
-244.923
57.0463
93.6757
-340.019
-417.405
-453.381
-396.99
201.925
1510.07
379.354
-193.998
-483.213
446.882
-185.661
346.458
1510.63
966.852
-202.041
-764.81
-1103.97
1705
-1729.1
1063.79
-707.813
-1021.29
-1265.05
1844.98
-579.928
1155.03
-1771.35
616.327
263.838
-877.151
1676.15
43.3736
-1719.52
-491.215
-1082.86
-1753.49
-979.106
551.338
1019.41
590.337
1132.91
-1723.24
265.486
-515.828
696.049
-384.815
424.164
923.744
682.96
-379.634
-678.678
582.992
1072.39
-1655.38
-414.883
-354.842
769.725
437.496
-1663.26
1522.09
141.17
575.441
-1042.2
544.777
1083.79
-1555.53
993.8
-227.089
208.559
353.383
1910.11
475.124
-49.9365
995.831
722.749
-1718.58
-696.195
1085.17
-1557.4
150.216
-568.149
185.914
260.968
-694.575
-559.22
582.858
1034.28
-710.417
-273.478
-1367.95
671.649
696.298
-397.206
697.673
164.703
-862.376
562.762
-137.235
1557.55
-196.373
292.998
-783.977
-1936.89
1664.57
1004.59
294.917
307.852
507.623
-929.533
-997.104
-1767.25
627.009
1693.74
496.719
-475.016
1209.95
1086.93
-424.915
1028.32
-974.923
482.915
492.008
701.337
1047.82
-1749.16
473.517
492.003
-1493.77
-743.44
38.7536
773.862
-413.814
-895.891
370.706
-541.107
-799.652
561.939
-578.849
1397.12
1055.21
183.919
229.527
-550.728
1618.45
-777.978
1528.1
-1727.83
575.351
1152.48
532.508
-880.217
-1733.5
1917.11
-183.602
1721.72
168.558
-547.996
353.526
-259.85
-481.859
1210.3
568.276
1128.25
-490.984
415.811
852.749
-450.217
-769.96
442.49
327.47
1420.13
1089.46
-518.492
1422.71
-510.355
-532.627
1042.98
-602.876
567.585
-1261.97
1693.27
1839.56
-687.228
1586.4
-647.516
-1240.1
715.363
-563.297
188.889
-371.898
437.32
-228.856
-515.786
-1246.69
1870.96
-624.269
1173.07
-557.319
1120.2
-1659.4
1717.63
-574.041
-550.708
-549.878
1720.06
-315.482
-688.173
-473.528
1222.96
-1696.95
-1860.13
613.433
411.643
-988.595
154.154
201.49
-1719.01
1204.1
514.911
1162.83
558.891
-514.58
-465.502
1191.54
186.197
207.762
588.451
1251.1
-539.196
-1238.56
1777.76
-1025.09
999.982
866.777
-203.994
-1659.45
1702.82
-510.29
1410.95
-1733.5
-299.447
-57.1956
356.643
-243.365
580.803
-337.438
161.789
492.638
777.018
-386.165
1257.49
1270.32
-413.388
847.073
-439.022
1817.64
-662.612
1586.77
-1724
-412.862
-801.598
352.814
448.783
-562.653
-563.863
79.7584
-1138.41
-984.893
-671.021
1655.91
-943.691
-1189.47
207.291
-449.231
-646.166
705.882
1167.42
650.221
1410.18
-592.654
1636.69
1317.81
-576.179
-478.609
184.398
-503.37
1396.57
1239.71
-568.059
-999.974
887.789
64.0075
-951.797
603.385
-506.279
1403.23
1495.01
-589.479
-345.902
345.902
-589.745
1623.48
1238.76
-486.552
1134.1
-49.975
1851.57
-370.753
1489.43
-590.05
-507.722
1347.7
-647.801
1218.32
-570.523
1554.79
-592.242
780.205
576.254
-1356.46
-687.718
270.442
545.553
601.503
-1957.28
-1028.23
1586.77
351.865
-351.865
-49.8405
378.718
439.116
377.481
37.7536
-271.394
977.461
-546.553
-429.919
808.637
-233.218
610.676
-411.128
1565.23
-444.357
-883.846
170.343
222.124
-392.467
601.18
1250.75
-1851.93
923.135
-459.842
-341.316
126.142
-1943.08
1816.94
-442.275
162.034
1180.74
-440.549
-740.189
-284.358
-611.533
-499.366
-375.538
-467.126
255.659
1157.38
-566.396
232.107
-362.442
130.335
-23.1423
-107.69
1375.9
-1268.21
34.6912
-594.05
-586.6
-441.035
441.035
-1262.32
1985.07
-1344.25
-196.973
-1826.1
231.709
-1025.75
-974.247
-172.567
-1641.34
711.807
1229.32
-1925.07
356.374
320.777
-677.151
-1850.03
1234.26
615.767
-557.08
557.08
-958.651
-40.0631
-1866.2
-558.213
1650.8
-674.225
1636.2
-601.922
-198.762
-1709.86
-574.245
-493.746
-594.926
-456.559
456.559
-1537.82
194.535
1343.28
158.299
219.586
-377.885
528.775
438.077
994.101
-476.117
1751.28
768.893
-411.09
385.656
525.267
1702.08
-594.849
-553.012
1636.8
456.472
1812.89
-645.476
-1804.95
-1938.07
-647.24
-470.317
470.317
-601.077
201.954
-726.071
1016.95
-466.898
-1079.55
-299.53
1579.54
1852.28
1635.4
-1635.4
-322.625
740.999
1761.54
595.817
1275.15
159.765
202.057
635.453
589.732
1603.47
-1603.47
211.461
-362.62
-442.415
444.887
948.688
-465.774
-637.681
-1130.9
1706.25
270.8
-1688.23
649.267
-287.379
455.937
1744.65
-592.172
-209.554
-495.186
372.738
745.903
1738.59
-613.579
-511.816
-782.287
1960.55
-870.469
-1090.08
1642.64
-701.148
1223.94
-1824.97
601.028
415.477
-974.842
-184.423
-98.2151
1096.43
-487.428
152.08
663.316
-1684.73
421.472
628.181
-1804.95
-583.315
1787.42
882.426
-1162.84
1760.5
-597.661
1783.83
-575.579
-1208.25
428.046
931.18
-1754.73
924.192
-1465.54
215.08
1250.46
-832.288
-1254.21
-366.078
71.0481
295.03
581.813
259.196
1040.78
-432.074
842.571
-410.497
819.284
744.602
-1563.89
645.186
1066.69
-23.749
-660.028
683.777
-1744.62
723.334
718.123
150.503
-1122.53
1936.8
-674.58
-1262.22
-537.195
1665.45
845.938
970.79
-1816.73
1227.85
683.414
-413.404
705.628
843.204
1025.62
-588.305
1761.54
624.754
1773.56
-1185.56
-588.006
-443.543
-342.048
785.591
121.46
-1185.46
1660.5
-540.299
-1437.74
1437.74
1250.54
594.434
1351.24
206.72
-565.882
277.807
-175.441
699.238
1113.66
469.478
-283.28
-868.599
-576.102
1747.58
-1747.58
977.096
-977.096
987.344
1025.17
-2012.52
1837.97
-614.026
-581.139
882.233
-947.861
-1052.16
997.981
692.099
-1690.08
-508.58
-412.28
-659.132
-808.451
2042.71
-1246.4
-613.726
1002.98
974.865
1289.78
647.015
317.351
1012.69
265.092
344.944
1186.17
1756.91
-1756.91
670.942
79.1406
-381.459
-997.066
-540
1674.1
989.903
1010.1
-1833.33
-212.924
-361.322
615.16
-383.765
1849.64
-1077.88
-771.76