/*--------------------------------*- C++ -*----------------------------------*\
  =========                 |
  \\      /  F ield         | OpenFOAM: The Open Source CFD Toolbox
   \\    /   O peration     | Website:  https://openfoam.org
    \\  /    A nd           | Version:  7
     \\/     M anipulation  |
\*---------------------------------------------------------------------------*/
FoamFile
{
    version     2.0;
    format      ascii;
    class       volVectorField;
    location    "17";
    object      U;
}
// * * * * * * * * * * * * * * * * * * * * * * * * * * * * * * * * * * * * * //

dimensions      [0 1 -1 0 0 0 0];

internalField   nonuniform List<vector> 
20933
(
(0.997344 -0.000278128 -1.74846e-23)
(0.989371 -0.000804373 7.69284e-22)
(1.02437 -0.00319649 -1.1304e-22)
(1.00028 -3.25742e-05 -9.26524e-25)
(1.00078 -0.00828231 5.37891e-23)
(1.00048 -0.00879377 -5.26023e-23)
(1.03746 -0.150148 -7.81538e-22)
(1.09338 0.0629695 -2.00393e-20)
(1.00695 -0.0744573 -1.99322e-21)
(1.0983 0.0638461 1.43483e-20)
(1.04779 -0.135035 -2.16515e-21)
(1.18797 0.11462 -8.11899e-22)
(0.988565 -0.0483037 -3.7214e-22)
(0.997221 -0.000330507 1.12465e-23)
(0.996256 -0.00314347 1.15008e-22)
(1.00027 -4.22812e-05 -6.63979e-25)
(1.25734 -0.0183846 8.64878e-22)
(1.10491 0.00128286 -1.11731e-20)
(1.00572 -0.112153 -1.55527e-21)
(0.991616 -0.000391553 -6.74807e-22)
(1.01807 -0.0856413 2.44647e-21)
(1.1837 0.113836 -1.40715e-21)
(1.10035 0.0693036 -1.08518e-20)
(1.12563 -0.174413 -1.3464e-21)
(1.02259 -0.0013875 8.40735e-24)
(0.994496 0.076441 -3.05775e-20)
(1.00845 -0.00243957 -4.98512e-23)
(0.99616 -0.0520242 1.16691e-21)
(1.17389 -0.164257 -1.07073e-21)
(1.00807 -0.113384 5.32911e-21)
(0.998881 -0.00204783 -1.6075e-24)
(0.945269 0.014787 4.67312e-20)
(1.12906 0.10713 8.85867e-21)
(0.993756 -0.0303084 1.23344e-22)
(1.00008 -0.00151989 5.358e-24)
(0.998938 -0.00220716 -5.15682e-24)
(1.08652 0.0797577 -2.15489e-20)
(0.999894 -3.346e-06 -1.67295e-24)
(1.0139 -0.0176629 -2.15978e-23)
(1.11435 0.0027099 -3.92288e-21)
(1.03787 -0.00757284 4.61268e-23)
(1.09849 0.129253 1.53492e-20)
(1.0314 0.0390123 -8.86254e-21)
(1.00756 -0.00284826 4.15948e-23)
(0.994178 0.0734484 1.20619e-20)
(0.977495 -0.00154749 4.41348e-22)
(1.08856 0.00888367 -3.0687e-20)
(1.23569 0.0579652 -4.01737e-21)
(0.999618 -9.8233e-05 -4.25541e-25)
(0.977551 -0.0425725 2.26063e-22)
(0.999989 -0.00161802 -1.32507e-23)
(1.06959 -0.00794671 3.12384e-21)
(1.17692 -0.103458 9.91909e-22)
(1.00039 -0.00357107 -1.75533e-23)
(1.21428 -0.105759 -4.54245e-22)
(0.954073 -0.0173779 -2.55106e-22)
(0.981767 -0.0285939 5.81941e-23)
(0.998772 -0.00264828 2.83705e-24)
(1.01004 -0.0435104 -9.54306e-22)
(1.25317 -0.0141142 -5.65407e-22)
(0.975945 0.027457 2.5435e-20)
(0.969058 -0.00438629 7.34085e-22)
(0.989899 -0.00328837 -1.90798e-22)
(1.11021 0.0632926 -9.43964e-22)
(0.999401 -9.60664e-05 2.03767e-24)
(0.996121 -0.00750103 3.31678e-24)
(0.996127 0.0526444 7.73688e-22)
(0.995656 -0.00783897 7.11764e-23)
(1.11251 -0.0691105 2.66888e-21)
(0.99973 0.0776172 1.14086e-20)
(1.0378 -0.0385182 7.07434e-22)
(1.26332 -0.0481192 3.19991e-22)
(0.996611 -0.00314295 -2.47769e-23)
(0.986689 -0.0355112 1.294e-21)
(0.999705 0.0119777 -1.14634e-20)
(1.07045 -0.077566 -2.53071e-22)
(0.999879 0.0725445 5.3086e-21)
(0.96028 -0.00500018 2.15372e-22)
(1.11248 0.00152302 2.46371e-21)
(1.00333 0.0306145 1.68563e-20)
(0.996932 -0.00778542 1.87532e-22)
(1.00212 -0.00419445 -5.0118e-24)
(1.1559 -0.165823 8.69495e-22)
(1.00778 -0.0720919 1.65644e-21)
(0.971765 -0.00348327 -8.09333e-22)
(1.02926 0.0367235 4.27578e-20)
(0.991007 -0.0450471 -6.9417e-22)
(0.907158 0.0499076 4.3802e-21)
(1.1068 0.059028 -8.82504e-21)
(0.98202 0.0777161 1.93087e-20)
(1.10081 0.0239006 -1.198e-20)
(1.00033 -6.34211e-05 3.62752e-25)
(1.00005 -0.000291222 4.17253e-24)
(0.951856 0.00490175 -1.30035e-20)
(1.24099 0.052502 2.03536e-21)
(0.990374 -0.0034468 -1.12532e-22)
(0.960774 0.0031673 1.99356e-20)
(0.99958 -0.00426637 1.88485e-23)
(1.05166 -0.130432 -8.78505e-22)
(1.06478 0.0136405 -1.15461e-20)
(0.979304 0.0798775 -5.71611e-20)
(0.97833 -0.0101116 6.73854e-23)
(0.971373 0.0734965 -6.24402e-20)
(1.16358 -0.0938308 -6.57638e-22)
(1.09348 -0.00265074 -7.50063e-21)
(1.09439 -0.0748643 -1.59162e-21)
(1.02153 0.0862705 2.17535e-20)
(1.1511 -0.0772838 -1.66176e-21)
(0.989053 -0.000468355 -7.53168e-22)
(1.03633 0.0979956 4.97269e-21)
(1.18178 -0.167679 -3.52127e-21)
(1.03289 -0.149646 -1.81192e-21)
(0.980895 -0.0225687 5.31537e-22)
(1.03121 -0.0199843 -6.51729e-22)
(1.07204 -0.0715308 -3.53951e-22)
(1.00008 -7.79633e-05 -1.06032e-24)
(1.04501 0.0636202 2.10658e-20)
(0.997424 -0.00728064 -7.07729e-23)
(1.15681 -0.105051 1.27319e-22)
(1.00286 0.0255735 -3.98445e-20)
(1.00033 -4.54487e-05 7.57178e-26)
(1.02892 -0.0890723 1.37224e-21)
(1.13005 0.018644 -5.261e-21)
(1.01094 -0.0497544 -1.32443e-21)
(0.993616 -0.0287661 -1.31263e-22)
(1.1058 0.00294331 5.83765e-21)
(1.15661 0.119531 -2.16033e-20)
(0.995901 -0.0500904 9.64866e-22)
(0.939488 0.0175436 -1.3604e-20)
(1.04125 0.0655888 1.12347e-20)
(0.99265 -0.0577808 -9.23274e-22)
(0.977198 -0.0409762 -7.00906e-22)
(1.03797 -0.00394373 3.97554e-22)
(1.01311 -0.0162377 1.35771e-22)
(1.01713 0.0809799 -2.95191e-20)
(1.09021 -0.00522468 -2.11439e-21)
(1.21386 0.0722619 -5.27215e-21)
(1.02094 -0.08613 -1.04869e-21)
(0.983095 -0.0101365 6.06892e-22)
(0.994897 -0.0764082 4.04801e-21)
(1.02543 -0.0918995 2.7089e-22)
(0.985312 -0.0367063 -1.27154e-21)
(1.26387 -0.0592346 8.76545e-23)
(0.968608 0.0802402 -1.96582e-20)
(1.18974 -0.00455683 2.72584e-21)
(1.01627 0.0834085 2.66534e-20)
(1.13303 0.1321 -2.23516e-21)
(0.971888 -0.0107432 -5.62952e-22)
(1.16357 0.11166 -1.51977e-20)
(1.00953 -0.00326822 1.12365e-22)
(0.971423 -0.00983738 1.1281e-21)
(1.00108 0.076123 1.35859e-21)
(1.00007 -0.000249189 -2.66905e-24)
(1.00621 -0.0667474 6.38806e-22)
(1.00206 -0.00376994 5.81681e-24)
(1.12971 0.134658 1.23362e-20)
(1.02572 0.0383548 -4.57846e-21)
(1.12094 -0.170707 5.88208e-21)
(0.950297 -0.0201592 4.88966e-22)
(0.987816 -0.0494896 7.86516e-22)
(1.22041 -0.114302 5.99629e-22)
(1.04132 -0.145023 1.18667e-21)
(0.998728 -0.00244882 -4.96254e-24)
(1.18717 0.000472755 -4.29947e-21)
(1.10655 -0.00267379 -1.14976e-21)
(0.910112 0.0518683 1.03949e-20)
(0.979441 -0.0102334 4.56572e-22)
(1.14948 -0.172461 3.37721e-22)
(1.06641 -0.0793374 2.94208e-22)
(1.08737 0.0763591 -1.26922e-20)
(1.2185 0.0720401 1.7112e-21)
(0.989748 0.0586676 1.19472e-20)
(1.05453 0.114544 3.3793e-20)
(0.991162 -0.0265158 2.51918e-23)
(0.918031 0.0144428 -1.54435e-20)
(1.13325 0.108375 1.08309e-20)
(0.996843 -0.000667909 1.96715e-23)
(0.989446 0.00734609 -3.00386e-20)
(1.07772 -0.0699527 -6.04731e-23)
(1.03033 0.101742 9.45846e-21)
(1.01242 0.0884519 -1.35022e-20)
(0.999843 -3.63448e-06 2.00794e-24)
(0.966006 0.0564111 8.56013e-22)
(1.05277 0.0999016 2.8658e-20)
(0.991019 -0.000643253 4.43851e-23)
(0.94791 -0.0145322 2.72925e-21)
(1.03732 -0.035957 -4.5493e-22)
(1.07022 0.010249 -2.94446e-21)
(1.15787 -0.0988621 1.37158e-23)
(0.937487 0.0439286 1.38296e-20)
(1.15485 0.115744 -7.37972e-21)
(1.22659 -0.0345927 1.4002e-21)
(1.06095 0.0101746 2.3281e-20)
(1.11143 -0.0632918 2.51911e-21)
(0.951101 -0.0211564 1.21983e-21)
(1.18767 0.0857129 -9.68284e-21)
(0.966905 0.0593288 -9.37242e-22)
(1.2336 0.0205544 -5.97635e-21)
(0.993005 -0.000251895 -4.58148e-26)
(0.933762 0.0434998 -1.35054e-20)
(1.20727 0.0476678 -1.23741e-20)
(1.22727 -0.0818701 -6.63602e-23)
(1.17556 -0.0968781 2.61192e-23)
(0.944474 0.0499724 -1.67079e-20)
(0.95937 0.0521253 3.92558e-20)
(0.969068 -0.0233864 -5.04554e-22)
(1.00122 -0.036975 -9.51729e-23)
(1.06956 -0.00470734 -4.27941e-22)
(0.95453 -0.0187718 -1.22143e-21)
(0.998677 -0.000126829 -1.07794e-23)
(0.997533 0.0540205 -5.698e-21)
(0.988381 0.0214158 -1.08146e-20)
(0.971526 -0.0135295 8.73819e-22)
(0.961533 -0.0320774 6.87359e-22)
(1.03201 0.0989121 1.46279e-20)
(0.999057 0.019366 1.73457e-20)
(0.998627 -6.06681e-05 5.62512e-23)
(1.00169 0.0216898 -2.6972e-20)
(1.15521 -0.0723688 -8.30125e-22)
(1.01404 -0.0142752 -2.7784e-22)
(1.00557 -0.0537271 1.07789e-22)
(1.02883 0.0605685 -2.26424e-21)
(0.960926 0.0888825 1.83364e-20)
(1.09817 0.0213744 1.58379e-20)
(1.03745 0.0940291 -2.3932e-20)
(0.981991 -0.0101147 -1.02881e-21)
(1.00313 -0.036469 -4.2979e-22)
(1.00012 -8.57117e-05 2.73637e-26)
(0.999031 -4.4076e-05 -2.49842e-23)
(1.00064 -0.00693774 1.03497e-22)
(1.1281 0.0161032 2.50466e-21)
(1.12483 -0.107617 -2.04456e-22)
(1.02328 0.0838449 -2.77528e-20)
(1.00259 -0.0893206 1.10569e-21)
(1.02078 0.031069 1.64209e-20)
(0.992257 -0.0434434 -1.23971e-22)
(1.08864 -0.0716501 1.10618e-21)
(0.991763 0.0574487 2.13274e-20)
(0.954362 0.00385248 6.72058e-20)
(1.02981 0.0573685 3.89787e-20)
(1.00199 0.0703558 -3.26978e-20)
(0.960023 -0.0314332 -6.13689e-22)
(1.0937 0.11584 -9.30028e-21)
(1.01179 -0.0481969 1.44021e-21)
(1.09665 -0.00429954 1.51889e-20)
(0.997258 -0.00657295 -1.28709e-22)
(1.25255 -0.0951145 -1.7158e-21)
(1.15996 -0.0473594 5.78144e-21)
(1.07726 -0.0236772 4.83468e-21)
(0.999637 -7.47338e-05 4.8744e-25)
(0.987265 -0.000651204 8.84617e-22)
(0.957536 0.0907444 -2.81984e-20)
(1.15319 0.0422206 3.72648e-20)
(1.01337 -0.0190422 1.0779e-22)
(0.974825 -0.0461492 -1.26833e-21)
(1.11947 -0.103472 -2.02272e-23)
(1.0707 -0.159887 2.90746e-21)
(1.09447 0.128316 -1.91814e-21)
(0.99591 -0.0755061 -1.11851e-21)
(0.973539 -0.001882 -8.16063e-22)
(0.998415 -0.0591027 1.31764e-21)
(0.994293 -0.0254973 -1.4539e-22)
(0.99933 -7.41515e-05 6.26713e-25)
(0.991359 -0.0414738 6.31761e-22)
(1.04487 -0.145049 -5.75417e-22)
(0.967865 0.0771021 3.72181e-20)
(1.24928 0.0252764 2.80801e-21)
(0.982374 -0.0215191 -1.02186e-21)
(1.01865 0.0325838 -2.5334e-20)
(0.961034 0.0558825 -4.65867e-21)
(0.991628 -0.0468155 1.41605e-22)
(1.00061 -0.000249027 -5.74957e-25)
(1.00554 -0.0693869 -1.16056e-21)
(0.996317 0.049634 6.58611e-21)
(1.23422 -0.132009 -1.44197e-21)
(0.977787 0.0254651 -3.84169e-20)
(1.00005 -9.16834e-05 5.93275e-25)
(0.963336 -0.0351207 1.16417e-21)
(1.04421 0.114561 2.72352e-21)
(0.999443 0.0188282 3.53434e-20)
(1.02933 -0.066403 -1.78427e-22)
(0.982975 -0.0272967 6.50485e-22)
(0.945311 0.0821455 2.9922e-20)
(1.22015 -0.0668514 -2.39441e-22)
(1.21996 -0.0383409 -9.91525e-22)
(0.974813 0.0744761 2.576e-20)
(0.93989 0.0494485 -2.8222e-21)
(0.990472 -0.0484123 -4.18465e-22)
(1.04278 0.116936 -1.7427e-20)
(1.13445 -0.00722642 -7.26494e-21)
(1.00481 0.0308475 -4.6054e-20)
(1.05813 0.0699001 1.29205e-20)
(1.00063 -0.000183034 6.49357e-26)
(1.25618 0.0276093 -2.34237e-21)
(1.0814 0.0735224 7.66488e-21)
(0.996702 -0.000586299 7.04396e-23)
(1.00138 -0.0942239 -4.44787e-22)
(1.22026 0.0245056 -2.50522e-21)
(1.13615 -0.164777 -9.93098e-22)
(1.20533 0.0420007 7.02073e-21)
(1.16427 -0.0287813 -3.35915e-21)
(1.00011 -0.000159656 -6.29259e-25)
(0.999652 -0.00301378 4.87293e-23)
(0.983494 0.0881444 -4.57942e-20)
(1.00136 -0.0124184 -2.66137e-23)
(1.0118 -0.112552 -1.22959e-21)
(0.993475 -0.0623502 1.39086e-22)
(1.18073 0.108984 -8.17087e-21)
(0.971613 -0.00428946 -1.44524e-22)
(1.03145 0.104287 1.67335e-20)
(1.18004 0.0140256 9.3277e-21)
(0.996258 -0.0596 7.91857e-22)
(0.957767 -0.00601711 -5.9907e-22)
(1.0916 0.0729775 1.3823e-21)
(1.17755 0.0832288 7.11974e-21)
(1.00007 -0.000163319 -9.13944e-25)
(0.979493 0.0550507 3.82004e-20)
(1.04061 0.0688508 5.67195e-21)
(0.992426 0.0155309 -9.33629e-21)
(1.21682 -0.096465 -3.61031e-22)
(0.999428 -7.08563e-05 -1.78586e-24)
(0.946393 0.0790268 -1.96521e-21)
(0.997383 -0.00456059 -1.23685e-22)
(0.995213 -0.0458223 2.60297e-22)
(1.18375 0.0815015 -2.98804e-21)
(1.22612 0.0184633 7.45537e-22)
(0.984774 -0.0486754 -1.08187e-21)
(1.21959 -0.0764371 -3.15914e-22)
(1.02354 0.0364434 6.53277e-21)
(0.953547 0.0047408 2.44775e-20)
(1.01001 0.0801994 -3.49506e-20)
(1.15581 0.0199017 -1.11671e-20)
(0.909075 0.0193184 3.32859e-21)
(1.0003 -9.41409e-06 -4.6829e-25)
(0.992389 -0.0251284 -1.68979e-22)
(1 0.0114012 4.67117e-20)
(1.18018 -0.138978 2.76928e-22)
(1.08079 0.0700989 -1.80847e-20)
(0.988569 -0.0359057 -5.10601e-22)
(0.996476 0.0716214 3.25078e-20)
(1.16617 -0.00247151 5.98113e-21)
(1.00018 -0.00327203 2.31033e-23)
(1.16164 -0.00672974 -5.2238e-21)
(1.04514 0.059108 -2.71462e-20)
(1.14514 -0.146168 1.30048e-23)
(0.972122 0.0067506 -6.97332e-21)
(1.05823 0.10431 4.08146e-21)
(0.99939 -0.000298669 -1.93795e-24)
(1.03301 -0.0180564 -1.26773e-21)
(1.12067 0.0898969 9.48679e-21)
(1.10391 0.000705063 2.13641e-20)
(0.99798 -0.00010359 -5.51483e-23)
(1.05528 0.111443 -3.02268e-20)
(1.01209 -0.0428278 -9.86774e-23)
(0.898368 0.0505781 -1.82682e-21)
(1.02193 -0.0905689 -1.94398e-21)
(0.970899 -0.012328 3.75736e-22)
(0.987938 -0.000750745 -8.20578e-22)
(1.01108 0.0830758 3.90113e-20)
(1.05272 0.0973711 -4.56829e-20)
(0.97482 -0.00268885 3.633e-22)
(1.08992 0.0673829 4.91714e-21)
(0.981627 0.0740474 -1.1165e-20)
(1.00144 -0.0133277 -2.89372e-23)
(1.04265 0.00549322 6.70666e-21)
(1.02256 0.01537 -1.85066e-20)
(0.899635 0.029033 2.20092e-20)
(0.997735 -0.00381896 3.75232e-23)
(1.16003 0.0899471 -1.63336e-20)
(1.15501 -0.0520092 -1.66806e-21)
(0.952636 -0.0169594 -4.3427e-22)
(0.999617 -6.20269e-05 -8.36461e-27)
(0.999738 0.00643916 2.80731e-20)
(1.10004 0.132404 8.98402e-21)
(1.22872 -0.00331349 -1.25645e-20)
(0.99113 0.087972 -1.17903e-20)
(1.15117 0.0229957 5.59926e-21)
(0.980225 -0.0282571 4.59339e-22)
(1.09654 0.111983 -6.93846e-21)
(1.1056 -0.00150672 -3.76933e-21)
(1.14751 0.0390577 1.06066e-20)
(0.904994 0.0312264 -5.75618e-20)
(1.02377 -0.0792653 6.18642e-22)
(1.19197 0.0736183 3.88814e-21)
(0.99111 0.0195942 -2.4478e-20)
(0.973634 -0.0469206 1.15625e-21)
(1.12905 -0.0169323 5.59187e-22)
(1.05795 -0.130689 2.03456e-21)
(1.12306 0.0857639 -4.19922e-21)
(0.994282 -0.000187767 -1.20946e-21)
(1.09266 0.00979156 -3.49877e-21)
(1.22948 0.00394995 5.44364e-21)
(1.19438 0.0685702 9.79812e-21)
(1.00118 -0.00417292 4.21109e-23)
(1.0861 0.00680446 3.24637e-20)
(0.99727 0.0131355 -2.34443e-20)
(1.04689 0.0416209 4.87883e-20)
(1.13622 -0.160447 -3.92801e-21)
(0.995354 -0.0240468 3.21154e-22)
(0.947567 0.0460474 -1.94752e-20)
(0.946336 0.0169515 -5.01281e-20)
(0.99771 -0.00615325 -2.84598e-23)
(0.964843 -0.0343232 5.40015e-22)
(1.01613 0.060891 5.15302e-21)
(1.01586 -0.118024 -9.98167e-22)
(1.08294 -0.0744831 -8.62953e-22)
(1.09312 0.123989 2.89429e-20)
(0.989731 -0.000502974 1.02327e-21)
(0.894973 0.026288 3.74252e-20)
(1.03074 -0.0593385 -2.62958e-23)
(1.15059 0.0968154 5.23757e-21)
(0.99189 -0.00898589 5.49159e-23)
(0.995538 0.013011 -9.99298e-21)
(1.06135 0.101755 -8.461e-21)
(1.07748 -0.0184737 -4.8983e-21)
(1.09526 -0.0806378 2.36291e-22)
(1.22765 -0.028297 -2.18128e-21)
(1.20495 0.0521659 1.31133e-21)
(0.99973 -0.00463096 -9.45766e-25)
(1.01321 0.0502201 -9.51589e-21)
(1.27004 -0.0422668 -7.63736e-22)
(1.1019 0.0588803 2.16229e-20)
(0.901047 0.0531132 5.76246e-20)
(1.22659 -0.0923308 1.25348e-22)
(1.063 -0.0682579 1.06712e-21)
(1.00035 -0.00753245 -1.04769e-22)
(1.23635 0.0648077 8.55087e-21)
(1.23974 0.0148849 3.43355e-21)
(0.979594 -0.0220406 1.77122e-21)
(1.07857 0.114021 -2.68564e-21)
(1.00006 -0.00123262 -1.94467e-23)
(0.978578 -0.0378531 -2.43586e-22)
(1.01322 -0.012942 4.02782e-22)
(1.2125 -0.0620677 -2.01776e-22)
(0.992408 -0.0398152 5.34455e-22)
(0.999634 -0.000126076 -1.25811e-25)
(0.991626 -0.0514885 1.56875e-21)
(1.19365 0.0848318 -5.08181e-21)
(1.14605 -0.154344 -1.33537e-21)
(1.04339 -0.0626085 -1.09906e-23)
(0.967718 -0.0239909 -1.02329e-21)
(1.21295 0.023118 -8.36703e-21)
(1.15837 -0.0257925 5.41921e-21)
(0.980069 -0.0484986 -5.74496e-22)
(0.952748 -0.00859311 1.88772e-21)
(1.0009 -0.0043671 -7.30515e-24)
(1.11802 -0.0721313 -2.80923e-21)
(1.02583 -0.127085 -1.50511e-22)
(1.01074 -0.00274033 -9.17412e-23)
(1.03224 -0.0633829 3.57712e-22)
(1.17318 0.0794857 -1.11471e-20)
(1.0483 0.0385412 -2.98374e-20)
(1.19118 0.00849815 2.09268e-21)
(0.999348 -0.000255723 -2.83222e-24)
(0.939615 0.0869035 -4.3563e-20)
(1.01088 -0.00141838 -3.61064e-22)
(0.999992 -0.00133507 2.33695e-23)
(1.0357 -0.00912623 1.17595e-21)
(0.968271 -0.034519 -8.72013e-22)
(1.01067 -0.0820801 1.33197e-22)
(0.961908 0.0485211 -2.3169e-20)
(1.0222 -0.0488289 2.83862e-23)
(1.13014 -0.00644946 -3.31295e-21)
(1.02153 -0.110111 2.15518e-21)
(1.01884 -0.111999 -2.8604e-21)
(1.09582 0.120534 -2.00934e-20)
(0.997001 -0.0463299 -4.1073e-22)
(0.995348 -0.0720802 7.20526e-22)
(1.00299 -0.0926916 9.8613e-22)
(0.999661 -4.32735e-05 5.79954e-25)
(1.16222 -0.0861567 7.62553e-22)
(0.930531 0.0833103 -4.17314e-21)
(1.07294 -0.15437 7.23032e-22)
(0.966726 -0.0432729 -2.10598e-22)
(1.07806 0.109301 -3.65167e-22)
(0.985624 -0.0459147 -1.13498e-22)
(1.05795 0.0657925 -1.0755e-20)
(1.16584 0.114805 -1.71621e-21)
(0.996981 -0.00488032 1.94697e-22)
(0.998575 -0.000184631 8.33963e-24)
(1.03692 0.0627039 3.33227e-21)
(0.907663 0.0645305 1.88005e-20)
(1.0581 -0.15297 1.97861e-22)
(1.1382 0.125517 2.76588e-21)
(1.20386 0.0885518 -1.39581e-20)
(0.971733 -0.0384431 -3.69926e-22)
(0.971778 -0.040325 -8.64577e-22)
(1.01747 0.0635822 -1.41905e-21)
(1.09057 -0.00965902 3.17816e-21)
(1.15533 -0.157825 2.86582e-21)
(1.06146 -0.124842 -1.50512e-21)
(0.97869 -0.00161014 5.66781e-23)
(1.05581 -0.0131368 2.34511e-21)
(0.94622 0.0255273 -8.68504e-21)
(1.12904 0.00765323 -2.02432e-20)
(1.00028 -7.16247e-05 4.67089e-25)
(0.970094 0.0707105 4.02488e-20)
(1.03323 -0.0564661 -4.7102e-23)
(1.01189 -0.0835522 1.59049e-21)
(1.04727 0.113334 -1.58427e-20)
(1.01574 -0.0210756 3.3479e-22)
(0.9912 -0.00861018 -1.71086e-22)
(0.99942 -0.000428642 -2.31697e-24)
(1.14599 -0.0634753 1.74584e-21)
(0.969025 -0.0184961 -8.0816e-22)
(1.00029 -1.45064e-05 7.16842e-25)
(1.14087 0.127596 -6.79595e-21)
(1.2365 -0.123991 -9.19632e-22)
(1.01137 0.0489671 -1.64233e-20)
(0.999294 -0.00010583 -2.80667e-25)
(1.00027 -0.00391227 -9.60309e-24)
(0.984679 -0.0471182 -5.3054e-22)
(1.00001 -7.50769e-05 1.11734e-25)
(1.05906 -0.157663 -1.01793e-21)
(1.17265 -0.154352 -1.26553e-21)
(0.999763 -0.00392518 1.06167e-23)
(1.00907 -0.0657885 -4.60306e-22)
(0.949146 -0.014347 6.48116e-22)
(1.04661 0.102795 -1.69075e-21)
(0.989356 0.0869247 9.57493e-21)
(0.997341 -0.00416022 3.9262e-23)
(1.00289 -0.00101044 -1.63015e-23)
(0.999836 -0.0878671 -2.63351e-21)
(0.985616 0.079166 3.04933e-20)
(1.00479 -0.0300931 3.52324e-22)
(0.980705 0.0516451 -1.07635e-21)
(0.983942 -0.0110704 -7.01452e-23)
(0.896509 0.0417327 -1.56825e-20)
(1.03729 0.012475 -3.64703e-21)
(1.12473 0.0554799 -2.24944e-20)
(0.918468 0.0517834 -1.71509e-20)
(1.26726 -0.0310921 -9.43383e-23)
(0.991002 -0.00281205 -6.24174e-23)
(1.14792 -0.0511912 1.54688e-21)
(1.00865 -0.0310695 -4.21481e-23)
(0.991486 0.0786338 7.74498e-21)
(1.01636 0.0550488 2.23382e-20)
(0.973317 -0.007736 4.41749e-22)
(1.24505 -0.0906588 1.35716e-21)
(1.11528 -0.022164 -5.26083e-22)
(1.06042 -0.0722741 -1.98368e-23)
(0.995554 -0.000300709 -1.09678e-22)
(1.25266 -0.105021 1.70092e-21)
(1.00027 -2.36814e-05 1.38661e-24)
(1.04406 0.0996845 9.90175e-21)
(0.947711 -0.0135104 -2.49805e-21)
(0.994538 -0.0576248 -2.66833e-22)
(0.997167 -0.0276937 2.92669e-22)
(1.00751 -0.0528195 1.59991e-21)
(1.14777 0.0923274 1.60894e-21)
(1.18812 0.0137643 -7.94756e-21)
(0.998273 -6.0659e-05 7.90654e-23)
(1.02478 -0.0468854 -6.43518e-23)
(0.999897 -0.00012074 6.95406e-25)
(0.897429 0.0389301 1.17613e-20)
(0.950432 0.0230244 1.78897e-20)
(0.995363 -0.00103957 -5.62816e-23)
(0.975324 -0.0121631 -4.56743e-22)
(1.03208 -0.0344723 6.2452e-22)
(1.01802 0.0578422 9.60128e-21)
(0.947314 -0.0213445 -1.26647e-21)
(1.20639 0.0922911 -3.06471e-21)
(0.96862 -0.0442034 2.3543e-22)
(1.00618 0.0798072 -7.00006e-22)
(1.12814 0.0594485 -2.54821e-21)
(0.968256 -0.0201209 -5.47662e-22)
(0.902639 0.0212389 -2.39962e-20)
(1.04898 -0.00226858 -2.2148e-21)
(1.01383 0.0843305 -2.08539e-20)
(0.993724 -0.0127804 2.53943e-23)
(1.02769 -0.134976 4.53145e-21)
(0.976945 0.00410658 -5.84264e-20)
(1.01428 -0.0389839 2.31884e-22)
(0.905836 0.068753 -8.51786e-21)
(1.02633 0.0673812 1.22864e-21)
(0.906174 0.0237764 -5.76719e-21)
(0.991499 -0.00289827 4.01589e-23)
(0.992177 -0.000569067 2.9461e-22)
(1.02835 -0.0849288 -4.1727e-22)
(1.15871 -0.0402719 -7.94867e-21)
(1.01457 -0.0209207 -3.70099e-22)
(1.02738 -0.0766846 -1.33571e-22)
(1.01011 0.0746243 1.89302e-21)
(1.00532 0.0863393 6.45142e-21)
(1.03888 0.00225301 4.99627e-24)
(0.988222 0.077221 -2.17864e-20)
(0.913678 0.0733523 4.66604e-21)
(1.12661 0.103223 1.73579e-20)
(0.99896 0.00731943 -4.01446e-20)
(1.04351 0.0322929 -9.37297e-21)
(1.00513 -0.0160015 -1.20833e-22)
(1.03413 0.0644807 -1.09381e-21)
(0.993923 -0.0716061 -6.23049e-22)
(0.970105 -0.0431497 6.17469e-22)
(0.998852 -0.00117061 3.64241e-24)
(1.05442 -0.072325 -3.51968e-23)
(1.10865 -0.139325 -4.4181e-22)
(1.07784 0.0379835 7.95166e-21)
(1.0793 -0.00843981 6.00734e-21)
(1.00258 0.0284016 3.30634e-21)
(1.00951 -0.0453888 8.76178e-22)
(1.11803 -0.0135567 3.12417e-21)
(1.00392 0.0224822 -3.86269e-21)
(1.00979 -0.0325601 3.29097e-22)
(1.09202 -0.0844915 -4.90336e-22)
(0.999929 -0.000145846 -1.1998e-25)
(1.00044 -0.000208288 2.87575e-25)
(1.07673 0.0343572 -2.86892e-23)
(0.995439 -0.0619447 -7.74704e-22)
(0.975315 -0.0402655 9.62881e-22)
(1.00049 -0.000197963 -3.43308e-25)
(1.00012 -0.00272366 1.34432e-23)
(1.11464 -0.0260924 -9.25912e-22)
(0.999454 -6.92563e-05 9.73814e-25)
(1.23876 0.0445102 -4.35005e-22)
(0.898413 0.0315861 3.0276e-20)
(1.1332 0.127725 1.03653e-21)
(1.10903 0.0681688 -6.44336e-22)
(0.969308 -0.0075662 -7.01414e-22)
(1.02815 0.0895105 7.62801e-21)
(1.22981 0.0696743 -4.42968e-21)
(1.00519 -0.0280448 -2.08987e-23)
(0.975979 -0.0134933 -4.39935e-22)
(0.997728 -0.00353798 1.93288e-25)
(0.999367 -0.000383446 7.0957e-25)
(1.00176 -0.00443025 -1.56866e-23)
(0.997803 -0.0294103 2.5848e-22)
(1.04218 -0.134242 2.31712e-21)
(1.0947 0.0842528 2.51027e-20)
(1.18394 -0.0398848 1.45518e-21)
(0.965055 -0.00356396 1.60578e-22)
(0.999904 -8.4543e-05 -1.42765e-26)
(1.00143 0.0493154 2.2029e-20)
(1.24566 -0.0144045 -4.00222e-21)
(1.25433 -0.0650561 -4.1485e-23)
(1.0165 -0.0400637 -2.52783e-22)
(1.20946 0.06957 6.35515e-21)
(1.05267 -0.0750954 -1.28728e-22)
(0.983451 -0.000861082 -1.23684e-22)
(1.00248 0.0193531 1.9436e-20)
(0.978852 0.000800532 -7.48493e-20)
(1.06419 0.124143 -2.09251e-20)
(0.989769 -0.000402994 -6.92079e-22)
(1.06166 0.123427 1.62109e-20)
(0.969509 -0.00547882 2.757e-22)
(0.988123 -0.042911 -6.70352e-22)
(1.11919 0.120431 -1.94403e-20)
(1.00026 -8.84452e-05 8.28228e-25)
(0.991543 -0.0280888 -9.77697e-23)
(1.15927 0.0945032 5.59297e-21)
(1.12284 0.0939081 2.01182e-20)
(0.969523 -0.0216809 -1.39719e-22)
(1.02157 0.0579483 1.46591e-21)
(0.964339 0.0910894 -1.90703e-21)
(1.01479 0.0278248 -4.48587e-20)
(0.966614 -0.035398 1.35403e-21)
(0.953837 -0.00848784 -8.89001e-22)
(1.04671 -0.0592392 1.84557e-22)
(1.10935 -0.00194887 5.78825e-22)
(1.02127 0.0127751 -1.09931e-20)
(0.995645 -0.00140174 -1.93802e-23)
(0.974582 0.00948546 -2.18605e-20)
(0.994551 -0.0437546 1.39493e-21)
(1.03214 -0.134734 -3.05718e-21)
(1.14443 -0.0457528 1.75557e-21)
(0.936523 0.0886288 6.19378e-20)
(1.09609 0.0891994 -2.07477e-20)
(1.0135 0.0552798 -2.34762e-20)
(1.18141 -0.148361 6.13316e-22)
(0.962349 0.00230658 -3.3186e-20)
(0.970761 -0.0182448 8.14135e-22)
(0.989341 -0.0413017 4.83143e-22)
(0.923788 0.0111557 1.15408e-20)
(1.07433 -0.0260836 -1.55653e-21)
(1.04237 -0.124404 -4.08913e-22)
(1.01514 0.0779423 -4.80179e-21)
(1.00473 0.0766814 -1.46742e-20)
(0.980118 -0.0365751 -8.73779e-22)
(1.02579 0.0167008 -2.48781e-20)
(0.986095 0.0824813 -4.04926e-21)
(1.00546 0.0710577 1.91765e-20)
(1.03797 0.105142 6.3316e-21)
(1.0117 0.0779869 3.09621e-20)
(1.05443 0.0722028 -1.67814e-20)
(0.987438 -0.00358728 2.61324e-22)
(0.971896 -0.01971 9.66687e-22)
(1.00272 -0.00708232 -6.14317e-24)
(1.0137 -0.110455 3.226e-21)
(0.993516 0.0211865 -5.66146e-21)
(1.01892 -0.116763 1.87942e-21)
(1.17615 0.0893471 -5.06608e-22)
(1.14728 0.0509716 -1.35865e-20)
(0.976189 -0.0465334 6.65432e-22)
(1.23177 0.0424704 2.04309e-23)
(1.16616 0.107059 -5.53061e-21)
(0.991959 0.00910645 -1.72593e-21)
(1.22257 0.0324377 3.21288e-21)
(0.999775 -0.00328824 -4.80091e-24)
(1.05902 -0.0128646 1.10528e-22)
(0.987664 -0.0462726 3.2892e-22)
(1.22878 -0.0620829 1.09185e-22)
(1.24589 -0.060649 4.00943e-22)
(1.02235 -0.124017 6.26469e-22)
(1.03898 0.10094 3.58072e-21)
(0.977797 0.0890342 3.22148e-20)
(1.17075 -0.0244759 3.85799e-21)
(0.996852 0.00848608 1.7767e-20)
(0.905798 0.0607282 -2.09484e-20)
(0.99839 -0.000111522 -1.46231e-23)
(1.00319 -0.00103301 3.97953e-24)
(0.997025 -0.00537333 -8.69586e-23)
(0.97429 -0.0081606 1.57566e-22)
(1.07811 0.0799035 -1.31802e-20)
(0.924019 0.012726 -2.50705e-20)
(1.1311 0.0111477 1.74434e-20)
(1.02964 0.0958181 4.56639e-21)
(0.984018 -0.0223026 -5.0269e-22)
(1.07056 0.114652 2.75936e-20)
(1.06728 0.121195 8.81504e-21)
(1.23022 -0.114991 2.8996e-22)
(0.960508 -0.0117696 8.42373e-22)
(0.948508 -0.0201805 7.7456e-22)
(1.1802 0.0932505 1.40645e-21)
(1.0124 -0.0399517 1.47065e-22)
(1.18255 -0.0349064 2.20198e-21)
(0.973397 -0.0373905 1.96236e-22)
(0.95612 -0.0368983 -1.9613e-21)
(1.02086 0.0805714 3.43251e-20)
(0.992459 -0.00245884 1.27841e-22)
(1.0257 -0.0536454 -4.05442e-23)
(1.00663 0.0850099 1.60215e-20)
(1.22991 0.0344314 1.38602e-20)
(0.943854 0.0752906 7.07585e-21)
(1.01693 -0.0790773 -7.49765e-22)
(1.04144 0.0109624 1.1972e-20)
(1.23701 -0.0666361 -4.79067e-23)
(1.00153 -0.065401 2.92805e-22)
(0.977552 0.00718951 -8.04737e-21)
(0.989322 0.000495549 4.85477e-20)
(0.990441 0.0268264 -8.79091e-21)
(0.995111 -0.0312924 -6.33389e-22)
(0.93855 0.0158729 2.74523e-20)
(0.968345 -0.0325863 6.90571e-22)
(0.975645 0.0663566 9.96714e-22)
(1.11611 -0.0583723 -9.50277e-22)
(0.987837 0.0419102 -4.99368e-21)
(0.984967 -0.0441511 4.16076e-22)
(1.00005 -0.000209783 -3.9062e-27)
(0.98764 0.0368268 1.65542e-20)
(0.973577 0.0596583 1.92133e-20)
(0.977891 0.0721753 -3.08407e-20)
(0.988514 0.0319423 -1.9277e-20)
(1.07048 0.00551145 -4.28261e-20)
(1.12599 -0.0143946 -2.63701e-22)
(1.06682 0.0696897 -3.26813e-20)
(1.03948 -0.120568 9.96322e-22)
(0.99626 0.0179459 5.79928e-20)
(1.02122 0.0518422 -2.91556e-20)
(1.23916 -0.0190782 4.90279e-21)
(1.08241 -0.0109758 -6.33974e-21)
(0.987822 -0.00340901 1.46335e-22)
(1.27335 -0.0255878 3.33133e-22)
(1.02673 0.083205 -5.83592e-21)
(0.956454 -0.0288971 5.31432e-23)
(0.969193 -0.00466502 -8.41484e-22)
(0.990661 0.00476998 -1.15096e-20)
(0.983315 0.0451578 -3.54649e-20)
(0.991815 -0.0501731 -6.3138e-22)
(0.990744 0.049029 2.59651e-20)
(1.02485 -0.131548 1.0827e-21)
(1.20841 0.0637574 -1.05114e-20)
(0.993411 -0.000326654 -2.35115e-22)
(0.978401 0.0486831 -1.99242e-20)
(0.972764 0.0529467 5.0653e-20)
(0.906952 0.0348144 4.68057e-20)
(0.983075 0.084764 4.20225e-20)
(0.996839 -0.000379056 -2.45381e-23)
(0.984227 -0.0241568 3.31221e-22)
(0.998699 -0.00120743 -3.07615e-23)
(0.998235 -0.06858 -2.46271e-21)
(0.943783 0.0589065 -1.00694e-20)
(1.12197 0.0758825 -2.91133e-20)
(1.03472 0.0912418 -3.40374e-22)
(0.956515 -0.0354235 1.27751e-21)
(1.04385 0.0352535 2.94521e-20)
(1.03418 -0.0335941 -7.41469e-22)
(0.943489 0.0674397 1.45883e-20)
(1.08297 -0.0913021 -7.319e-24)
(0.994865 0.00731457 1.96528e-20)
(0.9936 -0.000322089 -1.43063e-22)
(0.951579 0.0553922 -3.38429e-20)
(0.936094 0.0715248 -4.06371e-20)
(0.982649 -0.0253003 -8.57782e-22)
(1.17412 0.0385054 6.75725e-21)
(0.952638 0.0470227 -3.37648e-20)
(0.996327 -0.000572947 1.05579e-22)
(0.923664 0.0346952 -5.28254e-21)
(1.04422 -0.0663568 -1.03018e-24)
(0.996287 -0.00039538 -2.76779e-23)
(0.959039 -0.0129691 -5.89344e-22)
(1.01396 0.0875169 -2.03539e-20)
(1.14519 0.067251 -1.74423e-20)
(1.00911 -0.0927819 1.46578e-21)
(0.995099 0.0851367 1.64973e-21)
(0.93188 0.080027 2.6922e-21)
(1.06695 0.117064 -2.99126e-20)
(1.05249 -0.00983848 -1.17405e-21)
(1.0003 -0.060895 4.67252e-22)
(1.1435 -0.0577838 -2.02576e-21)
(0.984239 0.0509641 2.92161e-20)
(0.932317 0.0348011 -3.05494e-21)
(0.901573 0.0336971 3.02751e-21)
(1.12051 0.0658944 4.50274e-21)
(1.00066 -0.00952211 2.0617e-23)
(0.976604 -0.00180614 6.59823e-23)
(1.02905 0.0858811 -2.07189e-20)
(1.00194 -0.00737311 1.1402e-23)
(0.985395 -0.00520815 -2.34045e-24)
(1.00306 -0.0115576 -5.25205e-24)
(0.99494 -0.0273379 -3.14194e-22)
(1.08257 -0.135303 1.54435e-21)
(1.17002 -0.136083 -7.7125e-22)
(0.965569 0.0714583 -4.48821e-20)
(1.01916 -0.0443399 1.40032e-23)
(0.999018 -0.000970201 1.90052e-23)
(1.02714 0.0542371 -4.52384e-22)
(1.14153 0.0931077 1.43022e-20)
(1.00198 -0.0117197 -2.30086e-23)
(1.18568 0.0746058 -8.32387e-21)
(1.00175 -0.00124116 -3.4379e-25)
(1.13642 0.0513453 1.53221e-21)
(1.01482 0.0293099 3.14282e-20)
(0.988605 0.0469723 -5.03523e-20)
(1.13716 -0.14175 9.53977e-22)
(1.15816 0.0390161 -9.23119e-21)
(0.99454 -0.0130715 -5.58634e-23)
(1.11296 -0.0915581 -1.31619e-22)
(0.995371 -0.00172578 -8.78836e-24)
(0.981111 0.0575281 -5.17621e-20)
(0.964057 0.0695961 1.38934e-20)
(1.20099 -0.141122 6.15382e-22)
(1.1639 -0.151103 7.9603e-22)
(1.12778 -0.155346 3.28607e-21)
(1.03138 -0.0785097 5.10245e-22)
(0.991884 0.0817042 3.48584e-21)
(1.03391 -0.0715861 2.48263e-22)
(1.10291 -0.126664 3.99475e-22)
(1.06908 -0.148352 -8.59734e-22)
(1.1065 -0.0803682 7.37453e-22)
(0.915331 0.0348504 2.56927e-20)
(1.13026 -0.171663 -6.1953e-21)
(1.22349 0.00955146 -8.81075e-22)
(0.985197 0.0161761 1.0062e-20)
(0.994755 -0.000438813 1.35584e-22)
(1.17813 0.0190184 3.92044e-21)
(1.03612 -0.0643248 -2.35259e-22)
(1.06917 -0.13622 1.44599e-21)
(0.995652 -0.00107981 1.59918e-24)
(0.999769 -0.00278918 -1.56893e-23)
(0.917033 0.0436835 -4.38154e-20)
(1.05108 0.0374267 2.2627e-20)
(1.19719 -0.149357 2.95574e-21)
(1.26933 0.001209 1.11492e-21)
(1.05329 0.0636048 -1.21961e-20)
(0.993828 0.0479432 -4.08912e-21)
(1.0235 0.0549943 8.89449e-21)
(1.21005 -0.0809888 2.02917e-22)
(0.985808 -0.0495441 1.17215e-21)
(0.99567 -0.0419135 -3.64899e-22)
(0.988813 -0.0447533 -9.89788e-23)
(1.03404 0.0559695 -2.96836e-20)
(0.969807 -0.00590575 7.7102e-22)
(1.00463 -0.0620282 6.70084e-22)
(0.99966 -4.30371e-05 -4.38252e-25)
(0.97355 -0.0193401 -1.61556e-21)
(0.997776 -0.000636276 1.8206e-24)
(1.10233 -0.141979 1.06785e-21)
(1.00914 0.0852809 -1.90447e-20)