/*--------------------------------*- C++ -*----------------------------------*\
  =========                 |
  \\      /  F ield         | OpenFOAM: The Open Source CFD Toolbox
   \\    /   O peration     | Website:  https://openfoam.org
    \\  /    A nd           | Version:  7
     \\/     M anipulation  |
\*---------------------------------------------------------------------------*/
FoamFile
{
    version     2.0;
    format      ascii;
    class       surfaceScalarField;
    location    "23";
    object      phi;
}
// * * * * * * * * * * * * * * * * * * * * * * * * * * * * * * * * * * * * * //

dimensions      [0 3 -1 0 0 0 0];

internalField   nonuniform List<scalar> 
176195
(
192.946
66.5888
-259.535
-473.113
101.876
371.237
-78.9608
-67.8003
146.761
77.5622
-238.325
160.763
-483.605
342.689
140.916
164.171
-321.432
157.262
-110.364
204.704
-94.3402
-84.5121
213.15
-128.638
-361.19
336.287
24.9031
-464.425
-8.6885
-222.71
344.545
-121.835
504.099
-360.024
-144.075
-146.097
341.131
-195.034
26.0569
-22.7435
-3.31339
-59.1519
-302.038
-47.7627
13.5283
34.2343
-457.028
99.0679
357.96
-400.161
82.3232
317.838
-192.647
291.061
-98.4148
-353.424
-130.181
-78.3181
200.036
-121.718
119.488
-119.23
-0.258005
377.618
-268.929
-108.69
123.332
-263.385
140.052
-358.601
296.026
62.5754
-12.466
161.434
-148.968
-22.8294
47.2497
-24.4203
-252.578
557.474
-304.896
-259.949
-177.813
437.762
-38.1044
101.782
-63.6774
421.725
-335.081
-86.6431
-309.242
-25.0653
334.307
-295.021
457.194
-162.173
-64.9113
-50.7285
115.64
-157.159
-115.557
272.716
178.067
56.7576
-234.825
-170.57
93.1105
77.4594
-111.451
-345.578
-143.312
-45.1384
188.45
114.791
154.372
-269.163
121.682
-430.924
-64.6048
-335.557
-95.8928
-37.893
133.786
-75.457
253.524
-19.2914
95.364
-76.0725
2.0584
23.9985
285.419
71.18
-356.599
650.016
-366.277
-283.738
423.74
-173.01
-250.73
420.579
-543.587
123.008
-391.047
478.539
-87.4915
199.188
-74.5564
-124.631
-483.804
367.468
116.336
-503.877
450.514
53.3629
-132.953
-155.916
288.869
-354.262
-129.543
627.521
-406.867
-220.654
-112.533
87.5764
24.957
-28.607
54.7085
-26.1016
113.243
-192.777
79.5338
-509.62
330.622
178.998
-166.258
278.419
-112.161
318.091
-120.213
-197.877
-82.9717
130.67
-47.6978
291.68
89.1903
-380.87
11.878
-440.763
428.885
-350.941
218.173
132.767
-211.911
439.507
-227.596
-2.28842
-51.4756
53.7641
-614.524
297.203
317.32
-18.6517
126.343
-107.691
56.8963
-23.3596
-33.5367
315.1
-200.308
-78.3703
42.3184
36.0518
-110.891
-82.5453
193.436
55.4781
-109.171
53.693
-150.088
87.681
62.407
229.08
-401.944
172.865
-360.696
18.0263
342.67
-289.425
170.015
119.41
-117.877
-171.548
427.314
-430.334
3.0204
11.3684
-91.6115
80.2431
-375.13
684.07
-308.94
-86.0224
174.376
-88.3541
342.471
161.627
-94.1428
135.333
-41.1902
-323.108
472.344
-149.236
73.3626
-77.4451
4.08242
-88.91
441.878
-352.968
82.9426
-96.4844
13.5418
144.231
-16.1229
-128.108
208.657
-468.606
168.839
71.4684
-240.307
-401.195
291.413
109.782
-598.274
431.028
167.246
250.186
-307.918
57.7316
94.3034
-82.935
-40.6537
-96.6872
137.341
3.88612
69.4765
-318.766
-190.853
224.899
-509.829
284.93
350.397
-183.572
-166.825
-556.177
574.474
-18.2975
130.802
-149.454
195.107
-124.318
-70.7892
-442.45
256.586
185.864
-69.4989
119.95
-50.4515
-144.143
205.126
-60.9833
-313.765
-67.7279
381.493
-41.7776
172.951
-131.174
-53.2439
303.43
-79.8163
-70.2717
141.246
88.1717
-229.418
-184.137
73.5862
110.551
207.239
-353.191
145.953
-298.728
76.0175
-118.316
166.05
-47.7344
364.043
-542.921
178.878
38.1529
18.7434
-167.451
49.1352
-18.2116
-29.5511
-174.724
82.7747
91.9497
88.7313
-80.2377
-8.49359
-230.5
531.982
-301.482
-115.101
76.9966
-223.163
56.9048
-163.577
101.648
61.9292
-149.066
-37.278
186.344
-608.731
610.937
-2.20653
-123.858
241.064
-117.206
582.654
-297.376
-285.279
-71.4819
124.454
-52.9723
548.181
-205.709
-329.535
482.095
-152.56
-143.961
234.116
-90.1553
-358.797
292.324
66.4733
75.9524
-370.973
139.629
-272.582
163.155
115.264
63.8304
19.2058
-83.0362
-204.208
355.713
-151.505
506.253
-507.684
1.43114
398.654
-168.812
-229.842
-271.451
147.593
141.956
-533.003
488.169
-361.42
-126.749
-89.5664
-133.596
-502.554
290.643
-217.808
-208.449
426.257
108.463
86.6445
65.7789
-85.0703
7.26493
136.966
-567.069
272.925
294.144
96.5938
102.594
-417.023
488.705
-71.6818
-411.18
97.4151
-117.076
222.503
-105.427
85.0807
-84.4901
-0.590575
-188.672
153.252
35.4207
99.8871
-44.4089
162.078
326.092
146.513
171.578
-199.554
142.948
56.6057
247.385
-142.082
-105.304
142.669
145.242
-287.911
501.501
-287.327
-214.174
-44.2563
-102.773
147.029
-196.689
79.613
-222.999
123.426
99.573
-207.101
138.765
68.3364
-112.836
398.255
91.5311
-109.867
18.3355
20.4861
10.7094
-31.1956
-85.341
-67.8238
153.165
229.892
-499.869
269.978
-13.2162
33.7024
150.765
110.253
-261.018
132.806
-362.385
229.579
278.871
144.869
-326.75
-157.567
484.317
-195.869
84.9778
94.1327
-255.023
160.89
-259.043
441.888
-182.846
-208.252
-234.198
-187.612
380.068
-192.456
98.1062
-222.487
124.381
315.074
184.926
-146.67
349.769
-203.1
-20.7051
103.648
-125.36
276.125
-354.874
193.09
161.784
429.824
-22.7431
-407.08
-155.735
86.6024
69.1328
-170.655
158.189
61.724
-155.465
93.7411
18.4362
-31.6524
-88.9668
84.1191
4.84774
40.158
-103.327
63.1692
79.6204
131.447
-211.067
-580.368
426.743
153.626
-289.323
324.131
-34.808
410.345
76.8659
-487.211
481.516
-478.182
-3.33395
-274.851
152.248
122.603
95.6277
-53.987
-41.6408
354.992
-237.849
-117.143
-89.4087
381.089
-239.611
-236.702
476.313
90.2197
-218.282
128.063
-12.5062
30.9424
15.5056
241.08
-3.09238
-355.509
-384.704
295.794
-139.379
-72.4928
211.872
-66.6802
-89.0551
-144.188
267.296
-123.109
-197.611
-152.817
350.429
21.9861
-19.9277
-131.766
-247.707
379.473
114.764
22.8807
-137.645
109.987
-7.47781
-102.509
124.588
-341.746
217.158
-49.5315
90.0823
-40.5508
-73.5261
-430.351
-276.682
77.7623
198.92
-194.365
-95.9855
290.35
124.466
-46.3938
-78.0722
160.355
-98.6311
-411.427
56.2691
355.158
-8.19926
-485.796
493.995
88.6761
-118.61
29.9336
22.4274
-78.8617
56.4343
79.8579
-158.514
78.6559
-240.99
111.924
129.066
-204.468
-375.901
-671.589
300.512
371.077
421.69
-211.854
-209.836
-45.5354
143.871
-98.3354
169.892
-114.64
-55.2511
-114.573
52.2848
62.2887
-287.201
167.828
119.372
-159.235
-29.4376
83.9225
-124.576
230.693
-178.101
-52.5912
-221.238
431.579
-210.341
483.576
-270.61
-212.967
88.7466
-56.9801
-31.7665
-143.73
99.4732
-56.7815
-3.91945
60.701
311.081
176.405
-487.487
-332.129
189.167
142.961
253.326
-579.492
326.166
398.724
-211.741
-186.983
170.194
-111.961
-58.2337
-0.975395
-325.775
37.2563
54.8858
-92.1421
-688.121
368.014
320.107
519.456
-519.456
-207.017
122.505
431.922
-432.898
0.592288
21.3938
-511.716
252.673
61.7691
143.356
-205.125
21.2359
-165.379
221.025
-143.463
9.80921
78.9221
144.767
-232.587
87.8201
3.04762
120.628
-123.676
-123.51
135.274
-11.7637
412.946
-132.277
-280.669
-353.404
206.735
456.524
-177.653
-223.656
-63.5446
169.748
146.557
-316.306
-143.864
69.2564
74.6075
61.7535
-102.165
40.4117
-168.902
83.5614
-245.149
299.075
-53.9265
62.5045
-132.003
-113.446
-86.1077
81.6262
154.595
-404.83
250.235
57.8564
37.7714
462.44
-231.953
-230.487
202.278
237.574
-439.852
23.5726
-300.255
548.842
-562.818
13.976
127.442
-99.5624
-27.8795
-133.391
-41.4542
174.845
111.109
-49.3551
-500.577
67.27
433.307
-48.9745
49.5733
-0.598724
308.021
-292.516
-240.073
406.541
-166.467
-555.063
358.11
196.954
322.456
-236.037
-86.4189
-205.197
-178.823
384.019
-143.575
359.207
-215.632
-147.656
24.1452
-13.121
-16.222
29.343
119.837
-185.936
66.0986
-47.2251
27.1411
20.084
264.102
-170.656
-93.4461
103.66
21.6141
-125.274
-170.18
288.668
-118.489
-244.483
169.712
74.7709
76.2608
48.2052
273.318
-145.999
-127.319
-180.635
313.441
-100.932
-129.838
230.77
111.554
-13.2925
-98.2617
-54.2009
103.741
-49.5405
-137.902
92.3668
-324.937
178.841
-185.762
371.571
-185.809
446.829
-17.0051
214.793
-436.032
232.726
-109.394
-42.4316
-19.7976
62.2293
-30.8473
-164.795
195.643
250.101
-381.866
-76.1594
486.505
-52.52
-131.617
230.744
17.9875
-248.731
-92.5469
42.1149
50.432
-421.271
4.24792
251.191
-450.036
198.844
16.3997
-29.5207
-4.76606
-44.2085
136.624
-237.555
-431.929
-68.648
167.247
196.915
-364.162
219.916
102.54
208.984
-93.5333
-115.45
139.227
115.45
-254.677
-236.77
115.058
121.712
78.0199
-354.441
276.421
340.727
-176.556
208.118
-110.012
75.11
79.548
-154.658
-87.8044
261.083
-173.279
13.2499
-36.0793
72.8419
-126.855
54.0126
223.022
-77.5967
-145.425
-210.948
-214.317
425.266
-176.775
-68.374
-107.061
-40.7593
147.821
49.7053
52.9935
-102.699
326.102
-169.279
-156.822
-141.691
70.2092
-514.951
320.417
194.534
419.724
12.198
127.262
-254.805
127.544
176.308
-96.6872
198.341
75.6768
-274.018
-61.3455
254.292
-105.549
-299.617
405.165
-201.163
383.57
-182.407
-114.939
273.81
-158.871
-56.9904
212.467
-155.477
149.622
-117.06
-32.5621
-93.1818
-77.3881
-232.202
132.653
99.5497
206.033
-76.5414
-129.492
-438.281
332.733
-84.5234
86.1516
-1.62826
-152.792
81.4009
71.3906
316.784
-192.196
-169.238
473.249
-304.01
234.249
-131.33
-102.919
10.2963
39.5151
-49.8114
48.7224
40.0242
23.0139
216.662
-239.676
110.65
14.1076
-124.757
89.8695
333.281
-423.15
164.635
519.011
-98.4323
171.039
125.681
-296.72
-152.451
313.652
-161.201
136.969
-48.2926
194.815
-120.965
-73.8503
-61.0184
185.286
-124.267
147.524
-262.463
465.278
-263
-366.888
364.714
2.17416
84.5404
-62.113
-50.4011
-5.3422
55.7433
544.069
-201.38
-56.4157
193.82
-137.405
-286.728
458.2
-171.471
274.877
133.842
-408.719
40.7866
-134.929
-544.926
292.348
-9.57721
119.564
-292.51
138.559
153.951
167.382
105.936
-313.239
-164.154
477.393
269.804
186.72
-66.1908
-48.5856
114.776
66.5288
8.35607
-74.8849
-196.917
325.815
-128.899
118.995
-111.557
-7.43818
-162.779
336.629
-173.85
66.5573
162.865
-229.422
88.1505
100.555
-188.705
143.236
-472.771
-160.526
251.63
-91.1037
-130.09
260.12
-130.03
-73.4092
111.317
-37.9079
238.815
-139.491
-99.3247
-226.602
96.7636
241.865
-452.813
-58.3949
201.369
-142.974
-159.054
73.0312
191.286
107.79
410.161
-140.357
107.917
-204.867
96.9495
353.852
71.6503
-425.502
-231.311
481.185
-249.875
-232.609
-266.773
16.8303
-29.3365
613.286
-395.027
-218.259
5.47615
107.21
-112.686
-105.907
51.7065
337.629
-370.284
32.6548
-109.149
197.3
-320.821
357.136
-36.3145
379.243
248.279
166.605
125.125
-291.731
-564.11
413.705
150.405
-331.083
422.71
-91.6264
-94.5405
197.675
-103.135
121.111
-44.8497
104.062
160.04
122.103
-282.629
-114.504
269.3
-154.797
397.968
215.318
333.414
-323.574
-9.83952
325.159
-538.295
213.136
334.657
-105.577
-124.235
-484.495
73.6119
-218.632
145.02
48.1577
-114.348
338.423
124.018
206.164
-129.538
-76.6261
226.639
204.94
136.201
226.8
-363
-68.3261
343.203
465.89
-235.999
-343.269
-38.0412
381.31
-291.003
-183.684
474.687
434.387
-280.366
-154.021
546.544
-294.599
-251.945
-54.43
-89.2995
-40.5048
235.701
-195.196
67.8107
108.021
-175.832
54.7437
-93.3183
38.5746
72.1344
228.745
-300.88
-97.8645
17.0339
80.8305
36.1133
82.8821
436.666
-210.027
399.947
144.122
-362.006
2.06688
359.94
6.18665
105.368
-192.813
114.494
-199.755
-235.218
434.973
-20.4184
31.1279
-21.2851
-76.5794
169.305
-460.308
233.967
-2.43247
-50.3383
52.7708
198.938
-55.067
-55.1681
-23.2022
-261.826
147.322
-54.6453
285.389
-324.289
499.276
-174.988
281.919
-481.675
461.912
-237.013
127.19
205.144
-332.334
-151.424
45.7433
105.681
-367.352
488.587
-121.236
304.662
-226.642
623.811
-255.005
-368.806
101.465
97.4724
348.859
-139.494
-209.365
-251.51
430.418
-178.908
166.951
-229.005
62.0548
-243.024
39.7868
203.237
-44.8106
-102.845
95.493
-352.866
257.373
12.3472
-73.7963
61.4491
466.249
-269.826
-196.423
297.957
-507.367
209.41
-214.637
156.242
133.124
101.126
61.5597
-19.0708
-42.489
243.508
-102.261
261.646
160.045
309.084
-183.282
-125.802
-284.27
166.52
117.75
-515.227
290.796
224.43
164.646
-84.7883
-52.6096
149.204
-96.5941
-187.656
-56.8275
332.721
4.9076
90.7291
-4.45186
-86.2772
-88.3135
163.424
-61.9356
-52.6379
-552.915
344.824
208.091
280.076
-152.814
205.619
193.105
193.146
-404.887
-473.795
237.8
235.995
-244.627
170.105
74.5224
120.168
-62.275
-57.8935
-243.783
-188.303
432.086
127.587
131.787
-259.374
-403.664
261.204
142.46
-248.173
-155.491
-636.31
419.456
216.854
-276.653
88.9973
628.401
-324.329
-304.072
-174.84
-177.2
352.04
-76.5841
85.2258
-8.64171
-131.744
249.999
-118.256
-199.862
105.321
-405.977
442.756
-36.7783
45.8131
130.252
-176.065
-410.468
219.735
190.733
-90.9273
-116.174
134.873
-114.566
-20.3067
282.986
127.175
575.331
-318.383
-256.948
253.15
-519.718
266.568
27.1471
-71.0383
43.8912
44.031
17.5287
-60.5949
120.48
-59.8847
274.866
300.465
49.5506
-114.462
-293.505
205.7
42.0436
-44.332
49.6224
156.411
345.406
81.9079
74.5413
46.5692
41.5143
-179.986
138.471
368.982
-520.304
151.322
-74.4202
328.544
-254.124
-22.7873
77.531
197.748
426.063
-137.158
384.267
-247.108
92.5493
-199.052
106.503
-358.669
-312.92
-38.3947
-44.348
82.7427
11.4748
-88.0589
-61.0464
73.3937
124.439
-51.5967
182.384
-357.224
-106.239
43.3759
62.863
-382.662
-70.0874
452.749
-338.423
523.104
-184.68
104.15
-412.033
307.883
71.3852
-118.693
47.308
-57.0787
-354.348
286.889
96.6284
-383.518
180.445
-106.833
208.478
-113.511
-94.9678
511.842
-166.417
-345.424
-424.008
53.7339
370.274
323.915
109.968
-433.883
-577.179
600.075
-22.8964
-106.981
-67.7432
-100.209
103.257
149.255
159.83
296.862
-632.41
335.547
412.851
-400.973
440.666
-153.777
586.148
-319.008
-267.141
-208.782
216.267
-7.48425
-25.2092
115.938
-68.235
-229.912
298.147
59.4683
459.987
-57.6217
-80.2805
174.632
-106.821
291.964
-219.83
113.974
60.5296
-174.504
158.614
-199.119
-134.176
13.9928
120.184
556.636
-556.636
194.773
-128.216
252.551
-134.25
-118.301
-348.276
-206.788
-144.068
89.6379
-422.825
-133.351
-31.7579
42.0541
152.321
-376.056
173.33
202.726
55.6319
-376.453
20.6619
146.872
-167.534
111.994
23.2799
77.0781
-13.2477
-71.0464
-352.962
131.273
-210.557
79.2835
51.0611
-394.33
-311.195
174.037
-160.616
-150.028
310.644
57.755
349.772
-407.527
-328.223
502.39
-174.167
-100.467
162.236
-1.42536
38.6454
-37.2201
-87.1783
139.162
-51.9839
224.513
210.387
-434.9
351.813
-224.623
361.992
-142.076
-323.818
-240.292
64.2239
-256.87
-254.292
97.1328
-406.403
303.001
103.403
67.0182
-449.68
115.347
131.732
-247.079
-201.476
-189.559
391.036
-22.2807
-24.9444
124.712
-118.526
-180.198
-166.658
346.856
-305.485
231.065
-117.891
-40.1888
158.079
-180.926
119.792
61.1341
378.653
-550.532
171.879
318.597
-213.222
-105.375
141.419
342.157
162.155
81.9362
-244.092
399.64
-194.021
146.716
-514.068
208.137
-76.8633
157.319
161.279
-64.0489
-342.355
239.974
-423.8
183.826
453.183
-270.044
-183.14
93.0702
-245.317
152.247
-183.232
-7.06898
190.301
153.897
-13.4048
-140.492
56.1064
-100.883
44.7767
198.234
163.758
-41.6815
108.21
-363.672
430.69
137.574
227.32
-364.894
-112.671
319.91
96.9081
-9.88398
-87.0241
43.5777
-307.631
264.053
-80.2595
91.7343
281.23
-497.692
216.462
-90.4738
204.448
239.786
-450.625
210.552
-161.662
-3.75327
165.415
28.9656
131.307
-160.273
307.081
159.168
-3.87378
100.782
313.694
-18.057
-295.637
-127.572
444.305
-316.733
107.545
270.073
29.4294
206.272
332.097
151.589
-483.686
335.549
-283.072
-52.477
-16.7627
-67.7607
-209.805
65.8437
-22.7345
-30.7074
53.4419
21.7236
-44.4582
-331.133
178.682
-100.123
-165.014
265.137
305.653
1.4593
-307.112
-220.825
-34.1474
254.972
-139.649
82.0268
51.3988
-138.577
-99.0055
-316.553
415.558
-87.9854
-135.671
560.401
-279.171
-64.1819
103.408
37.3365
-140.744
-264.466
116.553
147.913
46.0912
-75.2294
29.1382
122.921
136.04
-258.961
-140.543
90.4058
50.1376
-125.688
324.029
-136.523
-83.789
220.312
-370.041
-244.483
-234.786
118.892
115.894
-229.646
527.779
-298.133
406.193
-310.7
-49.3138
-66.7224
116.036
-15.7797
32.1795
-180.653
336.066
-155.413
-119.642
280.892
-161.25
168.342
-85.4401
-82.9016
-298.991
403.142
16.8519
30.3503
-47.2022
-249.581
254.306
-4.72498
-195.511
85.147
199.857
3.07033
-202.927
-183.29
423.561
-240.271
73.3819
-30.3001
-43.0818
279.084
-565.125
286.042
-497.098
173.99
158.19
-43.4254
-87.8044
7.54499
-172.436
84.8007
87.6349
-170.694
410.668
179.642
-87.093
64.9946
-428.667
-45.6295
-116.75
162.38
-115.431
-509.105
353.447
155.658
263.994
71.5549
-334.438
-145.218
479.657
-92.1366
298.963
122.418
-116.942
-50.9168
-92.947
-286.265
-294.318
580.583
-242.925
-262.239
505.164
-237.168
286.149
-48.9808
359.446
-269.577
-272.424
-242.527
340.661
-509.899
113.146
84.2349
-197.381
-390.929
237.317
153.612
144.518
255.429
-57.1868
101.994
-44.8074
-330.337
527.598
-197.26
-31.9186
-27.2505
59.169
-175.717
57.3728
118.344
41.1134
-42.5387
-82.7388
406.653
12.5585
141.077
-153.635
539.965
-207.869
-179.563
273.696
-323.123
179.548
-278.203
278.203
-130.301
245.648
-557.637
293.093
264.544
-370.92
-54.4196
425.34
180.299
-138.785
-48.6145
36.8364
11.7781
-192.978
135.987
132.345
-492.369
14.6294
112.813
-148.646
-295.101
443.747
-225.912
363.487
-270.741
126.554
517.046
-284.983
-232.063
-151.082
-32.1493
164.703
-348.275
-593.829
413.495
180.335
-310.448
-108.181
-117.351
20.7248
96.6257
-85.957
-63.2566
149.214
141.444
102.064
-110.024
169.21
-59.1855
-3.47031
112.641
-109.171
167.554
-167.912
0.357919
198.142
-338.729
140.588
97.149
-149.759
-90.1394
-124.498
64.5881
-117.747
53.1592
-404.526
-200.48
346.183
-145.704
53.6854
19.6965
-5.36403
-202.879
208.243
-175.684
-175.257
195.287
-398.398
203.111
-122.64
73.3262
3.81608
46.7106
-50.5267
24.2121
-142.103
-103.118
216.027
-112.909
164.87
120.217
-285.087
-196.43
-281.185
477.615
172.835
-414.166
241.33
90.3323
-20.6823
-69.6499
-541.985
308.364
233.621
514.577
-343.471
-171.106
-500.847
176.558
52.1257
142.647
-75.0837
-117.729
309.161
-377.487
-343.745
-130.049
-268.227
-107.829
-363.654
152.583
211.071
-215.003
127.017
-32.8288
282.383
-249.555
-52.8336
-208.109
117.181
115.355
154.327
-269.682
255.235
-447.57
192.336
204.733
-114.513
-317.306
104.084
189.32
-76.0768
-323.765
-115.639
439.404
393.444
-198.157
-323.557
327.749
-4.19213
-87.3839
123.872
-36.4879
-421.963
207.646
-282.423
132.089
150.333
87.7963
-87.7963
-208.751
-248.051
456.801
474.618
-409.624
78.664
-273.029
-5.8685
319.563
310.126
201.716
-225.474
-96.6753
322.15
54.9702
-22.7381
-32.2322
-45.208
84.6316
-39.4236
-204.328
142.877
61.4511
-322.405
-244.664
-102.972
-31.2048
125.985
-22.5771
-281.394
-316.879
-121.388
60.7928
157.18
183.951
40.7623
35.7899
-76.5522
-191.663
199.827
-8.16464
400.031
186.117
-176.101
-100.552
-332.712
-176.393
-152.03
-72.78
224.81
-71.1623
-257.147
328.309
-267.473
198.908
68.5643
-64.6687
-58.4561
123.125
330.291
-511.35
181.059
201.084
-346.619
145.535
261.914
-475.935
214.021
-50.9329
-61.6005
-224.512
134.373
209.016
-408.794
199.778
-148.814
62.857
-332.058
42.7348
-247.878
392.396
-8.38993
35.402
-27.0121
160.875
-151.718
-9.15699
1.95296
-58.7345
-170.829
368.97
483.083
-465.156
-17.9274
-47.4621
118.847
-62.2943
92.48
-30.1857
253.462
-462.213
-50.4298
38.5579
11.8719
-121.625
264.294
390.228
-506.704
116.476
278.217
34.4502
-312.667
27.4248
-107.574
80.149
-42.0065
88.0977
49.5173
1.12781
-50.6452
-26.9122
122.905
-95.9924
-7.90587
92.4587
-84.5528
104.912
-40.3243
418.69
-157.044
-155.612
252.117
-96.505
-302.913
-28.1701
177.799
-114.621
-63.178
165.097
-316.076
150.978
-216.365
-165.184
381.549
-41.4467
202.322
-269.476
163.094
106.382
168.638
-352.836
184.198
-339.644
217.577
122.067
240.544
-132.27
-108.274
-161.077
91.0093
70.0677
222.437
-462.048
-124.918
-67.4984
192.416
-45.9956
-98.4507
144.446
134.135
-193.081
58.9457
-22.8607
133.511
112.729
-59.9998
-52.7291
-38.0791
-124.703
162.782
2.67447
122.038
-136.85
-112.559
249.409
-294.024
-7.97173
301.996
48.4338
-150.186
101.752
138.473
84.549
104.114
85.2057
-147.624
157.267
-9.64347
-117.351
-55.8645
446.093
-211.647
68.3351
403.803
31.6103
-435.413
438.174
-362.222
-479.369
206.945
105.967
56.0413
-162.008
1.26742
-43.699
103.751
-239.627
135.875
183.688
-384.167
-141.888
3.57824
274.639
-62.9037
262.761
238.282
203.606
-447.601
264.311
-102.158
44.9712
427.385
-174.059
168.154
-117.094
-51.0595
244.004
-315.166
313.282
-149.629
-163.653
270.335
-242.259
-28.0751
159.12
-110.686
-251.111
-220.807
471.918
-214.389
29.4162
184.973
498.922
-493.622
-5.30036
246.526
-79.2218
-167.304
300.213
298.44
-598.653
199.009
-64.874
-143.544
289.865
-146.321
-128.823
295.429
-78.1374
147.444
-69.3064
-168.259
-106.591
-11.9957
-23.9095
35.9053
62.6541
-199.177
368.198
106.42
-373.229
-32.7485
-84.5521
-179.914
83.0013
-42.239
-133.905
228.618
-94.7127
-48.2093
19.6023
68.3255
-23.8968
-44.4286
-130.042
91.9629
-576.072
348.894
227.178
41.3394
-118.602
77.2626
-135.756
239.507
-38.478
87.7968
-49.3188
43.6783
24.6471
-170.61
364.719
-194.109
-5.70959
-134.26
139.97
-48.3856
-3.36504
51.7506
265.29
-97.3306
-167.96
215.951
-121.993
-93.9572
-389.002
-286.935
-192.434
-117.728
65.4587
52.2691
183.102
-345.113
162.011
18.7822
-30.7779
-128.534
180.659
3.40368
-364.1
273.215
-106.695
-170.257
113.842
-198.752
136.249
62.5034
332.29
-131.205
94.8378
-79.3824
-15.4555
-137.99
-60.7623
76.5224
-207.011
130.489
112.912
-187.996
120.808
-33.5216
-55.2758
88.7974
-130.32
225.952
-95.6321
194.319
-69.3735
-124.945
-258.962
-35.0626
125.491
69.324
-24.7647
8.985
10.8936
112.714
-123.608
-106.44
93.191
13.2488
-80.4012
-41.0235
-49.299
90.3225
539.036
-417.026
-122.01
388.592
-79.4309
139.044
-110.079
-425.165
463.28
-38.1157
-138.732
277.327
-138.595
-235.276
313.94
60.1972
52.5317
-67.658
-85.1335
-83.8445
228.612
-194.106
304.865
-110.759
-182.177
241.378
-59.2013
-309.549
172.943
136.606
71.8153
-44.6682
14.8856
-38.2452
-246.754
-223.593
470.347
172.454
366.582
-525.236
282.312
166.055
-166.055
-120.526
130.682
-10.1557
180.058
-118.558
-61.5001
246.216
-540.574
294.358
124.825
140.465
-238.521
343.028
-104.508
103.327
-61.9879
-142.67
90.7365
51.9335
156.842
329.776
-486.618
246.69
-105.245
-334.182
175.39
158.792
93.8832
-196.349
102.466
272.438
196.654
-469.092
-150.626
144.917
-35.9533
-91.7847
127.738
131.526
-158.438
-210.119
434.632
-207.59
133.653
73.9369
129.744
-77.4714
-52.2729
-146.217
414.984
-268.768
292.834
-134.22
-16.3226
130.182
-113.859
210.068
200.74
-410.808
-253.573
-271.664
-89.1449
344.38
58.5572
-110.082
51.5247
-173.754
383.651
-209.898
170.336
-76.4531
291.5
-185.7
-105.8
210.945
-103.028
-189.382
-45.0341
36.6441
-621.56
303.177
141.343
498.075
-505.635
7.55988
251.145
155.925
-407.07
71.9515
22.8863
-268.442
-246.785
139.727
-170.575
69.711
-306.879
-99.0232
83.2745
15.7488
166.669
-308.7
142.031
-60.406
351.202
-112.075
92.8531
19.2221
48.6561
-147.107
67.9924
-125.51
57.5171
240.311
108.548
221.959
-142.506
-79.4526
25.9237
127.973
-444.072
313.855
130.217
-259.312
-362.248
182.092
64.4335
183.8
-541.61
357.81
-89.2459
-71.417
160.663
27.583
-86.7664
59.1834
337.428
179.619
-20.38
424.183
137.04
-182.178
461.599
-189.161
97.5901
-208.689
111.099
-527.971
312.34
215.631
-210.573
-285.728
496.301
-366.182
566.066
-199.884
275.112
146.612
-173.658
214.944
-41.2866
-150.859
278.446
335.874
-263.494
-72.3801
-147.961
271.746
-123.785
-188.644
-166.23
4.96582
-282.752
277.786
104.805
16.8231
-121.628
159.285
-113.472
446.877
-363.661
-83.2157
-213.636
102.877
110.759
83.6461
319.834
-403.48
47.2166
-43.4005
330.666
116.211
-131.452
95.4988
-101.865
-10.2103
-227.176
516.505
-289.329
-15.2204
179.844
-164.624
247.452
-442.251
194.799
-53.3766
-27.2366
80.6132
304.599
114.091
-48.5473
2.73772
45.8096
-214.181
193.002
21.1783
-222.812
131.324
91.4879
189.631
393.023
54.6749
-5.15755
-307.903
-136.169
213.281
-464.392
415.502
-513.152
97.6498
162.964
186.473
-30.5549
-155.918
202.257
-125.735
84.2258
-407.991
-42.058
-46.6897
88.7477
67.5376
12.8934
-80.431
-162.912
55.8507
125.998
112.817
166.254
-364.375
198.121
-60.5873
98.0706
-37.4833
169.072
-342.825
378.354
-195.252
328.569
-84.5647
-440.931
-247.191
-268.283
489.211
-220.928
426.901
-320.811
-106.09
-10.6885
-415.665
426.354
-387.912
-180.924
568.836
-236.125
-6.89901
118.143
-50.1506
-619.346
323.749
295.597
-276.847
-81.9504
-70.4712
-90.6058
66.9336
23.3987
29.8353
24.8733
-564.652
382.684
181.968
53.0422
-86.5638
-14.8527
47.629
-32.7763
149.195
-144.569
201.367
-321.032
119.665
299.593
-236.226
-63.3669
86.6228
-395.873
309.25
183.292
-79.1777
133.268
221.724
-72.7835
-108.143
118.49
-91.0657
472.58
-320.453
-152.127
-260.922
356.113
-95.1917
-7.49215
170.805
301.775
-416.985
31.8069
385.178
-283.62
-228.096
69.4138
-177.47
108.056
-124.417
-96.6217
221.039
115.439
172.659
-288.098
6.28932
-327.11
-292.236
-26.5189
-6.47374
32.9927
-200.135
333.532
-133.398
549.133
-215.852
418.696
-98.2791
-308.805
138.625
81.1717
-13.634
-274.731
-45.8219
320.553
83.4801
-396.719
-405.103
153.593
81.3025
-9.58571
-71.7168
108.775
-201.196
92.4207
-119.012
283.882
-458.176
330.604
116.741
-130.145
502.587
-171.921
-219.471
401.923
-182.452
155.887
-346.962
191.075
499.566
-120.913
76.0864
94.1081
-265.622
91.9641
232.575
-176.288
-56.2864
-178.822
289.366
-110.544
165.845
383.288
159.908
-260.627
100.719
391.555
-130.352
372.055
119.16
-491.216
302.162
-205.789
-96.3729
531.372
-562.559
31.1866
168.164
-103.247
-64.9165
398.753
-340.998
-15.2609
-146.401
-104.066
-141.665
245.731
215.001
-232.989
17.9881
-28.4979
43.3835
-305.657
474.748
-169.091
-83.692
-22.5468
-183.15
167.93
22.0176
39.2304
-104.736
65.506
307.917
18.5758
-326.493
-54.7026
8.96317
45.7394
-102.471
456.323
148.974
164.308
-151.873
318.542
-223.018
162
372.082
66.0928
-161.839
-172.343
30.4429
177.675
-245.427
69.3253
-91.6903
176.503
-84.8126
12.2802
-44.0381
425.432
-174.287
-426.183
414.487
11.6962
-124.381
496.436
46.0829
-90.7941
44.7112
55.0592
-42.3653
-79.473
121.838
-176.348
110.411
-38.4591
124.578
26.6805
-151.259
43.5381
-131.523
87.9846
-269.717
139.627
-82.2564
-39.3546
121.611
-267.119
-300.64
108.521
192.119
81.8236
-54.2406
78.9764
-125.043
46.0662
70.9093
-195.327
110.501
178.168
-162.509
217.198
-54.6894
-33.3507
-2.44968
35.8004
-127.682
126.72
0.961929
-371.19
183.579
-205.483
415.551
115.882
-230.271
114.389
249.539
124.409
-373.948
-7.71881
-25.2748
32.9936
328.042
98.8592
311.607
-76.8756
-234.731
-172.411
404.224
-231.813
198.164
-71.0708
325.144
-254.074
327.827
121.54
-449.367
474.543
319.343
121.794
-441.137
273.675
-527.248
172.956
-16.8835
-156.073
-355.592
188.909
166.682
-142.133
-98.6593
240.793
45.1803
28.3781
-73.5584
-40.4591
-110.965
-4.35684
-421.826
-357.883
187.272
77.3645
134.128
-211.492
-377.194
306.123
185.032
155.248
-340.28
-33.5066
118.989
-85.4824
-116.318
-155.259
271.577
569.349
-254.275
36.4584
83.0295
-185.33
-266.18
451.51
-89.6702
138.326
-254.143
435.06
-180.917
-392.554
43.131
349.423
-206.157
-277.333
483.49
-92.5345
-83.1822
-566.149
366.733
199.415
278.241
-150.081
-128.16
-158.102
343.134
-120.9
38.6436
59.7389
-101.797
151.17
16.9836
-131.442
-491.458
250.216
241.242
-197.502
59.5118
-237.642
103.392
-278.492
-297.58
-71.0943
-234.391
134.576
-352.541
217.965
-185.877
-163.309
50.8054
112.504
-247.532
-69.7738
-90.611
-34.714
125.325
-13.856
-15.0395
28.8956
-364.718
218.501
56.6447
-102.004
45.3594
128.708
-159.263
193.653
-387.836
194.183
16.1234
-290.855
-147.501
280.318
-132.817
-192.885
262.596
116.313
-94.1176
-66.2588
160.376
490.077
-500.765
-35.0392
-147.138
281.749
215.984
-497.733
-146.778
-50.7243
-92.1317
228.755
391.156
-411.536
65.8293
-20.649
442.351
-151.329
-291.021
128.698
164.962
-293.66
45.6279
-83.9524
-73.4158
157.368
210.931
-23.39
-187.541
330.559
60.9963
229.081
-14.0799
-503.292
175.069
50.3545
-88.8325
-90.0739
40.3832
49.6907
55.0816
47.1174
-102.199
-127.927
-73.3866
201.314
16.9663
-129.849
112.882
-81.7646
28.388
188.627
-183.282
-5.34499
223.467
-278.021
54.5537
-202.526
74.5987
-57.1425
-52.0287
-53.2502
-110.253
163.503
143.672
235.786
187.774
-206.466
173.637
134.676
-125.714
-8.96269
-433.81
290.721
143.089
244.69
-112.957
320.258
182.329
336.263
133.105
-469.368
-120.158
-151.293
-538.517
252.578
285.939
180.256
-317.314
137.058
115.468
106.491
-109.671
93.3483
-78.4186
118.982
-40.5633
-321.93
-263.357
585.287
-491.637
424.329
67.3081
-248.361
108.982
-84.2167
-475.934
-18.7535
494.688
256.077
290.64
-546.717
-128.261
-154.161
-164.061
-145.487
160.701
-36.1231
-369.822
159.249
4.62291
162.328
-13.21
-267.651
177.079
90.5722
52.4566
47.4305
-143.806
-132.908
276.713
110.004
-70.774
422.68
-278.739
-143.942
-197.443
353.33
-248.088
-6.93518
456.171
25.3455
-76.6696
-49.6757
126.345
456.814
0.270555
-457.084
-151.401
359.393
-207.992
86.1965
63.1375
-149.334
-418.098
241.992
176.106
-100.23
-96.3014
-171.35
92.4224
-46.3395
-146.575
317.573
-170.998
154.801
131.979
-286.78
-105.186
-37.4839
-284.803
-213.952
498.755
125.967
476.185
-328.867
-147.318
-116.705
105.206
-71.2708
-33.9353
4.50625
-54.8446
208.072
-270.975
282.39
-353.484
-468.503
392.344
157.741
-286.002
218.728
217.938
501.553
-239.638
-238.062
82.4506
75.3689
49.0698
-82.7232
108.413
-53.3315
-281.987
315.944
-33.9566
-302.785
-8.41084
76.379
-119.218
42.8394
141.711
296.408
-187.888
239.27
-140.031
-99.239
-30.7631
43.0433
-281.098
66.9637
-109.329
266.866
-72.741
-194.125
-312.29
568.367
490.639
-170.381
-355.593
247.912
107.681
-22.7196
479.533
-204.944
456.136
-85.4149
-172.651
258.066
113.033
-234.786
121.753
21.6907
336.419
-334.285
-246.967
581.252
184.013
-376.476
192.463
-289.469
388.862
-99.3937
-102.721
422.063
317.041
-146.001
140.804
-91.3582
367.658
-276.299
-57.8859
3.18337
-167.442
28.4146
139.027
172.082
161.45
105.87
-72.0166
-269.029
341.045
-385.634
-78.7912
-134.11
-227.31
-365.37
218.795
-406.374
406.374
44.7665
-307.129
262.362
197.803
-368.505
170.701
178.465
88.4013
43.3083
3.78363
-47.0919
201.75
-391.31
287.821
-493.978
232.361
-47.0754
135.07
181.715
68.0089
177.233
-245.242
162.721
-89.7467
-72.974
-73.2677
-283.517
356.784
115.532
-196.501
80.9691
-96.2679
145.148
-48.8799
325.631
7.78268
-54.7572
63.1133
-254.687
307.141
-52.4542
32.1126
140.844
50.7321
28.2596
-78.9917
-351.06
-41.4947
21.1461