/*--------------------------------*- C++ -*----------------------------------*\
  =========                 |
  \\      /  F ield         | OpenFOAM: The Open Source CFD Toolbox
   \\    /   O peration     | Website:  https://openfoam.org
    \\  /    A nd           | Version:  7
     \\/     M anipulation  |
\*---------------------------------------------------------------------------*/
FoamFile
{
    version     2.0;
    format      ascii;
    class       volVectorField;
    location    "23";
    object      U;
}
// * * * * * * * * * * * * * * * * * * * * * * * * * * * * * * * * * * * * * //

dimensions      [0 1 -1 0 0 0 0];

internalField   nonuniform List<vector> 
117990
(
(1.03377 -0.0940656 -5.34699e-19)
(0.998581 1.5019e-05 -2.50748e-21)
(0.761322 0.0306009 -1.666e-19)
(0.871092 -0.07525 3.79424e-20)
(1.09583 -0.0584666 4.90143e-20)
(0.924924 -0.101067 1.18801e-22)
(0.732803 0.0784561 -1.36579e-18)
(1.16692 -0.142056 -1.25057e-19)
(0.966622 -0.0445139 -7.16236e-22)
(0.99851 9.41202e-05 5.2971e-22)
(0.971573 -0.0027514 8.84522e-21)
(1.01779 -0.0146881 4.71812e-21)
(0.994554 -0.08839 5.26659e-20)
(0.231629 -0.0313628 1.28234e-18)
(0.966414 -0.0455409 7.04211e-21)
(0.398636 -0.151919 2.92083e-18)
(0.985455 -0.0365299 2.55658e-21)
(0.959372 -0.0251734 -1.13939e-20)
(1.00289 -0.156056 1.38339e-18)
(1.09605 -0.0569235 1.76049e-19)
(1.17073 -0.122652 -1.20102e-18)
(0.598297 -0.00739996 -2.01253e-20)
(0.953564 -0.0329635 -1.01941e-20)
(0.841413 -0.0582167 2.169e-20)
(1.31209 -0.030933 1.0054e-18)
(0.925328 0.337611 1.54155e-18)
(0.226724 0.317219 -2.43142e-19)
(1.22669 0.000823868 9.31705e-19)
(0.997895 -0.00632582 2.9934e-21)
(1.08813 0.364523 -1.30996e-18)
(0.984114 -0.0058228 7.19122e-21)
(1.12423 0.151312 3.50141e-19)
(1.13583 -0.0290719 -6.74846e-20)
(0.642977 0.00230835 9.00774e-20)
(1.34109 -0.00394071 4.27314e-19)
(0.834872 -0.0839678 7.96925e-20)
(0.766522 0.226582 2.29224e-19)
(0.985465 -0.037313 -1.23172e-21)
(0.346065 1.75982 2.74168e-20)
(0.849916 0.0953946 3.09091e-18)
(1.12701 0.151483 -6.80731e-19)
(0.958857 -0.026011 -2.131e-21)
(0.781879 0.0351102 3.81896e-19)
(0.834016 -0.0821704 -5.59324e-20)
(0.94317 -0.203498 4.83185e-20)
(0.233963 -0.0291484 -1.33521e-18)
(1.08777 -0.0156267 6.44334e-19)
(1.20286 -0.00982174 1.57113e-19)
(1.05385 -0.0642982 6.88524e-20)
(1.01761 -0.00156323 -2.15513e-20)
(1.00073 -6.42375e-05 6.31693e-26)
(0.706772 -0.00996404 7.34095e-20)
(1.10945 0.102087 1.05937e-18)
(0.99885 -2.02733e-05 -4.04228e-22)
(0.998131 -0.0596725 -2.44976e-19)
(1.10765 0.101363 -2.63708e-19)
(1.16933 0.0153981 8.6476e-19)
(0.792793 -0.223461 2.69603e-19)
(0.17788 0.349107 7.92928e-19)
(0.826505 0.0186146 -4.88814e-19)
(0.991189 -0.0220664 -2.49461e-21)
(0.841507 -0.0516982 -2.02935e-20)
(0.917335 -0.00435189 -1.83887e-20)
(0.685738 0.0547183 -4.43477e-20)
(0.992381 -0.00612152 -7.77085e-21)
(1.09562 -0.00254406 -1.34768e-20)
(1.00251 -0.0841638 -2.80821e-19)
(1.16856 0.0734072 9.02577e-19)
(0.454391 0.288512 5.85462e-19)
(1.18541 0.0143834 3.77219e-19)
(0.750843 0.373568 7.89844e-19)
(0.24936 0.226475 -1.0097e-18)
(0.857236 0.0973411 1.39197e-18)
(0.558452 -0.0306632 3.10464e-19)
(1.02899 -0.127318 2.55112e-19)
(0.643754 0.0060984 9.98293e-20)
(0.723764 0.343563 -3.67897e-19)
(0.991167 -0.0915979 1.07628e-19)
(0.989881 -0.319386 -4.9203e-19)
(1.02779 0.22981 9.08e-20)
(1.02093 0.238697 3.21691e-19)
(0.994179 -0.000159784 2.63487e-22)
(1.08542 -0.453345 -3.98385e-19)
(1.2511 -0.00158934 -4.20687e-19)
(0.719169 -0.0585037 3.97639e-20)
(1.01711 -0.0142715 4.63773e-21)
(0.743748 0.0555517 2.29096e-19)
(0.998716 -0.00225147 -3.32733e-22)
(0.637387 -0.0403676 1.69724e-21)
(0.998721 -0.00376141 1.43859e-21)
(0.0825465 0.882318 -3.99634e-21)
(0.700145 -0.0128233 -5.48365e-20)
(0.997569 -0.00622333 -3.80039e-21)
(0.866431 -0.0805448 6.10483e-20)
(0.950493 -0.0309643 -1.75153e-20)
(1.04005 -0.00561126 9.25951e-21)
(0.956861 -0.00190542 -3.9828e-21)
(1.09281 -0.450149 -3.19946e-20)
(0.837801 0.65626 -3.76785e-20)
(0.635899 -0.0375607 1.97086e-19)
(0.991016 -0.0225486 2.54038e-21)
(1.20392 0.0117357 -8.64486e-19)
(1.07196 -0.0363552 -5.0994e-19)
(1.15383 -0.00551775 -1.65483e-21)
(0.746315 0.372118 5.27803e-19)
(1.14622 -0.228516 -4.45416e-19)
(0.876676 -0.00698417 -8.54912e-19)
(1.03643 -0.288398 -3.35513e-19)
(0.907521 0.0475014 -1.20318e-19)
(0.998038 -0.00731179 -1.79122e-21)
(0.886829 0.282812 -7.33817e-19)
(0.957355 -0.00250373 1.59554e-21)
(0.703775 0.357121 2.31071e-19)
(0.950154 0.0401091 7.15406e-19)
(1.25149 0.111775 -1.45224e-19)
(1.02464 -0.0202116 9.16229e-19)
(0.971202 -0.00231998 -1.63336e-20)
(0.747887 0.366895 -1.03446e-18)
(1.00235 -0.00198004 1.8268e-22)
(0.244298 0.23726 6.96224e-19)
(0.748614 0.366871 1.48516e-18)
(0.396422 -0.153198 -1.16998e-18)
(0.773481 0.0320731 -1.50627e-19)
(0.36602 0.377018 5.57834e-19)
(0.998646 -0.000211553 -5.01832e-22)
(1.07988 0.369145 1.51333e-18)
(0.843873 -0.0520318 1.73269e-20)
(1.2397 0.300325 -4.74013e-19)
(0.829335 -0.00799752 1.39629e-21)
(1.23865 0.00192775 -7.82994e-19)
(1.06439 -0.128916 -6.00993e-20)
(1.02732 -0.0040548 7.31483e-21)
(0.714661 0.330737 -6.84643e-19)
(1.01714 -0.0135399 -1.41391e-20)
(1.00252 -0.00172477 8.62132e-23)
(1.01895 0.0516721 2.16839e-18)
(1.32436 -0.0713088 -2.75067e-19)
(1.1312 -0.0263854 -8.58561e-20)
(1.00166 -0.059496 3.36848e-19)
(0.843619 -0.0547867 -1.83093e-19)
(0.75577 -0.0149086 5.16869e-19)
(1.04192 -0.0295975 4.64783e-19)
(1.00633 -0.000431668 -5.78928e-21)
(1.09326 0.138627 1.32184e-19)
(1.06274 -0.126634 8.84079e-19)
(1.00058 -0.000100704 3.26817e-25)
(1.11888 0.0143338 6.09051e-23)
(0.840996 -0.047274 6.23711e-20)
(1.17145 0.0740235 -1.39304e-18)
(1.07886 -0.0688587 -1.69882e-19)
(1.14095 -0.227249 3.40169e-19)
(0.936121 -0.200921 -3.4656e-19)
(0.696224 -0.0135707 -3.43173e-20)
(0.998314 -0.000189234 2.2283e-22)
(0.709885 -0.00924816 4.32785e-20)
(1.15616 -0.0269671 4.08247e-19)
(0.998025 -0.00747812 2.2864e-21)
(1.05062 0.191747 1.11345e-18)
(0.620112 0.0061279 8.89248e-21)
(1.28308 -0.30194 1.72642e-19)
(0.643627 0.0120496 -5.44138e-19)
(1.12002 0.0153348 4.87528e-19)
(0.918661 -0.00392266 -1.35791e-20)
(1.01853 -0.170889 -4.77895e-20)
(0.930632 0.0182284 2.69406e-19)
(0.908708 -0.0481444 -4.79664e-20)
(1.16712 -0.00218142 4.26675e-19)
(0.894922 0.0097094 4.19426e-20)
(1.03288 0.196594 -1.62954e-18)
(0.907722 0.0237024 -3.10692e-19)
(0.853432 0.0123926 -4.06103e-19)
(1.09347 -0.0207423 -3.63884e-19)
(0.0464647 0.941807 2.39259e-20)
(0.325495 -0.119984 2.0404e-18)
(0.967454 -0.146871 -3.98092e-20)
(1.19019 0.0454225 -3.95462e-20)
(0.322509 -0.115611 -4.50017e-19)
(0.907662 -0.0971734 -4.49975e-20)
(1.08581 0.00390284 1.35091e-18)
(1.05297 -0.0671737 1.12726e-19)
(1.16717 0.00339344 8.22279e-20)
(1.02462 -0.127276 2.9164e-19)
(1.09215 -0.100478 -6.0011e-19)
(1.09161 0.124086 5.6941e-19)
(0.881922 -0.0167408 2.01015e-18)
(0.964218 -0.0773866 -3.01952e-22)
(0.829203 -0.066177 -1.85435e-20)
(1.00041 0.0068995 -5.92023e-19)
(1.11157 -0.0274249 1.24462e-18)
(0.0962878 0.898895 2.78945e-20)
(0.912162 -0.0965247 -1.49737e-20)
(1.04798 -0.032778 -3.1099e-19)
(1.04595 -0.303086 -8.72297e-19)
(0.747327 -0.000751216 -7.21641e-19)
(0.936354 0.335624 -2.04129e-18)
(1.17893 -0.31511 2.08374e-19)
(0.31506 -0.112172 1.34228e-19)
(0.50825 -0.00113479 -4.29076e-20)
(0.683726 -0.00971574 5.24186e-19)
(0.961217 -0.0435522 4.03893e-19)
(1.07952 0.104937 7.46065e-19)
(0.861436 -0.242471 8.81422e-19)
(1.17846 0.0117841 2.43903e-19)
(0.998615 -0.00289449 -2.27714e-21)
(0.816183 -0.0684762 -2.02814e-21)
(0.669179 -0.101316 3.59919e-19)
(0.932917 -0.0815779 -1.44786e-20)
(0.992534 -0.00615181 5.98595e-21)
(1.19585 0.0125411 -2.08136e-19)
(1.07311 -0.154094 -1.24781e-18)
(0.310889 -0.10724 -1.13431e-18)
(0.874908 0.00979283 -5.31753e-19)
(1.30973 -0.0341048 -7.45166e-19)
(0.998795 -0.00376752 1.88145e-22)
(0.92887 0.0261905 8.8891e-19)
(0.748517 -0.00540841 3.58865e-19)
(1.11053 0.135503 6.26657e-19)
(1.09861 -0.0253869 7.29483e-19)
(0.228284 -0.0229805 -7.72062e-19)
(0.983271 -0.0251943 1.25691e-21)
(0.942265 -0.129425 1.47348e-20)
(0.752793 0.0274814 -2.52893e-20)
(1.0536 -0.0547185 -3.2202e-20)
(0.628099 0.00724728 -4.44191e-19)
(0.998839 -7.77575e-05 5.81162e-22)
(1.26056 -0.0698759 7.85516e-19)
(1.03781 0.0187454 -6.17889e-19)
(0.654666 -0.014224 5.68141e-19)
(1.17756 -0.310292 1.20873e-19)
(1.21781 -0.151225 4.32658e-19)
(1.21444 0.0108281 -8.49073e-20)
(0.933872 -0.210686 -6.28774e-20)
(0.769121 0.0354721 -4.29247e-19)
(0.880861 -0.00445585 3.50458e-19)
(1.07166 -0.128148 -4.04163e-19)
(1.07831 0.104822 1.11875e-18)
(1.04675 -0.00409881 1.04505e-20)
(1.06957 -0.04154 5.54714e-19)
(0.901869 -0.0160284 -1.27285e-19)
(0.702632 -0.0143196 -9.53454e-20)
(0.241066 0.767123 -3.98796e-19)
(1.00787 -0.0714624 8.37529e-21)
(1.2897 -0.301787 -2.19044e-19)
(0.854313 0.683439 2.6672e-19)
(0.824337 -0.0071531 -7.10934e-20)
(1.07402 -0.0648662 -3.36759e-20)
(1.13969 0.10747 1.00425e-18)
(0.636864 0.00309747 9.72343e-19)
(0.894792 0.00998402 1.51347e-20)
(0.581535 -0.191687 5.19134e-19)
(1.01003 -0.177349 -4.51902e-19)
(0.890897 -0.101197 -2.63313e-21)
(1.12227 0.0154967 -3.80385e-18)
(1.03923 -0.0820144 1.77137e-20)
(1.2526 0.280729 -8.93429e-19)
(1.16753 0.00238703 -5.63681e-19)
(0.517428 0.405695 -8.5703e-19)
(1.25068 0.00288064 3.84811e-19)
(1.03166 -0.000699042 4.98045e-20)
(1.17729 -0.141045 -1.2834e-20)
(1.17221 0.00619565 -1.31706e-18)
(0.231895 -0.0182868 4.73938e-19)
(1.08793 0.131066 -8.16852e-19)
(0.608773 2.00267 -4.45108e-20)
(0.904772 0.048121 -9.28024e-20)
(0.876553 -0.076763 -1.20348e-19)
(0.378986 0.374411 8.92685e-19)
(0.83161 -0.019518 7.7342e-20)
(0.750035 0.32738 -4.2992e-19)
(0.723417 0.348138 8.13571e-20)
(0.992768 -0.00333831 -5.80125e-23)
(1.11559 -0.0259192 -3.03665e-19)
(1.05767 -0.0681989 2.92129e-19)
(1.00824 -0.0727384 -4.7098e-19)
(0.982837 -0.094193 2.05024e-19)
(0.736659 0.0523918 1.14022e-19)
(0.942799 -0.204792 -3.67815e-19)
(0.966198 -0.144498 -1.98334e-20)
(0.999276 -0.0301319 -3.70581e-19)
(1.04033 -0.286452 2.7042e-19)
(1.02 -0.173678 1.25649e-19)
(0.826514 -0.00608758 -5.38097e-20)
(1.01588 -0.0842684 2.78818e-20)
(0.664913 -0.0935455 -1.89263e-19)
(0.996739 -0.0675676 1.18368e-20)
(1.17417 -0.00399371 9.27419e-19)
(1.25107 -0.0919103 4.57556e-19)
(1.14158 0.00841057 -1.96282e-18)
(1.10835 -0.464225 2.29039e-19)
(0.351984 1.64541 1.47019e-20)
(0.936984 -0.20418 -9.05828e-20)
(0.998903 -0.00274797 -1.71332e-21)
(0.168898 0.377919 5.28059e-19)
(0.88098 0.014762 -5.18551e-19)
(0.988378 -0.0462926 -7.28166e-23)
(1.17732 0.0157637 -6.40201e-19)
(0.892001 -0.0946144 -1.74966e-21)
(1.13037 0.148919 5.46199e-19)
(1.04866 -0.0763792 -2.2209e-19)
(0.692251 0.370866 2.08057e-19)
(0.2865 -0.0882796 6.06455e-19)
(0.946643 -0.139468 -1.31755e-19)
(0.180826 0.381666 -7.07821e-21)
(0.850736 -0.0324722 1.61002e-19)
(0.998408 -0.189683 4.90823e-20)
(1.11588 0.18435 3.18017e-19)
(1.00322 -0.107448 -6.30835e-20)
(0.653813 -0.00859026 -3.93494e-19)
(1.93802 1.41755 -4.08676e-20)
(1.08958 0.00318341 5.10643e-21)
(0.821625 -0.0967489 -1.28896e-20)
(0.782821 0.285039 1.06959e-18)
(0.773329 0.171923 7.26495e-19)
(0.901466 -0.014834 3.84189e-19)
(0.982845 -0.0831144 -2.71466e-19)
(1.0773 -0.0385001 1.39171e-19)
(1.04924 -0.302203 -1.3674e-18)
(1.07239 -0.0642449 1.43737e-19)
(0.846987 -0.0620156 -9.5985e-20)
(0.176248 0.391929 -1.34049e-19)
(1.12306 0.0617646 2.19768e-19)
(0.983701 -0.0257171 -9.53341e-21)
(1.17628 0.00977185 -1.91459e-19)
(1.25693 0.103277 2.6177e-19)
(1.07008 0.223997 -1.23881e-18)
(0.626147 0.0229918 9.14546e-19)
(1.15692 -0.0269295 -6.00219e-19)
(1.13249 0.128098 6.97342e-19)
(0.278553 -0.0832234 -1.18202e-18)
(0.164233 0.369773 -8.26356e-19)
(0.828061 -0.0971502 9.11289e-21)
(0.998845 -0.00285122 3.23184e-21)
(0.967827 -0.0807299 -2.51651e-21)
(0.894229 -0.10019 7.87356e-21)
(1.29599 0.0200358 1.96384e-19)
(0.91568 -0.0748867 1.31074e-19)
(1.02186 0.20272 6.48021e-19)
(0.993491 -0.00339691 5.87989e-22)
(0.920469 -0.10078 -4.10368e-22)
(0.82392 -0.0655293 2.61696e-20)
(0.784525 0.0258894 1.47332e-19)
(1.11955 0.165551 -2.36565e-18)
(0.249126 0.312358 9.59769e-20)
(0.681869 0.0518732 -4.09172e-19)
(0.828809 -0.022713 -6.26133e-20)
(1.10723 -0.0605057 -5.28287e-20)
(0.995065 -0.0276459 2.30406e-19)
(1.24129 0.278354 -1.01909e-20)
(0.769336 -0.118987 -9.9458e-19)
(1.01466 -0.0387166 -1.16524e-19)
(0.71888 0.334595 3.61461e-19)
(1.02774 0.101013 -8.97481e-19)
(1.17364 0.00460096 1.20067e-18)
(0.886595 -0.087795 -6.7059e-20)
(0.960086 -0.043235 4.45354e-20)
(1.01622 0.0276496 8.37282e-20)
(1.0343 -0.0909232 8.50483e-19)
(1.00058 -0.000255711 -8.01356e-25)
(0.956951 -0.101704 -6.83249e-20)
(1.08667 -0.0513421 -5.3463e-19)
(0.85972 0.410641 1.22773e-18)
(1.01323 -0.214038 -8.49018e-20)
(0.763755 0.204787 4.35938e-19)
(1.30062 0.0506513 -2.06212e-19)
(0.900526 0.253632 -8.43921e-19)
(1.00038 -0.000274066 -5.94169e-24)
(0.51814 0.000795201 1.06911e-19)
(0.807532 0.0433121 -2.23587e-19)
(1.05782 -0.0555805 -2.89646e-19)
(1.00026 -0.000380247 5.50285e-23)
(1.30422 0.0763729 2.19328e-19)
(0.404705 -0.0651337 -5.56711e-19)
(0.637367 0.00516356 9.52166e-19)
(0.939134 -0.00273602 -2.0809e-20)
(0.732559 0.32095 -6.50391e-19)
(1.12428 -0.0481625 7.54043e-20)
(1.07353 -0.0371704 -2.84552e-19)
(1.01715 -0.00107864 1.91173e-20)
(0.903465 -0.107663 -2.89674e-21)
(1.09306 -0.0551651 -7.81843e-20)
(0.928903 -0.211253 -4.79593e-19)
(0.910479 0.0405065 2.29035e-19)
(0.94336 0.039508 9.97142e-19)
(1.08492 -0.0511932 -6.50891e-19)
(1.18522 -0.00766404 -4.9532e-19)
(0.987455 -0.0007761 -1.05482e-20)
(0.759802 0.0477806 9.03487e-19)
(0.530778 -0.191958 -1.17894e-19)
(1.09857 -0.0598973 -1.89754e-19)
(1.10553 -0.147279 1.80002e-19)
(1.12429 0.140315 -2.41988e-18)
(0.925101 0.114517 -1.8284e-18)
(0.74084 0.0551992 -1.70654e-19)
(1.2208 0.00458908 5.00098e-19)
(0.754462 0.0287271 -2.31612e-20)
(0.895329 -0.10856 4.13481e-20)
(1.95001 1.34539 2.38717e-20)
(1.05471 -0.058906 1.46112e-19)
(1.05676 -0.0689897 -5.29382e-19)
(0.70044 0.055436 -4.93379e-19)
(0.715903 -0.0607389 -2.54186e-19)
(0.90709 -0.0951321 -6.20587e-20)
(1.05184 0.255228 -3.57505e-19)
(0.866271 0.110827 1.29678e-19)
(1.3118 1.90006 2.42324e-20)
(1.0822 0.0855019 -7.37328e-19)
(1.00251 -0.00182654 -1.85304e-22)
(0.957367 -0.0223712 -9.6192e-20)
(1.10759 0.100345 2.67301e-19)
(0.556917 -0.00898869 4.61982e-20)
(0.939699 0.0445886 5.59127e-19)
(0.815336 -0.0952052 3.69552e-21)
(1.11188 -0.0585998 -1.47656e-19)
(0.889059 -0.0764933 9.74051e-20)
(0.713891 -0.0549888 -3.15887e-20)
(0.999418 -0.0343294 1.3119e-19)
(1.05995 -0.0685021 3.20705e-19)
(1.6831 -0.101537 -3.32963e-20)
(1.00454 -0.00280491 2.62117e-21)
(1.19528 -0.00932899 -8.32637e-20)
(0.998766 5.26193e-05 -4.3555e-23)
(0.303474 -0.103474 1.55358e-18)
(1.02484 -0.022545 1.29629e-20)
(0.942416 0.390448 9.26075e-19)
(0.773618 0.181263 -3.85417e-19)
(0.993917 0.188979 -7.52233e-19)
(1.09534 0.0764606 5.04771e-19)
(0.955761 0.167711 -7.17779e-20)
(1.17308 0.0160154 1.24009e-18)
(0.953468 -0.0822394 -2.79226e-20)
(1.10944 -0.0445427 -1.51235e-19)
(0.977932 -0.0597052 7.74247e-23)
(0.756984 -0.0697158 1.49922e-21)
(0.658094 -0.00255748 -2.28276e-19)
(0.85264 -0.0372994 6.07442e-20)
(0.95264 -0.0193652 -2.30652e-19)
(1.04494 -0.0919363 -3.19136e-19)
(1.0245 -0.0217984 -1.57125e-20)
(0.9822 -0.00973031 -2.69158e-21)
(1.01542 -0.0131613 -1.02042e-20)
(0.983292 -0.0918336 -1.01231e-19)
(1.23522 0.00246936 7.38915e-19)
(1.03294 -0.0836078 6.74915e-19)
(0.693542 0.0583652 5.25021e-19)
(0.996464 -0.0661077 -2.44704e-20)
(1.25235 0.153387 -4.92933e-19)
(1.07398 -0.0661345 4.26415e-19)
(0.983973 -0.00970753 -1.11595e-20)
(0.929252 0.118413 2.62125e-18)
(1.18432 0.0423876 1.20123e-19)
(0.965998 -0.0859457 3.37267e-18)
(1.00492 -0.00373246 -2.59447e-21)
(1.0031 -0.0546038 0)
(1.1137 -0.0441923 2.25341e-19)
(0.896641 0.00387956 -2.16045e-19)
(0.88245 -0.0558642 6.25466e-20)
(1.30979 -0.173469 1.80498e-19)
(0.638481 0.00283249 -6.51691e-19)
(1.03226 0.303405 1.66171e-18)
(0.521876 -0.00419537 3.1165e-19)
(1.0428 0.249626 -1.90039e-19)
(1.07556 -0.0659617 -3.10053e-19)
(1.09793 -0.0596755 2.23755e-19)
(0.9396 -0.204697 -7.69929e-19)
(0.777161 0.288025 -4.46319e-19)
(1.17947 -0.120308 6.94332e-19)
(1.12728 -0.0452097 3.4733e-20)
(0.333583 -0.123046 -2.23118e-18)
(0.521701 -0.005795 -1.79079e-19)
(1.00495 -0.00395517 1.10376e-21)
(1.18787 -0.00851532 9.97653e-20)
(0.547434 -0.192677 2.93525e-19)
(0.897762 -0.0118729 3.39807e-20)
(0.554721 -0.0322371 -5.49044e-19)
(1.0431 -0.0960222 -1.15821e-19)
(1.08289 0.21603 2.04709e-18)
(0.998693 1.71569e-05 -1.31011e-22)
(1.13277 -0.0414602 -6.84259e-20)
(1.19854 0.00953631 6.33126e-19)
(1.14136 0.0108483 -7.86994e-19)
(1.05991 0.415634 -4.4199e-19)
(0.999874 -0.00012214 1.24637e-24)
(0.99354 -0.0036416 1.98635e-22)
(1.12848 -0.002338 -3.35368e-19)
(0.895848 -0.00795526 3.69319e-19)
(0.940442 -0.0813806 1.14584e-20)
(0.988043 -0.0496061 -4.08325e-21)
(1.01087 0.209745 -8.11835e-19)
(1.31021 -0.0019044 -9.24627e-19)
(0.675895 0.385448 -9.08983e-20)
(0.958705 -0.0456218 -9.24564e-19)
(0.581168 0.0279907 -1.09634e-19)
(1.01861 -0.160934 2.82847e-19)
(1.09527 0.0738127 1.20427e-18)
(0.895984 -0.0766254 -4.13061e-20)
(1.31045 0.054426 -2.97354e-19)
(0.434426 -0.158426 -2.06894e-18)
(0.955312 0.0363571 -5.16897e-19)
(1.06941 -0.0420441 -2.97649e-19)
(0.959597 -0.0570774 -1.74717e-19)
(0.871802 -0.0811 1.79943e-20)
(0.996253 -0.309468 -2.76705e-18)
(0.881596 0.00168048 5.34937e-19)
(0.878148 0.38355 5.09341e-19)
(1.00623 -0.115064 -4.57824e-19)
(1.00012 0.187921 4.18433e-19)
(0.665607 0.061354 -1.87562e-19)
(0.790353 0.0241815 4.00797e-19)
(0.212547 0.781524 -1.90094e-20)
(1.07401 0.0983419 1.19261e-18)
(0.896885 -0.0918126 8.24794e-20)
(1.03919 -0.0833565 3.4704e-19)
(1.03453 -0.0800844 -2.68634e-19)
(0.998182 -0.000329714 -3.68702e-21)
(1.02524 -0.0870067 -1.16891e-18)
(0.970998 -0.235891 3.67956e-19)
(1.01846 -0.0493949 -2.38458e-20)
(1.12408 0.0636198 -7.48953e-20)
(0.970244 -0.0687809 9.10352e-22)
(0.970251 -0.0701206 -1.83012e-21)
(1.13617 -0.00708047 -2.56611e-20)
(1.00855 -0.111115 2.80876e-19)
(1.07383 -0.00706726 -5.71275e-20)
(1.08527 -0.0489206 4.16014e-21)
(0.601591 0.0351228 -3.25409e-19)
(0.90342 -0.0782509 -6.03091e-20)
(0.763289 -0.068406 -1.33465e-20)
(1.02732 -0.312813 -3.47712e-18)
(1.02023 0.234998 1.27475e-18)
(1.11981 -0.00202459 6.40479e-19)
(0.852915 0.0130772 -3.1275e-19)
(0.929303 -0.176317 6.3245e-20)
(1.05866 -0.068076 -1.90163e-19)
(1.00238 -0.0036414 -3.50137e-22)
(0.999904 -0.000336383 3.77945e-23)
(0.597412 -0.0527291 -1.07739e-19)
(0.432079 -0.157691 2.10929e-18)
(0.800588 -0.0963745 1.65607e-20)
(1.0023 -0.00348695 -9.28816e-22)
(0.649331 0.00331183 -1.71039e-19)
(1.12337 0.165493 2.18536e-18)
(0.493583 0.292044 -7.03391e-19)
(0.907737 0.262906 -5.91087e-19)
(0.994408 -0.000294165 -2.66613e-21)
(0.656308 0.000999733 -7.48958e-19)
(0.960904 -0.0241591 -6.69201e-19)
(1.01161 -0.00121992 -9.40186e-22)
(0.991163 -0.0264841 1.32638e-21)
(0.632979 -0.00379008 1.18612e-19)
(1.12716 -0.00193836 -1.11519e-19)
(1.07511 -0.064276 -2.44248e-20)
(1.22923 -0.211327 1.01466e-19)
(1.04787 -0.00453441 -3.18859e-20)
(0.786514 -0.184413 -9.33111e-19)
(0.608589 0.0417746 3.29606e-19)
(0.582691 0.0290311 -1.85893e-19)
(0.68804 0.0509739 -6.74275e-20)
(1.08967 -0.0489446 -2.22305e-19)
(0.745293 -0.183357 -1.10678e-18)
(1.02536 -0.047785 2.95011e-20)
(1.00238 -0.00156614 -6.76155e-23)
(1.14342 -0.0482843 1.90101e-19)
(0.843501 0.318239 -4.20975e-19)
(1.20992 -0.156043 2.17944e-18)
(0.966389 0.0669022 9.30881e-19)
(1.03146 -0.0860872 -2.18176e-19)
(0.829746 0.0127532 9.32269e-20)
(0.941278 0.0334572 4.65105e-18)
(1.17579 0.00377844 -1.65937e-18)
(1.02093 -0.0423749 -1.95204e-20)
(1.23743 0.00317611 -6.47843e-19)
(0.773 0.0350235 -8.6671e-20)
(0.727994 0.329433 -8.21045e-19)
(0.960614 -0.0615544 -2.09975e-19)
(1.21836 0.00651006 -1.63512e-18)
(1.09465 -0.0040613 1.22408e-19)
(0.967895 0.0694728 6.41408e-19)
(1.06099 -0.00561696 -5.79814e-20)
(0.892172 -0.0494679 -4.10952e-20)
(0.673521 0.0571765 5.10118e-20)
(0.881023 0.0367928 5.42457e-19)
(1.03058 -0.00134713 -4.42111e-20)
(0.905403 -0.0208907 -4.99512e-19)
(1.29951 -0.17214 -3.58132e-19)
(1.02747 0.305811 -1.30902e-18)
(0.916394 -0.0778963 3.90141e-19)
(0.876386 -0.0562813 -9.30503e-20)
(0.7558 0.576788 -1.62761e-19)
(1.00718 -0.000203698 -2.47687e-21)
(1.26333 1.87366 -1.04383e-20)
(0.897621 -0.0762752 -6.45531e-20)
(1.17815 0.015409 -9.91921e-19)
(0.896502 0.00424977 -2.06589e-19)
(1.15261 -0.00484917 -3.5905e-19)
(0.400815 -0.0469691 -1.39564e-18)
(0.858953 0.108628 -1.28256e-18)
(1.24368 -0.160433 1.01527e-18)
(0.956672 0.16349 2.10311e-19)
(0.738769 0.410128 7.08045e-19)
(0.743789 0.345543 -6.33421e-19)
(0.75007 -0.0323169 -1.12148e-20)
(1.17799 0.00359723 1.83782e-18)
(0.733971 0.303271 6.70343e-19)
(0.971502 -0.0882676 -2.62068e-18)
(1.06576 -0.0624244 -1.05882e-20)
(0.971099 -0.0976105 9.53069e-20)
(1.18248 -0.159855 -2.36071e-18)
(1.00311 -0.00244441 -3.60202e-22)
(0.564487 1.94595 5.55883e-20)
(0.479954 0.267358 -2.83449e-19)
(0.752897 0.0546545 -3.60552e-19)
(1.08403 -0.0684913 -1.96953e-20)
(1.14764 0.00782259 -2.65648e-19)
(0.890686 -0.100182 -4.61917e-21)
(1.11082 -0.0437591 -4.52276e-21)
(0.976648 -0.171955 -6.31682e-19)
(1.33815 -0.00856266 7.72296e-19)
(0.98385 -0.000815569 -6.35522e-22)
(1.0266 -0.047629 -2.94446e-20)
(1.12118 0.073304 -2.57163e-19)
(1.04447 -0.0832842 2.35672e-20)
(0.201396 0.356457 2.00597e-20)
(0.774801 0.297127 -7.50762e-19)
(1.04921 0.236021 2.56333e-19)
(0.991606 -0.0266624 -3.61114e-21)
(1.00794 -0.183935 -9.10346e-20)
(0.953107 -0.147561 -6.99054e-19)
(1.06441 -0.00445154 3.87541e-20)
(1.01657 -0.0368765 5.98328e-19)
(1.14125 0.110526 5.41967e-19)
(1.33386 -0.0351657 -4.99731e-19)
(1.04249 -0.082702 -8.76069e-20)
(0.999737 -0.000168407 1.71317e-23)
(0.739915 0.301598 5.04538e-19)
(1.01529 -0.0365985 1.06181e-18)
(0.983574 -0.000905114 -1.41709e-20)
(1.16505 -0.00630512 -1.66405e-19)
(1.11815 -0.0358642 -1.24991e-19)
(0.910142 -0.0754665 1.14733e-20)
(0.794693 -0.00629861 3.04138e-20)
(0.172752 1.55739 3.70942e-20)
(0.611826 0.0184347 -7.09989e-20)
(0.892342 -0.102485 -6.97922e-22)
(0.718516 -0.0564834 -4.80148e-21)
(1.02799 -0.0462841 4.23162e-20)
(0.985215 -0.0102279 7.81705e-21)
(1.03118 -0.0245319 -5.16376e-19)
(0.561867 0.362524 -1.22908e-19)
(0.97381 -0.00746979 5.53337e-21)
(0.609277 0.0431478 3.9165e-19)
(1.0814 -0.0569747 1.75037e-20)
(0.914069 -0.0717418 1.83453e-19)
(0.876172 0.0320329 -7.17149e-19)
(0.987359 -0.046599 1.4059e-21)
(1.26359 0.0460404 -4.41956e-19)
(1.10032 -0.0259005 -4.94133e-19)
(1.03094 -0.187407 3.23744e-19)
(0.595841 0.35849 3.40148e-19)
(0.943337 -0.0285234 8.12373e-21)
(0.996439 -0.00921259 -2.02327e-21)
(0.954286 -0.0321689 -1.6299e-20)
(0.882622 -0.056233 -1.76804e-21)
(1.10113 0.018476 0)
(1.03439 -0.0454825 -3.5822e-19)
(0.519325 0.000923993 -2.48278e-20)
(0.999856 0.0352074 -2.08549e-18)
(0.466389 -0.171334 1.77677e-18)
(0.461358 -0.168684 -1.5378e-18)
(1.09516 -0.0521874 4.18993e-19)
(1.12131 0.0371638 1.18679e-18)
(1.02562 -0.278122 2.16531e-18)
(0.946648 -0.0333859 7.9128e-21)
(0.905123 -0.0200121 -1.04045e-19)
(0.749862 0.0547782 3.4353e-19)
(1.02247 -0.0225852 1.83449e-20)
(1.01245 -0.0776826 2.76361e-19)
(1.0832 -0.0557983 -8.50315e-21)
(1.02525 -0.0821517 -6.20897e-19)
(1.0239 -0.267688 -7.00049e-20)
(1.31234 0.137189 -8.8262e-19)
(0.764311 -0.180904 9.09677e-19)
(0.895387 -0.0949926 -1.35196e-20)
(0.733669 0.0564764 6.03146e-19)
(1.02376 0.0255704 -4.43695e-20)
(1.06625 0.206085 -1.38007e-18)
(1.18333 0.0151514 -2.19957e-19)
(0.972107 -0.0664463 -8.2277e-20)
(1.00148 -1.30501e-05 -5.55586e-23)
(0.959072 -0.0389027 1.15294e-18)
(0.688807 0.00136698 2.11699e-20)
(0.271759 -0.0771786 -1.09656e-18)
(1.02771 -0.0484696 -1.8531e-19)
(1.08197 -0.0543103 -2.06699e-18)
(0.977563 -0.159598 -5.43125e-19)
(1.14723 -0.0488081 8.29965e-20)
(0.138868 0.402491 -3.95879e-19)
(0.908166 -0.00338459 5.20888e-20)
(0.724721 0.063219 1.38788e-18)
(0.988788 0.00677902 3.63413e-19)
(1.14005 0.116407 -2.62729e-19)
(0.569198 -0.0628782 -1.2549e-18)
(1.23168 0.00754468 1.24943e-19)
(0.99865 -0.002319 -9.55599e-22)
(0.93941 -0.123522 3.64286e-20)
(0.607311 0.039526 -3.71015e-19)
(0.891026 -0.00215769 -4.94668e-19)
(1.16313 -0.00918136 -1.23121e-19)
(1.23513 -0.216955 9.69879e-20)
(1.02877 -0.0462056 -4.82414e-20)
(1.52494 -0.443871 7.36584e-20)
(0.869631 -0.0820448 -7.43258e-20)
(0.997975 -0.00845023 -8.59301e-22)
(1.03591 -0.0472628 3.98471e-19)
(1.02192 -0.0488662 1.21498e-20)
(1.33766 -0.0291787 6.86219e-19)
(1.02317 -0.0221853 -1.6178e-20)
(0.927019 0.385193 -2.9365e-19)
(0.735387 0.0487868 9.6296e-20)
(1.24271 0.002115 -2.37527e-19)
(1.14343 -0.0403893 -3.49155e-19)
(1.08626 0.24361 1.97488e-18)
(1.12058 -0.0470851 -4.34966e-19)
(1.02443 0.0988622 -7.70716e-19)
(1.0001 -0.000456218 2.54758e-23)
(1.02314 -0.128743 3.97912e-19)
(1.01398 -0.0791696 -1.28206e-19)
(1.09504 -0.0601591 3.8027e-20)
(0.693677 0.00151094 1.53385e-19)
(1.00273 -0.00202785 8.15041e-22)
(0.167599 0.410556 -4.29657e-19)
(1.23422 0.348911 2.01051e-19)
(0.446475 0.259293 6.34667e-19)
(1.02107 -0.0412898 3.78777e-20)
(1.13055 0.4757 1.35614e-19)
(1.10223 0.0203499 -2.99645e-19)
(1.07504 -0.0940816 1.46941e-18)
(1.03865 -0.0733091 5.91375e-20)
(0.968932 -0.000327092 -4.33476e-21)
(1.11826 0.069816 -3.00838e-19)
(1.01857 -0.0164236 -1.04927e-20)
(1.22778 -0.129542 -4.79353e-19)
(0.961081 -0.0221614 -7.08159e-20)
(0.414969 -0.099097 -1.17758e-20)
(0.863974 0.407407 -1.63387e-18)
(1.0178 -0.0153092 8.30977e-21)
(1.10519 -0.455113 2.23153e-19)
(0.994329 0.0710634 -1.53929e-18)
(0.985213 -0.00975417 3.84447e-22)
(1.11058 0.139384 1.70393e-18)
(1.02482 -0.0782448 1.45825e-18)
(0.792978 -0.00736848 2.48349e-20)
(1.06738 -0.0342808 3.57561e-19)
(1.0441 -0.00572972 2.33357e-20)
(1.09516 -0.0212446 -4.34007e-19)
(0.679797 0.056182 -2.42515e-20)
(0.575845 -0.00443736 3.18389e-20)
(0.876402 0.384189 -7.01874e-19)
(0.958093 0.0330599 -3.55806e-19)
(1.25704 0.236541 1.389e-18)
(1.21056 0.0207643 1.15634e-18)
(0.751096 -0.00670014 -7.1302e-20)
(1.00275 -0.0433947 -1.94995e-21)
(0.867425 0.378394 -2.85403e-19)
(0.898521 -0.075792 -4.04195e-20)
(0.579261 0.014475 -3.29466e-20)
(1.02348 -0.0490255 -6.81461e-21)
(1.02188 0.263572 6.38388e-20)
(0.57301 -0.0609104 1.78534e-18)
(1.34113 0.052895 1.14536e-18)
(1.00229 -0.0895573 1.74099e-19)
(1.00328 -0.0957472 -3.27896e-20)
(0.696212 0.00264667 -7.40969e-20)
(0.463062 0.306535 -4.48615e-19)
(1.00917 -0.181962 -1.81009e-20)
(0.997392 0.208108 -2.55188e-19)
(1.13843 -0.0242217 -8.22591e-19)
(1.10209 0.0779165 -1.01141e-18)
(0.977819 -0.013605 -3.70447e-21)
(0.118006 0.613338 1.73344e-19)
(1.00203 -0.00335741 -4.79945e-22)
(1.1054 -0.0415201 2.84379e-19)
(0.998615 -3.34071e-05 2.80061e-22)
(1.25754 1.78045 -5.33059e-20)
(1.18164 -0.11305 -5.69057e-19)
(0.936561 0.114584 1.24008e-19)
(0.998133 -0.000380197 3.70836e-22)
(1.23927 -0.171259 -2.7321e-18)
(0.954472 -0.0132615 1.12039e-20)
(1.01474 -0.0776605 2.78038e-19)
(0.934788 -0.0316042 2.67648e-20)
(0.537675 -0.192284 -5.85551e-20)
(0.855262 0.0121425 5.13199e-19)
(1.03757 0.268184 9.99651e-19)
(0.984556 -0.00122282 1.93103e-20)
(1.06785 -0.150467 3.96565e-19)
(1.02097 -0.0357827 1.07821e-19)
(0.834187 0.0141603 3.60667e-19)
(0.997541 -0.00910991 4.02115e-21)
(1.00015 -0.0964896 -3.46888e-20)
(0.974075 -0.00129487 2.13151e-21)
(0.990264 -0.19873 3.43866e-19)
(1.10366 -0.061425 1.62127e-19)
(0.890797 -0.0567985 -2.01003e-21)
(0.643465 -0.00224221 -9.92032e-19)
(1.00973 -0.023696 -1.09768e-22)
(1.02993 -0.0437114 3.93041e-20)
(1.04161 0.0200946 4.66527e-19)
(0.944227 -0.0287869 4.85253e-21)
(0.938758 0.0408753 -2.06845e-18)
(1.15273 0.129411 1.93255e-18)
(0.398135 0.278023 -6.40376e-21)
(0.590852 0.00770821 8.79069e-20)
(1.13521 -0.211923 -3.48213e-19)
(0.998352 -0.000184908 -2.26699e-22)
(0.735387 0.605109 1.80739e-19)
(1.02095 -0.267472 2.57403e-19)
(1.04131 -0.00581677 3.4372e-20)
(0.806567 -0.0960964 2.10818e-19)
(0.994088 -0.0914678 1.26317e-19)
(0.679093 -0.118824 -3.08423e-19)
(1.56168 0.80148 2.07765e-20)
(1.05969 -0.00542902 -4.18398e-20)
(1.01142 -0.110914 -8.76237e-19)
(0.997989 -0.00865438 3.44088e-21)
(0.867065 -0.0620229 5.42369e-20)
(0.956944 -0.0138517 1.09802e-21)
(0.768707 0.269495 -9.54531e-20)
(0.622724 -0.0350559 -3.77736e-20)
(1.01442 -0.028141 -2.92811e-22)
(0.980418 -0.00991374 6.43396e-21)
(1.18115 0.00643108 7.92344e-19)
(0.796416 -0.222967 -1.02646e-19)
(0.903582 -0.0759853 6.37061e-20)
(1.00884 -0.0943985 -8.2223e-20)
(0.885164 0.384518 -8.16133e-20)
(0.860215 -0.238717 5.56444e-19)
(1.09873 -0.0597802 1.04978e-19)
(0.333197 0.108306 -2.12849e-20)
(1.32315 0.314519 -3.4102e-19)
(0.588595 -0.190089 -4.75605e-19)
(1.00358 -0.0428678 7.70955e-21)
(0.999093 -8.31506e-05 8.23225e-22)
(0.834612 0.322034 5.5133e-19)
(0.657399 -0.0915163 -1.11255e-19)
(1.01048 -0.0236641 -4.87547e-21)
(0.205859 0.303187 8.47639e-19)
(0.908596 -0.0466163 2.94038e-20)
(0.998859 -0.000620427 1.96843e-21)
(1.12314 0.165926 2.07287e-19)
(1.11479 -0.321884 8.0708e-20)
(0.768706 -0.18263 -1.20915e-18)
(0.509036 -0.189534 -2.16606e-19)
(0.892048 0.0253013 4.3339e-19)
(0.565011 -0.00769817 5.16547e-20)
(0.583507 0.0129029 2.70462e-19)
(1.07264 -0.042735 -4.37439e-19)
(0.872541 0.381746 -7.40746e-19)
(0.976889 -0.0603632 3.93163e-22)
(0.955462 -0.145916 -1.31968e-19)
(1.13707 0.17505 1.45021e-19)
(0.985974 -0.0581237 3.04708e-21)
(1.31695 0.28683 4.70231e-19)
(1.00425 -0.0654186 8.44989e-19)
(1.0361 0.225458 -1.9757e-18)
(1.05635 -0.0282788 3.07539e-19)
(0.949811 0.00588793 -9.31876e-20)
(1.16136 0.425356 -7.46111e-19)
(1.19872 0.0133055 5.99056e-19)
(1.10268 -0.151067 -4.85506e-20)
(0.790902 0.0381041 -3.63261e-19)
(0.733177 0.349107 1.40617e-18)
(0.760068 0.317167 4.60265e-19)
(0.597604 -0.000950404 3.01693e-20)
(0.980758 -0.168936 -2.41781e-19)
(0.768474 0.301222 1.3341e-19)
(0.879885 -0.0283085 1.81565e-20)
(0.963231 -0.00162048 1.60042e-22)
(1.44324 -0.412089 3.75718e-19)
(0.827509 -0.026602 1.25427e-19)
(0.835615 0.0127636 9.35687e-20)