/*--------------------------------*- C++ -*----------------------------------*\
  =========                 |
  \\      /  F ield         | OpenFOAM: The Open Source CFD Toolbox
   \\    /   O peration     | Website:  https://openfoam.org
    \\  /    A nd           | Version:  7
     \\/     M anipulation  |
\*---------------------------------------------------------------------------*/
FoamFile
{
    version     2.0;
    format      ascii;
    class       volScalarField;
    location    "10.5";
    object      p;
}
// * * * * * * * * * * * * * * * * * * * * * * * * * * * * * * * * * * * * * //

dimensions      [0 2 -2 0 0 0 0];

internalField   nonuniform List<scalar> 
19930
(
-0.00267443
-0.0224852
0.0274809
-2.21314e-05
-0.00284863
-0.00355768
-0.10002
0.784263
-0.0459145
0.757395
-0.0816847
0.40069
-0.0414632
-0.0026222
-0.00459431
-3.00213e-05
0.0705602
0.486778
-0.0764187
-0.0211062
-0.0385546
0.415129
0.75311
-0.0889096
0.0243702
1.44
0.00680735
-0.0344164
-0.0909478
-0.07628
-0.00154719
1.74703
0.638577
-0.0211788
-0.000646698
-0.0016282
0.854815
-2.59378e-06
0.00876564
0.416044
0.048545
0.791629
1.14185
0.00587951
1.44272
-0.0570253
0.707858
0.224981
-0.000111942
-0.0472054
-0.000765383
0.12094
-0.00235431
-0.00115857
-0.0188007
-0.0576038
-0.0348774
-0.00194988
-0.0128224
0.0786925
1.56485
-0.0432855
-0.0113735
0.691066
-0.000259266
-0.00704349
1.41284
-0.00769555
0.0777851
1.41969
0.0277443
0.0280989
-0.00418655
-0.0333089
1.42981
0.0248327
1.40284
-0.0645909
0.4119
1.3111
-0.00602003
0.000128285
-0.0939581
-0.0416069
-0.0428673
1.15282
-0.035072
1.93034
0.69679
1.52609
0.645391
-2.16545e-05
-0.00012063
1.85813
0.201336
-0.0104865
1.87901
-0.002025
-0.0671469
0.897811
1.54442
-0.0276123
1.58541
0.0335846
0.220837
0.0530378
1.27492
0.0708399
-0.0297501
1.17489
-0.0994439
-0.102117
-0.0315747
0.0313496
0.0364137
-1.47693e-05
1.09096
-0.00546591
0.0068195
1.28932
-2.63269e-05
-0.0346519
0.453724
-0.0184061
-0.0210631
0.490171
0.522002
-0.0333677
1.77311
1.11968
-0.0435021
-0.0460611
0.0486118
0.00877706
1.29648
0.199699
0.287697
-0.0387285
-0.0218324
-0.0631741
-0.0414678
-0.036296
0.0041261
1.60669
0.218738
1.31084
0.628178
-0.0343773
0.492282
0.00776075
-0.0340437
1.40177
-9.40637e-05
-0.0368255
0.000173721
0.635266
1.1784
-0.0942587
-0.0620502
-0.0439673
-0.0362554
-0.088396
-0.00182839
0.236369
0.338957
1.91231
-0.0259332
-0.0900839
0.02008
0.846204
0.276027
1.46627
1.07701
-0.0222437
1.99747
0.615154
-0.00268322
1.52933
0.0459201
1.22479
1.33769
9.00881e-06
1.61054
1.08681
-0.0200048
-0.0671308
0.0297758
0.856549
0.0265855
1.77305
0.53055
0.10455
0.921978
0.0930472
-0.0622028
0.386766
1.60064
0.176803
-0.0200411
1.79696
0.28821
0.0117409
0.0154688
1.73381
1.64941
-0.0451044
-0.0176991
0.124011
-0.056848
-0.00115051
1.39844
1.51618
-0.0361998
-0.0588858
1.20932
1.42823
-0.00493205
1.28855
0.084108
0.0108758
-0.0250614
1.19739
1.6651
0.656379
1.16989
-0.0237157
-0.0148435
-9.02752e-06
-0.00374914
-0.00222743
0.44722
0.00752972
1.2588
-0.0607179
1.1918
-0.0325105
0.0558666
1.45296
1.89897
1.18202
1.38857
-0.0593459
0.828619
-0.0155636
0.241188
-0.00519537
-0.034982
0.144319
0.127027
-8.67076e-05
-0.029024
1.68553
0.442662
0.00693424
-0.0548284
0.0103014
-0.100216
0.821928
-0.0592345
-0.0542524
-0.0378538
-0.0183102
-0.000373523
-0.0321817
-0.083175
1.60434
0.153664
-0.0290692
1.20736
1.63907
-0.03469
2.81352e-05
-0.0396964
1.41241
-0.0674047
1.55458
-2.97691e-05
-0.059395
1.14075
1.38542
-0.00946174
-0.0321861
1.75226
0.0456029
0.100848
1.56949
1.75938
-0.0378268
1.15057
0.310328
1.29645
1.01337
3.54343e-05
0.139955
0.875003
-0.00288107
-0.0720704
0.212453
-0.11336
0.280182
0.192348
-4.89879e-05
-0.00147779
1.52069
-0.00368971
-0.0834995
-0.0461481
0.430623
-0.0394967
1.21279
0.288051
-0.041334
-0.0673402
0.808916
0.419856
-5.63174e-05
1.5283
1.12604
1.51207
-0.000963463
-0.000281055
1.73902
-0.0041208
-0.0297799
0.396381
0.190424
-0.0424407
0.0275847
1.18739
1.85526
1.34663
0.367138
2.02001
-1.24002e-05
-0.0202945
1.38749
-0.0553853
0.87224
-0.0307149
1.42699
0.273659
-0.00106877
0.267407
1.08461
-0.0633111
1.60494
1.03775
-0.000363052
0.0360718
0.671505
0.516915
-0.00388549
1.07207
-0.0089137
1.97992
-0.0430762
-0.035971
-0.0276873
1.33365
1.07635
-0.0441729
0.812739
1.52423
-0.00383566
1.03595
1.14833
2.00092
-0.00337886
0.495108
0.13352
-0.0617998
-0.000130466
1.44722
0.786171
0.153337
1.46109
0.393235
-0.035875
0.812473
0.346525
0.455489
1.98048
-0.0294219
0.359874
1.50785
-0.0564909
0.26298
-0.064659
0.656855
-0.0365938
0.674455
0.159863
0.35011
-0.000727751
0.719087
1.4955
1.05249
-0.0967479
-0.0163468
1.71249
1.7294
-0.00465109
-0.0566338
1.28032
-0.0791701
0.0429573
0.832567
-0.0292115
2.07048
-0.000110983
0.533109
-0.0116142
1.50756
1.02151
0.134624
0.0398516
0.111182
0.295984
-0.00199429
1.2854
0.0269326
0.727108
1.9572
-0.00432833
0.0307712
-0.00270079
0.232607
0.157058
-0.0323171
0.91191
-0.000533213
-0.0433456
0.00998987
0.0623665
-0.0297481
-0.000123634
-0.0415886
0.366768
-0.0788446
0.0111529
-0.047591
0.228258
0.208843
-0.0485415
-0.0635032
-0.00107655
0.0770677
-0.0827602
0.00912359
-0.00195044
0.432625
1.03792
0.248044
-0.00035268
1.79487
0.00934583
-0.00060058
0.0444836
-0.0527375
-0.039946
1.63428
-0.00101317
0.320874
-0.0679888
-0.074689
0.816443
-0.0283759
-0.0486762
-0.0674179
-0.000138853
0.0469656
1.83628
-0.0932115
-0.0613763
0.915528
-0.0426554
1.01019
0.484722
-0.00465729
-0.00105369
1.14428
1.92959
-0.104155
0.594245
0.340771
-0.0512217
-0.0524098
1.27458
0.193458
-0.0865138
-0.0558065
-0.0438144
0.0823175
1.71485
0.402454
-2.21649e-05
1.59204
0.00569573
-0.0421748
1.11371
0.0106662
-0.0121021
-0.000428389
0.102278
-0.0417746
-8.79741e-06
0.578086
-0.0604281
1.29669
-0.000339841
-0.00134981
-0.0445776
-1.2015e-05
-0.109764
-0.0789476
-0.00181662
-0.0319712
-0.066533
1.10763
1.47805
-0.00390019
0.00145898
-0.0612011
1.50302
-0.00896763
1.52198
-0.0210042
1.96953
1.07074
0.598806
1.88006
0.0446187
-0.00955352
0.134315
-0.00453829
1.46355
1.27033
-0.0328509
-0.0237382
0.232181
0.0177398
-0.00815792
-0.0425024
-1.52877e-05
1.12914
-0.0663724
-0.0409832
-0.0160831
-0.0229207
0.547822
0.266696
-0.00426925
0.00443883
-4.79641e-05
1.96805
1.6938
-0.00421064
-0.0316373
0.0257869
1.26261
-0.0673395
0.335621
-0.0580423
1.36971
0.589053
-0.0437204
2.05283
0.0711489
1.32173
-0.0116869
-0.0887423
1.59703
-0.00306706
1.95246
1.21283
1.99733
-0.00906599
-0.0136265
-0.0307236
0.162119
0.00963245
-0.0230054
1.33595
1.3857
1.05681
1.48589
1.92725
0.653201
1.49719
1.05794
-0.00115936
1.16545
-0.0485121
-0.0563891
-0.0012308
0.0118609
-0.054197
0.841332
0.153426
1.3102
-0.0155962
0.281794
1.25166
-0.00328238
0.0351054
-5.93973e-05
-1.22579e-05
0.842428
-0.0442603
-0.0490181
-1.38068e-05
-0.000901107
0.213895
-0.000286271
0.198707
1.97851
0.621565
0.707573
-0.0377975
1.22987
0.2506
-0.00731701
-0.0312902
-0.00314607
-0.000432766
-0.00035594
-0.0158318
-0.0798989
0.807444
0.138203
-0.0594767
-2.11219e-05
1.37087
0.0953219
0.00938006
-0.00113433
0.30118
0.00416828
-0.0573271
1.25434
1.79596
0.991197
-0.0382614
1.02086
-0.0399396
-0.0363469
0.694973
-2.91877e-05
-0.022586
0.506315
0.658467
-0.0425267
1.23898
1.6455
1.21628
-0.0549005
-0.0638381
0.0222673
0.357553
1.14974
-0.00396169
1.58709
-0.0304434
-0.0872681
0.153467
1.82275
0.800022
1.28903
-0.0771234
1.91692
-0.0398943
-0.0343549
2.01947
0.116535
-0.0642691
1.3043
1.37387
-0.0409556
1.13394
1.50127
1.36427
1.17532
1.33115
1.04094
-0.0147108
-0.0393146
-0.000105965
-0.0793097
1.49229
-0.0747847
0.432028
0.485748
-0.0513068
0.213354
0.483105
1.52601
0.221273
-0.00148775
0.0913264
-0.0401325
0.044932
0.0270569
-0.0830111
1.16195
1.55925
0.19849
1.51277
1.9428
-0.00318102
0.00169775
-0.00491161
-0.0307343
0.899378
1.97206
0.413936
1.22045
-0.0276944
0.96471
0.984729
-0.0404028
-0.049777
-0.0674812
0.419777
-0.00671094
0.153716
-0.0487712
-0.0658781
1.27157
-0.00775194
-0.00221411
1.36952
0.205841
1.7534
-0.0389896
1.04544
0.0273714
-0.0407321
1.57804
1.78078
1.4896
-0.0204729
1.79143
-0.0512294
1.55467
0.111458
1.47548
-0.0410255
-6.6245e-05
1.4829
1.57004
1.54857
1.48597
0.853745
0.278314
0.95631
-0.06454
1.48648
1.23273
0.113166
0.159884
-0.0143239
0.0457261
1.23039
-0.0610846
-0.0434061
1.52918
1.50433
-0.040488
1.45249
-0.0923534
0.304184
-0.0157765
1.53638
1.56959
1.9435
1.52099
-0.00328455
-0.0286968
-0.00134435
-0.0467889
1.74363
0.648817
1.18479
-0.0641011
1.06207
0.0300965
1.74981
0.0114969
1.52042
-0.0146509
1.69624
1.79433
-0.030681
0.360305
1.68486
-0.00335513
1.84065
0.00771023
-0.00410989
-0.0508613
1.33289
0.526109
-0.0597391
1.44546
1.83352
0.987428
0.0756401
-0.0375596
0.118588
1.4976
1.79137
2.01542
0.639237
-0.00308528
-0.0414522
1.21768
-0.00109322
-0.0162921
-0.0011175
-0.0188778
-0.0550101
-0.0491005
1.6107
-0.00135499
-0.00101474
1.19462
0.574592
-0.0028836
0.381848
0.000529107
0.533105
1.22682
1.46794
-0.0529808
0.414009
-0.0109553
0.0327472
-0.00440238
1.51353
1.62463
-0.0693216
-0.0747227
-0.0757015
-0.0213976
1.46394
-0.00899936
-0.0348201
-0.0814002
0.0515892
1.88873
-0.0806019
0.17932
1.5338
-0.00863221
0.305133
0.00139115
-0.0677582
-0.00387303
-0.00134671
1.87565
1.01609
-0.0733697
0.0956548
1.03782
1.42972
1.22186
0.0284177
-0.0417703
-0.0279431
-0.0371893
1.15136
-0.0386569
-0.0341926
-9.42043e-05
-0.037373
-0.00172409
-0.0587238
1.34957
-0.063452
1.50561
1.46464
-0.0550826
-0.0265791
1.92865
1.06523
0.171062
-0.0293363
0.965978
-0.0351491
0.901057
1.87772
0.780185
-0.0360192
-0.0323264
1.33354
-0.0517226
-0.0661607
-0.0370049
1.6577
-0.0394838
0.0974056
0.941791
0.656728
1.199
-0.00509583
0.747929
-0.0194624
1.52651
-0.0850843
0.449723
-0.0272043
-0.0342361
-0.00110577
-0.00188565
0.000236386
1.65799
-0.0432446
0.990229
0.287649
0.00962156
-0.0507314
0.666574
1.95185
1.71111
-0.014102
0.609686
0.0106424
0.232904
-0.0408772
0.485753
-0.0592812
-0.00128581
1.14924
-0.047749
0.0126248
1.64198
1.26239
1.54281
0.0794624
0.0457887
-0.0198626
0.658171
0.066084
-2.19803e-05
1.68647
0.325291
0.570737
0.115802
-6.84523e-05
-0.0139243
0.000568548
0.532666
-0.00042387
-0.027299
0.00291664
-0.0381235
1.74027
-3.42199e-06
-0.0434756
-0.0613419
1.81782
0.021496
-2.1263e-05
-0.0540096
0.464544
1.13989
-0.0272193
-0.0235874
-0.0147565
1.19118
-0.0301755
0.631348
-0.0412331
-0.0518967
0.351616
1.04995
0.308524
0.585409
-0.00413936
1.24445
1.81467
-0.0216373
0.891907
-0.0541388
1.85978
1.77729
-0.0512206
0.238119
0.18572
0.982297
-0.000355698
1.48237
1.99665
-0.00829531
0.418065
0.668668
-0.000656024
0.000121962
-0.0269153
1.95084
-0.0132748
-0.0426442
1.48412
-0.000944217
0.955325
1.53811
-0.036379
1.69209
-0.0437453
-0.0271215
1.5509
0.651638
1.19589
-0.00439876
1.54043
0.51125
1.46892
-0.069821
-0.0110334
0.429701
1.68705
1.55485
1.7168
1.50545
0.0426329
-0.0506849
0.148574
1.05606
1.47418
1.81359
-0.0474948
0.829685
1.86183
1.35972
-0.000539633
-0.0597711
-0.0287536
0.422159
0.0274264
1.63784
0.71286
1.46861
0.365342
0.0485913
1.47881
0.0833027
1.10914
-0.0391643
0.221979
-0.0130037
-0.0386129
-0.0610998
1.80454
-0.0581779
-0.0378898
0.0636285
0.576944
0.259273
-0.0373438
0.203526
0.0329269
-0.0589569
1.13437
0.622438
1.26698
-0.0510713
1.54984
-0.0502934
-0.000492383
-0.0141163
0.00855032
-0.0602448
-0.0597221
0.00221412
0.699697
1.72506
0.468727
0.239792
-0.0132456
-0.0630521
0.869347
-0.000872989
1.86291
0.728548
0.0100918
-0.0351186
0.111751
-0.021524
-0.0244489
-0.0114322
0.065194
-0.0718578
0.685346
1.76663
1.59813
0.586723
-0.00586511
-0.0440134
-0.00237229
-0.016055
1.17797
-0.0150277
1.10507
-0.0491704
-0.0242663
1.7383
1.78193
-0.000481807
1.4958
1.58338
0.396996
0.00723934
0.544646
1.17236
1.77741
0.927786
-0.0355593
1.73169
0.308613
-0.0302762
-0.038982
-0.0438178
1.82435
0.0081024
1.5267
0.763619
1.70293
0.0248966
1.01463
0.968473
-0.0566888
1.55973
0.100026
1.66722
0.000104084
0.839675
1.11964
1.04302
-0.00141345
0.126998
-0.00441234
-0.0484125
0.84303
-0.0293608
0.973781
0.84795
1.95534
0.0389865
1.67789
0.0274593
0.0235557
0.198715
1.4901
0.315791
0.0826469
0.234296
1.21262
-0.00270563
1.91533
0.00081029
0.0468495
0.257616
-0.0347813
1.51598
-0.0340535
1.60807
1.23882
0.439135
0.17623
0.457808
-0.00087039
0.151354
1.63852
-0.0462758
0.0602384
0.781061
0.251472
0.0941445
0.180087
-0.0222892
1.74192
-0.0401906
0.194331
0.0448919
-0.060635
1.46145
1.97435
-0.0464964
-0.0674366
0.00724849
0.313001
-0.000229593
0.387613
1.78887
1.70252
0.0245175
0.527388
-0.000283585
-0.0552708
1.26124
0.0061205
0.672726
-0.0366177
1.91095
1.1867
-0.0746503
0.00563813
-0.029204
1.91572
-0.0451797
-0.00231945
-0.0278719
0.423489
-0.0557025
-0.0329379
0.343652
1.74998
-0.0857586
1.84893
2.02086
-0.0316599
0.0534385
-0.000252175
-0.00495072
0.0119217
-0.0404236
1.89634
-0.0313557
-0.00725607
1.12141
-0.0610738
1.23233
-0.0120958
0.0955685
1.1535
1.14485
-0.0782535
-0.0238214
-0.0649241
1.39178
-0.0441007
0.755209
-0.0513516
-0.0179821
-0.0527924
-0.00797976
-0.00709268
-0.083018
-0.073981
0.0102046
0.0157171
0.370769
-0.0036619
-0.0476961
-0.0601543
-0.0323548
-0.0118083
1.74073
0.16374
-0.0338026
-0.00318716
1.35289
-0.00274764
1.16491
0.0374513
0.185968
-0.0138451
1.21679
0.775828
-0.0596118
-0.0210883
-0.0281439
0.930027
-0.000438411
1.13636
1.34443
0.00201441
0.02224
0.41104
0.410068
-0.0501511
0.399079
1.24995
-0.0332736
1.08037
-0.0591377
0.0617343
1.02903
1.78156
0.130198
0.000162049
1.45676
0.942029
-0.0381431
-0.0500589
-0.0990291
0.0632264
-0.0357037
-0.011936
1.34279
-0.0808439
0.00291525
1.32255
-0.0206979
-0.0425201
0.629719
-0.00659235
0.500584
1.1202
0.100291
1.03598
-0.0216963
1.71034
-0.0407877
-0.000497603
-2.24092e-05
0.145462
-0.000442777
-0.0252297
0.499578
0.00608677
-0.00166895
-0.034193
-0.0282619
0.619932
1.5181
-0.000902768
-0.027404
0.0184841
0.995881
-0.0703175
-0.0304645
-0.0380729
0.268788
0.660894
-0.0156394
-0.0178395
0.0296687
1.21555
1.28829
0.372173
1.15137
1.56654
-0.00808721
1.03329
0.413606
0.132248
-0.0345451
0.0795682
2.00651
0.00342325
-0.0393865
-0.0554677
1.17649
-0.0216405
-0.00188164
-0.0514976
-0.0587666
-0.00660946
1.52262
0.736082
0.991906
1.34973
1.16196
-0.0271555
0.496412
0.918375
0.167614
1.47995
0.581671
0.738301
-1.9771e-05
0.900652
-0.0423195
0.544106
0.813117
-0.0808838
0.322621
0.283201
-0.033969
-0.0138652
0.173015
0.505926
1.77641
0.515887
-0.000133076
0.815092
-0.0287147
0.790361
0.625399
-0.0227222
-0.0379299
0.943521
1.48185
0.358535
-0.068136
-0.0402706
0.637179
1.07788
-0.0528989
1.31562
-0.0401039
0.49733
0.0908119
1.64345
-0.00157481
0.00110357
-0.0089477
-0.0420871
0.0121064
-0.0307482
1.01786
1.2964
0.0108226
0.712756
0.0123291
-0.0238508
-1.1458e-06
0.640093
-0.0106928
0.660058
-3.60131e-05
1.10427
-0.0585437
1.28932
-0.00760914
1.40973
-0.0578145
-0.0202752
-0.000860479
1.50133
-0.0514234
0.247506
0.442677
0.0167073
1.27059
-0.0202715
0.00497905
-0.0439591
-0.00776651
1.53197
-0.009583
-0.0419574
-0.0314949
-8.65542e-05
-0.0272785
1.31022
0.000304523
-0.0627311
-0.000858978
-0.00372502
1.19544
-0.0179327
0.226439
-0.0245935
-0.00019587
-0.0118386
0.0670766
-0.0452756
0.000963868
-0.0215657
0.719514
-0.000294339
-0.0392921
0.0640475
0.458968
1.44322
-0.0286015
0.00686108
-0.0627549
-0.02972
1.09267
1.29002
1.54579
-4.46925e-05
0.562556
-0.0506296
-0.0475781
0.709411
-0.0357581
-0.0226779
-0.0278863
-0.0133368
-0.0363611
-0.0338246
-0.0264536
0.000339851
0.0426357
1.09765
0.0194698
0.817446
0.267114
0.181163
0.664636
0.44789
0.950766
0.0901478
0.940107
-0.000596296
-0.0193251
0.874364
-0.0645224
1.17534
1.11582
-0.0346494
-0.0600805
-0.000209144
-0.0466573
0.128027
-0.0336497
-0.0346493
-0.0379791
-0.0304313
-0.0555377
-0.0418084
-0.026165
-0.0137488
-0.0683209
0.951702
-0.0516849
-0.00499001
-0.0614873
-0.000451143
-0.0595828
1.29271
1.25668
0.601516
1.62837
0.00306741
0.0326103
-0.0473013
0.000448998
-0.00774082
-0.000340638
-1.2318e-05
0.576203
0.334346
-0.000380982
-0.0398506
0.368004
0.641357
-0.0518986
-0.0341498
0.00423695
-0.00768949
0.00127399
-0.00226681
-0.0581461
-0.0344003
1.71135
0.00112815
-0.0318709
-0.0384311
-0.0455204
-0.0256393
-0.0383053
-0.000163021
-0.0269268
-0.03311
-0.0539004
-0.045906
0.269288
-0.0306454
0.701479
-0.0473662
-0.00559562
0.0428052
1.16856
1.2198
0.907302
0.0551035
-0.0391724
-0.0118497
-0.0282963
-0.0470755
-0.0347077
-0.0581079
-0.0374631
-0.0142006
-0.00973366
-9.00684e-05
0.243377
-0.0116458
-0.000964276
-0.00321706
1.78711
-0.0419494
-0.0770554
1.6722
1.73058
-0.0380072
1.69391
1.58859
1.12424
-0.00290503
-0.0505464
1.73666
-0.00146963
-0.00130476
-0.00310403
-0.0420545
-0.0165679
0.014917
-0.0400634
-0.0497489
-0.04877
-0.0153323
-0.000200802
-0.050465
-0.0180787
1.92858
-0.040775
-0.0296076
1.92462
-0.0103152
1.82703
1.69659
1.09128
-0.0328397
1.92502
0.279786
1.38472
0.0384293
-0.000695423
-0.00658964
-0.00188046
0.177249
1.50484
-0.00472338
-0.000209334
-0.0438873
-0.000492086
-0.0829519
0.630933
-0.000385056
1.15777
-0.0501695
-0.010251
-0.0527425
-0.0341935
0.388772
-0.0112562
1.71883
0.0012869
1.57957
0.0136629
-0.0477928
-3.50514e-05
-0.0640543
-0.0124094
-0.0596011
1.37127
1.47991
-7.73699e-05
1.72876
-0.0492366
-0.000983246
-0.0241636
1.59528
-0.0976828
-0.00141846
-0.0012214
-2.10578e-05
-0.00043276
-0.00028373
-0.00252331
1.75695
-0.000707621
-0.00562399
-0.00336454
1.85987
2.02618
-0.01126
-0.0561763
1.18357
1.91279
-0.0554822
-0.0448563
-0.000115298
0.0703608
1.54123
1.16567
-0.000120332
-0.0353543
-0.0543312
1.62638
-0.0816992
-0.0258849
-0.0251325
-0.023097
-0.0165804
1.25299
-0.000251205
1.66474
-0.00616022
1.82192
-0.00311253
1.69845
-0.0322729
0.239978
-0.0241946
-2.74167e-05
0.000508922
-0.0167148
-0.0329771
-0.0143973
-0.000179197
0.000763772
-0.00588226
-0.0513868
-0.0002377
-0.0292146
-0.0279893
0.000125983
0.321421
-0.000899314
1.15867
-0.0462106
-0.0105721
0.00184511
-0.0877231
1.88908
-0.0251851
-0.0190942
-0.0197669
-0.0605972
-0.0367685
1.07058
1.24136
0.0106435
-0.0294843
0.00328048
0.380851
1.65851
-0.0598088
1.07542
1.30823
-9.18427e-05
-0.0610332
-0.0386181
0.00124037
-0.00131183
-0.00174956
0.000875185
-0.0144876
-0.0155161
0.0169912
-0.0289
0.0448399
0.550944
-0.0405328
1.14264
0.306463
-0.0856277
-4.95609e-05
0.000399761
1.5008
-0.00329347
-0.0576143
-0.00142869
-0.0567402
-0.0275096
0.887299
0.210394
1.76222
-0.000202694
-0.000488139
-0.0511613
0.60626
0.00524351
1.66745
0.311855
-0.0416526
-0.0247148
-0.0569628
0.0308294
1.04368
0.131805
1.53599
-0.0632863
-0.000662439
-0.00485093
-0.0241634
-3.32838e-05
-0.00144995
-0.00706902
-0.0258701
0.0140583
-0.0567315
-0.000242427
-0.0584572
-0.0622941
-3.98314e-05
-0.000244452
0.00507564
0.000224178
-0.000878833
-0.00949732
0.089944
0.000593767
0.195705
-0.0251012
1.18835
-0.049776
-0.0540548
-6.09137e-05
-0.052555
-0.0572152
-0.0081126
-0.0146607
-6.79733e-06
-0.01285
-0.000322998
-0.04927
0.148963
0.372155
-0.100438
-0.000238251
0.18015
-0.0595752
1.26084
0.9007
1.09408
-0.0034239
-0.00978867
-0.00105028
-0.0127563
1.56273
1.09863
-0.00546511
-0.00632117
0.779707
1.11547
1.77004
-0.000335861
-0.00723561
-0.0202495
-0.000124698
-0.000380607
-0.000235784
-0.00167917
-0.00584568
1.18361
-0.0147857
-0.000806226
0.0146006
0.000199548
0.125136
0.0080506
0.63024
0.000431013
0.461981
-0.0564447
-0.05903
0.454291
0.35439
-0.000195937
0.502639
1.65288
-0.0584845
1.2268
-0.0599247
-0.0113532
1.34535
-0.00391955
1.01649
-0.00523676
0.0267949
-0.0400529
-0.0138159
-0.0299731
8.58334e-05
-0.000818061
0.0794589
2.34144e-05
-0.0251901
-0.0524162
1.68476
0.016262
0.00428611
1.15603
-1.67631e-05
-5.41036e-05
0.0155811
-0.00276721
1.63525
-0.00370833
-3.40896e-06
-0.0317095
0.335128
-0.0341085
0.00093136
-0.000234388
0.241271
0.013234
-8.5832e-05
1.4627
1.84899
-0.00021051
0.109046
-0.00187988
1.25529
-0.00119134
-0.00597648
-0.000289931
3.64944e-06
-0.0390914
0.00471376
0.00069456
-0.0943056
-0.00231733
-0.0236077
-0.000164732
-0.00100047
0.0172035
1.36405
1.4418
0.0129153
0.919972
0.222419
-5.14084e-05
1.13052
-0.0125863
0.00158509
0.00479807
0.0638149
-0.00109666
0.0677994
-0.00256436
-0.026531
0.458409
-0.0339619
-0.0266057
0.35902
0.872156
0.40166
-3.56025e-05
-7.11966e-06
-0.0299033
0.592276
-0.0106705
-0.0805372
-0.00064828
1.11658
-0.0369133
1.36362
0.77416
-0.0262693
0.506142
-0.0016238
1.17173
0.147514
-0.0547661
-0.000504176
0.000769492
-0.0237304
-0.0279434
-0.0204431
-0.0338797
0.413326
-0.0146154
0.695972
-0.000533262
0.00601498
-0.00131114
0.259817
0.0576792
0.00263858
-0.000104959
0.0493024
0.615997
-0.0409706
0.0420307
0.0363627
0.249796
0.0311642
-0.00135507
0.000205691
1.29854
1.41173
1.49898
-0.000225539
1.42596
1.27274
1.43071
-0.00488994
-0.000538455
-0.000106821
0.693424
0.980073
-0.0770839
-0.0628621
-0.0479561
-0.0243987
0.256227
-0.0243058
-0.0124422
1.05128
0.00118552
-0.0216512
-6.76638e-05
-0.0282634
1.44171
-0.0439733
-0.000705738
7.09633e-06
1.59306
1.2225
0.118886
0.557849
-0.0225984
0.0991306
-0.0271128
0.0791909
0.061837
0.0508013
0.524693
-0.0330067
0.331195
-0.00040533
1.38969
-0.0187939
-0.0118247
1.11196
0.0427624
-0.0228035
-0.0529901
0.0609688
0.451337
0.0111914
-0.000152024
1.0868
0.000176608
-0.0256143
0.218417
-0.000895559
-0.00868453
0.00110439
-0.0567398
-0.0427701
0.191221
-0.000834009
0.165555
-0.0273539
0.14403
0.124278
-0.0203779
-0.0341842
0.107503
-0.0498182
-0.0257369
-0.0214284
0.844953
-0.029786
-0.0119572
-0.000294944
-0.0439961
-0.0679255
-0.000443414
0.76848
1.32794
-0.0486702
-0.036415
-0.0236692
-0.013853
-0.000517283
-0.00722002
-0.00498907
0.150978
-0.000733318
0.0318275
-0.0542867
-0.0454417
0.000626712
-0.000592241
0.784011
-0.00620556
0.294806
0.927125
-0.011198
-0.0652263
-0.0438176
-0.00018226
0.26632
-0.056269
-0.0499263
0.236157
0.469668
-4.50151e-05
0.208875
0.588019
-0.000705117
0.406558
-0.0243293
0.0118736
1.07479
-0.00902879
-2.86488e-06
-0.000333276
0.894871
-0.0424867
-0.0348348
-0.0510245
-0.0255524
-0.0128947
-0.0191365
-0.0463464
0.361445
1.52763
1.73727
1.18161
-0.000530213
0.783548
0.326307
-0.0294542
-0.0524409
0.789361
-0.0572494
-0.0702558
-0.000972316
-0.0447923
1.0122
-0.000213564
-0.0651852
-0.0186155
0.0399415
0.000285921
1.18336
-0.0609986
1.13316
-0.0365595
-0.0373236
0.0092877
-0.00119661
1.02974
-0.0272936
-0.0130247
-6.44344e-05
-0.0325947
0.100045
0.433782
-0.0196059
-0.00090037
0.538635
-6.02387e-05
0.734407
0.398941
-3.92562e-05
0.772735
-0.0550161
-0.000473808
-0.0235793
-0.000396887
0.000241161
-0.00407023
0.846077
-0.0396634
0.00033652
-0.0571264
-0.0241105
0.982801
1.42579
-7.35945e-05
-0.024347
-0.00876433
-0.0174252
0.968071
0.0445038
1.57234e-05
0.680742
0.365768
1.1911
-0.0174534
0.000453241
0.747587
-0.00361828
-0.0557139
0.0506913
1.55901
-0.0426305
-0.027194
9.15189e-05
-0.0113332
1.54574
-0.053484
1.80526
0.506746
-0.0191962
-0.000655649
-0.0342503
-0.0108641
-5.67709e-06
-0.0246924
1.5156
-1.32628e-05
-0.0248728
1.54263
-0.000277011
-0.0246968
1.39403e-06
-0.00227536
-9.45476e-06
0.131422
0.00054803
-0.00219265
-0.0672148
-0.00155579
-8.39589e-05
-1.40963e-05
-0.000256603
-0.0323352
-1.1721e-05
-0.00101977
0.00731839
-0.0252479
1.79243
0.160926
-0.0100542
-0.00681059
-1.97263e-05
-0.0279919
-6.13896e-06
0.38268
1.08798
-0.00309677
-0.0214947
-0.0123402
0.26815
9.19499e-05
1.89936
0.00162809
-0.00158622
0.76196
0.0195653
-5.30819e-05
-0.0484407
1.14424
-0.000517615
1.04072
1.17107
-0.0322037
-0.0489918
1.39006
-0.0267262
-0.00225393
-0.0559592
0.713582
0.385608
-0.0484239
-0.000626245
1.46924
-0.000821823
0.0394515
-0.00744405
-0.00318708
1.69434
-0.000343534
-5.79156e-05
-0.0380131
0.610066
1.81589
1.13108
1.94472
-0.008458
1.67122
-0.000820465
0.871974
-0.00427
-0.00113373
0.516086
-0.0281444
0.351992
-0.000248402
-0.0680879
1.83331
-0.0308514
0.0473795
0.000955455
-0.00128014
0.449949
0.00212027
-0.0509638
-5.25203e-05
-0.027718
-0.000199341
1.86814
-0.0287044
-0.0425841
0.26931
-0.0319806
0.494908
0.990018
1.22261e-05
-0.00496888
0.630656
1.22885
1.90779
-4.05584e-05
-0.0224797
-0.0288313
-0.0018905
0.704936
0.783475
-0.0279303
1.56286
0.396539
0.546095
-0.0239271
1.08208
-0.0542352
-0.000378769
-4.30095e-05
-9.81165e-05
-0.000313015
0.000591007
-0.037841
-3.34541e-05
0.000583897
0.0132469
-0.000165261
0.703849
-0.0252561
-4.54424e-05
1.83306
8.3178e-05
-0.00041975
1.42049
1.90516
-0.0621454
-0.0163447
1.37686
-0.0146484
1.65542
0.232369
-0.000648515
-0.0673689
-0.0244507
0.00192066
0.000364146
1.04591
-4.22945e-05
3.15243e-05
1.5715
-0.000451967
0.00135939
-0.0469483
-0.0368273
-0.0490837
-0.000182797
0.252399
-0.0533841
-4.04348e-05
-0.046715
-0.00225006
0.821209
-0.000171739
-0.00021262
-0.00206705
1.52501
-0.0145417
-0.00747684
-0.00236659
0.00164055
1.46261
0.0204895
0.399338
1.37582
-0.000932692
1.71035
1.29941
-0.0135477
-0.0668023
6.68365e-05
-0.0327355
1.65571
0.00258243
-0.000551342
-3.64293e-05
-0.0548484
-0.00786802
-0.000725867
-9.31329e-05
1.69661
-6.92571e-05
1.19478
-0.022458
-0.0736185
-2.87788e-05
-0.0254694
-0.000856913
1.4241
1.45597
0.397545
-0.00207379
-0.0665947
-0.0554086
0.485929
0.353448
0.684868
-0.0876995
-0.0506003
-0.0656824
-0.000784766
-0.00172542
-0.000886214
-0.00340825
-0.00242329
-0.00288094
-0.00393777
-0.0072935
-0.0540407
-0.00615879
-0.00478015
-0.0576703
-0.000810264
-0.00403888
-0.000192218
2.05031
0.320492
-0.00554958
0.00351103
-0.00474897
-0.000154106
-0.000981853
-0.00645208
-0.00551058
-0.0609095
-3.80815e-05
-0.0655812
-0.00148507
-0.00113514
-0.000186632
-0.0523663
-0.0479088
-0.00754549
1.51899
-0.0138288
1.15721
-0.0563575
1.60408
-0.0712976
-0.0724457
-0.0733496
-0.0733295
-0.0728817
-0.0734706
-0.0725717
-0.000668676
-0.0721289
-0.0703475
1.44105
-0.0689788
0.028891
-0.0631269
-0.00116599
-0.0470982
-0.0279207
-4.52569e-05
-0.00714375
-0.000265753
-0.00343737
0.121585
-0.00137331
0.499111
1.24565
-0.016042
0.00154286
-0.0544716
0.00451976
-0.0100477
-0.015946
-0.0438838
-0.000314257
1.86455
-0.0245795
-0.0319311
-0.00844591
-0.00170058
-0.00878481
-0.00522086
-0.0709473
-0.011572
-0.0031001
-0.0190392
0.178836
-0.000132095
-0.000544731
-0.00949438
0.0556501
-0.00368777
-0.00612329
-0.00441625
-5.52936e-05
-2.05049e-05
-0.0011261
5.59478e-05
-0.00259409
-0.00715339
-0.00608326
1.41241
-0.00132646
-0.00465631
-0.00193301
-6.09577e-05
-0.000113932
-1.98297e-05
0.756089
-0.0108026
1.25159
-0.00961104
-0.00162907
-8.44489e-05
1.11514
-0.0352434
2.34725e-05
-0.000437025
-0.000324961
-0.0190614
-0.00831808
0.108928
-0.000191405
-0.0253395
-0.00106907
-0.0033417
-0.00198531
-0.0110316
0.0020776
-0.0483766
1.37962
-0.0668836
-0.0202979
-0.000898991
-0.000245634
-0.0555445
-0.000165887
0.0201728
-0.00788243
-0.00863351
7.22128e-05
-0.0141743
-0.0164426
-0.0906889
-0.000856136
-7.39359e-05
-0.036698
-0.000675103
-0.0126442
-0.0115447
-0.0102969
-0.000188978
1.672
-0.000531602
1.95846
-0.0181707
-0.0131307
0.012631
-0.000113541
-0.000236478
0.100795
3.27397e-05
-0.0177935
-0.000869969
0.0397822
-0.0144642
-0.000125138
-0.000432946
0.00142015
1.67051
-0.000725652
-0.0369394
0.00972685
1.36072
-0.0537651
-0.0528376
-0.000206426
0.00109742
-0.0192915
-0.0871665
-0.00952225
1.04518e-05
0.0148351
1.79929
-0.0510859
-0.00114913
-0.0166299
-0.000372559
1.18139
1.35392
-0.000237736
-0.00241412
0.854553
-0.00059713
-0.0133119
-0.000286596
-0.00106628
-0.0366542
-0.0501144
-0.0742444
0.0805457
-0.00180625
-0.000331554
-0.000484811
-0.0300236
-0.00886231
0.789298
-0.0245194
-0.000301498
1.26889
-0.00244308
-0.00231297
-0.0668516
-0.0144947
-0.00216697
-0.00052768
0.00805613
-0.00365403
-0.0253488
-0.00028978
-0.0015517
0.792753
-0.0140587
0.841554
1.58118
0.00561359
-0.000242646
-0.0816369
-0.0152657
1.81528
0.0177335
-0.00331921
-8.78147e-05
1.10762
1.69971
0.612915
0.165654
-0.0556117
-0.000383241
-0.05191
-0.00124827
0.00047335
-0.0219012
1.0941
-0.0406365
-0.000741516
0.00145471
-0.00253228
0.275537
1.109
-0.0172659
-0.048257
-0.00296497
-0.00247902
-0.00253326
1.64319
0.00358049
-0.00109808
-0.000628287
-0.00577204
-0.0329766
0.286334
-0.0117837
-0.0037307
-0.0211633
-0.000182332
0.0184121
0.947888
-0.0648353
-0.00197805
0.0206221
1.13954
-0.00356753
0.358427
1.38981
0.000441963
-0.000133825
0.351463
0.886468
0.4804
0.719882
-0.0601603
-0.00212461
1.47867e-05
1.07185
-0.0359256
0.00102398
-0.0505179
-0.0219941
-0.0348464
-0.0539359
-0.00422236
1.42113e-05
1.00486
0.00201032
-0.0527058
1.4499
-0.0351617
1.35703
2.56999e-05
-0.0502313
1.28132
1.82494
0.016622
-0.0105661
-0.0195359
-0.00121708
-0.00562363
1.26886
0.0148185
-0.0477003
-0.00486625
-0.00149485
-0.00328974
0.00270176
-0.000785062
0.872462
-0.000619884
0.0146345
-0.00434489
-0.00745057
-0.00120705
0.56638
1.06465
-0.0695592
-0.0711383
-0.0723226
-0.000982795
0.00523701
-0.000477611
-0.0710317
-0.0717064
0.692215
1.1966
-0.0715322
0.619267
-0.0233628
-0.0215519
-0.0213874
-0.0705706
0.655609
0.494588
-0.0701463
-0.0107696
1.24973
0.795692
-0.0060739
-0.000163716
-0.00182386
1.65279
-0.00131362
-0.000138524
-0.00506296
-0.0028801
-0.00182561
0.0021466
-0.00339151
0.0151219
0.408446
-0.0435898
-0.000161276
-0.0458278
-0.0481367
-0.0248222
-0.0471162
-0.0697107
-0.00239831
-0.00352312
-0.00585787
-0.0163072
1.19817
-0.00412641
-0.00686321
0.0687256
-0.000106457
1.58663
1.12717
-0.0473201
-0.00483781
-0.00175646
-0.0056846
-0.000467811
1.19685
0.141564
-0.00203185
0.0590453
-0.000141345
0.0506524
-0.00210962
0.0437365
0.0374501
1.4821
-0.0232843
-0.000324803
-0.0074408
0.00359119
0.676531
0.920616
-0.0552724
1.05076
1.68801
-0.0114104
-0.0269007
1.00792
-0.00665543
0.143109
1.59738
0.953334
-0.0188652
1.00707
-0.0080816
-0.010899
-0.00217464
-0.0024069
-0.0671422
-1.05775e-05
0.118822
0.0980485
0.0816004
0.0647299
-0.0300542
0.242388
6.30298e-05
-0.00842024
0.57863
-0.0174986
-0.000152365
-0.00410664
-0.00773508
-0.0438205
-0.000386528
-0.0183381
0.0487884
1.95093
0.213509
1.22194
0.293977
2.07578
0.186902
0.162688
1.51805
1.58537
-0.018576
0.544886
-0.000344637
0.127172
0.141797
-0.00895131
0.123089
0.0107267
-0.0554936
-0.00966002
-0.00916688
-0.0103303
0.000604783
-0.0106005
1.03367
0.0120745
0.00407682
0.000691081
-0.0389753
0.000953381
1.40711
-0.00242961
0.992749
-0.025898
-0.0461189
0.320522
0.435347
-0.0452442
-0.0636082
0.00274578
1.17882
0.818154
0.678207