/*--------------------------------*- C++ -*----------------------------------*\
  =========                 |
  \\      /  F ield         | OpenFOAM: The Open Source CFD Toolbox
   \\    /   O peration     | Website:  https://openfoam.org
    \\  /    A nd           | Version:  7
     \\/     M anipulation  |
\*---------------------------------------------------------------------------*/
FoamFile
{
    version     2.0;
    format      ascii;
    class       volVectorField;
    location    "10.5";
    object      U;
}
// * * * * * * * * * * * * * * * * * * * * * * * * * * * * * * * * * * * * * //

dimensions      [0 1 -1 0 0 0 0];

internalField   nonuniform List<vector> 
19930
(
(0.996692 -0.000365395 -4.78086e-23)
(0.986793 -0.000979951 1.52295e-21)
(1.02579 -0.00335579 -1.97459e-22)
(1.00032 -2.63085e-05 -7.593e-25)
(1.00089 -0.0086177 7.05485e-23)
(1.00058 -0.00913788 -6.83933e-23)
(1.02129 -0.148839 -9.23377e-22)
(1.17354 0.0636303 -3.05183e-20)
(1.0036 -0.0746168 -2.43247e-21)
(1.1799 0.0599825 2.1868e-20)
(1.03302 -0.137149 -2.46991e-21)
(1.29494 0.01044 -9.3947e-22)
(0.98779 -0.0482116 -5.01847e-22)
(0.996614 -0.000432242 3.45745e-23)
(0.996146 -0.00338146 2.16322e-22)
(1.00031 -3.68409e-05 -7.49317e-25)
(1.25505 -0.111437 1.17345e-21)
(1.14269 -0.00226166 -1.73694e-20)
(0.998188 -0.109734 -2.00392e-21)
(0.989402 -0.000486062 -1.33626e-21)
(1.01315 -0.0865996 2.87794e-21)
(1.29314 0.0138673 -1.56659e-21)
(1.18741 0.0644146 -1.62567e-20)
(1.09255 -0.188633 -1.60408e-21)
(1.02376 -0.00129272 1.22748e-23)
(1.00924 0.163379 -5.55162e-20)
(1.00888 -0.00255514 -9.83854e-23)
(0.995002 -0.0521882 1.54443e-21)
(1.13481 -0.193667 -1.07846e-21)
(1.00008 -0.111246 6.76825e-21)
(0.998869 -0.00219135 -2.9607e-24)
(0.870688 0.0366105 9.04047e-20)
(1.25703 0.0683053 1.158e-20)
(0.993597 -0.0307853 1.68544e-22)
(1.0001 -0.00161336 8.71241e-24)
(0.998933 -0.00235628 -1.06616e-23)
(1.18094 0.090572 -3.26696e-20)
(0.999838 -4.82579e-06 -2.01287e-25)
(1.01433 -0.0184288 -8.74582e-23)
(1.14918 -0.0107111 -5.99712e-21)
(1.04007 -0.00844683 6.59962e-23)
(1.26264 0.131009 2.0402e-20)
(1.06609 0.0675377 -1.54091e-20)
(1.00797 -0.00301769 8.20101e-23)
(1.00694 0.156524 2.21814e-20)
(0.972384 -0.00184374 9.00963e-22)
(1.13597 0.00601446 -4.90679e-20)
(1.27945 -0.0503143 -4.3419e-21)
(0.999574 -0.000112163 2.56825e-24)
(0.977394 -0.0423089 3.43706e-22)
(1.00002 -0.0017145 -2.22082e-23)
(1.07627 -0.00981103 4.99737e-21)
(1.15688 -0.144479 1.01146e-22)
(1.00046 -0.00373916 -2.61235e-23)
(1.18697 -0.159682 -3.88074e-22)
(0.954005 -0.0181819 -4.50124e-22)
(0.981748 -0.0288787 8.60117e-23)
(0.998762 -0.00281686 6.35711e-24)
(1.00927 -0.0446908 -1.0204e-21)
(1.25428 -0.106184 -7.93337e-22)
(0.949283 0.0611743 4.79384e-20)
(0.964864 -0.00502499 1.38682e-21)
(0.989397 -0.00367685 -3.6023e-22)
(1.19161 0.0486961 -1.38479e-21)
(0.999283 -0.000123044 -1.69658e-23)
(0.996091 -0.00782729 3.57079e-24)
(1.00099 0.109388 1.42635e-21)
(0.995626 -0.00818137 1.18346e-22)
(1.10994 -0.0900692 4.64049e-21)
(1.0221 0.162765 2.06006e-20)
(1.03813 -0.0415929 1.45237e-21)
(1.24643 -0.134717 4.52445e-22)
(0.996513 -0.00337366 -4.31912e-23)
(0.986435 -0.0357383 1.87317e-21)
(0.99935 0.0319614 -2.10649e-20)
(1.06572 -0.0872612 -9.86924e-22)
(1.01908 0.151152 9.52575e-21)
(0.954804 -0.00589429 3.89386e-22)
(1.14656 -0.0100676 3.76087e-21)
(1.00882 0.0607163 3.02319e-20)
(0.996935 -0.00811771 3.02723e-22)
(1.00226 -0.00437748 1.87091e-25)
(1.11934 -0.189861 8.80861e-22)
(1.00466 -0.0724754 2.01919e-21)
(0.96723 -0.00401321 -1.52691e-21)
(1.0615 0.0641965 7.42291e-20)
(0.990323 -0.0451651 -9.55007e-22)
(0.789195 0.119652 8.62197e-21)
(1.18462 0.0467215 -1.32785e-20)
(0.980458 0.173047 3.57546e-20)
(1.15299 0.015765 -1.87245e-20)
(1.00038 -6.33169e-05 3.41941e-25)
(1.00006 -0.000308451 8.68172e-24)
(0.878478 0.012365 -2.55869e-20)
(1.27983 -0.0567811 2.2488e-21)
(0.989969 -0.00383359 -2.21365e-22)
(0.900181 0.00796745 3.91485e-20)
(0.999638 -0.00447478 2.99095e-23)
(1.03747 -0.133625 -9.72824e-22)
(1.11004 0.0178962 -1.92968e-20)
(0.974957 0.179635 -1.06046e-19)
(0.978121 -0.0107452 1.16782e-22)
(0.953032 0.167403 -1.17113e-19)
(1.14925 -0.130733 -2.59434e-21)
(1.10924 -0.00391913 -1.16839e-20)
(1.09043 -0.0902282 -3.12434e-21)
(1.07683 0.16624 3.75629e-20)
(1.14425 -0.110866 -3.05084e-21)
(0.986237 -0.000583164 -1.60921e-21)
(1.11941 0.175741 8.21583e-21)
(1.14045 -0.198739 -3.5788e-21)
(1.0174 -0.14758 -2.17686e-21)
(0.980941 -0.022973 8.2629e-22)
(1.0324 -0.0215271 -1.20192e-21)
(1.06863 -0.081408 -8.02634e-22)
(1.0001 -7.0115e-05 -1.6575e-24)
(1.10356 0.103398 3.55065e-20)
(0.99744 -0.00759577 -1.12885e-22)
(1.13955 -0.138563 -1.83805e-22)
(1.00719 0.052719 -7.12061e-20)
(1.00037 -4.20892e-05 4.299e-26)
(1.02307 -0.0913019 1.48617e-21)
(1.17588 -0.00875885 -7.78273e-21)
(1.00972 -0.0509207 -1.40851e-21)
(0.993481 -0.0292231 -1.96162e-22)
(1.14413 -0.00275001 9.0388e-21)
(1.28696 0.0433518 -2.48878e-20)
(0.994843 -0.0503062 1.29206e-21)
(0.857791 0.0434327 -2.65205e-20)
(1.09845 0.109299 1.89796e-20)
(0.991238 -0.057557 -1.19578e-21)
(0.977098 -0.0407669 -1.0424e-21)
(1.04021 -0.00437794 6.64003e-22)
(1.01356 -0.0168863 2.64446e-22)
(1.06243 0.158323 -5.15709e-20)
(1.10418 -0.00757547 -3.37589e-21)
(1.27607 -0.0293015 -5.9574e-21)
(1.01576 -0.0874414 -1.24671e-21)
(0.982974 -0.0106925 1.0352e-21)
(0.991832 -0.0754647 5.152e-21)
(1.01933 -0.0935451 3.23095e-22)
(0.985044 -0.0368531 -1.83651e-21)
(1.24285 -0.143046 3.72418e-22)
(0.948689 0.184977 -3.69816e-20)
(1.21224 -0.0670788 3.77518e-21)
(1.06262 0.164528 4.66869e-20)
(1.29242 0.0782701 -2.83636e-21)
(0.971516 -0.0114782 -1.0073e-21)
(1.28104 0.031805 -1.78969e-20)
(1.00997 -0.00342274 2.2128e-22)
(0.970818 -0.0105825 2.02893e-21)
(1.02386 0.15845 2.37923e-21)
(1.00008 -0.000261263 -5.49954e-24)
(1.00364 -0.0671837 7.90818e-22)
(1.0022 -0.0039325 -5.86929e-24)
(1.29396 0.084408 1.49877e-20)
(1.05552 0.0686351 -7.87189e-21)
(1.08911 -0.184107 6.62537e-21)
(0.950638 -0.0208437 8.29735e-22)
(0.987003 -0.0493037 1.06569e-21)
(1.18841 -0.168511 4.20198e-22)
(1.02559 -0.144899 1.41142e-21)
(0.998718 -0.00260793 -9.63622e-24)
(1.21298 -0.0610797 -5.93389e-21)
(1.13269 -0.00820525 -1.77117e-21)
(0.797254 0.12448 2.05392e-20)
(0.979268 -0.0108471 8.06794e-22)
(1.11257 -0.193686 3.7796e-22)
(1.06152 -0.0881926 1.14474e-21)
(1.17809 0.0861339 -1.94806e-20)
(1.27806 -0.0325402 1.9961e-21)
(0.989434 0.125346 2.20418e-20)
(1.1763 0.18442 5.28422e-20)
(0.991074 -0.0269399 3.70918e-23)
(0.79845 0.0349629 -3.08625e-20)
(1.26055 0.0640483 1.39387e-20)
(0.996476 -0.000803269 5.49563e-23)
(0.974177 0.0173179 -5.62476e-20)
(1.07481 -0.0810803 -7.3639e-23)
(1.11131 0.189837 1.61157e-20)
(1.05878 0.178527 -2.37571e-20)
(0.999771 -7.74419e-06 1.8103e-25)
(0.934439 0.128614 1.5288e-21)
(1.15327 0.160159 4.59237e-20)
(0.988722 -0.000777393 8.69698e-23)
(0.946535 -0.0154969 4.77734e-21)
(1.03783 -0.0388938 -9.59465e-22)
(1.11663 0.0120053 -4.94586e-21)
(1.14262 -0.132959 6.41221e-22)
(0.864062 0.104767 2.68225e-20)
(1.28123 0.0432058 -8.80998e-21)
(1.22582 -0.108351 1.85883e-21)
(1.10485 0.01369 3.87257e-20)
(1.11121 -0.0839771 4.23059e-21)
(0.951642 -0.021797 2.04423e-21)
(1.27143 -0.00335477 -1.13449e-20)
(0.937428 0.135106 -1.75836e-21)
(1.25792 -0.0730654 -7.11547e-21)
(0.991069 -0.000309254 6.32057e-24)
(0.854954 0.10405 -2.63134e-20)
(1.25662 -0.0395069 -1.50796e-20)
(1.20615 -0.145686 -3.76323e-22)
(1.15861 -0.137955 1.37871e-21)
(0.882047 0.11806 -3.22268e-20)
(0.917752 0.120269 7.47827e-20)
(0.969409 -0.0237482 -8.18586e-22)
(1.00079 -0.0376993 -1.181e-22)
(1.0765 -0.00581869 -6.86034e-22)
(0.954762 -0.0195114 -2.07224e-21)
(0.998336 -0.000165155 -5.35221e-23)
(1.00473 0.11166 -1.03521e-20)
(0.97445 0.0466644 -2.01735e-20)
(0.971502 -0.014207 1.49337e-21)
(0.962215 -0.0320696 1.08125e-21)
(1.11123 0.182207 2.44772e-20)
(0.99807 0.0465569 3.19466e-20)
(0.99814 -7.65909e-05 1.8739e-22)
(1.00443 0.0477565 -4.82824e-20)
(1.14963 -0.108057 -1.4723e-21)
(1.01461 -0.0148714 -5.73551e-22)
(1.00412 -0.0544966 1.35004e-22)
(1.07226 0.108626 -3.8621e-21)
(0.932117 0.209873 3.47517e-20)
(1.14971 0.014576 2.47427e-20)
(1.11727 0.166449 -3.98565e-20)
(0.981847 -0.0106807 -1.75305e-21)
(1.00272 -0.0372772 -5.21068e-22)
(1.00014 -7.9629e-05 4.85809e-26)
(0.998667 -5.89372e-05 -6.78393e-23)
(1.00074 -0.00723886 1.41438e-22)
(1.17168 -0.00955933 3.62758e-21)
(1.11012 -0.130196 2.87553e-23)
(1.07795 0.159703 -4.79116e-20)
(0.998007 -0.0883866 1.44645e-21)
(1.04398 0.0565232 2.88194e-20)
(0.991621 -0.0436637 -1.72273e-22)
(1.08545 -0.0854562 2.20363e-21)
(0.99323 0.121723 3.90139e-20)
(0.884225 0.00962343 1.32771e-19)
(1.07188 0.101931 6.72525e-20)
(1.02245 0.145098 -5.88145e-20)
(0.960781 -0.031454 -9.70616e-22)
(1.23577 0.125242 -1.30823e-20)
(1.01072 -0.0494588 1.52645e-21)
(1.11394 -0.0069646 2.35286e-20)
(0.997267 -0.00687979 -2.13189e-22)
(1.22026 -0.16551 -1.39668e-21)
(1.1646 -0.0881184 8.79452e-21)
(1.08423 -0.0299841 7.75901e-21)
(0.999588 -8.42197e-05 -3.16457e-24)
(0.984144 -0.000811117 1.87368e-21)
(0.923894 0.215936 -5.35748e-20)
(1.21365 -0.00542855 5.13721e-20)
(1.01375 -0.0198753 2.92234e-22)
(0.974706 -0.0456781 -1.81367e-21)
(1.10612 -0.12501 -1.55285e-22)
(1.04862 -0.163593 3.26016e-21)
(1.25728 0.137662 -2.62529e-21)
(0.992927 -0.0747115 -1.3944e-21)
(0.967988 -0.00228636 -1.63641e-21)
(0.996709 -0.0591691 1.70529e-21)
(0.994207 -0.0259669 -2.0782e-22)
(0.999168 -9.95044e-05 2.57055e-24)
(0.990819 -0.041707 8.69787e-22)
(1.02868 -0.145581 -6.95539e-22)
(0.945742 0.177555 6.98928e-20)
(1.2707 -0.0779257 3.23189e-21)
(0.982399 -0.0219313 -1.61802e-21)
(1.04029 0.0598707 -4.45697e-20)
(0.922571 0.128699 -8.9482e-21)
(0.990854 -0.0469103 1.99943e-22)
(1.00067 -0.00026314 9.55028e-25)
(1.00274 -0.0696612 -1.44292e-21)
(1.00021 0.102699 1.20296e-20)
(1.19377 -0.187312 -1.33399e-21)
(0.95296 0.0564593 -7.21545e-20)
(1.00006 -8.38473e-05 8.88659e-25)
(0.963917 -0.0349693 1.787e-21)
(1.15568 0.198997 4.31916e-21)
(0.999207 0.0458439 6.44689e-20)
(1.02647 -0.0691977 -1.40223e-22)
(0.982951 -0.0276174 1.00112e-21)
(0.8901 0.196562 5.76256e-20)
(1.20662 -0.130685 -3.8117e-22)
(1.21862 -0.108148 -1.34275e-21)
(0.961745 0.168467 4.7992e-20)
(0.87091 0.117483 -5.48834e-21)
(0.989643 -0.0484093 -5.75142e-22)
(1.15673 0.205254 -2.82473e-20)
(1.16197 -0.0361104 -1.08033e-20)
(1.01202 0.060276 -8.25571e-20)
(1.13071 0.103415 2.10664e-20)
(1.00069 -0.000194944 -2.22704e-24)
(1.27633 -0.0796392 -2.59075e-21)
(1.16729 0.0874222 1.1824e-20)
(0.996245 -0.00072226 1.81533e-22)
(0.996313 -0.0928329 -5.70186e-22)
(1.25128 -0.0629851 -3.03929e-21)
(1.10301 -0.183607 -1.06593e-21)
(1.25146 -0.0417956 8.64084e-21)
(1.17789 -0.0737322 -4.93972e-21)
(1.00013 -0.000164551 -1.18411e-24)
(0.999693 -0.0031787 8.09485e-23)
(0.989515 0.197943 -8.40675e-20)
(1.00149 -0.0128126 -3.73583e-23)
(1.00356 -0.110953 -1.52003e-21)
(0.991703 -0.0619526 1.85848e-22)
(1.28782 0.0146182 -9.32222e-21)
(0.967925 -0.00493434 -2.7289e-22)
(1.11626 0.194356 2.79477e-20)
(1.21544 -0.0460528 1.26884e-20)
(0.99458 -0.0594964 1.03666e-21)
(0.952414 -0.00698336 -1.09746e-21)
(1.18079 0.0779648 2.08135e-21)
(1.26362 0.00371387 8.67986e-21)
(1.00009 -0.00016841 -1.60627e-24)
(0.964954 0.121073 7.10607e-20)
(1.10034 0.115506 9.43613e-21)
(0.982348 0.0355776 -1.75084e-20)
(1.19208 -0.153039 -9.66182e-23)
(0.999292 -9.42635e-05 1.32169e-23)
(0.892324 0.188395 -3.8326e-21)
(0.997356 -0.00481986 -2.23018e-22)
(0.994428 -0.0461343 3.49504e-22)
(1.26583 -0.00241615 -3.62751e-21)
(1.25183 -0.0703351 9.2673e-22)
(0.984132 -0.0483826 -1.55813e-21)
(1.2022 -0.138077 -9.15792e-22)
(1.05084 0.0657706 1.15267e-20)
(0.882778 0.0119912 4.79752e-20)
(1.04649 0.16191 -6.18308e-20)
(1.19933 -0.0259833 -1.57657e-20)
(0.778851 0.0461261 6.66782e-21)
(1.00035 -1.59718e-05 -4.27259e-25)
(0.99231 -0.0255774 -2.49246e-22)
(1.00032 0.0304049 8.53078e-20)
(1.14789 -0.17493 2.39993e-22)
(1.16295 0.083428 -2.8275e-20)
(0.988276 -0.0361715 -7.31661e-22)
(1.01095 0.151024 5.90044e-20)
(1.19424 -0.0512579 8.45396e-21)
(1.00025 -0.00344022 3.45549e-23)
(1.18754 -0.0522442 -7.41562e-21)
(1.10059 0.0954281 -4.5745e-20)
(1.11663 -0.170189 2.20341e-23)
(0.932843 0.0163979 -1.32224e-20)
(1.16794 0.160875 6.54991e-21)
(0.999347 -0.000339197 -5.22278e-24)
(1.03446 -0.0195012 -2.22887e-21)
(1.22923 0.0634914 1.3136e-20)
(1.14478 -0.000966639 3.33011e-20)
(0.997293 -0.000141378 -1.90259e-22)
(1.17244 0.177762 -4.73814e-20)
(1.01139 -0.0441269 -9.06074e-23)
(0.766526 0.120427 -3.46021e-21)
(1.01615 -0.0918172 -2.24744e-21)
(0.97074 -0.0130419 6.5806e-22)
(0.984949 -0.000917755 -1.68387e-21)
(1.05102 0.167714 6.87504e-20)
(1.14902 0.155047 -7.32496e-20)
(0.970254 -0.00313331 7.00634e-22)
(1.17311 0.072348 7.48747e-21)
(0.977775 0.164386 -2.06026e-20)
(1.00158 -0.0137635 -3.28839e-23)
(1.07759 0.00855042 1.14419e-20)
(1.04417 0.0271027 -3.23339e-20)
(0.760326 0.0688044 4.40061e-20)
(0.997712 -0.00404042 6.92744e-23)
(1.2579 0.0236454 -2.03444e-20)
(1.15784 -0.089956 -2.57093e-21)
(0.952398 -0.0177834 -7.37063e-22)
(0.999529 -7.50239e-05 3.42164e-24)
(0.999376 0.0177086 5.18882e-20)
(1.26955 0.131921 1.17608e-20)
(1.24236 -0.0868121 -1.60339e-20)
(1.00843 0.192726 -2.14565e-20)
(1.19767 -0.0200982 7.92805e-21)
(0.980249 -0.0285374 6.98979e-22)
(1.23314 0.116563 -9.82431e-21)
(1.13251 -0.00464523 -5.81591e-21)
(1.20632 -0.00352029 1.49783e-20)
(0.77624 0.0750682 -1.14445e-19)
(1.01936 -0.0811462 6.67617e-22)
(1.2643 -0.0133748 4.69064e-21)
(0.98 0.0432726 -4.56735e-20)
(0.973558 -0.0463815 1.6604e-21)
(1.14982 -0.0428615 8.31927e-22)
(1.04311 -0.135044 2.23659e-21)
(1.2266 0.0579983 -5.82934e-21)
(0.992689 -0.000229004 -2.51453e-21)
(1.14117 0.00579263 -5.47535e-21)
(1.24632 -0.0822937 6.9216e-21)
(1.26238 -0.0180519 1.18077e-20)
(1.00128 -0.00438482 4.17907e-23)
(1.13216 0.00535143 5.19819e-20)
(0.993259 0.0328608 -4.36133e-20)
(1.09362 0.065285 8.24588e-20)
(1.10496 -0.179946 -3.8919e-21)
(0.995291 -0.024542 4.58465e-22)
(0.888726 0.108362 -3.74661e-20)
(0.875395 0.0417156 -9.70403e-20)
(0.997727 -0.00644969 -4.90036e-23)
(0.96536 -0.0342197 8.39927e-22)
(1.04735 0.116984 9.13048e-21)
(1.00651 -0.116571 -1.22878e-21)
(1.07907 -0.0869507 -1.8167e-21)
(1.24818 0.135542 4.00826e-20)
(0.987061 -0.000623265 2.09951e-21)
(0.747866 0.0610502 7.5779e-20)
(1.02867 -0.0623297 2.40695e-24)
(1.25939 0.0366333 6.68038e-21)
(0.991828 -0.00942838 9.77705e-23)
(0.989023 0.0316563 -1.86544e-20)
(1.17031 0.152475 -1.33454e-20)
(1.08547 -0.0234494 -7.78883e-21)
(1.08972 -0.0961608 6.24314e-22)
(1.22952 -0.104268 -3.00461e-21)
(1.25798 -0.0351658 1.59635e-21)
(0.999801 -0.00486052 -2.39801e-24)
(1.03592 0.0967634 -1.68627e-20)
(1.25382 -0.133538 -1.14432e-21)
(1.17986 0.0513153 3.26284e-20)
(0.774161 0.126682 1.14638e-19)
(1.20152 -0.153786 -5.9859e-23)
(1.06018 -0.0761388 2.52487e-21)
(1.00044 -0.00784552 -1.42534e-22)
(1.28366 -0.0470256 9.40568e-21)
(1.25894 -0.0801158 4.12037e-21)
(0.979671 -0.0224578 2.82344e-21)
(1.21471 0.146346 -4.23967e-21)
(1.00008 -0.00131165 -3.42352e-23)
(0.978493 -0.0377893 -3.6197e-22)
(1.01378 -0.0134318 8.27794e-22)
(1.20254 -0.123658 -2.99732e-22)
(0.991921 -0.0401346 7.42795e-22)
(0.999598 -0.000144262 -1.4081e-24)
(0.990609 -0.0514165 2.10888e-21)
(1.27371 -0.00854578 -5.93926e-21)
(1.11496 -0.177267 -1.30034e-21)
(1.04105 -0.0672585 5.22503e-23)
(0.968104 -0.0243417 -1.63908e-21)
(1.24537 -0.0597622 -1.0485e-20)
(1.174 -0.06778 7.91777e-21)
(0.979631 -0.0480573 -8.22396e-22)
(0.94878 -0.00967703 3.46657e-21)
(1.001 -0.00459101 -7.47262e-24)
(1.11466 -0.0945458 -4.87127e-21)
(1.01444 -0.126312 -1.74963e-22)
(1.01125 -0.00287236 -1.78613e-22)
(1.02973 -0.0665325 3.99423e-23)
(1.25753 0.00509878 -1.37409e-20)
(1.09448 0.0600513 -5.04048e-20)
(1.22056 -0.0574587 2.8451e-21)
(0.999295 -0.000293101 -1.64452e-23)
(0.876007 0.209928 -8.46839e-20)
(1.0114 -0.00151587 -6.87439e-22)
(1.00001 -0.00141962 4.103e-23)
(1.03777 -0.0101599 1.99229e-21)
(0.968635 -0.034435 -1.34998e-21)
(1.00642 -0.0822931 1.78027e-22)
(0.922827 0.111273 -4.40188e-20)
(1.02111 -0.0508977 -1.79689e-24)
(1.15818 -0.0328591 -4.9565e-21)
(1.01301 -0.109993 2.55431e-21)
(1.01022 -0.111392 -3.41554e-21)
(1.24541 0.126955 -2.78075e-20)
(0.996151 -0.046724 -5.39173e-22)
(0.992693 -0.0713885 9.78752e-22)
(0.998026 -0.0915927 1.233e-21)
(0.999572 -5.01955e-05 -6.39556e-24)
(1.15085 -0.123279 2.01655e-21)
(0.851901 0.20167 -8.05583e-21)
(1.05177 -0.15919 8.04389e-22)
(0.967039 -0.0427849 -3.33879e-22)
(1.20687 0.140326 -5.3167e-22)
(0.985041 -0.0457793 -1.6299e-22)
(1.12677 0.0970705 -1.76171e-20)
(1.28636 0.03156 -1.89527e-21)
(0.996942 -0.00515826 3.44395e-22)
(0.998268 -0.000239071 4.28955e-23)
(1.08859 0.107434 5.66194e-21)
(0.792634 0.154551 3.72387e-20)
(1.03892 -0.155209 2.26174e-22)
(1.28593 0.0675276 3.2241e-21)
(1.28171 -0.0138631 -1.57977e-20)
(0.971902 -0.0382363 -5.6158e-22)
(0.971914 -0.040041 -1.30213e-21)
(1.05164 0.12176 -2.4913e-21)
(1.10398 -0.0140735 5.03231e-21)
(1.12134 -0.182872 2.79708e-21)
(1.04748 -0.130374 -1.56342e-21)
(0.974156 -0.00193261 8.19981e-23)
(1.06025 -0.0151981 3.82475e-21)
(0.880035 0.0614404 -1.67188e-20)
(1.16658 -0.0178805 -3.00797e-20)
(1.00033 -7.04834e-05 5.45743e-25)
(0.948882 0.161172 7.54833e-20)
(1.03151 -0.0596887 4.95828e-22)
(1.00744 -0.0838865 1.92477e-21)
(1.16059 0.192503 -2.52994e-20)
(1.01622 -0.02205 7.13908e-22)
(0.991123 -0.00905758 -2.96356e-22)
(0.999387 -0.000476131 -8.9884e-24)
(1.14445 -0.0965188 2.83954e-21)
(0.969267 -0.019032 -1.33996e-21)
(1.00034 -2.24737e-05 6.40398e-25)
(1.28951 0.0655935 -7.99086e-21)
(1.19798 -0.181573 -8.23555e-22)
(1.03162 0.0949762 -2.92657e-20)
(0.999153 -0.000140197 4.9295e-24)
(1.00035 -0.00410278 -1.33619e-23)
(0.984084 -0.0468845 -7.46291e-22)
(1.00002 -6.54275e-05 8.61536e-26)
(1.03887 -0.159364 -1.1845e-21)
(1.13662 -0.185228 -1.22357e-21)
(0.999815 -0.00411436 1.74151e-23)
(1.00653 -0.0665129 -5.49073e-22)
(0.947801 -0.0153089 1.11527e-21)
(1.14465 0.173352 -2.8639e-21)
(1.00329 0.191491 1.73512e-20)
(0.997305 -0.00440255 7.03891e-23)
(1.0031 -0.00106202 -3.37658e-23)
(0.995536 -0.0867396 -3.37772e-21)
(0.989824 0.174783 5.59871e-20)
(1.00463 -0.0308663 3.93576e-22)
(0.966551 0.112999 -1.8436e-21)
(0.983862 -0.0116077 -1.17399e-22)
(0.759149 0.0990125 -3.13643e-20)
(1.06912 0.0205964 -6.2261e-21)
(1.19913 0.0285736 -3.25774e-20)
(0.818555 0.124425 -3.37156e-20)
(1.25639 -0.124731 -8.96455e-23)
(0.990511 -0.00315763 -1.25891e-22)
(1.1515 -0.0862192 2.42957e-21)
(1.00853 -0.0320046 -5.05795e-23)
(1.00338 0.170337 1.39879e-20)
(1.04469 0.104919 3.95543e-20)
(0.972249 -0.00847871 7.91335e-22)
(1.21638 -0.159116 8.62907e-22)
(1.13191 -0.0408825 -7.98017e-22)
(1.05673 -0.0798723 4.28634e-22)
(0.994326 -0.000372238 -2.4654e-22)
(1.21699 -0.17339 1.38629e-21)
(1.00032 -1.08958e-05 1.13059e-24)
(1.13646 0.170266 1.61113e-20)
(0.945846 -0.0144657 -4.39035e-21)
(0.993066 -0.0574949 -3.50078e-22)
(0.997042 -0.0282352 3.96001e-22)
(1.0061 -0.053731 1.86642e-21)
(1.25265 0.0367146 2.12047e-21)
(1.22134 -0.0514735 -1.07563e-20)
(0.997675 -8.48553e-05 2.34548e-22)
(1.02392 -0.0491417 3.02097e-22)
(0.999892 -0.000121328 1.96958e-24)
(0.759691 0.0923965 2.34143e-20)
(0.889375 0.0552754 3.43074e-20)
(0.994903 -0.0012291 -1.3109e-22)
(0.975225 -0.0128203 -7.82412e-22)
(1.0326 -0.0369704 1.20834e-21)
(1.04959 0.109708 1.69882e-20)
(0.947742 -0.0219712 -2.11831e-21)
(1.28621 -0.0138251 -3.37766e-21)
(0.968834 -0.0436968 3.52438e-22)
(1.03765 0.163665 -1.24173e-21)
(1.20618 0.0292945 -3.60962e-21)
(0.968559 -0.0206074 -8.89857e-22)
(0.764101 0.0499767 -4.80895e-20)
(1.05259 -0.00261159 -3.66291e-21)
(1.05799 0.168453 -3.66447e-20)
(0.993725 -0.0132493 4.45059e-23)
(1.01504 -0.1337 5.45384e-21)
(0.942696 0.0101049 -1.10736e-19)
(1.01385 -0.040364 1.02896e-22)
(0.788216 0.164619 -1.69664e-20)
(1.07162 0.123541 2.13832e-21)
(0.773948 0.0568042 -1.14958e-20)
(0.991095 -0.00323761 7.71961e-23)
(0.990282 -0.000719227 6.37427e-22)
(1.02307 -0.0872362 -4.68472e-22)
(1.16676 -0.0813184 -1.19929e-20)
(1.01505 -0.0218478 -7.84974e-22)
(1.02324 -0.0791221 -1.45475e-22)
(1.04275 0.149565 3.35546e-21)
(1.0406 0.179198 1.1466e-20)
(1.07118 0.00343102 1.05502e-23)
(0.994956 0.168752 -4.00578e-20)
(0.808258 0.176463 9.1753e-21)
(1.24992 0.0677999 2.32116e-20)
(0.997196 0.0206342 -7.48863e-20)
(1.08386 0.0511436 -1.59299e-20)
(1.00532 -0.0165809 -5.27778e-23)
(1.08482 0.112586 -1.86816e-21)
(0.9914 -0.0708013 -8.48289e-22)
(0.970265 -0.0427154 9.24934e-22)
(0.998806 -0.00127442 8.18473e-24)
(1.0507 -0.0788461 -1.20052e-21)
(1.08689 -0.154381 -4.63778e-22)
(1.13652 0.043718 1.28844e-20)
(1.08827 -0.0106835 9.5509e-21)
(1.00689 0.0578495 5.97739e-21)
(1.0086 -0.0465176 9.33904e-22)
(1.14042 -0.0320898 4.76318e-21)
(1.00949 0.0453036 -6.88454e-21)
(1.00964 -0.0335989 2.25373e-22)
(1.08566 -0.0990628 -1.35143e-21)
(0.999928 -0.000148496 -3.68636e-25)
(1.00049 -0.000224599 2.1505e-25)
(1.13263 0.0399596 -3.63126e-23)
(0.993615 -0.0616879 -1.01494e-21)
(0.975304 -0.0400471 1.4308e-21)
(1.00053 -0.000211402 -1.27365e-25)
(1.00018 -0.00287198 2.07441e-23)
(1.12945 -0.0450454 -1.43e-21)
(0.999336 -8.7869e-05 -8.00143e-24)
(1.27413 -0.0605837 -5.49213e-22)
(0.759093 0.0748517 6.05395e-20)
(1.2866 0.0756949 1.2662e-21)
(1.19508 0.0548251 -1.05161e-21)
(0.967569 -0.00835626 -1.27334e-21)
(1.09381 0.167009 1.29813e-20)
(1.28266 -0.0407232 -4.89705e-21)
(1.00509 -0.0288059 -2.25711e-23)
(0.975962 -0.0141104 -7.45949e-22)
(0.997699 -0.00374861 4.37587e-25)
(0.999328 -0.000429959 4.65748e-24)
(1.00188 -0.00464345 -1.45214e-23)
(0.997649 -0.0299999 3.53613e-22)
(1.02812 -0.135367 2.64323e-21)
(1.1957 0.0872839 3.74397e-20)
(1.18907 -0.0928159 2.18434e-21)
(0.959228 -0.00432396 2.90952e-22)
(0.999899 -7.78508e-05 -4.37826e-25)
(1.01104 0.0998389 3.98957e-20)
(1.24897 -0.103483 -5.10276e-21)
(1.23357 -0.143641 -2.15938e-22)
(1.01602 -0.041596 -1.02775e-22)
(1.27151 -0.0284746 7.58232e-21)
(1.04842 -0.0813481 8.1263e-23)
(0.979399 -0.00100461 -2.19094e-22)
(1.00637 0.0418721 3.4555e-20)
(0.945682 0.00205283 -1.46154e-19)
(1.20889 0.185543 -3.125e-20)
(0.987089 -0.000489645 -1.43037e-21)
(1.20315 0.189623 2.4765e-20)
(0.966377 -0.00620499 5.11289e-22)
(0.987592 -0.0429733 -9.41987e-22)
(1.26661 0.0918186 -2.52598e-20)
(1.0003 -8.62221e-05 1.16747e-24)
(0.991432 -0.02852 -1.48242e-22)
(1.26176 0.0267853 6.97374e-21)
(1.2365 0.0647118 2.70068e-20)
(0.969835 -0.0221014 -2.35588e-22)
(1.05675 0.107792 2.63396e-21)
(0.94188 0.21451 -3.62204e-21)
(1.0314 0.0515037 -7.90256e-20)
(0.967043 -0.0352617 2.08483e-21)
(0.949937 -0.00950916 -1.60595e-21)
(1.04498 -0.0642281 4.59465e-22)
(1.13819 -0.00901311 8.92903e-22)
(1.04148 0.0226653 -1.91228e-20)
(0.995387 -0.00160836 -4.32506e-23)
(0.940783 0.0224507 -4.12962e-20)
(0.993864 -0.0440712 1.87308e-21)
(1.01906 -0.134091 -3.65986e-21)
(1.15106 -0.0794068 2.74186e-21)
(0.8681 0.214881 1.20365e-19)
(1.20343 0.0912553 -3.02235e-20)
(1.03892 0.106885 -4.15882e-20)
(1.1458 -0.183143 6.30639e-22)
(0.904034 0.00576712 -6.55359e-20)
(0.970974 -0.0187807 1.35297e-21)
(0.988842 -0.0414607 6.77063e-22)
(0.811244 0.0272346 2.30475e-20)
(1.08048 -0.0324537 -2.51279e-21)
(1.03012 -0.126468 -4.82035e-22)
(1.05596 0.153357 -8.4575e-21)
(1.03229 0.157518 -2.62779e-20)
(0.980009 -0.0365898 -1.30363e-21)
(1.05025 0.0291542 -4.31697e-20)
(0.992799 0.182628 -7.41565e-21)
(1.03047 0.144639 3.43822e-20)
(1.13094 0.188539 1.05711e-20)
(1.04842 0.155834 5.48242e-20)
(1.12682 0.110504 -2.75152e-20)
(0.986687 -0.00404937 5.00201e-22)
(0.972122 -0.0201893 1.58527e-21)
(1.00293 -0.00737857 -3.47729e-24)
(1.00568 -0.109314 3.88655e-21)
(0.985411 0.0471732 -1.05071e-20)
(1.0095 -0.115795 2.26026e-21)
(1.26807 0.0085651 -5.8738e-22)
(1.21553 0.00628318 -1.87387e-20)
(0.976002 -0.0460697 9.73348e-22)
(1.26876 -0.0579224 -4.31218e-23)
(1.27807 0.0273571 -6.51001e-21)
(0.980324 0.0216433 -3.1888e-21)
(1.25742 -0.0590241 3.92843e-21)
(0.999831 -0.00346124 -8.30934e-24)
(1.06391 -0.0152193 1.61649e-22)
(0.987009 -0.0462107 4.64555e-22)
(1.21553 -0.130635 1.3666e-22)
(1.22906 -0.136919 9.14519e-22)
(1.01163 -0.123008 7.70436e-22)
(1.12792 0.178819 5.95851e-21)
(0.975701 0.203359 5.96635e-20)
(1.18616 -0.0732493 5.5203e-21)
(0.991955 0.0220066 3.3187e-20)
(0.787512 0.145282 -4.16531e-20)
(0.997832 -0.000145632 -4.95296e-23)
(1.0034 -0.0010911 5.84325e-24)
(0.997001 -0.00566338 -1.54011e-22)
(0.973466 -0.00889708 2.90618e-22)
(1.17039 0.0996453 -2.05716e-20)
(0.812445 0.0310939 -4.98682e-20)
(1.17104 -0.0157513 2.5913e-20)
(1.10309 0.178252 7.81412e-21)
(0.984022 -0.0227094 -7.82694e-22)
(1.20381 0.159612 4.13773e-20)
(1.20936 0.175094 1.32356e-20)
(1.19619 -0.172241 2.67357e-22)
(0.959369 -0.0126241 1.46841e-21)
(0.948792 -0.0208702 1.2862e-21)
(1.27389 0.00711187 1.6831e-21)
(1.01188 -0.0412455 1.32395e-22)
(1.19034 -0.0876075 3.19699e-21)
(0.973514 -0.0372514 2.95874e-22)
(0.95706 -0.0365822 -3.09456e-21)
(1.06999 0.154637 5.9748e-20)
(0.992068 -0.00276032 2.58554e-22)
(1.0242 -0.0560938 2.97491e-23)
(1.04247 0.175354 2.84077e-20)
(1.26322 -0.0619391 1.63133e-20)
(0.885138 0.179535 1.36306e-20)
(1.01278 -0.0801799 -8.46718e-22)
(1.07605 0.0174902 2.04187e-20)
(1.21993 -0.137672 -5.2529e-22)
(0.999205 -0.0654748 3.71222e-22)
(0.946747 0.0171497 -1.51052e-20)
(0.972433 0.00126994 9.44117e-20)
(0.979817 0.057366 -1.63112e-20)
(0.994925 -0.0318497 -8.87521e-22)
(0.853866 0.0394216 5.35008e-20)
(0.968722 -0.0325848 1.07029e-21)
(0.96035 0.148811 1.99338e-21)
(1.11768 -0.0805095 -1.654e-21)
(0.978942 0.0892196 -9.16827e-21)
(0.984478 -0.0440553 5.8468e-22)
(1.00006 -0.000217671 -1.06856e-26)
(0.97681 0.0783469 3.06065e-20)
(0.95297 0.133689 3.58431e-20)
(0.968081 0.161574 -5.74522e-20)
(0.977097 0.0678528 -3.56769e-20)
(1.1164 0.00671308 -7.0543e-20)
(1.14875 -0.0382705 -3.97532e-22)
(1.14408 0.0955411 -5.23876e-20)
(1.02802 -0.122435 1.13449e-21)
(0.991158 0.0423393 1.07764e-19)
(1.05253 0.0962162 -5.13041e-20)
(1.2416 -0.103579 6.31271e-21)
(1.09234 -0.0141466 -1.00776e-20)
(0.987083 -0.00385747 2.81842e-22)
(1.2628 -0.12344 3.86469e-22)
(1.08491 0.155417 -9.91019e-21)
(0.957354 -0.0290459 8.81884e-23)
(0.965312 -0.00532819 -1.59091e-21)
(0.976068 0.0114719 -2.15616e-20)
(0.970199 0.0977979 -6.59639e-20)
(0.99085 -0.05017 -8.42471e-22)
(0.987824 0.103601 4.78835e-20)
(1.0129 -0.13022 1.30448e-21)
(1.26668 -0.0305193 -1.22806e-20)
(0.991558 -0.000411605 -5.51178e-22)
(0.960412 0.107168 -3.71575e-20)
(0.94895 0.118613 9.51411e-20)
(0.783306 0.0838345 9.30401e-20)
(0.986582 0.189839 7.75191e-20)
(0.99616 -0.0004737 -6.32473e-23)
(0.984218 -0.0245424 5.14502e-22)
(0.998645 -0.0013154 -7.00008e-23)
(0.995751 -0.0682551 -3.19577e-21)
(0.881941 0.139401 -1.95522e-20)
(1.21553 0.0503552 -4.10674e-20)
(1.10889 0.163853 -6.1659e-22)
(0.957441 -0.0351899 2.03159e-21)
(1.08578 0.0559813 5.00939e-20)
(1.03481 -0.0361863 -1.40569e-21)
(0.882736 0.160144 2.8204e-20)
(1.07509 -0.103593 2.53166e-22)
(0.98683 0.0184685 3.67642e-20)
(0.991807 -0.000404351 -3.29238e-22)
(0.90002 0.129619 -6.47144e-20)
(0.864997 0.171302 -7.89279e-20)
(0.98266 -0.0256594 -1.32008e-21)
(1.22677 -0.0234012 8.90076e-21)
(0.900897 0.109759 -6.45995e-20)
(0.995717 -0.000697689 2.90169e-22)
(0.82687 0.0840533 -1.04158e-20)
(1.04135 -0.0711132 -1.24125e-22)
(0.995415 -0.00050759 -8.60746e-23)
(0.958132 -0.0138185 -1.02567e-21)
(1.0612 0.175431 -3.58254e-20)
(1.22756 0.0211373 -2.35558e-20)
(1.00378 -0.0922935 1.78631e-21)
(1.01605 0.183237 3.01873e-21)
(0.855181 0.193161 5.25667e-21)
(1.20204 0.169397 -4.49893e-20)
(1.05638 -0.0111701 -1.88369e-21)
(0.998388 -0.061036 5.97499e-22)
(1.14452 -0.0903106 -3.24692e-21)
(0.974206 0.110287 5.42242e-20)
(0.848975 0.0840051 -5.98539e-21)
(0.768167 0.0804006 6.03089e-21)
(1.20491 0.0422123 6.51026e-21)
(1.00078 -0.00989977 2.50084e-23)
(0.971947 -0.00218644 1.78043e-22)
(1.09208 0.158637 -3.51379e-20)
(1.00211 -0.00767305 1.20114e-23)
(0.98491 -0.00575666 -5.04023e-24)
(1.00327 -0.0119717 -1.87202e-24)
(0.994818 -0.0278245 -4.43942e-22)
(1.0645 -0.144259 1.56533e-21)
(1.14042 -0.169285 -6.90787e-22)
(0.937998 0.16458 -8.46667e-20)
(1.01839 -0.0461146 1.37692e-23)
(0.998976 -0.00105835 4.62861e-23)
(1.0653 0.0977246 -8.31077e-22)
(1.24911 0.0437784 1.87892e-20)
(1.00214 -0.0121357 -2.69663e-23)
(1.26149 -0.00805144 -1.00496e-20)
(1.00186 -0.00130053 -1.18992e-24)
(1.20609 0.0154402 2.32981e-21)
(1.03188 0.0544349 5.54166e-20)
(0.982371 0.0999448 -9.28845e-20)
(1.11105 -0.164244 8.89676e-22)
(1.21508 -0.0121991 -1.27025e-20)
(0.994556 -0.0135434 -8.53367e-23)
(1.10373 -0.111933 -2.92814e-22)
(0.995151 -0.00195001 -1.96318e-23)
(0.969579 0.126055 -9.62717e-20)
(0.933615 0.160592 2.60959e-20)
(1.16394 -0.183353 6.34762e-22)
(1.13049 -0.179835 7.81273e-22)
(1.09933 -0.173398 3.28609e-21)
(1.02693 -0.0814456 4.82199e-22)
(1.00622 0.17733 6.37939e-21)
(1.0304 -0.0749075 1.72382e-22)
(1.08489 -0.141462 3.35484e-22)
(1.04964 -0.153131 -9.50337e-22)
(1.10064 -0.0990851 1.58661e-21)
(0.805293 0.0843883 5.07841e-20)
(1.0967 -0.188018 -6.66585e-21)
(1.24515 -0.0751454 -1.0892e-21)
(0.966955 0.0359154 1.88484e-20)
(0.993405 -0.000530017 3.13569e-22)
(1.21676 -0.0409026 5.29313e-21)
(1.03348 -0.06794 -6.46081e-24)
(1.05221 -0.142203 1.58204e-21)
(0.995282 -0.001272 8.71427e-24)
(0.999804 -0.00294287 -2.60019e-23)
(0.813032 0.105266 -8.62862e-20)
(1.0987 0.0571831 3.82204e-20)
(1.15862 -0.188659 2.78053e-21)
(1.27238 -0.103407 1.17888e-21)
(1.11746 0.0972311 -2.02579e-20)
(0.994119 0.100087 -7.43074e-21)
(1.05859 0.101114 1.55309e-20)
(1.19272 -0.137755 8.68328e-22)
(0.985082 -0.0492698 1.69109e-21)
(0.995055 -0.0423339 -4.8552e-22)
(0.988194 -0.0447867 -1.29755e-22)
(1.07908 0.0969851 -5.10805e-20)
(0.967082 -0.00665839 1.43339e-21)
(1.00251 -0.0624819 8.35464e-22)
(0.999583 -4.93041e-05 1.56433e-24)
(0.973736 -0.0198242 -2.66036e-21)
(0.997595 -0.000743965 4.7912e-24)
(1.08066 -0.155119 1.01117e-21)
(1.0483 0.174221 -3.37459e-20)
(1.03556 -0.127176 6.17304e-22)
(0.983929 0.158468 3.58107e-21)
(0.998066 0.154942 -8.65842e-20)