/*--------------------------------*- C++ -*----------------------------------*\
  =========                 |
  \\      /  F ield         | OpenFOAM: The Open Source CFD Toolbox
   \\    /   O peration     | Website:  https://openfoam.org
    \\  /    A nd           | Version:  7
     \\/     M anipulation  |
\*---------------------------------------------------------------------------*/
FoamFile
{
    version     2.0;
    format      ascii;
    class       volScalarField;
    location    "26";
    object      p;
}
// * * * * * * * * * * * * * * * * * * * * * * * * * * * * * * * * * * * * * //

dimensions      [0 2 -2 0 0 0 0];

internalField   nonuniform List<scalar> 
30084
(
0.0163237
0.1848
-0.0164026
-0.0641969
-0.00463639
-0.0690277
-0.0238099
0.0158947
0.00369624
0.000298188
0.0106779
-0.00855104
-0.000973895
-7.02356e-05
0.214507
-0.0111677
-0.000400881
0.0921441
-0.00411524
-0.0193256
-0.001686
0.00346847
-0.0166342
-0.00404765
0.623626
0.18368
-0.00104318
0.532026
0.207451
-0.00311405
0.0291601
0.0893762
-0.102183
-0.0120641
0.538502
-0.0129311
0.211359
-0.0496494
0.010488
0.0100818
0.000758251
-0.0305978
-0.000363422
-0.0339085
3.68112e-05
-0.00279888
-0.00769771
9.69993e-05
0.00610144
0.206376
-0.0280268
-0.0564945
0.0921683
-0.0666387
-0.0109318
0.197953
-0.00650602
-0.00173575
-0.00842972
-0.0302699
-0.000154371
-0.00399827
0.0833106
-0.0113266
0.319089
0.59148
-0.0141983
-0.0156496
0.565771
0.000795951
0.181959
0.452082
0.00424308
0.588574
-0.0144475
0.0283119
0.219107
-0.0441538
-0.000119404
-0.0268663
-0.0616467
0.24309
0.0163314
-2.83985e-05
-0.0201675
-0.12323
0.341611
-0.00101065
-0.000942259
-0.0903538
-0.0404046
-0.0446834
0.0056096
0.0911176
-0.0935173
0.349343
-0.0527878
0.00082319
-0.0726208
0.244202
-0.000125247
-0.0417908
-0.000149696
0.0654557
-0.0578358
0.158203
0.39374
-0.000907688
-4.60661e-05
-0.0975469
-0.101968
0.0216928
2.33605e-06
-0.00292989
-0.000380934
0.442316
0.264094
-0.0209593
9.34113e-06
0.00497046
-0.00460405
0.1963
0.00699121
0.58876
0.00199409
0.0326677
0.0982346
-0.0244905
0.00745709
-2.85685e-05
-0.0314565
0.211237
0.440005
-0.018442
0.0646432
0.0283136
0.378127
-0.0426924
-0.157228
0.237096
0.0415778
-0.0781989
-0.0790134
1.72291e-06
-7.11112e-06
-0.00474113
-0.0072165
-0.0785095
-0.107318
0.134543
0.0480199
0.0237153
0.000736757
-0.000307449
0.254255
0.000869538
-0.0142011
0.362404
0.300172
-0.0232802
-0.0591209
-0.062649
0.204284
-0.000126467
-7.697e-06
-0.0211091
-0.0761271
4.50482e-05
-3.16982e-05
-0.0128036
-3.65055e-06
0.0104474
0.367145
-0.0418615
-0.0773471
-0.00927688
0.00378773
-0.0433859
-0.00239018
0.0189279
-4.47887e-05
-0.00644792
0.339366
-0.014592
-0.157052
0.256584
-0.0115658
-0.0320387
0.0070051
-0.00301465
-0.000579507
0.00375903
0.598013
0.250422
-0.0246429
-0.0136124
0.506933
0.227717
-0.0925272
0.00208609
-0.0469435
-0.0871239
-0.00819812
0.00149392
0.376631
-0.0123183
0.0126328
-0.0780605
-0.0994009
-8.37106e-05
0.478268
-0.00199201
-3.06782e-05
-0.00108614
-0.0380585
0.106741
-0.00437577
0.0123039
-0.00401574
-0.0931128
-6.46931e-06
0.000759574
-0.00432685
0.130096
-0.00529832
-0.00279055
0.0891469
0.000172103
3.3846e-05
0.00963247
-0.0493534
-0.0383985
-0.00868721
0.180123
-0.0263126
0.0249611
-7.33664e-05
-0.00558833
0.00138934
-0.0426789
-0.156155
-0.00262779
0.000792005
-0.00291928
0.0052083
-0.0187594
-0.000120946
-0.111257
2.0516e-05
0.13204
-0.00628569
0.00020623
0.160392
-0.0870954
0.00041683
-9.805e-06
-0.0783162
-0.148218
-0.0160385
-0.0266171
0.0479175
0.327162
0.00010389
-0.0468924
0.00513438
0.519008
-0.0146494
0.25291
0.0338511
-0.000525193
0.706491
-0.00108147
-0.0824986
-0.0920205
0.00407224
0.0694274
-0.0150152
0.444423
-0.00644758
-0.031718
-0.000590952
0.294196
-0.00532277
0.355237
-0.00101427
-0.0106754
0.507898
0.1144
0.0889745
-0.0561906
-0.000331775
0.00506484
-0.000421575
-2.76674e-05
0.128217
4.53214e-05
-0.0345263
0.00179194
0.630319
0.436281
-0.0768199
-0.0336625
-0.0365589
0.0193101
0.00515018
-0.0325251
-0.0816501
0.333652
0.455137
-0.00244894
0.387955
0.124761
0.0106434
0.0207545
-0.00315667
-0.0143099
-0.00990734
-0.0049617
-0.000141223
-0.00349262
0.0360595
0.300508
0.00295309
-0.0475073
0.0241358
-9.31481e-05
-0.0792063
0.660911
-0.0116671
-0.00272536
0.0221471
-0.0251959
0.167386
-0.00273888
-9.18319e-05
1.74781e-06
-0.00500312
0.510923
0.0469693
-0.156202
-8.60659e-06
-0.155629
0.106197
-0.00944992
-0.0857061
-0.00249984
-0.000889143
-0.0438497
0.00165914
0.0238411
0.0194017
0.193921
-0.000422056
0.00392386
0.194738
-0.000904583
0.000722397
0.000771715
0.438709
-0.0401672
-0.00298077
0.237467
0.527098
-0.0362673
-0.0131622
0.111614
-0.00151327
-0.0155939
-0.00630759
0.22336
-0.000111005
0.0186762
-0.0934307
0.444254
0.580759
-0.0112306
-0.0164546
0.327829
-0.0314703
-0.000137199
0.176252
0.13696
0.139172
-0.0135449
0.046507
0.525454
-0.128035
0.479539
0.449184
-4.1719e-05
0.0361894
-0.120086
-0.00558255
0.0030141
0.531559
0.0472417
0.000487058
-0.0606195
-0.0892728
-0.0104656
-0.000287311
0.363169
0.259072
2.72762e-05
0.00772013
0.0102247
-0.0662195
-0.0561044
5.4454e-05
-7.54744e-06
0.000893021
0.172753
-0.0492183
0.356902
-0.0878757
-0.0325414
-0.0383975
0.232965
0.087272
-0.00237791
0.0153103
0.00154198
0.48361
-0.0455549
0.00202606
-0.013979
0.0495552
-0.00292798
-0.0226535
0.000398695
0.000410761
0.669323
-0.0151122
-0.00957947
-0.000971428
-0.00147852
0.313179
-0.0934381
-0.045208
4.61275e-06
-2.574e-05
-0.0469722
-0.0126813
-0.00984596
0.0321835
0.0117159
-0.00503267
0.0661577
-0.0320139
0.472361
0.00969556
0.000425858
-0.0764448
-0.0429322
0.0832087
-0.00653896
-0.0442859
-4.17415e-05
0.5668
0.0364184
0.000106966
0.598056
-0.046825
-4.44721e-05
0.00273797
-0.0784453
0.0231775
0.0824318
-6.02111e-06
-0.014943
-0.0115471
-0.0101635
-0.000975662
-0.0154223
0.511982
-0.0155898
-0.0219195
0.265121
-0.00542457
0.497632
-4.87144e-05
-0.0296566
-0.082457
-0.0433141
-0.0189705
-0.00306278
0.00347536
-0.000395089
-0.0346744
0.0181129
-8.81462e-05
6.57286e-06
-0.011911
0.469611
0.0141202
0.00477587
-0.0923931
-7.03663e-06
0.00183712
-0.000154534
0.0181469
-0.0320269
-0.000819394
-0.0151607
-0.0229611
0.00194373
-5.15728e-05
0.0239252
-0.000875902
0.0962961
0.414947
0.332566
-0.00792831
0.0115206
0.0477919
-0.000281743
-0.00681561
-1.55483e-05
0.453236
-0.0253605
0.031734
-0.0310757
0.00318254
-0.00608724
-0.000261954
8.12635e-06
-0.00927381
0.0864817
0.305159
0.00235933
-0.0689609
-0.0448816
-0.0148424
0.135666
-0.00264137
0.00207177
-0.0106448
-0.000244885
-0.0809206
0.33628
0.241288
-0.0407742
0.329376
0.000109347
3.89583e-06
0.175077
0.0783033
0.586988
-0.0725312
-0.0385875
0.0575086
0.00224353
-0.0111104
0.000849615
-0.0197465
-0.0237701
-3.31966e-05
-0.00181096
0.440518
-0.000347308
0.549669
-1.36637e-05
0.0508289
0.0915632
0.0712026
0.00199187
0.00031844
0.460787
0.10117
-0.0837676
0.247673
-0.0122963
-0.0242718
-0.00787295
0.31191
-0.0462881
0.0224651
-0.0145246
-5.98853e-06
-0.00261354
0.0113567
-0.0323035
-0.0398675
-0.0747586
-0.0326464
0.166926
-0.00422436
-0.090954
-0.0251548
2.0052e-05
-0.0221532
0.0183604
0.169594
-0.0487804
-1.2519e-05
-0.0332804
-0.000896
0.00267672
-0.125382
0.355929
0.00170743
-0.0218723
-0.0267131
0.116006
0.502203
0.00348921
-0.00886604
0.304117
0.214508
-0.0278391
0.00955406
-0.0819014
-5.46922e-06
-0.0702276
0.000125079
-0.0282827
-7.96327e-05
1.63956e-05
-0.0115679
0.0895181
0.416182
0.0198472
0.0226211
-3.2186e-06
-0.0120649
0.000135146
-0.00632793
1.75057e-05
0.0872555
-0.00100585
0.24484
-0.000306187
-0.0233671
-0.0620926
-0.00824053
0.498998
-0.0299549
-0.07983
-0.0108668
0.0793282
-0.0748826
0.0521202
-0.0288742
-5.36674e-06
-0.00979839
-0.0077124
0.00044044
0.000128457
0.31012
-0.00954593
0.125877
-0.00821818
0.00164579
0.0581442
0.000279997
-5.13991e-05
-0.0691602
-0.00683332
2.37633e-05
0.313688
0.638034
-0.000474964
-0.0598422
5.69199e-06
0.53355
0.0484091
-0.0630746
2.58978e-05
0.0232484
0.0985271
0.114323
0.0812101
-0.000876137
-0.000368092
-0.0280403
-4.72322e-06
2.06126e-06
-0.0471457
-0.0515495
-0.0734965
0.611994
0.000348712
-0.0529695
0.0149074
-4.70165e-05
-0.00251972
6.51954e-06
-0.0116118
5.58929e-05
-0.0258395
0.0504744
0.492037
0.0771025
-0.000611687
0.000842064
-0.0758413
0.123405
-0.00610009
8.88349e-06
0.275978
-0.158595
-0.0709624
-0.0256241
-5.97894e-05
-0.000605519
-0.165022
-0.0376192
0.203532
0.470226
-0.0783163
-0.00255402
-4.69636e-05
-0.0754448
-0.101104
-0.000458623
0.0053236
-0.0269072
-0.00909726
0.45524
-0.0026249
0.00774669
0.229585
-0.014634
0.589803
0.588248
-9.22021e-05
-0.000140481
-0.0294915
0.0298347
-0.0581278
0.0102764
-0.014167
-0.00120094
0.518263
0.239595
0.00437916
0.698447
4.4042e-06
0.155389
-0.0914536
-0.0515351
0.000133576
-0.060204
0.160617
0.0285661
0.10363
-0.000950986
-0.00102154
-0.00570794
-0.00676185
-0.0247232
-0.00219564
0.187423
-0.0108752
-0.0101877
-0.0933902
0.431707
0.0468182
0.0571005
-0.000854805
-0.00107789
-0.0357251
0.00188321
-0.0050901
-5.70519e-05
-0.000768676
0.161094
0.462637
-0.000297167
0.272935
-3.75471e-05
-0.00653262
-5.87209e-05
0.0105243
0.0127331
-0.000108972
-0.000112321
-0.0901002
-3.81808e-06
0.0834022
-0.0426246
-0.000130491
0.248372
-2.40508e-05
-0.000849087
-0.000214232
-0.00978287
-0.000831762
-0.0117314
-0.105818
-0.00074667
0.00826631
-5.20528e-05
0.410438
0.00511678
0.046018
-0.0545602
-0.0391769
-0.00233139
0.00565959
0.282334
-0.0444976
0.261221
-0.0666244
-0.00674708
-8.68768e-06
-0.0109763
0.438713
0.268384
-0.0593374
-0.0825412
0.397391
-0.0157761
-0.0860659
-5.78122e-05
-0.0444434
-0.00169595
0.679118
-0.0771205
-0.000209568
-0.08992
-0.0454085
0.31766
-0.00502924
-0.0475784
-0.00728551
-0.0107692
-0.00255544
0.316619
-0.153607
-0.0337997
-0.0267087
-0.0231468
0.010831
0.391351
-0.0326649
0.248504
0.0052602
-0.0144901
0.558591
-0.016026
-0.000503596
0.320328
0.444198
-0.00395776
0.0322
-0.0124733
-0.0539579
0.304128
-0.075474
-6.37641e-05
-0.0137938
4.22905e-05
-0.00854149
-6.73595e-05
-0.00868877
-0.00193279
-0.00608245
-0.0482347
-0.00123139
-0.00104079
-0.00222169
0.267685
-0.00402805
-0.00623644
-0.00577818
0.228947
0.01002
-0.00079816
0.435626
0.58075
-0.0338334
0.518016
-0.0298903
0.412795
0.010313
-0.0209062
0.0048395
-0.000942385
1.60858e-05
0.00479636
-0.0208574
-0.0337115
0.243312
-0.0389536
-0.0342529
-0.00180832
-0.034386
-0.0412971
0.0122972
-1.01988e-05
0.0209554
0.191771
0.444887
0.0423574
-0.0229585
0.195931
-0.00073465
0.0630589
-0.0305175
0.00109501
-0.0889296
0.00577034
0.413299
-0.00386446
-0.00106294
-0.000307755
-0.0815809
-0.00240063
0.683807
0.706265
0.0215012
-8.83618e-05
0.0149357
-4.62751e-05
0.109417
-0.00105162
0.0386146
0.626996
0.0878304
1.73268e-05
-0.0140884
-5.0475e-05
-0.155503
-0.0572397
0.520019
0.000368079
0.0207069
0.00547183
0.000467005
-0.0040967
-0.000598635
-0.0104091
-0.0599078
-0.0385247
0.012435
0.243198
-0.0223897
0.0110951
-0.0338287
-0.0031802
-0.0450327
1.03588e-05
5.16053e-05
-0.00389291
0.0485791
-0.0484317
-0.0268299
-0.00633608
0.00462124
-0.0271853
0.323122
-0.0212845
-9.16082e-06
-0.0841405
0.482452
-0.0188228
-0.0201298
0.129183
-4.1007e-05
-0.00123573
-0.0471307
-7.3503e-05
-0.000827103
-4.64256e-05
0.698799
0.0151045
0.00610868
-3.64392e-09
1.24198e-06
-4.14619e-05
-4.15839e-06
-0.0371182
0.445791
-0.0570146
-0.000890763
-0.000318545
-0.00884715
0.517743
-0.0807015
0.476537
0.0504782
0.189765
-0.000276209
0.511956
-0.00377331
-0.0155586
0.0312426
0.0144292
0.0164099
0.245062
-0.0655554
0.505437
0.361038
-0.0134544
-0.0450499
0.00528505
-0.0477163
-2.85525e-05
-0.00161257
0.00448898
0.104011
-0.0108152
-0.0373109
-0.00547055
0.607545
-0.104431
-7.93284e-05
-6.56485e-05
0.525938
-0.00812642
0.00397107
-0.0213399
-0.00374968
-0.0246471
-0.0157961
-0.0109164
0.147632
0.0558602
-0.0162558
-0.0229579
8.14801e-05
-0.0093877
-0.00182956
-0.0128586
-6.32598e-05
4.84195e-05
-0.0276729
-0.032328
0.500771
-0.0306548
-0.000384899
-0.00252968
-0.000555623
0.4331
-0.0143682
-8.026e-05
-0.0435741
-0.00730711
-0.00576967
-0.0443216
-0.0512114
0.0105737
0.0884538
-0.0935324
6.37298e-05
0.00927653
-0.0211251
-3.00108e-05
-0.000128701
0.156494
0.12066
0.0351475
-0.0752867
-0.0790626
0.000768178
0.542856
5.69265e-05
-0.0248851
0.457624
-0.0269187
-0.0570717
2.86539e-06
0.000180871
-0.0567304
-0.0147414
0.00209597
-0.0502139
0.293282
0.347644
0.00100328
0.000321978
0.279963
-0.0196487
-3.04353e-05
-0.00238058
-0.0436985
-0.0335557
-0.0156484
-0.00309922
0.277151
1.12026e-05
0.106886
0.345355
1.61176e-05
0.0172849
-0.000743317
-0.114699
-0.021064
-0.00108527
0.0399465
0.000232928
0.288159
0.00208217
0.0321979
0.0366251
0.631409
0.425475
-0.0811901
-0.0107464
2.73593e-06
0.044763
-0.0195255
0.204616
0.391534
-0.0500972
-0.00621337
-0.0231772
-0.00890733
0.187059
-0.000322156
0.510915
0.035435
4.57877e-05
1.84013e-05
0.000107435
-0.0176434
-0.0242312
0.000914468
0.102567
0.170004
-0.0747195
0.000664335
5.85155e-05
-0.0314103
-7.48532e-05
-0.00388274
-0.015017
-0.000995715
0.0691981
0.00583698
-0.00186789
-0.00507826
-0.0212289
0.425811
0.436391
0.05056
-3.78794e-05
-0.000774842
0.307659
-0.000654461
-0.113358
-0.000309194
-0.0262143
-0.102479
-0.000326164
-0.000345993
-0.0426296
0.00174288
-0.000125222
-0.00178935
0.262303
-0.0452994
-8.0726e-05
0.123523
0.412388
0.426247
0.000746785
-0.116273
-0.0121042
0.479444
-0.0853944
-0.0875346
-0.00417717
-0.0166407
0.037307
-0.0329754
0.426128
0.113757
-0.000275923
-0.0692686
-0.0917913
-0.00495928
-4.68773e-06
-0.00238876
0.260687
-0.000300225
0.0027717
-0.00519296
-0.00156963
0.0113623
0.0367744
-0.000283615
-0.000194575
-0.00844976
-0.11203
-0.0456045
-0.0947556
0.295383
-0.00244357
-0.000402883
-0.0464137
-0.0305538
0.0124435
0.0169564
3.07397e-05
0.091968
0.184775
0.0237621
0.0311432
-0.000861683
-0.0169837
0.0622588
0.00160116
-0.000136839
-0.0117409
-0.00514781
-0.000994915
-0.0141482
-0.0011349
0.319689
-0.0114906
-0.157721
-0.0302817
-0.0136087
0.0147061
0.531222
-0.0550743
-0.000204826
0.509371
0.205928
0.00965727
-0.00744186
0.00937798
0.0341168
0.198277
0.000395286
-0.003649
0.62648
0.345158
0.386107
-0.0560485
-0.00182706
-0.0016081
-7.93924e-05
-0.00170457
0.354853
0.104049
-0.00261603
-0.00569429
-0.000519982
-0.00342611
0.595515
0.45855
0.100456
-0.0036198
-0.0796014
-0.00570716
-0.000972569
-0.0261716
0.018506
-0.0342348
-0.00449182
0.00105062
-0.112679
-0.114009
0.037728
-0.0310329
-0.00437298
-0.0324259
-0.000295039
-0.00876441
-0.000926145
0.405069
2.20696e-05
3.84433e-07
-0.0317944
-0.0247042
-0.0358986
0.0485024
-7.6429e-06
-0.108935
0.0845785
0.242998
0.669736
-0.00584947
-0.123591
0.0380488
-0.00267643
0.101698
-0.000807893
0.0129787
-0.00028929
0.318349
-0.0573614
0.0132418
0.171116
0.146033
0.00175359
0.0036404
1.80146e-06
0.479544
-1.33837e-05
-0.0562935
0.000372888
0.00201731
0.226046
0.12814
-0.0933455
-0.0485789
-0.00516651
0.704683
-0.0968652
2.62427e-06
-0.0193362
-9.93962e-05
-0.018335
0.130741
0.24344
0.00105217
-0.0436829
-0.0117545
0.185613
0.0802815
-0.0403128
0.611969
-0.0123573
5.68341e-05
-0.151861
0.634395
0.00240108
0.11631
-0.0545224
0.187972
0.00229079
0.0435271
-0.0940418
0.00685563
0.0683699
-0.0308039
0.254775
-0.0324331
-0.0240535
-0.00105531
-0.00105973
0.555934
-3.22182e-05
-0.00681395
-5.95185e-05
-0.0100794
0.000393561
-0.00908783
0.310423
-1.19478e-05
-0.00132416
0.152378
-0.160608
-0.029157
0.00133962
0.464691
-0.0661355
0.212919
-0.0147564
0.194142
0.00855036
-0.000988822
-0.0305437
0.000901081
0.568778
-0.0334176
-0.000194087
0.00274788
0.178254
-0.0139752
-0.000928469
-0.000209015
-0.10719
-0.00327706
-0.0121744
-0.0936193
5.43913e-07
-0.0858029
0.000433012
0.411675
-0.01273
0.187006
0.00548461
-0.00464282
0.329242
-0.0725606
-0.1463
-0.00545035
-0.115741
0.338628
0.357382
-0.0174683
-4.25872e-05
-0.0191881
0.00565751
-1.75372e-05
0.0893658
0.442712
0.0155259
0.00191848
0.0120769
-0.0872996
-0.000250397
0.10367
0.0619585
0.0966617
0.0163683
0.0342596
-0.000530817
0.219257
-0.0437147
-0.167528
-0.00130168
0.0262438
0.183413
0.00094994
-0.08982
0.267989
-0.0508054
-0.0914762
-0.0922582
-0.105247
-0.108892
0.0658463
0.269321
-0.127336
-2.70591e-05
0.000970254
-0.0145807
-0.00227776
0.0110311
-3.06495e-05
-0.00716594
0.00485162
-0.000117343
0.0715066
-0.000696154
0.152075
-0.0410996
-0.00721892
-0.00860778
-0.0106629
-0.0849799
-0.00732299
-0.00136989
0.0263238
0.0992022
0.00554966
-0.0411584
-0.00373311
0.0366182
-0.0118044
-0.0239379
-0.0915853
-0.0197622
-7.40998e-05
-0.0189365
0.507078
1.02183e-05
0.1834
-0.0528432
0.60008
0.0608114
-0.0581293
-4.20894e-06
0.00202699
-0.110294
-3.6141e-05
-0.00342908
-8.5933e-06
-0.094386
0.00553308
-0.102533
-0.0286182
-0.000193962
0.33007
0.318766
-0.0444953
0.000519366
-0.000259689
-2.62268e-05
-9.89146e-05
0.545363
-0.00170565
0.00277816
0.0270227
0.00112603
-0.000795891
-0.0930778
-0.000400347
0.0591529
0.00314015
-0.00268064
-0.000987853
-0.0319965
-0.0519467
0.22504
0.134136
-0.000244654
-0.0164686
0.000622366
-0.0637204
-0.000810499
0.172741
-0.0111404
0.701578
-0.0188758
-0.00187948
0.0941445
-0.0237165
0.406857
-0.0527367
-0.0141297
-0.0162864
0.0227818
-0.00460397
-1.28087e-05
-0.0104839
0.365877
-0.0546104
-0.00412852
-0.0521034
-0.0338185
0.19007
-0.000691611
0.336286
-0.00261444
-0.082922
-0.000721744
0.016483
0.0578793
-0.00583033
0.394893
-0.000647965
0.0411935
0.110904
0.000530612
-0.000220097
0.587331
0.089782
-0.0012434
0.0374222
0.0266682
0.000113854
-0.0660945
-0.0277928
-0.152246
-0.0131915
0.392719
0.00521182
0.222275
-0.000552029
0.459076
-0.0887781
-0.00673265
0.00769546
0.0392102
-0.0855796
-0.124262
-0.0108576
2.32709e-05
0.644961
-0.0283592
0.000963655
-0.0310615
-0.0496768
0.402352
0.00368522
-0.0205669
-9.57098e-05
0.116829
0.010013
-0.0481884
0.000957607
-0.00446265
-0.0352689
2.73598e-05
-0.0654528
-0.00204714
-0.0187134
-0.0809657
0.344808
-0.0130157
0.0697344
-0.0525138
-0.039935
-8.941e-05
0.000135601
-0.00487409
2.88784e-05
-0.0142217
0.0357437
-0.00269315
-3.11578e-05
0.576407
0.00622425
0.000354166
-8.61735e-05
-0.00277711
0.389295
-0.0663106
0.646339
0.231945
0.0280529
0.339768
-3.60385e-05
-0.0182886
-0.00113497
-0.00321895
0.242436
-0.0128823
0.646224
0.313151
-0.0720051
0.324525
0.0111124
-0.0180966
0.00274616
-0.0534698
-0.00512521
-0.0655785
-0.0705672
-0.0039168
0.320814
-0.0126984
0.000138048
-0.005566
-0.000908757
-0.0429867
-0.00025588
-0.00167473
-5.05474e-05
0.201688
-0.120782
0.330459
0.0356924
-0.00358876
-0.0422758
-0.0255863
0.0924591
-0.0039806
-0.00142151
-0.0830409
-0.0573959
0.0129545
-0.054157
-0.00581813
0.0141022
0.00305684
7.38957e-06
0.176277
-8.76358e-05
0.0720422
-0.00109731
2.12934e-06
0.0024527
-0.000924505
-0.00162799
-0.0204707
0.227776
0.188455
-0.0254248
-0.0161841
0.00358945
-0.00662985
-0.0131351
-0.000134924
-0.00068961
0.000810857
0.145253
-0.0111544
-0.072564
-0.0644016
-0.00301984
-0.0294451
-0.0168713
-0.00226794
0.0066272
-0.0160025
0.299108
-0.0888106
0.00731498
0.00228309
-0.0482202
0.635037
-0.0128914
-0.00643156
0.00976789
0.104582
0.00500622
-0.00400282
0.322445
-0.000523888
0.0569312
-0.0298877
-0.0705984
0.00796281
-0.0048828
-0.00717257
0.0526045
-0.00472169
-0.000867274
-0.000427199
0.0031301
-0.000354379
0.0431049
-0.0121145
-0.00269393
-3.42455e-05
0.203997
-8.61312e-05
-0.0404298
0.101109
-0.0309438
0.000112538
0.143563
-0.0525194
0.219217
-0.000120617
-0.00516279
0.138878
0.000181124
0.00619166
-0.0058942
0.013187
-0.0264867
-0.0412228
-0.0114042
-0.00352347
0.0124893
0.0262546
0.140184
-0.000283096
0.149532
-0.0512841
-0.00434219
-0.00901002
0.000464575
-0.0758599
6.63754e-05
0.511899
0.279024
-0.000686698
-0.0273296
5.84133e-05
-0.00287585
-0.00713387
-0.0202949
0.203095
0.212208
0.0276277
0.0128503
-0.0930885
0.04779
0.0754564
0.0917559
-0.065086
0.0212166
0.270688
-0.0123423
0.445377
-0.00125205
-0.0140646
-0.0643544
-0.000164347
-0.00102929
-7.12797e-05
0.442157
-0.0133158
0.000282853
-0.0198687
-0.0065298
-0.000467118
-0.0168994
0.347016
0.00115022
0.0138474
-0.0380494
-0.000711291
-0.00594569
-0.00109103
0.655096
0.000224441
1.95449e-05
-0.00256319
-0.0182925
0.141282
0.000614427
0.0177785
0.0997811
-0.000261391
0.00252782
-0.092699
0.0980634
-0.0547499
1.57545e-07
0.000365936
0.00148114
0.0406218
0.373025
0.118781
-0.043232
3.77684e-07
-0.0684601
-0.00340487
-0.01596
-0.0154297
0.223275
0.492501
-0.000171862
0.189135
0.293582
-0.0123898
-0.0203267
-0.0296425
-0.0166309
9.99078e-05
-0.0505044
-0.0109734
-0.000217825
-0.000756233
-0.0020643
-0.00247378
-0.000913125
0.366336
0.391553
0.25659
-8.19825e-06
-0.0292766
0.0605703
0.135146
0.518132
-0.000670734
-0.0253242
-0.0231936
0.369074
-0.0240187
-0.0120611
-0.00119951
0.193792
0.000320339
-0.000704524
-0.0319739
-0.0534129
0.187265
0.0629174
-0.052003
-0.0297336
0.14406
0.0253963
-0.0616914
0.0086902
0.052529
0.195145
-0.000495119
-0.000850983
0.13898
0.000215882
0.0446633
0.0397064
-3.92785e-05
0.345936
-0.013411
-0.00566156
0.672203
-0.0458251
-0.0118113
-0.0475091
-0.00338791
0.488404
0.00137248
0.637107
-0.000215943
-0.0177567
0.647876
0.00851034
0.486568
-0.0072883
-4.75095e-05
-0.0306207
0.496195
-0.00204966
-0.00841219
-0.0102407
-0.00131862
-0.026646
0.497874
0.143897
-1.86093e-05
0.0251634
-0.00475805
0.0375469
-0.00117748
0.028949
-0.00335284
-0.000662918
0.474415
0.508333
0.479198
-0.0640318
0.0703839
0.00013438
-0.0699683
0.338192
0.020503
0.000246636
-0.0812987
0.000686763
-0.000165701
0.505393
0.00011789
0.00520078
-0.00248147
-0.0114456
0.483687
0.498783
0.512299
0.014832
0.000533029
0.262463
0.00939913
0.0320624
-0.0114609
6.09364e-05
-0.00377085
-3.9614e-05
-0.00576788
-0.00099033
-0.00730208
-0.000133375
0.18639
0.0025891
-0.0913912
-0.0115374
-0.0876625
-0.0203042
-0.00102474
0.407753
-0.0135003
-6.02258e-05
-6.35779e-05
0.626862
2.0839e-05
0.0141791
0.0736066
-0.022327
0.358558
-0.00660914
-0.0531849
-0.0453339
-0.000718442
0.000119128
0.306584
0.509118
-0.00198976
-0.026986
-0.000334752
0.503628
0.604904
-0.00185991
-0.00821607
0.0240682
0.0037679
-0.0302709
3.30364e-05
0.0125698
-0.0465216
0.0743593
0.411307
-0.0019487
0.0356427
0.149529
0.0622232
-0.0542751
0.0353493
0.587859
0.234114
-0.0650033
0.51004
-0.000793344
0.517483
-0.00908379
0.430913
0.0994824
-0.00638092
0.0471629
0.00295172
0.0219449
-0.0887024
-0.000886333
-0.0287569
0.43148
-0.0324556
0.0333205
-0.00190477
0.0190123
0.226967
-0.0114684
0.00103972
0.0008251
-0.00458698
-0.0294241
-0.0027449
0.00238733
-0.011006
-0.000672736
0.00296804
0.428021
0.00262629
-0.0196312
-0.0719179
-0.0356925
-0.0770646
-0.103779
0.00514149
-6.88791e-06
-5.62223e-05
0.309823
-0.07029
4.9946e-05
-0.0564533
0.214295
-0.0732934
-0.0183805
0.000111217
-0.00241073
-0.0562037
0.181894
-0.0106389
-0.000644211
-0.0560577
-0.0239902
0.65091
0.135094
0.0864181
-0.0631051
-4.23278e-06
-0.00833313
0.0796682
-0.000510248
1.28963e-05
0.205056
0.124865
0.000715674
-0.00111684
0.0097254
-0.0462767
0.0126629
0.0100381
-0.0184761
4.30657e-05
0.343873
0.000667248
-0.000853735
-0.000336181
-0.000309744
-0.000233574
0.099459
0.00107539
-0.00349377
-0.011708
-0.00586951
0.0352732
-0.00665662
-0.0502219
-0.0127149
0.463849
0.387968
-0.000653097
-0.00185659
0.120727
-0.0010594
-0.0252559
0.0891234
0.126894
-0.001237
0.0250625
0.0489003
0.00151151
0.13611
-0.00016486
0.0089789
-0.00961085
0.0168263
-0.0176343
0.0590999
5.94475e-05
0.000337964
0.000275222
-9.21157e-05
-0.00194504
-0.0117527
-0.0154393
-0.034927
0.081815
0.0475442
0.0110592
-0.0790964
0.0139812
0.0085991
0.0157874
4.8468e-05
0.498108
-0.00997309
-0.00398805
-0.00472509
0.659145
3.72861e-06
0.103733
-3.09691e-05
-0.0372917
-0.00774014
-0.0259275
0.203672
-0.00481906
-0.000101618
0.226286
0.0855792
-0.000716171
0.0617313
-2.78171e-05
0.189128
0.0082447
-0.0333338
-0.000215521
0.281987
0.0341217
-0.024122
1.35566e-05
0.196343
0.355756
-0.00138742
-8.31453e-05
-0.0428336
-0.0107026
0.00977287
0.0291282
0.519797
0.306895
0.00051985
0.386271
0.289127
-0.00341122
-0.0651019
-0.0422173
-0.0186318
-0.0660435
0.180093
0.000909374
0.540427
0.177398
0.0146869
6.39454e-05
0.000693153
5.61325e-06
-0.000718848
-0.00333836
0.577721
-2.03247e-05
0.0924681
0.0319101
-0.000310313
0.537464
0.605224
0.227863
0.262072
0.0209744
0.00283507
-0.000382959
-0.0129382
-2.89581e-05
-0.00134018
-0.159127
-7.94703e-05
-0.00221238
0.550002
-0.0135672
-3.67888e-05
0.571601
0.000489287
-0.0409396
-0.0826726
-0.00159234
-0.0978483
-0.000313646
0.187561
0.00382243
-0.0196852
0.00220215
-0.000824277
-0.000505159
-0.000300634
-0.165515
-0.0705951
0.176168
0.00317315
-0.00515633
0.272732
5.77509e-05
0.632997
-0.000708354
-0.09863
0.00255069
0.00184702
0.0592781
0.0625094
-2.75243e-05
-0.00486565
8.79207e-05
-0.000830863
0.000925893
0.0969987
0.0567116
0.36128
-0.0515826
-0.000144885
0.000158881
0.113158
0.395009
-0.00519793
-0.00731393
0.632612
-0.00326681
-0.0237408
0.000955013
0.0936256
-0.0494987
-0.00988628
0.180105
0.00147874
-0.000335154
0.00186548
0.0155433
0.62331
0.496522
-0.0277283
-0.0447245
-0.00747764
0.00175734
5.21905e-06
0.0866041
0.233119
-2.07698e-05
-0.0084412
-3.45248e-05
0.000112695
0.469479
-8.75146e-07
-0.0926639
-0.0684509
-0.113522
0.0804376
-1.43302e-05
0.0113947
-0.00713877
0.435178
0.0109695
0.00568925
-0.0347803
0.000675961
0.395989
0.235322
0.0125338
0.067542
0.556066
-0.0749017
-0.06818
-0.00225039
-0.00811311
-0.000497192
0.0296795
-0.000123405
0.188592
0.00327525
0.22909
-0.0397689
-3.9273e-06
0.0667638
-0.000233936
-2.97782e-05
-0.000927389
0.618166
0.594141
0.358006
4.19446e-05
0.217979
0.515534
-0.00116886
0.00194365
-0.0097356
0.104531
0.499804
-0.031558
0.138729
-0.00300045
-0.0744438
-0.0843496
0.68204
-0.000734914
0.495526
0.100741
0.215464
7.69628e-05
0.000203543
0.00610792
-0.0103092
0.0959184
-9.28364e-05
4.95448e-05
0.486314
-0.121434
0.000286587
0.508771
-0.0027081
0.000134673
0.418137
-0.00792169
-0.00184031
0.0344547
0.187294
0.000324196
-0.000189437
0.00390223
-0.00468263
0.48325
0.614496
0.324865
0.66584
0.156511
-0.0527515
0.561423
-0.000124776
-0.00376419
0.181471
-0.00400943
-0.000792558
-0.000142786
0.50751
0.0370415
-0.000789519
0.598614
0.0856729
0.287985
0.0497518
-0.00315757
-0.0236135
0.186168
0.0852807
0.506678
-0.0272379
-0.000943367
0.46702
0.435918
0.015046
0.367708
-0.0445229
-0.00894125
-0.0106965
-0.000776373
-0.000194955
0.471967
-0.0719228
0.0328299
0.000877702
0.177802
-0.0358401
-0.0195952
-0.00120986
-0.00437931
0.525443
-0.000961849
-0.0198238
-0.00347871
0.517891
-0.0219966
0.0226375
-0.00857693
0.00152381
0.172273
-0.0250078
0.536234
0.163579
0.66314
0.275745
-0.0684028
0.035196
-0.00209555
0.0160638
-0.0121122
0.490023
0.521627
0.581146
0.357529
0.476611
-0.00047828
0.550974
-5.92202e-05
5.09679e-05
-0.0546374
0.593758
0.0566813
0.275775
-5.17189e-05
-0.00252445
-0.0520831
-0.0399496
0.481696
-0.000821362
-0.00877785
0.357696
0.00112456
-0.00488169
0.64301
0.0531275
-0.0464276
-0.134072
-0.000666498
0.0968915
0.158229
0.671278
0.130251
0.0715476
0.00474895
-0.000306339
-0.00546852
0.212117
0.0067418
0.00011637
-0.0876482
0.264749
-0.00173024
0.496833
-0.082978
0.502058
-0.0234038
-0.0259201
0.558485
-0.00609833
0.0675648
-0.000507785
-0.00154914
-0.0723168
-0.0253782
-0.0409412
-0.0110441
0.0116098
-0.0964655
-0.0802212
0.500409
0.000244739
0.000797866
-0.0229577
0.134079
-0.107771
-0.0664618
-2.10847e-05
-0.0918552
0.0525907
-0.000154509
-0.0951419
0.0139028
0.50594
-0.111905
0.495552
-0.015421
0.134972
0.269958
-0.0392122
0.34902
-0.00207264
0.124762
0.00103852
0.0941122
0.214642
0.189249
-0.0317369
0.0067498
-0.000829481
0.193583
-0.000118412
-0.000181081
-0.00122017
0.00599912
0.0183804
0.016477
0.425766
0.175015
0.625373
0.395805
-0.00177184
-0.0363734
-0.000231456
-0.0534725
-0.0014553
0.00631848
0.000661925
-0.0365427
0.354146
0.493566
-0.000366651
1.39524e-05
0.0638352
-4.298e-05
-0.0102451
-0.000247145
0.150614
-0.0395456
0.201435
-0.102047
1.1349e-05
-0.0154807
-0.044315
-0.0278248
-0.0182613
-0.0583816
0.0674037
-0.000216569
-6.31496e-05
0.00222688
-0.000195771
0.0912904
0.12462
0.0435303
0.582536
0.0492813
-0.146765
-0.0969536
-0.000539516
0.0557983
-0.000177236
0.468587
0.107123
0.544677
0.000115805
-0.0361513
-0.00758866
0.0550005
0.228446
0.431952
-0.00843963
0.0364635
-0.00218932
-0.0208577
-0.00890517
-0.00679088
0.114579
0.00167806
-0.0089519
-0.0224548
0.277721
0.0744398
-8.34201e-07
-0.001035
-0.00690853
-0.00072051
0.129024
-0.000788513
-0.0319207
0.164901
6.15878e-05
0.275225
7.11582e-05
-5.65309e-06
-0.101161
-0.0195606
0.000145441
-0.0248345
0.000134454
0.567588
0.013528
-0.0266999
0.528877
0.13529
-0.0346132
0.419041
-0.00310666
-0.00212051
-0.00235854
0.0930585
0.704693
-0.00171722
-0.000737168
-2.79071e-05
0.00849466
-0.00143918
0.0275327
0.00661391
-0.0230404
-0.0651476
0.0200382
0.011543
-0.0205969
-0.000645461
-0.00590046
0.417378
-0.00206333
-0.015168
-0.00029616
0.427142
0.0595625
0.412865
0.000430402
-0.000994428
-0.0261561
0.584207
0.154721
-0.031083
-0.000180036
0.0341749
0.118551
-0.0220063
0.215839
-0.0523748
0.0215827
-0.153304
0.431928
-0.0176306
0.260044
-0.00355193
0.668667
-0.04518
-0.0121261
0.535437
-0.0471155
0.174304
-0.166965
0.192574
0.00693642
0.0538531
0.339032
0.0537218
-0.0527592
-0.0106694
-0.00836471
-0.0139404
0.00600944
-0.001731
-0.0621441
-0.0310115
0.00205948
-0.0723518
-0.0914432
-6.76768e-05
0.157119
-0.0100458
0.165253
0.54041
0.386074
-0.058775
-0.0784993
0.000441403
-0.0829665
-0.00481471
0.647947
-0.0386424
-0.0331916
0.381097
0.0514304
-0.0436928
0.250994
-0.0404468
-0.00078198
-0.012894
0.0108376
0.000639566
0.399924
-0.0030379
0.149224
0.354538
-0.00631066
0.24941
-0.112436
-0.000454646
0.00719165
0.09954
0.366779
-0.00283625
0.0922053
-0.0775994
0.0778527
-0.0251811
0.38956
0.00943194
-0.0647015
-0.00346768
0.000166079
0.493206
-0.00274853
-0.0327733
-0.000155205
0.217948
-9.79794e-05
-0.051003
-0.00229166
-0.14068
0.000639623
-0.0112247
0.216859
-0.00435986
0.00096163
0.000616678
-0.00458909
0.0675237
-0.000114493
-4.96848e-05
-0.00937691
-0.0116185
-0.0248963
0.00875847
-0.00215964
0.080091
0.084501
-0.00146983
0.00105996
-0.000264694
0.486889
-0.00467514
-0.00767783
0.425659
-0.0201845
0.394324
0.0554247
0.501829
0.238546
0.120978
-0.00169594
-0.00322006