/*--------------------------------*- C++ -*----------------------------------*\
  =========                 |
  \\      /  F ield         | OpenFOAM: The Open Source CFD Toolbox
   \\    /   O peration     | Website:  https://openfoam.org
    \\  /    A nd           | Version:  7
     \\/     M anipulation  |
\*---------------------------------------------------------------------------*/
FoamFile
{
    version     2.0;
    format      ascii;
    class       volScalarField;
    location    "22";
    object      p;
}
// * * * * * * * * * * * * * * * * * * * * * * * * * * * * * * * * * * * * * //

dimensions      [0 2 -2 0 0 0 0];

internalField   nonuniform List<scalar> 
117990
(
30.734
-0.0569709
10.9194
3.2599
10.7035
0.0886001
59.5078
23.174
-0.350561
-0.0594647
-0.608445
0.520746
7.17971
93.2058
-0.340416
86.4912
-0.0920345
-0.642705
58.9305
10.8229
23.1283
-5.90436
-0.672447
4.573
61.6356
49.3566
25.7913
29.2392
-0.106535
56.7635
-0.40339
48.2949
20.8693
6.09856
60.4726
-1.92945
59.1504
-0.0818775
-10.4513
58.3976
48.4594
-0.643336
17.6128
-1.99471
29.1454
93.4152
20.8232
14.7828
11.3334
0.471255
-4.05521e-05
-4.33508
49.4469
-0.0309403
11.0873
49.6001
46.4637
44.1556
40.6812
12.7938
-0.118739
4.84618
-1.26733
13.1531
-0.245368
4.68535
6.90332
43.2857
27.4613
45.0759
57.9551
49.9883
58.2915
74.1935
26.2693
33.5891
37.2074
3.90022
59.685
44.3523
44.5526
-0.238722
27.4366
28.5121
-3.69232
0.499848
15.6141
-0.0783543
43.3796
-0.0745286
2.89209
4.81727
-0.110522
-1.54663
-0.729045
1.12529
-0.792686
26.9647
16.8199
43.4592
-0.120214
32.5585
17.3295
9.51514
58.0386
23.281
58.9382
20.4513
21.9608
-0.086555
45.3758
-0.785771
37.4557
19.0366
55.8012
15.6489
-0.613163
57.6818
0.0380335
49.8647
57.641
86.3559
11.2108
40.6033
-0.0105647
57.026
5.02552
50.4041
-2.44479
37.3091
30.6027
0.748122
56.728
0.496774
0.0393056
58.5551
60.5077
20.9605
11.2491
4.80283
47.0049
15.4685
0.143616
49.9556
31.0078
-0.000104838
26.0892
5.08084
43.3652
6.81721
23.1682
30.0919
4.66727
-0.0103546
-4.27582
20.9219
-0.0832556
40.7794
40.1993
23.1522
32.2718
25.9244
-1.24864
22.5319
16.876
-1.21463
35.5837
22.6346
40.5846
16.7181
14.1869
20.741
-2.80325
88.3189
23.1651
41.6498
88.7495
2.41993
23.7863
11.187
26.6309
26.437
58.8659
50.1515
58.9382
-0.0379545
1.77238
53.6797
33.7601
3.18921
2.49237
15.099
59.797
20.4151
49.528
21.6434
88.8895
-1.33905
22.1802
25.9811
51.3767
59.5887
28.2558
-0.0891588
0.986144
34.977
-0.521845
-0.238838
37.9677
24.4454
89.3582
58.8263
61.5471
-0.0721758
23.5294
20.6629
41.1874
20.937
93.4472
-0.254906
21.6621
18.016
13.0036
44.5573
-0.0327295
58.6528
22.7387
24.2426
21.5994
60.1218
30.9929
26.4551
48.8458
21.7858
30.4021
51.5107
1.3572
14.7537
22.3202
-4.40653
13.7875
28.8604
23.197
15.8194
-2.52097
7.21844
46.1502
50.1332
22.6525
69.4723
59.8873
-0.474656
49.4402
6.42181
52.4235
26.8238
34.285
29.1649
0.855028
22.9174
26.8748
93.6718
50.2615
-10.7871
22.0066
3.40614
40.8731
-2.40114
41.693
33.5541
-0.257044
33.9146
11.1705
28.9245
5.38994
16.236
28.3526
23.3578
13.6587
19.9138
22.5662
-2.4832
3.50619
34.6392
0.691756
23.7865
58.7688
48.5904
26.6927
-8.52846
29.4681
-0.0808399
37.0954
58.7295
0.082245
29.2652
0.0561459
48.0328
8.88771
33.1284
90.8368
21.8834
-1.05319
7.59813
19.1223
44.9341
28.2919
24.0684
-3.41476
23.8098
-0.732651
55.5359
52.8605
22.3783
7.07456
17.0965
59.7555
7.20895
4.65764
34.0992
37.6915
-0.241018
28.0596
55.9736
46.3853
36.4033
21.1562
47.3291
91.0309
37.6014
-0.497702
-0.0812334
0.0940539
0.00180091
60.0672
4.81922
41.6622
-0.246728
-0.0324091
1.63414
11.2895
46.0638
24.4588
12.3816
8.54281
9.72393
13.736
50.5653
27.8374
13.6234
56.8627
53.8568
26.708
2.40855
25.8594
24.1973
30.7816
-0.00101611
1.26251
33.3612
55.2809
18.735
59.1651
58.6327
37.027
-0.000849888
4.65986
18.2851
13.0432
-0.00465206
19.4233
47.5472
49.1379
-1.00776
43.3306
14.666
17.1216
0.46244
0.0370463
34.0704
27.2622
22.1812
18.6215
33.3118
23.7581
-0.386009
49.4867
74.2327
10.6485
25.1715
47.9317
56.9792
15.7862
29.3139
17.8387
1.08326
-2.78727
4.30327
11.0538
14.0727
25.0414
1.54102
51.8135
58.0532
-6.46205
32.3434
0.0399343
12.6883
40.4127
-5.91929
20.4134
-0.830207
9.84602
3.72444
-3.79206
13.4794
11.0347
14.6793
0.0990963
23.384
-0.00118462
89.559
0.761779
58.0571
53.1074
54.5823
32.7722
55.6562
46.2221
4.85618
8.04271
0.0406832
-0.254673
23.3389
7.54724
12.645
31.2624
0.744008
-0.415155
0.446327
3.72943
37.6016
30.849
14.2003
0.65088
19.4883
7.0889
-0.379981
56.8366
41.558
59.0887
0.109418
0.532616
8.38714
22.655
6.39476
21.9141
50.3408
52.8554
-5.11597
51.9089
7.08844
10.5352
59.5134
55.7523
22.9086
10.379
88.2174
-4.99428
0.110397
23.4482
72.6229
22.2754
74.9415
31.117
46.2516
-0.00400174
10.4537
32.4533
38.4531
56.9362
-0.00271115
-0.244231
7.33136
22.2674
-0.396734
0.111135
40.086
61.9137
33.4626
58.6895
13.6843
59.8724
50.7513
3.8796
19.5029
84.6219
18.969
14.6113
9.305
-1.48656
59.8665
21.8287
58.0529
28.3702
54.3742
13.4629
11.3352
12.6241
51.859
2.51566
6.28246
6.38996
-0.112505
30.3305
24.9727
0.918623
39.5482
-0.0256567
-0.0092264
8.15304
28.693
2.94137
13.5127
21.2746
5.9627
-0.0582542
59.5384
27.9166
24.1813
14.4419
24.2842
10.9072
0.0254439
-0.0025916
67.4375
84.8196
25.019
0.0233808
6.31336
46.1902
26.0938
36.5479
-0.234328
23.1385
25.9348
0.292936
-0.0799408
50.0213
7.17679
10.3436
23.2945
1.40843
49.1902
21.653
13.5174
12.1922
13.6583
40.8815
1.03935
0.0356731
15.2572
55.3376
60.0734
56.7182
30.6692
11.9813
57.7253
25.9361
0.866925
34.5759
11.4342
41.2279
9.20275
40.6997
4.68972
56.5989
2.03144
7.26024
13.2389
58.5272
0.829514
22.3943
21.8953
52.8273
22.9233
6.16299
20.1397
0.17734
-6.22156
5.96601
29.512
22.6597
9.65652
47.6666
58.1769
59.7768
55.6636
56.8413
33.1432
46.3473
26.1333
58.7876
59.1369
10.3117
4.85614
59.9835
0.0558363
-10.5126
30.4727
15.1261
7.17738
38.4864
-0.181956
8.17951
58.9547
60.4527
-0.439538
1.07904
38.7067
6.19031
-1.56871
55.9946
52.9904
-0.0681295
21.3467
22.248
2.25786
28.9025
45.9578
60.586
6.30125
-0.00343702
58.7713
28.8112
-0.444549
37.5317
20.8162
4.52233
-3.00624
-10.7703
7.21741
-0.233727
24.5504
1.10019
-0.354809
15.652
38.0233
-0.55181
21.1587
4.71708
23.0242
58.6343
0.0632996
57.8283
28.5641
59.8725
38.3068
-0.847144
-0.109494
-0.666849
6.35913
50.3634
13.8495
4.80594
58.5475
81.4853
82.1999
34.3061
38.69
59.4329
-0.769015
22.4423
15.2695
0.697224
29.162
4.68272
30.4201
19.6698
57.7384
51.5387
1.90199
15.9766
24.1377
43.5501
45.3189
26.5287
0.00124861
58.5918
6.41786
91.5068
13.0863
32.8045
20.0475
15.2797
16.4375
-1.38029
59.5928
18.6227
46.4829
73.1849
31.417
-0.0804596
21.673
21.5
22.1112
37.3503
23.3454
1.14431
17.3708
-1.49733
-0.0693579
13.7438
0.976628
60.6145
0.711663
58.1873
16.4779
30.8386
10.901
49.8462
14.5971
53.9907
-0.00443223
26.7197
7.8447
10.4427
21.1763
0.0470298
32.2017
52.4337
31.4581
0.86655
16.4043
50.2938
58.8388
8.83764
-0.640253
38.7959
0.545253
60.2298
26.0253
47.4709
55.3023
0.523665
26.7661
55.6603
-0.358725
41.1754
59.9698
-3.02634
17.3511
1.27428
20.9625
13.3366
-6.07771
57.516
18.7705
53.4624
57.4449
-3.61459
0.384502
58.2182
4.06572
6.77662
1.01682
53.6023
72.5826
59.6677
7.00806
1.95615
6.59718
20.3549
21.549
40.5654
36.4734
50.4046
-0.449412
17.9736
0.016972
7.54877
-0.00508527
-5.3694
22.8717
56.7276
-0.115691
59.8319
-0.78698
29.3429
-0.944481
73.5388
14.772
48.8233
-0.429534
24.5808
29.1547
12.8696
-0.082278
1.8209
-0.5759
20.7775
9.74831
-1.42452
51.198
0.35978
1.17327
22.948
-0.833119
57.6845
45.1757
8.51094
28.8692
23.5246
-0.0123621
19.5188
20.1353
1.16849
24.8906
7.02964
35.7104
6.08387
1.93298
28.7782
-0.0677434
5.55744
-0.74997
58.6466
-1.49474
0.525482
-0.447128
33.2591
44.1451
4.21186
2.23421
57.3991
59.5916
10.4646
50.2564
15.9408
68.841
0.397332
-0.0177695
55.5379
37.5629
0.377367
46.9179
-1.22704
-0.0441138
45.2152
21.0923
50.9026
76.3321
22.4883
-6.01123
6.56696
14.5294
55.8991
0.0261507
21.4119
44.2783
0.178522
16.4723
28.4677
53.2682
17.5328
16.6191
54.5555
38.1325
25.0998
17.7282
58.4219
43.3561
1.8888
22.0506
56.1931
-1.70821
-0.713303
19.4733
8.3722
12.6858
55.5673
-6.10481
-0.0423464
-11.0799
12.1999
20.8352
53.9942
16.7177
34.6714
1.63239
53.656
17.7592
45.124
18.5752
49.9336
46.6178
21.4767
49.371
57.2872
-0.744662
45.8041
61.4223
19.6373
3.07601
23.074
53.2832
29.9244
31.5128
58.4534
8.90614
4.67128
-2.58312
1.01825
43.3646
43.5307
1.14934
59.5635
58.0703
34.6045
-2.46938
39.8399
73.7954
21.868
58.0979
54.0844
1.48471
38.0473
73.1364
4.08253
49.4367
77.5691
-1.57714
46.4896
0.959941
54.1193
12.1076
51.4527
42.6626
-5.13669
59.6949
-1.43982
24.9285
18.211
-0.439786
18.195
18.1066
12.4076
22.6747
5.85962
2.82777
40.6516
14.3987
-0.719566
22.082
91.6343
56.4964
33.0431
49.8901
-3.68575
7.68911
56.5889
28.0691
-0.0795822
2.52034
22.9849
1.75257
18.4818
-2.36993
46.4202
-8.42772
37.2187
67.0247
50.5096
36.9523
7.55289
11.0032
-4.62746
53.2668
21.7327
0.000666693
-1.59748
-0.709157
53.8488
5.72423
-0.00853608
18.7314
15.7657
23.538
50.8343
49.5234
17.8155
22.53
7.16201
56.1426
20.5382
47.3064
5.90436
23.3553
24.6397
11.1837
-0.426948
1.01231
-0.074149
23.1914
-1.44119
14.7295
2.10152
50.5985
0.0304561
2.44471
0.206621
50.9146
17.5835
59.892
37.4641
50.0311
0.0758537
19.2594
59.8198
31.1175
17.8756
55.3688
-0.420698
8.37273
-9.83754
34.9647
0.0321822
29.6629
15.4763
22.3909
21.8507
59.9798
12.1487
-10.725
50.7528
11.7847
12.8475
7.41026
-0.0079643
-0.398857
-1.49037
39.5645
-0.839423
4.81703
15.2627
59.3217
56.4517
27.1665
0.515665
19.2218
38.547
18.9611
0.484778
16.7893
31.517
0.0835957
6.1556
38.0565
50.8041
14.3833
87.1392
58.2806
19.9198
0.723642
77.0279
35.1945
3.21465
0.129587
-9.76268
-2.48376
12.3776
-0.0863403
-3.62683
36.4769
51.2709
20.2357
21.9059
14.4248
-0.100459
51.3049
-0.731546
29.4693
52.3963
-0.212309
33.2265
8.45248
61.9066
55.4561
22.6208
60.5793
54.8121
18.5698
40.6319
0.506396
2.8171
85.5214
-2.44318
-0.433853
30.2696
-1.15049
-0.183896
12.7764
-0.538872
22.2922
20.7941
4.18633
-0.531795
-1.34331
4.12487
-0.122034
50.4262
38.8493
25.0998
-1.30145
76.9013
22.889
47.6966
13.4404
14.5379
53.8321
44.9783
35.6093
23.2387
4.35212
0.0925586
37.8257
59.4162
36.1718
-0.102422
-10.8709
0.500053
0.136442
51.3667
2.20669
51.6505
-1.39244
58.9523
25.8504
14.3614
26.9514
0.000630791
54.0361
-1.29103
6.49809
53.4315
59.9409
58.1668
2.03944
1.43383
50.8492
-0.0264785
41.8281
6.35458
58.8656
51.5404
15.625
16.5052
0.0970385
45.5337
19.2387
18.7137
20.596
15.9411
1.51322
29.0949
-3.65483
47.6468
50.7402
11.8794
53.9864
43.9162
-9.25173
-5.87268
37.8449
16.9845
53.8368
56.987
40.3899
14.3677
0.0191004
10.4208
21.5506
18.7742
24.9835
44.6835
58.616
5.37145
54.3014
0.0109035
24.5711
4.36923
57.2303
87.79
-0.20874
54.4452
-0.0441359
6.16665
-0.121846
-0.00294258
-0.00241725
57.2359
11.2939
22.5657
17.1508
-0.454831
59.6707
57.0039
12.0258
4.26005
-0.814318
-0.121935
2.53069
27.0058
37.084
53.6457
-5.83489
50.7794
17.8841
24.3143
33.8812
2.51785
52.9639
0.0613502
4.84898
2.57792
14.5648
-3.40226
57.1346
4.37974
0.00633167
17.5958
5.86647
58.0967
-0.0586969
4.47316
4.3693
22.0247
29.2177
20.1451
95.1751
47.3607
58.0197
-2.48221
4.76956
23.4391
-1.3813
49.892
19.2074
-4.15762
33.2271
-9.28625
2.86674
17.517
-0.402135
12.2904
58.6599
10.6086
39.6897
58.6557
58.5592
56.5261
-0.0202079
2.04576
0.0564278
39.6486
34.5821
54.451
13.6264
19.0069
51.4068
21.8884
27.7726
13.8504
34.382
20.054
0.036332
46.2655
-0.958553
55.3704
40.5015
38.3689
0.47714
4.71804
31.2465
-0.00798107
50.0974
8.23746
23.4073
29.6559
38.8629
59.9388
23.7488
50.8226
52.4146
27.9479
-1.44754
37.4451
53.8341
7.42564
40.1765
1.48162
29.4323
31.5099
11.7112
52.0368
0.547232
51.3179
58.8957
-0.0891667
4.58285
0.119867
48.1852
5.95004
24.6592
4.62327
29.5188
42.9432
7.6199
24.8181
5.84747
21.0277
13.4681
-0.0708486
1.75595
26.6101
71.9142
18.7334
-0.0452013
28.0987
-1.42747
6.95963
33.1192
56.0211
11.8692
26.5236
54.4722
12.6184
10.3939
25.8908
10.4933
10.4641
26.6017
47.8783
23.1866
-5.73675
-2.19779
27.8418
0.493649
-0.676787
0.116769
47.1945
-1.61884
2.89548
29.1307
-0.0156077
7.99694
-0.352158
57.0975
0.131387
5.78254
-0.248792
17.7498
55.9667
13.2888
19.9092
-0.0993552
-0.0619727
26.3768
7.71274
-0.434976
59.4519
23.0248
-2.22739
79.5427
6.34908
2.60891
18.4205
12.8749
-1.42714
53.4536
-0.531064
24.046
56.7215
-0.414418
25.4463
-0.799966
22.6027
50.814
34.0731
-5.95521
0.531159
12.38
15.6542
13.2786
29.164
5.11428
-1.22023
-0.249379
-0.518818
25.04
20.1905
48.4181
12.231
4.75097
53.453
49.8758
32.4635
-0.503899
22.1549
26.3291
37.1932
28.8091
19.1593
48.2689
48.0911
21.8024
27.8358
56.9929
22.9896
0.443233
82.103
90.3362
31.4883
15.333
16.4648
5.19515
39.7564
20.5278
59.5902
22.6055
59.4668
71.5535
-1.07367
15.566
7.45446
0.0476598
-0.0874439
56.5871
-0.163003
33.659
16.5174
26.4862
49.4162
-0.721885
27.3308
34.919
-0.383624
56.3794
21.9115
-1.2906
35.4764
49.4851
-0.00602914
38.4877
2.46583
49.6782
35.0381
71.3262
47.4552
-1.28724
-1.13192
51.7012
56.9754
56.9577
5.84248
26.1242
59.627
47.382
22.7245
-0.0110691
49.7496
26.3924
13.9245
19.2118
56.2329
18.065
5.24617
50.9933
-0.3905
25.7136
46.8375
57.7959
49.9132
49.7505
56.3953
47.9781
-0.527642
-0.948896
-1.32389
-1.42381
49.4248
45.2114
56.9927
30.3419
-5.93738
21.702
19.5087
3.35308
6.96066
-0.933643
66.0962
12.8996
37.2597
-0.0268612
0.0374862
4.6557
0.102279
4.90515
15.1418
31.5543
13.7316
9.53028
56.0242
71.9417
7.08231
-2.50792
5.28161
-1.40897
-0.409713
5.43264
15.6298
1.41146
6.87526
35.3508
-0.0957818
37.6808
28.754
13.9243
-0.604239
12.3232
37.452
19.2419
46.1297
32.8901
1.06552
32.5837
18.7014
-1.61223
-0.0243834
0.505507
8.80101
54.176
8.1524
4.45328
8.447
17.0081
-0.737148
59.5502
-1.13345
50.04
2.84762
-1.00275
0.470789
24.3196
83.4699
58.7378
56.4059
49.9522
2.57612
22.9742
-0.162644
-0.00333008
-1.06448
10.4097
56.3954
24.9953
60.9927
20.4229
56.0439
46.7518
17.2947
0.000458274
47.8885
53.9443
32.7739
-0.112413
-1.24091
3.8248
56.8387
53.8497
28.6026
32.6037
59.7282
5.30737
-0.110277
-0.0724707
37.4912
5.28083
45.5333
-0.0275856
28.8849
12.1075
0.137557
57.228
25.5827
45.7634
-1.8575
2.47359
39.2766
27.5693
46.454
14.4087
4.97834
52.8072
4.81809
29.7914
54.1967
56.8791
-1.50387
49.8423
-0.00229708
1.32329
52.6026
16.3855
38.0611
38.0724
6.37044
56.5033
30.8842
-0.0722108
86.816
6.65004
6.72392
-0.555082
-0.231248
65.5699
20.0781
5.31554
18.7015
9.8191
50.0572
58.4489
0.376043
-2.56685
-0.826842
24.3582
-0.601494
0.138595
-0.124831
56.6681
28.5612
6.82271
25.3528
37.2908
78.8101
58.1678
55.1925
57.5244
-0.0697335
-8.73891
36.8959
15.7846
21.3918
-1.64634
53.7581
6.40452
22.7668
4.00456
38.7696
77.9824
37.0368
-0.00136346
44.1257
-0.217763
0.037308
45.7367
-2.01719
22.5016
58.783
18.9215
5.38146
-2.14317
52.3277
57.9396
59.9414
58.824
67.3155
-2.5973
-1.20381
32.0531
21.9372
12.047
-0.284077
28.1088
9.95147
20.4672
8.30909
-0.0471295
26.058
31.5776
59.8752
50.6807
-0.056474
45.6282
4.0117
92.7525
83.184
16.8751
59.7149
-0.817051
64.488
38.2078
-0.709693
0.244182
38.2859
49.4803
19.8468
28.2102
42.9059
15.7863
-0.0167295
-0.0067746
42.121
29.1367
22.4813
-1.20557
53.4828
-0.281117
-0.00653989
-1.06364
10.4908
16.7223
-0.0816484
24.9939
46.5346
52.4917
2.17233
54.4859
7.15961
52.7565
-3.34908
24.8721
0.126108
38.165
41.928
38.9991
56.0193
55.4419
16.3192
23.5472
57.6514
-1.71058
56.5345
0.000351631
51.5432
44.6055
56.563
0.462271
-0.0890517
47.3569
56.273
49.5095
0.0409485
3.36937
45.3211
4.7504
-1.73669
39.1025
28.6749
23.9883
58.9159
-2.5384
31.4417
13.1173
40.518
-0.411575
57.1373
48.1521
42.4049
-1.07738
50.2533
21.5094
32.2939
42.5657
0.561668
23.1964
31.7236
27.6386
-2.26782
18.9574
15.6348
-0.0668021
18.7144
-3.8823
6.51961
21.9985
-2.23121
4.78899
35.35
0.159964
43.3165
83.7644
55.3616
-0.512598
52.0907
-0.118393
1.10329
16.2865
-0.193335
12.1985
8.03349
83.807
55.4866
22.6376
27.4256
39.7484
59.5851
-0.116526
19.1795
34.0259
37.2598
-0.0858052
59.1045
20.5718
33.8637
0.439676
15.3
-0.225732
55.1916
-2.44728
50.892
0.479703
84.2849
-1.58429
-0.0340608
59.4769
-0.253261
53.7378
55.3684
48.4563
-0.82499
53.4807
55.8537
59.0449
59.1289
56.9009
58.6668
-0.0865771
20.2345
54.2594
1.05394
46.5433
40.8983
-0.0516351
0.127742
48.2824
51.5109
41.2509
19.7179
46.9525
-0.555662
0.70119
21.8655
19.9388
22.1293
58.4572
59.6627
22.7818
58.9733
50.023
33.8625
58.9132
7.40182
57.387
12.2333
37.4929
7.41164
18.8379
16.8985
24.9766
-0.0839144
23.9148
-0.0980067
53.5632
53.8616
-7.82086
4.55817
24.8327
27.214
-0.242558
14.528
22.328
14.9095
23.7548
20.0826
-1.05677
13.6373
37.3201
0.403609
33.0569
-0.0984467
48.8793
5.05028
26.3464
0.395879
-2.7819
20.1702
14.9701
33.6189
4.68929
40.5774
22.3772
81.5079
-0.407535
34.8003
37.4093
21.4185
58.9185
1.25186
85.2052
21.1514
12.2996
27.0598
0.118231
11.8701
14.2298
-4.34904
-0.39826
-1.24351
47.7945
-0.00175945
0.476713
0.170066
-0.129318
-2.57171
58.1497
57.9044
-0.761668
29.7455
-0.129277
26.196
15.7451
-3.50054
35.9358
-2.20196
50.932
16.1195
5.42633
15.1712
-2.21523
29.749
-0.609925
59.6344
7.20449
50.8332
22.0938
-0.0921999
47.5748
-1.2728
20.2383
54.1201
4.89436
22.6402
61.1451
63.8115
23.4421
21.8178
37.0474
3.07825
41.4839
-0.203998
19.6394
4.29378
59.4251
28.9978
40.3777
36.1539
-6.05175
41.7614
31.7981
30.5944
52.4347
8.12799
23.4333
-5.63112
1.51854
-0.376891
26.8732
39.9372
-1.7428
21.6209
20.5088
4.85934
19.998
-0.652945
1.22011
-2.23337
-0.253382
70.3286
5.76848
51.0742
-0.00191439
-0.97877
0.124255
50.8975
-0.255753
42.0525
49.9721
53.2362
0.97049
17.2587
12.4856
8.57883
3.13011
38.7111
21.9944
22.1499
7.51676
-0.796091
49.6023
31.3621
24.5942
-1.43896
-0.762185
37.73
-0.431059
15.3411
37.3489
61.8772
56.8227
-4.18636
6.47369
16.7315
-0.413002
0.189336
22.4681
-0.00515819
19.4296
17.8156
-0.0536744
0.0445664
27.3945
27.3978
21.7572
37.1176
0.073989
39.1327
28.3123
23.9238
0.387828
48.6543
-0.762829
56.5794
-1.04593
24.3599
-0.0356123
15.8086
47.8817
13.4265
27.696
21.9525
0.286117
44.9695
6.27947
29.3855
21.3033
15.0424
46.4879
51.9067
28.9786
44.9566
2.78726
0.0789001
-0.487836
22.3537
-0.104941
6.70386
47.0856
60.9306
51.3515
-1.205
52.4139
12.3459
4.41958
29.915
41.5035
27.2033
0.0422168
43.1774
31.0414
26.7344
85.8583
90.0926
20.3646
-0.0655351
6.92571
3.8454
56.7434
23.8824
33.191
24.7103
49.9605
29.5714
52.4461
-0.219833
23.7562
12.2186
0.00825331
5.11356
41.0707
4.66463
85.5204
30.4102
37.4029
58.5587
0.870749
-0.00250595
0.0735954
21.8413
36.6694
22.4317
-3.66742
8.21469
3.50917
49.9822
-0.204211
31.2349
-1.22207
12.4907
11.8722
3.37062
51.0203
24.4498
15.3732
30.9877
54.865
21.156
57.4796
54.4135
45.1095
22.3903
15.0565
60.5599
30.6172
50.8703
22.6857
0.12147
-5.92318
-0.00502267
88.2918
-0.709092
1.41428
-6.04604
48.4509
-0.395527
-0.111183
45.7869
16.8831
0.00235596
-0.0296168
5.84671
2.66261
0.0829379
31.7646
12.7205
21.8606
39.4251
32.9568
26.601
43.5574
20.01
0.528995
-0.68937
59.1374
3.28463
23.4622
0.113558
21.7539
21.8185
0.66531
32.1231
21.637
15.7035
59.3482
-0.216928
17.0702
-1.1279
12.7574
-0.779191
-4.57656
56.0817
11.9683
-0.0126949
54.6027
3.60575
-0.858193
11.1539
5.34746
36.439
22.2349
-0.454992
-2.13743
36.5679
20.8225
0.0854017
16.9202
20.2117
34.5139
24.4388
26.9406
58.1182
15.4089
43.1545
50.0211
-0.788214
13.5287
58.9267
0.00141113
57.1647
27.0515
-0.00441073
52.507
55.46
1.11079
40.3753
61.3629
36.0639
4.38671
19.9181
-0.00501528
3.5627
44.8476
20.1655
22.6678
-2.19229
61.6121
3.64145
-0.39686
-0.424258
37.2215
61.6313
25.7816
-0.00349947
0.171215
9.72201
-2.03206
17.3586
52.5453
84.3615
18.0808
19.5712
16.5266
55.2132
0.0518776
38.6319
16.5921
47.3749
6.93217
41.5546
-2.22307
-1.11507
3.97358
-0.044916
-0.0804521
44.0445
1.64166
53.2237
-0.20304
37.6172
-0.265517
24.2712
17.6696
31.5994
86.0994
27.257
-0.0917389
47.6397
21.316
29.9516
47.0333
85.4897
22.8486
21.8112
-7.70527
48.1161
12.2257
47.5059
16.6356
22.6021
0.358758
52.0456
30.8905
-0.380248
-0.0694183
49.9235
-1.30859
41.6003
50.1892
12.3986
-0.182583
15.7181
58.7816
47.1984
4.59759
52.2827
50.7374
35.437
0.794694
-2.29862
31.9443
55.4576
21.7604
16.4869
-1.29107
0.106486
18.5614
35.8182
37.7113
50.1183
12.8494
10.421
22.3734
21.5838
26.6029
50.7289
31.3024
28.3084
7.37843
-0.0891812
30.122
21.6693
8.24132
-0.538776
49.9401
54.3877
50.3961
48.2177
23.0137
56.1619
-0.413007
54.1207
21.1206
15.0125
-0.109516
34.105
33.284
-1.28744
5.24479
57.6838
58.4238
7.38402
59.0018
55.5298
37.3039
20.2916
23.5694
-3.73409
52.1909
18.4249
-0.646722
-0.0158391
-0.667966
21.8921
1.91357
15.3439
23.7442
15.481
-1.35042
56.1139
27.4081
57.9931
52.9442
53.2447
28.2788
-0.0517223
39.0883
6.35951
1.47223
56.7396
48.8592
49.0818
51.1774
16.7051
34.7356
21.9167
0.0229501
47.9819
-0.726964
23.2327
16.1973
24.4082
-0.0283361
22.0418
46.8382
0.00041785
51.6239
42.473
-0.669781
-0.549013
-1.43281
56.5852
48.1462
-0.00903492
-1.56045
0.101884
-0.496667
8.06479
-1.53257
2.66906
2.7259
1.19176
1.32008
-0.691865
-0.664113
30.9629
-0.0489328
-0.0424035
29.0607
25.5499
30.6748
59.5723
28.8042
3.62377
3.60289
-0.00189523
12.2015
19.6707
16.9958
19.2059
-0.631663
58.2273
42.78
52.6974
22.8177
31.3111
20.8869
25.844
0.0377687
24.3799
15.6647
0.500666
24.5473
26.3808
-0.106901
55.9766
49.5859
0.275496
47.0385
44.6859
15.9912
16.1745
-0.110588
41.2158
19.5786
-0.00917377
41.8654
-0.10648
-1.32258
43.7924
83.9367
1.82118
12.0597
-0.0407562
23.5862
7.48038
53.1842
35.0548
0.115992
0.279699
5.85693
25.6102
1.89322
19.8869
1.67081
74.5797
48.9239
5.88698
-0.146792
-0.811671
24.4105
41.1113
60.1219
26.9731
58.0096
7.87437
58.0137
80.211
51.9861
59.9841
-3.07893
1.23005
23.6228
-0.107168
60.8121
56.4124
44.9487
63.0635
46.5194
48.084
55.8116
56.3995
56.5323
35.1263
14.1472
58.7456
68.1849
-1.73751
27.6008
31.7131
2.68123
22.5934
-0.496073
20.5508
24.0352
8.4952
26.0046
0.110894
36.8316
15.6823
28.0963
-0.0938143
0.73557
-0.231309
-0.0192112
51.0694
41.0699
11.777
-0.60934
26.8185
-0.086408
0.145809
1.26703
-0.572096
11.0525
77.9346
14.2678
49.2206
-2.16847
39.7182
37.0346
19.3211
7.32529
2.38619
31.4097
62.7221
-1.35872
-0.0147097
12.1534
21.576
21.5902
36.2551
8.45512
37.8648
52.6475
4.77832
5.94374
44.1567
0.704225
-1.3035
-0.13986
-0.00843531
-0.227881
32.8895
40.1174
59.8792
58.1476
-0.322477
-0.128023
-0.654912
23.5575
57.4876
44.2455
71.2674
42.7777
-0.223972
4.15569
24.8878
15.7932
23.6683
21.3048
29.2925
30.25
9.70848
49.0973
11.6725
1.09915
5.47371
39.7136
12.699
12.831
95.225
10.1532
59.5832
59.4117
50.509
59.0415
49.9771
25.756
1.65733
13.0058
51.2723
46.244
0.873022
-0.0690229
15.7384
17.0227
-1.08546
26.0219
19.3561
25.7892
59.9861
-1.28718
36.8265
27.1347
23.6432
48.6851
28.2129
16.304
30.098
19.564
29.087
3.70048
33.9238
-0.590706
25.2987
57.8166
25.1994
7.49326
0.799111
54.8937
18.5822
23.4504
19.0659
-0.0839983
59.0236
45.2242
28.4782
7.42443
15.8547
18.4393
1.17275
84.9057
24.1398
19.2982
12.0971
9.61979
0.103737
-0.340164
34.7656
-0.0744712
22.8247
27.0217
20.5941
-0.468135
2.53342
0.382959
9.92741
40.6412
23.7673
34.4349
23.4004
30.8507
3.70643
3.13564
54.8798
3.75417
-4.44561
54.273
3.20497
57.721
59.9981
-2.72489
50.7847
4.49456
23.2115
-3.17215
-2.44321
27.5936
60.7951
6.20027
26.9984
8.29752
54.1685
28.9358
13.5729
-0.647806
0.833375
58.2379
55.2969
23.4365
59.0731
-1.7824
58.8493
19.3905
9.59353
42.0387
40.0167
-0.276749
-1.37749
56.5074
19.906
-0.0844876
61.8319
49.0703
26.7794
31.5124
57.8765
61.541
11.9667
21.8679
0.807645
12.7691
14.2962
10.4102
25.1176
0.377755
3.94102
17.2577
37.8652
51.3071
29.5772
56.2451
61.9158
2.8729
13.3725
31.3573
3.57054
54.3741
5.50551
-1.45955
58.818
24.3261
71.7696
-0.992939
42.6089
24.1487
-0.0744744
13.8486
-0.274566
11.2973
57.0784
50.7556
57.8811
12.7104
32.5039
-0.553164
-0.12926
1.41694
56.6201
-10.366
13.4953
-0.268367
55.2527
40.7162
0.180791
12.9283
46.109
-1.39812
20.4195
-1.19251
9.99971
30.5558
56.0462
56.7771
52.9532
-0.414046
25.7614
5.76081
21.7246
-0.300767
15.9569
0.0858547
28.7995
0.52182
56.7832
22.5593
22.0723
48.3904
-0.245728
58.2349
-2.26132
56.4203
0.028021
61.328
16.6637
32.7374
32.4435
57.6599
52.0924
57.4109
54.6612
84.8102
40.0113
11.2555
23.6044
0.596157
59.8232
59.571
-0.572316
40.8155
33.5473
-0.50071
53.0223
37.9761
35.3607
-1.63897
-2.99426
30.4117
23.9165
30.9964
36.6271
8.60957
38.459
34.6031
39.142
38.9422
32.8603
11.8019
-0.622111
65.4728
36.8628
18.6241
-0.00218538
12.2228
60.0613
53.7183
19.8266
22.5601
40.4784
-0.266451
38.5958
39.8202
52.2147
40.496
24.1734
57.4268
3.61019
40.4741
56.3502
-1.307
5.82122
36.9135
-0.632107
-0.288808
23.4625
0.00508852
-2.59215
-0.582198
48.1282
36.9729
26.7516
-0.0339844
59.601
11.4245
0.0801485
59.1978
21.9989
37.9638
21.655
57.7494
0.602922
-0.0197158
-0.726784
60.0069
54.9194
18.7252
40.2846
51.4525
3.03688
35.1856
72.3809
51.6389
35.9448
26.015
17.6903
22.1871
56.4423
23.7358
-0.368471
34.7846
47.3158
59.8716
26.56
37.2996
50.1197
53.2868
-0.196909
21.7719
35.756
45.0695
0.105575
58.8217
38.1978
58.4093
-1.38879
57.2372
47.6884
-2.15746
23.7679
23.3415
48.5218
1.82971
4.51568
19.8146
53.7691
67.5777
7.32894
39.386
3.1582
4.38712
10.9602
71.7983
3.45482
17.6905
26.0245
14.8337
10.3181
2.81881
0.554256
2.20188
46.8748
16.4296
50.4793
0.0961534
23.1659
1.91432
18.8695
-0.248556
39.6304
0.112417
-0.0726327
44.5247
29.899
13.9489
51.7519
22.2235
59.2413
-0.00841995
13.4704
48.8107
10.8125
52.0609
5.7932
7.26105
6.16051
12.4392
39.8433
53.7635
25.0431
25.7608
25.8717
5.89499
10.3892
-0.0648167
-0.592858
19.1585
21.6003
15.7765
23.5119
-0.072347
56.2166
11.0934
-3.75074
22.9467
-0.357389
51.2431
31.8582
75.3711
24.0459
24.5643
59.1724
33.9241
36.8929
2.63797
49.2626
22.4656
-0.986509
58.3274
2.70422
7.59117
-1.44507
47.6637
8.65624
58.5998
16.7522
16.466
8.36627
50.6813
57.9063
19.0756
6.93453
-0.452931
21.0601
43.0103
-3.56777
23.562
29.0153
-0.0532351
59.3278
-3.79555
-1.53342
37.2892
39.5342
-0.847951
26.5139
0.130163
36.6715
43.1465
36.9792
6.27507
41.3414
26.8023
59.565
0.0899144
66.0941
18.9812
9.66698
9.09758
36.7542
21.8919
7.86021
-0.00795983
41.982
-0.0071903
28.6317
6.415
36.8298
57.842
39.0887
1.14337
44.287
53.6073
3.35988
12.9227
12.5233
25.4533
-0.00102564
39.0524
55.7891
15.3842
0.0454726
26.6995
4.7733
24.642
26.9033
36.5475
49.4491
28.9728
66.4501
42.5568
0.760553
8.79183
-2.3392
-0.672833
52.3452
31.5798
0.884557
79.7808
-3.45769
18.8478
0.531027
20.5243
45.7504
0.0420424
0.184546
11.0331
-2.62804
-2.81083
19.1664
29.5265
3.96207
48.9595
-3.32704
7.04874
44.109
22.945
-0.989259
5.17765
13.4348
18.5343
40.6689
6.97378
18.3648
58.1248
25.7646
94.3983
21.4516
-0.377356
2.08119
23.7939
58.9244
73.079
11.1115
-2.23272
32.8995
47.1071
6.65979
0.372794
0.0849225
55.6697
0.523219
38.2045
1.30201
76.243
0.833085
53.6405
-0.457156
-1.26354
-0.202715
19.192
7.0715
18.7435
2.74648
52.2082
33.7444
50.1995
55.268
55.7059
8.98971
51.9819
8.65281
18.3082
20.4406
14.2502
0.652954
-0.049859
58.4133
53.0084
-0.537966
29.5193
43.9801
-0.0290243
30.4368
-1.07084
39.4034
51.7865
48.539
31.0598
25.427
16.6426
16.5629
11.7154
1.29342
17.7823
16.6977
1.22955
9.1264
25.4047
-3.3447
80.5718
20.4696
-1.42034
49.9043
32.1167
56.3457
58.7553
13.5449
32.4212
4.68746
0.112506
60.5644
31.0811
42.358
16.4
47.449
62.4649
-0.111513
17.4816
20.8912
28.9598
-0.235943
51.6317
21.6248
41.6444
-0.00600294
34.7089
-0.458165
18.1436
26.3392
40.9836
11.185
0.953196
2.5443
47.4038
39.0882
-6.04448
-0.296249
22.0593
55.6235
44.4507
35.8069
43.8185
59.1661
21.7157
13.6223
28.4515
16.134
32.2714
59.6021
2.40929
86.0851
50.7548
0.916914
18.7438
51.8693
14.454
10.4218
2.04862
27.86
9.51998
23.634
10.9689
23.4113
26.6996
36.7267
54.4878
44.9465
-0.326027
47.9152
47.5991
41.839
13.3907
-1.42055
37.3005
54.0379
47.8813
-0.020029
25.8955
43.4735
44.4261
-3.28684
0.50401
23.5771
17.3185
-0.37506
-2.28768
15.1467
4.16164
15.7727
2.2819
-1.0887
29.4743
2.08719
52.939
-0.637678
-0.987432
27.1807
18.6664
20.8072
31.2145
2.60002
6.53762
21.7891
47.6119
23.2123
34.4127
58.6032
25.5611
3.80213
5.15174
41.4442
-0.793373
50.1188
28.3242
0.716895
22.8035
19.6627
31.0874
40.2448
60.0098
53.9541
-5.49848
37.2052
19.706
7.38521
6.05225
0.0808641
31.651
-3.09034
30.8894
0.254111
83.7558
26.8731
36.9664
51.104
87.665
0.170584
57.72
-1.48755
0.235023
27.0911
18.239
-0.651327
52.1473
84.3942
40.4337
7.59509
14.952
55.113
13.7322
87.8977
-0.0397303
-0.363753
38.0904
52.6757
15.9691
30.8582
54.9506
3.68606
-0.558471
84.3234
21.5516
-0.971952
-0.770574
54.2463
-1.3636
46.6116
-0.391394
26.7915
-1.27178
39.7983
8.06351
11.6776
10.052
38.5164
2.84105
22.0765
36.4883
-0.280648
16.923
48.7821
32.7347
37.6687
-0.0992291
47.672
6.01264
29.7404
55.9101
52.0369
-1.95483
54.8365
3.72064
-1.59063
-0.153148
16.8571
70.5977
53.4614
-2.16365
7.16233
38.0337
27.7604
59.5454
56.5538
51.9881
-0.105775
46.7578
19.1533
27.0427
3.3687
-5.07238
60.1439
2.2934
92.4016
59.7519
-0.0194466
47.6423
56.8536
22.7423
-6.02097
18.3634
32.3012
55.2594
21.2594
8.1938
59.4517
-0.456132
39.6375
47.5381
19.7946
11.0899
30.7908
33.7252
38.6655
40.7988
29.5428
40.2709
19.8965
-1.60283
42.4112
-0.133496
45.2377
6.94942
40.0742
31.2606
55.2661
0.513753
25.9682
20.0609
2.68441
69.2029
52.8034
0.220637
51.8613
27.2633
4.31592
5.66588
32.8096
1.63484
12.6823
22.7815
-0.391671
4.44706
25.9113
-5.52497
45.8701
0.00499371
34.5013
-0.305889
23.7589
48.3638
4.42978
55.0666
-0.633876
-0.000552567
21.9086
-0.685393
-0.439423
37.4168
59.5695
24.4019
6.63305
16.5225
19.6547
0.0143339
31.5597
-0.0381547
28.5473
25.8182
6.78396
-0.22893
-0.682891
-0.196892
59.3542
33.5853
23.9274
49.4757
-0.00918467
-1.24625
-0.017773
53.7598
29.1433
15.7054
22.7033
-2.29716
0.0910377
4.9752
5.6895
-0.0736399
53.9661
51.4396
47.8366
-7.6053
-0.722268
23.3539
56.1124
56.3884
0.183919
48.0762
53.5799
37.5747
2.71097
-3.92042
16.4955
60.2561
31.0532
18.839
21.2174
9.82204
44.7038
45.5284
27.1036
18.8413
48.1393
51.5134
20.1086
8.63671
19.39
44.0262
7.21672
0.877077
54.5726
54.9484
-0.461911
48.6993
68.6333
57.8644
49.8503
15.6311
45.7188
4.31219
2.75273
22.4414
30.9417
0.0243221
55.6888
51.1788
-1.04419
25.2684
9.98888
11.2923
-1.20966
42.577
87.0031
60.1852
-0.461373
59.8325
26.3031
0.102587
4.52787
53.2386
19.1721
54.2125
58.3862
14.9105
23.7764
27.5111
9.48987
81.0011
58.4926
37.3642