/*--------------------------------*- C++ -*----------------------------------*\
  =========                 |
  \\      /  F ield         | OpenFOAM: The Open Source CFD Toolbox
   \\    /   O peration     | Website:  https://openfoam.org
    \\  /    A nd           | Version:  7
     \\/     M anipulation  |
\*---------------------------------------------------------------------------*/
FoamFile
{
    version     2.0;
    format      ascii;
    class       volScalarField;
    location    "4";
    object      p;
}
// * * * * * * * * * * * * * * * * * * * * * * * * * * * * * * * * * * * * * //

dimensions      [0 2 -2 0 0 0 0];

internalField   nonuniform List<scalar> 
19930
(
-0.0149487
-0.0852721
0.103946
0.000139771
-0.000276013
-0.00222774
-0.134891
2.0007
-0.0603141
1.95017
-0.0780342
1.36161
-0.0828533
-0.0141198
-0.015443
0.000132296
0.530968
1.2859
-0.129807
-0.0821818
-0.038116
1.39072
1.95497
-0.0390396
0.0966143
3.23904
0.0334262
-0.0589966
0.023928
-0.125307
-0.00474947
3.83318
1.81714
-0.0421181
-0.000213496
-0.00458705
2.15705
-0.000328787
0.0511791
1.14035
0.174535
2.16684
2.66727
0.0297057
3.23927
-0.211969
1.77686
0.911373
-0.000841012
-0.114203
-0.000615357
0.386968
0.249037
0.000456788
0.241793
-0.181698
-0.087764
-0.0053386
0.00596275
0.555697
3.46814
-0.157613
-0.0409681
1.81712
-0.0021399
-0.018054
3.18327
-0.0201872
0.347036
3.18832
0.13355
0.411794
-0.0140295
-0.0749889
3.21678
0.170002
3.16581
-0.21347
1.12501
2.98408
-0.0147663
0.00696216
0.00396462
-0.0511428
-0.158266
2.68499
-0.0691767
4.13914
1.82543
3.38996
1.66375
0.000492846
2.21199e-05
4.06703
0.863235
-0.0385101
4.10676
-0.00296771
-0.0508931
2.17173
3.42457
-0.0884215
3.50248
0.300755
0.646511
0.265588
2.94224
0.374129
-0.12098
2.78648
0.015478
-0.143921
-0.0857556
0.129205
0.198039
2.036e-05
2.58425
-0.0129872
0.239937
2.94122
0.000438856
-0.0107769
1.26262
-0.00233073
-0.0420712
1.30073
1.61663
-0.0573677
3.88024
2.63761
-0.0798464
-0.11394
0.173681
0.0484296
2.97733
0.593954
1.06473
-0.030837
-0.0692701
-0.106272
-0.0290593
-0.0819935
0.364562
3.53881
0.795025
3.00062
1.85131
-0.113244
1.53489
0.0377723
-0.11506
3.16084
7.54211e-05
-0.046232
0.00681271
1.88121
2.73364
-0.0431175
-0.195003
-0.0883276
0.204561
-0.11128
-0.00542326
0.836586
0.944007
4.1077
-0.0835904
-0.0115981
0.150512
2.13459
1.03864
3.27605
2.63107
-0.0500086
4.31054
1.77737
-0.012985
3.4238
0.225995
2.87274
3.05463
-0.000251633
3.54834
2.61521
-0.0778918
-0.212972
0.137488
2.0898
0.275534
3.84284
1.61996
0.547458
2.22149
0.380525
-0.192505
1.27539
3.53408
0.769377
-0.0761637
3.88566
1.01054
0.329778
0.284922
3.77281
3.61854
-0.129384
-0.0209676
0.393816
-0.17924
-0.0070645
3.15947
3.38349
-0.115015
-0.163128
2.84337
3.21493
-0.0257063
2.94028
0.404796
0.0536002
-0.0261635
2.77606
3.63844
1.68599
2.76673
-0.0742061
-0.0126364
6.17406e-05
-0.0201783
-0.000101003
1.24376
0.193395
2.91263
-0.0971795
2.75444
-0.0626102
0.260868
3.24996
4.14945
2.74891
3.13771
-0.167319
2.19052
0.00458151
0.699908
-0.0133286
0.248386
0.558594
0.409994
-0.000744181
-0.118208
3.67746
1.29738
0.0469858
-0.129129
0.198721
-0.0951905
2.21353
-0.0986836
-0.206412
-0.0614484
-0.0365501
-0.00279998
-0.063801
-0.100627
3.53982
0.732887
-0.0791388
2.78467
3.60043
-0.0680226
0.00170813
-0.0530558
3.17815
0.139944
3.45277
5.82436e-06
-0.159588
2.74494
3.12915
0.0422071
-0.0815811
3.79243
0.403983
0.537809
3.46818
3.81935
-0.0744568
2.7661
0.928018
2.95537
2.44569
0.00172633
0.714741
2.18502
-0.0141123
-0.114603
0.840334
-0.0286761
0.990432
0.687357
0.000128703
-0.00226116
3.38863
8.71904e-05
-0.122139
-0.0836482
1.40439
-0.14125
2.86225
0.950625
-0.0703053
-0.219405
2.06707
1.3358
7.77671e-05
3.39548
2.65472
3.38141
0.280857
-0.00229094
3.77432
-0.0118788
-0.0534273
1.28607
0.789475
-0.0949386
0.36014
2.74955
4.04769
3.06555
1.10765
4.33806
0.000126097
-0.0441139
3.13574
0.116338
2.17599
-0.0677905
3.20776
0.886399
-0.000188446
0.864931
2.56848
0.065169
3.57669
2.54904
-0.00193214
0.140192
1.83433
1.35311
-0.0239183
2.61365
0.0153552
4.22852
-0.0373604
-0.116831
-0.110532
3.05294
2.5967
-0.15665
2.06172
3.38771
0.000277878
2.4487
2.66853
4.30612
-0.0100284
1.49207
0.526119
-0.189707
-0.00111852
3.24953
2.16265
0.682733
3.29174
1.16353
-0.092957
2.15003
0.959747
1.31574
4.22572
-0.00640351
1.19967
3.36942
-0.134346
0.804189
-0.0367535
1.7961
-0.146613
1.70951
0.710288
1.1663
0.00334515
1.79704
3.34757
2.49165
-0.00144679
-0.0312554
3.73788
3.79756
-0.0114289
-0.153051
2.93563
-0.117261
0.22745
2.21957
-0.114405
4.42275
0.062983
1.58956
-0.0349304
3.37101
2.5098
0.424568
0.239273
0.570916
1.03722
-0.00242656
2.94085
0.419471
1.88372
4.19313
0.289025
0.172985
-0.00148913
0.933492
0.723406
-0.0900073
2.34542
-0.000217928
-0.106909
0.0499551
0.435516
-0.0577833
-0.000806543
-0.0769125
1.23316
0.0346391
0.106874
-0.135536
0.864683
0.717554
-0.112214
-0.215558
0.00217353
0.346886
-0.110558
0.0428028
0.0606615
1.35205
2.46515
0.870656
-0.00206313
3.86097
0.043349
-0.000459517
0.161131
-0.141056
-0.0535623
3.5911
0.0478287
0.945149
-0.0852684
-0.0990427
2.18093
-0.0475416
-0.0891019
-0.104769
-0.0010431
0.333603
3.94635
-0.0757142
-0.154914
2.33942
-0.0906568
2.43433
1.52955
-0.0136679
-0.00660458
2.68152
4.13391
-0.105485
1.78354
1.18681
-0.131975
-0.133475
2.92702
0.583077
0.0276219
-0.0124989
-0.166478
0.272812
3.76118
1.13794
0.000272079
3.51338
0.0795877
-0.0526992
2.70109
0.0568511
-0.0373099
-0.00195537
0.446133
-0.12636
5.16323e-05
1.76096
0.164549
2.96147
-0.00262654
-0.000118662
-0.0960303
-1.37188e-06
-0.118154
0.0545574
-0.0021295
-0.0333148
-0.207942
2.67888
3.31676
-0.0118249
0.0100052
-0.103288
3.35049
0.000372873
3.38171
-0.0663582
4.2442
2.51527
1.62376
4.03626
0.463795
-0.0362555
0.525722
0.0155626
3.27995
2.91385
-0.110172
0.271456
0.710613
0.146436
-0.0357006
0.21914
5.36752e-05
2.70509
-0.215358
-0.0729487
-0.0269487
-0.0177523
1.60094
0.914104
-0.0216075
0.0623259
-0.000118705
4.25054
3.72228
-0.0189756
-0.100335
0.115504
2.90127
-0.207055
1.18472
-0.147736
3.10738
1.61634
-0.130065
4.3996
0.240828
3.02648
-0.0295719
-0.122945
3.56587
0.0291007
4.16095
2.81962
4.29422
-0.0340829
-0.055468
-0.00323955
0.605915
0.0515045
0.0122129
3.04656
3.13526
2.48753
3.31768
4.10108
1.82897
3.34528
2.49689
0.0136784
2.72263
-0.092758
-0.142061
-0.00449778
0.125439
0.0425333
2.07662
0.478573
2.98282
0.000466593
0.830083
2.86814
0.0196204
0.217753
-0.00010797
0.00106445
2.07389
-0.0768226
-0.121178
0.0012169
-0.000112679
0.664546
-0.0019326
0.845303
4.28297
1.83461
1.8577
-0.129371
2.86668
0.977397
0.00448522
-0.0981245
-0.00996415
-0.00209508
0.00538425
-0.0255524
-0.0862053
2.08001
0.585818
-0.210055
-5.59253e-05
3.1001
0.578447
0.361019
0.0367372
1.08009
0.108703
-0.209073
2.87477
3.9703
2.52174
-0.148572
2.5617
-0.140931
-0.0770477
1.95125
0.000265684
-0.0496611
1.51858
1.82647
-0.125836
2.85655
3.6071
2.79836
-0.147454
-0.210437
0.131451
0.989351
2.67042
-0.0170307
3.5312
-0.054698
-0.112328
0.564351
3.90458
2.08163
2.95074
0.0758483
4.18754
-0.120099
-0.0713098
4.35227
0.380777
-0.0572435
2.99264
3.11569
-0.100216
2.64115
3.34992
3.09554
2.79043
3.03746
2.49936
-0.052232
-0.116605
0.00839517
-0.110941
3.33912
-0.105803
1.37021
1.39763
-0.123268
0.868256
1.50376
3.41138
0.867535
-0.00189244
0.297133
-0.0829752
0.41409
0.392619
-0.114165
2.76502
3.45597
0.712007
3.38438
4.15494
-0.0186862
0.0113384
-0.0137679
-0.104581
2.24795
4.25873
1.16744
2.86125
-0.0737776
2.4387
2.49165
0.200217
-0.161355
-0.203845
1.35483
0.0200424
0.621044
-0.125138
-0.183379
2.9325
-0.03007
0.0525343
3.11259
0.843757
3.79972
-0.0323968
2.46649
0.382074
-0.0611177
3.51516
3.93377
3.33158
-0.0379269
3.91516
-0.138991
3.44516
0.425456
3.29733
-0.0902383
5.51788e-05
3.31216
3.46602
3.42874
3.32129
2.08205
0.83663
2.33989
-0.0581995
3.32771
2.84195
0.586456
0.49524
-0.0501703
0.471061
2.86512
-0.177089
-0.152728
3.42776
3.35139
-0.0740049
3.25359
-0.126346
1.06846
-0.0700073
3.4096
3.47253
4.17173
3.38754
-0.0162081
-0.0745726
-0.00508195
-0.0773359
3.78588
1.76316
2.79088
-0.180852
2.50627
0.128007
3.79513
0.16134
3.39974
-0.0641988
3.70206
3.87441
-0.0809101
1.13701
3.68667
-0.0167181
3.983
0.0996883
-0.02079
-0.165492
3.03955
1.50852
-0.0851204
3.24776
3.93373
2.48578
0.25658
-0.0577265
0.480761
3.33722
3.89305
4.28081
1.72559
-0.00134333
-0.161545
2.84339
0.00501372
-0.0585711
0.00794147
-0.0355377
0.0069304
0.121722
3.55543
0.0417054
-0.00378924
2.77295
1.65405
0.00284424
1.24576
0.00586876
1.48809
2.81609
3.28239
0.0751214
1.23774
-0.0265752
0.240608
-0.0181033
3.37202
3.57571
0.109416
0.059389
0.0170633
0.0223853
3.28116
0.0488221
0.0769775
-0.0616794
0.274704
4.07378
-0.0209199
0.756902
3.42428
-0.0373442
0.992529
0.0738699
-0.0290029
-0.017396
-0.00161416
4.04178
2.42357
0.0849915
0.586958
2.48369
3.21093
2.82252
0.348952
-0.0917352
-0.0481728
-0.076707
2.69339
-0.135493
-0.0439204
-0.000831248
-0.11032
-0.00849661
0.0234773
3.08095
-0.0438348
3.35168
3.27843
-0.140405
-0.0631312
4.13658
2.53715
0.634868
-0.0689689
2.43073
-0.0553237
2.23032
4.04755
2.12978
-0.124803
-0.074928
3.02959
-0.121126
-0.0763816
-0.0503625
3.63188
-0.0940635
0.55528
2.38101
1.86985
2.77038
0.0457587
2.04742
0.0190446
3.40588
-0.0714659
1.44436
-0.00640521
-0.0297614
-0.00424888
-0.0093108
0.00341544
3.63659
-0.0425461
2.40395
1.03417
0.178324
0.00576837
1.80702
4.21846
3.72269
0.116393
1.69555
0.0964899
0.911929
-0.14654
1.3797
-0.163642
0.00315669
2.66895
-0.0871657
0.0575121
3.60842
2.93094
3.42351
0.26557
0.434428
-0.0448884
1.77344
0.301913
0.000428917
3.73282
1.147
1.62781
0.633175
-0.000740078
-0.0235569
0.00621383
1.56134
0.000592431
-0.0500962
0.0477989
-0.0722105
3.8022
-3.11565e-05
-0.0677049
-0.196727
3.9897
0.0859455
-2.17118e-05
0.0576157
1.24275
2.71202
-0.0689243
-0.0569157
0.00885915
2.79409
-0.068864
1.69026
0.149733
0.0967179
0.998996
2.60521
0.905018
1.66734
-0.0192324
2.90712
3.91244
-0.0653009
2.28841
-0.0868605
3.995
3.85117
0.0147136
0.933555
0.837867
2.37886
-0.000167435
3.31935
4.31961
-0.0321944
1.37117
1.90445
0.00213516
0.00256335
-0.0814019
4.20022
-0.0142442
-0.0567485
3.31465
0.0107736
2.33011
3.41652
-0.087429
3.69352
-0.101509
-0.0629422
3.43427
1.74002
2.76727
-0.0207851
3.42363
1.55089
3.28563
-0.100005
-0.0129299
1.38569
3.71807
3.44611
3.74946
3.36177
0.442351
-0.157148
0.673828
2.51239
3.29782
3.93453
-0.11967
2.03651
4.07657
3.08809
0.00245014
-0.173941
-0.0918626
1.31933
0.23778
3.65904
1.81083
3.28741
1.03922
0.275533
3.3087
0.494332
2.59099
0.0740838
0.840432
-0.00848215
0.0570143
-0.0781482
3.95294
-0.0779896
-0.0836352
0.425094
1.57169
0.942434
-0.0878533
0.694544
0.173733
-0.0499477
2.66256
1.59023
2.90361
0.143124
3.47857
-0.0041325
0.00140512
-0.0213353
0.0832025
0.050157
0.0901581
0.0253961
1.95501
3.75448
1.43726
0.801179
0.0420631
-0.0767509
2.25008
0.0689729
4.02453
2.0034
0.0514925
-0.0931674
0.438634
0.108879
-0.0393963
0.0319415
0.306652
-0.0367946
1.91364
3.84736
3.52237
1.74059
-0.0276324
-0.107401
-0.0120586
-0.0328878
2.72903
-0.0673726
2.60579
-0.0127853
-0.0569142
3.77365
3.85204
0.00200788
3.33653
3.49385
1.26338
0.0738511
1.5076
2.71613
3.84488
2.27351
0.0497352
3.76457
0.89305
-0.0140409
-0.0379597
0.046847
3.9261
0.0927835
3.39298
2.05425
3.70189
0.201082
2.40728
2.41583
-0.00280567
3.45314
0.444268
3.6555
0.00228672
2.19177
2.61273
2.53777
0.00393292
0.612575
-0.0115219
-0.11479
2.1169
-0.0594161
2.39036
2.23145
4.17988
0.197629
3.67097
0.150235
0.133256
0.784379
3.3245
1.07972
0.482735
0.778091
2.84036
0.00890684
4.11973
0.0163846
0.370962
0.995671
-0.109442
3.38453
-0.0144071
3.5432
2.84724
1.27153
0.616172
1.4055
0.000466084
0.548203
3.60763
-0.0800101
0.364549
2.09703
0.917377
0.372148
0.636743
-0.0685205
3.83029
-0.0997182
0.764138
0.380076
-0.169205
3.27092
4.24402
-0.136949
-0.0825624
0.0368256
0.960141
0.00301612
1.23375
3.86604
3.7127
0.148686
1.45999
0.000201878
-0.144264
2.93339
0.0648771
1.76595
-0.106666
4.07602
2.83546
-0.0809151
0.0705116
-0.0269891
4.10871
-0.112991
-0.00627647
-0.106632
1.28776
-0.021972
-0.105407
1.15084
3.86547
-0.0882336
3.9904
4.28711
-0.0671113
0.338935
0.00182725
-0.0225361
0.173127
-0.0643201
4.08019
-0.0887156
-0.0333685
2.62807
-0.0844188
2.84825
-0.0523009
0.579966
2.75909
2.66196
-0.103359
-0.0289037
-0.0856938
3.13821
-0.111957
1.89237
-0.128847
-0.0396115
-0.137573
-0.000232213
-0.0163053
-0.0737632
-0.0479115
0.340367
0.0667543
1.15404
-0.0130282
-0.12384
-0.0598398
-0.0863128
0.0375648
3.79648
0.532306
-0.0570267
0.0383042
3.06531
-0.0127232
2.70158
0.327565
0.798207
-0.0619111
2.82917
1.91952
-0.157016
0.0096616
-0.01368
2.29282
-0.00019627
2.64648
3.07416
0.0415397
0.211128
1.21129
1.11157
-0.0239778
1.31169
2.90627
-0.0978188
2.53357
-0.152453
0.233401
2.44118
3.84561
0.48434
0.019248
3.26239
2.4023
-0.109339
-0.0885162
-0.106006
0.217308
-0.10731
-0.0422504
3.04593
-0.00301911
0.153762
3.01914
0.0943051
-0.096302
1.82356
-0.0264442
1.41962
2.6171
0.463654
2.55761
-0.0513194
3.75722
0.0305005
-0.000426976
-0.000471817
0.7066
0.00103423
-0.0629918
1.43503
0.154096
0.00943706
-0.0478276
-0.0693215
1.70721
3.39313
-0.00491819
-0.0774152
0.115827
2.42125
-0.110737
-0.0752649
-0.116584
0.805083
1.86938
-0.0215878
-0.0594585
0.329361
2.81764
2.98898
1.26476
2.67596
3.46399
0.00471383
2.47064
1.11809
0.500034
-0.100382
0.332028
4.35007
0.05431
0.0571738
-0.155299
2.76967
-0.0725077
-3.21759e-05
-0.135872
-0.155606
-0.0257641
3.40139
2.00618
2.46349
3.06691
2.69547
-0.102658
1.34795
2.21415
0.708592
3.31324
1.63998
2.04598
-8.64932e-05
2.22368
-0.0505999
1.57505
2.14651
-0.0804986
0.932787
0.895639
-0.0810785
-0.0488084
0.778506
1.50861
3.90953
1.58121
-9.13378e-05
2.01706
-0.081911
2.13522
1.73593
-0.0783628
-0.0934449
2.37381
3.3171
1.17558
-0.207803
-0.125437
1.62626
2.53543
-0.152141
2.99476
-0.11568
1.39704
0.404604
3.65963
-0.00449608
0.00893886
-0.0279637
-0.134037
0.297799
-0.115705
2.49663
2.99254
0.0488179
1.90449
0.0556847
-0.0841954
-4.37669e-05
1.70124
-0.00950111
1.89662
-0.000250366
2.5857
-0.191015
2.94267
0.310554
3.17627
-0.164607
-0.0662112
-0.00556093
3.35826
-0.128059
0.935978
1.32396
0.0695651
2.9074
-0.0679758
0.0566179
-0.14228
-0.0293048
3.42199
-0.0301799
-0.129123
-0.0918737
-0.00016195
-0.0975025
2.98092
0.00390614
-0.186793
0.00905881
-0.00984117
2.76021
0.327983
0.790284
0.0238454
0.00381166
-0.00908834
0.502632
-0.149843
0.00883816
-0.0740041
1.82035
0.000426969
-0.135148
0.468283
1.33978
3.24824
-0.1112
0.0337817
-0.204668
-0.0321784
2.62843
2.97491
3.46342
-0.000331363
1.5658
-0.141304
-0.140076
1.98365
-0.0820191
-0.0796984
-0.102473
-0.0296187
-0.110641
-0.101194
-0.0920774
0.0110092
0.15429
2.56772
0.0789345
2.00868
0.765098
0.545671
1.68099
1.19584
2.27982
0.295401
2.41195
0.00167533
-0.0331669
2.26216
-0.161352
2.72362
2.60413
-0.0867284
-0.182527
0.000820781
-0.15697
0.650487
-0.120533
-0.125956
-0.128609
-0.111049
-0.186416
-0.105598
-0.0930349
-0.0474902
-0.196201
2.28002
-0.174855
-0.021865
-0.195103
0.0144239
-0.197956
2.96681
2.88583
1.65914
3.57467
0.0433284
0.26971
-0.154505
0.0133076
-0.0187898
-0.00127321
-0.000123773
1.60829
1.15569
-0.00150976
0.0897761
1.03078
1.64186
-0.0872232
-0.129962
0.0499751
-0.0202347
0.00971859
-0.00126162
-0.19225
-0.0352364
3.80292
0.0169198
-0.0283051
-0.119399
-0.117478
-0.0983898
-0.151194
0.00312599
-0.0981747
-0.0810198
-0.180358
-0.0715647
1.00665
-0.103098
1.89325
-0.163093
-0.0231981
0.307345
2.70897
2.81568
2.19067
0.193293
0.107789
0.0494565
0.182145
-0.108892
0.154032
-0.173449
0.12912
-0.0596456
-0.00881378
-0.000280066
0.731853
-0.049293
-0.00601627
0.0332108
3.91542
-0.118554
-0.0330428
3.69744
3.82518
-0.140503
3.76536
3.55771
2.68518
0.00143383
0.169277
3.84789
-0.00787554
-0.00420637
0.0199026
-0.136023
-0.0582155
0.126931
-0.127522
-0.168699
-0.175585
0.00122519
-0.00236665
-0.0843768
-0.0611677
4.17063
-0.150975
-0.111189
4.18305
-0.0373879
4.02124
3.71297
2.57237
-0.120661
4.14902
0.924786
3.1308
0.164883
-0.000442176
0.00342547
0.0513635
0.56326
3.36314
-0.0196866
0.00190266
-0.143977
-0.00189143
0.0657507
1.62235
-0.00166652
2.6899
-0.0771232
-0.0318103
-0.144199
-0.126343
1.30009
-0.0393567
3.76092
0.00947426
3.4991
0.0592299
-0.147745
-0.000491893
-0.218628
-0.0191945
-0.203749
3.09809
3.30587
-0.000447369
3.80021
-0.129379
0.0040821
-0.0258949
3.52027
-0.0345037
-0.00720857
-0.00360041
0.00509547
0.00157433
-0.00179561
-0.00691873
3.88844
-0.00403931
-0.0225861
0.0438033
3.99274
4.3052
-0.0495759
-0.149132
2.74794
4.19573
-0.136886
-0.151
-0.000385329
0.255748
3.45983
2.70415
0.00394288
-0.12509
-0.156488
3.58066
-0.0967228
-0.0680305
-0.0758426
-0.0755528
0.00473192
2.87749
-0.00148819
3.64455
-0.0238059
3.92954
-0.00834501
3.70112
-0.115549
0.744743
-0.035808
-0.000273987
0.00511999
-0.0553978
-0.107426
-0.0282092
0.00247034
0.0137863
-0.0254267
-0.145412
0.00237354
-0.100439
-0.0956792
0.00890128
0.918471
-0.000611814
2.68888
-0.157678
-0.000380472
0.020963
-0.0480174
4.05424
-0.0874055
-0.061923
-0.0616184
-0.177563
-0.135722
2.54829
2.84893
0.0490209
-0.106588
0.171829
1.04006
3.62768
-0.189531
2.5404
2.97801
-0.00050597
-0.161488
-0.145257
0.00992815
-0.00768463
-0.00824302
0.00728996
-0.0574523
-0.0530795
0.0770802
-0.0618803
0.176045
1.6612
0.0424488
2.67142
1.10348
-0.105149
-0.000359702
0.00447822
3.3448
-0.00825725
-0.167263
-0.00697969
-0.184961
-0.0849196
2.15097
0.643878
3.87181
0.00148146
0.00337927
-0.175372
1.78439
0.0266664
3.6798
1.11873
-0.150715
-0.101341
-0.0612209
0.114856
2.51189
0.415509
3.4165
-0.194841
-0.00210256
-0.0162476
-0.0798231
0.000864132
-0.00484384
-0.0284272
-0.0715824
0.0670657
-0.174225
-0.00118772
-0.17625
-0.0479638
-4.1909e-05
-0.00156206
0.0264728
0.00356965
-0.00294553
-0.0195729
0.307178
0.00598877
0.613181
-0.0947509
2.74624
-0.153363
-0.0619531
-0.000315684
-0.0638015
-0.138879
0.0252008
-0.0495003
-0.000133868
-0.0442171
-0.00165585
-0.0288097
0.695591
1.13676
-0.116609
0.00141356
0.545593
0.0366202
2.90931
2.24356
2.67071
-0.0163816
-0.0349312
-0.0053135
-0.0518545
3.45865
2.58881
-0.0157467
-0.0141535
1.94633
2.60615
3.83358
0.000594147
-0.0271696
-0.06047
-0.000465466
0.000440715
-0.00126947
0.00546097
-0.0159529
2.73763
0.0118273
-2.52607e-05
0.0623442
0.00511453
0.660522
0.0382475
1.84823
0.006677
1.27484
-0.145857
-0.198697
1.41817
1.19648
0.0011366
1.46038
3.6248
-0.167615
2.82415
-0.205933
-0.0468881
3.05104
-0.00976714
2.52959
-0.0208355
0.194457
0.0202719
-0.0549494
-0.106018
0.00406511
-0.00252954
0.282267
-5.14521e-05
-0.0859962
-0.181091
3.68243
0.140552
0.0234699
2.68443
-0.00010902
0.00252426
0.101728
-0.00697621
3.58321
-0.0156828
0.0031913
-0.110171
1.04315
-0.0630042
0.00747602
-0.00261258
0.91412
0.0632294
0.00198201
3.275
3.97566
0.00679364
0.473837
-0.000949828
2.87748
-0.00405011
-0.0249954
-0.00118209
-4.83943e-05
0.0116527
0.0266715
0.006314
-0.0560337
-0.00598172
0.0771282
-0.00212629
-0.00301861
0.0718618
3.08812
3.23551
0.0889662
2.38424
0.768315
-0.000469513
2.63292
-0.0251372
0.0107674
0.027455
0.458529
-0.00303846
0.290564
-0.0116584
-0.0143332
1.45598
-0.114384
-0.0892627
1.22631
2.14691
1.21876
0.000105627
-1.6426e-05
-0.115627
1.74222
-0.0313199
-0.129898
-0.00361584
2.60515
0.213135
3.08574
2.09475
-0.105286
1.38529
-0.00747177
2.71732
0.643778
-0.150657
-0.00209056
0.00662624
-0.0993768
-0.115231
-0.0854701
-0.133872
1.15905
-0.065203
1.86436
0.000855132
0.0301122
-0.00632651
0.982312
0.255176
0.0257788
-0.000266587
0.224536
1.72326
-0.16179
0.196922
0.173448
0.808535
0.152766
-0.00369271
0.00362844
2.96192
3.17652
3.34435
0.00108881
3.20421
2.90909
3.21137
-0.0222076
-0.00328897
0.00153853
1.91766
2.3694
-0.0813827
-0.183959
-0.183581
-0.072326
0.869817
-0.102872
-0.0566409
2.49806
0.00917234
-0.0888976
-0.000930188
-0.118673
3.23703
-0.0851217
0.000129574
-5.50105e-05
3.50821
2.8432
0.574041
1.6652
-0.0954833
0.514859
-0.111411
0.455499
0.401865
0.360619
1.58814
-0.129743
1.09946
-0.000354421
3.13613
-0.0143119
-0.0254778
2.6865
0.165654
-0.0670475
-0.204281
0.487542
1.28983
0.0786473
-0.00192482
2.54667
0.00297801
-0.0740934
0.724435
-0.00254496
-0.0382125
0.00846357
-0.192962
-0.167322
0.648376
-0.00440935
0.577232
-0.0537983
0.513378
0.454294
-0.0713159
-0.119092
0.401709
-0.171664
-0.106906
-0.0916347
2.11346
-0.123493
-0.0545282
-0.0013127
-0.135386
-0.18192
-0.00160923
2.05427
3.02849
-0.161867
-0.130838
-0.0852171
-0.0626235
-0.00298084
-0.000656026
-0.023705
0.468469
-0.00213238
0.130854
-0.179447
-0.177183
0.00581346
-0.00175878
2.02885
-0.027232
1.01702
2.26643
0.0198517
-0.18798
-0.172015
-0.00142763
0.941994
-0.193657
-0.189345
0.865002
1.42155
-8.46274e-06
0.791756
1.58618
-0.00243631
1.18182
-0.0804037
0.108585
2.5264
-0.0331696
0.0010539
0.000296066
2.2823
0.175086
-0.0734968
-0.194406
-0.0944096
-0.0593373
-0.0461474
-0.163315
1.07753
3.40287
3.80169
2.75533
-0.00171969
2.02155
0.985147
-0.0978635
-0.199732
2.00183
-0.183929
0.126929
-0.00339172
-0.169812
2.51905
-0.000997986
-0.0727108
-0.0595028
0.271991
0.00377903
2.77371
-0.185777
2.69284
-0.121698
-0.151668
0.0688409
-0.00663164
2.43919
-0.0797347
-0.0575544
-0.000195604
0.0966072
0.352803
1.33589
-0.0546038
-1.06043e-05
1.47556
-0.000262346
1.88759
1.25176
0.00247457
1.9326
-0.0775502
-0.00143271
-0.0734789
-0.00359015
0.00503889
0.0143814
2.18905
-0.0943197
0.00636094
-0.0850711
-0.0911751
2.34512
3.20765
0.00193776
-0.0626085
-0.0406171
-0.0614994
2.40626
0.179874
0.00312688
1.77435
1.2573
2.75735
-0.0403844
0.00489189
1.96756
0.00422987
-0.198827
0.191596
3.48905
-0.0640131
-0.0844253
0.0039622
-0.0347089
3.46257
-0.163093
3.9281
1.36525
-0.0587881
-0.00524373
-0.0625593
0.0540806
0.00106592
-0.0700455
3.40065
2.85137e-05
-0.0307598
3.44262
-0.00291025
-0.06692
0.00124277
-0.0108861
0.00122321
0.433447
0.0348298
-0.0110619
-0.021315
-0.00501962
0.000690403
0.000768402
-0.000986777
-0.0461956
0.000916455
-0.00735497
0.107941
-0.0446115
3.89611
0.49554
-0.0119464
-0.0326983
4.84589e-05
-0.0832845
0.000638691
1.04756
2.61176
-0.0135716
-0.0111325
-0.021504
0.820382
0.0105579
4.10577
0.0121945
-0.0101199
1.9024
0.0839562
0.000853145
-0.134743
2.66369
-0.00436992
2.52553
2.71282
-0.0983618
-0.132507
3.13578
-0.0823278
-0.0134685
-0.166685
2.009
1.06015
-0.107659
-0.00233083
3.29424
-0.00624142
0.157629
-0.0363179
-0.0178089
3.7014
0.00533429
0.000333792
-0.123416
1.66848
3.95862
2.63628
4.2508
-0.0308772
3.66693
-0.00315892
2.14191
-0.0228677
-0.00588797
1.39844
-0.0623875
0.989362
0.000309386
-0.19221
3.9914
-0.0748051
0.307844
0.0116678
-0.0086562
1.42857
0.0150616
-0.15642
0.000778315
-0.041617
-0.00139198
4.1052
-0.101185
-0.145785
0.793605
0.114796
1.32651
2.47052
0.00145288
0.243075
1.6085
2.83235
4.14602
-0.000226554
0.186698
0.136395
-0.0117147
1.76492
1.93769
0.158246
3.50449
1.11151
1.52035
-0.0812707
2.53613
-0.187895
0.000791867
0.000405831
0.000704597
-0.00320552
0.00838482
-0.135959
0.000360204
0.00566383
0.0590279
-0.000942575
1.87284
0.0148525
-0.000175961
3.94437
0.0024824
-0.00138807
3.20812
4.12849
-0.20175
-0.0239349
3.11023
-0.0531709
3.67631
0.697667
-0.00258572
-0.103619
-0.014208
0.0175409
0.00434958
2.598
2.74276e-05
0.00168039
3.4765
-0.0039504
0.0143012
-0.0692046
-0.130504
-0.170078
0.000862924
0.847878
-0.188137
0.000817299
-0.152018
-0.0121328
2.02678
-0.000890452
-0.000901904
-0.0112375
3.42519
-0.0519955
-0.0313746
-0.0088259
0.0133918
3.27767
0.0851082
1.19486
3.11226
-0.00556303
3.72346
2.97833
-0.0589476
-0.102002
0.00230848
-0.114933
3.66849
0.0214175
-0.00478789
0.000511826
-0.186871
-0.0381833
-0.00571377
0.00150423
3.71838
0.000368466
2.76871
-0.0339067
-0.115778
0.000610535
0.0309249
0.00338165
3.20145
3.26294
1.33806
-0.00474322
-0.174323
-0.0521
1.31214
1.01868
1.82781
-0.131725
-0.0642944
-0.227716
-0.00283544
-0.00401532
-0.00675331
-0.00760593
-0.00545645
-0.00641513
-0.0129906
-0.0345354
-0.202069
-0.0122263
-0.015121
-0.199507
-0.0020373
-0.00890962
9.8321e-05
4.39027
0.895528
-0.0113467
0.0262229
-0.0101778
6.17657e-05
-0.00240938
-0.0198841
-0.0172439
-0.162389
0.000330273
-0.226536
-0.00351975
-0.0079384
0.000616602
-0.173234
-0.10315
-0.0226269
3.37658
-0.0132742
2.6983
-0.132357
3.53907
-0.227424
-0.226127
-0.224267
-0.220966
-0.216853
-0.213407
-0.207932
-0.00171741
-0.202756
-0.195853
3.23253
-0.18357
0.218008
-0.159321
-0.00285973
-0.0170381
-0.0941931
0.000532247
-0.0141731
-0.000714596
-0.0117728
0.41312
-0.00932097
1.58138
2.86025
-0.0472384
0.0112211
-0.193239
0.0315718
-0.028761
-0.0416322
-0.152149
-0.0020016
4.00625
-0.0903502
-0.0909684
-0.0160072
-0.0108658
-0.025329
-0.0201023
-0.229306
-0.0325296
-0.013154
-0.0790073
0.692954
0.000352562
-0.00142487
-0.0175133
0.195508
-0.015212
-0.0229745
-0.017526
0.000597117
0.00182629
0.00258645
0.00194357
-0.0113184
-0.0261902
-0.02709
3.17893
-0.00605959
-0.0201543
-0.0124732
0.00715217
0.00118597
0.00172882
2.08832
-0.0193486
2.93357
-0.0336162
-0.00716417
0.000526595
2.61937
0.037837
0.00180756
-0.00116073
-0.00109718
-0.065272
-0.0297312
0.642718
-0.00113247
-0.00738695
-0.00509753
-0.0147675
-0.00844378
-0.0378801
0.0143358
-0.0736409
3.11755
-0.175425
-0.0752317
-0.00357623
-0.000848904
-0.176229
0.000165988
0.117339
-0.0334881
-0.0375018
0.00294118
-0.0296922
-0.0534338
-0.0995036
-0.00425198
0.000494324
-0.123182
-0.00350792
-0.042659
-0.0464769
-0.0419407
-0.000742521
3.70682
-0.00288902
4.2697
-0.0499312
-0.0515866
0.0552957
0.000371542
0.000138307
0.426042
0.00196462
0.0985768
-0.00195885
0.489972
-0.0478041
-0.00126672
-0.000823018
0.0203482
3.65198
-0.00166349
-0.0929195
0.0457097
3.08469
-0.122923
-0.0537115
0.000225143
0.265945
-0.0764383
-0.0570303
0.0261184
0.0014485
0.0721943
3.94835
-0.0559569
0.00643656
-0.0661289
-0.00114608
2.73749
3.06703
-0.000565441
-0.0129998
2.25967
-0.00139684
-0.036588
-0.000895641
-0.00230573
-0.0663094
-0.143009
0.0062335
0.326074
-0.00381322
-0.000298275
-0.00114866
0.0132761
0.0184678
1.96944
-0.0768666
-0.000722994
2.92417
0.011913
-0.00815875
-0.176953
-0.0569291
-0.00447769
-0.00100289
0.0608775
-0.0115774
-0.0567723
-0.000145232
-0.00330715
1.95833
-0.0399147
2.25434
3.49259
0.0389621
0.0185109
-0.129416
-0.0438911
3.92348
0.0799769
-0.0151586
0.000259182
2.69008
3.75887
1.78029
0.692713
-0.163624
-0.000608021
-0.181659
-0.00278293
0.00591822
-0.0839285
2.56382
-0.104675
-0.0013425
0.0142446
-0.00513873
0.867466
2.63069
-0.0091447
-0.176539
-0.00606785
-0.00793019
-0.0098232
3.67687
0.0219122
-0.00605366
-0.00296613
-0.0288995
-0.101517
0.870285
-0.0263621
0.0119662
-0.023328
-0.00118908
0.0794808
2.44992
-0.222829
-0.00880395
0.0953828
2.65188
-0.00726346
1.09671
3.14066
0.00507096
0.000104356
1.14948
2.30675
1.35141
1.96481
-0.145021
-0.00997544
0.00219685
2.53639
-0.14263
0.0116558
-0.112922
-0.0633747
0.0274647
-0.162866
-0.00840884
0.00232132
2.41502
0.0174057
-0.172179
3.25198
-0.0943415
3.07331
-7.9323e-05
-0.167969
2.92676
3.96603
0.102789
-0.0227435
-0.0571066
-0.0054432
-0.0103006
2.96041
0.0735337
-0.127515
-0.00944724
-0.00645119
-0.0109611
0.0212293
-0.00379711
2.16531
-0.00312121
0.0906881
-0.0135751
-0.0309336
-0.00512942
1.59847
2.63708
-0.222973
-0.221624
-0.219452
-0.00456711
0.0281422
-0.00254581
-0.21489
-0.211766
1.7598
2.7871
-0.20734
1.64977
-0.0869414
0.045369
-0.077923
-0.202063
1.91692
1.47267
-0.196309
-0.051427
2.86579
2.10114
-0.0112189
0.000654377
-0.0094622
3.63414
-0.00207755
0.000497571
-0.0154894
-0.0120134
-0.00761315
0.014317
-0.0139142
0.0686584
1.13428
-0.0730538
0.000464508
-0.139101
-0.137019
-0.0896087
-0.132558
-0.224894
-0.0103101
-0.0190155
-0.0177075
-0.020471
2.83305
-0.0161253
-0.0203335
0.286183
0.000250336
3.54252
2.71193
-0.130246
-0.0184496
-0.00276031
-0.0211114
-0.0007489
2.76311
0.568144
-0.00650822
0.252609
-0.0013713
0.222566
-0.00724008
0.196103
0.17271
3.30891
-0.0875561
-0.00153584
-0.0131782
0.0258988
1.7168
2.32565
-0.177644
2.47973
3.7367
0.000584794
-0.0550407
2.38978
-0.0241133
0.625256
3.5602
2.31503
-0.0665967
2.39153
-0.0229555
-0.0475411
-0.00843813
-0.00990391
-0.177356
-0.000243489
0.560536
0.501353
0.446794
0.395461
-0.0893479
0.781659
0.002778
-0.0144478
1.70402
-0.0553876
-0.000733646
-0.0154133
-0.0274071
-0.164754
-0.000925302
-0.0728719
0.184353
4.23121
0.701812
2.81133
0.937695
4.46279
0.62842
0.560195
3.39595
3.49863
-0.0806786
1.62872
-0.000924421
0.416406
0.498541
-0.0310353
0.442156
0.0706826
-0.127268
-0.0158482
-0.0257114
-0.0350601
0.00940879
-0.0291673
2.5672
0.0798606
0.0367669
0.0064811
-0.152432
0.0303458
3.16795
-0.00387854
2.44691
-0.0563845
-0.108458
1.06981
1.24619
-0.0938354
-0.217909
0.0177864
2.73117
2.05661
1.87691
0.139717
0.0039169
0.990971
0.916169
0.0156869
-0.00176504
-0.0089612
-0.0353815
0.841826
0.0150348
1.44609
-0.0394494
2.99982
2.71991
-0.00800349
2.78424
-0.000667448
3.44816
3.27242
-0.0201915
1.14191
-0.183117
0.0314531
4.44528
0.0165255
-0.0693997
0.803486
-0.000664964
-0.0393711
2.28917
2.7936
-0.0369189
-0.12093
1.04455
-0.00968944
1.94555
2.38843
-0.0438743
0.319322
-0.0062401
-0.0488911
0.00134536
0.00193883
-0.011605
-0.0328456
0.214525
-0.0444116
1.02104
-0.0035292
-0.07279
0.157032
1.53993
-0.210476
0.0230589
2.29871
0.0139995
-0.00011488
-0.0179879
-0.0174823
-0.171753
-0.0739406
-0.0496436
0.0170621
1.8352
1.38753
0.72161
-0.0628393
2.86329
-0.0538424
-0.0462918
1.58795
4.43962
2.80799
0.0243092
-0.140048
0.0533358
-0.0970643
-0.0726242
1.30486
4.38058
-0.0647695
-0.118265
1.26792
-0.000613078
-0.0458613
0.00197214
-0.0263097
3.1017
1.77679
0.000535995
2.763
-0.146981
-0.00476586
-0.106629
-0.0351745
-0.00198418
-0.0348488
-0.0925304
-0.0337301
1.84574
4.24803
2.99853
0.127841
0.305487
4.302
3.24229
4.2123
0.00142628
-0.0801314
-0.033208
4.36854
4.14813
1.06775
2.23394
0.10844
4.08255
0.361832
0.0144926
0.820598
4.00982
-0.0433537
-0.0625656
1.97241
3.94441
2.79785
1.92612
0.493656
3.87014
-0.00505606
-0.19298
3.84461
0.00235059
-0.0514191
0.10623
3.79653
-0.0108277
2.88953
3.72307
-0.000123573
0.374846
-0.0420642
-0.00917313
0.0188233
2.7587
3.61603
0.546191
2.64665
1.54627
-0.168532
-0.000900937
-0.00118709
-0.0984871
0.000165865
1.97192
0.033582
-0.0262766
-0.0924413
0.69327
-0.0150572
-0.150137