/*--------------------------------*- C++ -*----------------------------------*\
  =========                 |
  \\      /  F ield         | OpenFOAM: The Open Source CFD Toolbox
   \\    /   O peration     | Website:  https://openfoam.org
    \\  /    A nd           | Version:  7
     \\/     M anipulation  |
\*---------------------------------------------------------------------------*/
FoamFile
{
    version     2.0;
    format      ascii;
    class       surfaceScalarField;
    location    "4";
    object      phi;
}
// * * * * * * * * * * * * * * * * * * * * * * * * * * * * * * * * * * * * * //

dimensions      [0 3 -1 0 0 0 0];

internalField   nonuniform List<scalar> 
29574
(
587.574
-435.169
-152.405
269.76
42.8434
-312.604
937.823
-1125.15
187.323
-395.236
994.375
-599.139
-634.272
670.399
-36.1272
-687.414
53.1422
204.849
-25.9445
-178.904
607.684
-457.635
-150.049
217.135
-288.295
71.1595
96.7047
510.979
-67.1152
245.496
-178.381
-268.579
270.647
-2.06832
-238.452
-14.5413
252.993
34.517
553.057
622.379
-650.976
28.5976
-965.157
569.921
-287.956
327.806
-39.8499
-85.6425
-978.943
1064.59
-250.969
233.642
17.3273
304.048
-34.2875
-293.549
292.797
0.751492
-28.2814
-240.297
-459.136
555.841
259.168
-300.723
41.5558
937.823
-362.062
82.8827
279.179
888.572
-973.166
84.5941
341.369
-152.571
-188.798
-157.897
-88.7127
246.61
-100.463
-150.506
-592.241
741.159
-148.917
342.084
-286.509
-55.5749
376.921
-87.8863
-289.035
556.881
-290.211
-266.67
-717.495
780.438
-62.9433
-731.556
139.315
135.304
-362.742
227.438
932.204
-932.204
782.489
-348.238
-434.251
264.061
425.04
-689.101
4.23554
786.648
-790.883
-296.244
101.824
194.42
-873.913
702.033
171.88
971.286
-82.714
-125.094
-236.968
115.252
71.9145
-187.166
1093.27
-470.958
-622.311
315.05
-228.442
-86.608
842.894
-30.4325
-812.461
239.113
-233.398
-5.71516
-787.864
70.3695
47.5267
-737.054
689.527
-263.372
-131.565
394.936
762.653
-836.27
73.6175
151.103
-360.501
209.398
16.7613
-214.108
197.346
385.291
-114.957
-270.333
694.72
-751.886
57.1664
-49.7629
-300.264
350.026
-75.0026
-212.954
-655.581
417.527
238.054
-50.0814
244.548
-194.467
481.488
-484.013
2.52566
-204.495
-337.666
542.161
-697.532
828.013
-130.481
-717.587
109.305
608.283
526.721
-575.926
49.2044
-651.528
-66.0593
-151.216
-354.352
505.567
-133.981
-82.3654
216.346
364.954
-546.25
181.295
305.49
-213.854
-91.6362
676.015
-53.6363
-277.131
-31.0255
308.157
1063.57
-577.127
-486.44
-61.48
451.974
-390.494
337.792
-132.206
-205.586
-226.754
15.5327
211.222
885.613
-621.552
577.888
-835.015
257.127
634.62
-525.315
817.068
-195.669
-621.398
273.178
-81.9772
-191.201
294.754
-77.6187
133.492
-183.573
-603.914
-270
243.246
-282.021
38.7753
-45.1509
151.666
-106.515
-641.331
436.836
138.573
-309.298
170.724
-418.773
685.112
-266.339
739.002
148.756
-887.758
904.55
-130.262
-774.288
167.406
-275.871
108.465
188.421
126.629
425.371
56.1171
241.875
-74.4691
-779.108
790.447
-11.339
-307.915
240.8
989.24
-896.613
-92.6269
283.91
-145.337
409.932
-420.478
10.5457
174.99
120.447
-295.437
433.281
-182.786
-250.495
1186.15
-1186.15
463.819
21.4086
-485.227
-36.2191
260.213
-223.994
-452.757
220.051
232.706
263.541
8.92954
-272.47
-266.773
-81.3397
348.112
32.5583
-190.455
181.629
23.2197
400.472
-114.368
-286.103
-254.429
-401.955
656.384
-547.279
485.799
-568.599
-431.499
-379.721
-174.951
554.672
576.807
57.8122
-287.571
-9.36426
296.935
-1030.72
247.647
783.072
-170.775
909.777
41.0605
261.567
-302.628
359.06
-592.77
233.71
241.703
-361.997
120.294
126.774
430.107
753.767
-839.409
11.7713
208.704
-220.475
178.451
162.918
247.095
94.9887
136.19
-515.911
-22.1143
-156.271
178.385
16.9666
222.146
845.1
-840.864
293.834
488.656
136.091
-357.915
221.824
252.418
933.736
279.337
-67.9438
-211.393
-280.08
-13.4689
-410.09
37.2231
372.867
110.384
58.3812
-168.765
283.513
-242.452
26.5586
-303.69
172.249
133.241
-302.948
208.676
94.2724
-537.157
83.756
453.401
-107.668
243.759
-279.705
77.7915
201.914
-96.0768
-225.313
321.39
8.51979
286.92
-295.439
-761.023
-212.144
128.412
-224.489
203.811
971.74
-67.1901
-235.588
-42.2901
277.879
152.117
664.95
-264.983
-14.722
-744.776
140.863
86.5126
172.655
71.5668
-163.635
92.0685
-15.828
-222.624
-168.472
319.575
-225.008
199.064
-36.8365
-382.523
-154.634
-190.39
-646.277
836.667
-158.98
113.829
348.484
61.4485
260.574
12.6039
429.819
22.1547
-344.666
479.97
330.541
-51.2039
-188.874
-131.854
320.729
-7.53312
-201.129
208.662
403.768
-442.883
39.1148
97.6297
93.3257
-190.955
46.348
330.573
-571.822
509.321
62.5018
-533.189
-33.3265
566.515
-434.311
-112.968
-25.3102
225.162
-199.852
39.4542
-213.288
173.834
735.455
196.75
340.569
55.6797
-396.249
-87.4693
213.713
-126.244
266.054
37.9934
231.358
-126.406
-104.952
577.798
-212.844
25.0428
964.197
145.71
230.806
114.18
-344.986
272.009
-260.238
234.598
-367.536
132.937
66.4917
-963.105
-566.117
414.901
222.746
-151.179
-41.3937
287.977
-246.583
79.3075
261.262
-47.7054
297.321
-249.616
323.929
-57.8744
1.74111
229.065
243.469
-370.298
126.829
-79.4214
303.667
-224.246
-446.157
167.511
-352.994
185.482
265.125
-394.601
129.476
-318.828
288.282
30.5454
-2.10012
-331.484
333.584
755.009
-707.482
202.27
-185.509
619.347
-634.649
15.302
418.425
108.297
-854.602
520.102
334.5
-40.5764
308.331
-267.755
-90.8649
-151.55
242.415
-292.083
559.064
504.503
513.008
-513.008
-535.66
-495.059
-241.401
-211.356
895.605
-601.772
8.15715
259.477
-267.634
-181.288
-255.561
436.849
88.6645
151.652
-240.317
498.248
-917.021
-340.784
259.444
-13.684
-396.406
355.438
-357.539
-1068.65
500.047
-484.555
484.555
-642.676
-4.50905
647.186
621.17
-262.11
292.475
113.354
-405.829
-326.302
290.083
-220.953
199.782
21.1705
-530.313
829.429
-299.116
306.276
-63.0302
542.655
-78.8367
-420.139
231.265
175.531
66.3433
-648.593
467.305
228.256
-360.463
87.4315
-178.296
242.152
113.264
-355.417
351.081
-109.378
-948.513
-237.642
623.769
-46.9614
-68.4815
258.318
-189.836
520.398
-439.608
-80.7905
-68.8041
744.493
-675.689
-53.2062
896.1
261.971
1.56914
-101.475
190.14
-86.0854
531.929
-445.843
-540.452
192.214
-171.548
16.0986
155.449
-110.981
403.456
-30.1852
210.251
-180.066
-76.4502
-219.794
194.35
-83.9664
-76.8853
192.137
12.1021
-245.698
233.596
29.6801
460.765
-490.445
710.272
49.3916
-759.663
291.586
14.6905
-65.8959
-159.112
-127.959
38.3805
226.332
-264.712
38.325
362.147
222.55
-752.863
320.805
-198.634
-83.3866
122.591
-820.596
698.005
59.1657
-387.255
-188.671
-268.512
201.099
67.4132
-342.757
-312.824
567.709
-999.208
243.365
-54.0817
-189.284
-37.3502
232.85
-195.5
-1041.99
350.351
691.636
-34.7506
369.172
-334.421
325.057
60.2332
-252.905
103.793
149.112
331.49
-91.2279
-240.262
359.05
-124.452
-181.309
301.756
281.691
-213.176
146.334
-183.684
-97.9629
582.363
-484.401
754.752
-176.864
-130.669
-342.988
473.657
853.961
-731.37
242.013
-203.632
-44.1484
-300.518
-537.305
83.6415
79.9981
-163.64
339.802
-79.9856
-259.817
-67.5972
167.743
-100.145
368.253
-124.784
-104.223
-337.049
441.272
7.55723
844.003
-851.56
-776.495
804.517
-28.0221
-246.748
67.2481
179.5
-754.561
442.815
311.746
63.8318
-164.295
7.93944
171.528
-179.467
-275.993
247.712
6.07462
-230.676
224.601
236.073
-10.911
164.603
-512.9
348.297
227.801
-215.699
-40.4306
-186.324
-72.2397
552.21
336.61
-74.0247
-262.586
-733.934
741.491
-473.39
353.667
119.723
455.05
-318.86
479.77
-853.869
374.099
-277.096
-83.4055
-726.469
28.9377
-175.761
-77.1436
-646.968
631.821
15.1476
-175.842
351.416
-175.574
295.217
292.097
264.551
-166.681
-97.8701
252.069
-270.627
-474.15
-193.593
-82.2779
275.545
-191.219
-84.3256
-528.135
14.2181
513.917
175.867
-78.2375
1006.24
-1006.24
433.448
-513.56
-528.427
134.462
189.215
-323.677
-470.962
426.813
-331.097
300.071
-330.68
397.49
153.765
-551.255
49.8905
712.762
527.667
-130.177
410.2
-585.151
81.3842
210.092
-291.477
-207.676
-214.563
422.239
281.15
87.2339
-368.384
-297.401
-544.738
842.14
489.392
-743.821
349.651
33.6951
-383.346
-978.943
417.132
95.8762
259.536
-267.069
304.972
-354.735
-21.7916
138.447
-116.656
3.43305
-265.89
-252.864
11.6187
241.245
238.796
36.7489
288.961
-376.431
225.944
-92.4523
-529.875
-184.311
-124.987
-388.854
-365.707
-954.965
-174.187
1129.15
-500.834
953.969
-453.134
-134.49
-7.05721
141.547
-669.578
636.896
32.6826
-228.331
351.861
-123.53
241.682
278.716
1.68618
-215.794
873.879
-912.409
38.5305
422.873
-104.019
205.843
-353.588
158.127
195.461
-244.694
54.2261
190.468
-468.023
-60.112
133.369
-248.326
333.583
-91.4303
-1065.96
875.575
-525.42
439.334
-107.562
224.719
-117.157
-59.4034
375.705
-316.302
356.129
-333.09
-23.0395
-374.832
42.552
-214.1
-290.605
656.006
-365.401
-49.7743
-258.141
-91.1727
440.823
4.37049
191.612
-195.982
896.233
197.036
-335.444
-18.1433
159.733
196.396
-373.924
-455.379
829.303
-830.911
359.953
431.172
-947.599
516.428
85.6008
-423.629
338.029
-257.281
189.684
-6.68267
467.448
-153.16
-199.834
-437.755
151.246
616.224
7.54433
28.4531
214.912
436.979
-96.2525
-340.726
-94.9341
-93.9004
188.834
108.344
207.134
-283.584
9.1075
-109.75
-44.5385
154.289
-385.901
-5.45593
391.357
-27.8198
306.082
-278.262
-105.375
496.405
-391.029
-422.698
368.594
-87.4443
-871.497
802.693
334.822
-313.413
-68.7933
-298.742
-69.4668
-300.831
-656.284
-122.824
-523.468
277.136
246.332
-269.308
55.4543
-130.352
129.874
26.5716
171.524
410.189
-581.713
27.7224
-270.906
42.4634
22.222
275.099
150.093
-264.461
-63.3112
-258.722
322.033
-810.991
796.241
14.7504
236.799
-253.323
16.5239
363.922
531.683
261.316
-352.544
-13.4864
305.072
-724.634
694.201
293.685
-210.167
-83.5173
276.98
10.9966
-175.897
-149.519
-317.393
466.912
-216.765
-102.063
283.996
-363.982
421.248
-525.472
115.83
82.4112
-198.242
207.672
-129.222
-78.4503
277.122
-651.046
138.176
-492.527
239.311
-102.588
-136.723
48.3519
-809.375
-420.652
288.188
-362.213
-580.098
665.699
-469.967
87.4437
368.355
-665.757
142.01
-250.084
108.075
-846.044
894.396
-30.5529
-10.263
796.911
-224.421
218.599
5.82145
-307.642
200.619
107.023
-238.503
-156.098
-46.7719
418.353
-371.581
528.897
-626.86
31.7636
-220.03
188.267
165.651
-133.887
320.398
89.2277
-265.07
167.035
27.3156
-137.311
766.764
107.114
-421.323
170.828
-233.716
181.007
52.7089
196.272
-226.457
1.48562
193.581
-195.066
-332.781
269.469
-228.131
-9.63692
237.768
-527.822
397.153
193.509
-184.99
-581.193
-65.7759
614.695
4.65212
-286.168
-229.743
189.428
-86.1479
-103.28
-127.139
-81.4294
208.569
164.056
-219.977
55.9213
-42.1059
272.046
-229.94
-227.424
219.043
8.38114
-201.167
-26.2569
336.224
100.755
948.388
-695.97
-257.874
-294.877
245.103
189.676
32.845
-222.521
-958.799
789.048
169.751
-380.967
173.057
207.91
-479.427
-137.921
617.349
-158.981
-806.175
2.07219
-297.509
-457.486
452.03
-88.504
-219.138
248.58
-15.7303
651.232
-95.1391
-556.093
347.789
-453.165
-159.307
756.431
-597.124
-207.051
-206.112
413.163
-289.608
274.812
14.7961
5.92713
-61.5533
225.609
-97.506
-171.006
-530.895
7.42696
-16.1973
-91.6548
-744.616
36.4195
-432.318
-209.108
81.9683
-260.066
171.353
698.792
260.71
-303
166.119
65.2385
-326.436
15.0225
311.413
-270.863
26.1693
-37.7577
-995.905
778.112
217.793
-30.3007
230.083
-107.242
277.966
496.831
-520.457
23.6259
-292.617
-180.774
-363.106
400.329
-44.1151
147.498
-103.383
975.033
-810.384
-164.649
46.0964
-544.387
498.29
-19.5907
-144.822
164.413
-148.102
-121.206
488.964
-63.5934
-232.283
473.966
-555.777
114.477
441.3
-195.147
278.03
516.977
-367.65
-149.327
297.501
8.29272
-305.794
-255.474
186.992
638.414
-90.0498
-548.365
416.756
-245.232
-432.406
388.766
43.6395
252.168
6.14928
-264.926
-61.5099
-183.282
56.8766
205.687
-499.734
60.338
439.396
-257.363
265.521
-365.669
337.849
-305.365
-67.4224
-417.132
-448.605
401.833
-530.571
1001.83
-471.261
-125.392
81.2767
-178.76
-202.208
488.674
-50.1556
-438.519
-16.489
-303.013
319.502
-490.074
555.196
-65.1217
420.725
207.724
-101.456
-106.268
183.602
-225.708
204.275
-202.789
-312.268
121.049
439.169
-393.072
-9.1951
-280.413
66.1171
-886.118
886.118
131.128
6.36801
420.544
-426.912
-153.508
181.017
-27.5095
-507.319
299.643
-417.901
59.5978
358.303
51.7491
137.679
-500.625
382.629
117.996
-212.727
437.642
51.3224
307.382
41.7655
-349.148
329.77
-68.203
-403.81
-35.7975
110.78
-349.996
290.593
338
-234.287
-103.713
-47.9212
148.443
-100.521
-954.965
-302.389
-206.399
103.397
103.002
-315.785
227.898
-416.13
-531.469
257.063
533.716
-790.779
-149.701
-527.755
677.456
-462.627
176.458
-26.7066
193.741
216.441
-12.1659
-657.774
640.766
17.0078
62.9753
353.781
271.3
-53.9621
-217.338
-109.22
-529.274
638.494
-563.428
789.683
-226.254
-587.368
50.8176
-766.897
189.314
577.583
-987.101
425.41
561.691
-280.941
-274.836
-123.857
458.679
-968.62
438.048
-675.442
814.333
-138.891
616.742
-725.962
-207.759
252.603
-235.636
124.37
-799.812
-164.895
-693.915
858.81
646.904
-8.49001
501.229
326.784
-83.2178
271.639
-99.3274
92.2702
-142.186
212.116
-549.782
256.15
-228.883
-27.267
-138.224
335.377
-197.152
-160.356
-110.55
519.665
-22.8341
-294.01
277.521
12.6849
624.211
-704.045
-651.048
-250.135
-249.599
24.9717
220.524
36.1184
441.769
-477.887
-355.873
326.645
29.2278
-140.233
155.766
561.583
440.249
-362.99
-187.324
550.314
163.518
-238.52
-91.8764
264.125
-62.4976
-355.403
170.509
-238.452
-237.904
300.879
200.912
-128.998
-447.187
-539.914
-285.659
-10.4999
296.158
-310.283
172.667
137.616
-172.717
177.088
-214.039
-96.2439
226.428
-220.354
255.007
-282.131
27.1245
292.499
-86.5626
-205.936
-805.235
646.254
-316.109
-304.228
75.8973
-294.711
328.406
279.087
-98.6368
519.362
191.165
-39.5123
283.229
540.08
-823.309
-195.968
166.97
40.7021
-557.679
408.16
-933.319
287.042
308.567
-809.401
-473.749
-73.0853
546.835
-529.945
453.178
76.7678
288.385
-207.986
54.4783
-608.027
375.744
-26.157
168.167
-326.286
362.404
151.799
-519.449
-125.604
-35.9298
211.461
-5.74591
280.558
269.697
-79.1518
172.477
750.161
-5.66738
295.045
-266.062
-28.9835
-253.674
-104.24
-108.456
-29.7648
266.563
698.109
255.86
71.4231
206.543
342.743
-114.487
-83.1865
306.319
-223.132
-440.653
97.6652
496.557
-231.349
-265.208
293.271
-299.017
-18.7887
-672.511
691.3
229.483
-828.164
453.332
-228.822
69.9695
-332.555
-117.479
-368.138
485.617
-124.026
140.125
230.922
-314.14
303.531
-16.6114
-867.264
334.075
79.5072
-339.324
-726.604
-512.287
-446.512
243.356
88.7851
-329.047
217.331
-309.207
167.159
72.1521
138.731
-226.242
87.511
-479.758
142.709
498.026
-920.724
-162.287
76.1387
457.837
26.7173
-574.422
-421.483
19.192
-600.384
-3.12148
300.623
-111.573
394.39
-282.817
-106.725
-84.2307
141.743
-208.052
-84.0305
-344.521
382.846
-234.553
-66.5035
301.057
-74.6
247.267
-265.978
-263.6
245.709
17.8906
44.0891
-232.436
302.406
364.57
-52.9077
-302.965
-17.7632
236.806
207.868
-26.4252
-181.443
-104.478
-467.871
54.1283
413.742
-296.647
-121.769
418.416
168.211
-216.132
310.43
-257.471
81.7096
-204.293
-108.584
312.877
800.845
306.116
-31.0829
-215.949
247.032
-23.2978
-506.648
-285.659
-736.244
355.185
381.06
9.62361
-299.834
-9.74045
256.835
-16.0503
234.65
269.32
-339.952
70.6321
-450.377
-115.74
-549.664
198.394
351.27
215.339
22.4296
237.806
332.545
-618.783
286.238
230.518
-420.521
190.003
-365.62
395.924
-670.413
274.489
949.209
-924.167
-731.396
440.79
-416.503
-125.464
541.967
161.414
133.631
-311.736
572.709
-389.912
-182.797
359.806
-196.288
-802.505
239.077
251.591
244.966
-220.813
72.7114
393.115
-103.031
182.315
-186.661
4.34554
233.055
11.4933
574.66
-607.986
-510.603
191.582
319.021
80.5089
-350.139
-145.01
495.149
78.4295
364.988
-194.479
264.141
59.788
-465.841
173.225
300.798
130.608
-431.406
123.192
-230.755
-175.325
-229.227
-205.942
-366.443
21.9217
-28.6945
-629.079
-27.6504
227.971
-200.32
-318.277
182.64
135.637
-357.628
-118.908
476.536
-251.346
-89.4377
193.848
14.0204
-323.035
87.7245
179.255
96.6691
-275.924
-270.384
-121.515
391.899
-369.238
-290.543
270.771
19.7716
132.795
-359.588
226.793
160.486
-248.728
88.242
-41.3854
-112.202
-267.463
379.665
-383.272
230.112
211.54
-440.767
-265.674
118.483
147.191
-457.176
139.783
34.9463
-439.692
404.746
-200.129
-63.4715
170.582
397.968
-326.877
-71.0907
-203.354
207.371
-4.01693
-265.153
136.504
128.649
-95.9039
-137.812
-309.153
-111.181
900.229
-220.741
-24.9579
266.914
-486.321
305.547
120
-326.667
206.667
-370.785
-140.57
511.355
-470.29
-217.124
218.801
-29.1252
254.89
688.98
-707.769
-49.0395
-273.93
322.97
79.0968
-709.418
630.321
211.333
79.7854
-291.119
283.641
-94.4259
-230.712
232.784
-365.433
-38.5031
403.937
-710.896
39.4466
671.449
-474.072
-174.521
-93.0777
-272.591
521.912
-37.8729
-774.338
-19.3943
793.732
-195.439
526.397
-330.958
-198.252
481.48
167.3
-517.439
302.909
-92.817
114.434
417.495
-425.857
432.226
-317.893
-126.58
444.473
-524.482
50.7331
326.034
27.6327
38.5592
-269.271
240.624
-55.8081
-184.816
-86.5203
-90.6353
280.319
-70.4314
-279.565
64.3204
213.709
-302.972
-86.2838
389.256
-275.102
324.31
-49.2083
-65.5078
261.78
-329.329
-119.22
448.549
-248.4
113.83
134.569
-132.981
-43.3473
50.3341
-650.802
600.468
-180.872
-251.533
-281.524
-231.375
-337.808
-82.8436
-213.96
-61.3069
275.267
415.589
639.622
178.571
-247.362
68.7916
148.496
517.203
213.253
27.3706
167.059
-236.657
69.598
-371.678
-156.144
-532.264
-82.7198
334.788
-182.509
314.515
-26.1298
641.318
-174.013
-4.62419
231.053
-246.796
274.545
-27.7498
713.558
2.80836
290.463
-602.208
492.553
109.655
218.885
52.4152
204.96
-25.2617
206.508
-331.495
95.8805
-332.848
15.2734
-355.234
363.214
-7.97963
96.846
-203.361
182.994
37.4622
-320.532
324.215
-3.68241
262.431
-328.935
245.4
-11.804
-341.536
-129.426
-67.4009
261.821
12.0661
244.084
307.273
0.884043
-374.283
-133.42
507.703
-82.3929
-151.005
-201.476
-18.5546
74.1921
246.613
264.675
-294.44
291.013
-70.3495
-234.86
265.991
-31.1308
-1063.25
717.671
345.579
-418.492
121.845
298.477
16.027
-314.505
-54.8346
345.427
570.436
-180.35
-17.1264
197.477
-66.2017
-209.792
-267.121
-50.8377
317.959
-290.716
-49.656
340.372
-70.1302
-510.37
-91.8385
-797.681
785.379
12.3021
56.0743
238.974
-295.048
57.154
295.521
-165.197
450.806
-285.609
-235.515
-59.362
-448.801
105.289
-212.013
181.715
-258.859
-314.715
-93.1322
407.847
-116.138
436.312
-320.174
-384.068
-73.417
-220.698
-93.4423
2.37892
-408.918
-116.501
-205.632
684.471
11.2493
644.249
-655.499
-198.979
42.7083
224.726
-808.908
584.182
164.647
-403.15
292.142
-31.9294
108.585
-997.299
-210.941
-98.2665
443.083
-9.63508
-489.693
-386.347
-98.88
-657.419
208.821
-401.324
192.504
-5.33779
277.383
-314.37
-90.0987
404.468
-11.8059
-262.685
274.491
829.956
-116.397
-490.131
483.448
-59.7554
-714.583
-88.2077
426.057
-846.556
783.613
301.029
-465.896
403.398
-87.9821
-122.185
178.24
177.179
-355.419
-438.302
-243.6
186.227
19.875
-206.102
-204.093
908.552
29.2715
-992.024
559.706
-212.274
-82.232
294.506
717.833
35.9339
349.011
-89.5664
377.578
-355.657
-402.329
411.654
-9.32562
321.532
-328.291
6.75873
354.952
-100.062
-13.2598
-401.591
-142.796
-217.315
-106.362
-197.121
-94.3558
-582.73
776.409
-193.679
-223.835
9.7965
-202.499
-407.447
-462.324
412.169
92.4226
-300.475
-114.867
-122.416
237.283
-45.1821
392.444
-347.262
335.285
-65.8159
216.261
-60.809
-155.452
95.9641
-240.786
131.289
150.402
296.822
-85.4883
-307.306
-86.131
212.76
546.281
-149.128
26.4457
-773.708
747.263
-282.913
106.647
-185.799
-30.2289
-71.0409
318.753
57.6385
772.115
-698.498
856.207
-110.771
-745.436
381.119
-77.4033
-303.716
107.439
-224.596
-98.0701
510.597
-412.527
-222.781
-65.5144
26.341
-735.759
420.817
-96.2997
-291.234
290.627
0.607166
-207.702
-61.6164
269.318
207.319
21.7049
-229.024
-31.0194
-109.434
-445.715
-617.535
-427.378
205.979
1.85321
-217.119
-7.92682
237.41
50.7347
-534.672
483.938
-303.477
228.935
-407.694
167.807
-367.641
689.685
-302.577
69.9952
-273.206
203.21
-128.326
286.453
577.065
-166.864
-222.86
-145.674
234.84
872.929
91.2682
-296.158
221.689
47.2204
724.895
-13.9079
196.223
-327.185
-93.2924
370.11
-81.9223
-428.874
-511.619
150.587
361.032
-163.771
-504.832
668.603
-583.87
1006.74
-711.372
128.642
-455.909
-289.353
259.71
99.3404
-925.2
64.4522
860.748
-329.064
369.832
-85.836
-2.81488
358.253
321.45
2.86005
221.528
-201.504
-20.0234
-300.843
96.7507
-197.83
-5.52329
242.463
346.176
-84.8592
629.597
-131.306
270.522
97.7308
533.004
-111.756
499.512
-89.3226
246.265
-24.7121
-221.552
411.575
-471.556
-323.625
795.181
539.239
-262.103
-273.123
-547.341
80.5134
466.828
298.644
-53.5417
-710.922
677.691
33.2311
514.548
-62.5186
-33.9708
635.858
-601.887
-350.933
264.371
272.182
79.6799
406.586
121.081
-373.403
209.431
-21.1644
328.92
6.36524
-424.092
-129.916
-52.4559
588.648
327.489
-317.977
-9.5114
-497.753
47.376
-363.924
-329.442
303.312
40.8015
328.37
-279.468
320.165
-55.7946
-148.427
-265.641
-244.833
-18.0138
262.846
-400.812
-112.196
-31.1762
547.337
-38.0168
-10.0693
477.517
558.802
-26.4017
-173.576
-273.383
316.561
-43.1785
-78.2161
242.195
32.8204
-743.742
-312.208
-226.877
332.237
-392.779
-55.8263
434.158
630.994
222.211
-853.205
-152.059
559.436
-138.619
310.483
-247.222
-63.2605
-93.2837
-573.91
-192.987
22.1613
206.649
114.801
-138.234
226.476
-274.26
-272.075
325.654
-53.5788
237.789
290.555
-414.412
708.03
421.122
-275.525
354.019
-78.4938
-258.181
-447.513
-218.625
837.335
18.8717
389.585
-60.6653
-952.816
27.6165
375.578
-86.6162
-743.896
-6.4875
-292.255
635.416
207.831
-92.0007
-103.062
5.55284
299.519
-379.016
8.78397
370.232
-231.345
-124.071
220.039
-95.9135
-473.942
-83.7375
484.997
-76.8374
326.485
-3.37022
-297.461
-92.8343
-118.886
-519.631
369.93
-116.924
653.525
-627.184
-263.456
346.767
-83.3113
-221.013
60.6571
284.372
23.9595
-452.193
-468.531
-421.739
974.723
-458.183
-516.54
541.96
-102.626
-497.207
-110.82
-90.0311
18.8472
491.851
-116.107
-1.34281
46.5031
181.468
-220.57
-200.753
61.5076
-93.4597
530.629
-115.728
-408.288
-340.615
285.041
269.199
-2.63565
407.99
-81.5046
-56.3139
-149.318
-166.169
-310.973
30.5595
61.6625
-263.138
438.057
-650.2
573.716
-102.324
-471.392
759.012
-726.191
400.055
-67.8176
-266.926
-300.985
25.57
555.471
-121.313
-758.201
784.647
221.564
-5.53783
-216.026
-129.181
221.604
454.925
-53.0921
582.645
-145.808
-283.091
285.899
-111.416
-94.9832
-210.375
249.582
-39.2066
-109.296
270.71
295.145
-34.4354
-48.4577
251.363
-473.453
-278.433
271.03
-235.558
-35.4724
-399.934
389.06
10.8745
-18.641
-125.661
285.394
287.155
-293.596
6.44121
-244.277
-100.171
-10.1596
148.607
-325.544
390.879
-43.4588
787.263
-743.804
-507.114
335.919
-45.364
26.2916
350.069
11.2132
-361.282
6.98812
381.778
211.547
490.487
23.6971
486.096
33.2659
355.124
-47.7413
-61.5368
228.596
237.278
69.0408
-865.736
876.985
-300.333
287.681
12.6526
-551.66
253.605
-2.24125
767.216
-560.102
-207.115
261.893
-188.837
-73.0564
433.014
229.945
24.0755
495.59
-200.601
619.598
-418.996
81.8699
-49.9414
840.048
-790.106
-398.056
285.853
477.133
198.882
239.188
-2.38203
227.71
-170.426
-471.157
641.583
34.8668
210.534
52.9199
-561.607
571.555
-509.054
804.762
-273.978
-530.784
-275.99
-170.167
60.8139
270.111
0.659915
-230.535
-270.091
-345.453
-485.458
7.17216
187.179
-194.351
294.59
268.303
200.432
-792.667
768.462
24.2054
-8.32825
409.373
-448.669
39.2957
279.277
73.9367
1.37967
746.703
-748.083
80.3496
236.212
55.8226
94.9898
-293.925
309.469
-15.5438
-904.601
-50.3639
200.753
-117.801
-483.354
601.155
-297.871
831.587
-146.292
-384.457
-113.296
-561.726
124.214
370.935
42.3347
-258.769
-24.3217
196.941
-150.438
1.14388
840.864
45.2543
-16.5752
307.038
474.57
-358.021
-116.549
-629.636
253.389
376.247
112.158
168.161
357.674
-355.363
251.65
126.061
281.786
229.749
232.001
33.9898
69.8972
-484.545
414.648
820.928
-248.68
-572.248
168.797
195.143
-363.94
346.77
402.019
251.121
3.57369
-626.238
-305.966
248.554
-890.015
368.253
77.4597
-445.598
65.5349
-632.941
-102.817
249.588
-363.636
360.399
547.807
-568.404
645.23
-76.8261
-14.4096
376.556
411.58
-321.862
-27.781
165.46
-137.679
-303.403
299.817
-19.2586
630.104
-348.205
-23.3983
379.092
-355.693
70.777
-186.08
242.414
-56.3335
-268.365
218.943
49.4218
283.445
521.317
156.42
-405.98
420.921
-1064.59
1065.96
107.394
-8.02571
431.75
160.902
-54.2556
416.422
332.711
216.817
25.5982
265.514
367.319
-26.5335
-340.786
-650.636
648.196
2.44019
235.767
201.506
-14.3267
502.823
-432.926
-214.869
762.676
273.198
93.0689
252.847
-367.333
-178.407
26.6682
244.362
738.769
-164.439
-574.33
-857.675
924.167
279.664
346.213
235.73
-219.703
554.103
-992.404
430.009
316.261
298.155
-46.8003
443.539
291.511
60.1967
-418.926
358.73
-203.899
302.527
-13.6884
-23.4305
-824.392
694.13
819.025
-202.283
335.659
252.997
120.649
342.072
-20.4256
-321.647
269.806
283.67
274.394
-192.905
91.4489
-276.168
287.013
-10.8452
424.677
-534.582
-256.197
-6.17764
222.995
444.899
-578.32
-278.7
19.9302
438.97
-111.162
-233.003
344.165
-327.33
-184.289
635.1
106.058
426.599
-942.996
516.397
-461.942
418.93
43.0114
-3.83267
256.657
-252.824
322.16
-251.383
259.068
-236.515
-22.5536
288.133
21.9777
-208.058
-846.044
84.0764
326.446
-410.523
-30.4927
719.018
-688.525
324.529
-297.303
-27.2266
-445.719
439.849
297.107
-239.469
-400.021
978.68
-578.659
286.346
-14.1772
200.404
551.514
448.486
-173.604
213.351
10.5146
-223.866
-28.8466
401.714
-593.284
33.5289
559.755
205.669
241.593
-335.036
-39.7736
-360.161
-908.552
858.61
-483.46
1034.97
338.472
-49.4739
241.971
-2.36344
-239.608
490.178
-436.05
57.3719
-708.174
-460.95
-0.992033
-261.372
320.682
-469.55
-499.07
299.923
-18.807
-281.116
-959.494
423.835
-797.681
158.982
34.9979
-193.98
33.0114
597.309
649.203
-634.056
-289.82
829.9
-71.6341
204.875
358.677
-511.559
152.882
-117.274
347.768
-230.494
-703.477
750.697
-388.901
206.6
-226.241
235.749
-9.50769
-274.711
701.31
315.539
603.445
27.944
-786.145
-233.508
229.707
-327.973
-51.4435
-227.802
239.421
-894.396
978.99
177.372
39.9824
-217.355
267.395
-287.501
-88.93
19.7649
387.63
210.272
-597.902
502.742
-902.763
486.882
-47.7129
-224.46
-5.72713
230.187
-114.653
-196.32
-277.927
71.9906
-163.463
-140.226
304.104
292.007
-265.339
-114.046
-320.636
434.682
283.241
291.494
-17.7765
-295.198
312.974
-691.543
19.0312
845.1
-904.601
949.209
-948.513
933.736
963.709
-963.709
-857.675
-997.299
265.644
-223.309
-239.976
-224.98
-189.759
-5.30692
745.97
-965.146
219.176
-876.985
15.5747
-285.908
196.22
-37.2374
-763.3
791.244
230.156
-7.00042
-223.155
-256.956
245.15
-11.7353
-250.622
262.357
248.25
-14.0006
-234.249
203.759
-231.026
-23.5107
-254.19
277.701
-189.436
202.289
-12.8525
250.969
282.147
-348.674
408.871
109.206
-186.255
77.049
-371.941
-591.164
-195.525
208.873
-13.3481
-420.214
-84.0808
504.295
197.673
-177.798
44.5145
203.614
-26.2414
-358.084
253.843
478.681
-118.283
207.333
455.067
-45.6945
306.18
-371.989
65.8089
19.4685
-634.341
667.352
262.17
-462.771
-783.848
730.343
53.5055
480.828
497.851
70.203
408.478
-253.94
248.603
-73.1692
-710.679
235.649
-317.881
693.444
-887.123
329.528
-727.587
398.059
132.295
262.787
-205.127
-57.6597
-45.2702
-389.358
-867.088
592.376
-3.45037
262.753
4.04264
-303.39
299.347
19.1836
-40.2467
236.947
281.172
-36.81
184.098
-57.7491
-126.349
738.285
20.7263
273.2
307.086
6.76432
184.434
-225.144
40.7103
219.991
-302.749
299.627
-299.269
-204.393
218.67
-14.2763
74.8222
-495.036
237.39
153.489
-87.9353
833.906
-604.129
421.332
559.792
-652.419
219.182
-311.999
314.342
-431.616
183.932
-290.294
218.656
-196.951
-306.345
211.919
-192.981
-9.31178
202.293
215.015
-309.371
368.008
-266.3
-101.708
0.0471109
483.89
-442.56
-560.343
1002.9
-718.098
628.048
-50.3409
-320.167
370.508
21.411
48.5333
-291.482
281.741
-273.86
-4.84003
199.683
45.045
-244.728
-184.079
-217.245
-289.553
222.279
-208.053
-14.2261
-303.39
-404.354
404.354
189.027
-659.317
163.423
156.151
299.347
727.521
-234.968
-41.6445
-646.102
687.747
521.382
-80.0818
238.139
-366.463
317.423
379.351
245.811
4.47949
231.473
-171.901
-59.5721
-40.4648
-686.623
686.623
-173.005
-389.861
-92.619
-119.394
205.674
20.2701
-138.109
204.452
-424.458
480.576
-163.528
-204.113
718.021
-497.893
-220.129
-116.385
-108.211
512.428
-164.131
-95.0837
-29.2887
-485.347
514.636
-500.292
-287.573
508.464
-12.8745
-27.1344
-707.478
537.052
-458.706
-65.776
767.573
19.6899
233.385
-113.064
773.89
-660.826
87.6489
827.776
683.262
842.248
153.985
-214.794
-388.722
-72.2278
-240.51
248.786
-212.542
50.1111
-182.362
-896.968
41.1702
855.798
18.639
398.888
809.555
-266.555
249.973
16.5824
1066.38
-542.389
-523.989
-169.653
9.02143
474.427
203.805
-36.8345
285.832
264.482
429.761
-772.063
956.351
-184.288
-345.49
4.87436
233.385
19.3759
665.095
-77.5371
-222.796
-184.548
-237.191
198.67
92.3487
635.173
690.293
-731.938
92.2787
-795.755
23.3686
654.322
752.351
-849.688
97.3367
-627.67
536.47
91.1997
627.404
-563.722
-63.6813
-447.305
522.127
46.8347
-99.0493
-121.725
220.774
137.338
304.783
-595.909
421.388
185.76
-185.76
-201.003
220.648
-879.284
436.724
-649.717
531.916
-547.341
865.736
-953.671
24.5059
-238.556
207.174
-183.118
-220.032
-246.019
24.6654
358.181
37.5235
343.596
-354.469
-356.892
28.6016
413.83
-675.933
-55.33
-726.849
782.179
219.421
-281.037
55.5177
124.502
-246.917
-623.646
656.328
-191.102
-67.7567
8.16751
523.929
132.077
-312.597
-16.8451
-455.121
957.864
863.86
-863.86
334.61
44.4815
15.1722
462.345
-761.654
17.8498
649.102
18.2509
80.3878
417.731
-498.119
217.267
304.67
-4.04687
9.47175
671.862
19.4382
-810.847
617.86
195.949
302.934
-498.883
-820.313
546.336
211.669
-408.795
22.9849
-650.169
-187.177
-38.4911
225.668
-98.741
214.696
-115.955
15.6717
46.0202
357.776
42.5526
-206.889
17.1517
-257.66
527.536
657.879
61.1388
12.3615
117.847
-104.825
-190.223
199.359
394.986
-511.008
-707.89
-64.1732
-203.61
-467.174
-475.822
-274.066
-360.583
625.016
-515.36
6.83641
798.001
-804.837
318.064
49.9431
394.8
-60.1895
613.559
-50.6508
-562.908
313.466
-13.3941
-568.145
-91.5299
659.675
-28.2471
-231.99
-597.92
423.907
-159.326
-65.99
225.316
224.036
611.256
66.179
-226.292
-105.203
25.5575
206.738
-546.413
638.762
196.287
4.11655
-200.48
399.65
-199.169
289.075
-828.777
539.702