/*--------------------------------*- C++ -*----------------------------------*\
  =========                 |
  \\      /  F ield         | OpenFOAM: The Open Source CFD Toolbox
   \\    /   O peration     | Website:  https://openfoam.org
    \\  /    A nd           | Version:  7
     \\/     M anipulation  |
\*---------------------------------------------------------------------------*/
FoamFile
{
    version     2.0;
    format      ascii;
    class       surfaceScalarField;
    location    "9";
    object      phi;
}
// * * * * * * * * * * * * * * * * * * * * * * * * * * * * * * * * * * * * * //

dimensions      [0 3 -1 0 0 0 0];

internalField   nonuniform List<scalar> 
29574
(
587.574
-435.125
-152.449
270.097
42.9082
-313.005
941.192
-1129.81
188.622
-395.237
994.384
-599.147
-633.5
670.704
-37.2041
-687.417
53.9166
209.097
-31.3882
-177.709
621.094
-471.825
-149.269
213.701
-288.436
74.7353
94.7149
526.379
-74.3394
249.733
-175.394
-277.876
280.009
-2.13294
-236.358
-16.724
253.082
34.5389
553.035
621.786
-650.596
28.8095
-965.163
569.926
-299.585
338.999
-39.4141
-87.7406
-998.612
1086.35
-253.601
232.374
21.2272
304.481
-34.3844
-297.692
293.172
4.52095
-29.1338
-248.743
-473.892
568.607
259.683
-307.84
48.1568
941.192
-359.821
75.3516
284.469
890.024
-974.384
84.3603
340.721
-150.441
-190.281
-157.606
-96.6783
254.284
-104.984
-148.618
-592.308
741.037
-148.729
335.155
-279.779
-55.376
388.576
-88.4281
-300.148
556.583
-291.597
-264.986
-717.328
780.467
-63.1392
-731.38
139.072
144.719
-374.244
229.525
932.244
-932.244
783.415
-347.018
-436.397
269.104
434.784
-703.888
3.32598
792.528
-795.854
-306.285
102.284
204.001
-879.602
712.561
167.04
972.248
-82.2239
-116.334
-243.487
115.627
72.1378
-187.765
1114.28
-478.769
-635.514
325.933
-235.477
-90.4562
842.858
-30.437
-812.421
239.189
-231.791
-7.39768
-787.857
70.5284
47.0582
-744.688
697.629
-277.607
-129.404
407.011
762.858
-836.001
73.1427
161.387
-373.723
212.336
15.9341
-211.896
195.962
383.348
-112.899
-270.448
694.773
-751.677
56.9042
-53.5485
-297.879
351.427
-80.0917
-219.493
-650.68
410.371
240.309
-50.0033
243.796
-193.792
480.578
-483.194
2.61598
-206.125
-350.133
556.257
-697.502
827.976
-130.474
-716.538
108.406
608.132
533.173
-573.808
40.6345
-651.246
-65.2919
-161.426
-354.417
515.843
-125.781
-89.6659
215.447
363.196
-549.028
185.832
316.654
-218.887
-97.7671
675.702
-53.9153
-274.981
-33.2557
308.237
1064.17
-573.336
-490.83
-69.0335
460.89
-391.856
337.695
-124.132
-213.564
-226.003
15.4576
210.546
904.186
-635.083
584.727
-834.475
249.748
633.87
-525.464
816.993
-195.122
-621.871
283.284
-91.639
-191.645
295.585
-81.8839
133.396
-183.4
-613.871
-265.731
241.238
-282.132
40.8944
-37.8911
143.171
-105.28
-656.398
450.274
130.125
-307.675
177.55
-426.436
699.939
-273.503
739.019
148.769
-887.788
904.529
-130.22
-774.309
169.067
-277.47
108.404
194.021
131.913
424.77
55.8077
244.321
-75.2548
-779.275
790.164
-10.8882
-313.505
239.166
1006.41
-909.461
-96.9439
282.369
-152.244
408.061
-418.966
10.9049
168.57
129.025
-297.595
444.431
-182.288
-262.143
1206.15
-1206.15
467.056
28.4029
-495.459
-27.6798
259.691
-232.011
-463.986
230.624
233.362
264.153
8.93124
-273.085
-277.43
-74.632
352.062
39.0107
-196.617
180.546
28.5513
398.549
-112.513
-286.036
-258.843
-401.689
660.532
-556.459
487.426
-568.628
-431.474
-393.384
-169.337
562.721
576.84
57.0301
-299.779
-3.90778
303.687
-1029.37
240.731
788.638
-170.78
909.799
45.7536
259.744
-305.498
367.041
-607.104
240.063
238.512
-362.032
123.52
128.515
428.068
769.023
-856.763
13.0446
215.668
-228.713
180.258
160.464
240.915
94.24
129.164
-522.548
-25.0703
-154.157
179.227
18.7459
220.443
849.964
-846.638
292.788
490.627
129.171
-360.384
231.213
259.065
947.089
289.14
-70.851
-218.289
-278.984
-18.7083
-408.455
36.4044
372.05
107.114
60.7381
-167.852
286.49
-240.736
28.3249
-303.306
175.687
140.967
-303.131
201.19
101.941
-554.173
88.7062
465.466
-116.436
245.607
-290.882
82.0157
208.866
-95.204
-224.447
319.651
8.18412
297.169
-305.353
-762.582
-211.802
128.03
-223.234
211.914
971.75
-67.2207
-233.41
-45.8156
279.225
151.699
665.294
-274.272
-16.6102
-749.194
135.323
81.3815
178.302
70.2187
-161.85
91.6313
-13.8901
-222.468
-168.693
330.08
-229.644
198.256
-36.6074
-392.465
-161.708
-195.139
-658.073
853.212
-151.164
113.273
347.453
60.6082
264.516
18.7679
433.394
27.496
-350.276
494.995
341.603
-52.4629
-179.71
-140.278
319.988
-0.191978
-210.931
211.123
402.049
-442.983
40.9338
96.3283
92.5125
-188.841
46.2142
342.361
-571.571
509.12
62.4513
-531.558
-33.935
565.493
-435.98
-120.479
-17.3634
224.3
-206.937
48.1742
-220.555
172.381
735.487
196.756
342.452
47.1952
-389.648
-81.1013
215.529
-134.428
266.426
38.0551
229.15
-124.99
-104.161
581.013
-217.817
26.9317
979.473
144.652
219.563
116.85
-336.412
281.944
-268.899
239.198
-378.591
139.394
68.7833
-978.244
-579.299
417.874
220.493
-150.275
-42.8727
297.628
-254.755
86.3653
256.087
-51.1211
308.015
-256.894
324.409
-57.9831
-3.15629
222.719
250.424
-382.056
131.632
-86.334
315.19
-228.856
-459.895
157.361
-344.848
187.487
267.61
-387.894
120.284
-316.573
287.226
29.3467
-4.71841
-330.11
334.828
762.799
-715.741
200.23
-184.296
619.33
-634.626
15.2959
417.087
116.086
-851.926
513.992
337.935
-39.7879
306.459
-266.671
-88.9852
-151.306
240.291
-294.793
555.956
508.21
513.325
-513.325
-538.043
-491.326
-250.91
-213.076
897.077
-604.289
4.76219
261.734
-266.496
-173.922
-264.771
438.693
78.8086
157.721
-236.53
510.067
-936.503
-344.683
270.051
-13.1537
-395.301
354.306
-359.025
-1068.66
500.03
-484.8
484.8
-642.23
-5.31121
647.541
636.028
-268.987
291.464
121.495
-412.959
-328.672
300.992
-219.581
202.142
17.4382
-541.641
835.766
-294.124
306.539
-65.3006
553.34
-86.2845
-417.561
237.851
177.679
66.6422
-653.868
479.946
235.846
-359.977
87.7575
-176.743
253.926
113.359
-367.286
351.56
-113.048
-965.658
-240.495
623.159
-46.3186
-74.8904
269.136
-194.246
531.609
-453.237
-78.3711
-72.8794
756.296
-683.416
-53.2069
896.065
262.521
1.63279
-109
187.808
-88.5842
547.312
-458.728
-541.321
194.303
-169.493
14.2702
155.223
-119.928
411.392
-37.7379
216.888
-179.15
-75.4844
-230.8
193.796
-86.6824
-76.9695
192.596
15.1456
-246.977
231.832
31.6049
459.11
-490.714
710.244
49.3885
-759.633
289.648
16.8906
-70.7361
-158.908
-134.561
41.281
232.974
-274.255
36.6966
361.852
216.549
-758.19
314.806
-197.014
-85.1188
122.572
-820.642
698.07
62.1752
-393.506
-180.302
-279.437
205.333
74.1047
-336.734
-313.946
567.728
-999.202
241.123
-52.4642
-188.658
-45.6793
244.278
-198.599
-1041.89
352.655
689.235
-39.4727
372.771
-333.298
325.064
58.2833
-246.936
96.2153
150.721
343.329
-98.4739
-244.855
370.953
-131.755
-172.052
301.077
274.21
-213.738
145.157
-190.836
-103.227
597.298
-494.071
755.022
-170.295
-125.735
-354.928
480.663
854.011
-731.439
251.246
-209.965
-38.7104
-311.566
-537.032
80.0669
82.7713
-162.838
351.505
-84.3666
-267.138
-77.2077
175.26
-98.0528
380.26
-129.836
-110.971
-343.362
454.333
7.59185
843.993
-851.585
-776.593
804.3
-27.7069
-245.717
59.698
186.019
-754.46
441.771
312.689
58.8746
-163.858
4.80433
173.032
-177.837
-285.445
256.311
6.04006
-230.059
224.019
241.321
-17.0202
170.99
-527.901
356.911
228.899
-213.753
-40.275
-185.728
-69.3435
564.338
347.65
-76.3363
-271.314
-733.916
741.508
-469.161
358.512
110.649
458.273
-329.109
482.609
-853.004
370.395
-282.847
-90.8764
-726.436
28.9334
-178.423
-68.5132
-646.489
631.794
14.6947
-178.04
351.514
-173.474
304.778
300.384
264.006
-167.767
-96.2389
256.995
-267.073
-482.121
-194.891
-82.58
274.933
-199.148
-75.7858
-543.062
15.8707
527.191
171.531
-75.2029
1006.27
-1006.27
433.654
-509.17
-532.72
144.336
189.368
-333.705
-479.732
441.022
-331.523
298.267
-329.897
405.753
160.445
-566.198
50.2187
712.639
542.306
-136.553
422.617
-591.954
90.7415
209.153
-299.895
-206.892
-212.498
419.391
295.095
83.0212
-378.117
-297.353
-544.712
842.065
490.154
-748.997
362.64
31.8485
-394.489
-998.612
417.364
95.9605
271.948
-272.14
303.471
-357.019
-15.4508
128.843
-113.393
7.50589
-264.235
-253.412
11.69
241.722
244.404
30.5293
301.652
-382.754
225.948
-92.5514
-541.168
-191.266
-116.408
-389.876
-364.583
-964.361
-178.089
1142.45
-500.202
959.053
-458.851
-130.942
-4.17952
135.122
-669.184
636.921
32.2626
-236.474
363.252
-126.777
242.272
289.337
2.06453
-213.96
873.863
-912.393
38.5299
426.664
-110.599
212.883
-364.111
161.01
203.102
-250.342
61.0723
189.27
-480.446
-62.616
134.138
-247.037
343.617
-89.691
-1086.86
891.717
-539.998
451.413
-100.288
214.587
-114.299
-64.3644
378.662
-314.297
367.56
-344.096
-23.464
-369.317
43.8381
-213.331
-300.912
671.068
-370.156
-57.264
-256.241
-91.3739
454.014
4.39463
191.886
-196.281
914.238
200.045
-347.473
-16.6387
164.484
203.076
-373.468
-455.778
829.246
-846.315
367.546
429.154
-948.099
518.945
92.2744
-430.813
338.538
-265.639
188.432
-8.81308
467.923
-144.044
-200.803
-429.447
149.668
616.234
6.92454
26.8797
214.243
438.032
-89.0206
-349.011
-99.7933
-91.4916
191.285
117.36
217.509
-292.993
9.10856
-107.379
-41.0526
148.431
-385.343
-10.7118
396.055
-27.5395
315.629
-288.089
-104.377
495.396
-391.019
-423.85
377.56
-82.465
-884.707
811.828
344.446
-316.043
-68.9363
-309.655
-71.1597
-310.896
-655.972
-123.304
-529.046
285.87
243.176
-279.223
60.3362
-130.019
127.72
32.3429
180.018
410.417
-590.436
28.4744
-280.227
44.7502
24.8392
283.176
150.54
-263.053
-59.9478
-270.459
330.407
-810.875
796.272
14.6036
234.994
-253.156
18.1618
363.367
533.711
266.122
-364.596
-15.9404
305.588
-724.607
694.17
292.073
-210.555
-81.5172
286.002
11.6259
-174.898
-156.012
-315.379
471.391
-216.061
-100.512
291.638
-376.005
429.013
-539.983
117.096
80.3253
-197.421
206.323
-128.386
-77.937
277.539
-651.006
146.206
-500.624
240.578
-98.9612
-141.617
48.0549
-810.637
-424.815
297.51
-373.846
-585.601
677.875
-484.422
91.957
368.335
-665.689
131.971
-244.103
112.132
-847.717
895.772
-30.4079
-8.86789
801.396
-222.365
218.012
4.35297
-309.21
199.313
109.897
-240.982
-146.912
-50.8458
421.359
-370.514
538.569
-641.795
36.8889
-222.989
186.1
168.496
-131.607
330.868
86.7443
-264.784
169.438
24.3579
-139.514
766.752
107.111
-432.853
170.71
-225.957
181.141
44.816
193.993
-231.731
-0.134131
193.015
-192.881
-341.014
281.066
-226.181
-11.6428
237.824
-536.097
410.362
200.006
-191.822
-581.139
-65.3496
614.666
4.66483
-298.401
-224.146
183.443
-88.4136
-95.0294
-122.311
-87.9891
210.3
169.004
-228.212
59.2077
-43.1645
280.997
-237.832
-226.945
217.066
9.87859
-199.173
-27.772
343.917
94.1148
964.293
-705.228
-266.537
-300.412
243.148
190.021
32.9007
-222.921
-968.152
795.102
173.05
-372.89
172.253
200.637
-490.044
-142.005
632.049
-158.967
-806.196
-4.72202
-292.873
-461.917
451.206
-91.9477
-217.262
253.133
-8.85483
654.464
-97.8859
-556.578
347.746
-452.123
-159.25
756.356
-597.106
-216.781
-206.436
423.217
-288.34
272.929
15.4114
5.93393
-64.7725
233.777
-105.058
-174.379
-530.189
1.14299
-16.1919
-91.2255
-744.775
37.8244
-432.295
-210.443
88.1314
-267.519
170.841
698.938
258.818
-304.633
164.792
64.3582
-329.833
8.19325
321.64
-269.43
19.0874
-37.3898
-996.373
778.341
218.032
-26.7674
228.91
-99.025
276.575
495.598
-521.784
26.1853
-297.442
-171.719
-362.518
398.923
-45.353
141.131
-95.7776
986.391
-816.354
-170.037
45.2928
-558.425
513.132
-24.271
-134.657
158.928
-151.433
-127.79
488.176
-63.4059
-243.062
485.334
-557.153
117.189
439.963
-201.557
276.908
519.063
-377.047
-142.016
295.956
8.43597
-304.392
-265.652
190.762
652.694
-95.4371
-557.257
423.209
-243.19
-432.619
388.955
43.6643
258.884
10.2526
-275.63
-54.2035
-181.553
56.5631
203.829
-500.184
62.6463
437.538
-259.155
263.917
-377.174
349.634
-313.432
-67.4356
-417.364
-451.977
401.131
-530.583
1001.82
-471.233
-121.015
75.6623
-177.309
-195.581
488.33
-50.1202
-438.21
-16.9675
-301.366
318.334
-495.932
557.996
-62.0642
430.043
205.871
-101.016
-104.855
190.086
-233.251
202.25
-202.385
-312.676
113.528
450.577
-405.284
-10.0871
-278.253
64.1527
-893.389
893.389
127.968
5.08331
420.649
-425.732
-157.435
181.121
-23.6867
-507.41
300.518
-420.653
63.2056
357.448
54.6616
128.781
-505.352
392.552
112.799
-206.145
437.096
51.0803
307.581
41.8167
-349.398
333.006
-73.2614
-411.772
-41.4656
113.142
-353.073
288.708
338.89
-242.174
-96.716
-41.3824
147.426
-106.043
-964.361
-300.582
-197.823
93.6243
104.199
-325.4
236.972
-419.737
-528.362
253.291
545.164
-798.455
-147.837
-529.328
677.165
-471.33
172.928
-24.09
193.528
215.87
-13.6199
-657.576
640.687
16.889
70.1929
353.016
278.371
-61.322
-217.049
-106.447
-542.421
648.868
-568.603
799.95
-231.348
-593.745
53.6818
-783.529
196.534
586.994
-987.256
430.826
556.43
-283.637
-273.515
-121.076
465.521
-968.605
438.022
-675.496
814.368
-138.872
631.974
-738.421
-208.949
252.224
-233.478
124.349
-799.845
-164.6
-694.148
858.749
658.141
-5.44639
501.199
326.777
-87.1437
281.164
-93.5718
89.3923
-146.196
215.448
-565.581
254.931
-227.611
-27.3197
-132.376
339.68
-207.304
-165.287
-114.94
521.088
-25.4895
-293.036
276.069
12.9551
623.966
-703.962
-650.9
-252.043
-248.141
30.3612
219.372
32.29
457.955
-490.245
-368.04
334.795
33.2452
-140.295
155.752
561.592
440.224
-370.19
-180.115
550.305
167.133
-247.224
-98.4545
274.142
-66.0351
-354.618
175.656
-246.507
-236.026
306.218
201.585
-129.447
-444.073
-543.183
-287.903
-10.8174
298.72
-320.263
181.987
138.276
-173.182
177.576
-225.965
-94.2982
225.404
-219.364
253.274
-282.334
29.06
302.399
-87.0073
-215.391
-805.242
646.275
-314.468
-314.371
77.8961
-305.654
337.502
277.139
-89.9908
520.033
187.877
-30.1556
276.682
548.359
-825.04
-195.486
166.003
40.3196
-563.86
407.849
-951.963
293.89
313.105
-813.306
-473.445
-72.9985
546.443
-526.833
449.392
77.4411
286.213
-207.521
50.0864
-623.886
380.824
-32.7556
164.726
-338.271
370.561
145.82
-522.868
-123.182
-36.3287
214.008
-6.55323
279.482
270.165
-79.2743
171.787
759.013
-2.71688
295.115
-271.635
-23.48
-263.104
-97.2795
-100.761
-31.3793
266.374
705.587
253.466
63.9798
212.595
342.936
-107.09
-76.4319
311.12
-234.688
-447.596
92.6687
495.547
-230.946
-264.6
291.366
-297.919
-17.883
-673.247
691.13
227.371
-827.132
457.815
-231.4
72.1715
-343.486
-120.392
-379.132
499.523
-124.436
138.706
237.709
-324.853
313.799
-16.63
-866.77
335.212
83.5515
-350.69
-726.374
-516.455
-451.697
241.44
95.6617
-340.517
221.991
-320.445
164.141
76.4378
145.083
-225.203
80.1199
-493.743
150.381
497.494
-921.344
-155.449
67.0358
458.046
26.7539
-574.613
-421.761
18.6752
-599.814
-3.4669
299.423
-108.22
402.042
-293.822
-104.971
-83.8698
145.984
-216.739
-78.0537
-344.341
381.037
-245.845
-62.4993
308.344
-71.8391
253.827
-273.752
-261.844
243.82
18.0236
44.0209
-240.339
312.51
366.676
-58.1565
-309.884
-19.3248
236.391
206.87
-27.286
-179.584
-97.4584
-467.218
53.9267
413.291
-294.501
-126.773
421.274
175.038
-216.42
321.261
-250.867
72.4436
-201.224
-113.696
314.92
808.302
317.653
-34.3581
-213.909
248.267
-23.2363
-503.597
-287.903
-733.94
348.423
385.517
7.13187
-298.729
-10.0583
250.974
-14.6432
232.656
275.731
-336.829
61.0978
-455.53
-123.769
-547.017
190.321
356.696
213.725
24.0987
237.834
338.104
-615.933
277.829
236.163
-417.039
180.876
-363.318
401.173
-667.365
266.192
965.679
-938.747
-748.209
447.296
-430.186
-121.353
551.538
165.615
129.5
-308.187
575.823
-399.732
-176.09
371.213
-204.08
-813.106
244.503
250.994
244.552
-228.579
77.1456
397.406
-96.4142
181.306
-184.676
3.36966
232.375
11.421
574.491
-608.426
-507.489
183.113
324.376
78.335
-355.874
-136.899
492.772
82.1601
376.818
-201.161
264.545
59.8641
-461.978
164.537
306.39
120.36
-426.75
120.727
-221.015
-181.737
-229.159
-205.966
-364.507
20.1664
-28.5843
-628.992
-30.739
229.26
-198.521
-310.531
185.105
125.425
-370.071
-119.733
489.804
-261.626
-83.0566
191.911
14.9593
-332.31
85.0812
182.236
86.782
-269.018
-268.362
-129.564
397.926
-369.276
-290.907
271.122
19.7856
123.044
-352.22
229.176
162.949
-241.5
78.5511
-39.4431
-116.498
-274.775
391.273
-375.981
231.937
211.444
-440.603
-256.514
111.153
145.361
-459.75
144.371
34.9775
-439.763
404.786
-198.454
-63.3902
176.142
409.594
-337.333
-72.2609
-205.695
205.615
0.0801853
-265.366
130.991
134.375
-87.505
-138.453
-317.684
-113.522
908.624
-218.927
-28.0501
268.553
-483.358
311.639
112.725
-316.595
203.87
-382.997
-141.981
524.978
-470.968
-216.449
219.085
-29.0639
265.03
689.473
-707.356
-49.1613
-273.07
322.231
80.4882
-710.319
629.831
209.826
86.7387
-296.565
292.486
-103.118
-235.073
230.351
-364.534
-42.3199
406.854
-710.725
39.3471
671.378
-485.832
-168.036
-94.4835
-282.69
522.259
-39.3189
-774.436
-19.5407
793.976
-199.789
541.066
-341.277
-204.277
480.959
158.982
-514.856
310.636
-101.483
118.279
429.033
-426.042
431.126
-318.862
-135.019
453.881
-524.038
50.5933
322.533
35.9782
30.0714
-265.144
250.004
-63.5318
-186.473
-95.6962
-99.0708
287.502
-75.904
-277.169
56.8344
220.074
-301.537
-91.622
393.159
-275.85
333.008
-57.1583
-72.8232
266.816
-330.91
-127.503
458.414
-238.877
106.477
132.4
-132.58
-47.0891
53.5239
-650.307
596.784
-180.898
-251.721
-290.655
-237.246
-336.496
-88.3195
-212.083
-68.6221
280.705
415.332
639.699
175.435
-236.758
61.3226
155.171
522.704
217.581
32.4238
171.18
-244.812
73.6323
-384.937
-151.161
-530.405
-90.0245
347.02
-181.657
315.254
-29.0404
647.962
-168.016
-4.69829
230.102
-244.867
275.96
-31.0925
713.545
1.81604
289.55
-601.987
492.401
109.586
219.108
59.263
205.567
-32.4695
212.941
-329.349
87.6412
-331.128
16.6975
-355.272
361.409
-6.13701
88.4429
-193.723
177.784
42.5611
-320.626
322.445
-1.81828
274.556
-337.056
246.471
-14.6394
-353.477
-126.255
-66.277
270.278
12.0986
242.832
305.4
2.83661
-381.094
-126.501
507.594
-80.8004
-150.991
-199.38
-23.6095
65.5824
249.223
262.798
-294.177
302.277
-66.4578
-244.533
274.621
-30.0885
-1062.46
718.996
343.465
-419.766
125.265
311.112
13.3292
-324.441
-59.8609
348.569
567.516
-178.827
-24.4644
203.292
-68.1621
-217.282
-264.965
-55.4099
320.375
-288.524
-53.8482
342.373
-70.0379
-510.188
-91.7992
-797.809
785.475
12.3335
45.9785
244.567
-290.546
50.4775
305.658
-175.098
460.597
-285.499
-233.778
-66.6337
-461.445
103.398
-208.369
184.65
-253.163
-314.545
-101.434
415.979
-117.523
449.08
-331.557
-383.071
-78.8463
-227.338
-97.5151
2.31555
-420.674
-119.324
-203.77
684.162
13.028
646.682
-659.71
-198.517
44.3598
226.759
-811.431
584.672
155.887
-396.869
298.185
-38.4941
100.632
-1006.91
-215.865
-104.581
441.456
-7.80224
-502.73
-388.34
-107.119
-657.427
206.177
-396.775
190.598
-5.95014
286.947
-325.419
-91.3559
416.775
-14.2475
-270.663
284.911
829.952
-116.406
-490.904
482.091
-59.5664
-714.869
-89.8869
439.521
-846.669
783.53
299.313
-468.972
402.937
-90.3631
-120.192
169.08
177.781
-346.861
-438.278
-244.648
184.813
19.4368
-204.25
-205.708
911.286
29.9054
-992.016
559.721
-211.565
-90.3726
301.938
732.122
36.9007
353.632
-83.5807
375.787
-355.621
-402.343
409.93
-7.58747
324.669
-327.109
2.44066
359.082
-94.0518
-15.226
-414.276
-144.149
-218.508
-115.197
-196.79
-103.105
-594.416
793.755
-199.339
-230.833
4.86778
-209.64
-419.902
-462.097
411.976
86.6776
-303.417
-104.577
-124.914
229.491
-44.2426
391.048
-346.805
343.474
-62.4082
216.966
-64.1352
-152.83
98.2605
-232.917
133.869
140.341
302.401
-92.5746
-317.794
-88.3077
220.22
555.454
-145.092
26.3479
-773.648
747.3
-276.125
107.731
-187.005
-30.1219
-73.3226
329.633
57.8662
772.006
-698.863
856.318
-110.815
-745.503
379.496
-76.2915
-303.204
102.747
-217.046
-95.4771
509.563
-414.086
-225.708
-62.728
24.8993
-735.218
434.102
-87.5876
-291.123
288.717
2.40603
-210.846
-52.5227
263.368
205.689
23.5135
-229.203
-32.8271
-100.666
-447.034
-615.428
-427.119
204.781
1.25842
-208.913
-12.7021
240.073
53.3668
-536.106
482.739
-313.661
223.27
-400.579
158.631
-359.434
686.358
-313.632
69.0286
-271.117
202.088
-134.847
295.857
584.844
-162.227
-214.76
-143.79
232.899
888.519
90.9545
-298.72
223.466
46.864
725.142
-12.929
194.235
-325.544
-93.422
381.994
-84.4845
-438.79
-514.775
151.291
363.484
-164.57
-517.559
682.13
-580.263
1006.93
-727.7
133.285
-465.929
-281.849
265.102
105.85
-930.284
61.3554
868.929
-337.172
382.005
-90.3669
-5.60019
359.906
324.809
8.19901
224.139
-199.486
-24.653
-302.576
96.8677
-196.041
-9.65419
242.785
357.963
-91.8415
646.309
-133.176
278.214
102.046
547.475
-118.462
506.272
-95.855
249.426
-30.0016
-219.424
423.816
-481.424
-329.687
811.111
541.748
-255.878
-282.04
-549.538
80.4799
469.058
303.583
-60.4352
-711.129
677.594
33.535
518.566
-67.3607
-32.0574
635.593
-603.535
-362.246
275.238
281.32
81.9312
414.74
127.566
-377.441
212.188
-26.0878
342.356
1.11813
-428.118
-127.724
-51.1341
590.126
325.479
-317.322
-8.15732
-509.895
54.3651
-371.703
-330.76
301.72
45.1035
327.667
-284.906
330.236
-54.9977
-147.515
-269.287
-254.233
-17.3
271.533
-401.076
-112.248
-32.713
547.144
-38.024
-8.1653
476.088
568.692
-26.3617
-168.138
-271.114
320.589
-49.4751
-68.6304
235.393
32.5033
-743.633
-317.168
-231.775
342.675
-391.793
-60.1837
446.52
636.898
218.593
-855.491
-154.718
569.598
-135.497
316.423
-245.872
-70.5511
-83.9132
-584.115
-199.414
26.3959
203.852
120.957
-139.933
218.484
-278.865
-283.768
335.483
-51.7147
230.628
300.078
-421.153
717.289
425.161
-287.921
362.449
-74.5282
-262.213
-457.347
-220.094
837.406
18.9114
400.184
-57.8277
-959.787
29.5028
382.989
-81.336
-744.56
-9.71162
-299.943
634.909
207.361
-90.2657
-100.146
7.78901
297.799
-383.313
3.6247
379.689
-235.744
-131.541
209.17
-103.01
-474.093
-89.7668
490.126
-82.2779
334.916
-4.24489
-306.651
-99.4934
-125.243
-519.314
371.478
-114.538
653.323
-628.423
-267.939
358.449
-90.5102
-228.518
63.2309
283.287
23.1723
-449.706
-471.638
-416.199
974.104
-460.896
-513.208
557.054
-105.64
-506.01
-117.877
-92.5254
18.4909
504.332
-123.508
8.03737
49.6507
179.609
-222.674
-210.179
59.8495
-97.7906
541.468
-123.594
-406.761
-338.092
282.716
267.318
-0.944663
421.181
-86.2646
-54.6582
-149.112
-158.16
-309.295
31.0417
67.2596
-266.639
439.211
-651.013
589.422
-107.185
-482.237
758.956
-726.452
412.876
-70.2007
-259.295
-294.759
32.1789
570.128
-123.608
-758.26
784.608
219.515
-4.05284
-215.462
-136.601
223.279
458.208
-57.0768
596.846
-146.572
-282.274
284.09
-111.44
-86.3831
-211.07
257.577
-46.5072
-104.361
269.976
296.863
-38.0457
-42.1761
251.061
-473.514
-278.163
270.7
-235.184
-35.5156
-411.691
400.43
11.2608
-18.0792
-130.172
294.656
288.923
-295.118
6.19495
-246.13
-91.3966
-12.8658
141.709
-323.734
401.334
-43.2426
787.222
-743.98
-507.199
340.125
-40.0471
29.3396
348.084
12.2466
-360.33
7.03189
381.923
218.243
494.318
28.0981
493.459
26.5749
355.417
-47.836
-65.4177
236.597
248.177
62.9429
-869.255
882.283
-301.289
286.017
15.2721
-550.492
251.707
-0.645846
782.306
-573.877
-208.429
261.25
-186.827
-74.4227
433.291
229.393
26.5432
494.545
-199.466
618.799
-419.333
88.7969
-50.5459
842.448
-791.902
-409.886
293.388
476.738
198.963
237.259
-0.867928
225.816
-177.583
-476.051
653.634
36.975
209.496
56.8257
-561.208
571.26
-508.808
809.64
-270.27
-539.37
-280.17
-179.725
64.3672
270.408
0.713911
-228.688
-276.664
-351.102
-495.213
5.74918
186.585
-192.335
293.159
266.527
198.061
-792.579
768.498
24.0807
-14.9881
408.882
-451.539
42.6568
278.782
76.608
0.504209
761.82
-762.324
86.5874
234.002
57.7548
90.8806
-293.172
307.696
-14.5239
-911.786
-52.5746
198.764
-122.772
-485.104
607.877
-296.632
841.797
-147.888
-388.995
-120.901
-561.385
115.846
376.926
37.8847
-257.009
-25.2645
197.771
-148.12
6.44525
846.638
46.7507
-15.67
305.22
473.618
-357.528
-116.09
-630.314
246.584
383.73
121.261
166.242
359.163
-356.482
259.766
134.594
281.385
229.788
241.102
33.5187
69.7134
-483.961
414.248
827.964
-245.275
-582.688
168.01
204.06
-372.07
354.969
402.128
249.789
3.69294
-626.271
-305.973
257.813
-889.912
368.2
79.0771
-458.209
71.7629
-634.235
-100.983
247.91
-361.758
372.281
550.294
-568.3
645.1
-76.8004
-12.9369
374.789
411.28
-332.836
-32.0351
167.684
-135.649
-303.475
297.923
-18.4411
643.83
-347.52
-22.9473
377.973
-355.025
78.2789
-184.057
247.804
-63.7469
-277.504
226.206
51.2975
279.727
529.913
148.832
-404.594
433.683
-1086.35
1086.86
115.337
-9.08207
434.349
162.6
-54.8695
415.888
338.447
216.164
24.1274
276.025
366.021
-26.1148
-339.906
-650.297
648.537
1.7599
233.746
199.539
-12.9531
502.24
-432.527
-213.147
763.441
284.348
89.6399
260.885
-367.975
-176.409
26.6356
244.064
756.295
-168.106
-588.19
-869.964
938.747
286.333
357.724
242.793
-229.464
554.106
-992.383
443.344
326.888
310.493
-42.8378
452.869
291.553
59.7769
-417.905
358.128
-209.887
312.744
-13.6523
-23.4092
-824.368
694.148
834.549
-202.575
335.147
264.591
122.457
340.817
-20.1243
-320.692
269.724
295.991
282.704
-190.968
89.9518
-274.909
285.113
-10.2035
432.814
-545.029
-253.426
-4.8477
221.011
452.435
-578.936
-277.79
20.7803
450.804
-118.858
-233.518
352.376
-329.199
-185.576
634.869
106.169
426.521
-943.321
516.8
-461.077
418.643
42.4337
-3.35616
254.924
-251.568
334.422
-256.143
258.651
-236.058
-22.5926
300.524
29.4402
-213.497
-847.717
83.7355
338.478
-422.213
-31.3568
720.849
-689.492
323.344
-296.348
-26.9963
-445.696
452.697
307.702
-249.836
-400.001
978.652
-578.651
282.935
-13.8986
198.712
547.717
452.283
-176.856
211.176
11.4393
-222.616
-28.3231
400.374
-593.269
33.5342
559.735
205.106
248.644
-346.159
-40.7955
-370.895
-911.286
860.741
-486.792
1034.51
337.698
-53.0839
240.288
-2.01511
-238.273
489.516
-435.589
55.2994
-705.607
-460.51
-0.566849
-259.498
319.942
-469.52
-499.084
298.796
-18.692
-280.104
-959.205
421.162
-797.809
158.032
33.9557
-191.988
31.7941
598.037
648.769
-634.075
-285.136
833.494
-71.6009
212.568
366.177
-526.369
160.192
-123.222
350.43
-227.209
-703.763
750.627
-387.9
211.209
-224.899
234.108
-9.20902
-275.106
701.627
314.702
617.736
27.8315
-786.092
-232.31
234.667
-339.248
-45.2921
-227.899
239.589
-895.772
980.132
176.128
39.4578
-215.586
265.771
-299.428
-83.3257
13.5966
387.691
209.854
-597.545
502.734
-902.736
500.844
-50.2667
-223.727
-4.51782
228.245
-114.611
-194.684
-288.396
73.0045
-164.568
-138.738
303.22
291.174
-264.539
-115.439
-319.061
434.5
282.253
290.696
-17.5583
-294.142
311.7
-691.351
18.1039
849.964
-911.786
965.679
-965.658
947.089
982.123
-982.123
-869.964
-1006.91
271.334
-233.449
-241.009
-234.626
-188.813
-4.06801
750.03
-966.588
216.558
-882.283
13.7396
-284.188
194.23
-36.1974
-763.393
791.224
228.633
-6.82909
-221.804
-266.537
252.289
-11.7077
-249.676
261.384
247.766
-14.0418
-233.724
202.549
-229.869
-23.4669
-253.325
276.792
-188.219
200.922
-12.7023
250.762
281.238
-348.153
407.93
107.387
-184.502
77.1151
-380.067
-598.178
-194.373
207.586
-13.2132
-419.864
-84.0078
503.871
195.775
-176.338
42.9293
202.118
-25.99
-359.758
262.479
491.975
-119.694
209.228
457.646
-48.7639
307.704
-381.658
73.954
18.9212
-635.393
667.187
262.67
-462.136
-783.777
730.321
53.4559
480.807
497.846
70.8058
421.169
-262.538
256.588
-73.1217
-710.656
235.45
-325.823
707.121
-906.46
335.349
-741.846
406.498
130.283
262.9
-205.111
-57.7893
-48.6021
-388.576
-867.572
592.466
-2.75597
260.489
3.92918
-305.485
301.555
17.9297
-44.1447
236.613
280.931
-36.8671
184.48
-57.9464
-126.533
738.495
20.4603
272.482
305.293
6.5489
182.473
-226.353
43.8799
226.663
-301.571
298.104
-310.753
-203.286
217.452
-14.1661
74.6742
-494.538
238.256
163.078
-86.0891
836.119
-606.996
430.905
566.573
-663.517
218.878
-320.361
312.774
-435.996
184.05
-299.246
218.59
-195.077
-315.622
212.505
-191.871
-8.47335
200.344
215.134
-318.239
367.69
-265.961
-101.729
-2.15204
484.891
-442.527
-560.353
1002.88
-733.247
637.81
-50.396
-319.986
370.382
21.3967
52.2356
-288.911
278.853
-271.895
-5.89486
198.168
52.0077
-250.175
-182.812
-213.963
-291.189
222.292
-208.002
-14.2899
-305.485
-406.583
406.583
187.866
-658.834
163.932
166.149
301.555
727.313
-234.911
-41.7811
-645.896
687.677
523.176
-83.2122
236.932
-365.683
316.522
385.195
244.72
4.29967
231.2
-171.589
-59.6105
-37.3638
-686.689
686.689
-174.163
-388.63
-91.7272
-116.642
205.686
20.2617
-138.08
204.723
-423.9
479.708
-155.263
-204.171
728.021
-501.178
-226.843
-110.972
-106.074
527.633
-170.722
-102.892
-34.2896
-486.57
520.859
-500.453
-287.403
509.768
-15.2228
-23.7115
-720.969
543.386
-458.377
-65.6612
767.709
19.5135
232.093
-112.995
773.804
-660.808
94.3983
845.416
683.234
848.419
151.617
-215.752
-387.747
-72.7632
-238.37
248.859
-219.749
49.7183
-174.608
-897.344
41.2613
856.083
14.6871
395.684
811.091
-264.507
248.627
15.8804
1066.35
-542.372
-523.979
-168.661
6.9614
475.13
202.657
-36.6535
278.818
271.486
427.485
-772.045
956.32
-184.275
-343.223
5.13039
232.878
18.6104
665.552
-80.8646
-220.425
-175.979
-240.221
202.642
92.3008
635.012
690.126
-731.907
91.9135
-795.677
23.1142
654.48
752.286
-849.623
97.3369
-627.689
536.207
91.4819
627.302
-563.635
-63.6668
-446.939
521.613
50.7604
-89.558
-123.089
212.647
128.265
305.021
-599.617
431.58
187.137
-187.137
-200.447
219.424
-879.251
436.724
-657.164
534.392
-549.538
869.255
-955.344
24.1751
-237.577
206.329
-174.704
-222.165
-245.978
23.0942
357.943
36.5122
342.983
-353.06
-359.358
32.2486
422.876
-678.754
-55.3094
-726.811
782.121
223.109
-275.632
55.3014
114.546
-239.46
-623.68
655.943
-194.738
-58.4249
8.0583
532.761
138.307
-311.152
-19.6076
-455.101
957.835
864.05
-864.05
334.06
43.9125
13.2865
462.801
-761.609
17.6298
650.009
17.1784
80.2901
417.398
-497.688
216.494
303.289
-3.86591
9.14722
672.483
18.6468
-828.568
629.154
195.757
303.078
-498.835
-823.73
553.461
210.623
-410.195
21.5405
-649.964
-185.763
-44.8833
230.646
-89.7177
206.469
-116.751
15.3528
45.3483
357.204
41.7187
-204.8
17.1805
-269.812
530.031
658.66
62.1895
12.2536
125.893
-95.7897
-194.756
197.84
395.711
-506.922
-707.86
-64.1854
-201.611
-467.117
-476.204
-274.021
-360.606
624.797
-515.21
6.78795
798.256
-805.043
317.801
49.8895
393.773
-59.7126
616.325
-52.8262
-563.499
313.714
-15.4464
-569.564
-96.0105
665.574
-28.1637
-240.736
-602.832
434.816
-164.296
-68.6581
232.955
228.617
611.249
66.2411
-232.282
-97.0674
25.0889
205.674
-546.276
638.577
194.911
3.8003
-200.387
398.47
-198.083
298.645
-845.419