/*--------------------------------*- C++ -*----------------------------------*\
  =========                 |
  \\      /  F ield         | OpenFOAM: The Open Source CFD Toolbox
   \\    /   O peration     | Website:  https://openfoam.org
    \\  /    A nd           | Version:  7
     \\/     M anipulation  |
\*---------------------------------------------------------------------------*/
FoamFile
{
    version     2.0;
    format      ascii;
    class       surfaceScalarField;
    location    "14";
    object      phi;
}
// * * * * * * * * * * * * * * * * * * * * * * * * * * * * * * * * * * * * * //

dimensions      [0 3 -1 0 0 0 0];

internalField   nonuniform List<scalar> 
11512
(
156.245
-508.322
352.077
-757.133
-15.9257
773.059
422.453
-389.028
-33.4256
645.209
271.954
-917.163
1543.35
-1094.16
-449.185
1212.62
-1532.02
319.397
-59.2425
495.633
-436.391
173.786
-862.286
688.499
977.189
-1641.54
664.349
-1774.36
1684.47
89.8916
-564.463
1777.09
-1164.67
1975.48
-810.807
620.114
185.294
-805.408
-23.2091
-1334.83
1358.04
224.957
-1999.32
1048.76
-389.364
-659.398
-173.473
329.718
495.62
190.3
-685.921
1182.57
-1342.05
159.476
-312.566
388.117
-75.5515
1023.31
-1329.65
306.339
1246.6
816.452
-2063.05
70.447
-1664.63
1594.18
-495.571
-1160.65
1656.22
484.839
178.634
-663.473
-199.55
-308.773
507.059
1036.29
1671.08
-1827.01
155.929
-101.668
-1688.56
1790.23
-1592.92
663.167
929.752
-312.613
669.688
-357.075
-129.847
-119.114
248.961
1303.45
-1233
366.821
-1437.54
1070.72
-1288.31
1288.31
97.321
1550.82
-1648.15
-1099.61
-493.305
662.962
-722.205
-392.088
963.419
-571.33
1306.58
-1298.58
-7.99885
-1125.93
733.844
644.229
404.534
-390.354
-48.6351
438.989
-436.029
772.489
-336.461
-1141.9
1141.9
1250.27
-1411.98
161.713
-499.112
1745.71
1285.16
-321.739
1692.63
-1182.34
-510.297
87.6369
-400.203
2108.05
-1158.17
-949.881
1837.14
-166.055
456.299
147.435
-603.734
-458.006
989.214
-531.208
-1185.26
1282.58
-580.848
994.047
-413.199
412.812
769.762
673.814
-500.027
-448.238
611.724
-163.486
1217.28
-850.458
2348.73
-1100.21
-1248.52
1187.75
-2050.33
862.589
-1624.36
1601.16
450.152
-1614.82
-714.18
1224.29
-510.107
-689.762
377.149
1693.12
-715.927
-1125.56
-885.877
2011.43
675.325
-365.541
-309.784
705.634
579.523
-264.946
1515.21
122.372
-330.117
207.745
-291.355
776.194
-322.391
527.696
-205.305
-332.171
827.791
-325.904
-155.18
481.084
337.989
84.4641
1475.17
-451.855
-986.247
494.334
491.913
289.649
90.8583
-380.508
971.385
-351.271
-1734.11
631.686
1102.43
26.3454
-867.003
840.658
-288.025
609.483
-321.458
162.209
-1118.91
956.697
969.383
-987.192
17.8088
383.007
530.285
-913.291
-248.935
705.234
-1125.38
-494.52
1619.9
-575.396
845.021
-269.626
1354.49
-1456.16
-631.836
285.106
346.73
-482.227
-1025.32
1507.55
-552.786
-809.211
1362
587.294
-1015.31
428.012
-155.732
-245.571
401.303
420.472
-298.099
-1057.65
599.647
977.558
-815.348
-109.453
867.899
-758.446
-205.435
414.472
-209.037
-626.28
-359.967
-396.573
983.867
1425.33
-1425.33
-460.154
-171.681
-949.815
1569.38
-619.561
401.283
-856.843
455.561
-945.982
365.135
-954.624
-1075.14
-1517.18
359.737
1157.45
-280.047
925.256
-306.738
624.852
-318.114
-1971.78
1017.16
-1153.33
-363.853
566.194
-1516.01
1761.91
-1760.89
-1.01631
224.961
-614.806
389.845
-1471.85
975.9
495.95
299.599
215.867
-515.466
313.312
-635.703
211.376
-348.069
136.692
2034.47
-837.391
-1197.08
-558.752
168.398
633.342
848.915
-1482.26
-173.151
384.527
442.594
894.35
-1336.94
-931.955
405.393
526.562
-1066.06
1478.87
-950.974
236.793
772.527
-102.839
545.06
-277.212
-267.848
1012.53
-518.2
609.401
-1434.43
825.028
-1371.74
246.357
-554.428
266.404
-1197.48
917.438
1991.66
-1116.17
-875.49
277.314
1148.02
-2136.34
911.686
1224.65
256.502
-19.735
-236.767
-198.239
395.695
-197.457
-120.044
-384.193
504.237
-480.813
154.909
329.457
-73.1261
474.409
415.943
401.334
-817.277
-2047.42
1128.29
919.13
472.15
-547.941
75.7913
178.728
-272.027
93.2998
984.32
1050.15
1804.58
-253.752
722.977
-437.872
812.838
-1420.34
607.505
346.952
328.374
1065.39
-1039.05
-514.041
-240.527
754.568
493.037
-142.125
-350.912
782.691
-597.396
607.432
-791.603
184.171
515.039
1177.6
-1268.03
715.24
1038.09
-1533.66
2.3285
-1466.82
1464.5
332.8
843.555
-1176.35
633.115
269.193
-902.309
-2276.51
1167.39
1109.11
-1130.76
-1145.75
217.932
389.5
980.615
-647.815
777.467
-792.869
15.4019
-2135.38
1009.82
-113.01
-126.824
239.834
-44.4796
1806.39
-839.631
82.4974
-1047.77
-1088.57
-204.957
383.684
-668.616
208.462
-268.304
-427.451
695.755
1120.7
-1602.93
796.731
-1403.81
607.076
705.106
-433.152
1968.15
-1453.11
-370.096
-918.217
80.0064
415.627
-542.414
526.489
2.18371
-573.324
571.14
585.858
-286.259
-612.265
286.112
326.153
797.668
-381.725
21.6921
234.809
1211.76
-1209.43
186.978
233.494
395.488
-663.793
632.388
-1028.96
-2064.28
2064.28
-254.734
-452.843
707.577
716.518
411.51
-1128.03
593.401
179.126
401.958
395.71
-2237.71
1351.83
-945.258
-694.066
1639.32
-487.741
-709.743
-263.476
552.082
-288.606
855.606
-207.904
-647.703
-432.996
657.956
387.465
-694.203
-349.189
-145.441
494.63
-1342.66
-484.348
642.106
-1129.85
-365.299
-776.599
858.921
1489.81
269.073
-507.345
238.272
989.727
-345.498
1421.77
-812.368
458.667
-271.689
-338.554
-895.993
582.039
313.954
-341.566
-554.428
313.124
-433.168
-215.838
-144.154
359.992
-402.777
1119.3
429.557
-239.256
-378.585
1372.02
-179.572
-1192.45
-478.728
274.036
204.692
235.232
246.718
-481.95
12.2151
-803.818
605.01
-1761.94
1156.93
1512.62
-879.276
-1050.06
-421.789
-1082.29
586.744
495.549
1391.76
-415.86
947.52
-1442.04
-171.468
-220.96
392.427
-479.279
595.904
-1661.96
427.909
878.671
277.049
301.108
-578.157
543.534
744.778
1130.52
-733.473
-397.051
414.476
-223.491
-190.985
-1447.28
456.156
754.054
-1210.21
1505.04
-557.52
-490.744
933.836
-443.092
437.637
1204.61
-1642.25
24.8975
-600.293
-147.551
437.201
99.8065
-229.654
527.605
484.93
-663.496
59.883
603.613
1011.18
-1274.8
263.62
676.983
-275.025
481.042
-1477.09
996.046
422.435
1721.31
-533.563
858.312
1133.35
-678.882
-1720.05
774.794
583.595
393.835
-977.43
461.912
82.4442
1783.33
-1865.77
1431.89
-391.857
-1040.04
1731.77
-1776.25
-376.659
-521.05
735.787
-214.737
-520.835
191.793
301.244
-382.191
-1246.26
220.934
-783.789
-650.64
-630.345
1037.97
-407.624
-514.321
506.714
7.6067
605.79
-814.136
208.346
-318.018
96.007
222.011
-662.751
-696.741
359.613
337.129
-948.162
1429.2
-416.913
901.972
-485.059
-2243.39
5.68661
189.485
-552.843
363.358
150.717
1221.3
-101.783
-566.833
166.019
-614.257
1518.35
-721.616
382.692
-478.432
95.7395
-161.232
161.232
769.292
372.606
1814.21
-1256.63
602.939
653.693
824.435
-41.7449
1318.9
789.144
-553.554
1366.39
298.953
310.53
291.238
-812.289
248.993
-685.022
230.149
-432.035
201.885
-240.471
593.294
-352.823
131.46
-371.931
-603.83
-578.625
1182.46
-363.231
533.373
-170.142
-1196.7
2058.84
-862.142
1319.02
-338.408
-205.724
49.9921
-1987.84
827.192
1543.92
-847.935
-695.985
2024.4
-894.683
-1129.72
729.94
589.082
-241.468
471.617
-677.258
1150.83
-473.568
-785.524
1228.12
563.141
943.46
-1760.88
817.421
-540.781
-78.9123
619.694
298.447
246.613
423.729
-107.681
-316.048
810.861
-77.4771
-733.384
923.175
-554.777
-368.398
1604.8
-484.093
905.819
-1660.62
754.802
1093.51
874.644
768.871
-457.537
-311.334
-1030.96
-267.618
565.51
597.345
-1162.86
-449.888
503.698
-53.8103
593.53
-356.927
-236.603
-1003.5
586.591
610.54
902.078
-453.412
1059.2
1433.8
-781.698
-652.104
410.049
-948.625
538.576
-1032.41
406.134
560.334
-1051.08
462.175
-521.197
59.0215
478.865
293.624
-136.184
-25.048
-812.005
-895.153
1707.16
200.346
214.13
-236.676
454.607
-41.7397
-545.863
587.603
491.782
887.999
-1379.78
-544.128
328.29
862.981
-52.1197
853.448
-1088.98
235.53
386.517
863.663
-1417.22
-449.318
850.652
2018.69
-1309.91
-708.775
256.185
521.282
246.951
722.432
94.8651
-979.218
884.353
1705.41
-1106.63
-598.786
-142.312
1925.64
-1901.09
-163.186
474.025
-602.366
128.341
-1039.31
538.651
500.657
-1728.87
532.171
-971.538
862.085
401.42
210.304
531.359
-262.285
-437.994
729.52
260.207
59.5635
768.845
-828.408
-1162.61
-869.239
2031.85
-534.99
1109.67
-574.675
-465.014
-144.391
31.3811
-1689.04
877.033
-848.439
-623.602
1472.04
-305.556
-291.515
597.071
369.232
-659.193
289.962
237.055
-618.78
310.426
221.069
-531.494
346.121
-609.597
629.256
-260.025
322.72
-477.9
676.917
409.654
-174.422
-387.807
-308.934
1237.4
-7.91023
-1229.49
1063.19
-430.806
572.127
421.92
-1800.84
868.444
932.398
509.698
551.113
-1060.81
-471.041
165.485
-268.84
1206.16
-937.32
-1589.15
1219.05
516.518
-1120.35
398.732
-16.0401
425.395
307.079
-732.474
382.477
-631.412
-28.9171
771.517
-742.6
-496.592
765.785
380.76
320.473
503.963
669.656
85.4034
-398.382
312.979
1013.2
-600.612
-412.583
506.046
-1695.52
1189.47
-1159.43
1786.68
-627.242
1748.43
-1143.42
-342.225
628.337
-1184.48
1279.34
348.429
-816.354
1628.37
-812.017
-249.053
-229.674
-930.108
1501.72
1849.82
-624.797
-1225.02
-415.698
716.323
-1346.67
-83.0745
-38.8545
462.584
-692.929
-363.601
-1225.55
-233.011
470.066
902.036
-576.501
192.308
-1707.71
-73.4604
1781.17
-1074.21
539.223
585.679
-1207.01
621.328
920.736
929.082
634.451
589.837
692.078
241.757
-1146.33
469.071
-416.625
418.808
638.168
-526.692
260.262
-753.892
493.629
688.337
-341.385
-284.499
165.385
-603.404
224.702
378.702
-908.733
-751.888
1104.7
-2179.84
410.586
-701.941
-341.611
-645.58
852.885
580.917
-360.169
311.534
361.691
237.18
674.576
-911.756
527.851
622.976
-537.108
187.919
364.823
-619.557
-1124.51
-802.917
1927.43
-1825.52
160.889
1130.29
-1399.13
1175.5
-727.106
-448.39
-516.012
1379.68
-1524.38
643.699
880.68
-183.847
-167.275
351.122
1455.3
569.099
330.898
-476.339
-499.819
-574.794
1074.61
-426.263
615.748
1615.79
-1152.44
-463.355
-782.351
329.509
609.011
404.184
-1654.15
427.41
1226.74
-208.996
519.422
814.76
801.033
206.674
-689.941
483.266
207.821
206.651
-258.05
-101.226
359.276
482.893
-1.77974
-481.113
-1649.75
599.688
-1614.85
1686.33
-71.4805
14.6533
-1629.5
1066.59
763.311
-337.916
-812.176
-220.238
-1160.44
-243.366
-319.287
701.764
-1850.03
-634.727
1232.07
210.787
778.427
-1357.82
-692.516
-477.391
608.461
-331.411
-1029.19
1376.16
-1970.75
594.584
659.792
1315.68
397.003
-1.30787
735.465
710.525
-1445.99
-656.907
349.005
307.902
370.775
-88.4822
-282.293
162.463
290.547
176.377
-466.923
-584.78
1168.37
465.753
-620.03
-471.551
-413.124
884.676
-356.634
185.167
-472.67
174.571
-313.741
-725.568
450.876
-80.101
-580.664
990.713
403.528
-207.528
-196
467.649
-799.82
-661.55
437.125
-1148.11
-843.477
1203.21
-581.79
468.401
286.167
-450.62
85.0794
1053.63
-221.559
457.253
-235.694
-523.383
1589.98
-749.794
238.88
386.458
-625.338
222.53
478.924
-22.5408
-456.383
-258.898
-213.772
883.829
1127.12
578.291
-880.889
957.359
-76.4696
-249.738
65.8916
-734.643
307.193
-651.281
319.518
368.819
838.041
-1245.36
407.318
796.515
-825.432
-960.605
-566.091
1526.7
-160.971
462.079
-539.982
262.77
1348.01
779.897
-573.223
1329.57
-687.466
499.833
-692.929
-420.313
-434.24
-388.182
822.422
514.681
-865.952
-450.258
89.5157
360.742
-277.785
586.491
748.837
-338.251
-239.692
-175.054
414.746
-505.482
153.473
352.01
1487.31
81.1734
-1568.48
-764.312
1374.85
-1168.99
-472.549
550.473
-164.015
1175.63
-379.112
1100.35
504.447
709.916
-418.678
-900.892
-536.644
-1352.46
-31.5059
1007.17
-975.664
603.239
333.484
-936.723
-323.804
-234.948
-744.255
413.04
1651.24
-179.113
368.196
364.669
-732.865
-1875.36
-2143.79
1545.36
598.431
-2042.16
353.604
368.613
540.686
-909.299
-472.07
1044.2
-402.972
-675.436
1078.41
-2065.95
1414.55
651.408
602.717
-1005.69
59.2722
402.903
393.551
207.82
250.847
317.953
971.33
874.17
698.635
-335.795
-362.841
-303.264
639.053
-335.789
588.662
541.863
576.167
517.786
-1093.95
-808.547
-715.832
770.7
404.928
-424.065
714.027
-1212.66
1640.07
429.78
-1105.22
-326.539
547.607
-1408.5
900.649
507.846
-716.549
-340.919
-836.274
380.322
455.951
458.592
733.029
-1191.62
1091.96
-582.262
-401.189
671.665
-270.476
202.504
201.025
-478.95
-443.578
922.529
-250.584
556.474
-963.381
406.906
-484.245
611.397
-1711.61
434.67
684.863
-1119.53
537.216
87.636
115.592
-2250.97
554.008
-85.607
1474.55
1807.28
-220.489
-1586.79
-447.128
1823.29
-2026.72
1217.89
808.835
416.093
352.779
-27.8782
880.763
-1312.04
733.415
-892.074
-842.792
811.286
321.834
52.4099
-374.244
113.17
121.981
-235.152
1580.36
-844.893
-1095.26
-330.069
480.229
-197.478
-282.752
403.451
372.743
247.356
361.105
-8.23583
1022.82
-1014.59
377.158
279.809
-656.967
-747.704
1851.27
-1103.57
-352.012
755.462
-1233.42
-414.728
-938.497
494.919
579.163
-790.875
211.712
782.21
-391.616
-390.594
-423.574
-457.315
451.054
1088.18
1263.22
-677.539
822.039
-354.39
388.522
319.054
-262.323
-216.109
-212.992
635.427
418.45
-869.714
451.265
214.087
361.823
-575.911
-433.857
852.307
770.698
-1173.47
892.136
-54.0955
-506.539
287.779
777.613
-97.6109
1413.29
1922.87
-75.8084
349.844
-322.813
408.217
-1108.68
1100.44
624.514
386.06
396.15
58.2279
422.001
277.194
495.865
-378.551
-278.356
-431.471
-82.8497
-364.615
378.988
-14.3735
-261.94
-292.488
1028.9
-1572.37
543.472
-202.635
-186.393
-386.959
666.768
-1659.83
1621.06
-977.366
263.529
-683.842
596.177
1244.63
-1840.81
622.846
998.219
308.796
-1143.82
705.829
-290.203
-287.954
1393.33
-1471.79
836.012
635.777
413.347
-632.711
219.365
-363.07
486.185
-123.115
371.283
111.61
1759.91
464.388
-256.568
570.273
-1736.44
1166.16
-92.4442
400.05
351.209
347.426
-459.803
-628.486
1088.29
434.408
-883.726
-654.308
920.355
584.685
-165.146
-152.872
-450.498
-419.216
-316.494
-843.947
1390.02
-1390.02
-100.803
-1602.85
1703.65
299.232
294.298
-933.519
-569.953
1503.47
-418.203
994.37
-609.88
-1039.87
686.741
401.328
-1088.07
491.558
-168.839
584.302
1240.52
-1824.83
-1052.35
2115.67
-1063.32
-382.053
-307.709
-493.962
823.47
-1783.55
1631.29
152.262
1783.55
-1633.47
-150.079
-252.75
537.094
-284.344
-549.499
1649.85
1582.26
-1996.99
1092.88
-286.854
-257.443
544.297
252.026
-578.565
-712.396
288.331
1369.81
648.878
589.444
498.276
-1087.72
293.526
416.39
889.627
514.045
-1403.67
541.427
-1041.25
1606.85
-577.948
-776.288
-372.388
-117.251
489.639
-502.356
1235.39
-761.264
340.418
364.816
361.858
267.377
-629.234
613.884
851.407
-615.877
278.323
679.036
-165.146
-321.479
-233.95
555.429
1187.89
-672.885
625.576
475.459
-1101.03
-1040.92
1040.92
-396.825
782.885
-296.081
-483.528
779.608
491.389
462.516
-953.905
396.135
-692.216
629.382
-888.957
259.574
-377.394
-508.901
1098.34
-677.4
-724.344
1401.74
-388.849
945.323
-1582.18
687.494
45.2937
-419.88
374.586
-503.824
712.286
256.191
337.103
177.249
314.31
-520.58
230.377
1908.43
-2006.04
281.027
-714.023
453.189
-841.077
387.888
-911.97
1428.82
-516.852
-440.956
-497.541
614.005
1144.47
-1758.47
-733.815
351.762
-470.324
1058.99
-781.77
1060.09
-369.299
-645.489
-482.363
731.356
514.725
-336.091
925.797
-306.197
-199.285
1627.57
-1848.06
-359.312
-604.069
-338.508
491.981
261.479
-592.89
-190.057
1076.54
-788.765
223.803
-289.843
-290.448
580.291
408.824
-893.998
485.174
-494.218
-452.608
-507.345
-339.246
579.164
-239.918
-458.05
-424.823
-326.982
-204.512
-386.208
653.585
-450.225
769.28
-1097.04
637.232
-1412.06
563.617
-28.0062
-1872.4
1900.4
584.828
-460.519
1230.1
-690.877
62.4043
-62.4043
684.597
-439.339
1040.07
-1649.95
-1178.51
-965.286
301.898
337.154
895.768
732.603
-491.751
-314.576
806.327
1691.11
-1719.12
-442.786
361.257
224.601
1161.33
-535.758
-960.143
1578.17
-618.023
457.742
-249.922
385.782
388.38
-774.162
534.269
488.905
-1023.17
-338.407
678.825
-39.0061
1947.44
1606.27
1011
-1732.62
741.808
-1203.77
461.965
-506.491
1396.12
854.931
-1370.94
-557.414
270.56
808.962
-415.127
569.031
-1213.78
644.747
-655.082
-1236.39
-709.288
1945.68
-211.651
556.87
-345.219
-178.291
291.647
-503.298
332.06
384.542
-716.601
-1510.78
775.041
735.735
896.406
-1462.5
846.689
-441.297
227.87
-375.421
-590.079
268.6
-677.836
-730.659
713.962
518.056
-1232.02
405.126
-209.813
-195.313
568.229
-981.428
-568.606
-428.583
735.775
-846.917
-1179.81
-1467.06
512.144
954.912
11.8209
-635.051
344.816
290.235
-1335.44
1068.62
266.815
-629.464
-467.572
-677.739
924.69
413.742
-211.489
-202.253
521.876
997.781
-1519.66
996.785
-401.342
133.509
267.833
-405.093
684.417
-403.39
-521.904
183.396
239.427
-1549.34
547.784
544.176
-754.367
250.543
164.847
-471.044
384.89
-837.498
1986.03
-1214.62
-771.417
410.608
-676.497
265.889
203.846
327.757
131.262
-459.02
-571.906
199.128
265.26
-709.461
1402.53
-693.07
434.708
476.734
-1193.28
275.153
1901.18
-1034.58
-866.604
773.971
-532.427
193.181
1425.76
-988.546
-437.213
349.062
-788.401
-630.551
1757.67
628.661
634.558
329.36
-7.52566
283.228
-1157.45
1758.14
-600.698
-1795.14
834.999
1772.03
-1699.84
-72.1916
-674.074
257.449
573.7
-718.008
235.645
1433.28
-578.345
405.285
445.367
-1894.52
1447.4
550.587
-422.47
-128.117
221.788
-548.77
-278.831
-186.182
-363.357
714.566
-583.995
211.607
615.072
568.7
-1183.77
1134.14
-1986.24
852.092
173.138
321.492
-1735.12
1696.12
330.338
-749.015
-167.588
395.458
764.123
696.518
-1460.64
1088.19
-1096.1
543.525
-1125.79
-648.264
261.997
386.267
524.71
-300.008
-620.514
-1029.44
310.096
-734.919
-927.194
193.799
171.495
233.631
386.59
308.378
-694.968
-637.976
-851.857
-998.169
507.637
-1079.54
-284.474
489.166
550.222
652.992
-164.612
-41.1115
-411.926
720.722
285.457
-1223.63
585.651
1333.6
-569.475
460.047
-1028.65
-244.713
166.788
383.8
1041.36
565.481
-1724.47
1623.67
1643.87
-582.665
-1061.21
1942.53
-1930.54
-11.9909
205.435
-528.248
-342.119
565.922
-771.833
-322.48
-351.594
1023.36
714.94
-1519.86
804.922
366.937
-25.9351
1653.5
-1095.52
422.635
-1251.75
475.464
-60.6152
1547.92
1224.77
-482.958
-365.948
-35.3941
-274.414
750.415
-1986.8
-729.867
354.388
-548.707
194.319
86.2127
-307.772
1161.31
684.918
-1846.22
-609.5
187.03
959.058
-1529.01
-219.344
683.087
-463.742
891.12
1108.88
-749.295
1377.96
605.75
-483.116
-122.634
-359.425
1195.44
1057.37
-1982.59
925.224
-1195.26
560.536
1520.43
-600.073
-375.01
-162.097
-1266.91
589.376
1187.18
-84.7557
965.9
791.82
-1757.72
-222.113
593.084
-1573.89
980.811
500.789
931.952
-1432.74
627.187
604.885
387.48
-1125.25
464.969
1129.57
693.273
-361.691
-331.582
-1207.03
-1788
-4.93559
-1719.54
-216.452
-416.26
1640.94
-638.818
-1002.12
-505.43
1139.88
-1344.82
652.54
692.276
-1388.95
1470.12
-1357.57
608.276
1552.14
-397.524
-573.965
198.955
-1494.63
241.449
179.501
229.041
376.709
434.843
408.157
-843.001
520.876
-955.211
918.476
-1476
-702.718
243.866
458.852
-1061.06
476.279
-477.63
882.915
713.451
34.1176
-532.392
187.173
-901.305
-1342.09
-734.912
360.338
374.574
416.742
-741.678
324.936
-457.781
-182.713
-610.157
732.207
1571.22
-605.316
824.864
755.493
1370.84
-856.798
-989.254
-584.641
-818.32
438.101
380.219
-1060.27
-660.499
313.889
346.61
-1438.7
-290.17
-811.541
408.987
402.555
-656.962
396.817
260.145
-686.683
283.293
423.92
498.609
400.231
452.076
489.372
395.304
608.749
-990.94
683.17
485.205
460.234
360.073
-820.306
1660.69
-1097.26
-563.427
-518.007
-284.798
-1050.64
465.721
356.701
420.211
606.51
-1026.72
-1409.29
770.476
-549.31
1170.64
362.718
-72.1714
422.859
-887.652
464.793
-1902.54
299.692
448.707
-733.619
284.912
-190.156
417.3
-227.144
-679.727
318.862
360.866
-692.884
330.043
380.552
402.333
625.744
-1043.95
770.349
675.435
-1445.78
449.825
638.464
340.068
371.827
-711.895
419.268
336.194
604.84
674.36
413.825
593.894
-1034.23
440.337
-1695.57
1188.99
506.584
1729.07
-551.47
635.843
-1173.87
538.023
-641.241
349.726
448.711
-958.118
509.407
755.394
-448.315
359.273
355.293
568.843
-928.155
665.686
-1282.23
616.547
380.208
749.744
-1252.1
785.238
522.242
-1307.48
484.008
421.873
-905.88
-514.714
-952.342
-313.552
645.611
363.288
551.274
-914.562
342.667
336.158
-513.911
1978.41
444.224
-861.14
416.916
-936.087
-824.794
-768.895
378.301
-1234.96
453.186
-1762.04
1633.47
128.577
1779.73
-1631.29
-148.449
-804.888
-610.023
275.064
334.959
-1772.03
1996.99
551.705
807.637
-1359.34
451.469
730.986
704.718
395.108
-1099.83
-67.4287
1649.39
-608.025
397.27
832.829
-631.095
327.316
303.78
-387.486
-266.958
469.462
-231.499
447.366
282.192
-655.61
373.418
273.918
-595.376
-291.758
453.76
-1057.29
603.529
549.885
1110.81
374.629
609.238
268.005
241.411
-509.416
1642.53
-927.594
1726.83
-1552.19
-174.645
-336.106
-844.698
425.482
869.898
-1089.24
-624.549
288.76
-1108.41
1658.3
-1599.09
-74.1495
1673.24
-349.484
-358.601
-378.995
548.389
612.945
-516.187
-31.7537
-560.028
520.696
-290.015
-230.681
1766.06
-1315
-641.692
308.472
333.22
415.394
368.921
750.374
-304.538
-408.557
-1779.73
1719.12
471.092
-1125.78
654.687
-41.4704
1665.14
583.309
481.502
-1064.81
91.3059
1166.71
-1483.2
-10.3509
-1892.19
236.353
-605.991
307.799
298.192
-961.783
620.172
-920.941
479.985
-1153.98
687.315
466.661
373.245
279.72
-771.471
-315.145
1245.21
903.683
716.221
-1212.09
472.463
739.626
506.758
715.16
-1221.92
-362.514
-254.514
426.009
-983.885
449.806
534.079
21.1114
-1915.64
1105.36
-475.978
-498.836
571.612
-1408.37
836.763
-428.936
816.824
-415.392
502.311
-959.079
1842.91
425.587
-191.956
189.475
-177.48
-252.55
430.03
1928.33
-513.786
-1713.84
1075.57
-562.893
295.935
-1037.73
565.663
-320.222
559.002
921.286
-1480.29
-1123.54
445.798
-20.7807
-1985.26
1716.88
-659.511
-539.021
472.787
-1217.36
744.571
194.581
219.161
-266.279
784.638
717.086
855.538
801.532
-441.459
1109.56
-492.649
491.888
-200.201
-291.688
-1963.25
-719.324
-323.799
-487.418
-2.20609
489.624
477.633
-278.504
576.927
1065.61
-814.258
947.32
1271.99
-435.712
-204.851
-243.843
448.694
947.653
-902.883
-340.004
-1092.27
624.694
1585.98
-810.943
551.931
951.541
-395.31
753.401
-358.091
1156.19
-268.498
325.407
1379.25
-720.292
-228.333
461.716
-1226.94
765.227
-996.022
-131.732
1127.75
452.353
-978.709
526.356
185.493
312.244
381.029
777.067
-102.491
874.935
-436.387
1203.32
-808.209
565.911
-1496.74
930.826
-1236.51
1832.69
-436.445
-1535.34
895.46
-1432.1
-313.792
-418.682
1488.37
-1555.26
803.37
1519.25
209.596
282.292
-357.057
-1762.04
-307.614
-1016.3
1593.22
-1790.42
1790.42
1582.26
-1027.15
-650.473
-339.782
377.226
617.144
-366.451
-365.311
-1418.51
912.019
1144.09
614.05
1231.01
1820.4
-1236.1
-618.742
277.432
1691.3
-1954.13
262.831
831.644
-1295
1574.33
-576.115
794.939
314.726
-335.321
568.28
811.395
645.42
1386.43
-222.172
-456.148
-356.777
449.622
-302.187
483.944
751.442
-297.834
-161.185
-328.269
580.377
-252.108
25.9716
-382.898
1126.43
-1753.68
-446.238
-488.436
-578.853
883.796
702.188
-1629.72
920.256
-463.199
-626.564
-525.948
1280
340.697
1756.62
-1735.51
-1691.11
1930.54
-1591.56
852.639
738.923
-365.639
-1832.42
937.268
596.979
836.297
-409.99
1830.23
-696.089
-409.551
679.912
441.797
-1121.71
-1124.1
456.245
768.522
-1646.76
486.559
915.973
182.705
-411.834
229.129
-1607.6
-391.718
-425.954
1003.31
-681.264
1473.22
-965.061
1856.18
248.107
-548.343
511.885
-302.289
488.336
907.782
557.277
994.865
-474.478
-439.666
588.057
900.311
-1398.43
-40.2746
1600.66
-845.167
533.506
985.745
-1507.26
-1121.11
1781.77
-1243.82
-537.951
1233.4
-328.132
-905.272
-197.965
467.281
-269.316
-470.337
-257.107
444.619
-187.512
153.075
-407.589
1741.31
-1746.25
-458.064
-545.866
-916.631
454.533
-211.233
-243.3
571.785
-452.119
-358.35
-314.73
673.08
-956.076
401.649
-1193.36
687.932
430.812
-640.247
-448.868
1601.43
-868.831
541.438
-469.505
-583.027
-474.262
71.1334
-67.5323
-3.60111
-1114.03
423.148
-679.754
-1052.54
1732.29
-601.012
-1454.29
729.95
575.636
-1627.87
1052.24
-380.784
-485.831
156.114
535.964
-1286.48
760.528
552.928
1021.41
-2163.95
1010.41
1153.54
-354.97
89.7066
-80.0996
-9.60706
1508.82
-377.333
461.171
1177.63
596.426
924.003
580.152
540.115
-1120.27
173.459
-438.919
-1699.84
271.765
1143.95
-618.15
531.893
1031.37
-1563.26
1110.76
-1674.19
185.395
706.742
549.573
-889.577
-1103.22
-150.176
388.672
-238.497
-584.557
-426.541
-649.758
-555.367
289.088
-1652.91
958.839
-488.548
220.165
-412.121
550.823
-314.47
-606.781
1223.28
-1289.43
926.904
362.529
-1034.94
-359.253
-768.194
-836.991
1720.79
-488.737
1798.24
-1589.33
-208.909
-1585.86
1034.84
551.019
-736.541
-197.081
354.672
-157.59
-594.339
392.611
284.118
-676.729
-536.941
1000.8
648.292
-359.532
-1648.4
1066.61
584.703
1121.84
-1706.54
-409.511
-304.338
-375.389
-756.753
-467.073
-338.838
516.087
1588.86
-1013.22
-791.063
1527.94
679.203
-317.946
741.314
1167.66
-1908.98
281.673
308.418
-499.288
-1972.11
1755.9
216.204
758.788
-485.776
-273.012
544.489
1077.93
-1622.42
71.1334
-1729.89
-237.661
1783.02
-1608.05
1093.16
514.885
-1732.54
2.65246
-534.603
89.7066
1735.12
-1755.9
958.248
638.877
-1597.13
315.236
-189.082
-126.155
-405.823
-280.86
65.7047
56.9161
-253.998
-445.316
-443.641
-420.317
230.161
1536.82
389.457
-228.086
-428.876
460.352
-195.092
323.85
1538.67
1085.93
-207.761
-878.17
-1123.87
1737.88
-1763.4
1083.65
-722.903
-1040.5
-1284.63
1876.88
-592.244
1175.7
-1805.07
629.378
204.496
-895.147
1708.04
44.2105
-1752.25
-503.326
-1099.61
-1741.31
-1005.22
565.551
1035.35
603.432
1151.92
-1755.36
295.739
-459.754
723.321
-393.278
371.151
943.369
695.956
-394.007
-640.223
596.258
1090.17
-1686.43
-405.555
-382.273
787.828
429.094
-1696.12
1552.19
143.932
598.614
-1068.94
555.805
1102.49
-1585.45
1009.33
-246.843
245.599
320.323
1942.53
417.067
-90.0953
1007.49
738.519
-1746.01
-711.51
1102.27
-1586.37
172.923
-583.297
200.688
259.664
-657.729
-577.227
596.502
1052.89
-720.899
-276.598
-1399.38
691.035
708.343
-420.271
801.035
85.9013
-886.936
575.329
-139.912
1587.31
-225.736
269.868
-784.782
-1972.11
1695.46
1023.95
96.007
306.888
448.505
-950.553
-1012.69
-1798.55
654.609
1725.27
524.696
-486.462
1237.9
1107.33
-435.983
1053.13
-1002.47
506.916
495.554
715.253
1068.54
-1783.79
499.92
490.794
-1523.23
-765.24
31.7663
801.122
-422.821
-903.169
404.332
-551.46
-819.484
238.272
-591.021
1427.78
1075.59
184.442
204.231
-564.451
1648.97
-788.309
1558.66
-1759.94
588.065
1171.87
559.55
-905.048
-1767.41
1954.13
-186.717
1748.81
188.777
-555.824
191.12
-134.204
-493.811
1238.38
580.244
1148.82
-503.365
448.167
880.115
-475.582
-793.393
432.152
361.241
1448.32
1110.3
-532.337
1452.59
-519.967
-501.289
1021.26
-616.366
493.769
-1220.88
1726.83
1870.05
-702.382
1618.77
-660.525
-1269.09
732.151
-576.435
158.286
-285.111
433.588
-226.937
-531.622
-1267.41
1903.65
-636.241
1200.19
-564.347
1139.53
-1691
1722.76
-587.579
-557.32
-562.166
1751.64
-324.476
-704.765
-486.643
1251.87
-1716.93
-1892.86
625.452
321.139
-968.842
175.303
221.87
-1750.57
1223.34
527.23
1179.87
568.943
-522.62
-479.756
1219.38
181.94
235.36
600.927
1269.12
-549.799
-1258.22
1808.02
-1045.64
1035.35
865.832
-207.595
-1691.3
1735.51
-524.156
1440.13
-1767.41
-377.346
17.3999
359.946
-275.61
601.545
-325.934
81.308
500.731
801.32
-384.578
1276.03
1295.74
-425.837
874.065
-448.583
1851.76
-676.067
1616.71
-1756.62
-420.87
-749.211
301.519
447.691
-572.514
-577.504
74.8555
-1105.82
-1004.78
-684.419
1689.19
-953.801
-1210.15
156.48
-413.923
-661.587
719.359
1188.08
663.683
1440.92
-604.621
1673.75
1347.09
-586.563
-507.45
205.161
-517.492
1425.27
1268.03
-576.991
-971.834
915.27
53.7531
-969.023
601.432
-520.113
1432.13
1526.68
-602.677
-71.4434
71.4434
-603.306
1655.54
1267.69
-499.167
1152.92
-63.5367
1853.76
-398.545
1521.23
-602.758
-522.587
1375.23
-668.031
1246.23
-578.196
1586.86
-606.053
754.367
590.273
-1344.64
-653.723
289.196
490.701
613.998
-1988.38
-998.076
1616.71
71.6043
-71.6043
-76.9086
399.924
446.765
384.256
-12.9732
-325.485
905.3
-525.092
-435.279
835.204
-252.194
638.46
-426.2
1554.49
-458.595
-893.866
191.669
226.231
-417.9
613.834
1269.38
-1883.21
950.049
-470.064
-67.5323
128.384
-1978.33
1849.95
-465.149
193.46
1206.4
-454.294
-752.105
-317.945
-585.224
-502.421
-80.0996
-492.136
261.455
1185.1
-572.155
236.384
-395.01
158.626
-8.96619
-109.426
918.217
-808.792
20.172
-451.643
-600.106
-103.587
103.587
-1265.08
2003.6
-1334.97
-226.844
-1826.95
237.611
-1042.18
-990.311
-193.14
-1672.48
721.932
1250.57
-1959.86
381.739
317.723
-699.462
-1882.32
1254.97
627.349
-164.86
164.86
-976.186
-13.8799
-1901.09
-570.585
1681.39
-692.154
1668.55
-615.664
-183.739
-1708.45
-601.678
-442.323
-608.014
-112.467
112.467
-1565.11
198.695
1366.41
170.495
210.677
-381.171
555.225
530.706
1020.79
-486.714
1780.79
786.403
-243.576
233.969
532.159
1734.79
-608.356
-565.003
1667.49
478.12
1846.58
-658.499
-1840.87
-1969.38
-660.606
-119.006
119.006
-598.531
241.754
-691.39
1043.24
-477.575
-1094.57
-290.578
1148.02
1882.95
1665.39
-1665.39
-281.53
756.541
1793.78
607.414
1296.23
152.107
163.13
595.014
590.158
1151.44
-1151.44
230.601
-359.939
-442.92
444.105
974.477
-467.561
-652.873
-1149.89
1737.95
289.691
-1663.66
623.791
-296.051
484.828
1776.93
-605.056
-189.782
-421.722
393.07
736.499
1771.02
-626.931
-523.829
-775.018
1993.5
-885.659
-1107.84
1673.68
-680.246
1244.37
-1857.69
613.324
340.694
-889.037
-187.327
-31.2203
1123.11
-498.418
125.795
631.813
-1661.25
453.979
616.181
-1840.87
-595.956
1819.3
901.858
-1182.36
1792.82
-610.462
1815.83
-588.024
-1227.81
453.312
936.68
-1746.25
940.88
-1483.75
244.663
1239.09
-850.87
-1274.9
-207.063
47.821
159.242
594.569
278.928
1046.06
-458.016
867.808
-409.793
839.194
753.607
-1592.8
657.281
1088.43
-8.34534
-536.183
544.529
-1779.37
738.869
709.196
121.819
-1141.31
1970.7
-687.319
-1283.38
-550.176
1699
841.875
983.661
-1825.54
1248.87
696.811
-410.631
729.493
854.254
1052.61
-600.259
1793.78
639.586
1805.64
-1205.09
-600.558
-377.432
-331.694
709.126
121.201
-1161.24
1692.27
-552.737
-968.589
968.589
1269.69
607.186
1374.78
214.077
-568.604
290.421
-199.563
713.043
1133.54
496.906
-314.966
-887.601
-588.395
1743.59
-1743.59
634.578
-634.578
1004.48
1042.55
-2047.03
1870.65
-626.283
-593.934
830.474
-963.814
-1070.07
1018.13
705.703
-1723.83
-136.184
-356.651
-649.039
-822.912
2077.88
-1267.1
-625.757
1019.97
991.467
1311.81
658.889
335.835
1029.68
234.827
343.304
744.778
1788.63
-1788.63
683.351
32.3985
-228.399
-1013.86
-556.041
1708.96
987.536
1012.46
-1865.83