/*--------------------------------*- C++ -*----------------------------------*\
  =========                 |
  \\      /  F ield         | OpenFOAM: The Open Source CFD Toolbox
   \\    /   O peration     | Website:  https://openfoam.org
    \\  /    A nd           | Version:  7
     \\/     M anipulation  |
\*---------------------------------------------------------------------------*/
FoamFile
{
    version     2.0;
    format      ascii;
    class       volVectorField;
    location    "14";
    object      U;
}
// * * * * * * * * * * * * * * * * * * * * * * * * * * * * * * * * * * * * * //

dimensions      [0 1 -1 0 0 0 0];

internalField   nonuniform List<vector> 
7807
(
(1.06929 0.102323 4.60515e-20)
(1.05999 -0.0226704 1.43486e-19)
(1.03053 0.0845672 -7.35853e-20)
(1.04465 0.0629066 1.47196e-19)
(1.0222 -0.00219313 2.264e-20)
(0.999962 -0.017571 1.74452e-20)
(1.02946 0.0793349 -1.45761e-19)
(1.01893 -0.00273422 5.66952e-22)
(1.01935 -0.00154251 1.96734e-20)
(1.0302 0.00127823 -1.26747e-20)
(1.01341 -0.00671693 -1.92443e-20)
(1.02295 -0.00240411 -3.60906e-20)
(1.01274 -0.00353287 -3.52675e-20)
(1.02907 -0.000980155 -1.50406e-19)
(1.0291 0.00189488 5.28991e-20)
(1.01831 -0.00920159 5.618e-20)
(1.07001 0.10634 -9.77539e-20)
(1.00593 -0.00163649 9.82289e-21)
(1.02487 -0.00578663 -2.84745e-20)
(1.01107 -0.0646601 1.2105e-20)
(1.04181 0.00313488 -4.05803e-20)
(1.02239 0.000401177 1.02448e-19)
(1.03109 -0.00173209 1.94604e-20)
(1.01385 0.0349504 -8.94736e-20)
(0.996478 -0.00076118 3.48958e-20)
(1.06656 0.100699 -4.61806e-20)
(1.02255 -0.00175909 1.88953e-20)
(1.03387 0.000684808 4.95627e-20)
(1.00691 0.0182157 -1.30319e-20)
(1.02456 -0.00567473 2.54147e-20)
(1.01466 -0.00975849 8.01372e-20)
(0.668174 0.0139637 1.51438e-20)
(1.03002 -0.00178877 1.04931e-19)
(1.02012 -0.00310674 -4.27862e-20)
(0.626042 -0.00227428 9.08454e-23)
(1.03056 0.00245111 2.02128e-20)
(1.02567 -0.00724397 1.87204e-20)
(1.03001 0.0780165 -2.47542e-20)
(1.01972 -0.00584628 -1.0153e-19)
(0.965796 -0.00424529 -5.19145e-20)
(1.02014 -0.005806 1.02182e-20)
(1.01832 -0.00887178 2.09683e-20)
(1.0307 -0.0716563 -5.78872e-20)
(1.13335 -0.0213043 -2.07866e-20)
(0.597946 -0.0032706 -2.45639e-20)
(0.982067 0.00205989 1.14286e-20)
(1.02108 0.000508087 -6.23173e-20)
(1.02093 -0.00525495 5.97663e-20)
(1.01909 -0.000524626 1.07533e-20)
(1.01416 -0.0651663 -1.78355e-20)
(1.02347 -0.00188073 2.88081e-20)
(1.03469 0.0017122 -5.35304e-20)
(0.97207 -7.25219e-06 9.60803e-20)
(1.02996 -0.0184019 2.04365e-20)
(1.03026 0.00102085 -1.55589e-20)
(1.02005 -0.00321662 1.0378e-20)
(1.02342 -0.00479546 4.49114e-20)
(1.01598 -0.00263837 -6.68969e-20)
(1.00889 -0.0112686 9.14138e-20)
(1.02004 -0.0038933 5.19461e-20)
(1.01818 -0.00126366 -2.60844e-20)
(1.02471 -8.98796e-05 2.73937e-20)
(1.0299 -0.000343922 -3.39946e-20)
(1.02203 -0.00192967 3.68481e-20)
(0.98398 -0.00673943 -4.00438e-20)
(1.01506 -0.0100573 -1.2788e-20)
(1.01842 -0.00210523 -1.83227e-20)
(1.01609 0.000225693 2.65595e-21)
(1.12675 0.0671105 4.7e-20)
(1.02114 -0.00457249 2.40719e-20)
(1.01078 -0.00114428 -1.03145e-20)
(1.00391 -0.036688 1.07147e-19)
(1.00966 -0.00222434 -1.73227e-20)
(0.919286 -0.00342802 -1.46468e-20)
(1.01415 -0.0015297 -3.07887e-20)
(1.00015 -0.0170199 1.45825e-20)
(1.03152 0.0854763 1.17896e-19)
(1.04032 0.00279879 5.09935e-20)
(1.0806 0.0105097 -1.05304e-19)
(0.993508 -0.0295336 1.20848e-19)
(1.01774 -0.00344805 5.42578e-20)
(1.01902 0.0769815 1.66622e-19)
(1.04364 0.012006 8.93235e-20)
(1.00198 -0.0047041 -6.51843e-20)
(1.0201 -0.00320393 3.07469e-20)
(0.894611 -0.00701627 -1.67017e-20)
(1.01912 -0.00312208 -8.92139e-20)
(0.993671 -0.00189695 -6.14986e-20)
(1.02117 -0.00193239 -2.59206e-20)
(0.899836 -0.00470771 -3.20382e-20)
(1.00719 0.0207134 9.2473e-20)
(1.15804 -0.00721782 3.23432e-20)
(1.01697 -0.0020647 1.83048e-20)
(1.02345 -0.00486537 2.09791e-20)
(1.01705 -0.00294038 -3.8055e-20)
(0.676845 -0.00391209 1.12836e-19)
(1.00554 -0.0365046 -6.44467e-21)
(1.03101 -0.0174019 -3.521e-20)
(1.01963 -0.00319651 -6.16428e-21)
(0.96217 0.00206525 -1.12628e-20)
(0.952566 -0.0120365 -3.07165e-20)
(1.08102 0.0144239 7.91705e-20)
(1.0192 -0.00221938 9.44759e-20)
(0.64982 -0.00136222 6.89485e-22)
(1.16006 0.00240916 2.05185e-20)
(1.03399 0.0329039 -8.90633e-20)
(0.888413 0.0466453 2.05737e-20)
(1.01998 -0.00305668 3.96611e-20)
(1.01488 -0.000720073 -9.15504e-22)
(1.03775 -0.00546003 -4.30698e-20)
(1.04659 0.0603636 -1.70841e-19)
(1.04242 -0.0512674 1.09623e-19)
(1.01518 -0.000436015 1.1385e-21)
(1.03928 -0.00574711 -9.34603e-21)
(1.03051 0.0322364 9.29646e-20)
(1.02058 -0.00031561 -1.38782e-20)
(1.07717 -0.0604074 8.07438e-21)
(1.03421 0.0206231 -2.4656e-20)
(1.01228 -0.0287765 -6.58037e-20)
(0.967614 -0.00249706 1.55973e-20)
(0.801456 -0.00745579 7.25337e-20)
(1.0076 0.0601995 -1.10951e-19)
(1.03541 -0.0706103 7.95208e-20)
(1.02726 -0.00320804 1.20046e-20)
(0.869034 -0.00882375 -2.85276e-20)
(1.0209 -0.00240577 -5.5144e-20)
(1.01612 -0.00720413 -2.9421e-20)
(1.02358 -0.00529111 -3.44685e-20)
(0.902735 -0.00247882 9.08026e-20)
(1.01532 -0.00881254 -1.93151e-21)
(1.18954 -0.0190833 9.50923e-21)
(1.07625 0.00846158 1.76584e-20)
(1.02079 -0.00341473 -4.03344e-21)
(1.0206 -0.00211544 5.75509e-20)
(0.992452 -0.0048024 -1.86751e-20)
(1.04425 0.0548706 6.80193e-20)
(1.02077 0.0999013 1.86224e-19)
(0.885045 0.00443568 2.31614e-21)
(1.02795 -0.00175627 6.58228e-21)
(0.695135 0.00381593 7.70367e-20)
(0.82552 -0.00497917 6.39359e-20)
(1.01566 -0.0407346 8.25526e-20)
(1.00054 -0.018447 -1.95441e-20)
(0.914607 -0.00257467 1.15674e-21)
(0.747021 0.00899774 8.0845e-20)
(1.03203 -0.0288 5.4023e-21)
(1.01433 0.0209482 -4.9379e-20)
(1.01026 -0.0136858 4.91297e-20)
(0.732809 0.00314924 -1.35909e-20)
(1.00936 0.0701039 -5.53891e-20)
(1.03257 0.00339708 5.90557e-20)
(1.14747 -0.0101788 1.40298e-20)
(1.02134 -0.00215789 8.66842e-20)
(1.13133 0.0612609 1.12475e-20)
(1.0421 0.0113875 -9.4609e-20)
(1.03351 0.0786721 -1.28052e-19)
(0.996915 -0.0203882 -5.25679e-20)
(0.987565 -0.00566506 -1.32332e-20)
(1.02636 0.0658749 1.85776e-19)
(1.0192 -0.00176994 1.13043e-20)
(1.0235 -0.00485325 -5.23548e-20)
(1.01507 0.0389395 6.14689e-20)
(1.01618 -0.00243294 -1.3666e-20)
(1.02099 -0.00393809 1.04937e-19)
(1.00673 -0.000523966 1.69345e-20)
(1.00693 0.0481075 -1.85298e-20)
(1.00419 0.0433953 6.65817e-20)
(1.02023 0.0629504 5.78056e-20)
(1.0207 -0.00432835 4.5411e-20)
(0.844104 -0.0021066 2.12857e-20)
(1.01708 0.00130508 -2.66025e-21)
(0.548083 -0.00423601 1.15624e-19)
(1.02091 -0.000826932 1.85545e-20)
(1.06133 -0.0198569 -1.67874e-19)
(1.02771 -0.00221349 4.28984e-20)
(0.822236 -0.00268586 -2.73392e-20)
(1.15175 0.0103047 3.81585e-20)
(1.09286 0.0648647 3.81882e-21)
(1.01743 -0.00238174 -1.06113e-20)
(1.021 -0.00212735 5.28475e-20)
(1.04588 0.0649391 -2.44945e-20)
(1.01248 0.000596727 4.89726e-21)
(0.83931 -0.00897489 -5.67116e-21)
(1.02962 0.0802745 -1.19831e-19)
(1.06184 -0.0248606 7.27503e-20)
(1.03203 -0.0426974 6.97709e-20)
(1.01359 -0.0278112 9.44516e-20)
(0.995198 -0.0048025 -4.72425e-20)
(1.03002 -0.0298735 -1.33335e-20)
(0.646613 -0.00506011 -4.08008e-20)
(1.01531 -0.00291453 4.27299e-21)
(1.00605 -0.034057 2.63908e-20)
(1.09449 0.0703797 -7.06299e-20)
(1.0197 -0.00213349 -1.36052e-20)
(1.01944 -0.000441959 -1.30683e-20)
(1.07267 0.0669081 5.53359e-21)
(1.02039 0.00126828 -8.60879e-20)
(1.01583 -0.00834374 -4.3865e-20)
(1.02787 -0.0282391 -4.77527e-20)
(1.0176 -0.00100183 -1.11817e-21)
(1.02134 -0.0018776 -4.5028e-20)
(1.04144 0.0553081 7.69896e-20)
(1.08456 0.0741091 -7.96762e-20)
(1.03075 0.0760531 -1.67996e-20)
(1.07373 -0.0555665 -4.55191e-20)
(1.04513 -0.0484251 -2.25497e-20)
(1.1146 -0.0834653 1.17502e-20)
(1.03256 -0.00193272 1.33728e-19)
(1.03826 0.0540694 -2.84594e-20)
(0.805677 -0.0153075 2.38965e-20)
(1.01905 -0.000543776 7.54513e-21)
(0.603713 0.0503959 -8.83286e-20)
(1.01878 -0.00875985 2.27709e-20)
(1.02075 -0.00372853 3.58351e-20)
(1.00763 -0.0335277 -6.11172e-20)
(1.01585 -0.00759611 3.2632e-20)
(1.03678 0.0746629 -1.53729e-19)
(1.03442 0.0743255 -3.42249e-20)
(1.01379 -0.0417238 -2.12936e-20)
(0.910634 0.02993 -6.13816e-20)
(1.02297 -0.000196687 6.52381e-20)
(0.986746 -0.00218023 -3.43366e-20)
(0.922973 -0.0112723 -3.97989e-20)
(1.04021 0.00618021 -2.64779e-20)
(1.03396 -0.0914277 5.34235e-21)
(1.08321 0.10311 -1.10822e-19)
(1.02876 0.0628824 -1.62243e-19)
(1.01835 -0.00151568 1.89822e-20)
(1.0266 -0.00348998 1.58433e-20)
(1.03192 0.0230562 1.2888e-19)
(1.02081 -0.00441634 7.9695e-20)
(1.03663 0.0211746 -1.70011e-20)
(1.02101 -0.00194972 1.87975e-20)
(1.00148 0.0589313 1.12989e-19)
(1.03328 0.0763376 2.63752e-20)
(1.01879 -0.00282242 -5.43494e-20)
(1.0248 -0.00532666 -3.13952e-21)
(0.999651 -0.00346329 9.90319e-20)
(1.10962 0.0874767 3.79452e-20)
(0.834619 0.0076061 -1.91019e-20)
(1.02 -0.00667761 -2.23067e-20)
(0.971414 -0.01884 -4.56943e-20)
(1.01887 -0.000846884 4.30729e-21)
(1.02035 -0.00321402 2.28343e-20)
(1.02099 -0.00201805 -2.08495e-20)
(1.06642 0.0450171 8.68543e-20)
(1.01702 -0.00228861 -1.80019e-20)
(0.787736 0.00489224 -1.47263e-22)
(0.995114 -0.0294106 -1.41003e-19)
(0.537226 0.0188002 -3.31124e-20)
(1.07582 0.00475755 -2.60079e-20)
(1.01293 0.0496549 9.03057e-20)
(0.977792 -0.00939183 1.396e-20)
(1.02618 -0.0288978 -4.06703e-21)
(1.01968 -0.00289613 4.0927e-20)
(1.03212 0.0796045 -1.22125e-19)
(1.02307 0.000541836 -3.38235e-20)
(1.02728 0.096531 5.94995e-20)
(1.02435 -0.00660762 -8.43649e-20)
(1.02222 -0.00139186 5.7331e-20)
(1.04309 -0.0193161 -6.49894e-20)
(1.03198 -0.000657678 -1.24673e-19)
(1.02076 -0.000654108 2.86801e-20)
(1.0002 -0.00637112 -1.59105e-21)
(1.02082 -0.000973666 7.24133e-20)
(1.02098 -0.00460135 6.73157e-20)
(1.0374 -0.0443811 -8.69392e-20)
(1.01105 -0.00761897 -9.27148e-21)
(0.997871 -0.0193997 -3.85019e-20)
(1.01643 -0.00102134 3.6212e-21)
(1.01657 -0.00222629 -1.92194e-20)
(1.02093 -0.00358379 -1.07874e-20)
(1.02818 0.0860217 1.41164e-19)
(0.736655 -0.00350484 -1.60548e-20)
(0.888994 -0.00429072 9.91883e-21)
(0.404329 0.0306083 1.40542e-19)
(1.02021 -0.0036252 4.33411e-20)
(1.06282 0.0818345 -5.95222e-20)
(1.01952 -0.00295036 -5.96047e-20)
(1.02747 -0.0138695 6.22339e-20)
(1.01848 0.00064116 -8.32814e-22)
(1.01197 -0.0228246 4.05222e-20)
(1.04026 0.00616894 3.82228e-20)
(1.15299 0.0181124 -8.816e-20)
(1.00901 -0.0122876 -7.83501e-20)
(1.02032 -0.00240882 -6.59778e-20)
(1.01043 -0.0544136 -3.04892e-20)
(0.207584 0.000939284 -4.34502e-20)
(0.80642 0.00892849 -3.6313e-21)
(1.02081 -0.000848218 -6.42515e-20)
(1.02128 -0.00314883 -5.0339e-20)
(0.960032 -0.00946397 5.15549e-20)
(1.02473 -0.000775704 -5.5736e-20)
(1.02078 -0.0023763 -2.88848e-20)
(1.00328 -0.00453209 -1.10195e-20)
(1.04069 -0.0426094 5.84266e-20)
(0.993477 -0.00290229 -4.78334e-20)
(1.12755 -0.0149463 5.94891e-21)
(0.949128 -0.00342612 5.06962e-20)
(1.03911 0.0849186 1.38406e-20)
(1.03729 0.0861083 -1.04041e-19)
(1.02065 -0.00193273 4.56186e-20)
(1.17145 0.0174964 1.11941e-19)
(1.01559 -0.00411496 1.69146e-21)
(1.0216 -0.00367994 5.3585e-20)
(0.50158 0.00560023 -1.16341e-19)
(1.01063 0.0311988 5.26576e-20)
(1.04498 0.0154279 -7.87529e-20)
(1.01862 -0.00174349 2.59396e-20)
(1.02155 -0.00294882 7.7981e-21)
(0.976179 -0.00339012 -3.82756e-20)
(1.05454 0.0409824 -3.50479e-20)
(1.0209 -0.00245719 -3.12587e-20)
(1.02233 -0.00140176 2.56312e-20)
(1.02185 -0.000556777 -5.98356e-21)
(1.11274 0.0296156 9.11996e-20)
(1.18919 -0.0298689 5.84041e-20)
(1.04805 0.0957506 6.89346e-20)
(0.938927 0.00165859 4.23419e-20)
(1.06885 -0.0231949 -1.42452e-19)
(1.01752 -0.00213429 1.86034e-20)
(1.02515 -0.00497929 -8.82628e-20)
(1.01722 -0.00209251 3.94083e-21)
(1.01405 -0.0133699 -1.34911e-20)
(1.00298 -0.0042958 1.70381e-20)
(1.03052 -0.0128505 8.70637e-21)
(1.19125 0.0204949 -9.49774e-20)
(1.0057 -0.0180048 -7.64701e-20)
(1.02833 -0.0130899 -1.81656e-20)
(1.02611 -0.00291598 -2.60889e-20)
(0.968626 -0.00908192 -4.56148e-20)
(1.0397 -0.00948327 2.85952e-20)
(1.02119 -0.011629 -3.97227e-20)
(1.07625 0.0181096 -3.93821e-20)
(1.06249 0.0437019 4.21089e-20)
(1.15665 -0.0930276 -8.80316e-22)
(1.13125 -0.0290266 5.21241e-20)
(0.366094 -0.00275392 4.63503e-20)
(1.02505 -0.00207294 6.17618e-20)
(0.973543 -0.0178947 1.86841e-20)
(1.01457 0.0593517 -1.81091e-19)
(1.11528 -0.0301251 -9.14347e-20)
(1.03784 -0.00349767 -8.46418e-20)
(0.964843 0.0375238 -8.58927e-20)
(0.863837 -0.0101885 -2.0695e-20)
(1.02045 -0.00211116 1.24851e-20)
(1.14496 -0.0185852 5.17643e-20)
(1.02132 -0.00275354 2.55887e-20)
(1.0322 -0.0264999 -1.85074e-20)
(1.02553 -0.00232008 1.96949e-20)
(0.915933 -0.00225234 2.05829e-20)
(0.942529 -0.00302206 4.23649e-20)
(1.03644 0.029135 7.07538e-20)
(1.01857 -0.00187566 8.00532e-21)
(1.02077 -0.000251688 -2.52546e-20)
(1.01849 -0.000456991 2.25352e-20)
(0.972147 0.000531075 -9.52591e-20)
(1.01957 -0.00637047 -6.02401e-20)
(1.00953 -0.0154585 -2.07548e-21)
(1.01339 -0.00135134 -6.22212e-21)
(1.00967 -0.0106534 -2.8409e-20)
(0.817316 0.0270849 5.03995e-20)
(1.02972 -0.0138172 -3.91193e-20)
(1.01902 -0.00825411 -8.42479e-20)
(1.03335 0.0701698 2.37317e-20)
(1.00451 0.0505272 1.06906e-19)
(1.06794 0.00863313 -3.77089e-20)
(1.16391 0.0219658 -4.25652e-20)
(0.41319 0.00698634 -6.30371e-20)
(1.02505 -0.00237309 -3.22862e-20)
(1.01434 0.0520871 -5.31855e-21)
(0.942283 -0.00303864 7.5304e-20)
(1.05116 0.0814377 2.88675e-21)
(1.0298 -0.0322486 -2.30178e-21)
(1.05171 -0.0808758 2.57637e-20)
(1.08136 0.0717193 4.90835e-20)
(1.05256 0.0845298 -6.75354e-20)
(0.998594 -0.0164905 -9.08608e-20)
(1.04651 0.0137506 -5.56246e-20)
(1.08607 0.106726 1.04116e-19)
(1.0591 0.0820566 1.05896e-19)
(1.03359 0.000730201 4.30657e-20)
(1.01999 -0.00231332 -2.24228e-20)
(1.02004 -0.00326651 -1.53744e-20)
(1.01505 -0.000648991 9.0926e-21)
(1.03416 -0.0167332 2.69585e-20)
(0.877716 0.000770276 -1.75145e-20)
(1.02122 -0.00272784 -3.27128e-20)
(0.996477 -0.010969 1.56762e-20)
(1.02089 -0.00134756 -1.72644e-20)
(1.00846 -0.053483 5.0361e-20)
(1.0996 0.0380628 3.36065e-20)
(1.0075 -0.003613 7.15011e-20)
(1.02152 -0.00781795 -9.59834e-20)
(0.974699 0.00203314 4.72686e-20)
(1.06708 -0.0253821 5.05918e-21)
(0.980491 -0.00764578 9.03714e-20)
(1.0234 -0.00454862 6.26539e-20)
(1.09579 0.104055 1.64533e-20)
(0.961006 0.000472297 1.04347e-19)
(1.01758 -0.00206543 1.53809e-20)
(1.01902 -0.00185106 5.56714e-21)
(1.01836 -0.00172839 3.58165e-20)
(1.00476 -0.0046481 -2.71445e-20)
(1.0346 0.0265847 -8.89939e-20)
(0.889741 -0.00638031 -1.30772e-21)
(1.03563 -0.00388988 5.78406e-20)
(1.04013 -0.0958174 -3.82304e-20)
(1.03054 0.0773185 -2.71846e-21)
(1.02471 -0.00532057 3.34963e-20)
(1.02704 -0.00296922 -5.81769e-21)
(1.0196 -0.00310823 4.44605e-20)
(1.02415 0.0865858 -1.39251e-19)
(0.881838 -0.00413488 -2.26882e-20)
(1.04981 0.0982197 -3.57942e-20)
(1.01174 0.0218251 -9.08245e-20)
(1.006 -0.0033767 -1.80452e-20)
(1.02829 -0.0330155 5.23183e-20)
(1.00135 -0.000948213 4.64524e-20)
(1.0182 -0.041418 -1.03732e-19)
(1.0204 0.00039499 2.42692e-20)
(1.0639 0.0108992 5.10017e-20)
(1.02705 -0.0098861 -1.87915e-21)
(1.02638 -0.00202702 9.69101e-21)
(0.988291 -0.00750157 5.70763e-20)
(1.07072 0.0428593 4.54801e-20)
(1.05065 0.0401014 1.31937e-20)
(1.03059 -0.0445688 -5.89821e-20)
(1.01015 -0.0126623 5.08658e-21)
(1.02155 -0.00330602 3.54271e-20)
(1.02425 -0.0257798 1.2072e-19)
(1.12786 0.0535013 -6.87583e-20)
(0.772742 0.023843 -7.50181e-20)
(1.088 -0.0504389 4.2387e-20)
(1.0257 -0.00520117 -1.8373e-20)
(1.01566 -0.000854452 8.97124e-22)
(1.0151 -0.00307424 7.00867e-20)
(0.951236 -0.00383699 -8.3352e-20)
(1.0394 -0.009274 4.7294e-20)
(1.0281 -0.075315 2.07247e-20)
(1.17075 0.00669163 -4.23311e-20)
(1.02996 0.0776349 -1.60427e-19)
(1.05784 0.0382344 6.31217e-20)
(1.11604 -0.0740928 -4.33179e-20)
(1.07268 0.0714965 1.88842e-20)
(1.01242 0.0764895 1.73078e-19)
(1.03409 -0.00217538 4.94054e-20)
(1.02152 -0.0016521 7.20841e-20)
(1.03607 0.0597619 3.83981e-20)
(1.02128 -0.00258692 -5.44428e-20)
(1.01871 -0.00309622 -1.59308e-20)
(0.683386 -0.00181114 -1.87226e-20)
(1.02045 -0.00136799 5.46186e-21)
(1.12229 -0.0901754 -1.55608e-20)
(1.02538 -0.0110633 4.43686e-20)
(1.0133 -0.0225764 -7.34425e-20)
(1.02189 -0.00117495 2.30994e-20)
(1.06863 0.0646879 1.04331e-19)
(0.967738 -0.00152897 8.68458e-21)
(1.01752 -0.0022556 1.10205e-22)
(1.04629 -0.0846196 -2.66333e-20)
(1.02193 -0.000389551 -1.4263e-20)
(1.10005 0.00646701 -9.88994e-21)
(0.954535 -0.0114852 -1.53404e-20)
(0.854197 -0.00527017 -4.73044e-21)
(1.17321 0.0576502 -7.98512e-21)
(1.02952 0.0217638 -3.29595e-20)
(1.02655 0.00699056 2.26983e-20)
(1.02491 0.00634036 -1.06912e-20)
(0.987868 -0.0156153 -5.23236e-21)
(1.10581 0.0377033 2.65946e-20)
(1.07651 0.0212446 4.75611e-20)
(1.02168 -0.00281292 -2.14646e-20)
(1.01121 -0.00357692 -8.27013e-20)
(1.02137 -0.000307068 -2.69026e-20)
(1.03043 -0.0116594 -1.0262e-19)
(1.02952 -0.0179271 1.91131e-20)
(1.02558 -0.00136006 -6.0701e-22)
(1.02088 -0.00245783 6.81038e-20)
(1.10926 0.0814392 -1.12384e-19)
(1.01682 -0.00303816 1.84242e-20)
(1.02023 0.000152438 -1.57559e-20)
(1.0241 -0.000969791 -3.41869e-22)
(0.786373 -0.00421161 -4.4193e-20)
(1.03354 -0.00531501 5.7746e-20)
(1.01275 -0.0188172 1.09012e-19)
(0.853625 -0.000254873 2.2039e-20)
(1.03458 -0.0421171 -3.91533e-20)
(1.05508 -0.103684 4.20895e-20)
(1.04179 -0.0174814 3.46992e-20)
(1.03984 0.0591124 -2.2127e-19)
(1.18279 0.0251899 5.7086e-20)
(1.01907 -0.0038522 5.5885e-21)
(0.996567 0.0545563 1.3051e-19)
(1.0074 -0.0380775 -9.80046e-20)
(1.01945 -0.00701218 -1.80157e-20)
(0.798337 0.00558999 -3.81572e-20)
(1.02155 -0.0114456 8.27795e-21)
(0.689431 0.00572424 -7.1804e-20)
(1.01676 -0.00284683 2.55324e-20)
(1.03851 -0.00575083 -6.42974e-20)
(1.12213 -0.0328953 1.9915e-20)
(1.01758 -0.00212371 1.49093e-21)
(1.03618 -0.00536184 -4.61113e-21)
(1.01354 -0.00109913 9.60866e-21)
(1.03579 0.0793209 3.45635e-20)
(1.12758 0.0723265 1.04538e-19)
(1.02015 -0.00290277 -1.53432e-20)
(0.758139 -0.000568107 8.64073e-20)
(1.01093 -0.00373043 3.22744e-20)
(1.01335 0.0799947 1.10076e-19)
(1.04573 0.0839593 8.56793e-20)
(1.10796 0.0310413 -4.97044e-20)
(1.11188 0.101774 -8.89139e-20)
(1.00736 -0.0405171 4.19245e-20)
(1.00856 0.0697778 -1.63534e-19)
(1.01854 -0.00177272 -1.66757e-20)
(1.05663 -0.0127419 1.12585e-19)
(0.542272 0.0110174 2.36827e-21)
(1.08722 0.0629196 -2.65504e-20)
(1.02472 0.057057 -1.13743e-19)
(1.13125 0.0480983 1.04884e-19)
(1.05313 0.0332056 1.02876e-20)
(1.02197 -0.00779445 2.89866e-20)
(1.0176 -0.00429412 2.78907e-20)
(1.11501 0.0904418 3.9503e-20)
(1.17837 -0.0124401 -1.77184e-20)
(1.02375 0.0837957 -4.2405e-21)
(1.09416 0.00511467 1.2271e-19)
(1.03909 0.0502648 6.91162e-20)
(1.01776 -0.00424945 1.6558e-20)
(1.0296 0.0779189 4.41113e-20)
(1.04775 0.0811981 3.23782e-20)
(1.01794 -0.00222028 7.75523e-20)
(1.01942 -0.00363499 3.44981e-20)
(1.1244 0.0836871 2.87573e-21)
(0.804872 0.00262423 7.71217e-20)
(1.01857 -0.00191249 2.20554e-20)
(1.01628 -0.0034777 -9.14461e-20)
(0.937861 -0.0148476 -5.82731e-20)
(1.01629 -0.0523557 1.05794e-20)
(1.02713 -0.00194418 -9.00096e-20)
(1.02581 -0.00238015 8.06669e-21)
(1.02018 -0.00254529 2.83516e-20)
(1.04673 0.0868347 -1.27158e-19)
(1.02315 -0.0077172 -7.42903e-21)
(1.01747 -0.00191424 -8.58371e-21)
(1.04029 -0.0386379 -6.98839e-20)
(1.02073 -0.00345436 -1.68885e-20)
(1.01636 -0.00446549 -2.69803e-21)
(1.02494 -0.00732854 -1.98152e-20)
(1.06096 0.0648624 1.33721e-19)
(1.0399 -0.074487 -3.99186e-20)
(1.03363 0.0661727 7.0075e-20)
(1.01874 -0.00101876 -1.76056e-20)
(1.06449 0.0671674 -1.41728e-19)
(1.03447 -0.0327751 -5.45052e-20)
(1.01912 -0.00231356 5.79784e-21)
(1.01803 0.000260382 -8.83226e-21)
(1.00426 0.0142267 -1.55282e-20)
(1.05701 0.0582337 5.08044e-20)
(1.02007 -0.00323705 -1.64614e-20)
(1.05262 0.0481505 -7.22454e-20)
(1.01769 -0.00020419 6.5349e-21)
(1.05358 0.0523387 -9.74836e-20)
(1.14397 -0.0945887 -4.26519e-20)
(1.01466 -0.00199729 -8.39607e-20)
(1.0025 0.0510302 -2.1957e-19)
(1.00787 -0.0314163 -7.40487e-20)
(1.11558 0.0976101 9.12401e-20)
(0.821002 -0.00346677 -2.26512e-20)
(1.05697 0.0540338 1.2504e-19)
(1.06079 0.0601579 -3.66784e-20)
(1.01347 -0.00464038 -1.24306e-19)
(1.00989 -0.00558011 7.3718e-20)
(1.02014 -0.00653857 -6.92013e-20)
(1.01305 -0.00193387 1.86524e-20)
(1.01895 -0.00297471 -3.59328e-20)
(1.02306 -0.00768502 1.22397e-20)
(1.05323 0.0780078 -1.65253e-20)
(1.01753 -0.00223183 -4.11482e-21)
(1.04851 0.0469023 9.49657e-20)
(1.05084 -0.0742415 -6.873e-20)
(1.02522 0.0673156 4.33199e-20)
(1.04787 0.0431598 -1.11066e-19)
(0.91181 -0.0127969 7.83916e-21)
(1.02884 0.0710594 -1.50801e-19)
(1.02084 -0.00232171 1.2409e-23)
(1.03383 -0.0152594 4.0315e-20)
(1.06443 -0.0507424 -2.50909e-20)
(0.696654 0.00126727 4.29534e-21)
(1.01948 -0.00375694 -5.14879e-20)
(1.03257 -0.0339416 4.33271e-20)
(1.06039 -0.00567189 -9.94894e-21)
(0.981092 0.0417373 1.67617e-19)
(1.01705 -0.000990938 2.44067e-20)
(1.0207 -0.00237087 -2.86158e-20)
(1.03916 -0.0508458 1.65806e-22)
(1.01883 -0.0007408 1.42583e-21)
(1.03604 0.0816163 1.67283e-20)
(1.02177 -7.05882e-05 0)
(1.01767 0.000838348 1.24116e-21)
(1.01848 -0.000192253 3.8882e-20)
(1.02167 0.000129701 4.72062e-22)
(1.01423 -0.0126013 -9.1988e-20)
(1.036 -0.00826496 -3.26016e-20)
(1.02087 -0.00241405 -5.61745e-20)
(0.989839 0.0146743 -1.90009e-20)
(1.01944 -0.00374548 -2.69625e-20)
(1.02455 -0.00739231 -2.18115e-20)
(1.01952 -0.0803748 5.17001e-20)
(0.549663 -0.000515765 -6.32013e-21)
(1.03302 -0.00475027 8.91752e-20)
(0.887849 -0.00564353 -1.02386e-20)
(1.10498 -0.111088 -5.3354e-20)
(1.00956 -0.00476243 3.83577e-20)
(1.11478 0.076304 -7.91048e-21)
(1.00133 0.0273672 -3.55021e-20)
(1.02131 -0.00234233 2.0986e-20)
(1.10613 0.067529 -1.16719e-19)
(1.01839 -0.000581052 -7.51483e-22)
(1.01481 -0.00387536 -7.52113e-22)
(1.03103 0.00213702 -6.35061e-20)
(1.01954 -0.00386917 2.08091e-20)
(1.06252 0.0737108 -8.37017e-21)
(1.01659 -0.00425394 7.07967e-20)
(1.05706 -0.0108803 -8.72682e-20)
(1.03171 0.00390565 -6.41966e-20)
(1.06193 0.0399167 -2.46167e-20)
(1.02714 -0.00912946 -5.68207e-20)
(1.01773 -0.0030549 -2.05032e-21)
(1.0773 0.0642705 7.09692e-20)
(1.01137 -0.0577649 5.31836e-20)
(1.03212 0.08117 1.35383e-19)
(1.01856 -0.00374623 9.54262e-20)
(1.06398 0.0895903 4.63249e-22)
(1.01873 -0.00330809 -2.54694e-20)
(1.02185 -0.00154329 4.89585e-21)
(1.05238 0.0308423 3.02593e-20)
(1.03324 -0.0180333 -3.00477e-20)
(1.04148 0.0090261 9.19934e-20)
(1.02032 -0.000778111 1.58961e-20)
(1.01805 0.001029 5.74453e-22)
(1.02884 -0.0932865 -1.90592e-20)
(1.09523 0.0993174 -1.02771e-19)
(1.02154 -0.00232691 -1.88028e-20)
(1.11286 0.0693585 1.29784e-20)
(1.01696 -0.00422436 5.04597e-20)
(1.09765 -0.116738 1.80768e-20)
(1.05635 -0.0231179 1.33161e-20)
(1.0125 -0.0200852 -5.89998e-20)
(1.02098 -0.00220818 2.24459e-20)
(0.822933 -0.00437743 2.02916e-20)
(1.00683 -0.0486947 3.64446e-20)
(0.991762 -0.00472152 -8.29076e-20)
(1.01828 -0.00289517 -6.416e-20)
(1.01992 -0.00228941 -2.63791e-20)
(1.03005 0.0826633 -1.47341e-20)
(1.10412 0.0612182 7.41028e-20)
(1.03693 -0.00412582 -2.08048e-20)
(1.01865 -0.00329772 -2.43941e-20)
(1.04636 0.0784481 -6.09851e-20)
(1.01739 -0.000934144 7.04882e-21)
(1.01837 -0.00311282 -5.05263e-20)
(1.0977 0.0598982 6.31441e-20)
(1.02988 -0.0150359 5.57857e-20)
(1.10301 0.0917644 9.44362e-20)
(1.03375 -0.00103591 3.61808e-20)
(1.03251 -0.00679464 -1.11047e-20)
(1.09487 -0.0394707 -3.78499e-20)
(1.06829 -0.0940852 -5.13365e-20)
(1.1736 0.05107 -3.8258e-20)
(1.02182 -0.000717877 -4.27388e-20)
(0.973701 -0.011362 5.42505e-21)
(1.01785 -0.00153756 5.0387e-21)
(1.02502 -0.00758743 1.42444e-20)
(1.06482 0.0714024 4.82581e-20)
(1.01416 -0.00424254 -9.26885e-20)
(1.02032 -0.0023336 -2.87998e-20)
(1.03422 -0.0254091 5.95937e-20)
(1.02068 -0.00247516 -1.58431e-21)
(1.02103 -0.00211339 -3.80503e-20)
(0.422024 0.00731037 2.97278e-20)
(1.01822 -0.00387794 4.97262e-20)
(1.02038 -0.00313245 7.12508e-20)
(0.635229 -0.00326506 2.91305e-21)
(1.02121 0.00785257 9.57685e-20)
(1.00612 -0.0167993 1.11627e-20)
(1.02029 -0.00252506 -3.31792e-20)
(1.01959 -0.00119988 -3.84769e-20)
(1.02748 0.0241384 3.48835e-20)
(1.06765 0.0174748 8.82339e-21)
(0.998253 -0.014889 5.74962e-20)
(1.01698 -0.000915273 7.92252e-21)
(1.00225 0.0181274 2.14068e-19)
(1.01479 -0.0110393 6.65548e-20)
(1.06841 0.0601255 -1.0839e-19)
(1.02885 -0.000984465 -9.72248e-20)
(1.02969 -0.000338938 1.96846e-19)
(0.998771 -0.00564553 -1.07174e-19)
(1.01766 -0.00164401 6.05501e-21)
(1.03084 0.000794552 -7.83449e-21)
(1.07163 0.0154803 -1.6399e-20)
(1.1548 0.0542267 7.96141e-20)
(1.05565 -0.0701162 -2.18593e-20)
(1.05117 0.0751481 5.22498e-20)
(1.02697 -0.00124296 -2.356e-21)
(1.08195 0.0670161 -9.73776e-20)
(1.02236 -0.00940032 3.70204e-20)
(1.03722 -0.037149 1.06649e-19)
(1.01968 -0.00317053 2.73427e-20)
(1.02516 -0.0116619 -8.99984e-20)
(1.0199 -0.00215253 -2.33547e-20)
(1.0491 0.0354594 -8.22392e-20)
(1.07489 0.0962236 -1.59906e-19)
(1.02108 -0.00225739 -1.7264e-20)
(1.03336 -0.00607263 7.15978e-21)
(0.994572 -0.00219674 -3.06824e-20)
(1.05822 -0.05989 -1.28813e-20)
(1.05414 -0.0642918 3.44317e-20)
(1.02021 -0.00259281 -3.0341e-20)
(1.05392 -0.0132054 -4.48794e-20)
(0.186893 -0.00463886 -4.99692e-20)
(1.1523 0.039224 7.12833e-20)
(1.01881 -0.00177533 -4.21705e-20)
(1.06395 0.014971 -3.51421e-20)
(1.02107 -0.00625909 5.29294e-20)
(0.628764 0.00614223 1.88973e-19)
(1.01695 -0.0039548 -6.83228e-20)
(1.02079 -0.0168071 2.40993e-20)
(1.03565 -0.0219557 -2.51285e-21)
(1.02013 -0.0172631 9.20642e-22)
(1.02214 -0.0132071 9.31544e-20)
(1.01943 -0.00367749 -1.67008e-20)
(1.02193 -0.00953005 -8.01726e-20)
(1.02337 -0.00433385 -1.90341e-20)
(1.062 -0.00862442 2.00321e-20)
(1.01759 -0.00142789 -3.7491e-20)
(1.1765 -0.0640276 2.53821e-20)
(1.14136 0.00655411 3.01211e-20)
(1.04111 0.0855874 9.91664e-20)
(0.999575 -0.0138722 -9.03143e-20)
(1.09717 0.0879706 -4.72933e-20)
(1.02175 -0.000526448 4.7688e-20)
(1.07656 -0.0491694 -1.76148e-21)
(1.02705 -0.0244741 5.40589e-20)
(1.02547 0.0405905 8.30207e-20)
(1.01948 -0.00391301 -4.71752e-20)
(1.01921 -0.00133107 2.79563e-20)
(1.01527 -0.0114886 -9.22713e-20)
(1.02046 -0.00659168 2.70644e-20)
(1.05119 -0.0119326 7.41219e-20)
(0.96833 -0.00226569 7.28655e-20)
(1.00831 -0.00515154 -2.4525e-20)
(1.1181 -0.015832 2.36126e-20)
(0.958236 -0.00192185 5.83328e-20)
(1.03401 -0.0233316 -4.99973e-20)
(1.01753 -0.0556993 -4.4148e-20)
(1.01758 -0.00170933 1.2427e-21)
(1.06218 -0.00240106 8.60376e-20)
(1.0187 -0.0495469 1.34069e-19)
(1.10237 0.078409 5.24171e-20)
(1.09542 -0.045167 6.18991e-20)
(1.04038 0.00821003 9.44674e-21)
(1.04513 -0.0716165 9.20513e-20)
(1.05151 0.0908415 2.96352e-20)
(1.04746 -0.0205287 6.73951e-20)
(0.99082 -0.0049141 6.36929e-20)
(1.0344 -0.0302438 7.72579e-20)
(0.396111 0.0220849 5.53135e-20)
(1.14546 -0.0674416 -2.46415e-20)
(1.01656 -0.00381283 2.11422e-20)
(1.04669 -0.0919244 5.40949e-21)
(1.04398 -0.0441059 -6.49457e-20)
(1.05843 -0.0836965 3.42157e-21)
(1.05616 -0.0547843 5.23718e-20)
(1.0769 0.0594625 9.30238e-20)
(1.02032 -0.00247341 -1.43794e-21)
(1.0122 0.0502853 2.90761e-20)
(1.02669 -0.000943434 2.13714e-20)
(1.02045 -0.00230817 4.11546e-20)
(1.02156 -0.00241145 -1.21834e-19)
(1.06085 0.00950656 -1.79253e-20)
(0.110295 0.00714977 1.17472e-21)
(1.02328 -0.00443818 2.73905e-20)
(1.03711 -0.0341746 -1.39519e-20)
(1.02761 0.0270568 -5.69134e-20)
(1.01775 -0.000815299 -1.26402e-21)
(1.0106 -0.00533355 -6.28923e-20)
(1.03494 -0.00421779 5.75144e-20)
(1.07755 -0.0220571 8.58053e-20)
(1.02653 -0.000757781 1.11846e-19)
(1.02158 -0.00304618 -1.69504e-20)
(1.01331 -0.0258197 2.80548e-22)
(1.02153 -0.00604177 2.73865e-20)
(1.01704 0.000869505 1.47436e-20)
(1.00936 -0.0307826 1.26663e-19)
(1.0564 0.0707504 -2.08444e-20)
(1.03632 -0.0187342 -9.92256e-21)
(1.00774 -0.00145138 5.66149e-20)
(1.02278 0.000105343 -1.80199e-20)
(1.03073 0.0293011 7.56793e-20)
(1.02093 -0.0026482 1.61034e-20)
(1.02146 -0.00222528 3.60786e-21)
(1.01984 -0.0032253 2.73819e-20)
(1.02133 -0.00243528 4.90734e-20)
(1.14432 0.0544882 5.48374e-20)
(1.04258 -0.021375 1.61475e-19)
(1.02781 -0.0113501 3.92603e-20)
(1.0126 -0.00432327 2.53489e-20)
(1.01843 -0.000663775 1.46622e-20)
(1.0834 -0.0891153 -7.25398e-20)
(1.17947 0.000573167 1.46799e-21)
(1.08834 -0.0969165 3.29528e-20)
(1.02183 -0.0215195 3.68748e-20)
(1.02966 -0.0051308 8.8837e-20)
(1.01803 -0.00404482 -1.79288e-20)
(1.0167 -0.00741144 4.15251e-20)
(0.996613 -0.0312497 5.70193e-20)
(1.14353 0.0404786 7.35303e-23)
(1.02256 0.0688444 -2.08538e-21)
(1.02124 -0.00323355 -2.84134e-20)
(0.987074 -0.0217868 -2.89352e-20)
(1.01999 -0.00329664 6.47007e-20)
(1.04566 -0.0188139 -2.64916e-20)
(1.08598 0.0573838 1.09571e-20)
(1.02162 -0.000787463 -4.8981e-20)
(1.01951 -0.00306283 1.1235e-20)
(1.12233 0.0885166 1.25343e-20)
(1.14009 0.0255169 -1.66556e-20)
(1.03428 -0.00903093 2.98128e-20)
(1.02025 -0.00262693 -4.77661e-20)
(1.0017 -0.00451898 6.38902e-21)
(1.00131 -0.0319978 -1.43705e-20)
(1.01952 -0.00269262 3.36217e-20)
(1.03511 -0.0201432 9.27109e-20)
(0.746301 -0.00447424 -1.32175e-19)
(1.00131 0.0273117 -2.8733e-20)
(1.05919 0.0737286 -1.0113e-20)
(1.07238 -0.0449003 -3.7523e-20)
(1.02165 -0.0498526 -4.73099e-20)
(1.02441 -0.00184317 6.94422e-20)
(1.03213 -0.014671 -8.22546e-20)
(1.13397 0.0119336 8.23324e-20)
(1.02137 -0.0560354 2.68388e-20)
(1.03644 -0.0288557 -4.71218e-20)
(1.01678 -0.000643754 -1.5702e-21)
(1.12392 -0.000325036 7.08975e-20)
(0.684107 -0.00722516 -7.06434e-21)
(1.02061 -0.062936 -4.87753e-20)
(1.03582 -0.0171752 -1.28151e-19)
(0.976527 -0.00940989 1.08064e-20)
(1.01961 -0.00301178 1.33754e-20)
(1.02016 -0.00211894 2.25748e-20)
(1.04433 0.0419346 8.49071e-20)
(1.00016 -0.00560296 2.52909e-20)
(1.01902 -0.00172535 -2.80756e-21)
(0.986447 -0.00232814 5.18949e-20)
(1.14255 -0.0554929 9.13564e-20)
(1.01744 -0.00220546 -5.357e-20)
(1.03923 -0.0325694 1.90032e-20)
(1.01853 -0.00167914 2.07843e-21)
(1.02609 -0.00858554 5.87399e-21)
(1.01958 -0.0765826 -2.3977e-20)
(1.06693 -0.0457371 2.81851e-20)
(1.01857 -0.00153077 1.71208e-20)
(1.01745 0.00072764 -8.83027e-21)
(1.02606 0.00217753 2.71929e-21)
(1.03178 -0.0481762 -1.01884e-20)
(1.00257 0.0368023 -2.28443e-21)
(1.06528 0.0854805 1.21892e-21)
(1.1137 -0.00923038 -3.07152e-20)
(1.02133 -0.00248769 -3.71272e-21)