/*--------------------------------*- C++ -*----------------------------------*\
  =========                 |
  \\      /  F ield         | OpenFOAM: The Open Source CFD Toolbox
   \\    /   O peration     | Website:  https://openfoam.org
    \\  /    A nd           | Version:  7
     \\/     M anipulation  |
\*---------------------------------------------------------------------------*/
FoamFile
{
    version     2.0;
    format      ascii;
    class       volVectorField;
    location    "24";
    object      U;
}
// * * * * * * * * * * * * * * * * * * * * * * * * * * * * * * * * * * * * * //

dimensions      [0 1 -1 0 0 0 0];

internalField   nonuniform List<vector> 
29659
(
(1.01302 -0.0167734 1.94021e-22)
(1.01246 0.00558081 9.3177e-22)
(0.988572 -0.00417524 -1.1465e-21)
(0.962804 -0.0628211 3.61582e-22)
(0.996986 -6.47613e-05 1.63435e-22)
(0.94587 -0.0388459 -5.27773e-22)
(1.07121 -0.0946823 9.07576e-22)
(1.0171 -0.0253304 -1.90353e-23)
(1.00247 -0.00239554 2.85184e-23)
(1.00023 -6.07931e-05 8.7307e-24)
(1.01917 -0.0338263 -5.02515e-24)
(0.997464 -0.0204516 -4.3344e-22)
(0.999409 -0.000240646 2.11405e-23)
(0.999962 -1.33097e-05 3.19321e-25)
(1.21267 0.0701321 1.15171e-21)
(0.992516 -0.00241839 1.76043e-22)
(0.999805 -0.00105147 -7.95803e-24)
(1.15991 -0.0182456 -1.01443e-22)
(0.997372 -0.00222417 -5.57158e-23)
(0.986465 -0.00100462 -2.52485e-22)
(0.998939 -0.000339423 -7.46053e-23)
(1.00233 -0.00239043 9.99592e-23)
(0.988463 -0.00441668 1.26048e-21)
(0.997357 -0.000212481 7.15943e-23)
(0.807398 0.210885 4.13186e-22)
(1.01364 0.00440707 5.01345e-21)
(0.999362 -7.25811e-05 4.85026e-23)
(0.91309 0.169712 -3.00704e-20)
(1.21687 0.0672223 -3.19711e-21)
(0.999029 -0.0111897 -8.00437e-23)
(1.0188 -0.0135858 1.39261e-22)
(1.0463 -0.00923309 -1.04157e-21)
(0.978647 -0.145848 3.77062e-21)
(0.997799 -0.0283101 2.21985e-22)
(0.908253 0.161819 2.46968e-20)
(1.00456 -0.0401832 6.46049e-22)
(1.09605 0.0531269 -1.41668e-21)
(0.965212 -0.0352059 1.49838e-21)
(1.00652 -0.00101191 -3.83571e-22)
(1.00629 -0.000722211 7.29715e-22)
(1.00053 -0.000201546 -2.49412e-23)
(0.986397 -0.0377685 -1.51734e-21)
(0.999828 -0.00102186 -1.94357e-25)
(1.03311 -0.0871733 -2.67986e-21)
(1.00004 -6.94022e-06 -2.23733e-24)
(0.999277 -0.0113479 5.99702e-23)
(0.996984 -0.0151996 -1.23087e-22)
(1.00009 -0.000104306 5.29134e-24)
(1.0041 -0.00447963 -4.00734e-22)
(1.09505 0.0496935 -5.84056e-22)
(1.1378 -0.103717 6.09991e-22)
(0.966905 -0.0551956 -1.71252e-21)
(1.0462 -0.00812467 3.67872e-22)
(0.947615 -0.03849 -8.81406e-22)
(0.992701 -0.00248082 -1.55118e-22)
(1.2148 0.0559608 -2.0606e-21)
(0.995849 -0.00277852 5.57956e-23)
(0.998909 -0.000373969 9.44335e-23)
(1.00008 -0.026675 -3.12674e-22)
(1.0137 -0.0715426 -1.1659e-21)
(0.999919 -8.69295e-06 9.89036e-25)
(0.997464 -0.00227877 -1.149e-23)
(1.25429 -0.0195402 -5.14295e-22)
(1.00501 -0.0392634 -3.6141e-22)
(1.11716 0.140888 1.13262e-20)
(0.85153 0.0560487 6.45978e-20)
(0.998985 -0.0335896 -6.01517e-22)
(0.991093 -0.0170883 5.45042e-22)
(0.890304 0.0351665 2.59909e-20)
(1.00056 -0.000190315 1.6177e-23)
(1.01572 0.00527692 -6.83048e-21)
(0.985833 0.130128 1.71817e-20)
(1.00397 -0.0110976 -1.50869e-22)
(0.850179 0.246474 1.56517e-20)
(0.990075 -0.000784233 8.16173e-22)
(1.13607 -0.0611331 -1.17741e-22)
(1.28672 0.0678139 1.34627e-21)
(0.966443 -0.019976 3.5538e-22)
(0.999939 -2.75105e-05 -2.56905e-24)
(1.00512 -0.0592653 -1.1276e-21)
(0.947584 -0.000902696 -5.80754e-22)
(1.03164 0.0553725 4.0025e-21)
(1.01327 -0.0174995 -5.82833e-22)
(1 -7.68218e-05 -2.23013e-24)
(1.07391 -0.0922283 -1.40004e-21)
(1.2421 -0.147297 -3.58779e-21)
(1.07134 0.134646 -2.36297e-20)
(0.999386 -0.000237107 -1.92737e-23)
(0.999427 -0.000214511 -5.67888e-24)
(0.919312 -0.0501736 -2.12502e-21)
(0.992877 -0.0650909 2.06241e-21)
(0.966325 -0.0209266 3.98584e-22)
(1.00384 -0.00463061 6.82287e-23)
(1.07273 -0.015142 -5.72775e-22)
(0.911429 -0.0214916 -1.78436e-21)
(1.0961 0.159142 1.08199e-20)
(0.996005 -0.0842348 3.26717e-21)
(1.00058 -0.000474222 4.00176e-23)
(0.964236 -0.0788427 -3.21269e-21)
(1.22045 0.0970996 6.13506e-21)
(0.999936 -2.69311e-05 3.72556e-24)
(0.96801 -0.0130039 -2.13962e-21)
(0.999921 -1.06916e-05 -5.18884e-25)
(1.05688 -0.0251464 -2.83276e-21)
(0.965191 -0.055033 1.11633e-21)
(1.04758 0.0157856 6.80274e-21)
(1.0105 0.117725 2.51928e-20)
(0.999451 -0.000217084 -4.72762e-23)
(0.999994 -8.53521e-05 1.34882e-25)
(0.997878 -0.138626 -1.89928e-22)
(0.975816 -0.144338 -3.39961e-21)
(1.05163 -0.0506131 1.45613e-22)
(1.00002 -2.4715e-06 4.86644e-25)
(0.998616 -0.0075718 -2.08654e-22)
(0.999862 -0.00270314 4.53974e-24)
(0.991172 0.132304 1.54087e-22)
(1.06523 0.0767076 -8.38203e-21)
(0.985566 -0.00896965 -8.66996e-22)
(1.00003 -8.39482e-05 8.43439e-25)
(1.00436 -0.0109887 -1.16509e-22)
(1.26819 -0.0679138 8.7229e-21)
(1.00836 0.0171322 1.10281e-20)
(1.19012 -0.0761968 -3.95324e-21)
(0.848419 0.068694 -5.97237e-20)
(1.00134 -0.000439871 -9.67829e-23)
(1.18242 -0.0556909 4.69158e-22)
(1.1589 -0.013827 -5.98955e-22)
(1.01908 -0.0688854 8.82018e-22)
(1.0049 -0.00424907 -3.5826e-22)
(1.00003 -0.000540604 2.4355e-24)
(1.03257 -0.0848037 9.55764e-22)
(1.28574 0.0619695 4.01428e-22)
(1.04463 0.232525 2.36775e-20)
(1.19511 -0.092648 -1.22387e-21)
(1.05502 -0.0246727 2.38562e-21)
(1.01825 -0.0130816 2.64917e-21)
(1.19664 0.238567 1.35745e-21)
(0.966537 -0.000964303 2.97724e-21)
(1.15332 -0.219997 1.1028e-20)
(1.21856 0.0909757 -4.76065e-21)
(1.18175 -0.0508566 -4.13958e-22)
(0.92738 -0.00632398 -2.33716e-21)
(0.940524 -0.0541477 6.91718e-22)
(1.00002 -2.21896e-06 -2.0631e-25)
(0.999986 -4.3377e-06 3.01427e-26)
(0.996907 -0.000107514 -1.2773e-22)
(0.997216 -0.0148916 2.52242e-22)
(0.980762 -0.110639 -2.60955e-21)
(1.15139 -0.169902 5.08631e-21)
(1.279 0.00703025 -1.49866e-21)
(1.03752 -0.0239472 1.30603e-21)
(1.02184 -0.024395 4.21527e-22)
(1.00053 -0.000768917 6.26313e-23)
(0.999839 -0.000272715 4.40097e-24)
(1.00257 0.03522 -2.45657e-20)
(1.00066 -0.00188343 6.83659e-24)
(0.99183 -0.0139022 2.12833e-25)
(1.21925 0.226508 -3.70003e-21)
(1.00784 0.0686777 -2.69424e-20)
(1.14076 -0.099846 -1.29537e-21)
(0.950026 -0.00343103 9.91804e-22)
(0.964006 -0.0615294 2.61981e-21)
(1.21787 0.0599978 5.2821e-22)
(0.999939 -5.63489e-05 7.69696e-25)
(0.999985 -4.17532e-06 -1.22385e-26)
(0.985501 -0.00942678 3.12554e-22)
(0.941991 -0.0530368 -3.8126e-21)
(1.00006 -0.000277242 -6.40487e-24)
(1 -8.15912e-05 -1.25945e-24)
(0.991713 -0.00628676 -1.03881e-22)
(1.00004 -0.000524616 -1.99871e-24)
(1.00702 -0.00730539 -1.97607e-22)
(1.21658 0.235655 4.17691e-21)
(0.967024 -0.000510035 -2.52049e-21)
(1.05221 -0.13697 -1.19542e-21)
(0.9938 -0.000121215 5.2709e-22)
(1.00258 -0.00331182 2.1197e-23)
(0.967146 -0.0127885 3.53372e-21)
(0.998981 -0.00755464 -1.89378e-23)
(1.19496 -0.0670304 2.33449e-21)
(0.999973 -1.24328e-05 8.11894e-25)
(1.01563 -0.0473918 -5.08183e-22)
(1.07558 0.136539 8.31588e-21)
(0.991461 -0.0158758 -3.12868e-23)
(1.14631 -0.216673 -1.05797e-20)
(1.04894 0.0670009 -7.49744e-21)
(0.992296 -0.00346558 -7.71045e-22)
(0.977902 -0.018838 9.63372e-22)
(1.00463 -0.00426997 5.44155e-22)
(0.999119 -0.0104325 -1.23036e-22)
(0.999661 -9.05277e-06 5.21158e-24)
(1.00735 -0.0219953 7.0548e-23)
(0.839258 0.0343307 2.51239e-20)
(1.00165 0.0288984 1.89479e-20)
(0.982496 -0.00759334 2.41125e-23)
(0.992195 -0.0136946 -3.42589e-22)
(0.966108 0.0726013 -2.41621e-20)
(1.01933 0.0436452 3.45812e-21)
(0.913288 -0.0212558 2.20575e-21)
(1.0014 -0.000589482 -7.54607e-23)
(1.0862 -0.117146 1.77479e-21)
(0.963646 -0.104565 3.38382e-21)
(0.997797 -0.0208729 2.06961e-22)
(1.00103 -0.00129518 -1.2324e-22)
(1.2053 0.242097 1.73491e-21)
(0.991977 -0.00630003 -7.01328e-23)
(1.00819 -0.00654674 -2.22924e-22)
(0.978647 -0.110034 3.39887e-21)
(0.998307 -0.141933 4.68902e-22)
(0.999955 -6.40641e-06 2.89824e-25)
(0.979938 0.19514 -2.63223e-20)
(0.998745 -2.83619e-05 -1.25975e-24)
(1 -6.55093e-05 -5.38176e-25)
(0.999338 -0.000252726 8.23359e-24)
(0.996408 -0.0654193 -7.61176e-22)
(1.25162 -0.00306531 1.13591e-21)
(1.01683 -0.0464498 4.58476e-23)
(1.00794 -0.00611564 -1.52934e-22)
(0.997386 -0.000292312 1.78213e-22)
(0.914904 -0.0236938 -4.18778e-22)
(1.00004 -0.000574667 -1.69465e-24)
(1.00059 -0.00192041 5.40334e-25)
(0.997184 -0.000248155 -1.17644e-22)
(1.03512 0.00143112 6.37037e-21)
(0.996803 -0.00479987 -3.8433e-23)
(0.998645 -0.00703552 6.1718e-23)
(1.03409 -0.00181818 3.08947e-21)
(1.00015 -0.000469309 7.71262e-24)
(1.00004 -5.99711e-06 5.91179e-25)
(1.00601 -0.000726917 7.78186e-23)
(0.970225 -0.0400889 -1.29351e-21)
(0.970645 -0.000492428 -1.23275e-21)
(0.994178 -0.000461191 -5.57886e-22)
(1.01702 0.00414522 5.64528e-21)
(0.980889 -0.0013905 5.93351e-22)
(1.02214 -0.0235811 -4.14439e-22)
(0.999961 -1.4851e-05 8.85206e-25)
(0.996433 -0.00317025 -2.16205e-22)
(1.00096 -0.00128525 1.33273e-22)
(1.08548 -0.11295 1.77211e-21)
(1.06737 -0.220919 7.54245e-21)
(0.998326 -0.000151361 9.1711e-23)
(1.00056 -0.000683679 -4.76948e-23)
(0.998525 -0.00686841 -2.08892e-23)
(1.00424 -0.00981607 -2.88438e-22)
(0.986735 -0.000741395 -1.07845e-21)
(0.999941 -5.3745e-05 -8.7915e-26)
(1.23691 -0.144534 -7.7988e-21)
(1.00006 -0.000587534 2.83509e-24)
(1.03471 0.00134904 -4.48816e-21)
(0.99598 -0.00278193 -1.12638e-22)
(1.00018 -0.000455186 3.04044e-24)
(1.04631 0.0164229 -4.32322e-21)
(0.957267 -0.100185 -3.40799e-21)
(1.00031 -5.14683e-05 2.76628e-23)
(1 -1.53919e-05 -2.13815e-25)
(0.927177 -0.00452584 -2.65837e-21)
(1.04785 -0.20553 -1.17066e-21)
(0.989542 -0.0100089 -8.38571e-23)
(1.01794 -0.0704046 -2.32941e-22)
(1.03854 -0.0248399 -2.13708e-22)
(1.08251 0.129345 1.02566e-21)
(1.0001 -9.84709e-05 1.42932e-24)
(0.970789 -0.039251 1.3131e-21)
(1.23631 -0.073367 4.41109e-21)
(0.937086 0.105899 5.63615e-22)
(0.991355 -0.0155195 2.52057e-22)
(1.04692 0.0648193 9.2166e-21)
(1.13645 -0.0568885 -4.13368e-23)
(0.999861 -0.00297471 -7.28285e-24)
(0.68469 0.0950682 3.37121e-20)
(0.999342 -0.000532217 -5.53497e-23)
(1.05137 -0.140941 -1.5261e-21)
(0.916327 -0.02367 2.73386e-21)
(1.00274 -0.00312988 -1.16558e-22)
(1.21995 -0.0279208 -8.69955e-22)
(0.989566 -0.00113698 -6.44841e-22)
(1.05667 0.251835 1.67123e-20)
(0.995774 -0.00032149 5.1134e-23)
(0.978543 -0.020316 -5.05639e-23)
(0.999753 -0.0027023 -4.29681e-23)
(1.22617 0.143909 1.43657e-21)
(1.00009 -0.0211551 5.46045e-23)
(1.09139 0.162422 6.9944e-22)
(0.99938 -5.61124e-05 -2.13917e-23)
(0.992894 -0.0022962 -2.45649e-22)
(0.956883 0.25015 -1.11804e-20)
(1.04093 -7.11976e-05 -5.20373e-21)
(1.03384 -0.00129254 3.5966e-21)
(0.964381 -0.0509855 3.13812e-21)
(0.999815 -3.99477e-05 4.82197e-24)
(1.00411 -0.00948031 -3.28804e-23)
(0.9998 -0.0011488 -1.3741e-23)
(1 -6.20799e-05 -3.4736e-25)
(1.07373 0.00365466 1.34793e-21)
(1.00005 -6.46675e-06 3.95613e-26)
(0.975641 -0.0180214 2.25551e-21)
(1.23303 -0.0752725 -4.18393e-21)
(0.802537 0.22126 -3.03022e-20)
(1.05104 0.231215 -3.77269e-20)
(0.961405 -0.0864692 1.04879e-21)
(0.983118 -0.0367655 8.19445e-22)
(0.972071 -0.00190029 5.88372e-22)
(1.04154 -0.046569 5.58615e-22)
(1.00804 -0.0216961 -1.45249e-22)
(0.97776 -0.0197398 -1.32976e-21)
(0.962451 -0.0949008 4.67713e-22)
(1.08106 0.133847 -1.54518e-20)
(0.999299 0.0289549 3.86532e-20)
(0.998436 -0.000184551 5.03802e-23)
(1.01327 0.118309 -3.44088e-20)
(1.07237 0.00195322 4.48792e-22)
(1.19487 -0.0734121 1.12751e-21)
(1.0167 -0.0195001 2.0206e-22)
(1.00138 -0.0194757 -2.69202e-22)
(1.02746 -0.0644904 -6.19366e-22)
(0.993407 -0.00222086 -5.8164e-22)
(0.996737 -0.000807148 -3.76223e-23)
(0.999926 -8.42674e-06 5.08683e-24)
(0.998922 -0.0106897 1.80268e-22)
(1.11445 -0.0582009 8.50619e-23)
(1.23232 0.148697 -2.30176e-21)
(1.00199 -0.0016998 5.53515e-23)
(0.966523 -0.032975 -1.7881e-21)
(1.01907 -0.0199467 -6.36861e-22)
(0.999952 -2.03916e-05 -3.85437e-25)
(0.961877 -0.0905273 -1.67438e-21)
(0.75286 0.169396 -1.56113e-20)
(0.992394 -0.00592028 8.68413e-22)
(0.998666 -0.00562676 5.60868e-23)
(1.01743 -0.0192747 -1.26033e-22)
(1.00472 -0.0575553 1.43104e-21)
(1.11838 0.0303856 1.53413e-21)
(0.999393 -0.0121259 -2.93845e-23)
(0.99996 -6.52498e-05 1.48383e-24)
(1.00002 -3.48461e-06 2.58475e-25)
(0.996693 -0.000735311 -4.16778e-23)
(0.951988 0.249034 1.61633e-20)
(1.06131 -0.0377654 5.34079e-22)
(1.07317 -0.218333 -1.95118e-21)
(1 -1.54243e-05 -5.84256e-26)
(1.04488 -0.210621 7.53504e-22)
(1.10293 -0.00928418 -1.68173e-21)
(0.993649 -0.000202713 -2.61417e-22)
(0.919413 -0.00861794 -3.29628e-21)
(0.998769 -0.00552815 -5.62925e-23)
(0.999464 -0.000243202 -3.43332e-24)
(0.971617 -0.035469 -3.91949e-22)
(1.00114 -0.00142101 -5.9164e-23)
(1.19931 -0.0644204 -2.05074e-21)
(1.01138 -0.00133043 -1.61331e-21)
(1.26326 0.0497513 -7.76118e-22)
(0.999905 -0.00293555 9.39582e-24)
(1.00536 -0.0172835 4.93172e-23)
(1.00808 0.0151378 -1.49078e-20)
(1.26393 -0.0669637 -3.52748e-21)
(1.00052 -0.000723728 -3.67947e-23)
(1.00055 -0.000641188 3.61997e-24)
(1.00078 0.156621 1.63746e-21)
(0.994283 -0.0662984 -4.09803e-22)
(0.99918 -0.011942 3.59136e-23)
(1.01793 0.0489201 1.82478e-21)
(0.951211 0.0372817 4.75867e-20)
(1.13844 -0.108501 -2.05364e-21)
(0.998985 -0.0324228 -1.80803e-22)
(1.24909 -0.000683508 -1.14091e-21)
(0.999054 -9.10628e-05 -3.71798e-23)
(0.989227 -0.00523335 2.28277e-22)
(0.995862 -0.000338028 -1.4312e-22)
(1.02145 0.0413471 2.19499e-24)
(0.999985 -0.00094399 -1.05348e-24)
(1.011 -0.00161802 1.64829e-21)
(1.17559 -0.156864 1.44629e-22)
(1.03578 0.219362 3.76443e-20)
(0.857745 0.254867 -6.88658e-21)
(0.992532 -0.00345796 3.13474e-23)
(0.989231 -0.00977371 2.51044e-22)
(1.11469 0.146634 -8.96955e-21)
(1.01425 -0.0737493 1.6791e-21)
(0.999928 -1.00826e-05 -4.97215e-24)
(1.28333 0.0289585 -8.63164e-22)
(1.03434 0.00210916 -1.91426e-21)
(1.03375 0.0021017 -1.30157e-21)
(0.992895 -0.0168761 -3.72816e-22)
(1.02336 -0.00246476 -2.52977e-21)
(0.929148 0.22332 6.56261e-21)
(1.1464 -0.181013 -1.4408e-21)
(0.987839 0.209682 6.42678e-21)
(1.01424 0.201008 -1.10057e-20)
(0.999996 -8.1731e-05 -4.34656e-25)
(1.11094 -0.05686 -4.05068e-23)
(1.14657 -0.175045 9.53696e-22)
(0.996654 -0.00484327 9.9897e-23)
(1.00203 -0.00182424 -9.13166e-23)
(0.9424 0.0435358 1.13899e-20)
(1.06336 -0.0388553 -6.76788e-22)
(1.00036 -9.47169e-05 6.23022e-24)
(0.977204 -0.0760749 -3.97325e-21)
(0.96271 -0.107338 -1.59809e-21)
(0.993049 -0.00235965 3.45399e-22)
(0.99985 -0.000264753 -5.54155e-24)
(1.12292 0.187296 -1.23505e-21)
(1.06402 0.0737513 1.40702e-20)
(1.00006 -0.000643461 -9.88364e-26)
(1.00509 -0.00458619 7.01924e-23)
(1.00656 -0.00459524 3.79627e-22)
(1.21295 -0.117534 5.88514e-21)
(0.964427 -0.0496128 -2.84263e-21)
(1.00008 -0.000763799 -4.99247e-24)
(0.999981 -2.77801e-06 -5.08939e-26)
(1.00062 -0.000208987 9.46212e-24)
(1.11685 0.0325982 -1.50555e-22)
(0.965192 -0.0339645 -1.43265e-21)
(1.0047 0.0746208 7.93289e-21)
(0.931865 -0.0599013 1.65214e-21)
(0.98413 -0.0365964 -8.63876e-22)
(0.969791 -0.0014768 -2.35508e-21)
(1.02014 0.046921 -8.98932e-21)
(1.24914 -0.0181876 -1.57932e-22)
(0.998485 -0.000196167 9.20189e-23)
(1.00985 -0.00747438 -4.03436e-22)
(1.00106 -0.00140642 6.71035e-23)
(0.990979 0.233382 -1.60199e-20)
(0.96775 -0.0307809 7.68326e-22)
(1.00136 -0.0003575 -3.17422e-23)
(0.990521 -0.00466144 -3.1248e-22)
(1.18646 -0.0463951 -3.92329e-22)
(0.999516 -0.013029 -7.92174e-23)
(0.985464 -0.0161278 -1.74951e-22)
(1.0003 -0.00018083 -1.93127e-23)
(1.0003 -6.88808e-05 -8.64321e-25)
(0.745334 0.181345 2.35023e-20)
(0.989645 -0.00169347 -4.00793e-22)
(0.993967 -0.00610257 3.57129e-22)
(0.999528 -0.00239506 -4.04372e-23)
(0.999077 -6.95264e-05 -5.09159e-24)
(1.09181 0.122877 -5.15287e-21)
(1.18176 -0.157386 3.61138e-22)
(0.981453 -0.054997 5.19249e-22)
(1.00002 -2.74915e-06 -2.38656e-25)
(1 -4.99249e-05 -3.108e-25)
(0.966484 -0.0318847 2.02237e-21)
(0.991444 -0.00248301 8.23317e-23)
(0.993463 -0.00283337 -4.74139e-23)
(1.01829 -0.0068636 7.79053e-22)
(1.00735 -0.00312012 1.36232e-22)
(1.00044 -0.0216644 -9.801e-23)
(1.15505 -0.0343576 6.10802e-22)
(0.976463 -0.00574446 -4.97152e-22)
(0.990395 0.204362 -5.46023e-21)
(1.01808 -0.0338447 -1.36902e-22)
(1.00032 -0.000181533 2.14146e-23)
(0.960286 -0.0848707 1.54381e-22)
(0.979176 -0.048762 -1.80008e-21)
(1.21236 -0.0219477 -1.98676e-22)
(0.996365 -0.00797639 -1.06931e-22)
(0.986295 -0.0644907 -6.1405e-22)
(0.999973 -7.27479e-06 4.8275e-25)
(0.879297 0.179166 -2.37564e-20)
(1.01951 -0.0028653 1.42401e-21)
(1.00011 -0.000309025 -8.37273e-24)
(0.839147 0.046976 -3.25833e-20)
(0.980114 -0.0552711 1.15585e-21)
(0.999972 -8.49134e-06 8.50186e-26)
(1.00184 -0.00166118 2.70001e-23)
(0.960558 -0.0887507 -9.18723e-22)
(1.04972 -0.0489539 1.78998e-22)
(1.06325 -0.0180673 1.65154e-21)
(0.999989 -4.67458e-06 -1.8002e-26)
(0.989588 -0.000865329 3.18619e-22)
(1.02857 -0.0631074 1.11825e-21)
(0.993242 -0.00216523 4.77307e-22)
(0.999406 -6.44213e-05 -1.14626e-22)
(0.98944 -0.0054038 6.2749e-24)
(0.960229 0.0759559 2.80244e-21)
(0.990928 -0.0166013 -4.53386e-22)
(0.98608 -0.0157953 1.28012e-22)
(1.00306 0.0410813 -7.63641e-21)
(0.996497 -0.00299495 1.12333e-22)
(0.98063 0.239637 -1.99786e-21)
(0.99997 -8.56007e-06 -2.53716e-25)
(0.986816 -0.0368386 3.52379e-22)
(0.978019 -0.104666 3.97193e-21)
(0.987585 -0.0649025 1.04888e-21)
(1.22921 -0.0859618 1.22573e-21)
(0.998493 -0.00735737 1.39791e-22)
(1.01203 -0.0317205 2.67969e-23)
(0.999889 -0.00316161 1.37271e-24)
(0.97827 -0.0286979 -1.00277e-21)
(1.05142 -0.0530459 2.29161e-23)
(0.999954 -1.95312e-05 1.83405e-24)
(1.00002 -1.58647e-06 -4.18938e-25)
(0.991861 -0.000556547 2.16864e-22)
(0.974523 0.141369 1.72512e-20)
(1.01647 -0.0262301 6.97428e-22)
(1.00332 -0.004674 -1.11426e-22)
(0.913868 -0.0443953 2.28165e-21)
(1 -1.38366e-05 -1.8063e-25)
(1.00125 -0.00155134 -1.06698e-22)
(0.999955 -0.000900144 -1.27621e-24)
(1.01825 -0.0251517 8.00508e-22)
(0.97845 -0.0212141 1.77404e-22)
(0.999508 -0.000378437 1.4144e-23)
(0.991526 -0.0148112 1.71357e-22)
(0.984111 -0.00935685 -1.83999e-22)
(1.00131 -0.000214395 -8.69763e-24)
(0.99997 -9.93086e-06 -1.65842e-25)
(1.23987 -0.0524805 -3.75277e-21)
(0.999577 -0.00235492 4.34509e-23)
(1.09929 -0.0147707 1.28168e-21)
(1.06127 0.204226 3.7956e-20)
(1.10656 0.147718 -8.40525e-21)
(1.0008 -0.0273383 -3.71484e-22)
(1.0072 -0.00282785 -4.50996e-23)
(1.02381 -0.00196517 1.55067e-21)
(0.999953 -0.00323169 -1.53189e-24)
(0.997179 -0.013866 1.78529e-22)
(1 -2.30009e-05 -4.59172e-25)
(1.00907 0.202887 -7.82891e-22)
(0.984311 -0.0212369 2.48571e-22)
(1.01793 -0.00633005 -5.57071e-22)
(0.976995 -0.00596186 1.0351e-21)
(1.00474 -0.0169982 5.72092e-24)
(0.996583 -0.00784486 2.33496e-22)
(0.999865 -0.000271338 1.21855e-24)
(1.00002 -1.48478e-06 -2.12904e-24)
(0.994173 -0.00607834 -2.60096e-22)
(1.07282 -0.0172894 -8.86533e-22)
(1.00834 0.0720243 1.22899e-21)
(1.00158 -0.000634257 -1.27861e-22)
(0.966418 -0.0789276 -8.49826e-22)
(0.967659 -0.0298578 -3.38677e-22)
(0.989845 -0.000678222 -1.19493e-21)
(1.27528 0.00782764 9.20511e-22)
(0.998324 -0.00128965 -5.53077e-23)
(1.00483 -0.0192197 -1.17459e-22)
(0.992952 -0.00372655 2.4189e-22)
(0.999877 -0.00026156 1.03713e-24)
(0.960946 -0.0929022 1.0529e-21)
(1.00406 0.0641393 -1.24052e-20)
(1.04705 0.0584556 -9.41608e-21)
(0.970785 -0.0199604 -1.63256e-22)
(1.00309 0.0607177 -5.17604e-22)
(1.00011 -0.000290221 1.66687e-23)
(1.00002 -2.02978e-06 6.84505e-25)
(1.27925 0.0290661 1.9671e-22)
(1.21838 -0.0232873 8.2735e-22)
(0.848117 0.184629 -1.11559e-21)
(1.00061 -0.109074 3.01668e-21)
(0.970119 -0.00203893 -7.59191e-22)
(1.1854 -0.0408517 6.20379e-22)
(1.0015 -0.000661032 1.44921e-22)
(0.992697 -0.00501876 1.38619e-22)
(1.00059 -0.000221907 -8.94539e-24)
(0.986181 -0.000950213 -2.56154e-22)
(0.984815 -0.0173639 -3.63791e-22)
(0.999995 -4.47684e-05 1.06151e-24)
(0.998855 -4.41079e-05 2.14165e-23)
(1.0334 0.213753 -3.68959e-20)
(0.999834 -0.000934674 1.18717e-23)
(0.893821 0.163302 2.97848e-20)
(1 -2.18968e-05 3.47732e-25)
(1.26907 -0.0364541 -3.40061e-21)
(1.09914 -0.0173393 -2.75249e-21)
(1.15508 -0.0306016 -6.8414e-22)
(1.00134 -0.000626708 8.70913e-24)
(1.00024 -5.57087e-05 1.74409e-23)
(0.980712 0.132107 -2.62752e-20)
(1.1029 -0.0121932 5.56889e-21)
(0.977333 -0.106766 -3.60868e-21)
(1.03306 0.058138 4.34524e-21)
(0.997178 -0.0277768 1.54136e-22)
(0.982666 -0.00715402 -2.67673e-22)
(0.994751 -0.00028961 -1.43444e-22)
(1.26825 0.169066 -8.40341e-21)
(0.969087 -0.0356924 1.26118e-21)
(1.04215 -0.0446191 -4.01749e-22)
(0.991866 -0.0146744 -9.85156e-23)
(1 -1.37659e-05 -5.23092e-27)
(0.998341 -0.00121784 -4.68773e-23)
(1.00772 -0.00789192 2.35037e-22)
(0.976166 -0.0106302 1.3246e-21)
(0.97155 -0.0201207 2.45027e-22)
(0.944028 -0.054022 -3.7056e-22)
(0.975917 -0.0112721 -1.00482e-21)
(1.02512 0.00375151 7.60576e-22)
(0.997252 -0.000187458 2.94983e-24)
(0.921245 -0.0507918 1.17908e-21)
(0.981752 -0.00121933 -3.67376e-22)
(1.00005 -0.000280263 3.69484e-24)
(0.984083 -0.000975603 -2.53702e-22)
(1.04293 -0.0482279 -5.57627e-22)
(1.02413 0.00403083 -4.20713e-21)
(0.966442 -0.0359162 -3.12527e-22)
(0.999978 -9.70635e-07 -1.89241e-27)
(0.977443 -0.0216866 2.66814e-22)
(1.00284 -0.0196477 3.09843e-23)
(1.0018 -0.00154208 3.48058e-23)
(1.17082 -0.178341 -4.38427e-21)
(1.00335 0.0608884 -2.90394e-20)
(1.00117 -0.00153237 9.91443e-23)
(0.984356 -0.000735988 3.38932e-24)
(1.12862 -0.108798 7.68005e-23)
(1.03574 0.000328231 6.36377e-21)
(0.983266 0.0535822 -3.01502e-21)
(1.00239 -0.00326192 3.05942e-23)
(1.00058 -0.0284749 1.15621e-22)
(1.18979 0.147195 -2.07559e-21)
(1.02248 0.0365281 -2.21704e-20)
(0.988185 -0.0367086 9.37035e-22)
(1.00617 -0.00459884 -4.2449e-23)
(0.938047 -0.0640909 1.69782e-21)
(0.999997 -7.05099e-06 -1.89761e-25)
(0.936366 -0.00272435 -1.20172e-21)
(1.00011 -9.19312e-05 2.79924e-24)
(1.12538 -0.110196 -4.86042e-21)
(0.999957 -4.69001e-06 -1.97981e-25)
(1.00004 -8.20764e-05 2.48214e-24)
(1.00012 -0.0318461 -1.40344e-22)
(1.25755 -0.0158548 1.28303e-21)
(1.11602 0.254867 1.43902e-20)
(1.04719 -0.0496217 -8.19949e-22)
(1.01818 -0.0201428 4.23714e-22)
(0.999999 -5.52075e-06 7.21142e-26)
(0.992117 -0.00596296 -4.68731e-22)
(1.00012 -2.8022e-05 -2.00502e-24)
(0.995945 -0.00318752 1.61503e-22)
(1.00004 -7.64344e-05 -1.94358e-24)
(1.0635 -0.015614 -5.14775e-21)
(0.999391 -0.000626367 -5.63375e-23)
(1.08775 0.0726947 8.77791e-21)
(0.999837 -0.000289279 -8.62534e-24)
(0.9833 -0.00698774 -4.53232e-22)
(0.946434 -0.00146332 2.80055e-21)
(0.994481 -0.000397681 -1.85327e-22)
(0.972917 0.076149 2.8914e-20)
(0.977581 -0.000957177 6.9144e-22)
(1.03563 -0.136578 2.63099e-22)
(0.992888 -0.00526391 7.18428e-22)
(1.03322 -0.00351834 -1.30166e-21)
(0.963084 -0.0801656 3.68298e-21)
(1.02535 -0.00183902 -4.33662e-21)
(1.05266 -0.092888 -1.13307e-22)
(0.999981 -2.23074e-06 1.0743e-26)
(0.999134 -0.0269178 1.27781e-22)
(0.994837 -0.000382243 2.25785e-23)
(1.00033 -0.000122146 1.27801e-23)
(1.00011 -2.35386e-05 3.44601e-24)
(1.27494 0.16534 9.09495e-21)
(0.99368 -0.00284235 4.00299e-22)
(1.03556 0.00134143 7.2857e-21)
(1.00142 -0.0291566 1.42369e-22)
(1.00111 -0.000401824 3.40669e-23)
(1.03083 -0.0110462 -4.70886e-21)
(1.00022 -5.25337e-05 -3.92631e-23)
(0.999968 -4.52634e-06 -2.31327e-26)
(0.937142 -0.00362875 9.27546e-22)
(0.995481 -0.00162077 1.7984e-22)
(1.00004 -7.4432e-05 2.63829e-24)
(1.12316 0.138593 5.92222e-21)
(0.777372 0.147212 -4.35064e-20)
(0.999727 -0.000306213 2.42016e-23)
(0.948828 -0.00295179 -7.72493e-22)
(1.00002 -2.03296e-06 4.80993e-25)
(0.921166 0.218953 -2.69295e-20)
(1.27297 -0.0367601 -4.36639e-21)
(0.96296 -0.0642961 -2.9581e-21)
(1.00006 -0.000738617 -6.12388e-24)
(1.04069 -0.0430749 1.00417e-21)
(1.04042 -0.00387055 -1.79722e-21)
(1.04188 -0.000146554 5.35605e-22)
(1.06471 -0.0190009 -6.30477e-22)
(0.999533 -0.00252458 -6.4276e-24)
(0.999831 -0.0011198 1.07669e-23)
(0.981928 -0.021131 -7.90201e-22)
(1.00001 -1.2138e-05 -7.27992e-25)
(1.00002 -1.70532e-06 -1.23872e-25)
(0.967963 -0.035068 -7.41091e-22)
(0.997869 -0.0831251 -1.62195e-21)
(0.945658 -0.0529962 -9.45529e-23)
(0.820055 0.21177 -1.00673e-21)
(1.00026 -3.39065e-05 -1.59927e-23)
(1.02351 -0.103149 -3.53339e-21)
(1.00954 -0.00701779 -4.14989e-22)
(0.99997 -4.79723e-06 2.69999e-25)
(0.998695 -0.00523857 -1.21397e-22)
(1.00005 -0.00062605 -4.43792e-24)
(0.994284 -0.0171096 2.81873e-22)
(1.00006 -1.37743e-05 2.28184e-24)
(1.0549 -0.0911726 -2.67633e-22)
(1.02485 -0.0022448 4.20447e-21)
(0.98281 0.233887 5.60536e-21)
(1.03253 -0.00331322 4.89396e-21)
(0.999641 -0.000299981 1.98787e-23)
(1.00059 -0.000517599 -3.49052e-23)
(1.21265 -0.123499 -5.93967e-21)
(1.03548 0.00104245 -5.8614e-21)
(0.995999 -0.00052426 1.61676e-22)
(1.00002 -2.03128e-06 9.97606e-25)
(1.13731 0.110139 -9.38498e-21)
(1.1313 -0.219725 -1.84813e-21)
(1.00065 -0.106662 -1.34546e-21)
(0.981249 -0.00103844 -1.94101e-22)
(0.999972 -2.99056e-05 3.87996e-25)
(0.999644 -0.000282986 -1.16062e-23)
(1.13887 -0.22263 5.16447e-21)
(0.997954 -0.0665277 -4.46376e-22)
(1.05476 0.0399989 1.33376e-21)
(0.987619 0.196941 2.37353e-20)
(1.03383 -0.133145 1.95043e-21)
(0.998366 -0.000112559 -2.88755e-23)
(0.999973 -1.39837e-05 -5.3407e-25)
(0.95245 -0.0687643 2.89152e-21)
(0.972234 -0.137679 -3.99684e-21)
(0.999738 -0.000317081 1.2737e-23)
(1.01285 -0.0308414 2.61966e-22)
(0.988587 -0.0357229 -1.65752e-22)
(0.994009 -0.00304756 1.57896e-22)
(0.997472 0.0537404 -2.23771e-20)
(0.998339 -0.000727897 1.02577e-22)
(1.06841 -0.0685516 -1.67009e-22)
(1.29055 0.0692582 -1.45404e-21)
(0.989998 -0.00439799 -4.55996e-22)
(0.843205 0.173724 -4.20733e-21)
(0.85575 0.0800371 1.36158e-20)
(0.99996 -6.9089e-05 -1.43101e-24)
(0.999967 -0.000983854 3.18894e-25)
(0.977851 -0.00127185 -4.42992e-22)
(1.01702 -0.00622555 -1.00924e-21)
(0.950988 -0.0027202 1.61176e-21)
(1.00672 -0.00570445 -4.35499e-22)
(0.990358 -0.00441152 4.26587e-22)
(0.999267 -0.000666771 -4.33967e-23)
(0.940212 0.217263 -4.72813e-21)
(1.08771 0.0690364 -1.36474e-20)
(1.00294 -0.00316149 7.82472e-23)
(0.698395 0.0904364 -8.59929e-21)
(1.00002 -1.76945e-06 -7.01699e-25)
(1.03366 0.00844983 -1.02882e-20)
(0.993528 -0.132297 2.89466e-21)
(1.02665 -0.103033 1.38166e-21)
(1.00012 -0.000281886 -8.86065e-25)
(0.948619 -0.00149108 1.32528e-21)
(1.03038 0.0076917 5.81385e-21)
(1.01658 -0.00666476 8.34641e-22)
(1.03978 -0.00243569 2.51042e-21)
(0.999422 -5.05132e-05 8.06009e-23)
(0.999384 -0.00066722 5.1082e-23)
(1.0326 -0.0614331 3.19742e-22)
(0.995556 -0.00174623 -5.1641e-22)
(0.983676 -0.0157952 -8.57226e-22)
(0.998854 -0.00474735 7.18915e-24)
(1.11669 0.0416191 6.18081e-21)
(0.9988 -0.0280482 -8.72624e-23)
(0.993615 -0.00645927 8.78009e-24)
(0.9093 -0.0376403 -3.35285e-21)
(1.00514 0.15565 2.69507e-21)
(1.14066 -0.053268 9.51625e-24)
(1.03014 -0.0105833 3.78661e-21)
(0.999487 -0.000244102 1.51949e-23)
(0.999343 -0.000436422 6.92165e-24)
(0.977287 -0.0283617 2.01559e-21)
(1.00129 -0.00166907 -7.8987e-23)
(0.996652 -0.00092445 -2.91771e-23)
(0.999973 -2.87033e-05 -1.42414e-25)
(0.999582 -0.00257206 1.31723e-24)
(1.02956 0.00709336 -2.26355e-21)
(0.980173 0.138437 -2.51788e-20)
(0.999835 -2.08368e-05 2.81924e-24)
(1.27641 0.123493 -5.97153e-21)
(0.999994 -5.58388e-05 -4.34406e-25)
(0.995819 -0.00377455 2.19879e-22)
(0.999989 -0.000128067 -1.85608e-25)
(1.00676 -0.00493823 -1.93378e-22)
(1.24112 -0.0565861 2.85435e-21)
(0.999949 -5.80502e-05 2.25768e-25)
(0.999948 -6.21916e-05 1.37807e-24)
(0.930467 -0.0606284 -1.57813e-21)
(1.00001 -1.20139e-05 -3.29933e-26)
(1.06885 -0.0190889 5.22643e-21)
(0.984522 -0.0562719 1.66884e-21)
(0.99997 -0.000865193 7.52928e-25)
(1.12526 0.0827146 -7.41684e-21)
(1 -3.99003e-05 5.83344e-25)
(0.999486 -5.22355e-05 6.97494e-23)
(0.999885 -4.78449e-05 1.18103e-25)
(0.993846 -0.00647166 -1.34054e-22)
(0.999569 -0.00205079 -2.02185e-23)
(0.992017 -0.000422114 -1.45816e-22)
(1.00938 -0.158708 -3.35967e-22)
(0.999618 -0.00199709 1.35087e-23)
(1.00541 -0.00460545 -1.50624e-22)
(0.999968 -3.28548e-06 -1.06031e-25)
(1.11676 0.247301 -2.80524e-20)
(1.06629 -0.0699581 -4.75758e-22)
(1.14436 -0.0542834 2.02317e-22)
(0.954472 -0.00812416 1.73815e-21)
(0.970719 -0.00574816 -3.20548e-22)
(0.998811 -0.00512288 2.00432e-22)
(1.00376 -0.00351795 2.11392e-22)
(1.07681 0.0935547 3.82088e-21)
(0.978333 -0.0501954 2.44581e-22)
(1.1989 0.109343 2.76457e-21)
(0.943249 -0.0185033 -3.13071e-21)
(0.995669 -0.00364471 -2.07141e-22)
(0.999988 -5.70054e-06 1.96346e-26)
(0.99271 -0.00373964 -2.91563e-22)
(1.06443 0.252845 7.57928e-21)
(1.11804 0.0997269 -1.76786e-21)
(0.979238 -0.0754734 1.35899e-21)
(0.92282 -0.00802481 7.22113e-22)
(1.11783 0.228954 7.67744e-21)
(0.989065 -0.000774192 3.77701e-22)
(0.986316 -0.121324 2.29118e-22)
(0.999989 -0.000122456 -1.16526e-24)
(0.983052 -0.056569 2.07415e-21)
(0.998931 -0.000301559 -1.06149e-22)
(0.718712 0.156943 -2.46302e-20)
(0.976367 -0.0995209 -2.99199e-21)
(0.999888 -4.29167e-05 4.73767e-24)
(0.917994 -0.0260962 -1.87345e-22)
(0.978226 -0.0532578 1.11979e-22)
(1.05889 0.1086 1.4061e-20)
(0.996699 -0.00100892 -2.74907e-22)
(0.975667 -0.0514263 -7.30006e-22)
(0.99694 -0.0142174 -2.49299e-22)
(1.00021 -0.0307727 -2.90565e-22)
(0.998382 -0.000740729 -7.01051e-23)
(1.05647 0.106448 -1.71052e-20)
(1.05992 -0.21607 3.32288e-21)
(0.977373 -0.0225775 -5.91437e-22)
(0.982631 -0.0196411 1.26462e-23)
(0.983437 -0.00660008 -1.82534e-22)
(1.00675 -0.00268814 -1.77682e-22)
(1.1173 0.220506 2.99544e-20)
(0.977267 -0.0183123 2.6756e-22)
(1.02227 0.0559137 9.56587e-21)
(1.00347 -0.00282613 1.61183e-22)
(1.23357 -0.0830523 -9.90839e-23)
(0.88934 0.176037 4.5135e-21)
(0.988848 -0.00060365 -1.30607e-21)
(0.999707 -5.50033e-05 1.2912e-23)
(1.09011 0.127577 3.98046e-21)
(1.02485 0.205739 -3.04134e-20)
(1.03159 -0.0592718 -3.91624e-22)
(1.10363 -0.059007 -3.98381e-24)
(0.994 -0.0177452 -3.14964e-22)
(0.955173 -0.00734324 -1.03053e-21)
(1.1839 0.145237 8.44672e-21)
(0.950647 -0.069061 4.82801e-22)
(0.999969 -2.87148e-05 5.70156e-25)
(0.990516 -0.000149476 -6.72382e-22)
(1.00005 -7.49019e-06 2.38621e-24)
(0.994291 -0.000357209 5.03379e-22)
(0.999968 -3.01342e-05 -8.97149e-25)
(0.997496 -0.0198314 4.18481e-22)
(0.998779 -4.88661e-05 3.7896e-23)
(0.996529 -0.00743925 2.69916e-23)
(1.21917 -0.10644 -1.00792e-21)
(0.999245 -0.00051031 3.73892e-23)
(0.999365 -0.000261696 2.52079e-23)