/*--------------------------------*- C++ -*----------------------------------*\
  =========                 |
  \\      /  F ield         | OpenFOAM: The Open Source CFD Toolbox
   \\    /   O peration     | Website:  https://openfoam.org
    \\  /    A nd           | Version:  7
     \\/     M anipulation  |
\*---------------------------------------------------------------------------*/
FoamFile
{
    version     2.0;
    format      ascii;
    class       surfaceScalarField;
    location    "6";
    object      phi;
}
// * * * * * * * * * * * * * * * * * * * * * * * * * * * * * * * * * * * * * //

dimensions      [0 3 -1 0 0 0 0];

internalField   nonuniform List<scalar> 
11380
(
169.655
-558.361
388.705
-765.82
8.42241
757.398
449.064
-378.285
-70.779
669.328
263.756
-933.085
1510.59
-1069.41
-441.177
1216.27
-1527.11
310.841
-9.58143
468.576
-458.995
168.957
-841.507
672.549
962.015
-1610.77
648.751
-1773.23
1679.93
93.2975
-542.946
1759.22
-1141.47
1935.29
-793.815
606.803
181.257
-788.059
-26.1718
-1319.6
1345.77
221.969
-1995.2
1022.69
-383.879
-638.812
-197.773
367.428
484.198
190.638
-674.836
1154.82
-1314.49
159.665
-312.632
374.95
-62.3176
1003.38
-1323.71
320.325
1221.64
799.762
-2021.4
75.0449
-1646.98
1571.94
-499.742
-1162.65
1662.39
474.87
181.969
-656.839
-211.036
-347.325
497.803
1012.78
1654.46
-1814.72
160.256
-102.867
-1690.04
1792.91
-1559.64
654.567
905.069
-309.205
652.96
-343.755
-186.556
-97.7888
284.345
1289.9
-1214.85
355.288
-1407.3
1052.02
-1754.28
1754.28
103.504
1539.15
-1642.66
-1081.8
-477.833
668.384
-677.965
-386.067
941.781
-555.715
1331.81
-1317.21
-14.602
-1100.16
714.094
624.723
397.968
-391.028
-31.8771
422.905
-469.583
772.021
-302.438
-1618.41
1618.41
1253.56
-1437.86
184.306
-488.989
1710.63
1254.23
-312.453
1660.72
-1161.22
-499.5
72.5218
-385.154
2066.54
-1136.01
-930.538
1822.04
-167.58
453.488
156.082
-609.57
-464.294
973.288
-508.994
-1176.74
1280.24
-567.398
970.127
-402.729
398.867
755.953
660.868
-491.911
-437.778
592.426
-154.649
1190.6
-835.315
2308.22
-1080.68
-1227.53
1164.13
-2010.27
846.146
-1609.53
1583.36
440.588
-1582.06
-758.904
1250.49
-491.583
-671.62
362.415
1661.44
-699.424
-1106.93
-870.899
1977.83
701.661
-349.118
-352.543
690.221
564.014
-258.209
1511.77
109.034
-315.193
206.159
-284.731
759.601
-333.964
562.868
-228.904
-324.447
808.645
-318.699
-145.448
464.147
321.998
127.065
1466.91
-463.525
-990.492
475.32
515.172
273.246
92.7513
-365.997
948.188
-341.385
-1706.52
613.198
1093.32
12.3659
-861.859
849.493
-278.534
592.973
-314.44
157.748
-1093.72
935.975
1051.05
-1066.65
15.6015
373.074
517.789
-890.863
-245.303
698.791
-1103.3
-482.437
1585.74
-677.451
950.215
-272.764
1356.64
-1459.51
-625.553
247.473
378.08
-470.199
-1011.51
1481.71
-537.38
-795.499
1332.88
575.645
-995.694
420.05
-263.848
-315.666
579.514
404.1
-295.066
-1039.64
575.345
955.472
-797.724
-110.359
943.789
-833.43
-206.796
414.846
-208.05
-647.848
-342.643
-386.717
962.362
1856.36
-1856.36
-491.562
-133.991
-957.953
1581.83
-623.879
428.99
-857.164
428.174
-922.88
355.482
-941.907
-1058.08
-1493.06
340.69
1152.37
-277.445
946.773
-318.449
614.581
-296.132
-1941.9
999.99
-1146.85
-346.213
567.459
-1525.41
1728.48
-1725.86
-2.62356
192.326
-590.91
398.584
-1477.04
985.235
491.808
283.086
216.532
-499.617
307.92
-641.884
238.848
-414.021
175.174
2022.46
-820.313
-1202.14
-540.375
149.347
615.676
838.305
-1453.98
-183.577
422.424
431.516
876.379
-1307.9
-905.648
390.985
514.663
-1048.83
1447.69
-1068.49
309.583
749.496
-96.5357
542.913
-315.312
-227.601
1015.35
-540.035
593.408
-1403.74
810.334
-1342.18
238.878
-544.098
265.565
-1215.4
937.957
1927.42
-1024.71
-902.711
276.799
1579.56
-2097.29
897.066
1200.22
360.926
-32.0604
-328.865
-223.364
480.457
-257.093
-104.974
-381.787
486.761
-463.723
145.025
339.504
-131.483
560.473
420.568
378.573
-799.141
-2051.14
1129.71
921.427
461.215
-529.207
67.9923
219.99
-361.117
141.126
974.18
1048.28
1793.97
-254.816
714.92
-467.447
796.126
-1389.33
593.2
330.095
371.566
1061.29
-1048.92
-485.188
-284.305
769.492
474.098
-133.135
-340.963
796.286
-615.03
515.458
-734.624
219.166
503.331
1157.39
-1240.05
702.666
1040.55
-1540.29
-3.12433
-1439.42
1442.55
326.624
823.454
-1150.08
622.536
269.901
-892.437
-2278.51
1176.6
1101.9
-1151.98
-1126.53
136.514
378.945
958.904
-632.281
878.535
-898.308
19.7727
-2099.39
992.458
-222.408
-188.256
410.663
-41.9989
1770.48
-828.352
62.5315
-1030.5
-1066.79
-228.718
448.708
-660.087
168.525
-260.443
-465.43
725.873
1103.98
-1574.18
782.744
-1374.3
591.559
718.997
-455.24
1947.84
-1444.51
-378.287
-1375.99
44.1463
424.43
-525.041
533.464
18.8487
-572.152
553.304
568.491
-285.405
-602.076
277.67
324.405
780.389
-359.821
34.2432
326.682
1188.47
-1191.59
172.805
231.295
435.351
-695.794
618.958
-1005.68
-2026.75
2026.75
-263.699
-477.031
740.73
698.949
405.851
-1104.8
579.543
169.953
406.353
374.036
-2199.76
1328.86
-926.138
-679.738
1605.88
-486.637
-728.764
-293.456
591.892
-298.436
858.487
-244.324
-614.163
-445.653
637.98
361.464
-679.913
-363.204
-115.501
478.706
-1337.25
-477.476
657.228
-1143.87
-374.149
-1244.26
844.345
1463.87
303.655
-886.326
582.672
966.116
-341.393
1391.28
-797.871
442.315
-269.51
-326.105
-903.536
607.784
295.753
-373.299
-530.237
309.923
-414.897
-152.102
-165.931
318.033
-392.781
1091.73
434.343
-243.705
-390.372
1359.08
-165.939
-1193.14
-462.969
277.809
185.159
272.932
260.296
-533.228
-36.4373
-698.187
592.149
-1729.05
1136.9
1484.65
-868.973
-1057.91
-419.135
-1056.39
574.018
482.375
1396.09
-410.852
928.888
-1411.32
-193.196
-148.666
341.863
-468.432
579.174
-1628
427.894
903.916
265.155
354.338
-619.493
568.048
1186.23
1103.17
-712.232
-390.939
401.187
-214.07
-187.116
-1419.43
445.907
737.436
-1183.34
1473.3
-544.413
-514.412
961.603
-447.191
426.155
1186.15
-1612.3
47.3725
-724.824
-147.543
420.788
168.742
-355.298
548.295
467.059
-551.342
11.3752
539.967
1024.52
-1307.65
283.131
664.701
-258.349
468.348
-1447.21
978.864
384.079
1687.78
-523.649
862.263
1065.16
-659.919
-1684.72
758.579
558.459
405.431
-963.89
456.723
79.0149
1750.02
-1829.03
1443.67
-379.493
-1064.18
1699.13
-1741.13
-366.171
-523.63
717.433
-193.803
-502.591
180.308
293.79
-373.158
-1225.95
214.434
-764.685
-639.057
-603.006
988.582
-385.576
-652.134
642.055
10.0791
654.884
-923.506
268.622
-659.441
321.64
337.802
-647.816
-738.754
375.979
362.776
-932.194
1400.54
-420.158
888.246
-468.088
-2205.32
5.55689
176.413
-533.577
357.164
139.454
1219.63
-71.434
-588.653
156.802
-594.58
1487.07
-704.327
378.178
-462.041
83.8628
-563.204
563.204
1223
395.415
1778.15
-1228.31
589.72
638.589
848.176
-51.8898
1292.21
774.334
-540.58
1336.71
294.156
298.817
269.307
-792.937
214.712
-684.295
228.85
-441.461
212.61
-280.594
620.124
-339.53
106.318
-386.912
-591.514
-564.633
1156.15
-395.848
530.675
-134.827
-1192.15
2032.03
-839.883
1289
-330.095
-399.582
135.734
-1993.06
830.409
1549.23
-860.735
-688.49
1987.01
-877.468
-1109.54
714.077
574.923
-240.251
469.102
-693.637
1171.75
-478.108
-769.608
1201.12
551.773
924.589
-1725.52
800.928
-581.595
-46.8465
628.442
278.816
264.097
442.036
-90.2386
-351.797
896.509
-83.5105
-812.999
918.504
-573.269
-345.235
1576.17
-472.186
892.005
-1628.05
736.047
1068.46
879.384
747.857
-440.155
-307.702
-1058.91
-258.3
566.284
575.396
-1141.68
-491.492
496.905
-5.41217
575.209
-341.467
-233.741
-985.077
564.92
594.661
889.988
-441.789
1096.67
1417.46
-785.588
-631.873
393.118
-923.507
530.39
-1034.49
386.642
562.026
-1076.44
430.383
-515.519
85.1359
453.895
318.126
-514.456
-48.748
-793.996
-880.154
1674.15
190.283
210.904
-260.576
397.089
-4.03859
-567.951
571.989
501.42
866.194
-1367.61
-462.851
310.749
985.414
-88.9043
835.788
-1064.52
228.733
412.482
845.606
-1386.19
-452.462
831.035
1980.19
-1286.21
-693.982
269.742
608.794
255.671
795.379
89.2761
-984.572
895.296
1673.73
-1088.98
-584.747
-138.026
1888.05
-1866.1
-160.649
482.877
-621.037
138.16
-1012.8
527.257
485.541
-1730.47
538.316
-955.595
845.236
392.316
200.111
559.468
-255.813
-418.794
709.255
256.861
15.7662
729.975
-745.741
-1179.69
-848.02
2027.71
-558.862
1116.54
-557.676
-467.282
-329.753
107.345
-1656.34
862.339
-845.454
-630.804
1476.26
-330.301
-294.775
625.076
370.303
-691.596
321.293
246.101
-605.923
315.875
198.179
-514.054
351.782
-645.238
665.747
-295.444
314.874
-460.322
687.366
457.525
-184.593
-424.669
-314.086
1225.78
-0.150173
-1225.63
1039.15
-420.19
559.347
410.78
-1782.33
869.815
912.513
487.916
554.13
-1042.05
-533.635
203.334
-263.842
1181.52
-917.674
-1590.84
1212.56
504.615
-1096.13
384.721
-6.54267
462.543
291.647
-754.19
370.405
-615.708
-35.0094
757.682
-722.672
-525.36
795.26
393.463
321.577
526.599
652.195
73.0995
-429.353
356.253
1058.41
-644.811
-413.602
494.032
-1664.27
1170.24
-1140.34
1753.23
-612.889
1715.85
-1123.7
-334.319
611.99
-1195.58
1284.85
424.856
-796.012
1608.71
-812.696
-255.294
-207.675
-922.289
1471.18
1814.61
-610.522
-1204.08
-405.091
701.088
-1304.09
-124.698
-69.5668
511.603
-694.499
-354.178
-1236.66
-217.793
463.894
902.927
-558.061
176.274
-1674.74
-71.291
1746.03
-1079
520.139
566.518
-1183.62
617.103
900.885
913.72
630.577
619.91
702.16
259.444
-1164.3
470.664
-396.324
415.172
618.017
-514.232
241.541
-730.13
488.588
711.82
-381.725
-277.108
179.319
-595.658
248.671
346.986
-886.268
-741.784
1087.67
-2145.74
397.518
-682.248
-342.869
-723.783
833.227
584.234
-340.421
308.544
396.684
271.465
613.625
-885.09
546.965
624.78
-520.444
157.24
389.128
-652.827
-1097.29
-797.855
1895.14
-1803.68
156.702
1106.84
-1370.68
1190.11
-722.58
-467.533
-504.136
1349.74
-1495.48
627.911
867.565
-285.533
-209.779
495.312
1428.43
558.582
340.211
-455.712
-481.422
-570.442
1051.86
-420.678
597.091
1582.95
-1130.24
-452.713
-815.994
338.963
654.635
403.778
-1623.42
416.175
1207.24
-187.286
503.161
797.723
785.231
177.147
-684.927
507.78
203.941
210.904
-286.686
-109.615
396.301
471.317
37.1007
-508.417
-1655.3
597.391
-1616.52
1684.4
-67.8764
12.0418
-1628.56
1069.52
782.476
-319.933
-831.018
-203.472
-1134.59
-239.712
-312.046
682.451
-1812.76
-633.768
1209.16
216.163
757.125
-1331.75
-678.522
-465.8
640.359
-375.204
-1013.27
1350.8
-1932.96
582.166
646.852
1288.43
483.104
-2.64696
716.076
710.311
-1426.39
-637.301
333.047
304.254
437.851
-100.325
-337.526
145.281
294.625
155.172
-449.797
-591.331
1149.79
461.349
-626.319
-460.746
-401.852
862.597
-313.92
120.724
-456.088
161.022
-303.265
-709.533
544.571
-106.719
-573.838
966.955
575.677
-268.562
-307.115
454.208
-778.655
-645.429
449.857
-1129.39
-845.283
1185.97
-569.772
449.236
320.256
-470.376
121.258
1028.03
-314.98
591.043
-276.064
-509.043
1578.56
-732.342
274.151
381.437
-655.588
200.881
506.329
2.76038
-509.09
-257.515
-198.573
975.287
1108.88
564.849
-881.497
940.895
-59.3984
-453.659
168.126
-769.568
304.137
-587.779
358.812
353.008
840.261
-1263.09
422.828
776.315
-811.325
-948.882
-550.39
1499.27
-145.594
499.932
-535.301
219.989
1314.29
778.43
-601.283
1348.01
-690.778
487.442
-650.824
-417.445
-422.146
-378.559
800.705
501.482
-842.867
-458.293
62.0701
396.223
-318.746
572.461
727.508
-329.991
-239.816
-175.142
414.958
-488.124
138.65
349.475
1460.61
82.3702
-1542.98
-753.899
1348.56
-1144.77
-465.991
582.754
-201.317
1151.56
-375.244
1083.45
492.714
693.729
-424.422
-884.87
-522.434
-1328.37
-23.0966
984.884
-961.788
626.052
347.389
-973.441
-329.092
-211.283
-682.42
405.534
1621.22
-189.942
373.874
342.445
-716.319
-1839.77
-2106.7
1519.15
587.548
-2044.92
354.883
379.75
556.716
-936.466
-460.423
1019.77
-411.767
-688.894
1100.66
-2030.55
1391.21
639.336
617.568
-1029.34
25.6741
404.709
386.499
193.866
248.449
360.736
997.318
904.105
678.301
-323.837
-354.465
-291.607
619.55
-327.943
571.601
531.571
564.876
514.702
-1079.58
-796.127
-699.348
751.533
400.027
-427.576
748.869
-1193.4
1609.57
435.909
-1124.8
-333.086
531.265
-1395.58
907.84
487.736
-728.392
-349.431
-758.723
306.659
452.065
447.216
717.833
-1165.05
1072.49
-584.57
-411.475
655.024
-243.549
252.401
323.276
-467.095
-432.243
899.338
-232.049
573.867
-958.388
384.52
-451.476
600.599
-1681.28
423.892
670.52
-1094.41
517.058
97.523
113.41
-2212.8
575.846
-126.61
1444.57
1777.1
-217.55
-1559.55
-438.491
1789.29
-1987.15
1194.55
792.603
400.316
347.541
-43.2025
876.429
-1283
718.371
-868.947
-821.968
798.871
302.155
61.7387
-363.893
225.873
180.047
-405.92
1558.14
-842.06
-1530.93
-325.432
474.622
-213.032
-261.59
393.267
366.334
232.053
408.306
-10.3547
1002.7
-992.347
421.141
268.344
-689.485
-734.116
1817.37
-1083.26
-342.78
736.048
-1226.61
-416.047
-914.628
482.385
610.006
-828.454
218.448
760.202
-378.86
-381.341
-440.008
-441.488
453.324
1108.99
1238.93
-672.416
799.937
-345.729
417.786
322.944
-244.154
-217.887
-255.402
639.481
408.141
-846.56
438.419
238.694
384.734
-623.428
-421.379
829.519
754.276
-1147.06
905.087
-64.8262
-485.508
273.946
787.341
-96.2345
1384.67
1890.51
-61.0297
338.839
-367.25
440.35
-1087.27
1076.91
653.194
376.459
383.742
75.8166
398.806
254.557
502.841
-373.331
-263.97
-562.53
-89.6038
-360.057
364.328
-4.27115
-257.795
-286.304
1010.89
-1540.69
529.807
-169.028
-209.257
-426.124
694.468
-1641.3
1590.98
-963.074
294.148
-711.593
584.325
1224.42
-1808.74
607.432
983.552
299.749
-1121.97
703.179
-330.938
-288.554
1386.03
-1450.16
832.938
617.219
434.41
-622.28
187.87
-368.851
467.926
-99.0742
391.195
80.1218
1724.35
456.201
-252.26
557.648
-1704.79
1147.14
-96.9184
420.064
343.091
335.211
-448.655
-615.063
1063.72
412.212
-864.674
-640.629
902.593
570.709
-451.188
-208.253
-437.362
-409.198
-307.505
-827.086
1821.1
-1821.1
-102.494
-1602.83
1705.32
294.556
280.652
-917.029
-555.507
1472.54
-408.187
973.063
-609.861
-1045.44
711.069
385.454
-1096.52
474.151
-159.277
573.068
1220.34
-1793.41
-1061.55
2118.07
-1056.51
-376.697
-294.923
-515.222
854.185
-1756.89
1605.08
151.806
1756.89
-1610.96
-145.927
-243.276
521.872
-278.596
-537.301
1620.75
1575.21
-1991.25
1097.71
-325.699
-227.396
553.095
227.595
-560.681
-741.949
314.374
1342.71
637.481
583.035
481.067
-1064.1
272.319
421.409
875.303
500.119
-1375.42
536.712
-1018.13
1574.95
-564.063
-792.426
-405.223
-127.975
533.199
-490.192
1208.02
-739.847
331.53
367.261
368.751
242.834
-611.585
596.346
831.731
-602.998
254.84
686.055
-451.188
-360.812
-206.642
567.453
1168.48
-693.547
608.243
467.354
-1075.6
-1273.44
1273.44
-384.728
761.187
-280.366
-479.634
759.999
494.423
440.184
-934.606
392.152
-672.518
607.554
-869.094
261.54
-367.465
-491.733
1074.77
-660.195
-712.063
1372.26
-367.365
941.233
-1552.75
675.28
4.4834
-385.19
380.706
-540.443
708.968
294.562
325.562
167.313
306.838
-559.273
228.335
1870.13
-1966.37
252.528
-698.181
453.353
-821.173
367.82
-915.213
1438.22
-523.009
-430.087
-484.541
600.811
1124.17
-1724.98
-714.473
337.776
-462.276
1033.88
-791.577
1046.42
-376.319
-625.926
-508.756
723.468
538.909
-356.94
906.635
-306.168
-181.956
1599.03
-1816.58
-335.716
-622.672
-337.919
476.569
254.134
-629.339
-161.248
1071.79
-797.84
202.172
-331.265
-287.31
618.575
386.896
-880.442
493.546
-483.527
-456.695
-886.326
-357.905
559.354
-201.449
-442.579
-431.473
-333.536
-180.518
-394.598
637.432
-476.195
799.14
-1072.25
623.592
-1415.14
569.682
-28.468
-1838.13
1866.6
570.041
-450.211
1229.4
-709.266
264.64
-264.64
672.684
-444
1047.25
-1657.11
-1158.74
-947.959
290.416
329.135
894.2
714.508
-509.181
-289.146
798.327
1660.11
-1688.57
-433.855
342.874
225.617
1134.78
-526.534
-943.338
1550.49
-607.15
442.667
-248.8
393.671
412.147
-805.818
537.796
466.421
-1004.22
-331.546
663.077
-38.0737
1908.2
1614.71
992.586
-1696.91
726.773
-1176.82
450.052
-492.494
1367.8
837.063
-1341.2
-569.376
243.677
802.659
-397.228
549.116
-1190.01
640.893
-635.883
-1215.53
-695.682
1911.21
-183.013
537.223
-354.21
-138.617
303.368
-486.381
331.47
366.776
-698.246
-1487.36
756.501
730.857
884.015
-1434.41
823.487
-432.502
213.978
-361.52
-602.489
241.678
-681.277
-714.299
697.885
506.869
-1204.75
388.963
-204.711
-184.252
555.013
-957.742
-576.994
-459.508
763.645
-831.312
-1155.84
-1437.95
499.697
938.252
41.6391
-646.678
315.268
331.41
-1320.24
1047.23
273.012
-615.91
-456.337
-665.692
921.363
399.218
-198.456
-200.761
508.317
980.523
-1488.84
977.98
-561.232
166.019
395.213
-434.783
668.842
-416.314
-504.572
166.653
234.179
-1520.39
525.858
546.628
-759.306
218.864
148.272
-454.44
362.572
-819.267
1954.16
-1195.39
-758.773
442.775
-677.025
234.251
322.421
327.321
115.136
-442.457
-575.625
191.572
264.629
-691.779
1374.25
-682.476
424.085
480.77
-1209.16
264.078
1866.77
-1013.59
-853.183
784.444
-517.056
159.151
1402.34
-975.143
-427.196
326.874
-770.874
-616.557
1725.43
608.989
629.944
320.577
-18.4227
257.367
-1138.38
1725.72
-587.34
-1763.54
820.201
1769.28
-1698.8
-70.4792
-657.455
261.131
614.673
-714.561
205.805
1402.64
-565.576
383.899
447.136
-1858.68
1420.19
535.699
-448.271
-87.4275
197.217
-530.753
-310.21
-157.071
-350.904
693.995
-634.57
229.347
615.821
547.605
-1163.43
1113.52
-1947.56
834.034
144.364
334.342
-1699.8
1661.73
307.595
-732.017
-167.139
381.117
759.959
678.37
-1438.33
1084.46
-1084.61
522.136
-1106.71
-628.17
250.672
377.497
523.749
-275.077
-622.934
-1034.18
286.731
-718.204
-912.319
168.372
161.092
227.871
395.318
284.031
-679.349
-634.504
-834.25
-978.514
485.888
-1061.51
-291.878
477.037
532.187
653.787
-278.251
-121.331
-446.963
746.713
260.426
-1200.89
566.386
1311.77
-551.813
437.042
-1014.04
-384.97
129.478
406.221
1023.24
551.712
-1725.74
1623.25
1651.75
-586.824
-1064.93
1905.25
-1894.29
-10.9606
207.725
-574.975
-347.543
549.715
-775.102
-323.255
-334.2
1028.82
703.077
-1517.37
814.289
279.391
-26.1872
1625.22
-1101.85
408.307
-1265.96
473.535
-61.0233
1521.64
1197.18
-470.407
-487.324
-73.9074
-241.521
736.052
-1951.58
-708.851
353.573
-531.343
177.77
190.882
-505.861
1139.94
671.597
-1811.53
-598.069
149.798
941.807
-1497.31
-210.519
678.81
-468.292
905.779
1094.22
-741.79
1350.78
615.244
-523.881
-91.3622
-342.432
1175.37
1061.46
-1985.38
923.927
-1174.48
540.717
1488.76
-586.172
-391.128
-129.316
-1243.34
570.922
1169.94
-76.6185
946.22
775.826
-1722.05
-204.488
578.682
-1541.73
963.05
487.008
916.518
-1403.53
625.09
584.074
394.43
-1106.62
590.165
1109.17
1215.48
-452.218
-763.266
-1186.2
-1754.94
-5.80573
-1719.94
-182.189
-440.091
1609.2
-631.986
-977.214
-490.831
1121.41
-1319.67
634.524
685.141
-1363.42
1445.79
-1332.21
590.419
1520.49
-421.503
-559.008
167.88
-1502.04
241.079
176.392
197.81
417.433
462.17
394.761
-856.932
506.41
-938.894
900.407
-1444.82
-697.925
215.44
482.484
-1045.61
454.284
-479.51
863.409
694.894
24.6639
-514.446
160.236
-886.568
-1318.75
-713.802
348.002
365.8
400.92
-722.243
321.322
-476.644
-189.356
-708.952
722.932
1539.92
-593.704
821.11
737.026
1344.7
-844.58
-971.079
-570.653
-795.508
428.388
367.12
-1036.1
-640.722
302.163
338.559
-1433.69
-296.779
-789.334
396.557
392.776
-647.991
415.755
232.236
-673.687
257.373
412.812
486.527
389.896
439.624
478.051
384.546
595.96
-969.118
687.046
462.745
452.736
356.282
-809.019
1630.74
-1079.85
-550.89
-504.729
-290.844
-1029.4
452.971
347.734
409.715
593.409
-1003.12
-1382.67
750.686
-530.209
1147.31
350.142
-55.5164
412.382
-864.419
452.037
-1904.96
302.127
440.326
-725.123
284.798
-188.395
402.661
-214.266
-660.534
304.119
356.415
-672.507
318.043
370.873
390.315
612.253
-1020.44
752.453
663.32
-1415.77
438.833
624.885
338.625
392.403
-731.028
407.782
328.265
622.553
699.361
409.63
609.093
-1028.98
419.888
-1685.99
1175.3
510.696
1696.57
-539.18
619.581
-1147.05
527.472
-641.346
346.571
437.526
-934.341
496.814
772.623
-480.976
350.944
343.051
584.778
-920.494
652.533
-1252.73
600.192
388.884
734.279
-1224.47
769.068
509.816
-1278.88
493.421
398.357
-891.778
-501.738
-936.211
-298.065
629.535
352.554
541.178
-893.733
331.305
331.772
-502.187
1944.73
436.383
-846.333
409.95
-917.675
-807.841
-747.196
365.855
-1223.32
431.746
-1740.06
1610.96
129.103
1749.6
-1605.08
-144.517
-783.091
-590.767
263.657
327.109
-1769.28
1991.25
538.827
791.07
-1329.9
440.135
716.013
690.002
385.619
-1075.62
-28.7483
1617.15
-593.911
379.023
850.382
-647.654
325.067
322.588
-378.591
-296.973
549.375
-217.905
434.436
279.017
-663.91
384.893
262.495
-576.934
-280.845
442.691
-1032.96
590.267
538.06
1092.68
366.007
596.355
310.416
351.432
-661.848
1635.87
-932.79
1692.29
-1520.97
-171.318
-328.272
-822.104
412.907
857.356
-1067.87
-605.094
277.15
-1090.56
1628.62
-1598.81
-76.7606
1675.57
-341.436
-350.306
-370.345
538.632
596.146
-502.302
-26.9051
-549.744
504.24
-283.57
-220.67
1760.81
-1307.48
-623.221
297.324
325.897
399.843
357.298
734.432
-294.087
-399.194
-1749.6
1688.57
459.686
-1100.57
640.88
-42.5667
1665.82
571.006
476.347
-1047.35
103.719
1144.57
-1452.07
-11.6546
-1893.3
225.644
-596.92
307.109
289.81
-955.007
612.138
-897.371
467.285
-1128.23
672.984
455.249
377.99
257.077
-766.259
-351.549
1216.55
886.458
699.28
-1182.77
456.158
726.607
494.529
700.32
-1194.85
-401.003
-248.182
409.273
-959.967
438.78
521.188
21.2296
-1879.91
1079.94
-472.388
-502.102
558.536
-1378.14
819.599
-430.023
797.843
-405.592
502.443
-726.556
1701.84
409.329
-181.458
214.541
-167.377
-246.307
413.684
1895.33
-504.124
-1703.1
1051.09
-599.434
302.461
-1013.18
552.753
-312.857
544.391
905.108
-1449.5
-1103.38
437.689
-20.9462
-1945.42
1720.02
-658.562
-539.882
460.811
-1190.27
729.457
193.01
206.208
-280.394
771.986
699.193
837.282
817.313
-461.031
1084.57
-496.593
476.058
-191.072
-284.987
-1924.06
-713.571
-317.903
-642.017
-6.51265
648.53
464.185
-272.613
566.437
1069.43
-808.988
924.053
1244.09
-425.547
-146.03
-268.231
414.261
938.446
-888.413
-317.171
-1067.43
611.097
1560.86
-804.358
537.773
934.763
-395.794
735.049
-339.255
1130.14
-275.012
358.287
1349.61
-706.265
-217.242
448.333
-1198.45
750.119
-984.368
-151.177
1135.54
440.727
-955.047
514.32
155.517
732.336
483.147
749.5
-135.875
852.006
-426
1182.23
-796.614
552.345
-1465.44
913.099
-1216.65
1800.97
-431.709
-1510.19
879.458
-1401.89
-301.777
-452.413
1457.17
-1525.5
783.719
1491.45
199.557
276.501
-356.3
-1740.06
-284.595
-1018.83
1585.26
-1777.11
1777.11
1575.21
-1004.4
-632.806
-339.304
368.386
604.676
-405
-364.69
-1389.76
897.264
1125.11
600.614
1202.53
1789.48
-1216.42
-616.816
273.114
1659.12
-1916.64
257.52
815.183
-1267.9
1545.2
-561.649
783.28
333.257
-351.195
555.219
794.522
637.717
1389.99
-249.836
-445.334
-363.464
495.678
-339.596
471.897
736.127
-298.846
-143.61
-334.641
567.475
-232.834
29.9856
-371.453
1107.39
-1720.28
-453.885
-492.393
-566.69
863.617
697.243
-1596.41
904.629
-451.956
-626.88
-514.534
1251.97
339.632
1723.78
-1702.55
-1660.11
1894.29
-1560.73
840.194
720.538
-387.578
-1797.95
917.797
583.613
819.026
-387.021
1794.44
-680.914
-444.039
701.761
427.698
-1129.46
-1100.65
444.175
753.004
-1617.15
473.239
901.015
173.859
-399.19
225.331
-1607.38
-387.819
-458.162
990.229
-676.952
1442.88
-953.062
1858.84
241.953
-561.294
494.825
-295.268
474.333
893.463
543.252
977.238
-463.153
-427.94
574.183
882.983
-1392.7
-40.9906
1577.34
-840.31
519.966
971.481
-1475.81
-1115.9
1784.63
-1246.86
-537.775
1206.08
-319.194
-886.887
-189.26
452.025
-262.765
-457.35
-250.655
428.649
-177.993
143.218
-391.4
1741.37
-1747.18
-463.279
-530.869
-903.536
441.52
-203.702
-237.818
633.004
-480.311
-398.784
-300.651
699.435
-960.954
430.717
-1167.11
676.279
415.812
-641.29
-447.802
1581.05
-866.54
530.194
-458.163
-570.167
-462.791
361.611
-351.126
-10.4856
-1116.97
407.703
-664.912
-1033.57
1698.49
-608.573
-1424.18
712.117
562.284
-1596.26
1033.98
-399.857
-491.444
144.208
557.952
-1258.38
743.842
539.249
1005.95
-2133.17
999.985
1133.19
-362.381
409.658
-384.446
-25.2116
1478.01
-368.848
449.603
1162.8
582.461
906.304
567.019
527.796
-1094.82
162.967
-445.286
-1698.8
248.803
1127.53
-620.818
518.581
1013.65
-1532.23
1092.82
-1643.71
201.849
703.238
552.168
-869.339
-1086.4
-169.568
425.663
-256.095
-586.62
-434.173
-636.733
-626.028
345.634
-1619.24
939.499
-476.974
215.423
-396.88
532.91
-307.266
-615.679
1197.08
-1299.71
942.981
356.731
-1046.94
-370.082
-761.287
-828.479
1692.1
-477.167
1800.05
-1590.85
-209.195
-1556.6
1018.67
537.933
-729.246
-257.215
439.268
-182.053
-598.768
384.097
271.931
-656.028
-524.15
993.614
628.578
-351.427
-1620.25
1050.47
571.795
1103.51
-1675.3
-418.923
-289.488
-371.046
-748.149
-492.12
-331.082
498.395
1557.99
-995.708
-774.678
1497.45
659.088
-316.213
725.881
1152.36
-1878.24
287.407
295.684
-487.353
-1933.37
1720.75
212.622
737.071
-474.859
-262.213
531.854
1060.78
-1592.64
361.611
-1731.59
-233.213
1752.36
-1580.67
1073.75
506.921
-1733.74
2.14337
-521.865
409.658
1699.8
-1720.75
939.481
624.926
-1564.41
378.513
-217.885
-160.628
-421.257
-252.43
66.3105
94.7139
-351.929
-427.826
-441.268
-405.518
217.123
1510.19
378.996
-197.91
-450.081
459.809
-195.18
316.682
1510.73
972.848
-179.311
-793.537
-1104.07
1704.88
-1728.88
1063.97
-707.362
-1021.52
-1265.07
1844.98
-579.91
1155.06
-1771.2
616.147
269.7
-877.889
1675.82
43.4258
-1719.25
-491.18
-1083
-1741.37
-981.461
553.521
1019.55
590.257
1133
-1723.26
286.825
-488.142
702.449
-384.406
389.8
924.571
681.306
-373.027
-655.954
582.922
1072.51
-1655.43
-403.342
-366.027
769.369
410.704
-1661.73
1520.97
140.758
581.502
-1043.78
544.756
1083.86
-1555.64
993.991
-235.854
225.783
323.933
1905.25
430.038
-67.1612
995.852
722.751
-1718.6
-697.005
1085.3
-1557.48
163.028
-570.682
195.184
264.625
-669.718
-553.605
582.609
1034.54
-710.951
-257.243
-1368.43
674.688
693.74
-411.751
731.408
114.278
-845.686
562.029
-137.173
1557.36
-212.508
272.081
-774.817
-1933.37
1664.61
1025.52
321.64
289.764
482.859
-930.069
-993.987
-1767.26
634.77
1693.76
506.104
-474.486
1210.61
1087.07
-424.954
1029.63
-977.865
490.707
487.159
700.514
1047.93
-1748.44
482.368
484.588
-1493.94
-746.228
33.9958
779.044
-413.189
-884.541
382.439
-539.44
-801.759
582.672
-577.712
1397.31
1055.17
192.186
233.477
-550.65
1618.5
-773.972
1526.43
-1727.83
575.281
1152.55
541.272
-882.665
-1732.97
1916.64
-183.674
1721.73
179.412
-544.973
364.586
-269.872
-481.536
1210.99
568.272
1128.3
-491.243
427.125
857.22
-459.251
-771.655
429.048
342.607
1419.22
1089.57
-518.283
1422.91
-510.565
-533.196
1043.76
-602.79
509.512
-1232.09
1692.29
1839.57
-687.215
1585.85
-646.372
-1241.01
716.855
-562.708
199.604
-387.86
451.275
-240.371
-518.962
-1246.7
1870.95
-624.243
1173.3
-553.716
1120.26
-1659.44
1701.04
-573.968
-546.86
-549.834
1720.07
-316.493
-688.075
-473.383
1223.5
-1687.5
-1860.11
613.405
348.64
-962.803
165.884
211.256
-1719.02
1204.14
514.884
1162.85
558.888
-512.397
-465.422
1192.03
180.214
222.447
588.445
1251.13
-539.181
-1238.58
1777.76
-1025.34
999.986
866.785
-204.088
-1659.12
1702.55
-510.138
1411.15
-1732.97
-330.084
-22.2314
352.316
-259.568
584.126
-324.558
110.034
497.75
780.593
-379.673
1257.52
1270.73
-413.37
851.143
-438.237
1817.5
-662.444
1586.6
-1723.78
-412.811
-761.85
335.092
426.757
-560.491
-563.457
79.7407
-1138.65
-985.328
-670.067
1655.4
-943.702
-1189.47
194.287
-421.683
-647.805
705.673
1167.44
650.061
1410.29
-591.269
1636.73
1318.04
-574.198
-490.065
194.796
-503.307
1396.77
1240.03
-565.345
-999.984
891.782
57.1368
-948.918
603.421
-506.176
1403.44
1495.06
-588.761
-362.166
362.166
-589.523
1623.5
1239.33
-486.324
1134.14
-63.9833
1856.89
-389.212
1489.48
-589.069
-507.689
1347.88
-651.355
1218.56
-567.208
1554.81
-591.757
760.5
570.981
-1331.48
-674.156
263.745
514.685
600.525
-1957.29
-995.699
1586.6
365.632
-365.632
-65.4284
386.066
437.421
356.816
34.3788
-297.696
932.316
-543.433
-427.098
813.164
-241.31
618.808
-427.425
1557.14
-444.346
-884.028
183.767
225.647
-409.414
601.171
1250.77
-1851.94
926.284
-458.999
-351.126
126.15
-1943.04
1816.89
-449.075
179.565
1181.13
-440.488
-740.637
-297.108
-587.433
-494.096
-384.446
-477.942
257.272
1158.08
-561.938
230.897
-377.99
147.093
-22.8347
-107.678
1375.99
-1268.31
34.5845
-597.115
-586.454
-449.651
449.651
-1262.35
1985.1
-1344.34
-205.723
-1828.7
237.848
-1025.75
-974.242
-183.226
-1638.75
708.681
1229.32
-1925
366.576
314.157
-680.733
-1850.02
1234.27
615.748
-560.452
560.452
-959.033
-39.9935
-1866.1
-558.164
1650.84
-676.473
1636.19
-601.648
-182.61
-1710.69
-582.746
-472.086
-594.835
-464.054
464.054
-1537.81
194.526
1343.28
170.248
224.617
-394.864
507.085
465.763
996.458
-475.27
1751.29
768.348
-420.229
395.017
521.942
1702.06
-594.671
-552.978
1636.84
468.298
1812.79
-645.345
-1804.26
-1938.07
-647.031
-476.713
476.713
-580.618
217.155
-708.662
1018.94
-466.182
-1074.13
-288.053
1579.56
1852.3
1635.36
-1635.36
-314.679
738.988
1761.51
595.795
1275.15
170.7
207.813
597.461
597.261
1603.5
-1603.5
220.053
-355.666
-436.593
456.811
950.994
-460.287
-639.163
-1130.98
1706.26
278.272
-1668.34
622.905
-288.801
468.213
1744.65
-592.093
-214.417
-460.872
376.905
732.264
1738.58
-613.469
-511.779
-785.19
1960.54
-870.458
-1090.08
1642.74
-704.634
1223.97
-1824.95
600.988
359.102
-920.396
-185.465
-103.88
1097.9
-486.799
130.795
632.769
-1666.95
433.386
603.625
-1804.26
-583.287
1787.43
883.807
-1162.9
1760.49
-597.594
1783.83
-575.542
-1208.29
430.738
943.486
-1747.18
924.598
-1482.35
238.534
1243.81
-831.169
-1254.22
-376.552
74.6149
301.937
581.748
267.38
1030.69
-441.494
845.788
-404.294
820.651
740.234
-1560.88
644.196
1066.43
-24.0992
-662.396
686.496
-1744.4
722.884
704.795
150.567
-1122.64
1936.77
-674.558
-1262.21
-537.182
1665.48
834.429
965.813
-1800.24
1227.86
683.349
-405.519
709.638
873.475
1027.79
-587.059
1761.51
626.132
1773.56
-1185.6
-587.959
-420.687
-317.71
738.397
121.449
-1185.63
1660.54
-540.277
-1437.79
1437.79
1250.56
594.42
1351.47
206.523
-577.364
281.359
-188.607
699.122
1113.66
479.722
-299.509
-869.793
-575.028
1745.03
-1745.03
976.086
-976.086
987.335
1025.17
-2012.51
1837.95
-613.987
-581.116
843.569
-947.852
-1052.17
998.257
690.985
-1689.24
-514.456
-369.409
-659.926
-808.431
2042.7
-1246.42
-613.694
1002.97
974.856
1289.77
646.995
323.858
1012.69
260.73
339.099
1186.23
1756.89
-1756.89
671.669
79.678
-386.793
-997.056
-539.993
1674.13
985.199
1014.8
-1833.3
-221.108
-361.639
601.64