/*--------------------------------*- C++ -*----------------------------------*\
  =========                 |
  \\      /  F ield         | OpenFOAM: The Open Source CFD Toolbox
   \\    /   O peration     | Website:  https://openfoam.org
    \\  /    A nd           | Version:  7
     \\/     M anipulation  |
\*---------------------------------------------------------------------------*/
FoamFile
{
    version     2.0;
    format      ascii;
    class       surfaceScalarField;
    location    "11";
    object      phi;
}
// * * * * * * * * * * * * * * * * * * * * * * * * * * * * * * * * * * * * * //

dimensions      [0 3 -1 0 0 0 0];

internalField   nonuniform List<scalar> 
172549
(
201.712
51.0962
-252.808
-473.772
101.999
371.773
-111.041
-79.0621
190.103
113.612
-278.934
165.322
-435.216
323.714
111.502
138.108
-337.21
199.102
-159.074
282.9
-123.826
-84.4734
189.257
-104.783
-363.394
351.993
11.4008
-465.116
-8.6559
-230.005
354.519
-124.515
494.966
-360.241
-134.726
-170.24
341.282
-171.042
93.4365
-94.8744
1.43796
-43.932
-319.462
-110.543
65.0153
45.5278
-456.086
86.4298
369.656
-411.62
76.9902
334.629
-135.112
286.348
-151.237
-331.975
-103.24
-76.255
177.162
-100.907
199.668
-197.589
-2.07915
392.875
-290.359
-102.517
160.799
-314.093
153.294
-249.592
213.857
35.7352
-114.392
217.304
-102.912
65.097
71.0191
-136.116
-206.76
458.443
-251.684
-263.263
-175.889
439.152
-59.6791
97.0462
-37.3672
427.837
-342.049
-85.7877
-239.547
-67.9171
307.464
-268.266
404.488
-136.222
-101.298
-77.1288
178.427
-96.2638
-91.8716
188.135
182.208
95.6532
-277.861
-216.199
78.0687
138.13
-99.6257
-356.46
111.568
-136.684
25.1153
102.305
206.149
-308.454
155.722
-395.268
-57.5602
-354.059
-130.372
-37.9844
168.356
-119.263
301.471
-43.6515
104.912
-61.2601
-2.73406
96.1705
265.357
63.3647
-328.721
542.175
-302.564
-239.611
397.493
-147.391
-250.102
414.112
-534.048
119.935
-390.722
478.203
-87.4803
280.314
-101.877
-178.437
-465.8
323.825
141.975
-504.397
451
53.3961
-118.145
-167.034
285.178
-310.682
-155.119
547.298
-360.945
-186.353
-135.049
81.1459
53.9026
81.3437
72.9915
-154.335
129.968
-231.22
101.252
-515.371
327.456
187.914
-186.293
331.94
-145.646
346.132
-129.441
-216.691
-106.513
187.48
-80.9677
295.899
87.1694
-383.068
9.39683
-401.044
391.647
-351.894
196.844
155.05
-214.926
392.005
-177.078
74.6132
-141.649
67.0356
-528.605
251.202
277.402
-112.026
194.371
-82.3445
189.534
-143.664
-45.8703
359.444
-257.139
-138.106
69.4534
68.6531
-87.7006
-93.951
181.652
82.4065
-167.058
84.6512
-197.015
46.8768
150.138
202.218
-403.102
200.883
-257.956
-126.515
384.471
-281.729
209.662
72.0671
-74.5193
-207.209
429.783
-432.781
2.9983
47.6021
-85.2288
37.6267
-303.415
553.07
-249.655
-137.633
241.232
-103.599
342.481
152.485
-111.353
179.46
-68.1074
-324.473
472.877
-148.404
106.869
-120.053
13.1838
-86.6908
441.522
-354.831
125.741
-1.8091
-123.932
203.246
-19.861
-183.385
206.53
-469.794
221.585
50.0571
-271.642
-420.652
315.305
105.347
-574.875
416.829
158.046
262.02
-321.869
59.8488
97.2569
-49.6548
81.4405
-153.066
71.6251
-0.285623
107.154
-314.462
-200.908
196.331
-429.835
233.503
327.632
-179.56
-148.073
-484.837
498.693
-13.8558
91.989
-204.015
166.156
-85.9568
-80.1991
-502.653
305.762
196.891
-33.0074
100.256
-67.2482
-145.127
225.564
-80.4364
-311.332
-71.1435
382.475
-118.129
223.09
-104.96
-54.6654
316.686
-167.584
-29.4314
136.51
104.909
-241.419
-125.861
47.3749
78.4858
206.273
-345.815
139.542
-307.613
77.6081
-81.5656
206.536
-124.97
364.001
-541.568
177.567
48.4925
141.042
-198.199
116.634
-70.3733
-40.1698
-224.447
114.858
109.588
43.6325
-162.723
119.091
-230.663
532.608
-301.945
-107.479
47.7998
-265.631
79.3382
-120.294
65.0864
55.2072
-181.243
-41.7184
222.961
-500.665
503.287
-2.62235
-100.657
228.98
-128.323
567.116
-287.727
-279.389
-166.085
173.494
-7.40936
538.927
-196.445
-329.441
480.848
-151.406
-133.436
227.428
-93.9917
-266.855
195.233
71.6222
60.6229
-328.888
148.916
-267.061
182.767
149.173
75.2512
46.645
-121.896
-189.756
340.967
-151.211
502.977
-504.537
1.55926
373.043
-195.655
-177.388
-259.772
159.115
141.961
-532.683
436.613
-328.611
-108.002
-116.355
-149.276
-444.446
229.519
-227.011
-167.082
394.093
110.521
55.635
53.2164
-96.8679
7.24864
195.997
-567.955
273.278
294.677
133.347
146.967
-357.226
425.781
-68.5548
-412.195
100.863
-65.4786
211.77
-146.291
134.841
-134.98
0.139273
-151.222
105.149
46.0722
152.803
-70.3961
139.035
297.577
158.412
187.72
-186.466
148.804
37.6622
264.533
-145.895
-118.638
139.908
173.542
-313.45
438.581
-253.821
-184.761
-56.6481
-109.239
165.887
-182.468
116.989
-242.619
126.382
116.237
-242.392
158.008
84.3833
-99.5075
364.864
-96.1651
-22.6435
118.809
26.6033
65.0954
-91.6986
-67.3141
-86.1903
153.504
215.767
-430.049
214.283
-76.6396
103.243
194.293
85.407
-279.7
116.942
-332.995
216.053
277.836
119.657
-285.464
-132.335
417.799
-188.375
100.675
129.667
-251.798
122.131
-201.37
407.687
-206.318
-260.595
-242.058
-162.406
384.89
-222.484
95.1108
-262.241
167.13
311.315
188.685
-131.211
319.628
-188.417
121.2
4.54158
-105.762
300.056
-338.721
190.269
148.453
449.848
-153.459
-296.389
-205.421
116.44
88.9812
-223.847
109.455
75.8945
-129.891
53.9968
21.0458
-97.6854
-173.72
164.557
9.1632
58.1441
-149.323
91.1791
78.7535
140.141
-218.895
-562.05
382.322
179.728
-205.568
362.009
-156.441
358.726
58.185
-416.91
481.281
-479.313
-1.96733
-339.137
169.079
170.059
137.744
-93.2258
-44.5182
370.036
-271.543
-98.4935
-87.29
383.189
-209.263
-194.913
404.176
101.512
-207.048
105.535
-72.8991
93.9449
32.2087
273.554
10.5669
-260.159
-384.203
297.512
-159.723
-67.4255
227.149
-87.7981
-117.623
-98.2455
245.264
-147.018
-184.72
-134.662
319.382
83.1941
-85.9282
-123.563
-261.488
385.05
134.939
5.01533
-139.954
137.762
-2.22992
-135.532
136.791
-329.979
193.188
-76.7304
141.143
-64.4126
-73.5437
-430.853
-194.067
33.5835
160.484
-196.665
-83.6226
280.288
187.047
-68.5258
-118.521
137.416
-61.5213
-352.539
92.0941
260.445
-0.928856
-408.461
409.389
66.2685
-119.032
52.7634
42.9367
-116.526
73.5893
87.1748
-177.701
90.5267
-230.96
122.758
108.202
-225.187
-336.863
-641.748
285.435
356.312
392.029
-205.789
-186.24
-51.2056
159.144
-107.938
240.182
-166.631
-73.5511
-39.8609
141.609
-101.748
-290.963
161.253
129.709
-111.176
-40.046
144.064
-62.6237
278.485
-217.461
-61.0246
-235.124
407.574
-172.45
438.464
-216.105
-222.359
136.901
-87.9715
-48.9294
-161.996
105.348
-63.3231
-36.5236
99.8468
207.433
277.972
-485.406
-370.761
241.27
129.491
223.812
-524.306
300.494
387.396
-237.227
-150.17
122.372
-90.778
-31.5944
-4.42893
-281.035
-71.0425
169.397
-98.3541
-556.91
296.909
260.001
503.636
-503.636
-181.666
97.1926
368.791
-373.22
-4.17647
87.3706
-470.543
269.174
-121.072
112.916
8.15624
37.852
-182.979
258.52
-144.908
-100.42
144.052
179.752
-280.198
100.446
99.7158
92.0634
-191.779
-95.804
197.701
-101.897
415.215
-131.523
-283.693
-321.733
190.522
427.732
-149.897
-217.51
-73.4524
141.314
178.093
-319.407
-190.361
104.147
86.2131
41.5152
-100.193
58.6779
-169.117
101.803
-249.295
297.869
-48.5738
80.3673
-113.375
-124.058
-62.4075
97.2421
184.751
-404.817
220.067
69.3744
68.3696
456.531
-254.419
-202.112
173.332
204.026
-377.358
49.8561
-243.923
491.39
-501.185
9.79541
117.909
-66.0268
-51.8826
97.4667
-140.311
42.8443
109.663
-68.1482
-500.32
66.1256
434.195
-160.798
28.1301
132.668
357.515
-325.306
-258.693
409.622
-150.929
-476.624
301.68
174.944
364.515
-244.503
-120.012
-135.068
-210.317
345.385
-162.272
345.199
-182.927
-219.897
124.093
-73.1161
-22.991
96.1071
106.064
-192.373
86.3096
-56.6721
129.126
-72.4542
309.829
-193.053
-116.776
82.4239
42.9774
-125.401
-124.207
271.44
-147.233
-249.523
160.308
89.2156
114.133
72.9137
89.8423
-115.385
25.5427
-169.788
286.73
-91.8587
-187.972
279.83
109.935
21.1266
-131.062
-92.6525
148.598
-55.9453
-151.64
100.434
-330.544
160.305
-181.481
346.102
-164.621
348.938
100.91
177.278
-412.402
273.472
-112.673
-171.499
118.001
53.4979
-7.03369
-171.106
178.14
262.813
-386.376
-59.1568
417.882
-32.9976
-92.8631
175.52
69.436
-244.956
-145.06
60.8889
84.1714
-366.449
9.22258
191.162
-403.827
212.665
29.998
-103.114
-145.364
-15.4334
194.59
-286.448
-432.875
-67.4456
141.531
229.621
-371.151
219.091
145.424
142.99
-64.1609
-78.8289
173.089
101.52
-274.609
-246.045
160.292
85.7539
80.345
-357.615
277.27
353.053
-214.946
243.632
-148.521
85.6263
107.511
-193.137
-128.651
260.707
-132.057
124.523
-59.4256
93.045
-183.464
90.4186
266.763
-88.6266
-178.136
-169.645
-213.234
382.879
-174.438
-74.8576
-85.2292
-19.4358
104.665
81.7905
48.1775
-129.968
320.641
-174.404
-146.237
-200.568
34.4831
-503.388
346.399
156.989
361.85
6.94139
170.899
-290.783
119.883
183.201
-104.448
184.008
86.8644
-270.872
-44.883
246.595
-105.321
-299.561
404.882
-171.039
388.681
-217.642
-114.941
258.412
-143.471
-169.472
272.27
-102.799
146.529
-95.5379
-50.9915
-152.704
-63.4948
-157.525
88.9453
68.5796
261.556
-149.699
-111.857
-438.082
332.761
-161.965
164.744
-2.77858
-187.153
110.633
76.5204
304.191
-167.399
-168.961
473.041
-304.08
189.373
-87.4928
-101.88
64.942
75.5806
-140.523
74.1332
62.7677
25.686
229.956
-255.642
90.2618
101.058
-191.32
61.8844
305.926
-367.81
146.151
510.403
-96.2907
226.175
95.5892
-321.764
-135.585
292.758
-157.173
137.249
-70.9808
213.615
-121.08
-92.5348
-78.35
202.205
-123.855
134.015
-248.957
394.271
-220.94
-371.341
369.35
1.99046
126.39
-83.4538
-57.763
-41.2033
98.9663
488.266
-164.552
-67.2826
181.415
-114.132
-223.806
418.74
-194.933
262.903
179.797
-442.701
67.7674
-179.12
-450.909
244.149
-20.632
158.394
-325.058
187.853
137.205
2.58007
87.2622
-316.589
-131.809
448.398
268.113
159.619
-77.0881
-83.9895
161.078
99.5666
0.81655
-100.383
-242.609
354.901
-112.292
109.569
-110.632
1.06279
-149.12
381.264
-232.144
-117.758
119.45
-1.69178
56.5179
115.852
-172.37
142.046
-471.488
-171.44
261.98
-90.5396
-96.2145
241.735
-145.521
-133.881
198.408
-64.5272
254.613
-160.274
-94.3398
-274.963
86.9916
237.708
-407.353
-38.8824
214.123
-175.241
-226.23
88.5964
197.412
100.457
381.437
-113.324
70.8348
-126.235
55.4002
353.324
69.9285
-423.252
-197.055
404.746
-207.691
-232.839
-267.159
22.8212
-95.7203
601.462
-379.241
-222.221
-51.0933
129.661
-78.5676
-146.9
54.2474
293.297
-384.011
90.7141
-129.028
185.546
-392.584
372.576
20.0075
325.677
221.621
147.501
157.673
-305.174
-504.231
382.409
121.823
-352.628
426.183
-73.5544
-99.2962
253.18
-153.884
181.975
-67.8421
129.995
179.834
124.877
-296.317
-127.112
266.602
-139.49
382.758
218.704
336.288
-330.43
-5.85879
325.161
-529.524
204.363
341.618
-139.4
-101.68
-398.985
58.8012
-211.716
152.915
80.5363
-157.624
357.487
99.0443
172.614
-80.4473
-92.1666
238.371
169.204
134.607
233.686
-368.293
-108.109
371.012
407.369
-191.603
-400.206
8.63021
391.576
-291.2
-180.974
472.173
421.52
-291.856
-129.665
489.289
-248.989
-240.3
-66.3704
-95.6261
-60.6556
273.328
-212.672
62.5087
75.3756
-137.884
85.1119
-143.433
58.3207
156.579
148.183
-304.762
-185.755
31.431
154.324
23.3876
86.1815
412.02
-173.649
374.973
113.294
-274.704
-137.429
412.133
-34.6987
144.634
-169.92
93.6652
-160.499
-219.981
380.48
-25.2088
90.3042
-38.0919
-147.663
166.335
-457.535
197.216
-36.99
-56.4502
93.4402
219.277
-60.1336
-92.4486
-45.6578
-256.117
129.005
-100.066
275.587
-324.718
499.957
-175.239
261.367
-421.866
393.06
-196.729
105.099
190.133
-295.232
-137.111
73.6161
63.4946
-367.32
488.64
-121.319
307.414
-227.069
554.194
-227.348
-326.846
113.835
105.443
358.827
-116.8
-242.028
-271.841
434.536
-162.694
134.566
-235.784
101.218
-173.23
31.6107
141.619
-146.289
-73.6075
142.168
-389.28
247.113
11.3408
-120.718
109.377
454.585
-197.773
-256.811
301.647
-471.376
169.729
-227.721
188.838
90.2653
99.108
104.253
-4.40575
-99.8468
254.144
-117.634
250.447
141.582
323.209
-180.49
-142.719
-327.078
217.6
109.479
-489.365
391.259
98.1058
185.375
-98.1998
-114.967
183.292
-68.3248
-175.087
-74.4367
342.156
-48.8586
120.581
10.1742
-130.756
-117.295
202.921
-123.316
83.4555
-522.983
358.679
164.304
311.839
-140.94
226.836
160.561
160.885
-398.111
-474.614
238.097
236.517
-245.457
158.587
86.8699
112.385
-38.813
-73.5716
-218.944
-203.161
422.105
100.433
141.136
-241.569
-407.1
282.624
124.476
-272.286
-134.814
-561.075
373.178
187.897
-279.767
104.68
585.783
-299.687
-286.095
-147.466
-177.996
325.462
-133.723
139.054
-5.33172
-166.355
275.226
-108.872
-254.919
155.623
-413.074
318.989
94.0852
99.3269
89.3513
-188.678
-368.741
195.207
173.534
-111.237
-131.155
144.031
-103.65
-40.3808
276.639
104.798
573.967
-316.41
-257.557
253.319
-519.76
266.441
57.7661
-120.154
62.388
98.9343
5.31825
-61.2244
147.366
-86.142
272.97
300.998
73.4339
-174.732
-281.126
152.476
116.304
-41.691
110.171
151.386
347.271
82.5125
110.099
71.8761
43.3619
-188.126
144.765
365.259
-514.231
148.972
-60.8712
326.093
-265.222
-34.552
119.664
174.536
379.658
-147.684
358.992
-211.308
58.2515
-159.939
101.687
-340.928
-300.82
-68.264
-33.1478
101.412
7.03658
-140.759
-108.205
119.546
178.499
-85.4544
180.244
-327.71
-141.075
81.9885
59.0862
-351.733
-87.7848
439.518
-338.282
521.848
-183.566
109.29
-370.279
260.989
43.3484
-131.657
88.3087
-103.54
-248.999
280.576
117.589
-398.165
172.823
-114.022
251.069
-141.075
-109.994
548.406
-179.916
-368.49
-366.511
50.5459
315.965
331.682
90.6658
-422.348
-473.844
493.495
-19.6509
-146.108
-78.3386
-89.8069
189.523
142.184
181.026
246.55
-528.865
282.315
376.782
-367.385
457.162
-176.586
552.844
-298.741
-254.104
-223.943
245.999
-22.0564
-51.6299
172.211
-78.9796
-261.565
340.545
56.7728
446.864
-63.0707
-88.5693
139.499
-76.9901
311.654
-155.075
133.86
54.1755
-188.035
166.588
-227.243
-64.3583
-94.9578
159.316
552.661
-552.661
-5.51135
-112.247
281.66
-169.478
-112.182
-305.457
-171.167
-161.641
95.2704
-365.92
-118.917
-67.5473
132.489
210.324
-299.571
176.439
123.132
4.40401
-396.988
129.106
95.6252
-224.731
84.6362
113.064
119.304
-44.0526
-65.042
-301.469
61.6057
-235.695
174.089
-7.20526
-393.001
-298.477
150.793
-131.853
-184.444
316.296
104.916
247.292
-352.208
-328.36
500.849
-172.489
-83.0469
-38.0255
-67.0819
101.53
-34.4482
-101.684
182.964
-81.2791
228.064
169.018
-397.082
311.825
-206.726
406.074
-186.983
-304.339
-199.893
135.04
-270.152
-175.941
79.6767
-412.934
308.106
104.828
84.0283
-435.761
89.5918
143.225
-232.817
-222.426
-152.859
375.285
42.2426
-98.9147
116.49
-151.188
-109.063
-223.409
332.473
-301.82
240.949
-96.3546
-55.983
152.338
-188.222
105.418
82.8035
358.143
-517.129
158.987
317.264
-208.607
-108.657
153.766
284.698
98.2724
74.4178
-172.69
387.251
-160.416
146.879
-514.2
245.049
-183.443
153.239
164.025
-64.6928
-348.242
212.181
-371.307
159.126
406.944
-234.776
-172.168
74.7861
-260.568
185.782
-229.086
-10.1285
239.215
57.569
-148.346
90.7774
84.9877
-162.71
77.722
193.51
212.564
-47.8562
147.423
-334.164
418.192
135.768
234.126
-369.894
-103.292
309.565
73.7895
102.145
-175.935
41.7723
-314.7
272.928
-140.616
147.653
278.71
-457.867
179.157
-88.9038
222.763
278.535
-455.253
196.56
-110.464
-3.79934
114.264
32.616
120.559
-153.175
224.054
230.531
-109.436
183.225
340.013
-28.4985
-311.514
-124.017
444.718
-320.701
101.913
290.962
45.3229
228.005
314.005
132.634
-446.639
328.541
-267.597
-60.9444
-32.5302
-129.435
-207.507
74.0707
-81.33
-30.242
111.572
12.5051
-93.8351
-308.908
173.323
-75.7595
-168.946
244.705
206.914
109.398
-316.311
-222.594
-47.6407
270.234
-152.684
89.6131
81.1899
-182.874
-83.9562
-318.67
402.627
-73.1822
-144.328
517.432
-238.722
-72.6341
69.2002
57.4405
-126.641
-182.234
77.3265
104.907
76.4573
-93.7467
17.2894
105.788
173.275
-279.063
-188.763
108.259
80.5037
-133.788
317.796
-94.9568
-121.266
216.223
-322.886
-205.718
-241.969
130.39
111.579
-229.282
527.004
-297.722
438.269
-296.102
-72.2908
-95.4502
167.741
-78.5604
108.558
-184.659
323.234
-138.575
-119.804
265.741
-145.937
162.96
-65.3765
-97.5833
-249.912
359.202
139.122
-84.1445
-54.9775
-274.231
280.147
-5.91595
-271.298
112.224
198.045
8.04555
-206.09
-194.256
380.232
-185.976
128.204
-62.7592
-65.4452
225.874
-464.305
238.431
-497.835
173.363
165.965
-31.0261
-141.771
1.15487
-191.234
91.2864
99.948
-148.99
361.171
140.525
-82.2731
80.954
-415.118
-48.2034
-57.7549
105.958
-105.493
-509.24
357.381
151.858
248.303
80.2377
-305.604
-160.837
466.441
-77.6681
298.802
88.4748
-139.568
-56.6597
-133.701
-231.406
-240.684
472.09
-197.548
-243.004
440.552
-278.118
264.414
13.7034
312.449
-250.565
-299.023
-204.365
340.84
-509.801
93.551
98.8759
-192.427
-383.379
211.717
171.663
158.08
216.893
-80.0838
144.737
-64.6529
-330.361
526.169
-195.808
-179.283
129.244
50.0394
-134.199
56.3228
77.8758
54.4354
-121.517
-63.8233
395.505
86.9467
61.8758
-148.822
498.091
-184.086
-130.761
260.428
-318.827
156.556
-287.064
287.064
-142.927
232.519
-548.806
281.538
267.268
-253.818
-88.2596
342.077
187.786
-144.425
-112.346
124.109
-11.7635
-242.397
72.9248
123.324
-483.565
47.7457
70.1636
-128.971
-316.678
445.649
-232.488
368.255
-241.549
143.303
501.033
-245.733
-255.299
-191.552
-37.5336
148.245
-327.805
-568.366
398.434
169.932
-284.228
-158.142
-204.17
37.9736
166.197
-36.9029
-116.463
153.365
136.188
117.957
-84.6958
118.671
-33.9754
-3.15723
78.9354
-75.7782
223.29
-222.329
-0.960202
212.919
-337.848
124.929
55.0115
-169.979
-72.3027
-155.418
106.23
-201.037
94.8066
-393.389
-261.299
325.47
-64.1703
85.6367
42.5677
-7.07689
-136.667
143.743
-149.945
-201.949
155.613
-386.627
231.014
-174.823
102.532
85.3262
48.2103
-133.536
41.4367
-137.791
-150.165
229.59
-79.4248
149.018
108.482
-257.499
-151.54
-285.645
437.185
171.128
-421.721
250.593
100.904
-150.492
49.5888
-540.727
308.918
231.809
464.897
-323.394
-141.504
-501.517
176.799
-117.139
111.628
-71.3073
-98.6129
298.837
-406.946
-344.519
-130.095
-173.601
-125.971
-380.784
155.951
224.833
-209.332
136.149
-46.3587
307.379
-261.021
-94.753
-242.341
131.105
168.431
98.0092
-266.441
258.817
-454.493
195.675
194.295
-92.7828
-315.491
106.884
224.975
-95.0068
-327.581
-112.137
439.718
383.538
-227.924
-331.883
336.506
-4.62366
-69.341
124.705
-55.364
-380.022
166.788
-312.577
126.451
186.126
134.885
-134.885
-194.872
-256.119
450.991
471.54
-390.586
66.9112
-263.577
4.02135
335.992
336.98
211.426
-235.033
-46.9235
281.956
124.383
6.82466
-131.208
-74.1864
141.163
-66.9765
-179.532
106.457
73.0753
-323.009
-244.946
-155.534
91.1759
116.946
-47.7459
-272.602
-302.272
-146.761
85.5371
132.147
209.134
75.9471
33.6583
-109.605
-42.9868
127.077
-84.0904
379.7
173.145
-164.258
-115.509
-336.303
-172.937
-155.964
-101.316
257.28
-69.3654
-272.732
342.097
-338.483
175.415
163.068
-91.8173
-104.493
196.311
337.844
-505.037
167.193
209.2
-354.652
145.451
230.543
-409.134
178.591
-83.1062
-51.9424
-238.08
165.777
166.607
-395.076
228.469
-137.891
100.988
-379.008
173.44
-204.88
362.96
-68.5672
133.855
-65.2878
87.9413
-133.545
45.6038
30.7384
-94.0615
-153.935
366.855
483.497
-465.545
-17.9518
-96.9904
140.339
-78.5737
137.8
-59.2259
260.923
-455.794
-55.9044
156.999
-101.094
-149.425
289.333
390.876
-507.237
116.361
224.294
73.7901
-298.084
56.0282
-103.253
47.2247
-33.6685
110.126
58.8103
36.7512
-95.5614
-38.7578
141.356
-102.599
-10.8011
161.347
-150.546
178.12
-71.8898
386.484
-136.036
-63.695
265.508
-201.813
-303.718
-48.9103
182.404
-99.7877
-82.6166
190.221
-293.724
103.502
-239.935
-147.112
387.047
-77.3263
165.268
-271.532
156.99
114.542
228.786
-347.945
119.159
-324.345
202.302
122.043
252.639
-135.586
-117.053
-130.741
61.0243
69.7171
182.396
-391.659
-101.965
-77.0102
178.975
-47.1455
-134.353
181.498
84.6904
-232.53
147.84
-108.006
198.268
187.184
-99.0499
-88.1344
-62.5835
-106.628
169.212
-42.4903
158.98
-163.92
-117.533
281.453
-304.83
-8.65356
313.484
56.7351
-107.771
51.0361
170.4
96.3624
118.739
106.236
-103.96
106.883
-2.92281
-204.17
-55.6413
446.517
3.05128
108.517
377.542
12.5774
-390.119
386.421
-325.799
-472.195
173.173
46.0305
54.9866
-101.017
-139.768
-31.7312
82.8296
-260.042
177.212
111.176
-372.475
-177.518
-33.5256
257.819
-66.4537
264.498
254.751
152.936
-402.921
208.664
-145.826
65.7421
384.939
-161.127
228.227
-94.7144
-133.513
259.105
-328.471
293.631
-178.164
-115.468
193.508
-178.744
-14.7643
113.746
-57.0107
-215.099
-235.648
450.747
-189.752
37.05
152.702
491.461
-484.506
-6.95509
233.319
-63.7433
-169.575
242.453
243.94
-486.393
259.501
-174.81
-165.569
301.391
-135.822
-160.099
307.6
-135.441
220.836
-85.3943
-189.782
-149.355
65.0776
-145.066
79.9882
101.235
-196.191
352.051
119.489
-256.254
-156.82
-56.2937
-125.94
118.55
-42.6034
-172.64
275.808
-103.168
-63.191
144.535
119.833
-45.0759
-74.7569
-138.425
75.8413
-581.619
367.759
213.86
62.8056
-127.682
64.8764
-179.176
262.005
-68.4323
133.823
-65.3911
73.5065
46.3263
-142.517
363.809
-221.291
-119.916
-95.9549
215.871
-57.5514
-41.3559
98.9073
338.287
-145.52
-192.767
232.798
-80.1934
-152.605
-379.781
-312.538
-159.657
-50.6508
-93.3823
144.033
115.561
-303.007
187.446
136.08
-71.0025
-111.779
-5.35959
158.573
-416.529
312.502
-94.9019
-161.061
93.7781
-162.037
81.3918
80.6451
338.887
-129.687
161.505
-129.608
-31.8971
-78.315
-83.7219
53.4999
-120.569
67.0692
92.4308
-163.738
115.305
-64.4862
-104.902
169.388
-87.7262
216.053
-128.327
107.482
-28.0651
-79.4165
-269.36
-35.4699
124.774
88.8408
-89.2529
10.6926
-99.3154
204.84
-105.525
-96.1755
101.627
-5.45171
-101.932
-78.3413
-96.4018
174.743
483.37
-385.738
-97.632
416.532
-117.695
133.039
-100.423
-425.692
463.884
-38.1923
-179.177
305.732
-126.555
-233.728
300.64
99.8983
87.286
-72.8755
-114.277
-93.0687
272.821
-141.23
286.745
-145.515
41.2673
49.6144
-90.8818
-288.115
155.295
132.82
119.486
-61.7197
-76.5182
-67.146
-215.759
-186.508
402.267
139.117
344.253
-455.564
258.017
240.231
-240.231
-88.1381
89.366
-1.22786
185.055
-102.624
-82.4314
246.001
-540.004
294.002
183.394
154.893
-252.758
356.522
-103.764
115.999
-53.1936
-205.207
130.519
74.6875
156.96
330.238
-487.198
254.678
-118.49
-317.336
160.442
156.894
83.7206
-176.229
92.5083
280.265
152.341
-432.605
-218.788
98.8722
86.6012
-152.91
66.3085
140.358
-179.116
-169.597
397.661
-182.945
100.187
82.7581
175.808
-105.893
-69.9148
-91.6925
363.6
-271.907
333.26
-166.672
-42.6292
105.727
-63.0979
181.14
176.206
-357.347
-206.725
-248.84
-90.7787
349.596
98.9214
-185.271
86.3499
-205.047
399.465
-194.419
150.501
-66.7799
318.844
-219.51
-99.3343
129.736
-58.9013
-220.021
-148.979
80.4118
-620.247
303.837
132.662
493.623
-501.541
7.91823
204.385
189.096
-393.481
115.76
45.7447
-367.461
-121.904
142.802
-149.835
12.2507
-290.368
-20.1672
-119.798
139.965
160.575
-295.694
135.119
111.028
280.232
-134.915
87.9469
46.9679
49.8829
-184.236
49.3531
-88.4877
39.1346
263.494
95.3331
263.122
-174.817
-88.3052
136.645
-79.0761
-389.227
272.245
116.982
-260.077
-360.17
183.998
49.3211
143.817
-454.496
310.679
-57.5271
-82.2395
139.767
35.1775
-127.222
92.0445
291.216
209.817
-2.07256
379.614
-77.1515
-59.5322
422.691
-142.426
67.5404
-121.115
53.5746
-463.24
259.507
203.733
-201.834
-245.169
447.003
-366.485
566.484
-199.999
280.991
146.846
-173.8
249.954
-76.1538
-155.885
256.318
352.045
-277.133
-74.9118
-180.346
291.064
-110.718
-186.199
-152.522
-90.6029
-188.161
278.764
74.0279
40.9269
-114.955
179.041
-79.7141
440.409
-378.792
-61.6171
-174.565
104.699
69.866
82.1038
265.471
-347.575
119.754
-34.4276
347.542
92.8667
-62.6637
149.265
-101.791
-33.1237
-225.966
514.172
-288.206
5.00051
191.615
-196.615
219.795
-386.876
167.081
-82.468
-41.9313
124.399
289.458
97.0254
-85.6159
-22.8861
108.502
-145.151
131.838
13.3134
-178.26
116.619
61.6412
182.833
384.283
101.28
-42.4697
-267.426
-121.8
228.647
-443.745
413.73
-509.857
96.1278
59.4936
223.31
-31.8283
-191.481
118.105
-64.6048
80.8962
-408.478
-77.8952
-89.0687
166.964
103.684
-10.5971
-93.0873
-116.45
31.2206
122.691
131.922
154.242
-328.445
174.203
-92.9561
163.454
-70.4978
152.345
-357.392
349.724
-234.162
341.915
-82.8092
-357.872
-199.038
-288.271
467.053
-178.782
429.268
-324.302
-104.965
-9.05197
-338.536
347.588
-335.832
-176.542
512.373
-166.052
-7.1784
83.2588
-33.9057
-502.51
261.428
241.082
-179.89
-86.9657
-81.4072
-49.3343
-47.2958
148.199
-90.7581
163.75
-554.652
382.762
171.89
98.2331
-162.719
-24.5125
91.8572
-67.3447
181.591
-146.386
190.956
-314.049
123.094
322.564
-255.573
-66.9907
87.4124
-397.45
310.038
216.469
-97.73
114.454
255.583
-94.1244
-94.0976
109.881
-53.8527
474.889
-299.147
-175.742
-267.323
364.027
-96.7042
-116.332
192.234
282.656
-417.83
31.8672
385.963
-285.26
-185.283
136.198
-211.611
75.4132
-132.988
-73.6076
206.595
107.584
211.106
-318.69
43.7286
-264.719
-237.791
-83.2381
-35.4943
118.732
-204.767
326.248
-121.481
479.865
-173.939
407.98
-61.5815
-290.664
166.457
95.7583
7.92612
-270.015
-35.5571
305.573
57.0139
-373.603
-408.898
137.057
130.844
-17.0424
-113.802
175.119
-268.833
93.7142
-109.229
258.247
-458.717
334.7
-76.7364
-71.6099
497.241
-149.699
-240.594
406.772
-166.178
216.388
-337.141
120.754
469.986
-111.843
45.1717
77.2008
-309.443
135.643
345.592
-189.432
-156.16
-174.628
296.041
-121.413
132.592
347.273
164.494
-268.165
103.671
389.854
-107.229
361.164
128.974
-490.138
329.239
-226.217
-103.022
473.421
-502.344
28.923
125.08
-91.2889
-33.7906
342.365
-237.449
-9.5265
-100.938
-80.3326
-182.725
263.057
38.6834
-112.315
73.632
-140.118
63.5999
-307.193
474.402
-167.209
-87.293
-53.7817
-194.611
199.612
109.897
35.9179
-113.59
77.6721
288.995
2.45868
-291.454
-143.253
89.9161
53.3374
-100.808
454.132
175.712
117.919
-143.322
303.897
-236.855
158.505
335.057
51.3645
-160.043
-157.292
16.4953
227.136
-246.621
82.3635
-141.489
241.432
-99.9431
58.2112
-125.758
408.514
-204.129
-369.748
376.467
-6.71878
-132.991
494.154
68.5109
-140.516
72.005
122.582
-68.6155
-142.269
210.884
-151.512
187.684
-71.9238
91.064
11.9043
-102.968
68.562
-120.963
52.401
-247.665
151.451
-100.306
-68.7778
169.083
-267.757
-294.15
128.016
166.135
119.681
-84.5031
48.8572
-113.027
64.1695
50.7058
-183.693
138.537
132.903
-101.463
256.433
-154.97
-139.348
88.1145
51.2331
-74.44
191.239
-116.799
-375.373
212.967
-179.532
360.672
152.872
-271.807
118.935
238.275
173.207
-411.482
-57.3894
-32.1354
89.5248
331.463
97.805
327.562
-147.849
-179.713
-157.605
406.19
-248.585
164.826
-70.9645
325.724
-254.76
327.681
121.68
-449.36
474.56
323.011
144.798
-467.809
249.31
-456.035
192.283
-30.8106
-161.472
-338.2
185.247
152.953
-113.037
13.4429
99.594
93.6914
17.8747
-111.566
-68.8008
-68.31
13.4973
-383.246
-356.388
213.871
61.1576
193.153
-254.311
-377.991
307.026
222.702
123.03
-345.732
-61.5447
108.13
-46.5849
-101.295
-143.985
245.28
568.636
-257.321
63.381
136.287
-135
-279.054
414.054
-121.792
171.675
-222.866
382.807
-159.941
-352.896
41.1646
311.732
-177.932
-279.175
457.107
-56.125
-78.0736
-564.251
366.721
197.53
301.077
-182.876
-118.2
-123.771
346.473
-168.966
68.66
111.801
-189.696
139.506
88.721
-163.293
-490.525
250.996
239.529
-161.297
82.9816
-266.779
97.3007
-292.193
-289.425
-58.1483
-243.672
95.4859
-332.101
236.615
-203.661
-175.606
68.0256
107.58
-242.827
-72.6646
-113.126
-41.0684
154.195
-52.416
-45.3372
97.7532
-312.531
220.838
8.22281
-82.7997
74.5769
158.349
-190.178
153.417
-365.414
211.997
6.71464
-276.73
-191.889
316.643
-124.754
-234.464
246.714
106.298
-133.152
-89.6179
222.77
398.017
-407.068
105.697
-64.43
285.385
189.56
-474.945
-79.1103
-82.1863
-78.3111
272.901
364.905
-366.977
97.1497
-3.45837
409.435
-125.064
-284.371
105.382
159.896
-265.277
143.586
-37.3856
-126.884
164.269
266.742
-123.187
-143.555
347.852
42.0016
117.651
-78.9671
-501.729
173.369
68.0898
-136.522
-133.403
71.2068
62.1961
-51.4417
157.789
-106.347
-140.562
-78.4509
219.013
33.3847
-97.2194
63.8347
-126.22
43.7516
174.127
-187.295
13.1679
226.64
-280.266
53.6263
-219.174
78.6125
-88.4798
-78.5779
-59.5496
-58.727
118.277
142.566
183.225
197.008
-225.608
179.249
167.548
-122.113
-45.4349
-372.218
264.672
107.546
227.039
-83.8132
336.229
161.012
335.188
102.818
-438.006
-130.577
-129.195
-537.844
251.048
286.796
219.284
-299.939
80.6548
143.469
119.654
-96.0502
53.421
-32.6421
95.6603
-63.0182
-268.24
-217.452
485.692
-418.113
441.033
-22.9192
-266.89
107.167
-129.903
-454.616
-21.6418
476.258
209.146
241.215
-450.361
-123.803
-188.774
-146.737
-141.378
110.899
-19.8351
-337.159
135.325
-30.4066
164.973
-121.607
-271.305
168.599
102.705
84.1106
68.692
-130.106
-145.197
275.303
125.022
-89.1045
416.362
-294.55
-121.813
-130.527
346.914
-214.384
-37.4143
457.154
24.1262
-114.662
-76.2984
190.96
454.652
-0.197385
-454.454
-88.037
318.438
-230.401
118.148
82.1738
-200.322
-373.279
220.077
153.203
-131.326
-110.054
-161.251
143.274
-74.7628
-107.379
290.033
-182.654
140.419
138.777
-279.196
-151.122
-54.085
-246.404
-175.617
422.021
115.874
476.439
-332.701
-143.738
-154.253
150.297
-93.987
-56.3104
37.8416
-94.2918
205.109
-271.563
294.457
-352.605
-402.31
343.153
193.763
-317.566
231.118
180.902
434.286
-203.743
-224.835
161.14
96.0765
82.4229
-94.8244
105.017
-156.459
-271.246
289.178
-17.9315
-276.811
-21.6653
76.5149
-142.597
66.0817
115.285
286.48
-158.464
245.737
-134.015
-111.722
-71.3155
129.527
-269.286
120.932
-189.548
311.365
-62.4611
-248.904
-257.4
466.545
484.762
-148.533
-370.16
267.292
102.868
-22.2825
476.934
-218.323
409.485
-86.0409
-203.335
289.376
104.681
-263.48
158.799
12.8006
288.879
-334.61
-247.386
581.996
147.077
-347.946
200.868
-292.789
392.825
-100.036
-123.7
446.711
352.563
-126.388
177.296
-89.5682
369.589
-280.021
-79.9661
-63.2874
-233.689
151.868
81.8204
177.625
148.622
54.1962
-59.6647
-279.864
339.528
-386.128
-78.9873
-130.26
-198.351
-337.811
230.432
-412.903
412.903
154.181
-334.453
180.273
181.315
-339.698
158.383
232.015
79.3502
53.5701
41.8777
-95.4478
218.562
-371.421
287.709
-465.641
242.387
-40.1821
146.246
157.944
72.7758
198.028
-270.804
124.502
-86.1496
-38.3524
-71.8542
-293.483
365.337
106.061
-177.819
71.7576
-59.6909
171.98
-112.289
331.94
4.34819
-79.6639
80.4804
-276.398
321.681
-45.2834
45.9962
146.287
95.7708
17.0139
-112.785
-313.099
-39.7973