/*--------------------------------*- C++ -*----------------------------------*\
  =========                 |
  \\      /  F ield         | OpenFOAM: The Open Source CFD Toolbox
   \\    /   O peration     | Website:  https://openfoam.org
    \\  /    A nd           | Version:  7
     \\/     M anipulation  |
\*---------------------------------------------------------------------------*/
FoamFile
{
    version     2.0;
    format      ascii;
    class       surfaceScalarField;
    location    "28";
    object      phi;
}
// * * * * * * * * * * * * * * * * * * * * * * * * * * * * * * * * * * * * * //

dimensions      [0 3 -1 0 0 0 0];

internalField   nonuniform List<scalar> 
43924
(
-594.896
666.818
-71.9217
1063.82
-1072.37
8.55267
-334.962
382.255
-47.2932
227.025
-258.955
31.93
-498.49
498.49
221.147
-264.002
42.8552
-371.255
365.723
5.53176
26.5935
-563.593
536.999
663.681
-833.529
169.848
-1009.29
1102.26
-92.9695
555.122
-144.822
-410.3
-531.519
536.422
-4.90261
-687.846
582.67
105.176
-859.818
868.879
-9.0616
265.38
63.5991
-328.979
385.756
-10.428
-375.328
814.58
-666.863
-147.717
-408.93
406.029
2.90101
161.169
314.786
-475.955
290.615
-357.201
66.5864
-594.054
81.6659
512.388
724.457
-60.7768
49.9507
-384.912
136.541
-489.485
352.944
232.579
-121.961
-110.618
1067.92
-4.10215
659.858
-681.003
21.1449
-281.159
2.03696
279.122
305.846
-40.4666
-441.893
543.83
-101.937
952.406
-248.577
-703.829
-673.207
761.189
-87.9821
242.721
-223.898
-18.8236
478.815
-70.1137
-408.701
127.966
-409.125
266.852
-431.098
164.246
438.829
-587.004
148.174
291.535
-37.9774
-253.557
824.498
-979.029
154.531
1061.9
-237.405
-1018.14
1035.68
-17.5412
402.804
-92.4686
-310.335
704.026
110.554
189.758
-308.524
118.765
1228.47
-777.702
-450.767
-591.21
149.317
538.546
-538.673
0.127075
230.502
645.525
-876.028
224.584
537.249
-761.834
-107.697
546.526
-374.739
171.936
202.804
-14.2873
-224.815
239.102
-666.65
-6.5568
239.639
-18.4919
424.191
-38.4348
-279.712
-53.5971
333.31
524.701
-499.834
-24.8665
-34.2686
-559.785
-463.412
42.1117
421.3
-297.648
-27.7201
325.368
799.511
17.578
-817.089
-409.161
570.33
-16.0248
-243.348
259.372
-216.26
483.112
-327.891
438.731
-110.839
261.596
237.104
-498.7
496.37
-125.857
-370.513
428.564
-47.7143
-380.85
-448.791
-27.7796
476.57
-986.661
-31.4782
1061.4
6.52092
304.159
278.286
-582.446
-242.95
546.791
-303.841
171.767
78.7324
-250.499
-431.989
381.755
50.2337
-376.755
379.855
-3.10043
299.356
-168.999
-130.357
-251.003
-61.1625
312.166
-699.301
16.5427
682.759
407.02
-92.3064
-314.714
-254.618
254.618
82.2178
-761.695
679.478
-662.87
67.9745
-947.22
848.224
98.9967
-313.372
-57.8829
-48.419
220.4
-171.981
522.278
-133.606
-388.672
-644.551
-43.2956
652.48
-69.8095
100.792
80.5382
-181.331
-354.859
90.1294
264.73
-309.966
58.9626
845.986
-621.402
567.26
-595.271
28.0109
226.933
-96.3911
-130.542
-364.419
138.25
226.168
-21.019
251.236
-230.217
-846.705
847.42
-0.714273
-29.749
-160.793
190.542
275.206
3.03154
-278.237
-711.454
12.1527
-266.509
283.584
-17.0751
778.743
20.7686
427.764
-632.818
205.054
202.765
-217.052
-757.056
819.22
-62.1644
648.239
-716.402
68.1634
74.6834
577.796
943.846
-846.974
-96.8721
-216.901
238.248
-21.3471
198.811
43.91
351.639
121.166
-472.806
1009.09
-256.884
-752.206
18.6601
563.61
-582.271
-12.9256
-587.315
600.241
539.455
-235.296
110.555
425.913
-536.468
-303.227
407.917
-104.689
76.7474
-814.826
738.079
-698.48
455.529
-24.3692
-194.485
218.854
20.6121
-855.719
835.107
-307.324
324.791
-17.4665
-34.7904
296.386
24.0917
-890.76
866.668
-361.514
340.71
20.8046
-88.6346
-320.296
11.0297
-285.553
274.523
703.749
-786.562
82.813
726.162
-860.276
134.114
-148.924
338.682
187.334
112.021
198.831
-205.218
6.38742
284.394
-311.826
27.4317
-128.985
556.75
625.599
326.807
146.658
80.7923
-227.45
277.028
-316.508
39.4803
196.887
-232.853
35.9654
-24.2589
299.465
-347.914
-13.5998
1.51037
-188.02
186.51
224.196
-62.6504
-161.546
181.123
827.967
-198.075
-739.277
937.352
-101.159
-397.331
522.777
15.7689
226.631
-224.795
-1.83615
258.155
-202.235
-55.9191
16.7706
-234.376
217.606
-395.233
632.902
-237.67
51.7672
507.928
-559.696
984.074
-886.448
-97.6258
790.922
-787.093
-3.82938
-574.102
-236.672
810.774
-145.987
722.11
-576.123
455.47
-443.69
-11.7805
-224.539
5.9853
218.554
30.5089
-762.088
731.579
-172.963
-201.777
-247.968
234.063
13.9048
241.211
-14.1861
26.1337
1020.88
-572.447
-448.434
735.196
-933.271
-399.726
96.4984
15.6923
208.504
16.4703
-778.235
761.765
-90.3878
-856.833
417.571
-452.309
34.7382
-106.66
832.822
54.2884
-736.334
682.046
-212.559
-11.9802
277.028
3.91101
241.843
-245.754
-432.738
432.738
82.8489
679.449
-762.297
-315.071
48.5615
-579.359
598.019
329.856
-297.64
-32.216
-777.834
-63.2715
841.106
-145.476
446.82
-301.343
438.954
83.3244
428.779
-442.967
14.1873
244.281
-47.3935
-206.162
-330.809
536.971
501.345
-381.423
-119.922
-328.41
17.6121
310.798
785.323
-81.5742
-520.659
-79.4021
600.061
-661.093
661.093
-126.86
502.187
-375.327
95.3191
-342.121
246.802
-919.407
345.305
306.832
-358.526
51.6939
436.786
18.6848
809.933
-489.901
-320.032
917.851
-68.7075
-849.144
77.7147
149.219
-847.203
614.227
232.976
-25.2543
264.164
-238.909
-211.05
221.242
-10.192
-42.7369
-488.783
874.974
-890.148
15.174
-65.9006
429.75
-12.1792
788.161
-791.723
3.56181
244.582
-17.9508
19.3305
-236.232
822.134
-963.823
141.689
250.056
-341.263
91.2068
570.687
-570.687
899.943
-93.2419
-806.701
594.268
73.0763
-667.344
56.1111
-327.027
270.916
-205.47
279.603
-74.133
-472.258
326.781
53.6247
734.537
-393.054
529.595
256.801
-179.086
-683.991
-176.285
484.507
-630.494
453.606
-501.199
47.5927
-897.561
1032.13
-134.572
-580.484
555.706
24.7776
505.902
-582.301
76.3989
129.017
733.1
-862.117
211.305
530.702
-742.007
723.34
505.129
322.051
739.852
325.472
-232.123
-93.3492
-295.737
295.737
371.134
-402.143
31.009
-28.0345
1089.43
270.018
-323.769
53.7504
530.129
-478.361
-297.429
-562.388
551.696
-565.668
13.9715
-29.3771
904.351
253.301
-278.556
-212.558
191.581
20.9772
499.015
-587.786
88.7713
-197.695
959.039
-761.344
588.762
-82.8601
771.646
-383.665
-387.981
339.185
-48.5699
472.001
548.88
-208.643
160.224
-743.85
59.8588
-934.024
36.4631
477.683
47.0173
-679.856
891.161
-694.613
-62.4426
188.914
-201.08
12.1653
-74.0094
915.194
-841.185
-38.0499
-817.794
855.844
184.446
-182.936
39.7408
165.745
-205.485
-9.13982
-365.961
375.101
321.738
-310.709
-605.817
210.585
-247.028
445.846
-198.817
908.547
-678.045
303.539
21.9333
280.666
17.3754
-298.042
-567.659
168.877
398.782
460.77
-31.9908
524.913
-731.075
-364.587
-12.1682
646.96
-746.151
99.1918
-220.983
152.894
68.0887
-656.247
638.975
17.272
216.925
-213.014
74.8175
181.984
-743.006
825.855
-330.934
324.723
6.211
68.0472
-363.434
295.387
236.729
-205.38
-31.3488
526.572
-328.682
-197.89
8.10185
-346.767
338.665
-497.347
484.422
-80.715
289.164
-208.449
-660.795
157.711
503.084
-347.572
-16.8462
653.819
6.0397
445.622
-21.4312
-166.98
16.699
150.281
-21.9161
725.111
-703.194
-853.814
982.831
320.952
-149.574
-171.378
677.332
-775.124
97.7923
423.852
347.795
706.384
59.5856
-765.969
818.097
81.8452
551.411
-528.103
-23.3087
1093.71
-1012.31
-81.405
4.8641
-296.247
291.383
292.282
-11.6155
92.0413
140.538
210.067
-11.236
194.784
-200.269
5.48464
144.456
148.537
-292.992
-304.973
284.632
20.3409
-162.683
-295.953
458.636
420.311
-547.171
-320.308
195.922
-194.269
-1.65346
191.926
1009.24
-561.928
-447.315
525.916
-109.138
-416.779
139.108
509.131
78.2863
473.125
22.5322
-692.29
712.557
-20.2671
46.3181
-547.661
501.343
-88.2518
-247.116
335.368
-448.965
39.1875
409.778
-140.518
-336.057
476.575
780.008
-1.26516
23.1715
183.836
-374.022
190.186
159.689
-240.404
-920.725
849.238
71.4876
-296.699
305.836
-9.13678
669.672
-84.368
-585.304
1047.02
-603.808
-443.211
194.183
-193.026
-1.15733
256.818
-112.662
-144.156
-421.707
418.261
3.4456
663.298
-31.6649
-631.633
-693.831
1.54112
373.693
33.3272
-569.462
450.277
119.185
583.16
-578.254
-4.90553
-855.762
44.3944
811.368
856.369
33.1982
-889.567
-424.657
284.14
-202.619
35.6396
-322.366
530.464
-208.098
-170.925
-41.6328
754.995
-793.045
-142.827
182.568
540.77
-175.08
-365.689
-123.581
-309.157
221.232
-222.375
1.14333
619.533
43.7652
683.462
-608.778
20.7339
-301.734
281
837.487
-876.381
38.8937
-312.09
14.4493
955.225
-958.446
3.22117
55.3562
214.216
-269.572
680.243
-33.2838
568.567
-592.672
24.1048
-828.603
849.215
187.183
-211.552
786.379
212.142
746.897
160.984
188.49
-349.473
-298.748
-8.05013
824.583
-72.1472
-752.436
596.312
-132.272
-464.04
243.015
-71.0791
84.2423
412.128
73.9711
-279.441
473.85
-503.911
30.0609
142.555
-348.945
206.39
137.701
388.871
57.6066
860.245
653.049
-773.271
120.222
-22.707
977.932
-250.362
-34.0677
284.43
-217.21
209.035
8.17492
2.12588
169.641
48.5121
452.832
335.121
-344.26
-358.351
30.4596
-338.005
40.3576
838.351
-58.3434
77.1069
-248.587
171.48
-956.491
22.4667
-920.012
-36.4786
-486.054
56.5236
429.531
-732.57
901.27
-168.701
-205.242
-54.7414
259.984
-118.613
-74.1007
192.713
-150.615
-49.8851
200.5
-139.379
229.83
-90.4511
853.458
411.716
-227.88
139.542
-12.5696
-567.914
-879.231
-41.4944
443.821
152.491
192.527
-514.893
200.751
-1107.03
906.279
27.7398
201.891
-229.63
-10.9543
-200.095
418.788
26.8338
89.1609
701.761
280.506
17.6393
-298.145
-472.354
582.909
728.761
72.8553
-801.616
-778.471
-8.09085
800.904
-855.206
54.3023
303.224
-261.746
-41.4784
82.6499
238.302
850.771
-864.963
14.192
978.831
-862.15
-116.681
939.11
-943.669
4.55933
-398.363
-171.099
-5.16403
-873.194
548.573
324.621
-184.864
161.903
22.9609
-243.956
388.412
140.78
91.8256
-232.605
755.876
263.953
-279.978
431.686
94.2306
782.736
-696.34
-86.3963
-52.6605
-108.564
-87.0412
195.605
-308.44
260.632
47.8079
862.507
-838.415
-21.7412
379.743
-358.002
-340.055
-7.85984
570.471
-583.639
13.1684
368.516
-327.324
-41.1924
-828.496
731.206
97.2904
-905.785
831.776
142.411
114.407
-406.419
276.988
129.431
468.272
-454.016
-14.2554
621.306
-622.654
1.34722
518.124
-44.2741
-323.265
-132.121
455.386
24.8612
-275.224
-72.5885
-246.269
318.857
544.285
563.927
-1108.21
-900.866
849.214
51.6524
-2.60479
-405.085
419.035
-13.9497
432.041
-399.81
-32.2311
671.983
-845.443
173.46
711.2
-881.696
170.495
-503.137
-157.658
-444.449
77.6939
366.755
305.465
-6.49313
-298.972
-325.874
175.259
474.73
80.3928
-719.693
-108.803
6.3705
188.414
-302.649
300.705
1.94416
52.6117
-355.327
302.716
490.329
39.4242
-529.753
-231.072
300.826
-69.7541
-896.198
-19.6388
915.836
-191.239
-41.8848
233.123
6.49228
-846.016
839.523
804.705
-118.429
-686.277
332.423
141.253
-213.842
-874.88
-21.3177
808.554
40.6834
-6.08605
542.158
-190.519
-509.705
-13.3771
523.082
-801.993
913.796
-111.802
313.869
-245.822
-396.72
308.468
-30.1772
590.721
63.0975
383.989
-241.434
298.852
511.081
-14.4022
26.5499
341.966
-777.772
86.7788
690.993
456.747
94.9492
-126.009
-34.6597
160.668
-851.809
-23.0704
70.9276
331.876
-197.693
227.833
-30.1406
48.8856
-279.958
-261.392
281.634
-20.2429
-18.6902
28.469
-513.043
484.574
-611.135
-135.016
-23.0698
302.566
-279.496
-330.501
451.667
599.389
447.631
-1102.77
430.486
672.287
329.484
0.340381
-329.824
-228.271
-172.021
400.292
-524.592
551.186
-661.202
-18.4453
679.647
99.1338
89.2026
-188.336
-44.2486
799.244
838.915
-862.545
23.6299
807.492
-154.443
38.711
-602.304
-325.635
-21.1324
556.811
57.8033
-614.615
439.821
20.949
-349.415
393.039
-43.6237
-853.616
-3.78209
857.398
-27.8178
-823.992
305.715
-280.419
-25.2965
625.208
-3.90128
572.602
-410.035
-162.566
-215.577
276.912
-61.3353
-85.9744
-272.377
-420.762
-42.6497
894.628
-183.428
-821.572
89.002
-629.305
18.1697
-539.811
50.5984
489.213
820.551
-39.6292
-780.922
-261.448
122.069
-0.00415933
-356.08
356.084
859.246
-187.262
307.857
-2.39218
636.614
-68.0466
494.195
-3.86575
801.391
-712.23
-1045.13
-57.6413
444.969
23.3026
530.535
36.7248
729.022
-698.513
796.055
-38.4994
-757.555
194.528
-224.277
275.513
-14.8807
-118.12
215.044
-198.273
474.959
15.5772
-490.536
576.32
-98.0015
-478.318
-459.472
421.966
37.5062
128.892
672.499
2.89668
-95.9304
-760.712
856.642
77.238
-669.27
592.032
227.187
-304.286
77.099
-742.331
646.4
91.7593
712.946
-504.406
1048.69
243.727
-166.62
-278.322
-178.612
248.169
-69.5563
209.238
-261.732
52.4943
-180.177
320.956
-9.29804
-330.757
-51.1481
5.51943
-410.894
405.374
-47.5507
-162.024
-195.177
-30.2532
367.924
-337.671
-870.851
944.466
-73.6149
45.5014
-528.132
482.63
34.3839
-251.594
-755.848
106.193
649.655
355.088
-227.121
819.405
1.14658
-4.45713
222.58
-218.123
435.728
136.873
-118.767
-325.682
815.928
-201.702
-95.2066
-914.082
613.011
-334.724
130.734
46.8891
654.038
-571.82
495.374
-16.5586
342.549
-35.7167
339.077
-421.498
82.4217
199.163
-249.338
50.1754
47.3491
250.062
-297.411
335.859
-498.541
-3.8689
761.957
-806.206
537.718
-62.7595
-105.791
737.335
-631.544
-269.442
304.236
-34.794
-68.5399
295.727
205.692
-189.999
-281.882
12.4395
-1059.63
587.711
471.921
-35.8792
-76.3704
177.163
-309.781
295.194
14.5873
-676.028
692.498
268.515
-273.395
4.88036
-475.889
179.936
-503.26
-556.372
240.556
-278.533
847.168
-946.599
99.4313
-343.811
18.1762
485.919
-626.861
140.942
-2.42971
810.984
232.461
-264.069
31.6084
-322.034
-551.16
-37.4654
293.808
-25.2935
344.791
-114.465
-230.326
-20.2256
-841.604
861.83
-876.648
484.405
392.243
-56.1498
735.598
-457.686
36.9244
-143.405
-130.148
273.553
875.639
-821.523
-54.1161
393.287
-322.359
796.866
4.03786
105.54
86.3038
-191.844
-580.555
1024.4
-443.842
146.109
-194.799
48.6898
-758.97
-144.989
903.959
130.083
214.707
853.515
-31.3815
813.471
-736.724
503.34
-419.098
7.06742
-250.415
49.5343
148.34
-197.874
306.869
235.29
-24.1589
-1098.2
619.198
479.001
8.04363
891.691
-60.5448
-831.147
-430.601
622.938
-192.337
57.1506
756.32
23.2116
-532.916
-590.53
-18.3089
608.839
417.069
144.934
-562.002
-264.724
-522.369
278.964
63.5855
-178.581
-76.0371
-406.406
352.825
53.5804
-791.179
301.279
201.164
-262.361
61.1974
221.002
-250.74
29.7389
430.171
-424.651
726.898
52.1023
-779
-203.055
42.2619
821.19
20.765
-841.955
-357.522
17.9303
339.592
118.64
860.191
-409.746
451.858
411.51
-72.4331
-954.479
99.6997
854.779
789.099
102.593
-41.179
240.342
50.5881
381.453
898.493
133.641
27.459
-485.145
28.6981
-826.861
798.163
697.404
-765.913
68.5096
636.306
465.952
769.014
-56.0321
-712.982
195.92
-49.8108
76.4059
339.45
-415.855
-735.243
792.393
267.626
171.104
-271.198
168.073
103.126
-111.183
-426.843
538.026
-32.1704
-215.797
1004.41
-573.925
81.9173
-287.16
211.416
-215.873
-102.936
-156.019
30.6352
820.136
-164.676
500.534
-600.904
755.463
-154.559
683.955
-705.871
-392.876
379.499
-442.651
-180.003
39.521
348.758
-12.0011
-336.757
-46.2874
808.245
-505.245
-623.365
1128.61
287.905
-236.101
215.082
8.53216
197.16
-247.133
125.172
-885.294
908.954
-23.6602
-271.066
254.901
16.1659
74.0684
708.668
3.36343
765.65
635.784
-16.2515
-15.0889
-512.422
471.038
41.3843
933.076
17.1534
-950.229
-312.194
-45.3279
-0.381329
-234.572
796.423
-69.5249
529.02
-623.136
94.1162
-761.955
-84.7499
38.4569
264.767
888.06
10.4329
-490.837
440.898
49.9384
-950.452
-94.6792
43.1999
-386.117
342.917
-193.348
219.278
-25.9295
246.606
-37.3683
-39.7629
1050.3
-313.223
-737.079
579.605
-50.5852
50.9324
-264.151
-62.8752
-692.546
777.146
-84.6003
-75.8182
-9.55634
230.558
504.8
-5.78542
92.7913
-870.625
-92.5746
213.267
-120.692
-193.913
215.755
-21.8416
-681.797
570.614
-450.555
479.024
342.529
50.7578
-460.658
424.875
35.7829
579.428
429.816
498.476
-459.969
-38.5077
480.077
-309.389
-170.688
-202.022
33.0236
350.633
-21.4962
-329.137
-250.997
72.3846
-322.414
287.624
-219.036
-636.726
-691.551
-81.7198
259.922
-58.7582
662.048
197.198
6.96741
227.096
816.237
-84.8845
-731.352
328.892
-142.118
647.04
-504.922
240.87
-295.611
-97.0161
514.085
-750.814
7.80786
-116.442
-104.541
500.005
-95.3699
783.864
-688.494
-198.698
219.759
-21.0613
-29.6238
-241.443
829.587
-737.827
222.448
-428.07
-407.214
835.284
862.175
-200.127
-43.965
788.883
-744.918
597.396
-6.67535
17.7441
-608.274
280.499
138.017
-418.515
-404.147
480.553
-22.0701
-317.855
339.926
-617.071
65.9041
551.167
-143.302
516.44
-373.138
-479.86
409.687
-483.213
73.5266
105.252
-178.791
73.5389
-179.445
340.429
-175.838
-188.749
729.37
-31.9663
102.294
581.168
-611.048
648.894
-37.8464
269.193
-292.263
-810.417
-52.1286
97.1134
-433.171
590.12
460.183
-615.79
173.14
417.824
-845.894
384.74
-681.894
28.6535
653.24
-198.34
249.416
-51.0761
-816.294
886.703
-70.4088
-48.3852
-432.214
480.599
1005.36
-405.615
-599.746
-68.8991
-786.307
10.8125
294.903
-950.466
207.423
743.044
-857.713
-92.7531
-173.079
-11.785
-777.766
731.479
-132.187
-296.126
428.313
-15.9484
-266.221
282.169
160.365
647.127
238.57
153.133
-391.702
-902.868
154.577
748.291
541.189
-580.962
39.7735
604.543
58.5978
-663.141
-44.3298
673.872
-639.869
-34.0028
353.214
-23.7302
-23.1989
223.428
-200.229
608.374
65.4979
13.9921
-792.463
721.541
-777.574
-175.766
225.3
323.908
156.169
142.841
-318.678
203.859
-207.903
4.04385
341.902
-199.615
-142.287
592.11
43.6741
-747.526
800.996
-53.4698
-406.627
-99.2763
505.903
-13.5613
-289.088
251.393
59.8129
-311.206
250.33
-100.334
-149.996
418.342
-466.727
-61.716
-740.277
-410.96
93.3612
143.367
508.798
-442.435
-66.3624
-228.871
256.61
-203.452
195.555
7.89765
22.693
-225.504
202.811
-322.636
379.429
-56.7929
211.945
-9.65553
-202.29
450.444
554.916
-262.217
555.543
-473.877
140.724
-229.25
88.526
-201.689
-11.435
213.124
701.285
-96.7416
244.111
-169.294
-357.535
276.794
80.7409
-425.609
-19.2732
444.882
-352.062
449.176
311.935
-323.377
11.4418
-17.0341
32.8425
470.498
462.804
35.6727
37.2363
-462.845
188.33
3.25089
-338.695
-5.11561
-370.344
297.454
72.8903
342.298
-63.3347
673.458
221.17
-231.145
253.838
-289.208
306.821
102.217
656.55
-758.766
-736.524
-25.7946
762.319
30.8905
163.849
16.7778
-339.414
-690.698
621.115
69.5836
122.58
-176.041
168.93
7.11107
427.643
-147.144
-239.922
-177.522
417.444
-165.654
-346.769
221.085
-17.2262
-262.481
119.076
92.1176
-184.692
-1009.54
696.319
-347.942
347.942
851.461
242.251
-35.2713
-509.1
-500.442
210.133
326.289
528.132
42.5557
545.76
-51.5652
272.789
-246.346
-26.4431
-629.413
662.312
-32.8989
-50.283
-532.572
-46.7869
-636.351
716.922
-80.5709
84.289
-493.45
-353.136
539.442
6.31816
529.024
21.9212
-550.945
747.338
-647.353
7.48415
-110.973
-68.1788
179.152
-412.852
90.438
312.511
-33.5402
-278.971
-153.385
-49.2349
-302.305
289.507
12.7976
-292.123
76.5458
869.222
-195.763
-334.355
48.8019
767.978
-1.36498
-766.613
584.184
-659.032
74.8484
-922.853
830.373
92.48
-23.6091
-637.592
110.073
297.844
-23.5082
-261.365
284.873
-786.751
25.0554
-203.911
-291.044
267.536
-466.147
511.648
-241.765
269.327
-27.5627
-303.535
299.861
3.67349
-810.56
704.769
995.983
-148.815
-169.02
307.839
-252.483
361.246
-172.756
417.289
-311.12
-106.17
287.719
54.5792
812.596
-90.6833
-721.913
184.249
-681.596
-754.315
671.021
83.2938
5.55254
-617.354
624.154
-6.79941
64.9696
179.142
-98.2589
518.57
-268.707
292.981
-24.2744
379.182
-458.338
79.1555
-608.652
649.236
-40.5843
585.625
44.3951
-630.02
243.462
-221.561
-21.9006
556.317
-24.1158
-532.201
230.536
-119.638
-110.898
-125.06
-48.696
173.756
955.244
-946.178
-9.06645
-575.499
-388.324
-46.3753
-756.397
802.772
-897.643
834.371
-587.355
362.343
225.012
605.094
-623.403
-14.7859
673.153
-658.367
25.0259
142.665
-167.691
-70.8309
-284.497
-855.975
-66.8784
15.461
366.294
334.082
-739.697
199.16
-10.8299
-229.415
229.415
407.791
-138.855
-268.936
-911.253
25.9585
-3.20145
-26.8789
-476.935
503.814
-753.729
-80.663
487.104
-406.441
-252.405
-408.687
432.475
-10.5094
-56.955
258.846
155.752
186.15
-542.561
397.739
-167.296
405.866
339.698
-51.9787
762.619
-708.33
-284.344
-7.78324
270.796
-946.891
-3.56102
5.61041
927.466
533.029
-448.74
-837.351
573.707
263.644
2.23094
260.112
-262.343
350.22
-6.77666
-343.443
-462.064
31.4622
-834.939
748.665
86.2743
-129.228
-182.967
195.063
44.08
-239.143
213.032
126.666
-800.993
17.7796
-589.823
326.369
263.454
37.9632
246.431
362.311
-325.397
-36.9133
-386.796
398.812
-12.0159
847.417
-513.335
-455.021
312.903
-323.164
191.939
131.226
423.383
-720.812
568.416
-27.2267
811.249
-807.886
79.7354
150.8
-828.747
811.45
17.297
-794.595
47.0692
-472.162
-527.845
1042.65
-186.28
931.098
-835.178
-95.9198
-521.121
-463.315
984.436
-48.678
-256.295
53.7894
226.166
-233.611
7.44516
-22.1457
-56.0709
733.403
468.52
-33.4458
-435.074
-367.511
-200.148
18.6669
-87.656
-253.607
-156.786
423.078
-266.292
-925.768
925.768
92.9281
-805.796
485.763
-510.902
69.1988
441.703
-211.758
-194.661
171.794
-164.383
-378.178
-553.274
388.891
602.151
58.2073
192.122
421.122
-929.846
508.724
-27.9359
308.442
-222.907
-263.148
-216.282
417.736
-93.8276
-181.749
-141.415
-65.4901
-835.376
452.515
-518.12
65.6052
17.164
-694.663
776.23
-81.5672
415.772
-421.007
5.23453
247.059
-568.009
529.727
38.2815
102.07
117.444
-219.514
195.492
-218.691
378.936
-708.789
329.853
110.542
758.337
167.786
240.006
-68.6732
-492.316
465.437
292.889
-307.43
14.5406
416.559
-37.3764
353.99
-384.243
-22.7024
-367.607
390.309
-39.469
-272.357
321.134
14.1594
-335.294
-425.544
268.758
-388.663
40.6004
631.103
-749.531
-410.07
532.237
-313.407
-91.6779
976.653
-866.111
-492.733
-312.307
805.04
294.018
39.2375
290.265
-329.503
-455.526
142.264
-271.492
-51.8217
451.148
-563.94
112.792
47.4268
613.666
-186.436
75.4633
327.084
-289.121
708.749
-329.813
269.131
-179.002
24.0608
364.864
-388.925
-28.5671
-296.743
-4.99084
-256.895
251.512
5.38331
1.00057
554.683
-531.471
39.5504
-891.588
113.353
798.934
-2.06756
329.84
-116.808
525.488
328.708
-854.196
598.401
239.95
670.782
-766.152
-748.147
104.575
643.571
279.13
63.2505
-342.381
187.595
-180.479
-7.11573
26.1443
274.512
572.908
-196.868
36.2697
160.599
-156.883
-606.911
763.794
-339.874
360.687
-20.8132
-253.783
292.368
-38.5844
-148.56
-175.209
-255.619
212.52
43.0986
920.09
-920.09
-87.3518
727.052
-639.7
294.379
-211.729
345.135
-68.1469
-657.784
190.408
27.9826
-218.391
41.8638
-585.749
543.885
37.7365
-239.267
201.53
908.256
-913.964
5.70789
300.978
-674.499
373.521
345.786
-302.586
51.8621
310.448
-350.749
876.237
557.086
-105.938
-72.9289
-243.579
-400.262
323.268
76.9945
219.907
-345.765
333.128
-500.098
166.969
-248.334
49.9948
-873.292
-73.5987
33.3855
-728.049
318.697
-180.446
796.382
-773.238
-23.1439
430.996
50.8656
-481.861
-685.599
610.678
74.9215
-247.554
209.402
38.1518
320.945
-28.0553
-426.129
-254.874
877.434
-833.693
-43.7405
-357.706
658.684
129.152
-535.779
-864.694
11.0777
-56.1008
-600.418
656.519
43.2672
-137.42
-133.778
-917.774
411.276
506.498
192.864
2.69074
450.17
-34.3983
543.445
276.872
-267.131
-9.74058
-334.74
-6.08525
340.825
-550.804
443.108
-2.11819
-202.649
204.767
232.082
-41.6734
-95.1366
357.108
-261.971
-355.855
6.44002
434.984
-10.1085
60.5448
-809.453
748.908
-664.299
664.299
52.9151
187.954
-89.2286
-505.44
594.668
-854.473
938.103
-83.6299
741.121
55.2611
-14.1424
-834.525
848.668
324.383
-341.775
17.3921
325.235
14.5638
-339.799
584.244
-636.911
52.6674
45.6194
311.752
-357.372
-213.856
-118.863
332.719
196.755
-9.16004
106.373
-710.462
604.089
-760.009
267.276
350.972
-311.734
793.74
59.7756
-77.3932
-433.509
342.604
-390.318
-681.151
101.438
579.714
317.967
-281.721
-36.2463
-531.322
614.667
-83.3449
-81.9538
-362.956
444.91
408.939
-382.389
-593.005
-324.768
601.9
-725.125
123.224
-407.227
-430.124
837.856
-39.7478
-645.851
122.124
458.762
-580.886
563.566
-644.802
81.2356
38.5564
-240.792
11.109
-693.003
-321.45
321.446
4.89818
570.558
-692.725
122.167
-344.509
-430.616
-2.8296
-684.748
698.133
-13.3856
763.077
-164.675
645.606
-102.931
-542.675
215.725
293.073
290.324
-297.64
7.31654
807.725
-935.883
128.158
-650.86
-97.2867
-292.428
23.7211
-326.199
82.3655
243.833
-56.4585
640.702
87.8983
-253.591
165.693
357.9
-335.854
-22.0453
-341.322
-248.501
-14.3584
203.273
-27.0891
-173.99
229.679
137.578
-367.257
-271.864
319.757
-47.8929
588.452
-677.681
23.9987
288.513
-266.368
-59.8305
-291.504
-295.851
-711.337
540.697
170.64
-111.274
-152.728
-163.015
66.6242
-578.433
536.408
42.025
576.956
-1098.08
-24.9612
-1014.44
-140.779
367.119
50.6173
-22.7269
-51.3957
-758.532
126.989
851.607
-845.115
617.396
-76.6994
1.86051
589.246
-591.106
-282.398
-165.355
447.752
-43.2972
-204.257
6.79596
197.677
-211.002
13.3251
-994.076
231.989
448.516
-115.387
19.6815
-627.986
608.304
298.374
-364.939
26.5914
338.348
60.4187
573.437
-633.855
-103.184
771.331
-668.146
-669.45
-195.513
-727.408
38.5338
688.874
-33.5846
569.248
-535.663
923.286
-914.856
-8.42985
562.704
-618.805
-611.188
-23.666
634.854
-396.075
124.211
275.966
-272.3
-3.66585
801.289
-772.59
-96.0585
730.882
-634.823
459.667
11.3713
-434.016
-669.887
604.141
65.746
399.127
-92.2209
-564.026
-54.2751
-11.2769
-399.617
-26.3506
213.001
-186.65
23.5539
327.418
-360.597
364.474
-3.87666
745.928
-792.304
122.51
137.474
214.243
-226.142
11.899
684.15
-775.291
91.1409
-321.391
-679.373
-13.1729
794.916
74.3063
291.061
120.449
811.343
-16.427
-32.9592
-1029.68
173.964
3.94163
19.5958
-567.257
158.214
-133.188
-1082.75
-242.121
240.003
70.7655
223.613
-107.698
-467.13
574.828
-2.48816
-477.516
480.004
838.929
-31.2045
570.082
75.5232
-41.4156
-204.396
245.812
742.196
-786.161
-151.31
380.989
-404.029
444.149
-40.1197
-679.271
723.201
-43.9301
285.322
-358.828
16.7067
393.644
-143.067
-250.577
175.326
-511.625
466.143
45.482
4.84346
-461.443
461.336
0.106757
613.784
-596.04
33.819
-161.976
592.972
-294.905
57.4957
440.994
41.4291
607.372
-648.801
-80.4719
-143.426
195.352
14.0501
31.4182
-391.691
26.7521
-413.234
9.20512
251.198
-253.274
2.07566
711.256
-682.603
-485.139
84.1429
400.996
-42.2854
626.469
-20.1995
-205.304
914.264
-141.776
-772.488
518.881
537.486
-1056.37
-291.24
-17.2833
291.015
4.1792
10.2673
274.365
-690.79
-2.86657
693.656
592.121
-749.004
-211.321
193.77
17.5509
-525.063
-24.2939
-644.976
5.58126
135.143
-137.4
-428.268
-106.261
194.16
16.7754
-634.822
618.047
-38.8287
-497.777
536.606
-259.77
305.39
-69.3131
626.125
-728.148
753.637
-25.4892
217.719
-482.443
247.008
-259.787
12.7798
11.0432
-838.32
27.7598
242.244
-456.1
909.858
-919.855
9.99692
636.752
13.7896
-650.542
-53.6529
-539.019
-807.249
840.447
119.459
-206.5
897.674
-78.2691
241.562
-15.3968
-60.3831
-715.984
776.367
-87.7353
-597.012
-20.6892
549.713
-672.106
21.2459
207.979
-233.073
25.0942
-237.182
2.48206
234.699
-558.686
533.516
25.17
-211.388
86.3284
61.0509
87.7368
-148.788
-880.249
314.636
20.1805
-334.816
54.9695
637.885
-692.855
-340.986
367.006
-26.0196
-650.422
-21.6839
-665.698
767.914
-896.629
127.529
769.1
-146.18
-168.891
-445.439
64.0164
-456.932
-615.437
267.133
-3.18033
-290.447
291.047
-0.599804
175.056
-72.9863
-422.845
393.826
29.0187
-954.876
972.03
-286.731
97.8113
188.92
134.154
24.0596
522.667
857.097
-877.323
276.843
-38.5414
368.432
-511.734
-789.356
811.307
-21.9504
-347.192
-185.241
532.433
132.816
-174.652
41.8368
426.441
-524.7
746.213
-682.363
-63.8502
-260.199
-31.0415
331.772
-80.3791
316.041
-292.043
331.92
-652.043
-17.8442
5.52446
633.45
-370.459
143.337
20.6536
-891.505
547.94
-390.228
608.145
368.508
423.679
8.79567
744.637
-805.02
-40.1695
-15.4736
827.283
70.3911
421.136
-499.855
78.7185
236.166
-197.716
-38.4496
-185.666
209.313
-23.6479
-10.8463
342.944
-332.098
-617.455
658.884
438.072
249.687
-218.647
-31.0402
364.645
510.994
313.077
-334.573
709.246
103.35
77.7147
-601.036
523.322
639.804
-35.6628
39.8699
-930.422
113.932
816.49
215.303
-257.188
-251.726
-793.298
732.263
61.0347
5.25163
814.295
-819.546
928.623
-928.623
-378.172
17.5744
602.826
36.978
-109.148
-24.2551
-191.119
215.374
437.595
27.8338
-465.429
-435.316
21.4189
413.897
186.723
972.167
-453.286
-229.759
39.9899
189.769
-627.185
630.811
-3.626
429.154
-470.12
40.9661
-430.782
-4.53371
46.1188
-764.877
718.758
-636.684
-61.7958
-549.489
518.496
30.9933
-373.73
287.756
24.5231
-238.503
213.98
-159.164
-127.567
-28.9584
223.828
-28.4757
46.3199
296.163
-278.524
-71.6922
791.61
367.02
-52.3839
-769.297
32.7727
-890.026
814.425
75.6005
122.098
283.931
376.955
162.501
-754.679
858.724
330.22
188.52
-518.739
-164.789
594.454
-644.043
49.5891
482.127
55.2165
-537.344
638.053
-343.535
-294.517
-478.979
-116.292
-781.469
678.285
27.3581
-685.557
658.199
-711.327
108.512
602.815
-763.916
22.9815
33.6123
508.605
-87.468
-518.871
354.195
554.615
-588.2
-35.4136
-67.4177
231.195
-163.778
49.6627
-686.014
-233.87
-234.847
167.429
-30.1997
267.371
-106.913
-160.458
161.11
-8.10148
-634.334
721.112
-31.4384
197.283
-165.845
869.867
-629.318
11.9633
136.2
190.884
1.00652
397.571
-398.578
-222.487
-197.64
420.127
180.936
763.53
379.659
-355.598
-842.511
7.57178
626.41
-609.868
-0.678909
-811.493
812.172
589.551
16.0807
-605.632
845.308
46.0181
-891.326
310.797
-10.9363
124.617
-407.014
425.976
9.00782
-255.311
335.096
-79.7848
194.153
381.612
-90.5509
611.264
-55.3283
-555.936
-756.212
781.963
-25.751
12.8582
648.26
-661.118
-645.733
114.411
-6.86252
-442.426
605.227
34.4972
323.403
-30.6201
189.677
-90.5434
-336.618
1.8779
95.9633
742.966
3.73369
-277.845
274.111
-422.736
-507.11
-57.4472
-757.751
815.199
264.627
-50.4109
190.695
-262.691
71.9956
196.177
-94.8924
-222.448
-516.877
-581.322
-791.982
-18.435
-167.411
-815.759
776.447
39.3115
-34.4843
469.772
-435.287
59.782
821.34
-881.122
198.055
-137.004
774.779
26.2166
-222.028
197.773
20.4287
-307.018
286.589
575.728
-573.867
-646.025
131.54
514.485
-561.941
588.011
-26.0697
31.9111
258.413
-665.204
-441.826
608.543
45.8165
-654.36
-721.932
606.761
-679.216
72.4552
-151.891
-44.9777
450.065
-484.333
-846.5
851.752
105.963
-307.784
-588.846
-642.427
593.282
49.145
182.182
-76.9304
-43.6793
459.132
178.92
-570.529
57.4866
514.253
-527.222
12.9688
73.1597
-717.668
644.508
267.689
-16.4909
-313.471
166.456
147.015
-569.334
591.255
-131.649
474.62
-342.971
681.426
-86.9726
1.024
-318.093
317.069
-446.893
-442.766
889.659
-143.481
247.161
-103.68
-101.693
-579.458
-571.878
419.515
152.363
402.936
-37.073