/*--------------------------------*- C++ -*----------------------------------*\
  =========                 |
  \\      /  F ield         | OpenFOAM: The Open Source CFD Toolbox
   \\    /   O peration     | Website:  https://openfoam.org
    \\  /    A nd           | Version:  7
     \\/     M anipulation  |
\*---------------------------------------------------------------------------*/
FoamFile
{
    version     2.0;
    format      ascii;
    class       volScalarField;
    location    "25";
    object      p;
}
// * * * * * * * * * * * * * * * * * * * * * * * * * * * * * * * * * * * * * //

dimensions      [0 2 -2 0 0 0 0];

internalField   nonuniform List<scalar> 
7807
(
0.263548
-0.0158985
0.377167
0.238655
-0.000921012
-1.39482e-05
0.370444
-0.00513913
-0.000111919
0.0940876
-1.35853e-05
0.00181075
-0.00783798
0.0440131
0.0981887
-0.0158654
0.275499
-0.0105429
-0.00154947
-0.0953779
0.0600851
0.00110403
0.0309358
0.185248
-0.0138486
0.272034
-0.00085663
0.0554199
0.154817
-0.000224778
-0.0198311
0.508702
0.0302717
-0.000420838
-4.47633e-05
0.0760698
-4.30291e-05
0.359111
-0.00672071
-0.000200327
-0.00645712
-0.0149844
-0.103951
-0.067964
-9.7617e-05
-3.55814e-05
0.00108418
-0.00672203
-3.47479e-05
-0.0949091
0.00297094
0.0522277
-0.0175543
-0.013852
0.075211
-0.00490615
-0.00130724
-0.00497946
-0.0293211
-0.000415879
7.6473e-06
0.00398223
0.0443363
0.00205746
-0.000657737
-0.0199016
-9.65405e-05
-8.69989e-08
0.0814463
-0.00631004
-3.2769e-05
-0.0658797
-0.0134681
-0.0231876
-0.0102595
-0.0422967
0.372898
0.0587383
0.0476754
-0.0636832
-0.00759284
0.318786
0.089915
-0.0261415
-0.00188608
-0.00183009
-0.00573964
-0.0171475
-0.000802035
-0.00371672
0.158552
-0.0756355
-7.44875e-05
-0.000799288
-0.00322522
-0.0216982
-0.0629514
-0.0108543
-0.00198268
-0.000822378
-0.0426959
0.0562754
-0.00310225
-5.91898e-06
-0.0640517
0.164071
0.431904
-0.00513393
-2.21389e-07
0.025516
0.224692
-0.070839
-8.59493e-07
0.0273929
0.164084
0.000203177
-0.090629
0.130189
-0.0478961
-0.0247158
-0.0417968
0.303534
-0.0989628
0.00911953
-0.0405264
-0.00111957
-0.0170507
-0.000235362
-0.000696003
-0.0197064
-0.130405
0.048234
-0.000558726
-0.000904238
-0.0268274
0.216767
0.364557
-5.13332e-06
0.00754533
-0.0560438
-0.021381
-0.0626535
-0.0438276
-0.022298
0.431618
-0.0333776
0.156096
-0.0306213
-0.028747
0.303081
0.0722416
-0.0647243
-0.00180946
0.0599054
0.0894809
0.336186
-0.049768
-0.00752757
0.441557
-3.04904e-05
-0.00160007
0.192194
-1.10113e-05
-0.00336253
-0.0036174
0.238154
0.238686
0.459765
-0.00355296
-0.00261857
-1.01579e-07
-0.0376459
0.000201357
-0.00853109
0.00831608
-0.0283773
-0.0407959
0.14312
-8.03098e-05
-0.000513682
0.244592
-2.62056e-05
-4.75455e-05
0.375402
-0.0211506
-0.0578399
-0.0455443
-0.0229384
-0.0365812
-0.0564732
-1.10865e-05
-0.0601891
0.150215
-0.00324226
1.99827e-05
0.18979
-0.00100716
-0.0185447
-0.0342836
5.57937e-07
0.000371163
0.221958
0.180725
0.333351
-0.0835315
-0.065362
-0.146856
0.0608476
0.218143
-0.000105369
6.54991e-06
0.405455
-0.0135673
-0.000554605
-0.0580385
-0.017938
0.307081
0.311982
-0.0676891
0.494366
-0.000944534
-0.0101178
-0.0433557
0.0743187
-0.128949
0.231668
0.436457
5.31403e-06
0.00986649
0.139162
-0.005805
0.12728
-0.000752925
0.495585
0.327527
-0.0055284
0.000727532
-0.000186133
0.144901
-4.01851e-05
-0.0100744
-0.0581946
-3.69719e-05
-0.00197439
-0.000647956
0.149894
-1.30234e-05
-0.00385465
-0.0624756
0.503648
0.0395836
0.465226
-1.67809e-05
-0.036695
-0.000196033
0.351103
0.00379327
0.365805
-0.0013492
0.000204466
-0.007622
0.0639504
0.000351154
-0.000132549
0.000284531
-0.00616369
-0.059681
-1.61995e-05
-0.0479263
-0.00346883
-8.08959e-05
-0.000608277
0.35806
-0.00707609
-0.000516106
0.457114
-0.00205033
0.247743
-0.000202789
-0.00730646
7.88674e-07
-0.0408632
0.0709921
-0.0305667
-0.0303148
-0.000452421
-0.0814048
-0.0145433
-8.67762e-05
0.000273034
-0.00307516
-0.00719758
0.00261676
-0.00160083
-0.0250395
-0.0540048
-0.0237892
-0.0539181
-0.0301026
0.333131
0.346195
-0.00140069
-0.0635032
-2.31055e-06
-0.00358095
-0.0216639
0.180155
0.101848
3.15515e-05
-0.00331212
-0.0293344
0.157202
-0.00114192
0.00333493
0.000860963
0.0403154
-0.147017
0.32764
-0.00130476
-0.0187628
-7.50128e-05
0.00271969
-2.45952e-05
-0.0261872
-0.000218784
-0.00232816
-0.0948508
-0.0400336
-0.00536007
0.00877493
-0.000496469
0.0198627
-0.0150331
0.0697555
0.152575
-0.186282
-0.0763169
-0.0148943
0.00476218
-0.0572819
0.467817
-0.0665429
0.036228
0.485646
-0.00125998
-0.00170518
-0.0758798
-0.00152539
-0.0294884
0.0064771
-0.00242233
-0.00172739
0.147739
-7.6695e-05
0.00033204
2.16384e-05
-0.00300957
-0.0103728
-2.90193e-06
-0.000856494
-0.0280454
0.411834
-0.00504744
-0.0130457
0.409172
0.270848
0.0570693
-0.0502827
-0.0380734
0.00444381
0.231121
-0.0106723
0.28167
-0.0414648
-0.116503
0.182654
0.285397
-0.0435127
0.0948567
0.230578
0.258679
0.0590716
-0.00310052
-0.00454584
-4.69986e-05
-0.00683021
-0.0108469
0.000385912
-5.64769e-05
-0.0014979
-0.0800069
0.0779988
-0.0181541
-0.00703918
-0.00351371
-0.020974
-0.00693263
-0.000108959
0.201364
-0.00155094
-2.17292e-05
-7.83075e-05
-1.54465e-06
-0.0223726
0.143154
-0.00374479
0.0333822
-0.140633
0.349876
0.0016652
0.00655264
-0.00551596
0.346547
-0.0007826
0.325157
0.159544
-6.13713e-05
-0.043861
-0.00295169
-0.0613277
0.000348949
0.0657773
-0.00129717
0.00600347
-0.000646158
0.136105
0.159933
-0.0648498
-0.0295966
-0.00329007
-0.0346549
0.056414
0.49951
-0.0808462
0.00306165
-6.17203e-07
-0.0141495
-0.00194514
0.0174615
-0.112337
-0.0772205
0.369564
0.145123
-0.13315
0.200392
0.336473
0.0343945
0.00062504
0.245018
-0.00134838
-0.000152509
-0.015269
2.85371e-05
-0.161417
-0.00647215
-0.0377342
0.00146159
0.193831
-0.00152455
-1.98003e-05
-0.123063
0.00131782
0.017916
-0.0416533
-0.0511278
-0.0188568
0.140512
0.11404
0.117366
-0.000123692
0.0690911
0.077636
-0.000564094
-0.0177157
0.000384231
-6.42555e-05
-0.0136603
0.00456629
-0.000989181
0.136993
-1.28089e-05
8.74285e-05
0.00159943
-0.0209375
0.0227794
-0.0339468
-0.0255423
-0.0547905
-0.145171
-0.00335954
0.237927
-0.0787739
-0.00689096
0.496075
-0.0631114
-0.0109302
-0.025266
-0.0130744
-0.0189226
-0.0107846
0.0317602
-0.0739136
-2.25414e-05
0.0272227
-5.11782e-05
0.329895
0.0920626
-0.00496149
-0.0125057
-0.000113606
0.318834
0.306787
0.0500231
0.151566
-0.0683199
0.370861
-6.8808e-05
0.0106161
-0.0160121
0.149011
0.448501
0.0418402
0.138273
-0.00598714
-0.000133601
0.134365
-0.1088
0.333773
0.0202489
0.205915
-0.00718109
0.353178
0.291623
-0.00937886
-0.00798005
0.108348
-0.0524963
-8.73623e-05
-0.0137473
-0.0552191
-0.0779829
0.0121406
0.00920269
-0.000122984
0.311375
-0.00463049
-6.67385e-05
-0.0489004
-0.000459923
-0.000143307
0.000266985
0.21064
-0.108732
0.42271
1.77474e-05
0.209437
-0.0396616
-9.18327e-05
2.79404e-06
0.15246
0.201183
-0.00433743
0.180156
4.05733e-06
0.190909
-0.178874
-0.0097098
0.34921
-0.0549191
0.141579
-0.0236814
0.18956
0.19909
-0.0180018
-0.0229032
-0.00928856
-0.00257669
-0.000169086
-0.0045463
0.265608
-2.01649e-05
0.182359
-0.107705
0.29548
0.172449
-0.0553925
0.421668
-0.00161779
-0.003897
-0.0708619
-0.0190482
-0.00689226
-0.0430368
0.0254595
0.471056
9.81895e-06
-0.00189565
-0.0677349
1.57112e-07
0.33827
0.00136396
-4.74255e-07
8.13713e-05
0.000208342
-0.0245468
0.0168298
-0.00145539
-3.96305e-05
-0.00718024
-0.00118824
-0.120388
-0.0466006
0.0235991
-6.77438e-06
-0.17645
-0.0128254
0.114121
0.286108
0.000220714
0.119775
5.76528e-05
-0.0124162
0.0844891
-0.00713214
0.228822
-0.0138548
0.0143796
0.0878787
0.142557
0.000356248
-0.0104206
0.173882
-0.0909063
0.359268
-0.00978676
0.261206
-0.00944308
-0.000981543
0.130782
-0.0101613
0.0816539
0.00142778
-3.3433e-07
-0.135382
0.194423
0.000569442
0.108463
-0.0130827
-0.177501
-0.0145481
-0.0355371
-0.00159786
-0.00749054
-0.076312
-0.0276324
-0.00978989
-0.000208761
0.380247
0.113605
0.0327363
-0.000149665
0.288025
-4.87163e-06
-0.000134971
0.12346
-0.00746862
0.166841
0.0543415
0.0165581
-0.0657924
-0.144533
-0.0225018
0.000901129
-0.0411199
-2.32099e-05
0.000935674
0.220308
-0.0171215
-0.00272712
-0.0254723
-0.00185643
-0.000589334
0.454291
-0.0104069
-0.000576907
-9.21018e-07
0.126614
-0.0373618
-0.000364097
-0.00245168
0.148009
0.0773259
-0.0417033
-3.48411e-06
0.163361
-0.0213921
0.182999
0.0180728
0.0229222
-0.0301445
-6.11304e-05
0.0856077
0.0687003
0.0136206
-0.100425
0.263875
0.00573039
0.169779
-0.00752562
-0.0464005
-0.000278226
-0.00830124
-0.000174167
0.150155
0.245129
-0.00149739
0.0189334
-0.016753
-0.0841686
-0.0921256
-0.00166549
0.00864835
0.44163
-0.0062668
-7.15663e-05
0.0762868
-0.00658059
0.380628
-0.0125984
-0.0219968
-0.0174316
-0.0244458
-0.0148387
-0.00769079
-0.00833027
-0.0001369
0.0178513
3.4304e-05
-0.166273
-0.0347516
0.328146
-0.0400678
0.172327
0.0015698
-0.0705025
-0.0285572
0.191141
-0.00762669
1.8048e-05
-0.0214633
-0.00835107
0.0121574
-0.0254167
-0.0235555
-0.0408927
-0.0133638
-0.0216027
-0.0845631
-4.0011e-07
0.0331526
-0.0736877
0.145717
-0.0768399
0.0811823
-0.101897
0.30237
-0.00922756
-0.0307879
-0.0349275
0.397398
-0.140637
-0.0129801
-0.132902
-0.0570432
-0.123347
-0.0764194
0.163871
-0.00280914
0.225078
0.00869328
-0.000411163
-0.00167951
0.065287
0.494324
-0.000751303
-0.041446
0.155507
3.7642e-06
-0.0218932
0.0299658
-0.0204206
0.0088616
-0.00196611
-0.0430172
-0.00571744
5.08698e-06
-0.0527637
0.238502
-0.00977664
-0.0161675
0.00144503
0.155414
-0.000441424
-0.00110886
-0.000260325
-0.00124928
0.0307973
-0.0126901
-0.00298103
-0.0184797
6.07644e-06
-0.136844
-0.0949848
-0.15449
-0.028648
0.0145651
-0.000140977
-0.0159986
-0.0626232
0.0110079
0.296289
-0.00204721
-0.0577207
-0.00506457
-0.00545716
0.141237
0.000238183
-0.000147655
0.118025
-0.0046008
0.0125414
-0.00303173
-0.00169615
-0.0599646
-0.000204974
-0.0138119
-0.0113518
0.254858
0.238924
-0.0626447
-0.0725383
0.00694549
-0.00450581
-0.0186203
-0.0831152
-0.0308732
-1.84543e-06
-0.0238109
-0.0222185
-0.0912617
-0.00645219
-0.0404096
-0.000332659
-0.00287481
0.173992
-0.0289886
-1.64792e-06
-0.00237918
-0.127234
-9.50136e-05
-0.0369887
-5.91386e-05
5.82261e-05
-0.116721
-0.0617254
-4.4435e-05
5.85083e-06
0.108975
-0.0639376
0.319078
0.250359
-0.0277255
-0.00105639
-0.0277716
9.49119e-05
-0.131319
-0.11423
-0.029826
-0.0164634
0.244545
0.00156315
6.82245e-05
-0.00192608
-0.145283
0.00149716
-0.043928
-0.0611503
-0.00782516
0.0157406
0.0585994
-7.45364e-05
-0.0260847
-0.0922748
0.162746
-0.0514
-2.4776e-07
-0.130016
-0.0553879
-0.0600432
-0.00116592
0.000465815
-0.00208968
-0.120814
0.0244949
-0.0245648
0.1166
-0.0689897
0.00104958
0.0129977
0.000477125
-0.0261364
-0.142733
-0.000159569
0.125277
0.178984
0.00528089
0.198519
-0.0941441
0.0367623
-0.0646675
0.171844
0.0850994
0.472037
-4.73304e-07
0.0842804
0.15291
0.0109908
-0.001034
-0.0120522
-0.0388618
3.46762e-06
-0.0142931
-0.0643701
-0.0130902
-0.0169684
4.45664e-05
-0.112936
-0.000348428
-0.000456544
0.204189
0.00150341
0.0566015
0.0132404
0.176484
0.00304375
-0.000494566
-0.133231
0.00228144
0.307484
0.00063062
-0.0659598
-0.000269143
-0.000322466
-0.000421504
-0.0784624
-2.43796e-05
-0.00674795
0.0198178
-0.0010135
4.58087e-06
-5.41209e-05
0.128908
-0.0595658
0.0028175
-0.000607621
0.00401245
0.0115292
0.00335909
-0.000296177
0.321476
-0.11884
0.188474
0.276473
-9.13514e-05
0.0454007
0.0921986
-0.000509911
-0.000215249
-0.000579661
-0.0292313
0.0020419
-0.0241858
-0.0312892
-0.0763655
0.145426
-0.126559
9.47186e-07
-0.015697
-0.0200865
-0.0258703
-0.00274129
0.00233809
0.000604841
0.0210293
-0.000261918
-0.000292063
-0.0154579
-0.00321072
-0.0202625
-4.03443e-06
-0.0118757
0.0256361
-0.0452876
-0.0530946
-0.00642732
-0.00887145
-0.00647584
-0.00365501
-0.00457135
-0.00636828
-5.77115e-05
-0.000380606
0.0151557
-0.00882213
-0.00364118
0.00426828
-0.00313208
-0.157034
-0.0087829
0.132155
-0.00870193
-0.0531135
-0.0286559
-0.0186924
-0.0119036
-0.00256669
0.000573986
-0.0025298
-0.00955455
-0.0117579
0.167962
0.128089
0.0353377
0.286302
-2.85182e-05
-0.00421637
-0.0114545
-0.00634174
0.0746526
-0.0156544
0.0315981
-0.00520941
0.185668
-0.00151328
-0.00136933
-0.000739884
-0.0306535
-0.000159942
-0.0296338
-0.0040655
-0.0154901
-9.64468e-06
-0.0045159
0.000991119
-0.0143228
0.0197737
0.0287743
0.014375
-0.010806
-0.0256323
0.0974157
-0.00118989
-0.00128826
-0.00131099
0.410701
-0.000130872
0.0560887
-0.015177
-0.0165702
-0.0185009
-0.0476309
-0.0211283
-0.0274345
-0.0163098
-0.00355847
-5.15977e-05
-0.00288577
-0.015301
0.0831108
0.000872377
0.138183
-0.0267488
-0.0107287
-0.000482824
-0.0238199
-4.99997e-05
0.124824
-0.024956
-0.0212965
-0.0196833
-0.00530532
-0.0323575
-0.000953733
-0.0327259
0.0855387
-0.0200799
-0.0918396
-0.000855449
-0.0209502
-0.0151588
0.0112609
-0.00243903
0.119791
-0.00148036
-0.0128983
-0.000557112
0.135108
-0.0314789
-0.019742
-0.00203683
-0.00784429
-0.00209568
0.168167
-0.0121128
0.18979
-0.00545186
-0.000722902
-0.000739017
-0.00178713
0.162724
-0.0544816
-0.00559157
0.000115145
-0.0129717
-0.026468
-0.000977426
-0.0256615
-0.0126004
0.0472972
-0.00350293
-0.00307498
0.379924
-0.0529388
-0.019386
-0.0502259
4.03248e-06
0.0630245
-0.00244417
-0.0192463
-0.0044676
-0.0284612
0.000738656
-0.000376452
-0.00184099
0.00189014
0.169135
-0.00385596
-0.00124115
-0.00346083
-0.0573477
-0.00619662
-0.015521
0.00147499
-0.00616676
-0.00587975
-0.00238129
0.173184
-0.0374906
0.00178234
-0.00271231
-0.0203996
-0.00941381
-0.0394401
-0.00122043
0.0764267
0.016514
-0.00615259
-0.00137917
-0.0113957
0.431653
0.170272
-0.00853458
-0.000304263
-0.00176085
-0.00988043
-0.00310101
0.0150679
-0.00032894
-0.0264923
-0.00123892
-0.0119267
-0.106558
-0.00104172
-0.0159406
-0.000842254
0.271273
-0.00580915
-0.0084095
-0.0509454
-0.00107141
-0.0215819
0.0463617
0.380643
-0.00850977
-0.00936108
-0.00124113
-0.000451919
-5.73647e-06
-1.63696e-06
-0.00796727
-0.00046038
0.0940658
-0.000631868
-0.00120964
0.00441166
-0.000129433
-0.0362358
-0.0779415
0.0128366
0.0319619
0.0204762
0.0287335
-0.0661123
0.0752778
0.0580138
0.0805923
0.103172
-0.00918845
-0.00060408
-0.00694668
-0.0870898
-0.00228668
-0.0114209
0.0107098
0.30053
-0.0681224
-0.000271726
-4.06775e-05
-0.000813904
-3.82495e-06
0.00146867
-0.000486086
-0.0056827
-0.0382247
0.000211003
0.00129574
-0.000121179
0.0481091
-0.0111335
-0.0684509
-0.00124214
0.271968
0.259025
-0.00836998
-0.104908
-0.0215192
-0.0171136
-0.0114799
-0.00137168
-0.100377
-0.049952
-0.0412969
-0.0955624
-6.90857e-05
0.165612
-0.0320779
-0.00664696
-0.0472427
0.0132484
-0.000344832
-0.00678482
-0.000809077
0.00384383
-0.00173394
0.147471
0.000120562
0.00692196
-0.000200872
-0.122705
0.00579656
-0.000972411
-0.00747013
9.39721e-05
-0.00166279
0.0986546
-0.00490239
-0.00094911
-6.36412e-05
-0.000380513
-0.00030515
-0.0494778
0.105178
-0.0110615
-0.000120759
0.00271698
-0.000335625
0.19307
-0.0511441
0.223929
-0.0355536
-0.000234921
-0.00027053
-0.00599876
-0.00392224
-0.000581157
-4.9608e-06
0.0177222
0.0216771
-0.000115899
-0.000348257
-0.0149992
-5.5618e-06
0.142348
-0.000713466
-0.0427112
-0.0151486
-0.00434647
-0.0462595
-0.0562383
0.12809
-0.0385773
-0.0146591
-0.000158033
-0.0447695
-0.0144869
-0.0164924
0.0852981
0.303664
-0.000648814
-0.0486736
0.00252407
0.274211
0.030509
-5.44233e-05
-0.004804
-0.00275719
-0.00382578
-0.0300666
0.0729747
-4.50465e-06
0.00403843
0.000547204
0.0586878
-0.000298585
-0.000121161
-0.114839
0.249917
-0.0436009
0.127475
-0.00159832
-0.000109234
-7.7446e-07
-0.120144
-0.0260908
-0.000286668
0.0870211
0.007815
-0.00404789
0.336673
-0.000453337
-0.00317843
-0.0524504
-0.0456331
-0.00141664
0.114062
-0.0875054
-6.67866e-05
0.000797416
-0.000158259
-5.83418e-05
0.119222
-0.0137705
-0.000221747
-0.0370455
-0.0194999
-0.00214764
-0.0529802
0.00127659
-0.0159169
0.000640746
-0.0026345
-0.054067
-0.0308869
0.0028059
-0.000730191
0.133704
0.176326
-0.13021
0.00378866
0.0137003
-0.00334132
0.141201
0.089332
-0.0196019
-8.92825e-05
0.00457762
-0.0364775
-0.00120825
-0.0260177
-0.00164396
0.0278723
-0.0231883
-5.54665e-05
-5.06266e-05
-0.0616843
-0.0302699
-0.0186259
0.00497507
-0.0200068
-0.0390089
-0.000129028
-0.00130485
-0.000167056
-0.0407736
-8.99376e-06
-0.00135028
-0.0670594
-0.133766
0.096331
-0.00226842
0.00246755
-0.0193739
-0.019182
-7.23625e-05
-0.029395
0.0918289
0.133408
2.24103e-06
-4.54611e-05
0.13603
-0.00193759
-0.117102
-0.0252901
0.001948
8.45679e-06
-0.0467774
-0.0511793
0.139529
-0.0370172
-0.000922448
-0.015529
-0.0541006
-0.000411957
-0.000110124
-0.000674702
-0.0398237
-0.0381923
0.124506
-0.000106172
0.4001
-0.0465437
3.1711e-06
-0.00106373
3.0392e-05
4.11285e-05
-8.44348e-06
1.90768e-05
-0.0381949
-0.000606503
0.000155518
-9.11575e-05
0.119194
-0.00410407
-9.50636e-05
-4.11075e-05
0.32715
-0.0180866
-0.0672526
0.000314077
-0.000504207
0.0423215
-6.42464e-05
-0.0186048
-0.162328
0.0011655
-0.00796926
-4.45235e-05
-0.000121508
-0.0272651
-0.0886258
0.00472961
-0.149684
-0.0908575
-8.9055e-06
0.0162216
0.0258906
0.0917123
-0.00107259
-7.78167e-05
-0.0484162
-0.00438786
-0.000493816
-0.0371258
-7.113e-05
0.0245315
-0.000119852
-0.000702938
-0.02349
-0.00263425
-0.0454734
0.386016
-0.00146767
8.3449e-05
-0.0566205
-0.0698966
0.00500544
0.00286154
-6.27326e-05
-0.024509
-5.17233e-05
0.167046
0.457679
0.0595115
0.00171758
0.00199118
-9.82385e-06
-0.0252019
-4.37301e-05
-0.0119761
-0.0012589
8.32507e-05
-0.00218458
-0.0111398
-5.12932e-05
0.000340646
-0.0121559
-0.000164468
-0.0109454
-0.0137781
-0.022002
-0.00136443
0.415443
-0.000823262
0.00132621
6.95716e-05
0.00998763
-0.0354705
0.00629435
-9.91562e-05
-4.22891e-05
0.000914859
-6.47981e-05
-3.12123e-05
-0.0132059
0.0002851
-8.04523e-06
-0.041415
-0.00288728
-0.0381493
-0.00114926
-2.52858e-05
-0.00194141
-0.0207253
-0.0152184
-0.0329337
0.00124945
0.000154831
-0.000309666
-0.00106817
-5.60825e-05
0.240493
0.000774428
-7.71558e-06
8.85309e-05
-0.00164421
-0.000380676
-0.0427837
-0.0389465
-0.00013366
-0.00544676
-1.96775e-06
-0.00359679
-3.05181e-05
0.0282631
-8.02984e-05
-0.000174267
-0.00452478
-1.85994e-05
0.00964081
-0.000133999
-0.000788933
0.0141324
-2.76476e-06
0.324776
-0.0447025
-0.0341735
-1.50169e-05
-6.91839e-06
0.000744919
-0.00069625
-0.0509514
-6.54293e-06
-3.29127e-06
0.000261615
-8.22745e-07
0.000126784
0.000164544
-0.000280955
0.000330523
-0.0391334
0.410806
-0.0423232
0.298326
0.00610664
-0.0187919
-8.02273e-06
-0.000459918
-0.0102404
2.33019e-05
8.77759e-05
4.01231e-05
0.0448293
-0.00174102
-0.000227844
0.378141
-0.000238603
0.000125151
0.000189148
-1.53459e-06
0.0176453
-0.00178264
0.000520037
1.79792e-05
-0.000795289
-2.30002e-05
-0.001334
-0.0370978
-0.000218473
-0.00221767
-1.32158e-07
-0.00331271
-0.000109577
0.163718
-0.000249904
-0.000370792
-0.0434936
0.0021916
-0.000100367
-0.000881282
-2.01917e-05
0.148974
-0.0596246
-0.000470168
-0.000188371
-0.0028191
-0.000219362
0.0453392
0.0960633
0.0105208
6.37601e-05
-2.2072e-06
-2.09782e-07
0.040357
7.43601e-05
-0.0371867
-0.036151
-0.0150579
-0.0443116
0.428032
0.00101552
0.174802
-0.0141912
-0.0251647
0.151643
-0.000159125
-0.0524289
-5.95158e-06
-0.00743789
-0.0310424
8.54375e-06
-0.0580876
-0.000525962
-0.0226592
-0.00704138
-0.0268484
-0.0333317
-0.0045657
-0.0589812
-0.0280569
-5.77076e-05
-0.00782288
-5.92755e-05
-0.0243851
-7.81154e-06
-6.60591e-05
0.00124516
0.143609
-1.41852e-07
-0.0384736
0.00190373
1.12622e-05
-0.0227846
-2.35374e-06
-0.00861596
-0.000224676
-0.0247458
2.60286e-05
-4.64164e-05
-0.00216636
-9.59424e-05
0.139959
-0.0258314
0.0580025
-3.4282e-05
0.000248212
-0.0206096
-5.9113e-07
-0.0470858
-0.0505876
-0.039648
0.40633
-0.00526855
-6.00279e-06
0.0193037
-0.0275298
-0.00334238
-5.53136e-05
-4.05357e-05
-0.0363144
2.01113e-05
0.000371318
-4.88504e-07
2.45853e-05
-0.0182712
0.103037
-0.0959536
0.0826788
-0.0042025
-1.99815e-07
0.00194291
-0.0610212
-4.80179e-06
-5.65895e-06
0.000103974
1.11311e-05
0.000143409
0.219284
0.0273644
9.0955e-06
-1.89498e-06
-0.0475693
0.176997
0.156393
-8.8202e-06
-0.0296586
-0.0214005
-0.0121409
-0.0349672
-0.0101736
-0.00205695
0.12368
-3.38435e-05
-0.022068
0.148345
-0.0406842
-2.57327e-05
-0.042632
-8.72997e-05
0.275901
0.0191319
-3.27773e-05
-1.71045e-05
0.165001
-5.77161e-07
-0.000109683
-0.00783078
-5.717e-06
0.226144
0.000614581
-0.00485852
-0.0433915
-0.00289303
-0.0958081
0.161914
-0.0229413
-0.0561107
0.00043803
-1.29589e-05
-0.000948714
-1.92495e-05
-1.41479e-05
0.00953077
0.159111
0.131675
-0.000305793
0.216
-0.017574
-2.68834e-06
-0.0298564
-2.35262e-05
-0.023989
0.0203841
-0.0163392
0.00216924
0.000937973
-0.00622615
1.43676e-05
-0.00126473
0.0117292
-0.00163198
-4.53328e-05
2.84876e-06
-2.34008e-05
0.0248299
4.64787e-06
-0.026767
0.227271
-0.00537985
8.02714e-06
-0.00227428
-1.46817e-05
0.0604312
-0.000141375
-2.79657e-05
-2.12447e-05
-7.16804e-06
0.185295
-0.000118579
0.21598
-0.0602708
1.59224e-05
-0.0508791
-0.000628796
0.137803
0.384019
-0.000741058
3.75665e-08
-4.14791e-06
-1.13513e-05
0.122964
-2.68965e-07
0.000386325
-0.0153778
0.202298
-1.71338e-06
-2.87367e-06
2.00969e-07
2.09339e-06
-0.0171439
-2.35935e-07
0.25705
-0.0175943
-3.6248e-05
3.58428e-06
-0.00115861
-0.0197348
5.51052e-08
-1.89885e-05
0.145868
4.22106e-06
-0.0270292
-0.0801742
2.75276e-05
-2.44656e-07
-0.176927
-4.19452e-08
0.145666
1.45334e-06
-0.000283418
-1.36075e-06
-5.17403e-05
0.0797861
-1.7055e-06
-0.00116054
-3.79104e-06
0.00486305
-0.00290721
-0.00401161
-0.00176546
0.135131
-0.000341307
-4.64946e-05
-0.00581566
-0.005865
-8.26314e-05
-7.57224e-05
-0.000694632
1.19927e-06
0.163627
-0.0111899
0.423058
-3.15044e-06
-0.00571056
-0.000202609
0.117573
5.89796e-06
-0.0249706
1.95426e-06
-0.00105577
-0.0277315
-9.83943e-05
-0.0129913
-0.0424492
0.00208203
-1.7568e-05
-0.0694559
-0.000113057
-0.000433173
-0.00391314
-0.024237
0.000420929
-8.8006e-05
-0.000254401
-0.00122849
-0.000809952
-3.97916e-06
-0.000722101
0.380616
1.83042e-05
-0.00204448
-0.0289392
-0.0451309
-0.0511309
-0.0319503
-0.0186245
-0.00073448
-0.0246568
1.20847e-05
-4.1502e-05
0.398994
-3.73964e-05
0.161598
-0.000165544
9.96871e-05
-0.000637926
-0.100772
-0.000226474
-0.00137093
-1.2528e-05
-0.000197032
-3.00852e-05
-3.60433e-05
-0.00975791
-7.11069e-05
-5.09392e-05
-3.44689e-05
-2.95347e-05
-1.31469e-05
-0.039756
0.224404
-4.95052e-06
-0.000236717
-9.01678e-05
2.88465e-06
-0.000419846
-1.25562e-06
-0.000481883
4.90759e-05
-0.000170871
-0.0491177
-0.000393468
-0.00148136
-1.46936e-06
-0.00205095
0.000104404
-4.40101e-06
-6.09683e-06
3.83756e-07
-0.000332484
0.000162561
-0.0403794
-0.027656
-0.0469722
-0.000493628
-0.00261675
-0.0483611
-0.0447814
-2.73391e-05
0.00818637
0.00336226
-0.000443576
-0.00962067
-0.0349195
0.379613
-0.000178348
-7.07773e-06
0.000194897
4.36847e-06
6.15696e-07
0.0632843
0.0010932
0.0741976
-0.0449031
0.358248
-0.000200352
-1.1851e-06
2.99056e-05
-1.13226e-05
-0.000615693
0.136316
0.192973
-6.7366e-06
-9.96558e-05
-1.75152e-05
0.1827
0.00514839
-0.010345
3.33201e-07
1.43586e-06
0.00440065
-0.000282177
-0.0650311
-0.0141761
-5.69593e-06
0.00168935
-0.0319019
-2.47304e-05
0.000734458
-5.35704e-05
-0.0353817
-0.000827346
0.12832
6.26639e-07
0.000792085
-0.00203103
-4.88182e-07
3.50752e-05
-0.0196379
-1.77485e-07
-0.000390672
-2.23096e-06
-0.0121242
-0.0324649
-0.00421494
-0.0107962
-0.00560881
0.00585331
-0.00695628
-0.00125951
9.83875e-06
8.75922e-06
-1.3615e-06
-7.92643e-07
-2.056e-05
0.00500896
-0.0616937
0.000164286
-0.0581961
-0.0015822
-0.0613836
1.56521e-05
-1.2966e-05
0.000568724
-0.0967325
-3.21926e-07
-0.0557576
-0.0143533
-0.00792225
-0.0606028
1.07725e-06
-0.00181371
3.93959e-05
-0.169574
0.115688
-8.2118e-06
-0.0555928
-0.0229414
-0.00231131
-2.76519e-07
-5.09651e-06
0.0127642
-0.0101074
-3.58758e-06
-0.00458843
-2.21533e-05
4.28415e-05
0.106247
-4.00524e-06
-1.61801e-05
-9.20353e-05
4.9136e-07
0.000354733
1.62621e-05
-0.0029079
4.26306e-05
-0.0104878
0.000428524
-0.000152678
-0.0378946
-0.0376353
-0.00490668
-4.93197e-06
-5.65996e-07
-0.0776162
0.00326425
-0.0392365
-5.7509e-06
-0.00391136
-7.40209e-06
-1.11522e-06
0.0571299
-0.00389794
-0.00143294
-1.42195e-05
-0.0170314
4.93126e-06
-0.0559145
-2.01176e-06
-0.064335
-1.33108e-05
-3.18095e-06
1.52328e-05
0.000428516
-0.118738
-0.0112056
-0.0673259
-6.04384e-06
8.18916e-06
-0.0616207
-0.0348519
-0.00487749
-4.97263e-06
-0.0546418
-0.0522593
-0.0590994
-1.03646e-05
-6.02833e-06
-2.66903e-05
-0.115115
-0.0675063
0.000229924
-0.00635854
-3.95425e-05
0.213357
1.8677e-05
-8.74047e-06
3.04864e-05
-3.72707e-05
-7.07607e-06
-0.00268138
7.11964e-06
-0.00194614
-0.0671993
-0.00780075
-0.034169
-5.06247e-06
-1.64678e-05
0.0371752
-0.0767785
-0.0026084
0.095427
-4.4691e-05
-9.6503e-06
-8.35884e-06
0.0992287
3.65893e-05
-7.77536e-05
-1.08922e-05
-0.0730081
-0.00940544
-1.74251e-05
-6.08952e-05
-0.00758216
-0.00359112
8.78165e-05
0.1955
-0.0652259
-0.000848944
0.496184
-6.34593e-05
-0.000757419
-0.00958379
-0.0553419
-7.45797e-06
-2.39669e-05
1.02357e-06
0.00244655
-0.0398891
-0.000262008
-0.0457359
-0.00440442
-9.26122e-06
-2.33034e-06
-0.00590035
-0.0178522
-0.0376667
-0.10299
-0.0335519
-0.0321146
-0.0214181
-0.0258755
-2.90115e-05
8.34465e-05
-0.00989567
0.000190296
-0.000184161
0.000223393
-2.05645e-05
-0.000150731
-0.00707899
-4.62553e-06
-2.58472e-05
0.0227268
-0.0454274
-0.000315807
-0.000109962
-7.74684e-06
0.212418
-0.00536056
0.000200888
-0.0269637
6.17531e-05
4.31584e-05
3.93097e-05
-2.62467e-05
0.000141238
-0.0350132
0.00656438
-3.77339e-06
-0.000253257
-0.0418479
-0.0356961
0.0390498
-0.000180566
0.000903618
0.012375
-9.44225e-06
7.262e-08
-0.0584409
8.41394e-07
0.141235
-2.85657e-05
0.00232849
3.83925e-05
4.86045e-05
-0.0519058
-0.00622457
-0.015024
-0.00130824
1.3755e-06
0.00150808
0.0499958
-0.0107743
-8.04139e-05
0.0794045
0.138127
-2.74984e-06
-0.044119
-4.09341e-05
-1.05931e-05
-1.62829e-05
-0.000217316
0.0140758
-4.01083e-05
5.20712e-05
-0.0164297
-0.0214068
-0.0130579
0.265109
-2.01688e-05
-3.26168e-05
0.145613
-0.0173109
-0.0029284
-0.000254765
0.143457
-1.35553e-05
-0.000541827
-3.43614e-05
-3.30023e-05
1.72034e-06
1.50365e-06
1.32966e-05
-0.0114889
-1.16177e-05
-0.00289895
-0.0346117
0.214562
-0.00038796
-1.87402e-05
0.00261469
0.070814
-0.0588127
-0.000307574
-0.0448502
0.265717
3.78589e-06
0.343339
-4.1123e-06
0.00149409
0.0174937
0.000134268
0.361898
-6.85884e-05
-4.1843e-06
0.000361373
9.25614e-07
-0.000350085
6.68751e-05
-1.24478e-05
-0.00113798
-4.80977e-05
-8.86719e-05
-0.00214526
0.209081
0.0387247
0.0157769
-0.0309363
-3.29458e-06
-1.9573e-05
0.00139066
-0.0674674
-9.28568e-06
-0.0344661
-2.60335e-05
0.0874568
0.0502057
-0.0330293
-0.000895071
-0.0122821
-0.000410974
-0.00888975
-0.00143492
-0.00789854
0.0513729
-8.40795e-07
0.232641
0.0152286
-0.000921808
0.184913
-0.011152
-4.2536e-06
-1.40719e-05
9.77502e-06
-6.38881e-05
-0.000102138
0.210429
-0.000546865
0.217202
-0.00156762
0.141712
0.196132
0.102325
-0.00574538
-9.73831e-06
-5.87805e-05
-0.00610403
-0.166964
-0.0492162
0.000679957
-3.10585e-05
-0.0281233
-0.000672719
-8.32218e-05
0.000424427
-0.00055618
-0.0011625
0.0248685
1.29797e-05
-0.0325166
0.0457202
7.75945e-06
5.19791e-05
-0.0154365
-0.0672709
-0.000370373
-0.000234223
-1.90994e-05
3.87333e-05
0.0726211
-0.0163076
-0.0499109
0.000553254
0.0833958
-0.0365086
-1.38108e-05
-8.86654e-06
0.00225376
-0.000162345
0.0674521
-0.00525953
-0.00818185
-0.000271736
0.000637089
-0.0364195
-0.000118239
0.00015029
-0.0138882
-0.0606806
0.136716
-0.0459163
-0.0239857
-0.000273668
-1.52124e-05
0.00415277
-1.51287e-06
-0.0570861
-0.0655975
0.000188615
0.0012184
0.00211102
-0.138724
0.00021497
1.02856e-05
-2.15514e-05
-0.0384098
-3.44516e-06
0.000191206
0.104064
0.154803
-0.156242
0.0395129
0.0378207
0.00210256
-0.000340632
0.00403143
2.49812e-05
7.09882e-07
-0.000197253
-1.28298e-06
-0.000150585
-0.000181888
-0.00612307
-0.0868798
-0.00809805
-0.03229
0.0417729
0.0343107
0.002088
-0.0657468
-8.60067e-06
0.0018437
0.00655478
-0.000230425
0.0620447
-0.00198613
-0.0102539
0.00634151
0.00329199
-0.000692167
-0.00315395
0.0319822
0.000270128
-0.0165059
-0.0146904
0.431212
-0.0244512
0.0676352
0.00381474
-0.0427027
0.000996103
-3.55483e-05
-0.0013497
-3.59028e-05
-0.00129553
-0.0236904
-3.7122e-05
-0.000240002
0.255334
-0.00168173
-0.0362418
-0.011341
-4.98123e-05
-0.00252121
-1.65128e-05
-5.35711e-06
0.0271797
-1.93869e-06
-0.00151994
0.0625602
0.00297478
0.00048892
0.0115727
-0.00458957
0.00233782
-0.157161
0.000262956
-0.00339704
-0.0515967
-0.00082666
-0.00655725
8.48572e-05
-0.00245038
0.000370065
0.0255161
-0.000583743
0.00309182
-0.0369447
-0.0184696
-9.66712e-05
-0.0341445
-0.012442
-0.0105091
-9.91431e-05
0.00390714
-0.0852162
-0.000451729
-0.00427876
-0.0323211
-0.00357525
-0.000745975
0.195514
-0.02649
-7.7518e-06
0.00514725
-0.0553307
-0.000596304
0.168623
-0.00330064
0.000395556
0.0490219
-0.000959905
0.00451077
0.109683
-0.00031345
0.000492223
2.41156e-05
-5.6195e-05
-0.00244795
-0.00856007
-0.000416193
-0.020311
0.0832536
-0.0267393
-0.0908533
0.000494141
-0.00220489
-0.000998183
-0.073285
-5.28895e-05
0.00776359
-9.45107e-05
-0.00982787
-0.00108897
-0.00273111
-0.0547919
0.101552
-0.0998931
-2.93879e-05
0.177319
-0.00222862
-0.00413171
-0.0467979
-0.107221
-0.0138672
-1.51047e-05
-0.00169641
0.00426092
-0.00199432
-0.00365571
-7.59583e-05
0.0728084
-0.0501148
-0.00914943
-0.00372013
0.0099339
-0.00703953
-0.00518705
0.000789363
-0.000563634
-0.00192918
0.0988979
0.000159288
-0.172508
-0.000223837
-0.00416533
-0.00527363
-0.11851
-0.0101209
-0.146782
-3.31868e-05
-3.68573e-05
-0.00914954
0.0062739
0.000185143
-0.173731
0.0723267
-0.0473709
1.94929e-05
-0.193532
-0.000283488
-0.205394
-0.0220764
-0.228049
-0.22837
-0.219592
-0.177347
-0.0876959
-0.0517124
-0.018399
0.0153747
0.0491971
0.145442
0.176514
0.205134
0.2531
-0.00463644
-0.00709696
0.0473799
-0.0260095
0.000243049
0.00353556
-0.0367814
-0.000191548
-0.00125852
-1.62934e-06
-0.0133065
0.0122013
4.30231e-07
-0.000723196
-0.00597741
-0.0170102
-0.228961
-0.0208988
-0.052984
-0.000138274
2.74366e-05
-1.03297e-05
-0.0759834
-0.00830457
-0.0361038
-0.0173245
0.000720419
-0.000196559
0.00264975
-8.637e-06
-0.0275301
-0.000130603
9.46493e-05
-0.0116003
-0.00671285
-0.00103299
7.93782e-05
0.0393441