/*--------------------------------*- C++ -*----------------------------------*\
  =========                 |
  \\      /  F ield         | OpenFOAM: The Open Source CFD Toolbox
   \\    /   O peration     | Website:  https://openfoam.org
    \\  /    A nd           | Version:  7
     \\/     M anipulation  |
\*---------------------------------------------------------------------------*/
FoamFile
{
    version     2.0;
    format      ascii;
    class       volVectorField;
    location    "31";
    object      U;
}
// * * * * * * * * * * * * * * * * * * * * * * * * * * * * * * * * * * * * * //

dimensions      [0 1 -1 0 0 0 0];

internalField   nonuniform List<vector> 
7807
(
(1.08354 0.145421 5.91571e-21)
(1.06488 -0.0444157 8.94404e-22)
(0.995118 0.119459 -1.28748e-20)
(1.03996 0.0760177 1.78415e-20)
(0.999052 -0.00117209 -3.30612e-23)
(0.999954 -1.06131e-05 -3.69785e-24)
(0.989925 0.0993583 -2.56932e-20)
(0.993817 -0.00225364 -6.64355e-24)
(0.999863 -0.000215764 -6.25593e-24)
(1.0268 0.00153656 -8.32632e-22)
(0.999957 -1.27676e-05 4.07826e-24)
(1.00258 -0.00144562 -1.32837e-22)
(0.990497 -0.00287575 3.34208e-22)
(1.02284 -0.00195854 -5.30268e-21)
(1.02595 0.00187431 3.52524e-21)
(0.990124 -0.0183697 -6.75574e-22)
(1.08634 0.151741 -1.24546e-20)
(0.987157 -0.00371894 -1.16183e-22)
(1.00293 -0.0112138 -4.02252e-23)
(0.987074 -0.121857 -5.89237e-22)
(1.03998 -0.00402776 -1.81342e-21)
(1.00171 -0.000881706 2.49552e-22)
(1.02089 -0.00364457 4.56251e-22)
(1.01165 0.0344098 -9.25459e-21)
(0.982793 -0.00471136 -5.27871e-22)
(1.07859 0.143813 -5.95584e-21)
(0.9991 -0.00111447 -2.32583e-23)
(1.02674 -0.00195195 2.10064e-21)
(1.00536 0.0164832 -1.18214e-21)
(1.00461 -0.0118773 3.27498e-23)
(0.984367 -0.0196286 -1.20382e-21)
(0.860341 0.043388 3.91663e-21)
(1.02069 -0.0044523 2.81109e-21)
(0.999454 -0.000467064 4.12446e-23)
(0.999881 -7.86607e-06 7.90461e-26)
(1.02691 0.000543615 1.23099e-21)
(1.00527 -0.0129798 4.03509e-23)
(0.994861 0.0966616 -4.10162e-21)
(0.995796 -0.00953239 5.52788e-22)
(0.999617 -6.90655e-05 3.9734e-23)
(0.996295 -0.00980148 -6.24875e-23)
(0.990237 -0.017224 -2.47917e-22)
(1.0223 -0.129014 2.71947e-21)
(1.17205 -0.0381245 4.03326e-22)
(0.999772 -1.44659e-05 1.28819e-23)
(0.999909 -1.83379e-05 -3.71975e-24)
(1.00163 -0.000715242 -1.52356e-22)
(0.995561 -0.0087278 -3.27773e-22)
(0.999923 -3.48118e-05 -3.00355e-24)
(0.992634 -0.121946 8.56317e-22)
(1.00377 -0.00126043 1.44141e-22)
(1.02643 -0.00114788 -2.18068e-21)
(0.977396 -0.00571188 -1.77894e-21)
(1.01483 -0.0356603 6.2174e-23)
(1.02747 -0.000140727 -7.27855e-22)
(0.994593 -0.00309682 -6.13661e-23)
(1.0028 -0.0104171 8.74747e-23)
(0.993772 -0.00195209 4.56095e-22)
(0.972829 -0.0241973 -2.14127e-21)
(0.999432 -0.000415777 -5.27899e-23)
(1.00005 -2.70931e-05 -5.50277e-24)
(1.00491 -0.00139112 1.61125e-22)
(1.02305 -0.0012593 -1.25063e-21)
(1.00279 -0.0012608 1.34471e-22)
(0.9989 -0.000225284 7.47681e-23)
(0.985131 -0.0203465 2.06262e-22)
(0.999891 -0.000215457 4.82144e-24)
(1.00002 -3.02694e-06 3.88848e-25)
(1.16196 0.0829918 2.47188e-21)
(0.995774 -0.00826832 -9.99724e-23)
(0.999915 -2.25183e-05 3.29783e-24)
(0.967245 -0.073433 -4.14687e-21)
(0.983559 -0.00522074 2.57897e-22)
(0.968386 -0.00725081 3.49942e-22)
(0.987745 -0.00410126 3.64414e-22)
(0.957422 -0.0357137 -4.65831e-22)
(0.99927 0.120944 2.07036e-20)
(1.03806 -0.00407541 2.30503e-21)
(1.09522 0.00458884 -4.08067e-21)
(0.945322 -0.0615693 -5.10788e-21)
(0.990958 -0.0031775 -5.12996e-22)
(0.999704 0.0612637 2.54765e-20)
(1.04494 0.00815315 5.39952e-21)
(0.96788 -0.0128376 1.61142e-21)
(0.998441 -0.00296064 -5.39909e-23)
(0.997413 -0.000378365 5.53449e-23)
(0.993404 -0.00297414 6.28133e-22)
(0.978314 -0.00637762 1.14432e-21)
(0.999273 -0.00137962 3.54365e-23)
(0.99482 -0.00079838 1.96211e-22)
(1.00565 0.0187065 8.75944e-21)
(1.20396 -0.0169777 -6.42494e-22)
(0.999847 -6.292e-05 -7.79554e-24)
(1.00226 -0.00883652 3.6912e-23)
(0.995908 -0.00122171 1.77982e-22)
(0.967954 -0.00403192 -2.80304e-21)
(0.970276 -0.072728 3.0287e-22)
(1.01681 -0.0341825 9.02363e-23)
(0.998274 -0.0028565 1.77783e-23)
(0.998688 -0.00022633 2.48653e-23)
(0.937319 -0.0222127 1.19979e-21)
(1.09571 0.0101633 3.3928e-21)
(0.996142 -0.00138835 -4.43525e-22)
(0.99997 -1.53701e-06 -3.13816e-25)
(1.2059 -0.00397457 -5.53396e-22)
(1.03311 0.0348707 -8.3365e-21)
(0.930451 0.031108 4.44796e-21)
(0.994224 -0.00292817 -2.5562e-22)
(0.99999 -3.03088e-06 6.09315e-26)
(1.0295 -0.0152632 -9.53865e-22)
(1.04333 0.0722612 -2.07234e-20)
(1.03805 -0.0922674 -3.16641e-21)
(0.999988 -3.56241e-06 -1.03038e-25)
(1.03141 -0.0156178 -2.08415e-22)
(1.02953 0.0332173 8.7686e-21)
(1.0005 -0.000668251 -1.17011e-23)
(1.09488 -0.102315 -1.57079e-22)
(1.03346 0.0201143 -2.00958e-21)
(0.981689 -0.0569018 1.7785e-21)
(0.96802 -0.00881756 -3.66574e-22)
(0.932689 -0.014601 -2.88905e-21)
(1.00112 0.028968 -1.65924e-20)
(1.02997 -0.126182 -3.74171e-21)
(1.01141 -0.00915751 8.05631e-23)
(0.935145 -0.0166631 1.13904e-21)
(0.998934 -0.00160713 7.87805e-23)
(0.985714 -0.0148352 4.05388e-22)
(1.00346 -0.00989771 -5.9822e-23)
(0.99884 -0.000166534 -1.66735e-22)
(0.984431 -0.0180909 2.15246e-23)
(1.24475 -0.0296204 -5.53632e-22)
(1.08917 0.00176726 6.96465e-22)
(0.999321 -0.000637842 4.48652e-24)
(0.999147 -0.00141261 -6.88539e-23)
(0.966265 -0.0117733 4.79553e-22)
(1.04066 0.0650946 7.63131e-21)
(0.996383 0.0248442 2.98235e-20)
(0.999973 -2.82949e-06 -3.67203e-25)
(1.00844 -0.003648 6.75799e-23)
(0.906784 -0.0186389 -3.6209e-21)
(0.970452 -0.00522898 -1.4282e-21)
(0.989828 -0.0785168 -2.68511e-21)
(0.958185 -0.0384173 6.31814e-22)
(0.970233 -0.00651179 -3.10818e-23)
(0.923068 0.024318 1.74465e-20)
(1.01805 -0.0551578 -9.67235e-23)
(1.0118 0.0208048 -4.46014e-21)
(0.975906 -0.0287541 -1.12018e-21)
(0.955271 -0.00709218 3.94415e-22)
(1.0009 0.0459755 -8.24239e-21)
(1.02733 0.000985224 3.09932e-21)
(1.19026 -0.021759 2.16028e-22)
(0.998341 -0.00236557 -1.86809e-22)
(1.16774 0.0747845 3.38412e-22)
(1.0427 0.00759919 -5.61637e-21)
(1.00728 0.0999755 -2.06216e-20)
(0.950824 -0.0422493 1.94209e-21)
(0.990489 -0.00222037 1.13806e-22)
(0.94074 0.0820003 3.87243e-20)
(0.999929 -2.96798e-05 -2.81858e-24)
(1.00174 -0.00935575 -2.13382e-23)
(1.01172 0.0377646 6.67198e-21)
(0.999975 -2.29544e-05 1.75155e-24)
(0.998055 -0.00602837 -2.61463e-22)
(0.99537 -0.00118461 -8.52031e-23)
(1.00349 0.0385072 -2.18533e-21)
(1.00171 0.0264953 8.13606e-21)
(0.931977 0.0899367 1.28277e-20)
(0.997715 -0.00584065 -1.62284e-22)
(0.996431 -0.00044929 -9.70465e-23)
(1.00002 -3.8654e-06 -3.63568e-25)
(0.928303 -0.00891585 -4.9548e-21)
(1.00048 -0.00059687 1.61499e-23)
(1.06667 -0.0399003 -1.05315e-21)
(1.00882 -0.00392758 4.52371e-22)
(0.956412 -0.00839405 8.14723e-22)
(1.19465 0.00600099 -1.80314e-22)
(1.11426 0.0826572 2.06059e-22)
(0.999849 -7.78872e-05 4.2582e-24)
(0.999432 -0.000731508 -4.74077e-23)
(1.04148 0.0800896 -3.13747e-21)
(0.99993 -2.08639e-05 -1.37099e-24)
(0.999872 -1.4755e-05 2.0426e-24)
(0.990122 0.105319 -2.11899e-20)
(1.06778 -0.0481878 8.44694e-23)
(1.01938 -0.0793877 -1.73091e-21)
(0.984038 -0.0549481 -2.52326e-21)
(0.971363 -0.00936021 1.05189e-21)
(1.0145 -0.0571101 1.75082e-22)
(0.909146 -0.0157365 1.9086e-21)
(0.999973 -2.09454e-05 -6.26209e-25)
(0.970732 -0.0680011 -1.00058e-21)
(1.11692 0.0905072 -5.63752e-21)
(0.996126 -0.00169193 6.37228e-23)
(1.00009 -7.88244e-06 -4.00981e-24)
(1.08364 0.0865499 6.01814e-22)
(0.998578 -0.000459916 1.76233e-22)
(0.985442 -0.0173609 6.47896e-22)
(1.01076 -0.0542841 5.70701e-22)
(1.00002 -2.54859e-06 -1.55447e-25)
(1.00104 -0.00230399 -6.53783e-23)
(1.03671 0.0644423 9.47996e-21)
(1.10289 0.0971889 -7.54623e-21)
(1.00265 0.0890541 -2.77126e-21)
(1.08896 -0.0951891 1.40246e-21)
(1.04211 -0.087352 7.32679e-22)
(1.15449 -0.129244 -5.52898e-22)
(1.02715 -0.00202027 6.23513e-21)
(1.03386 0.0604757 -3.09167e-21)
(0.999756 -2.60353e-05 -1.50855e-23)
(1.00004 -2.42529e-05 1.46079e-24)
(0.948304 0.0128098 -1.71653e-20)
(0.991652 -0.0164401 -2.33474e-22)
(0.999293 -0.000567855 -4.44279e-23)
(0.973627 -0.0666696 2.04754e-21)
(0.985029 -0.0156734 -4.74681e-22)
(1.01745 0.0929799 -2.30336e-20)
(1.01358 0.0902887 -4.87975e-21)
(0.986555 -0.0808306 7.39819e-22)
(0.888283 0.0603954 -1.48162e-20)
(0.998682 -0.000520047 -1.2972e-22)
(0.987203 -0.0032144 4.16213e-22)
(0.934686 -0.0203192 1.57426e-21)
(1.03768 0.000956344 -1.30657e-21)
(1.03279 -0.160722 -3.70132e-22)
(1.1063 0.141979 -1.2329e-20)
(0.941065 0.0722212 -3.31596e-20)
(1.00007 -0.000126988 4.50465e-24)
(1.01136 -0.00841186 2.23241e-22)
(1.03112 0.0228615 1.08784e-20)
(0.995667 -0.007175 -4.17592e-22)
(1.03649 0.0205316 -1.37436e-21)
(0.9994 -0.00150117 -1.13862e-23)
(0.906786 0.101114 2.60263e-20)
(1.00784 0.0929825 4.54003e-21)
(0.993395 -0.00256903 3.9889e-22)
(1.00442 -0.00994131 -9.9786e-24)
(0.999642 -7.83064e-05 -7.38232e-23)
(1.14135 0.113234 2.81107e-21)
(0.99989 -1.23445e-05 6.06323e-24)
(0.994146 -0.0132357 2.00171e-22)
(0.920508 -0.0408877 2.18589e-21)
(0.999915 -3.07728e-05 -1.36732e-24)
(0.998573 -0.00345626 -4.50903e-23)
(0.999531 -0.00145697 2.08089e-23)
(1.07565 0.0539248 7.79457e-21)
(0.999976 -2.97325e-05 2.11332e-24)
(0.994598 -0.000614299 2.26945e-25)
(0.948405 -0.0609453 5.92143e-21)
(0.861899 0.0324787 -8.64992e-21)
(1.08847 -0.00367092 -9.41493e-22)
(0.920065 0.0686723 1.99796e-20)
(0.999946 -9.44277e-06 -3.41744e-24)
(1.00782 -0.0554285 -3.84413e-23)
(0.999785 -0.000372535 -1.67535e-23)
(1.00182 0.102266 -2.07491e-20)
(1.00459 -0.000946613 -2.07555e-22)
(0.994536 0.0355111 9.69223e-21)
(1.00353 -0.0119931 -1.66716e-22)
(1.00092 -0.00247707 6.95696e-23)
(1.03748 -0.0387793 -3.2444e-22)
(1.02703 -0.000987484 -5.77609e-21)
(1.00067 -0.000399583 3.37307e-23)
(0.999734 -6.46975e-05 3.91306e-25)
(1.00059 -0.000538515 7.56462e-23)
(0.995444 -0.00761802 -3.73991e-22)
(1.02853 -0.0815439 1.97374e-21)
(0.999949 -1.25817e-05 2.31057e-24)
(0.952862 -0.0403682 1.37321e-21)
(0.995609 -0.00135832 -1.61205e-23)
(0.999833 -5.43786e-05 8.27483e-24)
(0.999272 -0.00070635 1.44083e-23)
(0.98847 0.0632032 2.34486e-20)
(0.990441 -0.00103681 1.64189e-22)
(0.999105 -0.000125694 -1.50583e-23)
(0.895652 0.0145048 3.30775e-20)
(0.998389 -0.00332352 -1.02385e-22)
(1.06775 0.111662 -7.19282e-21)
(0.99976 -0.000344131 3.02389e-23)
(1.01051 -0.0268885 2.35924e-23)
(1.00002 -2.20799e-06 -1.3491e-25)
(0.980213 -0.0459836 -1.00256e-21)
(1.03703 0.000423923 2.0229e-21)
(1.19587 0.0165535 -1.03687e-22)
(0.973231 -0.0260331 1.81707e-21)
(0.999524 -0.000739426 5.47642e-23)
(0.983192 -0.103971 1.29464e-21)
(0.979703 -0.000618313 7.52367e-22)
(0.999787 -2.32001e-05 8.02543e-25)
(1.00057 -0.000471741 -6.69334e-23)
(0.997616 -0.00433883 1.40918e-22)
(0.990901 -0.00185552 -4.91972e-22)
(1.00353 -0.00113833 -2.46025e-22)
(0.998582 -0.00238051 6.76736e-23)
(0.969566 -0.0119573 2.53438e-22)
(1.03388 -0.0781798 -1.44728e-21)
(0.969685 -0.0100418 1.12137e-21)
(1.16359 -0.0298914 -8.28993e-23)
(0.959257 -0.0113346 -1.42338e-21)
(1.02015 0.117992 2.31054e-21)
(1.01568 0.120923 -1.69968e-20)
(0.998233 -0.000949573 -1.13097e-22)
(1.21958 0.0164265 -1.91302e-21)
(0.99998 -3.86119e-06 -2.04185e-25)
(0.997575 -0.00537308 -1.72386e-22)
(0.967076 -0.00281942 2.86325e-21)
(1.00868 0.0306509 5.53399e-21)
(1.04609 0.013611 -5.28486e-21)
(1.00012 -3.99528e-05 9.18061e-24)
(0.997728 -0.00506628 -1.13604e-23)
(0.960794 -0.0125188 1.07302e-21)
(1.05871 0.0469478 -3.1713e-21)
(0.998844 -0.00148055 5.87785e-23)
(1.004 -0.000923752 1.38928e-22)
(1.00147 -0.00121416 -1.23105e-23)
(1.14162 0.031886 3.36349e-21)
(1.24506 -0.0435464 -3.51432e-21)
(1.04267 0.140821 1.07297e-20)
(0.99812 -0.000307962 -1.09917e-22)
(1.07841 -0.0448962 -5.73158e-22)
(0.999866 -8.35679e-05 -6.79436e-24)
(1.00581 -0.00876834 -4.7606e-22)
(0.999936 -1.68161e-05 -9.71688e-25)
(0.982802 -0.0274554 3.21942e-22)
(0.999592 -9.26727e-05 -1.41356e-23)
(1.0159 -0.026136 1.10522e-22)
(1.24357 0.0210465 2.56641e-21)
(0.967622 -0.0373194 2.19322e-21)
(1.01193 -0.0260846 -4.40422e-23)
(1.01019 -0.00756874 -2.91269e-22)
(0.999139 -0.000163958 6.76065e-23)
(1.03236 -0.0200542 6.71537e-22)
(0.996765 -0.0237186 3.11864e-22)
(1.089 0.0151819 -2.05249e-21)
(1.07 0.0514795 3.57394e-21)
(1.21295 -0.133003 1.09589e-22)
(1.16962 -0.0491882 -1.53346e-21)
(0.978792 -0.00125291 -8.03745e-22)
(1.00604 -0.00437317 4.43465e-22)
(0.923679 -0.0386228 -8.42213e-22)
(0.922524 0.0890276 -4.00547e-20)
(1.14767 -0.0524421 1.39428e-21)
(1.0322 -0.0119299 -2.65767e-21)
(0.898208 0.0653237 -2.00725e-20)
(0.998184 -0.000234519 5.43542e-23)
(0.997931 -0.00117178 -3.48769e-23)
(1.18753 -0.033445 -1.44581e-21)
(0.99876 -0.00257843 -3.61022e-23)
(1.01807 -0.0512476 1.48068e-22)
(1.0069 -0.0021137 1.55168e-22)
(0.996608 -0.000523752 -8.64534e-23)
(0.997522 -0.000436942 -1.36278e-22)
(1.03701 0.0295052 6.36936e-21)
(0.999921 -0.000184303 -5.26573e-25)
(1.00064 -0.000326877 -3.00131e-23)
(1.0001 -1.6032e-05 6.86805e-24)
(0.99583 -0.000824322 4.57774e-22)
(0.992621 -0.0116635 5.20363e-22)
(0.999979 -2.90309e-06 1.55023e-25)
(0.9987 -0.000308149 1.3981e-23)
(0.974162 -0.0228815 6.38057e-22)
(0.946868 0.0191133 1.07265e-20)
(1.01425 -0.0272925 -1.62657e-23)
(0.991691 -0.0154121 8.39818e-22)
(0.960229 0.0707592 4.59089e-21)
(1.00089 0.0278813 1.47377e-20)
(1.07754 0.00255709 -1.66464e-21)
(1.20992 0.0219544 5.0448e-22)
(0.926383 -0.00658573 2.70018e-21)
(1.006 -0.00506288 -2.19382e-22)
(1.01014 0.0504612 -8.13718e-22)
(0.986072 -0.00285099 -9.94428e-22)
(1.04667 0.111213 2.99692e-22)
(1.01439 -0.061408 1.95784e-23)
(1.05887 -0.139178 -1.34247e-21)
(1.09763 0.0935235 4.68843e-21)
(1.04959 0.117292 -9.46256e-21)
(0.954504 -0.0347603 3.03468e-21)
(1.04726 0.0113025 -3.41069e-21)
(1.11182 0.146833 1.15203e-20)
(1.0613 0.112295 1.36548e-20)
(1.0283 -0.0022456 1.9625e-21)
(0.996373 -0.00182527 1.00159e-22)
(0.994946 -0.002836 8.73859e-23)
(0.999894 -3.00793e-05 -3.21033e-24)
(1.02189 -0.0334173 9.28082e-23)
(0.985662 -0.00239281 2.3379e-22)
(1.00124 -0.00288455 -5.72255e-23)
(0.999872 -3.01738e-05 -6.01878e-24)
(0.998082 -0.000868436 4.41834e-23)
(0.979403 -0.102851 -2.14205e-21)
(1.12299 0.0438735 1.77606e-21)
(0.978186 -0.00786431 -1.28494e-21)
(0.999539 -0.0154268 3.41159e-22)
(0.995399 -0.000908725 -2.45996e-22)
(1.07524 -0.0483638 -7.74375e-24)
(0.991316 -0.00194394 -7.88284e-22)
(1.00307 -0.00897972 1.76909e-22)
(1.12524 0.139753 1.85218e-21)
(0.997787 -0.000415686 -3.16208e-22)
(0.999974 -5.68634e-05 -1.47824e-24)
(0.999937 -0.000222499 -8.50898e-25)
(1.00006 -0.000129917 5.88376e-24)
(0.972727 -0.0103946 5.90509e-22)
(1.03518 0.027049 -7.53892e-21)
(0.995114 -0.000692566 9.71672e-24)
(1.02743 -0.0105679 1.72095e-21)
(1.04385 -0.166047 2.7027e-21)
(0.996139 0.0907674 -4.47776e-22)
(1.00494 -0.00898494 1.5727e-22)
(1.00797 -0.00559309 -7.26338e-23)
(0.993825 -0.00319398 -3.17191e-22)
(0.993221 0.0625065 -2.29369e-20)
(0.998741 -0.000162325 4.5187e-23)
(1.04687 0.145126 -5.42047e-21)
(1.00915 0.0214685 -8.61206e-21)
(0.99986 -3.70271e-05 7.0413e-24)
(1.01186 -0.0626975 -1.02732e-21)
(0.995978 -0.000953466 -2.26193e-22)
(0.994476 -0.0792433 3.28493e-21)
(1.00067 -0.000175755 3.00547e-23)
(1.07203 0.00535356 2.35978e-21)
(1.00928 -0.0196066 -5.71182e-24)
(1.00747 -0.00509201 3.78057e-23)
(0.998986 -0.000198976 -8.99276e-23)
(1.08106 0.0510677 3.76176e-21)
(1.05371 0.0450664 1.23468e-21)
(1.01718 -0.0831338 1.70555e-21)
(0.975386 -0.0266499 -1.21904e-22)
(0.997484 -0.00463519 -1.21668e-22)
(1.00357 -0.0506384 -1.87831e-21)
(1.1627 0.0644946 -3.07005e-21)
(0.868607 0.0502879 -1.89647e-20)
(1.1099 -0.085384 -1.46626e-21)
(1.00642 -0.00946251 -7.27513e-23)
(0.999992 -4.01066e-06 -4.40358e-26)
(0.983496 -0.00635352 -1.03039e-21)
(0.997281 -0.000478096 2.94578e-22)
(1.03089 -0.0204102 9.74848e-22)
(1.01884 -0.135874 -1.11354e-21)
(1.21934 0.00231557 9.43013e-22)
(0.985103 0.0857278 -2.81996e-20)
(1.06315 0.0434357 5.20392e-21)
(1.15472 -0.11552 2.41411e-21)
(1.08365 0.0936717 2.00348e-21)
(0.999552 0.0298478 2.71248e-20)
(1.02266 -0.0028309 1.4386e-21)
(1.00148 -0.00279102 1.31584e-22)
(1.02831 0.0685211 4.78921e-21)
(0.998996 -0.00251142 8.04096e-23)
(0.999782 -0.000206517 6.65969e-24)
(0.977037 -0.00262315 3.59162e-22)
(1.00011 -3.93776e-05 1.72261e-24)
(1.16679 -0.137158 1.38659e-21)
(1.00563 -0.0219153 -6.59177e-23)
(0.982914 -0.0451013 1.68294e-21)
(1.00227 -0.00190356 6.76972e-23)
(1.07742 0.0831422 1.08123e-20)
(0.997884 -0.000394842 -2.60692e-23)
(0.99997 -4.55078e-05 -1.48185e-25)
(1.05105 -0.146497 1.47403e-21)
(1.00201 -0.00164916 -3.96699e-23)
(1.1234 -0.00116253 -4.91244e-22)
(0.940671 -0.0207715 5.60081e-22)
(0.91176 -0.0256049 2.8221e-22)
(1.22066 0.0675916 -5.14038e-23)
(1.02823 0.0218494 -2.84008e-21)
(1.02413 0.00647953 1.74914e-21)
(1.02258 0.00609682 -7.00066e-22)
(0.999755 -5.33003e-05 2.35402e-24)
(1.13178 0.0432608 1.34588e-21)
(1.08937 0.0199174 2.38611e-21)
(0.999386 -0.000795132 2.10781e-23)
(0.979217 -0.00852814 1.49283e-21)
(1.00073 -0.000252368 -3.34508e-23)
(1.01568 -0.0239841 -6.96622e-22)
(1.01256 -0.034731 -4.85252e-23)
(1.00535 -0.0016478 1.07878e-24)
(0.9991 -0.00158301 -9.55783e-23)
(1.13967 0.104774 -8.62946e-21)
(0.999974 -2.72328e-05 -2.4525e-24)
(1.00025 -0.000135091 -8.86661e-24)
(1.00238 -0.00129406 -2.9088e-24)
(0.971465 -0.00450845 9.93933e-22)
(1.02319 -0.0128883 1.21263e-21)
(0.98134 -0.0380286 -2.38069e-21)
(0.964488 -0.00707567 -5.80668e-22)
(1.02358 -0.077988 9.69661e-22)
(1.06986 -0.174436 -2.91716e-21)
(1.03498 -0.0356219 2.43848e-22)
(1.03296 0.0692398 -2.72814e-20)
(1.23322 0.0267242 -1.85027e-21)
(0.99199 -0.00327392 -4.09009e-23)
(0.901596 0.0946398 3.1072e-20)
(0.973932 -0.0751581 3.57608e-21)
(0.992256 -0.0123911 1.62976e-22)
(0.965439 -0.00585776 9.52992e-22)
(0.998133 -0.0228303 -9.08083e-23)
(0.973316 -0.00326659 1.52198e-21)
(0.987684 -0.0050026 -3.00438e-22)
(1.03271 -0.0140412 -1.83436e-21)
(1.15758 -0.0558788 -3.33645e-22)
(0.999969 -5.30131e-05 -2.09584e-25)
(1.02822 -0.0139132 -2.04588e-22)
(0.999884 -3.68941e-05 -3.42165e-24)
(1.01226 0.102931 5.52603e-21)
(1.16366 0.0898021 5.68695e-21)
(0.994192 -0.00243662 1.004e-22)
(0.982361 -0.00227354 -1.36987e-21)
(0.999776 -6.59645e-05 -1.72423e-23)
(0.998823 0.0550595 1.70428e-20)
(1.03564 0.116205 1.26476e-20)
(1.13479 0.033991 -1.78527e-21)
(1.14693 0.132595 -7.05118e-21)
(0.974323 -0.0798093 -1.54936e-21)
(0.998594 0.00891716 -2.58122e-20)
(0.999926 -0.000163115 3.20632e-24)
(1.05891 -0.0288971 2.10256e-21)
(0.976548 -0.00200173 -5.54199e-23)
(1.10569 0.08003 -2.16918e-21)
(0.930933 0.0654681 -2.43312e-20)
(1.16706 0.0569348 3.4031e-21)
(1.05689 0.0360435 8.71157e-22)
(1.00037 -0.0152497 -5.57896e-23)
(0.999759 -0.000102792 -1.5785e-23)
(1.14929 0.116519 2.91772e-21)
(1.23046 -0.0222039 5.27476e-22)
(0.996036 0.0658486 -5.29213e-22)
(1.11522 -0.00300309 3.24485e-21)
(1.03576 0.0561221 8.04277e-21)
(0.991496 -0.0029283 -1.40432e-22)
(0.99222 0.0859429 7.64476e-21)
(1.03999 0.110586 4.44647e-21)
(0.989094 -0.00421197 -8.41771e-22)
(0.990929 -0.0039055 -3.1262e-22)
(1.16074 0.105645 1.01076e-22)
(0.90809 -0.0237776 -3.83945e-21)
(0.9999 -0.000189342 -4.99363e-24)
(0.984325 -0.00685218 1.32577e-21)
(0.91607 -0.0332469 2.82501e-21)
(0.993206 -0.0990541 -4.53374e-22)
(1.01146 -0.0028573 -1.25134e-21)
(1.01017 -0.00686903 7.99807e-23)
(0.999852 -0.000235757 -9.37424e-24)
(1.03806 0.122335 -1.90142e-20)
(1.00075 -0.0138324 8.98423e-24)
(0.999877 -7.27208e-05 3.03031e-24)
(1.03285 -0.0715296 1.09633e-21)
(0.999414 -0.000522824 1.87386e-23)
(0.999734 -9.18847e-05 1.19699e-24)
(1.00672 -0.0145082 -8.32793e-23)
(1.0648 0.0831866 1.48559e-20)
(1.03822 -0.131615 2.01174e-21)
(0.950662 0.0662044 1.42509e-20)
(1.00008 -1.18419e-05 -4.81727e-24)
(1.07073 0.0871708 -1.54695e-20)
(1.02249 -0.0619538 8.24278e-22)
(0.99991 -0.000232272 -1.4161e-24)
(1.00003 -7.57125e-06 -1.54422e-24)
(1.00286 0.0119477 -1.41995e-21)
(1.05986 0.0721232 5.56806e-21)
(0.995308 -0.00298977 8.69742e-23)
(1.05484 0.0564702 -7.24458e-21)
(1.00003 -2.44513e-05 1.10567e-24)
(1.05498 0.0625123 -1.00115e-20)
(1.19697 -0.138293 3.33594e-21)
(0.988487 -0.00378075 9.26172e-22)
(0.999271 0.0142994 -3.50845e-20)
(0.973722 -0.0626129 2.37062e-21)
(1.15119 0.126026 6.83706e-21)
(0.967098 -0.00582863 5.84035e-22)
(1.06017 0.065833 1.30482e-20)
(1.06537 0.0757646 -4.0309e-21)
(0.980334 -0.0105053 2.15598e-21)
(0.974039 -0.0129987 -1.5879e-21)
(0.994294 -0.0123021 4.86352e-22)
(0.996662 -0.000891393 -7.4304e-23)
(0.999764 -0.000229594 1.81153e-23)
(1.00046 -0.0132546 -1.64771e-23)
(1.05076 0.104939 -2.25379e-21)
(0.999966 -4.1612e-05 6.31554e-25)
(1.04977 0.053956 9.58158e-21)
(1.05598 -0.128707 3.16822e-21)
(1.00737 0.0690237 6.64519e-21)
(1.0494 0.048741 -1.09156e-20)
(0.912342 -0.0312317 -3.45444e-22)
(0.957729 0.0846304 -2.97738e-20)
(0.998159 -0.00139839 6.31417e-24)
(1.02127 -0.0306899 2.92255e-22)
(1.07361 -0.0887977 7.94796e-22)
(0.974508 -0.00307112 -9.34692e-23)
(0.99248 -0.00411201 4.16525e-22)
(1.01929 -0.0639998 -7.34898e-22)
(1.06609 -0.0184531 -2.17239e-22)
(0.909942 0.0591686 3.81745e-20)
(1.00005 -2.29772e-05 5.25083e-24)
(0.997823 -0.00149245 8.46412e-23)
(1.03212 -0.0921427 5.24732e-23)
(1.00002 -6.08733e-06 1.93743e-25)
(1.01301 0.109532 2.71722e-21)
(1.00204 -0.00142749 0)
(1.00002 -8.0966e-06 1.48506e-25)
(1.00023 -0.000104986 2.08353e-23)
(1.00047 -0.000146313 4.17269e-25)
(0.983106 -0.0256668 1.60461e-21)
(1.02802 -0.0192815 -7.00824e-22)
(0.998242 -0.00109124 1.33259e-22)
(0.999899 -2.09645e-05 6.36089e-24)
(0.991972 -0.00385697 2.31467e-22)
(1.00597 -0.0151384 -5.98709e-23)
(1.0056 -0.146698 -3.04321e-21)
(0.919824 -0.0104846 2.73214e-22)
(1.02229 -0.0115144 2.12613e-21)
(0.999968 -3.33842e-06 1.95592e-24)
(1.14665 -0.171027 4.13746e-21)
(0.984554 -0.00477486 -5.3124e-22)
(1.14671 0.0969381 -4.61258e-22)
(1.00028 0.0113714 -4.84402e-21)
(1.00153 -0.00420383 3.06239e-23)
(1.13358 0.0855231 -8.1301e-21)
(1.00018 -0.000113484 -3.33441e-27)
(0.985321 -0.00534637 1.55277e-23)
(1.02717 0.00102468 -3.55831e-21)
(0.992526 -0.00467927 -1.70576e-22)
(1.06677 0.098073 -8.9185e-22)
(0.985269 -0.00835033 -1.00137e-21)
(1.06032 -0.0256653 -1.83752e-21)
(1.02755 0.00180419 -3.82319e-21)
(1.0691 0.0457179 -2.20537e-21)
(1.00955 -0.0179678 -3.25456e-22)
(0.988335 -0.00538378 2.49673e-23)
(1.09077 0.0822389 6.63378e-21)
(0.985507 -0.109799 -2.59152e-21)
(1.0006 0.108157 2.27883e-20)
(0.989739 -0.0060746 -9.74647e-22)
(1.07095 0.124786 -1.4746e-22)
(0.989699 -0.00532578 2.60358e-22)
(0.998689 -0.000626345 -8.674e-24)
(1.05638 0.03231 2.45181e-21)
(1.01989 -0.0352748 -3.81251e-23)
(1.04183 0.00429576 5.29448e-21)
(1.00211 -0.000995349 4.41346e-23)
(1.00002 -6.39919e-06 6.91908e-26)
(1.02479 -0.165154 1.13315e-21)
(1.12317 0.133075 -1.01366e-20)
(1.00181 -0.00407759 -4.2338e-23)
(1.14327 0.0874937 7.5751e-22)
(0.986094 -0.0077727 -6.55356e-22)
(1.13696 -0.18127 -1.63154e-21)
(1.05889 -0.0454367 -2.74941e-23)
(0.981039 -0.0404764 1.33928e-21)
(0.998109 -0.00121917 -5.63443e-23)
(0.989965 -0.00134308 -1.97383e-22)
(0.975357 -0.0947585 -1.49111e-21)
(0.964442 -0.0126367 2.18684e-21)
(0.989048 -0.00497153 6.88698e-22)
(0.999835 -0.000532874 7.96569e-24)
(0.993111 0.11401 -2.81008e-21)
(1.13028 0.0766939 4.92411e-21)
(1.02897 -0.011674 -6.59648e-22)
(0.999773 -0.000178731 1.21289e-23)
(1.03732 0.104588 -8.56854e-21)
(1.00001 -2.92164e-05 3.07414e-25)
(0.999791 -0.000159368 2.4016e-23)
(1.12101 0.0751534 4.33432e-21)
(1.01416 -0.0297639 1.72546e-22)
(1.13256 0.120528 8.24959e-21)
(1.02721 -0.0029144 1.48465e-21)
(1.02046 -0.0145156 -1.43248e-22)
(1.11899 -0.068194 7.94736e-22)
(1.08793 -0.155664 3.2336e-21)
(1.22121 0.0592624 -1.65579e-22)
(1.00148 -0.00102153 -9.69782e-23)
(0.943233 -0.0225927 -2.16799e-22)
(0.999979 -6.96394e-05 -4.33877e-25)
(1.00628 -0.0131896 5.94209e-23)
(1.07101 0.0937694 5.52497e-21)
(0.98141 -0.00981664 1.50519e-21)
(0.996851 -0.00178374 1.17429e-22)
(1.02152 -0.0491612 -4.36564e-22)
(0.997785 -0.00131718 8.07654e-24)
(0.99956 -0.00131087 2.46241e-23)
(0.902183 0.013776 6.81242e-21)
(0.989112 -0.00654673 -5.51671e-22)
(0.999387 -0.000867919 -7.29184e-23)
(0.99998 -7.41262e-07 -4.04059e-25)
(1.01904 0.00756443 7.62779e-21)
(0.96847 -0.0348498 -3.31538e-22)
(0.999634 -0.000654944 2.17868e-23)
(0.996855 -0.00103731 1.51455e-22)
(1.02583 0.0241557 3.11253e-21)
(1.07726 0.0145365 5.53218e-22)
(0.954109 -0.0317463 -1.88453e-21)
(1 -1.85764e-05 1.45905e-25)
(1.00115 0.0115759 2.05653e-20)
(0.984509 -0.0222341 -1.09124e-21)
(1.07727 0.0760603 -1.08603e-20)
(1.01477 -0.00141146 -1.89478e-21)
(1.01704 -0.00142903 4.32163e-21)
(0.962361 -0.0157942 2.97883e-21)
(0.999891 -7.71361e-05 -1.98194e-24)
(1.02684 0.000469822 -6.96195e-22)
(1.08295 0.0118479 -7.5744e-22)
(1.19807 0.0638983 1.99159e-21)
(1.06284 -0.121138 6.56545e-22)
(1.04727 0.0991625 6.73854e-21)
(1.00658 -0.00196597 -3.06703e-23)
(1.09802 0.0861945 -9.11453e-21)
(1.00063 -0.0178286 -9.61936e-23)
(1.02761 -0.0692248 -1.98231e-21)
(0.999557 -0.000197155 -2.36611e-23)
(1.00495 -0.0234406 1.27697e-22)
(0.999885 -0.00051074 2.95267e-24)
(1.05239 0.0393113 -7.25263e-21)
(1.09101 0.13354 -1.91893e-20)
(0.998336 -0.00143837 4.48189e-23)
(1.02216 -0.014579 3.56418e-23)
(0.979541 -0.00592984 5.18289e-22)
(1.06508 -0.104282 2.76911e-22)
(1.0593 -0.11202 -1.58654e-21)
(0.997895 -0.00104033 8.88995e-23)
(1.05506 -0.0299155 -7.18319e-22)
(0.910874 0.00403416 -1.15073e-20)
(1.19477 0.0444751 1.14439e-21)
(0.99994 -0.000197981 6.91137e-24)
(1.07213 0.0112241 -1.98712e-21)
(0.996945 -0.0111189 -2.36564e-22)
(0.995269 0.00232726 2.44827e-20)
(0.986067 -0.00679963 9.11339e-22)
(0.996828 -0.0333586 -2.95162e-22)
(1.02404 -0.0431333 -3.33293e-23)
(0.995218 -0.0346144 -4.59829e-23)
(0.999505 -0.0263565 -6.5713e-22)
(0.991433 -0.0041847 1.59605e-22)
(0.99955 -0.0177197 3.52422e-22)
(1.00242 -0.0076026 -4.80717e-23)
(1.06806 -0.0225804 5.01419e-22)
(1.00012 -2.95509e-05 -1.337e-23)
(1.23399 -0.0903992 -1.30006e-21)
(1.18117 0.000582993 -3.44229e-23)
(1.02499 0.119747 1.56126e-20)
(0.956491 -0.0299465 2.85633e-21)
(1.12338 0.116128 -4.21373e-21)
(1.00224 -0.000773978 1.5697e-22)
(1.0923 -0.0849002 -3.20107e-23)
(1.00875 -0.0476312 -7.04157e-22)
(1.02231 0.0417546 8.98032e-21)
(0.992052 -0.0050602 3.95589e-22)
(1.00013 -0.000218571 8.82668e-24)
(0.985429 -0.0231118 1.42294e-21)
(0.995294 -0.0119414 -1.844e-22)
(1.05138 -0.0272744 1.54914e-21)
(0.966354 -0.00964623 -1.84987e-21)
(0.972601 -0.0121599 5.24198e-22)
(1.15028 -0.0318916 9.51807e-23)
(0.982807 -0.00383082 -9.01145e-22)
(1.02112 -0.045436 2.74812e-22)
(0.995997 -0.104721 1.858e-21)
(1.00001 -9.72598e-06 1.26321e-25)
(1.06917 -0.0136654 2.84209e-21)
(0.996925 -0.0936384 -4.91008e-21)
(1.12936 0.101471 3.9085e-21)
(1.12046 -0.0764731 -1.56254e-21)
(1.04006 0.00369393 4.4825e-22)
(1.04616 -0.125695 -4.07344e-21)
(1.04813 0.129903 4.12984e-21)
(1.04442 -0.0409643 4.54968e-22)
(0.960589 -0.014629 -1.76298e-21)
(1.02213 -0.0574821 -9.38809e-22)
(0.959669 0.00576699 1.09275e-20)
(1.19464 -0.100499 7.73134e-22)
(0.985255 -0.00633298 -2.76991e-22)
(1.05342 -0.158119 -3.18701e-22)
(1.03949 -0.0803685 1.33988e-21)
(1.07014 -0.142018 -6.08217e-22)
(1.06096 -0.096272 -1.59669e-21)
(1.09011 0.0749357 8.445e-21)
(0.996883 -0.00204984 7.74978e-24)
(1.00867 0.0475976 3.35543e-21)
(1.00884 -0.00186961 2.24734e-22)
(0.999561 -0.000662549 -3.12593e-23)
(0.998689 -0.00285835 2.21639e-22)
(1.06746 0.00347954 -7.10946e-22)
(0.859947 0.00484874 3.3108e-22)
(1.00202 -0.00813763 2.4999e-23)
(1.0271 -0.0641555 2.84571e-22)
(1.02602 0.0276267 -5.16886e-21)
(1.00003 -8.88639e-06 -2.67163e-25)
(0.975395 -0.0121899 1.26633e-21)
(1.02589 -0.0109383 1.52778e-21)
(1.09145 -0.0432429 4.8653e-22)
(1.00898 -0.000951897 1.26088e-21)
(0.998226 -0.00255224 4.05306e-23)
(0.983366 -0.0513607 2.73559e-23)
(0.99773 -0.0106664 -6.96003e-23)
(1.00004 -7.15228e-06 2.89625e-24)
(0.976442 -0.0611344 -3.9978e-21)
(1.05697 0.0922499 -2.38125e-21)
(1.02573 -0.0373663 1.44351e-22)
(0.980496 -0.00669933 -9.69473e-22)
(1.00204 -0.000522189 -5.63436e-23)
(1.02944 0.0296181 6.80994e-21)
(0.999572 -0.000804705 -1.43948e-23)
(0.9986 -0.000821181 -4.49664e-24)
(0.999596 -0.000215654 -2.15775e-23)
(0.999189 -0.00268864 -5.54727e-23)
(1.18466 0.0647574 2.04441e-21)
(1.03654 -0.0417759 4.07486e-22)
(1.01038 -0.0226743 9.65343e-23)
(0.979186 -0.00989687 -4.42668e-22)
(1.00005 -6.4335e-05 2.76194e-24)
(1.10976 -0.14449 4.33913e-21)
(1.23068 -0.00502967 8.30269e-23)
(1.11912 -0.155055 -2.09161e-21)
(0.998873 -0.0424138 -5.53497e-22)
(1.01608 -0.0109033 1.42812e-21)
(0.99976 -0.000125653 9.96544e-24)
(0.987112 -0.015044 -5.703e-22)
(0.951793 -0.0642663 -2.32017e-21)
(1.18338 0.0462133 3.74969e-22)
(1.00576 0.0669359 -2.39901e-22)
(0.998738 -0.00404623 4.47387e-23)
(0.932322 -0.0461547 1.2916e-21)
(0.994659 -0.00354754 -3.78774e-22)
(1.04168 -0.0378531 -4.68026e-23)
(1.10367 0.0718534 8.43141e-22)
(1.0005 -0.000168133 -4.71511e-23)
(0.999822 -0.000271424 -3.68461e-24)
(1.15854 0.112445 7.6559e-22)
(1.17892 0.026081 -2.28478e-23)
(1.02151 -0.0181566 5.17864e-22)
(0.996669 -0.00223604 1.99947e-22)
(0.997629 -0.000593313 -1.97887e-23)
(0.961088 -0.0647395 5.67827e-22)
(0.999805 -0.00044595 -1.21633e-23)
(1.02327 -0.0396779 6.71183e-23)
(0.98441 -0.00188235 1.8567e-21)
(1.00042 0.0134329 -4.02066e-21)
(1.0614 0.0980064 -1.23716e-21)
(1.08531 -0.0787934 6.10737e-22)
(1.00217 -0.0936732 1.81634e-21)
(1.00735 -0.00172554 6.24973e-22)
(1.01856 -0.0296852 -4.1372e-22)
(1.17093 0.00763003 8.61415e-22)
(1.00278 -0.104541 -1.14191e-21)
(1.02559 -0.0549853 5.28383e-22)
(0.999998 -9.42829e-06 3.85945e-26)
(1.15755 -0.00969301 1.59795e-22)
(0.969076 -0.00392065 1.75599e-22)
(1.00309 -0.116527 2.27732e-21)
(1.02481 -0.0343249 -5.80669e-22)
(0.946041 -0.021339 -3.94852e-22)
(0.999547 -0.00037788 -1.0545e-23)
(0.996612 -0.00167182 -8.92293e-23)
(1.04472 0.0464759 8.43019e-21)
(0.96436 -0.0147461 -6.69502e-22)
(0.999983 -2.705e-06 4.25843e-25)
(0.996736 -0.000693115 -2.09296e-22)
(1.18872 -0.0845277 -4.80671e-21)
(0.999811 -6.52701e-05 2.52366e-23)
(1.03064 -0.0613086 -1.71991e-22)
(0.999944 -0.000157462 -5.2903e-25)
(1.00828 -0.0168539 -1.82478e-24)