/*--------------------------------*- C++ -*----------------------------------*\
  =========                 |
  \\      /  F ield         | OpenFOAM: The Open Source CFD Toolbox
   \\    /   O peration     | Website:  https://openfoam.org
    \\  /    A nd           | Version:  7
     \\/     M anipulation  |
\*---------------------------------------------------------------------------*/
FoamFile
{
    version     2.0;
    format      ascii;
    class       volScalarField;
    location    "37";
    object      p;
}
// * * * * * * * * * * * * * * * * * * * * * * * * * * * * * * * * * * * * * //

dimensions      [0 2 -2 0 0 0 0];

internalField   nonuniform List<scalar> 
115546
(
-0.00933513
-2.94622e-06
-0.0107813
-0.00257713
0.00110932
-0.000543954
0.271867
-0.0427644
-0.000121843
-3.21268e-06
-0.000142815
0.000197188
-0.00121942
-0.0415541
-0.000123375
-0.0405151
-6.48742e-06
-0.000193521
0.324595
0.00114899
-0.0447542
-0.00374593
-0.000222544
-0.00414273
0.445406
0.0452002
-0.107402
0.0171442
1.15159e-05
0.311016
-6.96689e-05
0.0724323
0.00369009
-0.0102412
0.451119
-0.00116299
0.270535
-4.368e-06
-0.205914
0.183197
0.0727922
-0.000196314
-0.0146478
-0.00116634
-0.0363834
-0.0417235
0.00172005
0.00436717
-0.000532474
0.000187297
1.75521e-06
-0.0022049
0.0820245
-1.58833e-06
-0.00216133
0.0832448
0.0666155
-0.0309497
-0.0355832
-0.00952264
8.04827e-06
-0.00428229
-0.000459759
-0.0134789
-2.34926e-05
0.000786972
-0.00100803
0.0475059
-0.11227
0.0607052
0.197181
0.018519
0.180558
-0.0276001
-0.021071
-0.0201331
-0.0266669
-0.000519616
0.305308
0.0185045
0.0193531
-2.60083e-05
-0.0708697
0.0168499
-0.00218518
0.000192478
-0.0145077
2.5654e-06
-0.0208047
1.16468e-05
-0.141058
-0.00819545
1.10041e-05
-0.000866762
-0.000245998
0.000345623
-0.000220194
-0.0712009
-0.0984174
-0.0207583
7.55705e-06
0.0213227
-0.000277005
0.00199174
0.19779
-0.0403499
0.198727
-0.0409452
-0.0117763
2.05018e-05
0.012045
-0.000218256
-0.0248385
-0.00740689
0.56645
-0.00233569
-0.000143035
0.176681
4.6099e-05
0.0167018
0.178982
-0.0422465
-0.0107143
-0.0189441
-4.07736e-07
0.309005
-0.00419912
0.454756
-0.00105201
0.0359855
-0.0153957
0.00026098
0.15326
0.00019223
4.60361e-05
0.329177
0.427008
0.00353781
-0.00206832
-0.00423899
0.153636
-0.00175685
8.83098e-05
0.0856648
-0.0141673
2.23305e-06
0.00569051
-0.00428216
0.0484139
0.00059649
-0.0398729
-0.0376691
-0.00812836
-4.8403e-07
-0.00215946
0.00538638
2.16269e-05
-0.0051178
-0.0190636
-0.0586662
-0.0197326
0.00565145
-0.000450467
-0.026452
-0.00781547
-0.000509712
0.0233012
-0.016277
-0.00557942
-0.00846844
-0.00909711
0.0019326
-0.183907
-0.0420176
-0.0230572
0.0454888
-0.0420551
-0.00152568
0.00257403
-0.000521063
0.010169
-0.0208594
0.337174
0.0881269
0.199698
-0.000150425
-0.00273252
0.110978
0.0116215
-0.138735
-0.00150745
-0.00158956
0.349679
-0.018428
0.0473445
-0.0528245
-0.0421512
-0.00731808
-0.0194551
-0.0115741
0.0957476
0.275019
0.0123858
5.66361e-06
-0.00266278
-0.02349
-0.000375631
-2.18171e-05
0.0334403
-0.0278675
-0.0417265
0.196693
0.443317
1.25069e-05
-0.00921814
-0.0186721
0.0112732
0.00239579
-0.042157
-3.92977e-05
-0.0249609
-0.0166686
-0.0011373
-0.0193637
-1.67685e-06
0.389424
-0.00110175
-0.020382
-0.0520057
0.397624
0.0198423
-0.02793
0.166356
-0.0184802
-0.0170223
0.0965348
0.000391736
-0.000686847
-0.0179871
-0.00222296
-0.123368
-0.00818973
-0.0590743
-0.102026
-0.00111314
0.000534035
0.0600142
-0.0203294
-0.0159914
-0.0394412
0.358689
-0.000838641
0.0824391
-6.53088e-05
0.461397
0.010469
-0.0481844
0.0178883
0.000290175
-0.0443794
0.0106601
-0.0417828
0.0888281
-0.199765
-0.0122555
-0.00251398
-0.0161488
-0.00105285
-0.0141659
-0.0416656
-2.75069e-05
0.0123156
-0.000426861
-0.00807295
-0.000981393
-0.0151932
-0.0322428
-0.022789
-0.00293655
-0.0413607
-0.0271626
-0.00109836
6.25268e-05
-0.022681
0.000117765
0.00816263
0.38459
0.0771318
-0.0667985
-0.193838
-0.0325171
6.14909e-06
-0.0399867
0.193892
2.40704e-05
0.0141148
-0.000896374
0.0686011
-0.00016553
-0.0429314
-0.0420827
-0.0220091
-0.180377
-0.00494743
-0.028144
0.0273849
-0.0131951
-0.0200929
-0.169486
0.00270094
-0.00179218
0.192886
0.175923
-0.0179446
-0.00131588
-8.24285e-05
0.349902
0.000500979
-0.00399671
-0.0551045
-0.00932852
-3.47727e-05
0.0120039
0.563138
0.036554
-0.0190818
0.00563588
0.066006
-0.0426584
-0.0405854
-0.00179886
6.41805e-06
-0.000139605
-0.000872057
0.527329
-0.0024314
-0.00084851
-2.46603e-05
-0.000549175
-0.00271647
-0.0101588
0.0436985
-0.121493
-0.0131251
-0.00702033
0.00112086
-0.00310233
0.471259
-0.0232513
-0.0024759
0.152929
0.116846
0.0105913
-0.00192362
-0.0121298
-0.00248254
-0.00878837
1.78233e-06
-0.000360781
0.00294839
0.102289
-0.0310942
0.273129
0.530222
-0.0252524
1.89434e-06
-0.00987451
-0.0142099
-0.00103042
3.23959e-06
-0.0683842
0.049207
-0.0202781
-0.000315559
-0.00495031
0.00261179
-0.000254109
0.000183614
-0.000780735
0.00405717
-0.0280697
-0.0110566
-0.00737153
0.00255159
0.00827464
-6.33603e-05
0.162956
-0.0402361
0.00116622
-0.0341908
0.0707518
0.156819
-0.0147023
0.0172188
-0.0163897
-0.00119831
-0.169588
0.000474174
-0.000416421
-0.0135087
-0.0211471
-0.00126365
0.269912
0.174813
-0.188987
-0.0295776
4.65535e-05
-0.00506179
0.00857747
-0.0045984
-0.00763092
-0.00181766
0.00118053
-0.00232448
-0.00223596
-0.00283022
-0.000330582
-0.0989431
7.10986e-05
0.00816782
3.71003e-08
-0.0422058
0.000259598
0.297184
0.178485
0.125012
-0.029488
0.136924
0.0655026
-0.0013012
0.00125652
-4.54777e-05
-0.00300328
-0.0197814
-0.004913
-0.00523388
-0.00711775
0.000256334
-7.34708e-05
0.000179046
-0.000537762
0.036702
-0.0080836
-0.0139555
0.000109749
-0.0697565
0.000524248
-6.25977e-05
0.155084
0.0448252
0.212704
7.57967e-05
0.00014734
0.00128984
-0.0160043
-0.00413286
-0.0598002
-0.0200961
0.0911057
-0.0055753
0.270453
0.000548112
0.00111886
0.252039
0.188072
-0.0459467
0.00186521
-0.0416771
-0.00555947
7.6456e-05
0.00809341
-0.0400307
-0.0187075
-0.0279133
-0.0082556
0.0364348
2.31361e-07
0.00189976
0.0209478
0.0213264
0.313785
8.56726e-07
-2.37247e-05
0.00135145
-0.0188815
-0.000309307
2.33474e-05
-0.00606782
0.475339
-0.0423878
0.197723
-0.013283
0.371803
0.0913831
-0.0023123
-0.0697826
-0.0372216
-0.00714811
-0.000673786
-0.00299546
-0.00084674
0.31114
-0.0181145
0.265714
-0.0140446
0.123451
-0.0136929
-0.00992244
-0.120258
0.0992556
-0.00183768
-5.22389e-05
-0.000115805
-7.66003e-06
-0.00810825
-0.0361583
0.000253319
0.00765634
-0.000101433
-0.000102991
0.00155182
-0.0129963
0.000579233
-3.51454e-05
-0.015523
-0.00311558
-0.00301237
0.32882
-0.0506327
0.00461556
-0.00905093
-0.0254655
-0.000325714
4.52184e-05
8.16651e-07
-0.0246588
-0.0369408
-0.02241
4.42468e-05
-0.010308
0.0453567
-0.12358
-0.0238164
-2.45442e-05
-0.0196505
-0.0116066
0.000137037
2.04963e-05
-0.0196833
0.00131217
5.22437e-05
-0.05011
0.000400628
-0.0385337
-0.0156956
-0.0132297
-0.0129042
0.000131528
-0.0274511
0.000286644
4.40062e-05
0.00324435
0.220777
0.394186
0.154596
-0.00897531
-0.0088472
0.17069
0.0104102
0.000253049
0.0289071
-0.0107462
-0.0194338
-0.00293697
0.0455693
0.000782827
0.152608
0.000477794
-0.00399438
-0.0136172
0.188514
0.000281363
-0.0179786
-0.0590066
0.0888127
-0.0185791
-0.00392569
-0.0860356
0.000100039
-0.187966
-0.00329268
0.0144833
-0.0158255
0.0020287
0.0505495
0.177331
0.386376
0.136956
0.141375
-0.0435545
0.155416
0.0107146
0.186838
0.215882
-9.48532e-05
-0.00101867
0.391881
5.45688e-05
-0.203364
-0.102981
-0.0138617
0.0007124
0.02152
-0.000873638
0.00126958
0.319847
0.445461
-7.90678e-05
0.000293671
-0.00401277
2.89004e-05
-0.183541
0.190478
0.102375
2.47665e-05
-0.027436
-0.0225144
0.000505605
-0.00237455
0.0591525
0.437326
-1.93317e-05
1.05763e-06
0.184681
-0.0025871
-8.15859e-05
0.0253733
0.00305714
-0.0023684
-0.00135879
-0.205802
-0.0114589
-0.000854701
-0.0210133
0.000301755
-5.46494e-05
-0.00215268
-0.0315128
-0.000120619
-0.0155284
0.000603773
-0.0179176
0.190752
1.63175e-05
0.560542
-0.0333831
0.371586
-0.0280229
-0.000294945
1.50339e-05
-0.000218958
-0.00413478
0.0882508
-0.00185348
-0.00983843
0.326833
-0.0385722
-0.0387314
0.00496587
0.0028925
0.327122
-0.000256244
-0.0178349
-0.014078
0.000236023
-0.00893338
0.000617782
-0.00751045
-0.0381744
0.488361
-0.0393232
-0.00142022
-0.0149424
-0.00210629
0.0132526
0.0617036
-0.0112465
6.5825e-06
0.195389
-0.00943568
-0.0428944
-0.00182248
0.00242167
-0.0252407
0.0033394
-0.131208
-0.000518461
0.269835
-0.00426454
0.0610656
-0.0274308
0.0212882
2.0816e-06
-0.0247138
-0.015573
-0.0182278
0.0245435
-0.0500134
0.000309456
-0.0986884
-0.000866089
2.5398e-05
-0.00177453
0.000270772
0.442575
0.000241926
0.294881
-0.0152679
0.0203489
0.00209528
0.0651658
0.00244021
0.11843
3.34983e-06
-0.0198538
-0.00114332
0.000966557
-0.0185491
5.02733e-05
-0.0695887
0.414524
-0.10083
0.00025332
-0.0890706
0.0877599
0.334893
-0.000274974
-0.000154634
-0.00311653
0.000205069
0.400981
-0.0111429
0.0409949
0.103674
0.000197817
-0.0663494
0.137338
-5.55179e-05
0.0106475
0.388616
-0.00135179
-0.00042209
0.000372522
0.00224496
-0.013541
-0.00412304
0.255978
-0.00702348
0.496479
0.585281
-0.00174805
0.00012501
0.266288
-0.0023289
-0.0118307
0.000278797
0.106974
-0.0275961
0.472358
-0.00107134
5.99397e-05
-0.00949642
-0.142951
-0.0273988
-0.00806379
0.00661097
0.0892666
-8.96892e-05
-0.108568
4.15261e-05
0.00117099
2.65035e-07
-0.183185
-0.0470376
0.153447
-8.1504e-06
0.38645
-0.000232615
-0.00857783
-0.000341352
-0.0403472
-0.0090518
0.0492461
-7.73575e-05
-0.0275736
-0.00212182
-0.00925789
2.21769e-05
4.2382e-05
-0.000130096
-0.0288891
0.00109241
-0.000643806
-0.0209497
0.000148611
0.000306633
-0.000816662
-0.000287657
0.169043
0.0439953
-0.162422
-0.0171152
-0.0382486
-5.57345e-07
-0.0902581
-0.0387561
0.000354201
-0.0224026
-0.0012167
-0.0237602
-0.13045
0.000467766
-0.0130328
2.62522e-05
-0.00390466
-0.000213808
0.17561
-0.00517108
0.000189018
-8.49709e-05
0.0203404
-0.032109
-0.0023165
7.85537e-05
0.258712
0.271773
0.00102996
0.0331308
-0.0907528
-0.0393377
0.000130382
-8.44496e-07
0.217263
-0.0230146
0.000154417
-0.00635203
-0.000505071
-3.6461e-07
0.0366186
-0.0513601
-0.0392502
-0.0408766
-0.0157597
-0.00435764
-0.0115025
-0.000487788
0.122989
-5.82358e-05
-0.0230064
0.0246258
1.14042e-05
-0.0837463
-0.00854903
0.106555
-0.000690811
-0.0067757
0.347581
0.0342267
-0.0325504
-0.0143623
0.19082
-0.00409527
-0.00859977
-0.0261052
0.187513
-0.000695432
-0.000188805
-0.0909908
-0.0068402
-0.00909958
0.520907
-0.00425324
-2.14166e-07
-0.214339
0.00163066
0.00371135
0.118179
-0.109923
-0.0541447
-0.00140047
0.107936
-0.014824
0.0373374
-0.00400407
0.0861782
0.0622653
-0.0188004
0.0822211
0.157659
-0.000213057
0.0329164
0.442015
-0.0891621
0.000356917
-0.0408852
0.106743
-0.0136643
0.0218013
0.187719
-0.00279702
-0.00131112
-0.00354033
-0.00270665
-0.028712
0.0130196
0.000303267
0.328555
0.487825
-0.0235715
-0.00114009
-0.0410805
-0.0270281
-0.0271315
0.182417
0.254929
-0.00141125
-0.0218988
-0.0270031
-0.000588753
0.0368261
-0.0404695
-0.00188938
0.0267847
0.000262084
0.119485
-0.124205
0.0934042
-0.0390443
-0.181904
0.300955
-0.000829032
-0.0353377
-0.0764471
-8.11221e-05
-0.0154391
-0.0771515
-0.114245
-0.0484227
-0.00321724
-0.00891566
-0.00362546
-0.115689
-0.000188763
-0.0109049
-0.0424271
0.135284
-0.0380568
-0.0394244
-0.00621233
0.00119793
0.151499
-0.0357283
-4.76444e-06
-0.00175805
-0.000484615
-0.00844862
-0.0143231
-0.0010285
0.0381171
-0.199103
-5.07057e-06
-0.0243653
0.0162086
0.0292477
0.00115047
0.00217139
-0.00238949
0.543042
-0.0232857
2.06973e-06
-0.00185635
-0.00019924
0.256354
-0.00930746
4.90472e-07
-0.00687411
-0.00131982
-0.0477207
0.0923909
0.0398899
-0.0959025
-0.0158631
0.000731687
0.348251
-0.0182126
0.0683734
-0.00403034
-0.0750521
0.00616469
0.00224129
-7.41793e-05
-0.00808061
-8.49695e-05
-0.0494997
-0.000637099
-0.0989437
6.12922e-05
0.0396421
4.6863e-05
-0.00180977
0.00011018
0.0937112
-0.0151176
0.310905
-0.0101639
0.0668548
-0.17731
-0.000739543
0.306612
-0.0280134
-0.0143469
0.595008
-0.000310528
-0.00645027
-0.198524
0.0223676
4.78788e-05
-0.0142924
0.00419526
-0.0331662
-0.018247
0.388185
0.00163748
-0.200574
0.0919368
-0.111689
0.00277857
0.00121964
-3.45813e-07
-6.75292e-05
-0.00107899
0.00845575
-0.000244651
-0.00217711
-0.00161049
0.332557
0.307461
-0.0537204
0.000100122
-0.0703241
0.0345632
-0.147733
0.000100449
-0.0988531
-0.0284523
6.46525e-05
-0.00348057
0.0271739
-0.0202396
-0.000520688
-0.0373288
0.531498
-0.0647784
0.000256194
-0.0408884
0.0228452
0.000374563
8.30937e-05
-0.195646
-0.00104565
-0.114083
2.09925e-05
-0.00601228
-0.0281402
0.46958
-0.00760966
0.00328035
-0.0142011
-9.57062e-05
0.0920749
-0.000208003
0.0184318
0.10361
-1.75411e-05
0.0254863
0.00136322
0.473715
0.592538
0.00961628
0.422751
0.352393
-0.105382
-0.0362184
0.000194626
-0.00898016
-0.0299136
-0.00104244
-7.89567e-05
-0.0018299
-0.000397431
-1.61914e-05
-0.0089573
-0.00036178
-0.0230004
-0.0502822
3.48962e-05
-0.000112
-0.182194
3.45826e-05
-8.5029e-06
0.0898186
-0.0191498
-0.0280768
-0.000617158
-0.0407259
0.00986333
0.019204
-0.00232992
0.00275365
0.117095
0.0268095
-0.0279074
0.000271415
0.000457798
1.54103e-05
-0.0181397
0.263941
0.00544401
1.70851e-05
-0.19771
0.000109106
1.47735e-05
0.0837919
0.000494583
0.460529
-0.00111092
0.187988
-0.00587108
0.00272012
-0.00669468
-8.3702e-05
0.114833
-0.000470168
0.00117134
0.424503
0.389484
0.551782
-0.00150702
-0.149698
0.0200711
2.64059e-05
-0.0272931
-0.0034409
0.186084
0.230336
0.00182759
-0.145438
7.02858e-05
0.0313352
-0.000556707
-0.00744914
0.00358102
-0.0013598
-0.00275028
-0.0125547
-0.00208552
0.0531209
0.0923448
0.00151094
0.114248
-0.0194526
-0.201497
-0.0043586
0.0262346
-0.0151005
0.547001
0.300055
0.00788256
-0.0136983
4.25927e-05
-0.000394517
-0.0178895
-0.038072
-0.0295253
0.0255082
0.177446
-0.179559
0.0659109
-0.000140228
0.00630771
-0.00388348
0.160561
-0.0409814
-1.69807e-05
0.113102
-9.58865e-06
-1.10253e-05
-7.80651e-06
1.09003e-06
8.55161e-07
0.162483
0.00231096
-0.0204769
-0.000789954
-0.155877
-0.0303843
0.313535
0.00156223
-0.00056018
-0.00187184
-7.90692e-06
-0.000418017
-0.0626682
0.00675638
0.11046
-0.00367509
0.0922976
-0.0142812
0.00528589
0.0165456
0.000483533
0.417687
5.73648e-05
-0.00230477
-0.000387546
-0.01389
-0.00608264
0.155833
-0.00237842
3.75779e-05
-0.0793418
-0.00336631
0.182785
2.49751e-05
0.000101569
8.45086e-05
-0.0242857
-0.00203963
-0.0174253
-0.03954
0.068813
0.306131
-0.00103711
0.000136361
0.000387887
-0.000789295
0.0670498
-0.0383218
-0.00206459
0.0255591
-0.201865
0.00050301
-0.0803322
-0.00176057
0.00176002
-0.030021
-0.000191668
0.0119831
0.179897
0.282692
0.130769
-8.62861e-05
-0.148122
5.49537e-05
-0.0221949
-0.0225183
0.0588964
-0.00643212
-0.0935175
-0.0204231
-0.0267749
-0.00357994
-0.00640476
-0.0204076
-0.0850601
4.44853e-05
0.0596865
-0.000337122
0.227173
0.0350023
-0.0054732
0.000107355
0.000535823
-0.0137536
3.15917e-05
0.0703197
-0.00631117
-0.0779315
-0.0528917
0.0400712
0.326494
-0.00889347
-0.0204053
0.101597
0.0150258
-0.000665802
0.000679728
0.556474
0.00119545
-0.00418422
-0.176428
-0.009655
-0.0195435
-0.00244677
0.228217
0.000136785
0.0825565
0.338447
5.44512e-06
-0.00903276
7.92069e-05
0.0638477
-0.00812706
0.00506494
-0.00421345
-0.00999902
-0.0193175
4.26877e-05
-0.00139103
-0.00951886
0.00645859
-0.00245969
2.5599e-05
-0.0014243
-0.0222534
-0.0401581
-0.00384207
2.66972e-05
0.0117954
-0.000666312
0.000542236
0.0199256
0.124993
-0.0127386
-0.0203655
0.0597587
-0.000449315
-4.22892e-05
-0.0229805
-0.000225683
-0.000314539
-0.0119926
0.0511109
-0.000242401
-0.0043433
-0.001382
0.0150011
0.000114482
-0.000218341
7.79658e-05
0.0656181
-0.00066982
-0.00227883
0.0138198
-6.24527e-07
0.000134978
-5.28922e-05
0.160394
-0.000776767
-0.00394592
-2.45007e-05
-0.13138
0.110175
-0.00227208
-0.0865038
1.47291e-05
-3.34681e-06
0.00575319
7.11944e-05
-7.86235e-05
0.309677
0.00253995
-0.00134841
-0.0415594
8.29229e-05
0.000499463
-0.00758213
-0.00099369
-0.000532837
0.404903
-0.000116053
-0.045048
0.191039
-7.2665e-05
-0.0203921
-0.000269435
-0.0203208
-0.0291441
0.0171843
-0.00458056
-0.000276706
-0.00454795
-0.114486
-0.00209472
-0.0130338
0.000665781
-0.000432138
-2.63803e-05
-0.00011195
-0.0568658
-0.0175822
0.0761407
0.00177655
-0.00901777
0.536244
0.0850142
-0.0386117
-0.000106142
-0.0184163
-0.0229384
0.0323464
-0.0358994
-0.0710561
0.064413
0.0718438
-0.0127638
-0.0353647
0.301491
-0.0431826
0.000177552
-0.0409525
-0.0419385
-0.00627171
0.00468567
-0.0149893
-0.000991727
0.0128719
-0.0245872
0.264136
-0.0333099
0.269129
-0.026206
-0.000356922
0.00191969
-4.90548e-05
5.06919e-05
1.84189e-05
0.137105
-1.37978e-05
-0.0193986
-0.000272099
0.00597677
-0.0286398
-0.000203734
-0.0100961
-0.0206298
-6.31128e-05
0.127776
0.00349319
-0.000546562
-0.0194974
0.0548054
-1.49666e-07
0.033822
0.000518378
0.156887
-0.0439511
-0.0268542
-0.0201888
-0.000538962
-0.000385961
0.0880862
0.159973
0.158204
-0.00355904
-0.0217369
0.261362
0.0333974
0.00488128
-5.03495e-07
0.0838469
0.0138067
-0.000225458
-0.0925859
0.327822
-0.0144063
0.00047717
0.486461
-6.39982e-05
-0.00567752
0.0636133
0.168987
0.0686953
0.0689519
0.360414
0.224209
-0.00011515
-0.000337939
-0.00061618
-0.000530864
0.0724884
-0.0190916
0.278772
-0.0142971
-0.0043514
-0.0126412
-0.0692329
0.000405866
0.000569813
-0.000332224
-0.0245918
-0.000883526
0.00264784
2.83801e-05
4.54741e-05
0.000115635
1.56904e-05
0.000462521
-0.132304
-0.0059544
-0.145752
-0.127424
0.516327
-0.0261093
-0.000181278
-0.00115703
-0.130593
-0.00052189
-7.08343e-05
-0.00923899
-0.00160693
-0.000346671
-0.00464233
0.0230617
-5.97456e-06
0.000265312
0.00169834
-0.000311528
-0.00015528
0.00207849
-0.000514575
-0.0281129
0.0246985
-0.06275
-0.00799974
-0.0127028
-0.0317447
-0.00067327
2.9257e-05
0.000144618
-0.00289254
0.11629
-0.156494
-0.00379022
-0.00668625
-0.0824393
-0.000248706
0.331868
-0.0072852
0.0518062
0.000503254
-0.000312279
0.000112704
-0.058638
-0.0419451
0.325716
0.348951
0.0859348
-0.00891446
-0.0222105
-1.36931e-05
3.37041e-05
-0.00514545
-0.1252
0.1492
-0.0742713
-0.0227661
-0.0247534
0.114745
-0.00551433
-0.101471
1.76937e-06
0.0218746
0.12005
0.00180627
2.78933e-06
-0.00520894
-0.00281696
0.156529
0.057041
0.00134623
-0.0129808
0.537203
-0.00800257
3.70347e-06
2.48539e-05
0.00309094
-0.00903658
0.0625945
2.68074e-05
-0.0532668
0.00148282
8.5895e-05
0.38633
-0.0056481
0.0635816
-0.00564871
0.000515229
0.00660963
-0.0525233
0.186539
-0.0137398
-0.00828783
0.400296
0.000459464
0.017274
0.0649681
0.277096
-0.000669186
0.0569539
8.25729e-07
0.000381503
0.0899522
-0.00770569
-0.00648549
0.0334609
0.000114675
0.150444
-0.0466584
1.3102e-05
-0.0367331
-0.00124691
-0.00459137
-0.00012057
-2.16687e-05
-0.024761
-0.116834
0.00051002
-0.00364537
0.00120976
0.0687521
0.302007
0.000155931
-0.0012278
-0.000237511
-0.0260295
-0.000141885
8.60825e-05
-9.05185e-06
0.295217
-0.00861018
0.000565336
-0.0316438
-0.0196256
-0.0382225
0.303536
0.225129
0.163773
1.38967e-05
-0.190988
-0.0260161
-0.00578596
-0.0366312
-0.000682459
0.118286
-0.0109623
0.00507594
-0.000544889
0.00846139
-0.0379871
0.00643039
2.90142e-06
0.0231192
-2.22036e-05
-0.000146764
-0.00648112
-0.000834882
-0.0236718
0.522549
-0.00746971
0.000933694
-0.00157483
0.102745
0.171564
0.322913
0.182416
-0.039389
-0.0012497
-0.00041789
-0.0183216
-0.0209397
0.00149867
-3.44016e-05
-0.0578829
0.00108509
-0.0168487
-0.0066358
-2.439e-06
-0.101764
0.00904674
0.365438
0.0910231
-2.7821e-06
0.0164142
0.000527788
-0.0364155
-0.0393945
-0.00842704
0.309409
-0.000276291
-0.0240163
-0.0223283
-0.0002354
0.000122024
-0.0200316
0.0830636
-0.0265765
-0.0243958
0.00173725
-0.0933998
-7.50781e-07
3.2368e-05
-0.000397766
0.00241762
-0.0191227
-0.000412766
0.181863
-5.22881e-05
-2.48175e-07
-0.000453621
0.00198472
-0.0077085
-4.80862e-06
-0.0168207
0.0258922
0.102247
-0.00148335
0.254739
-0.0114585
0.103867
-0.00601505
0.00525286
8.12943e-05
0.00896356
0.00152277
0.0404536
0.45382
0.13396
-0.00680636
0.000160268
0.159506
-0.0055962
0.194798
2.29351e-06
0.0309358
0.101097
0.357316
0.000183468
1.37927e-05
0.206945
0.343696
0.0736986
4.75907e-05
-0.140799
0.045793
-0.00225453
-0.000714006
-0.00148516
0.0170224
0.00535382
0.26575
-0.00119193
-0.0273844
-0.00203776
-0.00467565
-0.000850808
0.312211
0.0694875
-0.0143188
-0.000451632
0.0536362
-0.0574605
0.00181366
-0.0224738
0.000211263
-0.0220687
0.00929954
-0.00997994
-0.001568
-0.0402263
-0.00575232
-7.54722e-07
-0.0809166
-0.00191617
0.000158283
0.00650079
-0.000967794
-0.0023714
0.0163897
1.54151e-06
0.00365817
-0.0302184
0.226896
-0.000109409
0.490028
1.10767e-05
-0.00472981
0.00464341
-1.56122e-05
-0.00444176
-0.0012105
-0.0390312
0.134757
-0.0160092
-0.0620623
-0.0265031
0.219845
1.18103e-05
-0.0906408
0.0273796
-0.0263007
1.46527e-05
0.531435
0.00371635
0.00431233
-0.00250401
-0.0017623
-2.08054e-05
0.228857
-0.00353242
0.0889435
0.000188465
-0.0305105
-0.000660922
-6.38255e-07
0.250171
-2.69434e-05
0.117483
0.4213
0.1898
-0.00517823
0.108035
0.109308
0.204719
0.26242
0.158489
0.378689
5.212e-06
-0.0181634
0.110653
-0.000303832
0.177917
-0.0262289
-2.6761e-06
-0.000126853
-0.0201104
0.491409
-0.00398248
0.00342138
0.0666331
-0.000123737
0.000105376
0.00541533
-0.0179322
0.0054851
0.190837
0.471494
-0.0183326
0.270892
-0.0251259
0.0237295
0.314664
-3.95127e-05
0.161821
-0.00430039
0.0152909
0.0011443
-0.0817031
-0.00795434
-0.0340587
5.97761e-06
-0.0144759
1.77087e-05
0.116141
0.493358
-0.20854
0.000605867
-0.034779
-0.0231992
-2.65441e-05
0.00425568
-0.0191324
0.00441917
-0.0209684
-0.0173448
-0.000357765
0.000219624
0.0300347
0.000167023
-0.0211321
2.19338e-05
0.0741505
-0.000972161
-0.023106
0.000164725
-0.00362561
-0.0253311
-0.00923034
-0.0512317
0.000541332
0.0452176
-0.0231316
-0.0411415
-7.17484e-05
0.0294077
0.0299215
-0.0657925
0.262331
-0.00445846
-0.0414392
0.0063671
-0.00322339
0.00330859
7.85147e-05
-0.112603
-0.0135879
-0.00219474
-7.00935e-05
-0.000478091
0.0620393
-5.51101e-08
-0.000296508
9.72757e-05
-8.54194e-06
-0.00121501
0.305104
0.55852
-0.000218114
-0.00749332
-8.66228e-06
-0.0370927
0.00206283
-0.00625427
0.0130478
-0.000961206
0.0922117
0.00185754
-0.000877477
-0.00109648
-0.00354834
-0.00154667
-0.000155106
0.222234
-0.00134517
0.485943
-0.0161181
1.21286e-05
0.0677204
-0.000461961
-0.0174346
0.115692
-0.00240435
-0.0161539
0.467
-0.0238289
0.000303668
-0.0626737
0.0352809
-0.00452685
-0.0309625
-1.73263e-05
-0.0177237
0.000567387
0.338543
-0.0102881
-0.0188438
0.0134593
-0.00436985
-0.0178479
-0.0150759
-0.0170793
0.103775
0.000820117
-0.0792692
-0.00428872
-0.00129715
-0.00029155
0.00326424
-0.0257556
-0.000716457
-0.0607957
0.00384349
0.000616612
-0.0267697
-0.00017927
-0.000283989
-0.000976617
-2.72426e-05
-0.0401783
0.000856919
0.093087
3.4582e-05
-0.000305666
8.13765e-05
0.424671
-2.74675e-05
-0.0371372
0.0153644
0.10659
0.000303573
-0.00337215
0.00217495
0.00140744
-0.00958389
-0.0260833
-0.0247115
-0.0158589
-0.0040226
-0.000238389
0.0676765
0.0215788
-0.0278974
-0.000632792
-0.158731
-0.0255993
-7.86402e-05
-0.00540337
0.033076
0.46629
0.29365
-0.00205521
-0.169345
-0.00812698
-0.000312939
-0.00011561
-0.0180902
-1.28779e-07
-0.0763143
-0.0163434
-2.77651e-06
4.75736e-05
-0.0286927
0.00727013
-0.0222216
0.0300883
6.743e-05
-0.0258295
0.011905
-0.0230238
0.000162746
-0.0250149
-0.000262472
0.132851
-0.000353275
-0.033674
-7.6474e-07
-0.0018563
-0.0202313
-0.101196
-0.00947666
-0.0207826
0.000134132
-0.0205198
-0.00794616
-0.0169241
-0.0492357
0.00337652
0.0309054
0.495791
0.00195413
0.0111132
0.000310877
6.88429e-05
-9.94614e-05
-0.0280537
2.07053e-05
-0.00100742
0.0458422
0.429642
0.457432
-0.000427213
0.218868
-0.0046874
0.000577544
-0.00091723
-0.0278731
-0.0290314
4.65505e-05
0.0136199
-0.0162052
-0.0730583
-0.0414613
-0.0419195
-0.0165518
2.63466e-05
0.000650102
-0.00493822
0.139875
-0.0251804
-0.0440134
-0.0221068
0.45099
-0.0081124
0.102073
-2.23955e-05
-0.023127
-0.00314723
3.85327e-05
0.000766496
-0.0060779
-0.00241814
-0.0416718
-0.00287603
0.0151996
0.298946
-0.00461015
2.1183e-06
2.4861e-05
-0.0187036
0.0242102
-0.0181939
-0.00603793
0.000854005
0.000416123
0.074171
-1.58714e-05
-0.0167784
-0.000429402
-0.00490529
-0.00235215
-0.00247948
0.0467178
0.00588271
0.00408584
0.0194407
0.592546
-0.0504792
0.164134
0.0587952
-0.0302147
-0.0428022
0.0034684
-0.0302572
-0.0161745
0.0931423
-0.0128237
7.97031e-05
-0.00372496
-1.26597e-07
-0.0369053
-0.00158786
-0.00122109
-0.00406162
0.187429
-0.000110971
-7.29681e-06
-0.00744354
-0.0979631
1.01361e-05
2.63185e-05
0.000881717
-0.143583
7.30426e-06
-0.0277041
-0.000810235
-0.0188766
-0.0187594
-0.0841266
-0.0114314
0.0994722
-0.0294933
0.000189536
-0.000461548
0.196446
-0.00472643
0.0105103
7.74501e-05
-0.0160376
-0.0161826
0.000102454
-0.014297
-0.015928
0.00210956
0.316076
-1.87226e-05
-0.0966559
-0.000469847
-0.000748633
-0.000226005
-0.00232589
0.142988
0.0029653
2.3841e-07
0.073864
-0.00759578
-0.000268799
-0.120574
-0.000927774
0.0236457
-0.0417743
-8.95951e-05
-0.000932773
-0.038956
-0.018334
6.49739e-05
-0.108285
-0.0180794
0.00553701
-0.0277345
0.00665313
0.306875
-0.00520076
0.0135108
0.0864204
-0.000274378
-0.000173492
0.185345
6.90187e-06
0.579934
-0.0105444
-1.20297e-07
0.104161
0.135058
-0.149858
-0.00556396
-0.0225877
0.0246307
-0.00372631
0.00745115
2.67458e-08
-0.00486727
0.0283803
-0.0168835
-0.0123314
-0.00150814
-0.0303499
-0.00282626
-0.00168948
-7.69281e-05
0.0329668
0.455342
-0.0224583
-4.07865e-08
4.15635e-06
0.000869482
-0.000833753
-0.109394
0.104203
-0.0306886
-0.0165617
-0.074516
-0.11252
0.429426
5.28352e-05
0.00271922
0.00410271
-0.0321509
0.00124237
0.0481167
-0.00149996
-0.000468807
-0.00494788
-4.41137e-06
1.70354e-05
0.0216377
-0.00110223
0.179064
-1.96405e-05
0.0332867
-0.00586169
-0.0221939
-0.0161191
-0.0204263
-0.0415333
0.00694064
4.88036e-06
0.0382657
-0.0708375
-0.00737646
0.0668515
-0.0297905
-0.0121635
-0.0247082
-0.18955
0.0690327
-0.125664
0.036154
0.000236315
-0.0162696
0.00015007
0.100822
0.0075267
-0.000107078
-1.46078e-06
0.0734983
-0.00050533
0.0293332
0.154224
-0.11778
-1.56823e-05
-0.0144406
0.326035
0.0663909
-0.00393624
0.102485
0.041667
0.0311543
0.000260783
-0.000998947
0.00989002
0.134838
-0.0260544
-0.000128027
-0.000465807
7.51715e-05
-0.0342753
-0.0425247
0.0332911
0.0183346
-0.013317
-0.122652
-0.0285227
-0.0554877
-0.0314024
0.256671
0.0211594
-0.0535792
-0.00105724
1.33773e-05
-0.00674678
-0.0698502
0.00125717
-0.000119163
0.0862128
0.069123
-0.0205146
0.0759108
0.00258112
0.329084
-0.00080856
0.119269
-0.0826616
-0.00106979
4.81026e-06
0.0221526
-0.0195288
-0.000468149
-0.00814033
0.166358
0.18025
-0.0112609
0.311105
0.117465
-0.0194973
-0.0175789
-0.0386706
-0.0021084
0.10008
-0.0343939
-0.000159941
-7.56179e-07
-0.000448426
-0.0225028
-0.00326297
-0.0145415
-0.061217
-0.134313
-0.000567122
0.345515
-0.0102941
0.179017
0.497895
0.10565
-0.0545201
-1.65985e-06
-0.0187289
0.001125
-0.00478491
0.318187
0.0782239
0.0636503
0.429411
0.00422198
0.0257658
-0.0247101
3.38165e-05
0.228018
-0.00276419
-0.0417928
-0.015097
0.00477376
2.61025e-05
-0.0644283
0.0346872
1.75513e-06
0.492666
0.0510918
-0.000193463
-0.000118472
-0.00063608
0.18607
0.0436282
-3.95827e-07
-0.000647479
7.25241e-05
-9.71601e-05
0.000979214
-0.000634806
-0.00465614
-0.00228225
-0.00122114
-0.00482218
-0.000228614
-0.000190767
0.020516
-2.44624e-06
-5.28292e-09
-0.0523048
-0.0307984
-0.00295929
0.253123
-0.0300618
-0.000335011
-0.00498269
5.72596e-08
0.00245644
-0.0369459
-0.0857813
-0.0869389
-0.000167522
0.185878
-0.00761377
0.0911399
0.00988516
-0.015685
-0.014226
-0.00652223
4.38939e-05
0.00513109
-0.0865593
0.000193363
-0.0276416
-0.0327627
1.24274e-05
0.526418
0.0837634
-0.000666968
-0.0318771
0.0702081
-0.0145078
-0.00670565
1.44258e-05
-0.0190219
-0.0111069
-4.04299e-07
0.0491389
1.66435e-05
-0.000563544
-0.0226713
-0.0417115
-0.00324498
-0.00422869
7.92874e-08
-0.0328765
0.00119606
0.103657
-0.0194369
6.04562e-06
-0.00332966
-0.000670685
-0.0451135
-0.146598
-0.089596
-0.00528953
-0.0377609
0.074992
0.000704145
4.82769e-06
-0.00161923
-0.0216781
-0.018112
0.397077
-0.0301508
0.563005
9.16876e-05
-0.0229991
-0.0413719
0.222731
0.307988
-0.00632539
-0.000892666
-0.0390842
1.29466e-05
0.427571
0.186878
0.0602842
-0.0238998
0.0378045
0.0754189
0.399905
0.148038
0.145333
-0.0340908
-0.118229
0.178228
-0.0407012
-0.00069693
-0.0979888
0.0135842
0.000494204
-0.016252
-0.000102505
0.00292923
-0.00247689
0.00132971
-0.0180691
8.0423e-05
-0.0187176
-0.0940536
-0.0342865
1.85929e-05
-0.00259251
-2.05095e-05
3.68163e-05
0.0897886
-0.0376436
-0.0090114
-0.000198506
0.00634397
6.4024e-06
-1.10118e-05
-0.000266424
-0.000140409
-0.128269
-0.0287513
-0.000717565
0.0653764
-0.000945104
-0.0298279
0.0292069
-0.00572316
-0.00111098
7.98721e-05
0.00381845
-0.0236696
-0.00107243
3.85269e-05
0.00246147
-0.0546009
-0.0177985
0.0252658
0.000148905
-0.018677
0.48909
0.000581414
0.000729646
0.0216644
-0.000248194
-0.000493235
7.0062e-06
-3.49924e-07
-3.04006e-05
0.00939086
-0.0373505
0.354769
0.526976
-0.000162115
9.98698e-06
-0.000160922
-0.040122
0.59921
-0.0264952
-0.0407941
-0.0246979
-2.06892e-05
0.000541219
-0.0334838
-0.00168611
-0.0462267
0.00728916
-0.0895598
-0.0469057
0.0008881
0.447872
-0.114282
0.000337109
-0.000949315
0.00155548
-0.013224
-0.114036
-0.0387656
-0.00548694
0.231009
0.330708
0.0900238
0.203542
0.0443435
-0.0443818
-0.0051921
0.00288381
0.0269937
-0.0200638
0.000277861
-9.57264e-07
-0.0857574
-0.102847
-0.000361445
-0.0180869
-0.0403968
-0.0407724
0.321628
-0.00104193
-0.0184281
-0.0106427
-0.022844
0.0344265
0.0163952
0.00260146
-0.00281816
-0.0108188
-0.0104249
-0.00707624
-0.0203201
-0.0027296
-0.0406309
0.171697
-0.0224902
-0.00979651
-0.00262991
0.109403
-0.122105
-0.0393675
-0.071801
6.61877e-06
0.194307
0.0287005
-0.0304914
0.0011851
-0.0147557
-0.00953064
-0.00116701
-0.0303622
-0.00887344
-0.0849174
-0.00411768
0.00121175
7.72798e-05
-8.83167e-05
0.0215022
-4.07908e-06
-0.0119906
-0.0243189
-0.0262407
-9.73936e-05
9.99666e-05
0.000161996
0.00112362
-0.0181992
0.0108592
-0.0336311
-0.0408491
-0.0564286
-0.00681771
-0.00150109
0.405739
-0.00698313
-0.00223352
0.254769