/*--------------------------------*- C++ -*----------------------------------*\
  =========                 |
  \\      /  F ield         | OpenFOAM: The Open Source CFD Toolbox
   \\    /   O peration     | Website:  https://openfoam.org
    \\  /    A nd           | Version:  7
     \\/     M anipulation  |
\*---------------------------------------------------------------------------*/
FoamFile
{
    version     2.0;
    format      ascii;
    class       volVectorField;
    location    "37";
    object      U;
}
// * * * * * * * * * * * * * * * * * * * * * * * * * * * * * * * * * * * * * //

dimensions      [0 1 -1 0 0 0 0];

internalField   nonuniform List<vector> 
115546
(
(1.02599 -0.0399422 2.00551e-22)
(0.999987 -5.81959e-07 -1.88043e-25)
(0.98858 -0.00941155 2.11612e-22)
(0.997144 -0.00305503 -3.54431e-23)
(1.0014 -0.00343242 4.43362e-24)
(0.999238 -0.00113178 9.71819e-24)
(1.01082 0.0977325 -8.64653e-21)
(1.04049 -0.0780981 3.17471e-22)
(0.999744 -0.000366852 -3.15512e-25)
(0.999987 -5.00803e-07 3.92333e-26)
(0.999797 -1.89531e-05 2.68365e-24)
(1.00013 -9.94479e-05 2.45466e-24)
(0.998865 -0.00371563 -1.34115e-23)
(0.934354 -0.0043753 -7.39523e-22)
(0.999743 -0.000376204 3.18888e-24)
(0.942277 -0.0198207 -1.72864e-21)
(0.999889 -0.000283 1.71407e-25)
(0.999693 -0.000198656 -4.43209e-24)
(0.988951 0.0938164 1.07107e-20)
(1.00144 -0.00347571 2.44894e-23)
(1.04536 -0.0792805 2.96083e-21)
(0.995457 -0.000136105 -1.6297e-23)
(0.999642 -0.000267105 -4.36193e-24)
(0.9956 -0.00442665 -2.4497e-23)
(0.930879 0.0260008 1.02953e-20)
(1.10519 0.0266909 1.94406e-21)
(1.27383 0.0442121 1.48871e-21)
(1.01483 -0.0035751 7.32013e-22)
(0.999982 -4.43236e-05 -4.37222e-25)
(1.01006 0.159947 -1.0046e-20)
(0.999887 -3.87706e-05 1.62541e-24)
(1.04206 0.00983893 7.03523e-22)
(1.00594 -0.00914254 -1.68874e-23)
(0.98832 -0.00496343 -1.92719e-22)
(0.919605 0.0703911 4.70669e-21)
(0.998416 -0.000950937 6.05455e-23)
(1.01451 0.107531 1.48742e-21)
(0.999888 -0.000289721 -3.66949e-26)
(1.23103 -0.153873 5.35512e-22)
(1.01956 0.0581833 1.3285e-20)
(1.04251 0.0103424 -1.36682e-21)
(0.999689 -0.000205923 -9.09761e-25)
(0.985578 -0.0172366 -4.0516e-22)
(0.998421 -0.000921809 -4.30105e-23)
(0.970474 -0.0466455 -7.38731e-23)
(0.934741 -0.00393566 7.7044e-22)
(1.00489 -0.0111712 7.35816e-23)
(1.00457 -0.000558743 6.18791e-23)
(1.00006 -0.00551749 -4.30886e-24)
(1.00012 -1.09097e-05 -1.17326e-23)
(1.00001 -1.19069e-06 -9.11058e-26)
(0.997163 -0.000126787 4.91549e-23)
(1.0306 0.0108934 2.36219e-21)
(0.999989 -3.29333e-07 -3.0136e-26)
(0.998422 -0.00652369 5.93391e-23)
(1.03026 0.0111558 -6.18526e-22)
(1.02439 0.000648325 1.67663e-21)
(0.966871 -0.0324757 -2.19072e-22)
(1.20882 0.0417072 -1.02399e-21)
(0.991247 -0.0116259 4.70569e-22)
(0.999937 -0.00015821 2.01107e-25)
(0.995526 -0.00469095 2.11287e-23)
(0.999382 -3.58112e-05 -8.60767e-24)
(0.985021 -0.0081847 5.78883e-23)
(0.999942 -4.16029e-05 -9.76603e-25)
(1.00078 -6.46628e-05 -3.07574e-24)
(0.999052 -0.00339727 5.55598e-23)
(1.03234 -0.00289102 1.33412e-21)
(1.28994 0.0840543 -3.71761e-21)
(1.02492 0.000309846 6.83477e-22)
(1.05513 0.107073 3.64822e-21)
(1.19827 0.101618 -4.79571e-22)
(1.01966 0.0573363 5.88366e-21)
(0.964221 -0.00302031 -1.47128e-22)
(1.01644 -0.0500088 -2.33316e-22)
(0.976393 -0.00777296 -8.07801e-23)
(1.14254 -0.0233058 3.06658e-22)
(0.999397 -0.00196965 -1.91483e-23)
(0.998759 0.0511318 -3.43171e-21)
(1.10294 -0.00345757 -4.61933e-23)
(1.10357 -0.00178222 2.05723e-22)
(0.999953 -2.8508e-06 4.09666e-26)
(0.972956 -0.103025 1.23091e-21)
(1.01419 -0.000822918 -3.30268e-22)
(0.997174 -0.000804143 3.05261e-23)
(1.00012 -9.63799e-05 2.4584e-24)
(0.984799 -0.012855 -2.70287e-22)
(0.999988 -1.58601e-05 2.53028e-26)
(0.974046 -0.00821564 -1.68681e-24)
(0.999991 -2.59513e-05 -2.78086e-25)
(1.24401 -0.0846602 4.64357e-22)
(0.990756 -0.0049535 1.18735e-22)
(0.999981 -4.44739e-05 4.97884e-25)
(0.998808 -0.000845399 4.44744e-23)
(0.99962 -0.000252295 -7.57821e-24)
(1.00027 -4.02206e-05 3.8979e-24)
(0.999695 -1.31087e-05 -1.46653e-24)
(0.973657 -0.102451 5.93175e-23)
(1.15101 -0.0937104 4.18144e-22)
(0.974177 -0.00797994 -1.26823e-22)
(0.999935 -0.000161761 -3.03817e-25)
(1.01826 -0.00616867 -7.5811e-22)
(1.00206 -0.0101427 1.44657e-23)
(1.00209 -0.000141826 -2.31421e-25)
(1.0542 0.105481 2.43982e-21)
(1.00556 -0.0727677 1.00412e-21)
(1.00992 0.0573742 -3.94384e-21)
(0.978621 -0.0647989 8.27392e-22)
(0.995089 -0.0235787 8.32661e-23)
(0.999986 -5.07072e-05 5.66832e-25)
(1.12113 0.00602929 -2.72832e-22)
(0.999699 -1.71824e-05 5.77919e-25)
(1.1438 -0.0213698 -1.80031e-22)
(0.996459 -0.0167383 -3.60474e-22)
(0.829095 0.0608088 -2.16762e-21)
(0.999701 -0.00993542 -1.75324e-22)
(0.999795 -1.60614e-05 -4.99171e-24)
(1.06881 0.107676 -4.41716e-21)
(1.00002 -1.39598e-05 2.89898e-25)
(1.19921 0.0984078 4.06235e-22)
(1.06826 0.10983 6.29337e-21)
(0.941705 -0.0202251 7.15359e-22)
(0.988943 -0.00991447 1.8353e-22)
(1.17686 0.0160958 -5.76715e-22)
(0.99999 -6.07421e-07 -3.08887e-26)
(1.01026 0.15842 1.1567e-20)
(0.995549 -0.00481906 -2.27072e-23)
(0.909757 0.145948 -6.22107e-21)
(0.998541 -8.6495e-05 8.89942e-25)
(1.02225 -0.000519143 -1.01602e-21)
(1.03824 -0.0485925 4.72226e-23)
(1.00019 -2.58793e-05 3.49001e-24)
(1.09389 0.121177 -2.55042e-21)
(1.00012 -9.14296e-05 -7.47921e-24)
(1.00002 -1.1885e-05 1.44854e-25)
(0.987648 0.107506 1.71729e-20)
(0.938532 0.0686356 -2.82141e-21)
(1.00593 -0.00931168 -1.97006e-23)
(0.998519 -0.00657277 -8.38011e-23)
(0.995575 -0.00463183 2.09187e-22)
(1.12588 0.204751 2.5285e-21)
(0.999966 -0.00948032 -6.58848e-23)
(1.00005 -3.43204e-06 -4.93129e-24)
(1.0376 0.0154467 3.06612e-22)
(1.03878 -0.0474067 -5.0452e-22)
(1.00001 -1.22494e-06 9.08805e-26)
(1.00959 -0.0130096 -2.21339e-25)
(0.995486 -0.00488522 -6.73374e-23)
(1.03206 -0.00260561 -2.06509e-21)
(1.00068 -0.00168198 -2.0051e-23)
(1.00469 -0.0720442 -7.63635e-22)
(0.969981 -0.0466572 5.18292e-22)
(0.990817 -0.00482984 7.59313e-23)
(0.99999 -8.06334e-07 1.45094e-26)
(0.997203 -0.000119719 2.82761e-23)
(1.00674 -0.00732027 1.44163e-22)
(0.999986 -5.16135e-05 -7.68131e-25)
(1.09926 -0.0253292 -1.5207e-22)
(0.977636 -0.00056182 -8.27105e-24)
(1.00446 -0.0994878 -5.80873e-22)
(0.976659 -0.00798219 4.39412e-22)
(1.00947 -0.0127998 1.36378e-22)
(0.999393 -3.31982e-05 -6.3366e-24)
(0.997764 -0.0525568 8.35031e-23)
(0.994554 -0.0142584 -1.62985e-22)
(0.999248 -0.000443277 -2.6376e-23)
(1.02402 -0.0112336 3.68294e-22)
(0.990513 -0.0282045 -4.23938e-23)
(1.10097 -0.0257493 3.43802e-22)
(0.993816 -0.0142517 1.98492e-22)
(0.992091 -0.0124309 3.43703e-22)
(1.00492 -0.0109817 -4.07688e-23)
(1.25439 -0.0955483 3.07159e-21)
(0.936928 -0.0159062 -1.21972e-21)
(0.997128 -0.0450466 5.18636e-23)
(1.02727 -0.00273315 -4.39899e-23)
(0.937032 -0.0149746 2.69652e-22)
(0.998199 -0.00221081 3.87847e-23)
(1.00699 -0.0132056 1.98693e-22)
(1.00004 -0.00542661 -9.17525e-24)
(1.01157 -0.00885775 4.93679e-23)
(1.01703 -0.0496089 -3.05538e-22)
(0.981667 0.0973532 -4.76723e-21)
(1.03363 0.0149003 1.37318e-21)
(1.00905 0.0560801 9.31869e-21)
(0.99969 -0.000690765 -5.23649e-25)
(0.996787 -0.00256294 4.18383e-23)
(1.00002 0.000411944 -1.65811e-21)
(1.02468 -0.0200704 5.76238e-22)
(1.24135 -0.0858657 -2.43125e-21)
(0.998257 -0.0022114 1.21245e-23)
(1.00005 -0.00900733 4.51012e-23)
(0.994686 0.0401615 -7.10214e-21)
(0.980894 -0.0167851 8.05228e-22)
(1.10348 0.0266805 -2.62085e-21)
(0.992349 -0.0860302 -6.44874e-22)
(0.936532 -0.0145837 -8.19085e-23)
(0.991614 -0.000220352 -1.99386e-22)
(0.978349 -0.01364 -5.88533e-22)
(1.00467 -0.0329346 -2.26573e-22)
(1.02485 0.0149347 1.87977e-21)
(1.00292 0.0708826 5.6816e-21)
(1.01331 -0.00869167 1.40389e-22)
(0.999987 -2.29019e-05 2.05862e-25)
(0.996908 -0.00219028 3.60193e-24)
(0.972771 -0.0151889 -3.08897e-22)
(0.999438 -0.000768894 -1.351e-23)
(0.999944 -4.18998e-05 7.53655e-25)
(1.02485 -0.00594578 -2.43649e-22)
(1.01346 -0.058307 1.82941e-21)
(0.93661 -0.0136858 6.74001e-22)
(1.01105 0.0575957 -2.41393e-21)
(0.933713 0.0274875 -7.6317e-21)
(0.999992 -2.62007e-05 -3.92435e-26)
(0.999459 -0.0245757 -4.50706e-22)
(0.980714 -0.0170117 -4.00885e-22)
(1.0688 -0.0228775 2.80347e-22)
(1.00524 -0.0107049 1.13044e-22)
(0.934455 -0.003032 4.49204e-22)
(0.999877 -0.000183936 2.07948e-25)
(0.981529 -0.0337987 -2.14741e-23)
(0.983514 -0.0160795 2.43107e-23)
(0.999938 -0.00696056 5.38545e-24)
(0.976733 -0.000721716 2.53899e-22)
(0.999989 -4.16004e-07 4.29856e-26)
(0.958851 0.0919217 7.32493e-21)
(1.00423 -0.0162028 3.65247e-23)
(0.977321 -0.0119179 -6.04817e-22)
(0.992823 -0.0849835 -3.63873e-22)
(0.970692 0.0418681 4.05373e-21)
(1.01659 -0.00430636 -7.59484e-23)
(0.973502 -0.0361713 8.62028e-23)
(1.1178 0.19669 -2.13462e-21)
(0.986136 -0.0269434 -3.83436e-22)
(1.04082 -0.0505759 2.89516e-22)
(1.02455 0.0151234 2.84057e-21)
(1.00032 -2.99302e-05 4.12204e-24)
(1.00064 -0.00818113 -2.98012e-23)
(0.987765 -0.0293902 1.42887e-22)
(0.997102 -0.000186807 -6.38481e-23)
(1.21428 -0.0710028 4.59065e-21)
(1.01586 -0.0356281 3.4491e-24)
(1.00509 -0.100656 7.66492e-22)
(1.15144 -0.0964461 -2.18863e-21)
(0.998491 -7.47278e-05 -4.12506e-23)
(1.00068 -0.00194977 -1.29676e-24)
(1.03814 0.00284874 1.75197e-21)
(0.974999 -0.00189308 -5.1321e-22)
(0.990876 -0.028274 -1.30378e-23)
(0.948734 -0.0339249 -3.79599e-22)
(0.99928 0.0120577 -3.87701e-21)
(0.998918 -0.00116406 -3.40062e-24)
(1.02091 0.00156665 -8.54057e-21)
(1.00003 -0.00228851 -1.08759e-24)
(0.906667 0.137284 -1.12819e-20)
(1.01179 -0.00874529 -2.87939e-22)
(1.16453 -0.0219161 1.62074e-21)
(1.01484 -0.00083818 3.10748e-22)
(1.00021 -4.43955e-06 2.28638e-23)
(1.04089 -0.0796426 5.42825e-23)
(1.0119 -0.0084672 -6.93697e-22)
(0.934855 -0.00257653 -2.75507e-22)
(1.03408 0.0155675 -1.93992e-21)
(1.21599 -0.169409 -1.15657e-21)
(0.994863 -0.0237966 6.52919e-23)
(0.997209 -0.00307997 1.2307e-22)
(1.17402 0.0156249 -5.41231e-22)
(0.998557 -0.000199432 4.44935e-23)
(1.13882 -0.00695018 1.191e-22)
(1.14448 -0.03611 -1.53607e-22)
(0.999944 -2.15985e-05 -3.12308e-26)
(1.02484 -0.0196216 -1.41997e-22)
(1.00012 -0.00531679 -1.47238e-23)
(1.01623 -0.0360284 1.79084e-22)
(0.998997 -0.00283261 -4.94543e-23)
(0.984042 -0.0129686 -1.32919e-22)
(0.971258 -0.0438345 5.09537e-22)
(0.997759 -0.0449822 3.6524e-23)
(0.998344 -0.00871254 1.06623e-22)
(0.979373 -0.0647959 -6.98291e-22)
(0.998187 -0.0529689 -1.98077e-22)
(0.998515 -6.56534e-05 -3.07652e-23)
(1.00002 -0.00129191 9.20272e-25)
(0.973025 -0.0149142 1.67859e-22)
(1.00001 -0.000599623 2.80827e-24)
(1.00927 -0.0065552 4.29058e-22)
(0.960703 0.0908111 4.19764e-21)
(1.02233 0.000651886 -4.20648e-21)
(0.975063 -0.106656 -7.22626e-22)
(1.22774 -0.146242 5.03816e-22)
(0.970798 -0.043598 1.15198e-22)
(0.999989 -2.03639e-05 1.84643e-25)
(1.21167 0.0266034 -8.43622e-22)
(1.01104 0.0567555 -2.32658e-21)
(0.999913 -0.000366674 -5.71761e-26)
(1.01447 -0.00842022 -4.05525e-22)
(0.998885 -0.00131058 -2.94252e-23)
(1.04456 0.00896759 1.05614e-21)
(1.00011 -0.00356652 4.20665e-24)
(1.14772 -0.0360613 -4.41227e-22)
(0.935848 -0.0111331 -3.61538e-22)
(0.992588 -0.0407941 1.65534e-22)
(1.29826 -0.0435674 -1.36951e-21)
(0.995015 -0.0064893 -1.28017e-22)
(0.980884 -0.0420794 -8.78816e-23)
(1.08784 -0.00307524 2.55641e-22)
(1.02007 -0.0437474 4.10518e-23)
(0.977445 -0.0117339 4.0539e-22)
(1.13335 -0.200734 -3.64706e-21)
(1.00709 -0.0130485 -3.47001e-24)
(0.997778 -0.00147418 -3.59544e-23)
(1.07865 0.143295 5.09263e-21)
(1.0993 0.168462 3.4849e-21)
(0.988127 -0.0294425 -3.99898e-22)
(0.998782 -0.00374285 6.81513e-23)
(1.00209 -0.00978398 -8.90159e-25)
(0.99366 0.0444979 -1.12243e-20)
(1.00065 -0.00197463 1.34411e-23)
(0.995709 -0.00444784 1.0723e-22)
(1.21211 0.0133252 2.36477e-22)
(1.06942 -0.0387706 -6.63656e-23)
(0.99988 -0.000188836 -1.69992e-24)
(1.01309 -0.00883476 -1.09493e-22)
(0.832116 0.0577126 3.83344e-21)
(1.09272 0.00585656 -1.35275e-21)
(0.977345 -0.00466484 -6.36491e-22)
(1.0069 -0.00726924 -2.09291e-22)
(1.04087 0.00649099 1.29946e-21)
(0.935334 -0.0106884 6.99976e-22)
(1.2123 0.0296271 1.26317e-21)
(0.997788 -0.00153272 2.55258e-23)
(0.999989 -2.09869e-05 -3.49984e-25)
(0.999708 -0.000733335 7.05584e-24)
(0.998902 -0.0012915 4.6141e-23)
(0.859997 0.0173018 2.49923e-21)
(0.997378 -0.00362875 -8.88419e-23)
(1.10525 -0.0187318 -2.37576e-23)
(0.999947 -2.07214e-05 6.06348e-26)
(0.999223 -0.00111134 -1.27804e-24)
(0.996768 -0.00250849 -5.22667e-23)
(0.989896 -0.010284 -1.7459e-22)
(1.06236 0.000201224 -3.03684e-21)
(1.27765 0.0432698 -6.23695e-22)
(0.985395 -0.00767376 5.60054e-22)
(0.993122 -0.00803004 6.9574e-23)
(1.00138 -0.00256649 -8.07969e-24)
(0.998272 -0.00881654 -6.58497e-23)
(0.897211 0.14274 -1.96207e-22)
(0.974627 -0.0214231 1.04727e-21)
(0.998765 -0.00846115 2.89459e-23)
(1.09183 0.119779 1.32767e-21)
(1.01731 0.0231921 -2.64367e-21)
(1.01176 -0.00825948 6.27287e-22)
(0.99783 -0.00241065 7.12642e-23)
(1.00422 -0.0330848 -2.98649e-23)
(1.00458 -0.0186895 -9.46635e-24)
(1.02549 -0.0391841 -3.25959e-22)
(1.00001 -2.05283e-06 3.43094e-27)
(0.999475 -0.00124263 2.94233e-23)
(1.02987 -0.0295761 -6.97115e-23)
(1.07952 0.0528488 3.11789e-21)
(0.980335 -0.0480095 1.85468e-22)
(1.01288 0.106382 2.76914e-21)
(0.854603 0.0345062 -2.84673e-21)
(1.12576 -0.0315164 7.82193e-22)
(1.00001 -2.02685e-06 2.67455e-26)
(0.988827 -0.000290559 -3.29455e-22)
(0.987316 -0.0182418 2.25623e-22)
(1.00004 -0.00691555 3.03602e-23)
(1 -3.27346e-06 -5.03728e-26)
(1.07586 -0.102973 -1.03162e-21)
(1.20132 0.177598 -7.63926e-22)
(0.975319 -0.00186569 -5.11041e-22)
(0.999559 -2.22417e-05 -8.43221e-24)
(1.14 0.0024115 1.67289e-22)
(1.00334 -0.00468624 1.4963e-23)
(1.00197 -0.00993861 6.38695e-24)
(1.00012 -7.99908e-06 1.04231e-23)
(0.998966 -0.00125843 -2.53927e-23)
(1.0325 -0.0297421 -2.52637e-23)
(0.973171 -0.0358752 6.39938e-22)
(0.996328 -0.0240134 -1.43652e-22)
(0.995881 -0.0162401 -5.24543e-22)
(1.03017 -0.0301229 -6.35581e-23)
(1.00927 -0.006394 -2.22521e-22)
(0.999903 -4.86613e-06 -2.30253e-24)
(1.11857 0.193285 4.39331e-21)
(0.946184 -0.0311407 8.28755e-23)
(1.00143 -0.00331445 -2.68828e-23)
(1.03138 -0.0671623 -3.12395e-22)
(1.03989 0.00851816 -4.83904e-21)
(1.01997 0.0464289 -6.84638e-21)
(0.984544 -0.0128101 2.01301e-22)
(1.01492 -0.00381638 3.92186e-22)
(0.983738 -0.0160536 2.91125e-23)
(0.998529 -0.00165887 -6.68891e-23)
(1.13079 -0.198902 2.25235e-21)
(1.00046 -0.000917209 2.1539e-23)
(1.0001 -0.00523265 2.81205e-23)
(0.984827 -0.00937914 6.09449e-22)
(0.976554 -0.0166938 2.71862e-22)
(0.998493 -0.00178751 7.57463e-23)
(1.03225 0.179823 -2.75504e-21)
(1.02153 0.0557395 5.25201e-22)
(1.17487 -0.183735 1.13072e-21)
(1.08457 -0.054929 8.64144e-22)
(1.00002 -1.26277e-05 -2.79582e-25)
(0.99602 -0.00932417 4.71378e-23)
(1.06566 -0.0257906 8.7758e-23)
(0.994507 -0.000214339 4.52919e-23)
(0.997216 -0.0188695 -2.66967e-22)
(0.997736 -0.00145862 8.98722e-24)
(1.00145 -0.00255989 -2.39134e-23)
(0.997319 -0.00315951 -8.4808e-23)
(0.997143 -0.000774465 -2.37092e-23)
(0.998324 -0.00856054 -3.51466e-23)
(1.00018 -0.00512367 -1.31399e-23)
(1.05062 -0.144482 3.26312e-22)
(1.00004 -1.85866e-05 2.64296e-24)
(1.00899 -0.0060345 -3.86419e-23)
(0.999994 -1.45167e-06 8.2605e-28)
(0.936126 -0.0132922 -9.22916e-22)
(1.00018 -0.000158493 5.96545e-24)
(1.00952 0.128567 6.57773e-21)
(1.09752 0.166186 -1.83314e-21)
(1.03335 0.0354849 -2.33527e-21)
(1.08325 -0.0539604 -5.99961e-22)
(1.02831 0.0402236 -2.35612e-22)
(1.02451 0.000601816 2.35837e-21)
(0.998624 -0.0029244 9.83391e-24)
(1.00134 -0.00132985 -3.12187e-23)
(0.999827 -0.000516416 8.19354e-26)
(0.99634 -0.001862 5.79014e-23)
(0.977835 -0.0118379 2.4012e-22)
(0.995083 -0.00637594 -5.20477e-23)
(0.995864 -0.00936675 1.25667e-22)
(1.02733 -0.0384904 1.35219e-22)
(1.00018 -0.000153627 -7.33148e-24)
(0.99987 -6.65894e-05 -6.32984e-25)
(1.00011 -8.89444e-05 -5.60899e-24)
(0.999367 -0.00193596 2.03621e-23)
(1.02244 -0.000615118 9.61718e-22)
(1.02443 -0.0378552 -2.18191e-22)
(0.984631 -0.00927613 -6.51053e-22)
(1.00001 -0.000583834 -5.80123e-24)
(1.08635 -0.0993674 2.29753e-21)
(1.00066 -0.0018842 4.25583e-23)
(0.999884 -6.61441e-05 -2.38385e-24)
(1.02033 0.0455206 9.75585e-21)
(1.02741 -0.00295163 1.77767e-22)
(1.00115 0.024214 1.67759e-20)
(1.00004 -2.55966e-05 -2.50441e-24)
(1.00004 -0.00043899 0)
(1.00141 -0.00144604 4.63319e-23)
(0.991026 -0.0288239 1.95735e-22)
(0.995979 -0.00536954 -5.67182e-23)
(1.03229 -0.0968908 -6.38105e-22)
(0.975215 -0.000826464 3.40179e-22)
(1.0663 0.0334601 3.85938e-21)
(0.993491 -0.00016469 4.1547e-22)
(1.03448 0.179701 -1.4425e-21)
(1.00068 -0.00185664 -3.09946e-23)
(1.00139 -0.00326745 3.12775e-23)
(1.00137 0.038705 -4.47381e-21)
(1.0801 0.141452 -2.1183e-21)
(1.04579 -0.0806986 -1.77967e-21)
(1.00207 -0.00182301 8.47046e-24)
(0.937437 -0.0162896 1.33456e-21)
(0.993427 -0.000207479 -2.38763e-22)
(1.00004 -2.71616e-05 1.07358e-24)
(1.00899 -0.0062138 4.5137e-23)
(0.946993 -0.0320781 -2.09783e-22)
(0.987541 -0.0289537 -3.26508e-23)
(0.963888 -0.00302625 2.57871e-22)
(1.02761 -0.0393073 8.00257e-23)
(1.09135 0.00516689 2.19336e-21)
(0.999994 -1.71772e-06 9.44666e-27)
(1.00213 -0.00178865 -1.65268e-23)
(1.01814 -0.00642726 5.41446e-22)
(1.0362 -0.0174998 -5.70176e-22)
(1.00032 0.139872 -3.36523e-21)
(0.999998 -2.15269e-06 2.03576e-27)
(0.999948 -2.15075e-05 2.12011e-26)
(1.0014 -0.000125619 -8.22431e-23)
(0.987613 -0.0285643 -3.9701e-22)
(0.999498 -0.000758184 1.11115e-23)
(0.99991 -0.000399498 -1.30382e-24)
(1.10583 -0.0263417 1.8428e-22)
(0.904912 0.0173028 -1.02402e-20)
(1.1491 -0.03355 1.76167e-22)
(1.00242 0.0313837 -4.21474e-21)
(0.983992 -0.00296484 1.45512e-22)
(0.998903 0.0112613 2.49548e-21)
(1.02229 0.00994267 2.92193e-21)
(0.997362 -0.00319664 3.32867e-23)
(1.07351 -0.103236 1.41503e-21)
(0.94663 -0.0191078 1.16217e-21)
(0.996701 -0.0165631 2.57792e-22)
(1.00059 -0.0080687 1.72365e-23)
(0.99738 -0.00594541 7.32655e-23)
(0.998857 -0.000832315 1.35504e-23)
(0.999471 0.0352276 -1.98366e-20)
(0.986576 -0.0267633 -5.68413e-22)
(1.02366 0.126972 3.26571e-21)
(1.02067 -0.0441909 2.86781e-22)
(1.03355 0.0346494 1.30083e-21)
(0.984572 -0.00777462 2.46017e-22)
(0.990092 -0.0103421 -4.56288e-22)
(1.21797 -0.0719336 3.38833e-22)
(1.02262 0.0151724 3.08504e-21)
(0.997887 -0.00242274 -8.02253e-23)
(1.00002 -0.00222086 -3.60173e-24)
(0.999988 -0.00230748 6.07446e-24)
(0.99998 -1.36197e-06 -3.48098e-25)
(1.02277 -0.0382213 4.31709e-22)
(0.973197 -0.0529561 -6.87592e-22)
(1.00017 -0.000377772 -9.00299e-24)
(1.05997 -0.0273596 -8.98324e-24)
(0.999751 -0.000606692 1.1649e-24)
(0.999749 -0.000619841 -6.71064e-24)
(1.00163 -0.000211721 -6.41476e-24)
(1.02152 -0.0436895 -1.7087e-22)
(1.00053 -4.46885e-05 -1.5329e-23)
(1.00102 -0.00650773 -3.89456e-25)
(0.981676 -0.00341065 3.17181e-22)
(0.996809 -0.00462546 4.55444e-23)
(0.996345 -0.00192341 -2.02669e-22)
(0.99252 0.0686764 -2.69409e-20)
(1.10899 -0.0664272 -3.08371e-21)
(1.00798 -0.0117506 1.63489e-22)
(0.992035 -0.0126651 2.58459e-22)
(0.976852 -0.0327583 -8.38244e-23)
(1.00015 -0.00504581 6.48325e-24)
(1.00002 -2.55188e-05 -9.02952e-25)
(1 -2.57007e-06 -1.62977e-26)
(0.967814 -0.00631542 5.03184e-23)
(0.946888 -0.0186714 -1.18546e-21)
(0.976919 -0.0227365 -1.91069e-23)
(1.00002 -2.48752e-05 -2.50938e-24)
(0.988301 -0.00512394 3.63767e-22)
(1.06149 0.000650524 2.84414e-21)
(1.29365 0.0833507 4.51872e-21)
(1.12509 -0.0336658 5.29707e-22)
(0.999954 -3.39276e-06 -3.78779e-25)
(0.97797 -0.0116579 8.02583e-22)
(1.00427 -0.0313822 3.77495e-22)
(1.00008 -7.88122e-06 -6.08158e-25)
(0.999936 -0.000191621 -5.94433e-25)
(0.975354 -0.00061706 -6.24195e-23)
(1.00136 -0.000123787 -2.70341e-23)
(1.00046 -0.00421011 -3.2e-24)
(1.01633 -0.0862085 -2.66316e-22)
(1.00033 -3.07206e-05 -1.22728e-23)
(0.960573 -0.0426279 9.35828e-22)
(0.98157 -0.00355893 -3.21041e-22)
(0.984048 -0.0030906 2.58632e-22)
(0.985597 -0.00778212 9.13762e-23)
(1.00116 -0.00653602 -3.74724e-24)
(0.969612 -0.0235913 9.65527e-22)
(1.00021 -0.000354083 1.11682e-23)
(1.00002 -1.08074e-05 -1.18432e-25)
(1.00398 -0.00408691 5.44357e-23)
(1.05851 0.142079 -2.34823e-21)
(0.972908 0.0392529 2.00766e-20)
(1.00884 0.0385965 3.48808e-21)
(1.02409 -0.0383551 7.82216e-23)
(0.991494 -0.010792 -9.14522e-23)
(1.0074 0.043355 1.87897e-20)
(1.01112 -0.00743474 -8.88187e-22)
(1.00018 -0.000315918 -7.82257e-24)
(1.02003 -0.0010593 -7.33778e-22)
(0.9888 -0.0100748 1.01663e-22)
(1.14081 -0.00808369 5.02535e-22)
(0.99741 -0.00585459 9.06131e-23)
(1.02424 -0.000552343 -2.43983e-21)
(1.00078 -8.37008e-05 2.7543e-23)
(1.00922 0.0381393 2.35765e-21)
(1.00042 -3.81991e-05 -1.87644e-23)
(0.995909 -0.00578887 3.10574e-23)
(0.984766 -0.00784218 -6.7198e-23)
(1.01272 0.0561616 2.42248e-21)
(1.00021 -7.83503e-06 -2.03975e-23)
(0.988248 -0.0300453 5.28154e-22)
(1.03222 -0.0955428 1.22724e-21)
(1.06799 0.0336661 -3.0436e-21)
(0.996095 -0.0362807 -4.02722e-22)
(0.995853 -0.00531754 8.01432e-23)
(1.15234 -0.0810961 9.42278e-22)
(1.00006 -1.33728e-06 -1.92754e-24)
(1.17674 -0.180568 -4.71814e-22)
(0.996659 -0.00472301 4.89672e-23)
(1.01471 -0.00849346 -6.43101e-22)
(0.99136 -0.0288764 1.86685e-22)
(1.00214 -0.000175101 -9.97342e-23)
(1.20113 0.172755 -2.08135e-21)
(1.02134 0.0567068 -5.38472e-21)
(0.963278 0.0734758 9.32905e-21)
(1.02754 0.0398394 7.06305e-22)
(1.07642 0.0821323 2.40106e-21)
(1.14287 -0.0389765 1.2004e-21)
(1.12833 0.207429 -4.609e-23)
(1.0113 -0.00736181 9.86578e-22)
(1.04437 0.0812373 2.92729e-21)
(1.00132 0.0214467 -1.30079e-20)
(1.0004 -0.00425069 -1.03859e-24)
(0.998923 -0.00268861 -2.56157e-23)
(0.978694 0.0340061 -2.16731e-20)
(1.00003 -1.72367e-05 -5.0008e-25)
(1.21821 -0.165592 1.39847e-21)
(1.28648 0.101737 1.34296e-21)
(0.98567 -0.0129937 4.2209e-22)
(1.00081 -0.00172496 -3.03557e-24)
(1.03571 -0.0170952 -1.9918e-22)
(0.998894 -0.00124969 -2.39649e-23)
(1.00137 -0.00134858 -7.70139e-25)
(0.990679 0.0927161 -4.77391e-21)
(0.922702 0.0717175 8.25492e-21)
(0.999881 -6.74571e-06 -1.46595e-25)
(1.00021 -0.000354312 -1.11137e-23)
(1.07106 -0.0348745 5.26772e-23)
(1.00009 -0.00211311 4.38743e-25)
(1.30128 -0.042806 3.21764e-21)
(1.07865 0.138657 -3.50124e-21)
(1.04953 0.0312039 6.63237e-22)
(0.999939 -0.000192931 1.4759e-24)
(0.992558 -0.0504509 1.62021e-22)
(0.994267 -0.0423236 9.02497e-22)
(1.00045 -3.81549e-05 1.20759e-23)
(1.0133 -0.0275865 -7.03325e-23)
(1.03816 0.00227604 9.3441e-22)
(0.92902 0.0697331 -5.29359e-21)
(1.00006 -0.00219622 1.26311e-24)
(0.999999 -2.28921e-06 -7.89448e-27)
(1.04458 0.0799809 2.15831e-21)
(1.01298 -0.0272821 -1.31842e-22)
(0.999879 -7.90318e-06 -3.45147e-24)
(1.02853 -0.0124846 -1.53655e-22)
(1.00547 -0.00995721 -2.89849e-23)
(0.997372 -0.0034703 -8.02258e-24)
(0.99818 -6.48883e-05 1.8422e-23)
(1.24385 -0.142791 1.06456e-21)
(0.986926 -0.00472941 1.48765e-22)
(0.99891 -0.00122884 1.44989e-24)
(0.976849 -0.016723 5.42797e-24)
(1.00022 -0.000341768 1.59182e-23)
(0.999893 -6.91287e-05 1.54637e-24)
(0.999827 -0.00983701 9.97039e-23)
(1.15945 -0.00918449 1.90228e-22)
(0.999813 -5.13842e-05 1.59162e-24)
(0.981695 -0.00380916 -3.84331e-22)
(1.00059 -0.000813703 3.03518e-24)
(0.99641 -0.0358078 -1.76834e-22)
(1.0126 0.0569273 -3.15431e-21)
(0.999904 -0.000370889 6.66537e-25)
(0.837055 0.027637 -6.38393e-21)
(1.06299 -0.0629707 7.21355e-22)
(0.997922 0.0154671 2.78285e-21)
(1.1561 -0.0101877 -2.92088e-22)
(0.999566 -0.000234663 3.64132e-24)
(0.999976 -6.34449e-05 3.08621e-25)
(0.999648 -0.000259089 -6.87079e-24)
(0.996038 -0.00532541 5.49841e-24)
(1.01887 0.00227872 0)
(0.999501 -0.00815869 6.16352e-23)
(0.988716 -0.000366416 7.82188e-23)
(0.988852 0.106323 -1.6391e-20)
(0.948129 -0.0210244 -1.07614e-21)
(0.947675 -0.0208177 9.29037e-22)
(1.03279 -0.028877 7.1726e-23)
(1.05897 -0.0307152 1.48803e-22)
(0.989984 0.0800526 1.66932e-20)
(0.999585 -0.000277645 3.49278e-24)
(0.988587 -0.0301185 1.0742e-22)
(0.985392 -0.0129583 -4.03505e-22)
(1.00017 -0.000155822 8.54968e-24)
(1.01699 -0.0359561 -1.07071e-22)
(1.0006 -0.000782482 -1.47747e-24)
(1.02328 -0.038571 2.07674e-22)
(0.978859 -0.0603404 1.38193e-22)
(0.888159 0.0887355 -1.05943e-20)
(0.958912 -0.0421211 -8.7998e-22)
(0.998289 -0.00197494 1.13539e-23)
(0.984152 -0.0124336 -7.13182e-22)
(1.0047 -0.0183796 7.32361e-24)
(1.09846 -0.00968963 -5.92906e-22)
(1.02488 0.000395747 -3.96043e-22)
(1.00787 -0.034714 5.02946e-23)
(1.00001 -3.59803e-07 -3.08747e-25)
(1.00247 0.03166 5.2889e-21)
(0.989366 -0.00568688 -3.99884e-23)
(0.935501 -0.00971664 6.49549e-22)
(0.999131 -0.00769094 3.93269e-23)
(1.02754 -0.0295006 -2.05844e-22)
(0.983417 -0.0392227 8.63334e-22)
(1.00404 -0.00400653 2.39638e-23)
(1.27227 -0.00118751 4.5197e-21)
(0.999306 -2.88145e-05 2.54441e-23)
(1.01121 0.0961899 8.7335e-21)
(0.999568 -0.0143599 -1.0634e-22)
(1.04021 0.00380002 -4.59364e-22)
(0.964983 -0.00621151 6.08144e-22)
(1.017 -0.0028452 1.10975e-22)
(0.999988 -1.58932e-05 3.96343e-26)
(0.981844 -0.0335705 -5.25244e-23)
(0.981596 -0.00395082 3.62603e-22)
(0.987259 -0.0277911 5.26573e-22)
(1.02848 -0.0129542 -1.08905e-22)
(1.01511 -0.0870202 -2.71528e-22)
(1.00023 -0.000341666 -1.80194e-23)
(1.01276 -0.152 -5.25003e-22)
(0.998833 -0.000852677 -5.53844e-23)
(0.999989 -5.68704e-05 4.16947e-25)
(0.999521 -0.00802174 -6.80305e-23)
(1.00019 -0.000366224 4.61519e-24)
(0.926275 0.0687892 7.17537e-21)
(1.00017 -0.00015286 -7.55263e-24)
(1.01021 0.127576 -2.00494e-21)
(0.983832 -0.0131431 -1.12471e-22)
(1.0164 -0.00230556 -2.08452e-22)
(1.00234 -0.00183559 -8.86422e-23)
(1.07498 0.021584 3.53381e-21)
(1.00324 -0.00474305 -9.81565e-23)
(1.01652 0.0236608 -2.27925e-21)
(1 -3.30502e-06 -2.47005e-26)
(1.01872 -0.0495374 -3.72075e-22)
(0.998973 -0.00392476 2.53943e-23)
(1.00138 -0.00316513 4.75411e-24)
(0.979204 -0.0136814 -1.70865e-22)
(1.00002 -1.43237e-05 1.18178e-24)
(1.21505 0.00600444 1.38689e-21)
(0.936825 0.147219 2.45261e-21)
(1.28309 0.101992 -2.90559e-21)
(1.00018 -0.000307602 1.52211e-23)
(1.12069 -0.104013 -9.85199e-22)
(1.01916 0.00255814 -7.02373e-22)
(0.983427 0.097897 1.17417e-20)
(1.00005 -0.00359531 -2.48586e-24)
(0.999781 -2.40502e-06 -1.35424e-24)
(1.06945 -0.0342582 2.5638e-23)
(1.00013 -0.000112951 -5.37259e-24)
(0.969734 0.0342512 -4.49736e-21)
(1.00456 -0.0311208 1.9937e-23)
(1.20204 0.188172 -1.82075e-23)
(1.07795 0.0524565 -4.13751e-21)
(1.00013 -0.000103962 4.30004e-24)
(0.974806 -0.105301 -6.60771e-22)
(1.00651 0.0284067 -5.13932e-21)
(0.999893 -6.60785e-05 5.5553e-26)
(1.06998 -0.0232757 5.8255e-22)
(0.998526 0.00556533 1.33578e-20)
(0.998158 -8.2247e-05 1.47885e-23)
(1.00194 -0.0102972 -6.22715e-24)
(1.0003 -4.0935e-05 9.34668e-24)
(1.00518 -0.0109123 -6.24784e-23)
(0.984821 -0.00809229 3.09615e-23)
(0.994976 -8.46414e-05 2.66322e-23)
(1.03091 0.130534 -4.36676e-21)
(0.996668 -0.0162311 1.7338e-22)
(0.880401 0.124006 1.8763e-20)
(0.80583 0.0129497 1.7549e-20)
(0.997701 -7.55307e-05 -4.54701e-23)
(1.00003 -0.000335006 -8.81485e-25)
(1.0236 0.125264 -1.85556e-21)
(0.997328 -0.00328978 2.9953e-23)
(0.986695 -0.0032359 7.91749e-23)
(1.0002 -0.000366418 -2.62193e-24)
(1.05166 0.0351186 1.50528e-22)
(0.965271 -0.00621144 -8.73877e-22)
(0.900937 0.0703556 1.31677e-20)
(0.999032 -0.00347472 -3.61382e-23)
(0.99996 -0.000984978 -1.82612e-24)
(0.989389 -0.00582572 1.37714e-22)
(1.29847 0.0571623 4.82878e-21)
(0.993096 -0.0505297 3.10781e-23)
(1.11 -0.0227103 6.7134e-23)
(1.04218 -0.0290056 -2.1057e-22)
(1.02379 0.00990207 -2.43146e-21)
(0.99984 -9.57476e-05 -9.93818e-25)
(1.23021 -0.043925 -1.60794e-21)
(1.00002 -2.43226e-05 -1.64303e-24)
(1.00127 -0.00110795 5.83697e-23)
(0.999994 -1.84848e-06 -2.1043e-26)
(1.17448 -0.176494 -2.75252e-21)
(1.04748 -0.0812342 1.49861e-21)
(1.01938 0.0444065 4.29958e-22)
(0.99998 -1.54595e-06 3.61826e-26)
(0.964613 0.0714184 -2.48749e-20)
(0.999668 -0.000101226 4.21274e-24)
(1.01737 -0.0356013 -1.22234e-22)
(0.999494 -0.000267349 1.25882e-23)
(0.946283 -0.0318015 4.15739e-23)
(0.992207 -0.012866 -4.10268e-22)
(1.09276 0.0183269 1.31552e-21)
(0.999885 -8.49921e-06 4.55233e-24)
(1.0136 -0.0572897 -5.82576e-22)
(1.01397 -0.0274076 -7.0809e-24)
(0.991465 -0.0116232 -3.47626e-22)
(0.999984 -6.14691e-05 -1.33347e-24)
(0.999941 -0.00097718 -1.37483e-24)
(0.999816 -8.38502e-06 5.84028e-25)
(0.977695 -0.0396786 -5.94999e-22)
(1.00135 -0.00263282 2.36694e-23)
(0.999076 -0.000540737 -1.30822e-24)
(0.974984 -0.000198822 5.26089e-22)
(1.00008 -0.0001673 -6.31611e-26)
(1.00024 -0.000331956 1.42028e-23)
(1.00449 -0.0161964 -2.74724e-23)
(0.999573 -0.000236722 2.13308e-24)
(1.00802 0.0442217 -8.29029e-21)
(1.04895 -0.00356843 2.56494e-21)
(1.30491 0.00742432 3.19425e-22)
(0.97983 -0.000599993 -6.72651e-23)
(1.00838 -0.0709388 7.23286e-22)
(0.99999 -8.76242e-07 -1.55092e-26)
(1.15553 -0.0821927 -1.11804e-21)
(0.978201 -0.0601798 -5.92503e-22)
(1.00028 -4.03959e-05 1.41864e-23)
(0.97716 -0.0231326 -2.42741e-22)
(0.998879 -0.00363257 -2.79384e-23)
(0.972138 -0.0163669 2.7399e-22)
(1.12233 -0.151082 -7.44401e-22)
(1.00041 -3.87401e-05 -1.40767e-23)
(1.0221 -0.0440465 5.27564e-22)
(0.999989 -5.87828e-05 -1.66805e-24)
(0.995819 -0.00499541 -5.0566e-23)
(0.999686 -0.000103905 4.02902e-25)
(1.04176 0.0720734 -3.87001e-22)
(0.99385 -0.00150285 -1.3968e-22)
(1.00011 -0.000201084 -1.09227e-25)
(0.999856 -6.65335e-05 1.58979e-24)
(1.01953 -0.00908948 6.47304e-22)
(0.966665 -0.0329168 8.52165e-23)
(0.997366 -0.00332588 -4.74418e-23)
(0.999985 -0.00102064 -4.04775e-24)
(1.02963 0.131915 -5.33576e-22)
(1.00321 0.0696068 3.51017e-21)
(1.00142 -0.00312967 1.26404e-23)
(1.19546 0.132767 -3.15539e-23)
(1.099 -0.113723 2.37086e-21)
(0.948855 -0.0345299 3.47906e-22)
(1.00004 -0.000330146 3.50073e-24)
(0.999989 -2.82923e-07 5.77032e-26)
(1.0596 0.140141 2.99005e-21)
(0.972607 -0.0139656 8.19503e-23)
(1.00008 -0.000166882 -2.73523e-24)
(1.2014 0.0709821 -1.32069e-22)
(0.999249 -0.000426813 1.59686e-23)
(0.99999 -5.62269e-06 1.88582e-26)
(1.07132 -0.00360784 1.90482e-22)
(0.984704 -0.0773497 -2.35105e-22)
(0.959454 -0.0420192 1.1732e-21)
(0.944022 -0.0310826 1.49124e-22)
(0.990312 -0.0268835 -3.93036e-22)
(0.994709 -0.000180296 4.80061e-23)
(0.986833 -0.0033717 -6.43823e-22)
(1.0007 -0.00787073 1.91283e-23)
(1.06503 0.055101 -2.1958e-21)
(0.999819 -0.000522692 -1.71848e-24)