/*--------------------------------*- C++ -*----------------------------------*\
  =========                 |
  \\      /  F ield         | OpenFOAM: The Open Source CFD Toolbox
   \\    /   O peration     | Website:  https://openfoam.org
    \\  /    A nd           | Version:  7
     \\/     M anipulation  |
\*---------------------------------------------------------------------------*/
FoamFile
{
    version     2.0;
    format      ascii;
    class       volVectorField;
    location    "18.5";
    object      U;
}
// * * * * * * * * * * * * * * * * * * * * * * * * * * * * * * * * * * * * * //

dimensions      [0 1 -1 0 0 0 0];

internalField   nonuniform List<vector> 
7807
(
(1.05844 0.120396 6.62669e-21)
(1.04691 -0.0367163 -3.38309e-22)
(0.986145 0.0880963 -1.30271e-20)
(1.02774 0.0579811 1.7689e-20)
(0.999336 -0.000725525 -2.50379e-23)
(0.999973 -4.87729e-06 -1.32941e-24)
(0.984512 0.0709596 -2.50607e-20)
(0.995781 -0.00116739 -5.22148e-24)
(0.999906 -0.000130807 -4.15138e-24)
(1.02004 0.000574271 -7.68662e-22)
(0.999974 -6.44331e-06 1.47512e-24)
(1.00172 -0.00102126 -7.82318e-23)
(0.993559 -0.00138003 2.49433e-22)
(1.01603 -0.0016093 -4.56908e-21)
(1.01946 0.00103625 3.25674e-21)
(0.992118 -0.0121163 -7.00916e-22)
(1.06038 0.12631 -1.39434e-20)
(0.991324 -0.00173814 -8.88487e-23)
(1.00162 -0.00780415 2.2102e-23)
(0.978862 -0.0887162 -7.46878e-22)
(1.02948 -0.0037287 -1.58267e-21)
(1.00112 -0.00057845 1.36114e-22)
(1.01491 -0.00287377 3.69358e-22)
(1.00902 0.0249541 -8.77593e-21)
(0.988493 -0.00213113 -4.037e-22)
(1.05419 0.118397 -6.5527e-21)
(0.999365 -0.000689532 -1.78638e-23)
(1.01963 -0.00152611 1.84564e-21)
(1.00453 0.0126532 -1.11012e-21)
(1.00277 -0.00836774 -2.64158e-23)
(0.988024 -0.0125486 -1.21155e-21)
(0.927149 0.012793 3.43616e-21)
(1.01463 -0.00342216 2.31298e-21)
(0.999634 -0.000277065 2.66198e-23)
(0.999957 -3.00463e-06 2.67033e-26)
(1.01954 0.000400552 1.13124e-21)
(1.00325 -0.0092203 -9.9779e-24)
(0.988855 0.0694226 -3.96612e-21)
(0.996742 -0.00629298 5.75328e-22)
(0.999775 -2.66405e-05 1.89835e-23)
(0.99706 -0.00650786 -6.35712e-23)
(0.992274 -0.0112826 -2.42871e-22)
(1.00512 -0.0986432 3.58387e-21)
(1.1365 -0.0389903 6.11743e-22)
(0.99992 -4.99859e-06 5.29552e-24)
(0.999947 -8.3004e-06 -1.44141e-24)
(1.00105 -0.000475465 -8.32976e-23)
(0.996579 -0.00571043 -3.37488e-22)
(0.999952 -1.86153e-05 -1.34964e-24)
(0.982989 -0.0895386 1.0897e-21)
(1.00253 -0.00090957 8.97373e-23)
(1.01953 -0.000611168 -1.9081e-21)
(0.985281 -0.00241704 -1.3932e-21)
(1.00895 -0.0264854 -5.36817e-23)
(1.01982 -0.00049969 -6.46914e-22)
(0.99624 -0.00179231 -4.8284e-23)
(1.00155 -0.0072772 -1.05483e-23)
(0.995796 -0.000959575 3.21564e-22)
(0.979444 -0.0147035 -2.06728e-21)
(0.999622 -0.000241465 -3.31845e-23)
(1.00003 -1.70133e-05 -9.75399e-25)
(1.00335 -0.000942308 1.02984e-22)
(1.01629 -0.00100343 -1.08433e-21)
(1.00185 -0.000884198 7.92057e-23)
(0.999326 -9.50665e-05 3.94002e-23)
(0.988486 -0.0131159 1.92539e-22)
(0.999926 -0.000131581 3.5621e-24)
(1.00001 -1.72511e-06 -3.32621e-26)
(1.13197 0.068504 2.6421e-21)
(0.996732 -0.00540322 -1.09412e-22)
(0.999948 -1.10112e-05 1.34392e-24)
(0.969959 -0.0497139 -4.7433e-21)
(0.988735 -0.00250654 2.03924e-22)
(0.980638 -0.00267963 2.68227e-22)
(0.991576 -0.00204404 2.81495e-22)
(0.967387 -0.0211673 -4.61575e-22)
(0.989358 0.0899711 2.09531e-20)
(1.02786 -0.00360221 2.02046e-21)
(1.0738 0.00131431 -3.53672e-21)
(0.95537 -0.0382314 -5.39077e-21)
(0.993795 -0.00161826 -3.8328e-22)
(0.997557 0.0425694 2.40748e-20)
(1.03363 0.00540907 4.9591e-21)
(0.977396 -0.00636204 1.37116e-21)
(0.998869 -0.00190106 -4.9697e-23)
(0.998553 -0.000125239 3.37409e-23)
(0.995445 -0.0016334 4.75365e-22)
(0.985402 -0.00289217 8.90038e-22)
(0.999477 -0.000875347 2.85494e-23)
(0.997054 -0.000274311 1.29533e-22)
(1.00473 0.0143673 8.25984e-21)
(1.16658 -0.0228202 -9.39902e-22)
(0.999903 -3.35783e-05 -3.68769e-24)
(1.00126 -0.00614289 -3.95454e-24)
(0.997259 -0.00060223 1.244e-22)
(0.985944 -0.0009325 -2.08289e-21)
(0.97234 -0.0494818 2.71414e-22)
(1.01051 -0.0255058 2.93074e-22)
(0.998763 -0.00182338 1.58131e-23)
(0.999218 -9.30827e-05 1.43087e-23)
(0.957719 -0.00932705 1.03877e-21)
(1.07439 0.00592468 3.02364e-21)
(0.997393 -0.000727097 -3.07038e-22)
(0.999989 -5.71836e-07 -9.16744e-26)
(1.16931 -0.0112694 -7.21441e-22)
(1.02474 0.0254497 -7.9537e-21)
(0.955222 0.0111474 3.95529e-21)
(0.995999 -0.00165714 -1.90935e-22)
(0.999994 -1.49692e-06 3.20408e-26)
(1.02109 -0.0117359 -7.11222e-22)
(1.03091 0.0550971 -2.05506e-20)
(1.0216 -0.0719845 -4.48759e-21)
(0.999992 -1.81191e-06 -4.99828e-26)
(1.02258 -0.012253 -1.5294e-22)
(1.02199 0.0242984 8.37226e-21)
(1.0003 -0.000437959 -4.38352e-24)
(1.06568 -0.0857752 -2.59181e-22)
(1.02527 0.0145115 -1.89294e-21)
(0.982499 -0.0391409 2.10305e-21)
(0.979002 -0.00371145 -3.04438e-22)
(0.96344 -0.00438846 -2.35732e-21)
(1.00033 0.0259742 -1.55524e-20)
(1.0113 -0.0973103 -4.91428e-21)
(1.00774 -0.00660283 4.46959e-23)
(0.961403 -0.00569881 9.02193e-22)
(0.999245 -0.00100935 6.59701e-23)
(0.989288 -0.00930404 3.91174e-22)
(1.00209 -0.00695577 1.2339e-23)
(0.99936 -5.97278e-05 -8.93179e-23)
(0.98816 -0.0114818 2.74062e-23)
(1.2039 -0.0376657 -6.58193e-22)
(1.06869 -0.000803009 6.04509e-22)
(0.99954 -0.000380062 3.00525e-24)
(0.999396 -0.000892179 -5.80854e-23)
(0.976759 -0.0054656 3.85909e-22)
(1.02913 0.048958 7.5205e-21)
(0.995926 0.0192279 2.71475e-20)
(0.999986 -1.30023e-06 -1.06469e-25)
(1.00592 -0.00255523 4.78664e-23)
(0.955413 -0.00550256 -3.12662e-21)
(0.984067 -0.00158195 -1.1026e-21)
(0.986227 -0.056107 -3.37669e-21)
(0.9676 -0.0231895 6.2721e-22)
(0.981927 -0.00236853 -2.6633e-23)
(0.95835 0.00808547 1.49668e-20)
(1.00976 -0.0413405 -1.39215e-22)
(1.0096 0.0149782 -4.19931e-21)
(0.981198 -0.0182579 -1.12966e-21)
(0.978431 -0.00203183 3.14249e-22)
(0.999858 0.0361404 -7.75916e-21)
(1.02012 0.0010233 2.79966e-21)
(1.15381 -0.0260212 1.30902e-22)
(0.998804 -0.00148951 -1.5741e-22)
(1.13727 0.0610223 3.72249e-22)
(1.03193 0.00504613 -5.14202e-21)
(0.998728 0.0735394 -2.04457e-20)
(0.961853 -0.0250133 1.93556e-21)
(0.993833 -0.000930311 8.15958e-23)
(0.947439 0.0497995 3.62178e-20)
(0.999956 -1.5548e-05 -1.27918e-24)
(1.00085 -0.00646806 6.65454e-23)
(1.00932 0.027637 6.35053e-21)
(0.999984 -1.30639e-05 9.17719e-25)
(0.99846 -0.00399101 -2.95933e-22)
(0.996954 -0.000555033 -5.89031e-23)
(1.00279 0.0309426 -2.08196e-21)
(1.00139 0.0247655 7.72495e-21)
(0.939541 0.0546635 1.22423e-20)
(0.998241 -0.00383995 -1.65161e-22)
(0.99812 -0.000138144 -6.24674e-23)
(1.00001 -2.04828e-06 4.3915e-26)
(0.973742 -0.00164186 -3.72725e-21)
(1.00029 -0.000388159 6.15342e-24)
(1.04865 -0.0332008 3.87553e-22)
(1.0061 -0.00281843 3.1415e-22)
(0.976242 -0.00260526 6.20712e-22)
(1.15958 -0.00154596 -3.75387e-22)
(1.08951 0.0672879 2.20861e-22)
(0.999904 -4.22903e-05 2.03091e-24)
(0.999607 -0.000451433 -3.50131e-23)
(1.02846 0.061338 -3.14931e-21)
(0.999957 -1.04976e-05 -5.60839e-25)
(0.999938 -4.9532e-06 8.72609e-25)
(0.983824 0.0758186 -2.09299e-20)
(1.04888 -0.0398975 -6.01364e-22)
(1.00858 -0.059979 -2.42452e-21)
(0.98444 -0.0379523 -2.99355e-21)
(0.980392 -0.00429864 8.52348e-22)
(1.00692 -0.0425261 2.77183e-22)
(0.959819 -0.00369084 1.70341e-21)
(0.999983 -1.17159e-05 -2.89091e-25)
(0.973232 -0.0460941 -1.15743e-21)
(1.09163 0.0742448 -6.04563e-21)
(0.99736 -0.000932289 4.36669e-23)
(1.00005 -4.93388e-06 -9.32308e-25)
(1.06309 0.0694226 6.48981e-22)
(0.999064 -0.000234823 1.07404e-22)
(0.988932 -0.0110485 6.23338e-22)
(1.00436 -0.0400281 9.00566e-22)
(1.00001 -1.53797e-06 1.74015e-26)
(1.00063 -0.00154668 -2.47837e-23)
(1.02604 0.0482117 9.35021e-21)
(1.0789 0.0794963 -8.05996e-21)
(0.996179 0.0641513 -2.74721e-21)
(1.06167 -0.0795084 2.03871e-21)
(1.02529 -0.0685148 1.00245e-21)
(1.11235 -0.115234 -7.3773e-22)
(1.01983 -0.00207642 5.54232e-21)
(1.02414 0.0452055 -2.9746e-21)
(0.999887 -7.28287e-06 -6.12222e-24)
(1.00003 -1.48238e-05 2.10034e-25)
(0.977423 0.00274694 -1.48417e-20)
(0.993346 -0.0108354 -2.38177e-22)
(0.999525 -0.00033412 -2.90186e-23)
(0.975517 -0.0454271 2.40212e-21)
(0.988749 -0.0098301 -4.58282e-22)
(1.00769 0.0690022 -2.29501e-20)
(1.00483 0.0664014 -4.79392e-21)
(0.98342 -0.0575103 8.9318e-22)
(0.921253 0.0263519 -1.33458e-20)
(0.999125 -0.00027887 -8.0515e-23)
(0.991639 -0.00139024 3.0872e-22)
(0.957876 -0.00784662 1.30676e-21)
(1.02808 0.000254448 -1.16043e-21)
(1.00908 -0.124857 -4.59758e-22)
(1.07902 0.119364 -1.39371e-20)
(0.949281 0.0420117 -3.08011e-20)
(1.00004 -7.97541e-05 6.60112e-25)
(1.00769 -0.00613197 1.61779e-22)
(1.02346 0.0165944 1.02732e-20)
(0.996728 -0.00464286 -4.01323e-22)
(1.02749 0.0148864 -1.29571e-21)
(0.999557 -0.000958734 -1.3282e-23)
(0.918329 0.0590813 2.4724e-20)
(0.999914 0.0678975 4.46274e-21)
(0.995473 -0.00135522 2.91163e-22)
(1.00276 -0.00697771 -3.3404e-24)
(0.99978 -3.45333e-05 -3.52668e-23)
(1.11242 0.0953864 3.0949e-21)
(0.999948 -5.70823e-06 2.31759e-24)
(0.995324 -0.00881013 2.03653e-22)
(0.941942 -0.0199003 2.02876e-21)
(0.999947 -1.55896e-05 -5.48526e-25)
(0.998935 -0.00224278 -4.40028e-23)
(0.999648 -0.000933913 1.90155e-23)
(1.05758 0.0417481 7.77209e-21)
(0.999985 -1.71646e-05 1.2585e-24)
(0.997342 -0.00018699 -1.00405e-25)
(0.957754 -0.0381911 6.26969e-21)
(0.9412 0.00701754 -7.54351e-21)
(1.06798 -0.00518881 -7.86646e-22)
(0.934803 0.0366487 1.82819e-20)
(0.99997 -3.85871e-06 -1.19642e-24)
(1.0021 -0.0406687 -2.14352e-23)
(0.999853 -0.00022791 -1.2796e-23)
(0.993956 0.0748432 -2.05934e-20)
(1.00305 -0.000634005 -1.3497e-22)
(0.993936 0.0245005 8.94793e-21)
(1.00204 -0.00841576 3.96554e-23)
(1.00054 -0.00164315 2.11222e-23)
(1.02585 -0.030441 1.62614e-22)
(1.01974 -0.0010439 -5.13038e-21)
(1.00042 -0.000261562 1.51967e-23)
(0.999836 -2.92322e-05 2.22887e-25)
(1.00037 -0.000352469 3.20523e-23)
(0.996545 -0.00493213 -3.65266e-22)
(1.01528 -0.0626614 2.91031e-21)
(0.999969 -6.02329e-06 7.91294e-25)
(0.963551 -0.0239614 1.35355e-21)
(0.997055 -0.000683719 -1.36724e-23)
(0.999895 -2.7028e-05 3.84886e-24)
(0.999507 -0.000423169 9.68032e-24)
(0.987646 0.0419935 2.18019e-20)
(0.995558 -0.000255238 1.13925e-22)
(0.999521 -4.36306e-05 -7.7735e-24)
(0.966819 0.00182825 2.80928e-20)
(0.998819 -0.00214403 -9.3447e-23)
(1.04787 0.0896228 -7.56261e-21)
(0.999838 -0.00020881 2.1113e-23)
(1.00632 -0.0197063 -2.48551e-22)
(1.00001 -1.09253e-06 5.24681e-27)
(0.982546 -0.0310468 -1.11861e-21)
(1.02761 0.00011659 1.81739e-21)
(1.16129 0.00779835 2.73206e-22)
(0.979547 -0.016038 1.76663e-21)
(0.99967 -0.00045917 4.19911e-23)
(0.978074 -0.0746721 1.62971e-21)
(0.997227 -0.000120111 5.29864e-22)
(0.999902 -9.87189e-06 3.62419e-25)
(1.00035 -0.000306756 -2.83341e-23)
(0.998222 -0.00279673 1.36774e-22)
(0.994317 -0.000700141 -3.48931e-22)
(1.0024 -0.000780623 -1.49606e-22)
(0.998973 -0.0015136 5.56447e-23)
(0.978611 -0.00592279 2.19719e-22)
(1.01975 -0.0604643 -2.08738e-21)
(0.979237 -0.00465851 9.23476e-22)
(1.12973 -0.031244 -1.36683e-22)
(0.973626 -0.00456568 -1.18042e-21)
(1.00715 0.0900502 2.36155e-21)
(1.00312 0.0921053 -1.73802e-20)
(0.99881 -0.000538273 -7.65019e-23)
(1.18338 0.00638605 -2.41141e-21)
(0.999988 -2.00004e-06 -6.42884e-26)
(0.998153 -0.00350568 -1.72756e-22)
(0.98928 -0.000550515 2.10997e-21)
(1.00691 0.0223377 5.25006e-21)
(1.03484 0.00942731 -4.91402e-21)
(1.00007 -2.65549e-05 2.44111e-24)
(0.998264 -0.00330277 -1.41116e-23)
(0.973549 -0.00548853 8.89886e-22)
(1.04422 0.0356831 -3.07975e-21)
(0.999192 -0.000921489 4.55832e-23)
(1.00266 -0.00066566 8.85746e-23)
(1.00095 -0.000811284 -6.14783e-24)
(1.1134 0.0232196 3.20685e-21)
(1.20338 -0.0504555 -4.2684e-21)
(1.02334 0.111993 1.14827e-20)
(0.998897 -0.000112724 -6.55504e-23)
(1.05764 -0.0380289 7.33957e-22)
(0.999915 -4.66042e-05 -3.50234e-24)
(1.0038 -0.00620544 -2.38646e-22)
(0.999961 -7.9032e-06 -3.89436e-25)
(0.986209 -0.0179725 3.23397e-22)
(0.999748 -4.0531e-05 -6.83927e-24)
(1.01031 -0.0194041 6.65296e-23)
(1.20693 0.00921629 2.99274e-21)
(0.974421 -0.0234592 2.25064e-21)
(1.0074 -0.0192 4.17388e-23)
(1.0069 -0.00548229 -1.99399e-22)
(0.999485 -6.5154e-05 3.58548e-23)
(1.02313 -0.0158205 5.00719e-22)
(0.996457 -0.0164126 4.1178e-22)
(1.06896 0.0102314 -1.89709e-21)
(1.05302 0.039648 3.48849e-21)
(1.1641 -0.126793 8.76979e-23)
(1.13367 -0.0483054 -2.12433e-21)
(0.994965 -0.000175944 -5.79449e-22)
(1.00407 -0.00308737 2.85545e-22)
(0.944401 -0.0188149 -7.61045e-22)
(0.932588 0.0523395 -3.74793e-20)
(1.11439 -0.0494262 2.34853e-21)
(1.02324 -0.00958071 -2.18391e-21)
(0.923043 0.030889 -1.84206e-20)
(0.999029 -6.20532e-05 3.22328e-23)
(0.998596 -0.000672901 -2.43859e-23)
(1.15056 -0.0361084 -1.98782e-21)
(0.999081 -0.00165141 -3.67282e-23)
(1.0101 -0.0384005 2.8276e-22)
(1.00472 -0.001555 1.05986e-22)
(0.998056 -0.000189276 -5.25063e-23)
(0.998532 -0.000170745 -8.33292e-23)
(1.02761 0.0217529 6.07676e-21)
(0.999946 -0.000112637 -8.66058e-25)
(1.00041 -0.00020903 -1.35884e-23)
(1.00006 -1.0696e-05 1.60365e-24)
(0.997407 -0.000352244 2.97096e-22)
(0.994341 -0.00757491 5.1141e-22)
(0.999988 -1.30849e-06 6.77154e-26)
(0.999167 -0.000140855 8.52586e-24)
(0.980506 -0.0139157 6.03052e-22)
(0.968946 0.00579005 9.35019e-21)
(1.00905 -0.0201992 1.89774e-22)
(0.993429 -0.010107 8.80055e-22)
(0.964099 0.0438243 4.25214e-21)
(1.00047 0.0259729 1.39351e-20)
(1.05927 8.39088e-05 -1.46074e-21)
(1.17457 0.0119607 6.91909e-22)
(0.979577 -0.00123771 1.97887e-21)
(1.00403 -0.00354974 -1.37508e-22)
(1.00702 0.0364443 -7.81818e-22)
(0.991436 -0.00108957 -7.21228e-22)
(1.02997 0.0873954 3.48271e-22)
(1.00647 -0.0457895 4.24388e-23)
(1.03246 -0.111251 -1.77562e-21)
(1.07457 0.0761769 4.95878e-21)
(1.03182 0.0928067 -9.89418e-21)
(0.965427 -0.0201623 2.90688e-21)
(1.03583 0.00767492 -3.14042e-21)
(1.08362 0.12411 1.3099e-20)
(1.04236 0.0896022 1.42895e-20)
(1.02064 -0.00188092 1.74115e-21)
(0.997518 -0.00103419 7.25559e-23)
(0.996494 -0.00163396 6.68919e-23)
(0.999934 -1.41033e-05 -1.29314e-24)
(1.01435 -0.0252743 -7.34605e-23)
(0.991896 -0.000837468 1.71404e-22)
(1.00076 -0.00196045 -2.25981e-23)
(0.999923 -1.29238e-05 -2.47363e-24)
(0.99871 -0.000480021 3.00542e-23)
(0.975442 -0.0732884 -2.69327e-21)
(1.09755 0.0338338 1.72908e-21)
(0.984845 -0.00386225 -1.05607e-21)
(0.99902 -0.0106892 5.18013e-22)
(0.997123 -0.000378356 -1.6477e-22)
(1.05494 -0.0404825 -6.68117e-23)
(0.994436 -0.000792673 -5.60466e-22)
(1.00183 -0.00628053 4.30424e-23)
(1.09642 0.118727 2.09501e-21)
(0.998658 -0.000171432 -1.9342e-22)
(0.999983 -3.3627e-05 -1.23602e-24)
(0.999955 -0.000136622 -8.26354e-25)
(1.00003 -8.14494e-05 1.65558e-25)
(0.980913 -0.00512838 5.00204e-22)
(1.02618 0.019783 -7.14079e-21)
(0.997256 -0.000217787 6.49502e-24)
(1.01972 -0.00824529 1.40979e-21)
(1.0171 -0.130704 3.43693e-21)
(0.990613 0.0647399 -3.41657e-22)
(1.00319 -0.00636006 6.95785e-23)
(1.00546 -0.0040076 -5.12292e-23)
(0.995715 -0.00181151 -2.36647e-22)
(0.991789 0.0424763 -2.1355e-20)
(0.999321 -5.18316e-05 2.46789e-23)
(1.02657 0.116162 -5.82927e-21)
(1.00763 0.0155922 -8.12466e-21)
(0.999915 -1.75363e-05 3.01021e-24)
(1.00447 -0.046586 -1.44306e-21)
(0.997391 -0.000431629 -1.45212e-22)
(0.989569 -0.0571493 4.15914e-21)
(1.00043 -0.000111009 1.38191e-23)
(1.05488 0.00250487 2.089e-21)
(1.00582 -0.0142152 1.7688e-24)
(1.0051 -0.00356382 1.52531e-23)
(0.999375 -8.0369e-05 -4.91776e-23)
(1.0623 0.039485 3.74898e-21)
(1.04023 0.0340648 1.22059e-21)
(1.00637 -0.0626751 2.32541e-21)
(0.981025 -0.016709 -1.16043e-22)
(0.998115 -0.00299004 -1.14357e-22)
(0.999244 -0.0366796 -2.62045e-21)
(1.1326 0.0517684 -3.21777e-21)
(0.921772 0.016945 -1.68741e-20)
(1.07987 -0.0736068 -2.03608e-21)
(1.00419 -0.00672085 -2.26617e-23)
(0.999995 -1.98773e-06 -2.87723e-26)
(0.988465 -0.00326201 -8.25048e-22)
(0.998372 -0.000184501 1.84225e-22)
(1.02204 -0.0158437 7.00233e-22)
(1.00145 -0.103609 -1.42748e-21)
(1.18222 -0.00652686 1.21136e-21)
(0.982385 0.0592835 -2.7068e-20)
(1.04792 0.0329627 5.02296e-21)
(1.11418 -0.103587 3.14141e-21)
(1.06268 0.0754879 2.13948e-21)
(0.998797 0.0250138 2.51141e-20)
(1.01663 -0.00228752 1.19697e-21)
(1.00092 -0.00189848 5.61485e-23)
(1.01901 0.0507071 4.67283e-21)
(0.999249 -0.0016147 7.85409e-23)
(0.999857 -0.000121047 4.25878e-24)
(0.989893 -0.00061947 2.52308e-22)
(1.00007 -2.56055e-05 4.36625e-25)
(1.12194 -0.123605 1.69933e-21)
(1.00299 -0.0156918 -2.26609e-22)
(0.984636 -0.030649 1.95754e-21)
(1.00148 -0.00130822 3.73552e-23)
(1.05799 0.0661383 1.11243e-20)
(0.998704 -0.000160703 -1.46114e-23)
(0.999981 -2.65456e-05 -7.14355e-26)
(1.02533 -0.116045 1.93052e-21)
(1.0013 -0.00111729 -2.17957e-23)
(1.09702 -0.00445455 -4.58198e-22)
(0.960046 -0.00871703 5.00533e-22)
(0.947113 -0.0092799 1.81742e-22)
(1.18714 0.0537814 -6.87664e-23)
(1.02136 0.0157117 -2.69093e-21)
(1.0182 0.00449247 1.63389e-21)
(1.01711 0.00421037 -6.46848e-22)
(0.999852 -2.14879e-05 1.18409e-24)
(1.10512 0.0332889 1.33393e-21)
(1.06933 0.0140629 2.18055e-21)
(0.999578 -0.000490465 1.6162e-23)
(0.985395 -0.00440628 1.2174e-21)
(1.00047 -0.000166377 -1.54027e-23)
(1.01026 -0.0178008 -1.759e-22)
(1.0073 -0.0255455 -1.59157e-22)
(1.00364 -0.00116706 1.55099e-24)
(0.999358 -0.00100163 -8.0811e-23)
(1.1113 0.0877117 -9.59561e-21)
(0.999983 -1.55418e-05 -1.30911e-24)
(1.00016 -8.50816e-05 -3.09089e-24)
(1.00159 -0.000878564 -1.83118e-24)
(0.985396 -0.00126819 7.6978e-22)
(1.01642 -0.00985081 9.12553e-22)
(0.98416 -0.0253828 -2.62918e-21)
(0.979992 -0.00240735 -4.51899e-22)
(1.01183 -0.0593074 1.36634e-21)
(1.03663 -0.140826 -3.73973e-21)
(1.0241 -0.0277976 -1.19668e-23)
(1.0227 0.0516457 -2.68247e-20)
(1.19714 0.0151572 -2.10425e-21)
(0.994462 -0.00174293 -3.66022e-23)
(0.916328 0.0530553 2.91292e-20)
(0.974701 -0.0517065 4.2008e-21)
(0.994041 -0.00806422 1.65191e-22)
(0.981926 -0.00191758 7.59982e-22)
(0.997534 -0.0158519 -1.06769e-22)
(0.988124 -0.000943499 1.14307e-21)
(0.991413 -0.0026461 -2.34432e-22)
(1.02366 -0.011342 -1.45827e-21)
(1.12256 -0.0530689 -5.29415e-22)
(0.99998 -3.12053e-05 -1.61443e-25)
(1.02015 -0.0108884 -1.78218e-22)
(0.999928 -1.82473e-05 -1.50324e-24)
(1.0024 0.0766216 5.48223e-21)
(1.13343 0.0747497 6.24617e-21)
(0.996013 -0.00132045 7.63943e-23)
(0.991426 -0.000641014 -9.82233e-22)
(0.99986 -3.1608e-05 -8.06677e-24)
(0.997127 0.0397636 1.59431e-20)
(1.02018 0.0904615 1.31065e-20)
(1.10761 0.0251579 -1.70504e-21)
(1.11692 0.113414 -8.19602e-21)
(0.974471 -0.0552405 -1.86693e-21)
(0.998778 0.00653708 -2.31177e-20)
(0.99995 -9.89742e-05 2.51536e-24)
(1.04319 -0.0240158 1.24368e-21)
(0.991786 -0.000515123 -3.51314e-23)
(1.0822 0.0647427 -2.23914e-21)
(0.943052 0.0356944 -2.21229e-20)
(1.13646 0.0449506 3.47241e-21)
(1.04312 0.0269998 8.51543e-22)
(0.99963 -0.0105973 -1.19135e-22)
(0.999847 -5.41932e-05 -7.95529e-24)
(1.11957 0.0986651 3.31827e-21)
(1.19076 -0.0296228 7.03006e-22)
(0.994002 0.0446821 -5.23247e-22)
(1.09003 -0.00572875 2.53774e-21)
(1.02602 0.0418156 7.81288e-21)
(0.994168 -0.00147851 -1.08154e-22)
(0.988171 0.0602013 7.4408e-21)
(1.02444 0.0862193 4.5869e-21)
(0.992432 -0.00220447 -6.53855e-22)
(0.993691 -0.00211133 -2.44974e-22)
(1.13054 0.0891604 1.17728e-22)
(0.948424 -0.00830309 -3.17361e-21)
(0.999932 -0.000115241 -3.80724e-24)
(0.988962 -0.00366402 1.07764e-21)
(0.942824 -0.0141347 2.49196e-21)
(0.986287 -0.072129 -5.68503e-22)
(1.00797 -0.00215361 -9.25343e-22)
(1.00689 -0.00497123 5.1796e-23)
(0.9999 -0.000143139 -6.51806e-24)
(1.02156 0.0958937 -1.98278e-20)
(0.999965 -0.00956557 2.32397e-23)
(0.999922 -4.03544e-05 1.54081e-24)
(1.01956 -0.0552395 1.78102e-21)
(0.999605 -0.000311294 1.22965e-23)
(0.999831 -4.69197e-05 6.07106e-25)
(1.00423 -0.0103813 -1.9914e-23)
(1.04746 0.0652838 1.52109e-20)
(1.0171 -0.102673 2.64183e-21)
(0.95731 0.0392308 1.31445e-20)
(1.00005 -7.85252e-06 -1.10488e-24)
(1.05215 0.0691109 -1.58671e-20)
(1.01253 -0.0469079 1.28752e-21)
(0.999937 -0.000141381 -1.0751e-24)
(1.00002 -4.52495e-06 -5.8795e-26)
(1.00268 0.00976722 -1.33636e-21)
(1.04405 0.0559348 5.6191e-21)
(0.996732 -0.0017584 6.9362e-23)
(1.04086 0.0431401 -7.10175e-21)
(1.00002 -1.47769e-05 1.11323e-25)
(1.04075 0.0479291 -9.95328e-21)
(1.14862 -0.128902 4.15313e-21)
(0.992098 -0.00187122 7.03153e-22)
(0.999218 0.0120292 -3.21549e-20)
(0.976029 -0.0424866 2.73596e-21)
(1.1211 0.107579 7.94811e-21)
(0.982277 -0.00180653 4.19091e-22)
(1.04472 0.0508681 1.29969e-20)
(1.04837 0.0592406 -4.06188e-21)
(0.985921 -0.00586079 1.8505e-21)
(0.981375 -0.00704143 -1.3647e-21)
(0.995476 -0.00814328 5.13084e-22)
(0.997796 -0.000425722 -4.98778e-23)
(0.999845 -0.000135373 1.14005e-23)
(0.999788 -0.00910738 -4.06765e-23)
(1.03402 0.0824751 -2.31021e-21)
(0.999979 -2.41282e-05 3.71121e-25)
(1.03683 0.0409379 9.4113e-21)
(1.03143 -0.102575 4.25923e-21)
(1.00256 0.048411 6.39593e-21)
(1.03681 0.0368707 -1.06188e-20)
(0.942573 -0.0124431 -3.60158e-22)
(0.960183 0.0545604 -2.81579e-20)
(0.998735 -0.000835925 3.49989e-24)
(1.01406 -0.0231911 5.25708e-23)
(1.05 -0.0728172 1.15254e-21)
(0.98851 -0.000798337 -7.6918e-23)
(0.994734 -0.00234939 3.28593e-22)
(1.00992 -0.0481965 -1.10088e-21)
(1.0493 -0.0161279 -1.44372e-22)
(0.931225 0.0282093 3.43626e-20)
(1.00003 -1.44029e-05 9.52994e-25)
(0.998507 -0.000882466 6.03076e-23)
(1.01702 -0.0712042 6.7927e-23)
(1.00001 -3.60953e-06 -2.38669e-26)
(1.00226 0.0822576 2.71633e-21)
(1.00133 -0.000958158 0)
(1.00001 -4.68306e-06 -2.32052e-26)
(1.00014 -6.66659e-05 7.06273e-24)
(1.0003 -9.22478e-05 1.76534e-25)
(0.986571 -0.0167126 1.6782e-21)
(1.01968 -0.0149038 -5.01504e-22)
(0.998806 -0.000632808 9.25441e-23)
(0.999941 -9.00112e-06 2.63818e-24)
(0.994402 -0.00214387 1.7457e-22)
(1.00363 -0.0108268 1.26196e-23)
(0.989811 -0.110239 -3.85547e-21)
(0.970258 -0.00218053 2.17691e-22)
(1.01577 -0.00876549 1.67736e-21)
(0.999984 -1.18162e-06 6.16387e-25)
(1.10047 -0.149743 5.26007e-21)
(0.989434 -0.00224504 -4.12607e-22)
(1.11789 0.0807822 -5.26341e-22)
(1.00017 0.0112615 -4.58613e-21)
(1.00092 -0.00287382 6.52568e-24)
(1.10641 0.0702436 -8.7052e-21)
(1.00011 -7.24894e-05 7.17217e-26)
(0.989807 -0.002697 6.5381e-24)
(1.02013 0.000738187 -3.2391e-21)
(0.994726 -0.00274278 -1.34876e-22)
(1.0481 0.0778967 -8.83731e-22)
(0.989479 -0.00476769 -8.34562e-22)
(1.04449 -0.0216582 -1.1934e-21)
(1.02063 0.001386 -3.50354e-21)
(1.0526 0.0350578 -2.19931e-21)
(1.0061 -0.0130512 -1.0098e-22)
(0.991818 -0.0029516 1.90858e-23)
(1.06934 0.0661431 6.92016e-21)
(0.979158 -0.0794117 -3.20107e-21)
(0.992093 0.0794218 2.26623e-20)
(0.992721 -0.00352244 -7.99371e-22)
(1.04949 0.101255 -1.21345e-22)
(0.992748 -0.00300415 2.14686e-22)
(0.999124 -0.000348732 -6.20967e-24)
(1.04273 0.0241617 2.34945e-21)
(1.01271 -0.0265405 1.4793e-22)
(1.03105 0.00257783 4.82509e-21)
(1.00136 -0.000683706 2.47878e-23)
(1.00001 -3.52593e-06 -1.12888e-26)
(1.00238 -0.127329 1.44529e-21)
(1.09492 0.112512 -1.14511e-20)
(1.00112 -0.00278947 -1.6498e-23)
(1.11499 0.0722173 8.09969e-22)
(0.99009 -0.00443109 -5.47228e-22)
(1.0912 -0.156955 -1.95114e-21)
(1.04204 -0.037081 -1.5654e-22)
(0.983716 -0.0271148 1.50632e-21)
(0.998712 -0.000714765 -4.03738e-23)
(0.994768 -0.0003939 -1.34895e-22)
(0.973467 -0.0666035 -1.84651e-21)
(0.97544 -0.00587464 1.84058e-21)
(0.99233 -0.00271976 5.41785e-22)
(0.99988 -0.000333628 8.0464e-24)
(0.985147 0.0833908 -2.82669e-21)
(1.10366 0.0624028 5.25562e-21)
(1.0209 -0.00909144 -5.5081e-22)
(0.999852 -0.000102993 7.07487e-24)
(1.02282 0.0809582 -8.76121e-21)
(1 -1.74787e-05 -2.10659e-25)
(0.999864 -9.14699e-05 1.33836e-23)
(1.09556 0.0608684 4.51318e-21)
(1.00881 -0.0219708 -1.17038e-22)
(1.10423 0.101652 9.24072e-21)
(1.01989 -0.00251707 1.29931e-21)
(1.01433 -0.0109742 -8.87442e-23)
(1.08896 -0.0601518 1.24747e-21)
(1.05377 -0.128505 4.18409e-21)
(1.18729 0.046088 -1.63309e-22)
(1.00096 -0.000682703 -5.14085e-23)
(0.960472 -0.0102502 -1.72916e-22)
(0.999985 -4.17251e-05 -4.01838e-25)
(1.00396 -0.0094591 1.72212e-23)
(1.052 0.0747274 5.76887e-21)
(0.986715 -0.00547776 1.28058e-21)
(0.99784 -0.00103025 8.3835e-23)
(1.0129 -0.037079 -8.7494e-22)
(0.99849 -0.000762664 4.17222e-24)
(0.999672 -0.000836026 2.53625e-23)
(0.968421 0.00320958 5.8328e-21)
(0.992261 -0.0038027 -4.55077e-22)
(0.999577 -0.000538073 -5.52779e-23)
(0.999993 -3.01046e-07 -9.74544e-26)
(1.01454 0.00537417 7.13101e-21)
(0.975273 -0.0217764 -3.21312e-22)
(0.999745 -0.000408302 1.73041e-23)
(0.99789 -0.000530028 1.01765e-22)
(1.01963 0.0175087 2.94344e-21)
(1.05933 0.00983753 5.1922e-22)
(0.965526 -0.0179688 -1.81995e-21)
(1 -1.09588e-05 -2.70323e-25)
(1.00124 0.0112252 1.93871e-20)
(0.987889 -0.0143973 -1.12854e-21)
(1.05824 0.060226 -1.10872e-20)
(1.01042 -0.00110885 -1.48591e-21)
(1.01206 -0.00106914 3.4577e-21)
(0.973337 -0.00782891 2.56041e-21)
(0.999931 -4.37701e-05 -1.03395e-24)
(1.01996 0.00019871 -6.55396e-22)
(1.06384 0.007553 -6.7977e-22)
(1.16513 0.0509627 2.1299e-21)
(1.0378 -0.0973575 9.5225e-22)
(1.0316 0.0773798 6.91411e-21)
(1.00458 -0.00139323 -2.22737e-23)
(1.0754 0.0699049 -9.52274e-21)
(0.999664 -0.0124478 -1.85045e-22)
(1.01575 -0.05293 -2.99156e-21)
(0.999714 -0.00010683 -1.27411e-23)
(1.00239 -0.0167296 4.52118e-22)
(0.999913 -0.000321291 4.96751e-24)
(1.03929 0.0294214 -6.98469e-21)
(1.06621 0.110644 -2.10571e-20)
(0.998851 -0.00087172 3.18279e-23)
(1.01551 -0.0110923 -6.82387e-24)
(0.98624 -0.00268532 4.28694e-22)
(1.04152 -0.0842304 4.38327e-22)
(1.03605 -0.0897435 -2.13391e-21)
(0.998577 -0.000580469 5.99563e-23)
(1.04003 -0.0245475 -3.68296e-22)
(0.986379 0.00133999 -9.67513e-21)
(1.16143 0.0331584 1.09913e-21)
(0.999957 -0.000121199 6.24394e-24)
(1.05512 0.00724396 -1.83246e-21)
(0.997412 -0.00745926 -2.7693e-22)
(0.998574 0.0014085 2.12891e-20)
(0.99015 -0.00375457 7.42682e-22)
(0.995826 -0.0233942 -3.81612e-22)
(1.01524 -0.0326895 -1.72063e-23)
(0.99451 -0.0241953 -3.27527e-23)
(0.998284 -0.0185133 -9.43418e-22)
(0.994015 -0.0023344 1.19298e-22)
(0.998914 -0.0123024 5.28336e-22)
(1.00143 -0.00527076 -1.14898e-23)
(1.05068 -0.0195294 3.59999e-22)
(1.00008 -1.9669e-05 -3.54887e-24)
(1.18801 -0.091507 -1.63383e-21)
(1.14705 -0.00565928 -2.09929e-22)
(1.01091 0.092174 1.61419e-20)
(0.967409 -0.0169783 2.6975e-21)
(1.09616 0.0972046 -4.7057e-21)
(1.00147 -0.000537732 9.13949e-23)
(1.06551 -0.0714238 -1.81274e-23)
(1.00339 -0.034833 -1.03666e-21)
(1.01671 0.0303585 8.57392e-21)
(0.994379 -0.00297396 3.25084e-22)
(1.00008 -0.000138524 1.79088e-24)
(0.988446 -0.0150973 1.4827e-21)
(0.996213 -0.00793718 -1.95383e-22)
(1.0373 -0.0223243 1.02348e-21)
(0.977819 -0.00411383 -1.50513e-21)
(0.980511 -0.00633614 4.61177e-22)
(1.11811 -0.032019 -8.65852e-23)
(0.98915 -0.00154356 -6.69774e-22)
(1.01287 -0.0342288 6.37047e-22)
(0.987807 -0.0767884 2.36793e-21)
(1.00001 -5.73898e-06 -2.43672e-26)
(1.05186 -0.0124794 2.29649e-21)
(0.989753 -0.0683937 -6.32893e-21)
(1.10219 0.0843325 4.25895e-21)
(1.08942 -0.0671826 -2.33909e-21)
(1.02973 0.00213445 3.95069e-22)
(1.02406 -0.0989828 -5.46074e-21)
(1.02929 0.103228 4.3646e-21)
(1.03105 -0.0325153 -7.37514e-23)
(0.972589 -0.00686645 -1.5089e-21)
(1.01266 -0.0434851 -1.57973e-21)
(0.989097 0.00196706 9.34608e-21)
(1.15036 -0.0956904 1.05885e-21)
(0.989637 -0.00337274 -2.30568e-22)
(1.02575 -0.125622 -4.15269e-22)
(1.02391 -0.0627897 2.06547e-21)
(1.04112 -0.114993 -7.19835e-22)
(1.03912 -0.0774828 -2.30581e-21)
(1.06912 0.0599376 8.65801e-21)
(0.997848 -0.00121114 5.03855e-24)
(1.00635 0.0349978 3.18985e-21)
(1.00614 -0.00131591 1.587e-22)
(0.999698 -0.000411225 -2.34175e-23)
(0.999023 -0.00184829 2.10167e-22)
(1.05117 0.00122228 -6.08862e-22)
(0.986513 0.000209403 2.71188e-22)
(1.00112 -0.00562995 -1.95739e-23)
(1.01585 -0.0490142 4.20287e-22)
(1.01968 0.0199772 -4.90542e-21)
(1.00002 -5.57388e-06 -3.05263e-26)
(0.982381 -0.00660595 1.07772e-21)
(1.01858 -0.00844685 1.22633e-21)
(1.06831 -0.0375761 -2.91191e-22)
(1.00623 -0.000719293 9.01918e-22)
(0.998729 -0.00160853 3.48826e-23)
(0.984308 -0.0352533 2.03253e-23)
(0.997988 -0.00719185 -1.03708e-22)
(1.00002 -4.29792e-06 3.77031e-25)
(0.978197 -0.0416917 -4.63884e-21)
(1.0403 0.0724165 -2.39619e-21)
(1.01695 -0.028491 2.22878e-22)
(0.986539 -0.00328835 -7.64943e-22)
(1.00135 -0.000341817 -3.25371e-23)
(1.0222 0.0217197 6.4609e-21)
(0.999697 -0.000499102 -1.09404e-23)
(0.999056 -0.000472555 -4.09468e-24)
(0.999737 -0.00012013 -1.23432e-23)
(0.99937 -0.00174563 -6.06643e-23)
(1.15263 0.0518921 2.1736e-21)
(1.02496 -0.0327004 -8.39714e-22)
(1.00643 -0.016512 -6.84293e-23)
(0.985195 -0.00534454 -3.76842e-22)
(1.00003 -3.97787e-05 4.1905e-25)
(1.07306 -0.122154 5.65269e-21)
(1.19241 -0.0140731 8.69795e-23)
(1.0794 -0.132104 -2.69905e-21)
(0.996509 -0.0302004 -7.28445e-22)
(1.01118 -0.00810008 1.03569e-21)
(0.999846 -6.86972e-05 5.1485e-24)
(0.990266 -0.0095423 -5.43042e-22)
(0.959794 -0.0410187 -2.49958e-21)
(1.151 0.0350647 3.77291e-22)
(1.00155 0.046827 -2.17053e-22)
(0.999012 -0.00265469 5.139e-23)
(0.948298 -0.0253186 1.24215e-21)
(0.996256 -0.00210325 -3.02289e-22)
(1.02915 -0.029961 1.7383e-22)
(1.08073 0.0576978 9.06995e-22)
(1.00032 -0.000110147 -1.99237e-23)
(0.999881 -0.000163485 -2.84598e-24)
(1.1284 0.0953558 8.8126e-22)
(1.14624 0.0170871 3.01353e-23)
(1.01508 -0.0137344 3.53636e-22)
(0.997695 -0.00132498 1.50874e-22)
(0.99847 -0.000265512 -1.27198e-23)
(0.966524 -0.042523 6.22863e-22)
(0.999864 -0.000276177 -1.02542e-23)
(1.01491 -0.0300617 -5.65737e-22)
(0.992586 -0.000483374 1.33097e-21)
(1.0004 0.013441 -3.80295e-21)
(1.04354 0.0774462 -1.24581e-21)
(1.06043 -0.0658457 1.05458e-21)
(0.993761 -0.0690247 2.31769e-21)
(1.00502 -0.00128823 4.34168e-22)
(1.01208 -0.0222285 4.41673e-23)
(1.13835 0.00109281 4.73254e-22)
(0.993023 -0.077409 -1.4484e-21)
(1.01552 -0.0418686 9.16409e-22)
(0.999999 -5.33835e-06 5.68334e-26)
(1.12573 -0.0134065 -3.31972e-22)
(0.986272 -0.00087812 1.29952e-22)
(0.991782 -0.0866797 2.91576e-21)
(1.01647 -0.0261563 2.61055e-22)
(0.962419 -0.00978386 -3.35921e-22)
(0.999699 -0.000223688 -6.97744e-24)
(0.997685 -0.000944493 -6.53414e-23)
(1.03323 0.0348819 8.20771e-21)
(0.974796 -0.00730299 -5.52699e-22)
(0.999989 -1.19104e-06 1.80432e-25)
(0.997937 -0.000292577 -1.33746e-22)
(1.14695 -0.0810717 -6.21998e-21)