/*--------------------------------*- C++ -*----------------------------------*\
  =========                 |
  \\      /  F ield         | OpenFOAM: The Open Source CFD Toolbox
   \\    /   O peration     | Website:  https://openfoam.org
    \\  /    A nd           | Version:  7
     \\/     M anipulation  |
\*---------------------------------------------------------------------------*/
FoamFile
{
    version     2.0;
    format      ascii;
    class       volVectorField;
    location    "13";
    object      U;
}
// * * * * * * * * * * * * * * * * * * * * * * * * * * * * * * * * * * * * * //

dimensions      [0 1 -1 0 0 0 0];

internalField   nonuniform List<vector> 
30084
(
(1.00885 -0.0107788 3.21674e-22)
(1.00774 0.00305381 1.17767e-21)
(0.992345 -0.00284341 -1.81233e-21)
(0.975885 -0.0454861 5.46307e-22)
(0.998026 -4.28965e-05 2.54176e-22)
(0.962523 -0.0284537 -8.48944e-22)
(1.05812 -0.0575948 1.94569e-22)
(1.01195 -0.0162186 -3.40171e-23)
(1.00164 -0.0015813 4.41831e-23)
(1.00014 -3.83697e-05 1.35317e-23)
(1.01394 -0.0217261 1.3318e-23)
(0.998647 -0.0137885 -5.94934e-22)
(0.999623 -0.000156152 3.22227e-23)
(0.99998 -7.82233e-06 5.189e-25)
(1.08817 0.0800659 3.89348e-21)
(0.995013 -0.00163715 2.75626e-22)
(0.999868 -0.000693816 -1.15522e-23)
(1.09897 0.0172357 -3.77566e-22)
(0.998268 -0.00148845 -8.66744e-23)
(0.9909 -0.000692139 -3.99036e-22)
(0.999315 -0.000221748 -1.1487e-22)
(1.00154 -0.00158023 1.54817e-22)
(0.992267 -0.00301059 1.99194e-21)
(0.998275 -0.0001405 1.11737e-22)
(0.924608 0.074791 3.87247e-22)
(1.00839 0.00242466 6.34473e-21)
(0.999597 -4.62241e-05 7.39862e-23)
(0.960505 0.0625688 -2.83074e-20)
(1.09105 0.0810916 -9.80789e-21)
(0.999465 -0.00749937 -1.13469e-22)
(1.01246 -0.00845947 2.18514e-22)
(1.02883 -0.00392149 -1.55627e-21)
(0.9932 -0.107393 5.12221e-21)
(0.999186 -0.0191716 2.87852e-22)
(0.959099 0.0595839 2.32568e-20)
(1.00442 -0.0269885 6.64553e-22)
(1.04517 0.0371772 -2.09037e-21)
(0.976504 -0.0252391 2.35986e-21)
(1.00432 -0.000659407 -5.8729e-22)
(1.00416 -0.000447531 1.11295e-21)
(1.00034 -0.000135373 -3.82193e-23)
(0.991662 -0.0262572 -2.16122e-21)
(0.999884 -0.000673869 -3.00593e-25)
(1.02904 -0.0576133 -2.10546e-21)
(1.00002 -3.32623e-06 -3.48295e-24)
(0.999622 -0.00760359 8.88264e-23)
(0.998155 -0.0102357 -1.69581e-22)
(1.00006 -6.84175e-05 8.30804e-24)
(1.0027 -0.00295378 -6.24294e-22)
(1.04538 0.035339 -8.65006e-22)
(1.1107 -0.04985 4.32042e-23)
(0.978529 -0.0396803 -2.58272e-21)
(1.02856 -0.0032549 5.46309e-22)
(0.963804 -0.0281516 -1.42115e-21)
(0.995137 -0.0016817 -2.43102e-22)
(1.09546 0.0763241 -6.35875e-21)
(0.997246 -0.00186427 8.59399e-23)
(0.999294 -0.000245397 1.45356e-22)
(1.00066 -0.0179591 -3.75318e-22)
(1.01336 -0.0482985 -1.16903e-21)
(0.999954 -5.42006e-06 1.54103e-24)
(0.998326 -0.00152295 -1.78767e-23)
(1.15693 0.0655575 2.24478e-21)
(1.00466 -0.0263142 -3.53482e-22)
(1.03503 0.0760151 1.54297e-20)
(0.940207 0.0206266 5.7547e-20)
(1.0002 -0.0227683 -7.44676e-22)
(0.994218 -0.0116859 8.23317e-22)
(0.954594 0.0131523 2.33097e-20)
(1.00036 -0.000128885 2.47896e-23)
(1.00949 0.00298505 -8.64952e-21)
(0.989279 0.0523195 1.69647e-20)
(1.00274 -0.00735921 -2.60713e-22)
(0.938143 0.0861235 1.44108e-20)
(0.993374 -0.000536115 1.2834e-21)
(1.09735 -0.0184761 7.48778e-22)
(1.10962 0.118041 1.27793e-20)
(0.977014 -0.0142483 5.69299e-22)
(0.999966 -1.62996e-05 -4.04191e-24)
(1.00616 -0.0403142 -1.22905e-21)
(0.963248 -0.000662784 -9.53377e-22)
(1.01509 0.0288575 4.91552e-21)
(1.00907 -0.0112505 -9.62219e-22)
(1 -4.70433e-05 -3.4257e-24)
(1.05975 -0.0553779 -1.99205e-22)
(1.21996 -0.0526658 -1.56059e-21)
(1.02009 0.0652784 -2.86683e-20)
(0.999608 -0.00015444 -2.9346e-23)
(0.999635 -0.00013901 -8.64217e-24)
(0.943067 -0.0376357 -3.5361e-21)
(0.997893 -0.0453887 2.6814e-21)
(0.976942 -0.0149314 6.32506e-22)
(1.00254 -0.00305891 1.07481e-22)
(1.04545 -0.00372499 -9.65377e-22)
(0.936548 -0.0161703 -2.96426e-21)
(1.02452 0.0782626 1.38095e-20)
(1.00168 -0.0590951 4.1621e-21)
(1.00037 -0.000312645 6.20304e-23)
(0.977817 -0.0573144 -4.64905e-21)
(1.08054 0.0917318 1.58483e-20)
(0.999964 -1.63534e-05 5.87099e-24)
(0.978037 -0.00925875 -3.41323e-21)
(0.999955 -6.5674e-06 -8.04394e-25)
(1.0373 -0.0121343 -4.9524e-21)
(0.977272 -0.0396407 1.71164e-21)
(1.02668 0.0105661 9.1479e-21)
(1.00069 0.0502529 2.65374e-20)
(0.999649 -0.000140542 -7.20275e-23)
(0.999997 -5.45895e-05 2.10252e-25)
(1.00772 -0.100183 -2.30851e-22)
(0.990858 -0.106443 -4.61302e-21)
(1.03736 -0.0294943 6.13618e-22)
(1.00001 -1.3665e-06 7.29989e-25)
(0.99912 -0.00506458 -3.09048e-22)
(0.999913 -0.00179825 7.12693e-24)
(0.991204 0.0536219 5.97869e-23)
(1.02707 0.0422257 -1.04838e-20)
(0.990291 -0.00617738 -1.36309e-21)
(1.00002 -5.26469e-05 1.31864e-24)
(1.003 -0.00726753 -1.96024e-22)
(1.20478 0.0401653 -5.25235e-21)
(1.00536 0.00938408 1.37443e-20)
(1.1424 -0.0109899 3.84593e-21)
(0.939072 0.0252401 -5.32851e-20)
(1.00087 -0.00029071 -1.49142e-22)
(1.12824 0.00136039 -1.48194e-21)
(1.09672 0.0193112 -2.05378e-21)
(1.01692 -0.0459333 7.5445e-22)
(1.00324 -0.00280575 -5.5338e-22)
(1.00002 -0.000353505 4.33361e-24)
(1.02835 -0.0559065 7.52351e-22)
(1.11219 0.116289 7.16378e-21)
(0.998022 0.0932266 2.70348e-20)
(1.15279 -0.0218416 6.31789e-22)
(1.03603 -0.0120945 4.19585e-21)
(1.01211 -0.00810696 4.11574e-21)
(1.03579 0.119528 2.1287e-21)
(0.97695 -0.000677504 4.80701e-21)
(1.15269 -0.147753 9.11195e-21)
(1.08226 0.0890973 -1.2054e-20)
(1.12576 0.0042627 1.68532e-21)
(0.948382 -0.00468755 -3.91942e-21)
(0.958997 -0.0399909 1.08337e-21)
(1.00001 -1.01198e-06 -3.04424e-25)
(0.999992 -2.33188e-06 7.09886e-26)
(0.997974 -7.05887e-05 -1.9921e-22)
(0.9983 -0.0100223 3.49445e-22)
(0.992348 -0.0801366 -3.57874e-21)
(1.13937 -0.102037 3.15794e-21)
(1.14921 0.0993929 9.41331e-21)
(1.02498 -0.013721 2.1713e-21)
(1.01493 -0.0153016 7.46151e-22)
(1.00034 -0.000505185 9.73531e-23)
(0.999897 -0.00017749 6.47082e-24)
(1.00145 0.0238104 -2.89759e-20)
(1.00043 -0.00125155 1.07168e-23)
(0.994622 -0.00948406 1.07236e-24)
(1.04329 0.121564 -6.47268e-21)
(1.00365 0.0363604 -3.04845e-20)
(1.11219 -0.0459593 3.87014e-22)
(0.965039 -0.00249862 1.63441e-21)
(0.976706 -0.0444728 3.93218e-21)
(1.09455 0.0793908 1.6066e-21)
(0.999965 -3.55223e-05 1.19766e-24)
(0.999991 -2.41692e-06 -2.90948e-26)
(0.990252 -0.00649857 4.9235e-22)
(0.960061 -0.0390974 -6.07335e-21)
(1.00004 -0.000180385 -1.01827e-23)
(1 -5.04657e-05 -1.9561e-24)
(0.994463 -0.00426788 -1.59872e-22)
(1.00002 -0.000342834 -3.58616e-24)
(1.00465 -0.0047671 -3.10169e-22)
(1.04092 0.123194 7.32656e-21)
(0.977299 -0.000348212 -4.07085e-21)
(1.05014 -0.0929456 -1.01994e-21)
(0.995893 -8.08702e-05 8.26645e-22)
(1.00171 -0.00219072 3.29437e-23)
(0.977413 -0.0091126 5.6406e-21)
(0.999361 -0.00505052 -2.72228e-23)
(1.1423 -0.00174054 -3.51004e-21)
(0.999986 -7.39684e-06 1.41195e-24)
(1.01261 -0.0311863 -1.75393e-22)
(1.02139 0.0667059 1.01574e-20)
(0.994447 -0.0108346 -4.97122e-23)
(1.14536 -0.145826 -8.75419e-21)
(1.02141 0.035804 -9.22434e-21)
(0.994858 -0.00234731 -1.20487e-21)
(0.985108 -0.0132136 1.51268e-21)
(1.00308 -0.00281818 8.40799e-22)
(0.99948 -0.00698244 -1.63053e-22)
(0.99979 -5.65003e-06 7.92721e-24)
(1.00533 -0.0145047 2.05218e-22)
(0.935755 0.0126192 2.22803e-20)
(1.0011 0.0208253 2.2358e-20)
(0.988166 -0.0052534 3.94036e-23)
(0.994869 -0.00933319 -5.1447e-22)
(0.983251 0.0288045 -2.27083e-20)
(1.01021 0.0227103 4.23466e-21)
(0.937941 -0.0159651 3.69094e-21)
(1.00091 -0.000398408 -1.16438e-22)
(1.07365 -0.0719744 8.94763e-22)
(0.978886 -0.076623 4.78128e-21)
(0.998887 -0.0140688 2.8755e-22)
(1.00067 -0.000858921 -1.8945e-22)
(1.03717 0.121937 3.01773e-21)
(0.994645 -0.0042767 -1.09767e-22)
(1.00543 -0.00426767 -3.44589e-22)
(0.990662 -0.0798364 4.65362e-21)
(1.00832 -0.102799 5.71418e-22)
(0.999975 -2.62883e-06 4.53e-25)
(0.981593 0.0750671 -2.68349e-20)
(0.999192 -1.88376e-05 -1.92326e-24)
(0.999998 -4.00857e-05 -8.23648e-25)
(0.999578 -0.000165096 1.25147e-23)
(1.00045 -0.0453591 -9.66701e-22)
(1.14394 0.0726342 -7.97988e-21)
(1.01333 -0.0304611 8.14195e-23)
(1.00525 -0.00398512 -2.36911e-22)
(0.998293 -0.000194646 2.77721e-22)
(0.939183 -0.0177883 -6.53864e-22)
(1.00003 -0.000376952 -2.56089e-24)
(1.00039 -0.00127792 9.32213e-25)
(0.998158 -0.000164082 -1.83129e-22)
(1.02083 0.000858432 8.54649e-21)
(0.997885 -0.00321818 -5.78239e-23)
(0.999136 -0.00470809 9.17124e-23)
(1.02096 -0.000944487 4.34426e-21)
(1.0001 -0.000311209 1.21515e-23)
(1.00002 -2.47521e-06 9.12057e-25)
(1.00397 -0.000472373 1.21922e-22)
(0.980254 -0.0285908 -1.94173e-21)
(0.979867 -0.00035249 -1.97594e-21)
(0.996149 -0.000307333 -8.75924e-22)
(1.01022 0.00233406 7.17111e-21)
(0.987057 -0.000963431 9.38547e-22)
(1.01508 -0.0147858 -7.04629e-22)
(0.999979 -8.5064e-06 1.45431e-24)
(0.997635 -0.0021233 -3.34926e-22)
(1.00063 -0.000850625 2.05031e-22)
(1.07228 -0.0688619 8.4102e-22)
(1.07382 -0.161132 7.8508e-21)
(0.998916 -9.89141e-05 1.41376e-22)
(1.00036 -0.000450195 -7.43005e-23)
(0.999058 -0.00459194 -3.13919e-23)
(1.0029 -0.00647538 -4.75841e-22)
(0.991091 -0.000510343 -1.7075e-21)
(0.999967 -3.31977e-05 -1.33757e-25)
(1.21289 -0.0518859 -2.77451e-21)
(1.00004 -0.000386398 4.4237e-24)
(1.02056 0.000750062 -6.02149e-21)
(0.997334 -0.00186859 -1.73965e-22)
(1.00011 -0.000300613 4.7596e-24)
(1.02589 0.0107657 -5.81841e-21)
(0.973812 -0.0736873 -4.94704e-21)
(1.00019 -3.37209e-05 4.2822e-23)
(1 -7.36543e-06 -3.17847e-25)
(0.948225 -0.0033575 -4.46994e-21)
(1.055 -0.149936 -1.21814e-21)
(0.993024 -0.006851 -1.303e-22)
(1.01627 -0.0471036 -2.13191e-22)
(1.0257 -0.0141885 -3.55757e-22)
(1.02523 0.0655366 1.24522e-21)
(1.00006 -6.4349e-05 2.24348e-24)
(0.980643 -0.0279518 1.98748e-21)
(1.17806 0.0147412 -3.59119e-21)
(0.971377 0.0402769 5.55539e-22)
(0.994374 -0.0105914 3.86817e-22)
(1.02079 0.0346133 1.12672e-20)
(1.09649 -0.015609 5.62655e-22)
(0.999899 -0.00197942 -7.69366e-24)
(0.879157 0.0365806 2.89993e-20)
(0.999574 -0.00034859 -8.44913e-23)
(1.05008 -0.096218 -1.43323e-21)
(0.940252 -0.0177489 4.49526e-21)
(1.00181 -0.00207011 -1.80375e-22)
(1.14073 0.0382676 5.76599e-21)
(0.993028 -0.000778605 -1.01596e-21)
(0.999198 0.100215 1.92653e-20)
(0.997215 -0.000216906 7.8365e-23)
(0.985584 -0.0142309 -7.89562e-23)
(0.999837 -0.00179803 -6.1475e-23)
(1.06587 0.105708 3.50372e-21)
(1.00045 -0.0141728 6.72422e-23)
(1.02243 0.07842 8.37132e-22)
(0.999609 -3.47106e-05 -3.2688e-23)
(0.995268 -0.0015577 -3.83502e-22)
(0.970472 0.0909692 -1.13103e-20)
(1.02459 0.000906278 -7.22965e-21)
(1.02082 -0.000595522 5.04427e-21)
(0.976488 -0.0366892 4.79793e-21)
(0.999887 -2.43873e-05 7.40599e-24)
(1.00281 -0.00623625 -5.55661e-23)
(0.999867 -0.000759353 -1.96839e-23)
(0.999999 -3.79749e-05 -5.27057e-25)
(1.04293 0.00760066 2.13182e-21)
(1.00003 -3.95113e-06 7.16269e-26)
(0.983503 -0.0126923 3.54788e-21)
(1.17668 0.0107655 3.21625e-21)
(0.92311 0.0781946 -2.70851e-20)
(1.00001 0.0936125 -4.30644e-20)
(0.976184 -0.0631495 1.53319e-21)
(0.989322 -0.025712 1.18303e-21)
(0.980882 -0.00134276 9.44633e-22)
(1.03006 -0.0280731 1.80861e-21)
(1.00579 -0.0142784 -3.21903e-22)
(0.985022 -0.0138476 -2.08776e-21)
(0.977439 -0.0693826 6.73756e-22)
(1.02392 0.0669425 -1.9205e-20)
(0.999533 0.0188249 3.76013e-20)
(0.998988 -0.000120851 7.769e-23)
(1.0017 0.0509021 -3.63995e-20)
(1.04242 0.00638188 7.74517e-22)
(1.14487 -0.00669534 -1.06047e-21)
(1.01143 -0.0124197 3.30721e-22)
(1.00123 -0.0130066 -2.65064e-22)
(1.02246 -0.0420285 -3.11261e-22)
(0.995615 -0.00150334 -9.08949e-22)
(0.997857 -0.000540064 -5.89234e-23)
(0.999958 -5.42432e-06 7.97152e-24)
(0.999349 -0.00715784 2.39713e-22)
(1.08131 -0.0224978 3.11348e-22)
(1.06555 0.108528 -5.5421e-21)
(1.0013 -0.00111119 8.60396e-23)
(0.977382 -0.0235818 -2.83176e-21)
(1.01294 -0.0126058 -1.05446e-21)
(0.999974 -1.1665e-05 -6.17737e-25)
(0.976758 -0.0661377 -2.44001e-21)
(0.905706 0.0616302 -1.34998e-20)
(0.994926 -0.00401157 1.34859e-21)
(0.999124 -0.0037557 8.16792e-23)
(1.01187 -0.0122527 -2.05328e-22)
(1.00577 -0.039103 1.58698e-21)
(1.06101 0.0311683 2.7058e-21)
(0.999725 -0.00811328 -4.16695e-23)
(0.999977 -4.19017e-05 2.46892e-24)
(1.00001 -1.57029e-06 3.91452e-25)
(0.997829 -0.000491929 -6.51494e-23)
(0.969154 0.0902907 1.63201e-20)
(1.04191 -0.0195506 1.18185e-21)
(1.07865 -0.158231 -2.13987e-21)
(1 -7.28801e-06 -8.44995e-26)
(1.05303 -0.154539 8.31805e-22)
(1.0624 0.0057431 -3.50168e-21)
(0.995794 -0.000135022 -4.11557e-22)
(0.942452 -0.00642948 -5.52381e-21)
(0.999192 -0.00368899 -8.13758e-23)
(0.999657 -0.000156889 -5.22145e-24)
(0.98112 -0.0252217 -6.044e-22)
(1.00074 -0.000940932 -9.10408e-23)
(1.14431 0.00226429 3.36476e-21)
(1.00744 -0.000919977 -2.44199e-21)
(1.11421 0.0995655 -6.4847e-21)
(0.999922 -0.00195272 9.98902e-24)
(1.00383 -0.0114017 1.02945e-22)
(1.00518 0.00831049 -1.86423e-20)
(1.1996 0.0379518 2.52934e-21)
(1.00033 -0.00047488 -5.72434e-23)
(1.00035 -0.000421669 5.65801e-24)
(0.992437 0.0638601 1.71065e-21)
(0.998989 -0.0461395 -5.44267e-22)
(0.999583 -0.00799472 5.04061e-23)
(1.00933 0.025178 2.21314e-21)
(0.977715 0.0144707 4.39535e-20)
(1.11243 -0.0532891 -3.71823e-23)
(1.00015 -0.0219473 -2.38894e-22)
(1.14044 0.0717251 7.99222e-21)
(0.999395 -5.91396e-05 -5.72115e-23)
(0.992791 -0.00357574 3.62576e-22)
(0.997273 -0.000226615 -2.23135e-22)
(1.01124 0.0216695 3.23557e-23)
(0.999988 -0.000623266 -2.05061e-24)
(1.0072 -0.00110359 2.49536e-21)
(1.15783 -0.0838954 1.15991e-22)
(0.996782 0.0882358 4.16045e-20)
(0.94038 0.0888389 -6.41142e-21)
(0.995016 -0.00233794 4.68927e-23)
(0.992813 -0.00669988 3.9131e-22)
(1.03305 0.0776449 -1.22408e-20)
(1.01396 -0.049841 1.66697e-21)
(0.999959 -6.34534e-06 -7.78917e-24)
(1.13271 0.108789 1.46543e-20)
(1.02032 0.00125963 -2.54939e-21)
(1.01989 0.00127803 -1.71575e-21)
(0.995432 -0.011497 -5.49199e-22)
(1.01494 -0.00161682 -3.72388e-21)
(0.963507 0.080939 6.36643e-21)
(1.13734 -0.113019 -1.00707e-21)
(0.982928 0.0805022 6.56826e-21)
(0.992215 0.0801573 -1.175e-20)
(0.999997 -5.14675e-05 -6.75736e-25)
(1.0786 -0.0223429 -1.04312e-21)
(1.13614 -0.107793 6.39356e-22)
(0.997785 -0.00324775 1.51343e-22)
(1.00133 -0.00119971 -1.41737e-22)
(0.974246 0.0166739 1.04491e-20)
(1.04344 -0.0199475 -1.53673e-21)
(1.00023 -6.21916e-05 9.58567e-24)
(0.987239 -0.054471 -5.58213e-21)
(0.978349 -0.0788026 -2.27095e-21)
(0.995372 -0.00160141 5.3933e-22)
(0.999904 -0.000172222 -8.18012e-24)
(1.02732 0.0918113 -2.08719e-21)
(1.02715 0.0408021 1.77989e-20)
(1.00004 -0.000422735 -2.0798e-25)
(1.00338 -0.003017 1.08509e-22)
(1.00433 -0.00299492 5.85417e-22)
(1.17834 -0.0364002 8.85815e-22)
(0.976467 -0.0356889 -4.35822e-21)
(1.00005 -0.000502773 -8.0032e-24)
(0.99999 -1.54852e-06 -9.97121e-26)
(1.0004 -0.000140839 1.45108e-23)
(1.05963 0.031722 -2.73585e-22)
(0.976444 -0.0243384 -2.25898e-21)
(1.00158 0.0402697 8.54676e-21)
(0.95267 -0.0445556 2.6196e-21)
(0.990012 -0.0255407 -1.26346e-21)
(0.979272 -0.00105507 -3.81519e-21)
(1.01045 0.02429 -1.08894e-20)
(1.15299 0.0624975 4.59528e-22)
(0.999019 -0.000128989 1.4188e-22)
(1.00652 -0.00484259 -6.22404e-22)
(1.00069 -0.000932557 1.03254e-22)
(0.981939 0.0881037 -1.65503e-20)
(0.978203 -0.0219754 1.21956e-21)
(1.00089 -0.000236447 -4.87994e-23)
(0.993666 -0.00316872 -4.91322e-22)
(1.12731 0.00951889 3.17349e-21)
(0.999818 -0.00871439 -1.04188e-22)
(0.990307 -0.0111621 -2.68534e-22)
(1.00019 -0.000118515 -2.98758e-23)
(1.00019 -4.40202e-05 -1.33625e-24)
(0.903307 0.0659981 2.03459e-20)
(0.993072 -0.0011591 -6.30636e-22)
(0.995986 -0.00412904 5.48192e-22)
(0.999686 -0.00159131 -5.80126e-23)
(0.99941 -4.51026e-05 -7.81214e-24)
(1.02974 0.0647104 -6.61813e-21)
(1.16335 -0.0824861 1.66197e-22)
(0.98902 -0.0388131 7.27848e-22)
(1.00001 -1.23608e-06 -3.60126e-25)
(0.999999 -3.04379e-05 -4.69805e-25)
(0.977324 -0.0227989 3.19747e-21)
(0.994288 -0.00168332 1.29702e-22)
(0.995646 -0.00191104 -7.428e-23)
(1.01184 -0.00420515 1.17765e-21)
(1.00481 -0.00199924 2.09666e-22)
(1.0007 -0.0145071 -1.15066e-22)
(1.10147 0.00544063 5.06756e-21)
(0.983965 -0.00403659 -7.89494e-22)
(0.984242 0.0789999 -5.59588e-21)
(1.01324 -0.0218016 -3.59734e-22)
(1.0002 -0.000119224 3.31125e-23)
(0.975255 -0.0620457 2.29004e-22)
(0.987074 -0.0344125 -2.62069e-21)
(1.13246 0.0377866 3.69299e-21)
(0.997607 -0.00537075 -1.59483e-22)
(0.99311 -0.0453853 -8.42847e-22)
(0.999983 -5.72071e-06 8.42339e-25)
(0.948609 0.0647855 -2.18098e-20)
(1.01258 -0.00173349 2.11786e-21)
(1.00006 -0.000202515 -1.32336e-23)
(0.935729 0.017301 -2.89308e-20)
(0.988093 -0.0390915 1.64551e-21)
(0.999983 -6.30096e-06 1.45939e-25)
(1.00121 -0.00109121 4.18352e-23)
(0.975682 -0.0648871 -1.35231e-21)
(1.03587 -0.0285997 6.01061e-22)
(1.04007 -0.00683748 2.76321e-21)
(0.999994 -2.40733e-06 2.29258e-27)
(0.993047 -0.000588255 5.00374e-22)
(1.02304 -0.0409466 3.37098e-22)
(0.995502 -0.00146837 7.46068e-22)
(0.999625 -4.01109e-05 -1.74718e-22)
(0.992933 -0.00369127 1.12797e-23)
(0.980877 0.0295392 2.62338e-21)
(0.99409 -0.0113459 -6.89454e-22)
(0.990721 -0.0109174 1.98186e-22)
(1.00192 0.0265905 -8.90322e-21)
(0.997684 -0.0020044 1.75026e-22)
(0.978286 0.0892143 -2.03689e-21)
(0.999982 -6.11978e-06 -4.40857e-25)
(0.99191 -0.0255757 5.04477e-22)
(0.989755 -0.0757881 5.26964e-21)
(0.994085 -0.045597 1.41974e-21)
(1.17899 -0.00068851 -5.42579e-22)
(0.999038 -0.00492137 2.07048e-22)
(1.00897 -0.0207328 2.08014e-22)
(0.999939 -0.00210239 2.12388e-24)
(0.98561 -0.0201724 -1.53599e-21)
(1.0376 -0.0311885 2.60062e-22)
(0.999975 -1.0879e-05 2.96267e-24)
(1.00001 9.23599e-08 -6.26028e-25)
(0.994587 -0.000374514 3.42164e-22)
(0.983979 0.0557304 1.70648e-20)
(1.01157 -0.0168282 1.35714e-21)
(1.0022 -0.0030821 -1.74489e-22)
(0.938821 -0.0333973 3.82905e-21)
(1 -6.56244e-06 -2.68157e-25)
(1.00082 -0.00102653 -1.64312e-22)
(0.999968 -0.000593955 -1.95315e-24)
(1.01272 -0.0160146 1.44841e-21)
(0.985539 -0.0148652 2.77334e-22)
(0.999683 -0.000246073 2.15923e-23)
(0.994429 -0.0101119 2.53586e-22)
(0.989287 -0.00646277 -2.91191e-22)
(1.00085 -0.000140809 -1.33746e-23)
(0.999982 -6.38871e-06 -2.83802e-25)
(1.16897 0.0326358 4.42444e-21)
(0.999718 -0.00156549 6.21405e-23)
(1.06137 0.00154792 2.72104e-21)
(1.00654 0.0869244 4.39314e-20)
(1.03015 0.0763356 -1.10733e-20)
(1.00117 -0.0183826 -4.35983e-22)
(1.00469 -0.00179779 -6.96017e-23)
(1.01517 -0.00128791 2.28455e-21)
(0.99998 -0.00215044 -2.37527e-24)
(0.998257 -0.00932667 2.5092e-22)
(1 -1.20349e-05 -6.88465e-25)
(0.990435 0.0803131 -8.86977e-22)
(0.98963 -0.0147406 3.80473e-22)
(1.01156 -0.00385192 -8.41367e-22)
(0.984344 -0.00418654 1.64693e-21)
(1.00342 -0.0112249 8.99446e-24)
(0.997754 -0.0052825 3.4991e-22)
(0.999914 -0.000175864 1.75636e-24)
(1.00001 -4.02294e-07 -3.24089e-24)
(0.996126 -0.0041103 -3.99252e-22)
(1.04587 -0.00498525 -1.55977e-21)
(1.00395 0.0377393 1.38536e-21)
(1.00103 -0.000422868 -1.97075e-22)
(0.979453 -0.0572449 -1.23483e-21)
(0.978117 -0.0213167 -5.38825e-22)
(0.993218 -0.000465138 -1.88193e-21)
(1.14692 0.0963996 -5.963e-21)
(0.998901 -0.000858119 -8.58724e-23)
(1.00354 -0.0127205 -3.12713e-22)
(0.995299 -0.00251712 3.77931e-22)
(0.999921 -0.000169116 1.52768e-24)
(0.976202 -0.0679723 1.5297e-21)
(1.00187 0.0373307 -1.35146e-20)
(1.02168 0.0317791 -1.16959e-20)
(0.980098 -0.0141703 -2.59013e-22)
(1.00133 0.0361232 -6.16991e-22)
(1.00007 -0.000189432 2.63898e-23)
(1.00001 -2.0188e-07 1.03548e-24)
(1.1317 0.106172 -5.4703e-21)
(1.13714 0.0400646 -3.87325e-21)
(0.938119 0.0661223 -1.07774e-21)
(1.00724 -0.0773074 3.60056e-21)
(0.979499 -0.00145344 -1.20683e-21)
(1.12415 0.0128661 -4.45367e-21)
(1.00098 -0.000444614 2.23309e-22)
(0.995129 -0.00339788 2.16557e-22)
(1.00038 -0.000150314 -1.37444e-23)
(0.990706 -0.000657699 -4.04973e-22)
(0.989884 -0.0120315 -5.60168e-22)
(0.999996 -2.70321e-05 1.57154e-24)
(0.999265 -2.89313e-05 3.29406e-23)
(0.99662 0.086333 -4.06903e-20)
(0.999889 -0.00061704 1.72767e-23)
(0.954059 0.0596651 2.75707e-20)
(1 -1.10104e-05 5.22162e-25)
(1.18034 0.0667271 5.47736e-21)
(1.06178 9.67678e-05 -5.7026e-21)
(1.10036 0.00750796 -5.60186e-21)
(1.00088 -0.000425771 1.34565e-23)
(1.00015 -3.54587e-05 2.69861e-23)
(0.986996 0.0526076 -2.60187e-20)
(1.06308 0.00399204 1.13423e-20)
(0.989388 -0.0774539 -4.77942e-21)
(1.01557 0.030306 5.26608e-21)
(0.998742 -0.0188207 2.04378e-22)
(0.988284 -0.00494326 -4.23852e-22)
(0.996533 -0.000197291 -2.25468e-22)
(1.0667 0.124218 -2.51877e-20)
(0.97932 -0.0254752 1.95951e-21)
(1.03025 -0.0266877 -1.17078e-21)
(0.994658 -0.0100166 -1.45404e-22)
(1 -6.57277e-06 -5.23893e-27)
(0.998912 -0.000809068 -7.27251e-23)
(1.00512 -0.00513699 3.7019e-22)
(0.983781 -0.00747037 2.11696e-21)
(0.980643 -0.0142703 3.86712e-22)
(0.961613 -0.0397706 -5.8423e-22)
(0.983613 -0.00793024 -1.60554e-21)
(1.01488 0.00216524 9.76762e-22)
(0.998204 -0.000123332 4.58793e-24)
(0.944517 -0.0380424 1.95346e-21)
(0.987658 -0.000841221 -5.83237e-22)
(1.00003 -0.000182646 6.04303e-24)
(0.989268 -0.000668908 -4.03433e-22)
(1.0312 -0.029025 -2.03478e-21)
(1.01426 0.00232878 -5.40134e-21)
(0.977418 -0.0257222 -4.89741e-22)
(0.999991 -5.1991e-07 -2.94061e-27)
(0.984843 -0.0152231 4.14725e-22)
(1.00222 -0.0130629 6.91513e-24)
(1.00118 -0.00101695 5.3745e-23)
(1.15924 -0.104739 -2.78084e-21)
(1.0013 0.0363705 -3.11186e-20)
(1.00077 -0.00101499 1.52644e-22)
(0.989455 -0.000501888 5.78559e-24)
(1.10495 -0.0559659 -1.09309e-22)
(1.02147 0.000488819 8.65504e-21)
(0.990878 0.0239044 -2.82945e-21)
(1.00159 -0.0021589 4.75484e-23)
(1.00107 -0.01917 1.37609e-22)
(1.0557 0.0955154 -3.80635e-21)
(1.01211 0.0194131 -2.73464e-20)
(0.992865 -0.0254207 1.32664e-21)
(1.00408 -0.00301135 -6.54703e-23)
(0.957456 -0.0475676 2.66808e-21)
(0.999997 -2.51644e-06 -2.76018e-25)
(0.955023 -0.00202092 -2.0129e-21)
(1.00007 -5.94378e-05 4.38251e-24)
(1.10279 -0.0580805 -5.65031e-22)
(0.999976 -1.74622e-06 -3.35176e-25)
(1.00002 -5.14672e-05 3.8808e-24)
(1.0009 -0.0214865 -1.64221e-22)
(1.1562 0.0702777 -4.94907e-21)
(1.01428 0.108785 1.8644e-20)
(1.03425 -0.0294223 -3.25245e-21)
(1.01239 -0.0127824 7.01371e-22)
(0.999999 -1.50532e-06 1.0567e-25)
(0.994738 -0.004043 -7.28142e-22)
(1.00007 -1.88561e-05 -3.10654e-24)
(0.997311 -0.00214096 2.51469e-22)
(1.00002 -4.77783e-05 -3.03747e-24)
(1.03991 -0.00537368 -8.63101e-21)
(0.999603 -0.00041025 -8.62019e-23)
(1.03767 0.0443037 1.18839e-20)
(0.999898 -0.000188786 -1.30528e-23)
(0.988725 -0.00482276 -7.19973e-22)
(0.962415 -0.00106836 4.62391e-21)
(0.996352 -0.000262402 -2.91285e-22)
(0.986096 0.0308918 2.7188e-20)
(0.984759 -0.000677066 1.10933e-21)
(1.03708 -0.0946668 2.51923e-22)
(0.995259 -0.00356165 1.1193e-21)
(1.02075 -0.00182259 -1.86079e-21)
(0.977042 -0.0583668 5.33191e-21)
(1.01616 -0.00115351 -6.33569e-21)
(1.0442 -0.0591657 -6.65193e-23)
(0.99999 -1.20905e-06 2.46686e-26)
(1.00002 -0.0181683 1.57174e-22)
(0.996591 -0.000260066 3.54211e-23)
(1.00021 -8.12362e-05 1.96846e-23)
(1.00007 -1.58452e-05 5.3714e-24)
(1.06911 0.126074 2.74092e-20)
(0.995791 -0.00191667 6.27054e-22)
(1.02125 0.00115076 9.8269e-21)
(1.00166 -0.0195844 1.63365e-22)
(1.00072 -0.000267057 5.2373e-23)
(1.01974 -0.00625459 -7.02702e-21)
(1.00013 -3.2323e-05 -6.11215e-23)
(0.999983 -4.10725e-06 -4.13767e-26)
(0.955599 -0.00268832 1.55576e-21)
(0.99701 -0.00108702 2.82343e-22)
(1.00002 -4.66029e-05 4.12129e-24)
(1.03746 0.0766244 8.48232e-21)
(0.913859 0.0534825 -3.82e-20)
(0.999826 -0.000200179 3.64272e-23)
(0.964166 -0.00215163 -1.27453e-21)
(1.00001 -1.24637e-07 7.2975e-25)
(0.961168 0.079205 -2.57707e-20)
(1.18397 0.0702594 6.38785e-21)
(0.976071 -0.0465571 -4.45328e-21)
(1.00004 -0.000486434 -9.63255e-24)
(1.02909 -0.0258295 2.6522e-21)
(1.02469 -0.0012203 -2.55696e-21)
(1.02515 0.000965541 7.3694e-22)
(1.0411 -0.00722261 -1.08827e-21)
(0.9997 -0.00167837 -1.02299e-23)
(0.999887 -0.000740686 1.52717e-23)
(0.987974 -0.0147231 -1.22315e-21)
(1 -5.89035e-06 -1.08522e-24)
(1.00001 -5.01446e-07 -1.81569e-25)
(0.978489 -0.0250637 -1.1594e-21)
(1.00294 -0.0581555 -1.98889e-21)
(0.962791 -0.0389476 -1.51454e-22)
(0.92874 0.0750164 -7.47723e-22)
(1.00016 -2.12504e-05 -2.47519e-23)
(1.02393 -0.0705408 -3.57199e-21)
(1.00631 -0.00455 -6.40769e-22)
(0.999984 -4.33745e-06 4.72271e-25)
(0.999146 -0.00349368 -1.78232e-22)
(1.00003 -0.000411512 -6.94262e-24)
(0.996378 -0.011614 4.1402e-22)
(1.00003 -8.39914e-06 3.55217e-24)
(1.04568 -0.0576151 -1.22353e-22)
(1.01589 -0.00141722 6.14687e-21)
(0.979373 0.0876313 5.74407e-21)
(1.02029 -0.00173444 6.984e-21)
(0.999772 -0.000194731 3.02595e-23)
(1.00038 -0.000342655 -5.40719e-23)
(1.18034 -0.0415391 -1.00503e-21)
(1.02119 0.00100679 -7.90767e-21)
(0.997365 -0.000351469 2.52028e-22)
(1.00001 -1.18143e-06 1.52158e-24)
(1.04897 0.0702282 -1.43165e-20)
(1.13164 -0.151349 -1.57587e-21)
(1.00705 -0.0754468 -1.57921e-21)
(0.987311 -0.000716819 -3.10201e-22)
(0.999987 -1.51555e-05 6.23011e-25)
(0.999775 -0.000183351 -1.76697e-23)
(1.13943 -0.152814 4.49922e-21)
(1.00164 -0.0460415 -5.50679e-22)
(1.02761 0.0238879 1.67211e-21)
(0.983957 0.0762916 2.41318e-20)
(1.03526 -0.0921935 1.99417e-21)
(0.998944 -7.29664e-05 -4.44841e-23)
(0.999986 -7.7291e-06 -9.2281e-25)
(0.968522 -0.0504483 4.41946e-21)
(0.987611 -0.10148 -5.41747e-21)
(0.999832 -0.000207135 1.92615e-23)
(1.00948 -0.0201244 7.50888e-22)
(0.993106 -0.0247076 -2.28557e-22)
(0.996012 -0.00205306 2.46949e-22)
(0.998125 0.0297368 -2.18911e-20)
(0.998916 -0.000486931 1.57762e-22)
(1.05175 -0.0392481 5.49507e-22)
(1.10894 0.120919 -1.27761e-20)
(0.993311 -0.00299562 -7.17102e-22)
(0.936589 0.0624073 -3.89074e-21)
(0.941592 0.0295293 1.21562e-20)
(0.999977 -4.4134e-05 -2.39017e-24)
(0.999977 -0.00064948 8.05342e-25)
(0.98495 -0.000897312 -7.11313e-22)
(1.01106 -0.00398094 -1.52217e-21)
(0.965737 -0.00197702 2.64303e-21)
(1.00445 -0.00372859 -6.74185e-22)
(0.993556 -0.00300235 6.71627e-22)
(0.999524 -0.000441371 -6.6252e-23)
(0.96726 0.0795142 -4.59917e-21)
(1.03831 0.0426684 -1.85357e-20)
(1.00195 -0.00208928 1.21288e-22)
(0.884224 0.0344502 -7.45995e-21)
(1.00001 1.55872e-07 -1.06281e-24)
(1.01956 0.00523405 -1.35e-20)
(1.00385 -0.0956514 3.63092e-21)
(1.02626 -0.0700959 1.38166e-21)
(1.00008 -0.000183723 -1.40517e-24)
(0.964008 -0.00109297 2.17861e-21)
(1.01752 0.00450761 7.55253e-21)
(1.01081 -0.00430583 1.26151e-21)
(1.02416 -0.000546318 3.52432e-21)
(0.999636 -3.1115e-05 1.22849e-22)
(0.999597 -0.000438368 7.81737e-23)
(1.02572 -0.0392989 -4.91496e-23)
(0.997059 -0.00117273 -8.07028e-22)
(0.989069 -0.0109744 -1.32319e-21)
(0.99925 -0.00316679 1.05424e-23)
(1.0575 0.036207 1.00196e-20)
(0.99985 -0.01896 -1.10829e-22)
(0.995749 -0.00437113 1.24104e-23)
(0.93517 -0.0283906 -5.69937e-21)
(0.994078 0.0638967 2.80933e-21)
(1.09818 -0.0115184 -4.41283e-21)
(1.01924 -0.0059884 5.65011e-21)
(0.999671 -0.000157619 2.31252e-23)
(0.999575 -0.000285931 1.05177e-23)
(0.984907 -0.0199679 3.10756e-21)
(1.00085 -0.00110566 -1.21695e-22)
(0.997797 -0.000617729 -4.55326e-23)
(0.999988 -1.4183e-05 -2.18646e-25)
(0.99973 -0.00170933 2.33331e-24)
(1.01709 0.00416735 -2.93133e-21)
(0.98634 0.0549185 -2.49131e-20)
(0.9999 -1.31104e-05 4.32816e-24)
(1.08307 0.119947 -2.40237e-20)
(0.999995 -3.39664e-05 -6.48529e-25)
(0.997227 -0.0025362 3.41838e-22)
(0.999994 -8.21826e-05 -3.01712e-25)
(1.00447 -0.00322134 -2.98312e-22)
(1.17265 0.030968 -3.24187e-21)
(0.99997 -3.6177e-05 3.51596e-25)
(0.999969 -3.90015e-05 2.15439e-24)
(0.951642 -0.0451395 -2.50037e-21)
(1 -5.95787e-06 -4.24926e-26)
(1.04372 -0.00659808 9.18384e-21)
(0.991305 -0.0395643 2.30891e-21)
(0.999979 -0.000570451 1.03144e-24)
(1.05094 0.0566809 -1.11792e-20)
(0.999999 -2.49299e-05 8.7243e-25)
(0.999677 -3.33375e-05 1.06465e-22)
(0.999932 -3.07551e-05 1.80776e-25)
(0.995907 -0.00438244 -2.05702e-22)
(0.999713 -0.00136201 -2.97217e-23)
(0.994691 -0.000281743 -2.29937e-22)
(1.01869 -0.115015 -4.22702e-22)
(0.999745 -0.00132627 1.96776e-23)
(1.00358 -0.00302419 -2.32834e-22)
(0.999983 -3.16626e-06 -1.84406e-25)
(1.01567 0.106993 -3.63742e-20)
(1.05047 -0.0405927 1.37232e-21)
(1.10076 -0.0112729 -5.66664e-22)
(0.968296 -0.00588579 2.8555e-21)
(0.97991 -0.00407624 -5.18559e-22)
(0.999222 -0.00341582 2.9373e-22)
(1.00249 -0.00231521 3.27335e-22)
(1.02938 0.0509506 4.8539e-21)
(0.98654 -0.0354882 3.5659e-22)
(1.06982 0.0876304 5.64955e-21)
(0.960195 -0.0135843 -5.16334e-21)
(0.997127 -0.00244954 -3.22587e-22)
(0.999993 -2.82195e-06 -2.11043e-26)
(0.995136 -0.00252768 -4.55705e-22)
(1.00127 0.101482 8.89375e-21)
(1.04434 0.0613785 -2.57339e-21)
(0.988683 -0.0538983 1.87657e-21)
(0.944994 -0.00596811 1.21101e-21)
(1.019 0.102453 9.99609e-21)
(0.992687 -0.000530447 5.98013e-22)
(0.997395 -0.087812 2.86615e-22)
(0.999995 -7.81792e-05 -1.87813e-24)
(0.990273 -0.0398636 2.90027e-21)
(0.999311 -0.000198262 -1.62979e-22)
(0.893396 0.0581681 -2.14672e-20)
(0.988174 -0.0719877 -4.06719e-21)
(0.999934 -2.75127e-05 7.34124e-24)
(0.941535 -0.0195503 -3.23096e-22)
(0.986631 -0.0376961 1.6693e-22)
(1.01974 0.0539163 1.68068e-20)
(0.997827 -0.000673707 -4.30666e-22)
(0.98469 -0.0365116 -1.06689e-21)
(0.998105 -0.00956962 -3.48239e-22)
(1.00091 -0.0207382 -3.44571e-22)
(0.998945 -0.000494588 -1.07829e-22)
(1.01906 0.0528041 -2.04041e-20)
(1.06668 -0.157826 3.54057e-21)
(0.984808 -0.0158504 -9.2116e-22)
(0.988427 -0.0136635 1.91878e-23)
(0.988821 -0.00455061 -2.88797e-22)
(1.00443 -0.00178716 -2.72232e-22)
(1.02027 0.100121 3.96203e-20)
(0.984652 -0.012863 4.21744e-22)
(1.01093 0.0284974 1.14441e-20)
(1.00229 -0.00186733 2.49357e-22)
(1.18116 0.00423201 -1.31936e-22)
(0.952082 0.0639331 3.9928e-21)
(0.992541 -0.000415736 -2.06052e-21)
(0.999819 -3.44242e-05 1.96812e-23)
(1.02824 0.0662104 5.14406e-21)
(0.994954 0.0828156 -3.2843e-20)
(1.02475 -0.0378948 1.75581e-22)
(1.0742 -0.0255527 5.27509e-22)
(0.996195 -0.0120738 -4.54963e-22)
(0.968798 -0.00531335 -1.68907e-21)
(1.05434 0.0935729 1.54848e-20)
(0.967211 -0.0507692 7.81771e-22)
(0.999986 -1.47569e-05 9.27868e-25)
(0.993677 -0.000100577 -1.06071e-21)
(1.00003 -4.58492e-06 3.70671e-24)
(0.996223 -0.000235339 7.90404e-22)
(0.999985 -1.62994e-05 -1.45233e-24)
(0.998625 -0.0133669 5.65755e-22)
(0.999215 -3.23835e-05 5.82098e-23)
(0.997714 -0.00500463 4.07606e-23)