/*--------------------------------*- C++ -*----------------------------------*\
  =========                 |
  \\      /  F ield         | OpenFOAM: The Open Source CFD Toolbox
   \\    /   O peration     | Website:  https://openfoam.org
    \\  /    A nd           | Version:  7
     \\/     M anipulation  |
\*---------------------------------------------------------------------------*/
FoamFile
{
    version     2.0;
    format      ascii;
    class       surfaceScalarField;
    location    "24.5";
    object      phi;
}
// * * * * * * * * * * * * * * * * * * * * * * * * * * * * * * * * * * * * * //

dimensions      [0 3 -1 0 0 0 0];

internalField   nonuniform List<scalar> 
11512
(
144.379
-506.846
362.467
-769.12
1.573
767.547
417.613
-373.011
-44.6025
647.693
261.625
-909.318
1510.47
-1069.41
-441.055
1216.26
-1527.11
310.842
-45.2562
472.416
-427.16
169.1
-841.104
672.005
961.983
-1610.75
648.766
-1767.27
1675.01
92.2618
-542.947
1759.21
-1141.83
1935.6
-793.768
605.971
181.356
-787.327
-25.4221
-1319.47
1344.9
222.357
-1989.63
1022.7
-385.313
-637.387
-187.31
331.688
483.27
190.655
-673.924
1154.76
-1315.21
160.45
-325.269
378.916
-53.6465
1009.3
-1322.48
313.18
1221.68
799.937
-2021.61
74.3683
-1646.62
1572.25
-487.683
-1162.35
1650.03
473.536
182.009
-655.545
-187.458
-319.388
497.678
1012.79
1653.99
-1812.52
158.529
-95.6013
-1689.3
1784.9
-1560.51
655.828
904.678
-311.128
652.949
-341.821
-192.83
-130.456
323.287
1289.87
-1215.5
355.318
-1407.26
1051.94
-1754.26
1754.26
100.178
1538.37
-1638.55
-1083.23
-477.276
645.508
-690.764
-387.291
942.066
-554.775
1331.77
-1317.17
-14.597
-1100.45
713.156
623.383
399.316
-406.894
-22.9664
429.86
-455.535
792.594
-337.059
-1618.38
1618.38
1253.54
-1437.85
184.308
-489.094
1710.77
1253.62
-311.55
1660.72
-1161.21
-499.502
64.034
-389.303
2067.07
-1136.44
-930.634
1820.44
-166.453
451.702
156.147
-607.849
-468.496
977.713
-509.218
-1175.73
1275.91
-566.877
969.717
-402.84
398.063
756.697
660.626
-491.527
-438.347
590.528
-152.181
1190.58
-835.26
2308.23
-1080.69
-1227.53
1164.48
-2010.97
846.496
-1608.66
1583.24
440.558
-1582.39
-758.81
1250.38
-491.572
-671.448
360.32
1661.43
-699.446
-1106.93
-870.9
1977.83
692.12
-379.101
-313.018
690.527
563.09
-258.215
1511.76
101.691
-312.317
210.625
-284.78
758.316
-333.385
560.73
-227.345
-324.436
807.706
-320.049
-141.324
461.373
321.25
96.3635
1466.68
-457.385
-993.086
492.188
500.898
266.556
97.1017
-363.658
947.388
-341.417
-1703.37
637.968
1065.4
19.6206
-862.038
842.418
-276.318
590.602
-314.284
158.234
-1093.91
935.674
1050.8
-1066.42
15.6198
373.13
517.22
-890.351
-245.368
697.07
-1103.08
-482.569
1585.65
-677.056
949.785
-272.729
1354.4
-1450
-649.441
286.755
362.686
-470.206
-1011.49
1481.7
-536.849
-796.368
1333.22
575.35
-995.33
419.98
-262.453
-314.708
577.16
402.434
-300.743
-1044.67
576.174
955.567
-797.333
-110.391
943.71
-833.319
-202.696
410.687
-207.991
-633.824
-359.262
-386.741
962.091
1856.36
-1856.36
-476.68
-172.76
-948.853
1565.28
-616.426
469.538
-905.478
435.94
-922.412
355.535
-941.905
-1058.08
-1497.27
343.783
1153.48
-273.266
920.959
-327.756
626.264
-298.508
-1941.9
999.992
-1147.04
-350.227
561.885
-1510.74
1728.51
-1725.93
-2.5742
202.295
-612.587
410.293
-1467.18
975.887
491.296
279.03
221.307
-500.336
305.814
-639.199
234.731
-408.982
174.251
2017.56
-867.033
-1150.53
-552.935
146.041
615.441
839.287
-1454.73
-183.236
417.967
431.668
876.155
-1307.82
-904.217
389.139
515.078
-1049.97
1448.03
-1068.38
309.568
747.771
-94.822
565.603
-292.734
-272.869
1018.46
-526.272
593.439
-1403.68
810.243
-1342.12
239.035
-541.628
265.31
-1189.15
915.887
1943.63
-989.76
-953.875
276.798
1579.56
-2098.42
897.644
1200.78
355.765
-33.5121
-322.253
-223.065
478.895
-255.83
-98.1554
-389.692
487.847
-460.994
140.944
337.664
-131.361
600.899
427.038
378.508
-805.546
-2042.17
1122.66
919.508
461.932
-526.934
65.0025
217.869
-358.557
140.688
1005.34
1012.22
1791.55
-253.176
741.348
-454.593
795.724
-1389.09
593.369
357.648
334.472
1059.9
-1040.28
-492.957
-246.959
739.917
470.096
-128.935
-341.161
795.64
-614.283
552.021
-734.387
182.366
503.332
1157.38
-1240.34
703.486
1037.31
-1524.99
-3.11936
-1439.42
1442.54
327.212
822.963
-1150.18
622.174
269.919
-892.093
-2270.79
1151.59
1119.2
-1104.9
-1165.89
183.645
368.376
959.062
-631.849
878.268
-898.058
19.7903
-2099.39
992.459
-218.837
-186.723
405.56
-42.0146
1770.52
-838.494
69.3742
-1030.92
-1067.5
-228.007
445.877
-685.882
209.202
-280.337
-426.437
706.774
1103.96
-1574.17
782.636
-1374.25
591.611
697.879
-436.254
1947.83
-1444.5
-378.283
-1375.98
67.2748
405.141
-535.534
537.107
25.1007
-583.13
558.029
569.182
-290.152
-599.846
275.857
323.989
786.164
-359.125
34.8757
320.889
1188.47
-1191.59
166.894
235.54
396.199
-676.535
618.599
-1005.34
-2026.76
2026.76
-265.323
-447.734
713.057
698.847
405.848
-1104.69
579.931
167.84
413.189
372.975
-2199.76
1328.86
-925.959
-680.067
1606.03
-481.313
-707.84
-255.36
555.261
-299.901
835.128
-209.353
-625.775
-454.097
656.392
365.055
-692.81
-373.371
-131.347
504.719
-1335.25
-477.272
641.208
-1122.52
-374.139
-1244.24
844.352
1463.87
303.802
-917.419
613.616
966.398
-343.015
1391.23
-797.792
441.483
-274.589
-324.286
-878.687
578.188
300.5
-342.171
-536.517
315.927
-414.083
-193.294
-158.101
351.395
-392.807
1091.65
433.907
-243.252
-385.931
1360.04
-171.552
-1188.49
-478.376
296.185
182.191
225.797
264.118
-489.914
3.43375
-737.821
592.173
-1729.07
1136.9
1485.09
-869.645
-1049.52
-417.665
-1056.12
574.34
481.782
1387.78
-411.89
928.685
-1411.25
-172.251
-188.042
360.293
-467.974
578.912
-1628.88
427.876
903.896
291.871
299.927
-591.798
568.041
1186.22
1102.95
-710.921
-392.03
395.454
-207.66
-187.794
-1419.43
446.455
736.966
-1183.42
1473.25
-544.566
-488.355
937.437
-449.082
426.159
1186.14
-1612.3
47.4134
-724.47
-151.665
418.221
198.63
-391.46
537.425
481.034
-600.243
43.9233
556.32
1024.52
-1307.65
283.131
669.716
-256.528
468.381
-1447.21
978.829
398.548
1688.3
-523.823
895.006
1048.63
-659.383
-1684.83
758.871
564.022
406.658
-970.68
456.299
79.0137
1750.12
-1829.13
1443.64
-379.491
-1064.15
1699.2
-1741.21
-365.595
-534.415
726.904
-192.49
-502.591
175.469
294.627
-373.156
-1225.93
214.443
-764.71
-638.971
-635.782
997.166
-361.385
-651.565
641.417
10.1479
654.829
-923.439
268.609
-714.341
353.773
360.568
-647.453
-697.16
349.392
347.767
-932.152
1400.53
-422.491
890.889
-468.398
-2205.32
5.55681
172.254
-532.078
359.825
143.375
1216.67
-102.649
-583.233
154.208
-592.555
1487.01
-704.378
387.774
-465.741
77.9675
-561.88
561.88
1222.97
395.402
1778.21
-1228.09
589.917
638.177
847.35
-51.7106
1292.36
774.712
-540.837
1336.56
294.032
296.57
270.47
-804.885
244.867
-700.402
226.608
-438.812
212.204
-248.777
586.234
-337.458
117.401
-366.177
-591.34
-564.675
1156.01
-376.13
549.651
-173.522
-1192.15
2032.03
-839.884
1288.59
-329.532
-397.783
135.33
-1982.95
820.601
1541.95
-850.414
-691.537
1987.02
-877.476
-1109.55
714.26
574.334
-240.09
466.698
-675.527
1151.84
-476.309
-769.391
1201.06
551.865
924.574
-1725.68
801.109
-551.178
-79.6066
630.785
306.039
259.564
412.97
-92.8448
-320.126
896.404
-83.5449
-812.859
929.489
-571.501
-357.988
1576.15
-472.195
893.181
-1629.22
736.044
1068.45
879.381
747.513
-437.692
-309.822
-1058.87
-258.305
568.985
576.057
-1145.04
-466.994
520.624
-53.6302
574.005
-337.819
-236.186
-987.729
565.238
594.637
890.45
-441.776
1096.61
1421.73
-784.953
-636.781
391.166
-923.499
532.333
-1037.81
403.984
564.597
-1052.95
469.397
-544.716
75.3194
482.508
310.086
-513.071
-48.8093
-794.013
-880.752
1674.76
184.697
210.757
-232.785
416.431
-28.4089
-566.011
594.419
498.196
870.571
-1368.77
-506.871
313.577
985.273
-88.8692
835.569
-1064.38
228.812
404.289
845.291
-1386.13
-457.547
836.055
1981.06
-1287.01
-694.042
269.619
608.649
255.573
795.227
91.8974
-975.532
883.635
1673.72
-1088.95
-584.766
-138.014
1888.14
-1866.11
-160.647
482.641
-620.799
138.158
-1012.22
527.907
484.311
-1730.46
538.316
-955.522
845.131
392.891
197.637
579.397
-275.595
-418.745
708.295
258.104
54.5303
719.281
-773.811
-1132.97
-895.098
2028.07
-543.144
1114.96
-571.814
-478.779
-325.227
106.39
-1657.02
863.005
-852.328
-611.696
1464.02
-329.616
-294.585
624.2
355.284
-655.732
300.447
252.405
-611.53
332.018
199.41
-531.428
358.91
-614.27
626.87
-271.585
315.543
-456.866
679.913
415.285
-189.488
-399.759
-297.401
1225.52
-2.39762
-1223.12
1038.85
-420.247
558.862
410.855
-1782.32
869.81
912.505
489.64
557.314
-1046.95
-532.797
203.181
-264.191
1181.8
-917.613
-1590.83
1212.54
504.616
-1095.96
386.669
1.10495
431.279
311.644
-742.924
368.753
-614.121
-36.5724
758.931
-722.359
-525.07
794.989
393.955
321.09
526.26
651.661
99.1592
-413.766
314.606
1058.24
-644.686
-413.553
494.042
-1664.27
1170.23
-1140.31
1753.23
-612.911
1715.87
-1123.7
-334.123
609.98
-1183.56
1275.46
424.716
-799.84
1610.92
-811.081
-272.413
-205.964
-900.116
1472.09
1815.46
-610.805
-1204.66
-405.192
668.295
-1304.08
-124.668
-54.4967
467.467
-687.767
-354.182
-1236.65
-216.517
468.922
902.621
-561.334
171.642
-1674.81
-71.2959
1746.11
-1076.82
533.681
566.449
-1185.67
619.219
901.113
914.349
630.507
619.875
696.937
240.501
-1145.44
469.914
-397.824
422.925
616.14
-513.833
238.475
-731.878
493.404
704.514
-346.867
-314.095
183.639
-612.894
247.753
365.141
-886.568
-742.656
1087.67
-2145.74
396.268
-681.047
-342.819
-723.601
836.72
585.014
-342.973
320.006
376.891
232.306
639.39
-871.696
527.192
624.643
-548.308
174.937
359.346
-624.669
-1046.13
-849.474
1895.6
-1804.05
157.433
1106.76
-1370.95
1164.92
-717.608
-447.309
-504.372
1349.66
-1495.45
627.921
867.532
-284.575
-209.402
493.977
1428.43
558.592
354.731
-486.079
-480.854
-572.6
1053.45
-424.593
596.846
1583.1
-1130.66
-452.448
-786.688
338.955
654.549
403.69
-1623.42
416.183
1207.24
-186.679
518.698
797.636
785.469
202.525
-697.597
495.073
200.097
210.59
-279.865
-110.314
390.179
498.778
-2.756
-496.022
-1644.64
595.124
-1610.42
1679.03
-68.6115
12.7489
-1623.17
1069.5
776.062
-344.782
-818.337
-219.47
-1134.58
-239.671
-312.163
680.916
-1812.83
-635.875
1211.93
218.9
758.813
-1332.19
-678.785
-465.963
623.132
-331.261
-1013.27
1350.8
-1932.99
582.192
647.129
1288.47
481.295
-2.39977
718.123
710.303
-1428.43
-636.815
329.868
306.947
436.206
-100.647
-335.559
143.775
315.261
154.917
-470.178
-592.958
1156.98
457.076
-640.515
-460.112
-401.885
861.998
-328.788
156.537
-456.363
155.62
-302.067
-710.15
542.052
-105.847
-576.322
967.488
573.842
-267.916
-305.927
453.221
-777.657
-648.844
454.099
-1129.38
-843.626
1187.41
-569.771
449.274
290.643
-462.371
83.2692
1027.54
-314.233
589.899
-275.666
-509.04
1578.54
-698.03
249.814
370.379
-620.192
224.883
494.917
-31.2347
-463.682
-263.674
-192.689
1010.24
1108.86
564.864
-884.195
949.923
-65.7275
-452.333
167.758
-743.236
316.798
-596.809
326.486
378.029
837.928
-1245.33
407.399
776.344
-812.917
-948.856
-550.392
1499.25
-172.494
472.421
-557.594
264.861
1306.26
787.778
-585.253
1323.91
-682.704
487.276
-667.811
-405.918
-421.32
-378.564
799.884
500.715
-842.132
-465.964
97.8215
368.143
-313.377
572.476
726.404
-330.137
-233.273
-175.328
408.602
-492.144
133.452
358.692
1461.1
82.4112
-1543.52
-754.524
1349.16
-1144.78
-465.973
547.327
-176.948
1152.87
-376.525
1083.44
492.718
702.202
-431.732
-884.802
-522.46
-1328.35
-22.0734
985.711
-963.637
596.472
341.971
-938.443
-343.939
-208.996
-683.29
405.538
1621.22
-190.217
380.491
342.857
-723.348
-1839.76
-2106.7
1519.15
587.55
-2038.38
349.079
374.777
534.723
-909.5
-460.509
1019.37
-406.771
-671.593
1078.36
-2030.55
1391.21
639.341
597.635
-1004.41
42.8405
426.556
386.386
188.923
252.56
322.423
972.412
876.694
676.921
-322.237
-354.684
-289.553
617.673
-328.119
570.529
532.423
564.635
514.62
-1079.26
-796.095
-699.358
751.394
401.475
-411.6
712.047
-1193.39
1609.57
431.643
-1103.24
-346.821
546.23
-1384.82
884.012
500.809
-713.798
-343.587
-779.548
345.746
433.802
447.293
717.628
-1164.92
1076.54
-586.903
-418.76
670.441
-251.682
251.356
322.486
-466.427
-432.343
898.77
-231.039
567.766
-963.436
395.67
-462.948
600.598
-1681.29
423.949
670.307
-1094.26
523.347
102.917
113.411
-2212.8
546.877
-97.6032
1444.76
1777.1
-217.549
-1559.55
-438.52
1789.32
-1987.22
1194.57
792.646
398.085
349.429
-41.3946
878.114
-1282.86
718.186
-868.312
-822.378
800.304
300.833
73.0706
-373.903
223.366
176.382
-399.747
1560.29
-842.166
-1530.93
-325.432
504.388
-223.142
-281.246
392.158
366.158
258.583
364.549
-10.7606
1003.07
-992.309
379.571
290.274
-669.845
-734.151
1817.4
-1083.25
-342.796
734.955
-1224.26
-414.289
-914.025
481.682
586.083
-789.37
203.287
759.142
-377.588
-381.553
-434.493
-449.702
450.747
1091.79
1240.8
-674.347
799.091
-345.87
384.326
328.731
-238.765
-226.976
-219.41
617.958
408.242
-845.746
437.504
229.086
352.931
-582.017
-420.527
828.77
754.151
-1146.96
893.242
-55.3143
-487.355
279.668
780.228
-96.4186
1384.89
1890.51
-52.7042
348.889
-319.774
418.933
-1087.81
1077.04
638.154
376.571
382.571
81.5948
422.793
261.954
505.592
-376.38
-260.435
-561.892
-89.6728
-368.24
364.243
3.99765
-257.775
-283.853
1010.83
-1540.69
529.86
-185.732
-187.279
-388.669
678.943
-1643.47
1590.96
-963.038
272.636
-678.554
584.33
1224.41
-1808.74
607.436
983.522
318.106
-1125.89
707.142
-287.914
-303.884
1384.05
-1452.43
833.848
618.587
435.092
-640.594
205.502
-387.482
486.799
-99.3167
383.45
115.328
1724.51
452.146
-252.049
557.658
-1704.79
1147.13
-97.5186
395.866
343.198
333.722
-448.713
-614.748
1063.46
413.267
-870.814
-640.432
902.436
570.816
-482.255
-232.086
-436.361
-409.385
-307.579
-826.997
1821.1
-1821.1
-102.337
-1596.92
1699.26
296.877
277.128
-916.943
-555.566
1472.51
-408.192
972.827
-605.27
-1039.37
694.102
398.047
-1092.15
470.949
-155.406
573.072
1220.34
-1793.41
-1042.74
2114.45
-1071.71
-378.694
-292.754
-489.423
828.378
-1757.66
1605.77
151.894
1757.66
-1611.53
-146.132
-240.654
519.303
-278.649
-537.306
1620.74
1571.99
-1986.28
1098.09
-293.855
-266.481
560.336
230.964
-577.785
-709.323
297.723
1343.07
637.989
585.515
479.913
-1065.43
272.743
429.459
875.258
500.112
-1375.37
539.063
-1019.92
1574.95
-564.118
-775.412
-363.95
-133.769
497.719
-490.276
1207.9
-742.132
330.235
366.835
380.313
247.879
-628.192
611.277
831.657
-602.845
262.746
687.177
-482.255
-330.386
-240.704
571.09
1168.46
-678.778
607.432
468.381
-1075.81
-1288.07
1288.07
-383.608
760.179
-277.746
-483.215
760.961
498.735
442.118
-940.853
395.126
-672.872
606.414
-870.59
264.175
-367.598
-490.465
1075.98
-659.762
-712.874
1372.64
-379.053
946.819
-1552.76
675.284
34.2633
-428.652
394.388
-520.116
729.318
265.363
320.871
163.61
307.338
-531.247
243.332
1870.33
-1966.75
264.09
-718.187
458.824
-825.425
366.601
-910.535
1422.6
-512.068
-430.253
-483.772
600.844
1124.17
-1725.01
-714.414
335.72
-463.314
1033.84
-790.739
1053.49
-373.889
-623.676
-499.095
743.962
538.07
-356.061
912.002
-316.03
-176.115
1599.03
-1816.58
-349.253
-614.183
-347.047
480.499
273.647
-604.908
-177.802
1070.5
-790.834
202.292
-300.659
-275.741
576.4
392.306
-888.082
495.776
-480.744
-462.69
-917.419
-360.157
594.262
-234.105
-459.092
-439.83
-348.804
-182.624
-403.823
651.702
-447.545
776.276
-1071.97
623.257
-1407.03
554.701
-28.5921
-1839.03
1867.62
570.072
-450.454
1231.04
-697.363
297.889
-297.889
673.455
-450.605
1039.34
-1644.61
-1158.74
-947.961
288.553
329.12
893.897
717.024
-506.228
-304.577
810.805
1660.78
-1689.37
-433.526
338.974
230.208
1134.99
-527.554
-943.339
1550.49
-607.152
442.513
-253.589
374.724
398.308
-773.032
541.124
468.928
-1010.05
-331.452
661.687
-38.0953
1908.43
1601.22
992.486
-1696.86
726.637
-1176.72
450.08
-492.502
1367.76
836.77
-1341.14
-572.857
279.003
807.973
-401.315
549.081
-1192.59
643.514
-634.4
-1215.53
-695.692
1911.22
-192.436
561.362
-368.927
-180.703
320.292
-512.727
335.19
365.039
-700.228
-1489.19
757.014
732.173
883.991
-1434.38
822.581
-433.442
208.14
-359.805
-605.488
275.102
-657.49
-727.331
697.509
507.265
-1204.77
384.757
-205.911
-178.846
554.449
-957.289
-578.374
-427.961
744.759
-831.336
-1155.88
-1437.95
499.72
938.228
6.45729
-650.824
350.895
299.93
-1322.26
1049.08
273.175
-615.54
-456.43
-665.598
921.171
398.192
-193.257
-204.935
508.37
980.472
-1488.84
983.242
-560.205
165.558
394.648
-414.646
684.88
-420.79
-509.312
162.265
234.176
-1521.19
526.829
549.714
-771.725
251.609
143.165
-459.194
363.846
-826.535
1954.16
-1195.38
-758.775
425.678
-690.114
264.436
321.331
339.057
109.069
-448.126
-578.026
188.096
264.05
-691.798
1374.22
-682.418
424.097
476.518
-1190.32
261.528
1866.77
-1013.59
-853.182
784.24
-546.063
185.906
1402.32
-975.122
-427.197
328.625
-779.23
-616.574
1725.43
608.674
632.123
328.196
-27.3637
266.12
-1138.36
1725.72
-587.36
-1763.54
820.205
1763.92
-1693.26
-70.667
-667.195
269.37
578.478
-730.129
231.035
1402.61
-565.84
383.604
452.45
-1858.72
1420.2
567.37
-443.316
-124.054
201.519
-550.324
-287.786
-190.992
-349.464
692.662
-590.079
226.13
618.212
548.892
-1167.1
1113.51
-1947.62
834.105
156.926
347.792
-1700.04
1661.94
309.964
-741.696
-171.362
379.501
760.918
679.325
-1440.24
1082.7
-1085.1
524.176
-1111.08
-626.319
248.38
377.939
538.7
-290.947
-615.675
-1028.93
289.935
-729.765
-912.321
173.88
155.957
228.8
403.812
288.745
-692.557
-636.587
-834.295
-978.533
488.534
-1066.56
-309.702
491.894
534.529
652.88
-277.269
-120.513
-413.413
731.519
266.618
-1203.24
566.648
1313.56
-552.639
442.771
-1021.15
-383.116
161.011
406.359
1023.19
551.757
-1719.77
1617.43
1637.86
-577.266
-1060.6
1905.83
-1894.95
-10.8763
219.626
-539.4
-359.964
562.255
-772.895
-330.857
-336.338
1022.19
706.122
-1513.35
807.227
323.534
-26.1851
1625.22
-1097.26
418.484
-1249.95
474.535
-61.2584
1522.36
1197.09
-470.456
-486.553
-73.6526
-274.725
736.064
-1951.59
-707.725
361.777
-535.705
173.928
190.578
-504.811
1139.94
671.605
-1811.55
-627.547
184.23
941.725
-1497.29
-210.529
678.786
-468.258
877.06
1122.94
-743.565
1352.24
624.418
-494.498
-129.92
-343.264
1177.11
1048.8
-1980.3
931.494
-1177.58
541.701
1488.73
-586.298
-397.284
-151.024
-1245.4
571.055
1163.94
-98.5321
946.226
775.91
-1722.14
-199.557
578.749
-1541.73
962.976
487.019
916.46
-1403.48
627.356
584.575
404.711
-1106.61
589.707
1112.09
1215.33
-452.166
-763.161
-1186.2
-1754.94
-5.82646
-1713.94
-205.097
-435.497
1610.77
-633.093
-977.674
-490.825
1121.33
-1321.17
634.581
686.592
-1364.2
1446.61
-1334.05
590.489
1520.47
-393.503
-586.699
189.415
-1487.8
227.111
176.385
238.386
386.032
439.748
407.381
-847.129
506.428
-938.84
900.243
-1444.81
-712.455
236.92
475.536
-1051.64
458.683
-484.104
867.708
697.298
18.4285
-538.637
169.711
-886.568
-1318.75
-712.584
346.613
365.97
398.799
-722.247
323.449
-474.535
-189.37
-708.688
724.199
1540.02
-593.792
821.656
738.634
1344.66
-844.543
-970.989
-570.736
-794.432
428.826
365.606
-1035.79
-639.093
300.393
338.7
-1433.69
-296.778
-788.402
395.473
392.929
-663.201
414.513
248.688
-689.304
268.514
412.862
485.907
389.926
438.843
477.488
384.509
595.587
-968.743
690.865
466.115
452.232
356.133
-808.365
1630.73
-1079.83
-550.898
-504.805
-289.932
-1032.32
452.205
347.679
409.753
593.022
-1002.77
-1383.98
750.886
-529.897
1149.12
364.323
-49.0617
412.527
-863.716
451.189
-1898.33
301.414
439.649
-724.341
284.693
-191.657
400.98
-209.323
-660.567
301.578
358.989
-671.052
316.368
370.877
389.302
611.992
-1020.18
752.135
664.011
-1416.15
438.857
624.605
337.956
392.132
-730.087
406.78
328.174
602.056
676.301
415.488
603.139
-1032.78
429.638
-1674.68
1185.48
489.206
1696.57
-539.182
619.072
-1147.1
528.029
-640.335
345.75
437.639
-933.816
496.176
765.574
-453.93
350.907
341.755
578.675
-927.927
653.272
-1252.76
599.49
387.271
734.063
-1224.34
768.853
509.92
-1278.77
494.023
405.531
-899.554
-501.77
-936.177
-295.962
631.151
352.531
540.827
-893.358
330.14
331.547
-502.19
1944.73
436.017
-845.884
409.867
-917.646
-808.037
-746.106
364.553
-1230.23
439.493
-1740.67
1611.53
129.141
1750.63
-1605.77
-144.857
-782.231
-588.567
261.46
327.106
-1763.92
1986.28
538.969
790.838
-1329.81
440.158
715.856
689.859
385.621
-1075.48
-60.2669
1617.14
-593.955
389.971
841.073
-646.197
323.998
322.199
-378.861
-296.463
547.819
-213.927
435.234
277.482
-661.653
384.171
260.133
-574.417
-279.354
442.764
-1032.63
589.866
538.066
1092.67
366.004
596.087
309.528
350.841
-660.369
1633.32
-927.196
1692.41
-1521.12
-171.294
-328.434
-821.282
411.897
857.287
-1067.82
-603.185
275.066
-1090.55
1628.61
-1592.54
-76.0858
1668.63
-341.725
-350.54
-370.659
539.607
595.379
-502.236
-24.6982
-549.674
501.571
-283.745
-217.826
1756.61
-1305.86
-621.463
295.7
325.763
403.091
357.315
734.339
-292.344
-399.493
-1750.63
1689.37
459.756
-1100.33
640.572
-42.3658
1659.8
570.864
476.316
-1047.18
103.347
1144.45
-1452.03
-12.0248
-1886.31
222.921
-595.118
306.761
288.357
-954.792
611.973
-896.756
466.504
-1128.05
672.708
455.341
380.833
270.063
-776.29
-311.621
1216.36
886.291
699.362
-1182.68
456.161
726.522
494.614
700.076
-1194.69
-361.575
-249.376
405.333
-959.528
438.934
520.595
21.2238
-1879.95
1081.25
-474.839
-506.968
558.69
-1378.09
819.401
-434.394
800.995
-405.831
500.97
-711.933
1722.17
404.93
-176.13
213.379
-162.507
-247.305
409.812
1895.34
-504.127
-1700.4
1050.85
-597.551
301.087
-1012.77
552.263
-312.888
544.424
905.042
-1449.47
-1103.16
437.558
-21.0197
-1945.73
1713.25
-664.449
-539.562
460.861
-1190.16
729.296
196.722
201.47
-279.363
773.067
699.026
836.742
816.747
-460.614
1084.36
-488.55
472.911
-187.799
-285.113
-1924.42
-713.251
-317.636
-641.226
-6.43496
647.661
460.641
-272.545
568.704
1064.61
-809.862
923.547
1243.98
-425.809
-180.69
-239.506
420.197
957.257
-888.351
-319.187
-1067.15
610.724
1562.22
-805.207
537.814
934.694
-399.865
737.268
-337.404
1130.02
-274.177
339.921
1349.53
-707.869
-215.63
448.345
-1198.36
750.015
-985.897
-127.835
1113.73
440.131
-954.687
514.556
177.951
732.243
483.084
743.244
-103.853
851.37
-426.212
1182.08
-796.461
552.41
-1465.41
912.997
-1216.64
1800.97
-431.708
-1510.19
879.394
-1401.85
-320.733
-422.191
1457.11
-1526.61
783.95
1491.43
196.432
276.479
-366.148
-1740.67
-288.999
-1015.05
1583.75
-1775.11
1775.11
1571.99
-1004.38
-632.066
-350.125
368.36
604.467
-375.722
-373.44
-1389.72
897.215
1125.09
600.628
1202.45
1789.49
-1216.41
-618.66
272.843
1659.17
-1916.71
257.54
815.488
-1267.94
1545.19
-561.664
792.744
322.213
-353.047
555.385
794.279
662.465
1365.6
-237.148
-445.567
-376.266
494.564
-338.417
471.97
735.933
-310.767
-137.359
-342.195
573.072
-230.877
33.2273
-371.046
1107.37
-1720.28
-450.896
-497.91
-573.234
864.211
698.01
-1596.37
904.57
-452.133
-628.683
-514.9
1251.87
348.316
1723.81
-1702.59
-1660.78
1894.95
-1560.69
840.16
720.527
-385.052
-1798.76
918.005
583.812
818.797
-394.059
1794.48
-680.965
-420.831
684.768
439.483
-1124.25
-1102.5
444.208
752.885
-1617.14
473.257
900.96
169.199
-394.557
225.359
-1601.88
-387.746
-438.504
990.209
-678.755
1442.86
-976.959
1854.02
242.423
-540.135
491.991
-295.559
474.336
893.424
543.307
977.167
-463.352
-427.916
574.248
882.858
-1392.69
-40.9919
1579.3
-840.67
519.968
971.459
-1475.79
-1115.9
1776.47
-1242.26
-534.208
1206.06
-319.255
-886.801
-185.274
448.3
-263.026
-457.341
-251.293
424.854
-173.561
138.392
-387.768
1735.62
-1741.45
-469.266
-530.875
-903.508
437.323
-199.262
-238.061
631.727
-465.694
-361.963
-325.136
687.098
-937.639
401.122
-1167.04
676.21
411.622
-642.929
-436.687
1582.99
-865.965
530.197
-458.323
-569.734
-462.896
358.936
-348.199
-10.7366
-1114.62
417.258
-664.965
-1033.54
1698.51
-608.87
-1424.73
711.854
562.306
-1596.25
1033.94
-400.793
-475.308
158.557
538.379
-1258.39
743.489
539.258
1005.93
-2133.17
999.983
1133.19
-376.443
407.261
-381.926
-25.3346
1478
-378.589
449.636
1197.57
582.549
906.185
566.63
527.935
-1094.57
158.028
-451.761
-1693.26
251.313
1127.52
-622.545
518.621
1013.61
-1532.23
1092.8
-1643.7
187.338
705.905
556.347
-875.534
-1086.35
-166.963
422.033
-255.069
-586.433
-441.02
-636.728
-624.366
345.003
-1619.49
939.418
-477.071
215.725
-391.855
530.43
-307.508
-615.614
1197.04
-1288.1
927.509
360.595
-1023.04
-381.711
-762.999
-829.239
1693.45
-477.289
1795.08
-1585.37
-209.706
-1556.59
1018.65
537.942
-730.683
-253.6
435.099
-181.499
-600.445
384.828
269.531
-654.359
-524.262
998.809
626.882
-351.816
-1620.23
1050.46
571.805
1103.49
-1675.3
-425.939
-286.543
-374.024
-749.398
-481.421
-332.075
495.685
1557.99
-995.679
-774.422
1497.45
659.535
-320.56
725.883
1152.35
-1878.23
304.175
316.98
-487.477
-1933.87
1721.05
212.815
735.863
-475.495
-260.368
531.863
1060.77
-1592.63
358.936
-1725.97
-233.214
1752.36
-1580.66
1073.74
506.924
-1727.74
1.77374
-521.982
407.261
1700.04
-1721.05
939.404
625.106
-1564.51
372.854
-216.41
-156.444
-422.335
-266.969
67.3387
94.5877
-348.188
-426.434
-444.156
-404.077
212.42
1510.18
379.059
-217.99
-445.211
456.039
-191.989
331.346
1510.72
994.13
-166.253
-827.877
-1104.05
1704.9
-1728.91
1063.94
-707.416
-1021.49
-1265.07
1844.98
-579.913
1155.06
-1771.23
616.175
268.136
-877.785
1675.88
43.4199
-1719.3
-491.186
-1082.98
-1735.62
-981.054
553.138
1019.53
590.269
1132.99
-1723.25
279.779
-456.727
701.177
-384.809
389.323
924.485
681.541
-384.768
-648.009
582.932
1072.49
-1655.43
-406.35
-364.174
770.524
440.622
-1661.94
1521.12
140.821
580.52
-1043.83
544.759
1083.85
-1555.63
993.961
-233.428
226.078
336.177
1905.83
443.238
-73.8871
995.849
722.751
-1718.6
-696.879
1085.28
-1557.47
158.519
-570.199
192.142
263.896
-665.916
-564.315
582.643
1034.5
-710.874
-283.304
-1368.48
674.239
694.237
-407.254
755.701
80.6598
-836.361
562.139
-137.186
1557.39
-207.354
280.943
-775.721
-1933.87
1664.61
1025.49
353.773
309.207
456.367
-929.933
-994.492
-1767.26
633.208
1693.76
504.931
-474.592
1210.53
1087.06
-424.948
1029.41
-977.674
489.247
488.427
700.643
1047.91
-1748.55
481.132
486.356
-1493.91
-745.868
34.9465
778.079
-413.526
-891.474
384.506
-539.729
-801.412
613.616
-577.895
1397.3
1055.17
189.492
232.54
-550.663
1618.5
-774.57
1526.7
-1727.83
575.292
1152.54
539.643
-882.658
-1733.05
1916.71
-183.662
1721.73
175.755
-545.514
361.217
-266.63
-481.596
1210.89
568.273
1128.29
-491.183
427.898
856.588
-457.271
-774.052
433.719
340.334
1419.33
1089.56
-518.315
1422.88
-510.526
-533.107
1043.63
-602.803
492.019
-1209.63
1692.41
1839.57
-687.218
1585.96
-646.556
-1240.9
716.634
-562.797
195.825
-382.548
447.058
-236.468
-518.355
-1246.7
1870.95
-624.247
1173.44
-554.369
1120.25
-1659.43
1701.39
-573.979
-547.61
-549.841
1720.07
-316.666
-688.094
-473.403
1223.42
-1688.37
-1860.11
613.41
317.6
-943.375
161.828
208.246
-1719.02
1204.13
514.889
1162.84
558.889
-512.727
-465.434
1191.96
183.108
217.872
588.447
1251.12
-539.184
-1238.58
1777.76
-1025.29
999.986
866.784
-204.07
-1659.17
1702.59
-510.164
1411.12
-1733.05
-350.424
6.14751
344.276
-255.936
585.308
-329.372
89.7584
488.429
780.402
-381.604
1257.52
1270.66
-413.372
850.429
-438.532
1817.53
-662.471
1586.63
-1723.81
-412.818
-758.509
309.537
448.972
-560.881
-563.521
79.7437
-1138.61
-985.275
-670.216
1655.49
-943.7
-1189.47
160.103
-426.584
-647.527
705.723
1167.44
650.089
1410.3
-591.498
1636.72
1318.03
-574.545
-487.072
191.513
-503.317
1396.74
1240.06
-565.819
-999.982
891.596
58.1441
-949.74
603.419
-506.193
1403.41
1495.06
-588.872
-356.615
356.615
-589.552
1623.5
1239.24
-486.357
1134.13
-66.0126
1850.91
-382.988
1489.47
-589.228
-507.696
1347.86
-650.87
1218.64
-567.771
1554.81
-591.832
757.472
576.968
-1334.44
-657.779
284.311
503.467
600.685
-1957.29
-998.952
1586.63
361.143
-361.143
-62.162
384.528
438.053
396.548
-13.0977
-326.081
908.786
-521.516
-427.944
812.472
-239.112
617.051
-427.903
1550.56
-444.348
-883.999
178.833
225.088
-403.921
601.173
1250.77
-1851.94
925.754
-459.25
-348.199
126.148
-1943.04
1816.89
-449.246
174.658
1181.07
-440.496
-740.571
-299.288
-592.186
-495.292
-381.926
-475.035
257.209
1158.19
-562.811
232.411
-373.5
141.089
-22.9902
-107.683
1375.98
-1268.29
34.6292
-596.521
-586.476
-447.339
447.339
-1262.34
1985.09
-1344.33
-212.377
-1824.44
239.062
-1025.75
-974.244
-179.734
-1639.09
709.155
1229.32
-1925.01
364.384
316.329
-680.713
-1850.02
1234.27
615.752
-559.771
559.771
-958.982
-40.0784
-1866.11
-558.172
1650.84
-676.156
1636.19
-601.687
-180.746
-1705.56
-580.837
-449.302
-594.849
-462.156
462.156
-1537.81
194.529
1343.28
165.833
223.374
-389.207
498.583
495.548
996.073
-475.478
1751.29
769.442
-417.698
392.364
522.571
1702.06
-594.697
-552.984
1636.84
464.985
1812.8
-645.365
-1804.34
-1938.07
-647.065
-475.16
475.16
-599.747
223.481
-696.137
1018.61
-466.349
-1075.19
-293.626
1579.56
1852.29
1635.36
-1635.36
-275.283
740.822
1761.51
595.799
1275.15
166.688
206.166
589.434
589.747
1603.49
-1603.49
217.541
-357.863
-438.031
453.388
950.868
-461.621
-638.914
-1130.97
1706.26
276.342
-1658.55
619.174
-289.092
464.846
1744.65
-592.106
-213.157
-424.605
379.183
732.906
1738.58
-613.486
-511.785
-773.43
1960.54
-870.459
-1090.08
1642.73
-703.956
1223.96
-1824.96
600.994
349.366
-889.501
-185.258
-101.861
1097.65
-486.927
140.15
626.938
-1655.87
433.315
620.015
-1804.34
-583.292
1787.43
883.564
-1162.89
1760.49
-597.605
1783.83
-575.548
-1208.28
437.871
928.29
-1741.45
924.541
-1488.33
255.44
1232.89
-832.784
-1254.22
-373.443
73.4428
300
581.759
265.235
1032.06
-439.631
845.659
-406.028
820.54
740.821
-1561.36
644.327
1066.44
-24.0171
-661.969
685.986
-1744.44
722.945
705.818
150.541
-1122.63
1936.77
-674.561
-1262.21
-537.184
1665.48
834.687
966.598
-1801.28
1227.86
683.359
-408.256
709.834
834.114
1027.46
-587.328
1761.51
625.902
1773.56
-1185.6
-587.966
-382.984
-340.231
723.216
121.453
-1185.6
1660.53
-540.281
-1437.79
1437.79
1250.56
594.423
1351.44
206.548
-560.134
281.305
-184.203
699.139
1113.66
477.588
-294.48
-869.606
-575.203
1739.68
-1739.68
997.967
-997.967
987.336
1025.17
-2012.51
1837.96
-613.993
-581.12
834.858
-947.854
-1052.16
998.224
691.156
-1689.38
-513.071
-360.826
-643.581
-808.434
2042.7
-1246.41
-613.699
1002.97
974.857
1289.77
646.998
322.316
1012.69
228.698
340.771
1186.22
1756.89
-1756.89
671.556
79.5816
-385.508
-997.058
-539.995
1674.13
990.149
1009.85