/*--------------------------------*- C++ -*----------------------------------*\
  =========                 |
  \\      /  F ield         | OpenFOAM: The Open Source CFD Toolbox
   \\    /   O peration     | Website:  https://openfoam.org
    \\  /    A nd           | Version:  7
     \\/     M anipulation  |
\*---------------------------------------------------------------------------*/
FoamFile
{
    version     2.0;
    format      ascii;
    class       volVectorField;
    location    "24.5";
    object      U;
}
// * * * * * * * * * * * * * * * * * * * * * * * * * * * * * * * * * * * * * //

dimensions      [0 1 -1 0 0 0 0];

internalField   nonuniform List<vector> 
7807
(
(1.07798 0.136138 6.71314e-21)
(1.05959 -0.0420822 1.45e-21)
(0.995122 0.111305 -1.41427e-20)
(1.0374 0.0705588 1.98314e-20)
(0.999121 -0.00107979 -3.70592e-23)
(0.999958 -1.02161e-05 -3.6859e-24)
(0.99011 0.0924079 -2.80958e-20)
(0.994309 -0.00207214 -7.69846e-24)
(0.999872 -0.000199323 -6.45735e-24)
(1.02511 0.00112226 -9.34394e-22)
(0.999961 -1.21597e-05 4.06483e-24)
(1.00239 -0.00135902 -1.53512e-22)
(0.991256 -0.002646 3.83294e-22)
(1.0209 -0.00189624 -6.02289e-21)
(1.02435 0.0015459 3.95334e-21)
(0.990846 -0.0168518 -7.66481e-22)
(1.08055 0.142165 -1.4136e-20)
(0.988189 -0.00341735 -1.33668e-22)
(1.00268 -0.0103288 -4.98606e-23)
(0.986227 -0.111191 -6.43286e-22)
(1.0371 -0.00399594 -2.06759e-21)
(1.00158 -0.000801232 2.89936e-22)
(1.01931 -0.00346255 5.2087e-22)
(1.01128 0.0318117 -1.02512e-20)
(0.98419 -0.00432056 -6.08929e-22)
(1.07332 0.134548 -6.73528e-21)
(0.999162 -0.00102461 -2.6141e-23)
(1.0249 -0.00182969 2.37609e-21)
(1.00539 0.0157328 -1.31237e-21)
(1.0042 -0.0109615 4.10735e-23)
(0.985599 -0.0179886 -1.38045e-21)
(0.868148 0.0407708 4.23149e-21)
(1.01906 -0.00418002 3.20387e-21)
(0.999496 -0.000431024 4.59362e-23)
(0.99989 -6.88551e-06 8.64761e-26)
(1.0249 0.000540369 1.38486e-21)
(1.00484 -0.0120098 4.9401e-23)
(0.994721 0.0897992 -4.4891e-21)
(0.996134 -0.00878331 6.27172e-22)
(0.999646 -6.32087e-05 4.36926e-23)
(0.996582 -0.00902927 -7.13683e-23)
(0.990964 -0.0157836 -2.83133e-22)
(1.018 -0.118762 2.86094e-21)
(1.16063 -0.0391003 2.61852e-22)
(0.999789 -1.28563e-05 1.39374e-23)
(0.999916 -1.71295e-05 -3.85833e-24)
(1.00149 -0.000653766 -1.77081e-22)
(0.995893 -0.00802231 -3.71517e-22)
(0.999929 -3.22359e-05 -3.08024e-24)
(0.991241 -0.111432 9.32366e-22)
(1.00348 -0.00119124 1.65891e-22)
(1.02471 -0.00089836 -2.46877e-21)
(0.979252 -0.00523127 -2.05281e-21)
(1.01343 -0.0330513 9.0109e-23)
(1.02535 -0.000314972 -8.22716e-22)
(0.995017 -0.00285155 -7.01578e-23)
(1.00254 -0.00961574 1.06329e-22)
(0.99427 -0.00179346 5.22593e-22)
(0.975 -0.0220752 -2.45901e-21)
(0.999477 -0.000383462 -5.89289e-23)
(1.00004 -2.52569e-05 -7.09781e-24)
(1.00455 -0.00126482 1.85219e-22)
(1.02115 -0.00119624 -1.41892e-21)
(1.00257 -0.00117915 1.55407e-22)
(0.998987 -0.000210039 8.45282e-23)
(0.986286 -0.0186528 2.4011e-22)
(0.999899 -0.000199418 4.88624e-24)
(1.00002 -2.68575e-06 4.96577e-25)
(1.15319 0.0771178 3.07689e-21)
(0.996078 -0.00759636 -1.12074e-22)
(0.999922 -2.10806e-05 3.42001e-24)
(0.969339 -0.0668104 -4.64261e-21)
(0.984888 -0.0047868 2.96816e-22)
(0.971026 -0.00660109 4.0476e-22)
(0.988725 -0.00376782 4.18879e-22)
(0.960906 -0.0324473 -5.36433e-22)
(0.999021 0.112701 2.27344e-20)
(1.03524 -0.00396402 2.62583e-21)
(1.08896 0.00316592 -4.94118e-21)
(0.949681 -0.0557458 -5.81098e-21)
(0.991677 -0.00292362 -5.88356e-22)
(0.999398 0.0573606 2.79173e-20)
(1.04187 0.00722423 6.1259e-21)
(0.970535 -0.011703 1.86115e-21)
(0.998566 -0.00273342 -6.03394e-23)
(0.997614 -0.000348301 6.29007e-23)
(0.993929 -0.00273407 7.19753e-22)
(0.98009 -0.00584135 1.32077e-21)
(0.999326 -0.00127371 3.97299e-23)
(0.995228 -0.000736374 2.24424e-22)
(1.00566 0.0178663 9.72224e-21)
(1.19208 -0.0198898 -3.90673e-22)
(0.999858 -5.86358e-05 -8.30462e-24)
(1.00207 -0.00816724 4.43064e-23)
(0.996231 -0.00112626 2.03278e-22)
(0.970627 -0.00367515 -3.23957e-21)
(0.972113 -0.066205 3.33962e-22)
(1.01526 -0.0317126 6.9697e-23)
(0.998416 -0.0026373 2.01453e-23)
(0.998792 -0.000207812 2.82118e-23)
(0.942765 -0.020107 1.39447e-21)
(1.08953 0.00841972 4.07013e-21)
(0.996446 -0.00128004 -5.06808e-22)
(0.999972 -1.32174e-06 -3.10189e-25)
(1.19439 -0.00741869 -3.75322e-22)
(1.03113 0.0319792 -9.29726e-21)
(0.933591 0.0289865 4.82234e-21)
(0.994677 -0.00269643 -2.92283e-22)
(0.999991 -2.56063e-06 4.49363e-26)
(1.02726 -0.014228 -1.10823e-21)
(1.04066 0.0670347 -2.30347e-20)
(1.03356 -0.0856856 -3.22661e-21)
(0.999989 -3.04926e-06 -8.45822e-26)
(1.02906 -0.0146655 -2.42106e-22)
(1.02775 0.0305366 9.77696e-21)
(1.00045 -0.000616374 -1.39161e-23)
(1.08568 -0.0967356 -1.32476e-22)
(1.03146 0.0183681 -2.24771e-21)
(0.982724 -0.0519887 1.98445e-21)
(0.970683 -0.00802957 -4.23098e-22)
(0.938613 -0.0132114 -3.36331e-21)
(1.00106 0.0310921 -1.81731e-20)
(1.02505 -0.116407 -3.93931e-21)
(1.01048 -0.00844274 9.38259e-23)
(0.940827 -0.015082 1.32619e-21)
(0.999017 -0.00148067 8.84987e-23)
(0.986821 -0.0135859 4.61768e-22)
(1.00318 -0.00915744 -7.31157e-23)
(0.99893 -0.000155091 -1.88491e-22)
(0.985642 -0.0165717 2.40426e-23)
(1.23215 -0.0334983 -4.69329e-22)
(1.0832 0.000612637 8.3936e-22)
(0.999374 -0.000585853 5.01172e-24)
(0.999213 -0.00130503 -7.69805e-23)
(0.969068 -0.0107272 5.54047e-22)
(1.03817 0.0601374 8.50411e-21)
(0.996003 0.0261454 3.24948e-20)
(0.999975 -2.70025e-06 -3.62027e-25)
(1.00788 -0.00334643 7.74643e-23)
(0.91524 -0.0167571 -4.2222e-21)
(0.972909 -0.00475847 -1.65229e-21)
(0.989772 -0.0718466 -2.94308e-21)
(0.961577 -0.0349096 7.27289e-22)
(0.972707 -0.00593209 -3.61009e-23)
(0.926741 0.0226997 1.88611e-20)
(1.01604 -0.0510214 -1.01913e-22)
(1.0116 0.0191239 -4.95805e-21)
(0.977776 -0.0262671 -1.27803e-21)
(0.959096 -0.00644833 4.57676e-22)
(1.0008 0.0459438 -9.03195e-21)
(1.02546 0.00110086 3.49429e-21)
(1.17864 -0.0240399 3.28008e-22)
(0.998462 -0.00217494 -2.10137e-22)
(1.15874 0.0691633 4.8183e-22)
(1.03979 0.0067396 -6.36415e-21)
(1.0065 0.0929226 -2.26606e-20)
(0.954857 -0.0383275 2.23765e-21)
(0.991249 -0.00203829 1.30107e-22)
(0.943727 0.0763413 4.20367e-20)
(0.999935 -2.73386e-05 -2.86167e-24)
(1.00158 -0.00862957 -2.95224e-23)
(1.01151 0.0350995 7.3873e-21)
(0.999977 -2.11913e-05 1.59873e-24)
(0.998203 -0.00556491 -2.93923e-22)
(0.995736 -0.00109079 -9.73931e-23)
(1.00358 0.038226 -2.41416e-21)
(1.00181 0.0284377 8.96813e-21)
(0.935521 0.0839308 1.39287e-20)
(0.997897 -0.00539129 -1.83971e-22)
(0.99671 -0.000411855 -1.10668e-22)
(1.00002 -3.25415e-06 -4.673e-25)
(0.934662 -0.00807087 -5.78037e-21)
(1.00044 -0.000548583 1.91822e-23)
(1.06139 -0.0379244 -1.70055e-21)
(1.00818 -0.00363898 5.17691e-22)
(0.960123 -0.00763072 9.45622e-22)
(1.18367 0.00252903 1.91108e-22)
(1.10751 0.0768849 2.54321e-22)
(0.99986 -7.16478e-05 4.5191e-24)
(0.999474 -0.000675956 -5.25119e-23)
(1.03875 0.0743748 -3.48759e-21)
(0.999935 -1.95303e-05 -1.40137e-24)
(0.999882 -1.34452e-05 2.15178e-24)
(0.990327 0.0979929 -2.31977e-20)
(1.06218 -0.0456469 3.41074e-22)
(1.01678 -0.0733188 -1.80996e-21)
(0.984901 -0.0502428 -2.8147e-21)
(0.973728 -0.00853848 1.21443e-21)
(1.01274 -0.0527608 1.79828e-22)
(0.917368 -0.0141521 2.22272e-21)
(0.999975 -1.93103e-05 -5.90798e-25)
(0.972598 -0.0619253 -1.11596e-21)
(1.11007 0.0843663 -6.61251e-21)
(0.99643 -0.00155932 7.28245e-23)
(1.00008 -7.2748e-06 -4.99576e-24)
(1.07853 0.0805532 6.86652e-22)
(0.99869 -0.000423282 1.99979e-22)
(0.98657 -0.0159114 7.38598e-22)
(1.00936 -0.0500897 5.92422e-22)
(1.00002 -2.36392e-06 -2.00199e-25)
(1.00095 -0.0021254 -7.71899e-23)
(1.03445 0.0595387 1.05251e-20)
(1.09665 0.0906645 -8.68448e-21)
(1.00208 0.0825905 -3.04276e-21)
(1.08045 -0.0899501 1.32432e-21)
(1.03743 -0.0812614 7.53979e-22)
(1.14047 -0.124606 -5.14572e-22)
(1.02521 -0.00218235 7.04288e-21)
(1.03178 0.0559514 -3.43163e-21)
(0.999774 -2.3774e-05 -1.64057e-23)
(1.00004 -2.22772e-05 1.89682e-24)
(0.95023 0.0118969 -1.86206e-20)
(0.992273 -0.0150781 -2.6641e-22)
(0.999349 -0.00052233 -4.98621e-23)
(0.975247 -0.0607565 2.28931e-21)
(0.98619 -0.0143527 -5.3995e-22)
(1.0161 0.0862737 -2.53968e-20)
(1.01242 0.0837475 -5.38066e-21)
(0.986719 -0.0738955 8.13823e-22)
(0.894381 0.0566227 -1.60167e-20)
(0.998785 -0.000479579 -1.47044e-22)
(0.988236 -0.00294892 4.78611e-22)
(0.940394 -0.0183849 1.83284e-21)
(1.03515 0.000713798 -1.48147e-21)
(1.02639 -0.148051 -3.8988e-22)
(1.09954 0.133218 -1.41781e-20)
(0.943912 0.0671629 -3.59997e-20)
(1.00007 -0.000117397 5.75062e-24)
(1.01041 -0.00779158 2.56164e-22)
(1.02927 0.0209335 1.21547e-20)
(0.995992 -0.00659589 -4.74989e-22)
(1.03422 0.0187636 -1.53904e-21)
(0.999444 -0.00138439 -1.24589e-23)
(0.912002 0.0946445 2.82179e-20)
(1.00701 0.086291 4.97256e-21)
(0.993923 -0.00235987 4.57356e-22)
(1.00407 -0.00917101 -1.1495e-23)
(0.999669 -7.26599e-05 -8.11445e-23)
(1.13328 0.106131 3.35231e-21)
(0.999898 -1.16734e-05 6.34897e-24)
(0.994569 -0.0121809 2.25128e-22)
(0.927487 -0.0368478 2.5289e-21)
(0.999922 -2.83466e-05 -1.41631e-24)
(0.998688 -0.00318762 -5.09655e-23)
(0.999566 -0.00134408 2.31601e-23)
(1.07089 0.0497388 8.84264e-21)
(0.999978 -2.73707e-05 1.88334e-24)
(0.995024 -0.000566986 2.58857e-25)
(0.95248 -0.0552201 6.7362e-21)
(0.869562 0.0304948 -9.33957e-21)
(1.08247 -0.00446929 -1.13174e-21)
(0.924098 0.0640841 2.16362e-20)
(0.99995 -8.92576e-06 -3.44265e-24)
(1.00667 -0.0511 -4.55946e-23)
(0.999802 -0.000343388 -1.789e-23)
(1.00135 0.0951076 -2.27545e-20)
(1.00421 -0.000853953 -2.38672e-22)
(0.994062 0.0350761 1.05837e-20)
(1.00324 -0.0110774 -2.03496e-22)
(1.00084 -0.0022727 8.27025e-23)
(1.03427 -0.0363022 -4.74509e-22)
(1.0251 -0.00107453 -6.52466e-21)
(1.00062 -0.000367776 3.96173e-23)
(0.999754 -5.99144e-05 4.04593e-25)
(1.00054 -0.000496083 8.92283e-23)
(0.995785 -0.00700208 -4.24282e-22)
(1.02509 -0.0755583 2.01564e-21)
(0.999953 -1.20276e-05 2.33039e-24)
(0.956721 -0.0366438 1.57645e-21)
(0.995956 -0.00125294 -1.82884e-23)
(0.999846 -5.03303e-05 8.82185e-24)
(0.999331 -0.000649724 1.62094e-23)
(0.988357 0.0588456 2.55737e-20)
(0.991203 -0.00095243 1.88553e-22)
(0.999176 -0.000118093 -1.69603e-23)
(0.901101 0.0135808 3.57191e-20)
(0.99852 -0.00306681 -1.15851e-22)
(1.06343 0.104164 -8.09252e-21)
(0.999779 -0.00031747 3.27545e-23)
(1.00955 -0.0249273 5.88933e-23)
(1.00002 -1.79264e-06 -1.70659e-25)
(0.981519 -0.0420212 -1.12958e-21)
(1.03456 0.000357613 2.28943e-21)
(1.18513 0.0126337 -9.81645e-22)
(0.975353 -0.0237485 2.08437e-21)
(0.999561 -0.000683378 6.0584e-23)
(0.983144 -0.0948663 1.43685e-21)
(0.981361 -0.000564099 8.67639e-22)
(0.999803 -2.17605e-05 8.39354e-25)
(1.00052 -0.000433133 -7.89661e-23)
(0.997794 -0.00399114 1.59342e-22)
(0.991623 -0.00170246 -5.63896e-22)
(1.00328 -0.00104989 -2.83466e-22)
(0.998687 -0.00219379 7.60489e-23)
(0.972076 -0.0109046 2.92342e-22)
(1.03011 -0.0725525 -1.4883e-21)
(0.972196 -0.00915597 1.29668e-21)
(1.1528 -0.0309909 -3.98523e-23)
(0.962694 -0.010304 -1.65081e-21)
(1.01863 0.109941 2.5444e-21)
(1.01443 0.112712 -1.87366e-20)
(0.998373 -0.000874768 -1.28478e-22)
(1.20843 0.011952 -7.51617e-22)
(0.999982 -3.66943e-06 -1.99276e-25)
(0.997759 -0.00494649 -1.94518e-22)
(0.969834 -0.00256953 3.3151e-21)
(1.00853 0.0284913 6.12699e-21)
(1.04313 0.0121936 -5.97078e-21)
(1.00011 -3.81151e-05 1.13252e-23)
(0.997894 -0.00466242 -1.27207e-23)
(0.964088 -0.0113852 1.24436e-21)
(1.05502 0.0432778 -3.56621e-21)
(0.998935 -0.00136516 6.6429e-23)
(1.00367 -0.00087074 1.59838e-22)
(1.00135 -0.00111636 -1.43327e-23)
(1.13315 0.0282869 4.3188e-21)
(1.23215 -0.0470365 -3.07168e-21)
(1.03962 0.131421 1.19264e-20)
(0.998267 -0.000280625 -1.2509e-22)
(1.07218 -0.0428659 -1.17385e-21)
(0.999876 -7.71054e-05 -7.15367e-24)
(1.00536 -0.00810608 -5.50686e-22)
(0.999941 -1.54119e-05 -9.86799e-25)
(0.984083 -0.0251346 3.65034e-22)
(0.999624 -8.52291e-05 -1.56134e-23)
(1.01451 -0.0242398 1.29703e-22)
(1.23272 0.015897 1.55369e-21)
(0.970146 -0.0339848 2.50315e-21)
(1.01085 -0.024195 -6.06368e-23)
(1.00935 -0.00700438 -3.34689e-22)
(0.999206 -0.000153531 7.60664e-23)
(1.02989 -0.0188936 7.82813e-22)
(0.996904 -0.021813 3.43653e-22)
(1.08327 0.0132646 -2.4137e-21)
(1.06557 0.0474833 4.04521e-21)
(1.19711 -0.13159 7.88624e-23)
(1.15802 -0.049516 -1.19408e-21)
(0.980531 -0.00114636 -9.27754e-22)
(1.00557 -0.00404133 5.10523e-22)
(0.930357 -0.0348363 -9.75906e-22)
(0.926663 0.0831659 -4.34449e-20)
(1.13699 -0.0518971 8.48685e-22)
(1.02976 -0.0113003 -3.05159e-21)
(0.903664 0.0611648 -2.17214e-20)
(0.998326 -0.000211724 6.18155e-23)
(0.998093 -0.00108064 -3.96754e-23)
(1.17566 -0.0351357 -1.07114e-21)
(0.998852 -0.00237376 -4.03594e-23)
(1.01613 -0.0474199 1.42882e-22)
(1.00638 -0.00199569 1.78851e-22)
(0.996874 -0.000483061 -9.84272e-23)
(0.997713 -0.000404767 -1.54978e-22)
(1.03464 0.0271319 7.11843e-21)
(0.999927 -0.000170502 -3.35387e-25)
(1.00059 -0.000297121 -3.52514e-23)
(1.00009 -1.53651e-05 8.55668e-24)
(0.996159 -0.000763622 5.24243e-22)
(0.993174 -0.0107129 5.92013e-22)
(0.999981 -2.77563e-06 1.47308e-25)
(0.998803 -0.000284452 1.59416e-23)
(0.976221 -0.0208853 7.32896e-22)
(0.948958 0.0177253 1.16252e-20)
(1.01299 -0.0253165 -4.50621e-23)
(0.992315 -0.0141252 9.5438e-22)
(0.961888 0.0657375 4.98817e-21)
(1.00091 0.0300933 1.61861e-20)
(1.07228 0.00148486 -1.95533e-21)
(1.199 0.0175417 6.87465e-23)
(0.932938 -0.00596172 3.15144e-21)
(1.00554 -0.00466319 -2.52489e-22)
(1.00963 0.0468508 -8.95919e-22)
(0.987195 -0.00262106 -1.14368e-21)
(1.04354 0.10366 3.45804e-22)
(1.01257 -0.056727 1.78324e-23)
(1.05101 -0.129415 -1.37789e-21)
(1.0917 0.0872043 5.37616e-21)
(1.04625 0.10939 -1.05407e-20)
(0.95826 -0.0315643 3.49953e-21)
(1.04426 0.0100556 -3.86931e-21)
(1.10473 0.137889 1.32719e-20)
(1.05735 0.104738 1.52873e-20)
(1.02628 -0.00214887 2.22072e-21)
(0.996658 -0.00168226 1.14357e-22)
(0.995342 -0.00260965 9.99086e-23)
(0.999902 -2.72766e-05 -3.36782e-24)
(1.01995 -0.0310684 1.31224e-22)
(0.986821 -0.0022003 2.68961e-22)
(1.00114 -0.00267362 -6.75189e-23)
(0.999882 -2.78769e-05 -6.35997e-24)
(0.99823 -0.000801002 5.01717e-23)
(0.979768 -0.0937808 -2.37335e-21)
(1.11561 0.0399389 2.13295e-21)
(0.979967 -0.0071966 -1.48152e-21)
(0.999526 -0.014239 3.72081e-22)
(0.995763 -0.000833582 -2.81e-22)
(1.0692 -0.0459831 1.9283e-23)
(0.992006 -0.0017865 -9.04261e-22)
(1.00281 -0.0083003 2.08646e-22)
(1.11763 0.13139 2.12917e-21)
(0.997958 -0.000384065 -3.59767e-22)
(0.999976 -5.2319e-05 -1.22471e-24)
(0.999942 -0.000205119 -7.86544e-25)
(1.00005 -0.000120199 7.87601e-24)
(0.974969 -0.00949013 6.81024e-22)
(1.03289 0.0248057 -8.43306e-21)
(0.995499 -0.000635722 1.10255e-23)
(1.02538 -0.00992285 1.9736e-21)
(1.03625 -0.153412 2.79896e-21)
(0.995949 0.0842081 -4.84008e-22)
(1.00456 -0.00832279 1.82481e-22)
(1.00738 -0.00518478 -8.31395e-23)
(0.994314 -0.00294033 -3.63594e-22)
(0.992935 0.0585976 -2.50262e-20)
(0.99884 -0.000147469 5.11844e-23)
(1.04355 0.135482 -6.04065e-21)
(1.00912 0.0198874 -9.55864e-21)
(0.999871 -3.42491e-05 7.45293e-24)
(1.01024 -0.0578827 -1.09442e-21)
(0.996298 -0.000882135 -2.58868e-22)
(0.993982 -0.072594 3.59877e-21)
(1.00062 -0.00015855 3.52266e-23)
(1.06714 0.00421134 2.75731e-21)
(1.00849 -0.0181449 -7.2098e-24)
(1.00691 -0.00467435 4.35588e-23)
(0.999066 -0.000183883 -1.01522e-22)
(1.07607 0.0470161 4.29914e-21)
(1.05029 0.0415433 1.39362e-21)
(1.01463 -0.0767071 1.80228e-21)
(0.977317 -0.024334 -1.40449e-22)
(0.997671 -0.00426308 -1.37846e-22)
(1.0028 -0.0465866 -2.00981e-21)
(1.15378 0.0592891 -3.91353e-21)
(0.875926 0.0472515 -2.04826e-20)
(1.10035 -0.0815707 -1.33118e-21)
(1.0059 -0.00874452 -8.54695e-23)
(0.999992 -3.35707e-06 -2.68054e-26)
(0.984825 -0.00582289 -1.18595e-21)
(0.997494 -0.000439693 3.35536e-22)
(1.02856 -0.0191139 1.13747e-21)
(1.01458 -0.124903 -1.18442e-21)
(1.20777 -0.00173637 5.36374e-22)
(0.985505 0.0795283 -3.07939e-20)
(1.0592 0.0399604 5.88097e-21)
(1.14127 -0.111678 2.2791e-21)
(1.07853 0.0872913 2.28451e-21)
(0.999449 0.0315974 2.96299e-20)
(1.0212 -0.00273273 1.63387e-21)
(1.00136 -0.00258233 1.54879e-22)
(1.02647 0.0633056 5.30119e-21)
(0.999072 -0.00231219 9.00329e-23)
(0.999799 -0.000190019 7.09184e-24)
(0.978923 -0.00240926 4.15291e-22)
(1.0001 -3.71505e-05 2.14498e-24)
(1.15183 -0.132726 1.35336e-21)
(1.00508 -0.0202369 -5.86507e-23)
(0.984012 -0.0412442 1.89171e-21)
(1.00209 -0.00176351 7.88112e-23)
(1.07264 0.077298 1.22351e-20)
(0.998047 -0.000363914 -2.96489e-23)
(0.999973 -4.18359e-05 -1.65291e-25)
(1.04357 -0.135799 1.52125e-21)
(1.00185 -0.00151861 -4.61497e-23)
(1.1154 -0.00275493 -5.80159e-22)
(0.945803 -0.0188129 6.49788e-22)
(0.919693 -0.0230594 3.29429e-22)
(1.21088 0.061846 -1.53888e-22)
(1.02662 0.0199595 -3.17419e-21)
(1.02271 0.005847 1.9544e-21)
(1.02131 0.00549107 -7.86343e-22)
(0.999774 -4.93609e-05 2.52453e-24)
(1.12396 0.039276 1.64076e-21)
(1.08367 0.0176835 2.80807e-21)
(0.999435 -0.00073414 2.35107e-23)
(0.980908 -0.00780568 1.72134e-21)
(1.00068 -0.000233083 -3.92026e-23)
(1.01432 -0.0222466 -8.5232e-22)
(1.01136 -0.0321166 -3.94074e-23)
(1.00495 -0.00153026 1.40269e-24)
(0.999171 -0.00146053 -1.0732e-22)
(1.13173 0.0980224 -1.0274e-20)
(0.999976 -2.50981e-05 -2.26163e-24)
(1.00023 -0.000123429 -1.06589e-23)
(1.00221 -0.00119366 -3.29741e-24)
(0.973825 -0.00410759 1.15034e-21)
(1.02141 -0.0120444 1.39956e-21)
(0.982644 -0.0347654 -2.69182e-21)
(0.967472 -0.00643374 -6.71092e-22)
(1.02065 -0.0721316 1.01301e-21)
(1.05968 -0.162272 -2.9924e-21)
(1.03201 -0.0332993 3.29573e-22)
(1.0309 0.0639971 -3.02607e-20)
(1.22236 0.0216832 -1.22979e-21)
(0.992626 -0.0030069 -4.69606e-23)
(0.907092 0.0886136 3.36457e-20)
(0.975376 -0.068465 4.00398e-21)
(0.992842 -0.0113864 1.86021e-22)
(0.968331 -0.00532592 1.10389e-21)
(0.998181 -0.0210099 -1.00634e-22)
(0.975515 -0.00298526 1.7599e-21)
(0.988667 -0.0045939 -3.45159e-22)
(1.03027 -0.0133533 -2.11941e-21)
(1.14627 -0.0554355 -1.98174e-22)
(0.999971 -4.888e-05 -1.92307e-25)
(1.02606 -0.0130637 -2.33134e-22)
(0.999893 -3.40395e-05 -3.59219e-24)
(1.0112 0.0957065 6.07576e-21)
(1.15485 0.0836905 7.09464e-21)
(0.99465 -0.00224312 1.14731e-22)
(0.983794 -0.00208743 -1.57833e-21)
(0.999793 -6.08638e-05 -1.86629e-23)
(0.998439 0.0529405 1.8641e-20)
(1.03315 0.1083 1.40309e-20)
(1.12672 0.0303804 -2.30878e-21)
(1.13863 0.12482 -8.4735e-21)
(0.975645 -0.0727063 -1.72118e-21)
(0.998548 0.00962979 -2.80825e-20)
(0.999932 -0.000150486 3.11363e-24)
(1.0544 -0.0274958 2.61382e-21)
(0.978478 -0.00183799 -6.44521e-23)
(1.0994 0.0743988 -2.50953e-21)
(0.934299 0.0609905 -2.63579e-20)
(1.15791 0.0519841 4.63317e-21)
(1.05332 0.0330774 9.87591e-22)
(1.0003 -0.0140794 -5.84093e-23)
(0.999778 -9.47995e-05 -1.71571e-23)
(1.14092 0.109335 3.51404e-21)
(1.21799 -0.0257983 3.85643e-22)
(0.995837 0.0611922 -5.87819e-22)
(1.10762 -0.00436737 4.22633e-21)
(1.03364 0.0518342 8.91887e-21)
(0.992171 -0.00268943 -1.60841e-22)
(0.992266 0.0797034 8.36285e-21)
(1.03727 0.103042 4.94787e-21)
(0.989965 -0.00386702 -9.66964e-22)
(0.991647 -0.00359034 -3.58561e-22)
(1.15205 0.0989717 1.40573e-22)
(0.916403 -0.0214021 -4.46628e-21)
(0.999907 -0.000175015 -4.97146e-24)
(0.985583 -0.00628148 1.52558e-21)
(0.923542 -0.0299499 3.2778e-21)
(0.992374 -0.0906375 -5.04286e-22)
(1.01058 -0.00269409 -1.4301e-21)
(1.00932 -0.00635428 9.30423e-23)
(0.999864 -0.000217743 -9.73127e-24)
(1.03538 0.114078 -2.10958e-20)
(1.00067 -0.0127402 9.70957e-24)
(0.999887 -6.70514e-05 3.18082e-24)
(1.0293 -0.066416 1.06858e-21)
(0.999459 -0.000481971 2.09554e-23)
(0.999755 -8.53258e-05 1.28092e-24)
(1.00616 -0.0134243 -9.95646e-23)
(1.06078 0.0772688 1.67128e-20)
(1.03239 -0.121679 2.08915e-21)
(0.952805 0.061541 1.54668e-20)
(1.00007 -1.14082e-05 -6.06195e-24)
(1.06633 0.0810679 -1.74298e-20)
(1.01998 -0.0573686 8.37969e-22)
(0.999917 -0.000213516 -1.42545e-24)
(1.00003 -6.87862e-06 -1.98523e-24)
(1.00304 0.0118405 -1.57725e-21)
(1.05613 0.0668791 6.24822e-21)
(0.995676 -0.00275169 9.93258e-23)
(1.05145 0.052213 -8.1148e-21)
(1.00003 -2.23499e-05 1.4527e-24)
(1.05162 0.0578618 -1.12402e-20)
(1.18104 -0.135579 3.17256e-21)
(0.989408 -0.00346928 1.06444e-21)
(0.999216 0.0154231 -3.82603e-20)
(0.975392 -0.0570732 2.65801e-21)
(1.14276 0.118558 8.27367e-21)
(0.969843 -0.00530994 6.72297e-22)
(1.05646 0.0609728 1.46425e-20)
(1.06131 0.0702989 -4.52063e-21)
(0.98192 -0.00961552 2.4814e-21)
(0.976154 -0.011874 -1.83069e-21)
(0.994716 -0.0113095 5.50993e-22)
(0.996925 -0.000820695 -8.47509e-23)
(0.999783 -0.000211651 1.96046e-23)
(1.0004 -0.012194 -1.75271e-23)
(1.04743 0.0977657 -2.50562e-21)
(0.999969 -3.83418e-05 5.97634e-25)
(1.04664 0.0498592 1.07343e-20)
(1.04876 -0.119685 3.23036e-21)
(1.00668 0.0634408 7.29221e-21)
(1.0463 0.0450046 -1.22147e-20)
(0.920197 -0.028117 -4.01364e-22)
(0.95961 0.078699 -3.23655e-20)
(0.998302 -0.00128816 7.25807e-24)
(1.01942 -0.0285437 3.66793e-22)
(1.06646 -0.0835126 7.6732e-22)
(0.976606 -0.00280535 -1.06684e-22)
(0.993074 -0.00377925 4.77361e-22)
(1.01701 -0.0592038 -7.55875e-22)
(1.06121 -0.017895 -2.70674e-22)
(0.914602 0.0552662 4.13257e-20)
(1.00005 -2.1414e-05 6.75961e-24)
(0.997994 -0.00137457 9.6339e-23)
(1.02814 -0.0853745 4.82511e-23)
(1.00002 -5.54406e-06 2.48782e-25)
(1.01189 0.101969 2.98689e-21)
(1.00188 -0.00130896 0)
(1.00001 -7.23591e-06 1.95983e-25)
(1.00021 -9.64114e-05 2.50916e-23)
(1.00044 -0.000132692 4.94938e-25)
(0.98438 -0.0234916 1.82643e-21)
(1.02575 -0.0180334 -8.19734e-22)
(0.99838 -0.00100322 1.51293e-22)
(0.999907 -1.90622e-05 6.6542e-24)
(0.992605 -0.00354436 2.65467e-22)
(1.00545 -0.0140086 -7.36353e-23)
(1.00222 -0.134254 -3.2399e-21)
(0.926999 -0.00946081 3.19118e-22)
(1.02058 -0.0107464 2.44081e-21)
(0.999971 -3.04156e-06 1.92609e-24)
(1.13137 -0.163603 4.09558e-21)
(0.985801 -0.00437433 -6.11518e-22)
(1.13852 0.0905039 -5.75754e-22)
(1.00029 0.0126808 -5.32117e-21)
(1.00141 -0.00388805 3.63338e-23)
(1.12594 0.0795681 -9.6933e-21)
(1.00017 -0.000104881 -2.60248e-26)
(0.986503 -0.0049017 1.79565e-23)
(1.02538 0.000952185 -4.00743e-21)
(0.993113 -0.00429971 -1.95505e-22)
(1.06259 0.0913024 -1.00057e-21)
(0.986441 -0.00765608 -1.1513e-21)
(1.05576 -0.0245761 -2.25205e-21)
(1.02583 0.00170723 -4.30226e-21)
(1.06476 0.0421296 -2.5029e-21)
(1.00875 -0.0166446 -3.8848e-22)
(0.989263 -0.00494412 2.86899e-23)
(1.08527 0.0765106 7.59643e-21)
(0.985088 -0.100225 -2.82054e-21)
(1.00022 0.100647 2.50056e-20)
(0.990548 -0.00557752 -1.11792e-21)
(1.06634 0.116596 -1.45775e-22)
(0.990516 -0.00489111 2.98596e-22)
(0.998791 -0.000577365 -9.80605e-24)
(1.05279 0.0296465 2.76613e-21)
(1.01809 -0.0327613 -7.24815e-23)
(1.03887 0.00370638 6.00522e-21)
(1.00193 -0.000923854 5.12732e-23)
(1.00001 -5.56484e-06 8.97747e-26)
(1.019 -0.15179 1.18977e-21)
(1.1157 0.124967 -1.1789e-20)
(1.00167 -0.0037703 -4.93305e-23)
(1.13521 0.0814395 9.26473e-22)
(0.987199 -0.00712802 -7.528e-22)
(1.12193 -0.172645 -1.55299e-21)
(1.05397 -0.0428866 8.45264e-24)
(0.982347 -0.0369964 1.51266e-21)
(0.998256 -0.00112395 -6.39447e-23)
(0.990767 -0.00123248 -2.26464e-22)
(0.976306 -0.0863129 -1.65947e-21)
(0.967407 -0.0115071 2.53045e-21)
(0.989918 -0.00456486 7.9092e-22)
(0.999848 -0.000491327 8.30654e-24)
(0.993181 0.106186 -3.072e-21)
(1.12276 0.0711479 5.90223e-21)
(1.02683 -0.0109426 -7.53349e-22)
(0.999791 -0.000164523 1.30747e-23)
(1.03479 0.0973937 -9.50967e-21)
(1.00001 -2.68213e-05 5.49992e-25)
(0.999807 -0.000146608 2.58e-23)
(1.11392 0.0697151 5.13152e-21)
(1.01288 -0.0275642 2.32465e-22)
(1.12483 0.113076 9.6934e-21)
(1.0253 -0.00285735 1.68253e-21)
(1.01887 -0.0135391 -1.69113e-22)
(1.10944 -0.0657557 6.35403e-22)
(1.07711 -0.145968 3.24418e-21)
(1.21119 0.0537243 -6.23626e-22)
(1.00136 -0.000939479 -1.12686e-22)
(0.948113 -0.0204706 -2.53557e-22)
(0.99998 -6.41337e-05 -3.42258e-25)
(1.00576 -0.0122392 7.02559e-23)
(1.0666 0.0873242 6.23172e-21)
(0.982903 -0.00898726 1.73155e-21)
(0.997097 -0.00164299 1.3396e-22)
(1.01935 -0.0455526 -4.1341e-22)
(0.997959 -0.00121328 9.22723e-24)
(0.999593 -0.0012078 2.70513e-23)
(0.907211 0.0128531 7.36086e-21)
(0.989973 -0.00601076 -6.33117e-22)
(0.999437 -0.00080227 -8.14857e-23)
(0.999981 -7.04102e-07 -3.83833e-25)
(1.01804 0.00689539 8.51002e-21)
(0.970947 -0.031735 -3.82951e-22)
(0.999663 -0.00060562 2.39264e-23)
(0.997102 -0.000954127 1.72785e-22)
(1.02444 0.0221572 3.4683e-21)
(1.07219 0.0127701 6.3471e-22)
(0.957922 -0.0288229 -2.17175e-21)
(1 -1.69803e-05 3.84619e-25)
(1.00132 0.0125211 2.28067e-20)
(0.985704 -0.0203682 -1.24534e-21)
(1.07251 0.070626 -1.2297e-20)
(1.01366 -0.00134964 -2.15964e-21)
(1.01574 -0.00133038 4.92288e-21)
(0.9655 -0.0143706 3.4474e-21)
(0.999899 -7.13209e-05 -2.06606e-24)
(1.0251 0.000367872 -7.76288e-22)
(1.07747 0.0101686 -8.96682e-22)
(1.18818 0.0584706 2.97555e-21)
(1.05535 -0.112977 6.48239e-22)
(1.04417 0.0923301 7.51602e-21)
(1.00614 -0.00182407 -3.49185e-23)
(1.09212 0.0802861 -1.04395e-20)
(1.00053 -0.0164476 -1.02304e-22)
(1.02453 -0.0641653 -2.01786e-21)
(0.999592 -0.000182104 -2.62434e-23)
(1.00444 -0.0216192 1.12221e-22)
(0.999894 -0.000471487 2.65401e-24)
(1.04901 0.0361132 -8.14576e-21)
(1.08516 0.125044 -2.17804e-20)
(0.998465 -0.00132618 5.09214e-23)
(1.02041 -0.0136021 4.72282e-23)
(0.98121 -0.00542994 5.96107e-22)
(1.05803 -0.0975328 2.56377e-22)
(1.05242 -0.104462 -1.61815e-21)
(0.998061 -0.000958317 1.01195e-22)
(1.05075 -0.0283441 -9.04437e-22)
(0.915468 0.00372869 -1.24407e-20)
(1.1846 0.0396483 1.95725e-21)
(0.999944 -0.000182416 6.49065e-24)
(1.06732 0.00972206 -2.29438e-21)
(0.997161 -0.0102332 -2.6632e-22)
(0.994843 0.00247554 2.65995e-20)
(0.987179 -0.00623645 1.04776e-21)
(0.996892 -0.0306809 -3.25058e-22)
(1.02177 -0.0400286 -4.06329e-23)
(0.995383 -0.0318167 -5.22788e-23)
(0.999411 -0.0242813 -7.16332e-22)
(0.99211 -0.00384718 1.83104e-22)
(0.999543 -0.0163385 3.86414e-22)
(1.00222 -0.00702457 -5.63973e-23)
(1.06299 -0.0217996 6.13557e-22)
(1.00011 -2.82785e-05 -1.6481e-23)
(1.21931 -0.0917549 -1.10708e-21)
(1.17046 -0.00236045 2.38784e-22)
(1.02316 0.111594 1.72602e-20)
(0.960095 -0.0272002 3.29695e-21)
(1.11608 0.108787 -4.93753e-21)
(1.00207 -0.000721684 1.8145e-22)
(1.08396 -0.0804839 -4.08291e-23)
(1.00762 -0.0439103 -7.46314e-22)
(1.02121 0.0384202 9.94929e-21)
(0.992677 -0.00465038 4.53073e-22)
(1.00012 -0.000201655 1.09872e-23)
(0.986534 -0.0211746 1.62432e-21)
(0.99564 -0.0109806 -2.08806e-22)
(1.04736 -0.0258503 1.88172e-21)
(0.969155 -0.00878555 -2.13969e-21)
(0.974844 -0.0111021 6.03849e-22)
(1.14009 -0.0324909 2.71533e-22)
(0.984204 -0.00350651 -1.0354e-21)
(1.01904 -0.0421087 2.4506e-22)
(0.994769 -0.0958672 2.00622e-21)
(1.00001 -8.88071e-06 1.70444e-25)
(1.06412 -0.0134928 3.39713e-21)
(0.995888 -0.0857992 -5.33472e-21)
(1.12189 0.0948089 4.64323e-21)
(1.11054 -0.0735842 -1.30907e-21)
(1.03725 0.00315168 5.10298e-22)
(1.03987 -0.116554 -4.20383e-21)
(1.04483 0.121217 4.61389e-21)
(1.04066 -0.0384156 6.40546e-22)
(0.963892 -0.0133048 -2.04022e-21)
(1.01975 -0.0532471 -9.33748e-22)
(0.960728 0.00536622 1.18482e-20)
(1.17999 -0.0994732 6.35515e-22)
(0.986436 -0.00580613 -3.18285e-22)
(1.0453 -0.146559 -3.287e-22)
(1.03521 -0.0747301 1.32642e-21)
(1.06126 -0.13251 -6.34413e-22)
(1.0545 -0.0900251 -1.57411e-21)
(1.08465 0.0696174 9.65064e-21)
(0.997127 -0.00188712 8.87236e-24)
(1.00841 0.0445928 3.70633e-21)
(1.0082 -0.00171589 2.57076e-22)
(0.999596 -0.000612375 -3.4512e-23)
(0.998785 -0.00263925 2.48784e-22)
(1.06283 0.00256076 -8.42067e-22)
(0.867703 0.00454335 3.57086e-22)
(1.00185 -0.0075142 3.0857e-23)
(1.02418 -0.0594905 2.91734e-22)
(1.0246 0.0253153 -5.76211e-21)
(1.00003 -8.32686e-06 -3.41377e-25)
(0.977395 -0.0111403 1.45957e-21)
(1.02397 -0.0102457 1.75375e-21)
(1.08441 -0.0416196 9.08192e-22)
(1.00832 -0.000904376 1.44159e-21)
(0.998363 -0.00234637 4.58395e-23)
(0.984336 -0.0469674 3.8672e-23)
(0.997884 -0.00982482 -7.65107e-23)
(1.00004 -6.47217e-06 3.74808e-24)
(0.977887 -0.0557694 -4.47789e-21)
(1.05335 0.0858431 -2.66388e-21)
(1.02342 -0.0347543 1.47658e-22)
(0.982082 -0.00613543 -1.11745e-21)
(1.00189 -0.000472943 -6.52407e-23)
(1.02776 0.0272635 7.59502e-21)
(0.999605 -0.000739172 -1.59828e-23)
(0.998709 -0.000756764 -5.03639e-24)
(0.999627 -0.000199287 -2.38674e-23)
(0.999248 -0.00247695 -6.16793e-23)
(1.17505 0.0594002 2.72227e-21)
(1.03336 -0.03908 7.38222e-22)
(1.00946 -0.0209812 1.26944e-22)
(0.980871 -0.00905531 -5.09762e-22)
(1.00005 -5.92489e-05 3.62692e-24)
(1.09784 -0.136628 4.27465e-21)
(1.21881 -0.0092063 9.93434e-23)
(1.10608 -0.14694 -2.06348e-21)
(0.998633 -0.0389974 -6.07121e-22)
(1.01483 -0.01014 1.64099e-21)
(0.999779 -0.000115667 1.08254e-23)
(0.988107 -0.0137863 -6.50774e-22)
(0.955503 -0.0582609 -2.63796e-21)
(1.17354 0.0414956 3.69097e-22)
(1.00513 0.0616462 -2.63475e-22)
(0.998834 -0.00373197 5.00489e-23)
(0.93809 -0.0416903 1.49022e-21)
(0.995077 -0.00326559 -4.3288e-22)
(1.03818 -0.0354989 -1.08082e-22)
(1.09747 0.0666626 9.9403e-22)
(1.00046 -0.000155687 -5.54625e-23)
(0.999837 -0.000249339 -3.84432e-24)
(1.14994 0.105525 9.51355e-22)
(1.16885 0.022165 -1.96536e-22)
(1.01989 -0.0169328 6.01172e-22)
(0.996929 -0.00205919 2.28099e-22)
(0.997815 -0.000544233 -2.2564e-23)
(0.963905 -0.0588157 6.44289e-22)
(0.99982 -0.000411253 -1.28898e-23)
(1.02111 -0.0368448 1.89562e-22)
(0.985674 -0.00172672 2.13983e-21)
(1.00048 0.0148793 -4.41416e-21)
(1.05751 0.0912344 -1.37786e-21)
(1.07766 -0.0745789 5.09652e-22)
(1.00067 -0.0859526 1.98043e-21)
(1.00677 -0.00163828 7.17491e-22)
(1.01693 -0.0275603 -5.33139e-22)
(1.16079 0.0046315 1.6271e-21)
(1.00096 -0.095876 -1.2357e-21)
(1.02299 -0.0510109 5.20207e-22)
(0.999998 -8.47048e-06 -3.84481e-28)
(1.14758 -0.0116136 7.36082e-22)
(0.971642 -0.00357198 2.02005e-22)
(1.0009 -0.106804 2.46476e-21)
(1.02262 -0.0319452 -8.03448e-22)
(0.950659 -0.0193432 -4.58417e-22)
(0.999583 -0.000349914 -1.16896e-23)
(0.996876 -0.00154031 -1.0175e-22)
(1.04195 0.0428767 9.43047e-21)
(0.967322 -0.013426 -7.75354e-22)
(0.999984 -2.3212e-06 4.04541e-25)
(0.996995 -0.00063647 -2.38915e-22)
(1.17495 -0.0839775 -4.34261e-21)
(0.999826 -5.92446e-05 2.71297e-23)
(1.0275 -0.0569351 -1.57577e-22)
(0.999949 -0.000145367 -5.35135e-25)