/*--------------------------------*- C++ -*----------------------------------*\
  =========                 |
  \\      /  F ield         | OpenFOAM: The Open Source CFD Toolbox
   \\    /   O peration     | Website:  https://openfoam.org
    \\  /    A nd           | Version:  7
     \\/     M anipulation  |
\*---------------------------------------------------------------------------*/
FoamFile
{
    version     2.0;
    format      ascii;
    class       volVectorField;
    location    "19";
    object      U;
}
// * * * * * * * * * * * * * * * * * * * * * * * * * * * * * * * * * * * * * //

dimensions      [0 1 -1 0 0 0 0];

internalField   nonuniform List<vector> 
29659
(
(1.01224 -0.0158438 2.28425e-22)
(1.0124 0.00524009 1.04861e-21)
(0.989253 -0.00391862 -1.37183e-21)
(0.964788 -0.058657 4.22083e-22)
(0.997162 -6.09333e-05 1.98207e-22)
(0.949201 -0.0361698 -6.25309e-22)
(1.06624 -0.0902457 8.36934e-22)
(1.01604 -0.0239578 -2.28426e-23)
(1.00233 -0.00225686 3.20012e-23)
(1.00021 -5.72899e-05 7.94467e-24)
(1.01793 -0.0319999 -3.1604e-24)
(0.997567 -0.0192329 -5.06224e-22)
(0.999443 -0.0002268 2.82246e-23)
(0.999964 -1.24645e-05 8.85329e-25)
(1.20152 0.0658481 1.6069e-21)
(0.992955 -0.00227424 2.10965e-22)
(0.999816 -0.000989606 -1.32984e-23)
(1.15173 -0.0184952 -1.50702e-22)
(0.997525 -0.00209495 -6.80922e-23)
(0.987267 -0.000944262 -3.01609e-22)
(0.999001 -0.00031916 -9.45837e-23)
(1.0022 -0.00225237 1.1182e-22)
(0.98915 -0.00414567 1.50804e-21)
(0.997512 -0.000199649 8.73199e-23)
(0.815271 0.202732 4.48011e-22)
(1.01351 0.00413375 5.64274e-21)
(0.999399 -6.83293e-05 6.41744e-23)
(0.916406 0.161706 -3.29075e-20)
(1.20552 0.0631604 -4.32658e-21)
(0.999077 -0.0105348 -9.88395e-23)
(1.01772 -0.0128498 1.63189e-22)
(1.04384 -0.00902214 -1.20844e-21)
(0.978145 -0.136238 4.24256e-21)
(0.997842 -0.026633 2.53227e-22)
(0.911638 0.154176 2.70282e-20)
(1.0041 -0.0378454 7.0081e-22)
(1.09127 0.0495639 -1.63573e-21)
(0.967262 -0.0328983 1.77007e-21)
(1.00616 -0.000953595 -4.40942e-22)
(1.00594 -0.000673247 8.38271e-22)
(1.0005 -0.000191104 -2.54123e-23)
(0.987068 -0.0354334 -1.74932e-21)
(0.999837 -0.00096166 -1.45933e-25)
(1.03034 -0.0824377 -2.74489e-21)
(1.00004 -6.49969e-06 -1.34192e-24)
(0.999306 -0.010685 7.40581e-23)
(0.99713 -0.0142963 -1.43537e-22)
(1.00009 -9.83438e-05 3.65987e-24)
(1.00386 -0.00422329 -4.57801e-22)
(1.09029 0.0463311 -6.74645e-22)
(1.12954 -0.10017 5.47169e-22)
(0.968693 -0.0515812 -1.99604e-21)
(1.04373 -0.00796571 4.26328e-22)
(0.950831 -0.0358526 -1.04595e-21)
(0.993129 -0.00233394 -1.85918e-22)
(1.2037 0.0525461 -2.78717e-21)
(0.99609 -0.00261447 6.71528e-23)
(0.998973 -0.00035178 1.19793e-22)
(0.999996 -0.0251105 -3.53797e-22)
(1.01234 -0.067425 -1.24558e-21)
(0.999923 -8.27653e-06 1.97644e-24)
(0.997611 -0.00214606 -1.40934e-23)
(1.2434 -0.019165 -1.86771e-22)
(1.00453 -0.0369836 -3.88501e-22)
(1.11144 0.13249 1.29131e-20)
(0.856156 0.0535338 7.02539e-20)
(0.99891 -0.0316049 -6.76994e-22)
(0.991596 -0.0160558 6.43352e-22)
(0.892998 0.0334577 2.82593e-20)
(1.00052 -0.000180678 1.64275e-23)
(1.01545 0.00496569 -7.68882e-21)
(0.985793 0.122581 1.88613e-20)
(1.00373 -0.0104677 -1.73669e-22)
(0.85692 0.23656 1.71287e-20)
(0.990662 -0.000738096 9.77354e-22)
(1.12857 -0.0593509 1.37542e-23)
(1.2733 0.0653778 2.87222e-21)
(0.968481 -0.0186683 4.22016e-22)
(0.999942 -2.59612e-05 -5.71676e-24)
(1.00443 -0.055777 -1.22876e-21)
(0.950907 -0.000842143 -6.92776e-22)
(1.03056 0.0518115 4.49442e-21)
(1.01248 -0.0165326 -6.85787e-22)
(1 -7.22016e-05 1.41305e-24)
(1.06883 -0.0879789 -1.27338e-21)
(1.23133 -0.14533 -3.41205e-21)
(1.06793 0.126693 -2.65366e-20)
(0.999421 -0.000223465 -2.54569e-23)
(0.999461 -0.000202161 -7.45593e-24)
(0.92446 -0.0465308 -2.54033e-21)
(0.992889 -0.0611006 2.32058e-21)
(0.968367 -0.0195575 4.71811e-22)
(1.00361 -0.00436648 7.83752e-23)
(1.06877 -0.0148938 -6.79694e-22)
(0.917292 -0.0199098 -2.12797e-21)
(1.09161 0.149868 1.223e-20)
(0.995559 -0.0790788 3.64972e-21)
(1.00055 -0.000446587 4.09546e-23)
(0.965948 -0.0736065 -3.6867e-21)
(1.20863 0.0912502 7.89527e-21)
(0.999939 -2.54177e-05 8.36562e-24)
(0.969968 -0.0121583 -2.53551e-21)
(0.999926 -1.01964e-05 -1.02143e-24)
(1.05366 -0.0241607 -3.39734e-21)
(0.967095 -0.0514141 1.30879e-21)
(1.04534 0.0145517 7.74198e-21)
(1.00991 0.110485 2.78359e-20)
(0.999483 -0.000204611 -6.34011e-23)
(0.999995 -8.02704e-05 -1.92665e-25)
(0.996229 -0.129979 -2.07605e-22)
(0.97556 -0.134755 -3.82326e-21)
(1.04838 -0.0482061 2.36369e-22)
(1.00002 -2.21417e-06 2.14347e-25)
(0.998692 -0.00712734 -2.57893e-22)
(0.99987 -0.00254646 1.15309e-23)
(0.991051 0.124592 1.59089e-22)
(1.06214 0.071896 -9.44077e-21)
(0.986422 -0.00841454 -1.03173e-21)
(1.00003 -7.90386e-05 2.0088e-25)
(1.00409 -0.0103624 -1.34576e-22)
(1.25903 -0.0670337 7.31958e-21)
(1.00854 0.0163082 1.23822e-20)
(1.18045 -0.0745 -2.99372e-21)
(0.853285 0.0656394 -6.4968e-20)
(1.00126 -0.000414108 -1.05794e-22)
(1.17319 -0.0546076 2.00011e-22)
(1.15077 -0.0142683 -8.58116e-22)
(1.01743 -0.0650176 9.20328e-22)
(1.00461 -0.00401032 -4.09842e-22)
(1.00003 -0.000509159 -4.94525e-26)
(1.02987 -0.080202 9.77886e-22)
(1.27244 0.0599289 1.24979e-21)
(1.04337 0.220261 2.6454e-20)
(1.18511 -0.0905525 -1.00578e-21)
(1.05189 -0.0236993 2.86438e-21)
(1.0172 -0.0123531 3.08781e-21)
(1.18804 0.223804 1.58512e-21)
(0.968599 -0.000898875 3.54413e-21)
(1.14142 -0.212701 1.1107e-20)
(1.2069 0.085498 -6.09503e-21)
(1.17257 -0.0499306 -1.22131e-22)
(0.932115 -0.00586966 -2.80348e-21)
(0.944114 -0.0503778 8.11603e-22)
(1.00002 -1.97483e-06 -9.29558e-26)
(0.999987 -3.87762e-06 5.26034e-25)
(0.997088 -0.000100998 -1.54892e-22)
(0.997349 -0.0140077 2.94871e-22)
(0.980862 -0.103485 -2.95594e-21)
(1.14084 -0.164147 4.97849e-21)
(1.26836 0.00760758 -2.50856e-22)
(1.03536 -0.0228207 1.54929e-21)
(1.0205 -0.0231089 5.06637e-22)
(1.0005 -0.000723479 6.26921e-23)
(0.999848 -0.000256754 7.78137e-24)
(1.00274 0.0377564 -2.74179e-20)
(1.00062 -0.00177544 7.35549e-24)
(0.992291 -0.0130633 4.59595e-25)
(1.20926 0.212274 -4.3907e-21)
(1.00809 0.0682166 -2.99458e-20)
(1.13244 -0.0965179 -1.08874e-21)
(0.953185 -0.00319867 1.18503e-21)
(0.965924 -0.0574676 3.04547e-21)
(1.20656 0.0564032 7.09826e-22)
(0.999942 -5.30534e-05 1.83491e-24)
(0.999986 -3.72189e-06 -1.96854e-25)
(0.986361 -0.00884432 3.72347e-22)
(0.945489 -0.049354 -4.50011e-21)
(1.00006 -0.000261164 -3.13504e-24)
(1 -7.66847e-05 6.67195e-25)
(0.992196 -0.0059087 -1.23473e-22)
(1.00004 -0.000493968 5.45514e-26)
(1.00661 -0.00688909 -2.28804e-22)
(1.20711 0.220893 4.95697e-21)
(0.969054 -0.00047285 -3.00075e-21)
(1.04729 -0.129817 -1.2223e-21)
(0.994163 -0.000113948 6.33584e-22)
(1.00243 -0.00312202 2.37914e-23)
(0.969158 -0.0119539 4.18855e-21)
(0.999035 -0.00711237 -2.36469e-23)
(1.18526 -0.0656744 1.59964e-21)
(0.999975 -1.16201e-05 2.97107e-24)
(1.01446 -0.044743 -4.91922e-22)
(1.07196 0.128461 9.34952e-21)
(0.991947 -0.0149135 -3.77555e-23)
(1.1346 -0.209133 -1.06546e-20)
(1.04677 0.0627297 -8.42408e-21)
(0.992749 -0.00325888 -9.22604e-22)
(0.979214 -0.0176476 1.14038e-21)
(1.00436 -0.0040285 6.22607e-22)
(0.999155 -0.00982109 -1.46677e-22)
(0.99968 -8.56648e-06 7.48042e-24)
(1.00686 -0.0207539 9.57035e-23)
(0.844315 0.0328195 2.73023e-20)
(1.00185 0.0315424 2.11504e-20)
(0.983542 -0.00711786 2.91987e-23)
(0.992635 -0.0128689 -4.04186e-22)
(0.965545 0.0694048 -2.64013e-20)
(1.01902 0.0408941 3.87973e-21)
(0.919014 -0.0196946 2.6381e-21)
(1.00132 -0.00055752 -8.27414e-23)
(1.07999 -0.111901 1.71674e-21)
(0.965032 -0.0975324 3.85023e-21)
(0.997879 -0.0196338 2.42913e-22)
(1.00097 -0.00122086 -1.30852e-22)
(1.19647 0.227068 2.05482e-21)
(0.992445 -0.00592232 -8.39726e-23)
(1.00772 -0.00617979 -2.57786e-22)
(0.978915 -0.102873 3.84717e-21)
(0.996552 -0.133057 5.13595e-22)
(0.999957 -6.04551e-06 6.912e-25)
(0.980936 0.185253 -2.90219e-20)
(0.998817 -2.68225e-05 -1.54582e-24)
(1 -6.16469e-05 3.69856e-25)
(0.999377 -0.000238018 1.08122e-23)
(0.996189 -0.0614516 -8.53054e-22)
(1.24033 -0.00314972 1.3762e-23)
(1.0156 -0.0438662 5.48978e-23)
(1.00748 -0.00577238 -1.76696e-22)
(0.997539 -0.000275117 2.17198e-22)
(0.920505 -0.021959 -4.87695e-22)
(1.00004 -0.000541459 -7.49175e-25)
(1.00055 -0.00181074 8.05675e-25)
(0.997349 -0.000233341 -1.42935e-22)
(1.03346 0.00119735 7.24475e-21)
(0.996987 -0.00451682 -4.61093e-23)
(0.99872 -0.00662386 7.67678e-23)
(1.03233 -0.00179082 3.54211e-21)
(1.00015 -0.000442553 5.74155e-24)
(1.00004 -5.56196e-06 3.50354e-25)
(1.00567 -0.000682784 8.99474e-23)
(0.971908 -0.0374894 -1.5049e-21)
(0.972441 -0.000461992 -1.46527e-21)
(0.994519 -0.000433753 -6.71385e-22)
(1.01666 0.00389755 6.35882e-21)
(0.98204 -0.00130274 7.04628e-22)
(1.02079 -0.0223483 -4.93518e-22)
(0.999963 -1.39206e-05 2.48737e-24)
(0.99664 -0.00298293 -2.61637e-22)
(1.00091 -0.00121105 1.41325e-22)
(1.07941 -0.107898 1.7063e-21)
(1.05889 -0.209691 7.85681e-21)
(0.998424 -0.000142429 1.13479e-22)
(1.00053 -0.000643422 -4.8529e-23)
(0.998608 -0.00646525 -2.59582e-23)
(1.00398 -0.00925484 -3.3239e-22)
(0.987522 -0.000697042 -1.28962e-21)
(0.999945 -5.05648e-05 -1.0286e-25)
(1.22594 -0.142425 -7.36132e-21)
(1.00005 -0.000553714 5.38624e-25)
(1.03308 0.00112302 -5.10413e-21)
(0.996214 -0.00261855 -1.35701e-22)
(1.00017 -0.000428954 2.51075e-24)
(1.04415 0.0151633 -4.92087e-21)
(0.959166 -0.0933559 -3.91095e-21)
(1.00029 -4.85615e-05 2.6495e-23)
(1 -1.43164e-05 1.90842e-25)
(0.931927 -0.00420113 -3.19183e-21)
(1.04106 -0.194315 -1.22459e-21)
(0.990155 -0.00940171 -9.98707e-23)
(1.01633 -0.0664254 -2.44907e-22)
(1.03631 -0.0236767 -2.53603e-22)
(1.07851 0.121676 1.15043e-21)
(1.00009 -9.28443e-05 1.02396e-24)
(0.972444 -0.036713 1.53264e-21)
(1.22587 -0.0722377 3.51528e-21)
(0.938422 0.100251 6.19507e-22)
(0.991851 -0.0145765 2.99486e-22)
(1.04487 0.0606593 1.03476e-20)
(1.12897 -0.0552844 5.28435e-23)
(0.999865 -0.00280303 -1.21636e-23)
(0.695809 0.0919138 3.66283e-20)
(0.99938 -0.00050116 -7.31329e-23)
(1.04639 -0.133547 -1.58398e-21)
(0.921825 -0.0219425 3.24821e-21)
(1.00258 -0.0029508 -1.31228e-22)
(1.20966 -0.0277689 8.27292e-24)
(0.990184 -0.0010703 -7.72348e-22)
(1.05517 0.238505 1.8688e-20)
(0.996021 -0.000303267 6.128e-23)
(0.979809 -0.0190328 -5.97761e-23)
(0.999766 -0.0025457 -6.59892e-23)
(1.21396 0.13495 1.82125e-21)
(1.00004 -0.0199078 6.31639e-23)
(1.08716 0.152999 7.8434e-22)
(0.999416 -5.26402e-05 -2.80542e-23)
(0.993311 -0.00216096 -2.9419e-22)
(0.959631 0.238423 -1.23512e-20)
(1.03888 -0.000260554 -5.95437e-21)
(1.03209 -0.00125384 4.12145e-21)
(0.966376 -0.0476203 3.67282e-21)
(0.999825 -3.76831e-05 7.75171e-24)
(1.00387 -0.00893236 -3.77424e-23)
(0.999812 -0.0010818 -2.40123e-23)
(1 -5.84118e-05 2.69537e-25)
(1.06989 0.00290847 1.57965e-21)
(1.00005 -6.07587e-06 3.85022e-26)
(0.977098 -0.0168781 2.66814e-21)
(1.22257 -0.0740774 -3.36097e-21)
(0.810686 0.212868 -3.30433e-20)
(1.04947 0.21892 -4.21468e-20)
(0.963211 -0.080664 1.20824e-21)
(0.984001 -0.0344792 9.46575e-22)
(0.973778 -0.00177976 7.00126e-22)
(1.0389 -0.044266 8.12415e-22)
(1.00752 -0.0204735 -1.81646e-22)
(0.979077 -0.018491 -1.57417e-21)
(0.964066 -0.088524 5.35929e-22)
(1.07717 0.125942 -1.73956e-20)
(0.999311 0.0321536 4.23862e-20)
(0.998527 -0.000173502 6.24734e-23)
(1.01261 0.111013 -3.80343e-20)
(1.06858 0.00130665 5.35659e-22)
(1.18511 -0.0718632 8.59646e-22)
(1.01572 -0.0184489 2.37971e-22)
(1.00125 -0.0183374 -3.01637e-22)
(1.02537 -0.061006 -6.06932e-22)
(0.993795 -0.00209037 -6.97403e-22)
(0.996929 -0.000760349 -4.56959e-23)
(0.99993 -8.07224e-06 1.04925e-23)
(0.998968 -0.0100624 2.14916e-22)
(1.10792 -0.0562429 1.25538e-22)
(1.21981 0.139397 -2.90666e-21)
(1.00187 -0.00159772 6.1811e-23)
(0.968498 -0.03082 -2.11747e-21)
(1.01793 -0.0188969 -7.52195e-22)
(0.999955 -1.91893e-05 -9.35809e-25)
(0.963596 -0.0844472 -1.92583e-21)
(0.76222 0.163264 -1.69555e-20)
(0.992838 -0.00556541 1.03621e-21)
(0.998737 -0.0052975 6.93582e-23)
(1.0164 -0.0182471 -1.47934e-22)
(1.00407 -0.0541643 1.56286e-21)
(1.11233 0.0279343 1.83329e-21)
(0.999416 -0.0114151 -3.63157e-23)
(0.999963 -6.1349e-05 6.45811e-24)
(1.00002 -3.118e-06 9.67581e-26)
(0.996887 -0.000692582 -5.04826e-23)
(0.954888 0.237423 1.78504e-20)
(1.05768 -0.0361695 6.81e-22)
(1.06445 -0.207471 -2.05766e-21)
(1 -1.43588e-05 2.85894e-26)
(1.03807 -0.199002 7.95857e-22)
(1.09745 -0.00962718 -2.09726e-21)
(0.994021 -0.000190364 -3.14683e-22)
(0.924719 -0.0079894 -3.94897e-21)
(0.998834 -0.00520502 -6.98119e-23)
(0.999495 -0.000229113 -4.64285e-24)
(0.973247 -0.0331856 -4.60641e-22)
(1.00107 -0.00133906 -6.33e-23)
(1.18951 -0.0631865 -1.36755e-21)
(1.01073 -0.00127749 -1.86417e-21)
(1.25016 0.0477105 -1.55144e-21)
(0.999905 -0.00276602 1.57117e-23)
(1.00501 -0.0162897 5.94679e-23)
(1.00826 0.0144121 -1.67424e-20)
(1.25434 -0.0660595 -2.90671e-21)
(1.00049 -0.00068076 -3.69029e-23)
(1.00052 -0.000603385 3.61856e-24)
(1.00054 0.148037 1.80948e-21)
(0.994188 -0.0622476 -4.64012e-22)
(0.999217 -0.0112413 4.43476e-23)
(1.01774 0.0459087 2.04485e-21)
(0.950954 0.0355508 5.19152e-20)
(1.13004 -0.104783 -1.82876e-21)
(0.998918 -0.030505 -2.06938e-22)
(1.23774 -0.000914394 -1.73482e-23)
(0.999109 -8.53944e-05 -4.75339e-23)
(0.989867 -0.00491646 2.73751e-22)
(0.996104 -0.000318485 -1.72424e-22)
(1.02098 0.038695 6.49499e-24)
(0.999986 -0.000889015 2.11123e-24)
(1.01037 -0.00154781 1.90451e-21)
(1.16466 -0.152377 1.43277e-22)
(1.03472 0.207797 4.18511e-20)
(0.864356 0.244576 -7.54637e-21)
(0.992971 -0.00325121 3.67118e-23)
(0.989864 -0.00918209 2.98764e-22)
(1.10913 0.137943 -1.02282e-20)
(1.01281 -0.0695035 1.79076e-21)
(0.999932 -9.61033e-06 -1.02337e-23)
(1.27161 0.0288027 9.55826e-22)
(1.03278 0.0018578 -2.17434e-21)
(1.03221 0.00187847 -1.47582e-21)
(0.993285 -0.0158627 -4.37978e-22)
(1.02208 -0.00237797 -2.92266e-21)
(0.932542 0.213019 7.20901e-21)
(1.13568 -0.174692 -1.42422e-21)
(0.988691 0.199103 7.08483e-21)
(1.01391 0.190487 -1.21861e-20)
(0.999996 -7.67997e-05 6.14224e-25)
(1.10458 -0.0549273 -2.04829e-22)
(1.13606 -0.168933 9.36802e-22)
(0.996846 -0.00455722 1.20305e-22)
(1.00191 -0.00171727 -1.01707e-22)
(0.942602 0.0413234 1.2413e-20)
(1.05962 -0.0372178 -8.69314e-22)
(1.00034 -8.91494e-05 6.05278e-24)
(0.97809 -0.0711859 -4.53885e-21)
(0.964116 -0.100095 -1.82171e-21)
(0.993457 -0.00222119 4.13753e-22)
(0.999859 -0.000249231 -9.77923e-24)
(1.11722 0.176319 -1.45811e-21)
(1.06102 0.069115 1.58714e-20)
(1.00006 -0.00060596 -3.95124e-25)
(1.00479 -0.00432658 8.05141e-23)
(1.00618 -0.00433254 4.37203e-22)
(1.20219 -0.115177 5.36889e-21)
(0.966428 -0.0463392 -3.32985e-21)
(1.00008 -0.000718934 -1.92886e-24)
(0.999982 -2.43522e-06 -2.80337e-25)
(1.00058 -0.000198039 9.69643e-24)
(1.11088 0.0300435 -1.8162e-22)
(0.967248 -0.0317369 -1.69353e-21)
(1.00475 0.0767125 8.77356e-21)
(0.936022 -0.0556533 1.94201e-21)
(0.984948 -0.0343246 -1.00211e-21)
(0.971645 -0.00138415 -2.80973e-21)
(1.0198 0.0439565 -1.00727e-20)
(1.23821 -0.0179397 -8.38759e-23)
(0.998573 -0.000184417 1.14445e-22)
(1.00928 -0.00705534 -4.67428e-22)
(1.001 -0.00132562 7.17293e-23)
(0.992038 0.221813 -1.76934e-20)
(0.969657 -0.0287777 9.10725e-22)
(1.00128 -0.00033661 -3.45911e-23)
(0.991083 -0.00437878 -3.73709e-22)
(1.17715 -0.0456554 1.10409e-22)
(0.999526 -0.0122642 -9.50823e-23)
(0.986309 -0.0151359 -2.06444e-22)
(1.00028 -0.000170418 -1.82516e-23)
(1.00029 -6.45408e-05 -8.057e-25)
(0.755031 0.174934 2.55387e-20)
(0.990255 -0.00159374 -4.79759e-22)
(0.994318 -0.00574149 4.25991e-22)
(0.999554 -0.00225502 -5.62014e-23)
(0.999131 -6.50674e-05 -6.52018e-24)
(1.0873 0.115509 -5.82595e-21)
(1.1707 -0.153107 3.47667e-22)
(0.982294 -0.0515357 5.9421e-22)
(1.00002 -2.51371e-06 -1.09491e-25)
(1 -4.69399e-05 2.43447e-25)
(0.968468 -0.0298013 2.39332e-21)
(0.991946 -0.00233409 9.87091e-23)
(0.993847 -0.00266483 -5.69651e-23)
(1.01725 -0.00647906 9.03523e-22)
(1.00692 -0.00293438 1.57252e-22)
(1.00036 -0.0203914 -1.13022e-22)
(1.14701 -0.0338972 1.34976e-21)
(0.977888 -0.00538552 -5.90108e-22)
(0.991073 0.193948 -6.02109e-21)
(1.01691 -0.0320001 -1.82798e-22)
(1.0003 -0.000171107 2.03157e-23)
(0.96219 -0.079158 1.78818e-22)
(0.980221 -0.0456704 -2.08272e-21)
(1.20223 -0.0220173 3.38483e-22)
(0.996567 -0.00750505 -1.27795e-22)
(0.986738 -0.0604651 -7.0002e-22)
(0.999974 -6.76842e-06 1.61238e-24)
(0.884033 0.171233 -2.59135e-20)
(1.01843 -0.00270067 1.64666e-21)
(1.0001 -0.000291215 -5.67012e-24)
(0.844277 0.0449286 -3.54217e-20)
(0.981041 -0.0517853 1.32778e-21)
(0.999974 -7.90575e-06 2.55229e-25)
(1.00173 -0.00156235 3.00094e-23)
(0.962394 -0.0827745 -1.0606e-21)
(1.04659 -0.0466072 2.63665e-22)
(1.05975 -0.0175459 1.96105e-21)
(0.999989 -4.14384e-06 4.3501e-25)
(0.990206 -0.000813476 3.81249e-22)
(1.02644 -0.0597086 1.05639e-21)
(0.993638 -0.00203839 5.72328e-22)
(0.99944 -6.04609e-05 -1.52208e-22)
(0.990066 -0.00507687 7.84815e-24)
(0.959945 0.0721194 3.06584e-21)
(0.991442 -0.0155945 -5.36763e-22)
(0.986886 -0.0148257 1.51456e-22)
(1.0034 0.0435237 -8.51726e-21)
(0.996702 -0.00281794 1.36465e-22)
(0.982215 0.227981 -2.20377e-21)
(0.999972 -7.97131e-06 -8.19271e-25)
(0.987466 -0.0345648 4.07047e-22)
(0.978413 -0.0978723 4.44358e-21)
(0.987936 -0.0608656 1.19234e-21)
(1.21871 -0.0845445 1.03305e-21)
(0.998577 -0.00692521 1.72841e-22)
(1.01121 -0.0299355 5.63049e-23)
(0.999897 -0.00297848 3.29826e-24)
(0.979511 -0.0268888 -1.17832e-21)
(1.04815 -0.0505091 6.55308e-23)
(0.999957 -1.83858e-05 4.79807e-24)
(1.00002 -1.46725e-06 -1.86533e-25)
(0.992341 -0.000521966 2.60593e-22)
(0.975028 0.133596 1.89456e-20)
(1.01543 -0.0247983 8.55399e-22)
(1.00312 -0.00440426 -1.26621e-22)
(0.919457 -0.0411408 2.73467e-21)
(1 -1.28441e-05 8.14708e-26)
(1.00118 -0.00146159 -1.15053e-22)
(0.999957 -0.000847791 -1.73614e-24)
(1.01712 -0.0237941 9.6461e-22)
(0.979718 -0.0198744 2.09722e-22)
(0.999536 -0.00035638 1.92734e-23)
(0.992001 -0.0139146 2.00914e-22)
(0.985054 -0.00877433 -2.19051e-22)
(1.00123 -0.000201652 -9.53918e-24)
(0.999971 -9.2787e-06 -5.10532e-25)
(1.22938 -0.0516989 -2.80899e-21)
(0.9996 -0.00221749 6.04568e-23)
(1.09396 -0.0148127 1.61335e-21)
(1.05884 0.193033 4.23828e-20)
(1.10143 0.139002 -9.53774e-21)
(1.00067 -0.0257395 -4.1831e-22)
(1.00677 -0.00265473 -5.2098e-23)
(1.0225 -0.00189926 1.79182e-21)
(0.999957 -0.00304477 -3.75035e-24)
(0.997319 -0.0130406 2.09826e-22)
(1 -2.15506e-05 3.77464e-25)
(1.00898 0.19233 -8.73579e-22)
(0.98521 -0.0199215 2.92969e-22)
(1.01689 -0.00596572 -6.46048e-22)
(0.978388 -0.00559028 1.22985e-21)
(1.00443 -0.016016 6.68019e-24)
(0.996774 -0.00738297 2.79665e-22)
(0.999873 -0.000255397 2.32398e-24)
(1.00002 -1.34e-06 -1.03069e-24)
(0.994512 -0.00571878 -3.1024e-22)
(1.06885 -0.0169382 -1.06536e-21)
(1.00864 0.0714175 1.37439e-21)
(1.00148 -0.000598368 -1.40798e-22)
(0.967984 -0.0737081 -9.78821e-22)
(0.969579 -0.0279127 -4.01834e-22)
(0.990446 -0.0006387 -1.43139e-21)
(1.2642 0.00822633 1.2291e-22)
(0.998422 -0.00121436 -6.85969e-23)
(1.00451 -0.0181138 -1.48664e-22)
(0.993366 -0.00350402 2.89603e-22)
(0.999884 -0.000246177 1.95142e-24)
(0.962696 -0.0866424 1.20961e-21)
(1.00436 0.0671495 -1.37413e-20)
(1.04501 0.0546779 -1.0592e-20)
(0.972541 -0.0186769 -1.93416e-22)
(1.00335 0.0638769 -5.78698e-22)
(1.0001 -0.000273396 1.07718e-23)
(1.00002 -1.88628e-06 3.13452e-25)
(1.2672 0.0287704 -4.80274e-22)
(1.20809 -0.023282 2.09226e-22)
(0.854152 0.176861 -1.22071e-21)
(0.999437 -0.102404 3.29741e-21)
(0.97195 -0.00191043 -8.99619e-22)
(1.17615 -0.0402964 -9.38279e-23)
(1.00141 -0.000624609 1.59382e-22)
(0.993124 -0.004719 1.65784e-22)
(1.00056 -0.000210504 -9.27128e-24)
(0.987 -0.000893523 -3.05815e-22)
(0.985696 -0.0162921 -4.29437e-22)
(0.999995 -4.20645e-05 -1.62218e-24)
(0.998922 -4.1725e-05 2.70818e-23)
(1.0324 0.202455 -4.10212e-20)
(0.999843 -0.000880249 2.2017e-23)
(0.8978 0.155782 3.25343e-20)
(1 -2.05017e-05 -2.86755e-25)
(1.25935 -0.035622 -2.44655e-21)
(1.09381 -0.0172484 -3.43828e-21)
(1.14704 -0.0302997 -1.49608e-21)
(1.00126 -0.000593272 9.50875e-24)
(1.00023 -5.25743e-05 1.61355e-23)
(0.980843 0.124528 -2.88522e-20)
(1.09741 -0.0123949 6.90674e-21)
(0.977732 -0.099804 -4.0347e-21)
(1.03193 0.0544375 4.87129e-21)
(0.997262 -0.0261246 1.77106e-22)
(0.983702 -0.00670496 -3.18585e-22)
(0.995059 -0.000273429 -1.72893e-22)
(1.25498 0.158324 -1.12178e-20)
(0.970881 -0.0333791 1.48464e-21)
(1.0395 -0.0424306 -5.61987e-22)
(0.992322 -0.0137891 -1.15388e-22)
(1 -1.27734e-05 -1.61221e-27)
(0.998438 -0.00114646 -5.82951e-23)
(1.00727 -0.00744263 2.72749e-22)
(0.977608 -0.00995891 1.57589e-21)
(0.973257 -0.0188297 2.89916e-22)
(0.947376 -0.0502879 -4.36133e-22)
(0.977374 -0.0105605 -1.19539e-21)
(1.02428 0.00349893 8.58605e-22)
(0.997413 -0.000176035 3.5837e-24)
(0.926246 -0.0471176 1.40746e-21)
(0.982849 -0.00114198 -4.37418e-22)
(1.00005 -0.000264049 9.77016e-25)
(0.985034 -0.000913632 -3.02699e-22)
(1.04019 -0.0458478 -8.50734e-22)
(1.02333 0.00377299 -4.74813e-21)
(0.968407 -0.0335713 -3.68637e-22)
(0.999979 -8.94154e-07 -7.6393e-27)
(0.978773 -0.020313 3.14724e-22)
(1.00263 -0.0185043 3.2783e-23)
(1.00169 -0.00145163 3.85189e-23)
(1.15947 -0.173053 -4.28177e-21)
(1.00346 0.0648698 -3.21124e-20)
(1.0011 -0.00144394 1.06742e-22)
(0.985289 -0.000688636 4.24567e-24)
(1.12063 -0.104865 5.53193e-23)
(1.03399 0.000273891 7.25347e-21)
(0.982336 0.0537358 -3.29365e-21)
(1.00225 -0.00307474 3.42823e-23)
(1.00045 -0.0268072 1.3063e-22)
(1.17983 0.138112 -2.47587e-21)
(1.02196 0.0341881 -2.48956e-20)
(0.988753 -0.0344524 1.08031e-21)
(1.00582 -0.00433826 -4.89505e-23)
(0.941724 -0.0595996 1.99319e-21)
(0.999997 -6.3924e-06 2.89807e-25)
(0.940466 -0.00253671 -1.44286e-21)
(1.00011 -8.66456e-05 2.11166e-24)
(1.1175 -0.106116 -4.41173e-21)
(0.999959 -4.40644e-06 -5.32094e-25)
(1.00003 -7.72903e-05 8.72834e-25)
(0.99999 -0.0299694 -1.56651e-22)
(1.24662 -0.0154807 5.48591e-22)
(1.11176 0.240455 1.63236e-20)
(1.0442 -0.0472118 -1.29727e-21)
(1.01709 -0.0190763 5.00759e-22)
(0.999999 -4.90189e-06 -8.37083e-26)
(0.992577 -0.005605 -5.59437e-22)
(1.00011 -2.62475e-05 -1.59848e-24)
(0.996181 -0.00299959 1.9511e-22)
(1.00003 -7.19594e-05 -6.72738e-25)
(1.06002 -0.0152298 -6.11554e-21)
(0.999427 -0.000589879 -7.52353e-23)
(1.08348 0.0680613 9.9966e-21)
(0.999847 -0.000272556 -1.49394e-23)
(0.984297 -0.00654984 -5.40468e-22)
(0.949837 -0.0013628 3.34733e-21)
(0.994804 -0.000373304 -2.23241e-22)
(0.972201 0.0733285 3.15864e-20)
(0.978941 -0.000898739 8.24212e-22)
(1.03167 -0.12901 2.74394e-22)
(0.993304 -0.00494956 8.59441e-22)
(1.03151 -0.00338336 -1.49675e-21)
(0.964853 -0.07482 4.22662e-21)
(1.02398 -0.00176943 -5.00249e-21)
(1.04871 -0.0881971 -1.12494e-22)
(0.999982 -1.90356e-06 7.53141e-26)
(0.999099 -0.025334 1.44396e-22)
(0.995139 -0.000360768 2.71785e-23)
(1.00031 -0.000115259 1.22927e-23)
(1.00011 -2.20051e-05 2.63935e-24)
(1.26158 0.154888 1.21585e-20)
(0.994051 -0.00267359 4.80639e-22)
(1.03389 0.00120865 8.2916e-21)
(1.00123 -0.0274512 1.59408e-22)
(1.00105 -0.000378875 3.66687e-23)
(1.02914 -0.0105175 -5.45738e-21)
(1.0002 -4.92141e-05 -3.53548e-23)
(0.99997 -4.22616e-06 -7.24326e-26)
(0.941188 -0.0033785 1.11431e-21)
(0.995746 -0.00152506 2.17263e-22)
(1.00004 -7.00734e-05 1.12058e-24)
(1.1171 0.130281 6.80892e-21)
(0.785655 0.141608 -4.73354e-20)
(0.999744 -0.000288576 3.62267e-23)
(0.952068 -0.00275104 -9.238e-22)
(1.00002 -1.87186e-06 2.25888e-25)
(0.924795 0.208934 -2.95332e-20)
(1.26378 -0.0358661 -3.24619e-21)
(0.964923 -0.0600346 -3.44392e-21)
(1.00006 -0.000695338 -2.1586e-24)
(1.03813 -0.0409565 1.35769e-21)
(1.03832 -0.00381038 -2.06482e-21)
(1.03978 -0.000349041 6.11766e-22)
(1.06111 -0.0184483 -7.5403e-22)
(0.999561 -0.00237721 -9.32083e-24)
(0.999841 -0.00105447 1.9017e-23)
(0.982979 -0.0198115 -9.32852e-22)
(1 -1.12216e-05 1.84796e-25)
(1.00002 -1.48443e-06 -5.79939e-26)
(0.969834 -0.0327892 -8.74064e-22)
(0.99732 -0.0780664 -1.79352e-21)
(0.948901 -0.0493459 -1.11963e-22)
(0.827456 0.20342 -1.07126e-21)
(1.00025 -3.18659e-05 -1.49358e-23)
(1.02104 -0.0973078 -3.75166e-21)
(1.00899 -0.00662461 -4.80341e-22)
(0.999972 -4.46624e-06 8.30925e-25)
(0.998766 -0.00493122 -1.51509e-22)
(1.00004 -0.000589744 -1.07859e-24)
(0.994587 -0.0160874 3.31728e-22)
(1.00006 -1.29665e-05 1.48794e-24)
(1.05084 -0.0866109 -2.57972e-22)
(1.02351 -0.00215731 4.85059e-21)
(0.984214 0.222408 6.18517e-21)
(1.03083 -0.00317415 5.62568e-21)
(0.999662 -0.00028245 2.83822e-23)
(1.00056 -0.000487874 -3.56852e-23)
(1.2018 -0.121026 -5.43184e-21)
(1.03378 0.000966265 -6.67071e-21)
(0.996233 -0.000493896 1.95016e-22)
(1.00002 -1.83827e-06 4.84417e-25)
(1.13035 0.103386 -1.08829e-20)
(1.11998 -0.211358 -1.86489e-21)
(0.999534 -0.100161 -1.46415e-21)
(0.982378 -0.00097239 -2.31603e-22)
(0.999974 -2.80984e-05 1.68449e-24)
(0.999664 -0.000266465 -1.66039e-23)
(1.12725 -0.214528 5.22522e-21)
(0.997624 -0.06251 -4.97193e-22)
(1.05225 0.0372752 1.50187e-21)
(0.988343 0.186875 2.61635e-20)
(1.03006 -0.12574 2.0623e-21)
(0.998461 -0.000105758 -3.56545e-23)
(0.999974 -1.30884e-05 -1.93332e-24)
(0.955076 -0.0640901 3.37139e-21)
(0.972375 -0.128475 -4.49081e-21)
(0.999754 -0.000298705 1.95329e-23)
(1.01199 -0.0291199 3.56516e-22)
(0.989136 -0.0335309 -1.89571e-22)
(0.99436 -0.00286643 1.89733e-22)
(0.997229 0.057263 -2.45454e-20)
(0.998435 -0.000686673 1.26952e-22)
(1.064 -0.0654367 -5.52262e-23)
(1.27735 0.0667922 -2.96639e-21)
(0.990591 -0.00413148 -5.45235e-22)
(0.849299 0.166433 -4.59861e-21)
(0.860343 0.0764831 1.48045e-20)
(0.999963 -6.50478e-05 -6.495e-24)
(0.999969 -0.000926375 -1.96601e-24)
(0.979195 -0.00119371 -5.28234e-22)
(1.01605 -0.00591133 -1.16922e-21)
(0.954081 -0.00253593 1.9227e-21)
(1.00633 -0.00538172 -5.0205e-22)
(0.99093 -0.00414462 5.10443e-22)
(0.99931 -0.000628423 -5.70044e-23)
(0.943083 0.207037 -5.19065e-21)
(1.08342 0.0646107 -1.55506e-20)
(1.00277 -0.0029808 8.8393e-23)
(0.709043 0.0873635 -9.34952e-21)
(1.00002 -1.64652e-06 -3.21744e-25)
(1.03223 0.00783402 -1.16564e-20)
(0.992312 -0.123968 3.19285e-21)
(1.02399 -0.0972602 1.46439e-21)
(1.00012 -0.000265478 -5.3883e-25)
(0.951872 -0.00139119 1.58195e-21)
(1.0291 0.00711302 6.57478e-21)
(1.01564 -0.00633741 9.67269e-22)
(1.03773 -0.00246022 2.87783e-21)
(0.999455 -4.7311e-05 1.07282e-22)
(0.999419 -0.000628547 6.8157e-23)
(1.03027 -0.0581823 2.77843e-22)
(0.995817 -0.00164357 -6.23328e-22)
(0.984633 -0.0148208 -1.01122e-21)
(0.998918 -0.00446954 8.97766e-24)
(1.11076 0.0386008 7.25524e-21)
(0.998782 -0.0263949 -9.95156e-23)
(0.993986 -0.00607536 1.02171e-23)
(0.915264 -0.0348579 -4.0359e-21)
(1.00473 0.147074 2.97629e-21)
(1.13302 -0.051854 -6.73084e-22)
(1.02846 -0.0100633 4.38842e-21)
(0.999516 -0.00022997 2.05288e-23)
(0.999381 -0.000411048 9.22794e-24)
(0.978593 -0.0265696 2.37213e-21)
(1.00121 -0.00157265 -8.57962e-23)
(0.996848 -0.000870608 -3.53324e-23)
(0.999975 -2.69529e-05 -6.36538e-25)
(0.999607 -0.00242189 1.86464e-24)
(1.02834 0.00657317 -2.55816e-21)
(0.980423 0.13064 -2.7652e-20)
(0.999845 -1.96421e-05 4.61388e-24)
(1.26213 0.116281 -8.72223e-21)
(0.999995 -5.25259e-05 6.90107e-25)
(0.996063 -0.00355123 2.6539e-22)
(0.99999 -0.000120517 8.13744e-25)
(1.00637 -0.00465719 -2.22705e-22)
(1.23067 -0.0557393 2.1522e-21)
(0.999952 -5.4548e-05 5.13568e-25)
(0.999951 -5.85139e-05 3.69949e-24)
(0.934714 -0.0563133 -1.85459e-21)
(1.00001 -1.11053e-05 -3.03965e-27)
(1.06504 -0.0185651 6.26858e-21)
(0.985155 -0.0527557 1.90523e-21)
(0.999972 -0.000814793 1.91588e-24)
(1.11889 0.077509 -8.57376e-21)
(1 -3.74762e-05 -5.32535e-25)
(0.999516 -4.9009e-05 9.41754e-23)
(0.999892 -4.50325e-05 1.583e-25)
(0.994204 -0.0060887 -1.59753e-22)
(0.999593 -0.00193134 -2.91291e-23)
(0.992487 -0.000395265 -1.75168e-22)
(1.00646 -0.149056 -3.71055e-22)
(0.999639 -0.00188095 1.94443e-23)
(1.0051 -0.00434453 -1.72842e-22)
(0.99997 -3.06443e-06 -3.09514e-25)
(1.11228 0.233248 -3.18046e-20)
(1.06199 -0.0667332 -1.88076e-22)
(1.13656 -0.05286 8.74591e-23)
(0.957332 -0.00757906 2.07657e-21)
(0.972506 -0.00537987 -3.8222e-22)
(0.998876 -0.00482242 2.50023e-22)
(1.00355 -0.00331521 2.40574e-22)
(1.07314 0.0878107 4.31281e-21)
(0.979418 -0.0470053 2.83178e-22)
(1.18835 0.102614 3.3741e-21)
(0.94685 -0.0172286 -3.74002e-21)
(0.995921 -0.003429 -2.50137e-22)
(0.999988 -5.1498e-06 -7.81642e-25)
(0.993138 -0.00351617 -3.49159e-22)
(1.06259 0.239345 8.49925e-21)
(1.11211 0.0935469 -2.03701e-21)
(0.979998 -0.0706474 1.54479e-21)
(0.92788 -0.00744283 8.65791e-22)
(1.11293 0.215814 8.7081e-21)
(0.989713 -0.000728793 4.52702e-22)
(0.985832 -0.113574 2.52126e-22)
(0.99999 -0.000115094 1.75754e-24)
(0.983776 -0.0530211 2.37296e-21)
(0.998993 -0.000283938 -1.34451e-22)
(0.729094 0.151568 -2.68153e-20)
(0.97696 -0.0930499 -3.37552e-21)
(0.999894 -4.0367e-05 8.64396e-24)
(0.923363 -0.024196 -2.2687e-22)
(0.979291 -0.0498683 1.32398e-22)
(1.05613 0.102014 1.57534e-20)
(0.996892 -0.000950104 -3.33887e-22)
(0.976914 -0.0481301 -8.44513e-22)
(0.997094 -0.0133703 -2.92256e-22)
(1.00008 -0.0289598 -3.25881e-22)
(0.998477 -0.000698568 -8.67545e-23)
(1.05386 0.0999744 -1.91593e-20)
(1.05204 -0.204745 3.47761e-21)
(0.978702 -0.0211466 -6.9826e-22)
(0.983643 -0.0184169 1.4902e-23)
(0.984427 -0.00618556 -2.17319e-22)
(1.00636 -0.00254376 -2.04559e-22)
(1.1123 0.207812 3.40444e-20)
(0.978621 -0.017155 3.17218e-22)
(1.02181 0.05237 1.07036e-20)
(1.00327 -0.00266555 1.83147e-22)
(1.22307 -0.0817389 -1.04265e-22)
(0.893627 0.168072 4.9074e-21)
(0.989509 -0.0005688 -1.56385e-21)
(0.999724 -5.17181e-05 1.88165e-23)
(1.08571 0.119974 4.50498e-21)
(1.02412 0.194905 -3.37371e-20)
(1.02934 -0.0561299 -3.21186e-22)
(1.09759 -0.0568733 8.23965e-23)
(0.994316 -0.0166882 -3.68681e-22)
(0.957986 -0.00685056 -1.23033e-21)
(1.1743 0.136304 1.00872e-20)
(0.953396 -0.0643486 5.74632e-22)
(0.999971 -2.69824e-05 2.17376e-24)
(0.991078 -0.000140215 -8.06574e-22)
(1.00005 -7.11136e-06 1.48347e-24)
(0.994625 -0.000335296 6.05827e-22)
(0.99997 -2.83525e-05 -3.38994e-24)
(0.997591 -0.0186517 4.85313e-22)
(0.99885 -4.6252e-05 4.77436e-23)
(0.996723 -0.00700071 3.2568e-23)
(1.20851 -0.104463 -9.07586e-22)
(0.999289 -0.000480287 4.8741e-23)
(0.999402 -0.000246646 3.33521e-23)