/*--------------------------------*- C++ -*----------------------------------*\
  =========                 |
  \\      /  F ield         | OpenFOAM: The Open Source CFD Toolbox
   \\    /   O peration     | Website:  https://openfoam.org
    \\  /    A nd           | Version:  7
     \\/     M anipulation  |
\*---------------------------------------------------------------------------*/
FoamFile
{
    version     2.0;
    format      ascii;
    class       volVectorField;
    location    "12";
    object      U;
}
// * * * * * * * * * * * * * * * * * * * * * * * * * * * * * * * * * * * * * //

dimensions      [0 1 -1 0 0 0 0];

internalField   nonuniform List<vector> 
115545
(
(1.03246 -0.0465197 -2.19421e-22)
(0.999996 8.87197e-07 -2.01666e-24)
(0.986002 -0.0116572 7.09857e-22)
(0.996502 -0.00381477 -1.27237e-22)
(1.00176 -0.00419374 2.165e-23)
(0.999066 -0.00140277 4.10362e-23)
(1.02323 0.12215 -2.08225e-20)
(1.05409 -0.08761 3.82522e-22)
(0.999698 -0.000469329 -2.11606e-24)
(0.999997 9.82341e-07 4.22349e-25)
(0.999776 -2.49048e-05 1.37442e-23)
(1.00014 -0.000124619 7.34174e-24)
(0.998651 -0.00458491 -4.35409e-23)
(0.91496 -0.00589644 -2.70642e-21)
(0.999695 -0.000481248 1.89439e-23)
(0.92605 -0.0265771 -6.07552e-21)
(0.999873 -0.000361443 8.20537e-24)
(0.999631 -0.000258007 -2.24371e-23)
(0.989814 0.123871 2.55522e-20)
(1.00181 -0.00424497 9.91822e-23)
(1.05967 -0.087955 3.1319e-21)
(0.994285 -0.000173652 -6.07028e-23)
(0.999563 -0.000342975 -2.19913e-23)
(0.994625 -0.00548553 -8.43306e-23)
(0.890624 0.0379263 2.43837e-20)
(1.11614 0.0211087 8.54084e-21)
(1.23599 0.00866849 -8.03835e-22)
(1.01796 -0.00429179 2.49322e-21)
(0.999988 -4.74533e-05 1.16573e-24)
(1.05259 0.212414 -2.29242e-20)
(0.999882 -5.01715e-05 9.06119e-24)
(1.05005 0.00967996 2.10465e-21)
(1.00732 -0.0110631 -7.39847e-23)
(0.985517 -0.00611464 -6.6554e-22)
(0.878363 0.105794 1.10941e-20)
(0.998037 -0.00118007 2.5527e-22)
(1.03188 0.134647 3.56469e-21)
(0.999872 -0.000370063 -3.52649e-24)
(1.2378 -0.090419 3.47184e-22)
(1.02827 0.066727 3.35225e-20)
(1.0506 0.0101995 -4.10314e-21)
(0.999626 -0.000267319 -4.36392e-24)
(0.982488 -0.0216624 -1.31962e-21)
(0.998043 -0.00114285 -1.81673e-22)
(0.965332 -0.059836 -2.0786e-22)
(0.915481 -0.00529751 2.82003e-21)
(1.00608 -0.013561 4.45942e-22)
(1.00559 -0.000683824 2.27787e-22)
(1.00015 -0.00672943 -5.5557e-24)
(1.00013 -1.37422e-05 -3.5188e-23)
(1 -2.25161e-07 -2.1568e-25)
(0.996462 -0.000162857 1.98134e-22)
(1.0375 0.0114055 6.73759e-21)
(0.999997 -4.22158e-07 -3.30687e-25)
(0.998166 -0.0079789 1.74919e-22)
(1.03713 0.0117305 -1.74091e-21)
(1.03008 0.000575132 4.83161e-21)
(0.959414 -0.0420245 -7.31671e-22)
(1.19881 0.0171575 3.12288e-21)
(0.989389 -0.0143666 1.50447e-21)
(0.999932 -0.000206902 -3.23604e-24)
(0.994542 -0.00580078 7.29646e-23)
(0.999228 -4.56655e-05 -4.009e-23)
(0.981489 -0.010223 1.93522e-22)
(0.999948 -5.31635e-05 -7.50997e-24)
(1.00096 -8.21403e-05 -1.1157e-23)
(0.998873 -0.00419806 1.82145e-22)
(1.03867 -0.00404108 4.21158e-21)
(1.25124 0.0215019 1.89372e-21)
(1.03053 0.000249886 1.99854e-21)
(1.08449 0.118036 9.08771e-21)
(1.20704 0.0559645 -5.30663e-21)
(1.02829 0.0656821 1.48571e-20)
(0.954679 -0.00394399 -5.09408e-22)
(1.02237 -0.0591197 -3.29269e-22)
(0.970495 -0.00992657 -2.70388e-22)
(1.14626 -0.0242316 -1.12214e-21)
(0.999268 -0.00244355 -6.94726e-23)
(0.997598 0.0862927 -8.28744e-21)
(1.11174 -0.00671368 2.51641e-22)
(1.11239 -0.00519939 1.38467e-21)
(0.999975 1.41635e-06 2.55204e-25)
(0.977109 -0.131962 2.98498e-21)
(1.0172 -0.00100299 -1.11682e-21)
(0.99647 -0.00102498 1.21719e-22)
(1.00013 -0.00012122 7.30877e-24)
(0.98135 -0.0161448 -8.91697e-22)
(0.999995 -1.36028e-05 -1.43104e-25)
(0.967491 -0.0105451 -1.13445e-23)
(0.999992 -2.6199e-05 3.00398e-25)
(1.22265 -0.054035 1.14566e-22)
(0.988586 -0.00609551 4.13865e-22)
(0.999986 -4.72144e-05 -1.59761e-24)
(0.998526 -0.00104881 1.89501e-22)
(0.999537 -0.00032338 -3.73616e-23)
(1.00032 -5.1514e-05 1.28086e-23)
(0.999638 -1.84689e-05 -7.16491e-24)
(0.977871 -0.13105 1.84809e-22)
(1.16222 -0.0787962 2.20575e-22)
(0.967656 -0.0102392 -4.32854e-22)
(0.999931 -0.000211476 3.53606e-24)
(1.02208 -0.00741776 -2.56574e-21)
(1.00263 -0.0123329 -8.98029e-23)
(1.00258 -0.000169475 -1.01564e-24)
(1.08273 0.116421 6.07318e-21)
(1.01262 -0.0876418 2.00747e-21)
(1.01627 0.0702208 -9.84809e-21)
(0.978009 -0.0819112 2.20804e-21)
(0.994585 -0.0291047 2.15132e-22)
(0.999985 -5.87427e-05 -2.07651e-25)
(1.12871 0.000913627 -3.1762e-21)
(0.999643 -2.41458e-05 2.84196e-24)
(1.14726 -0.0226414 7.0705e-22)
(0.99597 -0.0205996 -9.63515e-22)
(0.733744 0.0947685 -5.06728e-21)
(0.999763 -0.0121116 -3.59343e-22)
(0.999772 -2.0876e-05 -2.5416e-23)
(1.10051 0.113057 -1.11441e-20)
(1.00001 -1.25301e-05 7.29925e-25)
(1.20691 0.0539423 3.74021e-21)
(1.10082 0.115633 1.59366e-20)
(0.92529 -0.0271423 2.48097e-21)
(0.986467 -0.0122782 6.1192e-22)
(1.17402 0.00441193 2.10721e-21)
(0.999994 -1.98306e-06 -4.07687e-25)
(1.05187 0.209835 2.64347e-20)
(0.994578 -0.0059553 -7.71153e-23)
(0.876228 0.23411 -1.46715e-20)
(0.998194 -0.000107538 3.60814e-24)
(1.02695 -0.00064534 -3.17543e-21)
(1.04716 -0.055144 -7.77177e-24)
(1.00021 -3.14282e-05 1.09221e-23)
(1.13349 0.115797 -6.59354e-21)
(1.00013 -0.000114561 -2.21523e-23)
(1.00001 -1.09413e-05 3.62935e-25)
(0.992872 0.144811 4.07453e-20)
(0.907016 0.100091 -6.6644e-21)
(1.00731 -0.0112703 -8.64866e-23)
(0.998284 -0.00803841 -2.47721e-22)
(0.994602 -0.00573015 7.2033e-22)
(1.22196 0.165481 5.6206e-21)
(1.00008 -0.0115458 -1.2162e-22)
(1.00004 -3.61846e-06 -1.34205e-23)
(1.04551 0.0160818 8.7237e-22)
(1.04762 -0.0537685 4.59594e-22)
(1 -2.74167e-07 2.13904e-25)
(1.01181 -0.0156687 -1.01091e-24)
(0.9945 -0.00603393 -2.3376e-22)
(1.03835 -0.00370214 -6.5027e-21)
(1.00085 -0.00206723 -7.98827e-23)
(1.01145 -0.0869173 -1.51637e-21)
(0.964701 -0.0598909 1.52212e-21)
(0.988654 -0.0059453 2.65156e-22)
(0.999993 -1.50335e-06 1.81988e-25)
(0.996513 -0.000153355 1.15933e-22)
(1.00827 -0.008859 5.56473e-22)
(0.999983 -6.08524e-05 1.77271e-25)
(1.10823 -0.0270828 3.33925e-21)
(0.971989 -0.000713305 -2.70069e-23)
(1.01656 -0.120262 -1.19317e-21)
(0.970841 -0.01019 1.47143e-21)
(1.01167 -0.0154143 6.07397e-22)
(0.999242 -4.24077e-05 -2.94528e-23)
(1.00035 -0.0642468 1.87286e-22)
(0.993547 -0.0175611 -4.81967e-22)
(0.999073 -0.00055065 -1.21163e-22)
(1.02889 -0.0134279 1.31022e-21)
(0.98922 -0.0350921 -1.14443e-22)
(1.10984 -0.0274297 -4.71851e-21)
(0.992637 -0.0175783 5.89168e-22)
(0.990459 -0.0153475 1.07905e-21)
(1.00611 -0.0133258 -2.50994e-22)
(1.23147 -0.057023 9.73288e-22)
(0.918705 -0.0214702 -4.37642e-21)
(0.998775 -0.0551652 1.21827e-22)
(1.03288 -0.00359468 -1.54348e-22)
(0.918806 -0.0202111 9.69328e-22)
(0.997788 -0.00276636 1.45708e-22)
(1.00867 -0.0159815 1.13921e-21)
(1.00012 -0.00661924 -1.65531e-23)
(1.01411 -0.0106615 1.75858e-22)
(1.02301 -0.0586049 -3.88531e-22)
(0.980054 0.131684 -1.13894e-20)
(1.04106 0.0157243 3.87665e-21)
(1.0152 0.0700285 2.32465e-20)
(0.999623 -0.000864321 -2.53832e-24)
(0.996032 -0.00321645 1.57542e-22)
(1.00007 0.00122464 -4.41186e-21)
(1.02979 -0.0236954 2.75206e-21)
(1.22141 -0.0552188 -6.59563e-22)
(0.997858 -0.00276653 4.47888e-23)
(1.00017 -0.0109648 8.58104e-23)
(0.988399 0.072445 -1.70285e-20)
(0.976558 -0.0213011 2.6552e-21)
(1.11458 0.0212765 -1.13555e-20)
(0.998759 -0.1062 -1.44915e-21)
(0.918118 -0.0196938 -2.90778e-22)
(0.989411 -0.000277303 -7.10421e-22)
(0.973182 -0.0173949 -1.93756e-21)
(1.00684 -0.039875 -3.82981e-22)
(1.03136 0.0162513 5.18743e-21)
(1.00551 0.0927122 1.37504e-20)
(1.01618 -0.0104701 5.13549e-22)
(0.999995 -2.04387e-05 -9.91761e-25)
(0.996164 -0.00275825 1.3011e-23)
(0.966045 -0.0195549 -1.03236e-21)
(0.999314 -0.000953261 -6.07439e-23)
(0.999949 -5.30505e-05 5.79231e-24)
(1.02991 -0.00722003 -7.93134e-22)
(1.01987 -0.0692256 3.00762e-21)
(0.918192 -0.0184691 2.4264e-21)
(1.01774 0.0693392 -6.0404e-21)
(0.894814 0.0399296 -1.80604e-20)
(0.999992 -2.62092e-05 3.4896e-26)
(1 -0.0300801 -9.7917e-22)
(0.976336 -0.0215993 -1.31458e-21)
(1.07811 -0.0256387 2.04272e-21)
(1.00651 -0.0129863 5.88416e-22)
(0.915094 -0.00407348 1.63714e-21)
(0.999857 -0.000238941 2.09991e-24)
(0.978391 -0.0427061 -6.2818e-23)
(0.979843 -0.0202955 8.77338e-23)
(1.00002 -0.00849457 1.7539e-23)
(0.970841 -0.000920536 8.49596e-22)
(0.999997 -4.49549e-07 4.73738e-25)
(0.943452 0.130802 1.7357e-20)
(1.00542 -0.0196862 -1.27533e-22)
(0.971791 -0.0152189 -1.9846e-21)
(0.999149 -0.104792 -8.06128e-22)
(0.949521 0.0586803 9.62839e-21)
(1.0201 -0.00518989 -2.53479e-22)
(0.968314 -0.046291 2.70323e-22)
(1.20817 0.167374 -4.90119e-21)
(0.983696 -0.0338014 -1.13684e-21)
(1.05024 -0.0570662 -1.31502e-22)
(1.03103 0.016495 7.84694e-21)
(1.00038 -3.82816e-05 1.37417e-23)
(1.00088 -0.00995569 4.986e-24)
(0.985889 -0.0367483 4.0724e-22)
(0.996382 -0.000239587 -2.58255e-22)
(1.2021 -0.0514521 6.12917e-22)
(1.02035 -0.0422571 2.62744e-23)
(1.01754 -0.121546 1.55193e-21)
(1.16328 -0.0807169 -9.64593e-22)
(0.998131 -9.34297e-05 -1.78986e-22)
(1.00085 -0.0023993 -9.04551e-24)
(1.04541 0.00210121 5.40018e-21)
(0.968632 -0.00242385 -1.73992e-21)
(0.989675 -0.0351595 -3.58946e-23)
(0.935585 -0.0449948 -1.30048e-21)
(0.998056 0.0315799 -9.27356e-21)
(0.998667 -0.00144151 -1.39737e-23)
(1.02639 0.00170701 -2.38606e-20)
(1.00005 -0.0028248 -2.06745e-24)
(0.868916 0.21929 -2.65888e-20)
(1.01437 -0.0105337 -1.06854e-21)
(1.16347 -0.0227748 -2.28956e-21)
(1.01799 -0.000994464 1.04987e-21)
(1.00024 -5.46623e-06 7.26953e-23)
(1.05483 -0.0892611 7.10622e-23)
(1.01448 -0.0101788 -2.57365e-21)
(0.915637 -0.00345916 -1.00421e-21)
(1.04162 0.0164307 -5.48637e-21)
(1.23594 -0.103561 -7.91429e-22)
(0.994321 -0.0293923 1.72672e-22)
(0.996584 -0.00384478 4.39233e-22)
(1.17189 0.0042778 3.59452e-21)
(0.998206 -0.000249034 1.94621e-22)
(1.1432 -0.0109174 -1.53814e-21)
(1.14837 -0.0344494 1.77052e-22)
(0.999954 -2.99441e-05 -1.1632e-25)
(1.02996 -0.0231697 -6.8559e-22)
(1.00022 -0.00648303 -1.682e-23)
(1.02081 -0.0426971 -1.43196e-23)
(0.998794 -0.0035103 -1.67059e-22)
(0.980401 -0.0163192 -4.40412e-22)
(0.966096 -0.056178 1.56351e-21)
(0.999538 -0.0550277 8.16263e-23)
(0.998092 -0.0106331 2.8886e-22)
(0.978979 -0.0818129 -1.84036e-21)
(1.00091 -0.0646911 -4.36337e-22)
(0.998161 -8.1643e-05 -1.34821e-22)
(1.00003 -0.00159823 2.89967e-24)
(0.966366 -0.0191915 5.66037e-22)
(1.00002 -0.000756038 5.4599e-24)
(1.01129 -0.00789641 1.60789e-21)
(0.945968 0.12848 9.95494e-21)
(1.02792 0.000681137 -1.1868e-20)
(0.980679 -0.136202 -1.7732e-21)
(1.23221 -0.0885267 2.86975e-22)
(0.965465 -0.0559165 3.48527e-22)
(0.999996 -1.72683e-05 -6.90295e-25)
(1.1985 0.00760503 2.03267e-21)
(1.01769 0.0682599 -5.81963e-21)
(0.999893 -0.000466736 2.41886e-24)
(1.01757 -0.0101124 -1.46033e-21)
(0.998627 -0.0016266 -1.17351e-22)
(1.05274 0.00854299 3.21628e-21)
(1.00018 -0.00438245 -5.28896e-24)
(1.15097 -0.0342071 4.17243e-22)
(0.917108 -0.0150265 -1.29497e-21)
(0.992801 -0.0503988 4.18707e-22)
(1.24752 -0.0287057 -1.50962e-22)
(0.993971 -0.00795753 -4.44376e-22)
(0.978292 -0.0530971 -2.57049e-22)
(1.09722 -0.00584515 1.40961e-21)
(1.02595 -0.0514445 3.41872e-23)
(0.971947 -0.0149776 1.34967e-21)
(1.19799 -0.166024 -4.03514e-21)
(1.00879 -0.015792 -8.35841e-24)
(0.997236 -0.00185998 -1.39691e-22)
(1.12985 0.14676 1.23052e-20)
(1.16833 0.158673 8.16879e-21)
(0.986345 -0.0367972 -1.1447e-21)
(0.998549 -0.00461883 2.20596e-22)
(1.00266 -0.0118908 3.33738e-23)
(0.986838 0.0753098 -2.68701e-20)
(1.00082 -0.00242999 5.77258e-23)
(0.994763 -0.00551244 3.7328e-22)
(1.19751 -0.000544457 -5.15379e-22)
(1.07963 -0.0419179 4.18982e-22)
(0.99986 -0.000244617 -1.60993e-23)
(1.01592 -0.0106468 -4.0015e-22)
(0.738622 0.0899727 8.99136e-21)
(1.1024 0.00257502 -6.12115e-21)
(0.97165 -0.00593829 -2.13114e-21)
(1.00847 -0.00879734 -8.12604e-22)
(1.04859 0.00599915 3.96334e-21)
(0.916405 -0.0144315 2.51645e-21)
(1.19925 0.00927613 -3.17563e-21)
(0.997249 -0.00193328 9.91275e-23)
(0.999996 -1.77742e-05 1.26062e-24)
(0.999645 -0.000916172 3.93273e-23)
(0.998648 -0.00160252 1.83426e-22)
(0.782426 0.0268386 5.86151e-21)
(0.996814 -0.0045086 -3.14194e-22)
(1.11371 -0.0208571 2.11978e-21)
(0.99996 -2.99326e-05 5.12792e-25)
(0.999049 -0.00137685 -5.57206e-24)
(0.996006 -0.0031504 -1.96082e-22)
(0.987668 -0.0127214 -5.75758e-22)
(1.07145 -0.00171887 -1.14386e-20)
(1.23782 0.00779008 3.09132e-22)
(0.981946 -0.00956294 1.88441e-21)
(0.991652 -0.00985686 2.29798e-22)
(1.00171 -0.00314611 -3.2682e-23)
(0.998004 -0.0107658 -1.76365e-22)
(0.852868 0.23088 -4.59546e-22)
(0.968757 -0.0274651 3.46727e-21)
(0.998601 -0.0103179 7.59638e-23)
(1.13098 0.115315 3.42011e-21)
(1.02329 0.025962 -7.05753e-21)
(1.01431 -0.00992935 2.3306e-21)
(0.997334 -0.00301693 2.59874e-22)
(1.00631 -0.0400926 -5.14291e-23)
(1.00594 -0.0226838 1.16093e-23)
(1.03183 -0.0456822 3.33123e-22)
(1 -1.62909e-06 6.80759e-27)
(0.999359 -0.00153828 1.25323e-22)
(1.03614 -0.0344008 -8.84591e-22)
(1.09532 0.0509736 9.22123e-21)
(0.978167 -0.0605563 5.20964e-22)
(1.02917 0.133651 6.65602e-21)
(0.774205 0.0536906 -6.73691e-21)
(1.13248 -0.031626 -2.16882e-21)
(1 -1.45689e-06 5.25336e-26)
(0.985941 -0.0003584 -1.1353e-21)
(0.98471 -0.0228438 7.10372e-22)
(1.00015 -0.00844048 4.99577e-23)
(0.999999 -1.71851e-06 -8.59088e-26)
(1.09747 -0.10599 -1.04349e-21)
(1.24597 0.0942037 -3.25922e-21)
(0.969041 -0.00238603 -1.72361e-21)
(0.999461 -2.91558e-05 -4.09567e-23)
(1.14456 -0.00327239 -2.47063e-21)
(1.00412 -0.00569788 6.51788e-23)
(1.00252 -0.0120826 -5.31093e-23)
(1.00013 -9.69728e-06 3.12418e-23)
(0.998728 -0.00155996 -1.03464e-22)
(1.03916 -0.0344617 -1.67153e-22)
(0.967855 -0.0459406 1.99423e-21)
(0.996136 -0.0295699 -3.52642e-22)
(0.995245 -0.0200011 -1.46104e-21)
(1.03651 -0.0350061 -1.02455e-21)
(1.01129 -0.00770416 -8.43647e-22)
(0.999914 -7.70231e-06 -1.25053e-23)
(1.20558 0.164176 1.00865e-20)
(0.931984 -0.0415048 2.85671e-22)
(1.00179 -0.00404869 -1.06725e-22)
(1.04191 -0.0769618 -3.63096e-22)
(1.04763 0.00832179 -1.44244e-20)
(1.0279 0.052576 -1.76181e-20)
(0.981028 -0.0160981 6.65099e-22)
(1.01808 -0.0045755 1.33313e-21)
(0.980121 -0.0202501 9.04808e-23)
(0.998186 -0.00207364 -2.5795e-22)
(1.19478 -0.166366 2.49613e-21)
(1.00057 -0.00113959 7.83463e-23)
(1.00019 -0.00638111 3.56775e-23)
(0.981281 -0.011742 2.05526e-21)
(0.971 -0.0213631 9.02949e-22)
(0.998141 -0.00223527 2.8681e-22)
(1.09932 0.224992 -6.22897e-21)
(1.03041 0.0635303 1.33647e-21)
(1.2171 -0.130906 1.01516e-21)
(1.09649 -0.0566141 -7.75593e-22)
(1.00001 -1.1544e-05 -7.13412e-25)
(0.995256 -0.0114253 1.42925e-22)
(1.07498 -0.0287627 8.03254e-22)
(0.993077 -0.000272985 1.69126e-22)
(0.996981 -0.0232054 -6.74528e-22)
(0.997185 -0.00184137 3.50238e-23)
(1.0018 -0.00313545 -9.65408e-23)
(0.996725 -0.0039384 -3.05663e-22)
(0.99643 -0.000987689 -9.56768e-23)
(0.998067 -0.0104469 -9.52471e-23)
(1.00028 -0.00625111 -1.06223e-23)
(1.08544 -0.158364 5.35182e-22)
(1.00003 -2.13604e-05 6.9831e-24)
(1.01095 -0.00726859 -1.42628e-22)
(0.999992 3.62608e-07 -4.4144e-26)
(0.917526 -0.0179409 -3.32144e-21)
(1.00021 -0.00020288 1.84667e-23)
(1.03421 0.166763 1.55232e-20)
(1.16505 0.157429 -4.29506e-21)
(1.04235 0.0387818 -6.25006e-21)
(1.09506 -0.0557982 5.12346e-22)
(1.03693 0.0446293 -6.25276e-22)
(1.0302 0.000545503 6.82397e-21)
(0.998337 -0.00363022 3.38801e-23)
(1.00166 -0.00163061 -1.17655e-22)
(0.999795 -0.000652269 2.96817e-25)
(0.995439 -0.00235298 2.20645e-22)
(0.972451 -0.0150983 7.99456e-22)
(0.994054 -0.00782049 -1.78762e-22)
(0.995064 -0.0114779 3.83674e-22)
(1.03386 -0.0447393 -1.25207e-22)
(1.00021 -0.000197072 -2.25438e-23)
(0.999859 -8.5613e-05 -3.65766e-24)
(1.00012 -0.000112967 -1.64062e-23)
(0.999231 -0.00240379 7.38002e-23)
(1.02717 -0.000755992 3.00433e-21)
(1.03049 -0.044251 3.0515e-22)
(0.981029 -0.0116191 -2.19165e-21)
(1.00002 -0.000735911 -1.12586e-23)
(1.10689 -0.0995352 1.8974e-21)
(1.00082 -0.00231777 1.79948e-22)
(0.999874 -8.48656e-05 -1.44062e-23)
(1.02825 0.0515097 2.51214e-20)
(1.03304 -0.00387029 5.46451e-22)
(1.00292 0.0562893 4.16403e-20)
(1.00003 -2.75716e-05 -6.57821e-24)
(1.00005 -0.000555077 0)
(1.00174 -0.00177582 1.76575e-22)
(0.9899 -0.0358291 5.46684e-22)
(0.995138 -0.00661558 -1.88655e-22)
(1.04889 -0.110628 -9.96998e-22)
(0.968907 -0.00105489 1.15369e-21)
(1.07829 0.0328925 1.16165e-20)
(0.991784 -0.000208636 1.51859e-21)
(1.10254 0.223082 -3.25593e-21)
(1.00085 -0.00228289 -1.31109e-22)
(1.00175 -0.00399025 1.25498e-22)
(1.00324 0.0761476 -1.09045e-20)
(1.13042 0.144115 -5.13504e-21)
(1.06043 -0.0894347 -1.93359e-21)
(1.00256 -0.00223342 3.12465e-23)
(0.919399 -0.0219702 4.78883e-21)
(0.991704 -0.000262678 -8.70913e-22)
(1.00003 -2.9582e-05 2.81828e-24)
(1.01096 -0.00748316 1.69214e-22)
(0.93314 -0.0426924 -7.21431e-22)
(0.98557 -0.0362127 -9.36358e-23)
(0.954244 -0.00395282 8.99926e-22)
(1.03425 -0.0456699 2.9824e-23)
(1.10101 0.00199177 1.00827e-20)
(0.999992 1.1886e-06 -6.48697e-26)
(1.00262 -0.00219029 -6.30223e-23)
(1.02195 -0.0077345 1.83399e-21)
(1.04288 -0.0205161 -2.42379e-21)
(1.02628 0.187946 -7.85127e-21)
(1 -5.74987e-07 -1.76423e-27)
(0.99996 -3.1676e-05 1.78246e-25)
(1.00172 -0.000156856 -3.05934e-22)
(0.985637 -0.0357232 -1.12344e-21)
(0.999388 -0.000941694 5.24591e-23)
(0.99989 -0.000505523 7.76026e-24)
(1.11441 -0.0278071 -2.39175e-21)
(0.851535 0.0260853 -2.41788e-20)
(1.15195 -0.0321427 -2.10808e-22)
(1.00517 0.0618029 -1.05588e-20)
(0.980029 -0.00368744 4.91054e-22)
(0.997055 0.0292009 5.97057e-21)
(1.02823 0.0108395 8.09148e-21)
(0.996778 -0.00398361 1.21403e-22)
(1.09514 -0.106929 1.5004e-21)
(0.931869 -0.0254713 4.14019e-21)
(0.996261 -0.0203736 6.8475e-22)
(1.00083 -0.00981934 5.13306e-24)
(0.996882 -0.00728951 2.30371e-22)
(0.998585 -0.00103132 5.70625e-23)
(0.998409 0.0744773 -4.78431e-20)
(0.984237 -0.0335476 -1.67107e-21)
(1.05328 0.157588 7.72217e-21)
(1.0267 -0.0518983 1.58534e-22)
(1.0425 0.0378407 3.4778e-21)
(0.98091 -0.00971899 8.28817e-22)
(0.987917 -0.0127904 -1.49763e-21)
(1.20455 -0.0514861 6.06916e-23)
(1.02884 0.0166409 8.46653e-21)
(0.997407 -0.00303082 -2.93017e-22)
(1.00004 -0.00274142 4.77364e-24)
(1 -0.00284799 6.02524e-24)
(0.999998 -1.99147e-07 -3.02982e-24)
(1.02861 -0.0447793 -3.29456e-22)
(0.969534 -0.0675714 -1.99221e-21)
(1.00021 -0.000477752 -2.74169e-23)
(1.06908 -0.0306359 -1.86861e-22)
(0.999699 -0.000762104 6.43555e-24)
(0.999696 -0.000778342 -4.131e-23)
(1.00201 -0.00025799 -2.4141e-23)
(1.02764 -0.0512232 -7.68746e-23)
(1.00064 -5.68318e-05 -5.37607e-23)
(1.00131 -0.00792841 -6.67972e-26)
(0.977127 -0.00428285 1.06947e-21)
(0.996144 -0.00572106 1.55383e-22)
(0.995448 -0.00242972 -7.66359e-22)
(0.987989 0.0932681 -6.4401e-20)
(1.1212 -0.0640737 3.22304e-22)
(1.00984 -0.0141922 7.35467e-22)
(0.990398 -0.0156422 8.15836e-22)
(0.972354 -0.0417304 -2.62765e-22)
(1.00026 -0.00615681 3.22189e-24)
(1.00001 -2.57651e-05 -2.09368e-24)
(0.999999 -2.24789e-06 -1.66787e-26)
(0.959409 -0.00821152 1.75823e-22)
(0.932197 -0.0248877 -4.22426e-21)
(0.97178 -0.0290312 -6.16773e-23)
(1.00001 -2.45958e-05 -5.84281e-24)
(0.985502 -0.00631342 1.25514e-21)
(1.07055 -0.00121544 1.06049e-20)
(1.2528 0.0204492 -2.27469e-21)
(1.132 -0.0334926 -1.49328e-21)
(0.999976 9.02488e-07 -2.49958e-24)
(0.972621 -0.0148637 2.6546e-21)
(1.00624 -0.0380358 6.36574e-22)
(1.00008 -1.16334e-05 -1.74046e-24)
(0.99993 -0.000249519 1.97736e-24)
(0.969085 -0.000785758 -2.11895e-22)
(1.00168 -0.000153419 -1.00839e-22)
(1.00062 -0.00515762 -1.11911e-23)
(1.02791 -0.101746 -4.75817e-22)
(1.00039 -3.92837e-05 -4.10836e-23)
(0.952025 -0.0555926 2.90211e-21)
(0.976996 -0.00447157 -1.08215e-21)
(0.980104 -0.00384419 8.76921e-22)
(0.982204 -0.00969307 3.07664e-22)
(1.00149 -0.00796128 -5.10036e-23)
(0.96238 -0.0304643 3.17636e-21)
(1.00025 -0.000446186 3.46376e-23)
(1.00001 -1.0047e-05 -2.97075e-25)
(1.00489 -0.00495378 2.14816e-22)
(1.10647 0.158001 -5.55939e-21)
(0.952418 0.0554431 4.78107e-20)
(1.01447 0.0472339 8.93053e-21)
(1.03015 -0.0448515 -8.77738e-23)
(0.98968 -0.0133159 -2.96014e-22)
(1.0129 0.0562495 4.7776e-20)
(1.01355 -0.00896806 -3.22805e-21)
(1.00022 -0.000400387 -2.40692e-23)
(1.02425 -0.00125902 -2.34768e-21)
(0.986292 -0.0124835 3.42582e-22)
(1.14481 -0.0119033 -2.73582e-21)
(0.996917 -0.00718053 2.90689e-22)
(1.02942 -0.000673027 -7.42913e-21)
(1.00095 -0.000105177 1.00489e-22)
(1.01487 0.0462111 6.05363e-21)
(1.0005 -4.88153e-05 -6.47236e-23)
(0.99507 -0.00711697 1.05808e-22)
(0.981156 -0.00979764 -2.27107e-22)
(1.01979 0.0663903 6.05997e-21)
(1.00024 -9.76711e-06 -6.4763e-23)
(0.98654 -0.0375338 1.52036e-21)
(1.04847 -0.109084 1.86485e-21)
(1.0801 0.0328879 -9.16876e-21)
(0.996712 -0.0445765 -9.55299e-22)
(0.994983 -0.00655223 2.72049e-22)
(1.16044 -0.0688542 2.21294e-22)
(1.00004 -1.799e-06 -5.30653e-24)
(1.21659 -0.12841 -4.19752e-22)
(0.995963 -0.0058403 1.66393e-22)
(1.01787 -0.0102119 -2.30012e-21)
(0.990319 -0.0358759 5.02523e-22)
(1.00263 -0.00020952 -3.73318e-22)
(1.24264 0.0922572 -8.74113e-21)
(1.03029 0.0647305 -1.36172e-20)
(0.945155 0.102381 2.21701e-20)
(1.03605 0.0442524 1.86029e-21)
(1.09957 0.0823364 6.46548e-21)
(1.14726 -0.0368472 -1.28558e-21)
(1.22607 0.165277 -1.12534e-22)
(1.01376 -0.00888227 3.58463e-21)
(1.06288 0.0905324 7.39333e-21)
(1.00297 0.0519198 -3.23023e-20)
(1.00054 -0.00520757 -5.76135e-24)
(0.998699 -0.00333633 -8.91078e-23)
(0.960315 0.0498428 -5.1615e-20)
(1.00002 -1.66651e-05 -1.26856e-24)
(1.23551 -0.100971 9.73519e-22)
(1.25386 0.0286103 -9.64491e-22)
(0.982446 -0.0162856 1.39109e-21)
(1.001 -0.00211846 -1.19438e-23)
(1.04232 -0.0200777 -8.27246e-22)
(0.998638 -0.00154925 -9.47773e-23)
(1.0017 -0.00165535 -3.61304e-24)
(0.991942 0.121663 -1.1414e-20)
(0.883312 0.107508 1.95379e-20)
(0.999885 -7.32423e-06 -8.11881e-25)
(1.00026 -0.00044646 -3.4509e-23)
(1.08103 -0.0378355 -5.52513e-22)
(1.00012 -0.00260824 2.61029e-24)
(1.24911 -0.0282072 3.72971e-22)
(1.12699 0.141957 -8.53384e-21)
(1.05997 0.0323901 1.88507e-21)
(0.999934 -0.000250966 -6.12793e-24)
(0.993721 -0.0622787 4.04248e-22)
(0.995011 -0.0521077 2.18547e-21)
(1.00054 -4.81851e-05 4.1841e-23)
(1.01681 -0.0329256 2.77724e-22)
(1.04542 0.0014854 2.86988e-21)
(0.892676 0.103428 -1.25174e-20)
(1.00009 -0.00271059 -6.24496e-25)
(1 -7.91688e-07 -6.01435e-27)
(1.06272 0.0889975 5.46209e-21)
(1.01641 -0.0325839 4.5519e-22)
(0.999882 -8.51635e-06 -1.82933e-23)
(1.03411 -0.0148875 -5.52881e-22)
(1.00676 -0.0120659 -1.28918e-22)
(0.9968 -0.00431599 -2.7318e-23)
(0.997745 -7.97576e-05 7.84223e-23)
(1.24046 -0.0808693 5.55786e-22)
(0.98376 -0.0058416 5.07049e-22)
(0.998658 -0.0015226 6.29272e-24)
(0.971379 -0.0213882 1.94701e-23)
(1.00027 -0.000431318 4.97734e-23)
(0.999883 -9.00031e-05 9.83853e-24)
(0.999914 -0.0119906 2.01244e-22)
(1.15959 -0.0131673 -3.6948e-22)
(0.999786 -6.962e-05 8.42313e-24)
(0.97716 -0.00478329 -1.2971e-21)
(1.00073 -0.00100676 1.10109e-23)
(0.997057 -0.0439678 -4.12604e-22)
(1.01965 0.067415 -7.92724e-21)
(0.999883 -0.000471667 -4.6289e-24)
(0.746706 0.0428702 -1.48972e-20)
(1.07568 -0.0676197 5.15445e-23)
(0.994595 0.037632 6.66183e-21)
(1.15699 -0.0138688 1.13505e-21)
(0.999471 -0.000302518 1.75471e-23)
(0.999971 -7.58624e-05 -1.00421e-24)
(0.999571 -0.000333081 -3.46683e-23)
(0.99521 -0.00656346 1.38021e-23)
(1.02417 0.00248122 0)
(0.999491 -0.00994136 1.4071e-22)
(0.985805 -0.000451186 2.7023e-22)
(0.994145 0.142547 -3.89026e-20)
(0.93396 -0.027986 -3.70622e-21)
(0.933344 -0.0277288 3.19956e-21)
(1.03943 -0.033468 7.57148e-22)
(1.06819 -0.0342059 2.91629e-21)
(0.986677 0.104695 3.99178e-20)
(0.999492 -0.000355128 1.73508e-23)
(0.986968 -0.0376053 3.13658e-22)
(0.982097 -0.0162517 -1.33041e-21)
(1.00019 -0.000200323 2.62873e-23)
(1.0217 -0.0425792 -1.5828e-24)
(1.00074 -0.000967806 -5.37299e-24)
(1.02923 -0.0451395 -2.22872e-22)
(0.977723 -0.0762669 3.97911e-22)
(0.830324 0.13905 -2.50445e-20)
(0.949791 -0.0550844 -2.76723e-21)
(0.997894 -0.00247328 4.2334e-23)
(0.980522 -0.0156344 -2.3597e-21)
(1.00607 -0.0222989 9.05471e-25)
(1.10734 -0.0124282 -5.4261e-21)
(1.03052 0.000348355 -1.15984e-21)
(1.01081 -0.0417762 7.77036e-23)
(1.00001 3.82149e-07 -7.59841e-25)
(1.00524 0.0614019 1.32381e-20)
(0.986869 -0.00699836 -1.38587e-22)
(0.916607 -0.0131169 2.33117e-21)
(0.999041 -0.00938096 1.04464e-22)
(1.03348 -0.0344346 -3.09789e-21)
(0.981219 -0.0493036 2.45899e-21)
(1.00495 -0.0048564 9.42485e-23)
(1.23161 -0.0116188 -9.60073e-22)
(0.999133 -3.5274e-05 1.16571e-22)
(1.02322 0.11978 2.1046e-20)
(0.99969 -0.0175715 -2.23374e-22)
(1.04775 0.0030545 -1.43442e-21)
(0.955712 -0.00810977 2.08854e-21)
(1.02058 -0.00341461 3.70854e-22)
(0.999995 -1.38049e-05 -4.88242e-25)
(0.978767 -0.0423904 -1.52287e-22)
(0.977038 -0.0049629 1.22404e-21)
(0.985154 -0.0347856 1.53211e-21)
(1.03406 -0.0154295 -4.01505e-22)
(1.02664 -0.102937 -4.94285e-22)
(1.00028 -0.000431344 -5.663e-23)
(1.04355 -0.182877 -1.03076e-21)
(0.998556 -0.00105744 -2.34098e-22)
(0.999981 -6.89837e-05 1.63493e-25)
(0.999514 -0.00977507 -1.5519e-22)
(1.00023 -0.00046179 1.41502e-23)
(0.888316 0.102386 1.6992e-20)
(1.0002 -0.000196925 -2.32611e-23)
(1.03449 0.164969 -4.76226e-21)
(0.980142 -0.0165488 -3.72398e-22)
(1.01984 -0.00276914 -6.97581e-22)
(1.00288 -0.00224527 -3.3811e-22)
(1.08594 0.0195716 1.20451e-20)
(1.004 -0.00576639 -4.0065e-22)
(1.02242 0.0265562 -6.07084e-21)
(0.999999 -1.84877e-06 -4.12108e-26)
(1.02498 -0.0583356 -4.12482e-22)
(0.998788 -0.00483307 8.0553e-23)
(1.00172 -0.00387038 1.81682e-23)
(0.974281 -0.0174182 -5.69934e-22)
(1.00001 -1.27853e-05 3.00875e-24)
(1.19887 -0.00520815 -1.26339e-21)
(0.925155 0.228712 5.73001e-21)
(1.25244 0.0295983 2.2151e-21)
(1.00022 -0.000390757 4.68139e-23)
(1.13976 -0.0948435 -6.5978e-22)
(1.0245 0.00278151 -1.94717e-21)
(0.982979 0.131863 2.80138e-20)
(1.00011 -0.00441866 -2.7019e-24)
(0.999754 -3.02822e-06 -6.88476e-24)
(1.07933 -0.0373131 -7.01462e-22)
(1.00015 -0.000143611 -1.60506e-23)
(0.947171 0.0483681 -1.07025e-20)
(1.00657 -0.0377024 3.76405e-23)
(1.25272 0.0981654 -7.06637e-23)
(1.09365 0.0508813 -1.22488e-20)
(1.00014 -0.000131086 1.28513e-23)
(0.980081 -0.134512 -1.646e-21)
(1.01114 0.0360987 -1.33786e-20)
(0.999884 -8.5781e-05 4.56572e-25)
(1.07933 -0.0260037 5.30028e-21)
(0.996029 0.0144151 3.19246e-20)
(0.997717 -0.000101142 6.37439e-23)
(1.00249 -0.012524 7.63228e-23)
(1.00036 -5.27874e-05 3.10599e-23)
(1.00643 -0.0132423 -3.364e-22)
(0.981234 -0.0101127 1.03979e-22)
(0.993673 -0.000108418 1.03467e-22)
(1.06466 0.158645 -1.03667e-20)
(0.99621 -0.0199619 4.60165e-22)
(0.820421 0.199707 4.43363e-20)
(0.698708 0.0197298 4.09602e-20)
(0.997148 -9.53495e-05 -1.87968e-22)
(1.00005 -0.000426943 -2.02136e-24)
(1.05236 0.155171 -4.37503e-21)
(0.99674 -0.00409748 1.09118e-22)
(0.983411 -0.0039907 2.74047e-22)
(1.00024 -0.000461922 -8.012e-24)
(1.06271 0.0364575 4.38403e-22)
(0.956085 -0.00810686 -2.98503e-21)
(0.849159 0.108125 3.11265e-20)
(0.998849 -0.00429272 -1.15586e-22)
(0.999959 -0.00122069 -3.66112e-24)
(0.986905 -0.00717019 4.75176e-22)
(1.25054 0.010192 -1.28652e-21)
(0.9944 -0.0623151 9.30363e-23)
(1.11815 -0.0244042 -7.82488e-22)
(1.04992 -0.033118 -1.85968e-21)
(1.02988 0.0107324 -6.75279e-21)
(0.999816 -0.000128336 -5.60666e-24)
(1.20865 -0.0342162 1.14976e-22)
(1.00001 -2.33896e-05 -3.77229e-24)
(1.00157 -0.00135636 2.22096e-22)
(0.999992 7.102e-07 1.36885e-25)
(1.21232 -0.12755 -2.4007e-21)
(1.06237 -0.089695 1.58615e-21)
(1.02705 0.0502783 1.12006e-21)
(0.999999 4.32892e-07 3.05067e-25)
(0.946649 0.0991456 -5.90881e-20)
(0.999596 -0.000132147 2.08993e-23)
(1.02212 -0.0421515 6.32489e-24)
(0.999381 -0.000343205 5.98417e-23)
(0.932169 -0.0423731 1.42976e-22)
(0.990616 -0.0158889 -1.28333e-21)
(1.10347 0.0145861 5.46092e-21)
(0.999889 -9.87583e-06 2.42311e-23)
(1.01989 -0.0680043 -9.60018e-22)
(1.01758 -0.0326752 7.7357e-23)
(0.98966 -0.0143577 -1.11066e-21)
(0.999978 -7.49127e-05 6.01109e-25)
(0.999934 -0.00121072 -1.00332e-24)
(0.9998 -1.14451e-05 2.96939e-24)
(0.974009 -0.0503794 -1.74606e-21)
(1.00167 -0.00322754 9.60417e-23)
(0.998855 -0.00066933 -5.58711e-24)
(0.968609 -0.000253337 1.75612e-21)
(1.00008 -0.000216123 -1.7001e-25)
(1.00029 -0.000418654 4.55991e-23)
(1.00574 -0.0196711 9.57518e-23)
(0.99948 -0.000304755 1.03467e-23)
(1.01381 0.0558254 -2.11116e-20)
(1.05704 -0.00529118 8.99181e-21)
(1.24965 -0.00924585 -4.02634e-23)
(0.974769 -0.000759182 -2.26181e-22)
(1.01572 -0.0849902 1.38326e-21)
(0.999994 -1.25365e-06 -1.88768e-25)
(1.16313 -0.0691016 -2.90924e-22)
(0.976843 -0.0761496 -1.6212e-21)
(1.00033 -5.22401e-05 4.66333e-23)
(0.972112 -0.0295218 -7.83018e-22)
(0.998665 -0.00448491 -8.95005e-23)
(0.965279 -0.0210896 9.19378e-22)
(1.15868 -0.133776 -7.43034e-22)
(1.00049 -4.8887e-05 -4.82754e-23)
(1.02834 -0.0515783 1.98028e-22)
(0.999981 -7.11766e-05 -5.42309e-25)
(0.994928 -0.00616761 -1.75365e-22)
(0.999619 -0.000136214 1.97493e-24)
(1.05749 0.0801692 -9.90946e-22)
(0.992274 -0.00190184 -5.14023e-22)
(1.00014 -0.000257294 -4.34023e-25)
(0.999844 -8.73542e-05 8.92324e-24)
(1.0236 -0.0109 2.26199e-21)
(0.959171 -0.0426078 2.72804e-22)
(0.996789 -0.00414079 -1.74289e-22)
(0.999988 -0.00126539 -7.36085e-24)
(1.06369 0.161098 -1.25974e-21)
(1.00596 0.0917927 8.49319e-21)
(1.00177 -0.00382803 5.64207e-23)
(1.21799 0.0752167 -1.34052e-22)
(1.12308 -0.109707 2.11346e-21)
(0.935788 -0.0457715 1.19218e-21)
(1.00005 -0.000420947 7.99745e-24)
(0.999998 -7.7108e-07 6.72753e-25)
(1.10653 0.155064 7.11592e-21)
(0.96579 -0.0179843 2.81081e-22)
(1.00009 -0.000215498 -7.41087e-24)
(1.20019 0.0364682 3.88713e-21)
(0.999074 -0.000530276 7.35055e-23)
(0.999996 -2.34939e-06 1.24448e-24)
(1.08063 -0.00588793 8.95966e-22)
(0.987646 -0.0967855 -5.82517e-22)
(0.950492 -0.0549004 3.6857e-21)
(0.929059 -0.0415536 5.18902e-22)
(0.988888 -0.0334726 -1.10875e-21)
(0.993335 -0.0002282 1.81061e-22)
(0.98359 -0.0041579 -2.18936e-21)
(1.00096 -0.00958158 -1.01717e-23)
(1.08041 0.0561826 -6.0939e-21)
(0.999785 -0.00066017 -1.41142e-23)
(0.99068 -0.0508614 4.49864e-22)
(1.08899 -0.0108214 6.43549e-22)
(0.999872 -0.000623654 -5.34608e-24)
(1.12053 -0.108608 -2.75333e-21)