/*--------------------------------*- C++ -*----------------------------------*\
  =========                 |
  \\      /  F ield         | OpenFOAM: The Open Source CFD Toolbox
   \\    /   O peration     | Website:  https://openfoam.org
    \\  /    A nd           | Version:  7
     \\/     M anipulation  |
\*---------------------------------------------------------------------------*/
FoamFile
{
    version     2.0;
    format      ascii;
    class       surfaceScalarField;
    location    "31.5";
    object      phi;
}
// * * * * * * * * * * * * * * * * * * * * * * * * * * * * * * * * * * * * * //

dimensions      [0 3 -1 0 0 0 0];

internalField   nonuniform List<scalar> 
11512
(
140.21
-500.867
360.657
-766.435
1.84477
764.59
409.8
-369.015
-40.7851
642.43
261.852
-904.283
1510.75
-1069.33
-441.417
1216.29
-1527.13
310.84
-52.1696
469.786
-417.617
168.445
-841.641
673.196
962.085
-1610.79
648.71
-1763.54
1671.18
92.365
-542.944
1759.23
-1140.98
1934.72
-793.738
607.833
180.702
-788.535
-25.1262
-1316.57
1341.69
221.72
-1985.26
1021.84
-383.028
-638.813
-188.01
328.219
485.381
190.086
-675.467
1154.64
-1313.67
159.03
-320.714
374.623
-53.9085
1006.62
-1318.79
312.166
1221.53
799.466
-2021
73.7235
-1642.97
1569.24
-481.474
-1164.54
1646.02
476.407
181.398
-657.805
-183.377
-317.49
498.015
1012.73
1650.27
-1808.3
158.029
-91.3313
-1690.25
1781.58
-1559.03
653.506
905.526
-308.037
651.913
-343.877
-193.689
-153.831
347.52
1286.97
-1213.24
355.171
-1407.34
1052.17
-1754.37
1754.37
100.003
1534.82
-1634.82
-1080.68
-478.355
637.836
-690.006
-385.22
941.208
-555.988
1331.94
-1317.3
-14.6393
-1099.78
714.563
624.751
397.09
-403.617
-22.0131
425.63
-455.596
791.857
-336.261
-1618.58
1618.58
1253.59
-1437.89
184.306
-488.744
1710.28
1254.12
-312.916
1660.74
-1161.25
-499.488
64.1317
-384.846
2065.86
-1135.51
-930.351
1816.32
-166.045
455.639
155.47
-611.108
-464.91
974.108
-509.198
-1172.8
1272.8
-568.011
970.279
-402.268
399.457
755.182
660.974
-492.529
-436.084
591.211
-155.127
1190.62
-835.444
2308.2
-1080.67
-1227.53
1163.91
-2009.49
845.581
-1604.97
1579.84
440.607
-1581.59
-759.226
1250.76
-491.536
-670.744
362.707
1661.45
-699.361
-1106.93
-870.894
1977.82
691.144
-380.303
-310.841
689.618
564.506
-258.202
1511.79
104.77
-311.59
206.82
-283.852
760.26
-333.594
565.578
-231.985
-323.732
809.113
-316.399
-145.472
461.871
317.95
91.8495
1462.8
-456.183
-990.067
490.65
499.417
269.377
92.3873
-361.764
948.625
-340.792
-1700.54
646.504
1054.03
18.968
-859.218
840.25
-280.145
593.017
-312.872
157.342
-1093.69
936.346
1051.82
-1067.29
15.4731
372.537
518.47
-891.008
-244.286
699.924
-1103.53
-482.189
1585.72
-678.833
951.513
-272.68
1354.7
-1446.03
-649.304
286.435
362.868
-470.18
-1011.56
1481.74
-537.831
-794.593
1332.42
576.181
-996.042
419.861
-268.683
-317.853
586.536
400.986
-296.216
-1041.13
576.223
955.274
-797.932
-110.258
944.071
-833.813
-209.882
415.753
-205.871
-631.82
-358.246
-386.445
962.627
1856.39
-1856.39
-476.419
-172.885
-948.193
1560.79
-612.598
498.057
-929.966
431.909
-923.042
355.031
-941.909
-1058.08
-1493.65
343.652
1150
-273.424
915.854
-325.763
622.046
-296.282
-1941.9
999.995
-1143.68
-349.97
558.106
-1506.3
1728.49
-1725.68
-2.81686
199.369
-609.16
409.79
-1463.05
974.22
488.833
280.582
217.577
-498.159
309.978
-643.571
244.187
-420.48
176.293
2015.13
-876.599
-1138.53
-547.836
144.219
615.797
837.091
-1452.89
-182.475
426.662
431.277
876.61
-1307.89
-905.1
391.485
513.615
-1047.7
1447.15
-1068.9
309.674
749.023
-97.11
565.72
-293.044
-272.676
1015.35
-524.696
593.285
-1403.78
810.495
-1342.14
238.614
-544.599
264.454
-1183.85
910.429
1946.53
-978.679
-967.849
276.805
1579.58
-2096.01
896.144
1199.87
368.972
-30.0434
-338.928
-223.486
483.965
-260.479
-100.035
-385.195
485.229
-460.988
144.59
342.092
-129.327
627.384
423.479
378.436
-801.915
-2038.8
1119
919.793
459.72
-528.017
68.2971
224.43
-366.668
142.238
1017.13
997.991
1787.42
-252.601
740.885
-454.45
796.457
-1389.41
592.956
358.367
332.777
1056.77
-1037.8
-492.419
-239.319
731.738
470.889
-132.724
-338.165
797.197
-616.495
555.111
-721.992
166.88
503.324
1157.42
-1239.71
701.874
1038.03
-1519.5
-3.13312
-1439.43
1442.56
325.93
823.895
-1149.83
623.174
269.716
-892.89
-2269.35
1142.7
1126.65
-1094.64
-1174.71
197.265
357.846
958.48
-632.549
879.545
-899.177
19.6318
-2099.38
992.453
-231.814
-191.181
422.995
-41.8133
1770.31
-835.447
69.0126
-1029.25
-1066.77
-229.108
453.538
-685.709
209.291
-281.129
-423.195
704.324
1104.03
-1574.21
782.929
-1374.37
591.442
693.934
-432.081
1947.87
-1444.54
-378.278
-1376.09
70.8758
398.911
-533.321
535.166
23.813
-578.751
554.938
567.026
-286.444
-602.838
279.243
323.596
782.471
-358.992
32.8915
336.08
1188.47
-1191.6
169.221
231.765
393.14
-674.269
619.434
-1005.88
-2026.72
2026.72
-264.833
-444.429
709.262
699.185
405.765
-1104.95
578.525
170.498
409.19
373.281
-2199.75
1328.85
-926.294
-679.348
1605.64
-481.379
-702.474
-251.913
551.712
-299.799
827.435
-200.843
-626.593
-453.428
652.798
362.912
-688.675
-374.685
-128.482
503.167
-1332.16
-476.147
635.882
-1117.26
-374.137
-1244.44
844.333
1463.86
298.76
-943.413
644.653
965.349
-340.598
1391.32
-798.037
439.795
-270.574
-326.574
-871.626
571.386
300.24
-335.016
-536.61
312.009
-412.044
-213.39
-148.48
361.87
-392.664
1091.85
434.771
-244.685
-392.356
1356.2
-170.873
-1185.33
-473.209
294.547
178.662
220.728
265.727
-486.455
22.0024
-743.994
592.109
-1729.02
1136.91
1483.21
-867.412
-1048.15
-414.906
-1056.32
573.406
482.911
1383.78
-409.558
929.081
-1411.27
-159.122
-196.941
356.063
-469.103
579.675
-1627.37
427.965
903.976
293.698
296.37
-590.068
568.079
1186.29
1102.7
-712.539
-390.162
398.577
-214.674
-183.903
-1419.45
445.53
737.743
-1183.27
1473.25
-544.164
-486.28
933.496
-447.216
426.146
1186.16
-1612.3
47.2853
-726.119
-147.208
416.585
226.369
-420.058
535.92
479.426
-611.777
60.8601
550.917
1024.54
-1307.67
283.132
666.107
-256.917
468.267
-1447.21
978.948
398.517
1687.2
-523.289
908.487
1038.04
-660.163
-1684.53
758.233
562.768
404.38
-967.148
455.265
78.8429
1750
-1828.84
1443.74
-379.468
-1064.27
1699.13
-1740.94
-366.698
-530.797
722.478
-191.681
-502.588
179.57
291.318
-372.868
-1225.99
214.429
-764.55
-639.23
-647.377
996.718
-349.341
-654.248
644.453
9.79484
655.129
-923.801
268.672
-767.406
389.747
377.659
-648.158
-691.299
345.37
345.929
-932.284
1400.55
-419.425
887.987
-468.562
-2205.31
5.55759
174.915
-531.613
356.698
142.742
1213.46
-102.997
-582.712
157.044
-593.127
1487.09
-704.157
382.424
-461.046
78.6225
-570.594
570.594
1223.12
395.46
1777.97
-1228.26
589.25
639.013
849.682
-52.4847
1291.8
774.058
-540.242
1336.7
292.861
300.157
269.419
-800.216
243.948
-699.543
231.133
-443.409
212.276
-243.925
578.919
-334.993
117.277
-361.202
-591.827
-564.446
1156.27
-375.732
549.682
-173.95
-1192.16
2032.04
-839.885
1288.98
-330.502
-406.389
137.705
-1980.37
815.829
1537.55
-848.592
-688.955
1986.96
-877.436
-1109.53
713.598
575.384
-238.936
470.069
-673.632
1147.26
-473.628
-769.858
1201.14
551.685
924.581
-1725.2
800.618
-549.297
-80.2542
629.551
305.818
259.902
406.937
-90.9973
-315.94
896.906
-83.4046
-813.501
926.148
-569.886
-356.262
1576.19
-472.162
891.012
-1627.44
736.425
1068.48
879.387
746.625
-439.67
-306.955
-1059.05
-258.257
565.848
576.239
-1142.09
-466.527
520.665
-54.1374
572.907
-340.137
-232.771
-985.146
565.72
594.882
888.327
-441.775
1096.9
1417.62
-782.06
-635.558
393.081
-922.962
529.881
-1034.53
402.707
562.089
-1048.37
467.556
-545.108
77.5521
481.241
310.617
-522.061
-48.5322
-794.016
-879.331
1673.35
190.583
207.994
-216.054
413.32
-27.1484
-565.708
592.857
496.259
868.885
-1365.14
-519.452
306.063
985.974
-89.0681
836.122
-1064.6
228.478
404.624
845.9
-1386.14
-454.357
832.793
1979.14
-1285.45
-693.69
270.184
609.361
255.966
795.852
89.7212
-971.541
881.819
1673.73
-1089.03
-584.694
-137.882
1887.88
-1866.06
-160.655
483.587
-621.684
138.097
-1012.51
526.531
485.975
-1730.48
538.319
-955.762
845.503
390.764
200.447
587.454
-288.694
-419.298
709.131
256.219
69.7719
707.658
-777.43
-1123.4
-905.365
2028.77
-541.535
1111.5
-569.97
-478.73
-342.706
110.892
-1655.53
861.509
-857.31
-604.007
1461.32
-332.166
-294.598
626.763
351.769
-649.404
297.635
249.3
-608.292
331.016
196.196
-527.212
358.717
-610.63
620.773
-269.004
312.283
-457.755
678.328
412.169
-191.441
-396.87
-294.429
1222.6
-2.42325
-1220.18
1039.31
-419.88
559.899
410.38
-1782.36
869.816
912.544
489.494
554.144
-1043.64
-535.818
203.652
-263.418
1181.12
-917.7
-1590.88
1212.6
504.515
-1096.34
383.1
-0.676765
429.318
311.386
-740.705
371.743
-616.028
-34.2152
756.985
-722.77
-526.195
795.912
392.827
322.543
527.139
652.562
102.094
-413.65
311.556
1058.94
-645.322
-413.62
494.016
-1664.27
1170.25
-1140.4
1753.22
-612.824
1715.83
-1123.72
-333.014
612.256
-1181.67
1271.39
425.318
-798.531
1607.13
-808.597
-272.009
-201.2
-890.848
1470.69
1813.66
-610.902
-1202.76
-404.572
653.984
-1301.36
-124.829
-55.0392
461.976
-684.095
-354.164
-1236.72
-216.536
465.836
903.447
-557.654
172.459
-1674.64
-71.2267
1745.87
-1073.39
531.858
567.008
-1183.38
616.371
900.892
912.768
630.772
619.991
694.264
239.231
-1140.77
467.143
-395.653
419.466
616.764
-514.665
239.929
-729.842
489.913
703.434
-345.067
-334.388
180.557
-611.035
248.679
362.355
-886.836
-740.601
1087.67
-2145.75
398.611
-682.463
-342.783
-724.509
834.917
582.701
-338.765
316.752
376.797
221.294
642.016
-863.31
525.456
621.805
-547.041
172.356
356.054
-620.887
-1032.15
-861.474
1893.62
-1800.27
157.301
1106.89
-1370.31
1159.18
-717.334
-441.843
-503.778
1349.68
-1495.5
627.867
867.63
-289.163
-210.64
499.803
1428.4
558.564
356.209
-484.691
-481.809
-569.839
1051.65
-420.691
595.606
1582.55
-1129.79
-452.757
-782.141
337.712
654.874
404.068
-1623.42
416.163
1207.26
-182.939
513.955
797.68
784.865
201.987
-695.934
493.946
206.338
209.415
-292.848
-107.582
400.43
499.191
-3.73263
-495.458
-1640.46
592.313
-1607.56
1675.35
-67.7882
12.1904
-1619.76
1069.6
774.172
-344.854
-815.623
-218.904
-1134.49
-239.882
-310.848
682.591
-1812.52
-632.954
1209.19
216.58
757.528
-1330.89
-678.595
-465.531
621.831
-328.133
-1013.28
1350.76
-1932.87
582.109
646.584
1288.14
487.435
-3.46988
717.311
707.82
-1425.13
-635.713
331.961
303.752
440.862
-99.3814
-341.481
143.727
315.212
150.889
-466.1
-590.281
1153.05
456.703
-640.477
-461.524
-401.318
862.842
-325.857
166.735
-453.5
157.284
-303.74
-708.765
549.837
-108.975
-573.358
966.439
581.522
-270.182
-311.34
455.154
-778.886
-647.421
454.092
-1129.41
-840.894
1184.55
-569.759
446.862
284.876
-461.759
81.4563
1028.23
-317.8
594.695
-276.895
-509.02
1578.62
-683.402
246.646
366.672
-613.317
224.876
494.791
-33.8908
-460.9
-259.595
-193.905
1021.32
1108.92
564.807
-881.188
946.677
-65.4891
-459.066
169.903
-739.881
316.686
-589.775
325.116
378.319
834.411
-1240.87
406.454
776.482
-810.698
-948.951
-550.358
1499.31
-174.526
470.896
-557.668
264.624
1300.49
785.664
-583.677
1318.07
-682.185
487.101
-669.554
-402.758
-423.109
-377.876
800.985
502.289
-843.081
-466.515
99.8173
366.698
-322.891
572.414
727.621
-329.011
-242.743
-172.372
415.115
-487.83
133.635
354.195
1459.29
81.7465
-1541.04
-752.798
1347.68
-1144.74
-466.053
541.268
-174.596
1151.12
-374.634
1083.49
492.695
698.406
-428.987
-885.022
-522.317
-1328.42
-23.9142
984.971
-961.057
592.483
340.001
-932.484
-342.183
-205.653
-674.222
405.523
1621.19
-189.658
377.331
342.439
-719.771
-1839.76
-2106.68
1519.14
587.541
-2036.36
346.113
372.361
531.928
-904.289
-459.991
1019.89
-403.963
-669.541
1073.5
-2030.53
1391.21
639.325
595.185
-999.148
39.9741
427.582
386.004
190.964
248.831
320.264
967.546
871.929
678.084
-324.818
-353.266
-292.715
619.187
-326.472
571.961
530.74
565.303
514.691
-1079.99
-796.204
-699.294
751.587
399.529
-408.446
706.081
-1193.41
1609.58
428.602
-1098.14
-345.712
541.908
-1380.82
876.51
504.307
-712.173
-350.325
-777.62
353.989
423.631
446.986
718.151
-1165.14
1073.41
-583.919
-417.592
666.811
-249.219
255.38
326.143
-467.809
-431.643
899.452
-230.961
566.043
-960.337
394.294
-458.592
600.598
-1681.26
423.644
670.858
-1094.5
519.965
102.081
113.408
-2212.79
540.138
-93.2762
1444.26
1777.09
-217.552
-1559.54
-438.458
1789.22
-1987.02
1194.49
792.529
400.05
346.575
-40.356
875.273
-1283.11
718.661
-869.126
-822.108
798.194
296.807
72.6535
-369.46
232.52
187.235
-419.756
1556.94
-839.632
-1530.96
-325.43
504.351
-225.662
-278.688
394.459
365.801
259.889
361.942
-9.76701
1002.13
-992.358
376.828
291.037
-667.865
-734.079
1817.32
-1083.24
-341.941
736.399
-1221.27
-413.552
-914.677
483.033
582.399
-783.531
201.132
760.105
-379.747
-380.359
-433.027
-448.161
449.907
1087.55
1238.61
-671.604
800.091
-344.937
381.164
328.098
-237.407
-223.639
-212.145
610.662
407.395
-846.55
439.155
228.784
348.287
-577.071
-422.215
829.61
754.504
-1147.17
890.294
-55.8833
-486.99
278.48
778.288
-96.0822
1384.22
1890.5
-50.1394
344.687
-315.649
417.744
-1086.71
1076.94
636.717
375.546
384.559
85.0428
419.308
260.964
503.626
-372.966
-262.746
-564.927
-89.3207
-363.06
361.583
1.47731
-256.239
-288.36
1010.98
-1540.67
529.694
-186.765
-182.249
-386.001
677.039
-1639.42
1591.01
-963.142
269.246
-672.005
584.315
1224.42
-1808.73
607.394
983.615
318.322
-1122.76
703.46
-284.498
-305.569
1380.63
-1449.18
830.969
618.214
435.15
-638.739
203.589
-387.594
482.93
-95.3359
383.091
116.099
1724.05
456.236
-249.899
557.628
-1704.79
1147.16
-95.7066
392.741
342.002
336.082
-448.362
-615.488
1063.85
412.965
-867.321
-640.955
902.762
570.483
-515.326
-252.08
-438.156
-408.394
-307.289
-827.201
1821.12
-1821.12
-102.871
-1593.65
1696.52
293.09
279.818
-917.18
-555.362
1472.54
-408.003
973.306
-601.917
-1038.54
691.959
396.61
-1088.57
472.013
-159.73
573.062
1220.35
-1793.41
-1038.4
2114.16
-1075.76
-375.708
-295.036
-486.508
824.22
-1754.64
1603.26
151.381
1754.64
-1608.45
-146.194
-244.879
521.629
-276.751
-537.278
1620.77
1568.35
-1981.9
1094.67
-292.688
-267.543
560.231
228.071
-573.784
-703.322
294.876
1342.06
637.075
582.507
481.338
-1063.85
272.186
426.219
875.407
500.069
-1375.48
536.317
-1018.13
1574.92
-563.945
-773.722
-358.793
-135.797
494.59
-489.954
1208.1
-741.362
333.009
366.915
378.95
245.425
-624.375
607.021
831.72
-603.243
261.979
684.698
-515.326
-329.371
-241.402
570.773
1168.53
-676.782
608.656
466.612
-1075.27
-1294.17
1294.17
-385.681
761.227
-279.715
-479.779
759.494
495.667
441.743
-937.41
392.193
-671.909
607.556
-868.734
261.178
-366.837
-491.844
1074.35
-660.537
-711.253
1371.79
-377.628
943.672
-1552.71
675.272
32.645
-427.739
395.094
-519.448
728.739
261.212
317.707
167.6
304.413
-529.106
244.608
1869.76
-1965.84
261.732
-715.16
455.137
-822.293
367.156
-910.702
1418.04
-507.341
-429.442
-485.235
600.747
1124.18
-1724.93
-713.512
337.803
-461.539
1033.5
-788.037
1050.02
-379.117
-625.728
-498.6
742.548
540.164
-358.766
908.632
-312.301
-175.53
1599.02
-1816.57
-347.949
-612.388
-343.075
476.71
274.725
-602.858
-175.885
1067.45
-788.966
199.725
-297.509
-272.264
569.773
391.278
-884.776
493.497
-483.814
-459.475
-943.413
-361.293
593.469
-232.176
-454.948
-437.304
-348.341
-178.871
-402.322
647.747
-444.691
772.79
-1072.35
623.986
-1405.81
548.498
-28.3219
-1837.05
1865.37
569.906
-449.797
1227.23
-695.37
336.38
-336.38
671.887
-447.584
1038.47
-1640.38
-1158.73
-947.949
291.358
327.829
891.123
716.005
-505
-302.986
807.986
1658.95
-1687.28
-434.14
340.667
226.359
1134.48
-525.825
-943.333
1550.48
-607.143
440.779
-249.815
371.879
395.471
-767.35
538.121
468.556
-1006.68
-330.604
663.613
-37.9568
1907.71
1596.57
992.735
-1696.89
727.016
-1176.93
449.912
-492.439
1367.85
837.32
-1341.1
-572.59
279.902
804.574
-400.195
549.644
-1190.07
640.424
-635.666
-1215.53
-695.657
1911.19
-188.448
558.001
-369.553
-180.87
322.082
-510.53
332.079
365.987
-698.066
-1486.31
756.517
729.793
884.082
-1434.44
823.085
-431.6
210.618
-357.826
-605.018
275.647
-649.26
-731.557
698.223
506.42
-1204.64
385.217
-201.842
-183.375
555.576
-957.845
-575.869
-425.212
741.898
-831.3
-1155.72
-1437.95
499.643
938.302
4.38096
-650.193
351.056
299.137
-1318.57
1047.16
271.409
-616.348
-456
-665.675
921.641
396.272
-195.283
-200.989
508.222
980.612
-1488.83
979.863
-564.997
167.54
397.458
-411.652
681.639
-419.907
-505.332
162.257
234.241
-1519.69
526.879
546.534
-770.916
251.468
142.856
-455.156
363.418
-822.893
1954.16
-1195.39
-758.771
425.254
-689.122
263.868
326.057
335.037
108.578
-443.616
-575.082
193.261
262.975
-691.691
1374.3
-682.61
423.826
473.209
-1185.38
265.39
1866.78
-1013.59
-853.188
784.874
-545.552
184.259
1402.36
-975.186
-427.17
327.929
-775.513
-616.512
1725.43
609.36
629.251
324.196
-27.3888
264.047
-1138.42
1725.71
-587.294
-1763.52
820.192
1760.18
-1689.95
-70.2252
-662.409
266.755
574.153
-728.762
230.161
1402.54
-565.215
383.78
449.013
-1858.6
1420.14
567.245
-443.977
-123.268
198.337
-546.678
-287.198
-191.532
-351.987
693.989
-585.346
226.553
615.208
548.763
-1163.97
1113.59
-1947.47
833.883
153.781
349.386
-1699.33
1661.37
308.921
-737.908
-167.176
377.794
758.348
678.898
-1437.25
1080.13
-1082.55
523.921
-1107.84
-627.092
251.113
375.979
537.315
-288.635
-611.794
-1028.59
288.549
-725.852
-912.321
170.407
160.525
224.692
401.866
286.923
-688.789
-633.734
-834.073
-978.448
488.126
-1063.21
-308.302
486.964
534.008
650.537
-281.744
-124.645
-410.863
729.185
264.489
-1200.73
567
1311.01
-552.666
441.764
-1017.63
-390.72
159.751
407.493
1023.32
551.608
-1717.07
1614.19
1633.57
-572.786
-1060.79
1904.36
-1893.19
-11.1672
221.184
-536.834
-358.144
557.869
-770.539
-328.284
-334.124
1021.78
704.041
-1509.45
805.409
334.863
-26.1889
1625.21
-1093.66
416.875
-1245.33
471.604
-60.9165
1520.21
1197.27
-470.254
-489.877
-75.1206
-274.29
736.026
-1951.56
-708.757
357.795
-532.013
174.218
192.359
-510.159
1139.91
671.564
-1811.48
-627.492
183.515
941.939
-1497.3
-210.453
678.876
-468.423
870.947
1129.05
-740.966
1350.33
624.596
-493.08
-131.516
-343.784
1174.75
1042.95
-1979.32
936.365
-1174.72
541.762
1488.7
-585.94
-398.29
-148.751
-1243.06
571.455
1160.59
-106.563
946.1
775.658
-1721.76
-199.859
578.533
-1541.7
963.163
486.958
916.627
-1403.58
624.348
584.845
403.579
-1106.64
591.968
1109.64
1216.52
-452.423
-764.096
-1186.2
-1754.93
-6.21637
-1710.85
-203.369
-435.369
1608.68
-630.939
-977.744
-490.782
1121.55
-1319.14
634.954
684.181
-1362.77
1444.52
-1331.84
590.876
1520.47
-388.506
-585.731
187.442
-1483.49
223.903
176.367
239.813
384.783
438.234
405.959
-844.194
506.299
-938.993
900.581
-1444.75
-710.783
235.756
475.027
-1048.15
457.874
-480.852
864.631
695.066
20.0403
-536.186
166.633
-886.565
-1318.74
-713.566
348.816
364.75
400.811
-721.454
320.643
-478.499
-189.258
-709.919
721.847
1539.73
-593.625
819.033
737.911
1344.76
-844.691
-971.21
-570.486
-795.131
427.397
367.734
-1036.23
-640.279
303.009
337.27
-1433.69
-296.783
-789.232
397.32
391.912
-661.139
414.127
247.012
-686.492
266.584
412.259
487.193
389.229
440.382
478.749
384.093
596.499
-969.367
687.547
465.502
453.545
356.099
-809.643
1630.75
-1079.89
-550.863
-504.566
-288.26
-1030.31
453.853
347.132
409.381
593.895
-1003.28
-1382.04
751.105
-530.671
1147.04
360.564
-45.3527
411.691
-864.412
452.721
-1895.72
302.067
441.403
-725.9
284.497
-187.743
399.81
-212.067
-659.454
303.445
356.01
-672.085
318.818
370.045
391.181
612.646
-1020.65
752.596
662.705
-1415.3
438.589
625.261
339.896
392.701
-732.597
408.841
327.559
599.876
673.762
413.783
601.279
-1029.54
428.264
-1669.96
1189.11
480.853
1696.59
-539.17
620.046
-1146.81
526.763
-642.506
347.908
436.967
-934.385
497.419
763.401
-452.015
349.981
344.007
576.988
-924.937
651.796
-1252.45
600.657
385.421
734.577
-1224.53
769.35
509.55
-1278.9
491.992
404.381
-896.373
-501.662
-936.284
-297.091
629.171
352.268
541.767
-894.035
332.482
331.131
-502.179
1944.74
437.079
-846.911
409.832
-917.713
-807.486
-746.98
366.621
-1226.31
438.27
-1737.14
1608.45
128.689
1748.19
-1603.26
-144.929
-783.093
-590.155
264.584
325.571
-1760.18
1981.9
538.536
791.332
-1329.87
439.991
716.283
690.283
385.504
-1075.79
-69.9622
1617.12
-593.803
388.628
838.6
-649.538
326.674
322.864
-377.484
-297.493
552.873
-215.618
433.195
280.822
-665.688
384.865
263.578
-576.45
-281.516
442.333
-1033.05
590.72
538.039
1092.71
365.804
596.823
312.797
353.554
-666.351
1629.18
-925.134
1692.02
-1520.69
-171.334
-326.577
-822.016
413.622
857.508
-1067.96
-604.441
277.969
-1090.59
1628.63
-1588.75
-76.7659
1665.52
-339.857
-348.921
-369.076
537.89
596.592
-500.769
-27.2483
-549.996
503.449
-281.526
-221.924
1752.46
-1302.55
-623.172
298.396
324.776
399.169
357.196
734.653
-295.343
-398.164
-1748.19
1687.28
459.415
-1100.65
641.232
-42.6248
1656.82
571.271
476.281
-1047.55
104.819
1144.74
-1452.03
-12.8572
-1882.86
226.699
-597.735
306.483
291.252
-955.343
612.56
-897.362
467.921
-1128.31
673.316
454.99
379.529
268.771
-773.771
-307.922
1216.3
886.642
699.073
-1182.87
456.07
726.798
494.278
700.639
-1194.92
-358.249
-245.175
405.7
-960.006
438.257
521.749
21.2449
-1879.84
1079.56
-471.999
-503.903
558.225
-1378.07
819.842
-431.183
798.339
-404.672
499.752
-705.828
1727.15
406.337
-181.645
217.253
-167.512
-243.31
410.822
1895.32
-504.114
-1696.32
1051.23
-602.118
304.625
-1013.26
553.265
-311.06
544.277
905.248
-1449.53
-1103.65
437.971
-20.8929
-1944.95
1711.08
-668.124
-540.621
460.646
-1190.36
729.716
192.782
203.49
-282.623
771.126
699.562
837.638
818.281
-462.182
1084.68
-484.522
474.946
-192.335
-282.611
-1923.53
-714.19
-316.913
-644.727
-6.9823
651.709
463.448
-270.187
567.092
1062.08
-807.412
924.159
1244.13
-424.696
-187.185
-228.3
415.485
961.6
-888.518
-319.13
-1067.5
611.504
1559.44
-802.927
537.653
934.89
-396.659
735.062
-338.403
1130.27
-276.705
339.794
1349.56
-705.693
-217.269
448.216
-1198.54
750.327
-986.69
-120.824
1107.51
441.275
-955.018
513.743
176.84
733.004
483.515
736.802
-94.7854
852.073
-425.257
1182.45
-796.945
552.148
-1465.4
913.257
-1216.65
1800.97
-431.711
-1510.19
879.62
-1401.94
-320.672
-420.033
1457.13
-1524.7
784.101
1491.48
200.524
274.422
-362.476
-1737.14
-286.809
-1012.83
1579.92
-1771.01
1771.01
1568.35
-1004.43
-633.171
-346.578
368.239
605.068
-374.546
-369.756
-1389.8
897.363
1125.14
600.574
1202.7
1789.48
-1216.42
-615.889
271.113
1659.03
-1916.51
257.485
814.839
-1267.6
1545.23
-561.61
790.197
321.308
-352.804
554.882
794.796
671.974
1356.79
-237.059
-444.641
-375.447
497.703
-342.233
471.701
736.404
-307.664
-135.951
-338.986
569.749
-230.764
29.5623
-369.699
1107.44
-1720.26
-448.493
-494.964
-569.946
863.67
695.774
-1596.45
904.755
-451.352
-625.953
-514.111
1251.85
347.578
1723.71
-1702.47
-1658.95
1893.19
-1560.79
840.273
720.521
-385.8
-1797.04
917.706
583.271
819.264
-392.784
1794.32
-680.73
-419.86
682.609
437.726
-1120.34
-1100.51
444.038
753.232
-1617.17
473.176
901.126
174.886
-397.461
222.575
-1598.78
-386.479
-437.654
990.289
-676.058
1442.9
-982.282
1853.23
238.825
-537.013
493.567
-293.043
474.291
893.556
543.124
977.347
-462.587
-427.6
573.967
883.158
-1392.71
-40.9882
1576.14
-838.233
519.936
971.541
-1475.78
-1115.9
1773.2
-1241.25
-531.95
1206.05
-319.023
-887.03
-190.493
450.521
-260.027
-456.957
-247.761
426.464
-178.703
142.15
-387.324
1732.58
-1738.79
-466.592
-530.831
-903.609
440.392
-205.385
-235.007
635.661
-464.894
-359.728
-325.875
685.603
-930.283
393.673
-1167.23
676.452
413.711
-640.05
-434.076
1579.48
-863.474
530.177
-457.68
-570.665
-462.388
373.564
-363.79
-9.77397
-1111.09
415.719
-664.788
-1033.63
1698.42
-606.39
-1423.69
712.435
562.197
-1596.24
1034.04
-401.472
-472.474
158.08
536.185
-1258.25
744.134
539.215
1006.01
-2133.18
999.988
1133.19
-376.271
420.88
-395.972
-24.9078
1478.01
-377.389
449.226
1210.22
582.246
906.456
567.428
527.386
-1094.81
162.389
-449.359
-1689.95
248.877
1127.58
-619.713
518.492
1013.73
-1532.22
1092.85
-1643.71
187.138
703.157
553.38
-872.509
-1086.5
-173.524
429.572
-256.048
-587.104
-438.93
-636.778
-629.665
347.043
-1618.93
939.578
-476.661
212.403
-394.048
532.028
-305.33
-613.253
1197.09
-1283.53
924.992
358.537
-1017.72
-382.405
-760.387
-827.096
1690.77
-476.785
1793.29
-1583.07
-210.221
-1556.62
1018.72
537.901
-728.259
-263.935
445.967
-182.032
-597.706
382.747
272.14
-654.887
-523.892
995.573
627.942
-349.973
-1620.27
1050.51
571.765
1103.54
-1675.3
-424.3
-288.533
-370.921
-747.09
-480.622
-328.784
496.384
1557.98
-995.779
-774.986
1497.44
657.602
-316.935
725.88
1152.37
-1878.25
304.059
317.311
-487.075
-1932.76
1720.22
212.535
736.497
-473.759
-262.738
531.824
1060.83
-1592.65
373.564
-1723.71
-233.21
1752.35
-1580.69
1073.78
506.911
-1725.01
1.29934
-521.601
420.88
1699.33
-1720.22
939.579
624.678
-1564.26
385.159
-218.178
-166.981
-421.58
-264.912
68.2841
95.1772
-359.113
-427.603
-441.131
-402.532
214.788
1510.22
378.852
-216.497
-444.642
460.972
-197.997
331.035
1510.76
995.332
-154.122
-841.21
-1104.09
1704.84
-1728.79
1064
-707.213
-1021.58
-1265.08
1844.99
-579.902
1155.06
-1771.16
616.093
272.443
-878.066
1675.74
43.4403
-1719.18
-491.152
-1083.05
-1732.58
-981.65
554.05
1019.6
590.225
1133.03
-1723.25
276.294
-450.89
702.08
-383.262
389.487
924.704
680.938
-383.474
-646.07
582.888
1072.55
-1655.44
-403.278
-365.641
768.919
440.138
-1661.37
1520.69
140.683
581.822
-1043.36
544.74
1083.89
-1555.66
994.051
-236.329
223.992
333.876
1904.36
444.717
-71.8451
995.862
722.75
-1718.61
-697.256
1085.34
-1557.51
163.061
-571.271
197.292
263.681
-663.761
-562.547
582.513
1034.61
-711.163
-283.575
-1368.23
675.072
693.157
-411.256
757.719
69.8265
-827.545
561.713
-137.162
1557.3
-209.75
276.851
-773.597
-1932.76
1664.62
1026.98
389.747
308.714
454.688
-929.921
-993.605
-1767.26
633.86
1693.76
506.197
-474.268
1210.67
1087.11
-424.745
1029.81
-977.262
490.927
486.334
700.337
1047.91
-1748.25
482.548
483.891
-1493.97
-745.804
33.2656
778.849
-412.227
-887.934
384.03
-539.042
-802.057
644.653
-577.4
1397.24
1055.14
195.432
234.14
-550.612
1618.52
-773.371
1525.97
-1727.83
575.253
1152.58
541.444
-882.042
-1732.83
1916.51
-183.688
1721.74
180.333
-544.334
374.215
-279.038
-481.352
1211.07
568.266
1128.32
-491.086
427.78
856.593
-459.503
-771.509
430.106
341.403
1418.97
1089.58
-518.186
1422.94
-510.516
-533.551
1044.07
-602.753
486.447
-1203.78
1692.02
1839.58
-687.211
1585.71
-646.132
-1241.08
717.187
-562.519
205.744
-396.925
454.045
-244.63
-519.588
-1246.71
1870.94
-624.234
1173.06
-553.009
1120.28
-1659.45
1697.93
-573.931
-546.152
-549.817
1720.07
-316.84
-688.031
-473.249
1223.58
-1685.97
-1860.1
613.396
309.281
-935.874
166.437
212.041
-1719.02
1204.15
514.872
1162.85
558.887
-512.038
-465.313
1192.11
179.232
220.578
588.444
1251.13
-539.177
-1238.58
1777.76
-1025.34
999.99
866.789
-204.105
-1659.03
1702.47
-510.061
1411.19
-1732.83
-351.428
12.3902
339.037
-257.398
583.177
-325.78
85.8523
485.534
779.802
-378.991
1257.53
1270.81
-413.3
851.07
-437.449
1817.46
-662.396
1586.55
-1723.71
-412.793
-756.383
308.456
447.927
-560.022
-563.326
79.7149
-1138.76
-985.4
-669.855
1655.26
-943.706
-1189.47
159.031
-426.574
-648.123
705.653
1167.44
650.018
1410.2
-590.932
1636.74
1317.9
-573.768
-488.332
195.289
-503.257
1396.81
1239.85
-564.778
-999.989
892.106
56.3802
-948.486
603.433
-506.113
1403.48
1495.01
-588.552
-382.053
382.053
-589.436
1623.48
1239.4
-486.166
1134.16
-67.6815
1849.26
-387.046
1489.4
-588.814
-507.653
1347.93
-651.79
1218.31
-566.521
1554.77
-591.608
755.123
575.544
-1330.67
-655.93
283.312
502.353
600.311
-1957.3
-995.861
1586.55
382.76
-382.76
-63.7354
386.616
436.469
397.081
-13.9896
-342.512
904.474
-519.053
-426.147
812.763
-242.002
617.981
-428.97
1547.97
-444.317
-884.103
185.057
223.29
-408.347
601.168
1250.78
-1851.94
926.279
-458.359
-363.79
126.151
-1943.02
1816.87
-446.922
176.348
1181.19
-440.399
-740.795
-298.806
-589.127
-493.446
-395.972
-477.432
255.508
1157.82
-561.225
228.546
-373.929
145.383
-22.4085
-107.67
1376.09
-1268.42
34.4502
-599.377
-586.4
-460.774
460.774
-1262.36
1985.11
-1344.38
-211.675
-1823.16
240.086
-1025.75
-974.243
-183.919
-1638.16
708.236
1229.32
-1924.97
366.377
313.462
-679.839
-1850.01
1234.27
615.742
-564.879
564.879
-959.141
-39.8934
-1866.06
-558.14
1650.85
-676.853
1636.16
-601.552
-179.045
-1703.81
-581.859
-447.669
-594.801
-473.834
473.834
-1537.81
194.527
1343.28
173.092
223.922
-397.013
487.79
507.542
996.49
-474.741
1751.3
768.732
-427.978
403.07
521.265
1702.04
-594.608
-552.959
1636.85
468.404
1812.75
-645.305
-1804.05
-1938.07
-646.973
-485.082
485.082
-596.243
220.796
-694.214
1019
-465.737
-1073.45
-289.638
1579.58
1852.3
1635.34
-1635.34
-271.107
739.846
1761.49
595.787
1275.15
175.47
209.69
585.23
589.25
1603.53
-1603.53
220.969
-355.077
-435.818
459.113
950.496
-459.569
-639.512
-1131.01
1706.26
279.021
-1654.74
616.195
-286.196
466.53
1744.64
-592.064
-214.736
-420.436
379.085
730.558
1738.57
-613.429
-511.765
-772.117
1960.53
-870.454
-1090.08
1642.76
-705.816
1223.97
-1824.94
600.973
346.357
-883.37
-185.937
-110.185
1097.95
-486.441
137.216
623.48
-1652.07
433.449
617.716
-1804.05
-583.275
1787.43
884.026
-1162.92
1760.49
-597.569
1783.83
-575.527
-1208.3
436.763
924.245
-1738.79
924.716
-1492.71
263.108
1229.6
-830.882
-1254.23
-385.874
77.7256
308.149
581.724
268.008
1029.62
-441.537
845.095
-403.558
820.711
739.549
-1560.26
643.977
1066.3
-24.5266
-663.944
688.471
-1744.32
722.745
703.375
150.53
-1122.68
1936.76
-674.55
-1262.21
-537.172
1665.49
832.612
965.164
-1797.78
1227.86
683.327
-405.258
708.703
825.287
1027.72
-586.447
1761.49
626.49
1773.56
-1185.62
-587.941
-380.97
-340.535
721.506
121.434
-1185.7
1660.55
-540.264
-1437.85
1437.85
1250.57
594.415
1351.54
206.439
-557.932
278.429
-186.042
699.084
1113.66
476.51
-297.278
-869.999
-574.747
1737.49
-1737.49
1012.71
-1012.71
987.331
1025.17
-2012.5
1837.94
-613.972
-581.107
831.842
-947.85
-1052.16
998.283
690.749
-1689.03
-522.061
-357.922
-641.226
-808.424
2042.69
-1246.42
-613.682
1002.97
974.852
1289.77
646.987
324.596
1012.68
224.86
338.265
1186.29
1756.87
-1756.87
671.933
80.2076
-391.548
-997.052
-539.987
1674.14
991.259
1008.74
-1833.28
-221.907
-359.952
609.815
-360.938
1849.5