/*--------------------------------*- C++ -*----------------------------------*\
  =========                 |
  \\      /  F ield         | OpenFOAM: The Open Source CFD Toolbox
   \\    /   O peration     | Website:  https://openfoam.org
    \\  /    A nd           | Version:  7
     \\/     M anipulation  |
\*---------------------------------------------------------------------------*/
FoamFile
{
    version     2.0;
    format      ascii;
    class       surfaceScalarField;
    location    "37.5";
    object      phi;
}
// * * * * * * * * * * * * * * * * * * * * * * * * * * * * * * * * * * * * * //

dimensions      [0 3 -1 0 0 0 0];

internalField   nonuniform List<scalar> 
31093
(
588.266
-435.592
-152.675
271.155
43.24
-314.395
946.453
-1137.2
190.746
-395.175
994.309
-599.135
-632.096
670.974
-38.8783
-687.201
55.105
223.828
-42.9372
-180.891
587.715
-455.198
-132.517
207.524
-290.303
82.7786
76.3764
511.338
-88.8461
264.165
-175.319
-246.488
274.662
-28.1745
-231.888
-21.4083
253.297
34.712
553.554
620.975
-649.87
28.8947
-965.101
569.926
-291.472
354.183
-62.7101
-93.8303
-987.973
1081.8
-263.243
232.426
30.8167
305.691
-34.5367
-308.494
296.245
12.2494
0.155743
-246.643
-456.587
532.963
278.253
-333.865
55.6116
946.453
-358.006
90.6985
267.308
892.184
-976.16
83.9753
339.699
-146.059
-193.639
-175.009
-101.521
276.53
-116.767
-146.476
-592.235
740.774
-148.54
362.826
-310.921
-51.9046
348.389
-59.5136
-288.875
555.623
-294.096
-261.528
-717.069
780.437
-63.3678
-731.03
138.796
144.722
-354.213
209.491
932.37
-932.37
784.741
-344.741
-440
280.629
424.685
-705.314
2.28818
801.027
-803.316
-271.781
80.0852
191.696
-860.78
689.049
171.731
973.6
-81.4158
-133.48
-224.526
116.702
72.6192
-189.322
1088.62
-464.307
-624.316
320.576
-260.488
-60.0886
842.901
-30.4247
-812.476
239.073
-228.063
-11.0099
-787.761
70.6921
47.5196
-754.924
707.404
-282.002
-149.439
431.441
762.991
-835.45
72.4594
157.414
-393.754
236.34
15.0406
-209.071
194.031
379.043
-108.801
-270.242
694.645
-751.254
56.6091
-60.589
-293.76
354.349
-54.2949
-237.177
-663.131
431.367
231.764
-50.4694
244.942
-194.473
480.03
-482.506
2.47546
-178.435
-351.368
529.803
-697.687
828.141
-130.454
-714.664
107.099
607.565
514.117
-573.404
59.2864
-650.389
-64.2753
-162.763
-371.683
534.445
-140.496
-72.2589
212.755
362.03
-554.9
192.871
331.06
-251.939
-79.1209
675.093
-54.1173
-270.375
-37.7139
308.089
1062.03
-554.529
-507.503
-76.7621
478.191
-401.429
331.63
-138.898
-192.731
-227.194
15.3598
211.834
906.428
-625.799
566.922
-832.614
265.692
632.492
-525.393
816.759
-194.289
-622.47
307.841
-97.7802
-210.061
298.598
-91.0731
134.152
-184.621
-592.12
-268.66
237.066
-282.43
45.3635
-62.0376
165.677
-103.639
-623.236
444.801
147.716
-305.523
157.806
-405.919
684.233
-278.313
738.979
148.788
-887.767
904.469
-130.158
-774.311
185.183
-302.164
116.981
216.595
103.981
424.23
55.8002
263.785
-78.6021
-779.278
789.579
-10.3019
-331.484
242.638
981.243
-886.502
-94.7413
279.77
-132.054
405.343
-416.351
11.0087
181.27
104.668
-285.938
469.838
-202.084
-267.754
1221.08
-1221.08
481.893
30.9439
-512.837
-41.3017
252.826
-211.524
-485.093
233.903
251.191
265.569
8.93551
-274.504
-251.006
-80.2247
331.231
38.6874
-213.696
183.267
40.5608
394.408
-109.103
-285.305
-265.165
-401.984
667.149
-574.181
497.418
-568.683
-431.381
-368.212
-170.213
538.425
576.627
55.8657
-311.77
-10.8294
322.6
-1030.07
260.182
769.891
-170.786
909.764
55.1206
259.035
-314.155
385.219
-605.653
220.434
232.924
-362.84
129.916
131.678
423.945
758.976
-852.806
40.1015
184.196
-224.297
184.201
155.498
271.279
91.5461
133.38
-501.592
-31.5592
-149.739
181.298
22.5029
216.57
857.369
-855.081
290.744
493.997
138.504
-347.662
209.158
261.159
959.922
263.007
-37.2274
-225.78
-279.505
-28.9894
-405.822
35.5064
370.315
100.148
66.4503
-166.599
295.287
-240.166
31.8951
-302.27
203.185
127.875
-295.651
215.25
80.4015
-550.781
66.215
484.566
-97.3209
235.825
-271.956
93.6887
178.267
-94.4858
-222.953
317.439
-23.9018
298.966
-275.065
-764.879
-211.281
127.428
-221.914
191.134
971.735
-67.2666
-229.75
-53.2446
282.995
151.054
665.706
-238.275
-33.6807
-734.086
141.967
83.8174
194.436
68.3105
-159.17
90.8594
-9.66489
-222.223
-197.177
354.591
-245.217
202.28
-36.3855
-414.524
-136.257
-191.411
-664.356
855.768
-171.206
109.168
345.627
59.7151
287.285
20.5567
444.598
33.5935
-327.506
472.228
338.435
-75.4283
-198.765
-118.775
317.54
-4.96929
-188.481
193.45
398.461
-442.717
44.2562
105.192
111.157
-216.349
21.2
327.189
-571.874
509.282
62.592
-546.435
-26.3199
572.755
-446.98
-127.2
-28.2739
215.776
-187.502
30.5176
-200.661
170.144
735.581
196.789
331.367
70.1528
-401.52
-81.1915
201.217
-120.025
267.362
38.3298
227.283
-123.972
-103.311
587.083
-225.053
27.4813
953.762
158.068
251.09
104.112
-355.203
279.46
-239.359
270.002
-399.611
129.609
66.6399
-953.142
-596.382
433.62
216.771
-148.461
-10.1922
273.177
-262.985
65.9335
265.434
-20.7018
300.09
-279.389
325.512
-58.1504
15.0087
236.082
275.28
-386.072
110.792
-72.727
328.517
-255.79
-484.087
185.582
-361.719
176.137
255.382
-400.506
145.124
-311.779
284.533
27.246
-9.72998
-327.464
337.194
772.738
-725.218
197.145
-182.105
619.721
-635
15.2786
415.755
98.3624
-863.326
535.769
327.557
-38.9812
303.477
-264.496
-85.0993
-150.336
235.435
-279.28
574.257
487.775
513.904
-513.904
-516.843
-513.23
-254.63
-230.464
899.292
-608.548
-1.99378
266.746
-264.753
-181.456
-245.558
427.013
101.983
137.915
-239.898
507.134
-913.053
-325.983
245.758
-12.7436
-393.078
352.157
-361.887
-1068.64
499.952
-485.238
485.238
-641.34
-6.53805
647.878
633.694
-248.475
308.19
128.102
-436.292
-316.146
274.844
-218.225
208.961
9.2638
-520.422
818.528
-298.105
307.065
-69.999
572.438
-90.5446
-418.967
220.202
192.874
70.9105
-635.146
453.691
216.197
-355.096
88.0507
-173.15
240.239
93.5099
-333.749
352.982
-120.058
-974.87
-246.212
622.04
-45.4132
-61.5384
280.444
-218.905
555.529
-458.482
-97.0474
-74.0105
769.005
-694.995
-53.2252
896.126
263.826
1.74291
-86.1921
188.175
-61.4791
528.436
-466.957
-542.658
197.916
-164.764
10.2115
154.552
-124.796
432.986
-50.313
236.214
-185.901
-58.816
-212.965
193.354
-93.2054
-77.5466
194.249
21.7074
-250.245
228.537
35.1353
455.675
-490.81
710.468
49.3833
-759.851
285.617
21.4479
-81.6718
-163.545
-114.381
10.7792
256.404
-267.183
33.8308
360.577
222.706
-743.128
325.535
-193.63
-88.7998
122.534
-820.649
698.115
68.8473
-376.521
-196.883
-296.537
228.248
68.2887
-354.724
-308.406
567.777
-999.158
235.923
-49.0722
-186.851
-33.8965
217.343
-183.446
-1037.4
330.547
706.848
-47.6706
381.181
-333.511
324.506
54.5374
-255.908
114.161
141.747
356.804
-82.6424
-274.161
384.026
-114.024
-191.675
296.343
289.694
-215.038
136.922
-170.818
-82.8366
592.61
-509.774
750.893
-183.972
-122.874
-333.617
456.491
854.02
-731.486
239.656
-228.877
-30.1911
-297.315
-537.162
72.5652
89.8981
-162.463
344.525
-52.7189
-291.806
-85.2805
191.013
-105.733
375.598
-100.318
-92.8473
-366.274
459.121
7.6602
843.929
-851.589
-776.569
803.892
-27.3222
-242.31
76.0263
166.284
-753.979
439.932
314.047
48.6586
-165.426
-2.08995
176.711
-174.621
-261.756
261.912
6.29591
-231.205
224.909
222.872
-7.09604
148.518
-528.859
380.341
231.675
-209.968
-40.2974
-186.897
-57.0129
529.241
324.404
-42.3319
-282.073
-733.859
741.519
-474.505
341.936
132.569
440.772
-307.392
471.78
-861.894
390.114
-313.09
-80.6639
-726.609
28.9221
-165.639
-90.2689
-645.623
631.482
14.141
-182.668
351.831
-169.164
314.212
323.823
262.796
-170.156
-92.6403
284.077
-269.835
-464.252
-209.075
-93.0886
269.687
-179.216
-90.4707
-527.273
-8.8476
536.12
201.169
-95.9769
1006.22
-1006.22
433.597
-492.497
-544.898
149.768
209.284
-359.052
-453.721
423.53
-332.148
294.434
-326.212
431.757
139.549
-571.306
50.6609
712.33
546.044
-114.287
400.157
-570.371
97.011
225.355
-322.366
-211.04
-228.311
439.352
268.809
79.1454
-347.955
-297.371
-544.656
842.027
491.938
-757.103
358.183
8.17736
-366.36
-987.973
417.748
96.156
245.348
-250.317
301.055
-361.644
-37.7688
156.321
-118.552
15.7822
-261.934
-254.711
11.8648
242.846
227.792
41.8952
276.392
-357.584
227.442
-93.2902
-512.211
-170.753
-134.769
-391.411
-362.568
-943.181
-172.453
1115.63
-496.293
942.52
-446.227
-143.107
-19.7252
162.832
-668.464
636.692
31.7714
-250.094
342.978
-92.8837
265.039
290.49
2.36277
-211.434
873.997
-912.553
38.5558
445.471
-107.165
187.251
-385.113
190.342
194.771
-231.557
44.3644
187.193
-491.745
-35.5276
135.314
-244.115
310.748
-70.509
-1088.33
896.915
-522.327
460.848
-128.217
248.508
-120.292
-73.9582
387.064
-313.106
371.685
-318.669
-53.0163
-391.546
46.6496
-211.413
-288.47
679.125
-390.654
-70.2512
-261.233
-67.5122
425.695
4.43565
192.28
-196.716
898.409
190.214
-339.212
-45.9011
188.39
183.296
-372.717
-456.278
828.995
-827.168
362.86
449.831
-951.771
501.94
84.6754
-415.296
330.621
-287.174
201.894
-12.7354
468.41
-169.656
-192.063
-460.457
149.536
615.988
6.05159
23.6394
212.283
428.884
-100.382
-328.502
-112.089
-87.7559
199.845
125.457
203.742
-262.558
9.11466
-118.5
-59.8733
178.373
-386.605
-19.2916
405.897
0.924405
283.7
-284.624
-103.08
493.552
-390.472
-412.063
347.526
-78.7165
-898.038
824.028
358.859
-327.915
-89.918
-309.693
-91.7159
-294.356
-655.35
-123.927
-513.134
266.815
246.319
-289.028
37.0886
-111.898
127.908
15.4271
191.625
416.133
-607.757
29.6342
-272.982
12.4944
-5.51435
305.605
150.904
-260.007
-50.6103
-247.258
297.868
-810.688
796.251
14.437
230.958
-252.489
21.5314
362.327
536.965
294.112
-376.755
-20.8977
306.515
-724.603
694.179
288.801
-211.572
-77.2291
293.33
-20.1527
-190.163
-166.12
-315.26
481.38
-214.117
-97.6616
317.492
-370.211
452.914
-545.761
119.845
75.6874
-195.532
206.557
-128.745
-77.8126
278.069
-650.786
149.282
-520.965
248.032
-93.4306
-154.601
47.631
-812.51
-434.276
309.938
-352.27
-569.306
653.982
-482.081
67.557
368.31
-665.681
155.19
-252.701
97.5117
-850.174
897.805
-30.2504
-7.12919
808.157
-217.64
216.267
1.37299
-314.665
197.877
116.787
-229.322
-171.184
-57.9271
427.577
-369.65
554.769
-637.605
48.3301
-232.569
184.239
177.137
-128.807
297.252
81.7176
-264.385
175.525
17.8284
-145.66
766.878
107.119
-454.187
186.433
-240.219
174.505
65.7142
198.542
-248.855
-3.68396
191.413
-187.729
-310.579
259.969
-221.923
-15.9473
237.87
-511.792
388.918
172.054
-195.956
-580.796
-64.8269
614.973
4.74818
-275.397
-226.195
193.835
-76.7175
-117.117
-118.881
-101.756
220.637
135.795
-210.914
75.1186
-76.3597
289.532
-213.172
-225.524
212.543
12.9808
-194.563
-30.961
324.406
104.478
976.612
-715.452
-287.944
-317.141
246.89
191.516
33.049
-224.565
-980.859
804.054
176.804
-395.762
168.863
226.899
-504.492
-122.669
627.161
-158.918
-806.183
13.2247
-299.163
-471.295
452.004
-99.7028
-214.962
232.078
-14.735
659.709
-102.322
-557.388
347.16
-450.241
-159.248
756.289
-597.041
-215.305
-224.223
439.528
-285.481
269.356
16.1253
5.94783
-77.555
213.35
-100.333
-196.205
-526.09
12.9568
-16.1414
-90.6201
-744.83
40.8738
-432.217
-220.982
102.1
-289.962
188.441
698.959
255.918
-309.162
163.709
63.5742
-309.198
14.7353
294.463
-266.434
34.8769
-36.9819
-996.94
778.582
218.358
-18.8141
227.775
-116.107
273.914
493.246
-524.173
30.9264
-281.882
-192.623
-360.908
396.414
-36.4549
156.924
-120.469
962.758
-800.364
-162.395
20.3894
-532.494
512.105
-6.44329
-163.59
170.034
-179.012
-110.015
487.765
-63.5355
-236.925
501.964
-559.741
122.111
437.63
-182.953
273.651
508.074
-355.188
-152.886
294.889
8.2778
-303.167
-275.972
214.433
658.234
-86.2581
-571.976
436.467
-244.842
-433.565
389.85
43.7148
286.147
-5.70366
-249.934
-59.2641
-180.311
56.3386
200.116
-500.729
66.8652
433.864
-263.219
261.225
-349.843
350.768
-333.563
-67.49
-417.748
-458.854
400.927
-530.617
1001.8
-471.182
-132.323
95.8686
-176.887
-218.875
488.457
-50.3025
-438.155
-17.3472
-298.855
316.202
-505.529
563.234
-57.7053
407.692
202.978
-100.141
-102.837
163.896
-240.255
197.5
-201.184
-305.39
126.174
423.11
-402.721
-11.3728
-274.109
82.669
-903.503
903.503
130.471
3.13687
420.365
-423.502
-169.258
185.4
-16.1422
-524.922
313.882
-425.956
69.7142
356.242
43.2835
150.551
-487.508
368.88
118.628
-239.084
436.669
51.0966
308.474
42.0795
-350.553
342.096
-83.0609
-434.269
-24.2125
117.052
-361.396
287.438
330.288
-221.985
-108.303
-53.5104
145.636
-92.1259
-943.181
-299.06
-215.702
119.289
96.4125
-296.124
236.61
-432.672
-519.099
251.96
526.229
-778.189
-144.566
-531.839
676.405
-448.888
173.491
-18.1875
193.713
214.275
-16.7755
-657.352
640.522
16.8302
80.2296
356.237
297.876
-68.6619
-229.214
-97.9092
-526.101
624.01
-576.716
811.42
-234.704
-572.432
59.2223
-786.718
186.174
600.545
-980.922
413.517
567.405
-288.559
-271.182
-124.027
482.886
-968.579
437.962
-675.528
814.368
-138.839
616.483
-714.392
-212.058
251.044
-228.541
124.312
-799.84
-164.204
-694.328
858.532
671.535
-13.3014
501.306
326.835
-58.7244
275.32
-116.185
96.4597
-117.225
191.359
-542.726
254.464
-227.33
-27.1335
-137.189
321.442
-184.253
-186.798
-86.1839
523.562
-30.3163
-290.91
273.562
13.2156
623.477
-703.905
-650.567
-255.518
-245.211
41.4033
222.762
19.0207
439.803
-458.824
-368.848
351.025
17.8236
-141.581
156.941
561.641
440.157
-351.952
-193.133
545.085
192.824
-247.119
-82.2471
285.432
-72.2633
-353.693
195.52
-232.747
-236.916
317.145
202.845
-130.226
-460.654
-520.268
-296.122
-12.3937
308.515
-287.135
163.171
123.964
-174.078
178.514
-200.535
-86.5995
225.859
-219.563
249.575
-282.713
33.1376
271.82
-61.7553
-210.065
-805.195
646.278
-311.039
-303.163
53.0693
-296.362
304.539
273.16
-102.575
510.267
190.785
-52.8696
284.355
531.033
-815.389
-194
166.197
40.3605
-576.628
410.508
-953.911
289.555
303.926
-800.219
-473.131
-73.1322
546.263
-541.142
469.382
71.7604
281.832
-211.725
42.4671
-637.943
401.018
-13.3761
168.566
-320.862
339.883
154.949
-510.138
-140.194
-37.7081
230.582
-7.66517
277.021
271.023
-86.5334
197.691
771.183
-2.17781
301.739
-287.864
-13.875
-239.817
-107.844
-114.256
-34.6683
265.626
688.455
254.065
80.0035
193.91
336.242
-120.044
-81.2972
289.234
-207.937
-425.67
92.0535
495.086
-230.517
-264.569
287.562
-295.227
-16.4583
-674.211
690.669
225.796
-834.969
443.423
-240.896
40.6855
-322.758
-93.0935
-387.67
480.764
-125.257
135.469
260.25
-318.975
290.191
8.7751
-876.021
329.586
53.6688
-345.475
-725.908
-522.714
-458.145
237.349
79.1528
-353.314
250.07
-332.317
160.841
87.1914
126.21
-222.167
95.9577
-498.364
132.09
512.751
-924.814
-170.687
93.9698
458.399
26.8396
-574.79
-422.15
17.9994
-598.795
-3.45575
298.345
-97.6773
375.581
-277.904
-125.733
-90.6165
129.202
-195.16
-84.1203
-343.415
377.245
-222.938
-55.6704
278.608
-64.706
227.877
-297.509
-260.116
242.154
17.962
43.8078
-249.03
289.716
370.769
-39.8034
-329.045
-22.5419
235.085
204.182
-28.9992
-175.183
-106.988
-466.936
53.9606
412.976
-291.966
-135.568
427.534
157.215
-210.725
313.919
-262.253
96.6132
-196.542
-124.494
321.035
790.305
329.223
-41.3962
-210.239
251.635
-18.9739
-522.168
-296.122
-742.782
369.459
373.324
2.3233
-296.419
-4.24647
275.526
-11.8703
228.137
254.872
-339.419
84.5471
-474.603
-121.78
-551.213
209.631
341.582
210.206
27.6636
237.877
323.405
-621.877
298.472
218.054
-420.159
202.105
-362.428
387.489
-675.802
288.313
942.447
-914.965
-750.969
462.499
-406.898
-115.316
522.214
177.036
124.703
-333.029
562.562
-377.769
-184.793
390.234
-197.41
-824.377
247.661
250.79
244.295
-239.305
60.2931
378.879
-104.035
178.842
-180.433
1.59162
233.291
11.6508
588.383
-614.703
-511.962
203.621
308.34
73.763
-339.552
-154.541
494.094
91.9694
378.021
-182.502
265.525
59.9875
-467.814
185.932
287.589
146.428
-434.017
122.63
-250.847
-162.306
-229.32
-206.272
-360.389
16.9746
-28.5547
-628.797
-37.5772
232.84
-195.263
-325.624
172.604
153.02
-365.252
-95.1038
460.355
-237.321
-88.662
187.403
16.7785
-317.347
81.554
168.387
113.302
-281.688
-274.959
-138.493
413.452
-363.27
-291.889
272.078
19.8103
149.487
-366.276
216.789
150.483
-255.04
104.557
-35.8833
-84.8552
-294.481
379.336
-390.808
221.152
211.725
-441.045
-281.669
136.968
144.701
-467.692
152.432
35.1583
-440.496
405.338
-197
-63.1163
160.988
388.56
-339.525
-49.0346
-212.669
203.531
9.13812
-258.831
139.984
118.846
-108.556
-131.662
-287.644
-116.157
920.212
-215.619
-34.6259
286.659
-486.539
293.916
137.878
-343.367
205.489
-379.88
-116.955
496.834
-471.909
-215.292
220.65
-29.1338
241.69
690.046
-706.505
-48.9529
-272.548
321.501
82.7593
-711.598
628.838
216.101
98.4479
-314.549
314.281
-104.997
-218.447
231.672
-363.667
-48.9889
412.656
-710.532
39.2989
671.233
-459.988
-175.159
-65.1657
-284.678
522.692
-4.45677
-774.485
-19.759
794.244
-169.834
522.983
-353.149
-193.03
477.385
178.199
-517.751
333.459
-108.104
86.7272
441.709
-425.929
429.066
-334.798
-139.919
474.716
-523.767
50.6357
326.918
15.0178
52.3626
-270.81
268.119
-58.8434
-209.276
-99.5026
-108.105
309.998
-85.8672
-275.529
72.5244
201.127
-301.617
-100.983
402.6
-290.206
354.589
-64.3831
-85.9036
284.445
-345.312
-131.505
476.817
-266.183
133.235
132.948
-142.852
-15.3886
41.6876
-652.7
611.012
-181.249
-252.316
-273.44
-255.418
-336.922
-97.3536
-217.213
-80.8778
298.091
415.325
639.688
177.649
-264.73
87.0814
147.167
506.815
238.627
29.4918
202.579
-254.775
52.1961
-362.374
-149.418
-531.062
-77.4745
361.551
-179.821
316.719
-34.887
626.426
-172.735
-4.49613
230.355
-241.599
279.636
-38.0372
713.653
0.30813
287.254
-602.051
492.384
109.666
230.076
67.8002
199.11
-45.2254
194.038
-328.807
105.021
-329.547
19.7128
-354.919
357.616
-2.69726
116.39
-220.029
176.051
24.8516
-320.454
318.674
1.7808
251.983
-307.653
249.144
-20.6064
-337.055
-116.666
-47.6352
239.331
11.8813
242.582
301.381
6.70847
-364.157
-138.579
502.736
-77.2388
-150.825
-198.492
-34.0775
88.9424
236.593
258.665
-293.333
300.316
-58.5959
-236.445
244.637
-8.19138
-1060.71
707.432
353.279
-423.764
131.798
294.764
-3.7772
-290.987
-69.0895
356.528
577.457
-182.69
-36.8576
219.547
-37.3866
-224.369
-262.571
-64.3084
326.879
-285.736
-62.4204
348.156
-70.0106
-510.135
-91.915
-797.922
785.552
12.3703
71.4121
223.743
-295.155
49.5933
286.306
-184.672
483.618
-298.946
-239.084
-78.0577
-432.764
111.267
-236.999
171.65
-261.918
-328.315
-109.989
438.304
-90.4348
421.447
-331.012
-384.027
-87.2683
-248.791
-70.184
2.08648
-429.89
-92.4372
-199.408
683.508
10.4009
637.169
-647.569
-197.836
48.0963
230.111
-815.502
585.391
180.229
-409.551
278.809
-25.983
117.463
-1019.66
-243.694
-88.6233
438.077
-4.48063
-474.984
-402.94
-109.897
-657.395
213.045
-422.946
209.9
25.2941
264.237
-325.806
-64.1285
389.935
13.379
-293.649
280.271
830.084
-116.431
-492.012
479.277
-59.2882
-715.196
-60.6772
411.445
-846.73
783.362
295.822
-474.83
402.567
-95.5954
-115.977
199.086
169.239
-368.325
-438.225
-247.816
183.851
19.16
-203.011
-221.469
915.376
31.0772
-991.988
559.771
-225.355
-98.0799
323.434
728.123
30.853
332.658
-86.8993
372.004
-355.03
-401.873
406.314
-4.44182
331.371
-325.809
-5.56186
341.152
-99.4616
-19.0738
-412.848
-119.646
-243.794
-115.258
-214.779
-107.587
-607.375
793.473
-186.098
-207.042
6.50655
-196.2
-390.972
-462.593
412.29
92.7761
-287.936
-132.751
-112.419
245.17
-42.9663
388.36
-345.393
311.872
-51.903
219.599
-71.8268
-147.772
86.3855
-249.976
121.469
168.225
319.962
-103.86
-308.879
-113.254
217.236
529.258
-140.341
26.246
-773.542
747.296
-299.36
122.13
-208.664
-30.2675
-42.8884
304.8
35.3749
771.716
-699.256
856.402
-110.854
-745.547
376.331
-74.686
-301.645
127.817
-248.109
-90.5477
507.381
-416.833
-233.177
-57.1263
22.4746
-734.072
413.942
-107.556
-290.56
284.556
6.0044
-196.646
-76.7584
273.405
202.064
27.4271
-229.491
-36.2455
-121.365
-452.045
-608.666
-427.434
202.236
-19.4633
-227.808
-23.1709
248.967
58.1484
-538.46
480.312
-291.919
247.411
-424.298
185.964
-378.027
697.015
-322.815
67.8274
-268.246
200.419
-112.138
302.48
561.706
-161.549
-234.388
-143.791
228.502
867.103
86.6582
-308.515
229.913
46.3447
725.371
-11.2633
190.105
-323.147
-93.2045
363.318
-53.3803
-459.593
-529.133
156.77
372.363
-150.912
-509.162
660.074
-567.328
1012.8
-723.26
115.886
-485.231
-302.478
293.366
90.6594
-914.335
64.445
849.89
-358.868
380.214
-62.7215
-10.7943
362.951
341.732
12.8577
232.205
-197.606
-34.5991
-323.518
102.049
-194.167
-18.5017
243.344
371.775
-77.6631
620.755
-108.65
300.409
75.1894
556.067
-103.153
519.746
-103.613
259.609
-40.2724
-219.336
400.231
-477.626
-321.118
798.743
530.655
-263.84
-302.637
-556.844
80.4713
476.373
318.833
-71.9423
-711.297
677.389
33.9081
527.092
-75.088
-28.7367
634.975
-606.238
-326.323
264.568
290.84
52.1375
438.706
107.337
-387.484
220.777
-36.5373
318.855
-6.98332
-437.906
-129.215
-31.5594
592.438
321.188
-315.458
-5.73026
-523.604
49.0012
-392.698
-333.476
298.589
53.0968
328.085
-303.117
297.067
-32.4987
-144.281
-255.093
-245.218
6.31458
238.903
-401.498
-112.407
-35.9189
547.439
-38.1563
-4.70636
473.117
548.693
-26.364
-170.14
-273.607
334.044
-60.4368
-93.8659
247.096
32.0752
-743.372
-302.331
-214.616
358.861
-391.523
-67.3305
450.92
622.825
221.409
-844.235
-141.739
542.109
-128.167
333.374
-252.879
-80.4958
-109.085
-597.273
-189.446
35.2993
209.753
131.978
-129.73
234.287
-264.193
-269.378
303.795
-34.4172
243.062
314.919
-438.946
700.119
415.515
-264.866
333.205
-68.3397
-248.085
-478.853
-210.579
837.443
18.9588
363.835
-44.9799
-941.095
26.7597
356.007
-79.6146
-745.383
16.1112
-325.804
633.987
206.201
-86.3567
-88.6811
12.3132
294.202
-361.798
4.28264
357.515
-209.174
-124.575
239.021
-110.339
-479.009
-97.6189
500.42
-89.9119
364.825
26.4705
-320.827
-83.3883
-107.055
-518.54
373.974
-117.612
652.785
-630.31
-294.301
374.079
-79.7783
-225.666
38.8677
281.213
22.2645
-443.914
-480.901
-426.277
972.298
-469.847
-502.451
540.557
-79.7091
-531.854
-106.089
-61.4295
18.0017
516.307
-115.289
-16.1553
56.7986
176.042
-242.847
-211.341
41.3699
-69.8025
558.013
-124.393
-403.874
-361.398
309.493
263.158
2.46821
426.215
-61.3902
-51.1681
-148.24
-176.169
-305.659
31.5501
80.0556
-278.548
440.941
-652.222
587.588
-86.272
-501.316
758.785
-726.71
399.117
-40.2553
-274.489
-305.731
40.7371
550.387
-99.4671
-758.277
784.523
214.767
-0.949909
-213.817
-119.086
211.862
464.646
-63.7194
570.538
-125.737
-280.094
280.402
-106.423
-109.279
-199.332
233.215
-33.8833
-96.7527
273.789
301.273
-45.355
-61.5193
250.033
-473.454
-277.799
271.979
-236.107
-35.8722
-384.95
396.503
-11.5532
-17.6421
-98.7825
287.172
310.192
-312.953
2.76075
-256.991
-120.03
-1.70921
158.03
-319.835
420.336
-42.9727
787.099
-744.126
-507.986
353.642
-38.723
36.0159
344.097
13.7655
-357.862
7.17589
382.674
206.863
482.186
38.038
472.901
37.3659
356.473
-47.999
-43.093
245.672
222.617
66.6167
-856.494
866.895
-303.485
282.928
20.5565
-548.835
247.447
2.58593
760.006
-563.356
-196.65
259.502
-182.188
-77.3135
433.371
227.748
31.0788
492.484
-197.691
617.272
-419.58
73.4329
-51.5245
846.056
-794.532
-395.503
310.647
476.215
198.878
232.881
2.20377
225.531
-176.256
-490.327
666.583
41.5389
207.605
63.9099
-557.29
571.236
-508.644
794.55
-272.525
-522.025
-306.093
-177.994
34.5305
271.273
0.805065
-227.343
-260.165
-341.623
-485.545
2.69133
184.892
-187.584
292.219
264.459
185.159
-792.437
768.488
23.9487
-1.55121
408.279
-456.832
48.5531
290.045
48.8119
6.52318
757.361
-763.885
99.3923
234.652
26.731
94.5562
-291.136
304.162
-13.0259
-893.654
-49.5264
194.104
-128.119
-490.838
618.957
-291.97
818.199
-138.54
-407.678
-115.925
-560.576
134.413
359.681
31.3502
-253.336
-26.7579
200.157
-143.358
15.2324
855.081
48.4225
-14.4255
301.679
472.444
-356.573
-115.871
-626.261
258.974
367.288
134.449
175.55
373.629
-347.847
239.545
146.985
291.319
229.728
234.959
9.67788
69.7663
-483.796
414.03
808.553
-246.408
-562.145
188.363
202.813
-391.176
324.493
401.834
255.317
3.81393
-626.345
-306.025
250.89
-889.703
367.563
51.5869
-439.257
78.6837
-636.201
-97.8712
245.01
-357.727
369.921
556.086
-568.237
645.112
-76.8745
-10.573
371.15
413.151
-312.205
-41.9757
174.404
-132.428
-303.19
294.443
-17.4213
648.672
-346.066
-22.6701
376.261
-353.591
67.9867
-181.182
229.455
-48.2725
-252.935
233.325
19.6108
282.112
512.438
164.289
-402.062
412.288
-1081.8
1088.33
108.629
-10.7334
448.116
180.783
-58.6524
415.657
356.739
214.199
21.236
252.49
364.278
-25.9335
-338.345
-649.611
648.833
0.777712
229.121
194.95
-10.0579
501.728
-431.962
-210.682
766.768
272.236
82.6599
240.677
-360.722
-177.394
26.9519
245.027
743.832
-149.61
-594.223
-848.326
914.965
314.078
357.318
211.855
-215.633
554.153
-992.378
425.443
329.257
293.326
-37.4441
473.302
291.264
59.5965
-416.875
357.279
-232.653
318.561
-13.3254
4.39577
-824.317
694.159
808.862
-192.379
333.524
249.617
94.6832
339.582
-20.1475
-319.434
269.162
274.609
300.334
-187.602
87.4609
-272.374
281.917
-9.54363
420.784
-525.85
-252.339
-2.45587
216.655
434.337
-572.916
-275.404
22.0674
457.95
-115.964
-249.546
365.51
-335.256
-193.877
634.546
106.228
426.354
-943.653
517.299
-459.676
417.883
41.7922
-2.99888
252.378
-249.379
348.874
-280.887
259.879
-236.984
-22.8952
277.29
15.4762
-196.658
-850.174
63.1193
332.134
-395.253
-32.6921
723.662
-690.97
322.736
-295.581
-27.1549
-445.659
450.892
277.647
-242.272
-400
978.681
-578.681
282.703
-13.8979
197.749
535.949
464.051
-202.539
206.544
12.981
-219.525
-27.9217
398.237
-593.592
33.6137
559.978
201.161
270.285
-340.469
-13.807
-371.143
-915.376
863.851
-497.549
1033.5
336.357
-59.1729
238.313
-1.87315
-236.44
488.868
-434.908
67.0005
-719.7
-459.47
-0.205576
-256.249
317.927
-469.469
-499.109
298.787
-18.942
-279.845
-960
443.157
-797.922
155.999
32.1856
-188.185
29.7715
599.067
647.992
-633.851
-289.097
820.131
-95.4117
223.287
391.027
-530.607
139.581
-134.372
358.59
-224.218
-704.077
750.422
-385.907
244.167
-223.602
232.789
-9.18689
-275.639
701.993
313.648
609.094
27.7062
-785.983
-231.826
262.655
-351.278
-57.7039
-229.095
240.96
-897.805
981.78
175.794
39.302
-215.096
263.236
-273.394
-84.1901
24.3007
400.628
209.024
-609.652
502.77
-902.77
489.091
-65.981
-221.649
-2.2861
223.935
-114.112
-191.546
-264.096
54.0309
-166.743
-135.527
302.588
291.928
-264.976
-117.674
-316.134
433.808
280.017
288.653
-17.7077
-293.23
310.937
-690.833
16.6218
857.369
-893.654
942.447
-974.87
959.922
963.685
-963.685
-848.326
-1019.66
241.977
-210.627
-242.887
-216.157
-186.381
-1.34747
737.12
-955.915
218.795
-866.895
10.1446
-280.387
190.666
-34.6669
-763.446
791.153
228.068
-6.94672
-221.121
-259.704
273.083
-11.9825
-249.983
261.966
248.966
-14.3169
-234.649
201.696
-228.83
-23.772
-253.69
277.462
-188.025
200.898
-12.8735
249.915
281.079
-347.076
406.672
103.574
-180.543
76.9691
-369.459
-583.682
-194.299
207.702
-13.4032
-419.734
-84.2014
503.935
193.9
-174.74
40.2043
201.923
-26.1288
-349.399
241.555
464.034
-94.1135
199.095
462.307
-54.0285
325.813
-399.454
73.6405
18.5519
-636.914
666.686
263.195
-460.886
-783.708
730.279
53.4293
480.79
497.891
45.7036
418.33
-240.313
265.608
-73.1108
-710.597
249.336
-347.415
718.842
-904.94
320.997
-724.725
403.728
126.393
264.564
-206.277
-58.2875
-54.2653
-387.194
-868.171
592.532
-1.73312
257.083
3.238
-312.685
309.447
15.8704
-52.0792
235.467
282.239
-37.2119
185.766
-58.4062
-127.36
738.682
20.1031
272.986
301.409
6.59945
178.968
-230.01
51.0412
252.251
-299.797
296.341
-303.241
-203.318
217.702
-14.3842
74.7578
-494.491
255.14
165.196
-87.8438
824.963
-594.673
409.88
550.499
-645.24
234.078
-342.182
313.507
-447.879
204.369
-319.627
218.273
-190.846
-337.128
232.131
-189.347
-7.22996
196.577
232.56
-340.147
368.761
-266.549
-102.212
-6.16193
486.474
-442.483
-560.377
1002.86
-738.709
652.451
-50.6623
-320.731
371.393
21.3811
58.9629
-312.254
308.007
-267.697
-7.70643
204.669
62.8801
-267.549
-189.322
-233.624
-309.715
223.764
-209.239
-14.5247
-312.685
-413.577
413.577
185.896
-657.805
186.489
168.101
309.447
727.465
-235.08
-41.87
-645.636
687.506
526.346
-88.7166
235.314
-364.42
315.467
396.974
242.834
4.38387
232.773
-172.57
-60.2034
-31.4689
-686.84
686.84
-177.435
-387.09
-98.3367
-138.663
207.152
20.2897
-157.449
228.359
-422.944
478.744
-179.838
-198.188
704.75
-489.566
-215.184
-136.027
-112.082
527.316
-146.975
-84.5518
-40.5328
-490.739
531.272
-500.574
-287.188
511.953
-19.4691
-17.8672
-733.281
557.024
-457.987
-65.7803
767.809
19.2892
230.916
-112.971
773.712
-660.741
98.4332
828.131
683.178
830.805
147.231
-219.058
-386.226
-73.2441
-233.519
250.247
-226.204
49.5001
-199.462
-897.832
41.4152
856.417
28.4763
402.89
813.364
-261.294
246.278
15.0163
1066.47
-542.414
-524.059
-169.042
3.19408
476.083
203.203
-37.0059
290.495
254.591
428.329
-772.056
956.326
-184.27
-369.537
8.13904
231.324
17.4666
666.042
-87.5317
-215.953
-198.149
-228.128
218.266
92.3849
635.08
689.88
-731.75
91.3674
-795.445
22.7893
654.6
752.331
-849.652
97.3211
-627.513
535.76
91.7526
627.335
-563.601
-63.7333
-446.461
521.219
57.8847
-115.44
-113.74
229.18
155.214
305.811
-585.193
410.034
192.205
-192.205
-198.964
218.881
-879.223
436.74
-668.606
540.487
-556.844
856.494
-944.338
23.7119
-238.102
204.088
-197.662
-211.889
-251.354
20.3271
356.918
35.0464
341.284
-351.089
-365.164
39.3544
402.849
-666.69
-55.339
-726.766
782.105
207.881
-284.64
55.2672
142.38
-254.799
-623.504
655.275
-179.539
-82.3795
8.2754
550.486
128.638
-308.385
-25.0912
-455.138
957.908
864.23
-864.23
332.872
43.3885
9.88334
463.233
-761.472
17.3457
651.253
15.4323
80.4612
417.656
-498.117
214.369
302.363
-4.01834
9.1338
673.244
17.4249
-829.319
639.874
195.511
303.19
-498.701
-810.24
537.715
210.755
-412.856
19.1376
-649.448
-194.043
-53.7399
247.783
-115.026
223.54
-108.514
15.3563
44.6462
355.739
40.6748
-200.61
17.4869
-249.619
511.644
659.867
63.7949
12.4864
134.04
-117.291
-177.864
196.263
387.404
-495.949
-707.852
-64.2038
-196.909
-466.923
-476.73
-274.126
-360.873
624.694
-515.028
6.69973
798.549
-805.249
318.564
50.1976
392.297
-59.425
620.872
-56.296
-564.576
313.933
-19.4986
-573.787
-101.638
675.425
-2.26384
-237.095
-585.813
413.078
-189.267
-38.4579
227.725
243.683
611.335
66.3075
-214.032
-114.776
24.4883
203.086
-546.138
638.523
194.076
3.67227
-199.646
395.952
-196.306
296.69
-855.881