/*--------------------------------*- C++ -*----------------------------------*\
  =========                 |
  \\      /  F ield         | OpenFOAM: The Open Source CFD Toolbox
   \\    /   O peration     | Website:  https://openfoam.org
    \\  /    A nd           | Version:  7
     \\/     M anipulation  |
\*---------------------------------------------------------------------------*/
FoamFile
{
    version     2.0;
    format      ascii;
    class       volVectorField;
    location    "37.5";
    object      U;
}
// * * * * * * * * * * * * * * * * * * * * * * * * * * * * * * * * * * * * * //

dimensions      [0 1 -1 0 0 0 0];

internalField   nonuniform List<vector> 
20933
(
(0.997768 -0.000220475 1.92461e-23)
(0.990755 -0.000719331 -1.27288e-22)
(1.03097 -0.00419309 5.52851e-24)
(1.00027 -5.79153e-05 -2.22165e-24)
(1.00061 -0.0103973 6.32898e-23)
(1.00019 -0.0110487 -6.22081e-23)
(1.05906 -0.20024 -8.66285e-22)
(1.11356 0.0792811 -1.1947e-20)
(1.00901 -0.0995301 -2.04366e-21)
(1.11968 0.0804156 8.58261e-21)
(1.07137 -0.178153 -2.59122e-21)
(1.22338 0.138207 -3.01828e-22)
(0.982921 -0.0637539 -2.88169e-22)
(0.997593 -0.000263829 -1.66715e-23)
(0.995183 -0.00357213 1.55118e-23)
(1.00027 -7.05466e-05 -1.96715e-24)
(1.30493 -0.00593878 -1.14184e-21)
(1.13006 0.00227516 -6.05989e-21)
(1.01006 -0.152302 -1.3901e-21)
(0.992871 -0.000342396 1.12474e-22)
(1.0249 -0.114238 2.78372e-21)
(1.21912 0.137645 -5.90379e-22)
(1.12224 0.0872506 -6.43883e-21)
(1.17674 -0.21221 -1.80229e-21)
(1.02878 -0.0019507 3.27749e-24)
(0.989993 0.0938263 -2.05461e-20)
(1.01052 -0.00310782 2.84239e-23)
(0.993407 -0.0688809 9.77154e-22)
(1.23187 -0.187866 -1.7342e-21)
(1.01355 -0.15373 4.94347e-21)
(0.998506 -0.00238857 -4.219e-25)
(0.946063 0.0147244 3.19443e-20)
(1.15764 0.132841 4.99896e-21)
(0.99033 -0.0392368 1.01353e-22)
(1.00001 -0.00181723 6.22868e-24)
(0.998563 -0.00259025 -8.4403e-25)
(1.10503 0.100041 -1.31295e-20)
(0.999944 -3.99354e-06 -3.76359e-24)
(1.01739 -0.0229091 1.00322e-22)
(1.14196 0.004776 -1.99328e-21)
(1.04858 -0.00957442 3.23468e-23)
(1.1208 0.161605 9.1806e-21)
(1.03632 0.0492785 -5.77843e-21)
(1.00936 -0.0036032 -2.36687e-23)
(0.989817 0.0900807 8.14839e-21)
(0.979497 -0.00151682 -8.92034e-23)
(1.10869 0.0121683 -1.82083e-20)
(1.27605 0.0758665 -5.84567e-22)
(0.999626 -0.000100697 -3.40295e-24)
(0.967765 -0.055586 1.10906e-22)
(0.999895 -0.00193198 -1.52189e-23)
(1.08934 -0.0100762 8.51245e-22)
(1.22963 -0.115052 5.19183e-21)
(1.00029 -0.00438536 -2.30068e-23)
(1.27085 -0.110983 -1.2789e-21)
(0.944184 -0.0196547 -3.45635e-23)
(0.974208 -0.0363386 3.49932e-23)
(0.998332 -0.0031324 -2.2081e-25)
(1.01221 -0.0571029 -1.28842e-21)
(1.30066 -0.00176955 9.36902e-22)
(0.973332 0.031194 1.7257e-20)
(0.96952 -0.00437936 -1.86575e-23)
(0.98855 -0.00334789 8.53354e-25)
(1.13452 0.0797746 -5.42977e-22)
(0.999485 -7.59948e-05 2.19934e-23)
(0.994648 -0.00914804 3.37299e-24)
(0.993728 0.0648428 5.24284e-22)
(0.994016 -0.00954137 2.80416e-23)
(1.14721 -0.0832493 -1.17861e-21)
(0.996445 0.0956094 7.6747e-21)
(1.04902 -0.049951 -5.04244e-22)
(1.31334 -0.0383184 -2.07014e-21)
(0.99562 -0.00359801 -6.76928e-24)
(0.980583 -0.0460545 8.01717e-22)
(0.999767 0.00827206 -7.68214e-21)
(1.09429 -0.098701 1.34137e-21)
(0.996965 0.0893386 3.5493e-21)
(0.960663 -0.0051004 2.06244e-23)
(1.13957 0.00324606 1.28288e-21)
(1.00288 0.0330166 1.11833e-20)
(0.995673 -0.00956633 9.88564e-23)
(1.00244 -0.00523092 -2.65534e-23)
(1.21203 -0.194053 1.38939e-21)
(1.01001 -0.0961878 1.70337e-21)
(0.972942 -0.00345589 2.246e-23)
(1.03373 0.0464689 2.78376e-20)
(0.986301 -0.0592845 -5.15743e-22)
(0.895898 0.0533213 3.02154e-21)
(1.13032 0.0746478 -5.15424e-21)
(0.974327 0.0943934 1.30992e-20)
(1.1239 0.0307771 -6.89769e-21)
(1.00035 -8.56522e-05 2.11103e-24)
(1.00003 -0.000357474 7.16836e-24)
(0.955822 0.00461736 -8.9232e-21)
(1.28161 0.0701324 2.94901e-22)
(0.988879 -0.00354648 1.30679e-23)
(0.964436 0.00297253 1.36805e-20)
(0.999237 -0.0052104 1.62062e-23)
(1.0759 -0.171391 -1.14596e-21)
(1.0783 0.0171328 -7.27551e-21)
(0.970727 0.0968554 -3.88025e-20)
(0.972892 -0.011256 1.19708e-23)
(0.961401 0.088119 -4.24543e-20)
(1.21258 -0.106169 5.59444e-21)
(1.11813 -0.00332556 -3.00777e-21)
(1.12485 -0.0926913 1.36274e-21)
(1.02332 0.107492 1.43586e-20)
(1.19539 -0.0883704 1.61505e-21)
(0.990576 -0.00041283 2.84371e-22)
(1.04167 0.12281 3.21708e-21)
(1.24032 -0.189842 -5.8631e-21)
(1.05261 -0.200384 -1.9388e-21)
(0.973453 -0.0280677 2.42487e-22)
(1.04006 -0.0258183 1.49983e-22)
(1.09577 -0.0908013 5.01038e-22)
(1.00006 -0.000131411 -2.09896e-24)
(1.0532 0.0797384 1.35783e-20)
(0.996338 -0.00895499 -3.912e-23)
(1.20607 -0.120721 1.20123e-21)
(1.00247 0.0239414 -2.63464e-20)
(1.00034 -6.41922e-05 4.04194e-25)
(1.04005 -0.118076 1.86007e-21)
(1.1602 0.0255168 -2.68506e-21)
(1.01354 -0.0655435 -1.78951e-21)
(0.990195 -0.0371566 -7.42975e-23)
(1.13123 0.0046327 3.09373e-21)
(1.18988 0.145829 -1.09643e-20)
(0.993037 -0.0662213 7.82895e-22)
(0.939442 0.017531 -9.32507e-21)
(1.04851 0.0821097 7.29052e-21)
(0.988624 -0.07684 -7.98275e-22)
(0.967329 -0.0533321 -3.81473e-22)
(1.0487 -0.00496084 5.04046e-23)
(1.01635 -0.0210929 -6.99564e-23)
(1.01805 0.10073 -1.95619e-20)
(1.11426 -0.00620274 -7.02255e-22)
(1.25324 0.0912032 -1.5232e-21)
(1.02894 -0.114678 -1.16585e-21)
(0.978107 -0.0116057 1.4416e-22)
(0.99231 -0.102732 3.64671e-21)
(1.03554 -0.122227 3.05441e-22)
(0.978669 -0.0476657 -7.93864e-22)
(1.3147 -0.0504802 -1.97738e-21)
(0.957369 0.0963869 -1.34298e-20)
(1.23229 0.00295299 4.49156e-22)
(1.01687 0.103697 1.7702e-20)
(1.16277 0.162411 -1.27859e-21)
(0.96597 -0.0117903 -5.61916e-23)
(1.19773 0.136321 -7.65856e-21)
(1.01191 -0.00415458 -6.00926e-23)
(0.966214 -0.01068 1.00958e-22)
(0.998257 0.0938583 8.90091e-22)
(1.00005 -0.000312015 -4.60496e-24)
(1.00762 -0.0888866 6.39939e-22)
(1.00238 -0.00470155 4.67261e-23)
(1.15886 0.165806 6.86785e-21)
(1.02928 0.0484273 -2.96145e-21)
(1.171 -0.20913 8.45243e-21)
(0.938489 -0.0232716 1.15111e-22)
(0.98188 -0.0653919 6.01607e-22)
(1.27789 -0.119797 1.83893e-21)
(1.06374 -0.19274 1.34067e-21)
(0.998287 -0.00288008 -1.64326e-24)
(1.22898 0.00846598 -9.23737e-22)
(1.13352 -0.00265914 -5.2319e-22)
(0.897913 0.0557201 7.2081e-21)
(0.974048 -0.0114846 6.32887e-23)
(1.20484 -0.203442 5.35631e-22)
(1.08904 -0.101436 -1.54206e-21)
(1.106 0.0958109 -7.75513e-21)
(1.25794 0.0910045 5.1793e-22)
(0.985574 0.0714906 8.03319e-21)
(1.06472 0.144144 2.16611e-20)
(0.986992 -0.0340007 1.51896e-23)
(0.921352 0.0142271 -1.07223e-20)
(1.16262 0.134154 5.9149e-21)
(0.996875 -0.000602655 -2.10071e-23)
(0.991806 0.00622608 -2.02586e-20)
(1.10293 -0.0882003 -7.94738e-23)
(1.03397 0.127392 6.21914e-21)
(1.0117 0.109874 -8.97579e-21)
(0.999914 -2.8001e-06 4.61334e-24)
(0.956884 0.0662491 5.67166e-22)
(1.06261 0.125438 1.85533e-20)
(0.992295 -0.000577268 -6.33148e-24)
(0.940403 -0.0159734 4.64541e-22)
(1.04834 -0.0465844 3.79812e-22)
(1.0852 0.0132631 -1.87267e-21)
(1.20643 -0.113293 -1.97094e-21)
(0.927304 0.0480202 9.51585e-21)
(1.18791 0.14155 -3.80793e-21)
(1.27621 -0.0277643 -5.63018e-22)
(1.0733 0.0128811 1.45727e-20)
(1.14497 -0.0759786 -3.29838e-22)
(0.938577 -0.024538 3.21722e-22)
(1.22483 0.106142 -4.25017e-21)
(0.957568 0.0700144 -6.29735e-22)
(1.27788 0.034921 5.94034e-23)
(0.994129 -0.000221811 -8.92455e-24)
(0.923591 0.0472584 -9.3057e-21)
(1.24792 0.0636382 -3.68229e-21)
(1.28206 -0.0812699 1.65836e-21)
(1.22701 -0.107614 -4.7177e-21)
(0.933185 0.0559874 -1.14777e-20)
(0.949619 0.0602015 2.68167e-20)
(0.958097 -0.0284545 -1.75017e-22)
(1.00028 -0.0483306 -9.60042e-23)
(1.08922 -0.00596337 -1.1295e-22)
(0.943627 -0.0214568 -2.90756e-22)
(0.998919 -0.000101985 3.85315e-23)
(0.995249 0.066632 -3.81908e-21)
(0.988772 0.0220157 -7.29819e-21)
(0.963947 -0.0153534 1.92472e-22)
(0.946933 -0.0400566 2.78446e-22)
(1.03616 0.123826 9.54491e-21)
(0.99922 0.0151708 1.16369e-20)
(0.99895 -5.171e-05 -1.10333e-22)
(1.00138 0.0179737 -1.78777e-20)
(1.1997 -0.0817879 7.36e-22)
(1.01758 -0.0185449 2.07437e-22)
(1.00632 -0.0710196 1.06049e-22)
(1.0332 0.0756614 -1.4879e-21)
(0.947027 0.106545 1.25628e-20)
(1.12046 0.02769 9.11965e-21)
(1.04316 0.117782 -1.55773e-20)
(0.97687 -0.0115052 -2.48413e-22)
(1.00286 -0.0476625 -4.68919e-22)
(1.0001 -0.000137747 1.1252e-25)
(0.999284 -3.57054e-05 2.83994e-23)
(1.00046 -0.00866517 1.21964e-22)
(1.15807 0.0222689 1.24636e-21)
(1.16747 -0.129777 -1.14275e-21)
(1.02559 0.104506 -1.82906e-20)
(1.00376 -0.120416 9.49042e-22)
(1.02309 0.0394986 1.0763e-20)
(0.988028 -0.0570838 -8.99429e-23)
(1.11714 -0.0892491 -1.0124e-21)
(0.988183 0.0702151 1.43521e-20)
(0.958334 0.00365374 4.62169e-20)
(1.03441 0.0717791 2.54724e-20)
(0.999715 0.0867649 -2.18743e-20)
(0.945118 -0.0390939 -2.41319e-22)
(1.1144 0.145018 -5.60313e-21)
(1.01464 -0.0633937 1.95889e-21)
(1.1221 -0.00521576 6.38907e-21)
(0.996163 -0.008036 -6.38711e-23)
(1.30714 -0.0921717 -5.32594e-21)
(1.20216 -0.0508547 -7.78098e-23)
(1.09891 -0.0293337 1.24793e-21)
(0.999664 -7.67884e-05 4.10615e-24)
(0.988897 -0.000574034 -3.11955e-22)
(0.942642 0.108549 -1.93175e-20)
(1.18659 0.0552381 1.77061e-20)
(1.0167 -0.0246692 -2.19132e-22)
(0.963849 -0.0605036 -7.98498e-22)
(1.16038 -0.125356 4.15766e-22)
(1.10564 -0.206739 3.59021e-21)
(1.11571 0.160664 -1.17222e-21)
(0.993675 -0.101422 -1.04751e-21)
(0.975526 -0.00185073 1.23649e-22)
(0.996636 -0.0785892 1.17131e-21)
(0.99124 -0.0327892 -1.01046e-22)
(0.999456 -5.63261e-05 -1.42516e-24)
(0.986823 -0.0543674 4.69039e-22)
(1.06867 -0.192121 -6.18382e-22)
(0.956726 0.092329 2.5325e-20)
(1.29257 0.0410156 -3.41746e-22)
(0.97551 -0.0267588 -4.21595e-22)
(1.02048 0.041348 -1.66187e-20)
(0.951039 0.0650305 -3.19261e-21)
(0.987142 -0.0617273 9.4776e-23)
(1.00069 -0.000303606 -1.36966e-23)
(1.0068 -0.0925599 -1.14915e-21)
(0.994259 0.0612012 4.41797e-21)
(1.29156 -0.136956 -3.1051e-21)
(0.975796 0.0287907 -2.60121e-20)
(1.00003 -0.000146452 9.79095e-25)
(0.948835 -0.0444457 5.4465e-22)
(1.05142 0.144096 1.73715e-21)
(0.999431 0.0142849 2.36317e-20)
(1.03893 -0.0873744 -3.55088e-22)
(0.975919 -0.0346419 3.12049e-22)
(0.92885 0.0964386 2.06581e-20)
(1.27309 -0.0653535 4.05146e-22)
(1.26972 -0.032862 5.62031e-22)
(0.965592 0.089651 1.75012e-20)
(0.928409 0.0548951 -1.94475e-21)
(0.985548 -0.0639126 -3.10113e-22)
(1.04958 0.147149 -1.13716e-20)
(1.16759 -0.005217 -2.85938e-21)
(1.00435 0.0348663 -3.05466e-20)
(1.06952 0.0877055 8.2073e-21)
(1.00071 -0.000222417 1.74636e-23)
(1.29851 0.0438704 4.92044e-22)
(1.09871 0.0922484 4.71208e-21)
(0.996841 -0.000513779 -5.89552e-23)
(1.00243 -0.127368 -3.97906e-22)
(1.26368 0.0384332 -3.90916e-22)
(1.18906 -0.197674 -1.52255e-21)
(1.24627 0.0571736 2.17444e-21)
(1.20519 -0.0281796 -3.07647e-22)
(1.0001 -0.000213348 -1.73381e-24)
(0.999396 -0.00364434 4.19601e-23)
(0.9753 0.107615 -3.0947e-20)
(1.00116 -0.015799 -2.42667e-23)
(1.01878 -0.152169 -1.20615e-21)
(0.989852 -0.0831741 1.12208e-22)
(1.21638 0.132421 -3.83545e-21)
(0.971908 -0.00421936 4.24891e-24)
(1.03534 0.130697 1.09905e-20)
(1.2196 0.0235708 2.83816e-21)
(0.993668 -0.0793178 6.74428e-22)
(0.95767 -0.00624604 -4.41312e-23)
(1.11126 0.0917195 8.4692e-22)
(1.21375 0.103427 3.17505e-21)
(1.00006 -0.000217794 -1.52746e-24)
(0.973434 0.0661082 2.58046e-20)
(1.04765 0.0862627 3.65421e-21)
(0.99353 0.0134834 -6.29795e-21)
(1.27276 -0.0998583 -1.79741e-21)
(0.999536 -5.34403e-05 -1.74923e-23)
(0.93048 0.0925642 -1.3579e-21)
(0.996463 -0.0054539 -3.76744e-23)
(0.992059 -0.0603525 2.07196e-22)
(1.22067 0.101423 -1.34829e-21)
(1.27039 0.0320862 -2.38537e-24)
(0.977646 -0.0642537 -6.74109e-22)
(1.27359 -0.0764082 2.42279e-21)
(1.02659 0.0461237 4.30106e-21)
(0.957432 0.00448171 1.67948e-20)
(1.00918 0.0994129 -2.32711e-20)
(1.19088 0.0288898 -4.87656e-21)
(0.911186 0.0192622 2.31438e-21)
(1.00029 -1.13374e-05 -1.42676e-24)
(0.988709 -0.0321925 -1.02887e-22)
(0.999881 0.00789826 3.12254e-20)
(1.23721 -0.156708 6.33159e-22)
(1.09791 0.0879934 -1.11307e-20)
(0.983124 -0.0466601 -3.33005e-22)
(0.992816 0.0879559 2.1844e-20)
(1.20476 0.003068 1.89978e-21)
(1.00003 -0.00399847 2.95885e-23)
(1.19991 -0.00237406 -1.64124e-21)
(1.05342 0.0741634 -1.74972e-20)
(1.19762 -0.173209 -2.88128e-23)
(0.97493 0.00673126 -4.71827e-21)
(1.06937 0.131105 2.57418e-21)
(0.999305 -0.000303412 5.78846e-25)
(1.04232 -0.0233238 6.49095e-23)
(1.14711 0.112129 5.39345e-21)
(1.12803 0.00134472 1.17199e-20)
(0.998432 -8.08219e-05 1.16819e-22)
(1.06567 0.140171 -1.93145e-20)
(1.01495 -0.0561506 -1.6423e-22)
(0.887675 0.0538452 -1.19515e-21)
(1.03064 -0.120696 -2.302e-21)
(0.963928 -0.0137789 6.01569e-23)
(0.989526 -0.000677035 2.16097e-22)
(1.01033 0.103075 2.59242e-20)
(1.06252 0.122244 -2.93817e-20)
(0.976414 -0.00262903 -3.04978e-23)
(1.10919 0.0846609 2.9465e-21)
(0.974152 0.0897825 -7.55304e-21)
(1.00124 -0.0169661 -4.1381e-23)
(1.04999 0.00704923 4.2967e-21)
(1.02478 0.0197421 -1.21059e-20)
(0.898373 0.0295715 1.52961e-20)
(0.996954 -0.00454073 1.0278e-23)
(1.19375 0.111377 -8.19209e-21)
(1.19692 -0.0571637 1.92612e-22)
(0.943042 -0.019139 -1.00825e-22)
(0.99969 -5.42573e-05 -3.61621e-24)
(0.999816 0.00435512 1.88628e-20)
(1.12281 0.165446 5.36517e-21)
(1.27515 0.00788324 1.95716e-21)
(0.984866 0.108012 -7.90772e-21)
(1.18529 0.032299 2.33555e-21)
(0.972123 -0.0357974 2.28181e-22)
(1.11792 0.140088 -4.17812e-21)
(1.13227 -0.00149455 -1.77579e-21)
(1.18006 0.0512195 5.23587e-21)
(0.901684 0.0319074 -4.00457e-20)
(1.03227 -0.105132 8.35605e-22)
(1.22995 0.0925311 1.64617e-21)
(0.991868 0.0185974 -1.65025e-20)
(0.962161 -0.0615562 7.16052e-22)
(1.16202 -0.0175468 2.55624e-22)
(1.08446 -0.170731 2.68616e-21)
(1.14993 0.10709 -2.4039e-21)
(0.995182 -0.000170901 3.6006e-22)
(1.11326 0.0134199 -1.9911e-21)
(1.27525 0.0161644 -6.73966e-22)
(1.23279 0.0868207 3.72864e-21)
(1.00126 -0.00515116 1.00475e-22)
(1.10604 0.00899161 1.93214e-20)
(0.997856 0.00968956 -1.57874e-20)
(1.05564 0.0523266 3.12744e-20)
(1.18854 -0.192463 -6.20918e-21)
(0.992731 -0.0308927 2.25322e-22)
(0.937359 0.051503 -1.33468e-20)
(0.946038 0.0170832 -3.42788e-20)
(0.996769 -0.00752169 -1.28513e-23)
(0.950937 -0.0434122 2.36647e-22)
(1.01746 0.0758089 3.41604e-21)
(1.02508 -0.159323 -9.97012e-22)
(1.11012 -0.0934406 9.55136e-22)
(1.11392 0.155285 1.74724e-20)
(0.991196 -0.000444404 -2.69139e-22)
(0.895321 0.026703 2.61267e-20)
(1.04046 -0.0777864 -1.02768e-22)
(1.18284 0.119698 2.85594e-21)
(0.989036 -0.0107148 9.55386e-24)
(0.996509 0.00988644 -6.7357e-21)
(1.07339 0.127855 -5.35536e-21)
(1.09887 -0.0230094 -1.47391e-21)
(1.12662 -0.0998907 -6.086e-22)
(1.27658 -0.0204086 1.19245e-21)
(1.24513 0.0686575 3.4857e-22)
(0.999405 -0.00567307 1.18556e-24)
(1.01423 0.0627418 -6.28813e-21)
(1.31843 -0.0309666 4.43162e-21)
(1.12409 0.0743875 1.26612e-20)
(0.888977 0.0569188 4.01025e-20)
(1.28235 -0.09324 1.35668e-21)
(1.08366 -0.0874022 -1.68743e-21)
(1.00007 -0.00942214 -1.22737e-22)
(1.27578 0.0832639 1.61334e-21)
(1.28463 0.0290944 -2.72901e-22)
(0.971762 -0.0272712 6.8844e-22)
(1.09535 0.143217 -1.76174e-21)
(1 -0.00146943 -2.40465e-23)
(0.969369 -0.0490207 -1.33434e-22)
(1.01652 -0.0168564 -2.88098e-22)
(1.26435 -0.0610012 1.14705e-22)
(0.98828 -0.0521051 3.87216e-22)
(0.999615 -0.000132897 1.05619e-24)
(0.987165 -0.0681714 1.24421e-21)
(1.23132 0.10509 -2.12866e-21)
(1.19962 -0.182942 -2.32045e-21)
(1.05753 -0.0814223 -1.63449e-22)
(0.956304 -0.0291804 -3.78505e-22)
(1.25596 0.0363928 -1.57492e-21)
(1.19791 -0.0253223 1.23535e-21)
(0.971097 -0.0639211 -3.61111e-22)
(0.950391 -0.0090249 1.17256e-22)
(1.0009 -0.0053796 -1.6191e-23)
(1.15426 -0.0865326 1.30945e-21)
(1.04 -0.170656 -1.65826e-22)
(1.01347 -0.00348353 4.43296e-23)
(1.04265 -0.0831631 1.23151e-21)
(1.20889 0.0991498 -5.08761e-21)
(1.05724 0.0484494 -1.90407e-20)
(1.23286 0.0181165 5.96938e-22)
(0.999285 -0.000251679 1.02166e-23)
(0.921652 0.101865 -3.02511e-20)
(1.01364 -0.00177593 1.44666e-22)
(0.999917 -0.00159047 2.87718e-23)
(1.04569 -0.0114958 9.9262e-23)
(0.955511 -0.0438681 -3.90941e-22)
(1.01451 -0.109882 1.24208e-22)
(0.953138 0.0560238 -1.58018e-20)
(1.02866 -0.0640305 1.06747e-22)
(1.16233 -0.00464856 -1.41849e-21)
(1.03206 -0.147771 2.35589e-21)
(1.02853 -0.150649 -3.02611e-21)
(1.11721 0.150835 -1.21571e-20)
(0.994507 -0.0610336 -3.54478e-22)
(0.992731 -0.0966722 5.50573e-22)
(1.00457 -0.125094 9.43401e-22)
(0.99974 -3.86705e-05 7.89633e-24)
(1.20989 -0.097242 -3.06602e-21)
(0.911765 0.0963292 -2.86561e-21)
(1.10784 -0.199173 9.27931e-22)
(0.952734 -0.056147 -7.99053e-23)
(1.09464 0.137236 -2.27817e-22)
(0.978876 -0.0604208 -7.15396e-23)
(1.06933 0.0825535 -6.82479e-21)
(1.20017 0.139789 -7.60355e-22)
(0.995934 -0.00583445 6.52141e-23)
(0.998778 -0.000148434 -3.1507e-23)
(1.04316 0.0784628 2.15853e-21)
(0.891372 0.0710485 1.30685e-20)
(1.08784 -0.200137 2.33932e-22)
(1.16887 0.154207 1.50684e-21)
(1.24178 0.109081 -5.40343e-21)
(0.959923 -0.049554 -1.82957e-22)
(0.959872 -0.0522024 -4.42186e-22)
(1.01903 0.0791472 -9.33631e-22)
(1.11474 -0.0115054 1.09284e-21)
(1.21085 -0.184865 4.83109e-21)
(1.08831 -0.162396 -2.22854e-21)
(0.980633 -0.00153175 3.10889e-23)
(1.07135 -0.0167424 4.65187e-22)
(0.942221 0.0267539 -5.94438e-21)
(1.15984 0.0122109 -9.76449e-21)
(1.00028 -0.000102188 2.06704e-24)
(0.96014 0.0845075 2.73618e-20)
(1.04367 -0.0738677 -1.2425e-21)
(1.0163 -0.111812 1.68692e-21)
(1.05537 0.142567 -1.02026e-20)
(1.0197 -0.0273638 -2.89612e-22)
(0.988191 -0.0101796 -4.04307e-23)
(0.999303 -0.000459094 3.35539e-24)
(1.18759 -0.0721826 -5.68551e-22)
(0.959275 -0.0218289 -2.38173e-22)
(1.00027 -1.90448e-05 2.43221e-24)
(1.17194 0.156465 -3.70438e-21)
(1.29362 -0.127541 -2.12643e-21)
(1.01207 0.0612596 -1.088e-20)
(0.999393 -8.12949e-05 -5.85943e-24)
(1.00013 -0.00479843 -1.3754e-23)
(0.977549 -0.0620859 -3.60175e-22)
(0.999994 -0.000130107 2.17913e-25)
(1.08973 -0.20626 -1.18779e-21)
(1.23013 -0.176558 -2.27342e-21)
(0.99949 -0.00479248 8.40845e-24)
(1.01148 -0.0874612 -5.04584e-22)
(0.941772 -0.0157677 1.35562e-22)
(1.05465 0.129132 -1.15895e-21)
(0.982749 0.106539 6.41716e-21)
(0.99644 -0.00494553 1.21337e-23)
(1.00347 -0.00125752 2.21748e-23)
(0.999805 -0.118568 -2.37827e-21)
(0.978698 0.0964951 2.0606e-20)
(1.00519 -0.0392079 4.63356e-22)
(0.975321 0.0620293 -7.05679e-22)
(0.978843 -0.0128819 -1.94843e-23)
(0.889252 0.0436248 -1.08806e-20)
(1.0434 0.0158029 -2.34793e-21)
(1.15223 0.0703868 -1.23005e-20)
(0.905785 0.0561683 -1.18899e-20)
(1.31502 -0.0190221 1.3449e-22)
(0.989929 -0.0028453 1.00233e-23)
(1.1884 -0.0569556 -1.37096e-22)
(1.01033 -0.0405427 -4.9309e-23)
(0.986086 0.0962937 5.19331e-21)
(1.01793 0.0687018 1.47633e-20)
(0.969745 -0.00811582 4.57419e-23)
(1.30009 -0.0884471 5.70212e-21)
(1.14562 -0.0249344 -1.79804e-22)
(1.08071 -0.0927619 -1.05733e-21)
(0.996296 -0.000261721 5.68133e-23)
(1.3075 -0.103017 5.26209e-21)
(1.00026 -4.82378e-05 3.37406e-24)
(1.05149 0.125114 6.38574e-21)
(0.941178 -0.0147816 -4.00969e-22)
(0.991244 -0.0766088 -2.26698e-22)
(0.995021 -0.035827 2.45141e-22)
(1.00894 -0.0697463 1.8401e-21)
(1.17949 0.114437 8.69793e-22)
(1.22893 0.0239489 -2.15912e-21)
(0.998677 -4.63162e-05 -1.16067e-22)
(1.03202 -0.0613671 -8.71164e-22)
(0.999877 -0.000169222 1.74783e-25)
(0.891912 0.0403988 8.11105e-21)
(0.947271 0.0241227 1.22063e-20)
(0.995263 -0.000976766 3.06978e-23)
(0.968734 -0.0137379 -1.01106e-22)
(1.04125 -0.0446704 -2.66975e-22)
(1.01988 0.0721485 6.34858e-21)
(0.934826 -0.0247669 -3.62803e-22)
(1.24394 0.113134 -1.18848e-21)
(0.95529 -0.0575443 1.23379e-22)
(1.0044 0.0987392 -4.64132e-22)
(1.15628 0.075312 -1.3851e-21)
(0.957907 -0.0239639 -1.87832e-22)
(0.904483 0.0213165 -1.67527e-20)
(1.06274 -0.00290717 -3.74319e-22)
(1.01372 0.104738 -1.38306e-20)
(0.991144 -0.0158121 6.88402e-24)
(1.04352 -0.181324 4.83896e-21)
(0.980191 0.00403704 -3.95092e-20)
(1.01784 -0.0509998 6.22035e-22)
(0.888447 0.0762282 -5.93411e-21)
(1.02983 0.0841524 8.11094e-22)
(0.906711 0.023909 -3.99605e-21)
(0.990312 -0.00296601 -2.83905e-24)
(0.993218 -0.000495096 -1.22662e-22)
(1.03893 -0.112479 -5.24652e-22)
(1.19993 -0.0424668 -1.2222e-22)
(1.01815 -0.0271515 3.12023e-22)
(1.03697 -0.10135 -1.7887e-22)
(1.00955 0.0924815 1.25325e-21)
(1.00291 0.106853 4.31405e-21)
(1.04532 0.00303605 4.04167e-24)
(0.982117 0.0942797 -1.47322e-20)
(0.895377 0.0823742 3.24894e-21)
(1.15459 0.128114 9.84855e-21)
(0.999269 0.00474522 -2.70455e-20)
(1.05156 0.0408222 -6.04305e-21)
(1.00597 -0.0205434 -3.54444e-22)
(1.03958 0.0805861 -7.13143e-22)
(0.990699 -0.0960695 -4.73839e-22)
(0.957406 -0.0561187 3.23482e-22)
(0.998552 -0.00130278 -4.12378e-25)
(1.07281 -0.0934024 2.51668e-21)
(1.15182 -0.172473 -6.70403e-22)
(1.09456 0.0480722 4.91055e-21)
(1.1016 -0.0108264 1.90307e-21)
(1.00212 0.02788 2.2017e-21)
(1.01152 -0.0596502 1.18721e-21)
(1.14809 -0.014477 1.23076e-21)
(1.0031 0.0215239 -2.55886e-21)
(1.01182 -0.0424991 7.28386e-22)
(1.1228 -0.105276 1.40813e-21)
(0.999907 -0.000197623 7.20158e-26)
(1.00048 -0.000252882 2.86106e-24)
(1.09321 0.0433336 -3.88296e-23)
(0.992582 -0.0825763 -6.5658e-22)
(0.964764 -0.0522639 5.24133e-22)
(1.00054 -0.000241309 -4.32198e-24)
(0.999992 -0.00330663 1.84204e-23)
(1.14496 -0.0297539 -2.95822e-22)
(0.999545 -5.53273e-05 1.02892e-23)
(1.28044 0.0614447 -1.36005e-22)
(0.895658 0.0322666 2.10719e-20)
(1.16302 0.157189 5.77746e-22)
(1.13292 0.0856923 -4.16068e-22)
(0.966376 -0.00784885 -5.20471e-23)
(1.03154 0.111788 5.00392e-21)
(1.26913 0.0883969 -1.06092e-21)
(1.00578 -0.0365009 -2.81015e-23)
(0.968927 -0.0155308 -1.08607e-22)
(0.996961 -0.00418571 -4.65872e-26)
(0.999253 -0.000400585 -2.89958e-24)
(1.00198 -0.00550045 -3.86271e-23)
(0.995812 -0.0381194 2.07082e-22)
(1.06356 -0.178064 2.77866e-21)
(1.11508 0.105636 1.50163e-20)
(1.2295 -0.0389815 -2.85303e-22)
(0.966338 -0.00355155 2.20979e-23)
(0.999888 -0.000134945 3.5036e-25)
(1.00024 0.0612109 1.47157e-20)
(1.2935 -0.00268497 2.29323e-21)
(1.30665 -0.058175 1.3847e-21)
(1.02082 -0.0524104 -6.97775e-22)
(1.24895 0.088183 2.08191e-21)
(1.07076 -0.0971881 -6.78075e-22)
(0.985229 -0.000842453 -1.81693e-23)
(1.00177 0.0162051 1.28398e-20)
(0.981242 0.000732325 -5.1105e-20)
(1.07704 0.15643 -1.31364e-20)
(0.991203 -0.000371369 1.90979e-22)
(1.07378 0.155534 1.02282e-20)
(0.968791 -0.00550005 5.55803e-24)
(0.982354 -0.0563053 -4.61709e-22)
(1.14606 0.149437 -1.12265e-20)
(1.00026 -0.000125249 3.74782e-24)
(0.987429 -0.0361307 -4.91664e-23)
(1.19282 0.116663 2.84355e-21)
(1.14983 0.117048 1.12438e-20)
(0.959005 -0.0261541 -3.60087e-23)
(1.02428 0.0723739 9.72015e-22)
(0.95101 0.109652 -1.30627e-21)
(1.01572 0.0351261 -2.95174e-20)
(0.953198 -0.0450159 6.21517e-22)
(0.951521 -0.00894338 -8.67641e-23)
(1.06163 -0.076804 -3.24894e-22)
(1.1362 -0.00186935 2.9677e-22)
(1.02314 0.0162963 -7.16032e-21)
(0.99514 -0.00138215 7.31543e-24)
(0.976658 0.00968005 -1.48044e-20)
(0.99117 -0.0575293 1.12589e-21)
(1.0497 -0.180358 -3.30655e-21)
(1.18336 -0.0507587 1.06866e-22)
(0.917824 0.103711 4.30005e-20)
(1.11692 0.111854 -1.23961e-20)
(1.01445 0.0689046 -1.5521e-20)
(1.2393 -0.167403 1.13505e-21)
(0.965896 0.00218487 -2.28071e-20)
(0.961345 -0.0215761 2.35501e-22)
(0.984059 -0.0540942 3.36098e-22)
(0.927828 0.0109313 8.00554e-21)
(1.09521 -0.0324041 -3.75752e-22)
(1.0624 -0.164693 -4.72321e-22)
(1.01565 0.0968449 -3.17938e-21)
(1.00277 0.0947663 -9.81119e-21)
(0.971541 -0.0473006 -4.72584e-22)
(1.02882 0.0213875 -1.61841e-20)
(0.979011 0.100681 -2.73506e-21)
(1.00396 0.0878267 1.28112e-20)
(1.04361 0.131916 4.12271e-21)
(1.01138 0.0967373 2.0611e-20)
(1.06481 0.0905198 -1.07071e-20)
(0.986134 -0.0036202 -1.41315e-23)
(0.962316 -0.0236228 3.11149e-22)
(1.00308 -0.00892693 -2.1429e-23)
(1.0212 -0.149025 3.36233e-21)
(0.994172 0.0194536 -3.80923e-21)
(1.02923 -0.157263 1.97317e-21)
(1.21203 0.110412 -2.62051e-22)
(1.17931 0.0654162 -6.80549e-21)
(0.965732 -0.0610752 3.83739e-22)
(1.27387 0.058947 2.84832e-23)
(1.20063 0.13096 -2.63383e-21)
(0.993793 0.00734166 -1.16588e-21)
(1.26539 0.0474061 5.91568e-22)
(0.999531 -0.00399561 -4.74763e-24)
(1.07545 -0.0162175 4.77675e-23)
(0.981688 -0.0609427 2.23034e-22)
(1.28152 -0.0586172 1.14981e-22)
(1.29838 -0.0544491 -2.97503e-21)
(1.03482 -0.166862 6.32848e-22)
(1.04498 0.126621 2.33678e-21)
(0.968051 0.10826 2.18727e-20)
(1.2123 -0.0223922 6.72676e-22)
(0.997682 0.00584673 1.19777e-20)
(0.890876 0.0662655 -1.45879e-20)
(0.998772 -9.12435e-05 2.93071e-23)
(1.00385 -0.00128435 -1.0733e-24)
(0.995951 -0.00647042 -2.87897e-23)
(0.970306 -0.0086252 5.41538e-24)
(1.09455 0.100289 -8.20449e-21)
(0.927498 0.0124426 -1.73687e-20)
(1.16198 0.0163982 8.42814e-21)
(1.03324 0.119845 3.0189e-21)
(0.977643 -0.0279196 -2.30656e-22)
(1.08518 0.144164 1.73136e-20)
(1.08103 0.15257 5.53601e-21)
(1.28735 -0.11874 7.97188e-22)
(0.954638 -0.0128231 1.50646e-22)
(0.936661 -0.0232442 2.39227e-22)
(1.21643 0.114776 6.44682e-22)
(1.01535 -0.0522988 2.53691e-22)
(1.22731 -0.0334276 -1.21495e-22)
(0.962269 -0.048152 9.95352e-23)
(0.939135 -0.0466656 -8.06131e-22)
(1.02273 0.100347 2.26907e-20)
(0.991495 -0.00250513 -2.1779e-23)
(1.0335 -0.0703552 -2.07846e-22)
(1.00463 0.105254 1.06774e-20)
(1.27278 0.0500238 1.33055e-21)
(0.92803 0.0875111 4.87261e-21)
(1.02295 -0.105274 -9.12211e-22)
(1.04852 0.0139879 7.68451e-21)
(1.29032 -0.0625032 3.21133e-21)
(1.00113 -0.0871991 2.74573e-22)
(0.980195 0.00715304 -5.42528e-21)
(0.990662 0.000457843 3.309e-20)
(0.990438 0.0286036 -5.91978e-21)
(0.992107 -0.0405474 -4.58651e-22)
(0.939337 0.0157246 1.88131e-20)
(0.955801 -0.0411682 3.08365e-22)
(0.967449 0.0795994 7.01335e-22)
(1.15016 -0.0694096 2.53564e-22)
(0.985097 0.0507362 -3.3555e-21)
(0.977987 -0.0579663 2.82631e-22)
(1.00003 -0.000269113 -3.1332e-25)
(0.985649 0.0440335 1.11486e-20)
(0.965739 0.0711399 1.30374e-20)
(0.969685 0.0871137 -2.09501e-20)
(0.987508 0.0369403 -1.29699e-20)
(1.08542 0.00688505 -2.64283e-20)
(1.15786 -0.0146412 -4.12385e-23)
(1.08035 0.0875141 -2.05139e-20)
(1.05802 -0.159925 1.22686e-21)
(0.996923 0.0144476 3.9039e-20)
(1.02393 0.0648645 -1.92093e-20)
(1.28762 -0.00861928 -2.74425e-21)
(1.10514 -0.0140387 -2.03172e-21)
(0.986585 -0.0034148 -9.80878e-24)
(1.3195 -0.0124471 -5.75438e-22)
(1.02993 0.103853 -3.81189e-21)
(0.941325 -0.0353595 1.54922e-23)
(0.969331 -0.0046591 2.30805e-23)
(0.993277 0.00392192 -7.75951e-21)
(0.979241 0.0542968 -2.3962e-20)
(0.987422 -0.0663588 -5.13884e-22)
(0.98769 0.0599052 1.7486e-20)
(1.03914 -0.176974 1.13878e-21)
(1.24818 0.0816995 -3.44627e-21)
(0.994496 -0.000276032 1.54828e-22)
(0.972873 0.0580876 -1.34927e-20)
(0.965496 0.0626843 3.43824e-20)
(0.901837 0.0359336 3.25653e-20)
(0.975046 0.103305 2.84647e-20)
(0.997245 -0.000329489 2.18878e-23)
(0.977796 -0.0304328 1.52092e-22)
(0.998364 -0.00133689 4.20266e-24)
(0.996664 -0.0917123 -2.15381e-21)
(0.930668 0.0669526 -6.9431e-21)
(1.14858 0.0952036 -1.6387e-20)
(1.03977 0.114187 -2.26691e-22)
(0.939891 -0.044558 5.02449e-22)
(1.05201 0.0445034 1.89559e-20)
(1.04402 -0.043489 2.59285e-22)
(0.928855 0.0775697 1.00475e-20)
(1.11209 -0.115191 -7.00062e-22)
(0.996347 0.00516946 1.32547e-20)
(0.994649 -0.000275679 8.59549e-23)
(0.940104 0.0634152 -2.31652e-20)
(0.919739 0.0819691 -2.80538e-20)
(0.975586 -0.0318905 -4.10244e-22)
(1.21132 0.0516964 2.89712e-21)
(0.94274 0.0531965 -2.31002e-20)
(0.996605 -0.000512097 -1.15459e-22)
(0.917118 0.0363209 -3.65202e-21)
(1.05885 -0.0863973 2.71876e-22)
(0.996814 -0.000334235 4.4373e-23)
(0.952351 -0.014289 -1.09574e-22)
(1.01372 0.108735 -1.35391e-20)
(1.17641 0.0847868 -9.0846e-21)
(1.0131 -0.124802 1.5004e-21)
(0.990119 0.104741 1.12146e-21)
(0.913717 0.0923128 1.86856e-21)
(1.08058 0.147289 -1.87973e-20)
(1.06728 -0.0126525 -2.84648e-22)
(0.999277 -0.0810123 4.27554e-22)
(1.18382 -0.0655559 3.56865e-22)
(0.979668 0.0615656 1.97461e-20)
(0.92523 0.0367876 -2.10823e-21)
(0.897891 0.0345779 2.10449e-21)
(1.14692 0.0830593 2.53283e-21)
(1.00037 -0.0119882 2.85743e-23)
(0.978449 -0.00170401 -7.1568e-23)
(1.03278 0.107285 -1.35477e-20)
(1.00208 -0.00927986 2.25033e-23)
(0.982893 -0.00542646 7.0473e-25)
(1.00338 -0.0147146 -1.72551e-23)
(0.992043 -0.0352771 -2.24201e-22)
(1.1177 -0.172594 2.45663e-21)
(1.22552 -0.155522 -1.595e-21)
(0.954526 0.0849636 -3.05266e-20)
(1.02447 -0.0580828 2.22136e-23)
(0.99877 -0.0010747 -4.35588e-24)
(1.03111 0.0678961 -3.05028e-22)
(1.17215 0.115525 7.72138e-21)
(1.00199 -0.0148802 -3.31019e-23)
(1.22303 0.0936092 -3.38125e-21)
(1.00206 -0.00153479 3.84291e-24)
(1.16646 0.0655725 8.5699e-22)
(1.01596 0.037066 2.0707e-20)
(0.98537 0.0571365 -3.39104e-20)
(1.1875 -0.169487 1.8175e-21)
(1.19265 0.0516866 -4.3112e-21)
(0.992191 -0.0162408 -3.19111e-23)
(1.15046 -0.111347 2.42834e-22)
(0.994655 -0.00175359 3.76478e-24)
(0.975092 0.0693197 -3.49643e-20)
(0.952951 0.0824385 9.41786e-21)
(1.25959 -0.15457 1.47978e-21)
(1.22009 -0.174815 1.48783e-21)
(1.17776 -0.188173 5.07434e-21)
(1.0425 -0.103523 8.37903e-22)
(0.986326 0.100167 2.35326e-21)
(1.04538 -0.094061 5.48756e-22)
(1.14271 -0.157607 8.51328e-22)
(1.10185 -0.192065 -1.1212e-21)
(1.14092 -0.0981585 -1.1083e-21)
(0.909416 0.0361755 1.77951e-20)
(1.18229 -0.207197 -9.30107e-21)
(1.26846 0.0219325 -8.17778e-24)
(0.986102 0.0164113 6.78963e-21)
(0.995541 -0.000394253 -8.31467e-23)
(1.21705 0.0292813 1.36088e-21)
(1.04792 -0.0842087 -8.58016e-22)
(1.1002 -0.176216 1.93173e-21)
(0.995443 -0.00101808 -7.09195e-24)
(0.999562 -0.00336986 -1.31535e-23)
(0.90735 0.0464284 -3.03234e-20)
(1.06066 0.0470332 1.4425e-20)
(1.25586 -0.164996 5.7255e-21)
(1.31297 0.0163047 -5.78201e-22)
(1.06355 0.0798215 -7.79849e-21)
(0.991452 0.0588833 -2.7348e-21)
(1.02666 0.068725 5.83159e-21)
(1.26393 -0.0832294 -2.94974e-21)
(0.979068 -0.0654604 7.25873e-22)
(0.992709 -0.0550023 -3.0109e-22)
(0.983283 -0.0588608 -8.17796e-23)
(1.03962 0.0701407 -1.93374e-20)
(0.96858 -0.00595111 9.00152e-24)
(1.00527 -0.0824499 6.59037e-22)
(0.999731 -4.14965e-05 -2.63212e-24)
(0.96441 -0.0232275 -5.03184e-22)
(0.997649 -0.000601199 -1.62444e-24)
(1.14414 -0.177139 1.90251e-21)
(1.00778 0.105719 -1.26863e-20)
(1.07045 -0.163295 7.24661e-22)
(0.978052 0.0876688 1.29007e-21)