/*--------------------------------*- C++ -*----------------------------------*\
  =========                 |
  \\      /  F ield         | OpenFOAM: The Open Source CFD Toolbox
   \\    /   O peration     | Website:  https://openfoam.org
    \\  /    A nd           | Version:  7
     \\/     M anipulation  |
\*---------------------------------------------------------------------------*/
FoamFile
{
    version     2.0;
    format      ascii;
    class       surfaceScalarField;
    location    "10";
    object      phi;
}
// * * * * * * * * * * * * * * * * * * * * * * * * * * * * * * * * * * * * * //

dimensions      [0 3 -1 0 0 0 0];

internalField   nonuniform List<scalar> 
44078
(
-594.97
668.752
-73.7814
1067.94
-1075.85
7.91084
-334.586
381.54
-46.9544
224.113
-258.387
34.2731
-498.233
498.233
217.994
-262.145
44.1509
-378.112
369.379
8.73305
29.3269
-566.651
537.325
664.141
-833.776
169.635
-1009.34
1102.3
-92.9615
558.525
-148.547
-409.978
-532.613
535.934
-3.32092
-687.755
582.621
105.134
-859.809
868.868
-9.05895
275.085
55.8321
-330.917
385.164
-10.2524
-374.912
814.478
-666.891
-147.587
-411.932
408.741
3.19146
160.86
314.801
-475.661
289.993
-356.36
66.3671
-593.966
81.6879
512.278
724.669
-60.5285
49.5783
-384.164
136.456
-489.253
352.797
215.859
-94.6214
-121.238
1071.7
-3.75594
659.786
-680.918
21.1319
-291.949
21.2687
270.68
308.768
-33.6836
-442.889
543.833
-100.945
954.59
-247.718
-706.872
-678.221
765.902
-87.6808
247.108
-222.649
-24.4583
480.36
-72.7346
-407.625
108.302
-400.251
264.21
-431.074
166.864
444.53
-594.57
150.039
291.117
-39.9187
-251.198
825.255
-980.123
154.867
1062.93
-237.678
-1018.26
1035.77
-17.5081
400.776
-89.7127
-311.063
704.055
110.423
187.133
-310.463
123.331
1228.48
-777.712
-450.771
-591.114
148.226
537.339
-538.683
1.34401
230.488
645.551
-876.04
225.362
537.203
-762.565
-108.666
553.196
-381.522
174.716
206.806
-11.5132
-225.43
236.943
-670.573
-7.64774
238.392
-20.3983
423.717
-38.5529
-275.15
-62.1094
337.26
524.194
-499.56
-24.6347
-34.3072
-559.659
-464.711
44.3583
420.353
-296.257
-31.8242
328.081
799.494
17.5786
-817.072
-409.151
570.011
-15.3973
-237.086
252.484
-219.277
483.486
-339.673
451.895
-112.222
256.31
218.919
-475.23
495.436
-123.376
-372.06
428.938
-49.186
-379.752
-434.633
-20.5524
455.186
-986.754
-31.5076
1065.82
5.88294
317.781
262.55
-580.331
-244.453
547.564
-303.112
184.598
57.0617
-241.66
-431.24
381.155
50.085
-380.832
384.549
-3.71663
294.732
-153.655
-141.077
-250.534
-59.7747
310.309
-699.286
16.5368
682.75
406.023
-89.1767
-316.846
-252.24
252.24
77.7699
-764.296
686.526
-664.637
69.667
-947.216
848.232
98.9837
-316.691
-61.4213
-39.2388
222.398
-183.16
530.786
-129.664
-401.122
-644.487
-43.2678
652.4
-69.7794
97.2039
81.4525
-178.656
-356.897
94.0761
262.821
-308.081
57.5463
846.682
-621.32
572.948
-599.926
26.9776
222.941
-93.9222
-129.018
-378.201
146.836
231.365
-25.611
254.504
-228.893
-846.749
847.532
-0.783023
-33.1601
-157.728
190.888
275.435
11.953
-287.388
-711.443
12.1569
-264.571
282.348
-17.777
778.728
20.7659
429.37
-637.45
208.08
203.302
-214.816
-761.911
825.099
-63.1881
659.018
-716.255
57.2373
74.6494
577.751
943.837
-846.978
-96.8594
-213.4
240.945
-27.5446
197.197
49.9102
352.035
125.01
-477.045
1009.1
-256.886
-752.212
17.933
563.988
-581.921
-12.5694
-587.54
600.109
540.729
-222.947
115.92
428.912
-544.832
-302.961
406.99
-104.029
76.7324
-814.825
738.092
-699.469
455.016
-12.8341
-198.78
211.614
23.205
-860.095
836.89
-312.526
326.546
-14.0203
-24.3397
280.65
24.0297
-890.931
866.901
-362.157
343.775
18.3812
-89.9295
-322.003
15.2889
-289.809
274.52
704.688
-786.959
82.2704
726.101
-860.286
134.185
-154.027
341.16
173.008
121.724
211.667
-209.66
-2.00693
290.784
-313.631
22.8472
-131.661
561.03
628.04
326.55
160.499
84.591
-245.09
275.473
-314.665
39.1922
205.837
-245.268
39.4307
-32.3208
307.756
-350.534
-11.6224
1.73593
-185.684
183.948
220.976
-59.7556
-161.22
181.124
827.974
-198.074
-739.274
937.348
-101.117
-397.115
522.891
14.4471
230.896
-223.956
-6.93957
267.899
-210.317
-57.5812
8.65239
-220.173
211.52
-395.866
636.366
-240.5
49.2955
510.856
-560.152
984.108
-886.585
-97.5225
790.88
-787.084
-3.79518
-559.078
-251.067
810.145
-145.721
722.075
-576.354
454.111
-443.353
-10.7585
-238.88
1.09939
237.781
12.5668
-753.206
740.639
-175.259
-206.263
-245.684
232.092
13.5918
241.23
-17.1168
33.6181
1020.87
-572.446
-448.419
735.193
-933.267
-398.596
95.6349
13.1065
207.87
16.5188
-778.276
761.758
-90.3734
-856.843
416.672
-451.724
35.0519
-106.736
832.837
53.3781
-736.565
683.187
-229.923
-8.95664
275.473
9.3336
242.878
-252.211
-432.282
432.282
82.4883
679.969
-762.458
-313.401
48.8299
-579.743
597.676
330.935
-301.748
-29.1867
-777.83
-63.2684
841.098
-149.8
449.884
-300.084
450.761
80.0244
429.411
-442.208
12.7969
257.262
-51.4246
-203.295
-337.731
541.026
500.598
-381.079
-119.519
-327.993
18.8753
309.118
785.839
-81.1504
-519.808
-80.5036
600.311
-661.047
661.047
-129.532
503.764
-374.232
95.8191
-326.277
230.457
-920.879
361.801
306.272
-357.348
51.0756
436.603
17.5086
795.243
-469.778
-325.466
924.792
-73.4766
-851.316
75.5649
147.376
-847.39
614.459
232.931
-28.3741
270.377
-242.003
-207.811
222.164
-14.353
-44.4335
-488.179
875.261
-890.254
14.9927
-69.4241
429.345
-12.673
788.745
-793.211
4.46603
244.526
-13.6304
24.85
-238.25
822.125
-963.81
141.685
265.194
-340.762
75.5678
570.56
-570.56
899.939
-93.2302
-806.709
594.178
73.0909
-667.269
59.7818
-329.071
269.289
-203.873
273.677
-69.8031
-475.314
325.514
52.9083
735.837
-392.894
529.35
252.329
-176.764
-684.071
-176.215
484.754
-630.475
453.402
-500.946
47.5441
-902.434
1037.86
-135.428
-579.826
555.551
24.2748
506.346
-581.996
75.6494
129.309
737.079
-866.388
211.241
530.771
-742.012
723.349
505.134
322.309
740.624
323.154
-231.611
-91.5432
-294.244
294.244
370.791
-401.728
30.9367
-27.8253
1093.64
269.204
-322.691
53.4875
530.646
-481.35
-297.429
-562.38
551.53
-565.198
13.6677
-29.201
904.462
256.26
-284.634
-223.956
196.331
27.6242
498.879
-587.608
88.7298
-197.608
959.083
-761.475
588.643
-82.2963
772.021
-383.044
-388.978
338.415
-48.4222
471.988
548.877
-210.354
171.115
-743.843
59.7715
-939.102
36.6677
477.442
46.7525
-679.924
891.165
-699.727
-62.184
186.129
-201.945
15.8156
-74.0012
915.243
-841.242
-38.0549
-817.792
855.847
182.108
-180.372
48.5384
165.833
-214.371
-8.25301
-365.873
374.126
324.995
-309.706
-609.352
213.486
-257.872
456.201
-198.329
908.56
-678.072
303.591
19.5632
286.978
9.62846
-296.606
-562.335
180.178
382.156
460.224
-30.8134
532.53
-735.825
-368.754
-12.0775
646.59
-746.156
99.5651
-195.609
141.708
53.9017
-656.142
638.934
17.2078
224.04
-214.707
72.6459
179.683
-743.591
826.079
-327.942
323.166
4.77543
67.9936
-362.798
294.804
250.01
-207.774
-42.2352
526.191
-328.462
-197.729
9.40217
-346.383
336.981
-497.087
484.517
-73.8822
296.707
-222.825
-661.854
159.553
502.301
-355.831
-22.3707
653.742
6.04387
444.965
-21.2473
-180.937
31.313
149.624
-21.7086
729.259
-707.55
-858.228
987.537
320.06
-151.051
-169.01
677.309
-775.091
97.782
424.748
347.273
706.264
59.7116
-765.976
818.105
81.8343
555.803
-532.798
-23.0053
1093.73
-1012.32
-81.4071
3.6084
-294.362
290.753
290.964
-3.98596
75.634
140.225
214.696
-3.02945
195.952
-198.235
2.28321
141.858
149.903
-291.76
-303.462
283.341
20.1212
-166.479
-295.583
462.061
419.438
-548.97
-318.591
197.027
-191.698
-5.32872
192.889
1011.63
-580.548
-431.079
525.769
-109.095
-416.674
149.82
509.198
78.3467
477.457
18.4086
-695.596
714.106
-18.51
44.3703
-546.643
502.273
-93.2382
-246.065
339.303
-448.343
38.9539
409.389
-140.359
-335.925
476.284
779.992
-1.26409
24.0257
185.318
-378.199
192.881
174.915
-248.798
-920.846
849.591
71.2549
-294.508
305.548
-11.0403
672.834
-86.7085
-586.125
1047.01
-603.804
-443.202
195.312
-190.647
-4.66514
237.339
-118.302
-119.037
-420.931
417.934
2.9971
662.726
-31.1289
-631.597
-695.173
-0.422747
376.059
29.9635
-576.616
455.041
121.575
584.134
-578.048
-6.08625
-855.761
44.4038
811.357
856.374
33.1982
-889.572
-424.387
284.028
-205.984
25.0475
-323.1
534.852
-211.752
-174.355
-49.6007
754.994
-793.049
-140.87
189.408
546.154
-177.563
-368.591
-123.47
-308.812
218.178
-218.874
0.696198
619.559
43.167
683.382
-608.733
22.7846
-301.597
278.813
837.774
-876.486
38.7123
-312.397
10.6493
957.027
-960.102
3.07489
42.577
220.402
-262.979
680.197
-33.6069
570.081
-592.409
22.3278
-829.543
852.748
190.803
-203.637
786.499
212.066
747.018
175.845
178.653
-354.499
-297.116
-6.98036
831.372
-77.7562
-753.616
585.943
-135.236
-450.706
247.886
-73.1703
81.7038
413.732
70.0602
-273.934
473.775
-503.821
30.0456
141.862
-348.184
206.322
137.578
388.613
62.2526
862.54
653.114
-773.211
120.097
-22.492
979.519
-262.074
-32.1428
294.216
-217.043
216.658
0.384956
23.1758
161.422
48.1816
452.416
334.88
-343.133
-368.963
29.2906
-340.52
44.2629
838.336
-58.3445
60.4655
-236.016
175.551
-961.537
22.4352
-925.011
-36.5261
-486.051
57.8803
428.171
-735.424
904.419
-168.995
-221.887
-37.765
259.652
-123.5
-76.8533
200.353
-140.687
-62.5443
203.231
-155.473
235.219
-79.7463
853.464
416.452
-231.134
144.399
-12.1528
-567.673
-879.601
-41.2443
429.829
156.113
195.742
-518.842
200.78
-1107.11
906.328
23.6136
204.193
-227.806
-6.04944
-201.761
418.341
26.6238
89.1195
701.76
290.836
21.8489
-312.685
-475.617
591.537
728.823
72.7775
-801.601
-779.464
-7.4945
802.017
-855.793
53.7766
305.128
-270.017
-35.1108
84.4595
235.601
850.846
-864.936
14.0904
978.825
-862.145
-116.68
939.236
-943.764
4.52842
-402.497
-174.119
-3.39094
-872.102
563.268
308.834
-181.397
161.166
20.2309
-244.841
386.698
139.969
91.3995
-231.368
757.895
258.863
-274.26
431.582
94.1873
783.501
-697.951
-85.5502
-52.4799
-121.78
-77.209
198.989
-306.432
260.733
45.6985
862.678
-838.648
-21.3525
378.999
-357.647
-340.541
-9.99353
571.404
-583.239
11.8355
367.107
-327.228
-39.8788
-828.558
731.234
97.3245
-905.83
831.829
143.358
93.9808
-405.692
276.403
129.29
467.437
-453.656
-13.7808
621.054
-622.633
1.57924
518.037
-44.2622
-334.253
-131.296
465.549
22.063
-284.137
-69.1017
-247.636
316.737
544.289
563.932
-1108.22
-900.864
849.22
51.6436
-0.88398
-404.57
418.345
-13.7756
431.476
-399.49
-31.9856
672.962
-847.775
174.813
711.592
-882.722
171.13
-502.27
-159.584
-447.75
77.8298
369.92
304.03
-6.17987
-297.851
-328.005
187.318
475.475
83.0493
-719.723
-108.835
9.55636
186.395
-300.407
301.309
-0.901549
51.662
-353.622
301.96
489.564
39.9589
-529.523
-233.748
300.776
-67.0279
-896.191
-19.6382
915.829
-170.058
-58.72
228.778
6.16648
-848.292
842.126
804.705
-118.384
-686.32
314.739
142.999
-212.1
-874.872
-21.319
808.679
40.912
-2.92309
546.464
-194.429
-514.496
-11.8869
526.383
-801.99
913.792
-111.802
313.352
-245.359
-400.383
307.145
-30.0024
590.66
63.0826
383.165
-241.303
285.047
510.196
-13.2699
25.3419
341.765
-766.88
67.8124
699.067
456.356
95.1741
-116.005
-49.1064
165.111
-851.803
-23.0693
68.4982
332.278
-193.59
228.563
-34.9728
45.7755
-279.524
-267.745
280.88
-13.135
-18.0075
25.7586
-512.538
486.779
-611.468
-134.688
-21.247
300.897
-279.65
-331.367
456.377
599.384
447.621
-1102.78
430.49
672.292
329.057
0.293831
-329.351
-212.212
-186.188
398.399
-524.354
553.681
-661.249
-19.0161
680.265
99.3215
85.9821
-185.304
-44.253
799.247
839.219
-862.652
23.4338
807.436
-154.323
36.6602
-603.312
-323.88
-22.5035
556.791
57.7513
-614.542
438.269
21.9548
-348.9
391.845
-42.9449
-853.831
-3.74019
857.571
-27.8196
-823.983
298.166
-278.705
-19.461
625.215
-4.16111
578.519
-413.455
-165.064
-215.227
286.246
-71.0189
-85.4704
-283.493
-419.746
-44.9654
895.609
-184.017
-824.498
89.0744
-629.23
17.7624
-538.767
49.271
489.496
820.548
-39.6251
-780.923
-270.841
115.369
1.62466
-356.164
354.539
861.499
-188.537
306.81
-2.77956
636.702
-66.6206
494.223
-4.6586
801.356
-712.236
-1045.14
-57.6421
444.674
22.7623
534.775
38.1731
726.539
-713.973
796.329
-38.6045
-757.724
192.09
-225.25
274.052
-13.3183
-117.888
204.264
-195.611
474.915
15.43
-490.345
575.931
-96.2286
-479.703
-458.793
421.621
37.1727
128.853
672.503
6.38061
-68.4285
-781.79
850.219
73.8898
-673.332
599.442
225.112
-302.713
77.6009
-726.636
658.207
91.7179
712.987
-504.411
1048.7
232.214
-171.749
-276.28
-186.352
235.575
-49.2232
205.751
-262.624
56.8731
-179.332
319.301
-7.92481
-332.616
-51.0615
5.12781
-410.201
405.073
-47.5181
-161.603
-194.757
-28.8993
366.462
-337.563
-870.856
944.463
-73.6065
45.4852
-528.02
482.535
46.0547
-263.097
-755.761
106.07
649.691
347.4
-239.098
819.407
1.14125
-8.93144
217.759
-208.828
439.612
138.907
-119.64
-328.11
816.12
-201.661
-95.2196
-914.121
608.283
-345.733
132.699
50.9365
657.201
-579.431
494.951
-14.5918
341.506
-35.2333
338.752
-421.114
82.362
221.538
-262.62
41.0824
49.4239
247.67
-297.094
335.824
-502.303
-5.08372
761.957
-806.21
537.543
-62.6275
-106.898
738.431
-631.533
-268.837
302.901
-34.0648
-69.2982
294.41
202.599
-189.493
-280.47
11.6332
-1064.79
590.738
474.055
-35.8514
-77.1042
174.308
-308.793
294.331
14.4618
-676.005
692.524
267.832
-272.632
4.79914
-479.521
183.938
-506
-558.793
238.133
-278.052
847.159
-946.59
99.4305
-343.365
19.4859
487.289
-626.48
139.191
-2.63962
811.318
242.944
-274.162
31.2177
-297.341
-574.761
-37.2674
293.031
-25.1985
351.566
-116.889
-234.677
-20.4353
-846.089
866.524
-868.878
466.562
402.316
-55.7584
735.728
-459.128
39.3827
-154.488
-130.839
285.327
879.37
-828.148
-51.2219
391.636
-323.138
797.365
4.65201
106.899
82.912
-189.811
-580.553
1024.4
-443.844
144.294
-192.507
48.2131
-759
-144.976
903.976
132.302
219.264
853.505
-31.38
813.471
-736.738
502.27
-420.566
7.15663
-244.243
59.7223
153.609
-213.331
306.567
239.897
-22.3395
-1098.2
619.197
479.002
8.41431
891.711
-60.5413
-831.169
-430.532
622.464
-191.932
57.1364
756.334
22.1237
-536.619
-590.509
-18.2341
608.743
424.209
145.952
-570.161
-264.756
-522.328
278.582
62.9239
-176.827
-75.4122
-406.011
352.518
53.4931
-781.2
311.422
200.347
-261.346
60.9992
220.138
-255.007
34.8697
429.48
-424.352
730.202
52.8815
-783.084
-202.269
44.5414
824.453
20.6369
-845.09
-364.443
21.8808
342.563
118.639
860.186
-408.492
452.85
411.156
-72.4035
-954.548
99.7258
854.822
789.119
102.592
-29.0176
250.556
50.3067
381.169
903.371
134.491
25.1439
-484.272
28.7727
-827.057
798.285
699.429
-769.445
70.0163
636.339
465.963
769.006
-56.0315
-712.975
193.721
-49.4271
76.1979
339.291
-415.489
-735.257
792.393
276.098
175.797
-250.65
167.941
82.709
-111.22
-426.79
538.01
-31.7666
-213.917
1004.42
-573.929
61.2815
-283.169
200.735
-209.666
-104.417
-153.97
30.7341
820.112
-168.424
504.248
-603.873
759.933
-156.06
688.316
-710.025
-395.443
383.556
-442.881
-179.752
39.3735
348.689
-13.5522
-335.137
-46.2909
808.248
-505.25
-623.37
1128.62
287.557
-238.953
213.342
6.03642
196.563
-232.312
137.691
-885.337
909.003
-23.6659
-275.917
255.159
20.7578
73.3241
710.177
3.36321
765.643
635.31
-15.7508
-15.0192
-511.532
471.572
39.96
933.091
17.1515
-950.243
-315.067
-49.3767
-0.0450049
-237.785
800.437
-70.2345
529.012
-623.084
94.0727
-762.082
-84.667
31.9135
273.214
892.874
10.4971
-490.482
440.619
49.8631
-950.46
-94.6797
45.9424
-396.216
350.274
-201.169
231.104
-29.9352
248.635
-42.8841
-39.5892
1050.29
-313.215
-737.077
579.561
-50.549
56.0934
-262.635
-66.4354
-697.263
784.417
-87.1537
-62.8117
-15.1435
235.281
504.655
-5.77644
92.7876
-870.617
-89.3336
210.926
-121.592
-197.781
214.818
-17.0363
-681.784
570.565
-453.186
478.944
343.133
48.5027
-460.083
424.579
35.5041
557.496
454.13
498.285
-459.843
-38.4413
486.022
-311.186
-174.836
-201.269
47.6132
349.893
-21.152
-328.741
-238.664
52.312
-300.582
276.242
-219.046
-636.715
-691.612
-81.5991
258.963
-58.6159
664.583
196.915
6.99905
225.093
816.737
-84.2042
-732.533
328.541
-142.024
646.924
-504.9
253.713
-291.478
-96.9178
521.127
-750.987
7.3963
-96.3772
-99.2322
500.008
-96.4358
788.531
-692.095
-196.396
222.892
-26.4958
-34.4694
-241.448
829.587
-737.87
220.473
-429.774
-409.796
839.57
864.366
-199.782
-44.71
793.667
-748.957
597.331
-6.67091
17.6578
-608.167
279.653
142.259
-421.912
-403.933
480.131
-23.3273
-316.196
339.523
-616.663
65.377
551.286
-145.932
523.099
-377.167
-481.226
408.815
-482.703
73.8884
104.909
-175.694
70.785
-171.413
347.259
-178.37
-190.385
732.842
-33.4131
102.254
581.128
-611.005
648.801
-37.7959
269.218
-290.465
-810.735
-51.9172
96.9622
-432.887
590.118
460.174
-615.763
172.882
420.321
-850.096
396.071
-681.868
28.6487
653.219
-218.276
258.21
-39.9338
-816.3
886.699
-70.3988
-48.0255
-432.118
480.144
1005.36
-405.63
-599.731
-68.2975
-787.496
4.66015
293.506
-950.459
207.428
743.031
-857.697
-92.7625
-171.653
-9.74391
-777.77
731.479
-134.517
-297.429
431.945
-12.2004
-267.954
280.154
160.256
647.18
241.804
156.992
-398.795
-902.866
154.571
748.296
541.14
-580.903
39.7628
604.532
58.589
-663.121
-44.8412
673.678
-639.892
-33.7862
352.736
-23.6796
-29.9851
229.984
-199.999
608.431
65.2471
13.4246
-792.889
721.534
-777.566
-181.868
241.59
325.893
160.129
143.712
-322.082
202.481
-206.075
3.59467
340.17
-198.81
-141.36
592.169
43.141
-748.227
801.268
-53.0406
-416.534
-97.1647
513.699
-10.6238
-289.783
263.26
53.9218
-317.182
247.54
-98.4829
-149.057
418.237
-466.262
-61.715
-740.275
-410.612
106.503
143.506
519.306
-451.513
-67.7929
-230.526
254.14
-200.401
193.006
7.39481
29.6314
-240.698
211.066
-322.007
378.755
-56.7482
215.024
-14.5854
-200.439
450.456
554.905
-259.836
555.452
-473.764
138.477
-206.044
67.5673
-198.764
-15.7356
214.5
701.266
-96.7337
239.981
-167.335
-357.385
274.351
83.0341
-427.026
-25.1561
452.182
-351.929
448.891
309.361
-323.46
14.0992
-15.8756
30.4684
471.802
462.696
35.5891
43.2202
-470.246
199.772
-3.44091
-336.923
-6.44298
-368.971
297.736
71.2346
341.391
-62.8089
674.566
221.042
-239.782
269.413
-287.455
306.33
108.152
657.639
-765.791
-737.161
-25.406
762.567
23.2188
177.342
16.7747
-338.781
-690.654
621.083
69.5716
121.948
-187.474
168.936
18.5383
430.826
-151.173
-241.85
-180.489
422.339
-164.063
-347.469
219.258
-16.7771
-273.396
118.908
94.0033
-183.337
-1009.53
696.316
-347.39
347.39
851.472
242.256
-35.2203
-509.09
-500.441
209.152
326.782
528.02
42.5392
545.05
-50.827
273.902
-254.06
-19.8414
-629.359
662.202
-32.8426
-50.3088
-532.18
-47.5629
-638.831
725.025
-86.1933
83.9999
-493.15
-352.905
539.386
5.66369
534.195
24.1294
-558.325
748.44
-647.112
7.22005
-108.85
-78.6888
187.539
-398.144
97.5622
310.845
-32.5
-278.345
-147.073
-58.9114
-301.011
288.591
12.4194
-300.897
85.6697
870.131
-195.565
-336.153
46.3443
768.624
-1.81851
-766.806
584.156
-658.944
74.7875
-922.861
830.381
92.4806
-23.0548
-638.194
110.198
296.792
-22.6204
-260.814
283.434
-794.319
30.0225
-202.845
-289.484
266.863
-466.054
511.539
-248.585
269.341
-20.756
-301.463
300.463
0.999657
-812.094
705.196
995.973
-148.814
-172.955
300.7
-258.123
361.44
-182.786
422.238
-314.414
-107.824
286.595
54.7958
816.317
-88.9254
-727.392
184.447
-681.534
-757.614
675.205
82.409
5.79937
-617.16
624.541
-7.38086
62.9093
177.071
-100.63
520.067
-269.588
302.76
-33.172
379.009
-458.137
79.128
-608.589
649.15
-40.5604
585.874
44.0331
-629.907
247.062
-220.144
-26.918
556.748
-24.9866
-531.761
207.515
-98.0781
-109.437
-107.976
-45.1289
153.105
957.173
-947.944
-9.22875
-575.492
-388.318
-46.0017
-757.715
803.717
-897.634
834.366
-592.962
365.106
227.856
605.065
-623.299
-13.2647
674.824
-661.559
44.2628
124.763
-169.025
-70.819
-282.803
-855.983
-66.8785
15.4647
365.69
334.06
-739.69
204.739
-4.96708
-227.472
227.472
399.551
-120.351
-279.2
-911.307
25.9692
-2.92907
-24.6097
-479.183
503.793
-753.768
-80.5858
486.864
-406.278
-252.39
-408.657
431.866
-10.245
-53.5158
257.708
154.747
185.423
-545.561
397.014
-171.094
412.898
338.868
-52.2727
763.04
-709.662
-283.846
-6.6439
270.455
-946.899
-3.56111
5.6135
927.478
532.706
-448.706
-841.618
575.145
266.474
6.71989
258.248
-264.968
350.288
-8.46528
-341.822
-461.641
31.1093
-835.322
749.053
86.2695
-127.475
-187.591
215.757
36.578
-252.335
212.893
125.975
-800.989
17.7765
-584.778
331.157
253.621
42.4432
248.341
361.27
-324.769
-36.501
-390.429
400.858
-10.4282
847.41
-513.35
-454.942
312.918
-321.094
190.748
130.347
423.375
-720.804
568.361
-27.2208
811.242
-807.879
81.4761
126.039
-829.604
813.014
16.5901
-794.895
46.6681
-472.164
-527.848
1042.65
-186.281
931.092
-835.184
-95.9081
-521.12
-463.314
984.434
-48.3693
-255.093
47.7448
225.126
-231.283
6.15683
-21.8969
-56.0641
733.373
469.538
-35.421
-434.117
-355.627
-206.708
23.1054
-73.986
-266.776
-158.695
427.74
-269.044
-927.263
927.263
92.6576
-794.732
469.266
-510.667
69.1283
441.539
-211.306
-194.387
174.602
-167.89
-377.671
-556.302
388.411
606.42
56.7589
190.781
433.204
-927.069
493.865
-31.9678
322.804
-223.994
-262.057
-214.386
423.329
-97.4355
-180.552
-140.543
-65.4805
-835.383
452.441
-518.023
65.5827
17.637
-699.261
780.838
-81.5771
415.729
-420.296
4.56748
245.875
-567.33
529.711
37.6191
79.0257
129.939
-208.965
194.239
-224.224
378.94
-708.783
329.843
110.537
758.331
155.769
243.782
-68.596
-492.161
467.552
292.278
-306.567
14.2895
416.391
-37.3825
353.818
-382.717
-21.8289
-367.502
389.331
-35.6827
-277.949
324.044
10.3792
-334.423
-429.983
271.288
-387.702
39.2338
631.142
-749.526
-409.776
531.659
-312.83
-91.7395
976.643
-866.106
-492.76
-312.293
805.053
293.171
37.3886
290.431
-327.82
-435.674
146.914
-274.389
-51.7058
450.807
-563.797
112.99
47.4202
613.627
-196.201
87.3516
333.299
-290.856
708.742
-329.803
270.494
-176.418
23.8066
364.698
-388.504
-27.944
-294.553
-7.04425
-254.522
250.319
4.20268
1.86669
558.344
-536.22
44.5492
-891.586
113.31
799.973
-2.60792
329.073
-116.18
525.491
328.703
-854.194
598.392
239.944
674.321
-770.756
-752.945
104.88
648.065
282.599
59.9368
-342.536
185.345
-178.073
-7.27183
29.7985
274.602
572.93
-205.278
51.1581
154.119
-156.755
-607
763.755
-338.493
362.587
-24.0935
-266.227
291.47
-25.2435
-148.016
-174.675
-255.123
210.202
44.9208
920.097
-920.097
-87.2296
727.028
-639.798
293.859
-209.4
344.559
-68.1558
-657.999
189.302
27.377
-216.679
36.337
-589.525
553.188
33.3606
-254.334
220.973
908.388
-914.062
5.67452
301.163
-674.576
373.414
355.616
-309.674
51.3653
309.905
-350.743
876.234
556.97
-106.162
-72.5506
-242.115
-399.897
321.011
78.8857
222.021
-345.397
331.544
-500.116
168.572
-255.919
37.6432
-873.3
-73.5992
32.9978
-732.259
328.699
-181.863
796.379
-773.251
-23.1283
431.042
54.1885
-485.231
-685.53
610.64
74.8894
-257.364
213.181
44.1827
320.105
-27.827
-426.082
-254.836
880.282
-836.091
-44.1918
-357.586
658.749
128.153
-544.688
-864.889
11.058
-54.6868
-603.37
658.057
44.0389
-140.008
-110.642
-920.051
392.21
527.841
190.101
2.9051
449.55
-33.8217
543.449
270.513
-264.621
-5.89217
-334.09
-5.92917
340.019
-557.149
448.483
1.04041
-218.759
217.719
230.456
-41.1537
-98.054
363.247
-265.193
-354.674
5.77387
434.465
-9.88614
58.9123
-812.864
753.951
-664.273
664.273
68.8055
184.908
-91.5681
-505.842
597.41
-854.486
938.113
-83.6271
741.134
55.245
-14.1273
-834.554
848.681
323.771
-341.023
17.2526
324.747
13.8359
-338.583
584.572
-636.833
52.261
46.4646
312.121
-358.585
-218.227
-118.178
336.406
194.287
-8.94192
107.231
-710.871
603.64
-760.025
267.264
349.151
-311.763
793.731
59.7733
-77.3291
-433.338
341.49
-390.675
-681.605
102.28
579.326
319.067
-281.084
-37.9828
-530.819
615.556
-84.7364
-81.7932
-362.826
444.619
407.528
-382.186
-619.217
-300.834
612.001
-720.973
108.971
-407.961
-433.657
837.862
-39.7218
-645.808
117.186
468.092
-585.278
563.555
-644.747
81.192
39.0591
-249.376
11.1107
-692.978
-319.845
321.469
-0.58389
570.494
-692.704
122.21
-344.49
-430.601
-0.154153
-685.232
697.997
-12.7648
763.064
-164.672
645.433
-102.792
-542.641
219.846
299.46
288.086
-296.611
8.5256
807.724
-935.87
128.146
-655.337
-97.608
-304.404
34.8161
-331.225
75.246
255.979
-56.0677
640.64
93.1118
-262.715
169.603
357.373
-335.426
-21.9476
-351.598
-233.18
-17.9704
204.1
-30.7979
-171.147
229.189
141.584
-370.773
-271.225
319.149
-47.924
589.692
-681.26
23.0017
287.844
-279.541
-51.6844
-294.876
-298.086
-711.319
540.721
170.598
-111.71
-150.435
-160.118
66.1954
-577.879
536.307
41.5721
576.954
-1098.07
-24.4943
-1017.95
-140.825
369.829
53.4995
-22.3276
-51.3798
-759.514
127.981
853.942
-847.776
617.373
-76.6525
1.85957
589.232
-591.091
-285.264
-163.532
448.796
-49.6355
-207.729
9.03843
193.767
-211.119
17.3522
-1000.47
247.267
448.757
-117.213
19.6402
-627.938
608.298
298.737
-364.863
28.2477
336.615
62.1775
573.505
-635.682
-102.355
772.154
-669.798
-669.526
-195.411
-731.005
37.9207
693.084
-32.6672
573.851
-541.184
925.294
-916.693
-8.6003
565.503
-620.19
-611.184
-23.5799
634.764
-395.256
124.031
269.676
-268.395
-1.28095
801.469
-772.697
-95.9158
730.815
-634.899
458.629
12.943
-433.722
-669.776
604.135
65.6412
399.37
-92.1543
-563.988
-46.8632
-10.8951
-399.306
-32.7266
224.561
-191.834
21.7339
327.417
-359.962
363.948
-3.98679
747.239
-793.241
107.531
152.121
212.597
-224.239
11.6417
684.157
-775.261
91.1035
-328.17
-686.146
-11.1176
795.386
74.7452
290.839
120.316
812.19
-16.8045
-29.7982
-1031.75
171.656
3.9365
21.2218
-567.865
154.163
-109.9
-1079.13
-254.972
256.013
72.4877
221.371
-107.561
-467.109
574.67
-2.43904
-477.458
479.897
838.919
-31.195
570.04
75.3929
-40.8804
-218.95
259.83
746.184
-790.894
-155.251
384.44
-407.677
445.06
-37.3824
-679.31
723.112
-43.8027
290.864
-340.178
13.9012
392.551
-130.025
-262.527
176.965
-511.395
465.982
45.4126
4.41765
-460.703
462.939
-2.23671
613.685
-596.028
37.5659
-165.516
596.558
-293.314
57.4532
440.78
40.9756
607.759
-648.735
-75.082
-147.567
204.642
8.53956
31.9901
-389.852
24.9887
-414.112
6.43444
250.209
-252.177
1.96835
711.23
-682.581
-484.399
83.5666
400.832
-42.2339
626.39
-28.3123
-212.385
914.262
-141.758
-772.504
518.883
537.488
-1056.37
-296.438
-14.025
290.125
4.20576
10.2758
273.065
-692.821
-4.1387
696.959
592.203
-748.958
-214.499
191.527
22.9724
-529.959
-20.5489
-652.783
20.6439
117.833
-137.033
-428.165
-108.532
201.644
18.705
-638.175
619.47
-38.5089
-497.845
536.354
-259.173
305.638
-69.2685
626.059
-729.849
754.268
-24.4186
217.687
-482.443
254.132
-271.591
17.4585
3.88475
-838.965
26.8715
243.527
-461.754
914.58
-924.804
10.2236
637.203
13.2532
-650.456
-51.9737
-540.435
-807.254
840.452
131.43
-208.639
897.671
-78.2644
239.357
-14.2302
-60.4205
-716.004
776.425
-88.4133
-596.819
-22.5528
556.748
-676.575
21.2381
205.742
-235.928
30.1868
-235.192
1.6212
233.571
-558.083
533.507
24.576
-188.152
80.1761
56.291
90.9511
-147.242
-880.256
314.502
19.2765
-333.778
54.9399
637.897
-692.836
-339.584
369.487
-29.9028
-654.872
-21.703
-666.553
774.705
-896.784
127.642
769.142
-144.894
-168.507
-444.72
63.6409
-458.152
-617.702
261.238
-2.37504
-288.563
289.852
-1.289
167.106
-88.0803
-422.111
393.428
28.6834
-954.893
972.044
-304.625
106.533
198.092
112.964
41.1986
523.957
861.707
-882.142
276.656
-41.0551
372.335
-518.267
-789.603
811.488
-21.8846
-348.138
-188.634
536.772
131.233
-171.524
40.2917
425.852
-526.481
750.59
-685.324
-65.2662
-261.031
-35.4071
339.839
-76.5788
314.424
-291.422
330.491
-652.031
-17.7444
5.57762
633.357
-359.348
120.25
20.645
-891.501
548.74
-389.187
608.141
368.502
423.352
8.51413
744.662
-805.083
-39.7242
-19.2641
827.284
70.3868
421.078
-499.776
78.6981
230.075
-182.403
-47.6714
-192.075
220.605
-28.5305
-7.84569
341.523
-333.678
-617.863
658.838
419.452
251.719
-216.209
-35.5106
363.852
515.517
312.715
-333.867
714.681
101.636
79.9051
-603.049
523.143
639.701
-35.5668
32.2947
-930.573
114.045
816.529
203.254
-261.974
-249.994
-793.27
732.269
61.001
5.19805
814.573
-819.772
932.41
-932.41
-377.578
17.6168
602.821
36.8802
-109.113
-30.3285
-190.911
221.239
437.489
27.7373
-465.226
-434.272
20.4105
413.861
187.717
972.171
-453.288
-225.969
38.219
187.75
-627.371
630.741
-3.36956
441.296
-472.428
31.1324
-430.635
-3.63705
44.5484
-768.697
724.149
-636.374
-63.0947
-549.015
518.435
30.5791
-383.7
298.229
29.7021
-243.084
213.382
-164.862
-139.763
-28.3715
228.767
-24.1256
45.2062
309.612
-287.763
-71.4851
791.604
366.045
-51.5437
-769.579
32.4176
-890.023
814.435
75.5882
122.79
285.951
368.215
172.513
-756.28
858.937
328.988
192.079
-521.067
-163.06
594.441
-644.02
49.5786
487.006
54.8648
-541.87
642.631
-347.231
-295.4
-483.729
-116.197
-782.393
680.038
25.934
-687.099
661.165
-711.281
108.5
602.78
-765.895
15.281
39.0289
508.53
-87.4521
-522.773
354.349
559.979
-592.646
-35.3763
-66.1989
227.488
-161.289
55.6894
-694.521
-232.233
-231.012
164.813
-28.8851
277.026
-110.091
-166.935
168.494
-7.02425
-648.651
716.463
-37.1182
205.707
-168.589
869.865
-629.754
12.5938
141.118
192.182
1.0006
397.472
-398.473
-221.714
-201.541
423.255
180.929
763.534
379.272
-355.465
-842.968
7.64628
626.397
-609.86
-1.12567
-814.977
816.103
589.535
16.0386
-605.574
849.627
46.4787
-896.106
308.949
-8.48611
122.51
-407.774
425.695
8.77008
-254.968
334.69
-79.7225
191.366
381.299
-90.4598
610.991
-54.7983
-556.192
-757.363
783.982
-26.6185
12.1383
652.953
-665.092
-646.317
115.497
-6.21493
-442.267
608.397
34.3636
323.01
-29.9272
187.139
-87.8179
-335.786
1.69524
95.9529
742.966
3.19174
-277.002
273.81
-429.783
-497.287
-57.4374
-757.762
815.2
261.38
-40.9784
190.661
-266.772
76.1107
187.001
-94.2402
-220.473
-516.876
-581.323
-792.08
-18.6551
-164.589
-815.752
776.441
39.311
-34.3833
469.563
-435.18
59.7813
821.335
-881.116
195.455
-139.164
775.453
25.8144
-227.985
197.657
20.0336
-305.769
285.736
575.713
-573.854
-649.942
125.534
524.408
-572.548
590.249
-17.7009
30.4235
257.662
-665.241
-441.868
608.536
45.7986
-654.334
-721.938
606.751
-679.206
72.4546
-142.579
-62.6986
449.958
-484.265
-846.791
851.989
107.002
-307.914
-588.87
-642.356
593.248
49.1084
179.469
-74.5598
-43.3561
460.883
181.748
-572.793
60.2546
514.31
-526.964
12.6533
73.2597
-717.653
644.393
266.59
-16.3816
-311.244
165.68
145.564
-574.394
598.523
-134.169
478.465
-344.296
681.404
-86.9631
0.333513
-317.144
316.81
-446.992
-442.748
889.74
-146.959
253.498
-106.539
-102.507
-579.098
-578.048
423.746
154.302
405.314
-40.3306
-364.983
12.2676
129.44
-250.48
354.808
-104.328
-446.654