/*--------------------------------*- C++ -*----------------------------------*\
  =========                 |
  \\      /  F ield         | OpenFOAM: The Open Source CFD Toolbox
   \\    /   O peration     | Website:  https://openfoam.org
    \\  /    A nd           | Version:  7
     \\/     M anipulation  |
\*---------------------------------------------------------------------------*/
FoamFile
{
    version     2.0;
    format      ascii;
    class       surfaceScalarField;
    location    "29";
    object      phi;
}
// * * * * * * * * * * * * * * * * * * * * * * * * * * * * * * * * * * * * * //

dimensions      [0 3 -1 0 0 0 0];

internalField   nonuniform List<scalar> 
11512
(
141.443
-500.781
359.337
-764.758
1.06299
763.695
409.359
-369.501
-39.858
640.581
263.346
-903.927
1510.78
-1069.34
-441.44
1216.29
-1527.13
310.84
-53.6747
470.552
-416.878
168.453
-841.725
673.272
962.091
-1610.8
648.708
-1762.84
1670.37
92.474
-542.944
1759.23
-1140.9
1934.64
-793.749
607.913
180.715
-788.629
-25.0514
-1316.01
1341.06
221.51
-1984.35
1022.06
-382.875
-639.182
-186.468
327.911
485.459
190.103
-675.562
1154.76
-1313.57
158.812
-319.374
374.839
-55.4653
1005.85
-1317.72
311.864
1221.53
799.421
-2020.95
73.5266
-1642.23
1568.7
-479.819
-1165.68
1645.5
476.492
181.41
-657.903
-184.568
-316.212
498.04
1012.74
1649.5
-1807.38
157.88
-90.8947
-1690.43
1781.33
-1558.98
653.17
905.813
-307.88
652.091
-344.21
-193.617
-153.806
347.424
1286.35
-1212.83
355.169
-1407.35
1052.18
-1754.37
1754.37
100.008
1534.01
-1634.02
-1080.35
-478.636
637.666
-691.34
-385.052
941.234
-556.182
1331.94
-1317.3
-14.6389
-1099.85
714.796
625.081
396.975
-401.722
-23.9082
425.63
-454.142
789.093
-334.951
-1618.58
1618.58
1253.59
-1437.89
184.306
-488.708
1710.24
1254.31
-313.076
1660.74
-1161.25
-499.489
65.7696
-385.143
2065.73
-1135.4
-930.331
1815.42
-165.92
455.715
155.48
-611.195
-463.829
973.597
-509.768
-1172.15
1272.16
-568.093
970.377
-402.284
399.746
755.015
661.016
-492.563
-436.244
591.668
-155.424
1190.62
-835.455
2308.19
-1080.67
-1227.53
1163.85
-2009.32
845.465
-1604.21
1579.16
440.621
-1581.52
-759.224
1250.77
-491.541
-670.973
363.092
1661.45
-699.358
-1106.93
-870.894
1977.82
689.005
-378.178
-310.827
689.607
564.703
-258.202
1511.79
105.889
-312.392
206.503
-283.907
760.399
-333.638
565.618
-231.979
-323.784
809.243
-316.562
-145.91
462.472
318.7
90.6589
1461.67
-455.818
-988.104
489.473
498.631
270.405
92.0988
-362.504
948.746
-340.833
-1700.42
647.461
1052.96
18.5723
-858.232
839.66
-280.293
593.304
-313.01
157.283
-1093.7
936.42
1051.82
-1067.29
15.4735
372.567
518.553
-891.12
-244.34
700.055
-1103.57
-482.17
1585.74
-678.82
951.504
-272.684
1355.1
-1445.99
-646.908
285.087
361.822
-470.18
-1011.56
1481.74
-538.028
-794.386
1332.41
576.215
-996.093
419.878
-268.648
-317.831
586.479
401.692
-295.803
-1040.59
576.766
955.282
-797.999
-110.259
944.068
-833.809
-210.01
415.997
-205.987
-630.929
-357.175
-386.464
962.679
1856.39
-1856.39
-475.095
-171.813
-948.812
1559.99
-611.175
497.914
-929.777
431.863
-923.148
355.055
-941.909
-1058.08
-1492.92
343.926
1149
-274.586
915.167
-323.889
620.987
-297.098
-1941.9
999.995
-1142.81
-350.118
556.684
-1505.5
1728.5
-1725.66
-2.83487
200.257
-607.94
407.683
-1462.11
974.216
487.89
281.449
217.077
-498.526
310.073
-643.712
244.209
-420.491
176.282
2015.16
-875.754
-1139.4
-547.314
145.592
616.022
836.681
-1452.7
-182.519
426.728
431.261
876.651
-1307.91
-905.477
391.795
513.681
-1047.4
1447.15
-1068.9
309.672
749.419
-97.3286
563.663
-292.369
-271.294
1013.47
-524.002
593.284
-1403.8
810.512
-1342.16
238.593
-544.823
264.529
-1183.53
908.945
1946.23
-979.233
-966.997
276.805
1579.58
-2095.69
895.908
1199.78
368.939
-30.0251
-338.914
-223.488
483.943
-260.455
-101.304
-384.401
485.705
-461.639
145.077
342.13
-129.285
627.199
422.299
379.258
-801.556
-2038.56
1118.14
920.418
459.856
-528.535
68.6794
224.408
-366.63
142.222
1017.08
998.076
1786.5
-252.495
738.201
-453.114
796.528
-1389.47
592.945
356.524
332.481
1055.79
-1037.21
-493.625
-237.789
731.415
471.682
-133.177
-338.506
797.227
-616.511
556.045
-722.43
166.385
503.324
1157.42
-1239.73
701.7
1039
-1518.82
-3.13345
-1439.43
1442.56
325.833
824.031
-1149.86
623.204
269.723
-892.928
-2269.41
1142.58
1126.83
-1095.61
-1173.8
197.992
358.053
958.486
-632.653
879.538
-899.17
19.6323
-2099.38
992.453
-231.763
-191.154
422.917
-41.7989
1770.29
-834.197
69.4385
-1029
-1066.69
-229.121
453.528
-683.181
208.085
-279.114
-423.48
702.594
1104.03
-1574.21
782.95
-1374.39
591.438
693.991
-430.645
1947.87
-1444.54
-378.278
-1376.09
71.8141
398.738
-532.758
533.821
22.3096
-577.321
555.011
567.391
-285.942
-603.031
279.362
323.669
782.161
-359.862
32.8876
336.051
1188.47
-1191.6
170.221
231.471
393.194
-672.309
619.486
-1005.95
-2026.72
2026.72
-263.069
-444.958
708.027
699.2
405.771
-1104.97
578.622
170.797
408.043
374.117
-2199.75
1328.85
-926.348
-679.273
1605.62
-482.532
-701
-253.081
551.188
-298.107
827.211
-199.308
-627.904
-451.342
651.599
363.757
-687.647
-372.504
-128.704
501.208
-1331.46
-475.917
633.967
-1116.5
-374.137
-1244.44
844.332
1463.86
298.64
-943.13
644.489
965.48
-340.398
1391.34
-798.052
440.385
-270.164
-326.854
-871.502
570.282
301.221
-333.586
-537.916
311.501
-412.804
-213.532
-148.453
361.985
-392.669
1091.87
434.798
-244.695
-392.529
1355.17
-170.636
-1184.54
-472.334
292.24
180.094
221.856
263.569
-485.425
22.41
-744.84
592.106
-1729.01
1136.91
1483
-866.978
-1048.34
-413.764
-1056.44
573.381
483.054
1382.72
-408.502
929.119
-1411.29
-159.084
-197.551
356.635
-469.158
579.874
-1627.28
427.966
903.977
291.536
296.807
-588.343
568.078
1186.29
1102.87
-712.853
-390.018
399.186
-215.108
-184.077
-1419.46
445.469
737.83
-1183.3
1473.26
-544.14
-486.946
932.407
-445.461
426.145
1186.16
-1612.3
47.2851
-726.105
-146.963
417.368
226.283
-419.9
534.995
478.48
-612.401
61.0499
551.351
1024.54
-1307.67
283.132
665.727
-257.684
468.263
-1447.22
978.956
399.876
1687.07
-523.217
908.25
1037.98
-660.403
-1684.52
758.175
563.017
403.224
-966.242
455.046
78.8316
1749.99
-1828.82
1443.74
-379.469
-1064.27
1699.13
-1740.93
-366.828
-529.174
722.003
-192.829
-502.588
180.143
291.54
-372.889
-1225.99
214.429
-764.55
-639.246
-648.392
997.042
-348.65
-654.226
644.43
9.79574
655.127
-923.798
268.671
-767.19
389.658
377.532
-648.233
-690.553
346.267
344.286
-932.292
1400.55
-418.697
887.582
-468.885
-2205.31
5.55766
175.635
-532.212
356.578
142.59
1212.58
-102.2
-580.98
157.387
-593.631
1487.1
-704.149
381.656
-461.399
79.7428
-570.561
570.561
1223.12
395.459
1777.96
-1228.34
589.227
639.11
849.708
-52.481
1291.75
773.979
-540.211
1336.74
292.958
300.346
270.3
-799.474
243.114
-697.257
231.205
-443.514
212.309
-242.721
578.603
-335.882
118.325
-361.046
-591.853
-564.454
1156.31
-374.843
547.678
-172.836
-1192.16
2032.04
-839.886
1289.09
-330.604
-406.34
137.693
-1980.5
814.82
1536.21
-848.345
-687.862
1986.96
-877.434
-1109.53
713.58
575.51
-239.023
470.228
-674.007
1146
-471.991
-769.897
1201.16
551.668
924.591
-1725.16
800.573
-548.492
-79.304
627.796
304.529
259.133
407.545
-92.2905
-315.255
896.903
-83.4048
-813.498
924.333
-568.284
-356.049
1576.19
-472.162
890.698
-1627.26
736.564
1068.48
879.387
746.956
-440.172
-306.784
-1059.05
-258.258
565.056
576.654
-1141.71
-465.494
518.801
-53.3077
573.424
-340.755
-232.669
-984.848
566.151
595.026
887.974
-441.777
1096.9
1416.63
-781.141
-635.491
393.582
-923.238
529.657
-1032.45
401.518
560.201
-1047.15
465.685
-542.66
76.9746
479.66
309.433
-522.031
-48.5307
-794.067
-879.127
1673.19
191.008
208.177
-215.944
413.936
-27.2904
-563.785
591.075
495.605
868.622
-1364.23
-519.723
306.191
985.969
-89.0663
836.162
-1064.64
228.476
403.25
845.967
-1386.18
-453.324
832.581
1978.9
-1285.23
-693.672
270.183
609.355
255.967
795.849
88.4334
-970.258
881.825
1673.73
-1089.04
-584.691
-137.874
1887.86
-1866.06
-160.655
483.59
-621.688
138.097
-1012.72
526.504
486.221
-1730.48
538.319
-955.771
845.512
390.891
200.776
587.273
-288.633
-419.792
709.394
256.086
70.4581
707.734
-778.193
-1124.25
-904.386
2028.63
-540.977
1109.75
-568.769
-477.043
-342.638
110.875
-1655.37
861.298
-858.658
-602.717
1461.38
-332.162
-294.618
626.78
352.848
-648.856
296.008
248.067
-607.929
328.772
197.357
-526.13
356.602
-609.683
620.306
-267.459
312.514
-458.424
677.975
411.509
-189.653
-395.085
-295.467
1221.99
-2.49029
-1219.49
1039.38
-419.893
559.976
410.401
-1782.36
869.817
912.545
489.932
553.188
-1043.12
-535.807
203.645
-263.336
1181.06
-917.729
-1590.88
1212.6
504.527
-1096.38
383.496
-1.84012
429.03
309.973
-739.003
371.889
-616.229
-33.8356
756.821
-722.986
-526.193
795.916
391.575
322.56
527.148
652.762
100.326
-411.78
311.454
1058.95
-645.321
-413.624
494.016
-1664.27
1170.25
-1140.4
1753.22
-612.821
1715.83
-1123.72
-333.136
612.499
-1181.82
1270.25
425.311
-798.383
1606.31
-807.925
-269.656
-202.678
-890.648
1470.57
1813.46
-610.957
-1202.5
-404.595
652.872
-1301.26
-124.828
-53.5695
461.115
-683.462
-354.165
-1236.72
-217.251
465.317
903.468
-557.955
173.554
-1674.63
-71.2217
1745.85
-1071.78
530.808
567.335
-1183.16
615.828
900.92
912.538
630.775
619.991
692.695
239.711
-1139.56
465.557
-396.319
418.629
617.243
-514.757
240.875
-730.238
489.363
701.349
-344.826
-334.346
180.539
-609.206
246.97
362.236
-886.992
-740.271
1087.67
-2145.75
398.747
-682.653
-342.786
-724.504
834.715
581.917
-339.518
315.609
375.866
219.921
643.393
-863.314
525.825
620.173
-544.932
172.428
356.645
-619.714
-1033
-860.598
1893.6
-1799.52
157.291
1106.92
-1370.26
1158.77
-718.542
-440.227
-503.741
1349.71
-1495.5
627.867
867.635
-289.134
-210.63
499.764
1428.4
558.562
354.027
-482.731
-482.223
-569.345
1051.57
-420.39
596.025
1582.5
-1129.69
-452.811
-780.821
335.863
654.874
404.071
-1623.42
416.162
1207.26
-184.255
513.027
797.699
784.803
201.217
-694.073
492.856
206.503
209.494
-292.956
-107.603
400.559
497.21
-3.10877
-494.102
-1639.64
591.302
-1607.17
1674.59
-67.4214
11.9274
-1619.1
1069.6
772.212
-343.181
-814.449
-217.999
-1134.49
-239.893
-310.938
682.827
-1812.5
-632.223
1208.88
215.905
757.692
-1330.74
-678.583
-465.509
619.897
-328.361
-1013.28
1350.76
-1932.87
582.105
646.525
1288.12
487.41
-3.46655
717.33
707.155
-1424.49
-636.147
332.592
303.555
440.851
-99.3871
-341.464
144.682
312.609
152.168
-464.776
-589.184
1152.2
457.769
-638.329
-461.597
-401.36
862.957
-326.213
167.129
-454.071
158.268
-303.952
-708.773
549.81
-108.96
-572.99
966.571
581.471
-270.165
-311.306
455.278
-779.062
-647.201
452.369
-1129.41
-840.088
1184.01
-569.759
447.853
283.562
-460.257
82.0787
1028.33
-317.776
594.665
-276.889
-509.022
1578.62
-683.34
245.09
367.781
-612.872
223.72
492.836
-32.682
-460.154
-259.048
-195.023
1020.77
1108.92
564.805
-879.878
945.664
-65.786
-459.023
169.89
-738.362
314.882
-589.991
324.759
376.59
832.708
-1239.65
406.944
776.636
-810.471
-948.954
-550.359
1499.31
-172.915
469.722
-555.605
263.236
1300.33
783.802
-582.585
1317.04
-683.075
487.149
-670.727
-403.765
-423.193
-377.932
801.125
502.394
-843.227
-464.427
98.4417
365.986
-322.981
572.412
727.826
-329.079
-243.007
-172.494
415.501
-488.137
134.821
353.316
1459.05
81.5981
-1540.64
-752.493
1347.52
-1144.74
-466.057
540.884
-173.103
1151.01
-374.376
1083.5
492.696
697.879
-427.579
-885.036
-522.315
-1328.42
-24.3244
984.983
-960.658
592.949
338.195
-931.143
-340.102
-207.212
-674.382
405.522
1621.19
-187.873
376.096
343.264
-719.36
-1839.76
-2106.68
1519.14
587.541
-2036.56
346.122
370.629
532.475
-903.104
-460.005
1019.98
-402.284
-670.003
1072.29
-2030.53
1391.21
639.324
595.687
-997.971
40.3537
425.332
386.05
191.849
248.536
319.921
966.316
870.67
678.365
-325.004
-353.361
-292.92
619.514
-326.594
572.214
530.658
565.326
514.702
-1080.03
-796.209
-699.293
751.727
399.285
-409.419
705.428
-1193.41
1609.58
426.947
-1096.95
-343.63
540.987
-1380.99
875.376
505.617
-712.617
-350.61
-778.509
354.982
423.527
446.986
718.189
-1165.18
1072.97
-583.036
-415.816
665.676
-249.86
255.358
326.113
-467.906
-431.677
899.582
-231.832
564.958
-958.952
393.994
-458.673
600.598
-1681.26
423.647
670.899
-1094.55
520.084
100.903
113.408
-2212.79
539.726
-91.8726
1444.22
1777.09
-217.552
-1559.54
-438.453
1789.22
-1987.01
1194.48
792.521
400.491
346.465
-39.7571
874.472
-1283.15
718.694
-869.266
-822.23
797.905
297.995
70.9088
-368.904
232.474
187.202
-419.676
1556.3
-838.971
-1530.96
-325.43
501.522
-223.607
-277.915
394.551
365.848
258.082
361.815
-9.64078
1002.04
-992.399
376.809
289.225
-666.034
-734.074
1817.32
-1083.24
-342.008
736.559
-1220.62
-413.399
-914.823
483.146
580.872
-782.895
202.023
760.341
-379.916
-380.425
-432.116
-447.762
449.748
1086.03
1238.4
-671.064
800.264
-344.986
381.76
326.267
-238.803
-222.595
-210.974
610.85
407.445
-846.74
439.295
226.877
349.023
-575.9
-422.332
829.777
754.525
-1147.19
889.462
-56.7535
-487.407
278.022
777.765
-96.0384
1384.16
1890.5
-51.9324
344.172
-316.073
416.399
-1086.59
1076.95
634.891
375.616
384.725
83.429
418.093
261.285
502.41
-372.752
-263.394
-564.903
-89.3226
-362.439
362.186
0.252419
-256.343
-288.48
1010.99
-1540.68
529.686
-187.765
-181.737
-386.052
675.277
-1638.47
1591.01
-963.147
267.662
-671.427
584.315
1224.42
-1808.73
607.395
983.62
316.542
-1122.41
702.617
-284.902
-303.441
1379.86
-1448.58
830.235
618.345
433.248
-636.936
203.688
-385.023
481.786
-96.7636
382.049
115.161
1724.01
456.571
-250.068
557.627
-1704.79
1147.16
-95.365
392.999
342.092
336.273
-448.372
-615.536
1063.91
413.615
-866.939
-640.991
902.793
570.466
-515.205
-251.985
-438.302
-408.438
-307.277
-827.218
1821.12
-1821.12
-103.154
-1593.04
1696.19
293.06
280.364
-917.197
-555.354
1472.55
-408.019
973.345
-600.758
-1038.89
691.252
395.577
-1086.83
472.612
-160.098
573.062
1220.35
-1793.41
-1038.9
2114.22
-1075.31
-375.564
-295.409
-486.992
822.855
-1754.11
1602.86
151.255
1754.11
-1607.89
-146.222
-245.048
521.94
-276.892
-537.277
1620.77
1567.58
-1980.98
1092.77
-292.338
-265.954
558.293
229.061
-572.692
-702.603
293.183
1341.95
636.947
582.112
481.707
-1063.82
273.056
424.823
875.413
500.071
-1375.48
535.868
-1018.09
1574.93
-563.936
-774.095
-359.594
-133.845
493.439
-489.95
1208.14
-741.424
333.09
366.965
377.03
246.219
-623.249
606.092
831.746
-603.269
262.219
683.445
-515.205
-328.88
-240.027
568.907
1168.53
-676.208
608.882
466.467
-1075.35
-1294
1294
-385.818
761.433
-280.349
-479.301
759.65
494.654
442.284
-936.938
391.85
-672.198
608.052
-868.741
260.689
-366.871
-492.208
1074.32
-660.702
-711.056
1371.76
-377.301
942.26
-1552.71
675.272
32.4563
-425.921
393.465
-518.149
726.235
259.864
318.738
167.986
304.626
-527.674
242.772
1869.71
-1965.75
262.125
-713.467
454.283
-822.184
367.901
-911.58
1417.26
-505.682
-429.468
-485.355
600.741
1124.19
-1724.93
-713.76
338.196
-461.404
1033.62
-786.726
1048.95
-379.182
-626.056
-497.139
740.253
540.182
-358.772
908.269
-311.202
-176.934
1599.02
-1816.57
-347.534
-611.418
-342.064
476.885
272.84
-601.201
-175.958
1066.58
-788.556
200.885
-296.141
-273.426
569.567
391.56
-883.867
492.307
-484.071
-458.292
-943.13
-359.618
590.994
-231.377
-453.911
-435.717
-346.086
-180.043
-400.515
646.734
-445.057
771.324
-1072.41
624.041
-1406.07
547.411
-28.2653
-1836.78
1865.04
569.902
-449.758
1225.49
-694.681
336.308
-336.308
671.713
-446.304
1038.9
-1639.66
-1158.73
-947.949
291.569
327.946
890.381
715.926
-503.6
-302.743
806.343
1658.71
-1686.98
-434.191
341.534
225.856
1134.55
-525.668
-943.333
1550.48
-607.143
441.228
-249.379
372.935
393.518
-766.452
537.115
469.014
-1006.13
-330.687
663.777
-37.9431
1907.65
1595.58
992.756
-1696.9
727.04
-1176.96
449.917
-492.44
1367.85
837.384
-1341.12
-570.617
278.278
803.599
-400.375
550.03
-1189.83
639.8
-635.942
-1215.53
-695.656
1911.19
-189.152
556.345
-367.193
-179.739
319.419
-508.571
331.553
366.628
-698.181
-1485.82
756.578
729.243
884.086
-1434.44
823.369
-431.574
211.527
-358.489
-603.037
274.157
-648.123
-732.87
698.311
506.365
-1204.68
385.94
-202.028
-183.912
555.668
-957.953
-574.681
-425.42
740.303
-831.298
-1155.71
-1437.95
499.641
938.307
5.29472
-648.129
349.401
298.727
-1317.8
1046.97
270.833
-616.407
-456.005
-665.69
921.657
396.852
-196.137
-200.715
508.216
980.622
-1488.84
979.399
-564.963
167.53
397.433
-409.96
680.341
-418.216
-505.513
163.449
234.257
-1519.49
527.325
545.642
-768.431
250.282
144.159
-455.361
364.133
-822.426
1954.16
-1195.39
-758.77
424.136
-686.976
262.84
326.023
333.76
110.016
-443.776
-574.106
193.461
263.11
-691.691
1374.31
-682.62
423.843
471.624
-1184.24
265.597
1866.78
-1013.59
-853.188
784.884
-543.372
183.754
1402.36
-975.187
-427.17
328.663
-774.967
-616.509
1725.43
609.678
628.722
323.819
-25.824
264.526
-1138.42
1725.71
-587.291
-1763.52
820.191
1759.47
-1689.39
-70.0813
-661.902
265.583
573.144
-726.6
229.461
1402.55
-565.171
384.515
448.067
-1858.59
1420.14
564.942
-442.417
-122.525
199.287
-545.373
-286.654
-190.389
-352.14
694.232
-584.289
224.696
614.385
549.114
-1163.5
1113.6
-1947.47
833.868
154.224
346.984
-1699.27
1661.32
309.679
-737.258
-166.9
378.426
757.747
678.986
-1436.73
1079.46
-1081.95
524.268
-1107.3
-627.53
251.427
376.103
535.362
-288.392
-610.506
-1029.15
289.316
-725.032
-912.321
171.322
161.038
224.902
400.141
287.642
-687.783
-633.134
-834.057
-978.444
488.493
-1062.6
-305.815
485.909
534.104
649.91
-281.712
-124.628
-410.921
727.463
265.161
-1200.45
567.313
1310.61
-552.868
441.99
-1016.67
-390.672
159.101
405.841
1023.33
551.602
-1716.8
1613.65
1632.95
-571.334
-1061.61
1904.19
-1892.97
-11.2189
219.306
-535.379
-356.279
557.164
-769.849
-327.255
-334.648
1022.44
703.371
-1508.42
805.047
335.407
-26.1892
1625.21
-1092.11
415.901
-1244.13
470.036
-60.8431
1519.89
1197.29
-470.255
-489.85
-75.1137
-273.121
736.024
-1951.56
-708.995
356.87
-532.176
175.306
192.347
-510.123
1139.91
671.562
-1811.48
-625.057
182.641
941.955
-1497.31
-210.455
678.878
-468.423
871.636
1128.36
-740.486
1350.16
622.218
-491.962
-130.256
-344.157
1174.39
1042.94
-1979.43
936.491
-1174.3
542.077
1488.71
-585.919
-396.315
-148.618
-1242.79
571.728
1160.57
-107.611
946.095
775.637
-1721.73
-201.085
578.523
-1541.7
963.179
486.96
916.635
-1403.59
623.679
585.198
401.739
-1106.64
591.949
1109.24
1216.51
-452.419
-764.09
-1186.2
-1754.93
-6.39658
-1710.41
-203.185
-433.752
1608.45
-630.562
-977.893
-490.787
1121.56
-1318.9
635.151
683.754
-1362.58
1444.18
-1331.59
591.108
1520.48
-388.432
-583.507
187.192
-1482.91
225.221
176.367
238.136
384.082
438.22
404.721
-842.941
506.3
-939.003
900.616
-1444.76
-708.829
235.269
473.56
-1047.31
458.129
-479.914
864.428
695.158
21.0574
-534.446
167.254
-886.565
-1318.74
-713.838
349.008
364.83
401.243
-721.683
320.44
-478.569
-189.259
-709.911
721.463
1539.7
-593.61
818.387
737.914
1344.77
-844.695
-971.229
-570.472
-795.422
427.439
367.983
-1036.3
-640.603
303.227
337.376
-1433.69
-296.783
-789.452
397.483
391.969
-659.481
412.558
246.923
-685.047
266.831
412.294
487.288
389.278
440.499
478.826
384.131
596.551
-969.44
686.324
465.877
453.589
356.12
-809.709
1630.75
-1079.89
-550.862
-504.554
-287.759
-1030.04
453.949
347.176
409.4
593.957
-1003.36
-1381.82
751.262
-531.055
1146.88
359.681
-47.0718
411.727
-864.584
452.857
-1895.56
302.523
441.453
-725.968
284.516
-187.592
400.394
-212.802
-659.779
303.997
355.782
-672.401
319.04
370.114
391.319
612.685
-1020.7
752.689
662.556
-1415.25
438.601
625.307
339.919
392.709
-732.628
408.948
327.611
600.295
673.595
412.431
600.309
-1028.22
427.909
-1669.93
1189.81
480.113
1696.59
-539.17
620.201
-1146.87
526.673
-642.569
347.951
436.99
-934.516
497.526
761.674
-451.701
350.068
344.165
575.931
-923.465
651.703
-1252.55
600.842
383.678
734.618
-1224.57
769.394
509.54
-1278.93
490.87
404.567
-895.437
-501.658
-936.291
-297.712
629.265
352.288
541.812
-894.101
332.586
331.192
-502.179
1944.74
437.111
-846.961
409.85
-917.731
-807.434
-747.237
366.812
-1224.92
438.194
-1736.45
1607.89
128.562
1747.82
-1602.86
-144.962
-783.288
-590.532
264.822
325.71
-1759.47
1980.98
538.518
791.379
-1329.9
439.998
716.309
690.303
385.512
-1075.81
-70.7741
1617.12
-593.796
388.002
837.487
-649.589
326.711
322.878
-377.565
-297.498
552.855
-216.381
433.458
280.892
-665.798
384.907
263.805
-576.815
-281.74
442.344
-1033.13
590.788
538.039
1092.72
365.819
596.86
312.782
353.531
-666.313
1628.09
-924.715
1691.99
-1520.66
-171.339
-326.728
-822.219
413.781
857.516
-1067.97
-604.813
278.218
-1090.6
1628.64
-1587.98
-77.0929
1665.07
-339.99
-349.034
-369.174
537.749
596.8
-501.037
-27.4984
-550
503.835
-281.692
-222.143
1751.57
-1301.82
-623.442
298.565
324.876
399.53
357.201
734.668
-295.496
-398.229
-1747.82
1686.98
459.42
-1100.7
641.284
-42.7586
1656.41
571.288
476.29
-1047.58
104.815
1144.77
-1452.04
-13.2308
-1882.33
226.943
-597.894
306.541
291.353
-955.362
612.576
-897.519
468.051
-1128.36
673.365
454.991
377.799
268.596
-772.195
-308.367
1216.41
886.674
699.063
-1182.89
456.076
726.812
494.277
700.684
-1194.96
-358.429
-245.397
406.435
-960.121
438.27
521.851
21.2463
-1879.84
1079.62
-471.566
-502.806
558.201
-1378.09
819.888
-430.373
798.274
-404.726
499.407
-706.002
1726.77
406.989
-182.087
217.244
-167.946
-243.524
411.471
1895.32
-504.114
-1695.41
1051.29
-602.151
304.653
-1013.35
553.349
-311.218
544.274
905.262
-1449.54
-1103.68
437.987
-20.8728
-1944.87
1711.16
-668.224
-540.64
460.649
-1190.39
729.745
192.57
204.282
-282.625
770.867
699.706
837.72
818.307
-462.187
1084.73
-483.057
475.383
-192.571
-282.813
-1923.44
-714.209
-317.003
-644.698
-6.97988
651.678
463.844
-270.383
566.656
1061.43
-806.835
924.278
1244.16
-424.736
-188.124
-227.962
416.086
961.096
-888.525
-319.804
-1067.57
611.569
1559
-802.419
537.648
934.904
-395.958
735.106
-339.148
1130.3
-276.72
339.063
1349.58
-705.581
-217.657
448.22
-1198.57
750.345
-987.952
-118.845
1106.8
441.392
-955.131
513.739
176.468
732.999
483.51
737.251
-93.8582
852.226
-425.289
1182.47
-796.956
552.137
-1465.42
913.279
-1216.65
1800.97
-431.712
-1510.19
879.635
-1401.95
-319.082
-419.922
1457.14
-1524.49
784.219
1491.48
200.792
274.592
-361.354
-1736.45
-287.506
-1012.28
1578.93
-1770.13
1770.13
1567.58
-1004.44
-633.382
-345.345
368.249
605.096
-373.972
-368.727
-1389.81
897.371
1125.14
600.572
1202.71
1789.48
-1216.42
-615.249
271.274
1659.02
-1916.5
257.481
814.77
-1267.58
1545.23
-561.609
788.88
320.866
-351.231
554.857
794.85
671.851
1356.78
-235.266
-444.662
-373.405
497.705
-342.225
471.7
736.439
-306.248
-137.528
-337.673
569.45
-231.777
29.2712
-370.026
1107.44
-1720.26
-446.852
-493.763
-569.505
863.691
695.305
-1596.46
904.766
-451.37
-625.186
-514.057
1251.89
345.904
1723.71
-1702.46
-1658.71
1892.97
-1560.8
840.278
720.524
-384.271
-1796.83
917.701
583.238
819.316
-392.998
1794.31
-680.713
-419.03
682.107
436.441
-1118.55
-1100.4
444.041
753.254
-1617.17
473.176
901.135
175.209
-397.952
222.742
-1598.26
-386.095
-436.694
990.292
-675.479
1442.91
-981.667
1853.3
239.043
-537.626
494.027
-293.236
474.292
893.562
543.117
977.361
-462.595
-427.627
573.956
883.184
-1392.71
-40.9882
1575.56
-837.645
519.937
971.544
-1475.78
-1115.9
1772.81
-1241.47
-531.336
1206.06
-319.014
-887.05
-190.771
451.011
-260.241
-456.989
-247.976
427.033
-179.057
142.699
-388.096
1732.15
-1738.55
-465.288
-530.831
-903.613
440.838
-205.643
-235.196
635.66
-463.76
-359.646
-324.065
683.71
-929.816
391.9
-1167.25
676.462
414.252
-639.23
-434.941
1578.75
-862.822
530.177
-457.686
-570.737
-462.395
373.53
-363.756
-9.77482
-1109.62
414.938
-664.777
-1033.64
1698.41
-605.323
-1423.63
712.573
562.192
-1596.24
1034.05
-399.753
-473.269
156.828
535.867
-1258.27
744.213
539.215
1006.01
-2133.18
999.988
1133.19
-374.051
420.844
-395.938
-24.9064
1478.02
-376.229
449.245
1210.26
582.231
906.482
567.505
527.379
-1094.88
162.911
-447.943
-1689.39
249.813
1127.58
-618.811
518.487
1013.74
-1532.22
1092.85
-1643.72
187.744
701.718
552.324
-872.129
-1086.51
-173.525
429.62
-256.095
-587.113
-437.39
-636.791
-629.657
347.032
-1618.88
939.611
-476.663
212.594
-394.681
532.44
-305.497
-612.104
1197.1
-1282.08
924.721
357.363
-1018.33
-380.223
-759.865
-826.65
1690.34
-476.786
1793.38
-1582.99
-210.394
-1556.62
1018.72
537.901
-727.796
-263.905
445.945
-182.04
-596.722
382.83
272.501
-655.33
-523.884
994.302
628.302
-350.084
-1620.27
1050.51
571.764
1103.54
-1675.3
-422.622
-289.142
-370.637
-746.673
-479.368
-328.971
496.956
1557.98
-995.785
-775.04
1497.44
658.012
-316.478
725.88
1152.37
-1878.25
301.743
315.631
-487.072
-1932.64
1720.14
212.497
736.828
-473.83
-262.998
531.824
1060.83
-1592.65
373.53
-1723.64
-233.21
1752.35
-1580.69
1073.78
506.911
-1724.75
1.10838
-521.596
420.844
1699.27
-1720.14
939.601
624.645
-1564.25
385.184
-218.205
-166.979
-420.032
-265.015
68.635
95.1633
-359.069
-428.097
-440.644
-403.129
215.537
1510.23
378.846
-216.276
-443.205
461.197
-198.087
329.382
1510.76
995.378
-154.01
-841.369
-1104.09
1704.83
-1728.78
1064.01
-707.2
-1021.58
-1265.09
1844.99
-579.902
1155.07
-1771.15
616.089
272.42
-878.089
1675.73
43.442
-1719.17
-491.152
-1083.06
-1732.15
-981.739
554.111
1019.61
590.223
1133.03
-1723.25
277.437
-450.54
702.378
-383.339
387.891
924.737
680.885
-383.01
-645.208
582.887
1072.55
-1655.44
-402.824
-366.163
768.986
438.297
-1661.32
1520.66
140.67
582.073
-1043.48
544.74
1083.9
-1555.66
994.056
-236.639
224.97
332.194
1904.19
442.377
-72.5783
995.862
722.75
-1718.61
-697.276
1085.35
-1557.51
163.494
-571.338
197.427
263.77
-662.734
-562.187
582.507
1034.61
-711.173
-282.253
-1368.27
675.187
693.087
-411.63
758.736
68.7842
-827.52
561.699
-137.161
1557.3
-210.559
275.8
-773.228
-1932.64
1664.62
1027.7
389.658
307.494
454.18
-929.944
-993.496
-1767.26
634.256
1693.76
506.629
-474.261
1210.7
1087.11
-424.758
1029.85
-977.442
491.246
486.196
700.312
1047.92
-1748.23
482.947
483.624
-1493.98
-745.955
33.1014
779.087
-412.275
-887.419
384.614
-538.995
-802.13
644.489
-577.369
1397.26
1055.14
195.47
234.15
-550.611
1618.52
-773.229
1525.92
-1727.83
575.251
1152.58
541.812
-882.21
-1732.81
1916.5
-183.69
1721.74
180.628
-544.243
374.147
-278.984
-481.35
1211.1
568.266
1128.32
-491.101
428.356
856.836
-459.86
-771.719
429.547
342.172
1418.94
1089.58
-518.182
1422.95
-510.522
-533.55
1044.07
-602.751
484.587
-1203.13
1691.99
1839.58
-687.211
1585.7
-646.097
-1241.12
717.236
-562.504
205.731
-396.885
454.182
-244.688
-519.683
-1246.71
1870.94
-624.233
1173.1
-552.895
1120.28
-1659.45
1697.26
-573.93
-546.031
-549.816
1720.07
-316.887
-688.03
-473.251
1223.6
-1685.61
-1860.1
613.395
307.652
-935.555
166.793
212.335
-1719.02
1204.15
514.872
1162.85
558.887
-511.963
-465.316
1192.13
179.124
221.27
588.444
1251.13
-539.176
-1238.58
1777.76
-1025.35
999.99
866.789
-204.107
-1659.02
1702.46
-510.059
1411.19
-1732.81
-352.375
13.1476
339.227
-258.232
583.471
-325.239
84.2344
486.047
780.031
-378.788
1257.53
1270.82
-413.303
851.255
-437.474
1817.46
-662.391
1586.55
-1723.71
-412.792
-754.71
308.207
446.504
-559.959
-563.316
79.715
-1138.76
-985.417
-669.826
1655.24
-943.707
-1189.47
159.111
-425.066
-648.174
705.647
1167.44
650.014
1410.21
-590.892
1636.75
1317.92
-573.71
-488.865
195.629
-503.257
1396.82
1239.88
-564.694
-999.989
892.299
56.1089
-948.408
603.434
-506.112
1403.48
1495.01
-588.533
-382.004
382.004
-589.431
1623.48
1239.42
-486.166
1134.16
-68.1765
1849.51
-387.603
1489.4
-588.787
-507.654
1347.93
-651.93
1218.35
-566.416
1554.77
-591.596
754.316
575.269
-1329.59
-655.668
282.595
501.207
600.282
-1957.3
-994.428
1586.55
382.715
-382.715
-64.5107
386.896
436.473
395.291
-13.2423
-342.504
903.142
-519.464
-426.099
812.995
-242.272
618.375
-429.601
1547.74
-444.318
-884.106
185.358
223.443
-408.801
601.168
1250.78
-1851.94
926.42
-458.369
-363.756
126.151
-1943.02
1816.87
-447.438
177.274
1181.21
-440.402
-740.805
-299.44
-587.98
-493.276
-395.938
-477.778
255.635
1157.88
-561.079
228.707
-374.811
146.103
-22.4076
-107.67
1376.09
-1268.42
34.4499
-599.353
-586.397
-460.735
460.735
-1262.36
1985.11
-1344.39
-211.992
-1823.26
240.275
-1025.75
-974.243
-184.239
-1638.07
708.127
1229.32
-1924.97
366.823
313.269
-680.092
-1850.01
1234.27
615.742
-564.858
564.858
-959.152
-39.8908
-1866.06
-558.139
1650.85
-676.935
1636.16
-601.545
-178.436
-1703.89
-582.263
-447.217
-594.799
-473.8
473.8
-1537.81
194.527
1343.28
173.24
223.992
-397.232
487.64
507.739
996.593
-474.742
1751.3
768.724
-427.917
403.01
521.166
1702.05
-594.604
-552.959
1636.85
468.701
1812.75
-645.301
-1804.03
-1938.07
-646.968
-485.051
485.051
-594.915
221.51
-693.717
1019.09
-465.737
-1073.26
-289.17
1579.58
1852.3
1635.34
-1635.34
-271.81
739.777
1761.49
595.787
1275.15
175.502
209.682
583.886
589.73
1603.53
-1603.53
221.222
-354.86
-435.63
459.24
950.64
-459.394
-639.555
-1131.01
1706.26
279.268
-1654.09
615.207
-286.424
467.052
1744.64
-592.063
-214.76
-419.835
379.273
729.968
1738.57
-613.427
-511.764
-772.507
1960.53
-870.453
-1090.08
1642.76
-705.834
1223.97
-1824.94
600.972
344.286
-881.912
-185.945
-110.164
1098.01
-486.438
136.035
622.361
-1651.51
434.055
616.246
-1804.03
-583.275
1787.43
884.071
-1162.92
1760.49
-597.568
1783.83
-575.527
-1208.3
436.841
924.689
-1738.55
924.727
-1492.94
263.49
1229.45
-830.92
-1254.23
-385.809
77.7068
308.102
581.723
268.291
1029.18
-441.94
845.302
-403.362
820.773
739.39
-1560.16
643.945
1066.29
-24.5232
-663.928
688.451
-1744.32
722.732
702.81
150.528
-1122.68
1936.76
-674.549
-1262.21
-537.172
1665.49
832.145
964.974
-1797.12
1227.86
683.326
-404.989
708.986
826.202
1027.82
-586.432
1761.49
626.528
1773.56
-1185.62
-587.94
-380.83
-338.885
719.715
121.434
-1185.7
1660.55
-540.264
-1437.85
1437.85
1250.57
594.415
1351.54
206.435
-558.818
278.808
-186.709
699.081
1113.66
477.175
-298.052
-870.039
-574.717
1737.44
-1737.44
1012.43
-1012.43
987.331
1025.17
-2012.5
1837.94
-613.972
-581.106
830.423
-947.85
-1052.16
998.294
690.714
-1689.01
-522.031
-356.349
-641.622
-808.424
2042.69
-1246.42
-613.682
1002.97
974.852
1289.77
646.987
324.813
1012.68
225.492
338.091
1186.29
1756.87
-1756.87
671.946
80.2021
-391.508
-997.052
-539.987
1674.14
991.12
1008.88
-1833.28
-222.164
-360.098
609.041
-359.228
1849.5