/*--------------------------------*- C++ -*----------------------------------*\
  =========                 |
  \\      /  F ield         | OpenFOAM: The Open Source CFD Toolbox
   \\    /   O peration     | Website:  https://openfoam.org
    \\  /    A nd           | Version:  7
     \\/     M anipulation  |
\*---------------------------------------------------------------------------*/
FoamFile
{
    version     2.0;
    format      ascii;
    class       surfaceScalarField;
    location    "15.5";
    object      phi;
}
// * * * * * * * * * * * * * * * * * * * * * * * * * * * * * * * * * * * * * //

dimensions      [0 3 -1 0 0 0 0];

internalField   nonuniform List<scalar> 
29574
(
587.748
-435.227
-152.521
270.47
43.0148
-313.485
943.74
-1133.4
189.657
-395.225
994.378
-599.153
-632.903
670.893
-37.9893
-687.38
54.4767
212.705
-35.8907
-176.814
630.917
-482.727
-148.19
210.871
-288.474
77.603
92.7956
538.121
-80.2481
253.297
-173.049
-284.796
286.707
-1.9109
-234.614
-18.4343
253.048
34.5886
553.16
621.373
-650.292
28.9189
-965.156
569.932
-307.711
347.223
-39.5112
-89.3829
-1013.49
1102.87
-255.742
231.287
24.4546
304.919
-34.4485
-300.997
293.423
7.57423
-30.0075
-254.789
-485.216
578.012
260.669
-314.01
53.3408
943.74
-357.394
69.5961
287.798
891.09
-975.269
84.1783
340.096
-148.696
-191.4
-158.025
-102.69
260.715
-108.707
-147.034
-592.323
740.932
-148.609
333.62
-278.559
-55.0609
397.605
-88.826
-308.779
556.199
-292.586
-263.613
-717.204
780.479
-63.2744
-731.231
138.907
152.266
-383.045
230.779
932.29
-932.29
784.009
-345.964
-438.045
272.846
442.081
-714.926
2.64286
796.963
-799.605
-314.135
102.367
211.767
-882.83
719.956
162.874
972.936
-81.8452
-109.615
-247.779
116.021
72.3234
-188.344
1129.63
-484.286
-645.342
333.624
-240.531
-93.093
842.846
-30.4377
-812.409
239.111
-230.422
-8.68888
-787.837
70.6324
46.5837
-750.659
704.075
-288.133
-128.399
416.532
762.978
-835.776
72.7982
168.681
-383.867
215.186
15.5049
-210.434
194.929
381.733
-111.33
-270.404
694.77
-751.502
56.7312
-56.5131
-295.936
352.449
-83.3074
-224.404
-647.578
406.042
241.536
-50.1129
243.888
-193.775
480.025
-482.645
2.62023
-206.921
-359.879
566.801
-697.532
827.996
-130.464
-715.739
107.772
607.967
537.306
-571.691
34.3848
-650.964
-64.7757
-169.087
-354.9
523.986
-119.336
-94.9528
214.288
361.781
-551.156
189.375
324.898
-223.189
-101.708
675.451
-54.0778
-273.223
-34.9466
308.17
1063.91
-568.27
-495.636
-74.9908
468.001
-393.01
336.953
-117.852
-219.101
-226.158
15.4146
210.743
917.96
-645.115
589.2
-833.602
244.403
633.288
-525.516
816.924
-194.726
-622.198
291.599
-98.9746
-192.624
296.172
-85.3011
133.584
-183.697
-620.928
-261.902
239.579
-282.117
42.5375
-34.3468
138.209
-103.862
-667.506
460.585
123.66
-305.71
182.05
-431.721
711.075
-279.354
739.019
148.779
-887.798
904.508
-130.189
-774.32
171.237
-280.457
109.22
198.126
135.498
424.354
55.6709
247.083
-75.8466
-779.346
789.926
-10.5801
-318.182
237.934
1019.02
-918.483
-100.533
280.413
-156.754
406.696
-417.746
11.05
163.555
134.67
-298.225
453.344
-182.458
-270.886
1221.37
-1221.37
469.702
33.8385
-503.541
-20.8243
258.612
-237.787
-472.815
238.54
234.275
264.697
8.93254
-273.629
-285.357
-68.8938
354.251
43.7112
-201.736
179.713
32.9921
396.979
-111.146
-285.832
-262.187
-401.494
663.682
-563.734
488.743
-568.652
-431.445
-403.669
-164.535
568.205
576.818
56.4697
-309.139
-0.0398622
309.179
-1028.54
237.278
791.266
-170.786
909.805
49.5581
258.236
-307.794
373.325
-617.976
244.651
235.945
-361.982
126.037
129.79
426.41
780.723
-870.106
13.7391
221.13
-234.87
181.624
158.472
240.097
93.5232
123.274
-526.943
-27.4138
-152.413
179.826
20.0912
219.02
853.704
-851.061
291.848
492.161
123.442
-361.507
238.065
263.699
957.669
296.172
-72.9451
-223.227
-278.055
-22.9423
-407.232
35.9025
371.329
104.425
62.6264
-167.051
288.875
-239.317
29.6594
-302.882
178.817
146.081
-302.224
195.198
107.026
-566.656
92.0126
474.643
-123.027
246.469
-299.605
85.1899
214.415
-94.7123
-223.709
318.421
8.23203
304.716
-312.948
-763.713
-211.556
127.688
-222.4
217.618
971.752
-67.2436
-231.588
-48.6377
280.226
151.393
665.531
-281.669
-17.9358
-751.688
130.76
77.6098
183.06
69.3671
-160.586
91.2186
-12.361
-222.253
-169.769
338.45
-233.566
197.676
-36.4604
-400.036
-166.619
-198.686
-667.052
865.738
-146.319
111.972
346.598
60.0984
268.218
23.3812
436.289
31.7121
-354.241
506.506
349.523
-53.3502
-172.847
-146.125
318.972
6.15042
-218.569
212.418
400.633
-442.912
42.2788
96.5999
93.8171
-190.417
46.1752
351.43
-571.523
509.064
62.459
-532.395
-33.6057
566
-437.382
-126.352
-10.774
222.846
-212.072
54.9022
-225.684
170.782
735.523
196.767
342.812
41.6047
-384.417
-75.4802
216.386
-140.906
266.774
38.1446
227.933
-124.306
-103.627
583.45
-221.669
28.6161
990.4
144.205
212.682
117.578
-330.26
289.364
-275.625
243.104
-386.96
143.855
70.5029
-988.986
-589.526
420.439
218.816
-149.449
-44.0353
304.734
-260.699
90.8764
251.935
-53.2685
315.608
-262.34
324.828
-58.0536
-5.39327
218.076
255.598
-390.631
135.033
-90.9825
323.861
-232.878
-470.591
150.921
-338.675
187.754
268.374
-382.633
114.259
-314.741
286.235
28.5054
-6.76007
-328.946
335.706
768.953
-722.37
198.776
-183.271
619.421
-634.71
15.2892
415.573
121.733
-851.146
510.896
340.25
-39.3335
305.06
-265.726
-87.5656
-150.961
238.526
-296.131
556.476
507.43
513.56
-513.56
-536.101
-492.443
-258.064
-214.75
898.102
-606.254
2.05779
263.459
-265.517
-167.834
-271.599
439.433
71.5212
161.339
-232.86
518.928
-950.649
-346.931
278.037
-12.8669
-394.365
353.332
-360.092
-1068.66
500.008
-484.979
484.979
-641.868
-5.89071
647.759
647.264
-273.939
291.094
127.787
-418.881
-329.779
308.954
-218.397
204.002
14.3949
-549.672
839.511
-289.839
306.635
-67.0562
561.75
-92.048
-415.198
242.351
179.902
67.1819
-657.004
489.17
241.153
-359.005
87.8683
-175.434
263.398
113.095
-376.492
351.869
-115.924
-978.757
-242.612
622.684
-45.8656
-79.0658
277.185
-198.119
540.473
-463.539
-76.934
-76.0711
765.322
-689.251
-53.2089
896.055
263.017
1.68008
-113.731
185.253
-90.2825
558.669
-468.387
-541.894
195.93
-167.801
12.8484
154.952
-126.777
417.871
-43.8678
222.487
-178.619
-74.3689
-239.766
193.278
-88.8533
-77.1567
193.178
17.5651
-247.918
230.352
33.0524
457.732
-490.785
710.284
49.3858
-759.67
288.036
18.5993
-74.7376
-158.829
-138.669
43.0244
237.953
-280.978
35.52
361.459
211.809
-761.48
309.978
-195.664
-86.453
122.555
-820.665
698.11
64.5841
-397.731
-173.96
-287.85
209.18
78.6703
-333.106
-314.472
567.747
-999.191
239.261
-51.2465
-188.014
-52.6185
253.097
-200.479
-1040.85
350.407
690.448
-43.2607
375.597
-332.336
324.913
56.8202
-241.651
90.6315
151.019
352.226
-103.37
-248.856
379.821
-136.717
-165.045
299.715
268.499
-214.098
143.532
-196.15
-106.942
608.605
-501.663
754.555
-165.355
-121.431
-364.017
485.448
854.036
-731.481
257.612
-214.588
-34.0791
-320.161
-536.934
77.1195
85.0167
-162.136
359.908
-87.263
-272.645
-84.6254
181.381
-96.7559
388.968
-133.37
-115.724
-348.453
464.177
7.62002
843.977
-851.597
-776.636
804.131
-27.4952
-244.199
53.9227
190.277
-754.314
440.972
313.342
54.7766
-163.484
2.29944
174.164
-176.464
-292.502
262.495
6.10625
-230.189
224.083
244.855
-22.0086
175.526
-539.002
363.476
229.69
-212.125
-40.2392
-185.919
-66.7345
573.241
355.818
-78.0924
-277.725
-733.897
741.517
-465.58
361.31
104.27
459.99
-336.717
483.837
-853.616
369.779
-287.851
-96.0165
-726.462
28.9295
-179.232
-62.4187
-646.116
631.723
14.3927
-179.717
351.477
-171.76
311.782
306.64
263.458
-168.543
-94.915
261.244
-263.795
-487.892
-196.776
-83.6814
273.834
-204.808
-69.0253
-554.098
16.8512
537.247
172.078
-75.4783
1006.28
-1006.28
433.686
-504.364
-536.491
151.731
190.111
-341.842
-486.024
451.945
-331.719
296.772
-328.716
412.258
165.178
-577.436
50.453
712.525
553.277
-141.019
431.955
-596.49
97.8804
208.932
-306.812
-207.29
-212.815
420.105
306.037
79.1353
-385.172
-297.333
-544.686
842.019
490.792
-752.979
372.629
30.3084
-402.937
-1013.49
417.526
96.0344
281.656
-275.506
302.236
-358.749
-12.6524
123.86
-111.207
10.8206
-263.042
-253.906
11.7575
242.149
248.21
25.6235
311.429
-386.909
226.37
-92.786
-549.461
-195.747
-109.962
-390.6
-363.714
-970.599
-181.052
1151.65
-498.97
961.951
-462.981
-130.148
-3.78735
133.936
-668.872
636.889
31.9839
-242.522
371.784
-129.262
243.207
297.266
2.21355
-212.647
873.888
-912.422
38.534
431.73
-116.052
218.419
-372.002
163.516
208.486
-253.858
66.0655
187.792
-489.799
-64.2986
134.625
-245.955
351.335
-87.9373
-1102.82
904.13
-550.809
460.526
-98.005
211.135
-113.13
-68.3453
380.973
-312.627
375.916
-352.178
-23.7382
-367.309
44.8004
-212.601
-308.35
682.459
-374.109
-63.3268
-254.855
-91.3443
463.973
4.41172
192.058
-196.47
927.769
201.859
-356.067
-15.9344
167.972
207.944
-373.122
-456.054
829.176
-857.652
373.366
431.141
-948.931
517.79
97.5484
-436.002
338.453
-272.529
187.904
-10.4404
468.173
-138.277
-200.398
-427.121
148.562
616.192
6.49126
25.7102
213.551
438.192
-83.3315
-354.86
-103.806
-89.496
193.302
124.369
225.929
-300.298
9.11016
-107.259
-40.7429
148.002
-384.839
-14.9158
399.755
-27.4083
322.932
-295.523
-103.716
494.619
-390.903
-422.475
384.025
-77.9883
-894.653
818.582
352.087
-318.248
-69.4089
-317.551
-72.442
-318.189
-655.716
-123.63
-532.732
292.307
240.424
-286.422
63.2332
-129.385
125.557
36.01
186.691
410.617
-597.308
29.0242
-286.82
46.2887
26.3582
289.25
150.758
-261.904
-56.7883
-279.799
336.587
-810.791
796.284
14.5063
233.501
-252.893
19.3916
362.889
535.213
270.241
-373.611
-17.8414
305.878
-724.591
694.154
290.687
-210.785
-79.9019
292.558
12.1762
-174.649
-161.146
-313.756
474.902
-215.362
-99.3785
297.45
-384.713
435.181
-550.905
118.018
78.6561
-196.674
206.014
-128.272
-77.7418
277.824
-650.946
152.334
-507.234
241.642
-95.9716
-145.671
47.8429
-811.556
-428.099
304.403
-382.495
-589.286
686.834
-495.067
95.0303
368.318
-665.651
124.463
-238.674
114.211
-848.931
896.774
-30.3119
-7.8012
804.764
-220.67
217.4
3.26992
-310.41
198.204
112.206
-241.829
-140.804
-54.0762
423.651
-369.575
546.226
-653.168
41.1066
-225.414
184.307
170.826
-129.72
339.024
84.7591
-264.476
171.315
21.9625
-141.277
766.774
107.114
-441.91
171.024
-219.437
179.973
39.4639
192.344
-236.212
-1.36217
192.431
-191.069
-347.023
290.234
-224.555
-13.2059
237.761
-541.843
420.412
205.023
-196.791
-581.053
-65.0628
614.732
4.68937
-307.681
-219.262
178.479
-88.745
-89.7338
-118.482
-93.3832
211.865
173.039
-234.639
61.6006
-43.8037
287.412
-243.608
-226.426
215.435
10.991
-197.524
-28.9015
349.375
88.8166
976.363
-712.664
-273.623
-305.012
241.685
190.531
32.9571
-223.488
-975.363
799.681
175.682
-368.595
171.069
197.526
-498.179
-145.044
643.222
-158.951
-806.205
-9.38235
-288.843
-465.387
450.471
-94.7191
-215.691
256.054
-2.9568
656.813
-99.9577
-556.855
347.61
-451.327
-159.224
756.307
-597.083
-224.017
-207.081
431.098
-287.212
271.452
15.7595
5.93883
-67.0847
240.123
-110.318
-177.532
-529.071
-3.66111
-16.1774
-90.9187
-744.857
38.9026
-432.269
-211.724
93.2421
-273.735
171.045
699.007
257.235
-305.872
164.031
63.9016
-331.653
2.4214
329.231
-267.603
13.7453
-37.1493
-996.688
778.49
218.198
-23.8783
227.88
-92.7615
274.811
494.544
-522.712
28.1684
-300.33
-165.25
-361.942
397.844
-45.3522
137.852
-92.4995
994.094
-820.023
-174.072
44.5337
-568.898
524.364
-26.2692
-128.56
154.829
-154.325
-132.098
487.705
-63.351
-250.98
494.187
-558.132
119.274
438.859
-205.802
275.398
519.938
-383.761
-136.177
295.065
8.42697
-303.492
-273.227
194.161
663.627
-99.3746
-564.252
428.31
-241.619
-432.929
389.244
43.6846
264.543
12.6413
-283.683
-47.9697
-180.67
56.3639
202.276
-500.402
64.3749
436.027
-260.517
262.575
-385.9
358.492
-319.541
-67.4531
-417.526
-454.578
400.502
-530.594
1001.8
-471.211
-119.133
73.7804
-176.136
-192.459
488.19
-50.1495
-438.04
-17.2109
-300.147
317.358
-500.463
560.126
-59.6627
436.607
204.471
-100.559
-103.913
194.792
-238.595
200.563
-201.925
-312.318
107.51
459.101
-414.567
-10.6496
-276.562
64.8191
-898.928
898.928
125.183
4.18582
420.629
-424.814
-160.718
181.237
-20.5191
-509.652
302.361
-422.733
66.0136
356.72
55.785
122.694
-508.242
399.749
108.494
-205.627
436.73
50.9752
307.872
41.9024
-349.774
335.569
-77.3334
-418.118
-45.4215
114.92
-355.486
287.141
338.882
-247.745
-91.1369
-36.2303
146.269
-110.039
-970.599
-298.564
-191.16
87.1518
104.008
-332.814
243.988
-423.649
-525.281
250.008
553.632
-803.641
-146.405
-530.468
676.873
-477.455
169.775
-21.9689
193.284
215.282
-14.719
-657.446
640.622
16.8236
75.897
352.413
284.24
-67.0876
-217.152
-103.991
-552.29
656.281
-572.782
808.081
-235.3
-596.324
55.9335
-796.207
201.795
594.412
-986.475
433.53
552.946
-285.703
-272.429
-118.987
471.074
-968.593
437.999
-675.527
814.386
-138.858
643.381
-747.372
-209.825
251.783
-231.691
124.333
-799.86
-164.395
-694.285
858.68
666.904
-3.27698
501.209
326.787
-89.773
287.899
-92.0025
88.2152
-149.449
217.69
-577.569
254.326
-227.062
-27.2632
-127.311
342.253
-214.942
-168.784
-118.036
522.104
-27.5601
-292.17
274.959
13.1245
623.764
-703.91
-650.78
-253.455
-246.947
34.7956
218.502
29.0437
470.479
-499.522
-377.073
341.135
35.938
-140.678
156.093
561.605
440.2
-375.224
-174.529
549.753
170.147
-253.454
-102.75
281.566
-68.8023
-353.931
179.399
-252.345
-234.568
310.465
202.093
-129.77
-444.742
-541.734
-289.447
-11.0718
300.519
-327.686
189.467
138.219
-173.543
177.955
-235.496
-92.1899
225.177
-219.071
251.824
-282.38
30.5558
310.188
-87.2924
-222.895
-805.237
646.286
-313.123
-322.023
79.5015
-314.123
344.431
275.586
-83.1444
519.751
184.684
-23.3444
271.172
554.356
-825.528
-194.959
165.779
40.2357
-568.722
407.575
-965.984
298.932
316.292
-815.262
-473.219
-72.9867
546.206
-526.695
449.163
77.5319
284.421
-207.194
46.4754
-635.994
385.014
-36.8825
161.345
-347.587
376.631
141.068
-524.829
-122.004
-36.5968
216.498
-7.05837
278.511
270.423
-80.0336
173.851
765.752
-0.429647
295.238
-276.247
-18.991
-269.856
-91.6503
-94.7006
-32.5924
266.094
710.839
251.112
58.3201
216.491
342.446
-101.292
-70.5681
314.069
-243.501
-452.38
88.3638
494.965
-230.646
-264.319
289.858
-296.917
-17.2191
-673.749
690.968
225.603
-827.347
460.039
-233.526
73.9101
-351.635
-122.38
-387.464
509.844
-124.682
137.531
242.741
-332.514
321.532
-16.8163
-867.92
335.525
86.24
-358.885
-726.183
-519.505
-455.858
239.842
100.22
-349.077
226.008
-328.757
161.655
79.9875
149.254
-223.68
74.4266
-504.226
155.773
499.705
-922.18
-150.662
61.9166
458.192
26.7869
-574.726
-421.963
18.3234
-599.376
-3.56794
298.633
-105.107
407.523
-302.417
-106.025
-84.3918
149.085
-223.179
-72.9525
-344.059
379.579
-254.813
-58.7699
313.583
-69.1014
258.568
-280.087
-260.715
242.697
18.0184
43.8856
-246.089
319.999
368.25
-61.7323
-315.341
-20.4878
235.923
205.889
-27.8728
-178.017
-91.7138
-466.837
53.8423
412.995
-292.735
-130.719
423.454
179.907
-216.137
328.981
-245.295
66.0631
-198.704
-117.797
316.5
813.043
326.228
-36.9735
-212.202
249.175
-22.9371
-503.758
-289.447
-732.956
344.343
388.613
5.20327
-297.79
-9.77118
249.868
-13.6182
231.018
279.562
-333.891
54.3284
-459.78
-129.746
-544.913
184.591
360.322
212.376
25.3852
237.855
341.908
-613.906
271.999
239.549
-413.821
174.272
-360.792
404.869
-665.509
260.639
977.712
-949.096
-760.998
452.648
-440.576
-117.71
558.286
169.075
126.162
-309.557
577.461
-406.863
-170.598
379.733
-209.586
-821.508
248.726
250.673
244.292
-234.234
79.9089
399.874
-90.9191
180.362
-183.072
2.70973
232.421
11.4675
576.445
-610.051
-504.973
177.188
327.786
76.589
-359.669
-130.925
490.594
85.2658
385.404
-206.005
264.912
59.9158
-458.822
158.492
309.551
113.388
-422.939
119.015
-217.02
-185.879
-229.175
-206.052
-362.939
18.8806
-28.5284
-628.917
-33.2119
230.214
-197.002
-304.418
185.702
118.716
-379.615
-120.168
499.783
-269.3
-77.6305
190.292
15.5973
-339.277
82.9869
183.199
80.1703
-263.369
-266.919
-135.889
402.808
-368.215
-291.266
271.47
19.7961
116.664
-346.424
229.76
163.519
-235.575
72.0558
-38.0261
-119.458
-280.344
399.802
-370.442
232.165
211.469
-440.644
-251.671
108.093
143.578
-461.783
148.027
35.0354
-439.977
404.942
-197.482
-63.2332
180.086
418.297
-345.236
-73.0606
-207.561
204.135
3.42563
-264.842
126.469
138.373
-81.5402
-137.896
-323.915
-115.363
915.044
-217.407
-30.5109
270.17
-480.778
315.528
109.421
-310.735
201.314
-392.414
-142.775
535.189
-471.439
-215.941
219.6
-29.0691
272.563
689.797
-707.016
-49.1519
-272.564
321.716
81.5266
-710.952
629.425
208.791
92.357
-301.148
299.672
-109.561
-237.284
227.902
-363.749
-45.3303
409.079
-710.612
39.292
671.32
-494.317
-162.687
-95.5477
-290.352
522.499
-40.3959
-774.488
-19.6497
794.138
-202.796
551.962
-349.166
-208.844
480.016
152.992
-512.661
317.073
-108.142
120.951
437.718
-426.084
430.27
-319.921
-141.505
461.426
-523.758
50.5384
319.509
41.801
24.2542
-261.538
257.451
-68.9894
-188.462
-102.578
-105.652
293.556
-80.2865
-275.199
51.1116
224.287
-300.34
-95.8842
396.224
-276.767
340.14
-63.3732
-78.7672
271.111
-332.401
-133.885
466.286
-234.372
103.764
130.608
-132.629
-49.4279
55.2573
-650.565
595.308
-181.001
-251.928
-297.284
-241.718
-335.417
-92.6827
-210.742
-74.5364
285.279
415.203
639.736
172.588
-230.534
57.946
160.446
526.388
221.467
35.9847
174.544
-250.666
76.1219
-394.974
-146.869
-528.656
-95.043
356.287
-180.904
315.723
-31.302
652.182
-163.012
-4.65442
229.832
-243.252
277.01
-33.7577
713.566
1.16088
288.698
-601.887
492.319
109.568
219.549
64.6902
205.53
-38.3126
217.126
-327.088
81.4383
-329.217
17.7573
-355.168
359.936
-4.76871
84.6915
-188.554
173.23
46.0591
-320.571
320.991
-0.419251
284.159
-342.929
247.246
-16.8934
-362.673
-123.351
-65.1383
276.905
12.0359
242.29
303.857
4.31215
-385.901
-121.111
507.012
-79.5266
-150.895
-197.661
-27.7527
59.885
250.093
261.245
-293.837
310.324
-62.8631
-252.105
281.393
-29.2884
-1061.85
718.219
343.634
-420.715
127.98
321.123
11.0496
-332.173
-63.8877
351.028
566.153
-177.728
-30.4233
208.151
-69.8372
-222.665
-263.176
-59.0794
322.255
-286.682
-57.2193
343.901
-69.9897
-510.082
-91.8051
-797.889
785.535
12.3544
38.8552
247.44
-286.295
44.8722
312.962
-182.797
468.499
-285.701
-232.529
-72.4825
-470.959
103.236
-209.261
185.781
-248.199
-314.712
-107.921
422.633
-118.449
458.692
-340.243
-382.22
-83.1676
-232.196
-100.318
2.23148
-429.583
-121.226
-202.207
683.906
14.3887
647.739
-662.128
-198.069
45.6562
228.32
-813.342
585.021
150.293
-392.122
302.252
-43.6409
94.5342
-1014.29
-219.993
-108.765
440.121
-6.43571
-512.582
-390.101
-113.44
-657.426
205.437
-396.924
191.487
-6.44284
293.855
-333.8
-92.2376
426.038
-15.6088
-276.629
292.238
829.981
-116.415
-491.39
480.949
-59.429
-715.059
-91.1431
449.635
-846.736
783.461
297.881
-471.301
402.499
-92.2233
-118.562
164.434
177.038
-341.471
-438.256
-245.414
184.058
19.2598
-203.318
-207.848
913.274
30.4655
-992.006
559.737
-211.421
-96.7058
308.127
743.054
37.6686
356.455
-78.4175
374.331
-355.45
-402.215
408.521
-6.30575
327.09
-326.102
-0.988162
361.535
-88.9724
-16.7139
-424.026
-144.873
-220.198
-121.644
-197.094
-109.718
-603.331
806.847
-203.515
-235.942
0.445926
-214.772
-429.348
-462.124
411.975
81.7454
-304.924
-97.8686
-125.464
223.332
-43.6216
389.953
-346.332
349.479
-59.2448
217.465
-66.813
-150.652
98.6803
-227.241
134.558
133.941
307.065
-98.2743
-325.289
-89.9459
225.444
561.931
-141.519
26.2843
-773.601
747.316
-272.917
109.457
-189.491
-30.1073
-75.1755
337.67
58.0829
771.903
-699.105
856.384
-110.84
-745.543
378.212
-75.5438
-302.668
102.39
-215.52
-93.4438
508.636
-415.192
-228.023
-60.4518
23.8062
-734.758
444.221
-81.2299
-290.904
287.144
3.75978
-211.979
-46.3825
258.361
204.324
24.9041
-229.228
-34.1772
-94.3421
-448.486
-613.367
-427.089
203.176
0.908172
-203.005
-16.6209
242.224
55.3631
-537.09
481.727
-321.265
221.684
-397.82
153.222
-353.621
684.593
-321.701
68.4217
-269.624
201.202
-139.251
302.767
590.166
-158.211
-209.037
-142.25
231.295
900.102
90.2974
-300.519
224.672
46.6062
725.297
-12.2834
192.646
-324.346
-93.3998
390.759
-86.3565
-446.698
-517.419
152.173
365.246
-164.899
-527.224
692.123
-576.351
1008.08
-739.978
136.647
-473.906
-276.896
269.583
110.238
-933.046
58.6751
874.371
-343.854
390.856
-93.4056
-7.76653
361.099
327.756
12.3842
226.238
-197.806
-28.432
-305.314
97.4667
-194.542
-13.0184
242.932
366.88
-96.6397
658.705
-134.34
283.958
105.01
558.434
-123.252
511.633
-101.017
252.01
-34.3162
-217.694
432.92
-488.923
-334.223
823.147
543.04
-250.733
-289.187
-551.38
80.6337
470.746
307.674
-65.9896
-711.254
677.514
33.7398
521.666
-71.1941
-30.5801
635.344
-604.764
-371.064
283.772
288.096
83.6883
421.13
132.148
-380.626
214.427
-30.1196
352.954
-3.47464
-431.301
-126.279
-49.9405
591.209
323.858
-316.669
-7.18963
-519.308
59.5286
-378.085
-331.686
300.384
48.5536
327.043
-289.51
338.068
-54.2962
-146.302
-271.028
-261.462
-16.8907
278.353
-401.253
-112.307
-33.8736
547.121
-38.0576
-6.7302
474.903
575.715
-26.3544
-163.57
-269.362
323.92
-54.5577
-62.0964
229.583
32.2823
-743.536
-320.382
-234.514
350.363
-390.947
-63.6316
455.909
640.633
215.518
-856.151
-155.405
576.854
-132.633
321.32
-244.942
-76.3776
-77.6664
-592.075
-204.132
29.8186
201.827
125.929
-139.982
212.037
-281.634
-293.047
343.063
-50.0153
224.636
307.679
-426.666
723.765
427.885
-297.648
368.547
-70.8984
-264.447
-465.145
-220.149
837.446
18.9381
408.173
-55.219
-964.031
30.9852
388.119
-76.6904
-745.005
-11.6318
-305.919
634.516
206.885
-88.8663
-97.5166
9.51301
296.365
-386.048
-0.661893
386.71
-238.816
-137.676
203.707
-108.565
-474.196
-94.5254
494.17
-86.5946
341.428
-4.80462
-313.385
-104.027
-129.776
-519.008
372.603
-113.256
653.121
-629.315
-271.837
367.385
-95.5479
-233.821
65.0378
282.358
22.7014
-447.461
-474.719
-411.833
973.53
-463.594
-509.936
568.24
-107.713
-513.012
-122.982
-94.3996
18.2394
513.998
-128.984
14.5793
52.1575
178.057
-224.712
-217.198
58.2877
-100.755
550.01
-129.571
-405.563
-339.265
284.204
265.769
0.324853
430.85
-89.4223
-53.414
-148.793
-152.339
-307.852
31.2895
71.871
-269.532
440.05
-651.606
601.119
-110.54
-490.579
758.901
-726.618
422.276
-71.9124
-253.274
-289.645
37.4371
581.038
-125.129
-758.29
784.575
217.817
-2.94815
-214.869
-142.188
223.933
460.718
-60.2154
607.437
-146.852
-281.496
282.656
-110.481
-80.6781
-210.865
263.323
-52.4579
-100.315
269.391
298.165
-40.9301
-38.6894
250.686
-473.531
-277.971
270.941
-235.313
-35.6278
-420.392
408.925
11.4668
-17.7883
-133.441
301.413
291.697
-297.513
5.81663
-247.787
-86.9558
-13.776
137.636
-322.206
409.564
-43.0936
787.181
-744.087
-507.43
343.62
-35.9407
31.7687
346.524
12.9244
-359.449
7.08033
382.164
223.295
496.661
31.6955
498.431
21.3201
355.776
-47.9042
-67.834
242.378
256.502
57.5676
-870.876
885.265
-301.955
284.619
17.3362
-549.184
250.141
0.545443
793.492
-584.326
-209.166
260.593
-185.167
-75.4257
433.391
228.808
28.4536
493.65
-198.647
618.167
-419.521
93.3501
-51.0018
844.199
-793.197
-418.616
299.158
476.466
198.985
235.667
0.255529
224.258
-182.962
-479.972
662.934
38.6433
208.603
59.9023
-560.43
571.103
-508.644
812.495
-266.935
-545.56
-283.873
-186.718
66.6412
270.718
0.751658
-226.832
-281.411
-355.045
-502.607
4.6806
185.978
-190.658
291.949
265.036
195.613
-792.514
768.514
24.0002
-20.1532
408.427
-453.702
45.275
278.628
78.4401
-0.0574194
773.363
-773.305
91.6731
232.246
59.3004
87.3102
-292.446
306.3
-13.8537
-916.25
-54.3486
197.112
-126.671
-486.446
613.118
-295.266
848.899
-148.042
-392.777
-126.531
-561.048
109.781
380.813
33.784
-255.603
-25.8923
198.359
-146.201
10.7631
851.061
47.8667
-15.0929
303.79
472.941
-357.098
-115.843
-630.421
241.221
389.2
128.493
165.063
360.578
-356.698
265.561
141.389
281.243
229.709
248.142
33.2511
69.6411
-483.639
413.998
832.536
-242.322
-590.215
167.879
210.655
-378.534
360.792
402.085
248.837
3.77046
-626.301
-305.989
264.312
-889.829
368.025
80.2039
-467.668
76.7013
-635.159
-99.5991
246.499
-360.219
381.334
552.539
-568.23
645.033
-76.8035
-11.92
373.379
411.002
-341.176
-35.5135
169.465
-133.951
-303.399
296.453
-17.9421
654.443
-346.898
-22.7104
377.135
-354.425
83.512
-181.877
251.379
-69.5026
-284.23
231.432
52.7977
276.402
536.093
142.961
-403.438
443.297
-1102.87
1102.82
121.221
-9.7898
436.57
164.919
-55.4619
415.387
343.217
215.465
23.0617
283.905
365.079
-25.9138
-339.166
-650.022
648.739
1.28265
232.078
197.908
-11.9299
501.847
-432.206
-211.948
764.487
293.122
86.3764
266.567
-367.859
-174.629
26.7137
244.227
769.42
-170.717
-598.704
-878.593
949.096
291.599
366.454
248.334
-237.285
554.116
-992.372
453.503
334.895
320.235
-39.6354
460.1
291.456
59.5655
-417.213
357.648
-214.337
320.373
-13.6174
-23.584
-824.347
694.158
845.905
-202.524
334.604
273.885
123.73
339.982
-20.0163
-319.966
269.529
305.684
288.835
-189.47
88.9113
-273.821
283.668
-9.8479
438.845
-552.677
-250.964
-3.93538
219.4
457.711
-578.822
-276.934
21.331
459.812
-124.591
-234.279
358.871
-330.485
-186.934
634.703
106.229
426.455
-943.528
517.073
-460.437
418.373
42.0641
-3.13018
253.655
-250.525
343.782
-260.27
258.854
-236.164
-22.6895
310.131
35.3474
-217.224
-848.931
83.221
347.838
-431.06
-31.9902
722.2
-690.21
322.684
-295.732
-26.9515
-445.677
462.564
316.06
-257.977
-399.99
978.642
-578.652
279.859
-13.8379
197.896
544.112
455.888
-179.877
209.436
12.0332
-221.47
-28.0332
399.362
-593.342
33.5542
559.788
204.022
253.875
-354.193
-41.4566
-378.935
-913.274
862.273
-490.064
1034.18
337.046
-55.9142
239.152
-1.88487
-237.268
489.061
-435.219
54.7397
-705.305
-460.122
-0.314778
-258.061
319.224
-469.496
-499.096
298.341
-18.7225
-279.618
-959.335
423.234
-797.889
157.165
33.2562
-190.422
30.8769
598.548
648.434
-634.041
-281.043
835.399
-72.1965
218.277
372.078
-537.408
165.33
-127.991
352.533
-224.542
-703.953
750.56
-387.024
215.125
-224.025
233.15
-9.1242
-275.382
701.837
314.069
628.593
27.7574
-786.048
-231.717
238.839
-347.603
-40.5555
-228.253
240.01
-896.774
980.952
175.637
39.2866
-214.924
264.407
-308.485
-78.4241
8.68123
389.329
210.008
-599.337
502.735
-902.725
511.362
-52.2608
-222.994
-3.66888
226.663
-114.446
-193.406
-296.694
73.7985
-165.353
-137.53
302.667
291.073
-264.359
-116.429
-317.851
434.28
281.36
289.937
-17.5219
-293.45
310.972
-691.166
17.4165
853.704
-916.25
977.712
-978.757
957.669
996.034
-996.034
-878.593
-1014.29
275.28
-241.496
-241.744
-242.291
-187.937
-3.13223
752.253
-966.527
214.274
-885.265
12.3618
-282.765
192.711
-35.5453
-763.445
791.202
227.937
-6.82023
-221.117
-273.316
257.707
-11.7801
-249.415
261.195
247.944
-14.1323
-233.812
201.857
-229.12
-23.5403
-253.105
276.646
-187.769
200.487
-12.7179
250.466
280.819
-347.685
407.25
105.987
-183.012
77.0249
-385.918
-603.068
-193.968
207.204
-13.2355
-419.656
-84.0216
503.677
194.647
-175.387
41.7141
201.607
-25.9692
-360.352
268.702
501.956
-120.622
209.778
459.583
-51.1559
309.231
-389.305
80.0737
18.6714
-636.133
667.01
262.982
-461.629
-783.732
730.304
53.4276
480.792
497.85
71.1628
430.793
-268.82
262.377
-73.0973
-710.634
235.667
-332.373
717.473
-920.988
339.46
-752.304
412.843
128.612
263.394
-205.431
-57.9634
-51.2024
-387.981
-867.903
592.521
-2.26262
258.6
3.84566
-306.91
303.065
16.9882
-47.2727
236.213
281.206
-36.9789
184.937
-58.1235
-126.814
738.625
20.2756
272.35
303.818
6.51814
180.83
-227.258
46.4282
231.486
-300.633
297.065
-319.716
-202.92
217.12
-14.2001
74.6258
-494.281
239.285
170.279
-84.5037
836.757
-608.502
437.904
571.24
-671.773
219.066
-327.207
311.481
-439.472
184.761
-306.405
218.424
-193.52
-323.076
213.515
-190.852
-7.96106
198.813
215.714
-325.433
367.859
-265.995
-101.863
-3.85014
485.577
-442.502
-560.362
1002.86
-744.809
645.434
-50.4833
-320.116
370.599
21.3897
55.148
-290.021
280.25
-270.311
-6.62357
197.153
57.6242
-254.777
-182.994
-213.93
-293.668
222.708
-208.334
-14.3734
-306.91
-408.12
408.12
186.988
-658.427
165.024
173.427
303.065
727.241
-234.922
-41.8596
-645.757
687.617
524.482
-85.6237
236.022
-365.042
315.89
389.85
243.807
4.28437
231.573
-171.784
-59.7885
-34.8925
-686.748
686.748
-175.04
-387.753
-91.989
-117.272
206.103
20.2676
-139.866
207.047
-423.435
479.106
-150.309
-203.312
735.1
-503.155
-231.945
-109.993
-105.528
538.85
-175.374
-108.627
-38.214
-487.502
525.716
-500.548
-287.288
510.694
-17.0442
-20.9606
-731.273
548.312
-458.121
-65.6368
767.789
19.3914
231.265
-112.96
773.747
-660.788
99.4631
858.388
683.21
852.117
149.655
-216.468
-387.041
-73.0807
-236.612
249.262
-224.929
49.506
-170.402
-897.611
41.3356
856.276
12.6016
393.44
812.209
-262.98
247.514
15.4663
1066.36
-542.37
-523.992
-168.512
5.3801
475.569
202.489
-36.7106
273.298
276.455
425.308
-772.039
956.306
-184.267
-344.742
5.47743
232.334
18.0657
665.84
-83.4707
-218.485
-170.199
-241.634
206.103
92.2951
634.946
690.004
-731.864
91.6486
-795.602
22.94
654.574
752.259
-849.592
97.3327
-627.664
536.008
91.6566
627.253
-563.579
-63.6732
-446.648
521.274
53.8791
-83.3509
-122.882
206.233
124.076
305.293
-601.748
439.061
188.076
-188.076
-199.886
218.813
-879.23
436.728
-662.922
536.251
-551.38
870.876
-955.38
23.9412
-237.379
205.501
-169.293
-222.829
-245.986
21.9503
357.628
35.8294
342.383
-352.032
-361.255
35.153
429.441
-680.174
-55.3047
-726.782
782.086
224.743
-271.125
55.1987
108.277
-233.741
-623.663
655.647
-196.265
-51.9346
8.09013
539.566
142.893
-309.919
-21.7671
-455.098
957.833
864.169
-864.169
333.56
43.5754
11.8611
463.042
-761.565
17.4781
650.635
16.375
80.2835
417.321
-497.605
215.731
302.485
-3.85181
9.03551
672.895
18.0729
-841.86
637.727
195.627
303.16
-498.787
-825.497
558.563
210.299
-411.205
20.4521
-649.767
-184.91
-49.9974
234.907
-84.0752
200.215
-116.14
15.2393
44.9375
356.662
41.1821
-203.136
17.2766
-279.15
528.788
659.242
62.9578
12.2867
132.17
-89.2324
-197.062
196.86
395.823
-503.448
-707.843
-64.1954
-199.944
-467.049
-476.479
-274.03
-360.68
624.662
-515.094
6.74749
798.427
-805.175
317.907
49.9512
393.017
-59.457
618.432
-54.5157
-563.916
313.785
-17.0127
-570.636
-99.4918
670.128
-28.2749
-247.35
-605.881
442.868
-167.764
-70.6274
238.391
232.471
611.264
66.2799
-236.071
-91.0165
24.7703
204.679
-546.173
638.468
194.194
3.70236
-200.168