/*--------------------------------*- C++ -*----------------------------------*\
  =========                 |
  \\      /  F ield         | OpenFOAM: The Open Source CFD Toolbox
   \\    /   O peration     | Website:  https://openfoam.org
    \\  /    A nd           | Version:  7
     \\/     M anipulation  |
\*---------------------------------------------------------------------------*/
FoamFile
{
    version     2.0;
    format      ascii;
    class       volVectorField;
    location    "19";
    object      U;
}
// * * * * * * * * * * * * * * * * * * * * * * * * * * * * * * * * * * * * * //

dimensions      [0 1 -1 0 0 0 0];

internalField   nonuniform List<vector> 
20933
(
(0.997403 -0.000268226 -9.95901e-24)
(0.989608 -0.000788264 5.60372e-22)
(1.02506 -0.00330813 -7.63493e-23)
(1.00028 -3.54614e-05 -1.45496e-24)
(1.00077 -0.00850999 6.37901e-23)
(1.00045 -0.00903753 -6.21322e-23)
(1.03928 -0.155633 -7.89493e-22)
(1.09589 0.0648119 -1.75745e-20)
(1.00708 -0.0770611 -2.01826e-21)
(1.10095 0.0657113 1.25902e-20)
(1.04989 -0.139794 -2.24041e-21)
(1.19255 0.11735 -6.70695e-22)
(0.987972 -0.0498926 -3.5358e-22)
(0.99727 -0.000319109 5.83202e-24)
(0.99614 -0.00319438 9.85606e-23)
(1.00027 -4.53567e-05 -1.32159e-24)
(1.26378 -0.0172753 3.6602e-22)
(1.10788 0.00140433 -9.64558e-21)
(1.00592 -0.116296 -1.52198e-21)
(0.991836 -0.000382375 -4.91386e-22)
(1.01864 -0.0886472 2.55586e-21)
(1.18823 0.116572 -1.17723e-21)
(1.10307 0.0713307 -9.51069e-21)
(1.13116 -0.179546 -1.43162e-21)
(1.02325 -0.00146261 6.85196e-24)
(0.994063 0.0786463 -2.73801e-20)
(1.00867 -0.00251146 -2.28199e-23)
(0.995851 -0.0537673 1.13906e-21)
(1.1808 -0.168063 -1.19775e-21)
(1.00837 -0.117562 5.23833e-21)
(0.998841 -0.00208729 -1.44695e-24)
(0.94513 0.0147711 4.19761e-20)
(1.13258 0.109996 7.70982e-21)
(0.993404 -0.0312454 1.23287e-22)
(1.00007 -0.00155358 7.32728e-24)
(0.998898 -0.00225106 -5.13181e-24)
(1.08887 0.0820538 -1.89673e-20)
(0.999902 -3.31873e-06 -1.81957e-24)
(1.01427 -0.0182239 1.69906e-23)
(1.1176 0.00287627 -3.35438e-21)
(1.03904 -0.00778248 4.34521e-23)
(1.10138 0.132877 1.34807e-20)
(1.03208 0.0402269 -7.88775e-21)
(1.00775 -0.00292582 1.90784e-23)
(0.993754 0.0755556 1.08114e-20)
(0.977938 -0.00152683 3.22236e-22)
(1.09103 0.00931896 -2.68749e-20)
(1.24105 0.0600015 -3.10919e-21)
(0.999616 -9.8779e-05 -5.07623e-25)
(0.976551 -0.0439051 2.01436e-22)
(0.99998 -0.00165406 -1.84078e-23)
(1.07179 -0.00819294 2.47132e-21)
(1.18294 -0.10542 1.95535e-21)
(1.00038 -0.00366161 -2.45701e-23)
(1.22123 -0.107155 -6.34246e-22)
(0.952823 -0.0175825 -2.05303e-22)
(0.980996 -0.029402 5.32651e-23)
(0.998726 -0.00270329 2.68117e-24)
(1.01025 -0.0449418 -1.07411e-21)
(1.2595 -0.0130013 -1.9216e-22)
(0.975429 0.0280165 2.2808e-20)
(0.969183 -0.00435554 5.59324e-22)
(0.989697 -0.00329642 -1.47959e-22)
(1.1132 0.0651233 -8.23308e-22)
(0.999409 -9.31473e-05 3.38341e-24)
(0.995971 -0.00768441 3.15696e-24)
(0.995857 0.0541691 6.93548e-22)
(0.995488 -0.00802926 6.45953e-23)
(1.11629 -0.0709378 1.65645e-21)
(0.999464 0.07987 1.0217e-20)
(1.03899 -0.0397711 3.58071e-22)
(1.27025 -0.0474707 -2.41284e-22)
(0.996504 -0.00319634 -2.1465e-23)
(0.986064 -0.0366031 1.19105e-21)
(0.999718 0.0113616 -1.02542e-20)
(1.07289 -0.0799883 1.66341e-22)
(0.999636 0.0746435 4.74825e-21)
(0.960478 -0.00496628 1.71123e-22)
(1.11565 0.00167278 2.11463e-21)
(1.00329 0.0313189 1.5048e-20)
(0.996803 -0.00798137 1.80017e-22)
(1.00215 -0.00430784 -1.54391e-23)
(1.16232 -0.170042 9.67215e-22)
(1.00793 -0.074599 1.67865e-21)
(0.972011 -0.00345575 -6.1647e-22)
(1.0299 0.0378756 3.80451e-20)
(0.990512 -0.0465182 -6.60924e-22)
(0.905043 0.0504951 3.94578e-21)
(1.1097 0.0607798 -7.7144e-21)
(0.981178 0.0798887 1.73233e-20)
(1.10363 0.0246493 -1.04438e-20)
(1.00034 -6.59797e-05 1.33498e-24)
(1.00005 -0.00029846 8.16025e-24)
(0.952521 0.0048378 -1.16922e-20)
(1.24645 0.0545078 1.57294e-21)
(0.990158 -0.0034606 -8.51473e-23)
(0.961435 0.00312621 1.79255e-20)
(0.999546 -0.00437118 2.19876e-23)
(1.05387 -0.134976 -9.33385e-22)
(1.06648 0.0140333 -1.0214e-20)
(0.978355 0.0821037 -5.12907e-20)
(0.977659 -0.0102391 5.48646e-23)
(0.970192 0.0754577 -5.6047e-20)
(1.16907 -0.0957709 8.36277e-22)
(1.09623 -0.00275862 -6.20408e-21)
(1.09762 -0.0770292 -8.13151e-22)
(1.02193 0.088841 1.94117e-20)
(1.15605 -0.07895 -8.34336e-22)
(0.989338 -0.000455468 -5.10776e-22)
(1.0372 0.100948 4.4215e-21)
(1.18894 -0.171413 -3.96634e-21)
(1.03451 -0.155159 -1.81922e-21)
(0.980129 -0.0231518 4.68026e-22)
(1.03216 -0.0206174 -4.13964e-22)
(1.0745 -0.0737532 -1.22047e-22)
(1.00008 -8.35104e-05 -1.86308e-24)
(1.04613 0.0655112 1.87145e-20)
(0.997313 -0.00746482 -6.84197e-23)
(1.16227 -0.107384 3.77191e-22)
(1.00282 0.02572 -3.5547e-20)
(1.00033 -4.78439e-05 2.4691e-25)
(1.02993 -0.0921681 1.50448e-21)
(1.13364 0.0193024 -4.5056e-21)
(1.01118 -0.0514144 -1.47697e-21)
(0.993266 -0.0296496 -1.20513e-22)
(1.10882 0.00313549 5.02251e-21)
(1.16075 0.122489 -1.85261e-20)
(0.995584 -0.0517598 9.36188e-22)
(0.939187 0.017537 -1.22294e-20)
(1.04226 0.0675305 9.99283e-21)
(0.992202 -0.0597378 -8.96071e-22)
(0.976189 -0.0422432 -6.30776e-22)
(1.03914 -0.00405017 2.9547e-22)
(1.01345 -0.0167607 6.7154e-23)
(1.01741 0.0833888 -2.63599e-20)
(1.09289 -0.00534707 -1.71004e-21)
(1.21888 0.0744052 -4.24819e-21)
(1.02163 -0.0891422 -1.0915e-21)
(0.982522 -0.010304 5.01532e-22)
(0.994543 -0.0790989 3.954e-21)
(1.02631 -0.0951185 2.83208e-22)
(0.984633 -0.0378401 -1.17123e-21)
(1.27096 -0.0587673 -3.9736e-22)
(0.967295 0.082419 -1.76639e-20)
(1.19482 -0.00395518 2.11609e-21)
(1.01651 0.0858855 2.38114e-20)
(1.13678 0.135478 -1.94997e-21)
(0.971118 -0.0108463 -4.46686e-22)
(1.1678 0.114435 -1.30197e-20)
(1.00979 -0.00336401 5.46666e-23)
(0.970724 -0.00991445 8.91404e-22)
(1.00087 0.0783383 1.21062e-21)
(1.00006 -0.000256082 -5.1969e-24)
(1.00629 -0.0690495 6.46918e-22)
(1.0021 -0.00387244 2.50088e-23)
(1.13341 0.138131 1.07194e-20)
(1.02623 0.0395373 -4.06913e-21)
(1.12629 -0.175815 6.34367e-21)
(0.948836 -0.0204434 4.04012e-22)
(0.987192 -0.0511224 7.46096e-22)
(1.22766 -0.115816 8.72876e-22)
(1.04325 -0.150259 1.20902e-21)
(0.998681 -0.00249839 -5.08479e-24)
(1.19218 0.0011541 -3.38689e-21)
(1.10969 -0.00269194 -9.67734e-22)
(0.907899 0.0525298 9.37232e-21)
(0.978786 -0.0103737 3.67502e-22)
(1.15579 -0.177019 3.73693e-22)
(1.06871 -0.0818518 -1.89968e-22)
(1.08972 0.0785604 -1.1176e-20)
(1.22357 0.0742005 1.38526e-21)
(0.989271 0.0602906 1.06989e-20)
(1.05602 0.117985 3.00085e-20)
(0.990737 -0.0273045 2.33435e-23)
(0.91846 0.0143883 -1.39312e-20)
(1.13685 0.11125 9.38072e-21)
(0.996832 -0.000658698 1.21585e-23)
(0.989688 0.00727672 -2.68948e-20)
(1.08036 -0.0720865 -6.12678e-23)
(1.03101 0.104809 8.43583e-21)
(1.01251 0.0910798 -1.20664e-20)
(0.999854 -3.16506e-06 2.18962e-24)
(0.964809 0.0577798 7.64154e-22)
(1.05418 0.10288 2.54848e-20)
(0.991238 -0.000632002 3.2595e-23)
(0.946958 -0.0146193 2.2182e-21)
(1.03849 -0.0371227 -2.14963e-22)
(1.07208 0.0106198 -2.60885e-21)
(1.16326 -0.101031 -4.54884e-22)
(0.935775 0.0445997 1.24439e-20)
(1.15894 0.118637 -6.342e-21)
(1.23275 -0.0342444 9.04636e-22)
(1.0625 0.0104945 2.05721e-20)
(1.1151 -0.0649271 1.75889e-21)
(0.949572 -0.0214728 1.01601e-21)
(1.19225 0.088005 -8.14819e-21)
(0.965702 0.0608018 -8.38504e-22)
(1.23925 0.0220237 -4.40029e-21)
(0.993203 -0.000246486 -2.17599e-24)
(0.932009 0.0441216 -1.21567e-20)
(1.21229 0.0493748 -1.00037e-20)
(1.23413 -0.0824747 3.39661e-22)
(1.18142 -0.0986945 -1.09157e-21)
(0.942755 0.0509088 -1.50282e-20)
(0.958019 0.0532894 3.52642e-20)
(0.967881 -0.023923 -4.28457e-22)
(1.00112 -0.0381634 -9.80847e-23)
(1.07174 -0.00484985 -3.37479e-22)
(0.953176 -0.0190234 -1.00881e-21)
(0.99871 -0.000122726 -2.82268e-24)
(0.997282 0.0555898 -5.09857e-21)
(0.988329 0.021756 -9.68651e-21)
(0.970605 -0.0137224 7.16453e-22)
(0.959982 -0.0328943 5.94034e-22)
(1.03274 0.101886 1.30277e-20)
(0.999075 0.0188936 1.552e-20)
(0.998684 -5.88972e-05 1.93161e-23)
(1.00165 0.0213868 -2.40717e-20)
(1.16021 -0.0738444 -4.37236e-22)
(1.01442 -0.014735 -1.1725e-22)
(1.00561 -0.0555283 1.10423e-22)
(1.02948 0.0623614 -2.01772e-21)
(0.959292 0.0912967 1.64896e-20)
(1.10088 0.0220783 1.38071e-20)
(1.03835 0.0968497 -2.13039e-20)
(0.981394 -0.0102741 -8.5054e-22)
(1.0031 -0.037643 -4.59089e-22)
(1.00011 -9.11122e-05 5.73636e-26)
(0.999076 -4.24996e-05 -1.34692e-23)
(1.00062 -0.00712409 1.27152e-22)
(1.13167 0.0166839 2.13785e-21)
(1.12936 -0.110531 -4.28159e-22)
(1.02373 0.0863416 -2.47585e-20)
(1.00257 -0.0925227 1.07688e-21)
(1.02115 0.0320547 1.4627e-20)
(0.991811 -0.0448555 -1.18033e-22)
(1.09165 -0.0737618 5.47404e-22)
(0.99136 0.0590581 1.90994e-20)
(0.955071 0.00380748 6.04665e-20)
(1.03048 0.0590805 3.47115e-20)
(1.00182 0.0723966 -2.92499e-20)
(0.958425 -0.0322152 -5.28601e-22)
(1.09636 0.119121 -8.17566e-21)
(1.01207 -0.0497957 1.61154e-21)
(1.09953 -0.00443976 1.2643e-20)
(0.997145 -0.00673402 -1.23736e-22)
(1.26005 -0.0955554 -2.50621e-21)
(1.1648 -0.0480899 4.23477e-21)
(1.07965 -0.0243338 3.8152e-21)
(0.999638 -7.53612e-05 5.80142e-25)
(0.987566 -0.000632805 6.05122e-22)
(0.955767 0.0931934 -2.53596e-20)
(1.1572 0.043596 3.16341e-20)
(1.01373 -0.0196394 2.38625e-24)
(0.973702 -0.0476087 -1.15946e-21)
(1.12381 -0.106309 8.67954e-23)
(1.074 -0.165362 3.00886e-21)
(1.09723 0.131946 -1.69053e-21)
(0.995596 -0.0781601 -1.09549e-21)
(0.973986 -0.00185628 -6.04861e-22)
(0.998191 -0.0611161 1.30069e-21)
(0.993983 -0.0262681 -1.39219e-22)
(0.999346 -7.12587e-05 4.0133e-25)
(0.990886 -0.042809 6.01884e-22)
(1.04695 -0.150246 -5.78188e-22)
(0.966543 0.0791664 3.34138e-20)
(1.25509 0.0269558 1.99493e-21)
(0.981668 -0.0220784 -8.90104e-22)
(1.01895 0.033614 -2.25703e-20)
(0.959689 0.0571831 -4.18799e-21)
(0.991152 -0.0483554 1.32084e-22)
(1.00062 -0.000255043 -7.65549e-24)
(1.0056 -0.0717935 -1.17165e-21)
(0.996088 0.0510722 5.89338e-21)
(1.24195 -0.133657 -1.78819e-21)
(0.977348 0.0259875 -3.44322e-20)
(1.00004 -9.75314e-05 9.16141e-25)
(0.961824 -0.0360744 1.02074e-21)
(1.04535 0.118032 2.41679e-21)
(0.999431 0.0182384 3.16014e-20)
(1.03026 -0.0686541 -2.29913e-22)
(0.982256 -0.0280666 5.77925e-22)
(0.943204 0.0841994 2.69468e-20)
(1.22664 -0.067256 -8.1927e-23)
(1.22606 -0.038153 -6.02498e-22)
(0.973745 0.07649 2.31174e-20)
(0.938086 0.0503147 -2.54033e-21)
(0.989951 -0.0500089 -3.97869e-22)
(1.04388 0.120491 -1.55241e-20)
(1.13832 -0.00713058 -6.01772e-21)
(1.00478 0.0316894 -4.11111e-20)
(1.05964 0.0719653 1.14502e-20)
(1.00064 -0.000187212 9.24287e-24)
(1.26204 0.0293857 -1.61421e-21)
(1.0836 0.0756472 6.75586e-21)
(0.996707 -0.000575076 4.52947e-23)
(1.00133 -0.0976254 -4.34639e-22)
(1.22568 0.025924 -1.94172e-21)
(1.14195 -0.169336 -1.09201e-21)
(1.21037 0.0436029 5.69488e-21)
(1.16905 -0.0289994 -2.54455e-21)
(1.00011 -0.000165211 -1.57597e-24)
(0.999626 -0.00308423 5.88461e-23)
(0.982639 0.0906676 -4.1061e-20)
(1.00134 -0.0127855 -2.88144e-23)
(1.01226 -0.116671 -1.21906e-21)
(0.993056 -0.0644871 1.34637e-22)
(1.18522 0.111649 -6.93613e-21)
(0.971688 -0.00425305 -1.09917e-22)
(1.03217 0.107444 1.49204e-20)
(1.18478 0.0149218 7.54472e-21)
(0.99595 -0.0616317 7.71558e-22)
(0.9579 -0.00599271 -4.73873e-22)
(1.09406 0.0751032 1.21786e-21)
(1.18198 0.0854749 6.00132e-21)
(1.00007 -0.000168975 -1.63624e-24)
(0.978729 0.0565049 3.42374e-20)
(1.0416 0.0709097 5.03901e-21)
(0.992511 0.0154652 -8.35951e-21)
(1.2237 -0.0975981 -6.85764e-22)
(0.999441 -6.81719e-05 -2.84002e-24)
(0.944346 0.0809754 -1.7704e-21)
(0.997287 -0.00466012 -1.14089e-22)
(0.994872 -0.0473273 2.50767e-22)
(1.18828 0.0837211 -2.52243e-21)
(1.23168 0.0198291 5.49793e-22)
(0.984031 -0.0502724 -9.99632e-22)
(1.22622 -0.0770596 3.34745e-22)
(1.02399 0.0375802 5.82415e-21)
(0.954192 0.0046829 2.20092e-20)
(1.01007 0.0825667 -3.12385e-20)
(1.15998 0.0207836 -9.37518e-21)
(0.909226 0.0192939 3.00391e-21)
(1.0003 -8.99705e-06 -8.3294e-25)
(0.992015 -0.0258742 -1.57307e-22)
(0.999978 0.010795 4.17614e-20)
(1.18684 -0.141913 3.5195e-22)
(1.08296 0.0721309 -1.59423e-20)
(0.98801 -0.0370211 -4.76513e-22)
(0.996133 0.0736746 2.91062e-20)
(1.17073 -0.00206347 4.85354e-21)
(1.00016 -0.00335237 3.19755e-23)
(1.16615 -0.00645749 -4.23394e-21)
(1.04626 0.0608768 -2.41162e-20)
(1.15087 -0.149983 2.55409e-24)
(0.972377 0.00673598 -6.24927e-21)
(1.05978 0.10742 3.61339e-21)
(0.999378 -0.000299628 -2.04459e-24)
(1.03401 -0.0186313 -8.72685e-22)
(1.12392 0.0923646 8.26251e-21)
(1.10672 0.000801404 1.84757e-20)
(0.998058 -9.90304e-05 -1.69556e-23)
(1.05678 0.114782 -2.68257e-20)
(1.01237 -0.0442323 -1.20726e-22)
(0.89628 0.0511359 -1.6261e-21)
(1.02267 -0.0937516 -2.04447e-21)
(0.970022 -0.012477 3.02799e-22)
(0.988226 -0.000733725 -5.78638e-22)
(1.01115 0.0855387 3.48564e-20)
(1.05411 0.100273 -4.05798e-20)
(0.975135 -0.00266126 2.72007e-22)
(1.09232 0.0693332 4.31601e-21)
(0.980793 0.0760994 -1.00107e-20)
(1.00143 -0.01372 -3.6024e-23)
(1.04361 0.00567548 5.94966e-21)
(1.02295 0.0158937 -1.64765e-20)
(0.899091 0.0291174 1.98588e-20)
(0.997653 -0.00390079 3.48928e-23)
(1.16414 0.0923231 -1.39793e-20)
(1.15979 -0.0529367 -1.1805e-21)
(0.951418 -0.0171483 -3.5806e-22)
(0.999625 -6.11859e-05 -2.22639e-25)
(0.999749 0.00606022 2.51263e-20)
(1.10299 0.136101 7.88963e-21)
(1.23453 -0.00232033 -8.82314e-21)
(0.990525 0.0905258 -1.05563e-20)
(1.15525 0.0239296 4.67491e-21)
(0.979397 -0.0290432 4.08287e-22)
(1.09926 0.115144 -6.09746e-21)
(1.10869 -0.00151723 -3.18736e-21)
(1.15142 0.0403349 9.04777e-21)
(0.904078 0.0313482 -5.19406e-20)
(1.02454 -0.0820131 6.79484e-22)
(1.19664 0.0757191 3.25662e-21)
(0.991136 0.0197477 -2.19194e-20)
(0.97246 -0.0484063 1.05499e-21)
(1.13286 -0.0171618 4.71572e-22)
(1.06041 -0.135183 2.16324e-21)
(1.12636 0.0881275 -3.66117e-21)
(0.994461 -0.00018375 -8.46522e-22)
(1.09513 0.0102633 -3.04386e-21)
(1.23523 0.00509756 3.86504e-21)
(1.1991 0.070581 8.10969e-21)
(1.00119 -0.00427864 7.55694e-23)
(1.08859 0.00707019 2.84452e-20)
(0.997349 0.012721 -2.09899e-20)
(1.04804 0.0428617 4.3295e-20)
(1.1419 -0.164867 -4.36894e-21)
(0.995089 -0.0247712 3.0853e-22)
(0.945986 0.0468927 -1.75063e-20)
(0.945989 0.0169683 -4.50316e-20)
(0.997613 -0.00630314 -2.75524e-23)
(0.963395 -0.0352559 4.70401e-22)
(1.01639 0.0626956 4.60134e-21)
(1.01652 -0.122346 -9.93611e-22)
(1.08579 -0.0767205 -3.80845e-22)
(1.09582 0.127504 2.5453e-20)
(0.990002 -0.00048946 7.21645e-22)
(0.894761 0.0263438 3.38063e-20)
(1.0317 -0.0613219 -4.61784e-23)
(1.15452 0.0993635 4.53567e-21)
(0.991591 -0.00917897 4.58575e-23)
(0.995659 0.0126953 -8.94774e-21)
(1.063 0.104776 -7.49671e-21)
(1.07984 -0.019011 -3.91742e-21)
(1.09856 -0.0829662 1.9121e-23)
(1.23373 -0.0277933 -1.33459e-21)
(1.2099 0.0539489 1.05153e-21)
(0.999698 -0.00474529 -2.37946e-25)
(1.01341 0.0517184 -8.49098e-21)
(1.27695 -0.0414025 4.63065e-22)
(1.10463 0.0606257 1.89091e-20)
(0.898786 0.0537598 5.20067e-20)
(1.23361 -0.0931781 4.08829e-22)
(1.06513 -0.0704233 3.20081e-22)
(1.00032 -0.00773684 -1.27768e-22)
(1.24167 0.0669381 6.70414e-21)
(1.24555 0.0163196 2.47262e-21)
(0.978783 -0.0225955 1.53027e-21)
(1.08079 0.117344 -2.3937e-21)
(1.00005 -0.00125932 -2.88337e-23)
(0.977638 -0.0390029 -2.1945e-22)
(1.01357 -0.0133682 1.74828e-22)
(1.21877 -0.0624828 -1.22063e-22)
(0.991978 -0.0410902 5.08071e-22)
(0.999629 -0.000126921 -1.5911e-25)
(0.991148 -0.0532064 1.50471e-21)
(1.19833 0.0871129 -4.25294e-21)
(1.15195 -0.158404 -1.53185e-21)
(1.04483 -0.0646728 -5.29745e-23)
(0.96648 -0.0245371 -8.74637e-22)
(1.21826 0.0244501 -6.54697e-21)
(1.16298 -0.0260056 4.27878e-21)
(0.979142 -0.0500712 -5.28171e-22)
(0.95253 -0.00857718 1.48942e-21)
(1.00091 -0.00447632 -1.25509e-23)
(1.12196 -0.0740269 -1.7264e-21)
(1.02697 -0.131719 -1.51505e-22)
(1.01104 -0.00282062 -4.63984e-23)
(1.03327 -0.0655169 6.08866e-22)
(1.17754 0.0816593 -9.42262e-21)
(1.04946 0.0396824 -2.6457e-20)
(1.19619 0.00937987 1.6837e-21)
(0.999338 -0.000255592 -2.30948e-24)
(0.937286 0.0890768 -3.92878e-20)
(1.01118 -0.00145464 -1.93673e-22)
(0.999985 -0.00136412 3.45193e-23)
(1.03678 -0.00936771 8.56485e-22)
(0.966955 -0.0354807 -7.62171e-22)
(1.01095 -0.0849764 1.3607e-22)
(0.960677 0.0495945 -2.08049e-20)
(1.02285 -0.0504489 5.27895e-23)
(1.1339 -0.00636966 -2.7707e-21)
(1.02238 -0.114077 2.19373e-21)
(1.01958 -0.116052 -2.8791e-21)
(1.09857 0.123936 -1.7677e-20)
(0.996725 -0.0478539 -4.05138e-22)
(0.995003 -0.0746001 6.90852e-22)
(1.003 -0.0960261 9.7684e-22)
(0.999671 -4.30207e-05 1.00944e-24)
(1.16757 -0.0879054 -1.62235e-22)
(0.927959 0.085263 -3.75479e-21)
(1.07625 -0.159603 7.58819e-22)
(0.965294 -0.0445777 -1.82048e-22)
(1.08025 0.112485 -3.23222e-22)
(0.984924 -0.0474054 -1.04847e-22)
(1.05944 0.0677341 -9.52908e-21)
(1.17012 0.117625 -1.44537e-21)
(0.996872 -0.00498641 1.79477e-22)
(0.9986 -0.00017868 1.93762e-24)
(1.0378 0.0645647 2.96267e-21)
(0.904962 0.0656051 1.69616e-20)
(1.06081 -0.158327 2.03071e-22)
(1.14202 0.128718 2.39594e-21)
(1.20868 0.090896 -1.15822e-20)
(0.970526 -0.0395819 -3.27881e-22)
(0.970561 -0.0415392 -7.69221e-22)
(1.01777 0.0654657 -1.26517e-21)
(1.09327 -0.00988862 2.581e-21)
(1.1616 -0.161816 3.25357e-21)
(1.06399 -0.129075 -1.66067e-21)
(0.979079 -0.00158475 5.08711e-23)
(1.05748 -0.0135384 1.79805e-21)
(0.945294 0.0257325 -7.80413e-21)
(1.13269 0.00806528 -1.71999e-20)
(1.00028 -7.48556e-05 1.3547e-24)
(0.968897 0.0725727 3.61261e-20)
(1.03428 -0.0583486 -3.91758e-22)
(1.01222 -0.0865031 1.62555e-21)
(1.04851 0.11676 -1.40802e-20)
(1.01616 -0.0217461 1.26063e-22)
(0.990882 -0.00878669 -1.45021e-22)
(0.999406 -0.00043273 -2.35736e-24)
(1.15067 -0.0647971 1.14692e-21)
(0.967913 -0.0188518 -6.76041e-22)
(1.00029 -1.41201e-05 1.43234e-24)
(1.14476 0.130825 -5.88727e-21)
(1.24417 -0.125412 -1.17608e-21)
(1.01152 0.0504474 -1.4661e-20)
(0.999304 -0.000101909 -7.44224e-25)
(1.00026 -0.0040103 -1.38073e-23)
(0.983939 -0.0486544 -4.9391e-22)
(1.00001 -8.08736e-05 1.43204e-25)
(1.06187 -0.163207 -1.04092e-21)
(1.17938 -0.157888 -1.46736e-21)
(0.999737 -0.00402188 1.21815e-23)
(1.00926 -0.0680509 -4.78515e-22)
(0.948206 -0.0144369 5.3096e-22)
(1.0478 0.105895 -1.51863e-21)
(0.988701 0.0894371 8.57131e-21)
(0.997246 -0.00424892 3.60202e-23)
(1.00296 -0.00103684 -7.1184e-25)
(0.999699 -0.0910183 -2.58532e-21)
(0.984883 0.0814043 2.7336e-20)
(1.00483 -0.0310582 4.05903e-22)
(0.980017 0.0530033 -9.58729e-22)
(0.983376 -0.0112759 -5.87499e-23)
(0.89492 0.0420601 -1.41477e-20)
(1.03813 0.0128505 -3.2382e-21)
(1.12807 0.0571079 -1.94687e-20)
(0.916279 0.0525212 -1.54631e-20)
(1.27398 -0.0300704 -3.8761e-23)
(0.990834 -0.00281725 -4.6695e-23)
(1.15253 -0.0521484 1.10283e-21)
(1.00882 -0.0320757 -4.68849e-23)
(0.990948 0.0808863 6.93153e-21)
(1.01664 0.0566904 1.99332e-20)
(0.97281 -0.00776084 3.49673e-22)
(1.25237 -0.0911515 2.34739e-21)
(1.11873 -0.0225802 -4.28939e-22)
(1.0625 -0.0745731 -2.93872e-22)
(0.995676 -0.000294281 -7.19021e-23)
(1.2603 -0.105656 2.48066e-21)
(1.00027 -2.70346e-05 2.2041e-24)
(1.04518 0.102685 8.80087e-21)
(0.946893 -0.0135785 -2.02542e-21)
(0.994164 -0.0595779 -2.6009e-22)
(0.996949 -0.0285511 2.929e-22)
(1.00763 -0.0545872 1.70344e-21)
(1.15163 0.0947767 1.39116e-21)
(1.19303 0.0147309 -6.36894e-21)
(0.998342 -5.78132e-05 3.68425e-23)
(1.02552 -0.0484353 -3.10646e-22)
(0.999895 -0.000125788 1.0755e-24)
(0.896124 0.0391833 1.05944e-20)
(0.94964 0.0232025 1.6063e-20)
(0.995329 -0.00102941 -3.84058e-23)
(0.974527 -0.0123344 -3.74048e-22)
(1.03304 -0.0355728 3.58431e-22)
(1.01834 0.0595649 8.56872e-21)
(0.945775 -0.0216544 -1.05795e-21)
(1.21123 0.0946903 -2.54467e-21)
(0.967257 -0.0455565 2.10014e-22)
(1.00611 0.0821551 -6.25104e-22)
(1.13156 0.0611917 -2.20383e-21)
(0.967092 -0.0205298 -4.6335e-22)
(0.902739 0.0212352 -2.16754e-20)
(1.05048 -0.00233849 -1.67675e-21)
(1.01399 0.0868299 -1.86253e-20)
(0.993459 -0.0131078 2.26157e-23)
(1.02897 -0.139928 4.5603e-21)
(0.977353 0.0040845 -5.23372e-20)
(1.01464 -0.0402567 3.62213e-22)
(0.903001 0.0699701 -7.6916e-21)
(1.02687 0.0693975 1.09632e-21)
(0.905985 0.0237901 -5.19969e-21)
(0.991321 -0.00290829 3.0738e-23)
(0.992347 -0.000554408 1.98151e-22)
(1.02932 -0.0878686 -4.471e-22)
(1.16347 -0.0408217 -5.87651e-21)
(1.01495 -0.0215835 -1.4082e-22)
(1.02828 -0.0793201 -1.45303e-22)
(1.01017 0.0768206 1.6898e-21)
(1.0052 0.0888852 5.77171e-21)
(1.03975 0.00235714 4.62673e-24)
(0.987585 0.0794111 -1.95334e-20)
(0.910858 0.0747862 4.20972e-21)
(1.13006 0.105988 1.51169e-20)
(0.999015 0.00686805 -3.59483e-20)
(1.04459 0.0332912 -8.32552e-21)
(1.00523 -0.0164825 -2.15751e-22)
(1.03491 0.0663844 -9.73885e-22)
(0.993519 -0.0741088 -5.98151e-22)
(0.968807 -0.0444687 5.50801e-22)
(0.99882 -0.00118701 3.32536e-24)
(1.05629 -0.0746725 6.43642e-22)
(1.11306 -0.143495 -4.89624e-22)
(1.07993 0.0391415 7.01153e-21)
(1.08183 -0.00876411 4.83356e-21)
(1.00252 0.0287507 2.95354e-21)
(1.0097 -0.0468892 9.85378e-22)
(1.12148 -0.0137724 2.58484e-21)
(1.00383 0.0226741 -3.44714e-21)
(1.01 -0.0336134 4.75144e-22)
(1.09522 -0.0869869 -5.53837e-24)
(0.999926 -0.00015135 -1.37166e-25)
(1.00045 -0.000212696 1.78619e-24)
(1.07879 0.0353733 -3.04208e-23)
(0.995099 -0.0640665 -7.53581e-22)
(0.974237 -0.0414954 8.64168e-22)
(1.00049 -0.000202499 -2.55876e-24)
(1.00011 -0.00278812 2.00937e-23)
(1.11805 -0.0266162 -7.48875e-22)
(0.999464 -6.72806e-05 1.42586e-24)
(1.24426 0.0463911 -3.53649e-22)
(0.89759 0.0316969 2.73286e-20)
(1.13693 0.131007 9.0077e-22)
(1.11198 0.0701125 -5.72487e-22)
(0.968886 -0.00757151 -5.4955e-22)
(1.02876 0.092184 6.79961e-21)
(1.23503 0.0718379 -3.52475e-21)
(1.00526 -0.0289417 -2.36998e-23)
(0.975158 -0.0137166 -3.6368e-22)
(0.997646 -0.0036124 1.67368e-25)
(0.999353 -0.000385979 7.50827e-25)
(1.00179 -0.00454586 -2.82988e-23)
(0.997599 -0.0303245 2.55687e-22)
(1.04405 -0.139033 2.39739e-21)
(1.09725 0.0866645 2.20314e-20)
(1.18928 -0.0401458 1.00447e-21)
(0.965396 -0.00352435 1.29886e-22)
(0.999902 -8.99066e-05 -9.03457e-26)
(1.00132 0.0507731 1.96964e-20)
(1.25189 -0.0133854 -2.42422e-21)
(1.26139 -0.0648505 2.98002e-22)
(1.01694 -0.0413734 -4.00497e-22)
(1.21443 0.0716496 5.18467e-21)
(1.05449 -0.0775476 -2.75183e-22)
(0.983837 -0.000849005 -9.94871e-23)
(1.00237 0.0191136 1.7334e-20)
(0.979311 0.000782406 -6.72119e-20)
(1.066 0.127855 -1.85199e-20)
(0.990051 -0.000394962 -4.87758e-22)
(1.06339 0.127129 1.43597e-20)
(0.969422 -0.00545093 2.1283e-22)
(0.987523 -0.0442933 -6.28455e-22)
(1.12254 0.12366 -1.69805e-20)
(1.00026 -9.24072e-05 2.58926e-24)
(0.991122 -0.0289331 -8.74852e-23)
(1.16335 0.0969626 4.79649e-21)
(1.12616 0.0964874 1.74792e-20)
(0.96837 -0.0221572 -1.16056e-22)
(1.02201 0.05968 1.3088e-21)
(0.962806 0.0936011 -1.7148e-21)
(1.015 0.0287309 -3.99828e-20)
(0.965228 -0.0363845 1.18714e-21)
(0.953614 -0.00848002 -7.06888e-22)
(1.04823 -0.0611791 4.11911e-23)
(1.11243 -0.00200348 4.95426e-22)
(1.02163 0.0131967 -9.77963e-21)
(0.995563 -0.00139876 -1.42375e-23)
(0.974653 0.0095227 -1.959e-20)
(0.994191 -0.0451838 1.35404e-21)
(1.03359 -0.13964 -3.08697e-21)
(1.14886 -0.0465891 1.31364e-21)
(0.934077 0.0908307 5.58556e-20)
(1.09871 0.0917618 -1.82078e-20)
(1.0137 0.0569238 -2.09505e-20)
(1.18827 -0.151534 7.19632e-22)
(0.963016 0.00227852 -2.98529e-20)
(0.969699 -0.0186022 6.80169e-22)
(0.988792 -0.0426236 4.53625e-22)
(0.924412 0.0110983 1.04082e-20)
(1.07661 -0.0268043 -1.2205e-21)
(1.04415 -0.128799 -4.21893e-22)
(1.01535 0.0802535 -4.28719e-21)
(1.00463 0.0789273 -1.31258e-20)
(0.979242 -0.0376818 -7.85755e-22)
(1.02626 0.0172466 -2.21283e-20)
(0.985357 0.0848301 -3.63005e-21)
(1.00539 0.0731316 1.715e-20)
(1.0389 0.108316 5.63813e-21)
(1.01181 0.0802898 2.76723e-20)
(1.05582 0.0743316 -1.48834e-20)
(0.987231 -0.00358662 1.98794e-22)
(0.970843 -0.0201299 8.15795e-22)
(1.00276 -0.00728062 -1.41135e-23)
(1.01423 -0.114477 3.23907e-21)
(0.993559 0.021252 -5.06827e-21)
(1.0197 -0.121017 1.88968e-21)
(1.18054 0.0916967 -4.35646e-22)
(1.15114 0.0525211 -1.1616e-20)
(0.975117 -0.0480131 6.03435e-22)
(1.2372 0.0442695 2.21441e-23)
(1.1704 0.109744 -4.70158e-21)
(0.992154 0.00897206 -1.54858e-21)
(1.22794 0.0340047 2.51127e-21)
(0.999751 -0.00336699 -6.43403e-24)
(1.0608 -0.0132254 9.07167e-23)
(0.98704 -0.0477826 3.0783e-22)
(1.23536 -0.0622489 1.07396e-22)
(1.25275 -0.0604986 -3.98388e-22)
(1.02332 -0.128552 6.25081e-22)
(1.03993 0.103987 3.18928e-21)
(0.976744 0.0915566 2.89123e-20)
(1.17563 -0.0245298 2.99977e-21)
(0.996964 0.00813493 1.59086e-20)
(0.903228 0.0616531 -1.89101e-20)
(0.998454 -0.000107876 -5.32861e-24)
(1.00327 -0.00105921 1.31652e-24)
(0.996913 -0.00549454 -8.00392e-23)
(0.973735 -0.00819823 1.22359e-22)
(1.08022 0.0822311 -1.16416e-20)
(0.924485 0.0126612 -2.26012e-20)
(1.13475 0.0116143 1.48245e-20)
(1.03029 0.0986961 4.07631e-21)
(0.983365 -0.0228998 -4.446e-22)
(1.07254 0.11803 2.44159e-20)
(1.06919 0.124791 7.80244e-21)
(1.23766 -0.116348 3.99596e-22)
(0.959722 -0.0118515 6.81066e-22)
(0.947039 -0.020455 6.49643e-22)
(1.18467 0.0956676 1.18978e-21)
(1.0127 -0.0412558 1.85915e-22)
(1.18781 -0.0350836 1.59385e-21)
(0.97226 -0.0384963 1.74388e-22)
(0.954318 -0.0378825 -1.69943e-21)
(1.02125 0.0829698 3.06372e-20)
(0.99231 -0.00246543 9.55282e-23)
(1.02649 -0.0554303 -9.00853e-23)
(1.00655 0.0875187 1.43237e-20)
(1.23538 0.0360928 1.05503e-20)
(0.941765 0.0770754 6.36926e-21)
(1.01745 -0.0818294 -7.96595e-22)
(1.04238 0.0113129 1.06242e-20)
(1.24382 -0.0667552 7.15238e-22)
(1.00143 -0.0676558 2.91702e-22)
(0.977743 0.00719284 -7.20465e-21)
(0.98959 0.000486382 4.35747e-20)
(0.990364 0.0273636 -7.87099e-21)
(0.9948 -0.0322574 -6.08861e-22)
(0.938412 0.0158405 2.46767e-20)
(0.967046 -0.0334724 6.03199e-22)
(0.974662 0.0681148 9.00896e-22)
(1.11986 -0.0598318 -6.31642e-22)
(0.987452 0.0430529 -4.46988e-21)
(0.984245 -0.0455718 3.87132e-22)
(1.00005 -0.000216244 -1.95893e-25)
(0.987322 0.0378225 1.48233e-20)
(0.972601 0.0611978 1.72352e-20)
(0.976948 0.0741441 -2.76761e-20)
(0.988301 0.0327674 -1.72577e-20)
(1.07233 0.0056596 -3.77527e-20)
(1.12966 -0.0145532 -2.02847e-22)
(1.06857 0.0717442 -2.89043e-20)
(1.04112 -0.12484 1.04559e-21)
(0.99634 0.0176528 5.19188e-20)
(1.02164 0.0533934 -2.60016e-20)
(1.24533 -0.0182319 2.98225e-21)
(1.08496 -0.0113995 -5.10814e-21)
(0.987625 -0.00340589 1.10885e-22)
(1.28005 -0.0243938 1.14057e-22)
(1.02729 0.0856922 -5.19746e-21)
(0.954777 -0.029553 4.49354e-23)
(0.969257 -0.00463416 -6.40801e-22)
(0.990992 0.00469798 -1.03027e-20)
(0.982763 0.0463415 -3.17808e-20)
(0.991345 -0.0518424 -6.07938e-22)
(0.990367 0.0503992 2.32527e-20)
(1.02597 -0.136378 1.08648e-21)
(1.21336 0.0657434 -8.57418e-21)
(0.993602 -0.000317263 -1.43929e-22)
(0.977669 0.0499231 -1.78637e-20)
(0.971811 0.0542623 4.54411e-20)
(0.905729 0.0350183 4.22358e-20)
(0.982224 0.0871714 3.76929e-20)
(0.996892 -0.000370765 -1.52339e-23)
(0.983569 -0.0248199 2.92689e-22)
(0.998661 -0.0012238 -2.81052e-23)
(0.998008 -0.0709611 -2.4099e-21)
(0.941903 0.0601295 -9.06539e-21)
(1.12522 0.0780278 -2.5314e-20)
(1.03552 0.0939751 -3.04151e-22)
(0.954742 -0.036347 1.10174e-21)
(1.04494 0.0363354 2.61526e-20)
(1.03521 -0.0346668 -4.43224e-22)
(0.941484 0.0689463 1.31315e-20)
(1.08595 -0.0941174 -1.83981e-22)
(0.99506 0.00706188 1.75956e-20)
(0.993783 -0.000313039 -8.97585e-23)
(0.949962 0.0565827 -3.04176e-20)
(0.933818 0.0730995 -3.66007e-20)
(0.981926 -0.025994 -7.61025e-22)
(1.17861 0.0398748 5.66424e-21)
(0.951163 0.0479516 -3.0341e-20)
(0.996354 -0.000563151 6.10762e-23)
(0.922275 0.034988 -4.75765e-21)
(1.0457 -0.0685608 7.40355e-23)
(0.996362 -0.000383983 -1.2465e-23)
(0.958154 -0.0130778 -4.77139e-22)
(1.01411 0.0901138 -1.81903e-20)
(1.14896 0.0691716 -1.49972e-20)
(1.00936 -0.0961009 1.47393e-21)
(0.994647 0.087616 1.48068e-21)
(0.929386 0.0818713 2.42749e-21)
(1.06883 0.120533 -2.64746e-20)
(1.0541 -0.0101594 -9.15439e-22)
(1.00014 -0.0629758 4.63205e-22)
(1.14804 -0.0589736 -1.40128e-21)
(0.98366 0.05233 2.61841e-20)
(0.930905 0.0351522 -2.75055e-21)
(0.900589 0.0338501 2.73135e-21)
(1.12373 0.067794 3.91395e-21)
(1.00063 -0.00978689 2.62265e-23)
(0.976973 -0.00177359 3.45666e-23)
(1.02968 0.0884506 -1.84569e-20)
(1.00196 -0.00757906 1.78158e-23)
(0.985044 -0.00523036 -1.70647e-24)
(1.00309 -0.0118968 -1.02729e-23)
(0.994646 -0.0281749 -3.00512e-22)
(1.086 -0.139698 1.73807e-21)
(1.17634 -0.139126 -9.43231e-22)
(0.964214 0.0733072 -4.02918e-20)
(1.0197 -0.0458002 1.60985e-23)
(0.998991 -0.000983363 1.79471e-23)
(1.02772 0.0558621 -4.05257e-22)
(1.14526 0.0955919 1.23637e-20)
(1.00198 -0.012059 -2.94747e-23)
(1.19025 0.0767118 -6.93908e-21)
(1.00178 -0.00127352 1.80741e-24)
(1.14006 0.0528777 1.32979e-21)
(1.01506 0.0302602 2.80187e-20)
(0.988187 0.0482618 -4.50925e-20)
(1.14256 -0.145555 1.13454e-21)
(1.16231 0.0403456 -7.81868e-21)
(0.994299 -0.0134127 -5.24822e-23)
(1.11694 -0.0940833 -3.69824e-23)
(0.995266 -0.00172906 -6.15817e-24)
(0.980368 0.0590626 -4.63916e-20)
(0.962677 0.071367 1.24643e-20)
(1.20822 -0.1437 7.96051e-22)
(1.17031 -0.154715 9.35316e-22)
(1.13309 -0.159751 3.62567e-21)
(1.03243 -0.0811965 6.00483e-22)
(0.99134 0.0840563 3.12417e-21)
(1.03503 -0.0740127 3.30495e-22)
(1.10695 -0.130481 4.98394e-22)
(1.07216 -0.153401 -9.06414e-22)
(1.11016 -0.0825973 2.66941e-22)
(0.914003 0.0350955 2.31579e-20)
(1.13593 -0.176566 -6.74543e-21)
(1.2291 0.0107394 -6.52392e-22)
(0.985141 0.0163871 9.01144e-21)
(0.99488 -0.000431862 8.55084e-23)
(1.1828 0.0200158 3.21048e-21)
(1.03729 -0.066482 -4.12981e-22)
(1.07211 -0.140807 1.53925e-21)
(0.995604 -0.00107013 -5.0237e-26)
(0.99975 -0.00285412 -1.86602e-23)
(0.915185 0.0441677 -3.94828e-20)
(1.0523 0.038527 2.006e-20)
(1.20443 -0.152245 3.51703e-21)
(1.27561 0.002748 6.99335e-22)
(1.05465 0.0654942 -1.08198e-20)
(0.993542 0.0493094 -3.65688e-21)
(1.02398 0.0566284 7.92524e-21)
(1.21654 -0.0818732 -5.411e-22)
(0.985102 -0.0511752 1.08209e-21)
(0.995355 -0.0432734 -3.54442e-22)
(0.988235 -0.0462087 -9.47297e-23)
(1.03483 0.0576499 -2.6419e-20)
(0.969636 -0.00588124 5.93428e-22)
(1.00464 -0.0641509 6.76981e-22)
(0.999668 -4.31779e-05 -5.93314e-25)
(0.972554 -0.0197583 -1.3604e-21)
(0.997747 -0.000632096 1.12534e-24)
(1.10655 -0.146335 1.24012e-21)