/*--------------------------------*- C++ -*----------------------------------*\
  =========                 |
  \\      /  F ield         | OpenFOAM: The Open Source CFD Toolbox
   \\    /   O peration     | Website:  https://openfoam.org
    \\  /    A nd           | Version:  7
     \\/     M anipulation  |
\*---------------------------------------------------------------------------*/
FoamFile
{
    version     2.0;
    format      ascii;
    class       volVectorField;
    location    "20.5";
    object      U;
}
// * * * * * * * * * * * * * * * * * * * * * * * * * * * * * * * * * * * * * //

dimensions      [0 1 -1 0 0 0 0];

internalField   nonuniform List<vector> 
7807
(
(1.06013 0.123897 6.26683e-21)
(1.04834 -0.0376683 -5.38432e-22)
(0.985491 0.0905562 -1.24659e-20)
(1.02842 0.059669 1.68097e-20)
(0.999321 -0.000739924 -2.28751e-23)
(0.999973 -4.68853e-06 -9.97041e-25)
(0.983949 0.0728776 -2.4002e-20)
(0.995675 -0.00117814 -4.7727e-24)
(0.999905 -0.000132926 -3.59043e-24)
(1.02053 0.00071023 -7.24845e-22)
(0.999974 -6.2841e-06 1.10774e-24)
(1.00175 -0.00103716 -7.17288e-23)
(0.99342 -0.00138387 2.28383e-22)
(1.01659 -0.00163293 -4.27152e-21)
(1.01993 0.00113452 3.07235e-21)
(0.991869 -0.0124254 -6.56988e-22)
(1.06217 0.129963 -1.31844e-20)
(0.99115 -0.00174279 -8.13952e-23)
(1.00164 -0.00801715 2.36928e-23)
(0.978114 -0.0917289 -7.14825e-22)
(1.03031 -0.00382412 -1.47664e-21)
(1.00115 -0.000597662 1.24687e-22)
(1.01533 -0.00292546 3.43513e-22)
(1.00916 0.025722 -8.33955e-21)
(0.988297 -0.00213899 -3.69347e-22)
(1.05574 0.121861 -6.202e-21)
(0.999353 -0.000704004 -1.62231e-23)
(1.02012 -0.00159398 1.73023e-21)
(1.00455 0.0129367 -1.05333e-21)
(1.00284 -0.00859584 -2.76574e-23)
(0.987633 -0.0128473 -1.12883e-21)
(0.927409 0.0128064 3.30014e-21)
(1.01508 -0.00350695 2.15366e-21)
(0.999625 -0.000281392 2.38478e-23)
(0.999958 -3.04543e-06 2.25237e-26)
(1.02012 0.00038916 1.06514e-21)
(1.00331 -0.00946261 -1.19997e-23)
(0.98845 0.0713458 -3.79572e-21)
(0.996626 -0.00643982 5.38007e-22)
(0.999773 -2.64455e-05 1.64245e-23)
(0.996956 -0.00666282 -5.92391e-23)
(0.992029 -0.0115759 -2.26251e-22)
(1.00545 -0.101917 3.47793e-21)
(1.14041 -0.0393949 6.64773e-22)
(0.999922 -4.96155e-06 4.38597e-24)
(0.999947 -8.14374e-06 -1.13877e-24)
(1.00108 -0.000489108 -7.62886e-23)
(0.996476 -0.00585097 -3.15627e-22)
(0.999951 -1.86686e-05 -1.08817e-24)
(0.982411 -0.0925677 1.04416e-21)
(1.00259 -0.000923202 8.25364e-23)
(1.01998 -0.000716356 -1.78772e-21)
(0.985083 -0.00241601 -1.27424e-21)
(1.00918 -0.0272295 -6.15512e-23)
(1.02046 -0.000447797 -6.06929e-22)
(0.99614 -0.00181952 -4.43846e-23)
(1.00159 -0.00746405 -1.45693e-23)
(0.995702 -0.000966009 2.93489e-22)
(0.978788 -0.0150327 -1.92131e-21)
(0.999613 -0.000245127 -2.96924e-23)
(1.00003 -1.72401e-05 -1.19948e-24)
(1.00342 -0.000975343 9.47415e-23)
(1.01683 -0.00102533 -1.01474e-21)
(1.00189 -0.000899155 7.26285e-23)
(0.999319 -9.31195e-05 3.49656e-23)
(0.988111 -0.013433 1.77413e-22)
(0.999924 -0.000133527 3.07287e-24)
(1.00001 -1.77838e-06 5.24987e-26)
(1.13527 0.0704694 2.37372e-21)
(0.996641 -0.00553812 -1.02918e-22)
(0.999948 -1.08476e-05 1.07166e-24)
(0.968838 -0.051227 -4.48552e-21)
(0.988492 -0.00252037 1.87029e-22)
(0.980501 -0.00266981 2.44637e-22)
(0.991379 -0.00205705 2.58117e-22)
(0.966293 -0.0216422 -4.28749e-22)
(0.988798 0.0925084 2.00547e-20)
(1.02868 -0.00371852 1.88626e-21)
(1.07581 0.00154889 -3.17528e-21)
(0.953727 -0.039258 -5.04623e-21)
(0.993645 -0.00162809 -3.50986e-22)
(0.997528 0.043745 2.30072e-20)
(1.03457 0.00561714 4.64705e-21)
(0.97684 -0.00642112 1.2617e-21)
(0.998833 -0.0019407 -4.61604e-23)
(0.998553 -0.000124053 3.04955e-23)
(0.995323 -0.0016539 4.35826e-22)
(0.985135 -0.00289638 8.1341e-22)
(0.999464 -0.000892657 2.61375e-23)
(0.997054 -0.000269289 1.17711e-22)
(1.00475 0.0146871 7.84091e-21)
(1.17098 -0.0225834 -1.03826e-21)
(0.999902 -3.35091e-05 -3.07886e-24)
(1.00128 -0.00629688 -5.38488e-24)
(0.997198 -0.000603656 1.13599e-22)
(0.986086 -0.000916747 -1.89689e-21)
(0.971309 -0.0509933 2.55257e-22)
(1.01079 -0.0262186 2.94384e-22)
(0.998724 -0.00186107 1.46372e-23)
(0.999214 -9.33489e-05 1.28208e-23)
(0.956997 -0.00935967 9.51712e-22)
(1.07639 0.0062777 2.73734e-21)
(0.99733 -0.000732792 -2.80007e-22)
(0.99999 -5.84115e-07 -6.46315e-26)
(1.17366 -0.0107703 -7.93005e-22)
(1.02534 0.0262899 -7.53356e-21)
(0.955243 0.0111259 3.79368e-21)
(0.995894 -0.00167918 -1.7507e-22)
(0.999994 -1.56576e-06 2.05288e-26)
(1.02166 -0.0121029 -6.5066e-22)
(1.03163 0.0567158 -1.95293e-20)
(1.02237 -0.0741819 -4.40214e-21)
(0.999992 -1.89121e-06 -3.4748e-26)
(1.02319 -0.0125952 -1.39721e-22)
(1.02254 0.0250581 7.93114e-21)
(1.00031 -0.00044806 -4.03954e-24)
(1.06805 -0.0881653 -2.66248e-22)
(1.02588 0.0149936 -1.78949e-21)
(0.981861 -0.0403015 1.99512e-21)
(0.978709 -0.00371974 -2.79662e-22)
(0.963435 -0.00436289 -2.14764e-21)
(1.00034 0.0253622 -1.48599e-20)
(1.01186 -0.100508 -4.76808e-21)
(1.00796 -0.00680543 4.03398e-23)
(0.961188 -0.00567851 8.19692e-22)
(0.999224 -0.00103038 6.05252e-23)
(0.988965 -0.0095192 3.64825e-22)
(1.00213 -0.00712521 1.49816e-23)
(0.999362 -5.90798e-05 -7.94487e-23)
(0.987789 -0.0117525 2.59863e-23)
(1.2091 -0.0373278 -6.91556e-22)
(1.07059 -0.000645592 5.44465e-22)
(0.999529 -0.000387582 2.70981e-24)
(0.999379 -0.000909067 -5.32042e-23)
(0.976275 -0.00549554 3.53618e-22)
(1.02982 0.0504887 7.13565e-21)
(0.996045 0.0187722 2.59841e-20)
(0.999987 -1.24738e-06 -7.0085e-26)
(1.00603 -0.00263779 4.42002e-23)
(0.955578 -0.00550001 -2.86294e-21)
(0.984095 -0.00156959 -1.00834e-21)
(0.985705 -0.057871 -3.22988e-21)
(0.966498 -0.023736 5.82734e-22)
(0.981819 -0.00236345 -2.44295e-23)
(0.958573 0.00805433 1.43506e-20)
(1.01004 -0.0425692 -1.35144e-22)
(1.00968 0.0154663 -3.98244e-21)
(0.98058 -0.0187055 -1.05514e-21)
(0.978562 -0.00201424 2.88004e-22)
(0.999864 0.0364019 -7.41256e-21)
(1.02064 0.000956555 2.6323e-21)
(1.15799 -0.025977 8.54797e-23)
(0.998775 -0.00152282 -1.45486e-22)
(1.14066 0.0628488 3.08766e-22)
(1.03281 0.00523453 -4.82125e-21)
(0.99856 0.0756319 -1.95448e-20)
(0.960545 -0.0255835 1.79811e-21)
(0.99375 -0.000927011 7.47302e-23)
(0.945995 0.0507661 3.47649e-20)
(0.999955 -1.56275e-05 -1.02457e-24)
(1.00086 -0.00663608 6.5886e-23)
(1.00939 0.0284341 6.03882e-21)
(0.999984 -1.32131e-05 6.84713e-25)
(0.998409 -0.00408082 -2.77204e-22)
(0.996899 -0.000556062 -5.36963e-23)
(1.00276 0.0313471 -1.98201e-21)
(1.00136 0.0243038 7.36167e-21)
(0.937844 0.0556657 1.17599e-20)
(0.998181 -0.00392582 -1.54012e-22)
(0.998129 -0.000137726 -5.68571e-23)
(1.00001 -2.19115e-06 -4.08212e-26)
(0.974052 -0.00161764 -3.36913e-21)
(1.0003 -0.000397721 5.66778e-24)
(1.05011 -0.034042 6.20588e-22)
(1.00624 -0.00289561 2.90305e-22)
(0.976258 -0.0025813 5.63932e-22)
(1.16368 -0.000931357 -5.2965e-22)
(1.09186 0.0692533 1.99422e-22)
(0.999902 -4.27828e-05 1.69047e-24)
(0.999598 -0.000459143 -3.16821e-23)
(1.02919 0.0631303 -2.99436e-21)
(0.999957 -1.03562e-05 -4.43894e-25)
(0.999939 -4.84073e-06 7.13776e-25)
(0.9832 0.0778915 -2.00444e-20)
(1.0504 -0.0409435 -6.8832e-22)
(1.00884 -0.0618358 -2.35867e-21)
(0.983869 -0.0390733 -2.8405e-21)
(0.979999 -0.00432205 7.81985e-22)
(1.00711 -0.0437924 2.71014e-22)
(0.960075 -0.00367334 1.5663e-21)
(0.999983 -1.18464e-05 -2.16048e-25)
(0.972245 -0.0474826 -1.09636e-21)
(1.09402 0.0763727 -5.60988e-21)
(0.997294 -0.000942806 3.97892e-23)
(1.00005 -5.06707e-06 -9.78457e-25)
(1.06473 0.0714462 6.10926e-22)
(0.999043 -0.000236577 9.66887e-23)
(0.988587 -0.0113095 5.8112e-22)
(1.00446 -0.0412202 8.77925e-22)
(1.00001 -1.53939e-06 -1.78948e-26)
(1.00064 -0.00158257 -2.20368e-23)
(1.02664 0.049701 8.89024e-21)
(1.08102 0.0817819 -7.5509e-21)
(0.99601 0.0659771 -2.62736e-21)
(1.06386 -0.0817194 2.046e-21)
(1.02617 -0.0705782 9.80157e-22)
(1.11648 -0.11797 -7.45893e-22)
(1.02038 -0.00201609 5.202e-21)
(1.02471 0.0465313 -2.82538e-21)
(0.999888 -7.04256e-06 -5.11829e-24)
(1.00003 -1.51468e-05 3.0001e-25)
(0.977822 0.00273145 -1.42161e-20)
(0.993129 -0.0111178 -2.22517e-22)
(0.999513 -0.000340007 -2.61233e-23)
(0.974615 -0.0467975 2.27606e-21)
(0.988408 -0.0100583 -4.27731e-22)
(1.0078 0.0710348 -2.19048e-20)
(1.00489 0.0683412 -4.57282e-21)
(0.982805 -0.0593228 8.52084e-22)
(0.920581 0.0265017 -1.28214e-20)
(0.999104 -0.000281439 -7.25934e-23)
(0.99152 -0.00138833 2.82456e-22)
(0.957364 -0.00785187 1.19236e-21)
(1.02881 0.000251257 -1.08655e-21)
(1.00974 -0.129122 -4.44689e-22)
(1.0813 0.1227 -1.30992e-20)
(0.948009 0.0427325 -2.95575e-20)
(1.00004 -8.12219e-05 7.79542e-25)
(1.00792 -0.00629593 1.49367e-22)
(1.02403 0.0171251 9.71792e-21)
(0.996632 -0.00475156 -3.7333e-22)
(1.02818 0.0153682 -1.22421e-21)
(0.999545 -0.000978987 -1.22127e-23)
(0.916178 0.0600222 2.37632e-20)
(0.999818 0.0698516 4.27174e-21)
(0.995357 -0.00136984 2.66376e-22)
(1.00281 -0.00716585 -2.95422e-24)
(0.999778 -3.40298e-05 -3.04509e-23)
(1.11538 0.0979748 2.85182e-21)
(0.999948 -5.49666e-06 1.83281e-24)
(0.995178 -0.00902305 1.91282e-22)
(0.940393 -0.0201568 1.86908e-21)
(0.999946 -1.56212e-05 -4.3595e-25)
(0.9989 -0.00229272 -4.07925e-23)
(0.999638 -0.000953547 1.7437e-23)
(1.05913 0.043062 7.31042e-21)
(0.999984 -1.74161e-05 9.39847e-25)
(0.997364 -0.000183371 -1.19636e-25)
(0.956205 -0.0392265 5.87028e-21)
(0.941674 0.0070125 -7.24537e-21)
(1.06987 -0.00516082 -7.07444e-22)
(0.933498 0.037086 1.75566e-20)
(0.999969 -3.72508e-06 -9.04724e-25)
(1.00212 -0.041884 -1.93433e-23)
(0.999849 -0.000232187 -1.12826e-23)
(0.993642 0.0769362 -1.97081e-20)
(1.00314 -0.000658359 -1.24268e-22)
(0.994058 0.0246247 8.5598e-21)
(1.00207 -0.00863239 4.74885e-23)
(1.00056 -0.00168847 1.83565e-23)
(1.02662 -0.0312719 2.11217e-22)
(1.0203 -0.00101007 -4.81518e-21)
(1.00043 -0.000267827 1.3998e-23)
(0.999834 -2.89945e-05 1.87769e-25)
(1.00038 -0.00036063 2.94983e-23)
(0.996444 -0.00504987 -3.40658e-22)
(1.0158 -0.0645793 2.85263e-21)
(0.999969 -5.8175e-06 5.95799e-25)
(0.962309 -0.0245054 1.25855e-21)
(0.99699 -0.000686618 -1.26203e-23)
(0.999894 -2.69486e-05 3.20863e-24)
(0.999494 -0.000431342 8.73422e-24)
(0.987472 0.0430352 2.08712e-20)
(0.995604 -0.000250372 1.03851e-22)
(0.999523 -4.25003e-05 -6.87942e-24)
(0.967239 0.00180211 2.69509e-20)
(0.99878 -0.00219034 -8.65178e-23)
(1.04911 0.0922525 -7.16079e-21)
(0.999834 -0.000212476 1.86369e-23)
(1.00647 -0.0202337 -2.54126e-22)
(1.00001 -1.1827e-06 -2.15862e-26)
(0.981931 -0.0319264 -1.05497e-21)
(1.0283 4.59979e-05 1.70416e-21)
(1.16535 0.00862418 6.40909e-22)
(0.978887 -0.0164117 1.64334e-21)
(0.999661 -0.000467019 3.79917e-23)
(0.977266 -0.0771422 1.54994e-21)
(0.997299 -0.000117432 4.82227e-22)
(0.999903 -9.52987e-06 2.72406e-25)
(1.00036 -0.000314455 -2.60746e-23)
(0.998171 -0.00286121 1.27156e-22)
(0.994266 -0.000693681 -3.18673e-22)
(1.00244 -0.000803206 -1.37448e-22)
(0.998946 -0.00154501 5.14541e-23)
(0.978085 -0.00597819 2.02562e-22)
(1.02041 -0.0623083 -2.04206e-21)
(0.97882 -0.00468699 8.47678e-22)
(1.13342 -0.0315095 -1.53338e-22)
(0.973303 -0.0045637 -1.08186e-21)
(1.00717 0.0926537 2.25769e-21)
(1.003 0.0947515 -1.66085e-20)
(0.998779 -0.00054594 -6.95394e-23)
(1.18782 0.00734536 -2.90506e-21)
(0.999988 -1.96571e-06 -3.89197e-26)
(0.998097 -0.00358838 -1.61205e-22)
(0.989453 -0.000539164 1.91895e-21)
(1.00699 0.0230434 4.99031e-21)
(1.03573 0.00980379 -4.61818e-21)
(1.00007 -2.66185e-05 2.48343e-24)
(0.998215 -0.00338086 -1.31978e-23)
(0.97309 -0.00550579 8.15578e-22)
(1.04538 0.0367959 -2.90686e-21)
(0.99917 -0.000939638 4.17323e-23)
(1.00273 -0.00067471 8.15311e-23)
(1.00097 -0.000832819 -5.61124e-24)
(1.1164 0.0241718 2.79458e-21)
(1.20866 -0.0503715 -4.43625e-21)
(1.02389 0.115336 1.09485e-20)
(0.998893 -0.000113023 -5.91028e-23)
(1.05939 -0.0389656 9.49278e-22)
(0.999913 -4.70947e-05 -2.93652e-24)
(1.00389 -0.00636864 -2.15084e-22)
(0.99996 -7.90353e-06 -3.06308e-25)
(0.985754 -0.0184332 3.02745e-22)
(0.999745 -4.04281e-05 -5.94744e-24)
(1.01058 -0.0199471 5.95176e-23)
(1.21168 0.0104152 3.43146e-21)
(0.97356 -0.0240533 2.10337e-21)
(1.00758 -0.0197116 4.58543e-23)
(1.00709 -0.00563275 -1.83657e-22)
(0.999482 -6.3368e-05 3.18293e-23)
(1.02376 -0.01621 4.56993e-22)
(0.996325 -0.0168607 3.92907e-22)
(1.07081 0.0106708 -1.74285e-21)
(1.05445 0.0408844 3.28232e-21)
(1.1697 -0.129025 1.00491e-22)
(1.13756 -0.0489871 -2.24765e-21)
(0.995075 -0.000173521 -5.27685e-22)
(1.00417 -0.00316931 2.62133e-22)
(0.942928 -0.0190504 -7.00077e-22)
(0.930793 0.0532049 -3.59935e-20)
(1.11784 -0.0502949 2.55011e-21)
(1.0239 -0.00981739 -2.02346e-21)
(0.92203 0.0311149 -1.76987e-20)
(0.999033 -6.19563e-05 2.90663e-23)
(0.99856 -0.000682519 -2.22253e-23)
(1.15475 -0.0363269 -2.12991e-21)
(0.999056 -0.00168854 -3.4105e-23)
(1.01039 -0.0395353 2.79877e-22)
(1.00483 -0.00158013 9.73956e-23)
(0.998056 -0.000187432 -4.74729e-23)
(0.998526 -0.000168675 -7.53046e-23)
(1.02835 0.0224105 5.74924e-21)
(0.999945 -0.000114433 -7.19197e-25)
(1.00042 -0.000215384 -1.25121e-23)
(1.00006 -1.06544e-05 1.6861e-24)
(0.997384 -0.000350264 2.68723e-22)
(0.994169 -0.00776042 4.77205e-22)
(0.999988 -1.25653e-06 4.66793e-26)
(0.999153 -0.000140774 7.66459e-24)
(0.979889 -0.0142253 5.59784e-22)
(0.969184 0.00583463 8.96228e-21)
(1.00927 -0.0207507 1.94932e-22)
(0.993217 -0.0103706 8.24391e-22)
(0.963172 0.0447483 4.07803e-21)
(1.00045 0.0253713 1.33016e-20)
(1.06091 0.000262306 -1.33855e-21)
(1.17883 0.0129652 8.76268e-22)
(0.979899 -0.00121945 1.78405e-21)
(1.00413 -0.00365056 -1.2613e-22)
(1.00719 0.0375626 -7.46486e-22)
(0.991377 -0.00107958 -6.57688e-22)
(1.0307 0.0899614 3.27405e-22)
(1.00665 -0.0471552 4.24845e-23)
(1.03391 -0.114796 -1.73847e-21)
(1.07656 0.0783647 4.6518e-21)
(1.03262 0.0955352 -9.41362e-21)
(0.96428 -0.0205874 2.69317e-21)
(1.03672 0.0079914 -2.94316e-21)
(1.08607 0.127555 1.23043e-20)
(1.04344 0.0922329 1.35613e-20)
(1.02123 -0.00192625 1.6322e-21)
(0.997455 -0.00104806 6.63397e-23)
(0.996402 -0.00165917 6.13883e-23)
(0.999933 -1.425e-05 -1.03568e-24)
(1.01474 -0.0259815 -8.44715e-23)
(0.991898 -0.000830908 1.55713e-22)
(1.00078 -0.00200283 -1.99679e-23)
(0.999922 -1.28472e-05 -2.00999e-24)
(0.99868 -0.000485221 2.73502e-23)
(0.974526 -0.075711 -2.56373e-21)
(1.10012 0.0349906 1.57425e-21)
(0.984482 -0.00388801 -9.70381e-22)
(0.99897 -0.0109619 4.95788e-22)
(0.997097 -0.000377954 -1.50251e-22)
(1.05659 -0.041528 -7.67582e-23)
(0.99437 -0.000788908 -5.1234e-22)
(1.00187 -0.00644082 3.48461e-23)
(1.09913 0.121927 1.96924e-21)
(0.998649 -0.00017032 -1.74786e-22)
(0.999982 -3.42051e-05 -9.39349e-25)
(0.999954 -0.00013908 -7.02903e-25)
(1.00003 -8.28771e-05 4.88409e-25)
(0.980451 -0.00517442 4.60522e-22)
(1.0269 0.0204151 -6.75133e-21)
(0.997261 -0.000214592 5.90229e-24)
(1.02026 -0.00846383 1.30708e-21)
(1.01813 -0.135117 3.35401e-21)
(0.990274 0.066549 -3.26112e-22)
(1.00325 -0.00651563 6.19312e-23)
(1.00558 -0.00411548 -4.73619e-23)
(0.995599 -0.00183648 -2.16762e-22)
(0.991696 0.043471 -2.04399e-20)
(0.999324 -5.20831e-05 2.2036e-23)
(1.02722 0.11964 -5.55217e-21)
(1.00765 0.0160931 -7.71163e-21)
(0.999913 -1.74451e-05 2.46224e-24)
(1.00458 -0.0479774 -1.3963e-21)
(0.99735 -0.000428762 -1.31296e-22)
(0.989172 -0.0589529 3.97981e-21)
(1.00044 -0.000115025 1.27314e-23)
(1.0564 0.00271928 1.92139e-21)
(1.00596 -0.0146031 2.14749e-24)
(1.00521 -0.00367951 1.37192e-23)
(0.999369 -7.94545e-05 -4.38873e-23)
(1.06393 0.0407515 3.513e-21)
(1.04129 0.0351162 1.15079e-21)
(1.00658 -0.064627 2.25563e-21)
(0.980409 -0.0171099 -1.07632e-22)
(0.998062 -0.00305998 -1.06256e-22)
(0.999185 -0.037781 -2.53133e-21)
(1.13593 0.0533983 -2.84614e-21)
(0.921742 0.0169627 -1.62115e-20)
(1.08256 -0.0754612 -2.0689e-21)
(1.00429 -0.00689828 -1.89673e-23)
(0.999995 -2.10914e-06 -1.78047e-26)
(0.988171 -0.00329247 -7.57514e-22)
(0.998365 -0.00018335 1.67006e-22)
(1.02262 -0.0162845 6.37191e-22)
(1.00168 -0.107092 -1.37982e-21)
(1.18675 -0.00581273 1.37977e-21)
(0.981841 0.0608486 -2.59272e-20)
(1.04916 0.0340105 4.72802e-21)
(1.11819 -0.105965 3.16541e-21)
(1.06432 0.0776744 2.01369e-21)
(0.99882 0.0244884 2.40187e-20)
(1.01699 -0.00231497 1.11701e-21)
(1.00094 -0.00194174 5.00818e-23)
(1.01947 0.052267 4.44788e-21)
(0.999227 -0.00165093 7.28044e-23)
(0.999853 -0.000123122 3.71276e-24)
(0.989998 -0.000606432 2.28484e-22)
(1.00007 -2.58626e-05 4.51739e-25)
(1.12647 -0.126448 1.69572e-21)
(1.00305 -0.0161214 -2.23559e-22)
(0.984086 -0.0315234 1.85082e-21)
(1.00152 -0.00133657 3.40302e-23)
(1.0595 0.0680885 1.04922e-20)
(0.998695 -0.000159446 -1.3115e-23)
(0.999981 -2.69896e-05 -6.40199e-26)
(1.02656 -0.11983 1.88632e-21)
(1.00133 -0.00114653 -1.98886e-23)
(1.09969 -0.00427483 -4.19974e-22)
(0.959368 -0.00874275 4.60394e-22)
(0.946747 -0.00929187 1.59923e-22)
(1.19134 0.0555826 -2.30519e-23)
(1.02185 0.0162485 -2.54542e-21)
(1.01862 0.00467017 1.54494e-21)
(1.0175 0.00438413 -6.09681e-22)
(0.999851 -2.12754e-05 1.00492e-24)
(1.10788 0.034442 1.20549e-21)
(1.07118 0.0146203 2.0009e-21)
(0.999566 -0.000499332 1.46443e-23)
(0.985011 -0.00445005 1.11787e-21)
(1.00048 -0.000170342 -1.41902e-23)
(1.01054 -0.0182979 -1.25707e-22)
(1.00747 -0.0262839 -1.59129e-22)
(1.00372 -0.00119287 1.38808e-24)
(0.99934 -0.00102188 -7.41663e-23)
(1.1142 0.0901255 -8.85494e-21)
(0.999983 -1.5741e-05 -9.85479e-25)
(1.00016 -8.74126e-05 -2.93677e-24)
(1.00162 -0.000902497 -1.69504e-24)
(0.985464 -0.00125491 7.0445e-22)
(1.01687 -0.0101202 8.39483e-22)
(0.983613 -0.0260811 -2.4752e-21)
(0.979975 -0.00239723 -4.13607e-22)
(1.01221 -0.0611352 1.32952e-21)
(1.03853 -0.145434 -3.65812e-21)
(1.02482 -0.0285761 -4.07722e-23)
(1.02322 0.0532371 -2.55136e-20)
(1.20171 0.0163704 -2.37527e-21)
(0.994318 -0.00176291 -3.37567e-23)
(0.914349 0.053798 2.80033e-20)
(0.973761 -0.0533106 3.97731e-21)
(0.993857 -0.00825802 1.54212e-22)
(0.981988 -0.00190141 6.96182e-22)
(0.99743 -0.0162847 -1.01453e-22)
(0.988248 -0.000933136 1.04328e-21)
(0.991188 -0.00267264 -2.15145e-22)
(1.02431 -0.0115804 -1.34374e-21)
(1.12626 -0.0539777 -5.81014e-22)
(0.999979 -3.16764e-05 -1.29046e-25)
(1.02072 -0.01116 -1.66262e-22)
(0.999927 -1.82771e-05 -1.22906e-24)
(1.00232 0.078822 5.23935e-21)
(1.13677 0.0768323 5.61797e-21)
(0.995911 -0.00133463 7.0144e-23)
(0.991489 -0.000632168 -8.94633e-22)
(0.999858 -3.16233e-05 -6.84764e-24)
(0.997194 0.0405597 1.5242e-20)
(1.02062 0.0931144 1.24912e-20)
(1.11046 0.0261409 -1.479e-21)
(1.12004 0.116369 -7.54805e-21)
(0.97352 -0.0569723 -1.77491e-21)
(0.998771 0.00620671 -2.21324e-20)
(0.999948 -0.000100715 2.12051e-24)
(1.04444 -0.0246158 1.04685e-21)
(0.991917 -0.000508865 -3.12506e-23)
(1.08436 0.066646 -2.08839e-21)
(0.941841 0.0361489 -2.1235e-20)
(1.13988 0.0464423 2.93493e-21)
(1.04423 0.02786 8.00776e-22)
(0.999597 -0.0108688 -1.15179e-22)
(0.999843 -5.46134e-05 -6.8189e-24)
(1.1227 0.101305 3.04841e-21)
(1.19568 -0.0292843 7.58516e-22)
(0.993875 0.0459071 -4.97708e-22)
(1.09254 -0.00560358 2.13066e-21)
(1.02661 0.0430805 7.42823e-21)
(0.994028 -0.00148875 -9.93577e-23)
(0.987776 0.061835 7.12453e-21)
(1.02501 0.0887451 4.36387e-21)
(0.992237 -0.00222758 -6.00091e-22)
(0.993524 -0.00213457 -2.2505e-22)
(1.13383 0.091542 1.00056e-22)
(0.948252 -0.00831185 -2.88598e-21)
(0.999931 -0.00011712 -3.2514e-24)
(0.988664 -0.00370791 9.90595e-22)
(0.941798 -0.0142225 2.28233e-21)
(0.985791 -0.0744852 -5.40807e-22)
(1.00817 -0.00218713 -8.57573e-22)
(1.00709 -0.00510951 4.71831e-23)
(0.999898 -0.00014554 -5.67477e-24)
(1.02205 0.0987132 -1.89011e-20)
(0.999939 -0.00982535 2.23687e-23)
(0.99992 -4.07936e-05 1.28646e-24)
(1.0202 -0.0568996 1.76545e-21)
(0.999595 -0.000316546 1.10598e-23)
(0.999828 -4.68363e-05 5.1536e-25)
(1.00433 -0.0106571 -1.51514e-23)
(1.04867 0.0672459 1.43865e-20)
(1.01792 -0.106025 2.57593e-21)
(0.956285 0.0399414 1.26128e-20)
(1.00005 -7.79295e-06 -1.18812e-24)
(1.0535 0.0711577 -1.49965e-20)
(1.01291 -0.0483076 1.26266e-21)
(0.999935 -0.000144255 -9.23938e-25)
(1.00002 -4.64791e-06 -2.80592e-25)
(1.00264 0.00990275 -1.26751e-21)
(1.04519 0.0576185 5.31795e-21)
(0.996645 -0.00178786 6.38107e-23)
(1.04189 0.044447 -6.71928e-21)
(1.00002 -1.51057e-05 2.16326e-25)
(1.04175 0.0493781 -9.41142e-21)
(1.15393 -0.131474 4.18392e-21)
(0.991914 -0.00188409 6.44353e-22)
(0.999214 0.0115606 -3.07694e-20)
(0.975154 -0.0437527 2.58801e-21)
(1.12428 0.110379 7.29439e-21)
(0.982318 -0.00178952 3.81214e-22)
(1.04585 0.0524079 1.22933e-20)
(1.04962 0.0610221 -3.84512e-21)
(0.985517 -0.00595172 1.70665e-21)
(0.980843 -0.00714354 -1.25779e-21)
(0.995334 -0.00834564 4.80796e-22)
(0.997754 -0.000427065 -4.54221e-23)
(0.999841 -0.000137556 9.9695e-24)
(0.999754 -0.00936023 -3.92349e-23)
(1.03487 0.0849011 -2.19834e-21)
(0.999978 -2.44725e-05 2.89473e-25)
(1.03779 0.0421719 8.90443e-21)
(1.03278 -0.105812 4.1798e-21)
(1.00262 0.0499913 6.11065e-21)
(1.03775 0.0379825 -1.00482e-20)
(0.941767 -0.0124982 -3.34631e-22)
(0.959058 0.0557974 -2.70174e-20)
(0.998703 -0.000850786 3.16066e-24)
(1.01444 -0.0238353 2.8068e-23)
(1.05174 -0.0748953 1.14942e-21)
(0.98863 -0.000787382 -7.09767e-23)
(0.99459 -0.00238599 3.02007e-22)
(1.01022 -0.0496353 -1.07627e-21)
(1.05073 -0.0164773 -1.233e-22)
(0.930276 0.0284272 3.29929e-20)
(1.00003 -1.45725e-05 1.1598e-24)
(0.998469 -0.000897537 5.50376e-23)
(1.01762 -0.0734117 6.83656e-23)
(1.00001 -3.69031e-06 2.15102e-26)
(1.00216 0.0846031 2.59704e-21)
(1.00136 -0.000984965 0)
(1.00001 -4.83585e-06 1.29628e-26)
(1.00014 -6.82201e-05 6.73843e-24)
(1.00031 -9.53612e-05 1.63418e-25)
(0.98613 -0.0171406 1.5719e-21)
(1.02027 -0.0153108 -4.5535e-22)
(0.998775 -0.000643909 8.42483e-23)
(0.99994 -8.9614e-06 2.12255e-24)
(0.994253 -0.00217319 1.59984e-22)
(1.00371 -0.0111105 1.5948e-23)
(0.989612 -0.114061 -3.72629e-21)
(0.970598 -0.00215964 1.9773e-22)
(1.01621 -0.00900852 1.5521e-21)
(0.999985 -1.15386e-06 4.20365e-25)
(1.10472 -0.153707 5.20813e-21)
(0.989208 -0.0022558 -3.78235e-22)
(1.12091 0.0830399 -4.74753e-22)
(1.00015 0.0107088 -4.3777e-21)
(1.00094 -0.00294108 5.33458e-24)
(1.10916 0.0722803 -8.00854e-21)
(1.00011 -7.39052e-05 5.77197e-26)
(0.989554 -0.00271962 5.68642e-24)
(1.02066 0.000747068 -3.04762e-21)
(0.994582 -0.00279041 -1.23976e-22)
(1.04932 0.0802146 -8.3585e-22)
(0.98918 -0.00484571 -7.68724e-22)
(1.04577 -0.0221519 -1.03199e-21)
(1.02112 0.0013712 -3.29825e-21)
(1.05399 0.0361387 -2.06819e-21)
(1.00625 -0.0134014 -8.14817e-23)
(0.991597 -0.00298951 1.74983e-23)
(1.07116 0.0680678 6.49177e-21)
(0.978415 -0.0820566 -3.06767e-21)
(0.99169 0.0816466 2.16832e-20)
(0.992519 -0.0035822 -7.3637e-22)
(1.0508 0.1042 -1.22781e-22)
(0.992549 -0.00304963 1.97825e-22)
(0.999103 -0.000352955 -5.65073e-24)
(1.04384 0.0249075 2.21256e-21)
(1.01306 -0.0272846 1.56379e-22)
(1.03195 0.00268086 4.52101e-21)
(1.0014 -0.000698137 2.26773e-23)
(1.00001 -3.69095e-06 6.16055e-27)
(1.00278 -0.131738 1.40146e-21)
(1.09756 0.115576 -1.07023e-20)
(1.00115 -0.00285554 -1.47106e-23)
(1.11794 0.0742921 7.34904e-22)
(0.989811 -0.0045029 -5.04341e-22)
(1.09522 -0.161315 -1.96016e-21)
(1.04333 -0.0380782 -1.67797e-22)
(0.983147 -0.0278696 1.41978e-21)
(0.99868 -0.000726042 -3.68601e-23)
(0.994797 -0.000388088 -1.22787e-22)
(0.972468 -0.0687736 -1.75445e-21)
(0.97492 -0.00590749 1.69015e-21)
(0.992124 -0.00275518 4.97629e-22)
(0.999876 -0.000340311 7.15755e-24)
(0.984509 0.0856939 -2.71136e-21)
(1.10635 0.0642548 4.82039e-21)
(1.02146 -0.00934452 -5.12443e-22)
(0.999849 -0.00010458 6.14712e-24)
(1.02334 0.0833185 -8.34326e-21)
(1 -1.78105e-05 -7.95825e-26)
(0.999861 -9.28923e-05 1.15418e-23)
(1.09806 0.0626832 4.16025e-21)
(1.00903 -0.0225954 -1.32902e-22)
(1.10702 0.104404 8.58821e-21)
(1.02042 -0.00252988 1.2167e-21)
(1.01471 -0.0112674 -7.92721e-23)
(1.0918 -0.0615433 1.29832e-21)
(1.05616 -0.132425 4.13028e-21)
(1.1915 0.047728 3.63401e-23)
(1.00098 -0.000699563 -4.70844e-23)
(0.95962 -0.010316 -1.56775e-22)
(0.999985 -4.24559e-05 -3.0558e-25)
(1.00405 -0.00969149 1.40087e-23)
(1.05334 0.0769172 5.45375e-21)
(0.986337 -0.00556227 1.18079e-21)
(0.997785 -0.00104609 7.65898e-23)
(1.01327 -0.0381733 -8.68432e-22)
(0.998451 -0.000774692 3.73264e-24)
(0.999662 -0.000854074 2.31908e-23)
(0.968808 0.00317358 5.59258e-21)
(0.992045 -0.0038674 -4.19263e-22)
(0.999564 -0.000547769 -5.0063e-23)
(0.999993 -2.84658e-07 -4.55093e-26)
(1.01484 0.00556038 6.74854e-21)
(0.974444 -0.0223223 -2.97668e-22)
(0.999739 -0.000415498 1.5577e-23)
(0.997842 -0.00053505 9.26548e-23)
(1.02005 0.0180689 2.78837e-21)
(1.06094 0.0102537 4.84186e-22)
(0.964408 -0.0183198 -1.68751e-21)
(1 -1.11776e-05 -1.25009e-25)
(1.00118 0.0109967 1.84089e-20)
(0.987489 -0.0147561 -1.05521e-21)
(1.05976 0.06201 -1.04501e-20)
(1.01069 -0.00111848 -1.38166e-21)
(1.01238 -0.00109932 3.21856e-21)
(0.972662 -0.00790593 2.35397e-21)
(0.999929 -4.4229e-05 -8.61924e-25)
(1.02046 0.000234 -6.2022e-22)
(1.06559 0.00792544 -6.20759e-22)
(1.16904 0.0526044 1.69822e-21)
(1.03933 -0.100363 9.43435e-22)
(1.03238 0.0796464 6.56868e-21)
(1.00466 -0.00143109 -2.06569e-23)
(1.07738 0.0719167 -8.93295e-21)
(0.999621 -0.0127755 -1.7844e-22)
(1.01625 -0.0545249 -2.93336e-21)
(0.999707 -0.000107679 -1.1199e-23)
(1.00243 -0.0171991 4.46249e-22)
(0.99991 -0.000327501 4.38628e-24)
(1.04035 0.030373 -6.59415e-21)
(1.06807 0.113804 -1.98905e-20)
(0.998822 -0.000887374 2.90344e-23)
(1.01595 -0.011401 -1.03935e-23)
(0.985993 -0.00268948 3.94671e-22)
(1.04306 -0.0867497 4.40722e-22)
(1.03746 -0.0924916 -2.0941e-21)
(0.998541 -0.000588452 5.45376e-23)
(1.0412 -0.025192 -2.97778e-22)
(0.986613 0.00133786 -9.27531e-21)
(1.16536 0.0344826 7.46709e-22)
(0.999956 -0.000123476 5.29391e-24)
(1.05662 0.0075842 -1.70107e-21)
(0.997324 -0.00764738 -2.60693e-22)
(0.998717 0.00131335 2.0384e-20)
(0.989878 -0.00380739 6.83221e-22)
(0.995652 -0.0240519 -3.64388e-22)
(1.01568 -0.0336482 -1.44857e-23)
(0.994299 -0.0248736 -3.00718e-23)
(0.998198 -0.0190158 -9.04556e-22)
(0.993854 -0.00236588 1.0928e-22)
(0.998846 -0.0126264 5.05103e-22)
(1.00145 -0.00540339 -9.46703e-24)
(1.05215 -0.0199588 3.15221e-22)
(1.00008 -1.96259e-05 -3.60777e-24)
(1.19363 -0.0925225 -1.70252e-21)
(1.15094 -0.00520969 -3.22773e-22)
(1.01105 0.0948602 1.54099e-20)
(0.96636 -0.0173092 2.49654e-21)
(1.09874 0.0998923 -4.37878e-21)
(1.00151 -0.000547371 8.38825e-23)
(1.06773 -0.0733539 -1.46604e-23)
(1.00346 -0.0358701 -1.00436e-21)
(1.01704 0.0312954 8.14973e-21)
(0.994224 -0.00302582 2.99586e-22)
(1.00008 -0.000141352 1.84704e-24)
(0.988063 -0.0154813 1.38659e-21)
(0.99609 -0.00813748 -1.83129e-22)
(1.0384 -0.022898 8.94281e-22)
(0.977499 -0.00412024 -1.37933e-21)
(0.979984 -0.00641277 4.25828e-22)
(1.12151 -0.0324121 -1.57242e-22)
(0.989052 -0.00154505 -6.12954e-22)
(1.01324 -0.0352337 6.36588e-22)
(0.987385 -0.0793128 2.27779e-21)
(1.00001 -5.84668e-06 8.30717e-27)
(1.05337 -0.0127161 2.06803e-21)
(0.989378 -0.0705987 -6.07557e-21)
(1.10487 0.086701 3.9297e-21)
(1.09233 -0.0687667 -2.41694e-21)
(1.03057 0.0022288 3.69084e-22)
(1.02511 -0.102149 -5.33667e-21)
(1.03 0.106283 4.14857e-21)
(1.03198 -0.0334161 -1.36826e-22)
(0.971984 -0.00691304 -1.38694e-21)
(1.01304 -0.0447741 -1.55673e-21)
(0.989379 0.00193596 8.95224e-21)
(1.15526 -0.0973523 1.1018e-21)
(0.98936 -0.00341229 -2.12465e-22)
(1.02708 -0.129761 -4.05816e-22)
(1.02473 -0.0646848 2.0418e-21)
(1.04293 -0.118588 -7.00084e-22)
(1.04053 -0.0797802 -2.28486e-21)
(1.07092 0.0616937 8.12374e-21)
(0.997792 -0.00123193 4.57225e-24)
(1.00646 0.0359656 3.03636e-21)
(1.00629 -0.00135839 1.46776e-22)
(0.99969 -0.000418339 -2.10878e-23)
(0.998997 -0.00188688 1.95077e-22)
(1.0526 0.00136446 -5.54149e-22)
(0.986724 0.00020957 2.60368e-22)
(1.00114 -0.0057733 -2.00015e-23)
(1.01635 -0.0504759 4.11395e-22)
(1.02012 0.0206385 -4.64642e-21)
(1.00002 -5.62763e-06 -5.66914e-26)
(0.98188 -0.00670026 9.92773e-22)
(1.01908 -0.0086776 1.13544e-21)
(1.07037 -0.0384515 -4.48121e-22)
(1.00638 -0.000727147 8.34951e-22)
(0.998694 -0.00164551 3.22329e-23)
(0.983737 -0.036278 1.55686e-23)
(0.997918 -0.00737187 -9.8777e-23)
(1.00002 -4.42965e-06 6.03578e-25)
(0.977401 -0.0429335 -4.39067e-21)
(1.04132 0.0745518 -2.27101e-21)
(1.01744 -0.0293023 2.18402e-22)
(0.986233 -0.00331019 -7.017e-22)
(1.00138 -0.000354549 -2.9831e-23)
(1.02271 0.0223766 6.11826e-21)
(0.999689 -0.000510241 -9.90198e-24)
(0.999033 -0.000479607 -3.76871e-24)
(0.999731 -0.000121336 -1.08703e-23)
(0.999351 -0.00178523 -5.63618e-23)
(1.15634 0.053539 1.87372e-21)
(1.0257 -0.0335936 -9.40287e-22)
(1.00659 -0.0169722 -7.56949e-23)
(0.98478 -0.00541587 -3.47303e-22)
(1.00003 -4.05581e-05 5.27639e-25)
(1.07604 -0.125635 5.61381e-21)
(1.19718 -0.0134057 8.0193e-23)
(1.08272 -0.135823 -2.6797e-21)
(0.996354 -0.0310761 -6.9713e-22)
(1.01148 -0.00832227 9.55263e-22)
(0.999843 -6.94973e-05 4.4215e-24)
(0.989969 -0.00976719 -5.05713e-22)
(0.958308 -0.0421742 -2.3432e-21)
(1.15474 0.0363819 3.7953e-22)
(1.00161 0.0483028 -2.0668e-22)
(0.998981 -0.00271499 4.79945e-23)
(0.946586 -0.0258087 1.14954e-21)
(0.996156 -0.00213898 -2.78133e-22)
(1.03001 -0.0307792 1.92832e-22)
(1.08285 0.0594152 8.39651e-22)
(1.00032 -0.00011246 -1.8506e-23)
(0.999877 -0.000166795 -2.492e-24)
(1.13166 0.0978697 7.97242e-22)
(1.14998 0.0180207 1.04122e-22)
(1.01544 -0.0141035 3.22037e-22)
(0.997634 -0.00134768 1.3828e-22)
(0.998445 -0.000265716 -1.15391e-23)
(0.965292 -0.0437631 5.84898e-22)
(0.99986 -0.000281476 -9.0584e-24)
(1.01534 -0.0309272 -5.96977e-22)
(0.992654 -0.000477006 1.21252e-21)
(1.00037 0.0128792 -3.63094e-21)
(1.04465 0.0797471 -1.18346e-21)
(1.06245 -0.0676384 1.08116e-21)
(0.993538 -0.0712457 2.22146e-21)
(1.00515 -0.00130641 4.00491e-22)
(1.01241 -0.022855 8.03465e-23)
(1.14201 0.00163702 1.5308e-22)
(0.992799 -0.0799408 -1.39211e-21)
(1.01598 -0.0431039 9.04864e-22)
(0.999999 -5.47247e-06 3.58664e-26)
(1.12919 -0.013268 -5.65699e-22)
(0.986414 -0.000863251 1.18512e-22)
(0.991541 -0.0895655 2.8009e-21)
(1.01694 -0.0268877 3.29616e-22)
(0.961605 -0.00985036 -3.07886e-22)
(0.999692 -0.00022649 -6.22086e-24)
(0.997627 -0.000957146 -5.97836e-23)
(1.03408 0.035941 7.76831e-21)
(0.974162 -0.00737225 -5.06639e-22)
(0.999989 -1.2401e-06 1.25797e-25)
(0.997913 -0.000291716 -1.21296e-22)