/*--------------------------------*- C++ -*----------------------------------*\
  =========                 |
  \\      /  F ield         | OpenFOAM: The Open Source CFD Toolbox
   \\    /   O peration     | Website:  https://openfoam.org
    \\  /    A nd           | Version:  7
     \\/     M anipulation  |
\*---------------------------------------------------------------------------*/
FoamFile
{
    version     2.0;
    format      ascii;
    class       surfaceScalarField;
    location    "13";
    object      phi;
}
// * * * * * * * * * * * * * * * * * * * * * * * * * * * * * * * * * * * * * //

dimensions      [0 3 -1 0 0 0 0];

internalField   nonuniform List<scalar> 
11380
(
168.478
-570.672
402.195
-776.953
14.9242
762.028
460.26
-377.247
-83.0126
686.802
254.293
-941.095
1510.33
-1069.39
-440.939
1216.26
-1527.1
310.841
9.0665
463.811
-472.877
169.123
-840.833
671.71
961.953
-1610.73
648.777
-1779.72
1686.16
93.5528
-542.946
1759.21
-1142.24
1935.98
-793.739
605.621
181.337
-786.958
-26.9912
-1323.86
1350.85
223.311
-2003.03
1021.8
-385.305
-636.493
-208.822
377.299
482.943
190.6
-673.543
1154.12
-1315.34
161.223
-318.982
374.071
-55.0889
1007.89
-1330.84
322.941
1221.71
800.144
-2021.86
76.6919
-1652.43
1575.74
-516.541
-1152.34
1668.88
473.219
181.915
-655.134
-209.594
-361.079
497.571
1012.76
1660.28
-1821.8
161.519
-110.326
-1686.69
1797.01
-1560.28
657.014
903.268
-310.958
652.332
-341.374
-184.339
-86.349
270.688
1294.36
-1217.67
355.347
-1407.22
1051.87
-1754.25
1754.25
103.202
1545.77
-1648.97
-1084.41
-475.876
676.152
-667.086
-387.728
941.936
-554.208
1331.74
-1317.14
-14.5929
-1100.12
712.389
622.572
399.225
-399.788
-22.628
422.416
-482.856
787.643
-304.787
-1618.36
1618.36
1253.54
-1437.84
184.307
-489.264
1710.98
1253.02
-311.089
1660.71
-1161.2
-499.503
64.6778
-383.66
2067.63
-1136.92
-930.71
1828.49
-168.206
451.435
156.033
-607.468
-471.759
976.946
-505.187
-1182.03
1285.23
-566.578
969.418
-402.84
396.883
757.233
660.437
-491.314
-437.587
589.868
-152.281
1190.55
-835.201
2308.23
-1080.7
-1227.53
1164.67
-2011.72
847.044
-1615.54
1588.55
440.496
-1582.74
-758.742
1250.3
-491.558
-670.678
359.72
1661.42
-699.467
-1106.93
-870.902
1977.83
717.54
-357.843
-359.697
690.512
562.512
-258.215
1511.75
102.971
-311.455
208.483
-284.632
757.851
-333.083
560.426
-227.343
-324.327
807.27
-318.895
-142.085
460.98
318.132
142.127
1474.56
-466.668
-1003.97
480.72
523.252
267.673
95.2449
-362.918
946.97
-341.349
-1709.18
597.691
1111.48
13.2215
-868.491
855.27
-276.339
590.236
-313.898
158.456
-1093.83
935.376
1050.63
-1066.26
15.6304
373.101
516.924
-890.025
-245.186
696.622
-1102.92
-482.669
1585.59
-676.835
949.522
-272.687
1353.29
-1463.62
-638.943
249.558
389.385
-470.207
-1011.48
1481.68
-535.99
-797.168
1333.16
575.155
-995.092
419.937
-262.388
-314.494
576.883
400.89
-297.919
-1043.52
571.757
955.563
-797.107
-110.4
943.641
-833.241
-203.605
411.066
-207.462
-656.877
-347.094
-386.722
961.877
1856.35
-1856.35
-504.243
-134.7
-955.768
1590.82
-635.052
413.973
-841.513
427.54
-922.099
355.521
-941.904
-1058.08
-1497.76
338.474
1159.29
-270.406
957.208
-328.63
619.621
-290.99
-1941.89
999.99
-1152.77
-344.992
578.2
-1533.97
1728.48
-1726.02
-2.46447
184.394
-594.463
410.069
-1485.75
987.391
498.358
278.253
219.884
-498.137
305.782
-638.865
235.59
-409.729
174.139
2025.08
-828.173
-1196.9
-541.87
142.082
614.031
841.213
-1455.24
-182.883
418.473
431.748
875.993
-1307.74
-903.367
388.637
514.73
-1051.02
1447.9
-1068.29
309.553
746.981
-94.6494
556.807
-325.997
-230.81
1028.22
-547.502
593.463
-1403.63
810.162
-1342.06
239.141
-541.348
265.009
-1223.23
952.823
1927.36
-1021.87
-905.496
276.797
1579.56
-2099.88
898.775
1201.1
356.699
-32.7733
-323.926
-222.867
478.607
-255.741
-98.2304
-386.377
484.608
-460.494
141.599
337.559
-132.991
546.964
427.713
373.572
-801.285
-2055.55
1137.85
917.695
461.112
-526.24
65.1279
218.056
-358.623
140.567
960.276
1064.8
1801.29
-255.523
729.319
-479.761
795.484
-1388.9
593.417
337.688
379.852
1067.98
-1054.76
-475.984
-303.837
779.821
469.927
-129.848
-340.079
795.302
-613.966
501.025
-735.575
234.55
503.332
1157.38
-1240.07
704.075
1033.11
-1549.65
-3.11715
-1439.42
1442.54
327.578
822.449
-1150.03
621.962
269.888
-891.85
-2277.54
1186.45
1091.09
-1145.64
-1131.9
118.584
382.441
959.067
-631.489
878.077
-897.875
19.7981
-2099.39
992.461
-219.581
-186.783
406.364
-42.1124
1770.6
-835.469
58.5164
-1032.33
-1067.55
-227.803
445.859
-673.772
169.529
-269.787
-471.365
741.152
1103.94
-1574.15
782.544
-1374.18
591.64
723.869
-469.576
1947.82
-1444.49
-378.284
-1375.96
32.6738
431.137
-527.196
542.12
27.2109
-579.973
552.762
566.978
-288.724
-599.488
275.784
323.704
782.472
-354.759
34.4846
322.215
1188.47
-1191.59
167.359
233.531
442.472
-712.259
618.379
-1005.1
-2026.78
2026.78
-274.349
-480.237
754.586
698.754
405.839
-1104.59
579.46
167.522
413.33
369.142
-2199.77
1328.86
-925.763
-680.353
1606.12
-479.881
-743.348
-293.942
602.721
-308.778
866.867
-263.928
-602.939
-457.912
642.306
356.083
-684.713
-376.593
-109.705
486.297
-1343.49
-478.308
674.322
-1154.2
-374.14
-1244.22
844.357
1463.88
305.329
-878.736
573.408
965.751
-343.179
1391.18
-797.714
439.693
-272.334
-323.908
-911.373
622.797
288.575
-390.883
-520.49
313.016
-411.246
-137.617
-168.58
306.197
-392.81
1091.56
433.688
-243.087
-386.488
1366.11
-166.78
-1199.33
-465.487
287.747
177.74
276.609
272.005
-548.614
-52.5727
-683.002
592.19
-1729.08
1136.89
1486.02
-871.985
-1058.59
-427.155
-1055.7
574.398
481.306
1405.24
-417.852
928.537
-1411.21
-200.041
-134.644
334.685
-467.732
577.892
-1628.91
427.858
903.878
273.858
361.477
-635.335
568.036
1186.21
1102.3
-710.016
-392.287
396.341
-209.543
-186.799
-1419.42
446.66
736.656
-1183.32
1473.22
-544.679
-515.391
974.102
-458.711
426.161
1186.14
-1612.3
47.4148
-724.25
-149.764
417.437
158.465
-342.804
557.11
471.111
-533.418
-1.00985
534.428
1024.51
-1307.64
283.131
667.189
-253.859
468.408
-1447.19
978.787
372.315
1688.83
-524.157
852.262
1075.1
-658.326
-1684.86
759.095
556.501
412.867
-969.368
457.8
79.1038
1750.13
-1829.24
1443.62
-379.492
-1064.13
1699.19
-1741.3
-365.192
-532.575
719.809
-187.234
-502.591
176.336
293.591
-373.13
-1225.92
214.441
-764.735
-638.89
-583.32
984.525
-401.204
-651.267
641.111
10.1562
654.779
-923.381
268.602
-640.401
310.585
329.816
-647.172
-753.132
376.677
376.455
-932.109
1400.52
-425.063
891.173
-466.111
-2205.32
5.55661
172.023
-530.552
358.529
139.946
1226.17
-71.7697
-602.002
154.243
-591.83
1486.98
-704.431
382.328
-460.65
78.3225
-561.545
561.545
1222.96
395.395
1778.29
-1227.84
590.026
637.815
846.964
-51.6617
1292.61
775.018
-540.958
1336.44
293.706
296.53
263.93
-796.505
214.577
-697.433
226.768
-438.735
211.968
-295.901
631.075
-335.174
97.4501
-393.351
-591.214
-564.68
1155.89
-405.897
542.487
-136.59
-1192.15
2032.03
-839.882
1288.26
-329.19
-397.625
135.237
-1993.54
841.199
1561.19
-865.01
-696.181
1987.04
-877.49
-1109.55
714.34
573.917
-239.746
466.514
-695.483
1185.15
-489.671
-769.235
1200.98
551.909
924.541
-1725.86
801.32
-593.093
-47.2235
640.317
284.104
272.703
445.796
-82.26
-363.536
896.304
-83.5512
-812.753
929.156
-584.755
-344.401
1576.14
-472.199
894.448
-1629.64
735.196
1068.44
879.379
746.392
-437.009
-309.384
-1058.84
-258.308
571.766
572.527
-1144.29
-504.58
508.628
-4.04851
572.922
-337.759
-235.163
-987.221
562.158
593.617
892.399
-441.763
1096.54
1424.7
-792.409
-632.293
389.772
-922.057
532.285
-1048.6
391.721
574.769
-1090.16
435.898
-529.941
94.0434
459.097
328.546
-512.765
-48.7796
-793.689
-881.74
1675.43
186.255
210.086
-270.945
389.53
2.17427
-582.001
579.827
506.4
867.466
-1373.87
-447.472
309.855
985.16
-88.8562
835.397
-1064.25
228.854
424.531
845.052
-1386.01
-458.751
832.323
1982.19
-1288.05
-694.138
269.541
608.536
255.513
795.116
97.3075
-994.489
897.182
1673.71
-1088.93
-584.785
-138.088
1888.22
-1866.13
-160.644
482.48
-620.629
138.149
-1011.53
527.84
483.694
-1730.46
538.315
-955.442
845.041
392.277
197.591
554.209
-248.88
-415.455
707.559
258.192
-0.79534
735.225
-734.429
-1171.83
-854.364
2026.19
-565.176
1129.18
-564.001
-477.667
-326.039
106.458
-1657.65
863.96
-829.228
-647.853
1477.08
-329.389
-294.45
623.838
367.512
-704.151
336.639
253.287
-608.046
326.305
191.19
-517.495
363.979
-657.921
678.15
-310.638
314.59
-456.675
692.699
470.019
-193.41
-441.656
-311.476
1230.64
0.571377
-1231.21
1038.63
-420.248
558.583
410.835
-1782.3
869.807
912.495
484.977
560.483
-1045.46
-532.477
203.088
-264.555
1182.05
-917.492
-1590.81
1212.53
504.592
-1095.81
383.126
-0.798179
470.596
297.386
-767.983
368.515
-613.701
-37.7576
759.18
-721.422
-524.903
794.79
401.96
320.902
526.062
650.734
78.0378
-443.056
365.018
1058.09
-644.575
-413.514
494.046
-1664.27
1170.22
-1140.29
1753.22
-612.934
1715.88
-1123.69
-333.792
609.576
-1197.01
1294.32
424.619
-797.175
1614.9
-817.722
-265.865
-199.622
-931.013
1472.34
1816.31
-610.228
-1206.08
-405.175
721.884
-1305.2
-124.653
-81.524
527.32
-702.253
-354.183
-1236.63
-213.692
466.979
902.417
-556.757
170.38
-1674.86
-71.3306
1746.2
-1090.41
525.238
564.369
-1185.39
621.021
900.863
915.444
630.454
619.847
714.184
259.918
-1176.83
481.347
-392.453
419.664
615.355
-513.501
235.886
-728.051
492.165
727.231
-389.543
-264.122
177.773
-604.554
260.225
344.329
-885.499
-744.144
1087.67
-2145.74
395.96
-680.592
-342.798
-723.461
834.451
590.251
-336.207
313.579
407.787
290.959
598.862
-889.82
548.837
636.317
-529.012
152.419
391.972
-666.321
-1094.5
-803.096
1897.6
-1809.38
156.951
1106.61
-1371.16
1198.69
-715.069
-483.618
-504.528
1349.58
-1495.43
627.929
867.504
-284.402
-209.265
493.666
1428.44
558.6
353.134
-462.838
-478.869
-573.901
1052.77
-423.128
595.151
1583.33
-1131.04
-452.285
-831.461
351.225
654.475
403.614
-1623.42
416.186
1207.23
-179.824
506.129
797.585
785.743
177.379
-695.203
517.825
200.88
210.186
-281.756
-109.624
391.38
482.01
38.456
-520.466
-1663.7
605.105
-1621.09
1691.12
-70.0298
13.7667
-1634.86
1069.48
797.252
-326.655
-841.626
-206.972
-1134.58
-239.601
-311.924
680.439
-1812.95
-638.872
1211.4
220.705
756.241
-1332.99
-678.728
-466.071
655.782
-381.924
-1013.26
1350.81
-1933.03
582.219
647.372
1288.61
481.037
-2.42912
715.859
715.187
-1431.05
-635.271
329.19
306.082
435.955
-100.449
-335.507
139.836
306.096
147.511
-453.607
-598.677
1155.18
455.339
-641.169
-459.839
-401.805
861.644
-308.367
108.326
-453.772
155.854
-301.569
-709.965
541.837
-105.882
-576.663
966.435
573.501
-267.736
-305.765
452.875
-777.202
-646.37
461.271
-1129.37
-850.651
1189.13
-569.772
443.691
336.13
-481.376
123.532
1027.23
-314.034
589.536
-275.502
-509.04
1578.52
-748.9
289.958
377.692
-667.65
204.158
519.901
1.91687
-521.818
-260.817
-192.956
978.135
1108.84
564.877
-889.995
946.486
-56.491
-452.058
167.657
-784.999
313.634
-585.991
366.889
360.342
852.416
-1275.02
422.604
775.557
-813.314
-948.832
-550.395
1499.23
-150.489
511.966
-547.736
221.739
1319.57
789.639
-612.26
1360.65
-686.33
487.132
-640.055
-414.193
-421.03
-378.446
799.476
500.376
-841.725
-469.935
64.5082
405.427
-314.529
572.491
725.929
-329.969
-235.172
-174.601
409.773
-486.758
132.653
354.105
1462.43
83.3741
-1545.8
-756.193
1349.81
-1144.78
-465.948
593.948
-216.256
1152.84
-377.288
1083.42
492.721
696.404
-432.474
-884.729
-522.489
-1328.32
-20.2652
985.131
-964.865
629.928
360.715
-990.643
-339.012
-202.858
-683.798
405.542
1621.23
-201.534
381.076
337.468
-718.544
-1839.75
-2106.7
1519.15
587.552
-2044.97
358.283
392.931
558.083
-951.014
-460.511
1019.09
-424.378
-689.775
1114.15
-2030.56
1391.21
639.346
618.513
-1042.89
17.6422
418.255
386.24
188.98
250.713
369.412
1011.44
918.797
676.407
-322
-354.406
-289.454
617.202
-327.748
569.796
532.507
564.487
514.553
-1079.04
-796.063
-699.37
750.758
402.087
-425.333
761.972
-1193.38
1609.57
448.032
-1137.81
-343.302
534.492
-1396.91
922.058
474.855
-728.798
-344.796
-749.649
290.119
459.53
447.326
717.458
-1164.78
1075.53
-590.557
-421.547
659.678
-238.132
251.22
322.281
-466.115
-432.291
898.407
-226.97
582.672
-967.143
384.471
-448.482
600.598
-1681.3
423.977
670.131
-1094.11
515.845
103.775
113.412
-2212.81
586.3
-142.609
1444.96
1777.1
-217.549
-1559.55
-438.536
1789.35
-1987.28
1194.6
792.685
397.438
348.955
-47.6133
882.065
-1282.72
718.043
-867.92
-821.384
801.119
296.374
69.5331
-365.907
223.687
177.292
-400.978
1562.96
-847.102
-1530.92
-325.432
487.753
-225.709
-262.044
391.879
365.972
238.915
416.867
-11.3138
1003.44
-992.125
428.861
276.052
-704.913
-734.168
1817.42
-1083.26
-342.634
734.513
-1231.53
-417.449
-913.628
481.337
625.355
-841.524
216.169
758.628
-377.259
-381.37
-446.758
-443.237
454.637
1123.61
1240.76
-676.394
798.646
-345.77
421.02
333.566
-237.576
-223.074
-272.121
644.436
408.141
-845.277
437.136
252.373
387.723
-640.096
-420.2
828.341
754.049
-1146.86
913.562
-61.1465
-483.033
275.72
792.264
-96.5831
1385.19
1890.51
-52.6479
340.395
-374.461
452.499
-1088.24
1076.93
667.775
376.406
382.222
86.6968
401.057
251.45
510.578
-375.236
-260.036
-561.609
-89.6576
-363.58
361.749
1.83057
-257.406
-283.942
1010.77
-1540.68
529.904
-159.016
-218.231
-432.958
709.01
-1647.83
1590.94
-963.01
309.596
-723.788
584.333
1224.41
-1808.74
607.442
983.497
308.195
-1124.52
709.063
-336.943
-298.392
1392.16
-1454.36
838.182
616.183
447.328
-630.942
183.614
-381.335
471.168
-89.833
400.658
81.3519
1724.69
452.373
-251.493
557.664
-1704.79
1147.13
-99.2753
423.821
342.963
333.444
-448.724
-614.543
1063.27
408.173
-866.924
-640.275
902.312
570.905
-440.417
-199.984
-435.996
-409.281
-307.661
-826.922
1821.09
-1821.09
-100.827
-1608.58
1709.4
295.797
277.125
-916.862
-555.619
1472.48
-408.162
972.649
-619.058
-1044.64
719.782
389.922
-1109.7
470.729
-156.139
573.073
1220.34
-1793.41
-1058.2
2116.37
-1058.17
-378.36
-292.319
-517.852
869.077
-1760.83
1608.12
152.709
1760.83
-1615.26
-145.568
-240.849
519.039
-278.19
-537.311
1620.73
1581.46
-1998.91
1111.5
-333.462
-232.15
565.612
221.123
-564.425
-754.983
329.65
1343.61
638.579
586.338
478.507
-1064.85
267.082
429.321
875.218
500.116
-1375.33
539.919
-1018.79
1574.94
-564.167
-793.672
-409.792
-137.953
547.745
-490.323
1207.78
-739.178
330.015
366.607
378.581
237.239
-615.82
599.704
831.579
-602.725
251.798
694.688
-440.417
-369.434
-210.636
580.07
1168.44
-700.492
606.666
468.72
-1075.39
-1275.63
1275.63
-383.295
759.702
-276.311
-483.15
759.461
500.748
436.812
-937.56
394.804
-671.115
604.513
-869.501
264.988
-367.545
-489.224
1075.56
-659.047
-713.648
1372.7
-367.723
950.395
-1552.78
675.287
-1.65519
-391.384
393.039
-553.795
723.324
310.255
320.82
164.197
306.532
-573.696
236.753
1870.56
-1967.15
247.726
-705.638
458.73
-822.055
363.325
-909.637
1446.82
-537.183
-430.209
-483.419
600.874
1124.16
-1725.03
-713.465
335.105
-463.567
1033.36
-801.146
1052.94
-373.855
-623.246
-520.992
735.569
537.746
-355.83
908.921
-311.712
-175.046
1599.03
-1816.58
-335.811
-631.332
-343.21
475.863
262.44
-644.364
-157.226
1078.06
-802.342
195.479
-346.683
-283.31
629.993
384.418
-885.698
501.28
-480.595
-463.817
-878.736
-370.42
570.025
-199.605
-445.689
-440.422
-344.505
-172.99
-404.355
641.594
-480.152
813.718
-1071.76
623.04
-1412.68
583.456
-28.8992
-1840.26
1869.16
570.113
-450.633
1241.77
-716.53
253.48
-253.48
674.111
-451.461
1045.96
-1665.02
-1158.74
-947.965
288.394
328.808
899.872
715.026
-519.322
-287.942
807.264
1662.01
-1690.91
-433.338
337.951
229.027
1134.63
-527.96
-943.341
1550.5
-607.155
440.743
-251.763
391.028
428.702
-819.73
544.152
463.461
-1007.61
-331.233
661.248
-38.1802
1908.74
1624.16
992.398
-1696.83
726.523
-1176.61
450.088
-492.509
1367.73
836.532
-1341.06
-582.263
248.801
808.556
-395.689
546.613
-1191.88
645.27
-633.924
-1215.52
-695.702
1911.23
-175.948
542.636
-366.688
-139.948
317.463
-493.411
334.945
362.977
-697.922
-1491.12
755.908
735.215
883.966
-1434.36
821.848
-433.211
209.06
-358.824
-615.69
246.256
-696.247
-700.666
697.174
507.481
-1204.66
384.972
-204.701
-180.271
554.133
-956.972
-584.95
-464.589
778.222
-831.34
-1155.94
-1437.94
499.736
938.202
42.0309
-660.454
320.606
339.848
-1325.41
1048.42
276.994
-615.308
-456.456
-665.532
921.045
396.864
-193.891
-202.973
508.405
980.424
-1488.83
980.964
-559.865
165.441
394.423
-450.496
674.389
-426.663
-503.671
160.461
234.009
-1522.06
522.773
552.761
-774.845
221.05
141.628
-453.34
358.076
-821.893
1954.16
-1195.38
-758.775
453.869
-689.591
235.721
321.142
333.443
108.055
-441.498
-581.999
188.74
263.633
-691.815
1374.18
-682.364
424.083
492.508
-1221.31
261.633
1866.77
-1013.59
-853.18
784.094
-527.044
156.624
1402.31
-975.107
-427.199
322.238
-773.699
-616.59
1725.43
606.782
633.981
322.061
-25.6879
252.842
-1138.34
1725.72
-587.377
-1763.55
820.208
1775.6
-1704.15
-71.4561
-659.811
267.358
629.05
-726.658
205.666
1402.56
-566.024
379.41
452.913
-1858.76
1420.22
547.508
-462.274
-85.2349
190.549
-535.054
-317.915
-159.752
-349.206
692.169
-650.904
241.111
621.521
545.166
-1166.69
1113.46
-1947.64
834.178
138.194
348.103
-1700.36
1662.18
302.711
-735.185
-169.436
378.496
764.513
677.655
-1442.17
1089.52
-1088.94
519.711
-1110.27
-625.672
248.245
377.427
533.573
-273.348
-633.505
-1031.52
281.628
-722.05
-912.32
161.301
157.274
227.698
404.842
278.991
-683.833
-638.777
-834.394
-978.559
483.302
-1065.3
-303.271
481.011
531.175
657.951
-277.103
-120.522
-453.127
761.322
255.323
-1203.08
564.302
1314.74
-550.227
434.806
-1019.76
-382.984
127.133
420.375
1023.14
551.798
-1729.22
1628.4
1659.18
-599.406
-1059.78
1906.64
-1896.02
-10.6195
216.549
-591.01
-356.806
552.286
-780.36
-328.611
-331.199
1025.68
707.319
-1525.73
818.416
263.483
-26.1847
1625.22
-1113.52
413.024
-1278.25
484.576
-61.6768
1524.1
1197
-470.477
-486.265
-73.5996
-243.564
736.075
-1951.6
-707.228
358.596
-530.6
172.003
190.468
-504.502
1139.95
671.619
-1811.57
-611.124
148.85
941.649
-1497.27
-210.533
678.755
-468.222
900.344
1099.66
-745.392
1352.17
629.629
-535.93
-93.6983
-339.658
1177.84
1068.69
-1984.41
915.721
-1177.39
538.518
1488.71
-586.402
-404.183
-124.829
-1245.48
569.084
1173.04
-61.5589
946.281
776.011
-1722.29
-198.161
578.809
-1541.71
962.906
487.022
916.412
-1403.43
629.725
581.674
404.174
-1106.6
589.449
1111.67
1215.2
-452.124
-763.073
-1186.2
-1754.93
-4.51546
-1724.71
-178.813
-452.129
1611.14
-634.714
-976.427
-490.812
1121.27
-1321.6
633.202
688.394
-1364.87
1448.25
-1334.26
588.865
1520.46
-428.943
-568.811
164.628
-1509.04
236.495
176.389
202.411
427.217
466.882
400.737
-867.618
506.448
-938.79
900.104
-1444.78
-708.619
214.619
494
-1050.72
452.042
-485.345
864.755
694.616
19.5461
-520.684
153.996
-886.569
-1318.75
-712.046
346.292
365.754
397.979
-721.268
323.289
-474.304
-189.358
-708.517
725.643
1540.13
-593.847
825.985
736.976
1344.62
-844.505
-970.906
-570.809
-793.752
428.605
365.146
-1035.56
-638.583
300.179
338.404
-1433.68
-296.778
-787.898
395.104
392.794
-656.231
426.609
229.622
-680.393
253.73
412.815
485.592
389.834
438.506
477.21
384.433
595.358
-968.487
695.185
459.992
451.993
356.041
-808.034
1630.72
-1079.82
-550.905
-504.87
-294.179
-1031.23
451.89
347.585
409.743
592.78
-1002.52
-1384.5
749.784
-527.772
1148.79
352.659
-46.563
412.458
-863.273
450.816
-1907.88
299.304
439.372
-723.973
284.601
-190.122
400.126
-210.003
-659.042
300.685
358.358
-670.509
316.102
370.73
388.972
611.817
-1019.98
751.751
664.596
-1416.35
438.852
624.416
337.733
391.955
-729.688
406.473
328.04
624.481
705.83
417.776
617.01
-1037.68
420.67
-1691.35
1166.16
525.193
1696.56
-539.183
618.507
-1146.83
528.322
-639.952
345.503
437.617
-933.45
495.833
785.908
-488.521
350.695
341.474
593.487
-929.298
653.486
-1252.36
598.875
400.945
733.887
-1224.21
768.67
509.994
-1278.66
500.809
396.304
-897.113
-501.796
-936.142
-294.43
629.375
352.495
540.605
-893.1
329.897
331.351
-502.192
1944.73
435.814
-845.597
409.784
-917.567
-808.295
-745.561
364.192
-1232.37
431.227
-1745.5
1615.26
130.238
1752.59
-1608.12
-144.471
-781.766
-588.127
261.411
326.716
-1775.6
1998.91
539.071
790.649
-1329.72
440.163
715.731
689.742
385.613
-1075.35
-14.4241
1617.14
-594.001
381.46
860.309
-645.786
323.784
322.003
-378.603
-296.258
547.478
-213.65
433.534
277.372
-661.263
383.89
260.158
-574.056
-279.022
442.776
-1032.39
589.61
538.071
1092.65
365.981
595.896
309.329
350.624
-659.953
1644.22
-936.898
1692.57
-1521.29
-171.273
-327.969
-820.79
411.51
857.23
-1067.76
-602.685
274.937
-1090.53
1628.6
-1606.16
-74.5425
1680.71
-341.275
-350.189
-370.329
539.972
594.654
-501.307
-24.9332
-549.602
501.318
-283.196
-218.122
1768.56
-1313.92
-621.02
295.52
325.499
398.12
357.316
734.249
-292.212
-399.269
-1752.59
1690.91
459.775
-1100.15
640.371
-41.8098
1670.21
570.762
476.285
-1047.05
103.271
1144.34
-1452
-8.91756
-1898.96
223.128
-594.737
306.535
288.202
-954.634
611.836
-896.338
466.129
-1127.89
672.515
455.373
388.924
255.967
-775.289
-357.147
1216
886.169
699.423
-1182.6
456.158
726.442
494.653
699.891
-1194.54
-407.612
-248.104
405.378
-959.194
438.939
520.255
21.2155
-1879.98
1080.02
-475.506
-508.848
558.817
-1378.03
819.214
-435.071
798.395
-405.676
504.629
-724.372
1702.51
405.234
-177.536
213.301
-163.705
-246.2
409.906
1895.34
-504.131
-1709.52
1050.67
-597.191
300.933
-1012.48
551.967
-312.423
544.456
904.971
-1449.43
-1102.99
437.459
-21.0852
-1946.06
1721.44
-652.752
-539.355
460.88
-1190.04
729.164
194.985
201.879
-279.18
774.096
698.243
836.427
816.426
-460.386
1084.19
-508.291
472.795
-188.33
-284.465
-1924.78
-713.059
-317.365
-640.895
-6.41862
647.314
460.675
-271.935
569.249
1074.97
-813.468
923.209
1243.88
-425.686
-131.645
-279.208
410.853
941.797
-888.311
-312.428
-1066.94
610.482
1564.18
-808.269
537.854
934.626
-400.219
735.05
-334.83
1129.9
-273.981
368.68
1349.47
-707.387
-214.67
448.352
-1198.27
749.92
-975.078
-170.929
1146.01
439.749
-954.338
514.589
153.568
732.173
483.025
749.525
-150.663
850.964
-426.138
1181.96
-796.348
552.485
-1465.38
912.898
-1216.64
1800.97
-431.707
-1510.19
879.313
-1401.8
-308.928
-459.055
1457.07
-1527.23
783.087
1491.41
196.849
275.945
-362.043
-1745.5
-279.871
-1023.95
1593.2
-1783.74
1783.74
1581.46
-1004.34
-631.397
-345.285
368.335
604.314
-414.198
-370.139
-1389.68
897.173
1125.08
600.642
1202.36
1789.49
-1216.41
-621.406
272.345
1659.22
-1916.77
257.559
815.764
-1268.05
1545.17
-561.673
790.758
338.419
-361.309
555.515
794.065
626.553
1399.64
-263.18
-445.522
-373.875
494.246
-338.213
472
735.781
-305.449
-136.049
-342.187
569.264
-227.077
32.4396
-370.199
1107.34
-1720.28
-465.679
-499.656
-569.157
863.379
700.797
-1596.33
904.511
-452.113
-632.224
-515.112
1251.77
349.129
1723.84
-1702.63
-1662.01
1896.02
-1560.65
840.132
720.52
-399.911
-1799.64
917.898
583.966
818.591
-384.889
1794.52
-681.058
-454.239
708.968
434.4
-1143.37
-1101.67
444.223
752.777
-1617.13
473.27
900.91
170.37
-395.061
224.691
-1612.52
-390.508
-468.541
990.187
-681.176
1442.83
-957.39
1857.73
241.529
-561.941
491.749
-294.9
474.34
893.387
543.355
977.103
-463.36
-427.882
574.328
882.745
-1392.69
-40.9921
1581.84
-844.864
519.972
971.436
-1475.78
-1115.89
1789.19
-1246.09
-543.096
1206.02
-319.318
-886.707
-186.095
448.371
-262.275
-457.287
-250.381
424.95
-174.569
139.56
-387.664
1745.96
-1750.47
-470.987
-530.881
-903.48
437.588
-200.258
-237.33
631.332
-490.936
-406.119
-308.078
714.198
-971.821
451.331
-1166.96
676.145
411.899
-646.976
-445.387
1586.58
-871.551
530.199
-458.345
-569.468
-462.918
359.048
-348.407
-10.6404
-1127.83
411.3
-665.026
-1033.51
1698.53
-615.913
-1424.83
711.182
562.338
-1596.25
1033.91
-412.187
-490.08
149.873
564.312
-1258.3
743.191
539.265
1005.91
-2133.17
999.983
1133.19
-373.753
407.22
-381.955
-25.2654
1477.98
-374.744
449.626
1148.7
582.637
906.078
566.348
528
-1094.35
159.177
-453.557
-1704.15
242.898
1127.5
-626.967
518.653
1013.57
-1532.22
1092.79
-1643.69
200.442
713.121
558.93
-871.357
-1086.31
-167.432
422.264
-254.832
-586.299
-443.058
-636.663
-623.969
344.789
-1619.64
939.29
-477.106
214.916
-392.452
530.083
-306.955
-623.451
1196.99
-1312.79
948.219
364.573
-1042.61
-382.49
-765.173
-831.834
1695.21
-477.328
1800.8
-1593.08
-207.717
-1556.58
1018.63
537.949
-732.731
-254.232
435.49
-181.259
-605.308
384.284
269.305
-653.589
-524.318
1001.48
626.339
-351.402
-1620.22
1050.45
571.814
1103.48
-1675.29
-428.51
-285.743
-373.3
-751.296
-502.953
-331.082
495.279
1557.98
-995.644
-774.205
1497.44
657.304
-319.353
725.882
1152.35
-1878.23
298.178
302.891
-487.517
-1934.39
1721.44
212.95
735.16
-475.071
-260.089
531.87
1060.75
-1592.62
359.048
-1733.63
-233.215
1752.37
-1580.65
1073.73
506.924
-1737.23
3.60276
-522.029
407.22
1700.36
-1721.44
939.308
625.252
-1564.56
373.939
-216.296
-157.643
-431.479
-248.914
63.5676
94.4116
-348.643
-424.738
-444.763
-403.003
212.881
1510.16
379.102
-195.438
-460.792
456.202
-192.569
325.095
1510.7
967.791
-187.002
-780.79
-1104.04
1704.91
-1728.94
1063.92
-707.491
-1021.45
-1265.07
1844.98
-579.915
1155.05
-1771.25
616.2
268.058
-877.676
1675.92
43.412
-1719.33
-491.19
-1082.96
-1745.96
-980.779
552.897
1019.51
590.28
1132.97
-1723.25
282.084
-498.34
700.608
-384.506
401.014
924.332
681.784
-374.296
-663.383
582.942
1072.48
-1655.42
-406.663
-362.729
769.392
418.72
-1662.18
1521.29
140.884
579.74
-1043.31
544.762
1083.84
-1555.61
993.936
-233.395
220.154
332.132
1906.64
445.196
-60.8896
995.846
722.75
-1718.6
-696.771
1085.26
-1557.46
159.525
-569.944
192.636
263.566
-677.649
-554.723
582.68
1034.46
-710.798
-262.155
-1368.3
673.824
694.471
-407.72
719.443
130.64
-850.083
562.237
-137.192
1557.42
-208.018
277.702
-777.447
-1934.39
1664.6
1019.18
310.585
294.558
491.35
-929.885
-994.898
-1767.26
632.529
1693.76
503.356
-474.645
1210.43
1087.03
-424.935
1029.25
-976.946
488.406
488.54
700.754
1047.9
-1748.65
479.804
486.631
-1493.89
-745.35
35.3348
777.54
-413.349
-887.478
378.63
-539.926
-801.135
573.408
-578.041
1397.25
1055.18
189.915
232.349
-550.672
1618.49
-775.143
1526.89
-1727.83
575.301
1152.53
538.712
-881.891
-1733.12
1916.77
-183.651
1721.73
176.436
-545.847
361.529
-267.118
-481.632
1210.8
568.273
1128.29
-491.155
423.576
855.882
-456.657
-770.908
432.772
338.136
1419.48
1089.54
-518.343
1422.85
-510.501
-533.036
1043.54
-602.815
527.119
-1242.19
1692.57
1839.57
-687.219
1586.01
-646.707
-1240.75
716.427
-562.878
196.699
-383.482
447.401
-237.215
-518.034
-1246.7
1870.95
-624.25
1173.26
-554.751
1120.24
-1659.43
1705.98
-573.989
-547.954
-549.847
1720.07
-316.158
-688.105
-473.422
1223.34
-1690.27
-1860.11
613.413
368.756
-971.695
162.674
208.553
-1719.02
1204.13
514.892
1162.84
558.888
-513.035
-465.444
1191.89
181.76
218.366
588.447
1251.12
-539.185
-1238.57
1777.76
-1025.27
999.984
866.783
-204.058
-1659.22
1702.63
-510.184
1411.09
-1733.12
-319.718
-34.408
354.126
-254.886
582.974
-328.088
125.544
497.254
779.477
-381.497
1257.51
1270.61
-413.376
849.957
-438.447
1817.54
-662.493
1586.65
-1723.84
-412.825
-774.163
341.43
432.732
-561.129
-563.575
79.7455
-1138.58
-985.203
-670.345
1655.55
-943.699
-1189.47
199.176
-431.326
-647.329
705.734
1167.43
650.108
1410.26
-591.671
1636.72
1317.97
-574.779
-486.826
191.927
-503.325
1396.71
1239.95
-566.124
-999.981
890.661
59.0913
-949.752
603.412
-506.206
1403.38
1495.05
-588.969
-357.738
357.738
-589.586
1623.5
1239.16
-486.385
1134.13
-59.5398
1856.55
-384.144
1489.46
-589.355
-507.698
1347.83
-650.337
1218.49
-568.155
1554.8
-591.898
766.659
572.187
-1338.85
-679.117
264.84
524.799
600.812
-1957.29
-1005.63
1586.65
361.845
-361.845
-60.8617
383.974
437.874
364.593
36.0651
-287.304
946.711
-545.765
-427.854
811.828
-239.04
616.467
-423.005
1560.86
-444.35
-883.975
180.145
224.597
-404.742
601.173
1250.76
-1851.94
925.363
-459.234
-348.407
126.148
-1943.05
1816.9
-446.914
174.581
1181.01
-440.505
-740.508
-292.959
-594.52
-495.645
-381.955
-474.892
256.77
1157.87
-563.216
231.096
-373.627
142.531
-22.9073
-107.682
1375.96
-1268.28
34.624
-596.233
-586.496
-447.223
447.223
-1262.34
1985.09
-1344.31
-202.426
-1828.63
235.551
-1025.75
-974.243
-180.294
-1639.49
709.607
1229.32
-1925.02
363.633
316.027
-679.661
-1850.02
1234.27
615.753
-559.483
559.483
-958.924
-40.0026
-1866.13
-558.179
1650.83
-675.835
1636.19
-601.727
-187.454
-1711.51
-580.314
-479.605
-594.861
-461.938
461.938
-1537.81
194.528
1343.28
167.03
223.172
-390.202
513.221
454.57
995.766
-475.511
1751.29
768.372
-417.665
392.4
522.92
1702.07
-594.722
-552.988
1636.83
464.981
1812.82
-645.383
-1804.45
-1938.07
-647.092
-474.886
474.886
-585.521
211.646
-714.807
1018.35
-466.387
-1075.7
-291.061
1579.56
1852.29
1635.37
-1635.37
-319.005
739.475
1761.52
595.801
1275.15
167.749
206.19
609.102
596.331
1603.49
-1603.49
217.66
-357.635
-438.234
453.481
950.278
-461.872
-638.735
-1130.96
1706.26
276.15
-1675.51
630.871
-288.323
464.759
1744.65
-592.116
-213.031
-472.774
375.406
736.269
1738.58
-613.501
-511.789
-785.74
1960.54
-870.461
-1090.08
1642.71
-703.623
1223.96
-1824.96
600.999
375.931
-937.872
-185.16
-102.352
1097.46
-486.98
136.495
642.001
-1673.52
429.685
610.223
-1804.45
-583.295
1787.42
883.395
-1162.88
1760.5
-597.613
1783.83
-575.553
-1208.28
429.492
941.833
-1750.47
924.482
-1473.44
226.236
1247.2
-831.401
-1254.22
-373.648
73.6427
300.006
581.767
265.065
1033.36
-438.751
844.779
-406.028
820.236
741.508
-1561.74
644.478
1066.5
-23.9919
-661.715
685.707
-1744.46
723.011
708.761
150.541
-1122.61
1936.78
-674.565
-1262.21
-537.185
1665.47
837.922
967.245
-1805.17
1227.86
683.368
-407.691
708.375
868.097
1027.14
-587.392
1761.52
625.734
1773.56
-1185.59
-587.972
-428.629
-324.655
753.284
121.453
-1185.58
1660.53
-540.283
-1437.78
1437.78
1250.56
594.424
1351.4
206.579
-575.083
280.236
-184.991
699.155
1113.66
476.763
-295.003
-869.443
-575.341
1746.87
-1746.87
973.8
-973.8
987.337
1025.17
-2012.51
1837.96
-613.998
-581.123
855.703
-947.854
-1052.17
998.176
691.309
-1689.49
-512.765
-382.125
-660.766
-808.436
2042.7
-1246.41
-613.703
1002.98
974.859
1289.78
647
322.006
1012.69
264.242
340.725
1186.21
1756.9
-1756.9
671.46
79.5192
-385.284
-997.06
-539.995
1674.12
986.315
1013.68
-1833.3
-218.824
-361.491
604.62
-361.722