/*--------------------------------*- C++ -*----------------------------------*\
  =========                 |
  \\      /  F ield         | OpenFOAM: The Open Source CFD Toolbox
   \\    /   O peration     | Website:  https://openfoam.org
    \\  /    A nd           | Version:  7
     \\/     M anipulation  |
\*---------------------------------------------------------------------------*/
FoamFile
{
    version     2.0;
    format      ascii;
    class       volScalarField;
    location    "3";
    object      p;
}
// * * * * * * * * * * * * * * * * * * * * * * * * * * * * * * * * * * * * * //

dimensions      [0 2 -2 0 0 0 0];

internalField   nonuniform List<scalar> 
29659
(
0.095642
0.97773
-0.0907316
-0.337269
-0.0250459
-0.381047
-0.0138735
0.0976134
0.0211529
0.00188909
0.0773493
-0.0437103
-0.00499172
-0.000253174
1.09361
-0.0608265
-0.00169893
0.570275
-0.0223184
-0.10588
-0.00893678
0.0198594
-0.0913826
-0.022
3.26742
0.971277
-0.00534206
2.79505
1.06853
-0.0156063
0.164221
0.494089
-0.480619
-0.0587989
2.81864
-0.0490852
1.10743
-0.274727
0.0583775
0.0566353
0.00443782
-0.156825
-0.00152461
-0.102758
0.000326285
-0.0133877
-0.0377089
0.000766298
0.0347771
1.0822
0.0564177
-0.300809
0.507134
-0.370916
-0.0594793
1.01245
-0.0348812
-0.00918211
-0.0384952
-0.116473
-0.000622379
-0.0216262
0.551028
-0.0416363
1.63765
3.0733
-0.0650064
-0.0838631
2.93457
0.0046219
0.963042
2.351
0.0264173
3.1158
-0.0788336
0.28848
1.07849
-0.248756
-0.000468003
-0.112924
-0.347944
1.27195
0.0949415
2.91705e-05
0.00506191
-0.1414
1.76359
-0.0051654
-0.0048276
-0.513814
-0.194513
-0.250048
0.0321178
0.516842
-0.529391
1.79586
-0.240571
0.0049124
-0.365433
1.22679
-0.000493937
-0.233899
-0.00060844
0.375606
-0.309066
0.841779
2.04985
-0.00464711
-5.14036e-05
-0.406862
-0.485107
0.165372
2.86218e-05
-0.0151011
-0.00174193
2.30403
1.36983
-0.115796
0.000248397
0.0300543
0.240434
1.03448
0.235878
3.07595
0.0112174
0.347811
0.59763
-0.0802441
0.0422102
0.000250461
-0.0926752
1.04624
2.28546
0.148091
0.372081
0.159862
1.86902
-0.239039
-0.422222
1.197
0.376696
-0.450216
-0.426726
2.02192e-05
-1.9576e-05
-0.0256672
-0.0351127
-0.379047
-0.233375
0.722311
0.275875
0.141826
0.00447872
-0.00134755
1.3285
0.00545459
-0.0745435
1.78786
1.56319
0.0786318
-0.334877
-0.32823
1.0399
-0.000486916
-2.19301e-05
-0.116353
-0.417161
0.000534641
1.47295e-05
-0.0685779
0.000391829
0.0594913
1.82548
-0.236109
-0.250643
-0.0504573
0.0215007
-0.239546
-0.011908
0.286698
-0.000153023
-0.0068588
1.75248
-0.0792601
-0.419354
1.33509
-0.0627776
-0.177694
0.0393578
-0.0135733
-0.0028465
0.0312068
3.11692
1.3107
-0.136546
-0.0717163
2.62353
1.19653
-0.520797
0.01187
-0.089112
-0.427139
-0.041375
0.00865845
1.85754
-0.0664513
0.0712407
-0.384586
-0.417262
-0.000309214
2.49175
-0.0104888
2.56674e-06
-0.00552707
-0.178291
0.646181
0.0038472
0.0694947
-0.0217701
-0.516276
0.000288695
0.00491635
-0.023436
0.699222
-0.0280193
-0.0144076
0.484203
0.00131766
0.000304324
0.0544874
-0.25691
-0.213421
-0.0474778
0.954532
-0.145624
0.148049
-0.000266265
-0.0303296
0.00807217
-0.0709589
-0.514745
-0.013911
0.00483545
-0.0154936
0.0308301
-0.103693
-0.000460614
-0.123775
0.000442297
0.708987
-0.0338401
0.00149881
0.852449
-0.441547
0.00255801
2.8006e-06
-0.451354
-0.500429
-0.0880994
-0.0926021
0.275887
1.68203
0.000799747
-0.249518
0.247765
2.68921
-0.0802184
1.31951
0.315144
-0.00170264
3.68406
-0.00555206
-0.269073
-0.50917
0.0230193
0.50714
-0.0827568
2.29827
-0.034778
-0.175053
-0.00257205
1.44937
-0.0247855
1.82925
-0.0052076
-0.0579176
2.68345
0.61797
0.482802
-0.305116
-0.00155289
0.0298079
-0.00178483
1.50735e-05
0.693141
0.000384677
-0.190858
0.23381
3.30049
2.2583
-0.394034
-0.174724
-0.204612
0.141838
0.0369795
-0.179632
-0.409126
1.71726
2.36004
-0.0129926
2.02114
0.676033
0.251458
0.120232
-0.0106894
-0.023752
-0.0539315
-0.027152
-0.000570471
-0.0158641
0.283793
1.465
0.0169289
-0.263885
0.139299
-0.000349192
-0.401223
3.4526
-0.0631153
-0.0131821
0.127736
-0.108561
0.908366
-0.0135515
-0.000310515
2.62016e-05
-0.027468
2.70261
0.292129
-0.501629
9.32314e-06
-0.525653
0.603495
-0.0516308
-0.488388
-0.0121216
-0.00455433
-0.239203
0.00957493
0.302275
0.108402
0.97125
-0.0010857
0.0265745
1.02596
0.250067
0.00442736
0.00470414
2.28209
-0.191264
-0.0151108
1.24482
2.73321
0.0297381
-0.061757
0.666489
-0.00800079
-0.0862815
-0.0340128
1.17385
-0.000175977
0.104452
-0.166008
2.2915
3.08765
-0.0609648
-0.090096
1.67696
-0.122666
-0.000554304
0.863379
0.734502
0.745612
-0.0710564
0.258129
2.76678
-0.289949
2.48728
2.33275
-3.28728e-05
0.286184
-0.260743
-0.0293245
0.0172619
2.75434
0.291959
0.00289099
-0.30096
-0.436798
-0.0568133
-0.00124117
1.84741
1.34629
0.000468377
0.0434789
0.0575196
0.0151035
-0.30269
0.000629265
-2.38538e-05
0.00516088
0.929314
-0.273014
1.8557
-0.473568
-0.167911
-0.218515
1.22285
0.562007
-0.0125955
0.0856247
0.00891946
2.51952
-0.254148
0.0113859
-0.0766734
0.403002
-0.0140572
-0.123672
0.00245852
0.00252249
3.49306
-0.0824079
-0.0510879
-0.00440974
-0.00781853
1.61221
-0.162526
-0.225508
5.14862e-05
7.0228e-06
-0.262751
-0.068907
-0.0538445
0.179845
0.0663645
-0.0227508
0.46807
-0.176812
2.4553
0.0691759
0.00260403
-0.395449
-0.222629
0.547548
-0.033949
-0.225118
-0.000145364
2.96376
0.201759
0.000893634
3.11629
-0.233718
-0.000155243
0.0155281
-0.402512
0.167788
0.467179
-1.57669e-05
-0.0824675
-0.0115806
-0.0551176
-0.00499865
-0.0849957
2.64276
-0.0842307
-0.119085
1.37997
-0.0298435
2.58501
-0.000172981
-0.151938
-0.37568
-0.21912
0.173485
-0.0160153
0.0344993
-0.00161893
-0.188786
0.148994
-0.000328587
7.14471e-05
-0.0654011
2.4443
0.0890277
0.0272543
-0.531137
1.2218e-05
0.0105623
-0.000460712
0.107793
-0.176496
-0.00416988
-0.0782749
-0.126578
0.0109236
-0.00018316
0.353387
-0.00391693
0.561381
2.12926
1.7052
-0.0350809
0.0652901
0.264815
-0.00100365
-0.0340789
9.7011e-07
2.36088
-0.138279
0.177176
-0.173102
0.0216404
-0.0319198
-0.00111268
8.58584e-05
-0.0495819
0.497076
1.59802
0.0133963
-0.354916
-0.253651
-0.080787
0.724987
-0.0141231
0.0175394
-0.05791
-0.00102493
-0.4103
1.75372
1.261
-0.223341
1.70726
0.000895316
4.40353e-05
0.859385
0.536092
3.08497
-0.306373
-0.217037
0.435421
0.0127177
-0.0604001
0.00493367
-0.108236
-0.129524
-4.36097e-05
-0.00957171
2.28134
-0.00152265
2.88164
5.65489e-06
0.434646
0.542438
0.491209
0.0113438
0.00200582
2.39445
0.582151
-0.385798
1.29254
-0.0614723
-0.135098
-0.0430129
1.50597
-0.254075
0.157386
-0.0749902
1.75322e-05
-0.0139509
0.06511
-0.180956
-0.2183
-0.409537
-0.182975
0.888005
-0.0228773
-0.507173
-0.139671
0.000423148
-0.123124
0.139177
0.901215
-0.269094
-4.08866e-05
-0.183589
0.000835728
0.0152395
-0.259085
1.8543
0.00982348
-0.121226
0.0267439
0.623377
2.60318
0.0198459
-0.0400052
1.50922
1.13044
-0.142689
0.0536269
-0.451724
-7.233e-06
-0.405598
0.000909274
0.0136144
-0.000295138
0.000285393
-0.0524916
0.57378
2.12068
0.151603
0.130675
-1.74921e-06
-0.0651792
0.000937187
-0.0342462
0.000286363
0.490918
-0.00516386
1.2731
-0.00137162
-0.13057
-0.354039
-0.0451229
2.58697
-0.168087
-0.290875
-0.0590058
0.432453
-0.375075
0.286186
-0.0588957
-1.71392e-05
-0.045615
-0.0422753
0.00266167
0.000902185
1.48703
-0.0521409
0.67552
-0.0354445
0.00929502
0.322012
0.00179584
-0.000187108
-0.401466
-0.0374086
0.000319133
1.6065
3.34897
-0.00227326
-0.340889
6.48584e-05
2.80231
0.428667
-0.338126
0.000438413
0.159199
0.534178
0.618138
0.46274
-0.00439749
-0.00148712
-0.153491
1.84713e-05
2.55371e-05
-0.259241
-0.230014
-0.400674
3.21355
0.00217507
-0.20123
0.0833967
-0.000168769
-0.0128086
0.000335129
-0.060648
0.000458059
-0.0438788
0.278073
2.55884
0.420697
-0.00302356
0.00504316
-0.0141083
0.661065
-0.0330134
9.43984e-05
1.41289
-0.439232
-0.296589
-0.142974
-0.000193044
-0.00300165
-0.444039
-0.174249
1.07412
2.45219
-0.28374
-0.0135942
-0.000159379
-0.396482
-0.481285
-0.00219164
0.0436797
-0.137966
-0.0495825
2.35738
-0.0138279
0.11721
1.09266
-0.0802529
3.09842
3.05532
-0.000311615
-0.000344062
-0.16612
0.165663
-0.32949
0.0577401
-0.0776954
-0.00619907
2.71772
1.24593
0.0248018
3.63381
4.92896e-05
0.827246
-0.399844
-0.190249
0.0010274
-0.341908
0.851642
0.158858
0.561655
-0.00489231
-0.00525502
0.0159258
-0.0368482
-0.135185
-0.0113582
0.995233
-0.0514093
-0.0541785
-0.544833
2.24768
0.343357
0.316146
-0.00437231
-0.00556596
-0.194327
0.0108075
-0.0278571
-0.000183089
-0.00383239
0.853934
2.40343
-0.00138038
1.31633
-4.8842e-05
-0.0355433
-8.33037e-05
0.0591911
0.326492
-0.000405507
-0.000417102
-0.482242
2.32689e-05
0.472336
-0.213166
-0.000325675
1.27403
-3.67971e-06
-0.00435386
-0.00094296
-0.0522657
-0.00394282
-0.0642367
-0.434812
-0.00349406
0.0464918
-0.000190087
2.09199
0.103686
0.342948
-0.310757
-0.215435
-0.0118127
0.0319137
1.46034
-0.230471
1.31086
-0.376212
-0.036714
-2.35729e-05
-0.0597484
2.27181
1.39041
-0.290531
-0.472095
2.02292
-0.0863912
-0.390819
-8.56898e-05
-0.221904
-0.00901961
3.56486
-0.366387
-0.000919942
-0.5028
-0.23801
1.64322
-0.02752
-0.248301
-0.0364471
-0.0489781
-0.0135244
1.63918
-0.511301
-0.18513
-0.146794
-0.129554
0.0607297
1.99401
-0.181101
1.29899
0.0297832
0.188499
2.91483
-0.0879697
-0.00247321
1.64695
2.30061
0.022117
0.260926
-0.0641553
-0.306732
1.51224
-0.404224
-0.000213735
-0.0756133
0.000363086
-0.0466374
-0.000226109
-0.0418547
-0.0102025
-0.032179
0.0692517
-0.00637193
-0.00532914
-0.0109743
1.3982
-0.0218425
-0.0336839
-0.0304387
1.19731
0.0562514
-0.00370009
2.22463
3.0122
-0.188754
2.71451
-0.166083
2.11768
0.0579358
-0.0697074
0.0273054
-0.00482118
0.000162491
0.027345
-0.113778
-0.189113
1.2742
-0.217337
-0.191732
-0.00957644
0.120146
-0.215882
0.0694236
-3.37349e-05
0.154933
0.969815
2.30907
0.326974
-0.126115
1.03446
-0.00323732
0.349215
-0.169679
0.00694371
-0.495537
0.0396327
2.13416
-0.0208282
-0.00543908
-0.00113076
-0.385431
-0.0119248
3.57606
3.68195
0.119525
-0.000328197
0.0838969
-0.000159799
0.622524
-0.00539879
0.216532
3.3469
0.576632
0.000172916
-0.0771146
-2.65988e-05
-0.526896
-0.32449
2.70709
0.00227372
0.115347
0.0400301
0.00280126
-0.0222325
-0.00295885
-0.0568493
-0.305103
-0.211693
0.0868393
1.25028
-0.123323
0.0628913
-0.187712
-0.0160455
-0.245222
0.000108721
0.000431421
-0.0210834
0.275019
-0.210846
-0.145269
-0.0345073
0.0261288
-0.0408501
1.57003
-0.119327
-2.57169e-05
-0.482066
2.49952
0.135221
-0.110538
0.731732
2.04587e-05
-0.00641016
-0.258593
-0.00026596
-0.00425007
-0.000165899
3.63242
0.0845739
0.0345418
4.33696e-06
1.97797e-05
-5.10366e-05
-8.66647e-06
-0.208802
2.31905
-0.322196
-0.00417857
-0.00149521
-0.0430503
2.68237
-0.389312
2.48302
0.366672
1.00214
-0.00111849
2.65162
-0.0203523
-0.0844791
0.260145
0.0976074
0.107458
1.27871
-0.368952
2.62106
1.83856
-0.0714324
-0.238604
0.102912
-0.262242
-4.48084e-06
-0.0085523
0.025313
0.565473
-0.0586975
-0.209519
-0.0289198
3.20821
-0.416262
-0.000277986
-0.00023536
2.72905
-0.0444409
0.0323436
-0.118225
-0.0203592
-0.133616
-0.0861977
0.17936
0.811271
0.386641
-0.0889106
-0.124598
0.000765991
-0.0512346
-0.00459701
-0.0704139
-0.000225275
0.000496786
-0.102751
-0.175545
2.59285
-0.0515353
-0.00173059
-0.0131451
-0.00274711
2.21542
0.15027
-0.000283412
-0.205897
-0.039786
-0.0305688
-0.240487
-0.287126
0.0602914
0.495116
-0.409967
0.000642611
0.0521783
-0.118765
-7.7991e-05
-0.000516624
0.83335
0.650947
0.353819
-0.435034
-0.375338
0.00457482
2.87092
0.000714204
-0.109661
2.37641
-0.148925
-0.312939
3.04929e-05
0.00138133
-0.309849
-0.0810489
0.011868
-0.288259
1.52385
1.70881
0.00577632
0.00229294
1.42906
-0.107887
-8.25827e-05
-0.0124113
-0.243146
-0.178366
-0.0729772
-0.00758711
1.33606
0.000116948
0.580211
1.76755
0.000305351
0.123083
-0.00376697
-0.384086
-0.116506
-0.00558287
0.221078
0.00182535
1.49054
0.0116908
0.181523
0.300817
3.30292
2.21833
-0.466072
-0.0583925
3.16696e-05
0.416272
-0.107509
1.0765
1.98203
-0.285611
0.0993003
-0.127929
-0.0486481
0.987419
-0.00150396
2.68975
0.204769
0.000396731
0.000316377
0.000802046
-0.0968412
-0.133838
0.0057033
0.61922
0.9095
-0.429249
0.00540985
0.00054542
-0.169866
-0.000276782
-0.0209243
-0.0799631
-0.00436747
0.473572
0.0364835
-0.00985661
-0.0277857
-0.115126
2.21586
2.27712
0.284679
-3.53642e-05
-0.00394023
1.59621
-0.00326023
-0.237287
-0.00144118
-0.142483
-0.475253
-0.00141741
-0.00162517
-0.223574
0.0106671
-0.000501313
-0.00939608
1.36228
-0.249396
-0.000237923
0.665747
2.12942
2.20234
0.00475086
-0.270603
-0.066267
2.48983
-0.43177
-0.440884
0.0477518
-0.0920549
0.214042
-0.183166
2.20384
0.644474
-0.00122112
-0.385179
-0.533463
-0.0265228
-8.97267e-06
-0.0123692
1.36375
-0.00128774
0.0878821
-0.0277336
-0.00836407
0.0650309
0.204271
-0.00126488
-0.000843011
-0.0328177
-0.371046
-0.248669
-0.461601
1.54371
-0.00384737
-0.00188417
-0.24059
-0.168267
0.0733253
0.0943947
0.000525209
0.49997
0.978693
0.132051
0.176099
-0.00438992
-0.0933575
0.475571
0.0090901
-0.000299254
-0.0619104
-0.0281716
-0.00505018
-0.0747689
-0.00583324
1.54906
-0.0625496
-0.490926
-0.163747
-0.0744445
0.0827442
2.78404
-0.312396
-0.000812778
2.63654
1.08461
0.0543821
-0.0407816
0.0529691
0.340196
1.04442
0.00242881
-0.0130594
3.32579
1.79766
1.95374
-0.308017
-0.00967465
-0.0085077
-0.000246692
-0.00890831
1.7672
0.563796
0.0535754
-0.0124454
-0.00241546
0.200141
3.08644
2.38137
0.544329
-0.0195269
-0.456417
-0.0209648
-0.00500061
-0.115794
0.125138
-0.191521
-0.0243624
0.00639227
-0.494721
-0.383565
0.208561
-0.169236
-0.00537479
-0.182013
-0.00137088
-0.0471492
-0.00475346
2.06888
0.000350598
1.90282e-05
-0.0963892
-0.137261
-0.201041
0.269624
0.000370401
-0.511072
0.481681
1.27177
3.55557
-0.031609
-0.293961
0.216378
-0.0143846
0.611055
-0.00411446
0.0736955
-0.00129334
1.59461
0.0370754
0.074432
0.918861
0.780615
0.0104006
0.0253044
2.62923e-05
2.49541
-5.84098e-07
-0.318917
0.00232202
0.0122246
1.18281
0.690009
-0.426999
-0.273712
-0.0274609
3.65305
-0.454681
3.22621e-05
-0.106193
-0.000261238
-0.0659822
0.702341
1.27396
0.00620578
-0.243633
-0.0639261
0.982954
0.537589
-0.22472
3.24978
-0.0670744
0.000461828
-0.327194
3.35585
0.0186056
0.625956
-0.292185
0.994843
0.0129094
0.271125
-0.548145
0.0449311
0.376661
-0.0840853
1.28804
-0.180212
-0.132246
-0.00541199
-0.00545823
2.90925
-3.35201e-05
-0.0324025
-0.00020837
-0.0549657
0.00242965
-0.04868
1.56339
2.83997e-06
-0.00697169
0.784251
-0.460699
-0.142573
0.00795738
2.40694
-0.29179
1.12297
-0.0810687
1.02407
0.0526792
-0.00506082
0.135982
0.00539272
2.99162
-0.179301
-0.000768157
0.015441
0.945482
-0.0761471
-0.00472975
-0.000847725
-0.399926
-0.0176509
-0.064989
-0.451906
1.69892e-05
-0.481505
0.00315583
2.14157
-0.0679238
0.98585
0.0335368
-0.0250108
1.68869
-0.270898
-0.312419
-0.0290813
-0.398375
1.7368
1.81938
-0.0953168
-0.000149315
-0.105349
0.0320406
8.30689e-05
0.547562
2.30063
0.0868095
0.010785
0.0922065
-0.489539
-0.00113452
0.579371
0.3551
0.540402
0.0912066
0.192191
-0.0026148
1.15274
0.0857255
-0.466225
-0.00682618
0.174185
0.971506
0.00548812
-0.50712
1.39788
-0.222892
-0.510599
-0.543519
-0.280656
-0.292867
0.363678
1.40903
-0.388659
-5.46155e-06
0.00620457
0.135209
-0.0121063
0.105547
-3.31569e-05
-0.03904
0.0274009
-0.000459944
0.390536
-0.00348757
0.810195
-0.216888
-0.0257245
-0.0469717
-0.0586704
-0.427084
-0.0402212
-0.00686737
0.146338
0.542137
0.034912
-0.229844
-0.0201622
0.209217
-0.0645843
-0.132304
-0.530619
-0.108877
-0.000225091
-0.104451
2.62254
0.0002141
0.942346
-0.141046
3.17573
0.337869
-0.329802
-2.06039e-06
0.0116043
-0.507592
-0.000125152
-0.0185146
-2.78446e-05
-0.444285
0.0312557
-0.377694
-0.159295
-0.000840529
1.71301
1.65444
-0.243871
0.00306372
-0.00116549
-1.01145e-05
-0.00037351
2.88515
-0.00904893
0.0155914
0.15005
0.00660656
-0.00406625
-0.543697
-0.00168765
0.339853
0.0323402
-0.0143533
-0.00501118
-0.179177
-0.284803
1.1781
0.747726
-0.00110561
-0.0900306
0.00379543
-0.111778
-0.00331665
0.919144
-0.0423622
3.68992
-0.064038
-0.00995503
0.511309
-0.131009
2.11688
-0.289335
-0.0779558
-0.0893373
0.126683
-0.024742
5.58004e-05
-0.0568844
1.8896
-0.31034
-0.0224118
-0.294233
-0.189522
1.00343
-0.0034874
1.73503
0.0123637
-0.418297
-0.00365202
0.0919856
0.321974
0.0114189
2.0278
-0.00323977
0.228021
0.599828
0.00368353
-0.000894166
3.09687
0.515009
-9.68108e-05
0.210432
0.186194
0.00090478
-0.118363
-0.152754
-0.465471
-0.068816
2.04076
0.0326522
1.11887
-0.0027282
2.38569
-0.500513
-0.0368145
0.0435939
0.21792
-0.396226
-0.263776
-0.0595295
0.000358778
3.36668
-0.158082
0.00573995
0.0307755
-0.280098
2.07476
0.0208748
-0.113411
-0.00036031
0.671435
0.0563514
-0.271206
0.00569325
-0.0242138
-0.197802
0.000258511
-0.366602
-0.0107282
-0.103057
-0.45369
1.79162
-0.0710688
0.480143
-0.158419
-0.210029
-0.000173884
0.00102055
-0.0259809
0.000269979
-0.078601
0.385512
-0.0144045
7.98216e-06
2.98712
0.0352295
0.00237103
-0.000257683
-0.0146721
1.99773
-0.379714
3.36837
1.22264
0.158995
1.7639
-3.57278e-05
-0.096238
-0.00585281
-0.0173045
1.26912
-0.0682919
3.42713
1.62111
-0.393467
1.68303
0.0661167
-0.0987338
0.0157089
-0.135385
-0.0279293
-0.367569
-0.40486
-0.021079
1.66702
-0.0689588
0.000982706
-0.0302012
-0.00467691
-0.248406
-0.0011487
-0.00879318
-0.000176963
1.06182
-0.232688
1.71557
0.205287
-0.0193478
-0.209492
-0.138724
0.501287
-0.0215575
-0.00749033
-0.467935
-0.314855
0.0975654
-0.307369
-0.0316216
0.132415
0.0269549
0.000240601
0.934654
-0.000269699
0.393514
-0.00567207
2.27457e-05
0.0137632
-0.004726
-0.00861365
-0.110731
1.18165
0.995119
-0.142673
-0.0884097
0.0204025
-0.0363637
-0.0719039
0.000426898
-0.00346329
0.00488013
0.776099
-0.058032
-0.388571
-0.288231
-0.0137474
-0.124567
-0.0510278
-0.0120621
0.0376352
-0.0879832
1.55207
-0.433623
0.0469631
0.0214117
-0.263734
3.31744
-0.0698518
-0.0243505
0.0549754
0.565176
0.0283538
0.0181317
1.67373
-0.00257881
0.318631
-0.150254
-0.293122
0.04496
-0.026297
-0.0391431
0.291533
-0.0256035
-0.00440588
0.0243068
0.0183721
-0.00162685
0.271962
-0.0657897
-0.0143189
-3.49742e-05
1.07116
-0.000258042
-0.199537
0.547126
-0.152815
0.00102626
0.768211
-0.202261
1.15324
-0.000338259
-0.0275853
0.783457
0.00123096
0.0350825
-0.0320431
0.0744875
-0.14705
-0.231626
-0.0563478
-0.0190182
0.0705365
0.145709
0.744254
-0.00131049
0.797841
-0.28644
-0.0232774
-0.0491787
0.00280314
-0.289397
0.000520601
2.64917
1.43374
-0.00347376
-0.149092
0.00167946
-0.0154547
-0.0340398
-0.0707548
1.06967
1.08653
0.236086
0.0725706
-0.524085
0.27773
0.503086
0.589176
-0.365066
0.139944
1.39342
-0.0671805
2.30707
-0.0064729
-0.0771904
-0.316828
-0.000646444
-0.00529403
-0.000263291
2.29242
-0.0726634
0.00190743
-0.109155
-0.026213
-0.00228429
-0.0924828
1.75404
0.00742236
0.0782246
-0.184774
-0.00333493
-0.0322824
-0.00558211
3.46704
0.00147077
0.000191984
-0.0129564
-0.0969267
0.774406
0.00382991
0.149126
0.543969
-0.00106763
0.0151497
-0.517384
0.608105
-0.163676
7.97924e-06
0.00242124
0.119436
0.230174
1.93597
0.637571
-0.248315
9.05889e-06
-0.293755
-0.0184154
-0.0868023
-0.0838487
1.17428
2.55562
-0.000717142
0.998248
1.52775
-0.0677451
0.00844652
-0.146222
-0.054964
0.000764785
-0.283096
-0.0588252
-0.000745178
-0.00371892
-0.0108472
-0.0131823
-0.00466107
1.89473
2.00066
1.29672
-2.64202e-05
-0.16293
0.44796
0.72583
2.68481
-0.00339878
-0.141902
-0.128626
1.84061
-0.132486
-0.0637706
0.117596
1.02296
0.00211325
-0.00334104
-0.164497
-0.210607
0.987328
0.417595
-0.245217
-0.154
0.764621
0.146678
-0.327215
0.0488945
0.441379
1.01212
-0.00240522
-0.00423358
0.763884
0.00142567
0.339035
0.220267
-3.45554e-05
1.67535
-0.0712563
-0.0307787
3.51733
-0.256743
-0.0486833
-0.263412
-0.0161739
2.5328
0.00813632
3.32016
-0.00090766
0.0247877
3.41358
0.0479934
2.5283
-0.0398001
4.43611e-05
-0.114654
2.59245
-0.0107947
-0.0459403
-0.0556171
-0.00688857
-0.144865
2.5919
0.77732
5.91564e-05
0.144864
-0.0258019
0.21036
-0.00607247
0.16051
-0.0181765
-0.00313995
2.46637
2.65744
2.48852
-0.358387
0.500713
0.00103029
-0.400713
1.75662
0.129193
0.00171363
-0.280349
0.00409861
-0.000689541
2.63196
0.000876138
0.0295754
-0.0130943
-0.0603518
2.51142
2.60128
2.66458
0.0831681
0.0034192
1.36368
0.0530722
0.204649
-0.0625539
0.000487732
-0.0203841
-0.00013797
-0.0312958
-0.00508214
-0.038556
-0.00041253
0.986112
0.0145284
-0.384489
-0.0618172
-0.497129
-0.111921
-0.00523782
2.1074
-0.0739184
-1.97972e-05
-0.000181374
3.27598
0.000203224
0.0795468
0.417853
-0.123662
1.84189
-0.0359405
-0.301669
-0.25322
-0.0033229
0.000867049
1.60434
2.65276
-0.0105143
-0.13383
-0.00156793
2.62683
3.16831
-0.0098089
-0.043374
0.13361
0.0220345
-0.167483
0.000489051
0.0706758
-0.256514
0.422797
2.09697
-0.0101757
0.198899
0.812859
0.447416
-0.308323
0.198206
3.07482
1.21435
-0.378701
2.66606
-0.00393245
2.68222
-0.0452852
2.2499
0.56182
-0.0347009
0.289193
0.0165758
0.122247
-0.5139
-0.00457223
-0.159554
2.23557
-0.175727
0.219626
-0.00994709
0.29726
1.1795
-0.0622356
0.257993
0.00498298
-0.0245487
-0.16304
-0.0147043
0.0138305
-0.0601912
-0.00338747
0.0166418
2.22414
0.015902
-0.109188
-0.388088
-0.19628
-0.444516
-0.443225
0.0290293
-1.0858e-05
5.09968e-06
1.59554
-0.30056
0.000424025
-0.0555061
1.12612
-0.394771
-0.101128
0.000794655
-0.0127573
-0.318725
0.97031
-0.0518356
-0.00322977
-0.318144
-0.129022
3.40967
0.725189
0.482588
-0.309007
-1.10961e-05
-0.0455383
0.435782
-0.00241036
0.000133313
1.0765
0.67668
0.00421723
-0.00569768
0.0717849
-0.203007
0.07221
0.0603525
-0.101597
0.000377166
1.69176
0.00406065
-0.00418677
-0.00153359
-0.00144299
-0.00100826
0.540402
0.00704058
-0.0188579
-0.063991
-0.0296104
0.198159
-0.0362591
-0.281994
-0.0694362
2.41151
2.01544
-0.00324776
-0.00963783
0.655984
-0.00543336
-0.123532
0.54464
0.703272
-0.00640726
0.139161
0.270998
0.00898965
0.760649
-0.000655081
0.0507004
0.0789573
0.094485
-0.0954627
0.32383
0.000510053
0.0104856
0.00195786
-0.000287222
-0.00936548
-0.0642012
-0.0849513
-0.192817
0.510961
0.276891
0.0611756
-0.365095
0.088007
0.0664478
0.0882498
0.000408357
2.5884
-0.0541082
-0.0215417
0.132783
3.457
4.4995e-05
0.63184
3.41944e-05
0.0100913
-0.0421929
-0.140106
1.07267
-0.0260958
-0.000103746
1.14188
0.465024
-0.00360433
0.340191
-5.12745e-05
0.996689
0.0555235
-0.181814
-0.000900342
1.45512
0.190049
-0.13398
0.000280338
1.03488
1.84047
-0.00731782
-0.000179289
-0.233667
-0.0586232
0.100269
0.189927
2.69801
1.60079
0.0032081
1.96566
1.47603
-0.0183748
-0.375117
-0.187735
-0.0913727
-0.296521
0.933156
0.00546144
2.8195
0.944954
0.0823546
0.000664819
0.00421071
6.31648e-05
-0.00354275
-0.0179267
3.04176
7.23277e-05
0.501119
0.176798
-0.00143219
2.82422
3.1765
1.19304
1.36822
0.305113
0.0161544
-0.00178644
-0.0703825
-5.90551e-05
-0.00699591
-0.477481
-0.000110559
-0.00929755
2.88711
-0.0740538
-0.000104458
2.98499
0.00306282
-0.232347
-0.443809
-0.00833113
-0.40319
-0.00146399
0.978496
0.0217087
-0.0993531
0.0123626
-0.00404019
-0.00244643
-0.00138147
-0.511871
-0.384637
0.935258
0.0185994
0.0096847
1.40565
0.000498717
3.34231
-0.00332104
-0.571861
0.0145935
0.0103838
0.323962
0.344002
4.33265e-05
-0.0261271
0.000704391
-0.00425998
0.00549558
0.526161
0.309654
1.86943
-0.196279
-0.000591669
0.00110373
0.609507
2.01525
-0.0283885
-0.0398928
3.30865
-0.0175397
-0.131738
0.00673753
0.562545
-0.169153
-0.0539762
0.954476
0.00863782
-0.00151168
0.0104897
0.281299
3.31683
2.5721
-0.154319
-0.201174
-0.0399192
0.00991613
0.000188777
0.470704
1.21031
6.04106e-05
-0.0460989
-9.68922e-05
0.00090119
2.43994
-1.09552e-06
-0.418064
-0.300583
-0.397551
0.439719
5.24339e-05
0.064285
-0.0373903
2.26446
0.197238
0.0320279
-0.191349
0.00412044
2.01471
1.2389
0.0738042
0.409812
2.92577
-0.397264
-0.346597
-0.0119299
-0.0442851
-0.00228098
0.202053
-0.000357401
0.995945
0.0187901
1.18456
-0.21093
-5.30084e-06
0.384685
-0.00100641
-2.29815e-06
-0.00462018
3.24241
3.10593
1.78703
0.000393544
1.11694
2.66248
-0.00606855
0.0178035
-0.0534086
0.612078
2.62621
-0.174875
0.744378
-0.0150625
-0.421162
-0.476096
3.57134
-0.00375341
2.5752
0.545559
1.13258
0.000804152
0.00137087
0.0346923
-0.0560411
0.525849
-0.000294119
0.000445235
2.52071
-0.366601
0.00191563
2.64088
-0.0143004
0.00101274
2.16422
-0.0375461
-0.0095527
0.367554
0.976692
0.00204554
-0.000766912
0.0228187
-0.0254174
2.51227
3.22754
1.63115
3.46879
0.837383
-0.296963
2.95362
-0.000445691
-0.0200879
0.934482
-0.0214627
-0.00405666
-0.000580849
2.64175
0.285653
-0.00401074
3.13003
0.465371
1.39869
0.276438
-0.016955
-0.128802
0.984359
0.477698
2.64676
-0.136801
-0.00485726
2.42929
2.2578
0.0883901
1.90968
-0.229182
-0.0489101
-0.056266
-0.00396712
-0.000821398
2.45287
-0.385837
0.335456
0.00692211
0.9424
-0.201245
-0.0667335
-0.00598541
-0.0205754
2.73713
-0.00494664
-0.108052
-0.0187015
2.70566
-0.117775
0.125808
-0.0468494
0.00883148
0.910315
-0.139
2.78439
0.856872
3.46762
1.44048
-0.391413
0.1953
-0.0109446
0.170299
0.191898
2.54543
2.71538
3.03732
1.78631
2.4765
-0.00217237
2.87593
-0.000162837
0.000454923
-0.303141
3.1283
0.310023
1.42388
7.15505e-05
-0.0134325
0.0380169
-0.19576
2.49856
-0.00419057
-0.0479264
1.76603
0.0064517
-0.0263852
3.36288
0.29396
-0.187306
-0.17214
-0.0032612
0.614689
0.806136
3.51456
0.745207
0.492446
0.0288504
-0.00142746
0.0269859
1.11494
0.0477471
0.000827425
-0.144522
1.38042
-0.00911713
2.59128
-0.374025
2.61795
-0.0202084
-0.140035
2.93676
-0.0330939
0.484338
-0.00246379
-0.00803087
-0.419433
-0.140289
-0.230956
-0.059872
0.148944
-0.176327
-0.453972
2.61971
0.00170667
0.00480164
-0.123115
0.721284
-0.242553
-0.371741
4.97913e-05
-0.141431
0.294557
-0.000597539
-0.384492
0.29745
2.6338
-0.341574
2.58864
-0.0840878
0.746902
1.40553
-0.220542
1.7
-0.0102192
0.705503
0.0122659
0.510659
1.12872
0.99805
-0.173409
0.0382537
-0.00407409
1.02195
-0.000465245
-0.000747301
-0.0063243
0.142304
0.118386
0.0933056
2.21584
0.931066
3.28653
2.05933
-0.00932823
-0.207111
-0.000970254
-0.290481
-0.00650092
0.0358005
0.00396704
-0.177395
1.828
2.55362
-0.00174793
0.00014366
0.458468
-3.38895e-05
-0.0557109
-0.00105175
0.814678
-0.220966
1.06223
-0.404823
0.000270924
-0.0852132
-0.245014
-0.13609
-0.0997212
-0.33238
0.436839
-0.000963624
-0.000172982
0.0127525
-0.000789574
0.521222
0.709287
0.249875
3.05503
0.279278
-0.444618
-0.554536
-0.00263827
0.307966
-0.000710955
2.4374
0.579998
2.8564
0.000898084
-0.199583
-0.0414224
0.313654
1.10404
2.24122
-0.0458616
0.235532
-0.011806
-0.104747
-0.048553
-0.0369919
0.618153
0.00969684
-0.0389491
-0.123028
1.3544
0.442127
2.87181e-05
-0.00531144
-0.0376271
-0.00366093
0.71044
-0.00401407
-0.109476
0.878944
0.00049099
1.41984
0.000551739
-1.6347e-05
-0.477001
-0.0710965
0.00102974
-0.137093
0.00111966
3.00041
0.0760472
-0.150125
2.74388
0.726349
-0.193997
2.1789
-0.0166997
-0.0111438
-0.0125347
0.521852
3.71363
-0.00906725
-0.00356611
2.24114e-05
0.0476098
-0.00748893
0.152732
0.0373554
-0.128024
-0.364679
0.113361
0.0677158
-0.112524
-0.00320933
0.131517
2.14208
-0.0107682
-0.0832534
-0.00136047
2.22343
0.341965
2.11945
0.00262183
-0.00503371
-0.141917
3.05311
0.825058
-0.172451
-0.000745568
0.192602
0.674916
-0.00913973
1.13441
-0.297009
0.12881
-0.450005
2.23847
-0.0860781
1.35431
-0.0191672
3.53389
-0.254268
-0.0662671
2.79381
-0.264685
0.921316
-0.484394
1.01663
0.0392104
0.301788
1.75221
0.297319
-0.299837
-0.0583163
-0.0446515
-0.0364665
0.174178
-0.0082359
-0.334771
-0.174686
0.0120629
-0.407907
-0.507189
-0.000192901
0.839649
-0.0548927
0.861918
2.85225
1.97752
-0.334263
-0.432831
0.00282326
-0.291028
-0.0230808
3.4031
-0.215809
-0.186334
1.95432
0.284376
-0.233786
1.26303
-0.226379
-0.00379177
-0.07057
0.0612409
0.00433172
2.04962
-0.0162818
0.795479
1.74841
-0.0346368
1.30356
-0.406082
-0.00221892
0.0405734
0.593347
1.83405
-0.0152055
0.531328
-0.413738
0.457785
-0.138691
2.00261
0.131929
-0.0729725
-0.0156452
0.00112509
2.57361
-0.0144625
-0.122537
-0.00060888
1.14718
-0.000343756
-0.23918
0.00244425
-0.273865
0.004169
-0.0587804
1.11176
-0.02356
0.00553854
0.00404716
-0.024837
0.457203
-0.000447522
-0.000117546
-0.0511055
-0.0633583
-0.134008
0.0492482
-0.0114189
0.4422
0.460324
-0.00768436
0.00610065
-0.00114418
2.53752
-0.0253466
-0.0409013
2.20464
-0.109893
2.04146
0.337021
2.60974
1.24853
0.656985
-0.0089476
0.0456709
0.474895
0.151704
-0.026295
0.00115153
0.0508896
-0.300491
-0.00565692
-0.0498929
-0.0482293
-0.0531209
-0.000154954
-0.0197348
0.000403385
-0.0004142
0.0051921
1.80057
1.18124
-0.0665775
-0.0168259
-0.286445
-0.125701
1.34854
2.3247
-0.303006
0.012304
1.12596
0.0137729
0.00363189
-0.449387
-1.95345e-07
0.690021
0.922416
-0.00392252
-0.218343
0.00127094
-0.0475575
-0.0466043
0.365134
0.14239
-0.322456
-0.000230702
0.0656129
0.0104403
-0.207274
0.0336862
2.64488
0.00205167
-0.023516
-0.193601
1.53174
1.82529
1.89445
0.319766
0.000347169
0.0402585
-0.00379882
-0.00871555
-0.00573474
0.554783
1.17568
-0.0725362
-0.200295
1.81206
-0.0249253
-0.0338749
-0.355695
0.334371
-0.00572738
0.503659
-0.0840676
0.608747
0.744425
-0.358743
0.00286767
-0.0299275
0.618233
0.00814282
-0.000372943
0.798681
-0.00239796
2.04143
1.4902
-0.530851
1.58346
0.236774
-0.0221046
-0.291911
1.68241
-0.122506
1.52712
0.258619
-0.00346526
0.204791
0.00642245
0.945145
0.818912
-0.0115313
0.600398
-0.044001
0.03217
1.68632
-0.00781432
-0.00461426
-0.000813122
-0.0741539
1.49929
-0.0348439
-0.0737368
-0.034384
1.08305
3.02303
0.00412413
1.14166
1.02428
-0.00365706
-0.420706
0.167792
1.22436
-0.0567619
-0.115322
1.69159
1.66422
-0.158037
1.63627
-0.425829
1.87973
0.600671
-0.424144
-0.000137441
-0.0427776
0.431855
-0.104669
1.10773
-1.40657e-06
2.11097
-0.00915673
1.47348
0.0103699
-0.430838
1.40859
0.000356909
-0.00219026
-0.032503
-0.020746
-0.255532
-0.00797761
0.287585
-0.202448
2.50553
0.00560593
-0.168969
1.47336
-0.0546178
1.71693
0.271565
-0.0321553
1.502
0.580316
-0.409886
-0.188825
1.88247
4.1001e-05
0.00583942
0.760181
-0.388469
-0.101102
-0.00792706
-0.000210327
-0.24106
1.94857
0.0920416
-0.0356865
-0.0471594
1.75114
-0.164427
1.59817
3.61667
-0.00299613
-0.00179454
-1.49314e-05
-0.000317656
0.000367281
-0.022298
0.0966143
1.71902
-0.212887
0.802083
-0.0169866
0.323393
-0.0612068
-0.186004
0.304116
-0.0354573
0.628437
-0.098165
1.56155
-0.0817512
-0.111497
0.66177