/*--------------------------------*- C++ -*----------------------------------*\
  =========                 |
  \\      /  F ield         | OpenFOAM: The Open Source CFD Toolbox
   \\    /   O peration     | Website:  https://openfoam.org
    \\  /    A nd           | Version:  7
     \\/     M anipulation  |
\*---------------------------------------------------------------------------*/
FoamFile
{
    version     2.0;
    format      ascii;
    class       volVectorField;
    location    "38";
    object      U;
}
// * * * * * * * * * * * * * * * * * * * * * * * * * * * * * * * * * * * * * //

dimensions      [0 1 -1 0 0 0 0];

internalField   nonuniform List<vector> 
29659
(
(1.01503 -0.0190776 1.35413e-22)
(1.01225 0.00636763 7.53161e-22)
(0.986827 -0.00483531 -8.28727e-22)
(0.957992 -0.0739389 2.72532e-22)
(0.996536 -7.4531e-05 1.19826e-22)
(0.93723 -0.0460936 -3.81853e-22)
(1.08437 -0.104867 1.06971e-21)
(1.01988 -0.0287226 -1.27268e-23)
(1.00284 -0.00274565 2.08589e-23)
(1.00026 -6.97135e-05 6.41032e-24)
(1.02247 -0.0383461 -9.50234e-24)
(0.997251 -0.0235658 -3.40188e-22)
(0.999322 -0.0002761 1.55563e-23)
(0.999957 -1.54491e-05 2.67265e-25)
(1.23977 0.0829314 3.9536e-22)
(0.99139 -0.00279016 1.28751e-22)
(0.999778 -0.0012082 -5.97619e-24)
(1.18008 -0.0166594 -1.97459e-23)
(0.996983 -0.00255474 -4.07434e-23)
(0.984399 -0.0011639 -1.82914e-22)
(0.998781 -0.000391002 -5.45109e-23)
(1.00267 -0.00273939 7.31916e-23)
(0.986703 -0.00511421 9.11404e-22)
(0.996961 -0.000244804 5.22487e-23)
(0.791529 0.227175 3.60507e-22)
(1.01362 0.00506832 4.0526e-21)
(0.999268 -8.33461e-05 3.5677e-23)
(0.906623 0.187374 -2.58648e-20)
(1.24445 0.0794816 -1.32763e-21)
(0.998926 -0.0128609 -6.10194e-23)
(1.02153 -0.0153668 1.0026e-22)
(1.05235 -0.00953722 -7.7961e-22)
(0.981983 -0.170823 3.144e-21)
(0.997787 -0.0325958 1.81883e-22)
(0.901791 0.178658 2.1241e-20)
(1.00591 -0.046107 5.91509e-22)
(1.1073 0.0626725 -1.07706e-21)
(0.959985 -0.0413447 1.09326e-21)
(1.00745 -0.00115741 -2.82823e-22)
(1.00719 -0.000837245 5.3969e-22)
(1.00061 -0.000229491 -1.84115e-23)
(0.984816 -0.0438362 -1.18782e-21)
(0.999804 -0.00117455 -1.47144e-25)
(1.04084 -0.098746 -2.69056e-21)
(1.00005 -8.03461e-06 -1.64211e-24)
(0.99922 -0.0130388 4.42843e-23)
(0.996639 -0.017504 -9.7962e-23)
(1.00011 -0.00011959 3.86621e-24)
(1.00471 -0.00512539 -2.91505e-22)
(1.10627 0.0587369 -4.43653e-22)
(1.15844 -0.110951 7.36459e-22)
(0.96254 -0.0647956 -1.29833e-21)
(1.05222 -0.00830037 2.76208e-22)
(0.939286 -0.0456235 -6.34587e-22)
(0.991604 -0.00286037 -1.13327e-22)
(1.24206 0.0663631 -8.63953e-22)
(0.995234 -0.00319924 4.13341e-23)
(0.998747 -0.000430593 6.90103e-23)
(1.00039 -0.0306617 -2.66163e-22)
(1.01772 -0.0818682 -1.08458e-21)
(0.999907 -9.84674e-06 7.79508e-25)
(0.99709 -0.0026181 -8.39488e-24)
(1.27735 -0.0203286 -1.08692e-21)
(1.0064 -0.0450325 -3.37864e-22)
(1.1296 0.162348 8.87355e-21)
(0.843559 0.0614867 5.63372e-20)
(0.999299 -0.0386652 -5.0697e-22)
(0.989842 -0.0197493 4.06028e-22)
(0.88659 0.0388831 2.26831e-20)
(1.00064 -0.000216388 1.19436e-23)
(1.01602 0.00608075 -5.52009e-21)
(0.986419 0.147086 1.46965e-20)
(1.00461 -0.0126961 -1.01278e-22)
(0.83598 0.266446 1.34503e-20)
(0.988569 -0.000903377 5.94681e-22)
(1.15472 -0.0644325 -3.47348e-22)
(1.30743 0.078267 -1.38023e-21)
(0.961169 -0.0234414 2.55329e-22)
(0.99993 -3.15368e-05 -2.04787e-24)
(1.00726 -0.0681255 -1.00859e-21)
(0.938825 -0.0010677 -4.11193e-22)
(1.03363 0.0643764 3.25845e-21)
(1.01532 -0.0198994 -4.0741e-22)
(1 -8.85548e-05 -1.45616e-24)
(1.08728 -0.101941 -1.6806e-21)
(1.25779 -0.149438 -3.93608e-21)
(1.07854 0.15438 -1.9202e-20)
(0.999295 -0.00027203 -1.41953e-23)
(0.999343 -0.000246152 -4.18414e-24)
(0.90578 -0.0602901 -1.50148e-21)
(0.993286 -0.0753914 1.71291e-21)
(0.961046 -0.0245557 2.89168e-22)
(1.00442 -0.00529874 4.91551e-23)
(1.0825 -0.0152609 -4.03824e-22)
(0.895724 -0.0259156 -1.27074e-21)
(1.10543 0.182239 8.65328e-21)
(0.997878 -0.0974762 2.75769e-21)
(1.00066 -0.000544393 2.9309e-23)
(0.960368 -0.0928108 -2.5428e-21)
(1.24802 0.114375 3.24847e-21)
(0.999926 -3.08675e-05 2.97179e-24)
(0.96293 -0.0152448 -1.54641e-21)
(0.99991 -1.20838e-05 -4.0905e-25)
(1.06495 -0.0272105 -1.9267e-21)
(0.960519 -0.0646601 8.34287e-22)
(1.0528 0.0191007 5.35928e-21)
(1.01181 0.13331 2.1237e-20)
(0.99937 -0.000249047 -3.48063e-23)
(0.999993 -9.81828e-05 8.25021e-26)
(1.00396 -0.160622 -1.68192e-22)
(0.978467 -0.16935 -2.83777e-21)
(1.06005 -0.0562225 -1.23858e-23)
(1.00002 -3.21845e-06 3.36227e-25)
(0.998433 -0.00870523 -1.57013e-22)
(0.999845 -0.00310126 3.15389e-24)
(0.99185 0.149954 1.47783e-22)
(1.07209 0.0890564 -6.77065e-21)
(0.983373 -0.0104112 -6.29195e-22)
(1.00004 -9.64815e-05 5.93455e-25)
(1.00505 -0.0125746 -8.00195e-23)
(1.27956 -0.0699633 1.12782e-20)
(1.00764 0.0181763 8.96e-21)
(1.21337 -0.0792014 -5.68189e-21)
(0.839871 0.0752873 -5.20618e-20)
(1.00154 -0.000504977 -7.08813e-23)
(1.20494 -0.0573431 9.38893e-22)
(1.17894 -0.0117743 -1.71852e-22)
(1.02376 -0.0785187 8.62159e-22)
(1.00562 -0.0048535 -2.62541e-22)
(1.00004 -0.000620452 1.65697e-24)
(1.0401 -0.09605 9.60585e-22)
(1.30672 0.0711227 -1.05814e-21)
(1.04571 0.26076 1.94384e-20)
(1.21874 -0.0964327 -1.623e-21)
(1.06285 -0.0267293 1.61709e-21)
(1.0209 -0.0148352 1.93289e-21)
(1.20834 0.274211 9.97033e-22)
(0.961161 -0.0011363 2.12703e-21)
(1.17729 -0.23196 1.13329e-20)
(1.2461 0.107203 -2.57451e-21)
(1.20419 -0.0521432 -9.20803e-22)
(0.91477 -0.00757309 -1.63081e-21)
(0.931297 -0.0644236 5.15328e-22)
(1.00002 -2.95655e-06 -1.4445e-25)
(0.999985 -5.66983e-06 3.94366e-26)
(0.996446 -0.000124054 -9.342e-23)
(0.996902 -0.0171447 1.99782e-22)
(0.981715 -0.129347 -2.13488e-21)
(1.1764 -0.180838 5.43399e-21)
(1.29459 0.00650596 -3.71114e-21)
(1.043 -0.0265583 9.13349e-22)
(1.02527 -0.0275373 2.78286e-22)
(1.00061 -0.000883672 4.58744e-23)
(0.999815 -0.000313299 3.29106e-24)
(1.00219 0.0290128 -2.02505e-20)
(1.00076 -0.00215848 4.94651e-24)
(0.990669 -0.0160635 -1.89801e-25)
(1.23289 0.261434 -2.57216e-21)
(1.00713 0.0651017 -2.23979e-20)
(1.16151 -0.106575 -1.68921e-21)
(0.941716 -0.00405874 6.98744e-22)
(0.959357 -0.0723586 2.00074e-21)
(1.24551 0.0709894 2.29246e-22)
(0.99993 -6.47894e-05 6.19338e-25)
(0.999984 -5.47198e-06 -1.51809e-26)
(0.983299 -0.0109395 2.26335e-22)
(0.933004 -0.0630555 -2.79264e-21)
(1.00007 -0.000318113 -4.71503e-24)
(1 -9.39746e-05 -8.33746e-25)
(0.990478 -0.0072619 -7.69768e-23)
(1.00005 -0.000602163 -1.34844e-24)
(1.00808 -0.00834893 -1.42932e-22)
(1.22849 0.271353 2.90213e-21)
(0.96173 -0.000605558 -1.80011e-21)
(1.06612 -0.153864 -1.20113e-21)
(0.992872 -0.000139963 3.85083e-22)
(1.00297 -0.00379227 1.54667e-23)
(0.961921 -0.0150003 2.55219e-21)
(0.998852 -0.00868218 -1.45328e-23)
(1.21832 -0.0693437 3.64144e-21)
(0.99997 -1.45394e-05 6.95942e-25)
(1.01887 -0.0540058 -5.77879e-22)
(1.08323 0.156601 6.73977e-21)
(0.99025 -0.0183512 -2.21349e-23)
(1.17087 -0.229636 -1.08728e-20)
(1.05359 0.0779536 -6.08805e-21)
(0.991138 -0.00399952 -5.6439e-22)
(0.974548 -0.0219578 7.01173e-22)
(1.00531 -0.00488013 3.98633e-22)
(0.999036 -0.0119887 -1.0031e-22)
(0.999611 -1.03065e-05 3.86254e-24)
(1.00865 -0.0251209 1.77996e-23)
(0.830446 0.0375788 2.19487e-20)
(1.00129 0.0232387 1.56163e-20)
(0.979804 -0.00882885 1.67526e-23)
(0.991086 -0.015821 -2.5745e-22)
(0.968244 0.0762475 -2.08675e-20)
(1.01949 0.0499804 2.81952e-21)
(0.897965 -0.0256124 1.55683e-21)
(1.00161 -0.000672856 -5.52517e-23)
(1.1026 -0.128936 1.94415e-21)
(0.961071 -0.123296 2.7412e-21)
(0.997636 -0.0240293 1.60493e-22)
(1.00118 -0.00148443 -9.09908e-23)
(1.21642 0.278071 1.22715e-21)
(0.990783 -0.00727478 -5.10906e-23)
(1.00939 -0.00746948 -1.63054e-22)
(0.979141 -0.128808 2.78562e-21)
(1.00473 -0.164507 4.13423e-22)
(0.999949 -7.3543e-06 2.41826e-25)
(0.977446 0.217622 -2.22706e-20)
(0.998558 -3.24377e-05 -9.33326e-25)
(1 -7.54369e-05 -3.48564e-25)
(0.999241 -0.000290206 6.07326e-24)
(0.997417 -0.0756137 -6.38099e-22)
(1.27685 -0.00239591 3.06864e-21)
(1.02022 -0.0528892 3.19238e-23)
(1.00911 -0.00697777 -1.11681e-22)
(0.996995 -0.000336099 1.30249e-22)
(0.89994 -0.0285299 -3.19745e-22)
(1.00004 -0.000659353 -1.32119e-24)
(1.00067 -0.00220025 3.32715e-25)
(0.996763 -0.000285637 -8.61369e-23)
(1.03897 0.00198073 5.02493e-21)
(0.996338 -0.00552338 -2.89788e-23)
(0.998461 -0.00808586 4.63165e-23)
(1.03835 -0.00187054 2.38382e-21)
(1.00018 -0.000537844 5.66126e-24)
(1.00005 -7.01233e-06 4.36814e-25)
(1.00687 -0.000835266 5.63357e-23)
(0.966001 -0.0469699 -9.8563e-22)
(0.965974 -0.000574225 -8.85774e-22)
(0.993305 -0.00053188 -4.07057e-22)
(1.01753 0.0047933 4.55663e-21)
(0.977916 -0.00161936 4.29837e-22)
(1.02557 -0.0265956 -2.82958e-22)
(0.999956 -1.72123e-05 7.32798e-25)
(0.995905 -0.00364982 -1.59003e-22)
(1.0011 -0.00147374 9.83458e-23)
(1.10151 -0.124318 1.95674e-21)
(1.08937 -0.244635 7.35941e-21)
(0.998076 -0.000174004 6.73382e-23)
(1.00065 -0.000785579 -3.48799e-23)
(0.998321 -0.00789636 -1.55416e-23)
(1.0049 -0.0112334 -2.00993e-22)
(0.98471 -0.000858491 -7.79826e-22)
(0.999933 -6.18536e-05 -6.40755e-26)
(1.2546 -0.147101 -8.66588e-21)
(1.00006 -0.000673928 2.17831e-24)
(1.03848 0.00186426 -3.53995e-21)
(0.995385 -0.00320137 -8.32165e-23)
(1.0002 -0.000522047 2.2315e-24)
(1.05132 0.0197907 -3.40455e-21)
(0.953248 -0.118502 -2.69834e-21)
(1.00035 -5.90871e-05 2.02514e-23)
(1 -1.82425e-05 -1.45756e-25)
(0.914522 -0.00541943 -1.84947e-21)
(1.06702 -0.230883 -1.135e-21)
(0.987982 -0.0115791 -6.13827e-23)
(1.02255 -0.0803282 -2.23954e-22)
(1.04418 -0.0275294 -1.49234e-22)
(1.0911 0.148596 8.34775e-22)
(1.00011 -0.000112907 1.04397e-24)
(0.966638 -0.0459634 9.91756e-22)
(1.25849 -0.0755355 6.06034e-21)
(0.935657 0.118229 4.79588e-22)
(0.990118 -0.0179452 1.84911e-22)
(1.05126 0.0754669 7.48596e-21)
(1.15503 -0.0597753 -2.04209e-22)
(0.999848 -0.00341241 -6.86201e-24)
(0.663415 0.100939 2.94482e-20)
(0.999244 -0.000611307 -4.06119e-23)
(1.06555 -0.158407 -1.4959e-21)
(0.901652 -0.0284797 1.96868e-21)
(1.00315 -0.00358264 -8.53006e-23)
(1.2448 -0.0277185 -2.38421e-21)
(0.98798 -0.00131018 -4.68817e-22)
(1.05758 0.282222 1.36956e-20)
(0.995144 -0.000368839 3.81129e-23)
(0.975316 -0.0236737 -3.69581e-23)
(0.999721 -0.00310011 -3.34296e-23)
(1.25141 0.169158 8.05076e-22)
(1.00029 -0.024322 4.52185e-23)
(1.10008 0.185753 5.70139e-22)
(0.999288 -6.4702e-05 -1.57086e-23)
(0.991825 -0.00264636 -1.80187e-22)
(0.949948 0.275539 -9.41132e-21)
(1.04583 0.000552469 -4.04124e-21)
(1.03806 -0.00135233 2.7788e-21)
(0.959422 -0.0599312 2.35122e-21)
(0.999788 -4.57231e-05 3.60224e-24)
(1.00476 -0.0108571 -2.23429e-23)
(0.999772 -0.00131898 -1.03924e-23)
(1 -7.14725e-05 -2.24577e-25)
(1.08304 0.00602509 9.84269e-22)
(1.00006 -7.46452e-06 2.54458e-26)
(0.971902 -0.0210285 1.64377e-21)
(1.25557 -0.0775468 -5.70136e-21)
(0.786052 0.237788 -2.62472e-20)
(1.05274 0.259647 -3.09797e-20)
(0.957402 -0.10199 8.21727e-22)
(0.980979 -0.0427359 6.38086e-22)
(0.967638 -0.00222016 4.21555e-22)
(1.04842 -0.0520426 1.17302e-22)
(1.00943 -0.0247707 -7.27421e-23)
(0.974397 -0.0230118 -9.67855e-22)
(0.959098 -0.111916 3.71674e-22)
(1.08937 0.153621 -1.24837e-20)
(0.999334 0.0240298 3.31353e-20)
(0.998203 -0.000212326 3.69578e-23)
(1.01466 0.134698 -2.89789e-20)
(1.08156 0.00406127 3.10808e-22)
(1.21828 -0.0761279 1.61102e-21)
(1.01925 -0.022086 1.4219e-22)
(1.00175 -0.0223637 -2.49904e-22)
(1.03319 -0.0730687 -6.77587e-22)
(0.992416 -0.00255858 -4.26228e-22)
(0.99625 -0.000927134 -2.73984e-23)
(0.999915 -9.47451e-06 4.03019e-24)
(0.998816 -0.0122879 1.46643e-22)
(1.13079 -0.0620657 1.84027e-23)
(1.25723 0.174833 -1.31994e-21)
(1.00228 -0.00195356 4.03125e-23)
(0.961482 -0.038697 -1.29504e-21)
(1.02197 -0.0225292 -4.44586e-22)
(0.999946 -2.35021e-05 -3.11675e-25)
(0.958174 -0.106765 -1.31749e-21)
(0.734586 0.181351 -1.36382e-20)
(0.991261 -0.00683522 6.37717e-22)
(0.998486 -0.00646555 4.30895e-23)
(1.02008 -0.0218039 -8.92398e-23)
(1.00673 -0.066166 1.27412e-21)
(1.13297 0.0373079 1.06082e-21)
(0.999359 -0.0139369 -2.23054e-23)
(0.999955 -7.51183e-05 1.30415e-24)
(1.00002 -4.54078e-06 1.78196e-25)
(0.996198 -0.000844757 -3.04354e-23)
(0.944831 0.274112 1.36181e-20)
(1.0705 -0.0412796 2.92047e-22)
(1.09564 -0.241137 -1.87699e-21)
(1 -1.82598e-05 -4.09111e-26)
(1.064 -0.236786 7.16857e-22)
(1.11638 -0.00771868 -1.01221e-21)
(0.992696 -0.000234368 -1.90244e-22)
(0.905223 -0.0103591 -2.31075e-21)
(0.998603 -0.0063509 -4.35609e-23)
(0.999385 -0.000279177 -2.53197e-24)
(0.96751 -0.0415061 -2.90538e-22)
(1.0013 -0.00162925 -4.35932e-23)
(1.22284 -0.0665009 -3.26303e-21)
(1.01301 -0.00148076 -1.1975e-21)
(1.29122 0.0575016 5.51653e-22)
(0.999902 -0.00336727 8.82388e-24)
(1.00628 -0.0197879 2.72654e-23)
(1.00737 0.016059 -1.21127e-20)
(1.27802 -0.0690594 -4.64697e-21)
(1.0006 -0.000832047 -2.69327e-23)
(1.00063 -0.000736976 2.64272e-24)
(1.00129 0.176989 1.37921e-21)
(0.994984 -0.0767319 -3.35312e-22)
(0.999108 -0.0137284 2.74067e-23)
(1.01783 0.05533 1.4914e-21)
(0.953172 0.0396116 4.123e-20)
(1.15942 -0.11608 -2.50347e-21)
(0.99927 -0.0373226 -1.46592e-22)
(1.27504 0.000508224 -3.07722e-21)
(0.998913 -0.000105128 -2.71524e-23)
(0.98759 -0.00605112 1.64082e-22)
(0.995246 -0.000388369 -1.0496e-22)
(1.02202 0.0477563 -4.58707e-24)
(0.999983 -0.0010842 -7.38042e-25)
(1.01256 -0.00180996 1.2234e-21)
(1.20043 -0.164952 1.49661e-22)
(1.03677 0.246096 3.12712e-20)
(0.843629 0.275597 -5.89939e-21)
(0.99141 -0.00399097 2.38935e-23)
(0.987619 -0.011306 1.83293e-22)
(1.12664 0.168744 -7.02337e-21)
(1.01846 -0.0843898 1.56709e-21)
(0.999918 -1.14043e-05 -3.93786e-24)
(1.30091 0.0318721 -4.00377e-21)
(1.03797 0.00272014 -1.51465e-21)
(1.03728 0.00265582 -1.03455e-21)
(0.99193 -0.0194815 -2.83458e-22)
(1.02654 -0.00270106 -1.90589e-21)
(0.921607 0.245588 5.59562e-21)
(1.17158 -0.192975 -1.51766e-21)
(0.985354 0.233615 5.43843e-21)
(1.01423 0.225307 -9.22451e-21)
(0.999996 -9.41442e-05 -2.61382e-25)
(1.12685 -0.0606909 2.41679e-22)
(1.17161 -0.186736 1.01393e-21)
(0.996167 -0.00557457 7.48339e-23)
(1.00233 -0.00209336 -6.65829e-23)
(0.943625 0.047208 9.88967e-21)
(1.07284 -0.0424467 -3.58832e-22)
(1.00041 -0.000108901 4.58091e-24)
(0.975483 -0.0889322 -3.17754e-21)
(0.960138 -0.126643 -1.2885e-21)
(0.992005 -0.00271847 2.53308e-22)
(0.999828 -0.000304172 -4.13006e-24)
(1.13416 0.21464 -8.83333e-22)
(1.07071 0.0856741 1.13258e-20)
(1.00007 -0.000738908 -3.558e-26)
(1.00584 -0.00524028 5.13755e-23)
(1.00752 -0.00525116 2.78215e-22)
(1.23629 -0.12152 6.87716e-21)
(0.959442 -0.0583149 -2.12377e-21)
(1.00009 -0.000877366 -3.67549e-24)
(0.99998 -3.7183e-06 -4.85559e-26)
(1.00071 -0.000238154 6.97614e-24)
(1.13124 0.0397653 -1.01126e-22)
(0.959938 -0.03989 -1.04315e-21)
(1.00455 0.0666333 6.67326e-21)
(0.921139 -0.0715805 1.22691e-21)
(0.982156 -0.0425196 -6.65033e-22)
(0.964971 -0.00172506 -1.6729e-21)
(1.02038 0.0537732 -7.34847e-21)
(1.27333 -0.0185701 -2.87483e-22)
(0.998259 -0.000225739 6.74537e-23)
(1.0113 -0.00852318 -2.95252e-22)
(1.00122 -0.00161215 4.94536e-23)
(0.987609 0.259199 -1.34966e-20)
(0.96288 -0.0360933 5.55036e-22)
(1.00156 -0.000410434 -2.3286e-23)
(0.989085 -0.00539048 -2.26994e-22)
(1.20921 -0.0472768 -1.25775e-21)
(0.999516 -0.0149747 -6.38115e-23)
(0.983318 -0.0187073 -1.29392e-22)
(1.00034 -0.000207304 -1.41754e-23)
(1.00035 -7.95548e-05 -6.34351e-25)
(0.726364 0.193623 2.05115e-20)
(0.988074 -0.00195262 -2.91742e-22)
(0.993075 -0.00703255 2.64879e-22)
(0.999463 -0.00275136 -3.15026e-23)
(0.99894 -8.04771e-05 -3.72824e-24)
(1.10164 0.141533 -4.12258e-21)
(1.20644 -0.164899 3.96209e-22)
(0.979578 -0.0640526 4.13681e-22)
(1.00002 -3.40458e-06 -1.65252e-25)
(1 -5.75415e-05 -2.02334e-25)
(0.961411 -0.0374192 1.4675e-21)
(0.990154 -0.00286736 5.9816e-23)
(0.992482 -0.00326743 -3.46376e-23)
(1.02089 -0.00777564 5.77565e-22)
(1.00842 -0.00357186 9.98875e-23)
(1.0007 -0.0248973 -8.30629e-23)
(1.17491 -0.0344886 -6.36765e-22)
(0.972776 -0.0066895 -3.59336e-22)
(0.988356 0.228042 -4.61759e-21)
(1.02121 -0.0384145 -5.30254e-23)
(1.00036 -0.000208063 1.5718e-23)
(0.955996 -0.100164 1.19312e-22)
(0.976711 -0.056857 -1.39297e-21)
(1.23713 -0.0210682 -1.11831e-21)
(0.995853 -0.00918385 -8.08155e-23)
(0.985577 -0.0749642 -4.93502e-22)
(0.999969 -8.59528e-06 4.24634e-25)
(0.869885 0.196157 -2.05702e-20)
(1.02221 -0.0032602 1.06667e-21)
(1.00012 -0.000354464 -6.13774e-24)
(0.830144 0.0513816 -2.84414e-20)
(0.978024 -0.0644061 9.11863e-22)
(0.999968 -9.99655e-06 7.2417e-26)
(1.00211 -0.00190838 1.97093e-23)
(0.956518 -0.104736 -7.15906e-22)
(1.05782 -0.0544332 3.29175e-23)
(1.07192 -0.0189291 1.16025e-21)
(0.999987 -6.16153e-06 -5.21396e-27)
(0.988005 -0.000998921 2.32461e-22)
(1.03438 -0.0714586 1.29422e-21)
(0.992226 -0.00249404 3.49702e-22)
(0.999318 -7.42196e-05 -8.43708e-23)
(0.987838 -0.00624764 3.89321e-24)
(0.962079 0.0817335 2.41096e-21)
(0.989646 -0.019194 -3.35473e-22)
(0.98403 -0.0183142 9.40187e-23)
(1.00241 0.0345042 -6.30355e-21)
(0.995977 -0.0034478 8.21181e-23)
(0.976112 0.265387 -1.68729e-21)
(0.999966 -1.00452e-05 -2.20437e-25)
(0.985279 -0.0427423 2.74544e-22)
(0.978067 -0.122496 3.34358e-21)
(0.987113 -0.0753883 8.49172e-22)
(1.25182 -0.0885246 1.57879e-21)
(0.998288 -0.00845957 1.05181e-22)
(1.01425 -0.0361755 -3.51138e-23)
(0.999873 -0.00362825 9.41101e-25)
(0.975145 -0.03344 -7.44872e-22)
(1.05991 -0.0589774 -5.2809e-23)
(0.999948 -2.25164e-05 1.50852e-24)
(1.00003 -1.92247e-06 -2.81409e-25)
(0.99063 -0.000644526 1.57515e-22)
(0.973986 0.159356 1.47396e-20)
(1.01919 -0.0297717 4.2076e-22)
(1.00381 -0.00535513 -8.08516e-23)
(0.899065 -0.0534729 1.59967e-21)
(1 -1.64842e-05 -1.25389e-25)
(1.00144 -0.00177919 -7.85005e-23)
(0.999949 -0.0010336 -9.35111e-25)
(1.02118 -0.0284965 5.20241e-22)
(0.975221 -0.0247198 1.29591e-22)
(0.999435 -0.000434564 1.03726e-23)
(0.990329 -0.0171197 1.30534e-22)
(0.981689 -0.0108697 -1.32745e-22)
(1.0015 -0.00024658 -6.3809e-24)
(0.999966 -1.15899e-05 -1.42274e-25)
(1.26277 -0.0540587 -5.40657e-21)
(0.999519 -0.00270491 3.39425e-23)
(1.11243 -0.0139696 7.44022e-22)
(1.06534 0.23075 3.12338e-20)
(1.11751 0.169734 -6.66149e-21)
(1.00124 -0.0314091 -3.1929e-22)
(1.00826 -0.0032431 -3.29744e-23)
(1.02706 -0.00214711 1.1677e-21)
(0.999948 -0.00370803 -1.04582e-24)
(0.996843 -0.0159704 1.39923e-22)
(1 -2.67832e-05 -3.16145e-25)
(1.00855 0.227178 -6.42922e-22)
(0.982048 -0.0246578 1.84164e-22)
(1.0205 -0.00718424 -4.13133e-22)
(0.973392 -0.00693986 7.46335e-22)
(1.00556 -0.0194753 4.11689e-24)
(0.996102 -0.0090289 1.75758e-22)
(0.999845 -0.000311785 9.17157e-25)
(1.00003 -1.83552e-06 -1.48722e-24)
(0.993311 -0.00700367 -1.92909e-22)
(1.08267 -0.0176592 -6.00893e-22)
(1.00756 0.0686087 1.01768e-21)
(1.00181 -0.000725676 -9.3782e-23)
(0.962942 -0.0928171 -6.6558e-22)
(0.962752 -0.0350166 -2.44002e-22)
(0.988303 -0.000780687 -8.69216e-22)
(1.29374 0.00770618 2.33134e-21)
(0.998075 -0.00148183 -4.04001e-23)
(1.00571 -0.022012 -4.18709e-23)
(0.991894 -0.00429958 1.77002e-22)
(0.999859 -0.000300638 7.74962e-25)
(0.957203 -0.109634 8.31082e-22)
(1.0035 0.0554836 -1.0407e-20)
(1.05144 0.0681421 -7.6334e-21)
(0.966262 -0.0233526 -1.18242e-22)
(1.0026 0.0520768 -4.25587e-22)
(1.00012 -0.000333023 1.22191e-23)
(1.00002 -2.48891e-06 4.68477e-25)
(1.29949 0.03211 1.37281e-21)
(1.24338 -0.0226749 1.89541e-21)
(0.836109 0.20088 -9.5667e-22)
(1.0048 -0.126102 2.66887e-21)
(0.965357 -0.00238254 -5.50403e-22)
(1.20806 -0.0412895 1.8514e-21)
(1.00172 -0.000754989 1.06319e-22)
(0.991605 -0.00579225 1.01265e-22)
(1.00068 -0.00025252 -6.58147e-24)
(0.984069 -0.00110022 -1.85487e-22)
(0.98258 -0.0201523 -2.68388e-22)
(0.999994 -5.16624e-05 6.78524e-25)
(0.998685 -5.04512e-05 1.56704e-23)
(1.03439 0.239941 -3.06439e-20)
(0.99981 -0.00107373 8.82541e-24)
(0.886154 0.179683 2.57231e-20)
(1 -2.553e-05 2.37974e-25)
(1.28367 -0.0386427 -5.08508e-21)
(1.11231 -0.0168502 -1.64451e-21)
(1.17491 -0.0303577 6.86095e-22)
(1.00154 -0.00071441 6.38091e-24)
(1.00028 -6.38185e-05 1.28047e-23)
(0.980968 0.149324 -2.24563e-20)
(1.11642 -0.0109739 3.41708e-21)
(0.977411 -0.125056 -3.04211e-21)
(1.03521 0.0675387 3.55092e-21)
(0.997055 -0.0320007 1.24256e-22)
(0.979998 -0.00831963 -1.93324e-22)
(0.993965 -0.000331898 -1.04498e-22)
(1.28702 0.198461 -3.74815e-21)
(0.964548 -0.0418255 9.30298e-22)
(1.04904 -0.0498023 -1.2466e-22)
(0.990719 -0.0169538 -7.52155e-23)
(1 -1.64048e-05 -4.23631e-27)
(0.998094 -0.00139978 -3.4243e-23)
(1.00888 -0.00901678 1.6936e-22)
(0.972446 -0.0123953 9.49819e-22)
(0.967155 -0.0235308 1.78254e-22)
(0.935458 -0.0641631 -2.73569e-22)
(0.972159 -0.0131447 -7.20642e-22)
(1.02692 0.00439276 6.10629e-22)
(0.996842 -0.000216133 2.16064e-24)
(0.908122 -0.0609824 8.36466e-22)
(0.978919 -0.00142055 -2.64931e-22)
(1.00006 -0.000321492 2.67823e-24)
(0.981629 -0.00113598 -1.82565e-22)
(1.05007 -0.0538761 -4.47469e-23)
(1.02576 0.00469538 -3.38077e-21)
(0.961446 -0.0421483 -2.29026e-22)
(0.999975 -1.19844e-06 -1.75929e-27)
(0.974055 -0.0252858 1.9605e-22)
(1.00344 -0.0225419 3.63786e-23)
(1.00206 -0.00177089 2.55013e-23)
(1.19574 -0.187574 -4.69357e-21)
(1.00314 0.0514668 -2.44407e-20)
(1.00134 -0.00175708 7.29689e-23)
(0.981948 -0.000858032 2.239e-24)
(1.14878 -0.116965 1.1734e-22)
(1.03989 0.00052996 4.98909e-21)
(0.985254 0.0507009 -2.60478e-21)
(1.00275 -0.00373574 2.23124e-23)
(1.00101 -0.0327235 9.87195e-23)
(1.21146 0.171825 -1.44785e-21)
(1.02326 0.0423277 -1.8039e-20)
(0.986865 -0.0425555 7.34439e-22)
(1.00708 -0.00525281 -3.10979e-23)
(0.928679 -0.0763804 1.26415e-21)
(0.999996 -8.90562e-06 -1.30584e-25)
(0.925493 -0.0032406 -8.3535e-22)
(1.00013 -0.000105455 2.04986e-24)
(1.14531 -0.118741 -5.79708e-21)
(0.999951 -5.40765e-06 -1.65172e-25)
(1.00004 -9.43088e-05 1.76274e-24)
(1.00057 -0.0366311 -1.21212e-22)
(1.28019 -0.016629 2.56987e-21)
(1.12149 0.28837 1.13767e-20)
(1.05497 -0.0552918 1.4347e-23)
(1.02096 -0.0227699 2.95559e-22)
(0.999999 -7.26472e-06 4.97764e-26)
(0.990942 -0.00688605 -3.44106e-22)
(1.00013 -3.23465e-05 -1.47268e-24)
(0.995343 -0.00366997 1.18303e-22)
(1.00004 -8.78598e-05 -1.37959e-24)
(1.07208 -0.0161412 -3.61012e-21)
(0.999301 -0.000719215 -4.12107e-23)
(1.0976 0.0847875 6.90736e-21)
(0.999813 -0.000332012 -6.26545e-24)
(0.980733 -0.00812448 -3.26096e-22)
(0.93746 -0.00173557 1.97144e-21)
(0.993653 -0.000459551 -1.35057e-22)
(0.975085 0.0784781 2.49823e-20)
(0.974061 -0.00111082 4.93857e-22)
(1.04732 -0.154868 2.55032e-22)
(0.991826 -0.00607462 5.26101e-22)
(1.03741 -0.00379343 -9.96144e-22)
(0.959081 -0.0944423 2.91434e-21)
(1.02874 -0.00201554 -3.28089e-21)
(1.06338 -0.103992 -1.19833e-22)
(0.99998 -3.11677e-06 9.24072e-27)
(0.999309 -0.03096 1.07808e-22)
(0.994063 -0.000438258 1.64824e-23)
(1.00037 -0.000139837 9.39702e-24)
(1.00013 -2.7251e-05 2.51626e-24)
(1.29269 0.194212 4.02649e-21)
(0.992733 -0.00327695 2.92405e-22)
(1.0395 0.00174625 5.73475e-21)
(1.00199 -0.0334951 1.23713e-22)
(1.00128 -0.000461423 2.50141e-23)
(1.03503 -0.0122475 -3.52291e-21)
(1.00025 -6.06504e-05 -2.87276e-23)
(0.999964 -5.31495e-06 -2.03257e-26)
(0.926419 -0.00431643 6.43571e-22)
(0.994805 -0.00186668 1.30975e-22)
(1.00005 -8.55597e-05 1.88546e-24)
(1.13643 0.159964 4.54313e-21)
(0.761344 0.158498 -3.78896e-20)
(0.999687 -0.000351178 1.78888e-23)
(0.940297 -0.00349475 -5.42546e-22)
(1.00003 -2.47954e-06 3.30553e-25)
(0.913265 0.240563 -2.30424e-20)
(1.28452 -0.0391434 -6.33788e-21)
(0.958222 -0.0756721 -2.24868e-21)
(1.00007 -0.000848287 -4.60095e-24)
(1.04732 -0.0481008 3.97948e-22)
(1.04551 -0.00382971 -1.38057e-21)
(1.04692 0.000520911 4.17959e-22)
(1.07363 -0.0199294 -4.33576e-22)
(0.999464 -0.00289893 -4.53391e-24)
(0.999807 -0.00128551 8.20026e-24)
(0.979271 -0.0245701 -5.8067e-22)
(1.00001 -1.45906e-05 -5.03917e-25)
(1.00002 -2.28867e-06 -8.43064e-26)
(0.963213 -0.041116 -5.43599e-22)
(0.999984 -0.0960926 -1.40116e-21)
(0.937362 -0.0628919 -6.85277e-23)
(0.8051 0.228623 -9.15638e-22)
(1.0003 -3.90062e-05 -1.17303e-23)
(1.03083 -0.117615 -3.32083e-21)
(1.01094 -0.00800394 -3.03619e-22)
(0.999966 -5.65701e-06 2.35022e-25)
(0.998515 -0.00601987 -9.28078e-23)
(1.00005 -0.000718602 -3.37575e-24)
(0.993543 -0.0197338 2.13871e-22)
(1.00007 -1.58448e-05 1.67307e-24)
(1.06585 -0.101933 -2.96856e-22)
(1.02818 -0.00246579 3.17992e-21)
(0.978767 0.259377 4.73182e-21)
(1.03668 -0.00359971 3.7486e-21)
(0.999587 -0.000344586 1.45929e-23)
(1.00068 -0.000593767 -2.55787e-23)
(1.23589 -0.127615 -6.91761e-21)
(1.03947 0.00133927 -4.61334e-21)
(0.995403 -0.00060232 1.18528e-22)
(1.00003 -2.49588e-06 6.98058e-25)
(1.15324 0.128048 -7.04603e-21)
(1.15613 -0.234774 -1.88948e-21)
(1.00467 -0.123253 -1.20136e-21)
(0.978333 -0.00121022 -1.38973e-22)
(0.999969 -3.45268e-05 3.38053e-25)
(0.999591 -0.000325037 -8.51826e-24)
(1.16338 -0.236663 5.26045e-21)
(0.999262 -0.0768295 -3.79767e-22)
(1.06046 0.0470963 1.0783e-21)
(0.985615 0.2199 2.00917e-20)
(1.04498 -0.151101 1.84564e-21)
(0.998122 -0.000129628 -2.12264e-23)
(0.999969 -1.63121e-05 -4.57606e-25)
(0.945983 -0.081388 2.19225e-21)
(0.973672 -0.161851 -3.34172e-21)
(0.999699 -0.000363833 9.35121e-24)
(1.01514 -0.0351361 7.96184e-23)
(0.987305 -0.0413998 -1.32479e-22)
(0.993112 -0.00351334 1.15467e-22)
(0.997965 0.0463025 -1.9166e-20)
(0.998092 -0.000834014 7.55297e-23)
(1.07984 -0.0756598 -3.70934e-22)
(1.30896 0.0802255 1.22801e-21)
(0.988479 -0.00508559 -3.31341e-22)
(0.831219 0.188998 -3.62624e-21)
(0.847684 0.0877467 1.18788e-20)
(0.999954 -7.94044e-05 -1.27021e-24)
(0.999963 -0.00113036 2.01202e-25)
(0.974376 -0.0014769 -3.16104e-22)
(1.01944 -0.0070149 -7.49172e-22)
(0.942852 -0.00321693 1.14083e-21)
(1.00771 -0.00651343 -3.18068e-22)
(0.988896 -0.00510057 3.09621e-22)
(0.999159 -0.000765083 -3.18519e-23)
(0.933754 0.239596 -4.03773e-21)
(1.09764 0.0806228 -1.07242e-20)
(1.00338 -0.00361851 5.71606e-23)
(0.678014 0.0962915 -7.49924e-21)
(1.00002 -2.15184e-06 -4.8012e-25)
(1.03691 0.0100897 -8.19254e-21)
(0.998369 -0.153635 2.5175e-21)
(1.03443 -0.117263 1.30283e-21)
(1.00014 -0.000323565 -6.47858e-25)
(0.940049 -0.00176276 9.3639e-22)
(1.03317 0.00916861 4.64984e-21)
(1.01894 -0.00750104 6.18715e-22)
(1.04468 -0.00221868 1.93994e-21)
(0.999336 -5.83598e-05 5.93327e-23)
(0.999293 -0.000765876 3.73639e-23)
(1.03891 -0.0693608 4.14295e-22)
(0.994892 -0.00201032 -3.7765e-22)
(0.981236 -0.0183372 -6.33025e-22)
(0.998695 -0.00545533 5.50462e-24)
(1.13092 0.0499566 4.49787e-21)
(0.998942 -0.0322696 -7.22363e-23)
(0.992672 -0.00744779 7.00181e-24)
(0.893401 -0.0454284 -2.32006e-21)
(1.00595 0.176059 2.27415e-21)
(1.15959 -0.055671 1.1775e-21)
(1.03427 -0.0117551 2.83311e-21)
(0.999411 -0.000280182 1.11995e-23)
(0.999246 -0.00050121 5.10134e-24)
(0.97399 -0.0330655 1.49032e-21)
(1.00148 -0.00191413 -5.80524e-23)
(0.996152 -0.00106232 -2.13378e-23)
(0.99997 -3.31714e-05 -1.28625e-25)
(0.999522 -0.00295315 8.21851e-25)
(1.03221 0.00843421 -1.81321e-21)
(0.980107 0.156426 -2.15147e-20)
(0.999811 -2.38898e-05 2.11906e-24)
(1.29963 0.145755 -1.41281e-21)
(0.999994 -6.43003e-05 -2.64539e-25)
(0.995198 -0.00434741 1.61182e-22)
(0.999987 -0.000147231 -1.02625e-25)
(1.00776 -0.00564025 -1.41672e-22)
(1.26351 -0.0583539 4.08029e-21)
(0.999941 -6.688e-05 1.81512e-25)
(0.99994 -7.15313e-05 1.13175e-24)
(0.919498 -0.0725088 -1.17278e-21)
(1.00001 -1.44447e-05 -2.52876e-26)
(1.0783 -0.0198951 3.56517e-21)
(0.983209 -0.0654405 1.33783e-21)
(0.999966 -0.000993384 5.71968e-25)
(1.1401 0.0966344 -5.62186e-21)
(1 -4.61074e-05 3.93622e-25)
(0.99941 -6.03326e-05 5.12787e-23)
(0.999868 -5.50005e-05 8.398e-26)
(0.992937 -0.00745838 -9.94452e-23)
(0.999509 -0.00235532 -1.54072e-23)
(0.990811 -0.000489985 -1.0597e-22)
(1.01915 -0.182741 -2.92435e-22)
(0.999564 -0.00229319 1.03783e-23)
(1.00621 -0.00526204 -1.10232e-22)
(0.999964 -3.86492e-06 -9.17834e-26)
(1.12308 0.280275 -2.22211e-20)
(1.07751 -0.0773551 -1.00917e-21)
(1.16364 -0.0566964 4.04835e-22)
(0.946977 -0.00958779 1.22484e-21)
(0.966071 -0.00672527 -2.27987e-22)
(0.998648 -0.0058866 1.53462e-22)
(1.00432 -0.00403084 1.54486e-22)
(1.08502 0.108236 3.07044e-21)
(0.975774 -0.0585579 1.88925e-22)
(1.22347 0.128411 1.78423e-21)
(0.933773 -0.0219715 -2.20936e-21)
(0.995025 -0.0041982 -1.51665e-22)
(0.999986 -7.243e-06 -3.69359e-27)
(0.991615 -0.00431567 -2.13297e-22)
(1.06592 0.28372 6.16671e-21)
(1.13161 0.115906 -1.3496e-21)
(0.977839 -0.0881363 1.10043e-21)
(0.909313 -0.00963142 5.048e-22)
(1.12592 0.26043 6.0781e-21)
(0.987402 -0.000892316 2.73224e-22)
(0.989042 -0.141416 2.00116e-22)
(0.999988 -0.00014098 -7.31159e-25)
(0.981503 -0.0658366 1.65326e-21)
(0.998772 -0.000346703 -7.77656e-23)
(0.698623 0.167105 -2.14174e-20)
(0.9758 -0.116531 -2.46831e-21)
(0.999871 -4.93806e-05 3.62088e-24)
(0.903686 -0.0313794 -1.27137e-22)
(0.97575 -0.0621467 8.09889e-23)
(1.0648 0.125161 1.14939e-20)
(0.996206 -0.00115948 -2.0016e-22)
(0.972694 -0.0600938 -5.64895e-22)
(0.996573 -0.0163773 -1.96322e-22)
(1.00064 -0.0353915 -2.49121e-22)
(0.998142 -0.000848999 -5.16184e-23)
(1.06208 0.122742 -1.39901e-20)
(1.08101 -0.240629 3.22101e-21)
(0.973989 -0.0263268 -4.33593e-22)
(0.980068 -0.02283 9.42968e-24)
(0.98089 -0.00767557 -1.31967e-22)
(1.00773 -0.00305875 -1.3073e-22)
(1.12598 0.251162 2.36047e-20)
(0.973801 -0.0213497 1.93965e-22)
(1.02275 0.0641132 7.84568e-21)
(1.00398 -0.00323304 1.17875e-22)
(1.25576 -0.0854648 -8.91018e-23)
(0.88086 0.193243 3.93308e-21)
(0.987151 -0.00069491 -9.48336e-22)
(0.999664 -6.32716e-05 9.56423e-24)
(1.09964 0.146767 3.17583e-21)
(1.02549 0.23085 -2.53807e-20)
(1.03764 -0.0669379 -5.43364e-22)
(1.11882 -0.0633794 -1.53598e-22)
(0.993226 -0.0204649 -2.42206e-22)
(0.947802 -0.00866403 -7.27705e-22)
(1.20492 0.169414 5.83735e-21)
(0.943856 -0.0818108 3.44816e-22)
(0.999965 -3.31462e-05 4.78548e-25)
(0.989076 -0.000172892 -4.88346e-22)
(1.00006 -8.536e-06 1.75579e-24)
(0.993435 -0.000413006 3.67254e-22)
(0.999964 -3.4731e-05 -7.59022e-25)
(0.9973 -0.0228436 3.34179e-22)
(0.998597 -5.58449e-05 2.77779e-23)
(0.996039 -0.00856295 2.02265e-23)
(1.2422 -0.109836 -1.20089e-21)
(0.999133 -0.000586628 2.74291e-23)
(0.999271 -0.000300197 1.85712e-23)
(0.999024 -0.00895657 2.38627e-23)