/*--------------------------------*- C++ -*----------------------------------*\
  =========                 |
  \\      /  F ield         | OpenFOAM: The Open Source CFD Toolbox
   \\    /   O peration     | Website:  https://openfoam.org
    \\  /    A nd           | Version:  7
     \\/     M anipulation  |
\*---------------------------------------------------------------------------*/
FoamFile
{
    version     2.0;
    format      ascii;
    class       volVectorField;
    location    "6";
    object      U;
}
// * * * * * * * * * * * * * * * * * * * * * * * * * * * * * * * * * * * * * //

dimensions      [0 1 -1 0 0 0 0];

internalField   nonuniform List<vector> 
29540
(
(1.00565 -0.00767326 4.52562e-22)
(1.00732 0.00256661 1.79911e-21)
(0.99504 -0.00177474 -2.57697e-21)
(0.982642 -0.0253384 7.73954e-22)
(0.998698 -2.75282e-05 3.68181e-22)
(0.976914 -0.0152539 -1.1793e-21)
(1.02653 -0.0488159 6.10886e-22)
(1.00728 -0.0117989 -4.57771e-23)
(1.00109 -0.0010607 6.18992e-23)
(1.00009 -2.54317e-05 1.69101e-23)
(1.00791 -0.0158221 8.17261e-24)
(0.998662 -0.0089502 -8.78972e-22)
(0.99975 -0.000105379 5.01821e-23)
(0.999987 -5.4133e-06 1.22796e-24)
(1.11684 0.053632 5.1333e-21)
(0.996737 -0.00105504 3.91751e-22)
(0.999906 -0.000459222 -2.04125e-23)
(1.08661 -0.0166992 -4.71145e-22)
(0.998858 -0.000982033 -1.25958e-22)
(0.994132 -0.000438004 -5.6492e-22)
(0.999547 -0.000143842 -1.72833e-22)
(1.00104 -0.00106359 2.17456e-22)
(0.994983 -0.00188167 2.83196e-21)
(0.998868 -9.09129e-05 1.62746e-22)
(0.918079 0.0789561 6.37751e-22)
(1.00778 0.00205836 9.6806e-21)
(0.999733 -2.8794e-05 1.14371e-22)
(0.958171 0.066435 -4.6409e-20)
(1.12096 0.0529151 -1.31915e-20)
(0.999529 -0.00494962 -1.71271e-22)
(1.00849 -0.00623956 3.12653e-22)
(1.02207 -0.00547117 -2.26718e-21)
(0.982119 -0.0582346 7.16614e-21)
(0.998614 -0.0124576 4.23604e-22)
(0.956546 0.0630172 3.81251e-20)
(1.00099 -0.0179198 1.00173e-21)
(1.04728 0.0266976 -3.10105e-21)
(0.984722 -0.0143584 3.32526e-21)
(1.003 -0.000452571 -8.40399e-22)
(1.00285 -0.000266576 1.58895e-21)
(1.00023 -9.5578e-05 -5.05118e-23)
(0.993332 -0.0161141 -3.08149e-21)
(0.999918 -0.000445357 -3.65218e-25)
(1.01001 -0.0407339 -3.38412e-21)
(1.00002 -1.81513e-06 -3.53008e-24)
(0.999602 -0.00502903 1.3408e-22)
(0.998508 -0.00665486 -2.42599e-22)
(1.00004 -4.64806e-05 9.13385e-24)
(1.00177 -0.00202492 -8.83416e-22)
(1.04674 0.0248719 -1.27871e-21)
(1.05823 -0.0657247 3.39048e-22)
(0.984658 -0.0224967 -3.6371e-21)
(1.02182 -0.00483201 7.96984e-22)
(0.977626 -0.0151849 -1.98324e-21)
(0.996815 -0.00108963 -3.45599e-22)
(1.12271 0.0441617 -8.37981e-21)
(0.998174 -0.00121367 1.23075e-22)
(0.999532 -0.000160734 2.18753e-22)
(0.999612 -0.0118014 -5.58929e-22)
(1.00305 -0.0321485 -1.7792e-21)
(0.999971 -4.54592e-06 3.00025e-24)
(0.998891 -0.00100239 -2.60136e-23)
(1.17485 -0.0275907 1.66192e-21)
(1.00122 -0.0175371 -5.33721e-22)
(1.04759 0.0734547 2.40384e-20)
(0.936058 0.021473 9.42093e-20)
(0.998838 -0.0148183 -1.09252e-21)
(0.995975 -0.00740137 1.18049e-21)
(0.950955 0.0138267 3.80385e-20)
(1.00024 -9.28443e-05 3.27163e-23)
(1.00866 0.00266541 -1.31964e-20)
(0.989477 0.0535191 2.74903e-20)
(1.00168 -0.0050336 -3.64817e-22)
(0.932429 0.0922276 2.38365e-20)
(0.995699 -0.000345247 1.81764e-21)
(1.06581 -0.0414412 6.94079e-22)
(1.17872 0.0911676 1.61918e-20)
(0.985564 -0.0081579 8.01328e-22)
(0.999979 -9.86534e-06 -8.49084e-24)
(1.0002 -0.0262329 -1.85194e-21)
(0.978125 -0.000365423 -1.32549e-21)
(1.0155 0.0250415 7.57591e-21)
(1.00582 -0.00801761 -1.35971e-21)
(0.999999 -3.07628e-05 -8.24941e-25)
(1.02807 -0.0481064 -8.36066e-22)
(1.09654 -0.131186 -3.50038e-21)
(1.02688 0.0637242 -4.52261e-20)
(0.99974 -0.000104644 -4.52809e-23)
(0.999757 -9.3456e-05 -1.32963e-23)
(0.966509 -0.0188421 -4.88565e-21)
(0.994759 -0.0279433 3.87907e-21)
(0.985489 -0.00855006 8.87989e-22)
(1.00166 -0.00209949 1.5307e-22)
(1.03492 -0.00954752 -1.35284e-21)
(0.964131 -0.00801378 -4.04447e-21)
(1.03499 0.0786426 2.17907e-20)
(0.99468 -0.0361375 6.02352e-21)
(1.00025 -0.000207821 8.28837e-23)
(0.982345 -0.031785 -6.44521e-21)
(1.11413 0.0744203 2.2347e-20)
(0.999978 -1.04972e-05 1.23888e-23)
(0.986308 -0.00536613 -4.78277e-21)
(0.999972 -5.044e-06 -1.54551e-24)
(1.02637 -0.0134885 -6.89619e-21)
(0.983982 -0.0223594 2.41885e-21)
(1.0234 0.00670258 1.37191e-20)
(1.00231 0.0494262 4.25678e-20)
(0.999767 -9.45091e-05 -1.1251e-22)
(0.999997 -3.6411e-05 -4.13639e-26)
(0.990026 -0.0577761 -3.18904e-22)
(0.981317 -0.0573311 -6.45039e-21)
(1.02195 -0.0257402 7.58818e-22)
(1.00001 -7.2932e-07 6.5293e-25)
(0.999355 -0.00333736 -4.57898e-22)
(0.999943 -0.00120297 1.65955e-23)
(0.991892 0.0547197 1.18096e-22)
(1.0298 0.0366204 -1.61767e-20)
(0.993696 -0.00381741 -1.93546e-21)
(1.00001 -3.49053e-05 1.06084e-24)
(1.00187 -0.0049623 -2.75005e-22)
(1.17063 -0.0958615 4.44559e-21)
(1.00531 0.00803532 2.10416e-20)
(1.09703 -0.0629445 9.93428e-22)
(0.934903 0.026331 -8.72513e-20)
(1.00058 -0.000194447 -2.04517e-22)
(1.09711 -0.0467213 -1.17116e-21)
(1.08614 -0.0135939 -2.50512e-21)
(1.00566 -0.031516 1.20809e-21)
(1.00216 -0.00194291 -7.83542e-22)
(1.00001 -0.000232786 3.1512e-24)
(1.01002 -0.039675 1.19215e-21)
(1.18159 0.0851349 8.5614e-21)
(1.00357 0.101176 4.39715e-20)
(1.09523 -0.0759796 -2.03912e-22)
(1.0253 -0.0131911 5.82596e-21)
(1.00826 -0.00584134 5.91684e-21)
(1.05858 0.133157 3.4407e-21)
(0.985803 -0.00037472 6.75684e-21)
(1.03124 -0.121008 1.36952e-20)
(1.11493 0.0697624 -1.70556e-20)
(1.09757 -0.0429346 1.40349e-21)
(0.970267 -0.00239658 -5.42067e-21)
(0.97434 -0.0210376 1.49244e-21)
(1.00001 -2.63982e-07 -2.71941e-25)
(0.999994 -1.36657e-06 5.38583e-25)
(0.998666 -4.43997e-05 -2.88401e-22)
(0.998609 -0.0065317 5.01595e-22)
(0.986423 -0.0452981 -5.08044e-21)
(1.04568 -0.100979 5.51548e-21)
(1.21193 0.0144743 7.96574e-21)
(1.01694 -0.0119547 3.06704e-21)
(1.00936 -0.0115442 1.04386e-21)
(1.00023 -0.000330879 1.29017e-22)
(0.99993 -0.000117925 1.20935e-23)
(1.00147 0.0243221 -4.50558e-20)
(1.00028 -0.000841371 1.46911e-23)
(0.996281 -0.00604305 1.95184e-24)
(1.07056 0.135053 -1.02984e-20)
(1.00426 0.0343639 -4.79442e-20)
(1.06048 -0.0644255 -2.70468e-22)
(0.979102 -0.0013662 2.27788e-21)
(0.983191 -0.0249021 5.50904e-21)
(1.12392 0.0482516 2.12663e-21)
(0.999977 -2.33073e-05 2.6454e-24)
(0.999993 -1.19843e-06 -1.93849e-25)
(0.99367 -0.00402102 6.99964e-22)
(0.974959 -0.0206475 -8.41297e-21)
(1.00003 -0.000120064 -9.69704e-24)
(0.999999 -3.27108e-05 -6.61669e-25)
(0.996347 -0.00272918 -2.26414e-22)
(1.00001 -0.000226722 -2.63477e-24)
(1.00304 -0.00328247 -4.42713e-22)
(1.0671 0.138007 1.16251e-20)
(0.986008 -0.000178196 -5.72278e-21)
(1.01171 -0.0645364 -1.53098e-21)
(0.997311 -5.09555e-05 1.17856e-21)
(1.00113 -0.00147822 4.59123e-23)
(0.985936 -0.0052608 7.90604e-21)
(0.999512 -0.00333722 -4.06683e-23)
(1.10333 -0.0580141 -1.67144e-21)
(0.999992 -4.77296e-06 3.99117e-24)
(1.00563 -0.0217525 -4.02782e-22)
(1.02867 0.0650828 1.60211e-20)
(0.996165 -0.00685174 -7.2393e-23)
(1.02945 -0.11761 -1.31302e-20)
(1.0226 0.0311548 -1.42424e-20)
(0.996629 -0.0015078 -1.71185e-21)
(0.990324 -0.00790942 2.14351e-21)
(1.00209 -0.00194171 1.1908e-21)
(0.999499 -0.00461481 -2.35015e-22)
(0.999862 -3.80478e-06 1.28987e-23)
(1.00293 -0.0100173 2.84291e-22)
(0.931373 0.0130817 3.644e-20)
(1.00133 0.0226689 3.47628e-20)
(0.992408 -0.00320012 5.69972e-23)
(0.996453 -0.00595909 -7.32593e-22)
(0.980892 0.0292425 -3.6892e-20)
(1.01041 0.0196687 6.52533e-21)
(0.964813 -0.00793305 5.05265e-21)
(1.0006 -0.000280844 -1.60427e-22)
(1.02983 -0.0617816 1.7191e-21)
(0.980408 -0.0415789 6.60284e-21)
(0.998799 -0.00916278 4.27193e-22)
(1.00045 -0.000578202 -2.58105e-22)
(1.06105 0.136642 4.81545e-21)
(0.996468 -0.00274227 -1.56676e-22)
(1.00365 -0.00297465 -4.91546e-22)
(0.985732 -0.0448352 6.59208e-21)
(0.9898 -0.0589582 7.98216e-22)
(0.999983 -1.17195e-06 9.69709e-25)
(0.982538 0.080049 -4.37466e-20)
(0.999464 -1.30332e-05 -2.8093e-24)
(0.999998 -2.63489e-05 -1.62599e-25)
(0.99972 -0.00011001 1.92083e-23)
(0.996182 -0.0283127 -1.40977e-21)
(1.17182 -0.00632796 -6.86408e-21)
(1.00617 -0.0213916 1.05471e-22)
(1.00351 -0.00276267 -3.37838e-22)
(0.998878 -0.000128647 4.04191e-22)
(0.965384 -0.00886618 -8.67123e-22)
(1.00002 -0.000249251 -2.30506e-24)
(1.00025 -0.000861757 1.34564e-24)
(0.998788 -0.000105876 -2.65822e-22)
(1.0169 -0.000180943 1.28432e-20)
(0.998573 -0.00210746 -8.25694e-23)
(0.99938 -0.00311133 1.36021e-22)
(1.01603 -0.00116539 6.42402e-21)
(1.00006 -0.000210255 1.39698e-23)
(1.00001 -1.1839e-06 9.18916e-25)
(1.00271 -0.000335077 1.76931e-22)
(0.986528 -0.0165042 -2.70901e-21)
(0.987487 -0.000211466 -2.78024e-21)
(0.99748 -0.000194835 -1.25139e-21)
(1.00931 0.0019725 1.09379e-20)
(0.991767 -0.000583174 1.32491e-21)
(1.00959 -0.0112517 -9.90956e-22)
(0.999988 -5.85089e-06 3.47647e-24)
(0.998427 -0.00138384 -4.82712e-22)
(1.00042 -0.000568846 2.79325e-22)
(1.03025 -0.0597285 1.65712e-21)
(1.00173 -0.0989028 1.0533e-20)
(0.999283 -6.30614e-05 2.08436e-22)
(1.00024 -0.000298385 -9.96717e-23)
(0.999338 -0.00302257 -4.65283e-23)
(1.00183 -0.00438223 -6.69506e-22)
(0.99426 -0.000322606 -2.41939e-21)
(0.999978 -2.06522e-05 -1.79525e-25)
(1.09583 -0.126846 -7.47096e-21)
(1.00003 -0.000257536 3.26388e-24)
(1.01676 -0.000212071 -9.04703e-21)
(0.998232 -0.00122102 -2.4939e-22)
(1.00007 -0.000200956 5.70547e-24)
(1.02277 0.00703437 -8.72497e-21)
(0.978327 -0.0394387 -6.85057e-21)
(1.00012 -2.32326e-05 5.48812e-23)
(1 -4.56472e-06 2.43041e-26)
(0.970193 -0.0017183 -6.18649e-21)
(0.998254 -0.089766 -1.67211e-21)
(0.995397 -0.00432101 -1.85707e-22)
(1.00498 -0.0320584 -3.28912e-22)
(1.01742 -0.0124537 -5.02604e-22)
(1.03292 0.0631815 1.98629e-21)
(1.00004 -4.37687e-05 2.50336e-24)
(0.986805 -0.0161858 2.78636e-21)
(1.13498 -0.0801644 5.48483e-22)
(0.969275 0.041705 9.04111e-22)
(0.996144 -0.0066865 5.57112e-22)
(1.02174 0.0299476 1.74241e-20)
(1.06661 -0.0388502 5.60366e-22)
(0.999897 -0.00131582 -1.29857e-23)
(0.872531 0.0367369 4.76591e-20)
(0.999717 -0.000230829 -1.30396e-22)
(1.01072 -0.0660565 -2.10202e-21)
(0.965917 -0.00887824 6.11486e-21)
(1.0012 -0.00139912 -2.52584e-22)
(1.13441 -0.0314063 5.00411e-21)
(0.995483 -0.000498235 -1.43982e-21)
(1.00538 0.109933 3.134e-20)
(0.998169 -0.000143308 1.11899e-22)
(0.990556 -0.00852572 -1.11906e-22)
(0.999881 -0.00120067 -1.00625e-22)
(1.10038 0.102773 5.15676e-21)
(0.999812 -0.00929323 1.03628e-22)
(1.03243 0.0792547 1.33549e-21)
(0.999741 -1.9981e-05 -5.01249e-23)
(0.996903 -0.00101284 -5.44808e-22)
(0.969616 0.0991878 -1.86455e-20)
(1.01966 -0.000555998 -1.07383e-20)
(1.01596 -0.000618361 7.46257e-21)
(0.983839 -0.0206564 6.75659e-21)
(0.999926 -1.54031e-05 1.29252e-23)
(1.0018 -0.00418405 -7.8371e-23)
(0.999911 -0.000501257 -3.54771e-23)
(0.999999 -2.49888e-05 -6.69281e-26)
(1.03608 0.00041523 3.05135e-21)
(1.00002 -2.6948e-06 1.04024e-25)
(0.989395 -0.00755138 5.00397e-21)
(1.13071 -0.0796442 -7.07553e-22)
(0.916248 0.0824734 -4.47177e-20)
(1.0061 0.101511 -7.00399e-20)
(0.980786 -0.0345132 2.14191e-21)
(0.991999 -0.0156291 1.67355e-21)
(0.988092 -0.0007877 1.33221e-21)
(1.01747 -0.0230526 2.29989e-21)
(1.0033 -0.00988652 -4.44435e-22)
(0.990238 -0.00827698 -2.9584e-21)
(0.980626 -0.0378112 9.37236e-22)
(1.03177 0.0650588 -3.01469e-20)
(0.999428 0.0271724 6.07978e-20)
(0.99933 -7.8581e-05 1.14733e-22)
(1.00369 0.0501193 -5.83494e-20)
(1.03526 -0.000501131 1.07869e-21)
(1.10136 -0.062598 -2.37214e-22)
(1.00743 -0.00906815 4.66649e-22)
(1.00033 -0.00865206 -4.00488e-22)
(1.00967 -0.0303121 -5.93956e-22)
(0.997129 -0.000976987 -1.29311e-21)
(0.998594 -0.000355422 -8.53819e-23)
(0.999973 -4.81463e-06 1.59503e-23)
(0.999398 -0.00471597 3.45583e-22)
(1.05352 -0.0362236 3.65911e-22)
(1.10132 0.107171 -8.28106e-21)
(1.00084 -0.000725416 1.20521e-22)
(0.985314 -0.0134692 -4.00494e-21)
(1.00837 -0.00940741 -1.48574e-21)
(0.999983 -7.81846e-06 -1.35058e-24)
(0.980709 -0.0361062 -3.39935e-21)
(0.898722 0.0637976 -2.21932e-20)
(0.996654 -0.00257625 1.91763e-21)
(0.999366 -0.00246749 1.18848e-22)
(1.00772 -0.00902936 -2.90258e-22)
(1.00013 -0.0254373 2.37108e-21)
(1.06063 0.0146903 3.84802e-21)
(0.999669 -0.00534868 -6.35177e-23)
(0.999984 -2.80543e-05 8.12539e-24)
(1 -3.32681e-07 3.55306e-25)
(0.998577 -0.000323222 -9.41682e-23)
(0.96806 0.0983159 2.69005e-20)
(1.02756 -0.0201575 1.56454e-21)
(1.00412 -0.0991664 -2.92019e-21)
(1 -4.44239e-06 -1.41353e-26)
(0.996173 -0.0910265 1.09933e-21)
(1.05143 -0.00787708 -4.72068e-21)
(0.997251 -8.50222e-05 -5.87623e-22)
(0.967237 -0.00322902 -7.60179e-21)
(0.999409 -0.00242566 -1.18868e-22)
(0.999772 -0.000104847 -8.21828e-24)
(0.987307 -0.0146668 -8.53795e-22)
(1.00049 -0.000629415 -1.24336e-22)
(1.10747 -0.0574743 1.71246e-21)
(1.00512 -0.000750603 -3.51571e-21)
(1.16746 0.0577312 -7.9102e-21)
(0.999901 -0.00129935 1.6887e-23)
(1.0022 -0.00776534 1.40036e-22)
(1.00499 0.007103 -2.85212e-20)
(1.16625 -0.0915165 -1.31211e-21)
(1.00022 -0.000310565 -7.60105e-23)
(1.00023 -0.000278231 7.53591e-24)
(0.994353 0.0664452 2.77056e-21)
(0.99524 -0.0285271 -7.90744e-22)
(0.999591 -0.0052635 7.74674e-23)
(1.00972 0.0221097 3.41999e-21)
(0.975048 0.0147537 7.15225e-20)
(1.0573 -0.068568 -1.10232e-21)
(0.99888 -0.0142721 -3.52167e-22)
(1.16834 -0.00359744 6.86274e-21)
(0.999601 -3.84937e-05 -8.67275e-23)
(0.995316 -0.00226489 5.17135e-22)
(0.998206 -0.00014789 -3.20079e-22)
(1.01114 0.0184917 3.81139e-23)
(0.999989 -0.000412752 4.25993e-25)
(1.00496 -0.000883122 3.59227e-21)
(1.0605 -0.103664 1.50335e-22)
(1.00162 0.0950592 6.75526e-20)
(0.934811 0.0954826 -1.06036e-20)
(0.996731 -0.00149972 6.48801e-23)
(0.995271 -0.00422964 5.57173e-22)
(1.04548 0.0759934 -1.90933e-20)
(1.00311 -0.0331289 2.54551e-21)
(0.999975 -5.10595e-06 -1.55618e-23)
(1.20449 0.0486154 1.49769e-20)
(1.01681 0.000252459 -3.83841e-21)
(1.01638 0.000459915 -2.59158e-21)
(0.996722 -0.00733903 -7.84931e-22)
(1.01072 -0.00153032 -5.44076e-21)
(0.961566 0.0871858 1.04706e-20)
(1.04034 -0.104226 -1.63307e-21)
(0.98432 0.0864403 1.07109e-20)
(0.995477 0.0855593 -1.90573e-20)
(0.999997 -3.40533e-05 1.4904e-25)
(1.0517 -0.0350916 -1.10286e-21)
(1.04235 -0.101633 1.04562e-21)
(0.998505 -0.00212273 2.17081e-22)
(1.00088 -0.000789491 -1.97972e-22)
(0.971443 0.0170346 1.70155e-20)
(1.02861 -0.0207853 -2.02318e-21)
(1.00015 -4.0441e-05 1.23384e-23)
(0.987652 -0.0314701 -7.89014e-21)
(0.979846 -0.0425653 -3.13707e-21)
(0.996969 -0.00104385 7.66434e-22)
(0.999935 -0.000115029 -1.52696e-23)
(1.04139 0.0953958 -3.25478e-21)
(1.02959 0.0351855 2.73619e-20)
(1.00003 -0.000278988 -6.42862e-25)
(1.00227 -0.00206579 1.53773e-22)
(1.00289 -0.00203958 8.33307e-22)
(1.09625 -0.0989156 4.34547e-21)
(0.983895 -0.0201081 -6.13627e-21)
(1.00003 -0.000330938 -7.13774e-24)
(0.999994 -9.2727e-07 -3.28292e-25)
(1.00026 -9.93016e-05 1.92236e-23)
(1.05955 0.0159429 -3.85093e-22)
(0.984735 -0.0138366 -3.18652e-21)
(1.0021 0.0408685 1.35791e-20)
(0.970819 -0.0228848 3.57971e-21)
(0.992406 -0.015571 -1.79362e-21)
(0.987155 -0.000625383 -5.38896e-21)
(1.01077 0.0211544 -1.68323e-20)
(1.16818 -0.0251383 2.87365e-22)
(0.999352 -8.466e-05 2.10077e-22)
(1.00439 -0.00342282 -8.86602e-22)
(1.00046 -0.000626096 1.40997e-22)
(0.983398 0.0956756 -2.70736e-20)
(0.985867 -0.012618 1.72628e-21)
(1.00059 -0.000159822 -6.66666e-23)
(0.99587 -0.00201449 -6.98932e-22)
(1.10197 -0.0406755 2.8404e-21)
(0.999689 -0.00574956 -1.57691e-22)
(0.993545 -0.00690274 -3.81609e-22)
(1.00013 -7.92205e-05 -3.79577e-23)
(1.00012 -2.82914e-05 -1.68583e-24)
(0.895995 0.0681904 3.34751e-20)
(0.9955 -0.000742013 -8.93555e-22)
(0.997326 -0.0026786 7.79763e-22)
(0.999779 -0.00105573 -8.89854e-23)
(0.999611 -2.93059e-05 -1.18579e-23)
(1.03809 0.0611575 -1.02979e-20)
(1.06357 -0.106421 3.82053e-22)
(0.990546 -0.0231416 1.03158e-21)
(1.00001 -5.82191e-07 -3.31506e-25)
(0.999999 -1.98507e-05 -5.63931e-26)
(0.985332 -0.0130165 4.51842e-21)
(0.996272 -0.00107555 1.84285e-22)
(0.997142 -0.00123199 -1.06029e-22)
(1.00811 -0.00300961 1.70186e-21)
(1.0032 -0.00131895 3.0041e-22)
(0.999935 -0.00954273 -1.78126e-22)
(1.08181 -0.0271834 5.7339e-21)
(0.989882 -0.00241528 -1.11261e-21)
(0.985824 0.0845203 -9.1219e-21)
(1.00749 -0.0157118 -4.73544e-22)
(1.00013 -7.96075e-05 4.21351e-23)
(0.980461 -0.0338192 3.2236e-22)
(0.989908 -0.0203937 -3.72111e-21)
(1.12797 -0.0246079 3.49634e-21)
(0.998339 -0.00350854 -2.286e-22)
(0.992094 -0.0272981 -1.21241e-21)
(0.999989 -3.6865e-06 2.23085e-24)
(0.944825 0.068869 -3.5744e-20)
(1.00885 -0.00127002 3.07028e-21)
(1.00004 -0.00013518 -1.43642e-23)
(0.931424 0.0180236 -4.73501e-20)
(0.990001 -0.0232284 2.33091e-21)
(0.999989 -4.04974e-06 3.70155e-25)
(1.00081 -0.000724199 5.82414e-23)
(0.980315 -0.0353357 -1.88835e-21)
(1.02117 -0.0247191 7.55982e-22)
(1.02971 -0.0104504 3.90623e-21)
(0.999996 -1.55527e-06 4.14517e-25)
(0.995499 -0.000370142 7.07976e-22)
(1.01025 -0.0297123 7.99631e-22)
(0.997053 -0.000956785 1.06134e-21)
(0.999752 -2.43887e-05 -2.71068e-22)
(0.995402 -0.00234087 1.67272e-23)
(0.97866 0.0299291 4.28268e-21)
(0.995906 -0.00716437 -9.90947e-22)
(0.993806 -0.00677001 2.81685e-22)
(1.00233 0.0268608 -1.3876e-20)
(0.99847 -0.00130601 2.534e-22)
(0.978959 0.0971165 -3.33842e-21)
(0.999989 -4.1965e-06 -1.15323e-24)
(0.993533 -0.0157326 7.20224e-22)
(0.985839 -0.0427831 7.26517e-21)
(0.992576 -0.027552 2.05142e-21)
(1.12233 -0.086114 4.73893e-22)
(0.999313 -0.00324028 3.06888e-22)
(1.00469 -0.0144451 2.58584e-22)
(0.999967 -0.00139466 4.55293e-24)
(0.99024 -0.0120598 -2.17947e-21)
(1.02173 -0.0269333 3.03609e-22)
(0.999983 -6.97142e-06 6.85912e-24)
(1.00001 1.12695e-06 -5.63466e-25)
(0.996477 -0.000237705 4.86653e-22)
(0.984015 0.0579643 2.7685e-20)
(1.0069 -0.0121544 1.86822e-21)
(1.00145 -0.00208437 -2.45738e-22)
(0.964665 -0.0165451 5.28393e-21)
(1 -4.13294e-06 -8.42504e-26)
(1.00055 -0.000685476 -2.25128e-22)
(0.999976 -0.00039281 -3.14103e-24)
(1.00785 -0.0117145 2.00273e-21)
(0.990501 -0.00890093 3.92987e-22)
(0.999791 -0.000163518 3.40922e-23)
(0.996119 -0.00641447 3.5838e-22)
(0.993067 -0.00396815 -4.13556e-22)
(1.00056 -9.35524e-05 -1.83479e-23)
(0.999988 -4.63437e-06 -7.23131e-25)
(1.14772 -0.0615012 1.10983e-21)
(0.999798 -0.00104048 9.54261e-23)
(1.04922 -0.0108172 3.68772e-21)
(1.01367 0.0924503 7.07413e-20)
(1.04151 0.0750942 -1.73342e-20)
(0.999906 -0.0121274 -6.55438e-22)
(1.00308 -0.00116619 -9.97836e-23)
(1.01088 -0.00121062 3.33884e-21)
(0.999988 -0.0014318 -5.1971e-24)
(0.998621 -0.00608953 3.61974e-22)
(1 -7.93888e-06 -2.68167e-26)
(0.99337 0.0858296 -1.4379e-21)
(0.992974 -0.00904945 5.41132e-22)
(1.00785 -0.00271098 -1.2166e-21)
(0.990118 -0.00251186 2.3242e-21)
(1.00194 -0.00760102 1.32151e-23)
(0.998439 -0.00345947 5.02664e-22)
(0.999942 -0.000116807 3.48209e-24)
(1.00001 6.78545e-08 -3.00895e-24)
(0.99742 -0.00266744 -5.67881e-22)
(1.03493 -0.0107318 -2.18604e-21)
(1.00511 0.0360653 2.20539e-21)
(1.00068 -0.000288344 -2.72532e-22)
(0.983211 -0.0319188 -1.73519e-21)
(0.985866 -0.0122305 -7.634e-22)
(0.995601 -0.0003001 -2.66631e-21)
(1.20466 0.0140785 -5.01665e-21)
(0.999275 -0.000565651 -1.26435e-22)
(1.00188 -0.0086272 -4.16839e-22)
(0.996911 -0.00161753 5.37712e-22)
(0.999947 -0.000112428 3.00381e-24)
(0.980195 -0.0369439 2.12851e-21)
(1.00271 0.0390293 -2.14633e-20)
(1.02229 0.0270028 -1.79938e-20)
(0.987326 -0.00828889 -3.64729e-22)
(1.00165 0.0380046 -9.48968e-22)
(1.00004 -0.000125945 2.8061e-23)
(1 5.19084e-07 9.57192e-25)
(1.19852 0.0462182 -5.71959e-21)
(1.13349 -0.0266176 -3.17234e-21)
(0.933347 0.0700878 -1.75756e-21)
(0.994299 -0.0465536 5.06812e-21)
(0.98728 -0.000859247 -1.69229e-21)
(1.10224 -0.0362338 -3.95417e-21)
(1.00066 -0.000310642 3.08538e-22)
(0.996794 -0.00218525 3.0842e-22)
(1.00025 -0.000107717 -1.83155e-23)
(0.994013 -0.000420156 -5.73318e-22)
(0.993247 -0.00741277 -7.95937e-22)
(0.999997 -1.74143e-05 -6.47634e-25)
(0.999513 -1.9406e-05 4.94804e-23)
(1.00134 0.09271 -6.60906e-20)
(0.999924 -0.000408941 3.36648e-23)
(0.950999 0.0631296 4.52125e-20)
(1 -6.87005e-06 1.96521e-26)
(1.19265 -0.0559528 1.395e-21)
(1.04912 -0.0121981 -7.74484e-21)
(1.0821 -0.0246034 -6.30883e-21)
(1.00058 -0.000304987 1.85754e-23)
(1.0001 -2.35447e-05 3.39708e-23)
(0.98696 0.0539617 -4.21483e-20)
(1.05136 -0.00954136 1.5346e-20)
(0.985377 -0.0434684 -6.58121e-21)
(1.01631 0.0267293 8.14248e-21)
(0.998363 -0.0121751 3.01342e-22)
(0.992489 -0.00300815 -6.00585e-22)
(0.99773 -0.000134156 -3.22971e-22)
(1.10988 0.132251 -3.80424e-20)
(0.986282 -0.0146902 2.76418e-21)
(1.01791 -0.0221622 -1.50747e-21)
(0.996272 -0.00638036 -2.05254e-22)
(1 -4.10547e-06 4.94308e-27)
(0.999282 -0.000530786 -1.07194e-22)
(1.00336 -0.00354638 5.28264e-22)
(0.989725 -0.00444699 2.99592e-21)
(0.987646 -0.00836773 5.44706e-22)
(0.97571 -0.0211104 -8.10267e-22)
(0.989618 -0.00472355 -2.27211e-21)
(1.01327 0.00172678 1.4851e-21)
(0.998819 -7.88138e-05 6.6526e-24)
(0.967192 -0.0191266 2.69717e-21)
(0.992138 -0.000507334 -8.25833e-22)
(1.00002 -0.000121988 4.96742e-24)
(0.993127 -0.000407593 -5.72195e-22)
(1.01801 -0.0239304 -2.55839e-21)
(1.01268 0.00188986 -8.21283e-21)
(0.9852 -0.0147026 -6.90408e-22)
(0.999995 -6.99319e-07 -7.63422e-27)
(0.990069 -0.00907609 5.86381e-22)
(1.00098 -0.00873223 1.88886e-23)
(1.00078 -0.000679295 7.46016e-23)
(1.05121 -0.111408 -4.70429e-21)
(1.00181 0.0396628 -4.95853e-20)
(1.00051 -0.000679542 2.08999e-22)
(0.993239 -0.00030264 8.48948e-24)
(1.05205 -0.0663626 -1.91159e-23)
(1.01708 8.65125e-05 1.29177e-20)
(0.988804 0.0250202 -4.59495e-21)
(1.00105 -0.00145662 6.64095e-23)
(0.999776 -0.0126309 2.06533e-22)
(1.08117 0.0922941 -5.71844e-21)
(1.01209 0.0165059 -4.20728e-20)
(0.994119 -0.0157269 1.90088e-21)
(1.00274 -0.00206795 -9.32508e-23)
(0.97299 -0.0247324 3.67692e-21)
(0.999998 -1.0909e-06 1.1572e-25)
(0.973734 -0.00108262 -2.80064e-21)
(1.00004 -3.97685e-05 4.99459e-24)
(1.05011 -0.0661042 -3.14258e-21)
(0.999984 -6.57143e-07 -7.78185e-25)
(1.00001 -3.41615e-05 3.39139e-24)
(0.999404 -0.014047 -2.44659e-22)
(1.17983 -0.0230914 -3.48879e-21)
(1.02597 0.120322 3.02404e-20)
(1.01993 -0.0248726 -4.06641e-21)
(1.008 -0.00947548 9.89505e-22)
(0.999999 -5.65046e-07 -2.34234e-26)
(0.99653 -0.00259257 -1.03559e-21)
(1.00005 -1.25321e-05 -3.62882e-24)
(0.99822 -0.00139839 3.61487e-22)
(1.00001 -3.17411e-05 -2.64599e-24)
(1.03013 -0.00923918 -1.21871e-20)
(0.999737 -0.000271612 -1.33902e-22)
(1.04178 0.0362459 1.80114e-20)
(0.999934 -0.000126081 -2.40873e-23)
(0.992766 -0.00294544 -1.02239e-21)
(0.977682 -0.00057666 6.43486e-21)
(0.997613 -0.00016343 -4.16782e-22)
(0.983996 0.0315424 4.41526e-20)
(0.990391 -0.000417317 1.57219e-21)
(1.00497 -0.0618637 3.66459e-22)
(0.996877 -0.00229036 1.59478e-21)
(1.01577 -0.00183047 -2.73703e-21)
(0.981792 -0.0322069 7.38816e-21)
(1.01182 -0.0010423 -9.24121e-21)
(1.01823 -0.0456352 -1.25117e-22)
(0.999993 -5.68424e-07 9.19466e-26)
(0.999177 -0.0118935 2.31869e-22)
(0.99777 -0.000176664 5.0653e-23)
(1.00014 -5.52063e-05 2.51885e-23)
(1.00004 -1.03521e-05 6.1683e-24)
(1.11469 0.13448 4.13593e-20)
(0.997234 -0.00123768 8.94548e-22)
(1.01725 0.000778697 1.47113e-20)
(1.00008 -0.0129335 2.46314e-22)
(1.00048 -0.000182791 7.1137e-23)
(1.01411 -0.00526677 -1.02064e-20)
(1.00009 -2.01433e-05 -7.60787e-23)
(0.99999 -3.08391e-06 -1.0642e-25)
(0.974038 -0.00143846 2.16642e-21)
(0.998038 -0.000707635 4.05683e-22)
(1.00002 -3.11101e-05 3.78762e-24)
(1.05073 0.0734086 1.31114e-20)
(0.907757 0.0555336 -6.28729e-20)
(0.999885 -0.000133996 6.08137e-23)
(0.978628 -0.00117192 -1.78149e-21)
(1.00001 7.63395e-07 6.71041e-25)
(0.958846 0.0851989 -4.2376e-20)
(1.19956 -0.0586201 9.34056e-22)
(0.982651 -0.0259347 -6.26306e-21)
(1.00003 -0.000321743 -8.1351e-24)
(1.01731 -0.0213354 3.45794e-21)
(1.01903 -0.00205338 -3.76334e-21)
(1.0201 -0.00063203 1.09759e-21)
(1.03036 -0.0110416 -1.52863e-21)
(0.999808 -0.00111543 -1.62854e-23)
(0.999921 -0.000491984 2.77456e-23)
(0.991983 -0.008952 -1.7386e-21)
(1 -3.75142e-06 -5.18505e-25)
(1 -3.93124e-07 -1.64719e-25)
(0.985849 -0.0144049 -1.63559e-21)
(0.995524 -0.0358334 -2.85997e-21)
(0.97638 -0.0207724 -2.10818e-22)
(0.922646 0.0794588 -1.203e-21)
(1.00011 -1.34943e-05 -3.13248e-23)
(1.00432 -0.046621 -5.33784e-21)
(1.00425 -0.00320335 -9.1294e-22)
(0.999991 -3.00037e-06 1.19202e-24)
(0.999395 -0.00230096 -2.63257e-22)
(1.00002 -0.000272889 -5.27993e-24)
(0.997308 -0.00745309 5.96399e-22)
(1.00002 -5.45322e-06 3.77861e-24)
(1.01935 -0.0450975 -2.45631e-22)
(1.01162 -0.00127451 8.9667e-21)
(0.980254 0.095143 9.40205e-21)
(1.01527 -0.00169239 1.02808e-20)
(0.999851 -0.0001286 4.91596e-23)
(1.00025 -0.00023087 -7.21824e-23)
(1.09351 -0.102638 -4.44883e-21)
(1.01702 0.000739719 -1.18345e-20)
(0.998267 -0.000229467 3.62383e-22)
(1.00001 -1.1318e-06 1.41795e-24)
(1.06264 0.0618107 -2.17131e-20)
(1.02355 -0.114058 -2.28683e-21)
(0.994579 -0.045668 -2.21499e-21)
(0.99193 -0.000431256 -4.40385e-22)
(0.999992 -8.53784e-06 2.12282e-24)
(0.999853 -0.000120638 -2.87344e-23)
(1.02534 -0.117304 6.43224e-21)
(0.99675 -0.0288876 -8.07287e-22)
(1.02686 0.0182787 2.56067e-21)
(0.985418 0.0813259 3.93589e-20)
(1.00471 -0.0602583 2.89254e-21)
(0.999303 -4.57591e-05 -6.54649e-23)
(0.999992 -4.57251e-06 -2.58511e-24)
(0.978314 -0.0272153 6.13507e-21)
(0.980671 -0.0545297 -7.5083e-21)
(0.999889 -0.000138238 3.27873e-23)
(1.00515 -0.0141461 9.81871e-22)
(0.99433 -0.0153224 -3.26596e-22)
(0.997377 -0.001327 3.52741e-22)
(0.997579 0.0349445 -3.5364e-20)
(0.999284 -0.000325093 2.32039e-22)
(1.02839 -0.0360226 5.1964e-22)
(1.18035 0.096106 -1.64516e-20)
(0.995646 -0.00190479 -1.01924e-21)
(0.931818 0.0659735 -6.40017e-21)
(0.93734 0.0310283 1.98784e-20)
(0.999986 -2.95219e-05 -8.09391e-24)
(0.999983 -0.000430141 -1.25422e-24)
(0.990509 -0.000550901 -1.00852e-21)
(1.00767 -0.00311131 -2.19307e-21)
(0.979487 -0.0010812 3.68218e-21)
(1.00296 -0.0025637 -9.57548e-22)
(0.995803 -0.00191223 9.55177e-22)
(0.999685 -0.000295014 -1.01723e-22)
(0.965886 0.085526 -7.54208e-21)
(1.04189 0.0344239 -2.80971e-20)
(1.00129 -0.00141114 1.70088e-22)
(0.877729 0.034829 -1.22685e-20)
(1 8.2221e-07 -9.84767e-25)
(1.01681 0.00360944 -2.03856e-20)
(0.989088 -0.054901 5.07296e-21)
(1.00563 -0.0469368 2.07268e-21)
(1.00005 -0.000121901 -1.44448e-24)
(0.978544 -0.000603318 3.03298e-21)
(1.01484 0.00303233 1.14252e-20)
(1.00751 -0.00340878 1.8166e-21)
(1.01891 -0.00151795 5.21701e-21)
(0.999759 -1.87554e-05 1.91035e-22)
(0.999733 -0.000290864 1.21374e-22)
(1.01222 -0.0292489 7.44716e-23)
(0.998067 -0.000766257 -1.15874e-21)
(0.992802 -0.00674787 -1.87041e-21)
(0.999473 -0.00209393 1.55946e-23)
(1.05917 0.0212908 1.45362e-20)
(0.999036 -0.0123909 -1.62938e-22)
(0.997168 -0.00282492 1.71857e-23)
(0.963105 -0.0139473 -7.87356e-21)
(0.996293 0.0663289 4.5345e-21)
(1.06947 -0.0372277 -4.38454e-21)
(1.01367 -0.00497679 8.20667e-21)
(0.999781 -0.000105534 3.63495e-23)
(0.999718 -0.00018932 1.63682e-23)
(0.989843 -0.011899 4.40366e-21)
(1.00056 -0.000740766 -1.67195e-22)
(0.998553 -0.000404569 -6.57958e-23)
(0.999993 -8.3089e-06 -7.73342e-25)
(0.999822 -0.00113647 3.69675e-24)
(1.01449 0.00285663 -4.43533e-21)
(0.986551 0.0566341 -4.0407e-20)
(0.999935 -8.95235e-06 7.64218e-24)
(1.13565 0.116387 -3.44341e-20)
(0.999996 -2.2125e-05 2.83589e-25)
(0.998161 -0.00165323 4.91635e-22)
(0.999997 -5.4192e-05 6.38065e-25)
(1.00299 -0.0022077 -4.24406e-22)
(1.14728 -0.0667648 -7.55458e-22)
(0.999981 -2.29742e-05 7.53118e-25)
(0.999979 -2.55696e-05 5.17417e-24)
(0.970247 -0.0230833 -3.4167e-21)
(1 -3.90661e-06 -1.00948e-26)
(1.03255 -0.0111679 1.27784e-20)
(0.99175 -0.0238076 3.29434e-21)
(0.999983 -0.000376538 2.68809e-24)
(1.06014 0.0454178 -1.66694e-20)
(0.999999 -1.65934e-05 1.55979e-26)
(0.999788 -2.14933e-05 1.67313e-22)
(0.999956 -2.02421e-05 2.95257e-25)
(0.997273 -0.00284268 -2.92303e-22)
(0.999802 -0.000901125 -4.72136e-23)
(0.996542 -0.000175269 -3.26931e-22)
(0.991841 -0.0666941 -6.01037e-22)
(0.999824 -0.000877805 3.11475e-23)
(1.0024 -0.00206789 -3.29792e-22)
(0.99999 -2.41011e-06 -4.58358e-25)
(1.02775 0.117752 -5.87819e-20)
(1.0273 -0.0364489 1.28253e-21)
(1.0718 -0.038341 -5.15428e-22)
(0.980873 -0.0032584 3.99696e-21)
(0.987476 -0.00238465 -7.32184e-22)
(0.999447 -0.00225462 4.33384e-22)
(1.00166 -0.00156431 4.6152e-22)
(1.03442 0.0456464 7.49409e-21)
(0.989489 -0.0209487 5.06562e-22)
(1.09703 0.0748647 8.2968e-21)
(0.976306 -0.00728673 -7.18547e-21)
(0.998098 -0.00159537 -4.63892e-22)
(0.999996 -1.51778e-06 -7.79584e-25)
(0.996805 -0.00162254 -6.48503e-22)
(1.00813 0.111432 1.45169e-20)
(1.05436 0.0530454 -3.90415e-21)
(0.988491 -0.0313434 2.6491e-21)
(0.968524 -0.00301579 1.67116e-21)
(1.03183 0.111195 1.60948e-20)
(0.995265 -0.000337356 8.48128e-22)
(0.987517 -0.0499902 3.97256e-22)
(0.999997 -5.0809e-05 5.38907e-25)
(0.991134 -0.0238679 4.12546e-21)
(0.999546 -0.000131862 -2.45127e-22)
(0.886165 0.0595226 -3.54065e-20)
(0.98562 -0.0406564 -5.67073e-21)
(0.999958 -1.78208e-05 1.37792e-23)
(0.966511 -0.00980251 -4.49e-22)
(0.989314 -0.0221894 2.55412e-22)
(1.02421 0.0506933 2.63559e-20)
(0.998571 -0.000440611 -6.2401e-22)
(0.988349 -0.0213134 -1.50752e-21)
(0.998508 -0.00623379 -5.01011e-22)
(0.999491 -0.0135725 -5.13935e-22)
(0.999304 -0.00032877 -1.5858e-22)
(1.02334 0.0495735 -3.20088e-20)
(1.00028 -0.0956061 4.72897e-21)
(0.990011 -0.00943977 -1.30393e-21)
(0.9923 -0.00833185 2.73029e-23)
(0.99283 -0.0027776 -4.09119e-22)
(1.003 -0.00130168 -3.88445e-22)
(1.03325 0.107854 6.351e-20)
(0.99007 -0.00769189 5.97807e-22)
(1.01153 0.025214 1.7746e-20)
(1.00153 -0.00126937 3.52062e-22)
(1.12746 -0.0862058 -1.51599e-22)
(0.948652 0.0678878 6.55823e-21)
(0.995175 -0.000266816 -2.9186e-21)
(0.999881 -2.28081e-05 3.23684e-23)
(1.03669 0.063292 8.03866e-21)
(0.999012 0.0885989 -5.33597e-20)
(1.01192 -0.028168 3.76061e-23)
(1.0474 -0.035312 5.47329e-22)
(0.997162 -0.00776593 -6.53364e-22)
(0.981156 -0.00294449 -2.3643e-21)
(1.07854 0.0899457 2.34443e-20)
(0.977622 -0.027257 1.10499e-21)
(0.999991 -8.27284e-06 2.79257e-24)
(0.995894 -6.29822e-05 -1.50518e-21)
(1.00002 -3.09182e-06 3.83324e-24)
(0.997528 -0.000145184 1.12931e-21)
(0.999991 -9.91574e-06 -4.3366e-24)