/*--------------------------------*- C++ -*----------------------------------*\
  =========                 |
  \\      /  F ield         | OpenFOAM: The Open Source CFD Toolbox
   \\    /   O peration     | Website:  https://openfoam.org
    \\  /    A nd           | Version:  7
     \\/     M anipulation  |
\*---------------------------------------------------------------------------*/
FoamFile
{
    version     2.0;
    format      ascii;
    class       surfaceScalarField;
    location    "3";
    object      phi;
}
// * * * * * * * * * * * * * * * * * * * * * * * * * * * * * * * * * * * * * //

dimensions      [0 3 -1 0 0 0 0];

internalField   nonuniform List<scalar> 
11512
(
157.708
-495.743
338.035
-739.436
-12.6338
752.07
399.891
-376.199
-23.6922
611.61
285.046
-896.656
1511.25
-1069.46
-441.794
1216.3
-1527.14
310.842
-79.1216
482.266
-403.145
168.54
-843.098
674.559
962.177
-1610.86
648.684
-1750.71
1658.05
92.6589
-542.946
1759.24
-1139.55
1933.48
-793.933
609.579
181.01
-790.589
-23.5655
-1307.53
1331.1
218.71
-1969.42
1024.93
-380.708
-644.222
-163.179
320.887
487.171
190.588
-677.758
1156.53
-1312.31
155.785
-303.68
379.006
-75.3259
995.533
-1302.55
307.021
1221.45
798.767
-2020.22
70.2093
-1631.26
1561.05
-451.411
-1183.73
1635.14
478.66
181.932
-660.592
-200.207
-295.536
498.401
1012.85
1637.88
-1793.32
155.445
-78.6554
-1695.71
1774.36
-1558.25
648.453
909.801
-305.392
654.388
-348.995
-193.368
-155.564
348.932
1277.3
-1207.09
355.127
-1407.52
1052.4
-1754.36
1754.36
100.521
1521.03
-1621.55
-1075.51
-482.743
633.456
-712.578
-382.355
941.467
-559.112
1332
-1317.37
-14.6304
-1100.53
718.171
629.676
395.253
-378.393
-49.5244
427.917
-426.632
746.369
-319.738
-1618.55
1618.55
1253.61
-1437.91
184.306
-488.224
1709.67
1257.01
-315.539
1660.76
-1161.27
-499.49
87.1676
-390.848
2063.83
-1133.76
-930.07
1802.32
-164.444
458.106
156.002
-614.107
-447.729
966.365
-518.637
-1161.8
1262.32
-569.378
971.811
-402.433
403.827
752.701
661.893
-493.354
-438.261
597.904
-159.643
1190.75
-835.618
2308.17
-1080.65
-1227.53
1162.94
-2006.74
843.801
-1592.45
1568.88
440.824
-1580.38
-759.302
1250.95
-491.644
-673.876
368.483
1661.49
-699.311
-1106.93
-870.891
1977.82
653.777
-346.252
-307.525
689.459
567.548
-258.202
1511.81
120.378
-322.88
202.502
-284.839
763.499
-335.546
568.009
-232.463
-324.609
811.78
-318.486
-152.078
470.565
329.601
70.2898
1445.47
-449.942
-957.889
473.305
484.584
283.647
88.3854
-372.033
950.984
-341.405
-1699.47
667.551
1031.91
14.8235
-844.248
829.425
-283.339
598.76
-315.421
156.226
-1093.72
937.497
1052.07
-1067.57
15.5022
372.953
519.866
-892.819
-245.411
703.517
-1104.2
-481.857
1586.06
-678.922
951.836
-272.914
1361.19
-1439.84
-608.308
268.92
339.388
-470.182
-1011.6
1481.78
-540.864
-791.366
1332.23
576.868
-997.111
420.243
-267.55
-317.996
585.547
411.064
-290.686
-1032.82
585.096
955.306
-799.08
-110.269
944.152
-833.883
-213.237
422.167
-208.93
-615.091
-342.798
-386.693
963.561
1856.38
-1856.38
-449.279
-159.029
-955.545
1546
-590.451
500.056
-936.322
436.266
-924.715
355.337
-941.913
-1058.08
-1482.94
348.505
1134.43
-291.106
902.716
-298.086
608.453
-310.366
-1941.91
999.994
-1130.29
-352.654
536.197
-1491.74
1728.52
-1725.43
-3.09201
218.139
-595.478
377.338
-1446.57
972.022
474.545
293.141
210.427
-503.568
312.617
-648.162
245.54
-422.305
176.765
2013.24
-865.11
-1148.13
-543.793
165.4
619.523
830.863
-1450.39
-184.537
430.077
430.975
877.296
-1308.27
-910.798
396.294
514.503
-1043.28
1447.11
-1068.95
309.653
755
-100.612
524.623
-273.236
-251.386
984.559
-511.254
593.26
-1404.03
810.767
-1342.44
238.241
-549.835
266.497
-1176.64
885.537
1945.91
-986.45
-959.456
276.805
1579.58
-2090.87
892.566
1198.3
368.557
-30.1992
-338.358
-224.177
484.414
-260.237
-118.15
-374.389
492.539
-470.264
151.777
343.832
-128.085
628.141
405.938
391.432
-797.37
-2031.67
1103.76
927.91
461.563
-535.573
74.0101
224.372
-366.414
142.041
1031.37
981.866
1772.15
-251.119
696.594
-427.674
797.615
-1390.33
592.718
328.956
324.821
1041.76
-1026.93
-512.071
-211.961
724.032
482.346
-139.471
-342.875
798.521
-617.511
577.159
-731.757
154.598
503.329
1157.44
-1240.06
699.196
1052.62
-1504.03
-3.14038
-1439.43
1442.57
324.316
825.979
-1150.3
623.922
269.926
-893.848
-2270.54
1129.9
1140.64
-1105.31
-1165.23
216.251
360.908
958.491
-634.175
879.684
-899.351
19.6668
-2099.38
992.45
-229.496
-190.77
420.265
-41.6151
1770.14
-816.925
77.4892
-1025.45
-1065.42
-230.319
454.691
-643.068
193.789
-249.485
-424.87
674.355
1104.07
-1574.26
783.253
-1374.62
591.363
692.642
-407.596
1947.89
-1444.56
-378.288
-1376.07
87.8284
394.438
-526.291
513.657
1.4489
-558.587
557.138
572.478
-279.337
-607.561
281.869
325.692
778.362
-372.424
33.1434
335.414
1188.47
-1191.61
183.338
227.726
391.388
-640.873
620.346
-1007.04
-2026.69
2026.69
-237.177
-450.184
687.36
699.459
405.874
-1105.33
579.833
175.166
392.317
386.046
-2199.74
1328.85
-927.09
-678.205
1605.3
-498.126
-678.516
-267.874
540.472
-272.597
822.088
-173.528
-648.559
-420.369
638.508
377.295
-675.381
-336.795
-139.584
476.378
-1319.59
-473.731
604.881
-1103.01
-374.155
-1244.4
844.317
1463.86
299.173
-937.641
638.468
967.134
-337.458
1391.54
-798.281
448.272
-264.933
-330.965
-867.478
551.645
315.833
-310.017
-557.461
305.222
-423.372
-222.211
-149.906
372.118
-392.715
1092.17
435.803
-245.215
-397.774
1340.27
-167.842
-1172.43
-465.4
264.004
201.396
235.945
231.401
-467.346
33.884
-765.641
592.051
-1728.98
1136.92
1480.39
-860.868
-1048.89
-397.681
-1058.09
573.024
485.065
1365.83
-393.81
929.71
-1411.57
-157.472
-213.265
370.737
-470.145
582.636
-1625.92
427.991
904.013
259.336
300.679
-560.015
568.08
1186.28
1105.24
-717.41
-387.833
410.076
-222.519
-187.558
-1419.48
444.355
739.206
-1183.56
1473.47
-543.761
-494.287
913.621
-419.334
426.139
1186.17
-1612.31
47.2686
-726.19
-143.802
427.449
223.055
-416.423
518.466
466.093
-632.901
68.2862
564.614
1024.55
-1307.68
283.132
660.993
-268.676
468.196
-1447.27
979.071
421.495
1685.2
-522.255
914.928
1030.98
-663.862
-1684.41
757.321
567.494
386.387
-953.881
452.563
78.6903
1749.82
-1828.52
1443.79
-379.488
-1064.3
1699.06
-1740.67
-368.63
-507.309
716.913
-209.604
-502.593
188.034
294.313
-373.189
-1226.03
214.427
-764.54
-639.487
-671.831
1005.13
-333.297
-654.207
644.362
9.84498
655.158
-923.819
268.661
-760.843
385.582
375.262
-649.368
-676.24
357.379
318.861
-932.416
1400.61
-408.285
881.895
-473.61
-2205.3
5.55814
185.408
-540.32
354.911
140.89
1199.38
-92.4355
-550.632
162.203
-600.464
1487.29
-704.035
372.84
-467.164
94.3243
-569.029
569.029
1223.09
395.462
1777.75
-1229.4
588.887
640.516
850.986
-52.4647
1291.07
772.759
-539.696
1337.31
294.944
303.816
283.697
-791.005
235.397
-662.028
233.363
-447.08
213.717
-222.436
570.839
-348.403
134.483
-356.919
-592.265
-564.522
1156.79
-356.249
513.839
-157.59
-1192.16
2032.05
-839.886
1290.67
-332.18
-404.651
137.1
-1980.24
796.503
1513.87
-842.195
-671.674
1986.92
-877.405
-1109.51
713.33
577.34
-241.1
474.463
-676.686
1124.6
-447.915
-770.499
1201.47
551.436
924.718
-1724.63
799.911
-531.922
-68.1
600.022
284.542
240.08
413.701
-111.08
-302.621
897.02
-83.4156
-813.604
898.279
-542.696
-355.582
1576.23
-472.156
886.08
-1624.57
738.494
1068.49
879.396
751.326
-447.041
-304.285
-1059.1
-258.275
553.493
583.133
-1136.63
-440.92
484.224
-43.3044
580.182
-349.053
-231.129
-980.831
572.545
597.263
883.127
-441.848
1097.01
1401.7
-766.997
-634.699
400.708
-927.14
526.432
-1000.63
385.541
532.023
-1026.31
442.16
-500.015
57.8547
459.768
286.601
-520.551
-48.4778
-794.809
-876.128
1670.94
197.889
212.188
-212.098
428.348
-35.8
-531.302
567.102
485.412
865.648
-1351.06
-534.817
312.606
986.047
-89.0271
836.766
-1065.19
228.422
376.857
846.947
-1386.64
-439.056
830.488
1975.29
-1281.85
-693.443
270.265
609.419
256.065
796.005
71.0476
-951.587
880.54
1673.76
-1089.11
-584.649
-137.778
1887.6
-1866.03
-160.662
483.895
-622.051
138.156
-1015.75
525.989
489.764
-1730.48
538.319
-956.006
845.737
392.444
205.46
589.309
-290.137
-427.338
713.133
254.002
85.5652
709.39
-794.956
-1134.89
-894.688
2029.58
-530.739
1082.74
-551.999
-448.684
-339.429
109.933
-1653.04
858.233
-884.16
-577.454
1461.61
-332.564
-295.392
627.956
367.268
-637.561
270.293
231.202
-603.626
299.633
216.162
-515.795
325.112
-592.986
610.158
-242.89
315.504
-467.583
669.62
399.218
-163.273
-366.862
-309.378
1212.45
-3.8416
-1208.61
1040.37
-420.027
561.176
410.635
-1782.39
869.832
912.562
496.72
539.384
-1036.1
-536.338
203.775
-262.087
1180.22
-918.134
-1590.91
1212.63
504.677
-1096.94
389.468
-16.6274
421.038
290.498
-711.536
374.685
-620.096
-28.3969
754.321
-725.925
-526.457
796.382
371.988
323.178
527.808
655.745
74.9931
-382.667
307.674
1059.23
-645.44
-413.792
494
-1664.27
1170.27
-1140.48
1753.25
-612.766
1715.79
-1123.74
-335.308
617.177
-1181.66
1252.71
425.379
-796.148
1593.87
-797.721
-239.391
-226.009
-886.106
1468.72
1810.42
-611.7
-1198.72
-404.849
630.36
-1302.19
-124.803
-31.187
444.888
-670.48
-354.17
-1236.74
-227.507
458.709
904.138
-562.859
188.47
-1674.44
-71.1577
1745.6
-1047.6
516.86
572.154
-1180.09
607.94
901.197
909.226
630.886
620.06
668.506
245.115
-1119.5
442.813
-406.739
408.188
623.766
-516.073
254.198
-736.244
482.047
666.771
-337.815
-338.947
183.383
-584.352
219.027
365.325
-888.947
-735.627
1087.67
-2145.75
401.134
-685.973
-342.97
-724.603
832.231
569.465
-351.996
302.472
354.81
196.587
667.116
-863.703
528.817
595.784
-517.137
180.342
362.909
-600.085
-1040.54
-851.873
1892.42
-1788.21
156.95
1107.42
-1369.5
1150.9
-735.677
-415.222
-503.166
1350.11
-1495.58
627.861
867.717
-288.439
-210.777
499.215
1428.38
558.539
317.983
-457.566
-488.027
-562.363
1050.39
-416.328
601.736
1581.91
-1128.27
-453.632
-758.451
308.267
655.02
404.211
-1623.43
416.15
1207.28
-205.12
504.753
797.994
783.912
193.348
-667.134
473.786
210.158
212.01
-296.039
-109.167
405.206
463.007
5.28736
-468.295
-1625.34
576.454
-1599.22
1661.97
-62.7558
8.42483
-1607.64
1069.64
740.646
-319.609
-794.922
-205.71
-1134.57
-240.044
-312.217
686.902
-1812.22
-621.53
1204.66
206.08
760.285
-1328.45
-678.298
-465.146
588.506
-329.17
-1013.29
1350.75
-1932.77
582.029
645.619
1287.87
487.741
-3.3272
717.907
697.137
-1415.04
-642.054
341.272
300.782
441.758
-99.8266
-341.932
158.326
278.789
173.558
-452.348
-573.032
1140.53
472.382
-598.51
-462.893
-401.926
864.819
-336.968
179.496
-461.815
171.129
-307.089
-708.664
550.459
-108.701
-567.744
968.452
580.733
-270.243
-310.49
457.349
-781.958
-644.874
423.968
-1129.43
-828.704
1177.21
-569.769
462.169
261.863
-435.953
89.7007
1029.9
-317.362
594.578
-277.216
-509.041
1578.68
-668.095
220.085
382.924
-603.01
208.724
461.846
-15.5222
-446.324
-252.317
-209.498
1013.55
1108.98
564.776
-860.815
932.182
-71.3669
-457.769
169.33
-713.194
288.324
-599.016
315.716
351.056
807.616
-1219.74
412.128
778.602
-806.999
-949.01
-550.373
1499.38
-149.177
449.856
-519.662
246.425
1297.91
756.24
-562.891
1299.47
-694.594
488.091
-689.519
-417.476
-424.771
-378.744
803.515
504.112
-845.516
-431.993
78.9335
353.06
-326.238
572.382
731.099
-329.965
-248.585
-175.835
424.421
-493.489
150.658
342.831
1455.58
79.505
-1535.08
-747.99
1345.25
-1144.75
-466.113
532.242
-149.318
1149.12
-370.521
1083.53
492.697
691.856
-408.159
-885.244
-522.279
-1328.5
-30.2619
984.993
-954.731
596.881
311.058
-907.939
-313.18
-230.613
-680.075
405.512
1621.18
-161.57
359.156
355.529
-714.684
-1839.8
-2106.67
1519.14
587.536
-2037.01
341.301
344.479
538.164
-882.643
-460.155
1021.33
-377.197
-674.489
1051.69
-2030.52
1391.21
639.312
600.847
-978.044
55.9576
386.202
387.008
203.556
244.715
312.669
945.326
849.222
682.516
-327.978
-354.537
-296.344
624.622
-328.278
575.836
529.407
565.825
515.024
-1080.85
-796.294
-699.283
753.583
395.54
-422.317
692.61
-1193.43
1609.58
402.764
-1077.25
-315.872
532.034
-1383.87
857.483
526.39
-716.735
-357.752
-795.65
375.217
420.433
446.946
718.775
-1165.72
1066.89
-570.168
-390.382
652.621
-262.238
255.228
325.505
-469.431
-432.068
901.499
-244.47
547.062
-938.844
391.782
-466.531
600.599
-1681.25
423.659
671.507
-1095.17
523.616
84.8365
113.406
-2212.78
530.988
-68.819
1443.61
1777.09
-217.555
-1559.53
-438.384
1789.13
-1986.82
1194.42
792.399
406.618
344.708
-30.403
862.634
-1283.71
719.19
-871.357
-823.903
793.641
315.295
49.009
-364.304
230.612
186.055
-416.667
1546.7
-828.795
-1530.95
-325.432
460.985
-188.575
-272.409
396.456
367.043
231.487
357.019
-7.84106
1000.79
-992.951
373.607
262.836
-636.443
-733.997
1817.25
-1083.25
-343.042
739.498
-1210.74
-410.813
-916.94
484.871
556.238
-770.196
213.958
763.765
-382.552
-381.213
-417.956
-442.859
447.306
1060.84
1235.23
-663.08
802.923
-345.574
388.082
299.278
-257.248
-209.916
-190.349
611.844
408.064
-849.497
441.433
198.076
357.497
-555.573
-424.179
832.243
754.847
-1147.56
875.178
-67.5623
-493.441
272.745
769.011
-95.3991
1383.26
1890.49
-76.4843
340.489
-319.67
394.663
-1084.91
1077.07
605.094
376.506
387.259
53.3862
407.599
267.484
484.585
-369.859
-272.195
-564.77
-89.4372
-355.432
370.435
-15.0033
-258.419
-291.417
1011.17
-1540.73
529.563
-204.089
-172.11
-383.768
646.605
-1624.85
1591.09
-963.231
242.436
-659.912
584.306
1224.43
-1808.73
607.399
983.693
290.587
-1117.66
690.323
-288.298
-271.717
1367.89
-1440.05
819.405
620.647
402.268
-612.388
210.119
-349.505
471.119
-121.614
361.29
101.718
1723.49
463.73
-253.572
557.609
-1704.79
1147.19
-90.5182
394.668
343.299
339.217
-448.461
-616.32
1064.78
423.321
-862.378
-641.53
903.266
570.205
-510.383
-250.46
-440.557
-408.94
-307.087
-827.485
1821.11
-1821.11
-106.647
-1582.47
1689.12
292.316
287.866
-917.455
-555.22
1472.67
-408.237
974.062
-583.567
-1041.77
677.712
382.368
-1060.08
481.03
-165.526
573.056
1220.35
-1793.41
-1044.23
2116.33
-1072.1
-373.251
-300.625
-491.509
799.776
-1746.35
1596.95
149.408
1746.35
-1599.47
-146.888
-248.45
527.745
-279.294
-537.273
1620.81
1555.45
-1966.26
1063.25
-283.514
-242.086
525.599
245.748
-561.62
-688.82
266.503
1340.37
634.919
575.995
487.108
-1063.1
286.034
405.822
875.521
500.109
-1375.63
529.512
-1017.54
1574.97
-563.798
-776.931
-368.617
-105.417
474.033
-489.856
1208.63
-742.915
335.012
368.504
351.012
260.032
-611.045
596.761
832.105
-603.683
267.608
664.574
-510.383
-317.433
-219.983
537.416
1168.6
-665.232
612.086
464.238
-1076.32
-1289.04
1289.04
-388.057
764.564
-289.317
-472.493
761.81
480.469
450.345
-930.813
386.903
-676.22
614.991
-868.777
253.786
-367.246
-497.531
1073.53
-663.072
-708.156
1371.23
-374.3
921.363
-1552.67
675.263
39.1884
-399.581
360.393
-492.92
686.709
237.599
333.24
173.564
307.466
-503.959
215.661
1869
-1964.4
271.781
-692.15
442.623
-821.232
378.609
-922.837
1403.89
-481.055
-429.746
-487.194
600.653
1124.22
-1724.87
-716.957
343.706
-459.342
1035.18
-766.468
1034.08
-381.665
-631.652
-471.284
706.68
541.472
-359.54
903.79
-297.75
-195.739
1599.02
-1816.57
-343.873
-594.97
-329.602
480.26
245.056
-574.226
-182.084
1053.6
-780.856
218.854
-273.774
-289.352
563.126
396.865
-871.652
474.787
-489.55
-441.841
-937.641
-328.504
555.961
-227.458
-444.511
-413.71
-315.629
-200.166
-375.406
635.438
-447.644
746.922
-1073.37
624.911
-1410.39
526.234
-27.3941
-1832.79
1860.19
569.834
-449.146
1199.13
-682.267
332.214
-332.214
669.158
-428.65
1043.14
-1626.71
-1158.73
-947.942
294.893
329.729
878.913
714.956
-481.128
-302.31
783.438
1655.16
-1682.55
-435.026
353.293
219.186
1135.35
-523.265
-943.33
1550.47
-607.137
447.264
-243.708
386.964
363.121
-750.085
522.952
475.997
-998.949
-332.123
667.136
-37.7523
1906.75
1579.34
993.059
-1697.09
727.409
-1177.37
449.959
-492.449
1367.97
838.335
-1341.5
-538.143
254.629
790.265
-403.878
555.693
-1186.59
630.896
-640.195
-1215.54
-695.63
1911.17
-205.942
538.517
-332.574
-164.851
279.323
-485.265
324.406
375.618
-700.025
-1478.48
757.885
720.596
884.146
-1434.52
827.291
-430.997
223.205
-367.007
-570.345
252.913
-629.15
-754.722
699.614
505.456
-1205.07
396.499
-204.805
-191.693
557.096
-959.529
-557.015
-425.701
714.025
-831.261
-1155.55
-1437.98
499.602
938.381
17.8628
-614
326.148
287.852
-1307.07
1044.68
262.391
-617.348
-456.024
-666.035
922.1
404.348
-207.152
-197.196
508.109
980.774
-1488.88
973.296
-564.549
167.473
397.076
-383.232
664.712
-392.93
-509.295
179.693
234.575
-1516.42
534.323
532.565
-728.422
235.502
161.9
-459.65
374.969
-816.81
1954.16
-1195.39
-758.767
402.994
-653.979
250.985
325.309
318.488
129.307
-447.794
-560.107
197.35
266.38
-691.679
1374.45
-682.766
424.052
448.453
-1165.19
269.326
1866.78
-1013.59
-853.19
785.289
-511.596
183.093
1402.41
-975.229
-427.181
339.914
-768.564
-616.473
1725.45
614.48
620.754
320.91
-5.61547
274.329
-1138.47
1725.72
-587.246
-1763.51
820.184
1747.55
-1679.48
-68.0764
-656.934
250.195
555.455
-694.291
223.008
1402.82
-564.488
395.302
435.186
-1858.48
1420.09
528.174
-410.493
-117.681
216.255
-531.883
-274.635
-174.049
-354.778
698.077
-565.596
196.979
602.303
554.644
-1156.95
1113.71
-1947.36
833.653
167.384
308.994
-1698.34
1660.59
321.551
-729.711
-163.341
386.547
748.564
680.603
-1429.17
1069.34
-1073.19
529.778
-1099.95
-633.551
255.916
377.636
508.481
-289.454
-591.384
-1035.33
301.694
-715.404
-912.319
189.012
168.31
228.188
376.145
299.778
-675.923
-624.402
-833.834
-978.383
494.368
-1054.48
-274.14
475.535
536.131
641.078
-280.848
-123.802
-408.753
699.34
277.215
-1196.42
572.014
1304.86
-556.296
446.535
-1003.55
-389.549
156.325
371.849
1023.48
551.493
-1710.75
1604.1
1621.4
-549.577
-1071.83
1901.66
-1889.73
-11.9276
191.561
-511.231
-331.703
550.556
-759.205
-314.012
-342.922
1030.02
694.216
-1492.11
797.889
352.517
-26.1928
1625.21
-1068.44
403.205
-1224.08
447.146
-59.6004
1515.18
1197.64
-470.235
-489.71
-74.8392
-259.035
735.996
-1951.54
-712.517
345.271
-535.507
190.235
191.909
-509.271
1139.9
671.531
-1811.43
-585.813
175.32
942.207
-1497.43
-210.481
678.957
-468.476
879.77
1120.23
-733.346
1347.83
583.384
-471.991
-111.393
-350.113
1169.52
1033.02
-1980.84
947.825
-1168.56
547.035
1488.86
-585.59
-362.784
-154.353
-1238.91
575.828
1159.38
-127.461
946.015
775.334
-1721.35
-217.588
578.357
-1541.77
963.413
486.976
916.778
-1403.75
614.044
590.62
376.27
-1106.66
591.897
1104.03
1216.31
-452.423
-763.886
-1186.2
-1754.95
-8.90012
-1701.85
-205.83
-406.557
1605.07
-625.147
-979.92
-490.876
1121.76
-1315.44
638.096
677.342
-1359.86
1439.37
-1327.91
594.565
1520.56
-384.854
-552.681
189.897
-1472.41
243.296
176.382
213.322
370.062
434.756
388.267
-823.023
506.297
-939.158
901.139
-1444.9
-680.496
231.861
448.635
-1035.92
462.888
-466.932
862.235
696.821
34.0357
-514.063
181.488
-886.564
-1318.74
-717.741
351.908
365.833
407.419
-724.701
317.281
-481.492
-189.342
-710.009
716.12
1539.39
-593.373
808.521
738.181
1344.89
-844.779
-971.514
-570.257
-799.491
427.869
371.622
-1037.37
-645.384
306.569
338.815
-1433.7
-296.783
-792.6
399.939
392.66
-636.916
387.34
249.576
-666.591
273.661
412.732
488.767
389.948
442.295
480.087
384.732
597.424
-970.613
668.472
472.054
454.54
356.728
-811.268
1630.78
-1079.93
-550.85
-504.367
-280.627
-1026.44
455.568
347.948
409.615
594.929
-1004.54
-1378.56
753.417
-536.561
1144.5
352.048
-73.2586
412.145
-867.056
454.912
-1890.73
308.263
442.641
-727.768
285.126
-185.469
407.928
-222.458
-664.234
311.637
352.597
-676.916
322.379
371.093
393.471
613.322
-1021.56
754.097
660.287
-1414.38
438.752
626.029
340.759
393.357
-734.116
410.865
328.633
603.771
667.75
393.09
584.519
-1008.92
424.399
-1665.4
1203.8
461.596
1696.61
-539.171
622.335
-1147.69
525.355
-644.517
349.126
437.247
-936.403
499.156
734.103
-443.605
351.393
346.684
558.429
-902.303
650.296
-1253.74
603.445
357.713
735.251
-1225.11
770.057
509.356
-1279.41
474.383
408.522
-882.905
-501.591
-936.391
-306.276
630.682
352.647
542.608
-895.255
334.58
332.556
-502.175
1944.74
437.795
-848.104
410.31
-917.969
-806.661
-750.885
369.672
-1204.8
438.337
-1725.83
1599.47
126.368
1742.15
-1596.95
-145.206
-786.131
-596.389
268.553
327.837
-1747.55
1966.26
538.214
792.093
-1330.31
440.067
716.72
690.66
385.626
-1076.29
-86.2592
1617.15
-593.677
380.394
818.733
-651.795
328.037
323.759
-378.524
-298.344
553.573
-226.554
436.981
282.729
-669.523
386.794
267.554
-582.975
-284.988
442.445
-1034.29
591.846
538.034
1092.75
366.054
597.508
312.997
353.247
-666.244
1611.52
-917.305
1691.55
-1520.13
-171.421
-328.835
-825.11
416.17
857.671
-1068.15
-610.279
282.001
-1090.63
1628.66
-1574.65
-81.4763
1656.12
-341.726
-350.492
-370.347
535.57
599.781
-504.576
-30.9972
-550.133
510.256
-284.234
-226.022
1736.86
-1289.55
-628.004
301.38
326.624
405.655
357.26
734.914
-298.275
-398.977
-1742.15
1682.55
459.451
-1101.54
642.094
-44.368
1648.47
571.61
476.475
-1048.08
104.869
1145.13
-1452.22
-18.4725
-1872.26
230.962
-601.632
308.16
293.472
-955.901
612.931
-899.759
470.013
-1129.06
674.118
454.945
352.132
268.593
-749.721
-312.398
1217.84
887.154
698.903
-1183.19
456.151
727.034
494.215
701.376
-1195.59
-358.565
-248.449
416.759
-961.776
438.364
523.413
21.2675
-1879.75
1080.44
-465.453
-487.409
557.817
-1378.38
820.561
-419.313
797.922
-405.341
494.79
-710.958
1724.51
417.116
-188.928
217.498
-174.437
-246.556
420.993
1895.31
-504.105
-1682.34
1052.07
-604.292
305.948
-1014.79
554.638
-313.65
544.22
905.465
-1449.68
-1104.31
438.279
-20.6033
-1943.79
1709.51
-676.488
-541.201
460.648
-1190.84
730.191
189.747
214.601
-283.291
766.963
701.753
839.272
819.382
-462.654
1085.48
-461.721
482.647
-196.695
-285.951
-1922.21
-714.796
-318.902
-644.59
-6.86763
651.458
471.181
-273.831
560.6
1050.92
-797.878
926.014
1244.61
-425.17
-206.377
-219.72
426.098
955.767
-888.655
-330.477
-1068.59
612.567
1552.49
-794.601
537.56
935.114
-386.423
736.081
-349.657
1130.73
-277.475
319.372
1349.91
-704.014
-223.125
448.272
-1198.9
750.627
-1005.99
-88.6216
1094.61
443.108
-956.73
513.621
175.378
732.842
483.467
744.267
-77.1506
854.439
-425.624
1182.9
-797.271
551.962
-1465.57
913.609
-1216.66
1800.97
-431.714
-1510.19
879.851
-1402.13
-296.427
-415.109
1457.36
-1521.41
785.785
1491.54
205.15
277.497
-347.395
-1725.83
-299.236
-1002.83
1563.43
-1756.89
1756.89
1555.45
-1004.58
-636.288
-330.343
368.467
605.595
-361.088
-355.814
-1389.94
897.494
1125.18
600.539
1203
1789.48
-1216.43
-605.795
274.486
1658.88
-1916.3
257.42
813.756
-1267.39
1545.28
-561.59
770.405
312.333
-326.825
554.463
795.65
683.53
1346.05
-208.098
-444.847
-345.366
498.798
-342.796
471.649
736.982
-289.081
-158.713
-319.677
565.998
-246.321
25.178
-374.231
1107.51
-1720.28
-422.539
-476.896
-564.148
864.364
688.122
-1596.62
904.936
-451.532
-613.921
-513.182
1252.39
321.221
1723.62
-1702.35
-1655.16
1889.73
-1560.92
840.353
720.571
-355.271
-1793.76
917.635
582.729
820.093
-397.269
1794.2
-680.49
-402.273
671.813
418.784
-1090.6
-1098.92
444.052
753.592
-1617.21
473.164
901.281
180.649
-406.988
226.339
-1588.82
-380.601
-418.477
990.342
-666.895
1443.03
-974.923
1854.69
242.679
-544.818
501.119
-295.969
474.311
893.659
542.989
977.575
-462.62
-428.005
573.783
883.576
-1392.71
-40.9876
1566.71
-828.533
519.944
971.6
-1475.88
-1115.9
1764.89
-1243.23
-521.666
1206.22
-318.868
-887.353
-195.583
459.236
-263.653
-457.461
-251.174
435.874
-184.7
150.111
-398.559
1723.85
-1732.75
-447.013
-530.836
-903.682
449.156
-210.527
-238.628
636.756
-443.306
-355.132
-297.569
652.701
-920.31
362.848
-1167.5
676.629
423.328
-627.169
-446.384
1567.71
-852.756
530.178
-457.696
-571.851
-462.44
371.632
-361.797
-9.83532
-1087.24
404.976
-664.612
-1033.75
1698.36
-589.385
-1422.71
714.552
562.13
-1596.29
1034.16
-369.589
-483.583
139.896
528.61
-1258.58
745.4
539.209
1006.07
-2133.18
999.992
1133.19
-342.871
418.895
-394.026
-24.8688
1478.1
-360.165
449.479
1224.32
581.995
906.862
568.652
527.243
-1095.89
170.203
-428.017
-1679.48
265.058
1127.61
-605.577
518.4
1013.87
-1532.27
1092.89
-1643.74
194.726
680.452
537.267
-867.744
-1086.61
-174.148
432.432
-258.285
-587.434
-415.626
-636.953
-630.699
347.408
-1618.26
940.054
-476.634
216.226
-405.154
538.805
-307.844
-595.028
1197.3
-1258.75
918.278
340.471
-1025.08
-346.679
-752.083
-819.943
1684.31
-476.745
1792.45
-1579.32
-213.13
-1556.67
1018.78
537.892
-720.873
-263.607
446.804
-183.197
-582.421
383.761
277.589
-661.35
-523.731
976.301
633.438
-351.436
-1620.31
1050.54
571.745
1103.58
-1675.33
-398.708
-297.549
-366.685
-740.469
-457.488
-331.206
504.769
1558.01
-995.88
-775.844
1497.47
663.669
-310.377
725.88
1152.37
-1878.25
270.953
291.472
-486.969
-1930.84
1718.94
211.897
741.377
-474.53
-266.847
531.812
1060.88
-1592.69
371.632
-1720.32
-233.208
1752.34
-1580.72
1073.8
506.914
-1718.65
-1.66865
-521.473
418.895
1698.34
-1718.94
939.925
624.131
-1564.06
387.108
-220.248
-166.86
-395.957
-270.634
73.803
94.9213
-358.529
-435.095
-433.682
-410.836
225.366
1510.29
378.735
-217.456
-419.46
466.985
-200.605
305.272
1510.81
1003.89
-151.565
-852.324
-1104.14
1704.79
-1728.71
1064.1
-707.01
-1021.7
-1265.09
1844.99
-579.897
1155.08
-1771.1
616.017
272.657
-878.436
1675.59
43.4646
-1719.06
-491.152
-1083.11
-1723.85
-983.07
555.065
1019.66
590.198
1133.07
-1723.27
293.193
-442.511
706.563
-384.184
361.272
925.203
680.093
-377.948
-630.97
582.869
1072.6
-1655.47
-396.301
-373.552
769.853
411.037
-1660.59
1520.13
140.456
585.663
-1045.01
544.74
1083.92
-1555.72
994.131
-241.108
239.969
310.588
1901.66
401.609
-86.9961
995.868
722.753
-1718.62
-697.603
1085.39
-1557.55
169.819
-572.435
200.488
266.497
-646.46
-558.345
582.418
1034.73
-711.354
-262.781
-1368.83
676.832
691.993
-419.458
777.936
50.3912
-828.327
561.467
-137.133
1557.23
-221.088
262.672
-767.995
-1930.84
1664.64
1039.03
385.582
290.965
443.138
-930.348
-991.859
-1767.27
639.676
1693.78
512.7
-474.108
1211.09
1087.19
-424.952
1030.55
-979.978
495.887
484.091
699.925
1047.99
-1747.92
488.541
479.911
-1494.07
-748.168
30.7575
782.456
-412.784
-880.956
393.546
-538.259
-803.242
638.468
-576.887
1397.45
1055.13
197.015
235.418
-550.592
1618.54
-771.122
1525.22
-1727.84
575.229
1152.61
547.083
-884.541
-1732.58
1916.3
-183.728
1721.75
185.405
-542.846
371.728
-276.807
-481.292
1211.48
568.27
1128.34
-491.383
436.858
860.209
-464.956
-774.852
421.991
352.861
1418.53
1089.64
-518.124
1423.06
-510.688
-533.624
1044.31
-602.726
455.741
-1191.42
1691.55
1839.58
-687.208
1585.48
-645.559
-1241.68
717.946
-562.272
205.707
-396.476
458.89
-246.88
-521.165
-1246.71
1870.94
-624.224
1173.53
-551.199
1120.3
-1659.47
1687.42
-573.912
-544.245
-549.802
1720.07
-317.617
-688.005
-473.263
1223.89
-1680.29
-1860.1
613.386
280.567
-929.126
172.222
216.885
-1719.03
1204.17
514.865
1162.86
558.888
-510.845
-465.352
1192.39
177.51
230.418
588.443
1251.14
-539.171
-1238.59
1777.76
-1025.5
999.992
866.792
-204.154
-1658.88
1702.35
-510.023
1411.3
-1732.58
-369.052
27.5995
341.453
-269.516
587.557
-318.041
59.2341
492.411
783.222
-375.803
1257.54
1271.02
-413.345
853.873
-437.703
1817.41
-662.323
1586.48
-1723.62
-412.773
-728.321
301.236
427.085
-558.969
-563.159
79.7234
-1138.82
-985.653
-669.383
1655.04
-943.71
-1189.47
157.653
-399.738
-648.959
705.553
1167.46
649.949
1410.37
-590.278
1636.76
1318.2
-572.8
-496.64
200.671
-503.257
1396.92
1240.27
-563.442
-999.991
894.89
52.2857
-947.176
603.45
-506.096
1403.59
1495.1
-588.236
-378.96
378.96
-589.352
1623.51
1239.74
-486.146
1134.17
-76.2742
1850.64
-398.354
1489.5
-588.362
-507.664
1348.02
-653.919
1218.77
-564.855
1554.81
-591.402
741.837
572.048
-1313.89
-649.653
274.878
481.362
599.831
-1957.3
-972.918
1586.48
380.076
-380.076
-75.2515
390.913
436.378
365.225
-3.93532
-347.013
880.501
-522.787
-425.309
816.222
-246.241
623.876
-438.006
1541.76
-444.335
-884.163
190.762
227.32
-418.081
601.166
1250.78
-1851.95
928.424
-458.411
-361.797
126.154
-1943
1816.85
-454.429
189.496
1181.41
-440.432
-740.973
-309.247
-571.709
-490.661
-394.026
-484.149
258.127
1158.7
-558.919
230.733
-386.354
155.621
-22.3936
-107.672
1376.07
-1268.4
34.4471
-599.217
-586.345
-458.694
458.694
-1262.36
1985.12
-1344.41
-218.331
-1823.56
244.235
-1025.76
-974.241
-189.174
-1636.82
706.468
1229.32
-1924.95
373.075
310.339
-683.414
-1850.01
1234.27
615.736
-563.895
563.895
-959.32
-39.7999
-1866.03
-558.127
1650.88
-678.105
1636.18
-601.441
-169.402
-1702.86
-587.967
-437.357
-594.768
-471.993
471.993
-1537.81
194.523
1343.28
176.592
226.893
-403.485
486.718
517.17
998.075
-474.662
1751.3
768.837
-426.188
401.319
519.615
1702.05
-594.539
-552.953
1636.88
474.974
1812.71
-645.249
-1803.73
-1938.08
-646.882
-483.485
483.485
-580.141
234.775
-684.037
1020.3
-465.664
-1070.44
-283.3
1579.58
1852.31
1635.33
-1635.33
-279.83
738.918
1761.48
595.78
1275.16
176.686
210.421
563.316
594.408
1603.52
-1603.52
225.156
-351.626
-432.895
463.512
952.654
-456.767
-640.221
-1131.04
1706.27
282.946
-1642.11
600.335
-289.72
475.125
1744.64
-592.036
-216.598
-408.306
382.464
721.567
1738.57
-613.388
-511.753
-775.624
1960.53
-870.45
-1090.08
1642.82
-706.948
1223.98
-1824.94
600.958
312.28
-857.098
-186.211
-108.817
1098.9
-486.334
121.758
605.551
-1640.88
442.922
597.459
-1803.73
-583.267
1787.43
884.765
-1162.94
1760.49
-597.545
1783.84
-575.515
-1208.32
439.048
927.903
-1732.75
924.901
-1505.13
280.493
1224.64
-831.396
-1254.23
-383.637
77.0971
306.54
581.701
272.44
1023.54
-447.686
848.211
-400.525
821.682
737.053
-1558.73
643.468
1066.21
-24.4059
-664
688.406
-1744.24
722.547
694.563
150.566
-1122.73
1936.75
-674.542
-1262.21
-537.172
1665.51
825.127
962.222
-1787.35
1227.87
683.303
-401.223
712.86
834.774
1029.28
-586.176
1761.48
627.122
1773.56
-1185.64
-587.925
-374.777
-314.886
689.663
121.44
-1185.74
1660.56
-540.261
-1437.83
1437.83
1250.58
594.411
1351.64
206.368
-570.363
283.729
-195.344
699.036
1113.67
485.805
-308.295
-870.646
-574.254
1734.41
-1734.41
1007.24
-1007.24
987.328
1025.17
-2012.5
1837.94
-613.958
-581.101
807.646
-947.847
-1052.16
998.462
690.185
-1688.65
-520.551
-332.353
-645.691
-808.417
2042.69
-1246.43
-613.671
1002.97
974.849
1289.77
646.98
328.04
1012.69
232.619
335.537
1186.28
1756.87
-1756.87
672.209
79.9695
-390.459
-997.049
-539.989
1674.16
989.375
1010.62
-1833.27
-226.026