/*--------------------------------*- C++ -*----------------------------------*\
  =========                 |
  \\      /  F ield         | OpenFOAM: The Open Source CFD Toolbox
   \\    /   O peration     | Website:  https://openfoam.org
    \\  /    A nd           | Version:  7
     \\/     M anipulation  |
\*---------------------------------------------------------------------------*/
FoamFile
{
    version     2.0;
    format      ascii;
    class       volScalarField;
    location    "19";
    object      p;
}
// * * * * * * * * * * * * * * * * * * * * * * * * * * * * * * * * * * * * * //

dimensions      [0 2 -2 0 0 0 0];

internalField   nonuniform List<scalar> 
29540
(
0.0142418
0.178742
-0.0142759
-0.0546986
-0.00404291
-0.0581469
-0.0297667
0.0134015
0.00332523
0.00029048
0.00820283
-0.00772147
-0.000826273
-4.71468e-05
0.150745
-0.00971535
-0.000314745
0.0452004
-0.0035825
-0.0167368
-0.0014556
0.00312174
-0.0144548
-0.00353387
0.696992
0.177543
-0.000887609
0.585134
0.138167
-0.00277082
0.0258239
0.0803301
-0.0849615
-0.0109162
0.59293
-0.0120804
0.194684
-0.0426246
0.00936757
0.0090159
0.000701691
-0.0267356
-0.000282099
-0.0337921
4.74311e-05
-0.002488
-0.0067731
0.00011119
0.00545972
0.189467
-0.0467073
-0.0483979
0.0830856
-0.0562875
-0.00950831
0.132373
-0.00565533
-0.00149838
-0.00774451
-0.0284757
-0.000113718
-0.0034775
-0.04385
-0.0106673
0.312969
0.656609
-0.0128768
-0.0137232
0.625957
0.000734615
0.175759
0.487487
0.00374652
0.655044
-0.0125429
-0.0026885
0.115929
-0.0379666
-8.52529e-05
-0.0248265
-0.0520641
0.240916
0.0141844
-3.89023e-06
-0.0269631
-0.161874
0.347231
-0.000858246
-0.00079876
-0.0751473
-0.0357683
-0.03836
0.00502477
0.0761776
-0.077142
0.352937
-0.0461839
0.000762694
-0.0608256
0.189279
-8.99372e-05
-0.0358092
-0.000110067
0.0543009
-0.0494529
0.148977
0.416572
-0.000768254
-1.82409e-05
-0.0812587
-0.0842342
0.013482
4.1008e-06
-0.00255174
-0.00029457
0.475395
0.259549
-0.0182077
3.06446e-05
0.00437539
-0.139772
0.190872
-0.0468849
0.653418
0.0018058
-0.0213096
0.0513612
-0.0233564
0.00666336
8.49282e-06
-0.0314992
0.0996041
0.46836
-0.0693683
0.0538161
0.0250703
0.377941
-0.0364877
-0.139076
0.18014
-0.0137815
-0.0656272
-0.0657098
2.98507e-06
-3.94321e-06
-0.00413686
-0.00633279
-0.0665544
-0.108324
-0.0204236
0.0411909
0.0202517
0.000688129
-0.000240349
0.254476
0.0008166
-0.0123613
0.353424
0.307083
-0.0453109
-0.0500774
-0.0532285
0.14032
-8.94769e-05
-4.33996e-06
-0.0183259
-0.0638177
6.90853e-05
-6.22597e-06
-0.0111032
3.04817e-05
0.00930102
0.360608
-0.035872
-0.069561
-0.00807927
0.0034035
-0.0370013
-0.00207482
-0.0398115
-2.85371e-05
-0.00722443
0.343766
-0.0128508
-0.137809
0.253759
-0.0100544
-0.0277326
0.00625338
-0.00261507
-0.000479659
0.00308843
0.664452
0.250284
-0.0213332
-0.0118567
0.554787
0.224802
-0.0762525
0.00189036
-0.0518734
-0.0725904
-0.00741893
0.00136345
0.373769
-0.0107006
0.0112552
-0.06642
-0.0834152
-5.76004e-05
0.518491
-0.00172294
-7.30326e-06
-0.000923975
-0.0340012
-0.0238342
-0.00545438
0.0109671
-0.00350453
-0.0763879
2.56507e-05
0.000719435
-0.00377414
0.122551
-0.00459479
-0.00242668
0.0822898
0.000184228
4.416e-05
0.00861821
-0.0420322
-0.0328625
-0.00757512
0.173862
-0.0227128
0.0214693
-4.93317e-05
-0.00486464
0.00126996
-0.0482105
-0.118608
-0.00228132
0.000737858
-0.00254979
0.00459098
-0.0162863
-8.52021e-05
-0.157492
4.96968e-05
0.124537
-0.00546552
0.000214221
0.151403
-0.0729153
0.000397283
-1.8611e-06
-0.0657257
-0.113997
-0.0139797
-0.0255027
0.0409485
0.329132
0.000117054
-0.0402062
-0.0789507
0.569105
-0.0129137
0.249952
0.00307935
-0.000401317
0.792644
-0.000920246
-0.0725317
-0.0754808
0.00365523
-0.0184526
-0.0130597
0.473836
-0.00561721
-0.0274726
-0.000471763
0.256555
-0.00493192
0.36053
-0.000862571
-0.00928135
0.555456
0.106062
0.0821692
-0.0483406
-0.00026462
0.00446306
-0.000332301
-5.13925e-06
0.112849
5.64054e-05
-0.0297508
-0.0817127
0.705394
0.463625
-0.0648371
-0.02918
-0.0313883
0.0129823
0.00427861
-0.0281273
-0.0683935
0.337087
0.492421
-0.00212594
0.4095
0.109654
-0.0481685
0.018011
-0.00291009
-0.0151844
-0.00862263
-0.00433606
-0.000103237
-0.00303495
0.00941082
0.262645
0.00266713
-0.0409032
0.0209664
-6.44005e-05
-0.0665388
0.740595
-0.0101445
-0.00233323
0.0192457
-0.0234452
0.139609
-0.00246226
-5.97078e-05
3.68327e-06
-0.00437527
0.559154
0.0353283
-0.12066
-8.06606e-07
-0.120106
0.0825281
-0.00823772
-0.0712802
-0.00213614
-0.000751846
-0.0378121
0.00151097
-0.0404364
0.0173851
0.0860304
-0.000306689
0.00330343
0.189147
-0.136635
0.000675956
0.000719437
0.470231
-0.0358071
-0.00267448
0.235583
0.579584
-0.0575431
-0.0120134
-0.0159085
-0.00130327
-0.0135816
-0.00549466
0.219878
-6.11795e-05
0.0167224
-0.11107
0.474262
0.64516
-0.00976356
-0.0143192
0.324436
-0.0296947
-0.000100011
0.0325485
0.129459
0.131746
-0.0118855
0.0421215
0.577368
-0.120432
0.519953
0.481728
-1.4811e-05
0.0108355
-0.109366
-0.00483891
0.00271979
0.584869
0.0350261
0.000458629
-0.0518548
-0.07394
-0.00909975
-0.000222673
0.365749
0.254312
5.6512e-05
0.00689098
0.00912348
-0.109363
-0.0481528
8.17646e-05
-4.552e-06
0.000821808
0.146062
-0.042308
0.373593
-0.0723796
-0.0282699
-0.0330644
0.230539
-0.0328422
-0.00206308
0.0136317
0.00140643
0.52475
-0.039272
0.00183424
-0.0121644
-0.0102829
-0.00262312
-0.0196914
0.000381764
0.00039187
0.750749
-0.0131108
-0.00832099
-0.000802447
-0.00127268
0.311042
-0.113023
-0.0389833
7.41236e-06
-5.4265e-06
-0.0405384
-0.0110171
-0.00857752
0.0288587
0.0104797
-0.00469337
0.0238591
-0.0275053
0.510871
0.00733837
0.00040594
-0.0645015
-0.037249
9.35196e-05
-0.00567951
-0.038987
-2.71118e-05
0.627723
0.0328098
0.000124541
0.664573
-0.0401197
-2.88923e-05
0.00247111
-0.0661891
0.0150585
0.0693581
-3.1186e-06
-0.0130023
-0.0130752
-0.0088382
-0.00082837
-0.0134236
0.560748
-0.013695
-0.0190423
0.267389
-0.00473378
0.542657
-3.19199e-05
-0.0259468
-0.0685214
-0.0382928
-0.0932547
-0.00267069
0.00221064
-0.000307197
-0.030056
0.0103626
-6.06041e-05
1.00382e-05
-0.0103725
0.508963
0.0117604
0.00427664
-0.0768943
-1.76887e-07
0.00166958
-0.000100704
0.0152867
-0.0277327
-0.000690694
-0.0131637
-0.0199031
0.00176053
-3.37849e-05
-0.0782747
-0.000718317
0.0742349
0.436479
0.331222
-0.00732913
0.0103113
0.0433186
-0.00020636
-0.00598208
-3.81456e-06
0.486905
-0.0220914
0.0284675
-0.0267755
0.00264084
-0.00529404
-0.000200546
1.21431e-05
-0.00805778
0.0715274
0.312613
0.00213408
-0.0586104
-0.0388673
-0.0128756
-0.0165096
-0.00229174
0.00163392
-0.00926165
-0.000185674
-0.0678482
0.348322
0.237172
-0.03486
0.34185
0.000126287
6.23398e-06
0.0376775
-0.00977283
0.652345
-0.0625385
-0.0331236
-0.00183932
0.00202927
-0.00966966
0.00078325
-0.0170981
-0.0206624
-1.29284e-05
-0.00156531
0.469891
-0.000270016
0.606791
-2.66291e-06
-0.103086
0.0697106
0.029091
0.00180583
0.00030871
0.498001
0.0776408
-0.0700278
0.24589
-0.0111513
-0.0210404
-0.00686774
0.26846
-0.0398263
0.015914
-0.0126089
7.40541e-07
-0.00226758
0.0101107
-0.0278981
-0.034106
-0.0627857
-0.0281887
0.160208
-0.00368459
-0.0750946
-0.0217499
4.7718e-05
-0.0192059
0.0119384
0.162956
-0.041895
-7.85219e-06
-0.0288083
-0.00100222
0.00241754
-0.122705
0.372296
0.00155365
-0.0189546
-0.0465905
0.108523
0.549574
0.00313888
-0.00816833
0.27716
0.210318
-0.0244565
0.00852436
-0.0685544
-1.98398e-06
-0.0593185
0.000135768
-0.0458216
-5.45611e-05
3.67518e-05
-0.0106122
-0.042128
0.434819
0.0126969
0.019613
-8.45926e-07
-0.010486
0.000143213
-0.00551151
3.72634e-05
0.0743325
-0.000854112
0.233682
-0.00023994
-0.0202877
-0.0525849
-0.00719009
0.545374
-0.0258625
-0.0710521
-0.00945911
0.0727988
-0.0627945
0.0473128
-0.0304585
-3.23659e-06
-0.0089214
-0.00673304
0.000418032
0.000137188
0.264648
-0.00831522
0.118296
-0.00765662
0.00149489
0.0522424
0.000274275
-3.41852e-05
-0.0585712
-0.00596532
4.26844e-05
0.304653
0.713036
-0.000388393
-0.0507507
9.04216e-06
0.587216
-0.113258
-0.054271
5.53462e-05
0.0168509
0.0903558
0.105834
0.0677612
-0.000734544
-0.000285064
-0.0243591
1.12688e-06
3.54052e-06
-0.0404841
-0.0450234
-0.0616759
0.682654
0.000335719
-0.0480794
0.013275
-3.09971e-05
-0.00216373
3.7313e-05
-0.0102342
6.76062e-05
-0.028313
0.0457792
0.535571
0.0707024
-0.000508295
0.000780424
-0.113873
0.115802
-0.00531678
1.3467e-05
0.256293
-0.132688
-0.0606972
-0.0221748
-3.73729e-05
-0.00050318
-0.135802
-0.0337449
0.195149
0.508381
-0.0693889
-0.00221857
-2.99091e-05
-0.0631911
-0.0840567
-0.000373989
0.00392138
-0.02366
-0.00792339
0.492277
-0.00227575
-0.00219953
0.12864
-0.0127259
0.655497
0.652806
-5.97751e-05
-8.72825e-05
-0.0254984
0.026758
-0.049284
0.00915869
-0.0123234
-0.00102504
0.568223
0.227822
0.00392998
0.783057
6.99924e-06
0.147918
-0.0767661
-0.0473403
0.000147664
-0.0509893
0.1534
0.0256026
0.095603
-0.000806825
-0.000867604
-0.00863803
-0.00589738
-0.0214281
-0.00188028
0.162245
-0.00986465
-0.00884405
-0.0779296
0.461591
0.00754423
0.0513351
-0.000721654
-0.000917739
-0.0308962
0.00171049
-0.00444634
-3.56342e-05
-0.000640256
0.15393
0.500104
-0.000235327
0.202136
-1.47289e-05
-0.00569413
-2.64197e-05
0.00938796
-0.0859512
-7.48756e-05
-7.73679e-05
-0.0740636
1.89878e-06
0.0688153
-0.0370561
-7.93452e-05
0.228589
-6.06803e-06
-0.000717394
-0.000164214
-0.00850092
-0.000685676
-0.0102115
-0.0870796
-0.000611313
0.00737635
-3.46806e-05
0.426987
-0.00380104
0.00504535
-0.0464679
-0.0334328
-0.00199676
0.00506588
0.278319
-0.0385261
0.21858
-0.056146
-0.00588042
-4.66819e-06
-0.00955085
0.466248
0.252777
-0.0508083
-0.0688932
0.410163
-0.0136953
-0.0723376
-2.6125e-05
-0.0384735
-0.00146506
0.76186
-0.0650073
-0.000160344
-0.0741843
-0.0397182
0.321282
-0.00439301
-0.0411373
-0.0063989
-0.00991047
-0.00221611
0.320442
-0.116539
-0.0292158
-0.0232347
-0.0201097
0.00967949
0.402457
-0.0282296
0.247606
0.00471514
-0.095517
0.617561
-0.0139166
-0.000414003
0.319904
0.475027
-0.00706604
0.0100333
-0.0109422
-0.0459517
0.278832
-0.0633873
-4.07448e-05
-0.0119914
5.32683e-05
-0.0074464
-4.32263e-05
-0.00776444
-0.00167182
-0.00529418
-0.104258
-0.00105251
-0.000884901
-0.00192837
0.266763
-0.00350324
-0.00543378
-0.00502317
0.219448
0.00893224
-0.000654426
0.461567
0.643676
-0.0291877
0.568209
-0.0257616
0.434096
0.00921909
-0.020802
0.00433611
-0.000798391
2.34603e-05
0.00429133
-0.0180579
-0.0291096
0.241417
-0.033358
-0.0295324
-0.00156304
-0.100273
-0.035859
0.0109377
-6.39845e-06
0.0138411
0.0934358
0.477502
0.0153984
-0.0198458
0.18997
-0.000595791
0.0569264
-0.0262949
0.00101015
-0.0733214
0.00484259
0.435442
-0.0033687
-0.000904865
-0.000224644
-0.069214
-0.00208717
0.766711
0.791687
0.0192688
-6.11528e-05
0.0133587
-2.98339e-05
0.0825714
-0.000894236
0.0343051
0.700868
0.0080358
2.50892e-05
-0.0122424
-1.8747e-05
-0.116053
-0.04856
0.570367
0.00035297
0.0185478
0.00428259
0.00044159
-0.00357496
-0.000496691
-0.00906459
-0.0516545
-0.0328812
0.00980312
0.222654
-0.0193752
0.00987845
-0.0292173
-0.00285119
-0.0386888
1.55998e-05
6.33736e-05
-0.00338359
0.0426038
-0.0429374
-0.0233559
-0.00552518
0.00415007
-0.0320177
0.288248
-0.0185222
-5.05612e-06
-0.0701931
0.524112
-0.0659765
-0.0174396
0.0803484
-1.05436e-05
-0.00105699
-0.0399247
-4.92705e-05
-0.000698194
-3.05379e-05
0.78404
0.0134659
0.00546517
4.64935e-07
2.76505e-06
-1.62763e-05
-1.87124e-06
-0.0318995
0.476977
-0.0485345
-0.000735406
-0.000253566
-0.00794794
0.56754
-0.0685684
0.51646
0.0202145
0.183727
-0.000200637
0.561242
-0.00328783
-0.0134824
0.0081619
0.0114308
0.01323
0.241031
-0.055251
0.55359
0.361628
-0.0118525
-0.0396254
-0.00317628
-0.0404252
-7.37459e-06
-0.00139066
0.00402452
0.0956304
-0.00943206
-0.0320427
-0.00475275
0.678022
-0.0857991
-5.15944e-05
-4.3726e-05
0.577414
-0.0070885
0.00293342
-0.0185033
-0.00327322
-0.021368
-0.0137642
-0.0637664
0.0802117
0.0258734
-0.0141599
-0.0199402
0.000102335
-0.0081777
-0.00176639
-0.0111903
-4.18473e-05
6.82322e-05
-0.0262067
-0.0280095
0.547818
-0.034854
-0.00030327
-0.00217602
-0.000459414
0.458804
-0.0589299
-5.26015e-05
-0.0379335
-0.00637023
-0.00501637
-0.038201
-0.0436765
0.00941084
0.0758896
-0.0785638
8.57931e-05
0.0082802
-0.0183983
-1.56563e-05
-9.31947e-05
0.148973
0.110801
-0.0299444
-0.0633848
-0.0666734
0.00071278
0.599686
8.61629e-05
-0.0228846
0.492562
-0.0232227
-0.0488279
4.53476e-06
0.000195701
-0.0486987
-0.0128162
0.00189888
-0.0429971
0.294636
0.329527
0.000920614
0.000323588
0.260229
-0.0170273
-1.63358e-05
-0.00204639
-0.0372583
-0.0292875
-0.0140942
-0.00291937
0.211379
1.68954e-05
0.0985134
0.348025
3.86252e-05
0.0126281
-0.000623707
-0.0932529
-0.0182617
-0.00092525
0.0360403
0.000245629
0.28524
0.001884
0.0284711
0.011147
0.704912
0.456183
-0.0679219
-0.00937536
4.46441e-06
-0.062454
-0.0169296
0.188249
0.400061
-0.0428306
-0.0218273
-0.0200956
-0.00776217
0.1807
-0.00025663
0.559208
0.0308799
5.77918e-05
4.03465e-05
0.0001195
-0.0153026
-0.0209977
0.000858821
0.0375581
0.131941
-0.062826
0.00060583
7.70495e-05
-0.0272393
-5.1076e-05
-0.00338346
-0.0131676
-0.000856873
-0.0037994
0.00513843
-0.00161482
-0.00443441
-0.0184659
0.456747
0.469507
0.0444028
-1.3559e-05
-0.000651429
0.311448
-0.000545645
-0.116224
-0.000245598
-0.0227763
-0.0842997
-0.000255273
-0.000276802
-0.0370246
0.00157911
-9.04121e-05
-0.001541
0.24551
-0.0388456
-4.95642e-05
0.113517
0.434938
0.451007
0.000709185
-0.104122
-0.0105332
0.520747
-0.071469
-0.073164
-0.0105203
-0.0144676
0.0327006
-0.0284319
0.451191
0.0872303
-0.000213154
-0.058548
-0.0764184
-0.00430461
-1.96912e-06
-0.00205045
0.261912
-0.000232751
-0.00493908
-0.00450958
-0.00135429
0.0100983
0.0331596
-0.000220217
-0.00014784
-0.00817414
-0.0932286
-0.0393273
-0.0783971
0.301251
-0.00230576
-0.000324488
-0.04004
-0.026559
0.0108012
0.0150943
6.17002e-05
0.084096
0.173937
0.0213146
0.0274549
-0.000727038
-0.0147406
-0.0494793
0.00145632
-8.30786e-05
-0.0103361
-0.0044952
-0.000842588
-0.0124018
-0.000967244
0.281544
-0.0100017
-0.123282
-0.0262821
-0.0118287
0.0131482
0.584558
-0.0468067
-0.000150677
0.558047
0.198066
0.00863316
-0.00649802
0.00839108
-0.0310974
0.192937
0.000377481
-0.00337544
0.700057
0.359654
0.393049
-0.0482068
-0.00157724
-0.00138667
-4.91481e-05
-0.00146567
0.345865
0.0961331
-0.00893541
-0.00622002
-0.000422212
-0.0556595
0.661259
0.494524
0.0921226
-0.00315321
-0.0666433
-0.00550941
-0.00082472
-0.0239772
0.0138352
-0.0295306
-0.00391938
0.000976828
-0.0911848
-0.0933054
0.0340039
-0.0269288
-0.00515292
-0.0279479
-0.000233454
-0.00762277
-0.000784496
0.420612
4.46232e-05
2.29318e-06
-0.0316402
-0.0213714
-0.0308421
0.0435171
2.94002e-05
-0.088725
0.0707431
0.239555
0.751392
-0.00509042
-0.110502
0.0335234
-0.00231275
0.033777
-0.000680699
0.0114916
-0.000225555
0.301833
-0.110267
0.0117741
0.134997
0.138713
0.00159947
0.00303118
3.64167e-06
0.519674
-3.19658e-06
-0.0479847
0.00035939
0.00181947
0.215534
0.11833
-0.0779682
-0.0415002
-0.0044894
0.789756
-0.0784582
4.47717e-06
-0.0168206
-5.91056e-05
-0.0177347
0.120849
0.24202
0.00096731
-0.0373694
-0.0102222
0.179603
-0.034851
-0.0345446
0.683344
-0.0107391
6.84025e-05
-0.140611
0.709466
0.00193066
0.108873
-0.0465975
0.164141
0.00207208
0.0330264
-0.0783454
0.005805
0.0618483
-0.0309642
0.20762
-0.027996
-0.0209106
-0.000896592
-0.000901616
0.61421
-1.15845e-05
-0.00617829
-3.92413e-05
-0.0087762
0.000377546
-0.00789849
0.291453
-2.51085e-06
-0.00113726
0.00189606
-0.13077
-0.0259627
0.00123232
0.503966
-0.0574128
0.20844
-0.0128354
0.187895
0.00732226
-0.000838255
-0.103059
0.000833567
0.630117
-0.029304
-0.000141781
0.00247869
0.171916
-0.0121333
-0.000784907
-0.000154703
-0.0898683
-0.00285282
-0.0106193
-0.0768799
2.0966e-06
-0.0711297
0.000430999
0.436856
-0.0111031
0.180121
0.00482583
-0.00403228
0.328006
-0.0640693
-0.143562
-0.00474042
-0.0931053
0.339335
0.359378
-0.0151317
-2.77901e-05
-0.0166914
0.00506885
5.12556e-06
0.0447699
0.475618
0.0138393
0.001738
0.00803577
-0.0722784
-0.000194908
0.0871439
0.0526273
0.0806636
0.0145533
0.0304377
-0.000437769
0.215533
-0.107835
-0.134543
-0.00111673
0.0196742
0.172904
0.000873012
-0.0742318
0.267523
-0.0446965
-0.0752354
-0.0772736
-0.104399
-0.104141
0.0594465
0.271144
-0.106286
-7.07582e-06
0.000896716
-0.0558389
-0.00197662
0.00518225
-1.12275e-05
-0.00624848
0.00435361
-8.35373e-05
0.0653867
-0.000582306
0.14486
-0.0357268
-0.0071306
-0.00750111
-0.00929943
-0.0713192
-0.0063981
-0.00116064
0.0235672
0.0897828
0.00486382
-0.0352643
-0.00325302
0.0321388
-0.010273
-0.0207495
-0.0765453
-0.0171345
-4.50043e-05
-0.0164523
0.556145
2.79074e-05
0.0671596
-0.0555531
0.669566
0.0548
-0.0492938
-1.07332e-06
0.0018387
-0.0890534
-2.34105e-05
-0.00298541
-5.30012e-06
-0.0772001
0.00495434
-0.0863487
-0.0246999
-0.000147329
0.338818
0.327611
-0.0381012
0.000487273
-0.000201799
-7.44608e-06
-6.93792e-05
0.602254
-0.00147292
0.00250525
0.0241824
0.00103235
-0.000670016
-0.0777858
-0.000308876
0.050074
0.00180353
-0.00231755
-0.000836695
-0.0275705
-0.0439098
0.215713
0.0915001
-0.000190104
-0.0143251
0.000583789
-0.0812193
-0.000696288
0.153668
-0.0107785
0.787518
-0.0184102
-0.00162384
0.086113
-0.0205738
0.430881
-0.044567
-0.0123008
-0.0141361
0.0204225
-0.00400309
3.65555e-06
-0.00912604
0.37915
-0.0466202
-0.00360329
-0.0445078
-0.0291048
0.184015
-0.000578403
0.341693
-0.00419427
-0.0695981
-0.000604889
0.0146796
0.0511931
-0.00834409
0.409683
-0.000540253
0.0371896
0.102717
0.000517469
-0.000164007
0.653537
0.0678122
-0.0013172
0.0331449
0.0184785
0.000129545
-0.0840679
-0.0241726
-0.120338
-0.0115758
0.415569
0.00458506
0.1455
-0.000456259
0.494957
-0.0733796
-0.00588041
0.00688962
0.035274
-0.0720149
-0.119802
-0.00946042
4.555e-05
0.720351
-0.0244959
0.000889514
-0.0463484
-0.0424192
0.420154
0.00331171
-0.0178244
-6.68403e-05
0.0633461
0.00891517
-0.0411935
0.000883815
-0.00389443
-0.0303249
3.71923e-05
-0.0554674
-0.00176792
-0.0162613
-0.0681778
0.359035
-0.0113123
0.0130864
-0.0510378
-0.0347088
-4.76334e-05
0.000148552
-0.00423486
3.88051e-05
-0.0123845
-0.0726852
-0.00232972
-6.78068e-06
0.638407
0.00556702
0.000350734
-5.31648e-05
-0.00241035
0.402739
-0.056095
0.721709
0.229785
0.0248113
0.351262
-1.29366e-05
-0.0160709
-0.000967244
-0.00280177
0.241058
-0.0112273
0.723934
0.317621
-0.0606221
0.334503
0.00960095
-0.0157292
0.00248042
-0.0542935
-0.00447088
-0.0555183
-0.0596289
-0.00341294
0.328898
-0.0110354
0.000147431
-0.00484801
-0.000769978
-0.0371291
-0.000198652
-0.00144107
-3.28711e-05
0.19585
-0.120309
0.339733
0.0309909
-0.00311375
-0.0368811
-0.0222828
0.0855604
-0.00347272
-0.00122225
-0.0691178
-0.0491257
0.00911924
-0.0460675
-0.00507651
0.00605782
0.00225
2.93274e-05
0.165858
-5.47496e-05
0.0659473
-0.000934788
3.3249e-06
0.00221486
-0.000781972
-0.0014045
-0.0178039
0.203904
0.182511
-0.0222042
-0.0140827
0.00322754
-0.00579512
-0.0114205
-0.000105369
-0.000576719
0.000753792
0.13756
-0.00979892
-0.0613695
-0.0556981
-0.00270453
-0.0266888
-0.017337
-0.00196847
0.00592834
-0.0139
0.301075
-0.0740398
0.00624059
0.00156026
-0.0417539
0.708641
-0.0112138
-0.00617221
0.00870226
0.0969288
0.00448866
-0.00668047
0.3305
-0.000431661
0.0504144
-0.026472
-0.0612435
0.0071258
-0.00424287
-0.00625591
0.0472553
-0.00412028
-0.000731337
-0.00225721
0.00281067
-0.000282065
0.0322823
-0.010531
-0.0023396
-1.23441e-05
0.198199
-5.38838e-05
-0.0354249
0.0934761
-0.0274562
0.000135666
0.136158
-0.0470224
0.215152
-7.52142e-05
-0.00448846
0.0697475
0.000186439
0.0055347
-0.00513346
0.0117958
-0.0231004
-0.0354073
-0.0102372
-0.00306983
0.0111433
0.023567
-0.016089
-0.000223248
0.142247
-0.0436518
-0.00377139
-0.00785321
0.000439191
-0.0668835
7.77672e-05
0.561561
0.26152
-0.000574884
-0.0237525
6.6327e-05
-0.00248699
-0.00644348
-0.0197619
0.198152
0.154578
0.00835947
0.0114632
-0.0768529
0.0401211
0.014959
0.016704
-0.0548513
0.016381
0.257839
-0.0107278
0.478344
-0.00107056
-0.0122289
-0.0541945
-0.000118122
-0.000874737
-4.84784e-05
0.474661
-0.0115699
0.000282217
-0.0172924
-0.00618641
-0.000382295
-0.0146564
0.344199
0.00107384
0.0122602
-0.033573
-0.000577725
-0.00518589
-0.000929463
0.734079
0.000224318
2.78263e-05
-0.00223171
-0.0160764
0.034255
0.00058275
0.00958226
0.0905668
-0.000195199
0.00227223
-0.0761546
-0.014641
-0.052886
9.61585e-07
0.000360774
-0.0148651
0.0358453
0.388946
0.111242
-0.0372814
1.16882e-06
-0.0593515
-0.00297003
-0.0139007
-0.0134509
0.219692
0.537796
-0.000128331
0.182804
0.295504
-0.0107765
-0.0282674
-0.0259952
-0.0168832
0.000112939
-0.0430947
-0.00958607
-0.000154805
-0.000630837
-0.00178533
-0.00214556
-0.000772078
0.379244
0.40322
0.216606
-5.0776e-06
-0.0252544
-0.00745373
0.126751
0.568965
-0.000561211
-0.022128
-0.0200801
0.365517
-0.0208259
-0.01057
-0.01817
0.188054
0.000316007
-0.000576839
-0.0278423
-0.0485819
0.153067
0.0320624
-0.0457316
-0.0264605
0.00623479
0.0221662
-0.0526073
0.00775763
-0.0623396
0.130363
-0.000404764
-0.000715269
0.0978521
0.000216711
0.0157406
0.0357608
-1.3831e-05
0.322518
-0.011693
-0.00494044
0.753052
-0.0392754
-0.0113876
-0.0413098
-0.00302487
0.532753
0.00125871
0.710818
-0.000161762
-0.0268025
0.725938
0.00761554
0.52961
-0.00635679
-1.23548e-05
-0.0291717
0.540756
-0.00177365
-0.0073326
-0.00893645
-0.00113092
-0.0232068
0.543378
0.124208
2.2809e-06
0.0220369
-0.00415013
0.0333835
-0.00100483
0.0260084
-0.00292599
-0.000541818
0.514975
0.555938
0.520978
-0.0539583
-0.0478466
0.000148216
-0.0591325
0.349142
0.0167889
0.000250073
-0.0720786
0.00063964
-0.000123177
0.552324
0.000129641
0.00465539
-0.00215079
-0.0100247
0.526715
0.544092
0.560882
0.0131454
0.000511139
0.256869
0.00840612
0.0247972
-0.00997175
7.24816e-05
-0.00327441
-2.58288e-05
-0.00502391
-0.000840601
-0.0063678
-8.66491e-05
0.177537
0.00233643
-0.0761829
-0.0100665
-0.0726799
-0.017599
-0.000871109
0.427182
-0.0117349
-1.95319e-05
-3.68006e-05
0.699826
2.95091e-05
0.0126405
0.0609822
-0.0193431
0.365349
-0.00575979
-0.0452641
-0.0388814
-0.00058431
0.000130002
0.314296
0.556984
-0.00171961
-0.0240544
-0.000267383
0.550107
0.673455
-0.00160389
-0.00715165
0.0215336
0.00334093
-0.026134
6.01979e-05
0.0112322
-0.0397058
0.061482
0.428812
-0.001674
0.032034
0.0866363
0.00461471
-0.0463728
0.0314824
0.652791
0.213604
-0.055283
0.558207
-0.000664483
0.567838
-0.00817447
0.463049
0.0825712
-0.00556206
0.0366715
0.00266013
0.0196277
-0.0743934
-0.000750408
-0.0248231
0.459371
-0.0280631
0.0242943
-0.00164223
-0.0525755
0.204227
-0.00999752
-0.14273
0.000766294
-0.0039864
-0.0253819
-0.00238107
0.00216199
-0.00958343
-0.000561951
0.00267397
0.457705
0.00237035
-0.0170576
-0.0607364
-0.0306917
-0.0647575
-0.0860381
0.00460611
-2.83916e-06
-1.98274e-05
0.30764
-0.0609632
6.1967e-05
-0.0742232
0.207665
-0.0617212
-0.0160004
0.000120998
-0.00208945
-0.0477208
0.155351
-0.00956841
-0.000536855
-0.0476171
-0.020951
0.727974
0.126564
0.0747303
-0.0532173
-2.17647e-06
-0.00726793
0.07241
-0.000417946
1.92337e-05
0.192756
0.11021
0.000664262
-0.00095129
0.00761137
-0.0412875
0.011225
0.00867529
-0.0160232
5.47568e-05
0.32585
0.000624106
-0.000705535
-0.000266197
-0.000246068
-0.000177544
0.0914555
0.00100709
-0.00304182
-0.0101918
-0.00518018
0.0313178
-0.00580416
-0.0428454
-0.011054
0.500407
0.407392
-0.000543948
-0.00159811
0.106491
-0.000900093
-0.0225465
0.0496551
0.017885
-0.00105916
0.0224838
0.0440546
0.00138434
0.0880629
-0.000118909
0.00802664
-0.0234902
0.0149656
-0.0153035
0.0537863
7.40474e-05
-3.03359e-05
0.000281275
-5.77349e-05
-0.00168266
-0.0102254
-0.0134365
-0.0302264
0.042823
0.0400925
0.0098667
-0.0666563
0.0115252
0.00648188
0.0139904
5.98417e-05
0.543947
-0.00868143
-0.00347668
-0.0398241
0.737993
6.32294e-06
0.0354076
-4.54277e-06
-0.0525967
-0.00674693
-0.0226018
0.191835
-0.00420299
-5.20763e-05
0.151669
0.0789367
-0.00059994
0.0558142
-1.21938e-05
0.182204
0.00672483
-0.0289026
-0.00016108
0.268465
0.0306284
-0.0208759
3.52544e-05
0.188765
0.364901
-0.00119253
-4.49373e-05
-0.0366963
-0.00932425
0.00380322
0.0219815
0.570964
0.314754
0.00049241
0.393686
0.274633
-0.00297076
-0.0551921
-0.0378322
-0.0166402
-0.0571932
0.0776467
0.000841786
0.595244
0.159006
0.013063
8.72764e-05
0.000648196
8.98148e-06
-0.000598986
-0.00289585
0.641614
3.21616e-06
0.085583
0.0287005
-0.000245085
0.592287
0.674537
0.219465
0.260126
-0.0800284
0.00255885
-0.000307226
-0.0112457
-1.34173e-05
-0.00114985
-0.127201
-3.58673e-05
-0.00197155
0.607489
-0.0117967
-2.092e-05
0.633062
0.000465813
-0.0351765
-0.0687124
-0.0013681
-0.0820937
-0.000248983
0.123599
0.00343461
-0.0177212
0.00199141
-0.000689142
-0.000413586
-0.000236921
-0.125225
-0.0594464
0.169758
0.00285212
-0.00745727
0.258613
7.21698e-05
0.707294
-0.0005746
-0.0816366
0.00230602
0.00167378
0.0539609
0.056622
-2.12045e-06
-0.00423249
0.000102815
-0.000700916
0.000854995
0.0892924
0.0515784
0.372047
-0.0466172
-0.00010599
0.000166351
0.105795
0.404885
-0.00453622
-0.00637779
0.706117
-0.00284454
-0.0205477
0.000846733
0.0553109
-0.0460437
-0.00861091
0.173838
0.00135085
-0.000264353
0.00169026
-0.0504124
0.696457
0.542379
-0.023953
-0.0398595
-0.00650704
0.00159487
2.35942e-05
0.0798328
0.213741
1.84974e-06
-0.00735808
-1.95621e-05
0.000128716
0.508698
-2.66179e-07
-0.0771626
-0.0591494
-0.0946386
0.0732694
2.84207e-06
0.0101555
-0.00621376
0.46677
-0.0125509
0.00509983
-0.030071
0.000632926
0.407586
0.233585
0.0109081
0.0510584
0.615381
-0.0626966
-0.0578326
-0.00194979
-0.00707469
-0.000401769
0.0207941
-7.75028e-05
0.18243
0.00295226
0.20056
-0.0345536
-1.39671e-06
0.0562694
-0.000177549
-7.47857e-06
-0.000781602
0.689183
0.660248
0.348582
5.62886e-05
0.163039
0.566796
-0.000999543
0.00136528
-0.00848711
0.059319
0.545253
-0.0272367
0.130647
-0.00259177
-0.0625985
-0.0701799
0.764314
-0.000617451
0.540604
0.0929967
0.211102
0.00010351
0.00020722
0.00545063
-0.00897714
0.086471
-5.86411e-05
6.40047e-05
0.530184
-0.101462
0.00028542
0.557069
-0.00235079
0.000147559
0.442395
-0.0071204
-0.00157365
-0.0657232
0.126786
0.000313923
-0.000139016
0.00345935
-0.0040865
0.525736
0.685191
0.311154
0.744643
0.0556136
-0.0449284
0.621803
-8.46782e-05
-0.00326485
0.0858707
-0.00348197
-0.000667764
-0.0001043
0.555191
0.0156379
-0.000664553
0.665827
0.0790276
0.232004
0.0446164
-0.00274925
-0.020474
0.14999
0.0732823
0.553951
-0.0241859
-0.000799697
0.505872
0.462713
0.0131231
0.382279
-0.0385739
-0.00779758
-0.00938459
-0.000653031
-0.000145876
0.512092
-0.0605575
-0.0167982
0.000809936
0.167081
-0.0308121
-0.0190069
-0.00101711
-0.0039178
0.576927
-0.000815702
-0.0172441
-0.00301935
0.567885
-0.0192006
0.0202442
-0.00747556
0.00138897
0.163831
-0.0216325
0.590641
0.0369615
0.742321
0.278806
-0.0578139
0.0317083
-0.00180171
0.00247523
-0.086891
0.534065
0.57235
0.644697
0.350601
0.517993
-0.000384825
0.608176
-3.34679e-05
6.56401e-05
-0.0462756
0.660926
0.051553
0.260357
-1.11613e-05
-0.00218108
-0.101712
-0.0351337
0.524304
-0.000692651
-0.00765243
0.347556
0.00102923
-0.00425107
0.718486
0.0479426
-0.0421949
-0.165205
-0.000552791
0.0238637
0.013115
0.752252
0.0175139
0.00862889
0.00419965
-0.000242787
-0.00955268
0.20491
0.00536802
0.000125903
-0.101354
0.265754
-0.00149201
0.541801
-0.0699953
0.548312
-0.0298661
-0.0223866
0.618132
-0.00531096
-0.0134644
-0.000416156
-0.00132908
-0.0610852
-0.0219459
-0.035128
-0.00963258
-0.00181103
-0.104661
-0.0671244
0.54615
0.000248455
0.000741172
-0.0200281
0.11894
-0.107119
-0.0561941
6.10077e-07
-0.106686
0.0465268
-0.000109986
-0.0796644
-0.135835
0.553177
-0.0957298
0.540034
-0.0134242
0.0956767
0.271642
-0.0336391
0.328369
-0.00178008
0.0774309
0.00072906
0.0865873
0.203386
0.182665
-0.0274588
0.00601675
-0.000684071
0.18756
-8.49406e-05
-0.000134232
-0.00104456
-0.0101955
0.0148464
0.0146527
0.454429
0.149775
0.698595
0.417604
-0.00152837
-0.0313936
-0.000174419
-0.0459332
-0.00124478
0.00566834
0.000618087
-0.0323114
0.363941
0.539515
-0.000295133
2.07598e-05
-0.000553151
-1.51777e-05
-0.00894198
-0.000188134
0.125154
-0.0339286
0.19631
-0.0849985
3.36502e-05
-0.013457
-0.0377012
-0.0247916
-0.0158165
-0.0495955
0.0372385
-0.000166565
-3.59547e-05
0.00201781
-0.00014366
0.0685277
0.0207344
0.0379057
0.646651
0.0435071
-0.119252
-0.0799923
-0.000443611
0.0504347
-0.000128869
0.506551
0.098868
0.601151
0.000130339
-0.0311069
-0.00661721
0.0473804
0.136423
0.458985
-0.00735056
0.0267892
-0.00189351
-0.0185919
-0.00775831
-0.00592191
0.10656
0.00152804
-0.00832514
-0.0194396
0.220622
0.0561889
3.16969e-06
-0.00087969
-0.00602391
-0.000604322
0.10403
-0.00066368
-0.0306447
0.137702
7.30834e-05
0.264129
8.25314e-05
-3.18072e-06
-0.0846085
-0.0189752
0.000154332
-0.0215243
0.000151143
0.629713
0.0120508
-0.0231286
0.581852
0.127255
-0.0297701
0.446325
-0.0026972
-0.00183477
-0.0020415
0.078414
0.79172
-0.0014716
-0.000607297
-4.41313e-06
0.00757525
-0.00123333
0.0247221
0.00592623
-0.0199605
-0.0553065
0.0178171
0.0101205
-0.0179204
-0.000537556
-0.0412389
0.437436
-0.0017746
-0.0131858
-0.00023321
0.456864
0.0510254
0.432212
0.000409246
-0.00084199
-0.0227068
0.648226
0.145458
-0.0268394
-0.000133613
0.0302621
0.0664129
-0.0278046
0.200142
-0.0445998
0.0183759
-0.122853
0.459368
-0.0158183
0.256011
-0.00308322
0.749933
-0.0387012
-0.0105521
0.589237
-0.0402825
0.16572
-0.131315
0.186679
0.00621067
0.0478318
0.345632
0.0482279
-0.0449649
-0.00929169
-0.00731588
-0.0149115
-0.0159434
-0.00149499
-0.0530528
-0.0267808
0.00187048
-0.0609985
-0.0754605
-3.94768e-05
0.0624324
-0.00874932
0.0474362
0.596015
0.397121
-0.0498819
-0.0655619
0.000427196
-0.0746149
-0.00428517
0.72485
-0.0331669
-0.0285919
0.391717
0.0464061
-0.0376182
0.20497
-0.0346245
-0.000645451
-0.0112117
0.00965219
0.000616443
0.415185
-0.00263516
0.141531
0.34007
-0.00551414
0.248431
-0.0956
-0.000371354
0.00641163
0.058106
0.364169
-0.00246124
0.0715002
-0.0648485
0.0599988
-0.0218111
0.403542
-0.00221318
-0.0797298
-0.00312244
0.000171602
0.537096
-0.00238497
-0.0309455
-0.000110928
0.2144
-6.51453e-05
-0.0447126
-0.00287047
-0.144786
0.000611324
-0.00985844
0.165054
-0.00378667
0.000883543
0.000590393
-0.00398896
0.0273902
-8.17555e-05
-2.57058e-05
-0.00816643
-0.0101088
-0.0217002
0.00783444
-0.00186549
0.0719257
0.0773127