/*--------------------------------*- C++ -*----------------------------------*\
  =========                 |
  \\      /  F ield         | OpenFOAM: The Open Source CFD Toolbox
   \\    /   O peration     | Website:  https://openfoam.org
    \\  /    A nd           | Version:  7
     \\/     M anipulation  |
\*---------------------------------------------------------------------------*/
FoamFile
{
    version     2.0;
    format      ascii;
    class       volScalarField;
    location    "38.5";
    object      p;
}
// * * * * * * * * * * * * * * * * * * * * * * * * * * * * * * * * * * * * * //

dimensions      [0 2 -2 0 0 0 0];

internalField   nonuniform List<scalar> 
7807
(
0.20401
-0.0257611
0.316567
0.192994
-0.000593589
-9.51706e-07
0.312016
-0.00308669
-6.54495e-05
0.0717454
-8.62892e-07
0.000990746
-0.00472449
0.0314802
0.0752433
-0.0117788
0.215956
-0.00639263
-0.00192148
-0.0806108
0.0424079
0.000573945
0.0216027
0.149299
-0.00833764
0.212634
-0.000557374
0.0405792
0.123559
-0.00118687
-0.0138057
0.43542
0.0209787
-0.000239608
-1.01827e-05
0.0570439
-0.00109718
0.302051
-0.0048523
-8.66124e-05
-0.00475957
-0.010968
-0.0950579
-0.0905166
-3.22518e-05
-6.80365e-06
0.000550888
-0.00490142
-1.00712e-05
-0.0807956
0.00172703
0.0381328
-0.0104384
-0.0147428
0.0562579
-0.00306561
-0.00177607
-0.00292071
-0.0200501
-0.000227395
-1.05419e-06
0.00238732
0.031829
0.00114754
-0.000309392
-0.0140677
-5.58702e-05
-9.42451e-07
0.0369678
-0.0046393
-5.82771e-06
-0.0520411
-0.00811462
-0.0138807
-0.00623255
-0.028565
0.31281
0.04159
0.0226786
-0.046148
-0.00458351
0.265876
0.0662389
-0.0163132
-0.00128611
-0.00100447
-0.00353567
-0.0102296
-0.000535446
-0.00206054
0.126447
-0.103505
-2.66318e-05
-0.0011803
-0.00189378
-0.0123448
-0.0494132
-0.0125045
-0.00132814
-0.000407575
-0.0252524
0.0299633
-0.00181983
9.39288e-07
-0.0943457
0.129566
0.366778
-0.00319631
1.51253e-07
0.0157633
0.180299
-0.0680957
-2.17273e-07
0.0169912
0.129965
6.18539e-05
-0.0947187
0.101017
-0.0380617
-0.0152261
-0.0236517
0.252687
-0.0905487
0.00531707
-0.0228775
-0.000733344
-0.0119435
-0.000933847
-0.000328897
-0.0139655
-0.159641
0.0243806
-0.000329211
-0.00059432
-0.0167336
0.173547
0.30697
1.12824e-06
0.00477408
-0.0329446
-0.0126822
-0.0525412
-0.0301839
-0.0133353
0.3656
-0.0317669
0.124225
-0.0219282
-0.0158942
0.252374
0.0540832
-0.0909119
-0.00123024
0.0166676
0.0660266
0.280397
-0.034462
-0.00446193
0.376637
-8.47701e-06
-0.00176143
0.154799
-3.28189e-06
-0.00248923
-0.00210719
0.195282
0.195815
0.39308
-0.00255899
-0.00148834
-9.57911e-07
-0.018977
6.21294e-05
-0.0195153
0.00530188
-0.0158407
-0.0716186
0.0989502
-3.28102e-05
-0.000320147
0.197835
-4.36923e-06
-1.07758e-05
0.316415
-0.0309191
-0.0533689
-0.0364175
-0.0142418
-0.0340079
-0.034114
-2.89079e-06
-0.0472793
0.104207
-0.00195191
2.73197e-06
0.143907
-0.000551078
-0.0131778
-0.0311415
-5.55442e-07
6.25974e-05
0.178537
0.132908
0.278511
-0.0882777
-0.0639592
-0.155754
0.0448799
0.176016
-3.60075e-05
-8.63147e-07
0.342438
-0.00999642
-0.000317373
-0.0457471
-0.0125655
0.253999
0.258839
-0.0571192
0.423569
-0.000514934
-0.0060652
-0.0254527
0.0544886
-0.118747
0.173912
0.371874
-6.91324e-06
0.00589648
0.108793
-0.00410652
0.0983565
-0.000517952
0.425403
0.273026
-0.00332268
-0.000284676
-7.85954e-05
0.0935156
-6.61762e-06
-0.00758017
-0.0365031
-1.00549e-05
-0.00138866
-0.000453996
0.111785
-4.78148e-06
-0.00212426
-0.0456731
0.431059
0.0170993
0.398064
-7.94814e-07
-0.0328092
-0.000116919
0.294287
0.00223402
0.307889
-0.00187043
-5.17772e-05
-0.0136001
0.0473793
0.000154935
-5.23876e-05
0.000112236
-0.00437378
-0.0566758
-9.0427e-07
-0.033214
-0.00201298
-2.9966e-05
-0.000355743
0.301764
-0.0040355
-0.000235799
0.388794
-0.00141005
0.195541
-0.000117271
-0.00835928
-7.2147e-07
-0.0318919
0.0519405
-0.0636523
-0.0210816
-0.000280956
-0.0670307
-0.00834913
-2.2731e-05
0.000106358
-0.00216064
-0.0042937
0.00152277
-0.00108798
-0.015742
-0.051931
-0.0145537
-0.0771826
-0.0182204
0.275771
0.288124
-0.000808871
-0.0979985
6.22537e-07
-0.00258903
-0.0119861
0.145144
0.0758926
6.05069e-06
-0.00241173
-0.0177835
0.120641
-0.00072992
0.00195885
0.000418535
0.006704
-0.173715
0.268232
-0.000707063
-0.0304216
-3.15742e-05
0.00115445
-5.56294e-06
-0.0193581
-9.45977e-05
-0.00510243
-0.130264
-0.0287655
-0.00696138
0.00526736
-0.000224743
0.0105151
-0.0123839
0.0426836
0.115066
-0.200545
-0.0967152
-0.00849059
0.00276826
-0.0367345
0.399792
-0.0845854
0.0238748
0.415805
-0.00069197
-0.00101166
-0.0999982
-0.00106026
-0.0286168
0.00401901
-0.00132963
-0.000921579
0.115669
-4.49569e-05
0.000143763
2.26604e-06
-0.00163047
-0.00746549
4.59384e-07
-0.000438475
-0.0192419
0.348582
-0.00710858
-0.00953861
0.34723
0.224073
0.033696
-0.0850169
-0.0188548
0.0025444
0.189109
-0.0062034
0.228347
-0.0383543
-0.111767
0.135745
0.231054
-0.0293646
0.0698236
0.171823
0.206059
0.0431896
-0.00187408
-0.00283438
-1.49606e-05
-0.00997563
-0.0062646
3.59503e-05
-1.82127e-05
-0.000873311
-0.064923
0.0422461
-0.0112237
-0.00603189
-0.00203094
-0.0312038
-0.00412262
-0.000773636
0.144593
-0.000841716
-1.04823e-05
-4.94542e-05
-1.01807e-05
-0.0139184
0.111832
-0.00217596
0.0223986
-0.132339
0.293747
0.000415768
0.00398504
-0.00342228
0.291019
-0.00039629
0.265049
0.127285
-1.88943e-05
-0.0401292
-0.00163407
-0.0517257
0.000155797
0.0418513
-0.00296942
0.0036109
-0.000328633
0.0988517
0.12369
-0.0597667
-0.0208959
-0.002319
-0.0306186
0.015387
0.426796
-0.0900956
0.00128877
-7.08548e-08
-0.00880372
-0.0010831
0.00894347
-0.102574
-0.109144
0.311759
0.109792
-0.143649
0.1528
0.282005
0.0244171
0.000187651
0.199533
-0.000949682
-8.0128e-05
-0.00826326
6.14306e-06
-0.17114
-0.00669598
-0.0292097
0.000737659
0.148581
-0.000850431
-8.51606e-06
-0.116793
0.000664132
-0.00725202
-0.0250725
-0.0280515
-0.0624153
0.110146
0.0884007
0.0912524
-5.08368e-05
0.0333827
0.0491183
-0.000346998
-0.0109901
0.000177257
-0.00319453
-0.0138591
0.00275688
-0.000655248
0.0877578
-4.17569e-06
2.88122e-05
0.000871277
-0.0124617
0.0144355
-0.0257812
-0.0152534
-0.0509134
-0.139244
-0.00939869
0.19286
-0.114824
-0.00421898
0.425469
-0.0499014
-0.00782807
-0.0152791
-0.0108623
-0.0110125
-0.00674815
0.0201099
-0.0918672
-1.02087e-05
0.0171351
-1.55101e-05
0.274457
0.0462322
-0.00302144
-0.00708347
-4.50217e-05
0.266281
0.251564
0.0159287
0.0951631
-0.0552657
0.312421
-3.94196e-05
-0.0015976
-0.00884471
0.105077
0.38259
0.00224093
0.105077
-0.00524917
-5.76447e-05
0.0819642
-0.137343
0.279398
-0.0042574
0.165145
-0.00442822
0.296541
0.237808
-0.00577449
-0.00496878
0.0592393
-0.0287839
-4.98351e-05
-0.00857005
-0.0329656
-0.066162
0.00791212
0.00559758
-7.1206e-05
0.255262
-0.00410009
-2.73333e-05
-0.0479376
-0.000265137
-6.20254e-05
-0.00119476
0.164683
-0.101992
0.359727
2.18001e-06
0.163163
-0.0379961
-5.58114e-05
-1.07585e-06
0.121608
0.157872
-0.00272435
0.140665
-1.53885e-06
0.149707
-0.191148
-0.00599245
0.293332
-0.0429661
0.0874058
-0.0138981
0.147833
0.155104
-0.0115221
-0.0146054
-0.00686675
-0.00150391
-8.92847e-05
-0.00392554
0.213799
-8.07522e-06
0.143323
-0.103628
0.245249
0.134924
-0.0322575
0.359253
-0.000991083
-0.00745492
-0.0740708
-0.0113516
-0.00432904
-0.0405121
0.00906968
0.402911
-4.12124e-07
-0.00115678
-0.063433
-8.36232e-07
0.282036
0.000693225
-1.31301e-06
2.3934e-05
9.06686e-05
-0.01788
0.00852111
-0.000867113
-8.33197e-06
-0.00449418
-0.00234436
-0.107925
-0.0259151
0.0152647
9.75735e-07
-0.181654
-0.00789325
0.0662215
0.2375
-0.000175498
0.0744839
1.44446e-05
-0.00762158
0.0639386
-0.00456894
0.179259
-0.00889889
0.000847063
0.0666128
0.106909
-0.00165293
-0.00651853
0.129307
-0.0777804
0.301338
-0.0063056
0.206329
-0.00596577
-0.000552686
0.0990328
-0.0124183
0.0597178
0.000737571
-1.15026e-06
-0.124903
0.138876
8.19186e-05
0.062693
-0.00843409
-0.179903
-0.0231138
-0.0270305
-0.00096224
-0.00430823
-0.0616072
-0.016916
-0.006166
-0.000138411
0.320927
0.0704296
0.0216476
-7.55049e-05
0.235276
-3.76125e-06
-6.72576e-05
0.0807209
-0.00901405
0.114315
0.0395358
0.00982778
-0.0785993
-0.143378
-0.0639984
0.000445805
-0.025008
-1.26188e-05
-0.000490623
0.172493
-0.011036
-0.00165844
-0.0256544
-0.00110943
-0.000407837
0.386035
-0.00669136
-0.0003549
9.63991e-07
0.0991728
-0.026314
-0.000228366
-0.00141343
0.116709
0.0504625
-0.0275169
-2.3339e-06
0.130811
-0.0152635
0.139519
0.0122068
0.0157347
-0.0187433
-2.54971e-05
0.0648205
0.0425977
-0.0281297
-0.0979415
0.213162
0.00355224
0.124624
-0.00654719
-0.0446436
-0.000137582
-0.00809036
-0.000119438
0.115583
0.189764
-0.000926137
0.0114296
-0.0103708
-0.0839113
-0.0902128
-0.000959575
-0.002686
0.374522
-0.0445513
-4.44632e-05
0.0506179
-0.00504536
0.321209
-0.00795603
-0.0182666
-0.0192762
-0.0202143
-0.0126501
-0.00479383
-0.00702465
-0.000638393
0.00237293
6.94544e-06
-0.186254
-0.0641042
0.271249
-0.026639
0.120326
0.000850697
-0.0770695
-0.0259197
0.153766
-0.0048871
-6.30815e-06
-0.0155325
-0.00623922
0.000531575
-0.0153808
-0.0150453
-0.0622946
-0.00799657
-0.0223864
-0.0733635
-9.58361e-07
0.0149736
-0.0632124
0.0970433
-0.0885191
0.0596004
-0.0964761
0.244925
-0.0160384
-0.0190842
-0.0339211
0.335604
-0.156085
-0.00816653
-0.126144
-0.055944
-0.120215
-0.0767129
0.121072
-0.0017442
0.184254
0.00557383
-0.000254631
-0.00118341
0.0423804
0.42186
-0.00107939
-0.0404427
0.122968
-1.0806e-06
-0.0140805
0.0198989
-0.0340092
0.00568672
-0.00132588
-0.0340447
-0.00447106
-1.59222e-06
-0.0414599
0.190187
-0.0131948
-0.00995469
0.000784008
0.122669
-0.000284338
-0.000644344
-0.00012971
-0.000908835
-0.0105987
-0.0177643
-0.00457686
-0.0117563
-3.64393e-06
-0.13863
-0.126623
-0.157717
-0.0243876
0.00902707
-6.48445e-05
-0.0112153
-0.0460695
-0.0269257
0.246056
-0.00150072
-0.0381499
-0.00322496
-0.0124532
0.0992907
0.000105683
-8.44478e-05
0.0670285
-0.0384777
0.00646517
-0.00188515
-0.000933121
-0.0452184
-0.000127782
-0.0161905
-0.00647432
0.209983
0.189199
-0.0691499
-0.0628955
0.00431884
-0.00744337
-0.0488484
-0.0728334
-0.030975
-9.60916e-07
-0.0499255
-0.0130132
-0.0796098
-0.0102789
-0.0251362
-0.000180231
-0.0017409
0.136792
-0.0182074
4.75903e-08
-0.0013396
-0.144631
-3.6514e-05
-0.0370932
-3.48987e-05
-0.00164517
-0.104782
-0.0666697
-2.95104e-05
-1.08856e-06
0.0843828
-0.05711
0.26656
0.197458
-0.0504091
-0.000787395
-0.0264201
3.26253e-05
-0.15492
-0.112751
-0.0662909
-0.0103837
0.189378
-0.00260924
-2.82816e-06
-0.00524849
-0.151969
0.000815297
-0.0441982
-0.0452783
-0.00991975
0.00960586
0.0427698
-0.0045335
-0.017696
-0.100767
0.129368
-0.0518943
-3.79997e-09
-0.130002
-0.0366465
-0.0611369
-0.0031534
0.000220422
-0.00690169
-0.111758
0.015285
-0.0145199
0.0757927
-0.0709076
-0.0015518
0.00747702
-0.00762388
-0.0158063
-0.163973
-0.000107436
0.0981384
0.143486
0.0032289
0.143328
-0.0895861
0.0246633
-0.0581574
0.137078
0.0633976
0.403835
-7.83665e-07
0.0580106
0.118498
0.00712289
-0.000605035
-0.00704505
-0.0642526
-4.73379e-06
-0.00911865
-0.0557713
-0.00746155
-0.0107117
1.16166e-05
-0.137658
-0.000225791
-0.00021652
0.165803
-0.000519905
0.00913765
0.00716611
0.141977
-0.000881128
-0.000351993
-0.145835
-0.0002622
0.255652
0.000310054
-0.056557
-0.00018592
-0.000169536
-0.00309376
-0.0813265
-1.23219e-05
-0.0037902
0.0110755
-0.00050377
-1.83418e-06
-3.4144e-05
0.10125
-0.0744465
0.000909096
-0.000303124
0.00154188
0.00742856
0.000826553
-0.000196287
0.263372
-0.133139
0.15163
0.222661
-3.62111e-05
0.000228928
0.0623823
-0.0002892
-0.000129928
-0.000422511
-0.0487934
-0.00519856
-0.023516
-0.0279846
-0.0618761
0.113862
-0.130599
-9.17755e-07
-0.0101918
-0.0149721
-0.0153693
-0.00155915
0.000719389
0.000289511
0.0134737
-0.000122853
-0.000205181
-0.0105496
-0.0019844
-0.0131297
3.23741e-07
-0.00770968
0.0164251
-0.0587864
-0.0612855
-0.00404024
-0.0056235
-0.00398754
-0.00219426
-0.00974511
-0.00380726
-2.65242e-05
-0.000250121
0.00840387
-0.00547302
-0.00223974
0.00193751
-0.00427636
-0.150725
-0.00569167
0.103895
-0.00526403
-0.0383838
-0.0222672
-0.0122184
-0.00755871
-0.00152432
3.88721e-05
-0.001539
-0.00574863
-0.00728834
0.129603
0.0937101
0.0184699
0.238002
-8.1888e-06
-0.00319622
-0.00689206
-0.00408862
0.0408365
-0.00995439
0.0131177
-0.00390229
0.142717
-0.00095778
-0.000893489
-0.0098383
-0.0283524
-9.24782e-05
-0.0247412
-0.00242158
-0.00965788
-3.25986e-06
-0.00265447
0.000486829
-0.00937237
0.00702332
0.0201045
0.00956244
-0.00690033
-0.0165628
0.0746876
-0.000804195
-0.000745895
-0.000736994
0.349118
-9.19089e-05
0.03459
-0.00921889
-0.0107207
-0.0110983
-0.0371877
-0.0129826
-0.0175684
-0.0111169
-0.0022449
-2.30744e-05
-0.00170516
-0.0092822
0.0620337
0.000445049
0.0915051
-0.0171383
-0.00701994
-0.000240624
-0.0155174
-2.06793e-05
0.0974336
-0.016163
-0.0137353
-0.012827
-0.00409917
-0.0231843
-0.00049973
-0.020615
0.064578
-0.0127435
-0.0792893
-0.000463241
-0.013157
-0.00990474
0.00735315
-0.00152165
0.0934966
-0.000829661
-0.00765395
-0.000355809
0.106451
-0.0200447
-0.0122514
-0.00115648
-0.00511519
-0.00131251
0.125841
-0.0269587
0.136709
-0.00400021
-0.000474141
-0.000401655
-0.00112501
0.112617
-0.036267
-0.00362305
4.24003e-05
-0.0112449
-0.0272372
-0.00068982
-0.0237666
-0.0081678
0.0340905
-0.00210303
-0.00502816
0.320408
-0.0339986
-0.0110564
-0.0327005
-1.60458e-06
0.0464785
-0.00145371
-0.01161
-0.00285986
-0.017986
-0.000459181
-0.00022343
-0.00106312
0.0010669
0.135517
-0.00222335
-0.000743665
-0.00214137
-0.0429585
-0.00381264
-0.00926391
0.000362976
-0.00368714
-0.00336771
-0.00145606
0.138006
-0.0236429
0.000967719
-0.00153244
-0.0124823
-0.0055095
-0.0244944
-0.00080367
0.0565245
0.0103322
-0.00389459
-0.000879936
-0.00744998
0.367617
0.136678
-0.0053021
-0.000149673
-0.00108464
-0.0140589
-0.00196541
0.00952096
-0.000204443
-0.0236437
-0.000695926
-0.0070722
-0.13914
-0.000714661
-0.0130855
-0.000473984
0.223778
-0.00392066
-0.00508528
-0.0705611
-0.000561861
-0.0129687
0.00292455
0.32182
-0.00541479
-0.00606499
-0.000665237
-0.000304136
-3.85896e-06
-3.52089e-07
-0.00506894
-0.000273777
0.0567092
-0.000422273
-0.000706493
0.00223821
-6.05677e-05
-0.0231163
-0.0687415
0.00847321
0.0225333
0.0139808
-0.0110273
-0.0657163
0.0558026
0.0427755
0.0607173
0.0795149
-0.00551533
-0.000353569
-0.00520529
-0.0769068
-0.0013255
-0.00709433
-0.0253752
0.244667
-0.0596899
-0.000141972
-2.62414e-05
-0.000420171
-2.29495e-06
-0.00155577
-0.000317807
-0.00429476
-0.0240337
8.91682e-05
0.000608464
-6.12514e-05
0.0260961
-0.00671459
-0.0764072
-0.000866625
0.224749
0.203149
-0.00546056
-0.103772
-0.0135326
-0.0102189
-0.00731381
-0.000843561
-0.0898969
-0.0459574
-0.0293053
-0.122746
-4.65038e-05
0.126776
-0.0328436
-0.00393081
-0.0439568
0.00827997
-0.00019612
-0.00437575
-0.000440645
-0.000638196
-0.00125606
0.1059
4.47073e-05
0.00432988
-9.54803e-05
-0.142339
0.00347565
-0.000716894
-0.0153212
1.21986e-05
-0.033713
0.0697957
-0.00566787
-0.000552096
-2.87094e-05
-0.000219999
-0.000166231
-0.0310365
0.0811154
-0.0393607
-5.23652e-05
-0.00018651
-0.000201929
0.156222
-0.0332106
0.177085
-0.0227798
-0.000116146
-0.000177227
-0.00389234
-0.00234396
-0.000386959
5.17761e-08
0.0109109
0.0141264
-5.35829e-05
-0.000237354
-0.0093221
4.22586e-07
0.112429
-0.000442833
-0.0268831
-0.00964247
-0.00256014
-0.0295486
-0.0381904
0.100577
-0.0394493
-0.00889163
-7.41898e-05
-0.0276424
-0.00872557
-0.0410714
0.0432376
0.251823
-0.00034233
-0.0306737
-0.00226805
0.222847
0.0205151
-2.20092e-05
-0.00307898
-0.00162678
-0.00241808
-0.0161945
0.0492224
-3.17642e-05
-0.0041847
-0.000198127
0.0340842
-0.000157794
-7.82852e-05
-0.131139
0.200698
-0.0274162
0.092276
-0.00118829
-5.41798e-05
7.10289e-09
-0.120326
-0.0141407
-0.000180914
0.0570852
0.00494938
-0.00254462
0.282335
-0.000319675
-0.00210895
-0.0350829
-0.0467894
-0.000796869
0.0886771
-0.0843037
-2.41232e-05
-0.00434176
-0.000100308
-2.85814e-05
0.0885498
-0.0173614
-0.000103802
-0.0219244
-0.0123724
-0.00119349
-0.0544904
0.000676398
-0.00940851
0.000241879
-0.00164735
-0.034758
-0.0197692
-0.00639928
-0.000460713
0.10205
0.141872
-0.13589
0.000952799
0.00871792
-0.0021219
0.111803
0.0609325
-0.0116529
-4.40766e-05
0.00178735
-0.0200078
-0.00676664
-0.0181135
-0.00104466
0.0120064
-0.0151859
-1.99169e-05
-2.69285e-05
-0.0640032
-0.0236535
-0.011245
0.00232485
-0.0414224
-0.0259873
-7.94877e-05
-0.000887152
-0.000101726
-0.0325548
-2.34371e-06
-0.000812028
-0.0630897
-0.13044
0.0547082
-0.00142498
0.0014149
-0.0132232
-0.0118887
-3.55139e-05
-0.0160189
0.0477073
0.105096
-1.32646e-06
-1.57834e-05
0.107355
-0.00122491
-0.109653
-0.0137863
0.00109961
-7.94993e-05
-0.0254588
-0.060877
0.11038
-0.0199973
-0.000522354
-0.0134054
-0.0397321
-0.000246989
-4.74143e-05
-0.000414747
-0.0552198
-0.0230896
0.083956
-4.9788e-05
0.339099
-0.0736489
-1.38711e-05
-0.000756427
-1.31804e-05
-1.14809e-05
-3.41713e-06
-3.39175e-06
-0.0225455
-0.000392068
6.15093e-05
-3.90384e-05
0.0930125
-0.00252081
-4.35352e-05
-2.40666e-05
0.270042
-0.0118964
-0.0826744
5.22286e-05
-0.000303499
0.0239444
-3.40886e-05
-0.0154831
-0.181851
0.000617067
-0.00607355
-1.7779e-05
-6.45829e-05
-0.0184428
-0.0828249
0.00287886
-0.163591
-0.0959883
-1.34917e-06
0.0108789
0.0179539
0.0699139
-0.000606074
-3.52004e-05
-0.0317925
-0.00268063
-0.000335476
-0.0226563
-3.29008e-05
0.0106051
-8.27737e-05
-0.000366499
-0.0580835
-0.00196508
-0.0279047
0.326802
-0.000987726
2.70063e-05
-0.041836
-0.0593964
0.0025559
0.00168694
-2.31176e-05
-0.0154548
-2.59406e-05
0.133939
0.388527
0.0272913
0.000952644
0.00108083
-3.73726e-06
-0.0172182
-2.40064e-05
-0.0101888
-0.000780207
1.12801e-05
-0.00126703
-0.00838363
-1.85985e-05
0.000141809
-0.0100124
-8.13925e-05
-0.0082117
-0.00908028
-0.0239051
-0.00100247
0.351331
-0.000594975
0.000712318
2.09839e-05
0.00647005
-0.0208015
0.00380188
-5.013e-05
-1.52252e-05
0.000274092
-3.2466e-05
-1.85841e-05
-0.00993161
0.000126715
-1.34644e-06
-0.0264372
-0.00218514
-0.0214358
-0.000694485
-7.00469e-06
-0.00109753
-0.0209779
-0.0109519
-0.0279552
0.000672497
4.88946e-05
-0.000178604
-0.000550456
-3.05193e-05
0.196015
0.000395753
-1.91997e-06
-2.85522e-05
-0.00106737
-0.000262483
-0.0234142
-0.022523
-8.75475e-05
-0.00346674
-2.82051e-06
-0.00277802
-1.03218e-05
0.0196837
-4.03185e-05
-0.000111953
-0.00345319
-9.5516e-06
0.00618832
-7.13205e-05
-0.000447769
0.0093879
-3.13417e-06
0.271126
-0.0288978
-0.0220671
-6.48534e-06
-1.05608e-06
0.000277954
-0.000380381
-0.036725
-1.57959e-06
-1.68211e-06
9.42812e-05
1.16821e-07
4.66633e-05
6.64402e-05
-0.000155207
0.000149775
-0.0235805
0.34927
-0.0345098
0.246249
0.00380093
-0.0141541
-2.40151e-06
-0.00023102
-0.00674473
-1.05096e-06
2.96808e-05
8.30285e-06
0.016311
-0.00130658
-0.000153315
0.319155
-0.000104656
5.20299e-06
7.76723e-05
-9.60707e-08
-0.0252967
-0.00116517
0.000251154
-2.07427e-06
-0.000606097
-4.87955e-06
-0.00102096
-0.0243531
-0.000108843
-0.00170062
5.13628e-07
-0.00323539
-4.64562e-05
0.130953
-0.000131846
-0.000270646
-0.0223484
0.0012473
-6.73374e-05
-0.000517365
-4.21861e-06
0.118318
-0.0374894
-0.000355955
-8.84743e-05
-0.00221346
-0.000157627
0.0302602
0.0682436
-0.0121081
-3.34037e-05
-2.38864e-07
1.60608e-07
0.0212531
2.34038e-05
-0.0190663
-0.0317635
-0.010544
-0.0848697
0.363581
0.000527392
0.133572
-0.00999774
-0.0167378
0.120546
-6.81126e-05
-0.0326692
-1.92622e-06
-0.00488512
-0.0166465
-3.8731e-07
-0.0462133
-0.000277023
-0.025167
-0.00545117
-0.014427
-0.0208931
-0.0036126
-0.0419323
-0.0151786
-1.29201e-05
-0.00450685
-3.84072e-05
-0.0137072
-4.14999e-07
-2.03853e-05
-0.00892087
0.113858
-2.31903e-08
-0.0250108
0.00101127
-1.28724e-06
-0.0169282
-2.09812e-06
-0.00489402
-0.000142742
-0.0136852
4.85073e-06
-2.12316e-05
-0.00154676
-6.98585e-05
0.11067
-0.0170431
0.0275534
-2.10279e-05
0.000108272
-0.0115107
-4.61618e-07
-0.0299868
-0.030502
-0.0227379
0.344419
-0.00344067
-1.02272e-06
0.012475
-0.0154991
-0.00255179
-3.96288e-05
-1.66007e-05
-0.0222066
-1.07054e-06
0.000171524
-1.33789e-07
-2.65209e-06
-0.0104517
0.0547868
-0.0965497
0.0574442
-0.00270659
2.76621e-07
0.000139303
-0.0488294
6.85834e-07
-1.52665e-06
3.70166e-05
2.06128e-07
5.59235e-05
0.163417
0.0182178
-2.90401e-07
-2.39538e-06
-0.0270359
0.141911
0.122652
1.5464e-06
-0.0191664
-0.0160785
-0.00926166
-0.020753
-0.00777495
-0.0012609
0.0968271
-1.87949e-05
-0.0145081
0.117179
-0.0260793
-1.62119e-05
-0.0239892
-4.07311e-05
0.218747
0.0109918
-2.25189e-05
-7.78995e-06
0.129222
-8.61115e-07
-6.02171e-05
-0.00461107
-5.28318e-06
0.18019
-0.000241986
-0.00289254
-0.0233768
-0.00184806
-0.0818692
0.128851
-0.0218922
-0.0681016
0.000214516
-5.94589e-06
-0.00064707
-1.25333e-05
-7.39199e-06
-0.000876255
0.127103
0.10365
-0.000182022
0.176617
-0.0149145
-2.56411e-06
-0.0163644
-1.42754e-05
-0.0160013
0.0120454
-0.0123374
0.00107732
0.000476783
-0.00379912
-2.66225e-05
-0.00080233
0.00587746
-0.000889954
-2.7233e-05
-1.47549e-06
-6.77264e-06
0.0170152
-3.45256e-06
-0.0209892
0.185922
-0.00366442
-4.06099e-07
-0.001355
-8.703e-06
0.0219474
-5.60759e-05
-9.84822e-06
-9.71666e-07
-2.73437e-06
0.14957
-7.23977e-05
0.171644
-0.041788
-1.62529e-06
-0.0364871
-0.000463674
0.108938
0.324271
-0.000388231
-2.89407e-07
-4.65793e-06
-4.50753e-06
0.088832
-3.39376e-07
0.00015047
-0.00869714
0.160044
-1.79211e-06
-3.63868e-06
-2.93537e-07
-1.38606e-06
-0.011303
-4.00997e-07
0.200488
-0.0131461
-5.63988e-06
-8.44857e-07
-0.000633645
-0.0115349
-2.94565e-07
-4.10906e-06
0.115938
-8.85798e-07
-0.0177428
-0.0776651
4.05506e-06
-3.65011e-07
-0.18559
-2.89232e-07
0.112647
-7.58676e-07
-0.000162204
-2.17019e-06
-1.077e-05
0.0598359
-1.40411e-06
-0.000717032
-3.35363e-06
0.000640471
-0.0019475
-0.00231094
-0.0019367
0.106623
-0.000246103
-2.27245e-05
-0.00346545
-0.00357187
-2.40157e-05
-5.23151e-05
-0.000443529
-4.04953e-06
0.115665
-0.00823067
0.360289
-1.7942e-06
-0.00361244
-0.00014323
0.0864551
-2.8861e-06
-0.0175016
-1.42456e-06
-0.000633171
-0.0181096
-4.09621e-05
-0.00856686
-0.0278548
0.000808882
-1.09996e-05
-0.056235
-3.64664e-05
-0.000323483
-0.00241138
-0.0220775
0.000125809
-6.28424e-05
-0.000138999
-0.000933841
-0.000472267
-4.06499e-06
-0.000407099
0.320983
1.31098e-06
-0.00119832
-0.0187458
-0.0223233
-0.031736
-0.0180177
-0.0124439
-0.000553658
-0.021631
-9.87095e-07
-1.84083e-05
0.33842
-1.27798e-05
0.121584
-6.02027e-05
2.14444e-05
-0.000347043
-0.103
-0.000118041
-0.00146889
-6.30315e-06
-9.69796e-05
-1.99964e-05
-1.41962e-05
-0.00570196
-3.862e-05
-3.54868e-05
-1.22055e-05
-4.57675e-05
-7.49682e-06
-0.0273748
0.169605
-1.69458e-06
-9.36502e-05
-7.82962e-05
-1.54602e-06
-0.000213604
-1.76999e-06
-0.000253471
-2.16841e-06
-7.96072e-05
-0.0295178
-0.000215023
-0.000968867
-1.43174e-06
-0.00156301
3.67284e-05
-3.10353e-07
-2.51551e-06
-1.2252e-06
-0.000140787
5.42977e-05
-0.0274075
-0.0202888
-0.0272046
-0.000579159
-0.00203682
-0.0646926
-0.024851
-4.09218e-06
0.00361061
0.00162458
-0.000197289
-0.00633776
-0.018109
0.320418
-7.50997e-05
-2.37416e-06
6.57077e-06
-2.78461e-06
-1.50508e-06
0.0469268
0.000204173
0.0555047
-0.0363335
0.301226
-7.76474e-05
-9.17791e-07
3.82639e-06
-4.96563e-06
-0.000290362
0.102635
0.156113
-3.5654e-06
-5.34562e-05
-9.75484e-06
0.147145
-0.00229598
-0.00905964
-1.07374e-06
-1.19843e-06
0.00256734
-0.000117116
-0.0437111
-0.00950214
-6.81062e-06
0.000843136
-0.0234035
-8.33483e-06
0.000305966
-3.0932e-05
-0.0219704
-0.000403482
0.0970675
-1.46617e-06
0.000387513
-0.00193596
-1.90656e-06
4.72863e-06
-0.0130965
-1.72872e-06
-0.000173034
-4.06419e-06
-0.0068983
-0.0191587
-0.003311
-0.00907648
-0.00334068
0.00351138
-0.00456319
-0.000637867
-1.16273e-06
-6.78558e-06
-3.18006e-06
-2.46145e-06
-5.59548e-06
0.00270992
-0.0462065
6.28508e-05
-0.0497777
-0.000815496
-0.0498029
6.6652e-07
-8.45969e-06
0.000263234
-0.119783
-2.25556e-06
-0.046678
-0.0102965
-0.0478181
-0.0531029
-2.24992e-06
-0.000948306
4.77747e-06
-0.191758
0.0899899
-6.90583e-06
-0.0381113
-0.0168151
-0.00123976
-4.68866e-06
-2.0147e-06
0.00237669
-0.00565687
-5.225e-06
-0.00279914
-1.53715e-05
4.37511e-06
0.0806255
-1.28892e-06
-1.17911e-05
-6.08026e-05
-3.66049e-06
0.00015121
9.58693e-07
-0.00158161
1.40687e-06
-0.00701558
0.000177091
-9.11343e-05
-0.029792
-0.0253294
-0.00319851
-7.62614e-07
-2.83175e-06
-0.064966
0.00183636
-0.0253932
-7.6285e-06
-0.00251547
1.27047e-06
-3.60148e-06
0.0364402
-0.00210833
-0.000745096
-9.66749e-06
-0.0119924
-2.53004e-06
-0.0357032
-4.5732e-06
-0.0414872
-1.18891e-05
-1.07951e-06
6.04464e-07
0.000196197
-0.128167
-0.00636805
-0.047328
-6.02496e-06
-5.40071e-06
-0.0376515
-0.0298834
-0.00271666
-2.46476e-06
-0.0597785
-0.0385453
-0.0346944
-7.44006e-06
-2.78226e-06
-2.04812e-05
-0.118905
-0.0486312
7.48343e-05
-0.00349506
-2.11503e-05
0.160278
2.58366e-06
-7.81807e-06
4.1763e-06
-2.71107e-05
-3.41725e-06
-0.001709
-9.52232e-06
-0.00125488
-0.049405
-0.00436894
-0.0166957
-8.42192e-06
-3.3068e-06
0.0207732
-0.0731949
-0.00140516
0.071734
-3.54269e-05
-4.5161e-06
-3.77292e-06
0.0598795
5.50464e-06
-6.20124e-05
-6.68242e-06
-0.0589168
-0.00532657
-1.32899e-05
-6.15601e-05
-0.00505395
-0.00196868
6.68167e-06
0.157935
-0.0498231
-0.000819526
0.425972
-4.74639e-05
-0.000542212
-0.00730778
-0.029917
-5.71467e-06
-1.72508e-05
-1.7512e-06
0.00127492
-0.0321706
-0.000163462
-0.0313218
-0.00244093
-1.00446e-05
-7.56594e-07
-0.00329727
-0.0203059
-0.0505975
-0.115921
-0.0202809
-0.0209944
-0.039923
-0.0185698
-1.13845e-05
1.69447e-05
-0.0187276
7.47719e-05
-0.000141703
6.19096e-05
-1.97294e-05
-0.000109797
-0.00393808
-1.14507e-06
-1.45515e-05
0.0101313
-0.0534564
-0.000244227
-8.31307e-05
-4.28224e-06
0.172921
-0.00356306
3.63931e-05
-0.0191864
1.78108e-05
6.85534e-06
8.86632e-06
-1.1632e-05
4.58283e-05
-0.0243072
0.000867586
-9.87015e-07
-0.000187948
-0.030387
-0.0275352
0.0278587
-6.62768e-05
0.000453723
0.00789532
-6.4673e-06
-6.91215e-06
-0.0477266
-1.8777e-06
0.111951
-2.28861e-05
0.00130782
8.53595e-06
7.41162e-06
-0.0302487
-0.00420522
-0.0100733
-0.000699179
-2.12298e-06
-0.000289427
0.0361051
-0.00738007
-4.28123e-05
0.0593443
0.108815
-2.07568e-06
-0.0287336
-2.05829e-05
-5.67793e-06
-4.34587e-06
-8.52469e-05
0.00916731
-3.01467e-05
6.78493e-06
-0.00977691
-0.0141537
-0.00713166
0.218592
-1.74182e-05
-1.3277e-05
0.115608
-0.0181506
-0.00190599
-0.000100882
0.113603
-1.62481e-05
-0.000420634
-3.34247e-05
-2.95075e-05
-2.50463e-06
-3.20447e-06
7.80706e-07
-0.00673138
-9.01551e-06
-0.00198242
-0.0215224
0.170871
-0.00031381
-5.37062e-06
0.00146835
0.0524009
-0.0488438
-0.000130567
-0.0235443
0.218988
-2.34049e-06
0.287994
-1.92919e-06
0.000707679
0.0113581
4.75033e-05
0.304676
-5.2537e-05
-1.76811e-06
0.000106037
-2.88801e-06
-0.000142886
1.73649e-05
-1.01835e-05
-0.000640679
-3.94186e-05
-4.80331e-05
-0.00128165
0.169737
0.0245938
0.0102789
-0.0180817
-1.29705e-06
-1.12853e-05
0.000594089
-0.0548224
-4.77461e-06
-0.0208315
-1.0588e-05
0.0657174
0.0360921
-0.0238387
-0.000541131
-0.00911178
-0.000180774
-0.00499931
-0.00267326
-0.00587777
0.0359122
-7.40138e-07
0.179478
-0.00634323
-0.000718375
0.146634
-0.00745721
-7.60713e-07
-1.31923e-05
-1.13339e-06
-1.53428e-05
-6.42968e-05
0.17153
-0.000298361
0.176716
-0.00122018
0.112175
0.155916
0.0650789
-0.00382209
-5.73796e-06
-5.66261e-05
-0.00332338
-0.169371
-0.0355816
0.000331067
-2.65531e-05
-0.0170613
-0.000542749
-6.83193e-05
0.000195343
-0.000290301
-0.000932452
0.016596
3.24302e-07
-0.0182215
0.030806
-1.2867e-06
3.33048e-06
-0.0116111
-0.0522671
-0.000189727
-0.000108885
-1.55574e-05
-4.25349e-06
0.0347395
-0.0116593
-0.036591
0.000253656
0.0495042
-0.0252083
-1.47193e-05
-8.9918e-06
-0.01307
-0.000120536
0.0367265
-0.00626497
-0.00461488
-0.000164138
0.000261418
-0.0262958
-9.15742e-05
5.10793e-05
-0.0178748
-0.0374902
0.099085
-0.0268129
-0.0163921
-0.000206185
-3.2092e-06
0.00250993
-6.80794e-06
-0.0330895
-0.0462999
7.34304e-05
0.000422439
0.00119143
-0.133545
8.47774e-05
-1.93585e-05
-2.17102e-05
-0.0267235
-5.85332e-06
7.52705e-05
0.0797183
0.122821
-0.154378
0.0280203
0.0259523
-0.0113581
-0.000267849
0.000343659
3.62646e-06
-6.10291e-07
-0.000155255
-6.30711e-07
-0.000131657
-9.08929e-05
-0.00403961
-0.0878204
-0.00540192
-0.0247222
0.0286943
0.0235413
0.00110863
-0.0475389
-3.01433e-05
0.000716925
0.00369111
-0.00012714
0.0431462
-0.00158051
-0.00722519
0.00308287
0.00194809
-0.000873335
-0.00205591
0.02006
9.08757e-05
-0.0109513
-0.0100864
0.36683
-0.0175506
0.0480028
-0.0136982
-0.0333054
0.00047125
-4.36969e-05
-0.000704778
-3.66057e-05
-0.000635539
-0.0165749
-1.695e-05
-0.000198706
0.204007
-0.00086258
-0.023869
-0.0062879
-7.44395e-05
-0.00205818
-8.1551e-06
-4.41156e-06
0.0160491
-6.18058e-06
-0.000798662
0.0430324
0.00143114
0.000234484
0.00663975
-0.00301233
0.00130804
-0.161783
7.60105e-05
-0.00219517
-0.0347344
-0.000573609
-0.00433064
-6.60488e-05
-0.00273486
0.000150604
0.0142964
-0.000459248
0.00171119
-0.0207741
-0.0126629
-0.000139814
-0.0179886
-0.00826162
-0.00585592
-0.000101125
0.00227173
-0.0692352
-0.000239963
-0.00292887
-0.0173742
-0.00364554
-0.000436116
0.155681
-0.0211518
1.90749e-06
0.00309029
-0.0416428
-0.000326844
0.134756
-0.00263472
0.000166348
0.0355211
-0.000578375
0.0024484
0.0849336
-0.000287751
0.000225872
-5.50992e-06
-5.02759e-05
-0.00131382
-0.00658927
-0.000342681
-0.0134525
0.0603108
-0.0157949
-0.0744541
0.000227573
-0.00134494
-0.000786177
-0.0722947
-4.57035e-05
0.00244801
-8.49e-05
-0.00557404
-0.00059086
-0.00146749
-0.0940208
0.073268
-0.0838042
-1.34182e-05
0.136619
-0.00164931
-0.00338127
-0.0283915
-0.0911247
-0.0095242
-5.93765e-06
-0.00133245
0.00246605
-0.00119188
-0.00236759
-0.000146271
0.0527621
-0.0390882
-0.00606882
-0.00201062
0.000608515
-0.00654407
-0.00500019
0.000387081
-0.000505304
-0.00112509
0.0717246
-3.2473e-06
-0.178049
-0.000181333
-0.00228575
-0.00424652
-0.10336
-0.00692535
-0.13439
-1.46674e-05
-1.80192e-05
-0.00834306
0.00363871
-0.000206354
-0.166702
0.0494437
-0.0332638
-1.08632e-05
-0.190592
-0.000249476
-0.205795
-0.0148418
-0.240294
-0.244681
-0.240006
-0.206395
-0.127397
-0.0956231
-0.0651607
-0.0347125
-0.00353862
0.087014
0.116887
0.144183
0.190692
-0.00257553
-0.00501137
0.0267199
-0.0223418
5.08573e-05
-0.00305558