/*--------------------------------*- C++ -*----------------------------------*\
  =========                 |
  \\      /  F ield         | OpenFOAM: The Open Source CFD Toolbox
   \\    /   O peration     | Website:  https://openfoam.org
    \\  /    A nd           | Version:  7
     \\/     M anipulation  |
\*---------------------------------------------------------------------------*/
FoamFile
{
    version     2.0;
    format      ascii;
    class       surfaceScalarField;
    location    "38.5";
    object      phi;
}
// * * * * * * * * * * * * * * * * * * * * * * * * * * * * * * * * * * * * * //

dimensions      [0 3 -1 0 0 0 0];

internalField   nonuniform List<scalar> 
11512
(
136.826
-500.863
364.037
-770.87
3.82094
767.049
410.854
-367.732
-43.1219
647.27
257.857
-905.127
1510.66
-1069.31
-441.356
1216.29
-1527.13
310.84
-48.335
467.812
-419.477
168.424
-841.429
673.005
962.07
-1610.78
648.713
-1765.33
1673.29
92.0372
-542.943
1759.23
-1141.22
1934.93
-793.709
607.639
180.672
-788.311
-25.3198
-1318.05
1343.37
222.288
-1987.62
1021.25
-383.438
-637.816
-192.035
328.861
485.193
190.049
-675.243
1154.31
-1313.92
159.614
-324.529
374.141
-49.6118
1008.7
-1321.62
312.912
1221.54
799.587
-2021.13
74.2331
-1644.93
1570.69
-485.464
-1161.79
1647.26
476.208
181.37
-657.578
-180.111
-320.752
497.951
1012.71
1652.34
-1810.75
158.404
-92.1171
-1689.93
1782.05
-1559.16
654.404
904.759
-308.453
651.429
-342.976
-193.871
-153.904
347.775
1288.6
-1214.36
355.176
-1407.31
1052.13
-1754.37
1754.37
99.9882
1536.94
-1636.93
-1081.56
-477.601
638.232
-686.567
-385.666
941.134
-555.468
1331.94
-1317.3
-14.6401
-1099.6
713.937
623.861
397.392
-408.894
-16.9005
425.795
-459.163
799.026
-339.863
-1618.58
1618.58
1253.59
-1437.89
184.306
-488.839
1710.38
1253.62
-312.488
1660.74
-1161.25
-499.488
59.6411
-384.17
2066.2
-1135.8
-930.401
1818.71
-166.368
455.461
155.45
-610.91
-467.818
975.506
-507.688
-1174.49
1274.48
-567.796
970.018
-402.222
398.682
755.628
660.875
-492.451
-435.644
589.97
-154.326
1190.59
-835.416
2308.2
-1080.67
-1227.53
1164.05
-2009.94
845.891
-1606.95
1581.63
440.568
-1581.79
-759.233
1250.76
-491.526
-670.119
361.666
1661.44
-699.369
-1106.93
-870.895
1977.82
696.661
-385.915
-310.746
689.643
563.979
-258.201
1511.79
101.662
-309.389
207.727
-283.721
759.928
-333.493
565.489
-231.996
-323.605
808.798
-315.962
-144.282
460.244
315.984
94.8703
1465.8
-457.095
-995.236
493.861
501.375
266.53
93.2182
-359.748
948.33
-340.691
-1700.85
644.475
1056.37
20.0983
-861.843
841.745
-279.779
592.309
-312.53
157.496
-1093.64
936.149
1051.83
-1067.3
15.4721
372.46
518.258
-890.718
-244.158
699.618
-1103.42
-482.239
1585.66
-678.868
951.541
-272.673
1353.77
-1445.88
-655.397
290.09
365.307
-470.178
-1011.56
1481.73
-537.302
-795.147
1332.45
576.098
-995.92
419.821
-268.765
-317.904
586.669
399.056
-297.394
-1042.61
574.79
955.25
-797.754
-110.257
944.081
-833.824
-209.54
415.141
-205.601
-634.067
-361.168
-386.397
962.496
1856.39
-1856.39
-479.628
-175.768
-946.436
1562.81
-616.37
498.459
-930.595
432.136
-922.764
354.968
-941.908
-1058.08
-1495.61
342.965
1152.65
-270.302
917.572
-330.829
625.03
-294.201
-1941.9
999.995
-1146
-349.606
561.896
-1508.33
1728.48
-1725.72
-2.76874
197.282
-612.65
415.368
-1465.5
974.136
491.363
278.21
218.963
-497.172
309.748
-643.241
244.108
-420.423
176.315
2015
-878.613
-1136.39
-549.487
140.592
615.207
838.18
-1453.39
-182.374
426.482
431.318
876.499
-1307.82
-904.078
390.651
513.428
-1048.49
1447.17
-1068.91
309.68
747.952
-96.5235
570.449
-294.39
-276.059
1020.28
-526.42
593.286
-1403.74
810.451
-1342.09
238.669
-544.056
264.277
-1184.58
914.282
1947.33
-977.371
-969.961
276.805
1579.58
-2096.87
896.772
1200.1
369.006
-30.1091
-338.897
-223.485
484.018
-260.534
-96.5477
-387.422
483.97
-459.218
143.256
342.005
-129.435
627.894
426.686
376.254
-802.939
-2039.27
1121.16
918.11
459.347
-526.605
67.2587
224.479
-366.752
142.273
1017.86
997.134
1789.82
-252.882
747.818
-457.728
796.27
-1389.25
592.985
363.247
333.414
1059.36
-1039.26
-489.271
-243.229
732.499
468.74
-131.487
-337.252
797.135
-616.463
553
-721.086
168.086
503.323
1157.41
-1239.64
702.341
1035.51
-1520.97
-3.1323
-1439.43
1442.56
326.189
823.53
-1149.72
623.103
269.7
-892.803
-2269.21
1142.47
1126.74
-1092.22
-1176.99
195.605
357.396
958.46
-632.271
879.566
-899.197
19.6303
-2099.38
992.454
-231.918
-191.238
423.156
-41.852
1770.34
-838.834
67.9635
-1029.91
-1066.97
-229.079
453.557
-692.223
212.594
-286.514
-422.284
708.798
1104.02
-1574.2
782.876
-1374.33
591.451
693.684
-435.827
1947.86
-1444.54
-378.278
-1376.1
68.4989
399.313
-534.912
538.733
27.8771
-582.692
554.815
566.045
-287.836
-602.376
278.949
323.427
783.357
-356.671
32.9063
336.1
1188.47
-1191.6
166.457
232.599
392.855
-679.369
619.3
-1005.7
-2026.72
2026.72
-269.515
-442.9
712.415
699.148
405.752
-1104.9
578.256
169.696
412.315
371.042
-2199.75
1328.85
-926.151
-679.544
1605.69
-478.262
-706.322
-248.674
552.954
-304.28
827.97
-204.787
-623.183
-458.921
656.203
360.753
-691.583
-380.122
-128.242
508.364
-1333.96
-476.786
640.929
-1119.19
-374.137
-1244.45
844.335
1463.86
299.074
-944.13
645.056
964.991
-341.13
1391.28
-797.998
438.187
-271.73
-325.822
-871.875
574.21
297.665
-338.699
-533.176
313.451
-409.999
-213.122
-148.577
361.699
-392.651
1091.8
434.712
-244.663
-391.914
1358.96
-171.557
-1187.41
-475.831
300.876
174.954
217.534
271.444
-488.978
21.0542
-742.141
592.118
-1729.02
1136.9
1483.78
-868.569
-1047.53
-417.968
-1055.99
573.466
482.528
1386.53
-412.392
928.981
-1411.22
-159.245
-195.57
354.815
-468.969
579.141
-1627.63
427.964
903.977
299.455
295.035
-594.489
568.08
1186.29
1102.24
-711.691
-390.548
396.993
-213.495
-183.499
-1419.45
445.687
737.51
-1183.2
1473.21
-544.226
-484.374
936.247
-451.873
426.147
1186.16
-1612.3
47.286
-726.154
-147.917
414.446
226.571
-420.442
538.257
482.024
-610.504
60.4402
550.063
1024.54
-1307.67
283.132
667.17
-254.855
468.277
-1447.2
978.927
395.003
1687.53
-523.482
909.423
1037.91
-659.521
-1684.53
758.384
562.161
407.454
-969.615
455.862
78.8737
1750.02
-1828.89
1443.73
-379.466
-1064.27
1699.14
-1740.99
-366.352
-535.232
723.874
-188.642
-502.588
178.006
290.734
-372.817
-1225.98
214.428
-764.549
-639.188
-645.199
996.035
-350.836
-654.301
644.508
9.79281
655.136
-923.811
268.675
-767.937
389.957
377.98
-647.958
-693.108
342.884
350.224
-932.262
1400.54
-421.384
889.085
-467.701
-2205.31
5.55739
172.943
-529.978
357.034
143.199
1215.76
-105.155
-587.068
156.112
-591.756
1487.05
-704.176
384.662
-460.193
75.531
-570.668
570.668
1223.12
395.461
1778.01
-1228.06
589.31
638.754
849.628
-52.4937
1291.94
774.266
-540.324
1336.59
292.628
299.681
267.118
-802.349
246.342
-705.505
230.957
-443.158
212.201
-246.989
579.626
-332.637
114.553
-361.542
-591.761
-564.424
1156.19
-377.809
554.657
-176.848
-1192.16
2032.04
-839.885
1288.69
-330.234
-406.499
137.734
-1979.98
818.183
1541.02
-849.144
-691.879
1986.97
-877.441
-1109.53
713.643
575.051
-238.729
469.686
-672.519
1150.5
-477.978
-769.757
1201.07
551.73
924.553
-1725.29
800.738
-551.238
-82.8893
634.127
308.952
261.498
405.196
-87.5799
-317.616
896.916
-83.4043
-813.511
931.016
-574.054
-356.962
1576.18
-472.162
891.854
-1627.9
736.049
1068.48
879.387
745.723
-438.304
-307.418
-1059.05
-258.254
567.971
575.142
-1143.11
-468.744
525.026
-56.2822
571.491
-338.445
-233.047
-985.957
564.573
594.5
889.276
-441.77
1096.91
1420.26
-784.488
-635.768
391.732
-922.217
530.485
-1040.02
405.955
567.105
-1051.48
472.212
-550.795
78.5837
485.537
313.489
-522.132
-48.5361
-793.879
-879.876
1673.76
189.435
207.558
-216.358
411.963
-27.0548
-570.598
597.653
497.966
869.621
-1367.59
-518.982
305.859
985.988
-89.0722
836.018
-1064.5
228.479
407.955
845.725
-1386.05
-457.154
833.408
1979.76
-1286.02
-693.741
270.189
609.378
255.966
795.862
93.2019
-974.915
881.713
1673.72
-1089.02
-584.7
-137.904
1887.92
-1866.07
-160.654
483.582
-621.679
138.097
-1011.91
526.596
485.315
-1730.48
538.32
-955.74
845.483
390.413
199.557
587.981
-288.907
-417.987
708.419
256.572
68.1403
707.558
-775.698
-1121.39
-907.784
2029.17
-542.894
1116.12
-573.23
-482.963
-342.848
110.93
-1655.95
862.071
-854.2
-606.921
1461.12
-332.177
-294.555
626.732
348.845
-650.712
301.867
252.655
-609.326
337.097
193.276
-530.373
364.339
-613.013
621.849
-273.004
311.677
-455.959
679.18
413.686
-196.152
-401.5
-291.608
1224.23
-2.28089
-1221.94
1039.14
-419.842
559.697
410.32
-1782.36
869.815
912.541
488.346
556.712
-1045.06
-535.847
203.671
-263.637
1181.26
-917.623
-1590.88
1212.6
504.486
-1096.25
382.055
2.60716
429.92
315.189
-745.109
371.378
-615.536
-35.232
757.422
-722.19
-526.205
795.906
396.103
322.505
527.123
652.025
106.846
-418.481
311.635
1058.94
-645.329
-413.61
494.018
-1664.27
1170.25
-1140.38
1753.22
-612.833
1715.83
-1123.71
-332.711
611.66
-1181.14
1274.35
425.335
-798.947
1609.31
-810.367
-278.349
-197.482
-891.354
1471
1814.2
-610.75
-1203.45
-404.506
656.429
-1301.63
-124.833
-58.8661
464.062
-685.507
-354.163
-1236.71
-214.621
467.276
903.403
-556.899
169.477
-1674.67
-71.2402
1745.91
-1077.62
534.728
566.136
-1183.96
617.827
900.818
913.381
630.767
619.993
698.381
237.866
-1143.88
471.365
-393.927
421.804
615.458
-514.42
237.379
-728.804
491.425
708.813
-345.566
-334.54
180.636
-615.956
253.022
362.934
-886.416
-741.487
1087.67
-2145.75
398.27
-681.991
-342.775
-724.525
835.482
584.774
-336.898
319.997
378.888
224.789
638.551
-863.34
524.359
626.139
-552.606
172.484
354.365
-623.88
-1030.04
-863.614
1893.65
-1802.25
157.329
1106.8
-1370.43
1160.16
-714.075
-446.081
-503.876
1349.6
-1495.48
627.868
867.617
-289.23
-210.664
499.894
1428.4
558.567
361.513
-489.755
-480.698
-571.165
1051.86
-421.525
594.468
1582.66
-1130.04
-452.615
-785.51
342.61
654.877
404.062
-1623.42
416.164
1207.26
-179.617
516.714
797.629
785.03
204.181
-700.871
496.69
205.907
209.233
-292.505
-107.553
400.058
504.025
-5.38034
-498.645
-1642.53
594.999
-1608.52
1677.31
-68.7821
12.904
-1621.43
1069.6
779.259
-349.339
-818.638
-221.385
-1134.47
-239.853
-310.623
682.001
-1812.57
-634.912
1210.05
218.397
757.109
-1331.32
-678.621
-465.587
626.839
-327.384
-1013.28
1350.77
-1932.89
582.123
646.739
1288.19
487.496
-3.47723
717.28
709.579
-1426.86
-634.531
330.24
304.291
440.89
-99.3705
-341.519
141.182
322.094
147.734
-469.827
-593.2
1155.36
453.834
-645.592
-461.344
-401.207
862.551
-325.125
165.88
-451.961
154.567
-303.172
-708.739
549.9
-109.011
-574.35
966.082
581.641
-270.223
-311.418
454.839
-778.444
-648.038
458.482
-1129.4
-843.017
1185.98
-569.757
444.25
288.249
-465.637
79.7219
1027.97
-317.857
594.77
-276.913
-509.018
1578.61
-682.984
250.672
363.685
-614.357
228.021
499.789
-37.1512
-462.638
-261.148
-190.813
1022.63
1108.91
564.811
-884.673
949.439
-64.7667
-459.164
169.933
-743.783
321.499
-589.449
325.911
382.902
838.918
-1243.98
405.058
776.069
-811.301
-948.944
-550.354
1499.3
-178.803
473.838
-562.671
268.282
1300.9
790.594
-586.413
1320.67
-679.745
486.986
-666.565
-400.04
-422.903
-377.732
800.635
502.018
-842.709
-471.943
103.508
368.435
-322.614
572.418
727.103
-328.833
-242.008
-172.094
414.101
-487.097
130.396
356.701
1459.96
82.1419
-1542.1
-753.611
1348.11
-1144.74
-466.043
542.138
-178.453
1151.39
-375.322
1083.49
492.694
699.913
-432.796
-884.986
-522.321
-1328.41
-22.8181
984.937
-962.119
591.123
344.763
-935.886
-347.873
-201.613
-674
405.525
1621.2
-194.388
380.688
340.258
-720.947
-1839.75
-2106.68
1519.14
587.542
-2035.82
345.882
376.936
530.375
-907.311
-459.95
1019.65
-408.416
-668.204
1076.62
-2030.53
1391.21
639.326
593.75
-1002.17
39.3853
432.826
385.895
188.527
249.661
320.986
970.686
875.138
677.35
-324.336
-353.014
-292.19
618.344
-326.154
571.283
530.957
565.248
514.666
-1079.91
-796.189
-699.295
751.211
400.18
-405.796
707.663
-1193.41
1609.57
432.999
-1101.2
-351.339
544.614
-1380.36
879.419
500.941
-710.886
-349.56
-775.527
351.619
423.907
446.983
718.049
-1165.03
1074.63
-586.284
-422.309
670.014
-247.705
255.431
326.21
-467.556
-431.552
899.108
-228.638
568.839
-964.032
395.194
-458.541
600.597
-1681.27
423.635
670.751
-1094.39
519.766
105.264
113.409
-2212.79
541.127
-96.8765
1444.37
1777.09
-217.551
-1559.54
-438.469
1789.24
-1987.05
1194.5
792.549
398.853
346.87
-41.9143
877.396
-1283
718.576
-868.763
-821.782
798.964
293.703
77.4578
-371.161
232.618
187.289
-419.907
1558.66
-841.376
-1530.96
-325.43
511.372
-230.598
-280.774
394.236
365.692
264.71
362.129
-10.104
1002.35
-992.248
376.731
295.876
-672.607
-734.092
1817.33
-1083.24
-341.772
736.009
-1223
-413.932
-914.286
482.735
586.345
-785.059
198.714
759.483
-379.306
-380.177
-435.385
-449.288
450.299
1091.46
1239.18
-673.048
799.645
-344.806
379.444
332.971
-233.605
-226.588
-215.104
610.108
407.26
-846.044
438.784
233.801
346.203
-580.004
-421.913
829.173
754.452
-1147.1
892.421
-53.5032
-485.895
279.758
779.603
-96.1982
1384.39
1890.5
-45.3914
346.268
-314.341
421.187
-1087.01
1076.9
641.441
375.361
384.122
88.7694
422.602
260.199
506.85
-373.555
-260.976
-564.985
-89.3166
-364.831
359.972
4.85904
-255.988
-288.068
1010.95
-1540.66
529.713
-184.208
-183.524
-385.722
681.599
-1641.96
1591
-963.129
273.37
-673.41
584.317
1224.42
-1808.73
607.393
983.604
323.076
-1123.71
705.727
-283.279
-311.21
1382.63
-1450.8
832.915
617.881
440.023
-643.585
203.562
-394.368
486.229
-91.861
385.498
118.527
1724.14
455.398
-249.491
557.63
-1704.79
1147.16
-96.6241
391.957
341.767
335.583
-448.335
-615.361
1063.7
411.251
-868.405
-640.862
902.68
570.527
-515.621
-252.316
-437.773
-408.271
-307.319
-827.155
1821.12
-1821.12
-102.095
-1595.21
1697.3
293.166
278.326
-917.136
-555.383
1472.52
-407.965
973.213
-604.994
-1037.54
693.695
399.432
-1093.13
470.423
-158.746
573.063
1220.34
-1793.41
-1037.16
2114.06
-1076.91
-376.092
-294.027
-485.104
827.715
-1756.06
1604.35
151.709
1756.06
-1609.94
-146.121
-244.454
520.854
-276.401
-537.278
1620.77
1570.34
-1984.27
1099.65
-293.454
-271.665
565.119
225.606
-576.945
-705.1
299.304
1342.35
637.413
583.569
480.349
-1063.92
269.893
430.021
875.39
500.062
-1375.45
537.525
-1018.22
1574.92
-563.968
-772.611
-356.501
-140.992
497.493
-489.964
1208.01
-741.217
332.813
366.805
384.123
243.468
-627.59
609.729
831.654
-603.175
261.43
688.009
-515.621
-330.493
-245.009
575.502
1168.52
-678.19
608.05
466.997
-1075.05
-1294.54
1294.54
-385.331
760.692
-278.001
-481.077
759.078
498.397
440.328
-938.725
393.129
-671.13
606.22
-868.72
262.5
-366.745
-490.866
1074.43
-660.097
-711.777
1371.87
-378.601
947.44
-1552.71
675.274
33.4208
-432.121
398.7
-522.642
735.237
264.667
314.959
166.564
303.859
-532.781
249.502
1869.89
-1966.09
260.896
-719.817
457.464
-822.626
365.161
-908.296
1420.02
-511.722
-429.366
-484.92
600.761
1124.18
-1724.94
-712.833
336.741
-461.899
1033.18
-791.478
1052.91
-378.964
-624.901
-502.274
748.616
540.127
-358.758
909.648
-315.395
-171.702
1599.02
-1816.57
-349.174
-614.858
-345.916
476.312
279.752
-607.136
-175.933
1069.74
-789.985
196.741
-301.005
-269.134
570.139
390.592
-887.255
496.663
-483.182
-462.681
-944.13
-365.31
599.78
-234.47
-457.965
-441.596
-354.375
-175.998
-407.171
650.638
-443.59
776.562
-1072.18
623.84
-1405.2
550.999
-28.4711
-1837.78
1866.25
569.916
-449.899
1231.82
-697.094
336.543
-336.543
672.352
-451.054
1037.22
-1642.21
-1158.73
-947.95
290.81
327.534
893.085
716.23
-508.625
-303.784
812.409
1659.6
-1688.07
-434.005
338.297
227.749
1134.29
-526.245
-943.333
1550.48
-607.144
439.557
-251.031
369.004
400.591
-769.595
540.82
467.364
-1008.18
-330.402
663.216
-37.9939
1907.88
1599.11
992.681
-1696.86
726.953
-1176.85
449.899
-492.436
1367.83
837.152
-1341.03
-577.653
284.199
807.219
-399.764
548.622
-1190.72
642.094
-634.959
-1215.53
-695.661
1911.19
-186.956
562.631
-375.675
-183.783
328.82
-515.776
333.519
364.254
-697.773
-1487.62
756.367
731.249
884.073
-1434.43
822.314
-431.663
208.097
-356.013
-610.11
279.617
-652.058
-728.302
697.988
506.564
-1204.55
383.307
-201.391
-181.917
555.334
-957.556
-579.023
-424.52
746.018
-831.305
-1155.74
-1437.94
499.648
938.29
1.89487
-655.512
355.49
300.022
-1320.63
1047.69
272.933
-616.192
-455.983
-665.641
921.607
394.685
-192.916
-201.769
508.238
980.586
-1488.82
981.148
-565.078
167.564
397.515
-416.055
685.246
-424.35
-504.94
159.024
234.198
-1520.22
525.706
548.924
-777.367
254.724
139.321
-454.715
361.538
-824.219
1954.16
-1195.39
-758.771
427.997
-694.733
266.736
326.135
338.649
104.676
-443.325
-577.694
192.745
262.654
-691.69
1374.28
-682.586
423.782
477.425
-1188.31
264.866
1866.78
-1013.59
-853.187
784.855
-551.145
185.835
1402.35
-975.181
-427.168
326.009
-777.063
-616.517
1725.43
608.514
630.669
325.372
-31.6686
262.938
-1138.41
1725.71
-587.301
-1763.53
820.193
1761.98
-1691.37
-70.6144
-663.914
269.987
576.685
-734.458
232.184
1402.48
-565.33
381.824
451.584
-1858.62
1420.15
572.94
-447.623
-125.317
196.032
-550.407
-288.456
-194.507
-351.599
693.367
-587.964
231.463
617.406
547.849
-1165.26
1113.57
-1947.49
833.921
152.952
355.412
-1699.5
1661.5
306.957
-739.752
-167.965
376.062
759.948
678.676
-1438.62
1081.85
-1084.13
523.016
-1109.3
-625.91
250.27
375.64
542.532
-289.51
-615.208
-1027
286.582
-728.178
-912.322
168.262
159.126
224.181
406.512
285.114
-691.626
-635.341
-834.114
-978.46
487.179
-1064.87
-315.1
490.055
533.774
652.207
-281.817
-124.682
-410.566
733.642
262.843
-1201.51
566.172
1312.08
-552.137
441.226
-1020.25
-390.827
161.658
411.282
1023.29
551.626
-1717.67
1615.57
1635.12
-576.592
-1058.53
1904.83
-1893.8
-11.0305
226.188
-540.529
-363.224
559.965
-772.343
-331.124
-332.79
1019.91
705.844
-1512.14
806.298
333.705
-26.1882
1625.21
-1097.72
419.527
-1248.4
475.785
-61.1109
1521.07
1197.2
-470.251
-489.942
-75.1363
-277.509
736.03
-1951.56
-708.139
360.379
-531.648
171.27
192.387
-510.244
1139.92
671.569
-1811.49
-633.589
185.965
941.894
-1497.28
-210.45
678.872
-468.422
869.275
1130.73
-742.248
1350.76
630.662
-495.837
-134.826
-342.81
1175.73
1042.59
-1979.05
936.461
-1175.84
540.931
1488.68
-585.996
-403.196
-149.41
-1243.78
570.728
1160.66
-104.284
946.115
775.714
-1721.83
-196.52
578.56
-1541.68
963.122
486.952
916.605
-1403.56
626.143
583.911
408.497
-1106.64
592.015
1110.73
1216.54
-452.432
-764.112
-1186.2
-1754.93
-5.73105
-1711.94
-204.114
-439.471
1609.29
-631.945
-977.343
-490.769
1121.54
-1319.75
634.429
685.324
-1363.28
1445.42
-1332.51
590.26
1520.45
-388.585
-591.571
188.375
-1484.89
220.349
176.366
244.239
386.423
438.131
409.311
-847.442
506.298
-938.966
900.49
-1444.72
-715.964
237.222
478.742
-1050.44
457.244
-483.389
865.213
694.843
17.2239
-540.962
165.287
-886.565
-1318.74
-712.845
348.309
364.536
399.644
-720.832
321.188
-478.334
-189.254
-709.942
722.871
1539.78
-593.667
820.743
737.913
1344.74
-844.682
-971.16
-570.522
-794.342
427.277
367.065
-1036.03
-639.43
302.436
336.993
-1433.69
-296.783
-788.645
396.889
391.756
-665.6
418.163
247.437
-690.45
266.1
412.166
486.942
389.098
440.075
478.552
383.998
596.367
-969.184
690.815
464.546
453.44
356.051
-809.491
1630.75
-1079.88
-550.864
-504.597
-289.589
-1031.04
453.61
347.024
409.33
593.733
-1003.06
-1382.63
750.686
-529.647
1147.47
363.104
-41.0103
411.59
-863.951
452.361
-1896.02
300.814
441.286
-725.742
284.456
-188.173
398.21
-210.036
-658.575
301.944
356.631
-671.246
318.232
369.869
390.822
612.547
-1020.51
752.345
663.104
-1415.45
438.555
625.141
339.847
392.686
-732.533
408.574
327.434
598.642
674.067
417.397
603.783
-1033.07
429.291
-1669.92
1187.64
482.28
1696.58
-539.169
619.632
-1146.63
527
-642.363
347.808
436.901
-934.035
497.134
767.888
-452.699
349.764
343.603
579.706
-928.88
652.039
-1252.2
600.16
390.034
734.467
-1224.43
769.233
509.577
-1278.81
494.958
403.965
-898.923
-501.672
-936.266
-295.408
628.926
352.221
541.654
-893.875
332.227
330.989
-502.18
1944.74
437.001
-846.794
409.794
-917.665
-807.626
-746.292
366.115
-1230.03
438.547
-1738.96
1609.94
129.023
1749.18
-1604.35
-144.835
-782.579
-589.182
263.962
325.219
-1761.98
1984.27
538.584
791.207
-1329.79
439.971
716.214
690.23
385.486
-1075.72
-67.9693
1617.11
-593.823
390.371
841.452
-649.425
326.589
322.836
-377.263
-297.486
552.917
-213.521
432.484
280.657
-665.431
384.775
262.994
-575.524
-280.914
442.302
-1032.84
590.539
538.04
1092.71
365.765
596.73
312.834
353.607
-666.441
1632.03
-926.19
1692.1
-1520.78
-171.321
-326.188
-821.47
413.199
857.49
-1067.94
-603.466
277.312
-1090.59
1628.63
-1590.74
-75.8734
1666.61
-339.504
-348.619
-368.81
538.262
596.032
-500.036
-26.5694
-549.989
502.468
-281.106
-221.362
1754.77
-1304.47
-622.496
297.966
324.53
398.29
357.184
734.615
-294.962
-397.983
-1749.18
1688.07
459.399
-1100.49
641.095
-42.2565
1657.83
571.231
476.262
-1047.49
104.828
1144.68
-1452
-11.8554
-1884.16
226.067
-597.355
306.348
291.006
-955.299
612.524
-896.942
467.576
-1128.17
673.187
454.988
384.124
269.36
-777.985
-306.593
1216.02
886.558
699.099
-1182.82
456.056
726.762
494.281
700.518
-1194.8
-357.634
-244.617
403.743
-959.696
438.219
521.477
21.2411
-1879.86
1079.38
-473.165
-506.868
558.289
-1378.01
819.721
-433.379
798.54
-404.522
500.66
-705.461
1728.09
404.635
-180.454
217.273
-166.34
-242.776
409.116
1895.32
-504.116
-1698.73
1051.1
-602.048
304.562
-1012.99
553.043
-310.658
544.284
905.213
-1449.5
-1103.57
437.932
-20.9462
-1945.14
1710.77
-668.181
-540.582
460.638
-1190.28
729.64
193.386
201.299
-282.62
771.818
699.178
837.439
818.225
-462.175
1084.54
-488.418
473.832
-191.728
-282.104
-1923.75
-714.149
-316.698
-644.799
-6.98785
651.787
462.451
-269.706
568.278
1063.76
-808.939
923.843
1244.04
-424.582
-184.893
-229.123
414.016
962.844
-888.5
-317.369
-1067.32
611.335
1560.64
-804.274
537.666
934.853
-398.564
734.962
-336.397
1130.2
-276.671
341.243
1349.5
-705.998
-216.219
448.203
-1198.48
750.28
-983.382
-125.962
1109.34
440.963
-954.712
513.749
178.018
733.017
483.527
735.664
-97.113
851.665
-425.167
1182.41
-796.92
552.177
-1465.38
913.199
-1216.65
1800.97
-431.711
-1510.19
879.581
-1401.9
-324.927
-420.182
1457.09
-1525.27
783.783
1491.47
199.828
274.004
-365.619
-1738.96
-285.071
-1014.23
1582.51
-1773.32
1773.32
1570.34
-1004.4
-632.606
-350.039
368.214
604.999
-375.895
-372.625
-1389.78
897.343
1125.13
600.579
1202.67
1789.48
-1216.42
-617.603
270.723
1659.05
-1916.55
257.497
815.021
-1267.64
1545.22
-561.611
793.742
322.382
-356.883
554.949
794.653
672.784
1356.39
-241.76
-444.581
-380.913
497.703
-342.253
471.701
736.311
-311.632
-131.693
-342.564
570.618
-228.053
30.3576
-368.802
1107.42
-1720.26
-452.837
-498.209
-571.202
863.618
697.022
-1596.42
904.725
-451.3
-627.994
-514.251
1251.76
352.042
1723.73
-1702.49
-1659.6
1893.8
-1560.78
840.262
720.514
-389.488
-1797.59
917.715
583.358
819.124
-392.297
1794.34
-680.775
-421.877
683.817
441.211
-1125.03
-1100.81
444.031
753.173
-1617.16
473.175
901.102
174.021
-396.199
222.178
-1600.12
-387.502
-440.009
990.281
-677.604
1442.88
-983.791
1853.07
238.295
-535.295
492.375
-292.547
474.286
893.54
543.144
977.311
-462.562
-427.53
573.996
883.089
-1392.71
-40.9883
1577.7
-839.788
519.934
971.531
-1475.76
-1115.9
1774.14
-1240.58
-533.559
1206.02
-319.047
-886.976
-189.768
449.265
-259.497
-456.874
-247.224
424.987
-177.764
140.64
-385.257
1733.63
-1739.36
-470.106
-530.829
-903.598
439.259
-204.706
-234.553
635.67
-467.722
-359.803
-330.695
690.498
-931.454
398.278
-1167.2
676.428
412.316
-642.239
-431.729
1581.42
-865.188
530.176
-457.659
-570.474
-462.367
373.639
-363.867
-9.77221
-1114.96
417.861
-664.816
-1033.61
1698.42
-609.218
-1423.84
712.065
562.207
-1596.23
1034.03
-405.736
-470.292
161.465
536.916
-1258.18
743.924
539.216
1006
-2133.18
999.988
1133.19
-382.145
420.961
-396.05
-24.9112
1478
-380.507
449.173
1210.67
582.286
906.389
567.225
527.402
-1094.63
160.967
-453.171
-1691.37
246.504
1127.57
-622.12
518.506
1013.71
-1532.21
1092.85
-1643.71
185.43
706.991
556.217
-873.586
-1086.49
-173.509
429.446
-255.937
-587.086
-443.063
-636.743
-629.691
347.071
-1619.03
939.489
-476.654
211.949
-392.403
530.966
-304.899
-616.284
1197.05
-1287.27
925.598
361.676
-1016.21
-388.01
-761.779
-828.278
1691.9
-476.779
1792.97
-1583.16
-209.808
-1556.61
1018.71
537.902
-729.494
-263.989
446.004
-182.015
-600.328
382.517
271.164
-653.681
-523.912
998.977
626.987
-349.675
-1620.26
1050.51
571.767
1103.53
-1675.3
-428.783
-286.875
-371.7
-748.201
-483.779
-328.285
494.848
1557.97
-995.762
-774.842
1497.43
656.495
-318.198
725.88
1152.36
-1878.24
310.232
321.796
-487.079
-1933.08
1720.44
212.637
735.601
-473.56
-262.041
531.825
1060.82
-1592.64
373.639
-1723.79
-233.21
1752.35
-1580.68
1073.77
506.91
-1725.59
1.80264
-521.612
420.961
1699.5
-1720.44
939.519
624.766
-1564.29
385.055
-218.107
-166.948
-425.608
-264.842
67.3787
95.2098
-359.199
-426.276
-442.444
-400.892
212.719
1510.21
378.868
-217.289
-448.311
460.418
-197.764
335.452
1510.75
995.481
-154.357
-841.124
-1104.08
1704.84
-1728.8
1063.99
-707.247
-1021.55
-1265.08
1844.99
-579.903
1155.06
-1771.17
616.105
272.494
-878.003
1675.76
43.4357
-1719.2
-491.151
-1083.05
-1733.63
-981.419
553.889
1019.6
590.228
1133.02
-1723.25
273.236
-451.689
701.281
-383.049
393.539
924.615
681.08
-384.8
-648.275
582.891
1072.54
-1655.43
-404.507
-364.234
768.741
444.703
-1661.5
1520.78
140.718
581.149
-1043.05
544.74
1083.89
-1555.65
994.039
-235.497
221.46
338.505
1904.83
450.37
-70.118
995.861
722.75
-1718.61
-697.204
1085.34
-1557.5
161.893
-571.099
196.947
263.471
-666.433
-563.592
582.528
1034.59
-711.141
-287.046
-1368.11
674.765
693.342
-410.307
755.25
72.427
-827.677
561.751
-137.166
1557.31
-207.507
279.792
-774.584
-1933.08
1664.61
1025.27
389.957
312.017
455.872
-929.86
-993.893
-1767.26
632.787
1693.76
505.035
-474.287
1210.6
1087.1
-424.71
1029.71
-976.774
490.073
486.702
700.403
1047.9
-1748.3
481.473
484.609
-1493.96
-745.397
33.7061
778.208
-412.093
-889.377
382.509
-539.166
-801.862
645.056
-577.482
1397.2
1055.14
195.331
234.115
-550.614
1618.51
-773.747
1526.09
-1727.83
575.256
1152.57
540.454
-881.585
-1732.87
1916.55
-183.682
1721.74
179.559
-544.577
374.362
-279.152
-481.355
1211
568.266
1128.32
-491.048
426.26
855.935
-458.543
-770.966
431.639
339.326
1419.04
1089.56
-518.194
1422.92
-510.504
-533.556
1044.06
-602.757
491.345
-1205.42
1692.1
1839.58
-687.212
1585.74
-646.224
-1240.97
717.059
-562.558
205.75
-396.988
453.701
-244.468
-519.337
-1246.71
1870.94
-624.235
1172.94
-553.312
1120.28
-1659.45
1699.71
-573.933
-546.472
-549.819
1720.07
-316.711
-688.033
-473.244
1223.52
-1686.93
-1860.1
613.397
313.498
-936.681
165.49
211.269
-1719.02
1204.15
514.874
1162.85
558.887
-512.237
-465.304
1192.07
179.539
218.671
588.444
1251.13
-539.178
-1238.58
1777.76
-1025.31
999.99
866.789
-204.098
-1659.05
1702.49
-510.064
1411.17
-1732.87
-349.061
10.5174
338.544
-255.121
582.394
-327.273
90.0697
484.14
779.18
-379.537
1257.53
1270.78
-413.292
850.575
-437.375
1817.47
-662.407
1586.56
-1723.73
-412.797
-760.743
308.953
451.789
-560.188
-563.351
79.7146
-1138.76
-985.356
-669.931
1655.29
-943.706
-1189.47
158.686
-430.35
-647.987
705.668
1167.44
650.028
1410.16
-591.037
1636.74
1317.85
-573.922
-486.932
194.385
-503.255
1396.8
1239.76
-564.998
-999.989
891.586
57.1067
-948.692
603.432
-506.114
1403.46
1494.99
-588.602
-382.158
382.158
-589.45
1623.48
1239.34
-486.167
1134.15
-66.4985
1848.55
-385.588
1489.38
-588.886
-507.65
1347.91
-651.415
1218.22
-566.802
1554.76
-591.64
757.228
576.331
-1333.56
-656.506
285.35
505.243
600.387
-1957.3
-999.658
1586.56
382.858
-382.858
-61.6339
385.863
436.451
401.463
-15.9646
-342.614
907.883
-517.849
-426.271
812.134
-241.283
616.923
-427.318
1548.48
-444.313
-884.097
184.25
222.928
-407.178
601.168
1250.77
-1851.94
925.902
-458.326
-363.867
126.15
-1943.02
1816.87
-445.528
173.798
1181.16
-440.391
-740.769
-297.156
-592.22
-493.897
-396.05
-476.563
255.201
1157.64
-561.612
228.139
-371.526
143.388
-22.4106
-107.67
1376.1
-1268.43
34.4507
-599.435
-586.408
-460.861
460.861
-1262.36
1985.11
-1344.38
-210.914
-1822.86
239.693
-1025.75
-974.243
-183.073
-1638.39
708.526
1229.32
-1924.98
365.17
313.98
-679.15
-1850.01
1234.27
615.743
-564.927
564.927
-959.111
-39.8996
-1866.07
-558.142
1650.85
-676.634
1636.15
-601.569
-180.653
-1703.51
-580.787
-448.726
-594.806
-473.913
473.913
-1537.81
194.528
1343.28
172.683
223.75
-396.433
488.24
507.241
996.213
-474.737
1751.3
768.762
-428.115
403.204
521.529
1702.04
-594.619
-552.96
1636.85
467.67
1812.75
-645.313
-1804.11
-1938.07
-646.988
-485.152
485.152
-600.005
219.093
-695.428
1018.78
-465.734
-1073.97
-290.961
1579.58
1852.3
1635.34
-1635.34
-269.085
740.042
1761.49
595.789
1275.15
175.356
209.699
588.727
587.892
1603.53
-1603.53
220.308
-355.662
-436.32
458.802
950.106
-460.034
-639.398
-1131
1706.26
278.368
-1656.35
618.81
-285.617
465.176
1744.64
-592.069
-214.673
-421.872
378.599
732.132
1738.56
-613.435
-511.766
-770.971
1960.53
-870.454
-1090.08
1642.75
-705.78
1223.97
-1824.94
600.975
351.815
-887.11
-185.92
-110.23
1097.78
-486.448
140.536
626.434
-1653.44
431.834
621.725
-1804.11
-583.276
1787.43
883.909
-1162.91
1760.49
-597.573
1783.83
-575.529
-1208.3
436.624
923.091
-1739.36
924.685
-1492.56
262.732
1229.83
-830.783
-1254.22
-386.019
77.7667
308.252
581.727
267.248
1030.81
-440.45
844.532
-404.082
820.546
739.972
-1560.52
644.065
1066.32
-24.5342
-663.986
688.52
-1744.33
722.778
704.884
150.533
-1122.67
1936.76
-674.551
-1262.21
-537.172
1665.49
833.85
965.675
-1799.52
1227.86
683.331
-405.993
707.937
823.008
1027.45
-586.485
1761.49
626.392
1773.56
-1185.61
-587.943
-381.172
-344.932
726.104
121.433
-1185.7
1660.54
-540.264
-1437.85
1437.85
1250.57
594.416
1351.52
206.45
-555.496
277.421
-184.203
699.091
1113.66
474.691
-295.152
-869.892
-574.824
1737.55
-1737.55
1013.37
-1013.37
987.332
1025.17
-2012.5
1837.94
-613.975
-581.108
835.532
-947.85
-1052.16
998.251
690.841
-1689.09
-522.132
-362.077
-640.089
-808.425
2042.7
-1246.42
-613.684
1002.97
974.852
1289.77
646.988
324.018
1012.68
223.046
338.731
1186.29
1756.88
-1756.88
671.902
80.2202
-391.639
-997.053
-539.987
1674.14
991.593
1008.41
-1833.28
-221.226
-359.561
612.072
-365.568
1849.51