/*--------------------------------*- C++ -*----------------------------------*\
  =========                 |
  \\      /  F ield         | OpenFOAM: The Open Source CFD Toolbox
   \\    /   O peration     | Website:  https://openfoam.org
    \\  /    A nd           | Version:  7
     \\/     M anipulation  |
\*---------------------------------------------------------------------------*/
FoamFile
{
    version     2.0;
    format      ascii;
    class       volScalarField;
    location    "4";
    object      p;
}
// * * * * * * * * * * * * * * * * * * * * * * * * * * * * * * * * * * * * * //

dimensions      [0 2 -2 0 0 0 0];

internalField   nonuniform List<scalar> 
7639
(
0.971665
0.0624907
1.36257
0.894038
-0.00506762
-0.000222651
1.34959
-0.0315344
-0.000699346
0.396853
-0.000209287
0.0139412
-0.0469563
0.20522
0.411873
-0.058557
0.99455
-0.0618316
0.00748211
-0.249874
0.279763
0.00911811
0.154833
0.72264
-0.0803801
0.999509
-0.00463649
0.251394
0.616639
0.0162039
-0.0838121
1.95134
0.152932
-0.00287361
-0.000621159
0.327361
0.0177284
1.30932
-0.0261834
-0.00200001
-0.0235977
-0.0571889
-0.223508
-0.009803
-0.00119699
-0.000484866
0.00900915
-0.0262856
-0.000403022
-0.243229
0.020967
0.238641
-0.10146
-0.00199636
0.325349
-0.0280404
0.00844517
-0.0317595
-0.128876
-0.00301987
0.000236583
0.0268504
0.205643
0.0153701
-0.00583275
-0.08153
-0.000570352
2.52019e-05
0.367531
-0.0242952
-0.000446333
-0.206704
-0.0776133
-0.133344
-0.0595656
-0.184711
1.34369
0.273311
0.27329
-0.239166
-0.0451049
1.2032
0.39156
-0.137537
-0.00861413
-0.0134378
-0.0337795
-0.0983739
-0.00387794
-0.0263245
0.630279
-0.0255017
-0.000799121
0.00767353
-0.0209996
-0.135203
-0.198824
0.00929712
-0.00950844
-0.00698735
-0.229266
0.297195
-0.0199934
-0.000119716
-0.00209377
0.647988
1.69674
-0.0297009
-4.79922e-06
0.146369
0.850132
-0.126757
-9.10347e-06
0.155356
0.647328
0.00271199
-0.123534
0.528894
-0.147717
-0.134997
-0.237881
1.15579
-0.211399
0.0600991
-0.232453
-0.00574082
-0.0738727
0.0126726
-0.00615066
-0.0820749
-0.139215
0.272589
-0.00360091
-0.00458597
-0.142327
0.824853
1.39269
-0.000103624
0.0464991
-0.29772
-0.12645
-0.168026
-0.185148
-0.127336
1.71626
-0.0545887
0.621795
-0.122617
-0.175002
1.152
0.312798
-0.0053541
-0.00873557
0.312702
0.389886
1.22947
-0.208049
-0.0467128
1.63337
-0.00036454
0.00412561
0.745235
-0.000114472
-0.0119022
-0.0237121
0.908537
0.912489
1.68466
-0.013744
-0.0181174
2.87518e-05
-0.247622
0.00270799
0.0818815
0.0504862
-0.172123
0.0511419
0.567715
-0.000792096
-0.00296047
0.911487
-0.000363407
-0.000671121
1.35969
0.0478589
-0.11577
-0.138501
-0.124075
-0.0673957
-0.291827
-0.000125381
-0.19093
0.588351
-0.0201687
0.000441539
0.728908
-0.00751408
-0.0768991
-0.0677876
3.2547e-05
0.00560595
0.841176
0.685607
1.22883
-0.104797
-0.108791
-0.202745
0.273371
0.825338
-0.00128406
0.000207767
1.62272
-0.0506458
-0.00375784
-0.182534
-0.0772257
1.13137
1.14978
-0.180191
1.85861
-0.00697077
-0.0612645
-0.235018
0.328888
-0.27297
0.847468
1.6331
0.000385982
0.0629645
0.559872
-0.0246459
0.518371
-0.00328778
1.79904
1.20303
-0.0336693
0.0177308
-0.00185381
0.554514
-0.000568514
-0.0359545
-0.277522
-0.000445865
-0.00815606
-0.0025993
0.599159
-0.000114218
-0.0273607
-0.231524
1.9454
0.246448
1.73485
-0.000273871
-0.0772571
-0.00114358
1.27724
0.0259508
1.401
0.00968492
0.00476856
0.0500767
0.284058
0.00366809
-0.00139718
0.0032659
-0.0259019
-0.10923
-0.000255624
-0.200977
-0.0225687
-0.000871332
-0.00392808
1.34759
-0.046508
-0.00475979
1.83245
-0.00903709
0.918043
-0.00127557
0.0093354
4.69116e-05
-0.133518
0.315984
0.0723575
-0.12902
-0.00253009
-0.225547
-0.0915336
-0.00110779
0.00320087
-0.0132498
-0.0447824
0.0187621
-0.00754767
-0.131437
-0.0930687
-0.129991
0.026321
-0.164225
1.2118
1.25069
-0.00931216
-0.00162283
-4.68093e-05
-0.0141511
-0.137733
0.705719
0.43415
0.000610783
-0.0128817
-0.159923
0.622397
-0.00620557
0.0228795
0.0077966
0.266011
-0.153513
1.17946
-0.0100231
0.0614147
-0.000708279
0.0266855
-0.000324818
-0.0981302
-0.00214524
0.0327658
-0.0764871
-0.157817
0.0171516
0.0564459
-0.00459461
0.130902
-0.0402027
0.335667
0.606519
-0.255265
-0.0310942
-0.094696
0.0328948
-0.269428
1.72406
-0.0131118
0.189129
1.8223
-0.00963761
-0.0108786
-0.0257989
-0.00671948
-0.0423592
0.0402404
-0.0171995
-0.0128348
0.588274
-0.000416078
0.00353855
0.000500826
-0.0210722
-0.0420776
-5.52641e-05
-0.00691602
-0.123319
1.61919
0.0218259
-0.0499133
1.53282
1.02524
0.295602
0.0355693
-0.251639
0.0317464
0.879116
-0.0661891
1.03157
-0.0792249
-0.219073
0.693559
1.04165
-0.191991
0.411692
0.839049
0.954736
0.267908
-0.0190213
-0.0262398
-0.000550156
0.0291882
-0.0676419
0.00628175
-0.000669073
-0.00998298
-0.229244
0.374156
-0.0995255
-0.0138192
-0.0235666
0.0486209
-0.0429252
0.0119821
0.739
-0.011735
-0.000137752
-0.000337888
0.000308985
-0.119808
0.573951
-0.0247518
0.172298
-0.277588
1.28543
0.0215708
0.0430408
-0.0318259
1.30751
-0.00668442
1.17276
0.634294
-0.000731127
-0.087351
-0.020494
-0.160503
0.00364862
0.321314
0.0233588
0.0401056
-0.0053642
0.555472
0.63141
-0.131578
-0.122118
-0.0140236
-0.0760281
0.306776
1.92249
-0.0762517
0.0296767
-6.56568e-06
-0.0784087
-0.0140755
0.119575
-0.241509
-0.0266848
1.36384
0.581324
-0.173475
0.762381
1.28046
0.169036
0.00771035
0.919415
-0.00557887
-0.0011526
-0.101764
0.000550043
-0.225321
0.00141372
-0.123933
0.0121677
0.742345
-0.0111113
-0.000150907
-0.238012
0.0109136
0.191274
-0.22031
-0.288789
0.079955
0.565057
0.469522
0.482123
-0.00128845
0.346207
0.360952
-0.00332323
-0.0960547
0.00388286
0.0397649
-0.00774559
0.0300454
-0.00489195
0.53717
-0.000124853
0.00126365
0.0124106
-0.123156
0.128454
-0.117799
-0.146385
-0.106464
-0.277976
0.0587351
0.894636
-0.0228348
-0.0405735
1.8171
-0.194759
-0.0443398
-0.143559
-0.0330185
-0.116202
-0.0603569
0.173979
-0.0347944
-0.000162175
0.153003
-0.000603219
1.20502
0.380828
-0.0296343
-0.0812073
-0.0011829
1.20612
1.11728
0.297885
0.586356
-0.201851
1.4345
-0.000388509
0.128793
-0.103582
0.591983
1.68427
0.267977
0.55725
-0.00971322
-0.00128212
0.518426
-0.098411
1.25998
0.198252
0.787673
-0.0424934
1.30766
1.06741
-0.0538792
-0.0456527
0.437642
-0.296123
-0.000524746
-0.0753343
-0.283117
-0.202048
0.0699486
0.0581855
-0.000786076
1.12885
-0.00533343
-0.000645082
-0.0761046
-0.00307733
-0.00140175
0.0224912
0.800506
-0.216692
1.5844
0.000392533
0.791954
-0.0652593
-0.000471122
0.000112776
0.611139
0.767848
-0.0246132
0.69956
0.000156898
0.736283
-0.252393
-0.0561341
1.33417
-0.175788
0.544172
-0.137812
0.731199
0.761276
-0.092733
-0.116934
-0.0345678
-0.0171476
-0.00125792
-0.00627231
0.979443
-0.000169918
0.706174
-0.19906
1.10807
0.673438
-0.289998
1.54687
-0.00972576
0.0375644
-0.090807
-0.111368
-0.0387131
-0.0772102
0.187124
1.77143
0.000265782
-0.0114832
-0.131639
3.84611e-05
1.22561
0.0111276
3.75321e-05
0.00122086
0.00238006
-0.0948737
0.117483
-0.00924313
-0.000537706
-0.0409069
0.0175883
-0.272094
-0.267277
0.129789
-0.000135654
-0.274636
-0.0732713
0.471114
1.08648
0.00745118
0.49493
0.000959731
-0.0704978
0.359721
-0.038709
0.861019
-0.0721919
0.144925
0.373347
0.571873
0.0289839
-0.0578314
0.673412
-0.233093
1.3022
-0.0519962
0.959211
-0.0518532
-0.00694236
0.531323
0.0159909
0.359879
0.0116644
3.2876e-05
-0.285831
0.719353
0.00881723
0.458192
-0.0684544
-0.287433
0.0559894
-0.122232
-0.00993871
-0.0485849
-0.223315
-0.14861
-0.0544845
-0.000888225
1.36445
0.477315
0.171935
-0.0012004
1.05639
2.50085e-05
-0.00110218
0.509064
0.0135768
0.632122
0.247964
0.101915
-0.0318895
-0.242525
0.0733376
0.00792875
-0.214519
-0.000113013
0.0232541
0.824969
-0.088252
-0.0165891
-0.0267371
-0.0116572
-0.00243348
1.79736
-0.0550072
-0.00334482
-3.64045e-05
0.515057
-0.152489
-0.0019503
-0.0163343
0.591308
0.361385
-0.190725
8.46055e-06
0.649255
-0.086238
0.707586
0.0971705
0.118594
-0.156867
-0.000572224
0.364451
0.333553
0.166919
-0.178322
0.973587
0.0362414
0.65736
-0.0136447
-0.0774127
-0.00235426
-0.00534501
-0.000626643
0.598412
0.893269
-0.00880201
0.11357
-0.0933651
-0.136548
-0.159229
-0.0110913
0.119959
1.75138
0.135154
-0.000320867
0.354952
-0.0211521
1.50292
-0.0681224
-0.0581012
0.000670587
-0.0662332
-0.0340648
-0.0435687
-0.0183015
0.00960498
0.163503
0.00065407
-0.216001
0.0682514
1.19105
-0.182924
0.65536
0.0122768
-0.0731845
-0.0550277
0.741588
-0.0410924
0.000651932
-0.0838957
-0.0298973
0.130003
-0.141126
-0.121374
0.043613
-0.0798146
-0.0154306
-0.2087
3.34648e-05
0.216491
-0.186111
0.569742
-0.0577387
0.357103
-0.19837
1.10236
0.0526074
-0.161732
-0.0523134
1.58871
-0.182091
-0.0712255
-0.258236
-0.0915064
-0.219886
-0.118073
0.642665
-0.0164798
0.859103
0.0521785
-0.00231987
-0.00716041
0.316084
1.95373
0.006913
-0.0633985
0.618209
0.000134724
-0.11168
0.157472
0.0653079
0.0528983
-0.00959769
-0.134163
-0.0168567
0.000174566
-0.167124
0.886201
0.0265979
-0.0901921
0.0112087
0.617302
-0.00226421
-0.00740836
-0.00215149
-0.00460101
0.220234
0.0340228
0.0206246
-0.0967578
0.000268172
-0.217121
-0.0707484
-0.239321
-0.0707726
0.0868253
-0.00127271
-0.0684716
-0.227638
0.179484
1.11364
-0.00740408
-0.254965
-0.0279777
0.0615008
0.568102
0.00262714
-0.000943731
0.469484
0.140689
0.0890757
-0.0176485
-0.0124293
-0.207393
-0.00105149
0.0111573
-0.0726421
0.971455
0.891514
-0.0570216
-0.177351
0.0430785
0.0309778
0.116366
-0.198832
-0.036437
-3.79532e-06
0.0956995
-0.130917
-0.22071
0.0356612
-0.206515
-0.00239826
-0.0177373
0.679845
-0.150095
-2.53633e-05
-0.0167386
-0.142451
-0.00100001
-0.0473287
-0.000295655
0.0252938
-0.262571
-0.0644539
-0.000126305
0.000181358
0.45067
-0.141673
1.21342
0.921044
0.0803425
-0.00347059
-0.0434108
0.00130966
-0.145483
-0.19714
0.0637512
-0.0876914
0.901137
0.0522129
0.00164704
0.0385168
-0.209174
0.011564
-0.058651
-0.21976
0.0178417
0.0947582
0.266833
0.0522149
-0.118339
-0.100829
0.643566
-0.0709445
-2.36717e-06
-0.21776
-0.247022
-0.0834114
0.0268686
0.00448955
0.0517557
-0.251938
0.139344
-0.143806
0.489381
-0.0954578
0.0363546
0.0837479
0.0813146
-0.145826
-0.154665
-0.000606631
0.509876
0.70026
0.0341637
0.741907
-0.178991
0.188239
-0.140153
0.675469
0.367824
1.74817
2.52133e-05
0.380165
0.608712
0.0638672
-0.00678904
-0.075832
0.0564786
0.000252574
-0.0757433
-0.156803
-0.0830227
-0.0912826
0.000783325
-0.100038
-0.00169323
-0.00408362
0.790267
0.0304966
0.29038
0.0897015
0.693186
0.0524125
-0.00180966
-0.165618
0.0374159
1.16164
0.00578322
-0.166334
-0.00101585
-0.00251905
0.0348394
-0.108122
-0.000144745
-0.0450292
0.125821
-0.00888272
0.000180151
-0.000211844
0.523248
-0.0123792
0.0307439
-0.00507945
0.0387762
0.0675676
0.0387011
-0.00132235
1.15789
-0.131893
0.732757
1.00761
-0.000968122
0.258567
0.408807
-0.00351891
-0.00121549
-0.00195963
0.0694894
0.0783716
-0.0320568
-0.0651767
-0.220337
0.583562
-0.190141
5.75915e-05
-0.0800979
-0.0731864
-0.146192
-0.0188977
0.0269054
0.00562471
0.117725
-0.00234405
-0.00105526
-0.0709889
-0.0189984
-0.102242
-7.18842e-05
-0.0614857
0.141354
0.0117455
-0.029458
-0.0363105
-0.0489124
-0.0382401
-0.0228382
0.049977
-0.0394564
-0.000474775
-0.00180289
0.100038
-0.0507202
-0.0217162
0.0375416
0.0151764
-0.29575
-0.0462128
0.535517
-0.052022
-0.201884
-0.0937676
-0.0930632
-0.064524
-0.0164927
0.0100497
-0.0154914
-0.0571166
-0.0665734
0.65897
0.526026
0.21304
1.08269
-0.000326295
-0.0138308
-0.0676822
-0.0340197
0.360978
-0.0834529
0.212729
-0.0180441
0.717673
-0.00849902
-0.00711771
0.086109
-0.0556925
-0.000991308
-0.0781574
-0.0257089
-0.0858419
-9.16161e-05
-0.0288367
0.00872176
-0.0722527
0.153409
0.143908
0.0795166
-0.058073
-0.128221
0.408499
-0.00558415
-0.00863249
-0.00929235
1.52175
-0.00038666
0.288081
-0.0872359
-0.0842214
-0.108433
-0.152921
-0.117359
-0.139044
-0.0745908
-0.020153
-0.000435464
-0.0186406
-0.0884315
0.359593
0.00738679
0.551126
-0.133994
-0.0548838
-0.00409128
-0.117725
-0.000459723
0.509791
-0.123198
-0.107173
-0.0976864
-0.0162615
-0.129406
-0.00748152
-0.165197
0.365101
-0.105752
-0.228743
-0.00645099
-0.110626
-0.0760583
0.0648329
-0.0141659
0.490154
-0.0105762
-0.0784019
-0.00297196
0.546773
-0.158274
-0.108243
-0.0141707
-0.0408401
-0.0120519
0.658375
0.0902891
0.714503
-0.0203817
-0.0036013
-0.00555318
-0.0101602
0.628914
-0.238954
-0.0296946
0.00149444
-0.0272541
-0.0234096
-0.00394087
-0.0448818
-0.0649056
0.218933
-0.0216573
0.0237601
1.47268
-0.246057
-0.118352
-0.229876
0.000152687
0.282856
-0.015505
-0.110074
-0.0244587
-0.145119
0.0199491
-0.00234466
-0.0126687
0.0140686
0.668163
-0.025456
-0.00781312
-0.0203194
-0.201657
-0.0361831
-0.0914751
0.0194092
-0.037843
-0.0388068
-0.0143534
0.679463
-0.186666
0.0138747
-0.0183345
-0.113165
-0.059231
-0.200389
-0.00614263
0.336205
0.0965279
-0.0341432
-0.00756012
-0.0580005
1.57062
0.674601
-0.0485206
-0.00254279
-0.0104375
0.0325779
-0.0173985
0.0877468
-0.00181026
-0.055078
-0.00867072
-0.0719198
-0.092498
-0.00463889
-0.0428323
-0.00595426
1.01774
-0.0279486
-0.0500283
0.0237744
-0.00847657
-0.122658
0.260414
1.39576
-0.0462862
-0.0489492
-0.00926981
-0.00203191
7.52711e-06
-1.87586e-05
-0.0436502
-0.00291399
0.421339
-0.00293298
-0.00794944
0.0359312
-0.00113369
-0.179358
-0.183241
0.0722294
0.157814
0.107777
0.221193
-0.103471
0.330281
0.260621
0.344693
0.429722
-0.0552531
-0.00384067
-0.0243299
-0.204659
-0.0153025
-0.0639012
0.181642
1.09216
-0.161769
-0.00211578
-0.000127697
-0.00644424
-1.60711e-06
0.0411449
-0.00242635
-0.0192068
-0.192734
0.00238303
0.0114926
-0.000960473
0.268448
-0.0656074
-0.0624069
-0.00524919
1.0282
0.952141
-0.0432979
-0.177355
-0.114572
-0.100571
-0.0613991
-0.00817615
-0.228239
-0.0983997
-0.165738
-0.0787253
-0.000217191
0.652179
-0.0333557
-0.0416106
-0.089015
0.0788038
-0.00232652
-0.0361738
-0.00598912
0.0589134
-0.0065877
0.590034
0.00153865
0.0429038
-0.00181274
-0.130952
0.0377563
-0.00330737
0.0639709
0.00183817
0.149887
0.42538
0.00913358
-0.00632237
-0.000547834
-0.00250775
-0.00220918
-0.24278
0.437178
0.126745
-0.00117761
0.0417331
-0.00200307
0.752245
-0.237323
0.843248
-0.173434
-0.00197524
-0.00124454
-0.0316177
-0.0243847
-0.00274702
-8.13083e-05
0.104808
0.118843
-0.00103584
-0.00145487
-0.0826447
-9.85104e-05
0.572522
-0.00410131
-0.210217
-0.0798276
-0.0275247
-0.220113
-0.239156
0.520416
-0.0444476
-0.0845891
-0.00138887
-0.225216
-0.0858073
0.106386
0.390945
1.12301
-0.00513716
-0.235713
0.0595898
1.01096
0.157752
-0.000522373
-0.0261116
-0.0176485
-0.0214891
-0.191809
0.341665
0.000800014
0.0895418
0.0134427
0.303845
-0.00228199
-0.000531967
-0.12121
0.928054
-0.216803
0.519811
-0.00541194
-0.000883798
-1.09568e-05
-0.196294
-0.167453
-0.00148353
0.395226
0.0476154
-0.0230863
1.27953
-0.00171271
-0.0159975
-0.230763
-0.0554373
-0.00991848
0.469067
-0.159772
-0.000726275
0.0596814
-0.000761227
-0.000438542
0.492541
0.021494
-0.00198031
-0.206222
-0.101663
-0.0150887
-0.0670248
0.0102076
-0.0938131
0.00713574
-0.0151701
-0.253499
-0.152933
0.0942168
-0.00397178
0.544963
0.695955
-0.187157
0.0425394
0.0796553
-0.0185906
0.56967
0.396542
-0.11542
-0.00070821
0.0430434
-0.220357
0.0594542
-0.111704
-0.00911973
0.189105
-0.112767
-0.000600071
-0.000318235
-0.0785209
-0.0975223
-0.106719
0.0419446
0.0924761
-0.175859
-0.000671296
-0.00599152
-0.000911467
-0.124776
-0.000104171
-0.00839252
-0.12769
-0.239944
0.424913
-0.0129234
0.0180405
-0.0869542
-0.104615
-0.000560485
-0.185542
0.405832
0.539936
0.000102453
-0.000487586
0.549905
-0.0108888
-0.236427
-0.162066
0.0144291
0.0020754
-0.274692
-0.0181126
0.563017
-0.225734
-0.00641396
-0.0339415
-0.199142
-0.00251109
-0.00105487
-0.00395969
0.0301621
-0.203918
0.516174
-0.000920242
1.54183
0.0434439
0.0005107
-0.00418662
0.00109913
0.00125703
-6.29353e-05
0.000602209
-0.211211
-0.00313038
0.00186762
-0.000866732
0.487725
-0.0245721
-0.000843984
-0.000191678
1.17685
-0.0885687
-0.0261001
0.0049105
-0.00313001
0.238021
-0.000424945
-0.0480268
-0.193408
0.00929806
-0.0264841
-0.00042016
-0.000899746
-0.123393
-0.177672
0.0308285
-0.190159
-0.120021
-0.000122675
0.0882084
0.131256
0.387423
-0.0074776
-0.000681849
-0.221459
-0.026199
-0.00216434
-0.196271
-0.000598257
0.17044
-0.000380255
-0.00554882
0.100603
-0.00889816
-0.231612
1.43377
-0.00703108
0.00119797
-0.205156
-0.18053
0.0399382
0.0202127
-0.000657288
-0.126953
-0.000365035
0.659584
1.85378
0.318571
0.0129797
0.0154663
-8.14929e-05
-0.11229
-0.000247749
-0.026765
-0.00735344
0.00161667
-0.0144687
-0.0387613
-0.000535926
0.0037248
-0.031629
-0.0013599
-0.0395813
-0.0683142
-0.0060769
-0.00488525
1.66669
-0.00299392
0.0104163
0.00105537
0.0585562
-0.198351
0.0411771
-0.000769006
-0.000434307
0.0115755
-0.000474865
-0.000124885
-0.0464544
0.00299099
-0.000106038
-0.202255
-0.00937516
-0.224978
-0.00710148
-0.000295129
-0.013432
-0.0184676
-0.0609166
-0.082643
0.00980932
0.00227835
-0.00200941
-0.00857639
-0.00034116
0.903873
0.00665429
-8.69165e-05
0.00252471
-0.00870265
-0.00153997
-0.252272
-0.217775
-0.000560094
-0.0299436
5.83542e-05
-0.0107937
-0.000318163
0.142035
-0.00060792
-0.000803869
-0.0144755
-0.000100784
0.0571377
-0.000982602
-0.00546688
0.0784086
5.24952e-05
1.202
-0.211825
-0.166477
-0.000109207
-9.16213e-05
0.00813326
-0.0051309
-0.195829
-7.39535e-05
-1.04353e-05
0.00318238
-1.33129e-05
0.00163787
0.00192199
-0.00197064
0.00338724
-0.209348
1.48263
-0.121811
1.09733
0.0384941
-0.0666351
-8.15001e-05
-0.00379407
-0.0515096
0.000628372
0.00123014
0.000749833
0.269562
-0.00569286
-0.000930595
1.49035
-0.00231926
0.00252605
0.00215947
-2.10712e-05
0.16151
-0.00931227
0.00486416
0.00054479
-0.00226558
-0.000295634
-0.00392197
-0.174613
-0.00179462
-0.00658044
-6.82689e-06
0.000412036
-0.00110525
0.648061
-0.00189972
-0.00117145
-0.27468
0.0160925
-0.000362788
-0.00576007
-0.000263873
0.597965
-0.285226
-0.00127139
-0.00166592
-0.00767866
-0.000663843
0.227635
0.416958
0.171481
0.00218477
-2.99444e-05
-5.07941e-06
0.239156
0.0011033
-0.241801
-0.0804566
-0.0651089
0.00179777
1.66247
0.0083524
0.683035
-0.060245
-0.118236
0.605106
-0.00152842
-0.258981
-5.53226e-05
-0.0380241
-0.198055
0.000236483
-0.177857
-0.00408466
-0.00255221
-0.0219165
-0.173109
-0.170626
-0.0125606
-0.232437
-0.178929
-0.0008053
-0.050431
-0.000217899
-0.151413
-0.000120719
-0.00079934
0.0975465
0.578961
-9.35705e-07
-0.181754
0.0152502
0.000323004
-0.0836719
2.52524e-05
-0.0571563
-0.00110637
-0.156174
0.000560914
-0.000372198
-0.00859662
-0.000196598
0.563885
-0.12375
0.309799
-0.000127186
0.00269816
-0.132024
3.44074e-06
-0.226993
-0.263111
-0.223112
1.55892
-0.0274224
-7.6127e-05
0.107754
-0.167569
-0.0104115
-0.000102604
-0.000365707
-0.190718
0.000559501
0.00377939
-3.21024e-06
0.00069491
-0.114457
0.428548
-0.153457
0.372378
-0.022613
-5.84623e-06
0.0284722
-0.18401
-8.96452e-05
-5.95992e-05
0.00138454
0.000276118
0.00173503
0.810846
0.144126
0.00024112
4.71635e-05
-0.265238
0.693475
0.622029
-0.000192956
-0.146439
-0.0764761
-0.0410593
-0.193594
-0.0338236
-0.0123111
0.504149
-0.000174697
-0.107626
0.592658
-0.1958
-7.24843e-05
-0.246995
-0.00074547
1.00025
0.119157
-5.80393e-05
-0.000117403
0.650107
1.60663e-05
-0.000770585
-0.0487558
5.43689e-05
0.850144
0.0150286
-0.0307272
-0.262017
-0.0158961
-0.246167
0.640637
-0.0331982
-0.0175427
0.00425739
-8.27822e-05
-0.00431675
-3.27207e-05
-6.75583e-05
0.116294
0.634795
0.533912
-0.0018599
0.824842
-0.0418108
3.29796e-05
-0.18491
-7.49527e-05
-0.113031
0.123492
-0.0571846
0.0190029
0.00781064
-0.0389291
0.00107165
-0.0070392
0.0855511
-0.0121812
-0.000200353
0.00012579
-0.000261643
0.127933
0.000233751
-0.0851908
0.869943
-0.0251601
0.000215695
-0.0145281
-4.20099e-05
0.327292
-0.00150547
-0.000278297
-0.000360708
-5.62823e-05
0.726083
-0.000642096
0.816328
-0.241811
0.000489471
-0.198896
-0.00204239
0.556663
1.52936
-0.0059409
1.01836e-05
6.81841e-05
-8.98192e-05
0.506362
2.95639e-06
0.00444186
-0.0987115
0.775655
2.87204e-05
6.46004e-05
1.15902e-05
0.000106001
-0.0843023
7.79605e-06
0.927495
-0.0634516
-0.000522216
0.000126734
-0.00867613
-0.118833
5.59558e-06
-0.000239419
0.588785
0.000142097
-0.129383
-0.141636
0.000574582
3.86263e-06
-0.249782
5.33132e-06
0.58359
6.24112e-05
-0.00186708
4.99943e-05
-0.000739222
0.34473
1.30237e-05
-0.00686722
3.48857e-05
0.0581223
-0.0142032
-0.0266606
0.00434696
0.546768
-0.00112755
-0.00033801
-0.036913
-0.0357043
-0.00102485
-0.000217675
-0.00375336
0.000170589
0.639107
-0.0413049
1.53556
-3.31744e-06
-0.0318995
-0.000651367
0.487749
0.000241125
-0.105397
0.000100329
-0.00663374
-0.134922
-0.000971406
-0.0647997
-0.197335
0.0218178
-3.74088e-05
-0.201499
-0.00139692
-0.00123911
-0.0231192
-0.0452272
0.00546348
-0.000204411
-0.00182804
-0.0037395
-0.00537286
5.52478e-05
-0.00507909
1.48134
0.000414028
-0.0135849
-0.14104
-0.292789
-0.251658
-0.191738
-0.0884325
-0.00218541
-0.0539946
0.000325161
-0.000342364
1.49825
-0.000395513
0.638354
-0.00188653
0.00172118
-0.00476249
-0.151033
-0.00175344
0.00328565
-6.40047e-05
-0.00164843
-6.44793e-05
-0.000334589
-0.0614064
-0.000457689
-0.000111684
-0.000349654
0.000628488
-4.26773e-05
-0.169147
0.826919
-4.26233e-05
-0.00250773
0.00013686
0.000130171
-0.00350087
3.93439e-05
-0.00379059
0.00122072
-0.00153268
-0.256234
-0.00288577
-0.00759929
2.06042e-05
-0.00627572
0.00142764
-6.45079e-05
-4.19042e-05
5.80711e-05
-0.00331746
0.00233856
-0.17647
-0.105138
-0.259504
0.00264388
-0.00737488
0.0179571
-0.261506
-0.000396899
0.0668241
0.0291595
-0.0043484
-0.0486834
-0.225846
1.38719
-0.00177302
-6.4071e-05
0.00376094
0.000207865
7.58959e-05
0.280343
0.0157342
0.321422
-0.131839
1.3393
-0.00217624
8.15092e-06
0.000651357
-7.6558e-05
-0.00568126
0.551144
0.748533
-2.31208e-05
-0.000711716
-7.22182e-05
0.715601
0.0862958
-0.0197959
5.138e-05
8.25178e-05
0.0302755
-0.00289547
-0.27812
-0.0679785
0.000101716
0.0146548
-0.120688
-0.000253058
0.00762088
-0.000278647
-0.183353
-0.0073943
0.525862
7.18612e-05
0.00699655
0.000315335
6.38851e-05
0.000738642
-0.0929549
6.33036e-05
-0.00379433
9.51809e-05
-0.0789837
-0.183161
-0.0119185
-0.0256907
-0.0354047
0.0376892
-0.0358223
-0.0103312
0.000283442
0.00045327
8.64508e-05
7.57356e-05
-0.000236428
0.03798
-0.215942
0.00211267
-0.147062
-0.0127839
-0.178595
0.000369254
-1.04698e-05
0.00548532
-0.0761313
7.74596e-05
-0.149856
-0.0584128
0.127885
-0.142675
0.000111884
-0.0141374
0.000829523
-0.215757
0.475143
4.80945e-05
-0.231397
-0.0873169
-0.0173726
0.000159947
-3.68485e-05
0.122948
-0.0670996
0.000100851
-0.0277683
-1.83093e-05
0.000919809
0.445712
-3.60393e-05
1.37014e-05
-0.000353059
0.000145544
0.00377905
0.00037444
-0.0211656
0.000998685
-0.0510839
0.00464645
-0.000871282
-0.11982
-0.168753
-0.0257433
-6.47011e-05
9.09888e-05
-0.208302
0.0240358
-0.18821
0.000121887
-0.0212079
-0.000152972
0.00010334
0.286615
-0.028499
-0.0115077
-4.3511e-06
-0.0704227
0.000209919
-0.261846
0.000113588
-0.295034
8.04259e-05
-2.61714e-05
0.00036001
0.00427834
-0.151397
-0.072959
-0.266789
6.7589e-05
0.000408997
-0.301856
-0.0848029
-0.0343768
-2.07458e-05
-0.0484765
-0.190537
-0.30731
1.49806e-05
-3.28072e-05
1.96508e-05
-0.168626
-0.255526
0.00303114
-0.0444659
-0.000233111
0.793952
0.00039777
6.12437e-05
0.000647808
-3.49532e-05
-3.57318e-05
-0.0148634
0.00048691
-0.0104752
-0.243621
-0.0524995
-0.233579
0.000169326
-0.000214402
0.214826
-0.142631
-0.0191822
0.406262
2.20358e-05
-5.5941e-05
-5.13869e-05
0.437776
0.000743828
7.55797e-07
-1.88525e-05
-0.21404
-0.0619956
2.54783e-05
0.000343602
-0.0375085
-0.0259397
0.00180476
0.757154
-0.218108
0.000899265
1.86869
-7.28429e-05
-0.00284514
-0.0322907
-0.313493
2.70543e-05
-8.76667e-06
9.15635e-05
0.0201037
-0.118043
-0.00139283
-0.192892
-0.0313979
0.00011575
-2.02648e-05
-0.0409581
0.00539244
0.0249629
-0.10997
-0.181255
-0.154038
0.0813776
-0.10422
-0.000263395
0.00150789
0.067016
0.00227917
-0.000320947
0.00321087
0.00013099
-0.000371957
-0.0483812
-5.07571e-05
-0.000117326
0.159342
-0.0141315
-0.000668561
-0.000159491
-2.30858e-05
0.821412
-0.0268542
0.00330645
-0.109386
0.000978462
0.000847829
0.00073271
-0.000202722
0.00205996
-0.148212
0.0749782
-3.91986e-05
-0.000671256
-0.159535
-0.118537
0.186439
-0.00202408
0.00760204
0.0724996
7.77292e-06
0.000256921
-0.167404
9.36863e-05
0.571333
3.80362e-05
0.0173347
0.000713234
0.000952063
-0.278799
-0.0297599
-0.071543
-0.00990766
0.000111502
0.0280577
0.231336
-0.0494331
-0.000554095
0.345194
0.55745
1.48007e-05
-0.205273
-0.00027609
-4.19771e-05
-0.000186585
-0.00232978
0.0798258
-2.03928e-05
0.00105304
-0.0972543
-0.102709
-0.0880575
1.00348
7.64406e-05
-0.000287742
0.584874
-0.00783218
-0.0154617
-0.00268551
0.575698
0.000188544
-0.00129035
0.000196921
0.000116982
0.000131929
0.000151495
0.000308833
-0.0715825
3.51184e-05
-0.0134557
-0.177777
0.814194
-0.000584727
-0.000207454
0.0194826
0.312087
-0.161327
-0.00309518
-0.277371
1.00036
0.000180642
1.27586
-1.9274e-05
0.0138629
0.0978114
0.00185164
1.35991
-5.37293e-05
-2.60242e-05
0.00485801
0.000129582
-0.00355027
0.00111038
4.79212e-05
-0.00806691
4.82381e-05
-0.000599104
-0.0135176
0.803366
0.205804
0.0885538
-0.175365
-2.2323e-05
-7.39247e-05
0.0142068
-0.195502
-4.04121e-05
-0.186213
-0.000223441
0.37556
0.233404
-0.128473
-0.00555862
-0.0455576
-0.00406129
-0.0594606
0.0183478
-0.0287453
0.245002
8.62946e-06
0.861914
0.178286
-0.00237638
0.716513
-0.054057
-5.2505e-05
0.000100193
0.000279927
-0.000874027
-0.000495707
0.809867
-0.00404393
0.82777
-0.00426061
0.570681
0.75164
0.447279
-0.0285954
-2.11412e-05
0.000274695
-0.0427891
-0.261076
-0.187636
0.00618945
8.60583e-05
-0.153148
-0.00127471
3.65513e-05
0.00421665
-0.0044262
-0.0025558
0.131459
0.000314924
-0.19517
0.22821
0.000242912
0.00114455
-0.0546126
-0.215682
-0.00302279
-0.00214259
5.48064e-05
0.00106145
0.357487
-0.0665248
-0.184805
0.00543142
0.387584
-0.15428
0.000149995
9.55658e-05
0.124873
-0.000363017
0.337931
0.0113565
-0.0547157
-0.00157694
0.0067872
-0.141242
-0.000135549
0.00209473
0.0242399
-0.293673
0.553099
-0.250535
-0.107462
-0.000675999
-0.000190888
0.0274837
0.000196102
-0.299919
-0.257226
0.00239439
0.0143307
0.0155523
-0.258466
0.00271849
0.000815475
0.000162224
-0.162072
0.00012036
0.00237361
0.434632
0.615305
-0.264935
0.188665
0.188604
0.116129
-0.000652308
0.0517782
0.00051946
3.63513e-05
-0.000293295
-3.45691e-06
0.000113433
-0.00147901
-0.0311598
-0.133835
-0.0398148
-0.109945
0.206739
0.172096
0.0168653
-0.245895
0.000687477
0.0196453
0.0465585
-0.00160648
0.290994
-0.00481273
-0.0439164
0.0507096
0.0225579
0.00458141
-0.0165267
0.175983
0.00345017
-0.0798181
-0.06628
1.59128
-0.0978314
0.310093
0.138415
-0.139211
0.00905209
0.000439964
-0.0107194
0.000244153
-0.0108919
-0.100917
-0.000288344
-0.000183019
0.943887
-0.0134691
-0.168231
-0.0762477
0.000855717
-0.00544048
-9.53617e-05
3.31994e-05
0.159882
0.000168925
-0.0121227
0.295599
0.0262904
0.00465052
0.0758587
-0.0236055
0.0174911
-0.236119
0.00363745
-0.0182218
-0.222983
-0.00352218
-0.033139
0.00317793
0.00575797
0.00411749
0.156423
-0.0012945
0.0234331
-0.218625
-0.0827496
0.00131901
-0.218857
-0.0610176
-0.070016
0.000450076
0.0272887
-0.246087
-0.00347301
-0.0197294
-0.204606
0.00238046
-0.00485618
0.752315
-0.0797116
-0.000173233
0.0338443
-0.192654
-0.00435341
0.664166
-0.00842684
0.00423241
0.223732
-0.00592714
0.0344429
0.453556
0.000277328
0.00485706
0.000755304
0.000160162
-0.0182303
-0.0276411
-0.000533858
-0.0978711
0.369038
-0.152115
-0.255728
0.00484091
-0.0134124
-0.00244604
-0.120724
0.000117305
0.0736755
0.000196344
-0.0643816
-0.00807505
-0.0201481
0.0127624
0.436784
-0.267994
-0.000219694
0.691169
-0.00779098
-0.00948332
-0.240673
-0.276853
-0.0629794
-0.000124847
-0.00442362
0.0298751
-0.0126638
-0.019441
0.00183358
0.326584
-0.161696
-0.0454891
-0.0272328
0.109612
-0.0075166
-0.00216642
0.00702379
-6.63749e-05
-0.012712
0.425627
0.00331777
-0.257272
-0.000232744
-0.030005
-0.0134463
-0.288618
-0.0467599
-0.315316
-0.000265815
-0.000256808
-0.0130635
0.04394
0.00774063
-0.327657
0.336442
-0.192164
0.000796806
-0.334761
4.89588e-05
-0.335173
-0.102712
-0.319266
-0.308113
-0.288923
-0.228572
-0.0894904
-0.0213873
0.0499063
0.138801
0.228543
0.544743
0.648139
0.75433
0.931483
-0.0328722
-0.0297978
0.263443
-0.0618829
0.00376334
0.0765871
-0.161967
0.00226623
-0.00259779
-1.25532e-05
-0.0571017
0.072096
0.000186536
-0.0012499
-0.0426653
-0.0111298
-0.331427
-0.044637
-0.223289
-8.32251e-06
0.00240699
-0.000216138
-0.172759
-0.0353067
-0.144116
-0.0355049
0.00717709
0.000955867
0.0194634
-0.000135776
-0.0164087
-5.68911e-05
0.00157336
-0.0196392
-0.0464597
-0.000940874
0.00137798
0.187848
-0.0416822
0.261363
-0.3353
-0.0268602
0.433427
-0.0759191
0.0154011
-0.0865817
-0.0132728
-0.0504137
-0.0486637
1.0927
-0.0050309
0.000294532
-0.0235678
-0.0355821
1.22695e-05
0.300659
-0.016033
1.02844
-0.148825
-0.182937
-0.107762
0.194758
-0.0184071
-0.000204202
-3.24298e-05
-0.0170685
-0.205753
0.000240778
1.1451
-0.0112594
-0.0198618
-0.000318586
-0.00156272
-0.0240128
0.330464
-0.0920378
0.432438
0.00270475
-0.0577536
-2.67705e-05
0.108099
-0.0303348
0.0784984
-0.0361837
-0.0221574
-0.00292661
0.00543083
0.0485447
-5.13469e-05
-0.0373994
0.00235145
-0.00161108
0.00194931
-0.055706
0.000977932
0.510415
-0.0429183
0.0157953
-0.158222
0.144218
-0.171078
-0.0451666
0.166778
-0.0736866
0.617697
0.0103438
-0.0138826
-0.199838
-0.00279387
-0.000198768
0.001844
0.000380504
-0.00877305
0.0181119
0.000365517
-0.053521
0.0879241
-0.0125645
0.000178567
-0.013447
-0.169913
0.527628
-0.131352
-0.187167
0.0335012
0.309114
-0.00509384
0.194032
-0.0475208
0.0216028
0.143881
-0.23121
0.395222
-0.000218896
-0.11647
0.00476277
-0.00611794
-4.71171e-05
-0.0244273
0.394362
0.00375076
0.791614
-0.0835741
0.0606377
-0.0637874
0.000622563
-0.0059609
0.247467
-0.224925
0.78485
0.143935
0.0978117
0.594748
-0.167383
-0.0173639
-0.247135
0.00280606
-0.135415
0.543635
-0.0116582
1.0296
-0.00562673
0.336935
0.000416666
0.366653
0.468881
0.00644971
-0.0794995
-0.00150796
-2.48695e-05
0.0215709
0.00854907
-0.155569
-0.142297
-0.0229378
-0.16073
0.566259
0.203334
-0.160073
-0.0627287
7.54774e-05
0.0172674
0.787762
0.0188437
0.571465
-0.234327
0.0218148
0.000356633
0.00162396