/*--------------------------------*- C++ -*----------------------------------*\
  =========                 |
  \\      /  F ield         | OpenFOAM: The Open Source CFD Toolbox
   \\    /   O peration     | Website:  https://openfoam.org
    \\  /    A nd           | Version:  7
     \\/     M anipulation  |
\*---------------------------------------------------------------------------*/
FoamFile
{
    version     2.0;
    format      ascii;
    class       surfaceScalarField;
    location    "31";
    object      phi;
}
// * * * * * * * * * * * * * * * * * * * * * * * * * * * * * * * * * * * * * //

dimensions      [0 3 -1 0 0 0 0];

internalField   nonuniform List<scalar> 
44078
(
-595.075
671.988
-76.9126
1069.8
-1075.82
6.01981
-333.995
380.394
-46.3989
219.289
-257.41
38.1208
-497.841
497.841
212.803
-259.097
46.2935
-390.629
374.865
15.764
33.9374
-571.833
537.896
664.878
-834.164
169.286
-1009.41
1102.36
-92.9493
564.273
-154.836
-409.437
-534.459
535.129
-0.669663
-687.623
582.551
105.072
-859.803
868.859
-9.05581
283.182
63.5448
-346.727
384.23
-9.96708
-374.263
814.311
-666.931
-147.38
-424.827
421.94
2.88757
160.372
314.829
-475.201
289.012
-355.037
66.025
-593.84
81.7236
512.116
724.992
-60.1145
48.9683
-382.963
136.322
-488.9
352.578
204.506
-77.6213
-126.885
1072.63
-2.83196
659.687
-680.801
21.1137
-300.952
36.9925
263.959
321.992
-38.81
-444.528
543.829
-99.3009
958.246
-246.313
-711.933
-685.952
773.939
-87.9867
253.873
-220.343
-33.5301
482.93
-77.118
-405.812
93.2221
-394.174
259.704
-430.982
171.277
460.194
-606.43
146.236
290.438
-43.1175
-247.321
826.417
-981.816
155.399
1064.6
-238.182
-1018.45
1035.9
-17.451
397.386
-85.1264
-312.26
704.096
110.215
182.072
-313.409
131.337
1228.5
-777.722
-450.774
-590.965
146.437
535.306
-538.694
3.38805
230.466
645.586
-876.052
226.661
537.12
-763.782
-103.256
563.45
-395.36
184.172
211.189
-6.93242
-226.416
233.348
-677.63
-8.32198
236.346
-23.5427
422.973
-38.7424
-290.217
-60.2676
350.485
523.392
-499.132
-24.2595
-34.3679
-559.472
-466.879
48.102
418.777
-293.636
-38.9545
332.59
799.476
17.5795
-817.055
-409.138
569.509
-16.1604
-246.382
262.542
-224.403
484.108
-359.278
462.576
-103.298
255.117
208.516
-463.634
493.892
-119.255
-374.637
429.548
-51.6229
-377.925
-430.345
-14.9826
445.328
-986.894
-31.5555
1068.51
4.11676
336.457
243.101
-579.558
-246.948
548.854
-301.905
190.702
43.2502
-233.953
-430.056
380.207
49.8483
-393.947
395.357
-1.41037
308.977
-162.379
-146.599
-249.798
-57.4746
307.272
-699.271
16.5294
682.742
404.223
-83.8397
-320.383
-248.367
248.367
64.1428
-760.661
696.518
-667.527
72.452
-947.208
848.242
98.9657
-321.698
-68.9309
-42.0274
232.143
-190.116
532.593
-115.508
-417.085
-644.397
-43.2261
652.286
-69.7353
91.3072
82.9753
-174.282
-360.203
100.68
259.523
-305.002
55.2048
847.837
-621.176
583.183
-609.911
26.7287
216.391
-89.866
-126.525
-393.299
163.549
229.749
-33.3728
259.832
-226.46
-846.808
847.698
-0.890153
-38.7709
-152.635
191.406
291.242
7.1123
-298.354
-711.433
12.1622
-261.389
280.339
-18.9495
778.713
20.7628
433.027
-646.182
213.155
204.171
-211.103
-767.04
834.337
-67.2972
674.114
-713.066
38.9527
74.5995
577.687
943.823
-846.983
-96.8399
-207.245
244.933
-37.6885
194.378
59.4954
352.756
132.072
-484.828
1009.1
-256.888
-752.214
16.7468
564.6
-581.347
-11.9861
-587.907
599.893
542.349
-205.892
131.851
426.009
-557.86
-302.542
405.489
-102.948
76.7106
-814.819
738.108
-701.117
454.169
-13.7475
-205.087
218.835
27.038
-861.874
834.836
-323.396
339.578
-16.1826
-17.2239
272.341
23.9227
-891.184
867.261
-375.879
355.802
20.0778
-91.9776
-332.85
22.7171
-297.08
274.363
706.201
-787.585
81.3843
726.008
-860.301
134.293
-163.07
345.142
182.415
126.563
221.06
-208.672
-12.3875
301.079
-326.545
25.4669
-135.856
568.883
632.186
326.061
154.874
102.422
-257.295
272.963
-311.69
38.7271
211.314
-257.698
46.384
-28.6085
319.85
-362.816
-13.063
2.1143
-181.869
179.755
215.686
-54.9978
-160.689
181.126
827.976
-198.071
-739.273
937.344
-101.055
-396.786
523.072
12.2338
237.722
-222.373
-15.3496
281.229
-216.068
-65.1609
8.55184
-228.12
219.568
-397.264
642.394
-245.13
45.2068
515.832
-561.038
984.158
-886.796
-97.3614
790.816
-787.073
-3.74292
-566.729
-243.443
810.172
-145.294
722.01
-576.716
451.86
-442.798
-9.06155
-259.19
15.2428
243.947
6.90202
-751.13
744.228
-184.67
-210.69
-241.965
228.885
13.0795
241.227
-21.9381
31.7751
1020.85
-572.448
-448.4
735.192
-933.263
-396.75
94.2083
8.85262
206.834
16.5959
-778.34
761.744
-90.3516
-856.857
415.217
-450.789
35.5716
-106.857
832.865
51.8919
-736.946
685.054
-238.487
-20.7025
272.963
19.1243
243.204
-262.328
-431.583
431.583
81.9132
680.803
-762.716
-310.679
49.2899
-580.368
597.114
343.853
-312.414
-31.4385
-777.827
-63.2643
841.092
-157.211
455.041
-297.83
464.075
68.5181
430.465
-440.946
10.4806
271.254
-59.9392
-190.302
-352.07
542.372
499.401
-380.531
-118.87
-327.32
20.97
306.35
786.636
-80.4347
-518.39
-82.3455
600.735
-660.989
660.989
-134.017
506.418
-372.4
97.1728
-318.939
221.766
-919.753
353.024
305.391
-355.445
50.0544
436.309
15.5503
793.317
-459.675
-333.642
932.755
-84.8502
-847.905
72.0266
144.365
-847.677
614.81
232.867
-35.6149
280.991
-245.376
-202.39
223.579
-21.1893
-47.266
-487.193
875.734
-890.436
14.7015
-83.6135
428.7
-13.4831
789.681
-795.618
5.93767
244.238
-6.51562
33.8039
-241.049
822.117
-963.799
141.682
277.934
-337.497
59.5633
570.374
-570.374
899.932
-93.2144
-806.718
594.049
73.1148
-667.164
65.9547
-332.409
266.455
-212.11
284.857
-72.7466
-480.525
323.314
51.7545
737.926
-392.655
528.976
244.984
-172.957
-684.195
-176.106
485.139
-630.434
453.093
-500.562
47.4689
-908.276
1045.38
-137.109
-578.75
555.299
23.4501
507.068
-581.492
74.4236
130.162
742.836
-872.999
211.142
530.874
-742.016
723.358
505.138
322.688
741.911
319.325
-230.76
-88.5651
-291.836
291.836
370.266
-401.091
30.825
-27.0714
1095.58
267.904
-320.967
53.063
531.586
-486.38
-297.43
-562.373
551.271
-564.449
13.1772
-28.9053
904.639
259.729
-295.344
-238.725
201.584
37.1408
498.676
-587.343
88.6668
-197.476
959.151
-761.675
588.444
-81.3758
772.601
-382.022
-390.579
337.204
-48.1918
471.972
548.877
-219.635
177.608
-743.832
59.6374
-945.796
37.52
477.064
46.3282
-680.026
891.167
-707.664
-59.3761
181.497
-203.303
21.8062
-73.9902
915.306
-841.316
-38.0609
-817.788
855.849
178.291
-176.177
61.5692
164.831
-226.401
-6.78615
-365.747
372.533
330.47
-307.753
-615.552
218.288
-278.031
466.064
-188.033
908.572
-678.107
303.672
15.6533
297.596
10.611
-308.207
-564.194
193.412
370.781
459.32
-28.8549
546.298
-736.6
-379.414
-14.5328
646.004
-746.16
100.156
-181.486
135.284
46.202
-655.985
638.875
17.1097
235.297
-216.173
69.0686
175.915
-744.534
826.447
-340.62
335.644
4.97682
67.9102
-361.797
293.887
256.625
-202.321
-54.304
525.609
-328.124
-197.485
11.5632
-345.762
334.199
-496.657
484.671
-86.5334
314.303
-227.769
-663.638
162.634
501.003
-357.42
-35.8794
653.637
6.04991
443.924
-20.9519
-189.673
43.1639
146.509
-22.5537
735.938
-713.384
-864.821
994.983
318.572
-153.483
-165.089
677.282
-775.051
97.769
426.233
346.368
706.067
59.9114
-765.978
818.113
81.8198
565.842
-540.757
-25.085
1093.74
-1012.33
-81.4094
1.52933
-291.255
289.725
302.588
-4.9918
65.6348
138.871
212.898
8.16166
197.825
-194.827
-2.99819
137.559
152.152
-289.711
-301.022
281.254
19.7678
-173.168
-294.963
468.131
417.944
-551.961
-315.757
198.784
-187.394
-11.3909
186.044
1010.41
-568.819
-441.586
525.55
-109.029
-416.521
167.846
506.268
81.3057
484.536
20.4572
-701.102
716.665
-15.5632
41.0775
-544.908
503.831
-101.985
-244.046
346.031
-447.359
38.5806
408.779
-140.113
-335.724
475.838
779.976
-1.26285
25.4393
186.981
-387.381
200.4
177.09
-263.624
-921.032
850.164
70.868
-290.908
305.085
-14.1771
678.105
-90.5005
-587.605
1046.99
-603.8
-443.193
197.118
-186.665
-10.4537
225.361
-121.023
-104.338
-419.679
417.412
2.26679
661.785
-30.254
-631.531
-697.515
-3.58684
380.011
24.2116
-587.854
467.163
120.691
585.743
-577.72
-8.02265
-855.761
44.4178
811.343
856.378
33.1966
-889.575
-423.973
283.86
-205.825
16.1521
-324.894
543.275
-218.382
-177.35
-61.3748
754.991
-793.052
-136.973
198.542
558.347
-180.811
-377.535
-123.297
-308.285
213.175
-213.129
-0.0466668
619.591
42.1939
683.268
-608.668
26.1594
-301.361
275.202
838.242
-876.665
38.4226
-324.44
12.0258
960.038
-962.895
2.85678
46.5146
229.659
-276.174
680.13
-34.1258
572.612
-591.941
19.3291
-827.041
854.079
197.379
-211.127
786.682
211.953
747.198
193.47
165.494
-358.963
-294.248
-5.22215
838.998
-90.3543
-748.643
587.353
-139.972
-447.381
256.441
-72.2689
77.4596
416.432
73.2621
-285.372
473.669
-503.691
30.0214
140.724
-346.954
206.23
137.389
388.22
74.1089
858.646
653.212
-773.113
119.901
-22.0384
982.077
-270.495
-37.6727
308.168
-211.093
220.159
-9.06562
36.3419
154.361
47.6456
451.756
334.493
-341.279
-376.236
16.9578
-344.651
51.0154
838.322
-58.3459
63.1465
-245.826
182.679
-967.526
21.7299
-931.426
-36.0995
-486.037
60.1324
425.905
-739.944
909.392
-169.449
-233.11
-23.8264
256.936
-133.547
-75.671
209.218
-128.842
-74.2669
203.109
-171.313
237.153
-65.8395
853.471
426.857
-239.876
147.683
-11.4663
-567.283
-880.178
-40.8541
425.042
162.31
201.692
-526.586
200.825
-1107.22
906.393
16.7439
207.927
-224.671
2.00145
-204.391
417.636
26.2885
89.0551
701.761
288.572
37.3967
-325.969
-473.94
605.791
728.919
72.6585
-801.577
-781.078
-6.50747
803.844
-856.762
52.9186
319.031
-280.478
-38.5521
87.4506
231.121
850.963
-864.892
13.9291
978.823
-862.141
-116.681
939.427
-943.908
4.48145
-415.03
-172.823
-0.469774
-872.666
563.03
309.636
-175.721
159.966
15.7553
-246.301
383.86
138.662
90.7123
-229.375
754.148
269.153
-285.313
431.43
94.1203
784.74
-700.556
-84.1834
-52.1932
-132.295
-66.2208
198.516
-303.132
260.913
42.2194
862.922
-839
-20.7111
377.795
-357.084
-353.1
-9.71619
572.958
-582.582
9.62424
364.791
-327.082
-37.7091
-828.646
731.269
97.377
-905.89
831.9
142.95
82.4103
-404.552
275.482
129.07
466.079
-453.066
-13.0127
620.639
-622.592
1.95321
517.912
-44.243
-354.538
-120.114
474.651
26.5327
-297.028
-63.3019
-249.862
313.164
544.29
563.936
-1108.23
-900.858
849.226
51.6319
1.95299
-403.767
417.258
-13.491
430.578
-398.986
-31.5928
674.543
-851.552
177.009
712.195
-884.359
172.163
-500.848
-162.79
-462.26
80.8954
381.364
301.713
-5.67112
-296.042
-326.35
197.508
476.744
87.5289
-719.761
-108.885
14.8026
183.022
-296.642
302.29
-5.64757
53.4391
-367.019
313.58
488.32
40.832
-529.152
-238.142
300.596
-62.4542
-896.187
-19.6362
915.823
-154.651
-70.6564
225.308
5.61575
-851.959
846.343
804.701
-118.317
-686.383
305.689
145.863
-209.165
-874.865
-21.3215
808.874
41.2894
2.29181
554.299
-201.543
-522.842
-10.4255
533.268
-801.987
913.792
-111.805
312.537
-244.627
-406.667
304.682
-29.7235
590.577
63.0602
381.832
-241.108
276.312
517.005
-11.3979
23.3463
341.445
-771.931
75.1949
696.736
455.732
95.5389
-104.789
-61.3565
166.146
-851.798
-23.0669
64.4544
332.932
-186.667
229.599
-42.9312
40.5523
-278.694
-277.753
292.363
-14.6099
-16.8915
21.1506
-511.661
490.51
-611.995
-134.164
-18.2419
298.148
-279.906
-332.834
464.906
599.381
447.612
-1102.79
430.493
672.295
328.399
0.214042
-328.613
-193.874
-202.715
396.589
-523.987
557.924
-661.293
-19.9595
681.252
99.6469
80.6854
-180.332
-44.2585
799.249
839.714
-862.833
23.1191
807.347
-154.135
33.2585
-605.092
-320.979
-24.7834
556.763
57.6729
-614.436
435.682
23.6378
-348.083
389.906
-41.8225
-854.152
-3.66932
857.822
-27.8223
-823.976
310.138
-289.407
-20.7309
625.218
-4.57924
591.349
-422.837
-168.512
-207.131
290.244
-83.1132
-74.9679
-301.268
-418.053
-48.8259
897.202
-185.007
-829.216
89.2725
-629.105
17.1097
-537.004
47.0356
489.968
820.544
-39.6199
-780.924
-277.286
105.973
4.32962
-356.314
351.984
865.246
-190.703
305.116
-3.40239
636.834
-64.2228
494.28
-5.96045
801.304
-712.249
-1045.15
-57.6427
444.193
21.886
543.46
39.7227
721.66
-714.758
796.762
-38.7896
-757.972
188.004
-226.775
271.658
-10.7451
-117.519
212.174
-203.622
474.851
15.1992
-490.05
575.261
-93.2635
-481.998
-457.704
421.073
36.6316
128.794
672.51
12.1197
-77.4073
-772.812
850.219
61.4993
-673.532
612.032
221.697
-300.137
78.4401
-733.404
655.997
91.6544
713.046
-504.414
1048.7
242.117
-178.97
-287.181
-191.224
226.745
-35.5202
199.574
-263.69
64.1166
-177.969
316.631
-8.68496
-344.415
-50.9153
4.495
-409.087
404.592
-47.468
-160.942
-194.095
-26.6617
364.053
-337.391
-870.861
944.457
-73.5957
45.4619
-527.859
482.397
59.7654
-270.859
-755.622
105.878
649.743
341.972
-248.75
819.409
1.13465
-8.70682
225.326
-216.62
449.091
142.258
-123.689
-338.571
816.404
-201.594
-95.2391
-914.171
603.932
-360.831
135.51
57.5704
655.941
-591.798
494.241
-11.3107
339.823
-34.4319
338.255
-420.527
82.2726
226.738
-277.701
50.9625
52.8409
243.726
-296.567
335.863
-509.031
-7.11582
761.955
-806.213
537.272
-62.4213
-108.757
740.239
-631.482
-267.849
300.724
-32.875
-70.5574
292.254
197.513
-188.661
-278.162
10.3132
-1069.03
593.871
475.164
-35.8071
-78.3284
169.636
-307.212
292.956
14.2557
-675.968
692.564
266.758
-271.42
4.66225
-486.034
191.072
-508.888
-560.147
234.145
-277.262
847.155
-946.586
99.4304
-342.639
21.6604
489.595
-625.844
136.249
-2.97586
811.85
251.62
-288.228
36.6075
-309.081
-563.586
-36.9514
291.802
-25.0443
362.119
-117.094
-245.025
-20.3046
-852.796
873.101
-872.227
465.478
406.748
-55.1229
735.926
-461.541
43.4884
-150.164
-145.152
295.316
879.305
-836.769
-42.5365
388.881
-324.427
798.179
5.66479
109.126
77.3467
-186.473
-580.55
1024.4
-443.846
141.334
-188.773
47.4389
-759.037
-144.956
903.993
133.027
229.092
853.495
-31.3788
813.467
-736.757
500.486
-423.026
7.69781
-254.079
76.2982
147.99
-224.288
306.037
248.262
-19.41
-1098.2
619.195
479.004
9.0214
891.732
-60.5355
-831.197
-430.426
621.711
-191.285
57.1157
756.351
21.4108
-544.253
-590.481
-18.1185
608.6
440.792
139.948
-580.74
-264.805
-522.268
277.994
61.8289
-173.973
-74.3935
-405.407
352.051
53.356
-782.833
323.158
199.033
-259.716
60.6831
217.646
-261.231
43.5842
428.367
-423.872
735.292
53.7856
-789.078
-200.918
48.2833
829.58
20.5389
-850.119
-376.67
29.5052
347.165
118.64
860.183
-406.391
454.493
410.614
-72.3595
-954.646
99.7657
854.88
789.143
102.589
-38.5034
265.242
49.8545
380.724
910.548
134.836
21.2862
-482.827
28.8881
-827.348
798.46
702.912
-775.096
72.1834
636.383
465.977
769
-56.0299
-712.97
190.139
-48.8051
75.8682
339.049
-414.917
-735.275
792.391
292.535
170.04
-238.327
167.546
70.7814
-111.276
-426.711
537.987
-31.1066
-210.858
1004.42
-573.931
45.2236
-278.333
207.673
-216.38
-106.829
-150.581
30.8905
820.073
-174.963
510.827
-609.267
766.931
-157.665
694.326
-716.88
-400.959
390.534
-443.25
-179.342
39.1357
348.579
-16.1295
-332.45
-46.2956
808.25
-505.253
-623.371
1128.62
286.986
-243.606
210.233
1.93025
195.583
-222.06
144.439
-885.393
909.067
-23.6741
-283.788
255.085
28.7027
72.1309
712.609
3.36144
765.639
634.524
-14.9333
-14.9133
-510.084
472.475
37.6092
933.107
17.1487
-950.256
-319.486
-57.1845
0.363579
-237.084
806.564
-71.272
529.003
-623.01
94.0072
-762.269
-84.5392
34.9343
284.096
899.558
10.9903
-489.942
440.194
49.7477
-950.466
-94.6795
36.9258
-402.73
365.804
-206.944
244.606
-37.6615
251.687
-52.1135
-39.308
1050.28
-313.207
-737.076
579.498
-50.4952
64.3092
-259.971
-72.4383
-699.872
795.634
-95.7617
-48.416
-24.8749
242.521
504.439
-5.76262
92.7835
-870.611
-84.0115
207.072
-123.06
-203.839
213.112
-9.273
-681.766
570.49
-457.636
478.787
344.13
44.7515
-459.166
424.111
35.0549
564.704
445.702
497.993
-459.653
-38.3403
497.07
-314.014
-183.057
-210.91
48.5316
348.697
-20.5833
-328.114
-230.488
39.2638
-287.854
270.63
-219.06
-636.701
-691.702
-81.4107
257.424
-58.3906
668.705
196.541
7.051
221.834
817.547
-83.1085
-734.438
327.986
-141.881
646.748
-504.867
262.04
-285.866
-88.8037
529.596
-751.255
6.72067
-85.2927
-96.1932
500.01
-99.3356
794.512
-695.176
-192.291
227.692
-35.4006
-42.9314
-240.856
829.583
-737.929
217.26
-429.896
-414.111
844.006
867.954
-199.249
-45.0412
800.737
-755.696
597.241
-6.66412
17.5249
-608.006
278.043
149.705
-427.748
-403.599
479.468
-25.4012
-313.468
338.869
-615.99
64.5205
551.469
-143.84
533.981
-390.141
-483.509
407.396
-481.875
74.4783
104.356
-170.603
66.2465
-159.812
353.281
-181.756
-197.657
738.53
-35.6178
102.196
581.072
-610.943
648.663
-37.7197
269.253
-287.495
-811.253
-51.5801
96.7283
-432.453
590.118
460.165
-615.716
172.466
424.115
-854.011
410.058
-681.836
28.6426
653.193
-225.031
271.504
-46.4726
-816.306
886.692
-70.3856
-47.4431
-431.972
479.415
1005.36
-405.652
-599.709
-67.3227
-789.44
5.3011
304.837
-950.453
207.438
743.015
-857.677
-92.776
-169.323
-6.39837
-777.773
731.477
-137.827
-301.137
438.964
-5.95429
-270.8
276.754
160.086
647.261
257.563
154.636
-412.2
-902.862
154.561
748.301
541.075
-580.822
39.7472
604.521
58.5766
-663.098
-45.6699
673.36
-639.919
-33.4417
351.996
-23.5972
-40.9179
239.95
-199.032
608.516
64.8446
12.5018
-793.579
721.529
-777.559
-177.507
253.805
329.16
167.91
149.983
-331.739
200.239
-203.094
2.85443
337.38
-197.517
-139.863
592.252
42.2724
-749.351
801.706
-52.3544
-435.742
-85.4575
521.199
-5.73113
-290.911
269.283
64.1841
-333.467
242.971
-95.4457
-147.525
418.077
-465.52
-61.7123
-740.274
-410.059
120.031
136.594
534.806
-456.684
-78.1215
-233.172
249.916
-195.399
188.841
6.55735
45.161
-253.324
208.163
-321.012
377.691
-56.6785
219.835
-22.6846
-197.15
450.474
554.887
-255.816
555.321
-473.597
136.476
-192.559
56.0824
-193.793
-22.8462
216.639
701.244
-96.7228
233.198
-164.129
-357.076
270.253
86.823
-420.185
-39.0763
459.261
-351.726
448.454
305.04
-323.55
18.51
-13.9321
26.5
473.985
462.531
35.4618
57.4035
-477.588
215.19
-13.6056
-333.993
-8.64579
-366.698
298.213
68.4853
339.934
-61.9405
676.344
220.858
-238.234
283.395
-284.566
305.536
122.043
652.188
-774.231
-738.172
-24.7773
762.949
24.8343
187.321
16.7701
-337.782
-690.597
621.042
69.5548
111.527
-197.343
165.213
32.13
436.287
-158.244
-244.727
-188.04
432.767
-161.459
-348.624
216.275
-16.0361
-283.137
132.973
97.0975
-181.109
-1009.52
696.316
-346.52
346.52
851.481
242.261
-35.1404
-509.081
-500.442
207.537
327.592
527.859
42.5151
543.898
-49.6175
285.777
-263.687
-22.0897
-629.283
662.038
-32.7547
-50.3476
-531.537
-48.8307
-634.347
734.93
-100.583
83.5449
-492.683
-352.553
539.298
4.59987
537.29
34.116
-571.406
750.224
-646.715
6.79646
-99.0804
-89.8744
188.955
-391.675
103.822
308.114
-30.7859
-277.328
-139.908
-65.9166
-298.917
287.11
11.8075
-304.602
97.4712
871.57
-195.226
-339.1
42.02
769.664
-2.55755
-767.107
584.117
-658.813
74.6955
-922.867
830.387
92.4807
-22.1552
-639.137
110.409
295.08
-21.1599
-259.921
281.081
-803.946
43.2847
-201.123
-286.929
265.769
-465.919
511.381
-257.925
280.662
-22.737
-297.989
301.447
-3.4575
-814.638
705.881
995.969
-148.814
-179.997
315.52
-269.005
359.107
-193.613
434.872
-321.616
-113.256
284.769
55.1654
817.253
-82.6026
-734.65
184.768
-681.425
-763.134
681.721
81.4131
6.19826
-616.835
625.162
-8.32635
59.5129
173.685
-104.596
522.54
-263.993
309.067
-45.0734
378.747
-457.834
79.0872
-608.503
649.026
-40.5235
586.264
43.4547
-629.719
252.736
-217.582
-35.1541
557.456
-26.4163
-531.04
194.412
-86.0173
-108.395
-98.6503
-43.158
141.808
960.394
-950.914
-9.48009
-575.487
-388.312
-45.3891
-759.891
805.281
-897.626
834.362
-607.501
374.609
232.892
605.021
-623.14
-10.888
677.66
-666.772
55.0485
114.002
-169.05
-73.0788
-293.941
-855.99
-66.8778
15.4712
364.736
334.028
-739.68
211.52
3.66966
-224.311
224.311
392.884
-104.085
-288.799
-911.377
25.9845
-2.50121
-20.8293
-482.931
503.76
-753.821
-80.4667
486.499
-406.032
-252.37
-408.619
430.889
-9.81666
-47.7961
255.723
153.127
184.254
-550.662
395.826
-166.172
423.735
337.533
-52.7647
763.711
-711.819
-283.037
-4.76252
269.885
-946.904
-3.56157
5.61807
927.489
532.198
-448.653
-848.85
577.827
271.023
14.361
254.867
-269.228
350.412
-11.2598
-339.152
-460.97
30.5445
-835.927
749.652
86.2753
-123.317
-196.169
220.702
47.0121
-267.714
212.681
124.852
-800.985
17.7767
-582.212
337.913
244.3
42.1293
258.949
359.586
-323.753
-35.833
-402.036
414.625
-12.5891
847.401
-513.373
-454.823
312.942
-317.751
188.823
128.928
423.367
-720.797
568.287
-27.2121
811.236
-807.874
82.0302
112.382
-830.991
815.557
15.4343
-795.357
46.006
-472.164
-527.851
1042.66
-186.28
931.083
-835.192
-95.8916
-521.122
-463.31
984.432
-47.8703
-253.151
39.8095
223.421
-227.469
4.04828
-21.4969
-56.055
733.337
471.252
-38.7247
-432.527
-348.378
-215.816
30.3633
-59.3816
-278.115
-164.978
440.307
-275.33
-926.238
926.238
92.2223
-797.171
463.529
-510.311
69.0185
441.292
-210.596
-193.957
182.13
-173.802
-376.86
-561.475
387.674
607.798
54.3809
188.59
429.779
-928.867
499.089
-45.0112
333.583
-225.775
-260.263
-211.213
433.672
-104.512
-178.618
-139.133
-65.4679
-835.39
452.336
-517.885
65.5495
18.4095
-705.554
788.017
-82.4633
415.663
-419.143
3.47975
243.965
-566.226
529.685
36.5412
64.7364
136.158
-200.895
191.62
-232.538
378.947
-708.778
329.831
110.533
758.326
145.875
247.009
-68.4768
-491.882
471.052
291.306
-305.181
13.8751
416.138
-37.3917
353.544
-380.206
-20.3849
-367.349
387.734
-38.7324
-287.813
334.909
13.3388
-348.248
-442.112
277.135
-386.132
36.9708
631.199
-749.516
-409.311
530.673
-311.921
-91.846
976.634
-866.102
-492.798
-312.272
805.069
291.515
34.3414
290.706
-325.047
-442.448
155.547
-278.864
-51.5258
450.268
-563.571
113.303
47.4115
613.577
-200.451
101.37
345.204
-303.075
708.737
-329.791
272.692
-172.012
23.3977
364.441
-387.838
-26.9284
-290.94
-10.4209
-250.626
248.366
2.25974
3.29355
565.705
-544.294
52.6425
-891.584
113.243
801.673
-3.4936
327.84
-115.159
525.495
328.697
-854.192
598.384
239.938
677.455
-776.79
-762.006
107.237
654.769
292.612
62.908
-355.52
181.677
-174.143
-7.53428
35.8061
274.741
572.957
-208.529
61.3063
147.223
-156.551
-607.139
763.69
-336.075
365.746
-29.6707
-276.738
286.524
-9.78649
-147.145
-173.822
-254.313
206.382
47.931
920.101
-920.101
-87.0381
726.987
-639.949
293.004
-205.553
343.655
-68.1727
-658.317
187.51
26.3781
-213.888
20.6038
-587.515
566.911
46.2179
-271.636
225.418
908.588
-914.211
5.62287
301.452
-674.695
373.244
363.004
-326.079
50.5607
309.025
-350.737
876.232
556.785
-106.517
-71.9415
-239.749
-399.283
317.269
82.0132
225.533
-344.788
328.913
-500.141
171.228
-270.437
45.4055
-873.306
-73.5987
33.6053
-739.159
337.32
-173.771
796.372
-773.266
-23.1056
431.247
59.8811
-491.128
-685.43
610.589
74.8416
-271.494
217.641
53.8537
318.757
-27.4512
-426.017
-254.783
884.86
-839.809
-45.051
-357.393
658.845
118.76
-554.501
-865.178
11.0259
-52.4568
-608.192
660.649
47.4907
-141.689
-96.6377
-920.609
392.254
528.355
185.576
3.26506
448.544
-32.8808
543.451
281.271
-274.823
-6.44809
-333.053
-5.68063
338.733
-564.599
461.342
15.0774
-234.936
219.858
227.811
-40.3017
-105.943
375.776
-269.833
-352.753
4.66935
433.64
-9.52984
53.1819
-813.6
760.418
-664.243
664.243
81.5807
180.459
-95.4145
-506.587
602.002
-854.501
938.124
-83.6228
741.151
55.2211
-14.1035
-834.59
848.694
322.805
-339.839
17.034
323.972
12.6294
-336.601
585.096
-636.698
51.6027
47.3002
323.675
-370.975
-220.34
-125.562
345.902
190.259
-8.5819
108.646
-711.499
602.853
-760.045
267.247
346.154
-311.813
793.724
59.7711
-77.2298
-433.081
339.639
-391.262
-682.342
103.665
578.678
330.755
-291.536
-39.2192
-529.963
617.02
-87.0573
-81.5436
-362.628
444.172
405.204
-381.858
-608.529
-312.08
620.154
-722.152
101.997
-409.551
-439.299
837.869
-39.6832
-645.747
102.582
482.358
-584.94
563.541
-644.667
81.1265
45.8434
-261.912
11.1127
-692.949
-317.182
321.512
-9.46117
570.397
-692.674
122.276
-344.467
-430.584
4.30054
-686.007
697.759
-11.7523
763.052
-164.668
645.166
-102.574
-542.592
232.471
302.335
284.419
-294.936
10.5172
807.726
-935.855
128.129
-661.957
-100.049
-314.685
50.6917
-328.205
63.2358
264.969
-55.4363
640.532
104.089
-275.784
171.694
356.546
-334.761
-21.7847
-365.77
-216.442
-23.911
205.408
-36.8788
-166.425
227.813
149.097
-376.911
-270.221
318.193
-47.9715
591.892
-687.307
21.3629
286.751
-289.488
-38.7174
-301.173
-306.328
-711.294
540.759
170.535
-112.435
-146.662
-155.368
65.5017
-576.974
536.142
40.8317
576.952
-1098.07
-23.7381
-1015.37
-140.897
374.453
59.2185
-21.6744
-51.355
-761.085
129.603
857.695
-852.08
617.339
-76.5801
1.85816
589.217
-591.075
-290.073
-160.45
450.523
-60.1667
-211.328
12.7313
187.274
-211.213
23.9387
-997.962
246.832
449.154
-120.241
19.5766
-627.868
608.292
299.309
-364.747
31.0004
333.747
65.1001
573.628
-638.728
-100.961
773.459
-672.498
-669.64
-195.252
-737.331
37.8205
699.51
-26.5244
578.478
-551.954
928.658
-919.769
-8.88874
570.055
-622.512
-611.18
-23.4479
634.628
-393.966
123.744
280.399
-278.868
-1.53088
801.741
-772.853
-95.6846
730.705
-635.021
456.901
15.5735
-433.27
-669.605
604.128
65.4774
399.771
-92.0511
-563.933
-56.999
-10.2752
-398.812
-42.4343
239.04
-196.605
18.7303
327.424
-358.959
363.128
-4.16871
749.361
-794.75
94.938
161.998
209.926
-221.142
11.2167
684.169
-775.217
91.0478
-331.693
-697.113
-2.75871
796.124
75.446
290.501
120.113
813.565
-17.4413
-31.8277
-1030.18
168.305
3.92942
23.9393
-568.847
150.823
-95.7742
-1081.89
-255.644
270.721
75.3339
217.67
-107.346
-467.082
574.428
-2.36271
-477.377
479.739
838.906
-31.1804
569.978
75.1881
-55.3884
-220.675
276.064
752.503
-797.544
-162.645
390.458
-413.833
446.565
-32.7314
-679.371
722.972
-43.6009
300.846
-331.057
12.118
389.223
-114.387
-274.837
178.751
-511.047
465.742
45.3045
3.7071
-459.475
465.622
-6.14687
613.537
-596.012
43.9358
-171.631
602.878
-290.707
57.3866
440.455
40.2412
608.382
-648.623
-66.3368
-154.006
218.501
-0.859965
32.9011
-386.819
22.0718
-415.597
1.76339
248.617
-250.408
1.79097
711.198
-682.555
-483.197
82.6268
400.571
-42.1569
626.274
-43.5617
-209.762
914.255
-141.732
-772.523
518.882
537.491
-1056.37
-305.336
-8.07261
288.705
4.25113
10.2874
270.967
-696.251
-6.03069
702.282
592.33
-748.881
-219.376
187.745
31.6314
-538.786
-8.63004
-664.902
28.5256
107.951
-136.443
-428.006
-107.773
211.862
21.7613
-643.687
621.925
-37.9999
-497.95
535.95
-269.301
316.601
-69.2018
625.965
-732.638
755.299
-22.6617
217.639
-482.443
272.803
-278.999
6.19587
5.29812
-840.041
25.4024
253.574
-473.914
919.876
-930.934
11.058
637.927
12.3803
-650.307
-49.1614
-542.779
-807.258
840.455
141.126
-207.347
897.668
-78.2586
235.74
-12.3195
-60.4777
-716.03
776.508
-89.5208
-596.486
-32.19
569.48
-685.066
23.1088
201.838
-240.29
38.452
-231.93
0.194757
231.736
-557.102
533.488
23.6138
-175.408
76.7581
48.4758
96.1645
-144.64
-880.259
314.289
17.7833
-332.072
54.8958
637.914
-692.81
-337.058
373.669
-36.6114
-661.58
-23.4855
-660.561
782.604
-897.015
127.817
769.198
-142.777
-167.902
-443.565
63.0341
-457.632
-618.185
271.682
-2.52903
-285.474
287.909
-2.43422
160.725
-95.9889
-420.931
392.79
28.1409
-954.909
972.058
-318.18
109.259
208.921
100.266
50.5568
526.1
868.288
-888.593
276.339
-45.2176
384.585
-528.424
-789.978
811.746
-21.7685
-350.252
-194.694
544.946
128.644
-166.399
37.7546
424.838
-529.434
757.514
-690.268
-67.2458
-261.984
-43.3529
354.472
-85.1896
311.775
-290.412
328.143
-652.017
-17.5878
5.65793
633.217
-352.31
103.56
20.6337
-891.495
550.08
-387.446
608.138
368.496
422.831
8.05844
744.694
-805.172
-39.0043
-10.3344
827.286
70.3821
420.998
-499.664
78.6664
238.997
-189.114
-49.8826
-196.986
233.897
-36.9115
-2.83263
339.119
-336.287
-618.516
658.758
431.181
254.816
-211.83
-42.9861
357.241
522.064
312.146
-332.73
722.405
94.8478
83.5727
-606.428
522.855
639.546
-35.418
34.4385
-930.805
114.223
816.582
194.796
-265.453
-247.131
-793.229
732.278
60.9509
5.10822
815.004
-820.112
934.481
-934.481
-376.649
17.6905
602.816
36.7298
-109.06
-40.2144
-189.573
229.787
437.331
27.5869
-464.918
-432.554
18.7468
413.807
189.276
972.174
-453.291
-219.748
35.2961
184.452
-627.667
630.624
-2.95707
455.051
-472.213
17.1625
-430.395
-2.15867
38.5074
-770.496
731.989
-635.866
-65.2512
-548.245
518.337
29.9081
-390.834
315.866
38.5603
-250.18
211.619
-173.814
-144.366
-27.4168
235.297
-16.7959
36.0523
325.081
-287.684
-71.1609
791.599
364.443
-50.1538
-770.015
31.8438
-890.018
814.446
75.5718
126.832
295.108
356.677
185.671
-758.86
859.253
326.843
198.257
-525.1
-160.235
594.428
-643.993
49.5643
495.598
56.0691
-551.667
650.721
-353.28
-297.44
-492.01
-117.902
-783.936
682.975
23.6643
-689.695
666.03
-711.22
108.484
602.736
-762.66
16.9747
47.62
508.426
-87.4289
-529.743
354.779
570.249
-596.774
-35.32
-64.1919
221.403
-157.211
71.9855
-706.332
-229.245
-224.718
160.526
-26.7234
287.449
-110.25
-177.199
179.676
-5.61986
-641.418
716.613
-46.7753
217.3
-170.524
869.86
-630.457
13.6213
144.457
200.747
0.99106
397.328
-398.319
-220.231
-208.536
428.767
180.918
763.539
378.661
-355.263
-843.704
7.77707
626.384
-609.855
-1.70808
-820.533
822.241
589.515
15.9755
-605.491
854.143
47.5554
-901.698
305.863
-4.41641
118.965
-409.038
425.253
8.38787
-254.438
334.067
-79.6289
186.701
380.823
-90.3216
610.541
-53.9383
-556.602
-759.279
787.337
-28.0578
12.1368
660.176
-672.313
-647.245
117.282
-5.13553
-442.028
613.654
34.1445
322.402
-28.7809
182.981
-83.3344
-334.453
1.40003
95.9379
742.968
2.31695
-275.645
273.328
-425.534
-503.333
-57.4237
-757.776
815.199
273.441
-43.7819
188.807
-272.63
83.8236
179.409
-93.3745
-217.26
-516.874
-581.325
-792.241
-19.0119
-159.881
-815.747
776.437
39.3092
-34.2259
469.245
-435.019
59.78
821.332
-881.112
191.093
-142.618
776.54
25.1661
-236.673
196.459
19.388
-303.745
284.357
575.697
-573.839
-648.666
110.568
538.099
-588.948
588.269
0.679743
27.9759
256.443
-665.293
-441.925
608.528
45.7729
-654.301
-721.943
606.743
-679.197
72.4541
-134.161
-74.3686
449.801
-484.169
-847.241
852.349
108.674
-308.108
-588.907
-642.255
593.2
49.0544
175.016
-70.6592
-42.8413
464.41
186.31
-576.607
64.9463
514.397
-526.549
12.1521
73.4182
-717.633
644.215
264.819
-16.2021
-307.605
164.42
143.185
-577.184
611.3
-136.184
493.152
-356.969
681.378
-86.95
-0.797434
-315.599
316.397
-447.137
-442.722
889.859
-146.609
261.984
-115.375
-103.847
-578.495
-588.795
435.777
153.019
409.284
-45.8477