/*--------------------------------*- C++ -*----------------------------------*\
  =========                 |
  \\      /  F ield         | OpenFOAM: The Open Source CFD Toolbox
   \\    /   O peration     | Website:  https://openfoam.org
    \\  /    A nd           | Version:  7
     \\/     M anipulation  |
\*---------------------------------------------------------------------------*/
FoamFile
{
    version     2.0;
    format      ascii;
    class       volScalarField;
    location    "39";
    object      p;
}
// * * * * * * * * * * * * * * * * * * * * * * * * * * * * * * * * * * * * * //

dimensions      [0 2 -2 0 0 0 0];

internalField   nonuniform List<scalar> 
117990
(
35.184
-0.0654147
12.4831
3.63031
12.2457
0.0413989
67.5793
26.5934
-0.42044
-0.0682777
-0.706305
0.587525
8.15678
108.635
-0.409375
100.486
-0.119055
-0.751715
66.6327
12.3829
26.5535
-6.97529
-0.789181
5.11946
69.6267
56.3371
27.5116
33.5755
-0.124664
64.4777
-0.46797
55.3921
23.9276
6.83466
68.1943
-2.28729
67.1679
-0.107576
-14.2772
66.8861
55.5746
-0.752861
20.3115
-2.36228
34.0133
108.926
23.8707
16.9619
12.9696
0.532633
-9.21524e-05
-5.08858
56.7256
-0.0355482
12.6582
56.8991
53.3436
51.6679
45.4499
14.6575
-0.144872
5.43436
-1.47761
15.0454
-0.284549
5.34859
7.84308
49.6746
29.1952
51.7378
65.9736
56.4601
66.7676
85.982
30.1695
38.6204
42.4164
4.40267
67.8373
50.5962
50.8187
-0.275613
31.7296
32.7342
-4.35608
0.56402
17.9755
-0.0905298
50.1468
-0.0869346
1.15746
5.3706
-0.129217
-1.83378
-0.854767
1.27688
-0.921282
31.1845
18.9784
50.2196
-0.146711
37.4051
19.8866
10.908
66.0919
26.3733
67.511
23.8051
25.3237
-0.102092
51.6421
-0.913367
42.6512
21.904
62.1802
17.9261
-0.711632
65.6673
0.0412427
56.2963
65.5961
100.368
12.8158
45.6894
-0.0120965
64.8029
5.64404
55.6909
-2.85564
42.8552
35.0845
0.847115
64.6168
0.560647
0.0427569
66.1019
68.1783
24.0322
12.8464
5.38432
52.8791
17.721
0.160729
57.2807
35.5513
-0.000192464
29.9709
5.70716
49.7677
7.79133
26.2522
35.1262
5.19308
-0.0119373
-5.01778
23.9985
-0.0983769
46.604
46.3768
26.5805
37.0978
29.7798
-1.45577
25.636
19.3423
-1.42576
40.8632
26.1648
46.3676
19.15
16.2469
23.7753
-5.43268
102.913
26.5965
47.8273
103.415
2.67177
27.297
12.7985
30.5878
30.3578
66.5189
57.5261
67.5087
-0.0770122
1.89899
61.5854
38.7464
1.53542
2.75742
17.2984
67.8696
23.5801
56.5415
24.7175
103.612
-1.77992
25.6018
29.8154
58.9194
67.8858
32.452
-0.103602
0.992342
40.4267
-0.63985
-0.277047
43.5917
28.0717
104.165
67.3779
69.5125
-0.0842516
27.1215
23.8703
47.2989
23.9988
108.963
-0.302308
25.1045
20.7729
14.8786
51.4819
-0.0376157
66.1506
26.1164
27.9331
24.6107
68.0732
35.5995
30.6449
55.1304
25.2568
34.8279
59.0723
1.54179
16.9086
25.8453
-5.17215
14.0546
33.1439
26.5927
17.8135
-2.94645
8.24633
52.9722
57.9306
26.1837
80.848
67.9534
-0.612459
56.7623
7.31675
58.0641
30.8085
38.8293
33.486
0.969269
26.3026
30.8639
109.279
57.6478
-14.6899
25.3804
3.79891
46.0144
-2.80662
47.4452
38.2835
-0.29709
38.9213
12.7795
33.2081
6.11054
18.7003
32.6717
26.8059
15.6405
23.154
25.6864
-2.90214
3.97124
40.0371
0.763788
27.2941
66.3139
55.7907
30.8497
-11.967
33.9582
-0.0937427
41.2806
67.2751
0.076897
33.6158
-0.00664535
55.0918
10.1484
37.7572
105.937
25.2006
-3.08062
8.61383
22.0623
51.4133
32.4462
27.7251
-6.10809
27.3242
-0.948058
63.3122
60.1415
25.9047
8.03494
19.6148
67.8242
8.23472
5.21634
37.743
43.0813
-0.286425
32.2264
62.4277
53.0036
41.9133
24.269
54.307
106.162
41.8559
-0.679568
-0.0942477
0.0722891
-0.0686343
67.173
5.42409
47.5644
-0.285113
-0.0973302
1.7394
12.9035
52.7512
25.9447
14.1408
9.71222
11.1335
15.7295
56.0132
32.2704
15.6029
64.7596
61.7517
30.6717
2.64998
29.6682
27.8279
35.2342
-0.00127526
1.39041
38.2808
63.1555
21.6708
67.1557
65.6204
42.4162
-0.00110677
5.09908
21.0836
14.9254
-0.00536258
22.1307
53.7192
56.7748
-1.172
49.1982
16.8153
19.6449
0.52246
-0.0277008
39.0498
31.6159
25.5788
21.4248
38.2182
27.2606
-0.447004
55.8543
86.4566
12.1837
28.7322
54.9906
65.2785
18.1732
33.6626
20.5674
1.15333
-5.38798
4.90078
12.6436
16.1296
28.8851
1.6757
58.3427
66.4912
-9.24947
37.1169
0.0434327
14.4934
46.3949
-7.00828
23.5042
-1.06162
11.273
4.16959
-4.47272
15.4321
12.6209
16.0426
0.110103
26.8317
-0.00140472
104.425
0.861298
66.0024
60.4387
62.5611
37.5946
63.8037
53.063
5.49143
9.21183
0.0217207
-0.442535
26.8738
8.55539
14.4432
35.7868
0.841262
-0.482349
0.503441
4.20508
43.189
35.3106
16.2776
0.717262
22.3941
8.0993
-0.441699
65.1151
47.7193
67.6116
0.121597
0.589378
9.60607
26.1817
7.2295
24.9543
58.2292
60.4404
-6.10271
58.4486
8.09925
12.0542
67.9086
63.5457
26.309
11.8898
102.754
-5.96223
0.122674
26.9055
84.569
25.8041
86.856
35.6241
52.8629
-0.00460319
11.9766
37.2863
44.0918
64.3316
-0.00307843
-0.282191
8.40003
25.7905
-0.493979
0.108584
45.7953
70.0319
38.1153
67.1974
15.5388
67.9221
58.2396
4.34792
22.1796
98.3112
21.8232
16.7452
10.5774
-1.76399
68.0164
25.3001
66.0942
32.538
62.3188
15.3938
12.9589
12.6621
59.4767
2.77628
7.1588
7.27921
-0.129293
34.7276
28.7071
1.03314
45.3881
-0.0587128
-0.0407036
9.33915
32.903
3.35378
15.4765
24.3222
6.73822
-0.218638
67.593
32.0255
27.753
16.5367
28.3259
12.4729
0.0266558
-0.00303364
78.0705
98.5597
28.963
0.0243655
7.08939
52.8921
27.6281
41.8694
-0.270417
26.635
29.7363
0.330222
-0.101349
57.8662
8.22198
11.8243
26.5654
1.60052
57.1517
24.7679
15.3467
13.9237
15.6455
47.5224
1.17286
0.0387341
17.4979
62.9277
68.0407
64.9981
35.1059
13.705
66.1414
29.7858
0.97585
39.7156
13.0772
46.8823
10.4598
46.7072
5.35243
64.8625
2.31135
8.22851
15.136
67.0518
0.939811
25.9185
24.966
60.3925
26.316
6.96619
22.6475
0.198795
-8.92996
6.74135
33.9044
26.1844
11.0713
53.8841
66.6327
67.5262
63.8107
64.9461
37.8388
52.1212
30.0119
67.2637
67.651
11.7861
5.49692
67.9715
0.0612602
-14.277
32.6313
17.411
8.20572
44.1323
-0.278601
9.36843
66.6908
68.1414
-0.509212
1.21853
44.2889
7.05524
-3.56059
63.8118
60.6934
-0.0877084
24.362
25.6341
2.57026
33.1885
52.7535
68.277
7.18112
-0.00393023
67.2604
33.0834
-0.515186
43.0442
23.8644
5.08503
-3.49746
-14.5541
8.10819
-0.337396
28.3238
1.24324
-0.412611
17.9304
43.0885
-0.640898
24.2109
5.37882
26.4273
67.1726
0.0550739
64.5431
32.7983
67.9259
43.4414
-0.991676
-0.129414
-0.782417
7.18865
57.813
15.8675
5.2661
66.0897
94.7006
95.5118
39.3158
44.3914
67.3828
-0.900795
25.9639
17.579
0.78712
33.4668
5.33973
34.8281
22.5995
65.2352
59.7849
2.0813
18.3777
27.7575
49.7268
52.02
30.4998
0.00118103
67.0903
7.23323
106.724
14.9729
37.6653
23.0196
17.5241
16.6652
-1.61012
67.6953
21.3796
53.3483
84.6966
36.0792
-0.092999
25.1236
24.6145
25.6149
42.8308
26.6092
1.29378
19.0277
-1.77774
-0.0829722
15.7441
1.10036
68.3375
0.803877
66.1861
18.9907
35.4121
12.4919
56.9768
16.7352
61.9032
-0.00513837
30.6794
8.92782
11.9479
24.4528
0.0513822
35.48
58.7706
33.8062
0.975734
18.8189
57.7358
66.4747
10.0897
-0.743398
44.4097
0.615405
68.1845
29.8413
53.68
63.1908
0.590726
30.9531
63.8057
-0.417043
47.28
68.0203
-3.52508
19.9121
1.44664
24.0281
15.2558
-7.17891
65.5266
21.5929
59.7151
63.9524
-4.23619
0.424107
66.2869
4.56173
7.5985
1.1467
61.3964
83.9938
67.3871
7.96292
2.20268
7.4441
21.1879
24.577
46.331
41.7791
57.8374
-0.523348
18.702
0.0171619
8.64535
-0.00586441
-7.90129
26.2759
64.9969
-0.132986
67.6149
-0.916506
33.6713
-1.10545
85.6408
16.9097
55.7795
-0.49768
28.2369
33.4723
14.7415
-0.0981106
2.04714
-0.668277
23.9195
11.1605
-1.67415
59.2358
0.402828
1.32618
26.3589
-0.975218
66.0995
51.8079
7.86829
33.1266
26.7448
-0.0142881
21.9082
23.1136
1.32621
28.8105
7.98383
41.2716
6.41438
2.19869
33.0033
-0.0812345
6.26225
-0.873121
67.1272
-1.92067
0.590434
-0.519496
38.217
51.6824
4.73047
2.52063
65.3799
67.9093
11.9739
56.7915
18.2842
80.1051
0.439157
-0.0204693
63.1615
43.4035
0.422944
52.7949
-1.43923
-0.0506199
51.8214
24.1863
59.0641
88.8955
25.9905
-7.10872
7.35292
16.6522
63.9918
0.00425063
24.6537
50.7582
0.180888
18.8613
32.7135
61.0102
20.1238
19.048
60.942
43.7803
28.6833
20.4482
66.708
49.2619
1.96833
25.3388
64.0233
-1.995
-0.829033
21.6822
9.51281
14.5275
62.5876
-7.20888
-0.0485685
-15.0483
13.979
23.8873
61.9084
17.6271
38.4234
1.77288
61.4543
20.4878
51.7267
21.3228
57.2785
53.5027
24.7926
56.6832
65.2616
-0.867124
52.3878
69.3721
21.85
3.49212
26.4819
61.1543
34.3475
36.1889
66.7778
10.1208
5.27895
-3.13542
1.02788
48.1647
49.6871
1.29874
67.6346
65.6077
39.9921
-2.89214
44.445
85.5328
25.1218
66.5402
61.1018
1.60256
44.0803
84.7673
4.61167
56.3712
90.3489
-1.91684
53.0142
1.08065
62.0503
12.3804
58.9462
47.2473
-7.58238
67.8645
-1.70992
28.4646
20.885
-0.510863
20.7427
20.7869
12.6307
26.0488
6.61891
2.99557
46.466
14.0065
-0.836086
25.4609
106.853
64.5511
38.1062
57.9501
-4.46847
8.80635
64.8391
32.2652
-0.091325
2.78377
26.3985
1.81299
21.3138
-2.76945
53.0916
-11.8054
42.6813
77.6242
57.0189
42.4363
8.64917
12.6102
-5.43496
59.5767
25.0445
0.000648676
-1.93943
-0.825885
60.8066
6.4247
-0.00981437
21.5458
18.0648
27.0772
58.3166
56.4936
19.8956
26.0379
8.18986
63.5319
23.7386
54.2869
6.66545
26.1656
28.2881
12.8181
-0.4943
0.949663
-0.110019
26.6691
-1.69213
16.0132
2.36816
57.1983
0.0322775
2.69538
0.231989
58.4031
20.0358
68.0447
42.8009
57.187
-2.12702
22.1102
67.9843
36.3397
20.6222
61.6391
-0.520946
9.50906
-13.4475
40.1644
0.0342068
34.0529
17.7551
25.708
25.1233
68.0327
13.9212
-14.5525
58.2204
12.0822
14.7309
8.48416
-0.00914409
-0.46254
-1.78397
45.4019
-0.976255
5.42693
17.4851
67.1876
63.9233
31.1502
0.565313
21.9814
44.2543
19.5983
0.530862
18.7166
36.817
0.0929651
6.95832
43.651
58.7385
16.4848
101.367
65.3514
22.6201
0.819435
89.7112
40.4251
3.65138
0.144743
-13.3688
-2.89988
12.4588
-0.102876
-4.39589
42.3922
56.7772
23.2952
25.113
16.3974
-0.140366
58.7788
-0.851918
33.8367
60.0933
-0.245692
38.1649
9.68315
70.0167
61.7698
25.9681
68.3014
61.367
19.4187
45.4141
0.571233
2.98245
99.2623
-2.85344
-0.502799
34.7458
-1.34027
-0.211863
14.6298
-0.657866
25.6843
23.8615
4.74762
-0.616636
-3.76863
4.67818
-0.140317
57.8347
44.4319
28.8491
-1.53432
89.5679
26.2802
53.6842
15.3886
16.6689
61.7242
51.4464
41.3708
26.6876
4.95493
0.0870915
43.5968
67.5073
41.4398
-0.121436
-14.6241
0.548901
0.13506
58.8311
2.51136
57.1528
-1.67305
67.4246
29.7322
16.4657
30.9703
-0.0279151
61.9876
-1.50513
7.4413
59.8157
67.9293
64.9129
2.23299
-0.0321326
57.439
-0.0323124
48.6333
7.18967
67.3333
58.5489
17.9181
16.8657
0.107829
52.0846
22.0841
21.5305
23.6151
18.2684
1.59814
33.3595
-4.30703
53.8984
58.2029
13.6072
61.9293
50.6823
-12.8893
-6.94604
43.4032
19.3474
60.1765
64.7711
46.3607
16.4696
0.0195271
11.905
24.7832
21.5509
28.7066
51.138
67.1082
4.08278
61.9691
-0.0213257
28.2093
4.88637
65.5587
102.219
-0.241507
62.3629
-0.0669768
7.02754
-0.140187
-0.00340047
-0.00278144
65.5861
12.9458
25.9414
19.6809
-3.07614
69.4715
64.3872
13.7773
4.8172
-1.04588
-0.140312
2.83767
31.2424
42.4677
61.5481
-6.905
58.2445
20.6262
27.908
38.9099
2.86417
59.3945
0.0674423
5.46151
2.89315
16.7011
-4.13812
65.1004
4.92102
0.00512255
20.1755
6.62513
66.5385
-0.0773111
5.07864
4.95799
25.5859
33.545
23.2763
111.391
54.3511
65.8663
-2.89733
5.42101
26.9178
-1.64042
57.0504
22.0273
-4.87657
38.1657
-12.7557
3.26168
20.1061
-0.569403
14.0834
68.3355
12.1264
45.4946
67.142
66.5994
64.7244
-0.0510723
0.758199
0.0618944
45.9426
39.951
62.0737
15.6015
21.1846
59.4466
25.0329
31.9013
15.8615
39.5478
22.2923
0.0394339
53.101
-1.12068
62.8506
46.467
43.8826
0.523158
5.37616
35.8185
-0.0110329
57.3169
9.35327
26.1182
34.0365
44.6199
68.0496
27.3697
58.7413
60.1528
32.0969
-1.70201
42.9447
60.1072
8.50067
45.8894
-0.495222
33.7234
36.2114
13.3699
59.1568
0.604575
58.775
66.5589
-0.103477
5.07129
0.133906
55.2356
6.70917
28.3104
5.17734
33.8206
49.5377
8.6888
28.5347
6.5665
24.1363
15.4205
-0.0850024
1.91328
30.7153
83.734
21.5068
-0.0620875
32.2716
-1.67973
7.95272
38.0565
64.1301
13.5475
30.4586
62.1115
14.4397
11.8821
29.9843
11.992
11.9567
30.5876
54.1767
26.6319
-6.78899
-2.60401
31.9735
0.542305
-0.793215
0.130389
54.1563
-1.89246
3.21248
33.4571
-0.0180777
9.12575
-0.407404
65.4279
0.0815097
6.52387
-0.288283
18.286
64.0023
15.2109
22.1421
-0.12346
-0.0711714
30.3091
8.79643
-0.503907
67.4792
26.4108
-2.63574
92.6565
7.23791
2.96802
21.1881
14.7315
-1.66364
60.2525
-0.617231
27.6742
64.5306
-0.481369
29.3615
-0.936321
25.976
59.1775
39.1243
-7.05021
0.560811
14.1332
16.3684
15.199
33.4417
5.83492
-1.42197
-0.288465
-0.603097
28.784
23.3232
55.5937
14.0159
5.27015
59.8645
57.201
37.3555
-0.585668
25.6669
30.5125
42.7035
33.526
21.9603
55.3265
55.1689
25.131
32.3463
64.768
26.3902
0.499875
95.6066
105.352
36.0605
17.5917
18.7476
5.88634
45.563
23.5719
67.7219
25.9439
67.5341
82.9506
-1.25016
17.8517
8.49727
0.0520605
-0.109821
64.6589
-0.187667
38.6953
18.9379
30.4354
57.5565
-0.8406
31.427
40.2039
-0.445766
64.5462
25.1215
-1.51405
40.8046
56.5409
-0.00698738
44.1864
2.80625
56.0236
39.7209
82.4507
54.7795
-1.5095
-1.31827
59.2132
65.2759
65.2695
6.59631
30.1541
67.7814
53.9833
26.0706
-0.0127256
57.0464
30.3063
15.9543
21.4416
63.2659
20.8367
5.98115
56.7149
-0.452124
29.5743
53.7527
66.192
57.0987
56.97
63.9087
54.5176
-0.613323
-1.10966
-1.55926
-1.65985
56.6454
52.251
64.797
34.7971
-7.02287
25.0114
22.3859
3.81092
7.95419
-1.09192
76.453
14.7605
42.7012
-0.0330826
0.0406375
5.2881
0.0977166
5.58838
15.1489
36.1466
13.4524
10.1237
63.1706
83.4012
8.06682
-2.93694
5.37607
-1.64225
-0.475225
6.07985
17.9076
1.56193
7.78558
40.5986
-0.110018
43.2153
33.032
15.9536
-0.703749
14.1253
42.9516
22.1874
52.603
36.3017
1.0157
37.3384
21.6511
-1.88542
-0.0302074
0.558864
9.99962
62.1486
7.43554
4.98411
9.59834
19.4945
-0.86422
67.5942
-1.5378
57.1268
3.23937
-1.16613
0.516666
27.9594
97.2512
66.3422
63.8465
57.2927
2.70543
26.7226
-0.187262
-0.00584345
-1.42462
11.1348
64.6317
28.055
70.4476
23.4797
64.0833
52.609
18.8442
0.000414249
53.9629
61.8238
37.6222
-0.130383
-1.62929
4.2792
65.1335
61.429
32.8599
37.3553
66.7523
5.95599
-0.127982
-0.0867258
42.9725
5.90119
52.2639
-0.0337513
33.1676
13.8726
0.153851
64.607
29.4308
52.5307
-2.35143
2.81447
45.0737
31.7839
52.5821
16.5172
5.55939
59.521
5.48778
34.2218
61.9633
64.6478
-1.76502
56.9501
-0.00264474
1.50255
60.1636
18.7595
43.5208
43.7111
7.26359
64.7537
36.2775
-0.0843553
100.972
7.54715
7.61155
-0.644465
-0.267959
75.8249
20.939
6.06213
21.4697
11.2424
57.2435
66.0948
0.422045
-3.01074
-0.961396
28.4149
-0.698375
0.150236
-0.143603
64.4013
32.8119
7.79699
28.9731
42.9341
91.6589
66.053
62.6638
65.8803
-0.0815708
-12.1746
42.8818
18.0808
24.3197
-1.92442
61.6081
7.16733
26.1211
4.52286
44.431
90.7188
42.416
-0.00172567
50.5156
-0.251266
0.00781696
51.0472
-2.35466
26.1652
65.9354
21.7718
6.15155
-2.55213
60.0202
66.3578
68.0659
67.2803
78.2868
-3.04719
-1.40228
36.7163
25.4251
13.8027
-0.32815
31.9546
11.3913
23.6552
9.43721
-0.0541565
27.8372
36.2938
67.9236
58.1552
-0.0648439
51.9446
4.56886
107.785
96.6424
19.3376
67.8593
-0.956148
74.6955
43.7274
-0.83207
0.274671
44.0831
56.7691
22.9402
32.6936
48.8579
18.143
-0.0193044
-0.00972057
48.0428
33.4716
25.8742
-1.40373
60.9371
-0.333095
-0.00749858
-1.25169
12.0216
19.1588
-0.0937394
28.6219
53.0507
60.2395
2.38687
61.5509
8.04596
60.5429
-4.07564
28.5591
0.140782
43.7035
47.8411
44.7769
62.5246
63.5645
18.6913
27.0365
66.0132
-2.182
64.3392
0.000277354
58.3185
50.2939
64.0727
0.52157
-0.104208
53.9
63.6065
56.7428
0.0445123
2.32559
51.9783
5.34998
-2.02862
44.7827
32.9224
27.531
66.9884
-2.97493
36.6724
15.0088
46.307
-0.540297
64.6195
55.2247
47.9848
-1.26694
57.382
24.4667
37.0817
49.329
0.634299
26.9951
36.4591
31.7764
-2.69418
21.9829
17.9071
-0.0768887
21.0434
-4.5521
7.43545
25.2392
-2.60772
5.39177
40.5386
0.159153
49.3095
97.2367
62.9019
-0.595774
58.0184
-0.138254
1.09575
18.6869
-0.22316
13.9209
9.14547
97.3549
63.6128
26.1444
31.2578
46.2551
68.0531
-0.136138
21.3766
39.0835
42.6416
-0.100563
66.1875
23.5884
38.8242
0.369125
17.5269
-0.261345
62.7032
-2.98813
58.3072
0.541387
97.8436
-1.85302
-0.0390332
67.873
-0.292959
61.5985
62.2173
55.0608
-1.14948
61.3825
63.9316
67.613
67.1996
65.1908
66.2369
-0.100468
23.3895
62.1457
1.15193
52.6191
47.5554
-0.0593392
0.111061
55.7679
57.4535
47.1056
22.6134
53.8788
-0.64563
0.773288
25.0812
23.0578
25.3863
66.9485
67.4077
26.1596
67.0051
57.8769
38.8893
66.6423
8.43778
65.3528
13.9618
42.9409
8.48759
21.1793
19.3682
28.5828
-0.0973921
27.4504
-0.116226
61.4003
60.1605
-10.951
5.19661
28.4305
31.5419
-0.280076
16.6695
25.6878
17.1072
27.3056
23.198
-1.23129
15.622
42.8549
0.455133
38.2599
-0.119856
56.0457
5.72069
30.5247
0.446211
-3.36749
23.1524
17.1342
37.7213
5.34366
46.5673
26.0113
94.9277
-0.473852
39.9735
42.9576
24.6431
67.0115
1.27212
99.2034
24.2779
14.0425
31.0959
0.131986
12.0352
16.3084
-5.10432
-0.463344
-1.45305
54.7953
-0.00204279
0.497633
0.190528
-0.148834
-3.01464
65.8405
64.5333
-0.886696
34.116
-0.148772
30.6573
18.0571
-4.25477
41.2126
-2.57425
58.4785
18.4774
6.15588
17.382
-2.70869
34.1537
-0.7101
68.0889
8.18418
56.3923
25.5344
-0.107729
54.5853
-1.48394
23.3959
62.0835
5.51124
26.1514
69.1414
73.9521
26.9128
25.1052
42.555
3.39862
46.4255
-0.235569
22.7128
4.89304
67.3189
33.2365
46.5462
41.4535
-7.15339
47.2162
36.428
35.0451
60.1383
9.29269
25.8131
-6.66599
1.64777
-0.470472
30.8811
46.4711
-2.03526
24.86
23.5167
5.54147
23.1041
-0.760815
1.34381
-2.6109
-0.292897
81.8658
6.5924
58.6416
-0.00428903
-1.13851
0.138463
56.529
-0.295686
49.0051
56.3825
61.0987
1.09913
19.7958
14.3131
9.82758
3.38183
44.9994
25.5413
25.5966
8.52562
-0.92738
56.7959
36.0158
28.2516
-1.68936
-3.36063
43.8433
-0.500758
17.5715
42.8803
69.9794
64.6016
-4.90879
5.39422
19.1671
-0.513056
0.181322
25.9646
-0.00589447
21.9258
20.5354
-0.0616525
0.0489817
31.8144
31.4875
25.0483
42.6226
0.0808785
45.4924
32.5199
27.3621
0.437293
56.284
-0.894578
64.6779
-1.21862
28.0724
-0.0408334
18.1135
55.3819
14.5453
31.8403
25.4415
0.322316
50.1739
7.09228
33.7276
24.1995
17.2512
53.0754
57.9257
33.2897
51.1596
3.16093
0.0864654
-0.566658
25.4598
-0.127145
7.61421
53.2452
68.81
56.8004
-1.40455
59.7116
14.0934
5.03752
34.345
46.4778
31.1008
0.0463705
49.2485
35.554
30.6741
99.9665
105.052
23.5307
-0.0783826
7.91648
4.27572
64.8294
27.8357
37.9531
28.6036
55.1792
33.9187
60.1989
-0.253727
27.6622
13.9496
0.00723973
5.83785
46.8959
5.24686
99.5923
34.8991
42.8412
66.2478
0.824054
-0.00288172
0.0674827
25.3202
42.0667
25.9365
-4.44356
9.39412
3.98999
57.2607
-0.236258
35.776
-1.42377
14.2632
13.5561
3.7581
57.7398
28.0665
17.6364
35.5963
60.9848
24.0221
65.8412
62.0836
52.7504
25.276
17.2672
70.5319
35.0851
58.3458
26.183
0.135632
-6.98903
-0.00577065
102.71
-0.912048
1.53176
-7.13491
54.9742
-0.468164
-0.127762
51.0733
18.4082
0.00232995
-0.0361425
6.68294
1.42161
0.0753286
37.066
14.5556
25.2427
45.4264
35.5331
30.5856
49.119
22.7635
0.594436
-0.834559
67.5894
3.63414
26.9468
0.126334
25.1311
25.215
0.732693
36.8055
24.7224
18.01
67.281
-0.251056
18.7293
-1.32493
14.5975
-0.907056
-5.37321
64.2743
13.7239
-0.014521
62.346
3.96586
-1.0003
12.1332
6.06403
41.8004
25.1126
-0.529465
-2.49901
41.4586
24.0379
0.0949648
17.8295
23.3698
39.544
28.0628
30.959
65.7581
17.6516
49.2316
57.3611
-0.923979
15.4944
67.3797
0.00135147
63.6379
31.1067
-0.00511411
60.225
63.5801
-1.44427
46.1166
70.8793
41.4134
4.9085
22.8363
-0.00573304
3.95144
51.3643
23.2913
26.1588
-2.60509
71.721
4.06803
-0.558479
-0.492954
42.734
69.6212
29.8523
-0.00401607
0.171507
11.1269
-2.37145
18.5649
60.272
97.9288
20.8963
22.1556
17.4721
61.788
0.0567947
44.3246
19.0248
55.3391
7.94059
47.6861
-2.64003
-1.31049
4.42222
-0.0670792
-0.101736
50.498
1.79513
60.6289
-0.234134
43.1898
-0.530907
27.7699
20.3651
36.187
100.269
31.3248
-0.106688
54.3759
24.0364
34.3382
53.9727
99.2342
26.3595
25.0339
-10.8901
55.1863
11.4283
54.1657
19.0744
26.0886
0.402246
59.6908
35.5091
-0.450736
-0.0798728
57.1963
-1.52857
47.685
56.6137
12.1981
-0.210301
17.8675
66.4102
54.1638
5.14832
59.966
57.4159
40.7077
0.898034
-2.68592
36.7128
63.5784
24.9081
18.9018
-1.50459
0.118227
21.0423
40.583
43.2983
56.5883
14.6909
11.2436
25.5053
24.5525
30.4176
57.1365
35.9459
32.6222
8.38846
-0.104282
34.5314
24.4604
9.43849
-0.626242
57.287
62.0455
58.3069
55.3602
26.3958
63.2323
-0.543212
62.0531
23.7809
17.2011
-0.127176
39.1922
38.2598
-1.50077
5.87946
66.0617
66.7697
8.22332
66.791
63.5456
42.9544
23.4514
26.7947
-4.39888
59.9058
20.8993
-0.751311
-0.0182471
-0.809598
25.2201
2.05802
17.4552
27.2849
15.5266
-1.58303
63.4504
31.5131
66.425
59.0837
60.9823
32.3803
-0.0593891
45.0728
7.28092
1.52779
64.0273
56.0666
56.1902
56.7888
19.1549
39.8858
25.1307
0.0247291
54.5026
-0.975943
26.6563
18.6415
28.0179
-0.0344902
25.3454
53.4732
0.00040067
57.4217
48.7396
-0.781608
-0.637365
-1.68244
64.429
54.9932
-0.0104223
-1.82495
0.113653
-0.57551
9.2291
-1.79262
2.92627
3.01446
1.27605
1.34718
-0.811564
-0.774891
35.5552
-0.0562349
-0.0486422
33.2936
29.2172
35.1893
67.9484
33.0492
4.09137
3.99555
-0.00221954
13.9901
22.6603
19.4769
21.5412
-0.735706
66.682
48.5618
60.291
26.1975
35.8701
24.0669
29.7183
0.0413516
27.9838
17.4729
0.565582
28.1976
30.1703
-0.125541
62.8381
56.8871
0.251614
54.9212
50.4897
18.1805
18.523
-0.130528
47.5659
22.5269
-0.0105469
48.0424
-0.12634
-1.55159
50.745
97.7841
1.94963
13.7581
-0.046744
27.1859
8.56622
60.9152
40.3118
0.111402
0.16278
6.65327
30.1658
1.09415
22.261
1.75225
86.8707
56.0959
6.72479
-0.17244
-1.03034
27.9498
46.3914
68.0884
30.8412
64.5944
8.98257
67.2336
93.4341
59.1715
68.1555
-3.7688
1.33536
26.9639
-0.125601
68.6837
64.248
51.5875
72.8638
53.191
55.2102
63.1069
64.6267
64.4488
40.8615
14.6162
67.2224
79.3595
-2.02725
29.6359
36.4256
3.0502
26.073
-0.576238
23.5607
27.6462
9.73055
29.7813
0.119541
42.3976
18.0493
32.4389
-0.11137
0.706288
-0.267996
-0.0250832
58.5078
47.8973
13.4614
-0.716175
30.8177
-0.100502
0.141807
1.39957
-0.666272
11.0998
90.3316
16.3512
56.3546
-2.53504
46.3089
42.5309
22.2093
8.32616
2.69375
36.0579
72.6718
-1.63346
-0.0199193
13.9348
24.7305
25.0241
41.6355
9.65422
43.5963
58.6696
5.44704
6.79094
50.536
0.760016
-1.52145
-0.164572
-0.0096464
-0.271318
37.756
46.7561
67.9499
65.0838
-0.394524
-0.154836
-0.760554
26.7477
64.0295
49.2532
82.9763
49.4512
-0.259132
4.73453
28.4261
18.0963
27.234
24.4511
31.9331
34.6971
11.1115
54.1947
12.8437
1.24657
6.20799
45.5126
14.511
12.7806
111.456
11.5512
68.0866
67.3381
57.9517
67.6143
57.0181
30.3499
1.73827
14.9122
57.9729
53.3851
0.987281
-0.0794686
17.5694
18.3922
-1.26386
29.7896
22.4535
30.3215
68.1223
-1.55042
42.428
31.2014
27.0878
54.935
32.3902
18.6959
34.5497
22.5069
33.3369
4.08037
39.0341
-0.819186
29.7583
66.2545
29.1746
8.48248
0.778534
62.8107
19.1797
26.6326
21.895
-0.0977016
67.4618
51.7186
32.6602
8.50151
18.0448
21.1971
1.25683
98.5652
27.8079
21.7059
13.8016
11.0146
0.114575
-0.404174
39.9406
-0.0854475
26.3291
31.4614
23.6819
-0.54531
2.86281
0.43212
11.3646
45.9091
27.2999
40.0698
26.5373
35.1483
4.08949
3.50119
61.9262
4.14309
-5.21752
61.2922
3.46565
65.742
68.0098
-3.35859
58.1737
4.97873
26.6334
-3.71346
-2.8563
31.6988
70.464
6.2909
31.4127
9.50583
61.8892
30.8443
14.0367
-0.752307
0.907918
66.6957
63.4031
27.017
67.5242
-2.26121
66.5168
22.2866
10.9111
47.9049
45.9083
-0.329456
-1.62412
64.7485
22.9863
-0.10653
69.9062
56.2637
30.7768
36.9974
66.3138
69.5104
13.649
25.2224
0.912832
14.6451
16.3849
10.8175
28.9725
0.426272
4.3249
18.9105
43.359
58.8742
33.8283
64.4555
71.7777
3.19667
13.6585
36.0093
4.04532
61.2078
6.20563
-1.91346
66.0965
28.0643
82.9535
-1.15603
48.6271
27.7147
-0.0854363
15.8645
-0.326653
12.9243
65.3855
58.1424
65.613
12.0695
37.3754
-0.641841
-0.218986
1.54878
64.5392
-13.9039
15.4307
-0.318102
63.3555
46.7119
0.202326
14.7881
52.7462
-1.62998
23.5534
-1.39028
11.3739
35.0632
62.9443
64.4062
58.6926
-0.695497
29.474
6.49486
24.9352
-0.369108
18.2874
0.0919711
33.006
0.576214
64.8967
26.012
25.462
56.3184
-0.28482
66.6313
-2.64281
64.6486
0.00870326
69.2524
19.1074
37.6154
37.2432
64.2746
59.7955
64.7824
62.4498
98.7625
45.9301
12.8758
26.7972
0.672555
69.3586
67.6535
-0.666683
46.0137
37.9836
-0.580195
60.7292
43.6018
40.854
-2.09543
-3.6673
34.9058
27.5938
35.5942
42.0616
9.80534
44.0551
39.6868
44.8872
44.6825
37.7505
13.5329
-0.724231
75.8365
42.2753
20.9345
-0.00254652
13.9888
68.0357
61.628
22.579
26.0451
47.0622
-0.315771
44.2612
45.5241
59.8846
45.9078
27.7467
65.3954
4.09083
46.4258
64.5725
-1.5233
6.65404
42.3394
-0.733866
-0.333708
26.8926
0.00400336
-3.04304
-0.675516
56.043
42.8304
30.9963
-0.0547273
67.7344
13.0216
-0.0667106
67.2554
25.3696
43.4401
24.8451
66.1697
0.680213
-0.0391846
-0.88516
68.1731
62.6337
20.5738
46.2064
58.3821
3.2356
40.3563
83.6784
59.1393
41.1642
29.7527
20.3048
25.5903
63.4046
27.1592
-0.427138
39.9658
54.3252
67.5945
28.8648
42.8266
57.1986
59.1375
-0.227552
25.2331
41.0632
51.618
0.113006
67.3391
43.749
66.7271
-1.83289
65.1198
54.7155
-2.52502
27.1447
26.8056
55.1718
1.30947
5.00745
22.7221
60.2755
78.2247
7.33378
45.1466
3.55012
4.96374
12.5152
82.9866
3.91421
20.278
30.1399
14.5554
11.7011
3.21323
0.476692
2.41716
53.4309
18.8351
57.9259
0.106541
26.9583
1.95301
21.666
-0.288113
45.3042
0.120953
-0.30893
51.0217
34.3487
15.9797
58.2827
25.6179
67.1389
-0.0720247
14.5063
55.0584
12.3429
58.6589
4.45816
8.2745
7.01563
14.2351
45.7232
60.8468
28.1772
29.5329
29.6608
6.73962
11.9039
-0.0777525
-0.690533
21.9689
24.7651
18.149
26.5886
-0.31034
64.429
12.6823
-4.44182
26.3264
-0.414261
58.7961
36.5005
87.7773
27.5609
28.2188
67.4594
38.9855
42.6307
2.92587
56.5194
25.9229
-1.14744
66.1268
3.07653
8.53958
-1.70758
53.8055
8.88789
66.1505
19.3376
18.8674
9.50194
57.6138
66.3528
21.7344
7.27097
-0.527797
24.1446
50.1486
-4.18
27.0467
33.3322
-0.0611581
67.387
-4.4946
-1.78834
42.2377
45.9546
-0.988438
28.7449
0.140222
42.2111
48.7775
42.9111
7.01634
47.4279
30.7901
67.7615
0.099543
76.5456
21.6712
10.9954
10.3548
42.208
25.1174
8.42128
-0.00915416
48.6561
-0.00827462
33.1257
7.17949
42.5526
64.4221
45.6018
1.22612
50.8358
61.506
3.7201
14.7805
14.3597
29.2891
-0.00120623
44.7564
63.9497
17.7017
0.0491259
30.6726
5.40062
28.5292
31.1858
42.3214
56.7657
33.095
77.2238
48.812
0.86105
10.0005
-2.73466
-0.821936
60.0852
36.3051
1.00066
92.7557
-4.13139
21.6415
0.472457
23.6996
52.2197
0.0452926
0.206896
12.6108
-3.08685
-4.59388
21.9937
33.8539
4.4728
56.1787
-5.25561
8.03454
49.7335
26.346
-1.24495
3.10264
15.3881
21.2785
46.6094
7.94894
21.1113
66.5405
27.8438
110.316
24.691
-0.437355
2.25137
27.3091
66.8694
84.7124
12.6315
-2.61233
37.7664
53.2185
7.53835
0.268301
0.0939315
62.9555
0.590424
43.8628
1.46927
88.7519
0.788003
61.542
-0.529719
-1.49048
-0.233778
22.0254
8.08308
21.633
2.40904
59.8902
38.743
57.5218
63.3852
62.1208
10.2879
59.551
9.83729
21.1594
23.5326
14.3711
0.700557
-0.0888749
65.9615
59.315
-0.623601
33.9127
50.4722
-0.0658885
33.2997
-1.24781
45.135
59.3937
55.4422
35.6434
29.2609
19.0725
19.1152
13.3814
1.45877
20.3839
19.1445
1.33096
10.4461
29.7154
-3.91893
93.6581
23.2582
-1.6737
57.2536
36.89
64.3884
66.3624
15.3816
37.0531
3.89033
0.0659152
68.2368
35.6873
48.502
18.8005
54.1312
72.1634
-0.129406
20.023
24.0599
33.4448
-0.272866
59.149
24.7931
47.7205
-0.00692477
39.7557
-0.532481
20.858
30.4498
47.0311
12.7443
1.07916
2.89434
54.4262
44.3368
-8.78867
-0.343695
25.3486
62.2986
49.8927
41.1968
49.5582
66.4373
25.0213
14.1047
32.6769
18.5109
37.0511
67.8945
2.74084
99.9953
57.9516
0.973921
21.0555
60.0086
16.6142
11.8886
2.28636
32.0033
10.8972
27.1774
12.5419
26.9152
30.6586
42.1769
60.7609
52.3979
-0.376765
55.8674
54.2676
47.9615
15.3327
-1.67708
43.3222
61.6378
55.8779
-0.0543427
30.381
49.7861
50.9951
-3.9336
0.568447
26.5593
19.8753
-0.434753
-2.67333
17.4359
4.58046
18.0706
2.51076
-1.26868
34.601
2.37491
60.1762
-0.740698
-1.15673
31.4908
21.4211
23.9771
35.7311
2.94248
7.45748
25.0065
53.8151
26.6381
39.8425
66.1525
29.3901
4.19758
5.87754
47.5465
-0.924568
57.2705
32.5552
-1.82401
26.48
22.6206
35.6135
46.1702
68.021
61.6853
-6.52873
42.6273
22.672
8.41733
6.77662
0.086117
34.0002
-3.78212
35.5045
0.286005
97.3343
30.9007
42.3524
58.6119
101.743
0.132291
65.7336
-1.74607
0.264104
31.1484
21.0042
-0.781902
59.7426
98.3331
46.4091
8.63749
17.1329
63.1997
15.7307
102.236
-0.0456001
-0.421613
44.2604
60.4495
18.305
35.4354
62.9962
4.05727
-0.648675
97.9957
24.8172
-1.13865
-1.0327
61.8294
-1.60502
53.5147
-0.453882
30.7991
-1.48212
45.6852
9.19352
13.3572
11.4842
44.9093
3.21442
25.4382
41.7929
-0.324297
19.4106
56.0117
37.5707
43.1919
-0.118122
54.3257
6.78296
34.2228
63.9586
59.6941
-4.08391
62.7198
4.10008
-1.8823
-0.179761
19.3264
81.6247
61.3593
-2.56224
5.46004
43.667
30.319
67.6405
63.2144
59.6771
-0.121542
52.3763
22.2799
31.0821
3.73581
-7.74722
67.6495
2.52505
107.279
67.8022
-0.022436
54.4742
65.111
26.0832
-7.10817
20.6066
37.103
63.3518
24.6323
9.34404
67.4921
-0.530025
45.4882
55.4563
22.7732
12.5275
36.1563
38.7335
44.1944
46.7797
33.7898
46.1638
22.9908
-1.89889
48.6244
-0.157221
52.2126
7.87422
45.925
35.887
63.3608
0.562031
29.8077
22.5628
2.94581
80.0508
59.1048
0.217607
58.8521
31.4442
4.75839
6.43397
37.6528
1.81535
14.5416
26.4942
-0.453917
4.85474
29.7065
-6.50412
53.3224
0.00377711
39.5241
-0.364851
27.1092
55.8452
4.95486
63.1497
-0.735721
-0.000655828
25.2476
-0.797009
-0.50907
42.9009
67.5424
28.0126
7.59635
18.9231
22.1336
0.0147982
36.7502
-0.0742839
32.7861
29.5821
7.7309
-0.265147
-0.800512
-0.227874
67.215
38.3753
27.5698
56.7731
-0.0104904
-1.46972
-0.020555
60.6734
33.4771
16.0394
26.3422
-2.6886
0.10019
5.67506
6.44275
-0.084963
60.6523
57.5055
54.9232
-10.7237
-0.939396
26.9561
64.1476
65.1869
0.149491
55.1497
60.5969
43.6762
3.06769
-4.59518
18.8945
68.2164
35.652
21.4816
24.5936
11.243
51.2983
51.8491
31.1189
21.3666
54.2821
57.5612
23.1605
9.83793
22.4252
50.5235
8.22154
0.958676
62.3065
63.6214
-0.543899
55.6478
79.4078
66.2786
57.1865
18.0061
52.474
4.69964
3.11725
25.9117
36.3352
0.0260746
63.7313
58.6952
-1.21635
29.2554
11.3618
13.0173
-1.42727
48.7458
101.292
68.1591
-0.537663
67.7768
30.3139
0.0993384
5.14824
60.8077
22.1137
61.7619
66.8396
17.0805
27.2953
31.816
10.8754
94.363
66.9543
43.4262
27.0867
16.8892