/*--------------------------------*- C++ -*----------------------------------*\
  =========                 |
  \\      /  F ield         | OpenFOAM: The Open Source CFD Toolbox
   \\    /   O peration     | Website:  https://openfoam.org
    \\  /    A nd           | Version:  7
     \\/     M anipulation  |
\*---------------------------------------------------------------------------*/
FoamFile
{
    version     2.0;
    format      ascii;
    class       volVectorField;
    location    "31";
    object      U;
}
// * * * * * * * * * * * * * * * * * * * * * * * * * * * * * * * * * * * * * //

dimensions      [0 1 -1 0 0 0 0];

internalField   nonuniform List<vector> 
115546
(
(1.0244 -0.0380352 1.83248e-22)
(0.999988 -5.07874e-07 -1.68691e-25)
(0.98917 -0.00891959 2.30838e-22)
(0.997292 -0.00289862 -3.84852e-23)
(1.00133 -0.00325803 4.89063e-24)
(0.999277 -0.00107442 1.06983e-23)
(1.01029 0.0929845 -8.97822e-21)
(1.03756 -0.0742622 3.14623e-22)
(0.999758 -0.000347307 -3.47232e-25)
(0.999987 -4.34799e-07 3.48887e-26)
(0.99981 -1.77641e-05 2.8325e-24)
(1.00012 -9.4001e-05 2.65846e-24)
(0.998923 -0.00352524 -1.445e-23)
(0.937968 -0.00411474 -8.15741e-22)
(0.999757 -0.000356178 3.37563e-24)
(0.945441 -0.0186517 -1.89025e-21)
(0.999895 -0.000267522 9.75331e-26)
(0.99971 -0.000187448 -4.63555e-24)
(0.988871 0.0893539 1.10821e-20)
(1.00137 -0.00329919 2.63335e-23)
(1.04214 -0.0754631 2.91638e-21)
(0.995692 -0.000129126 -1.78007e-23)
(0.999661 -0.000252435 -4.60511e-24)
(0.995826 -0.00419838 -2.65296e-23)
(0.931927 0.0248844 1.05964e-20)
(1.10065 0.0242437 2.20869e-21)
(1.26649 0.0379587 1.35086e-21)
(1.0141 -0.0034125 7.86057e-22)
(0.999983 -4.16635e-05 -5.35525e-25)
(1.00991 0.153503 -1.04411e-20)
(0.999893 -3.66022e-05 1.66633e-24)
(1.04024 0.00898653 7.47243e-22)
(1.00563 -0.00868816 -1.86383e-23)
(0.988926 -0.00470497 -2.11855e-22)
(0.921417 0.0675228 4.84247e-21)
(0.998499 -0.000902749 6.61294e-23)
(1.01392 0.102523 1.54491e-21)
(0.999894 -0.000273929 -1.17174e-26)
(1.22183 -0.152727 5.19045e-22)
(1.01915 0.054964 1.38505e-20)
(1.04068 0.00945777 -1.45268e-21)
(0.999706 -0.000194354 -9.49293e-25)
(0.986328 -0.0163127 -4.40206e-22)
(0.998503 -0.000875064 -4.70174e-23)
(0.971988 -0.0439359 -7.80432e-23)
(0.938332 -0.00370155 8.49881e-22)
(1.00463 -0.0106114 8.49256e-23)
(1.00433 -0.000531449 6.69186e-23)
(1.00006 -0.00523589 -4.56437e-24)
(1.00012 -1.03391e-05 -1.2775e-23)
(1.00001 -9.71601e-07 -9.68074e-26)
(0.997312 -0.000120407 5.37644e-23)
(1.02941 0.0101082 2.49351e-21)
(0.999989 -3.19587e-07 -2.78181e-26)
(0.998501 -0.00619012 6.43952e-23)
(1.0291 0.0103617 -6.51821e-22)
(1.02343 0.000581509 1.7704e-21)
(0.968618 -0.0306229 -2.38746e-22)
(1.20097 0.0367895 -7.92342e-22)
(0.991696 -0.0110182 5.07133e-22)
(0.99994 -0.000149669 2.66575e-25)
(0.995756 -0.00444867 2.29398e-23)
(0.999419 -3.36314e-05 -9.12904e-24)
(0.985798 -0.00775478 6.33334e-23)
(0.999946 -3.9222e-05 -9.38936e-25)
(1.00074 -6.12748e-05 -3.29313e-24)
(0.9991 -0.00322363 6.01122e-23)
(1.03086 -0.00295752 1.42389e-21)
(1.28504 0.0767817 -3.37938e-21)
(1.02389 0.000261169 7.22876e-22)
(1.0533 0.101932 3.83107e-21)
(1.192 0.0949889 -7.60485e-22)
(1.01925 0.0541566 6.1339e-21)
(0.96612 -0.00285277 -1.5994e-22)
(1.01527 -0.0474391 -2.35631e-22)
(0.977626 -0.0073535 -8.80767e-23)
(1.13552 -0.0242324 2.36095e-22)
(0.999428 -0.00186947 -2.11072e-23)
(0.998565 0.0525672 -3.55252e-21)
(1.09804 -0.00452796 -3.20994e-23)
(1.09867 -0.0029467 2.5326e-22)
(0.999956 -2.60078e-06 4.19706e-26)
(0.973771 -0.0966365 1.27466e-21)
(1.01349 -0.000785943 -3.54283e-22)
(0.997321 -0.000763542 3.34233e-23)
(1.00012 -9.10961e-05 2.66562e-24)
(0.985588 -0.0121738 -2.94239e-22)
(0.999989 -1.491e-05 3.52248e-26)
(0.975405 -0.0077691 -2.26386e-24)
(0.999992 -2.44797e-05 -3.28054e-25)
(1.23384 -0.0860283 4.40097e-22)
(0.991235 -0.00469651 1.30374e-22)
(0.999982 -4.18036e-05 6.12584e-25)
(0.99887 -0.000802781 4.83775e-23)
(0.999641 -0.000238424 -7.99536e-24)
(1.00026 -3.80869e-05 4.18973e-24)
(0.999714 -1.22898e-05 -1.56286e-24)
(0.974441 -0.0961112 6.68281e-23)
(1.14214 -0.0915443 3.99883e-22)
(0.97553 -0.00754632 -1.38385e-22)
(0.999939 -0.000153034 -3.86351e-25)
(1.01736 -0.0059047 -8.13871e-22)
(1.00194 -0.00962766 1.16792e-23)
(1.00198 -0.000134349 -2.58563e-25)
(1.05239 0.100397 2.55958e-21)
(1.00477 -0.0687338 1.02882e-21)
(1.00992 0.0556084 -4.10473e-21)
(0.979552 -0.0609863 8.71736e-22)
(0.995306 -0.0223254 8.78307e-23)
(0.999986 -4.78471e-05 6.6326e-25)
(1.11558 0.0042171 -4.00208e-22)
(0.999717 -1.61081e-05 6.16045e-25)
(1.13677 -0.0224185 -1.36646e-22)
(0.996624 -0.0158625 -3.82648e-22)
(0.834086 0.0586984 -2.22701e-21)
(0.999708 -0.00942667 -1.81482e-22)
(0.999807 -1.50515e-05 -5.26232e-24)
(1.06653 0.102433 -4.6528e-21)
(1.00002 -1.31266e-05 3.19615e-25)
(1.19288 0.0918676 5.99433e-22)
(1.06601 0.104518 6.63667e-21)
(0.944902 -0.0190299 7.79677e-22)
(0.989512 -0.00939601 1.99814e-22)
(1.16933 0.0127909 -4.35044e-22)
(0.99999 -6.04441e-07 -2.86386e-26)
(1.0101 0.152016 1.20248e-20)
(0.995779 -0.00457005 -2.4529e-23)
(0.912464 0.14061 -6.42084e-21)
(0.998622 -8.24968e-05 9.50921e-25)
(1.02122 -0.000503053 -1.08202e-21)
(1.03588 -0.04637 4.44879e-23)
(1.00018 -2.44425e-05 3.74915e-24)
(1.0909 0.115287 -2.71527e-21)
(1.00012 -8.63899e-05 -8.11561e-24)
(1.00002 -1.1175e-05 1.59749e-25)
(0.987743 0.102668 1.77759e-20)
(0.939617 0.065682 -2.90576e-21)
(1.00562 -0.00884874 -2.16822e-23)
(0.998593 -0.00623686 -9.09292e-23)
(0.995803 -0.00439268 2.266e-22)
(1.12318 0.196311 2.73675e-21)
(0.99996 -0.00899545 -6.82365e-23)
(1.00005 -3.24051e-06 -5.437e-24)
(1.03608 0.0143419 3.23632e-22)
(1.0364 -0.0452553 -4.61871e-22)
(1.00001 -1.01163e-06 9.65159e-26)
(1.00908 -0.0123735 -2.58468e-25)
(0.995718 -0.00463268 -7.31764e-23)
(1.03059 -0.00268164 -2.20311e-21)
(1.00065 -0.00159626 -2.16068e-23)
(1.00396 -0.0680423 -7.81582e-22)
(0.971523 -0.0439446 5.52895e-22)
(0.991292 -0.00457929 8.33853e-23)
(0.999991 -7.51948e-07 1.36553e-26)
(0.99735 -0.000113662 3.09939e-23)
(1.00639 -0.00695991 1.566e-22)
(0.999987 -4.87329e-05 -8.99047e-25)
(1.09415 -0.0253005 -1.68779e-24)
(0.978804 -0.000531674 -9.00457e-24)
(1.00337 -0.093794 -5.95638e-22)
(0.977877 -0.0075518 4.79078e-22)
(1.00897 -0.0121735 1.50902e-22)
(0.99943 -3.1181e-05 -6.70981e-24)
(0.99766 -0.0496554 8.63312e-23)
(0.994825 -0.0135126 -1.74571e-22)
(0.999288 -0.00041988 -2.84376e-23)
(1.02282 -0.0107868 3.9791e-22)
(0.990968 -0.0266801 -4.47767e-23)
(1.09577 -0.0257267 1.23967e-22)
(0.994126 -0.0135051 2.12433e-22)
(0.992495 -0.0117804 3.69656e-22)
(1.00465 -0.0104316 -4.7217e-23)
(1.2447 -0.0970157 2.94058e-21)
(0.940403 -0.0149601 -1.34018e-21)
(0.997118 -0.0425849 5.39715e-23)
(1.02604 -0.00271809 -4.76817e-23)
(0.9405 -0.014085 2.96442e-22)
(0.998292 -0.00209803 4.24157e-23)
(1.00661 -0.0125494 2.27702e-22)
(1.00003 -0.00514942 -9.73851e-24)
(1.01098 -0.00843655 5.32073e-23)
(1.01583 -0.0470663 -3.04166e-22)
(0.981797 0.0928636 -4.93386e-21)
(1.03232 0.0138664 1.44852e-21)
(1.0091 0.0547464 9.69334e-21)
(0.999705 -0.000654505 -5.83908e-25)
(0.996954 -0.00243138 4.58305e-23)
(1.00003 0.000453545 -1.73459e-21)
(1.02336 -0.0191935 6.49027e-22)
(1.23108 -0.0870441 -2.31453e-21)
(0.998347 -0.00209866 1.32196e-23)
(1.00004 -0.00854706 4.67849e-23)
(0.994329 0.0414744 -7.33742e-21)
(0.981893 -0.0158795 8.76024e-22)
(1.09901 0.0242542 -2.96986e-21)
(0.992203 -0.081005 -6.66168e-22)
(0.940028 -0.0137165 -8.97441e-23)
(0.992047 -0.00020896 -2.20389e-22)
(0.979479 -0.0129045 -6.39398e-22)
(1.00431 -0.0312147 -2.31291e-22)
(1.02403 0.0139824 1.97657e-21)
(1.00267 0.069182 5.88768e-21)
(1.01263 -0.0082872 1.51873e-22)
(0.999988 -2.15419e-05 2.61613e-25)
(0.997069 -0.00207812 3.91553e-24)
(0.974199 -0.014353 -3.36984e-22)
(0.999468 -0.000728761 -1.48126e-23)
(0.999947 -3.95016e-05 7.24397e-25)
(1.02367 -0.00574858 -2.60703e-22)
(1.01238 -0.0552256 1.85184e-21)
(0.940101 -0.0128727 7.41581e-22)
(1.01103 0.0554576 -2.51331e-21)
(0.934644 0.0263018 -7.85367e-21)
(0.999992 -2.47122e-05 -4.59969e-26)
(0.999434 -0.023286 -4.69118e-22)
(0.981722 -0.0160928 -4.35743e-22)
(1.06521 -0.0224498 3.46796e-22)
(1.00496 -0.0101699 1.27366e-22)
(0.938062 -0.00285163 4.94869e-22)
(0.999883 -0.000173878 2.08775e-25)
(0.982472 -0.0319239 -2.28815e-23)
(0.984373 -0.0152177 2.69823e-23)
(0.999938 -0.00660695 6.02887e-24)
(0.977949 -0.000682989 2.77196e-22)
(0.999989 -4.015e-07 3.96955e-26)
(0.959535 0.0878904 7.55952e-21)
(1.00399 -0.0153803 3.23464e-23)
(0.978504 -0.0112744 -6.56651e-22)
(0.992663 -0.0800316 -3.75756e-22)
(0.970315 0.0405373 4.17807e-21)
(1.01578 -0.00411643 -8.13694e-23)
(0.974879 -0.0341237 9.29502e-23)
(1.11511 0.188471 -2.29801e-21)
(0.986841 -0.0254765 -4.1071e-22)
(1.03829 -0.0482802 2.69528e-22)
(1.02375 0.0141652 2.98812e-21)
(1.0003 -2.83318e-05 4.42477e-24)
(1.0006 -0.00776497 -2.98823e-23)
(0.988372 -0.0277905 1.52062e-22)
(0.997254 -0.000177397 -6.99426e-23)
(1.20398 -0.071769 4.33715e-21)
(1.01486 -0.0338487 4.36539e-24)
(1.00394 -0.0948997 7.84504e-22)
(1.14251 -0.0941695 -2.08874e-21)
(0.998574 -7.12847e-05 -4.44822e-23)
(1.00064 -0.00185064 -1.54333e-24)
(1.03644 0.00239826 1.86614e-21)
(0.976308 -0.00179093 -5.60416e-22)
(0.99131 -0.0267467 -1.38773e-23)
(0.951521 -0.0319127 -4.13458e-22)
(0.999227 0.0128153 -4.00347e-21)
(0.998974 -0.00110495 -3.70782e-24)
(1.02021 0.00146135 -8.98679e-21)
(1.00002 -0.00217214 -1.13644e-24)
(0.90942 0.132237 -1.16337e-20)
(1.01119 -0.00833102 -3.11913e-22)
(1.15663 -0.0233877 1.40781e-21)
(1.01412 -0.000799544 3.33411e-22)
(1.0002 -4.19549e-06 2.45181e-23)
(1.03791 -0.0757246 5.37867e-23)
(1.01129 -0.0080657 -7.51849e-22)
(0.938439 -0.00242339 -3.03539e-22)
(1.03275 0.0144924 -2.04641e-21)
(1.20684 -0.167187 -1.11703e-21)
(0.995091 -0.0225307 6.91005e-23)
(0.997353 -0.00292229 1.33498e-22)
(1.16657 0.0123837 -3.33415e-22)
(0.998636 -0.000190167 4.80346e-23)
(1.13228 -0.00852369 4.19267e-23)
(1.13711 -0.0365031 -1.35954e-22)
(0.999947 -2.04187e-05 -3.28125e-26)
(1.02352 -0.0187683 -1.60336e-22)
(1.00011 -0.00504512 -1.57523e-23)
(1.01521 -0.0342313 1.71045e-22)
(0.999048 -0.00268823 -5.37405e-23)
(0.984872 -0.0122802 -1.44879e-22)
(0.972739 -0.0413054 5.48526e-22)
(0.997713 -0.0425285 3.77216e-23)
(0.998424 -0.00826503 1.13451e-22)
(0.980259 -0.0609887 -7.34312e-22)
(0.998054 -0.0500477 -2.05003e-22)
(0.998597 -6.2613e-05 -3.32037e-23)
(1.00002 -0.00122556 8.79916e-25)
(0.97444 -0.0140942 1.83476e-22)
(1.00001 -0.000568314 2.91595e-24)
(1.0088 -0.0062379 4.65387e-22)
(0.961316 0.0867929 4.33233e-21)
(1.02152 0.000603749 -4.43135e-21)
(0.975695 -0.100061 -7.51985e-22)
(1.21806 -0.145042 4.85715e-22)
(0.972305 -0.0410816 1.23711e-22)
(0.99999 -1.9111e-05 2.31716e-25)
(1.20341 0.0221537 -6.80009e-22)
(1.01103 0.0546486 -2.42222e-21)
(0.999917 -0.000346905 -8.72201e-26)
(1.01374 -0.00803157 -4.37995e-22)
(0.998942 -0.00124432 -3.21963e-23)
(1.04261 0.00812711 1.12432e-21)
(1.0001 -0.00338429 4.33659e-24)
(1.14021 -0.0365322 -3.94006e-22)
(0.93938 -0.0104714 -3.97309e-22)
(0.992871 -0.038552 1.73825e-22)
(1.29162 -0.0482332 -1.29798e-21)
(0.995271 -0.00615313 -1.40069e-22)
(0.981835 -0.0397045 -9.38375e-23)
(1.08363 -0.00391649 3.00296e-22)
(1.01876 -0.0415638 4.0293e-23)
(0.978622 -0.0111007 4.41514e-22)
(1.12482 -0.193601 -3.57265e-21)
(1.00671 -0.0124009 -3.56698e-24)
(0.997892 -0.00139968 -3.92549e-23)
(1.07636 0.136838 5.3796e-21)
(1.09667 0.161099 3.71365e-21)
(0.988714 -0.0278408 -4.26287e-22)
(0.998844 -0.00355103 7.3407e-23)
(1.00197 -0.00928729 3.66597e-26)
(0.99327 0.0455292 -1.15945e-20)
(1.00062 -0.00187422 1.46373e-23)
(0.99593 -0.00421859 1.16301e-22)
(1.20354 0.00933554 1.92599e-22)
(1.06556 -0.0375479 -4.55105e-23)
(0.999886 -0.000178494 -1.70708e-24)
(1.01243 -0.00842285 -1.18427e-22)
(0.836998 0.0556981 3.94031e-21)
(1.08843 0.00452019 -1.53151e-21)
(0.978528 -0.00441427 -6.94948e-22)
(1.00655 -0.00691189 -2.27552e-22)
(1.03908 0.0058204 1.38306e-21)
(0.938896 -0.0100526 7.6997e-22)
(1.2041 0.0250398 1.01212e-21)
(0.997902 -0.00145523 2.78668e-23)
(0.99999 -1.9704e-05 -4.42649e-25)
(0.999722 -0.000694846 7.93404e-24)
(0.998959 -0.00122614 5.03854e-23)
(0.863805 0.0166658 2.56764e-21)
(0.997513 -0.00344326 -9.62717e-23)
(1.09998 -0.0191263 6.93988e-23)
(0.99995 -1.96092e-05 6.11926e-26)
(0.999264 -0.00105494 -1.41101e-24)
(0.996936 -0.00237973 -5.72432e-23)
(0.990415 -0.00974717 -1.89498e-22)
(1.05941 -0.000431335 -3.32902e-21)
(1.27047 0.0369926 -5.69074e-22)
(0.986152 -0.00727117 6.13176e-22)
(0.993475 -0.00761426 7.56764e-23)
(1.00131 -0.00243639 -8.74192e-24)
(0.998355 -0.0083638 -6.99515e-23)
(0.900299 0.137581 -2.01419e-22)
(0.975959 -0.0202396 1.14243e-21)
(0.998823 -0.00802716 3.07776e-23)
(1.0889 0.11395 1.4148e-21)
(1.01698 0.021834 -2.76996e-21)
(1.01116 -0.00786754 6.8002e-22)
(0.997943 -0.00228702 7.75304e-23)
(1.00388 -0.0313538 -3.01596e-23)
(1.00431 -0.0177387 -8.84095e-24)
(1.02393 -0.0373138 -2.98572e-22)
(1 -1.79203e-06 3.68174e-27)
(0.999501 -0.00117959 3.28371e-23)
(1.02819 -0.0282659 -9.93827e-23)
(1.07639 0.0496111 3.33351e-21)
(0.981289 -0.0452677 1.96794e-22)
(1.01233 0.10141 2.87659e-21)
(0.858637 0.0332527 -2.93071e-21)
(1.1193 -0.0317179 6.35185e-22)
(1.00001 -1.76301e-06 2.85257e-26)
(0.989404 -0.000275582 -3.65704e-22)
(0.987971 -0.0172641 2.43817e-22)
(1.00004 -0.00656454 3.18056e-23)
(1 -2.92925e-06 -5.45073e-26)
(1.07051 -0.0984454 -1.01226e-21)
(1.19719 0.169256 -9.58188e-22)
(0.976611 -0.00176506 -5.57939e-22)
(0.999586 -2.10102e-05 -8.98813e-24)
(1.13359 0.000413717 4.17958e-23)
(1.00317 -0.00445096 1.64934e-23)
(1.00186 -0.00943377 4.79389e-24)
(1.00011 -7.57967e-06 1.13498e-23)
(0.999019 -0.00119464 -2.78472e-23)
(1.03068 -0.0284537 -3.03875e-23)
(0.974566 -0.033844 6.89378e-22)
(0.996476 -0.0227409 -1.5087e-22)
(0.996078 -0.0153901 -5.59585e-22)
(1.02846 -0.028786 -9.81789e-23)
(1.0088 -0.00608483 -2.41834e-22)
(0.999909 -4.6076e-06 -2.345e-24)
(1.1158 0.185137 4.72648e-21)
(0.949123 -0.0292913 9.03517e-23)
(1.00135 -0.00314598 -2.88053e-23)
(1.02914 -0.0638063 -3.09485e-22)
(1.03818 0.00775764 -5.13621e-21)
(1.01958 0.0437967 -7.15106e-21)
(0.985347 -0.012131 2.1924e-22)
(1.01419 -0.00364253 4.20912e-22)
(0.984585 -0.0151936 3.12799e-23)
(0.998606 -0.00157479 -7.31548e-23)
(1.12227 -0.19169 2.20756e-21)
(1.00044 -0.000870277 2.29126e-23)
(1.00009 -0.00496511 3.00593e-23)
(0.985615 -0.00888564 6.6812e-22)
(0.977781 -0.0157832 2.96245e-22)
(0.998571 -0.00169679 8.26288e-23)
(1.03161 0.17265 -2.88393e-21)
(1.02103 0.0526093 5.48212e-22)
(1.16538 -0.178958 1.10027e-21)
(1.07965 -0.0531382 7.82053e-22)
(1.00002 -1.18724e-05 -3.08197e-25)
(0.99622 -0.00884373 5.05831e-23)
(1.06218 -0.0251693 1.15228e-22)
(0.994791 -0.000203389 4.99608e-23)
(0.997335 -0.0178797 -2.81955e-22)
(0.997853 -0.00138489 9.8153e-24)
(1.00138 -0.00243003 -2.59043e-23)
(0.997457 -0.00299772 -9.21687e-23)
(0.997291 -0.000735411 -2.60075e-23)
(0.998405 -0.00812089 -3.74827e-23)
(1.00017 -0.00486189 -1.41133e-23)
(1.04596 -0.137068 3.25932e-22)
(1.00003 -1.75129e-05 2.93139e-24)
(1.00854 -0.00574206 -4.18227e-23)
(0.999994 -1.18754e-06 1.42956e-29)
(0.939645 -0.0125017 -1.01534e-21)
(1.00017 -0.000149955 6.4064e-24)
(1.00918 0.123018 6.83624e-21)
(1.09491 0.158897 -1.95228e-21)
(1.03221 0.0333628 -2.45064e-21)
(1.07842 -0.052201 -5.42982e-22)
(1.02745 0.0378748 -2.47113e-22)
(1.02354 0.000538448 2.49137e-21)
(0.998695 -0.00277519 1.06773e-23)
(1.00127 -0.00126207 -3.36708e-23)
(0.999835 -0.000489139 8.43676e-26)
(0.996529 -0.00176661 6.3455e-23)
(0.978991 -0.0112001 2.61507e-22)
(0.995336 -0.00604556 -5.67244e-23)
(0.996072 -0.00888391 1.34883e-22)
(1.02568 -0.0366773 1.23759e-22)
(1.00017 -0.000145353 -7.8706e-24)
(0.999877 -6.27098e-05 -6.59926e-25)
(1.00011 -8.4091e-05 -6.1014e-24)
(0.9994 -0.00183758 2.2383e-23)
(1.02141 -0.000596036 1.02416e-21)
(1.02294 -0.0360446 -1.96715e-22)
(0.985429 -0.00878804 -7.13523e-22)
(1.00001 -0.000553439 -6.0487e-24)
(1.0805 -0.095282 2.23545e-21)
(1.00062 -0.00178838 4.62699e-23)
(0.999891 -6.2325e-05 -2.45703e-24)
(1.01991 0.0429329 1.01902e-20)
(1.02616 -0.00293005 1.89053e-22)
(1.0012 0.0260881 1.74289e-20)
(1.00004 -2.41201e-05 -2.77814e-24)
(1.00004 -0.000416008 0)
(1.00134 -0.00137237 5.00691e-23)
(0.99145 -0.0272664 2.08234e-22)
(0.996186 -0.00509185 -6.12091e-23)
(1.02954 -0.0918187 -6.40352e-22)
(0.976513 -0.000781813 3.71755e-22)
(1.06355 0.0311959 4.12095e-21)
(0.993827 -0.000156121 4.58719e-22)
(1.03378 0.172517 -1.5106e-21)
(1.00065 -0.00176218 -3.37021e-23)
(1.00132 -0.00310117 3.35773e-23)
(1.00138 0.0408545 -4.64163e-21)
(1.07775 0.135041 -2.23765e-21)
(1.04252 -0.0768076 -1.75501e-21)
(1.00197 -0.00173116 9.09798e-24)
(0.940882 -0.0153218 1.46632e-21)
(0.993766 -0.000196695 -2.63507e-22)
(1.00004 -2.56017e-05 1.19123e-24)
(1.00854 -0.00591249 4.89479e-23)
(0.949884 -0.0301737 -2.28611e-22)
(0.988162 -0.0273772 -3.48482e-23)
(0.965805 -0.00285809 2.80901e-22)
(1.02594 -0.037453 7.68817e-23)
(1.0871 0.0038836 2.49139e-21)
(0.999994 -1.39631e-06 1.23329e-26)
(1.00202 -0.00169859 -1.78522e-23)
(1.01725 -0.00615155 5.81064e-22)
(1.03433 -0.016885 -6.32559e-22)
(1.00032 0.134066 -3.49331e-21)
(0.999999 -1.83536e-06 1.85778e-27)
(0.999951 -2.0365e-05 2.15779e-26)
(1.00132 -0.000119321 -8.85588e-23)
(0.98823 -0.0270104 -4.21946e-22)
(0.999525 -0.000718413 1.22671e-23)
(0.999914 -0.000377919 -1.46581e-24)
(1.10041 -0.0263848 7.21393e-23)
(0.907004 0.0166016 -1.05315e-20)
(1.14158 -0.0341728 1.5522e-22)
(1.00252 0.0334056 -4.38464e-21)
(0.984823 -0.00280877 1.6071e-22)
(0.99883 0.0119517 2.57598e-21)
(1.02157 0.00930158 3.07287e-21)
(0.997498 -0.00303299 3.62569e-23)
(1.06828 -0.0986385 1.38899e-21)
(0.949539 -0.0179932 1.27545e-21)
(0.996854 -0.0156974 2.73461e-22)
(1.00056 -0.00765824 1.75948e-23)
(0.997513 -0.00563944 7.90048e-23)
(0.998917 -0.000790278 1.47018e-23)
(0.999358 0.0372053 -2.05258e-20)
(0.987257 -0.0253077 -6.0806e-22)
(1.02291 0.121381 3.40034e-21)
(1.01933 -0.0419902 2.79965e-22)
(1.0324 0.0325707 1.36484e-21)
(0.985373 -0.00736604 2.69667e-22)
(0.990601 -0.0098023 -4.945e-22)
(1.20763 -0.0727776 3.20463e-22)
(1.02192 0.014226 3.24226e-21)
(0.997997 -0.0022985 -8.73471e-23)
(1.00002 -0.00210792 -4.10752e-24)
(0.999988 -0.0021901 6.61927e-24)
(0.999981 -1.24292e-06 -3.41574e-25)
(1.02137 -0.0363724 4.00796e-22)
(0.97453 -0.0498626 -7.31932e-22)
(1.00016 -0.000357819 -9.61086e-24)
(1.05675 -0.0265748 -1.58385e-23)
(0.999763 -0.000574848 1.26051e-24)
(0.999761 -0.000587345 -7.41896e-24)
(1.00155 -0.000200667 -6.93193e-24)
(1.02014 -0.0415261 -1.66384e-22)
(1.0005 -4.2399e-05 -1.63976e-23)
(1.00096 -0.00617846 -3.78603e-25)
(0.982628 -0.00322988 3.49073e-22)
(0.996973 -0.00438778 4.93082e-23)
(0.996534 -0.00182483 -2.21736e-22)
(0.992165 0.0670075 -2.78324e-20)
(1.10263 -0.0645566 -2.87801e-21)
(1.00756 -0.0111715 1.81069e-22)
(0.992442 -0.0120018 2.78469e-22)
(0.978054 -0.0309279 -9.03213e-23)
(1.00014 -0.00478784 7.04831e-24)
(1.00002 -2.39978e-05 -1.00177e-24)
(1 -2.28268e-06 -1.81949e-26)
(0.969516 -0.0059675 5.48134e-23)
(0.949782 -0.0175832 -1.30111e-21)
(0.97813 -0.0214847 -2.07854e-23)
(1.00002 -2.33882e-05 -2.77987e-24)
(0.988908 -0.00485712 3.99795e-22)
(1.05859 6.36004e-06 3.11265e-21)
(1.28907 0.0760964 4.10903e-21)
(1.11863 -0.0337507 4.31101e-22)
(0.999957 -3.10031e-06 -3.8192e-25)
(0.979119 -0.0110302 8.73432e-22)
(1.00394 -0.0297463 3.84596e-22)
(1.00008 -7.47517e-06 -6.6421e-25)
(0.999939 -0.000181129 -6.68506e-25)
(0.976644 -0.000583666 -6.82649e-23)
(1.00129 -0.000117553 -2.91104e-23)
(1.00044 -0.00399588 -3.31131e-24)
(1.0147 -0.0815099 -2.70431e-22)
(1.00031 -2.90899e-05 -1.31653e-23)
(0.96266 -0.0401224 1.0031e-21)
(0.982528 -0.00337035 -3.5329e-22)
(0.984876 -0.00292797 2.85909e-22)
(0.986344 -0.007374 1.00064e-22)
(1.0011 -0.00620544 -4.71385e-24)
(0.971213 -0.0222685 1.05105e-21)
(1.0002 -0.000335221 1.19154e-23)
(1.00002 -1.01677e-05 -1.30383e-25)
(1.00378 -0.00388195 5.91731e-23)
(1.05683 0.135818 -2.46396e-21)
(0.972453 0.038171 2.0702e-20)
(1.00902 0.0375997 3.63899e-21)
(1.02262 -0.0365153 7.11305e-23)
(0.99193 -0.0102297 -9.88131e-23)
(1.00759 0.043003 1.95964e-20)
(1.01055 -0.00708145 -9.59658e-22)
(1.00017 -0.000299141 -8.38669e-24)
(1.01909 -0.00101663 -7.83062e-22)
(0.989377 -0.00954757 1.10905e-22)
(1.13416 -0.00964739 3.42854e-22)
(0.997542 -0.00555332 9.78659e-23)
(1.02316 -0.000544495 -2.59159e-21)
(1.00074 -7.92759e-05 2.95282e-23)
(1.00938 0.037031 2.4602e-21)
(1.0004 -3.62347e-05 -2.01122e-23)
(0.99612 -0.00548929 3.37449e-23)
(0.985557 -0.00743012 -7.37119e-23)
(1.01265 0.053724 2.52157e-21)
(1.0002 -7.4118e-06 -2.18842e-23)
(0.988826 -0.0284098 5.63548e-22)
(1.0295 -0.0905502 1.22973e-21)
(1.06517 0.031376 -3.2507e-21)
(0.9962 -0.0343199 -4.20368e-22)
(0.996067 -0.0050424 8.68559e-23)
(1.14368 -0.0795603 8.92494e-22)
(1.00005 -1.26567e-06 -2.11807e-24)
(1.16715 -0.175939 -4.59047e-22)
(0.996831 -0.00448005 5.29993e-23)
(1.01397 -0.0081032 -6.93824e-22)
(0.991765 -0.0273169 1.97455e-22)
(1.00203 -0.000165899 -1.07765e-22)
(1.19681 0.164484 -2.56745e-21)
(1.02085 0.053531 -5.61508e-21)
(0.96355 0.0701533 9.62421e-21)
(1.02672 0.0375134 7.39942e-22)
(1.07367 0.0777464 2.54423e-21)
(1.13551 -0.0392016 1.06711e-21)
(1.12564 0.19893 -4.90196e-23)
(1.01072 -0.00701293 1.06594e-21)
(1.04282 0.0770314 3.06405e-21)
(1.00138 0.0231539 -1.35137e-20)
(1.00038 -0.00403432 -1.18475e-24)
(0.998978 -0.00255151 -2.79648e-23)
(0.978121 0.0335378 -2.23474e-20)
(1.00003 -1.62145e-05 -5.54074e-25)
(1.20896 -0.163553 1.35134e-21)
(1.28209 0.0942505 1.20216e-21)
(0.986413 -0.0123058 4.59149e-22)
(1.00076 -0.00163704 -3.28614e-24)
(1.03387 -0.0164973 -2.20276e-22)
(0.998952 -0.00118637 -2.61375e-23)
(1.0013 -0.00127987 -8.67414e-25)
(0.990549 0.0882758 -4.94224e-21)
(0.924409 0.0687814 8.50035e-21)
(0.999888 -6.33067e-06 -1.52478e-25)
(1.0002 -0.00033543 -1.18529e-23)
(1.06717 -0.0338753 2.72757e-23)
(1.00008 -0.0020057 4.52098e-25)
(1.29507 -0.0476255 3.05736e-21)
(1.07632 0.132344 -3.69655e-21)
(1.04755 0.0291896 7.01788e-22)
(0.999942 -0.00018236 1.70272e-24)
(0.992781 -0.0476351 1.69807e-22)
(0.994442 -0.0400021 9.42513e-22)
(1.00043 -3.61649e-05 1.29386e-23)
(1.01251 -0.0262184 -5.86636e-23)
(1.03646 0.00185572 9.94306e-22)
(0.93047 0.0668192 -5.44973e-21)
(1.00005 -0.00208454 1.38051e-24)
(0.999999 -1.97341e-06 -8.4783e-27)
(1.04302 0.0758225 2.25915e-21)
(1.01221 -0.025928 -1.11846e-22)
(0.999886 -7.42137e-06 -3.56284e-24)
(1.0271 -0.0120281 -1.6643e-22)
(1.00518 -0.00946056 -3.20059e-23)
(0.997507 -0.00329283 -8.62638e-24)
(0.998278 -6.16739e-05 1.99666e-23)
(1.23491 -0.142601 1.02205e-21)
(0.987604 -0.00448234 1.63393e-22)
(0.998967 -0.00116651 1.61914e-24)
(0.978061 -0.0158115 6.02592e-24)
(1.00021 -0.000323561 1.69762e-23)
(0.999899 -6.51731e-05 1.58498e-24)
(0.999828 -0.0093337 1.03003e-22)
(1.15202 -0.0110838 1.60462e-22)
(0.999824 -4.83143e-05 1.681e-24)
(0.982646 -0.0036073 -4.23166e-22)
(1.00056 -0.000771517 3.23562e-24)
(0.996499 -0.0338757 -1.84511e-22)
(1.01253 0.054475 -3.28597e-21)
(0.999909 -0.000350882 7.75417e-25)
(0.8417 0.0266565 -6.55692e-21)
(1.05907 -0.0603658 6.8203e-22)
(0.997783 0.0163784 2.87307e-21)
(1.14878 -0.0119773 -2.20495e-22)
(0.99959 -0.000222002 3.85291e-24)
(0.999978 -5.98948e-05 3.95709e-25)
(0.999667 -0.000244832 -7.23721e-24)
(0.996242 -0.00505014 5.65075e-24)
(1.0183 0.00213208 0)
(0.999521 -0.0077416 6.50931e-23)
(0.989299 -0.000347463 8.68742e-23)
(0.988903 0.101504 -1.6968e-20)
(0.950952 -0.0197992 -1.17155e-21)
(0.950524 -0.0196038 1.01138e-21)
(1.03096 -0.0276368 9.66602e-23)
(1.05575 -0.0297466 2.58089e-22)
(0.989709 0.0765134 1.72593e-20)
(0.999607 -0.000262566 3.71027e-24)
(0.989145 -0.0284797 1.15008e-22)
(0.98615 -0.0122721 -4.38998e-22)
(1.00016 -0.000147454 9.21129e-24)
(1.01593 -0.0341721 -1.03094e-22)
(1.00057 -0.000741864 -1.57573e-24)
(1.02185 -0.0367093 1.91681e-22)
(0.979814 -0.056814 1.47008e-22)
(0.891223 0.0854132 -1.0907e-20)
(0.961094 -0.0396397 -9.45848e-22)
(0.998378 -0.00187455 1.23828e-23)
(0.984975 -0.0117746 -7.7707e-22)
(1.00442 -0.0174453 7.13943e-24)
(1.09365 -0.0103941 -7.88765e-22)
(1.02386 0.000341727 -4.18933e-22)
(1.00732 -0.0329179 5.09081e-23)
(1.00001 -3.19832e-07 -3.27252e-25)
(1.00257 0.0336564 5.50254e-21)
(0.989917 -0.00539114 -4.39554e-23)
(0.939052 -0.00913913 7.14091e-22)
(0.999171 -0.00729754 4.22272e-23)
(1.02597 -0.0281684 -3.09373e-22)
(0.984236 -0.0370317 9.18067e-22)
(1.00383 -0.00380571 2.60475e-23)
(1.26379 -0.00614107 4.19338e-21)
(0.999347 -2.70766e-05 2.70119e-23)
(1.01067 0.0914808 9.06862e-21)
(0.999574 -0.01362 -1.10595e-22)
(1.03842 0.00327328 -4.90353e-22)
(0.966842 -0.00586642 6.61432e-22)
(1.01618 -0.00272164 1.18955e-22)
(0.999989 -1.49486e-05 6.41951e-26)
(0.982771 -0.0317103 -5.59128e-23)
(0.982553 -0.00374139 3.99254e-22)
(0.987899 -0.0262797 5.62298e-22)
(1.02704 -0.0124745 -1.18392e-22)
(1.01355 -0.0822559 -2.75822e-22)
(1.00022 -0.000323467 -1.92261e-23)
(1.01026 -0.143302 -5.32246e-22)
(0.998894 -0.000809648 -6.01735e-23)
(0.999989 -5.37508e-05 4.88897e-25)
(0.99954 -0.00761183 -7.19014e-23)
(1.00018 -0.000346771 4.92408e-24)
(0.927819 0.0659329 7.38994e-21)
(1.00016 -0.00014466 -8.13023e-24)
(1.00985 0.122049 -2.08533e-21)
(0.984672 -0.0124446 -1.22617e-22)
(1.0156 -0.0022044 -2.23464e-22)
(1.00222 -0.00174316 -9.57671e-23)
(1.0717 0.0197678 3.83735e-21)
(1.00307 -0.00450478 -1.06855e-22)
(1.01623 0.0222853 -2.38727e-21)
(1 -2.96318e-06 -2.66248e-26)
(1.01743 -0.0470179 -3.69004e-22)
(0.999026 -0.00372346 2.73976e-23)
(1.00131 -0.00300426 5.0325e-24)
(0.980289 -0.0129455 -1.86209e-22)
(1.00002 -1.34583e-05 1.30454e-24)
(1.20626 0.00220532 1.23441e-21)
(0.938704 0.141663 2.53181e-21)
(1.27844 0.0944856 -2.58982e-21)
(1.00017 -0.000291253 1.63187e-23)
(1.11301 -0.100513 -9.50122e-22)
(1.01857 0.00239287 -7.38492e-22)
(0.983524 0.0933686 1.21491e-20)
(1.00005 -0.00341164 -2.57486e-24)
(0.999794 -2.25234e-06 -1.43132e-24)
(1.06566 -0.0332646 -4.45183e-24)
(1.00013 -0.000106845 -5.81257e-24)
(0.969316 0.0332245 -4.63601e-21)
(1.00422 -0.0295011 2.13065e-23)
(1.19831 0.179716 -2.27086e-23)
(1.07488 0.0492501 -4.42413e-21)
(1.00012 -9.82991e-05 4.66366e-24)
(0.975472 -0.09879 -6.8936e-22)
(1.00672 0.0280609 -5.36888e-21)
(0.999899 -6.22972e-05 5.60037e-26)
(1.06632 -0.0228447 7.63644e-22)
(0.998439 0.00589456 1.37824e-20)
(0.998257 -7.8162e-05 1.608e-23)
(1.00183 -0.00977388 -3.98625e-24)
(1.00029 -3.87686e-05 1.00394e-23)
(1.0049 -0.0103667 -7.07388e-23)
(0.985608 -0.00766702 3.39159e-23)
(0.995236 -8.0329e-05 2.95173e-23)
(1.02997 0.124796 -4.55431e-21)
(0.996824 -0.0153834 1.83904e-22)
(0.883925 0.119549 1.9326e-20)
(0.811538 0.0125129 1.80431e-20)
(0.997822 -7.17206e-05 -4.93341e-23)
(1.00003 -0.000317113 -9.50427e-25)
(1.02284 0.119722 -1.93156e-21)
(0.997465 -0.00312146 3.26186e-23)
(0.987384 -0.00306676 8.74392e-23)
(1.00019 -0.000346931 -2.79595e-24)
(1.04961 0.0328999 1.59782e-22)
(0.967113 -0.00586679 -9.49118e-22)
(0.903439 0.0676183 1.35526e-20)
(0.999081 -0.00329704 -3.89231e-23)
(0.999962 -0.000934174 -1.74601e-24)
(0.989938 -0.00552282 1.51202e-22)
(1.29334 0.0502973 4.48743e-21)
(0.993285 -0.0477131 3.34265e-23)
(1.10444 -0.0230134 2.87886e-23)
(1.03985 -0.0278757 -2.71646e-22)
(1.02298 0.00925032 -2.55791e-21)
(0.999849 -9.03322e-05 -1.04664e-24)
(1.22021 -0.0462373 -1.50156e-21)
(1.00002 -2.28655e-05 -1.81936e-24)
(1.0012 -0.00105125 6.30514e-23)
(0.999994 -1.5383e-06 -2.72508e-26)
(1.16475 -0.171839 -2.67904e-21)
(1.0441 -0.0773422 1.47561e-21)
(1.01902 0.0418906 4.4955e-22)
(0.999981 -1.40722e-06 3.55125e-26)
(0.96481 0.0681987 -2.56587e-20)
(0.999686 -9.52093e-05 4.46072e-24)
(1.0163 -0.0338397 -1.15563e-22)
(0.999522 -0.000252985 1.33704e-23)
(0.949215 -0.0299115 4.53036e-23)
(0.992604 -0.0121921 -4.41428e-22)
(1.08865 0.0164239 1.47519e-21)
(0.999892 -7.97477e-06 4.67149e-24)
(1.01251 -0.0542699 -5.89935e-22)
(1.01314 -0.0260548 -3.9712e-24)
(0.991902 -0.011016 -3.74583e-22)
(0.999985 -5.80769e-05 -1.6074e-24)
(0.999943 -0.000926712 -1.21641e-24)
(0.999827 -7.84945e-06 6.04099e-25)
(0.978833 -0.0374358 -6.34208e-22)
(1.00128 -0.00249932 2.55945e-23)
(0.999124 -0.000512948 -1.40487e-24)
(0.976294 -0.000188085 5.72643e-22)
(1.00007 -0.000158393 -6.88675e-26)
(1.00022 -0.000314245 1.51931e-23)
(1.00423 -0.0153753 -2.43695e-23)
(0.999596 -0.000223922 2.25546e-24)
(1.00822 0.0435031 -8.64771e-21)
(1.04662 -0.00383441 2.77822e-21)
(1.29929 0.00143396 2.91715e-22)
(0.98088 -0.000568053 -7.36095e-23)
(1.00744 -0.0670502 7.38701e-22)
(0.999991 -8.08546e-07 -1.43703e-26)
(1.14671 -0.080689 -1.05976e-21)
(0.979197 -0.0566592 -6.2663e-22)
(1.00027 -3.82766e-05 1.52277e-23)
(0.978358 -0.021859 -2.64019e-22)
(0.998936 -0.00344654 -3.00869e-23)
(0.9736 -0.0154631 2.99126e-22)
(1.11383 -0.145319 -7.28201e-22)
(1.00038 -3.67224e-05 -1.50895e-23)
(1.02068 -0.041871 5.11652e-22)
(0.999989 -5.55537e-05 -1.96291e-24)
(0.996035 -0.00473726 -5.49632e-23)
(0.999704 -9.76974e-05 4.27614e-25)
(1.0403 0.0682191 -4.05663e-22)
(0.994168 -0.00142525 -1.53973e-22)
(1.00011 -0.000190136 -1.19238e-25)
(0.999865 -6.26339e-05 1.66188e-24)
(1.01856 -0.00870154 6.97429e-22)
(0.968422 -0.0310369 9.17497e-23)
(0.997502 -0.00315572 -5.17459e-23)
(0.999985 -0.000968129 -3.80069e-24)
(1.02874 0.126144 -5.56807e-22)
(1.00299 0.0681707 3.63637e-21)
(1.00135 -0.00297071 1.38317e-23)
(1.18999 0.125354 -3.82382e-23)
(1.09221 -0.109172 2.30883e-21)
(0.951634 -0.0324805 3.78979e-22)
(1.00004 -0.00031251 3.77414e-24)
(0.99999 -2.84765e-07 5.27811e-26)
(1.05787 0.13393 3.14053e-21)
(0.974043 -0.0131979 8.99571e-23)
(1.00008 -0.000158 -2.98912e-24)
(1.19438 0.0652289 9.16302e-23)
(0.999289 -0.000404182 1.72132e-23)
(0.999991 -5.19628e-06 6.06456e-28)
(1.06788 -0.00417495 2.1635e-22)
(0.985137 -0.0727843 -2.45677e-22)
(0.961606 -0.0395468 1.26084e-21)
(0.947088 -0.0292281 1.62965e-22)
(0.990783 -0.0254319 -4.18348e-22)
(0.994983 -0.000171019 5.30033e-23)
(0.987516 -0.00319552 -7.08954e-22)
(1.00066 -0.0074709 1.94011e-23)
(1.06252 0.0518849 -2.32467e-21)
(0.999828 -0.000495119 -1.8502e-24)