/*--------------------------------*- C++ -*----------------------------------*\
  =========                 |
  \\      /  F ield         | OpenFOAM: The Open Source CFD Toolbox
   \\    /   O peration     | Website:  https://openfoam.org
    \\  /    A nd           | Version:  7
     \\/     M anipulation  |
\*---------------------------------------------------------------------------*/
FoamFile
{
    version     2.0;
    format      ascii;
    class       volScalarField;
    location    "31";
    object      p;
}
// * * * * * * * * * * * * * * * * * * * * * * * * * * * * * * * * * * * * * //

dimensions      [0 2 -2 0 0 0 0];

internalField   nonuniform List<scalar> 
115546
(
-0.00857016
-2.63799e-06
-0.011766
-0.00279535
0.00119181
-0.000599318
0.282297
-0.0423292
-0.000129013
-2.89724e-06
-0.000150446
0.000213888
-0.00131529
-0.0458614
-0.000130666
-0.0443076
-4.54355e-06
-0.000202459
0.335863
0.0012352
-0.0440949
-0.00411212
-0.000234698
-0.00448702
0.45838
0.0514851
-0.0974745
0.018416
1.41321e-05
0.323276
-7.14198e-05
0.0768863
0.00408285
-0.0112624
0.464391
-0.00127088
0.281169
-2.39916e-06
-0.1989
0.190918
0.0773244
-0.00020535
-0.0159249
-0.00127255
-0.0388112
-0.0460016
0.00199871
0.00472131
-0.00056767
0.000203814
1.86961e-06
-0.0024091
0.0866456
-1.46325e-06
-0.0023438
0.0878892
0.0703537
-0.0335234
-0.0270844
-0.0102572
1.10682e-05
-0.00463784
-0.000486883
-0.0147645
-2.26467e-05
0.000844127
-0.00108847
0.0507199
-0.101476
0.0642055
0.206884
0.0286383
0.188209
-0.0299843
-0.0209993
-0.0219079
-0.0213152
-0.000572719
0.316011
0.0234372
0.0243964
-2.65519e-05
-0.0733502
0.0180759
-0.00239487
0.000208845
-0.0157941
4.02098e-06
-0.0227382
1.36197e-05
-0.133739
-0.00900385
1.35191e-05
-0.000943324
-0.000259296
0.000371027
-0.000234898
-0.0735957
-0.0938724
-0.0226773
1.0454e-05
0.0229
-0.000197645
0.00214948
0.20741
-0.0413289
0.206784
-0.0431357
-0.0124215
2.39253e-05
0.0178392
-0.000232616
-0.0194328
-0.00786039
0.582121
-0.00241485
-0.000150938
0.186267
5.08101e-05
0.0267045
0.188669
-0.0459844
-0.0116573
-0.012017
-3.79766e-07
0.321219
-0.00455869
0.469296
-0.00113619
0.0383241
-0.0143123
0.000280376
0.163136
0.000208577
5.07298e-05
0.340737
0.439726
0.00392664
-0.00224551
-0.00458761
0.166335
-0.00182301
9.73415e-05
0.0905519
-0.0130281
2.36583e-06
0.00628362
-0.00464782
0.0516398
0.000643036
-0.0409069
-0.0400633
-0.00893173
-4.59944e-07
-0.00236001
0.0058614
2.52405e-05
-0.00102981
-0.0207734
-0.0602464
-0.0215161
0.006238
-0.000476833
-0.0275462
-0.00836203
-0.000549708
0.0251911
-0.0173057
-0.00150969
-0.00906421
-0.00978428
0.00221392
-0.176261
-0.0461606
-0.0239338
0.0484192
-0.0461967
-0.00166719
0.00297641
-0.00055827
0.0110205
-0.020744
0.348906
0.0929656
0.20766
-0.000167773
-0.00298574
0.116094
0.0131149
-0.131467
-0.00164355
-0.00164388
0.36126
-0.019985
0.0535847
-0.0545551
-0.0463243
-0.00808265
-0.0211546
-0.0118109
0.100773
0.284825
0.0133908
7.24361e-06
-0.00289919
-0.025619
-0.000411791
-2.08849e-05
0.0357754
-0.0282161
-0.0459274
0.204733
0.456169
1.45296e-05
-0.00959749
-0.0202464
0.0145544
0.00270324
-0.0464215
-3.97951e-05
-0.0265533
-0.0180349
-0.00119347
-0.0211475
-1.55366e-06
0.401724
-0.000989684
-0.0221173
-0.0536985
0.409856
0.0212842
-0.0301811
0.178885
-0.0197937
-0.0159011
0.101592
0.000419921
-0.000698112
-0.0192337
-0.00243491
-0.116708
-0.00785852
-0.0606657
-0.0973898
-0.00119946
0.000581738
0.0639049
-0.022201
-0.0170079
-0.0429576
0.370424
-0.00091416
0.0867493
-7.01348e-05
0.475775
0.0113469
-0.0419532
0.0191811
0.000311026
-0.0439377
0.0115552
-0.0460502
0.0937293
-0.193103
-0.01291
-0.00272729
-0.00938729
-0.00113575
-0.00836875
-0.0365416
-2.78012e-05
0.0138423
-0.000456097
-0.00774278
-0.00106709
-0.0165363
-0.0347427
-0.0236329
-0.00312428
-0.0434794
-0.0281964
-0.00118268
5.81583e-05
-0.0248221
0.0001221
0.00886478
0.39684
0.0812639
-0.0696957
-0.18694
-0.035031
7.80337e-06
-0.0317806
0.201779
2.76949e-05
0.0152218
-0.000977765
0.0730508
-0.000170806
-0.0376923
-0.0463215
-0.0231119
-0.170727
-0.00537787
-0.0299302
0.0319996
-0.012911
-0.0218313
-0.166069
0.00312096
-0.00195693
0.203633
0.18749
-0.019163
-0.00141678
2.76873e-06
0.361395
0.000546655
-0.00433518
-0.04713
-0.0065368
-3.50173e-05
0.0129873
0.578694
0.0415698
-0.0208258
0.0061229
0.0702309
-0.0468914
-0.0322485
-0.00196354
8.09282e-06
-0.000156906
-0.00095163
0.54209
-0.00263243
0.00365643
-2.48817e-05
-0.000605477
-0.00297262
-0.0110058
0.0479724
-0.111518
-0.014369
-0.00763362
0.00121282
-0.00329088
0.48613
-0.0253517
-0.00263412
0.162851
0.122444
0.0114798
-0.00209037
-0.0123825
-0.00239473
-0.008024
1.89786e-06
-0.000402787
0.0043387
0.109449
-0.0329951
0.283783
0.545271
-0.0204815
2.01791e-06
-0.0109524
-0.0153562
-0.0010775
3.4928e-06
-0.0670534
0.0609264
-0.0221305
-0.000336211
0.00109964
0.00283855
-0.000178857
0.000200063
-0.000857035
0.00556823
-0.0303444
-0.0116338
-0.00787267
0.00391605
0.00898142
-6.44648e-05
0.17531
-0.0438756
0.00125063
-0.0338561
0.0751182
0.163801
-0.0160081
0.018492
-0.0177446
-0.00131076
-0.166233
0.000503996
-0.000447126
-0.0148285
-0.0230332
-0.00137825
0.282746
0.182351
-0.184017
-0.0268777
5.13166e-05
-0.00542885
0.0116271
-0.0050672
-0.0080669
-0.00198534
0.00127848
-0.00253464
-0.00244629
-0.00302635
-0.000353239
-0.0987018
7.88703e-05
0.00885412
1.30501e-09
-0.0464118
0.00027858
0.308509
0.189942
0.131175
-0.0266983
0.14346
0.0692038
-0.00141483
0.00135299
-4.87713e-05
-0.0032884
-0.0215002
-0.00533173
-0.00561132
-0.00624836
0.000275031
-7.65347e-05
0.000194671
-0.00059305
0.0390835
-0.00730076
-0.0152755
0.000114379
-0.0679098
0.000570052
-6.45816e-05
0.161979
0.0477421
0.220969
8.40836e-05
0.000155366
0.00139352
-0.0170289
-0.0044566
-0.0599372
-0.0219565
0.0972056
-0.0061499
0.283152
0.000595809
0.00120011
0.261483
0.198788
-0.045314
0.00201383
-0.0458003
-0.00614435
8.48075e-05
0.00877706
-0.0436254
-0.0199251
-0.0303161
-0.00737743
0.0413949
2.9519e-07
0.00205315
0.0225048
0.0236239
0.325795
9.26989e-07
-2.38983e-05
0.00145404
-0.0200641
-0.000342167
2.62701e-05
-0.00191709
0.48886
-0.0369856
0.205624
-0.014753
0.383835
0.0960994
-0.00251792
-0.0684415
-0.0408368
-0.00758157
-0.000689852
-0.00323202
-0.000918346
0.32197
-0.0193948
0.276755
-0.0137058
0.129543
-0.0150182
-0.0107596
-0.113769
0.104312
-0.00200238
-5.78227e-05
-0.000122971
-7.51462e-06
-0.00748973
-0.0384956
0.000270462
0.0104715
-0.000111817
-0.000113858
0.00167428
-0.0126288
0.000619964
-3.18377e-06
-0.0170905
-0.0033761
-0.00329631
0.339754
-0.0472511
0.00511247
-0.00975558
-0.0274135
-0.00035107
5.01074e-05
9.11628e-07
-0.0268813
-0.0405517
-0.0243875
4.90117e-05
-0.0113274
0.0496155
-0.112942
-0.0192056
-2.49357e-05
-0.0213639
-0.0117887
0.000149524
2.3909e-05
-0.0215562
0.0014117
6.21037e-05
-0.0508162
0.000429351
-0.0414226
-0.0172641
-0.0146954
-0.0141359
0.000172202
-0.0298522
0.000305729
4.84478e-05
0.00353131
0.23172
0.406446
0.161277
-0.00821118
-0.00957688
0.178068
0.011247
0.000271163
0.0308542
-0.0117068
-0.0134799
-0.00316902
0.0483961
0.000839997
0.159259
0.000511948
-0.00434307
-0.01492
0.196251
0.000301933
-0.0192107
-0.0591097
0.0949788
-0.0193617
-0.00427312
-0.0814683
0.0001099
-0.18287
-0.00356352
0.0156112
-0.0168352
0.00219031
0.0623555
0.184945
0.398592
0.1435
0.149799
-0.0384873
0.168193
0.0115711
0.195462
0.224299
-8.66884e-05
-0.00111071
0.40408
6.03898e-05
-0.196406
-0.0921453
-0.0150787
0.000768079
0.0238405
-0.000952967
0.00137029
0.331061
0.458733
-8.14866e-05
0.000313182
-0.00110189
2.81816e-05
-0.174101
0.201039
0.108287
2.83818e-05
-0.0287218
-0.0235104
0.000541588
-0.00196049
0.0629841
0.450432
-2.20366e-05
1.13946e-06
0.193223
-0.00217079
-8.41292e-05
0.0275365
0.00338505
-0.00257127
-0.00147091
-0.198212
-0.0125959
-0.000932283
-0.0228723
0.000321781
-5.6047e-05
-0.00222179
-0.0252509
-0.000127465
-0.0170973
0.000643976
-0.018687
0.198664
1.93539e-05
0.575802
-0.0315754
0.383577
-0.0219302
-0.000311407
1.89715e-05
-0.000230602
-0.00444696
0.0927553
-0.00194979
-0.0109291
0.338307
-0.0419859
-0.0421754
0.00653786
0.00556345
0.338224
-0.000273066
-0.0190505
-0.0153168
0.000254502
-0.00847875
0.000658505
-0.00691636
-0.0403051
0.502592
-0.0422873
-0.00155283
-0.0162747
-0.00200627
0.0178458
0.065243
-0.0113244
6.96924e-06
0.203353
-0.0103725
-0.0471008
-0.00196017
0.00365795
-0.0268614
0.00363189
-0.121831
-0.000550228
0.280173
-0.0044369
0.0650681
-0.0298206
0.0228111
3.53311e-06
-0.0262861
-0.0171501
-0.0194581
0.0266743
-0.0508119
0.000329959
-0.100071
-0.000940051
2.98126e-05
-0.0018681
0.000288887
0.4557
0.000260553
0.306141
-0.016638
0.0218137
0.00226408
0.0708139
0.00266296
0.124052
3.62401e-06
-0.0197015
-0.00123447
0.00105675
-0.0202171
5.54975e-05
-0.061461
0.428404
-0.0900491
0.000271695
-0.0858709
0.092258
0.346521
-0.000281743
-0.00016349
-0.00022695
0.000221864
0.41328
-0.0112977
0.0533257
0.110797
0.000214525
-0.0691872
0.143465
-5.69325e-05
0.0139332
0.400978
-0.00146701
-0.000354195
0.000399911
0.00254466
-0.0148476
-0.00454361
0.266979
-0.00745435
0.511408
0.602002
-0.00189536
0.000134985
0.277228
-0.00253741
-0.0130048
0.000297343
0.113094
-0.0299411
0.486209
-0.00115178
5.42901e-05
-0.0104275
-0.13273
-0.0286474
-0.00354884
0.00865054
0.0939153
-9.42554e-05
-0.101126
4.59806e-05
0.00126429
3.42761e-07
-0.178371
-0.0463192
0.160287
-8.0061e-06
0.398572
-0.000246176
-0.00808089
-0.000363078
-0.0439796
-0.00974242
0.0549269
-7.93174e-05
-0.0278499
-0.0016445
-0.00998101
2.66123e-05
3.57311e-05
-0.000136425
-0.0308015
0.00118109
-0.000695085
-0.0227799
0.000162582
0.000328379
-0.00069218
-0.000303762
0.17639
0.0477026
-0.152004
-0.0187003
-0.0390955
-5.0685e-07
-0.0855094
-0.0408804
0.000380224
-0.0243698
-0.00130978
-0.0259644
-0.127419
0.000501016
-0.0126505
3.08204e-05
-0.00424933
-0.000226143
0.183892
-0.0057007
0.000204885
-8.89257e-05
0.0219247
-0.034649
-0.00252161
7.38933e-05
0.269801
0.281516
0.00112358
0.0436736
-0.0883498
-0.0428637
0.000140618
-7.64109e-07
0.228137
-0.0251733
0.000168703
0.00264157
-0.000545136
-8.502e-08
0.0407954
-0.0531391
-0.0421702
-0.0446648
-0.0167928
-0.00480912
-0.0126745
-0.000496482
0.130142
-6.18535e-05
-0.0242086
0.0288853
1.1967e-05
-0.0816492
-0.00828753
0.112519
-0.000633391
-0.00723854
0.360518
0.0365984
-0.0323748
-0.0156104
0.199989
0.00185327
-0.00945147
-0.0271528
0.19802
-0.000746938
-0.000200246
-0.0922851
-0.00745382
-0.00981285
0.535763
-0.00467517
6.74128e-08
-0.207359
0.00178536
0.004059
0.123784
-0.110959
-0.0458844
-0.00153195
0.114088
-0.0160887
0.0413977
-0.00416765
0.0909756
0.0662917
-0.0204784
0.0865009
0.167192
-0.000225189
0.0378045
0.455212
-0.0904642
0.000375884
-0.0406985
0.11177
-0.0128088
0.0233504
0.19678
-0.00302152
-0.0014285
-0.00388211
-0.00294741
-0.0184418
0.0176361
0.000325164
0.339595
0.501962
-0.0257522
-0.00123236
-0.0324711
-0.0294106
-0.0281826
0.189887
0.266844
-0.00154412
-0.02388
-0.0293504
-0.000647593
0.04356
-0.0442096
-0.00205375
0.0324413
0.000279792
0.12512
-0.117867
0.0987243
-0.0287431
-0.176943
0.311511
-0.000899382
-0.0350406
-0.0745813
-8.49936e-05
-0.0169352
-0.0751793
-0.113778
-0.0477052
-0.00348355
-0.00992027
0.00028515
-0.116513
-0.000200639
-0.0114816
-0.0466907
0.143754
-0.0406845
-0.0423094
-0.00686843
0.00128896
0.15828
-0.033872
-4.44132e-06
-0.00191482
-0.000338082
-0.00929193
-0.0154939
-0.00111123
0.0430894
-0.193187
0.0022779
-0.0265944
0.0258902
0.0313885
0.00123911
0.00234471
-0.00261376
0.558495
-0.0244018
2.17584e-06
-0.00201816
-0.000210041
0.268305
-0.0101831
6.21986e-07
-0.00728003
-0.00134553
-0.0464719
0.0971654
0.046561
-0.0910541
-0.0168548
0.000789239
0.360496
-0.0198154
0.0724869
-0.00437556
-0.0771346
0.00676271
0.00242065
-7.62012e-05
-0.00890387
-9.10692e-05
-0.0482446
-0.000685888
-0.0988188
5.54743e-05
0.0501436
5.19744e-05
-0.00197068
0.000120626
0.0987293
-0.0166156
0.321706
-0.00741729
0.0725385
-0.169455
-0.00067437
0.317244
-0.0301423
-0.0155906
0.611745
-0.000342167
-0.00702506
-0.190954
0.0241548
5.31023e-05
-0.0134692
0.00454194
-0.0341641
-0.0199508
0.400501
0.00179382
-0.193102
0.0967002
-0.111173
0.00300897
0.00131859
-3.1677e-07
-6.91737e-05
-0.0011822
0.0112512
-0.000260657
-0.00235273
-0.00166307
0.343832
0.319813
-0.0502858
0.000104955
-0.0687434
0.0369771
-0.13736
0.000105057
-0.0940507
-0.0305911
7.14825e-05
-0.00378551
0.0294207
-0.0221164
-0.000534341
-0.0408519
0.546007
-0.063653
0.000275173
-0.0446752
0.0246707
0.000395142
9.18471e-05
-0.188145
-0.00113335
-0.113703
2.53998e-05
-0.00664685
-0.0304139
0.484228
-0.00804009
0.00366883
-0.0156497
-0.000102477
0.0973839
-0.000219657
0.0197554
0.108778
-1.70123e-05
0.0272593
0.00147171
0.487144
0.609584
0.010352
0.435534
0.36524
-0.0980752
-0.02782
0.00021096
-0.00998882
-0.0327202
-0.00112717
-8.10585e-05
-0.00116968
-0.000420676
-1.56115e-05
-0.00965284
-0.000397193
-0.0239819
-0.0520531
2.98164e-05
-0.000117052
-0.174354
3.02862e-05
-8.35368e-06
0.0947779
-0.0142434
-0.0280553
-0.000666425
-0.0444547
0.0106183
0.0308427
-0.00247881
0.00297524
0.122683
0.0315028
-0.0301586
0.000447811
0.000487355
1.77606e-05
-0.0198473
0.274388
0.00742955
2.12358e-05
-0.189788
0.000114317
1.60323e-05
0.0893132
0.000530399
0.474987
-0.00121374
0.196891
-0.00584901
0.00293224
-0.00664238
-9.30586e-05
0.120085
-0.000498374
0.0012581
0.438232
0.401617
0.567145
-0.00164956
-0.146894
0.0296469
2.95652e-05
-0.0297394
-0.00373978
0.194973
0.242721
0.00202366
-0.134687
7.7944e-05
0.0361461
-0.000476943
-0.00792035
0.00391267
-0.00138313
-0.00299849
-0.0120995
-0.0022808
0.0648055
0.0973069
0.00162786
0.119477
-0.0212504
-0.194769
-0.00480165
0.028447
-0.0165844
0.562583
0.31203
0.010941
-0.0149849
4.7181e-05
-0.000404518
-0.0195931
-0.0400861
-0.0294869
0.0300516
0.185864
-0.16966
0.073724
-0.000157357
0.00691303
-0.00420924
0.167672
-0.0451002
-1.64943e-05
0.119524
-8.12456e-06
-1.42156e-05
-7.58623e-06
1.16407e-06
9.20365e-07
0.169491
0.00249562
-0.0213506
-0.000750085
-0.153369
-0.0329953
0.3256
0.00168654
-0.000616411
-0.00204817
-7.65453e-06
-0.000465289
-0.0653975
0.00893141
0.115549
-0.00403694
0.0970898
-0.0154836
0.00582954
0.0180826
0.000516912
0.431445
6.35388e-05
-0.00248782
-0.000432683
-0.0151973
-0.00671754
0.165298
-0.00258522
4.16276e-05
-0.0773146
-0.00364394
0.190269
2.88987e-05
9.88565e-05
7.94471e-05
-0.0259499
-0.00156681
-0.0189847
-0.0437154
0.0729316
0.317607
-0.00112547
0.000136426
0.000585075
-0.00085654
0.0726382
-0.0403601
-0.00225665
0.0273311
-0.195869
0.000537745
-0.0781877
-0.00192304
0.00192617
-0.0326261
-0.000216413
0.0146782
0.18837
0.29386
0.138299
-9.52553e-05
-0.145296
6.08404e-05
-0.0241833
-0.0245875
0.0670284
-0.0069162
-0.0948146
-0.0222982
-0.027957
-0.00334174
-0.00688041
-0.0221866
-0.0864973
4.89965e-05
0.0636407
-0.000359344
0.238483
0.0376328
-0.00263693
0.000112578
0.000571702
-0.0125663
3.50426e-05
0.075827
-0.00688315
-0.0799694
-0.0557071
0.0426329
0.337814
-0.00925768
-0.0222823
0.106518
0.0161552
-0.000718492
0.0030042
0.57204
0.00129523
-0.000195014
-0.168438
-0.00921409
-0.0213178
-0.00265152
0.240423
0.000144721
0.0880927
0.350159
6.99354e-06
-0.00992891
8.75654e-05
0.0683648
-0.00890274
0.00560045
-0.00456336
-0.00952627
-0.0211096
4.68387e-05
-0.00123224
-0.0104014
0.00700867
-0.00261894
3.02875e-05
-0.00155848
-0.0241397
-0.0437468
-0.00398217
3.10662e-05
0.0127607
-0.000719274
0.000587999
0.0214785
0.132185
-0.0139517
-0.0202522
0.0678351
-0.000486524
-3.9716e-05
-0.0250056
-0.000251452
-0.000320786
-0.0120615
0.0627346
-8.26178e-05
-0.0047913
-0.00150148
0.0161251
0.000120482
-0.000229622
8.6213e-05
0.0697957
-0.00071824
-0.00248098
0.0149365
-5.55494e-07
0.000148319
-5.40288e-05
0.16732
-0.000849954
-0.00428455
-2.38814e-05
-0.120042
0.118208
-0.00242419
-0.0879485
1.77721e-05
-3.03982e-06
0.00638989
7.97833e-05
-8.07892e-05
0.320512
0.00290542
-0.00146632
-0.0454132
8.55629e-05
0.000533823
-0.00807848
-0.00103874
-0.000567521
0.418473
-0.000122348
-0.0437494
0.201329
-7.56261e-05
-0.0223326
-0.000285362
-0.0211772
-0.0316233
0.0187525
-0.0050572
-0.000307892
-0.00489509
-0.107992
-0.00223657
-0.0125353
0.000711523
-0.000458641
-2.63285e-05
-0.00011803
-0.0540444
-0.0191286
0.0802365
0.00194382
-0.00991699
0.551634
0.089863
-0.0411931
-0.000111804
-0.0196546
-0.0249799
0.0345841
-0.0383205
-0.0693944
0.0689295
0.0762376
-0.0135944
-0.0377697
0.313518
-0.0428779
0.000193217
-0.0447971
-0.0461927
-0.00534132
0.00506157
-0.0164649
-0.00108203
0.015536
-0.0260372
0.27438
-0.0342402
0.279601
-0.0284858
-0.000378444
0.00211702
-4.4409e-05
5.59888e-05
2.17216e-05
0.145483
-1.33164e-05
-0.0211711
-0.000205041
0.00663565
-0.031115
-0.000215032
-0.010017
-0.0224316
-6.51197e-05
0.13526
0.00388986
-0.00058838
-0.0212683
0.060585
-1.40651e-07
0.0362281
0.000556697
0.16922
-0.0378516
-0.0293604
-0.0220325
-0.000580399
-0.000408868
0.093669
0.166862
0.165064
-0.00384806
-0.0236219
0.271583
0.0393944
0.00539477
-4.75489e-07
0.0886877
0.0148331
-0.000204142
-0.0876081
0.340057
-0.0155955
0.000508994
0.501657
-6.52169e-05
-0.00575644
0.0676954
0.176418
0.0741941
0.0742031
0.372736
0.237163
-0.000121442
-0.000357636
-0.000665228
-0.000565265
0.0773533
-0.0208999
0.29078
-0.0133453
-0.00480327
-0.0134603
-0.0674806
0.000429173
0.000617281
-0.000351144
-0.0266729
-0.000921579
0.00490663
3.18486e-05
5.01253e-05
0.000113594
1.77473e-05
0.0004916
-0.123447
-0.00501116
-0.136914
-0.122264
0.531072
-0.0284202
-0.00019602
-0.00125049
-0.127715
-0.000556048
-7.27653e-05
-0.0101125
-0.00166092
-0.00038784
-0.00504222
0.0249019
-5.75873e-06
0.00266281
0.00227832
-0.000299498
-0.000162913
0.00224389
0.00184607
-0.0299299
0.0302496
-0.0545775
-0.00881112
-0.0112523
-0.0335781
-0.000722093
3.27746e-05
0.000152414
-0.00312611
0.12159
-0.145969
-0.004109
-0.00728269
-0.0802385
-0.000262724
0.342787
-0.00806462
0.0581328
0.000538377
-0.000332885
0.000118699
-0.0558833
-0.0458843
0.337142
0.361156
0.0907845
-0.0099126
-0.0239613
-1.32169e-05
3.73899e-05
-0.00566718
-0.120055
0.155726
-0.0770758
-0.0247325
-0.0262093
0.122842
0.00355737
-0.102819
1.87816e-06
0.0334251
0.125994
0.00303425
3.92457e-06
-0.00573826
-0.00305803
0.163322
0.0648115
0.00189434
-0.0114894
0.551933
-0.00877026
4.89501e-06
2.939e-05
0.00539822
-0.00990318
0.0661717
3.00601e-05
-0.056006
0.00162482
9.47862e-05
0.398867
-0.00575228
0.0671986
-0.0062308
0.000553815
0.00935012
-0.0551865
0.199513
-0.0150131
-0.00908154
0.414022
0.000488696
0.0185641
0.072834
0.288957
-0.000720707
0.0628231
9.01739e-07
0.000409471
0.0959677
-0.00824556
-0.00369226
0.035809
0.000120258
0.157099
-0.0492434
1.51761e-05
-0.0403085
-0.0013433
-0.0049851
-0.000127477
-2.10621e-05
-0.0268088
-0.107798
0.000543355
-0.00377354
0.0013106
0.0743458
0.31301
0.000170323
-0.00132622
-0.000253262
-0.0279156
-0.000149127
9.48744e-05
-8.88643e-06
0.307947
-0.00833835
0.000610496
-0.0314113
-0.0213638
-0.0416095
0.314926
0.23645
0.171078
1.60254e-05
-0.183704
-0.0283716
-0.00618159
-0.0387573
-0.000731574
0.124185
-0.0120618
0.00560009
-0.000598472
0.0110071
-0.0413459
0.00858267
3.09359e-06
0.0274302
-2.20877e-05
-0.00016465
0.00539008
-0.000898628
-0.0253669
0.5372
-0.00794638
0.00100022
-0.0017161
0.107857
0.179074
0.334132
0.190735
-0.042858
-0.00134982
-0.000443779
-0.0166749
-0.0223782
0.00164234
-3.56576e-05
-0.0531882
0.00117425
-0.0183293
-0.00722579
-2.19061e-06
-0.0916824
0.0101387
0.37738
0.0957311
-2.4908e-06
0.0221083
0.000561179
-0.0398049
-0.0428081
-0.00904821
0.320148
-0.000292719
-0.0261634
-0.0174328
-0.000248223
0.000133248
-0.0217634
0.0875759
-0.0280091
-0.0265033
0.0069995
-0.0901025
-6.88344e-07
3.5921e-05
0.00440019
0.00304817
-0.0208264
-0.000439056
0.193387
-5.31445e-05
-2.45106e-07
-0.000490507
0.00214217
-0.00824597
-4.51108e-06
-0.0183489
0.0316426
0.107177
-0.00162507
0.266667
-0.0125775
0.108834
-0.0066435
0.00578994
8.99542e-05
0.0113193
0.00606557
0.0430398
0.467786
0.139943
-0.00727357
0.000411047
0.167105
-0.00617375
0.205127
2.42282e-06
0.0406694
0.113548
0.369553
0.000199288
1.5965e-05
0.220018
0.355899
0.0785748
5.2474e-05
-0.138295
0.0495284
-0.00243473
-0.00076563
0.0014467
0.0182711
0.0058881
0.276416
-0.00128776
-0.0295399
-0.00218338
-0.000727091
-0.00092857
0.324171
0.0739487
-0.00776254
-0.000488629
0.0599392
-0.0574035
0.00292749
-0.0245066
0.000228112
-0.0238589
0.0104131
-0.00983279
-0.00170856
-0.0422763
-0.00614087
-1.80865e-07
-0.0812762
-0.00208332
0.000167643
0.00705498
-0.00104467
-0.00255946
0.0181435
1.66767e-06
0.00901124
-0.0330285
0.237834
-0.000115289
0.50505
1.36472e-05
-0.00516827
0.00501966
-1.54264e-05
-0.0047899
-0.00130068
-0.0425099
0.140795
-0.0169919
-0.0573614
-0.028969
0.228821
1.45261e-05
-0.091959
0.0292591
-0.0213746
1.69387e-05
0.546163
0.00409025
0.00574279
-0.00273594
-0.00182762
-2.03421e-05
0.239913
-0.00389647
0.0941474
0.000204552
-0.0333204
-0.000708991
-4.3119e-07
0.25953
-2.69088e-05
0.123261
0.434748
0.202519
-0.00569975
0.113061
0.117441
0.212944
0.27295
0.165306
0.390909
6.83646e-06
-0.0197417
0.117036
-0.000337917
0.190854
-0.0286576
-2.39828e-06
-0.000142727
-0.0219612
0.506981
0.0005161
0.00376814
0.0706475
-0.000130746
0.000108699
0.00588579
-0.0195073
0.00597255
0.198629
0.485534
-0.0191845
0.281565
-0.0273986
0.0254646
0.325819
-3.31625e-05
0.171414
-0.00463789
0.0174236
0.00123456
-0.0821534
-0.008528
-0.0336586
7.65612e-06
-0.0150625
2.18435e-05
0.121859
0.50812
-0.200065
0.000645324
-0.0343476
-0.0252683
-2.71081e-05
0.00459769
-0.0208219
0.00478068
-0.0216681
-0.0188533
-0.000378349
0.0002691
0.0322279
0.000182083
-0.0230427
2.54974e-05
0.0788373
-0.00106171
-0.0251569
0.00017956
-0.00397049
-0.0269395
-0.00992967
-0.0445413
0.000577961
0.0480298
-0.024821
-0.0449857
-7.48925e-05
0.0313871
0.0321243
-0.0633663
0.272926
-0.00487912
-0.0453512
0.00692024
-0.00345538
0.00381454
8.68096e-05
-0.112159
-0.0148392
-0.0024021
-7.29202e-05
-0.00051141
0.0664442
-5.87236e-08
-0.000329169
0.000107002
-8.17104e-06
-0.00131261
0.316611
0.574362
-0.000230889
-0.00694472
-8.32628e-06
-0.039398
0.00227602
-0.00691314
0.0149254
-0.00103789
0.0968885
0.00204697
-0.000952914
-0.00111943
-0.00390759
-0.000936925
-0.000162983
0.231222
-0.00144794
0.500432
-0.017236
1.4142e-05
0.0720074
-0.000489378
-0.0190436
0.120973
-0.00259734
-0.0171555
0.480313
-0.0259774
0.00056227
-0.0604194
0.0375833
-0.00492242
-0.0226812
-1.71939e-05
-0.019275
0.000603512
0.349904
-0.00991968
-0.0205982
0.0153755
-0.00481235
-0.0112541
-0.0136502
-0.015898
0.10894
0.000889436
-0.0817395
-0.00473332
-0.00141521
-0.000320436
0.0037516
-0.0282604
-0.00076609
-0.0587096
0.00422769
0.000658608
-0.0281466
-0.00018818
-0.000317575
-0.00105416
-2.75069e-05
-0.0437079
0.000918865
0.097798
3.83839e-05
-0.000325418
9.00802e-05
0.43909
-2.76428e-05
-0.0398908
0.0239874
0.11161
0.000326315
-0.00354972
0.0023462
0.00151999
-0.0105947
-0.0284802
-0.0263758
-0.0169587
-0.00437218
-0.00025217
0.0729187
0.0231118
-0.0281688
-0.000684416
-0.155914
-0.0279481
-8.21418e-05
-0.00574927
0.0353474
0.479696
0.306334
-0.0022508
-0.158952
-0.0087099
-0.000341926
-0.000130989
-0.0192826
-1.26795e-07
-0.0750117
-0.0176809
-2.48599e-06
5.22338e-05
-0.0309156
0.00801542
-0.0233533
0.0322656
7.50596e-05
-0.0282405
0.0128811
-0.0237571
0.000177495
-0.0272638
-0.000279245
0.141005
-0.00037351
-0.035939
-5.51959e-07
-0.00191788
-0.0220286
-0.100744
-0.00936023
-0.0221882
0.000146494
-0.0102356
-0.00868963
-0.0185284
-0.0512737
0.00367116
0.0362162
0.511268
0.0025552
0.0167994
0.000326995
7.65881e-05
-0.000104445
-0.0291152
2.41709e-05
-0.00109248
0.0579779
0.442328
0.471805
-0.000452227
0.23098
-0.0050453
0.000614833
-0.000276409
-0.0197248
-0.0280075
5.10777e-05
0.0180332
-0.0149365
-0.0759021
-0.0454054
-0.0461411
-0.0180485
3.06352e-05
0.000699664
-0.00539173
0.14836
-0.0271336
-0.0390784
-0.0240707
0.465594
-0.00758686
0.107038
-2.21696e-05
-0.0249321
-0.00337327
4.27265e-05
0.000820911
-0.00149119
-0.00262394
-0.0456127
-0.00217472
0.0173253
0.309905
-0.0050436
2.28552e-06
2.86566e-05
-0.0200242
0.0262269
-0.0194064
-0.0066817
0.000925838
0.000440106
0.0792016
-1.53455e-05
-0.0154233
-0.00045597
-0.00527546
-0.00255057
-0.00268783
0.057295
0.00645601
0.00442508
0.020891
0.6091
-0.0523641
0.171387
0.0680564
-0.032829
-0.0440787
0.00376721
-0.0328815
-0.0150459
0.0979599
-0.013399
8.81502e-05
-0.00410131
-1.2609e-07
-0.040488
-0.00173493
-0.0013346
-0.0044651
0.199996
-0.000114952
-7.16666e-06
0.00441792
-0.0991307
1.08854e-05
2.9563e-05
0.000945601
-0.141022
8.77827e-06
-0.0298667
-0.0008487
-0.0205833
-0.0205045
-0.07329
-0.0114886
0.112382
-0.0309423
0.000205623
-0.000502161
0.20543
-0.00513338
0.0113089
8.5839e-05
-0.0171707
-0.0173228
0.000106011
-0.0128452
-0.017444
0.00232646
0.327055
-1.82357e-05
-0.0978079
-0.000507537
-0.000776872
-0.00023939
-0.00254866
0.149325
0.00319701
3.82924e-07
0.0828653
-0.0083371
-0.000284693
-0.115612
-0.00100684
0.0256226
-0.0431219
-9.43691e-05
-0.00100638
-0.0327184
-0.0199812
7.18973e-05
-0.109457
-0.0196693
0.00714884
-0.0280985
0.00735151
0.318397
-0.00553843
0.0179456
0.0913076
-0.000290604
-0.000145687
0.193759
7.32922e-06
0.596783
-0.0105083
-1.16802e-07
0.109312
0.141483
-0.147798
-0.00129315
-0.0245756
0.0265972
-0.00403895
0.00802486
1.1299e-07
-0.00527862
0.0328346
-0.0184146
-0.0129043
-0.00164328
-0.032997
-0.00307082
-0.00184561
-8.02542e-05
0.0352231
0.468462
-0.0244604
2.09129e-08
3.57914e-06
0.000942536
-0.000898661
-0.110557
0.109356
-0.0334589
-0.0180122
-0.0732418
-0.106094
0.443136
5.84197e-05
0.00534636
0.0044498
-0.0346918
0.00133731
0.0510653
-0.0016317
-0.000506591
-0.00540015
-2.27721e-06
2.08581e-05
0.0258808
-0.00120578
0.190716
-1.92221e-05
0.0355859
-0.0064814
-0.0228519
-0.0174422
-0.0187624
-0.0455173
0.00766409
6.44702e-06
0.0439068
-0.071698
-0.00678162
0.0708943
-0.0326174
-0.0126935
-0.0259575
-0.183647
0.0735328
-0.125749
0.0420234
0.000336235
-0.017249
0.000164164
0.105908
0.00849798
-0.000110958
-9.67e-07
0.078521
-0.000540846
0.0321514
0.166457
-0.117823
-1.5134e-05
-0.0159186
0.337539
0.0705501
-0.00426734
0.107601
0.0523877
0.0332315
0.000280676
-0.00107476
0.0110561
0.141272
-0.0272822
-5.08119e-05
-0.000495919
8.34188e-05
-0.0358552
-0.0362501
0.0355997
0.0268552
-0.0145831
-0.117712
-0.0295527
-0.0556123
-0.0304572
0.269374
0.0226736
-0.0562275
-0.0011339
1.54644e-05
-0.00612404
-0.0706791
0.00135772
-0.000125619
0.0908725
0.0768985
-0.0223499
0.0800403
0.00296229
0.341345
-0.000882361
0.124886
-0.0780535
-0.00109739
6.06262e-06
0.0238469
-0.0213043
-0.000498312
-0.00891861
0.173751
0.18918
-0.0124127
0.322142
0.124491
-0.0212349
-0.0191804
-0.0395075
-0.00230645
0.104975
-0.0360236
-0.00016888
-6.77795e-07
-0.00048756
-0.0235869
-0.00356367
-0.0160066
-0.0583734
-0.125118
-0.000610637
0.357834
-0.0101984
0.186342
0.512855
0.111628
-0.0506273
-1.41697e-06
-0.0204338
0.0012097
-0.0052567
0.330186
0.0827295
0.0688036
0.443747
0.00457564
0.0276232
-0.0259491
3.72492e-05
0.241078
-0.00302636
-0.0414284
-0.0164472
0.00527979
2.92591e-05
-0.0619129
0.0400634
1.84429e-06
0.507521
0.0541771
-0.000202923
-0.000125096
-0.000683489
0.196377
0.0492197
-3.48288e-07
-0.00069432
8.01343e-05
-0.000101408
0.00106083
-0.00068093
-0.00507282
-0.00248724
-0.00133629
-0.00529662
-0.000241478
-0.00019996
0.0219913
-2.18631e-06
2.79607e-07
-0.048356
-0.0305273
-0.00223341
0.262466
-0.0284052
-0.000373415
-0.00539998
4.5017e-08
0.00265771
-0.0383054
-0.0827084
-0.0871869
-0.000175847
0.19342
-0.00156901
0.0971669
0.0106366
-0.0143845
-0.0153017
-0.00649762
4.82195e-05
0.00566694
-0.0857215
0.00021052
-0.0279464
-0.0317986
1.53738e-05
0.541381
0.0883183
-0.000730189
-0.034401
0.0829647
-0.015989
-0.00716751
1.82471e-05
-0.020757
-0.0119177
-3.68983e-07
0.0521339
2.08663e-05
-0.000606258
-0.0247316
-0.0456513
-0.00353953
-0.004565
3.52964e-07
-0.0351477
0.00129019
0.109649
-0.0212189
6.69798e-06
-0.00363632
-0.000730187
-0.0476683
-0.141279
-0.0847324
-0.00575253
-0.0410418
0.0796867
0.000755264
8.14552e-06
-0.00176894
-0.0223024
-0.0113939
0.409352
-0.0291286
0.579059
0.000101204
-0.0250061
-0.0452288
0.234937
0.318598
-0.00698973
-0.000978809
-0.0395038
1.57353e-05
0.440215
0.197312
0.0637594
-0.0258853
0.0428358
0.0795069
0.413039
0.154514
0.1549
-0.0364227
-0.111835
0.186576
-0.0442183
-0.000745873
-0.0881391
0.0148262
0.000528376
-0.0172037
-0.00010771
0.00324918
-0.00243347
0.00143753
-0.0183243
8.84426e-05
-0.0204534
-0.0908589
-0.0366978
2.27782e-05
-0.00282625
-1.98996e-05
4.14844e-05
0.0950431
-0.0403544
-0.00972226
-0.000208719
0.00702526
8.08472e-06
-1.18376e-05
-0.000297902
-0.000147453
-0.121803
-0.0312275
-0.000712373
0.070499
-0.0010198
-0.0322004
0.0313544
-0.00599447
-0.00119312
7.51579e-05
0.00479549
-0.0257841
-0.00116909
4.33222e-05
0.00266439
-0.0538766
-0.0190925
0.0272632
0.000164243
-0.0204299
0.504111
0.000620708
0.000782923
0.0260699
-0.00027682
-0.000526751
1.05124e-05
-3.23805e-07
-3.03323e-05
0.0107361
-0.0400365
0.366434
0.542218
-0.000173809
1.26367e-05
-0.000170326
-0.0409688
0.615779
-0.0160231
-0.0444174
-0.0270362
-2.03474e-05
0.000575491
-0.033337
-0.00173615
-0.0449863
0.00788484
-0.0812442
-0.0430126
0.000964823
0.462235
-0.109592
0.000362334
-0.00102987
0.0045956
-0.0144902
-0.114221
-0.043
-0.00595979
0.240001
0.341843
0.0947103
0.211769
0.0511147
-0.0469834
-0.00564895
0.00311677
0.0367916
-0.0218837
0.000299144
-3.25499e-07
-0.0848771
-0.104076
-0.000383261
-0.0183426
-0.0424928
-0.0434272
0.332626
-0.00113723
-0.0200979
-0.0105941
-0.0236354
0.0455541
0.01759
0.00285019
-0.00217388
-0.0116079
-0.01004
-0.00776314
-0.0221171
-0.0029898
-0.0432916
0.179044
-0.0244809
-0.0107497
-0.00286764
0.118548
-0.112932
-0.0402287
-0.0699166
8.35907e-06
0.20277
0.0334553
-0.0288669
0.00127956
-0.0162255
-0.0102226
-0.00127627
-0.0331736
-0.00920219
-0.0851605
-0.00444219
0.00131216
8.56851e-05
-9.11714e-05
0.0232807
-3.77799e-06
-0.0124979
-0.0263537
-0.0275804
-0.000102428
9.65168e-05
0.000176687
0.00121568
-0.0116867
0.0116796
-0.0359534
-0.0417144
-0.0511423
-0.00747069
-0.00163826
0.419138
-0.0076616
-0.00244832
0.266774
-0.0107804
0.248194
0.406271
-0.00664199
0.0850634
-0.00937688