/*--------------------------------*- C++ -*----------------------------------*\
  =========                 |
  \\      /  F ield         | OpenFOAM: The Open Source CFD Toolbox
   \\    /   O peration     | Website:  https://openfoam.org
    \\  /    A nd           | Version:  7
     \\/     M anipulation  |
\*---------------------------------------------------------------------------*/
FoamFile
{
    version     2.0;
    format      ascii;
    class       volScalarField;
    location    "22.5";
    object      p;
}
// * * * * * * * * * * * * * * * * * * * * * * * * * * * * * * * * * * * * * //

dimensions      [0 2 -2 0 0 0 0];

internalField   nonuniform List<scalar> 
29659
(
0.0163128
0.212294
-0.0162845
-0.065414
-0.00451635
-0.0685534
-0.0412201
0.014959
0.00395756
0.000406747
0.00852159
-0.00897037
-0.000856321
-2.55597e-05
0.124424
-0.0110562
-0.000261378
0.042073
-0.00397834
-0.0192363
-0.00156068
0.00372653
-0.0165378
-0.00391762
0.941558
0.210932
-0.00092583
0.76378
0.10967
-0.00308994
0.0298609
0.0927045
-0.106536
-0.0130043
0.777682
-0.0153045
0.218254
-0.0497991
0.0109784
0.0105487
0.000904691
-0.0318374
-0.00022443
-0.0443003
8.51383e-05
-0.00279373
-0.00796201
0.000186801
0.00640297
0.212727
-0.0637436
-0.0574657
0.0959664
-0.0661056
-0.0108241
0.109048
-0.00640614
-0.00161131
-0.00933034
-0.0362219
-8.46438e-05
-0.00386456
-0.0429123
-0.0135806
0.337843
0.889153
-0.015667
-0.0158881
0.843683
0.000943751
0.208751
0.622408
0.00433267
0.861163
-0.0143264
-0.00998222
0.0535535
-0.0439504
-5.58858e-05
-0.0310176
-0.0607177
0.287818
0.0162834
4.19799e-05
-0.0379456
-0.189948
0.401059
-0.000892974
-0.00082497
-0.0885654
-0.0435122
-0.0445305
0.00588965
0.0852766
-0.091071
0.392342
-0.0573141
0.000978533
-0.0741474
0.153492
-6.04746e-05
-0.0415281
-8.08282e-05
0.0611521
-0.0586779
0.17431
0.519833
-0.000790999
2.76315e-05
-0.10472
-0.105638
0.0126577
8.87563e-06
-0.00284177
-0.000201958
0.602788
0.303013
-0.0209508
8.44911e-05
0.00508517
-0.122419
0.227351
-0.0569824
0.88203
0.00219445
-0.029286
0.0485198
-0.030579
0.00780231
9.76954e-05
-0.0414369
0.0459005
0.54322
-0.0818478
0.0606251
0.0290296
0.330248
-0.042317
-0.186428
0.148126
-0.0211414
-0.0764462
-0.0784536
6.5031e-06
-3.52239e-07
-0.00461779
-0.00746054
-0.0822085
-0.142344
-0.0308158
0.0468822
0.022783
0.000897237
-0.00019865
0.307236
0.00105555
-0.0143959
0.300457
0.375473
-0.0612675
-0.0582591
-0.0637187
0.115097
-5.54668e-05
-6.08097e-07
-0.0211066
-0.0756547
0.000155987
4.07457e-05
-0.0127751
0.000121516
0.0107987
0.310727
-0.041465
-0.0921671
-0.00915311
0.00404589
-0.0431758
-0.00229645
-0.0486773
-1.19065e-05
-0.0100516
0.393862
-0.0147525
-0.185426
0.300606
-0.0114713
-0.0321265
0.00735013
-0.00303465
-0.000473881
0.00309162
0.900718
0.301869
-0.0245926
-0.0137878
0.732586
0.268942
-0.0901841
0.00229044
-0.0692928
-0.0896068
-0.00865046
0.00169318
0.313386
-0.0122706
0.0130922
-0.0814633
-0.107143
-3.46528e-05
0.649912
-0.00186954
3.44963e-05
-0.000967969
-0.0416152
-0.0262875
-0.00797282
0.0127581
-0.00388727
-0.090901
0.000125694
0.000944
-0.00420313
0.144023
-0.00521241
-0.00268607
0.0960965
0.000301229
7.99847e-05
0.0100908
-0.0502179
-0.0381435
-0.00855498
0.206413
-0.026218
0.0242039
-2.67939e-05
-0.00547424
0.00158669
-0.0647677
-0.166264
-0.00250395
0.000951731
-0.00280137
0.00536022
-0.0186367
-5.19083e-05
-0.179933
0.000153373
0.146399
-0.00618137
0.000335425
0.177308
-0.0890939
0.000535792
1.16796e-05
-0.0765337
-0.157769
-0.0160326
-0.032998
0.046516
0.37691
0.000193171
-0.0475907
-0.0834222
0.750688
-0.0147774
0.296156
-0.003716
-0.000370619
1.09011
-0.000957933
-0.0966334
-0.0898603
0.00434144
-0.0227541
-0.0148699
0.536172
-0.00632885
-0.0318787
-0.000424391
0.206575
-0.00580562
0.402764
-0.000896995
-0.0105717
0.689479
0.123889
0.0959893
-0.0569668
-0.000239416
0.0052286
-0.000278794
3.56745e-05
0.128373
9.91133e-05
-0.0345553
-0.0864276
0.953811
0.534573
-0.078515
-0.0346652
-0.0363015
0.012749
0.00457596
-0.0326485
-0.0836484
0.386393
0.636727
-0.00232284
0.509025
0.124814
-0.0567441
0.020674
-0.00362337
-0.0210531
-0.0097975
-0.00482679
-7.44285e-05
-0.00354106
0.0055252
0.202574
0.00318788
-0.0476641
0.0239708
-3.86406e-05
-0.0810037
1.01321
-0.0116082
-0.0026338
0.0220781
-0.0290729
0.149772
-0.00274991
-2.22247e-05
8.54721e-06
-0.00486463
0.695217
0.0382117
-0.168483
1.29755e-05
-0.165538
0.0893922
-0.00931604
-0.0836383
-0.00240015
-0.000772385
-0.0442991
0.00186384
-0.0474905
0.0202306
0.045045
-0.000270887
0.00367964
0.225304
-0.11776
0.000880255
0.000929239
0.587643
-0.0436438
-0.00297573
0.282549
0.771602
-0.0752562
-0.0145073
-0.0182062
-0.00139102
-0.0154755
-0.00619073
0.262736
3.14171e-05
0.0194742
-0.139105
0.559743
0.843053
-0.0111372
-0.0164455
0.351981
-0.0376562
-7.14071e-05
-0.00430456
0.152354
0.155092
-0.0138307
0.0489541
0.735965
-0.160902
0.646803
0.586989
3.04961e-05
0.00707585
-0.149756
-0.00550758
0.00325332
0.779741
0.0379273
0.000613379
-0.0630927
-0.091489
-0.0103631
-0.000179452
0.38342
0.297284
0.00016213
0.00807264
0.0106476
-0.130115
-0.0568879
0.000194996
-1.21211e-06
0.00104576
0.157614
-0.0493694
0.464584
-0.0868682
-0.033636
-0.0380116
0.276014
-0.0340884
-0.00225264
0.0158266
0.00174396
0.644046
-0.0456466
0.00222669
-0.0138777
-0.0165602
-0.00299794
-0.0228185
0.000521543
0.000529605
1.0292
-0.0150011
-0.00953597
-0.000821166
-0.00135668
0.351393
-0.140749
-0.0471023
1.54811e-05
3.0409e-05
-0.0471114
-0.0125732
-0.00973547
0.0334452
0.0121918
-0.00556082
0.0192524
-0.0319036
0.63256
0.0077359
0.00055045
-0.0778894
-0.0443737
-0.00529801
-0.006529
-0.0467112
-1.23941e-05
0.832024
0.0381277
0.000222645
0.900918
-0.0485336
-1.33154e-05
0.00297214
-0.080182
0.0148559
0.0782054
5.23835e-07
-0.0147928
-0.0183898
-0.0100596
-0.00085978
-0.0153191
0.741471
-0.015801
-0.0220965
0.323506
-0.00529502
0.674018
-1.53434e-05
-0.0308915
-0.0862816
-0.0459161
-0.100829
-0.00296645
0.00177884
-0.000211967
-0.0351127
0.00888166
-3.55388e-05
2.04381e-05
-0.0117682
0.65201
0.0130036
0.0050415
-0.090318
1.23614e-05
0.00204783
-1.42862e-05
0.0172718
-0.0322049
-0.000699664
-0.0154167
-0.0229593
0.00214026
-1.63737e-05
-0.0767287
-0.000724554
0.0801014
0.502239
0.364077
-0.00890057
0.011986
0.0503346
-9.83665e-05
-0.00699557
1.55683e-05
0.595161
-0.0256644
0.0329842
-0.030935
0.00296763
-0.00605401
-0.000153567
2.44523e-05
-0.00922596
0.0797026
0.381193
0.00257421
-0.0707125
-0.0449291
-0.0147298
-0.0277502
-0.00250474
0.00167058
-0.0105495
-0.000137856
-0.0826582
0.430656
0.280634
-0.0407532
0.42142
0.000223423
1.30156e-05
-0.00172896
-0.0147112
0.869414
-0.0794739
-0.0382695
-0.00828717
0.00245687
-0.011028
0.00100079
-0.0196604
-0.023978
1.95434e-05
-0.0016873
0.5566
-0.000209873
0.799142
1.59921e-05
-0.0848416
0.0748462
0.0246764
0.00219509
0.000428648
0.637284
0.0838465
-0.0878256
0.293985
-0.0131582
-0.0242032
-0.00774123
0.171451
-0.0465993
0.016221
-0.0147587
1.34889e-05
-0.00247799
0.0117047
-0.0321853
-0.0398634
-0.0744007
-0.0325206
0.189608
-0.00410034
-0.0890747
-0.0250508
0.000129973
-0.0220405
0.0113911
0.193006
-0.048982
-3.26296e-06
-0.0334628
-0.00134484
0.00290812
-0.16257
0.463064
0.00191528
-0.0217686
-0.0612222
0.127292
0.724893
0.00374132
-0.00990839
0.247011
0.250786
-0.0290781
0.00995925
-0.0813071
3.14173e-06
-0.068778
0.000215941
-0.0608224
-3.20202e-05
9.14636e-05
-0.0129102
-0.0408203
0.457816
0.0119984
0.0224444
2.85248e-06
-0.0120104
0.000220222
-0.00621748
9.07171e-05
0.0840833
-0.00087928
0.265293
-0.000194578
-0.0232793
-0.0610847
-0.00810471
0.717672
-0.0297722
-0.0924642
-0.0107895
0.0848705
-0.0766696
0.0550412
-0.0414965
-7.81274e-07
-0.0107247
-0.00757502
0.000563745
0.000211955
0.160873
-0.00943713
0.138989
-0.00937055
0.0018333
0.0605478
0.000386017
-1.75e-05
-0.0677401
-0.00669933
9.69048e-05
0.322821
0.968128
-0.000360624
-0.0589215
1.86666e-05
0.755555
-0.0910765
-0.0643576
0.000165438
0.0174574
0.105248
0.123529
0.076141
-0.00070207
-0.000225775
-0.0282931
1.25486e-05
7.49111e-06
-0.0473587
-0.0562073
-0.0731878
0.916024
0.000461236
-0.0618606
0.0154251
-1.52746e-05
-0.00240562
0.000140989
-0.0118957
0.000116258
-0.0388684
0.0532604
0.663154
0.082414
-0.000496246
0.000998809
-0.136928
0.136076
-0.00598039
2.71889e-05
0.265665
-0.181934
-0.0774672
-0.0254993
-1.27024e-05
-0.000490278
-0.188236
-0.041402
0.228376
0.631485
-0.0904916
-0.0024272
-1.25624e-05
-0.0760139
-0.105065
-0.000343937
0.00380171
-0.0281173
-0.0089926
0.63699
-0.00250042
-0.0070454
0.0519283
-0.0145314
0.875258
0.882965
-2.09381e-05
3.23516e-06
-0.0292989
0.0310507
-0.0572955
0.0106757
-0.0140613
-0.00107459
0.722922
0.258802
0.00465257
1.07637
1.4566e-05
0.174477
-0.0976398
-0.0610689
0.000247925
-0.0592826
0.181321
0.029688
0.111523
-0.000835415
-0.000894621
-0.0129012
-0.00663566
-0.0248443
-0.00206806
0.175755
-0.0118466
-0.0101554
-0.0908257
0.57436
0.00352038
0.0594799
-0.000738733
-0.000955483
-0.0361265
0.00209633
-0.00495707
-1.19246e-05
-0.000592025
0.181978
0.638894
-0.00020785
0.109425
2.2475e-05
-0.00642404
2.80862e-05
0.010952
-0.0849518
-3.95609e-05
-4.16835e-05
-0.0891448
1.34703e-05
0.0772755
-0.0446711
8.31135e-06
0.245756
2.45969e-05
-0.00073506
-0.000131999
-0.00973841
-0.000677897
-0.0115951
-0.113317
-0.000591718
0.00863175
-1.79881e-05
0.449939
-0.00897604
0.000660126
-0.053828
-0.0389967
-0.0022143
0.0059631
0.321338
-0.0459476
0.191763
-0.0655977
-0.00663903
1.47582e-07
-0.0108795
0.524892
0.273086
-0.0620519
-0.0806111
0.431404
-0.0156532
-0.0910291
2.75195e-05
-0.046442
-0.0015704
1.0415
-0.0806159
-0.000128339
-0.0878735
-0.0471216
0.377749
-0.00489556
-0.048988
-0.00748618
-0.0120405
-0.00242945
0.377682
-0.162775
-0.0340377
-0.0269166
-0.0230516
0.0113017
0.42569
-0.0327183
0.297321
0.00555943
-0.0999787
0.816278
-0.0158971
-0.000399958
0.36222
0.572295
-0.0108413
0.00631329
-0.0128153
-0.0532582
0.252226
-0.075829
-1.60748e-05
-0.0136592
9.44007e-05
-0.00841189
-1.78266e-05
-0.00920143
-0.00180958
-0.0060388
-0.118943
-0.00110751
-0.00092173
-0.00213106
0.316993
-0.00389423
-0.00611811
-0.00573394
0.25363
0.0104175
-0.000643035
0.509473
0.869039
-0.033761
0.712797
-0.0297737
0.500968
0.0107612
-0.0269589
0.00512314
-0.000820696
4.54819e-05
0.00506234
-0.0208877
-0.0335935
0.288812
-0.0386707
-0.0341231
-0.0016844
-0.110951
-0.0425756
0.0127237
-2.55628e-06
0.0135012
0.0542197
0.59632
0.0113325
-0.022918
0.225358
-0.000574653
0.0659574
-0.030392
0.00126649
-0.08694
0.00527327
0.511099
-0.00374017
-0.000944279
-0.000131987
-0.0859617
-0.00232974
1.05105
1.0864
0.0224242
-3.75418e-05
0.0155515
-1.32965e-05
0.0882775
-0.000926057
0.0395865
0.938949
0.00158383
4.84852e-05
-0.0139577
3.68915e-05
-0.16272
-0.0564312
0.743205
0.000482785
0.0215971
0.00449825
0.00059217
-0.00396837
-0.000491527
-0.010305
-0.0622586
-0.0383522
0.010345
0.239483
-0.0223403
0.0114899
-0.0338739
-0.0032231
-0.0453879
3.12116e-05
0.000110183
-0.00375946
0.0489587
-0.0537578
-0.027235
-0.0062187
0.00490696
-0.0431913
0.198812
-0.0211731
-2.47883e-07
-0.0821309
0.676338
-0.0794479
-0.0200676
0.0775775
4.6076e-05
-0.00110762
-0.0467801
-2.6336e-05
-0.000713415
-1.48133e-05
1.07761
0.0156648
0.00642373
1.19156e-06
6.43161e-06
2.5489e-05
1.07662e-06
-0.0368253
0.574567
-0.0564462
-0.000736948
-0.000226673
-0.00942736
0.748676
-0.0846661
0.648777
0.0167321
0.218496
-9.72717e-05
0.742879
-0.00364904
-0.0154631
0.00397951
0.0122331
0.0143506
0.285045
-0.0646046
0.731598
0.372296
-0.0137325
-0.0468061
-0.00812488
-0.0473498
2.95236e-05
-0.00148999
0.00476638
0.1113
-0.0107676
-0.0370203
-0.0054137
0.90233
-0.112412
-2.03954e-05
-2.27507e-05
0.752958
-0.00799335
0.00291264
-0.02124
-0.003618
-0.0248615
-0.0158281
-0.075757
0.0700858
0.023489
-0.0162771
-0.023166
0.000196702
-0.00928162
-0.00222706
-0.012732
-2.07438e-05
0.000138777
-0.0335597
-0.0327196
0.722578
-0.0470423
-0.000246486
-0.00239627
-0.000449836
0.511269
-0.0720635
-2.19834e-05
-0.0465408
-0.00719297
-0.00571791
-0.0448541
-0.0508328
0.0109201
0.0861221
-0.0998967
0.000176048
0.00967786
-0.0209997
3.333e-06
-6.46518e-05
0.175669
0.128837
-0.0372606
-0.0736326
-0.082715
0.000922102
0.760852
0.000201055
-0.0282675
0.607278
-0.026824
-0.0574032
9.64078e-06
0.000329318
-0.057301
-0.014608
0.00229869
-0.0495501
0.348998
0.25944
0.00116158
0.000489319
0.268464
-0.0195831
1.99006e-06
-0.00224407
-0.0433401
-0.03448
-0.0170832
-0.00380169
0.123059
3.38486e-05
0.114789
0.387143
9.95063e-05
0.0128582
-0.000629537
-0.127043
-0.0209681
-0.000966802
0.0418884
0.000397379
0.329705
0.00228421
0.0328006
0.00649756
0.958123
0.582113
-0.0793125
-0.0106919
9.34651e-06
-0.0613529
-0.0194298
0.211973
0.400456
-0.0494908
-0.0322183
-0.0231739
-0.00879711
0.214235
-0.000230613
0.705276
0.0353015
0.000102684
0.000100394
0.00019481
-0.0175349
-0.024233
0.00110757
0.031797
0.134959
-0.0731373
0.000770103
0.000149744
-0.0318565
-2.93944e-05
-0.00375906
-0.015267
-0.000892038
-0.00896898
0.00587048
-0.00174459
-0.00494466
-0.0214303
0.583137
0.600729
0.0510266
2.73558e-05
-0.000660419
0.37036
-0.000537733
-0.151512
-0.000218716
-0.0264933
-0.106371
-0.000211979
-0.000252541
-0.0439371
0.00192412
-6.17935e-05
-0.00165703
0.264978
-0.0453901
-1.17217e-05
0.131991
0.514719
0.523144
0.000939247
-0.142768
-0.0119709
0.672373
-0.0873652
-0.0895594
-0.0163368
-0.0165014
0.0374726
-0.0329289
0.526323
0.0932841
-0.000160217
-0.0688255
-0.0892025
-0.00486071
1.74923e-06
-0.00226581
0.316507
-0.000186206
-0.0100798
-0.00509742
-0.00144504
0.0117029
0.0385269
-0.000168379
-0.000117223
-0.0102037
-0.126095
-0.0461114
-0.0973222
0.367543
-0.00310573
-0.000291689
-0.0477899
-0.0308257
0.0123532
0.0175207
0.000171256
0.0978681
0.202079
0.0247836
0.0316
-0.000733654
-0.0168631
-0.0490775
0.00178722
1.01694e-05
-0.0119742
-0.00501519
-0.000864304
-0.0143944
-0.00101108
0.185578
-0.0114074
-0.171888
-0.0307212
-0.0134806
0.0153066
0.746787
-0.0543293
-9.85815e-05
0.738425
0.232397
0.0100828
-0.00730268
0.00978643
-0.0382722
0.229909
0.000512186
-0.004157
0.939895
0.445684
0.392128
-0.0565738
-0.0016936
-0.00148188
-1.17731e-05
-0.00157305
0.309294
0.112205
-0.0143275
-0.0082053
-0.000377905
-0.0663843
0.898007
0.622818
0.107307
-0.00349437
-0.0778044
-0.006889
-0.000844733
-0.0296173
0.0145754
-0.0341283
-0.00436781
0.00124655
-0.117214
-0.12654
0.0395225
-0.0313842
-0.00696708
-0.0322157
-0.000205779
-0.00870219
-0.000804508
0.449849
0.000108514
6.4492e-06
-0.0415966
-0.0245985
-0.0356493
0.0503958
0.000135334
-0.111911
0.0794341
0.28422
1.0204
-0.00574023
-0.150672
0.038518
-0.00253325
0.0271445
-0.00068869
0.0133387
-0.000176498
0.288666
-0.126078
0.0136916
0.139513
0.163515
0.00195802
0.00334343
8.36691e-06
0.638005
1.39063e-05
-0.0557312
0.000496865
0.00220125
0.247983
0.137792
-0.0982219
-0.0481529
-0.0050947
1.08733
-0.098877
9.53579e-06
-0.0193592
1.44406e-06
-0.0226972
0.140724
0.290377
0.00122507
-0.0434317
-0.0116562
0.213261
-0.0362764
-0.0400996
0.908727
-0.0122661
0.000117079
-0.187932
0.955692
0.00205016
0.127715
-0.0551902
0.179082
0.0025004
0.03579
-0.0913942
0.00640979
0.0717203
-0.0412119
0.177379
-0.0324094
-0.0241838
-0.000923425
-0.000935962
0.8134
2.22613e-05
-0.00732293
-1.93621e-05
-0.0099777
0.00051811
-0.00903415
0.281356
1.35957e-05
-0.00120185
-0.0199409
-0.180946
-0.0312964
0.0015424
0.65474
-0.0720563
0.248218
-0.0146447
0.22268
0.00826257
-0.000858457
-0.110674
0.00106865
0.834017
-0.0343627
-9.02455e-05
0.00297381
0.204076
-0.0138584
-0.000798643
-0.000103955
-0.11853
-0.00314627
-0.0122711
-0.0957935
5.53002e-06
-0.0839883
0.00061825
0.539164
-0.0128394
0.212992
0.00556839
-0.00453286
0.362671
-0.0832548
-0.187955
-0.00538201
-0.126635
0.374967
0.382146
-0.0173749
-1.30447e-05
-0.0192024
0.00596656
5.08829e-05
0.0419971
0.601713
0.016088
0.00211418
0.00775404
-0.0854234
-0.000163541
0.0974983
0.059613
0.0905303
0.0168957
0.0351401
-0.000426374
0.257423
-0.118761
-0.187852
-0.00118052
0.0207877
0.201209
0.00110626
-0.0875668
0.318926
-0.0559575
-0.0891913
-0.0896426
-0.135865
-0.13749
0.068908
0.32868
-0.144939
2.74016e-05
0.00113931
-0.0695733
-0.002151
0.00327148
2.01116e-05
-0.00705162
0.00514708
-5.36773e-05
0.0761897
-0.000577846
0.170993
-0.0422824
-0.00901708
-0.0084975
-0.0105151
-0.0872227
-0.0071795
-0.0012247
0.0273274
0.103892
0.00555531
-0.0409213
-0.00360751
0.0368786
-0.0116725
-0.0239334
-0.0894903
-0.0196669
-8.19052e-06
-0.0188951
0.735421
7.272e-05
0.0307792
-0.0725662
0.885848
0.0634536
-0.0572867
3.97199e-06
0.00224367
-0.113114
-1.05975e-05
-0.00329835
-1.83463e-06
-0.0969573
0.0058359
-0.114075
-0.0285022
-0.00011658
0.408232
0.399731
-0.0445883
0.000648337
-0.000166109
2.4258e-05
-4.39922e-05
0.768705
-0.00157925
0.00300511
0.0280676
0.00130287
-0.000679782
-0.0906991
-0.000222851
0.056711
0.00134895
-0.00253585
-0.000853512
-0.0318045
-0.0515818
0.249874
0.0913142
-0.000158864
-0.0164498
0.000769376
-0.101828
-0.000712894
0.172061
-0.0135427
1.07754
-0.0237793
-0.00174595
0.100205
-0.0237306
0.529834
-0.0523579
-0.0139812
-0.0161662
0.0237591
-0.0045011
3.53536e-05
-0.0104053
0.4514
-0.0540448
-0.00400012
-0.0516693
-0.0335972
0.218862
-0.00057893
0.397102
-0.006421
-0.0849889
-0.00060839
0.0170408
0.0590523
-0.0123312
0.456535
-0.000531594
0.043216
0.119947
0.000718095
-0.000112563
0.862872
0.073867
-0.00176282
0.0382127
0.0187839
0.000223167
-0.105287
-0.0280238
-0.16758
-0.0135026
0.519633
0.00525752
0.101615
-0.000446133
0.621068
-0.0865787
-0.00659406
0.00806867
0.0409344
-0.0901463
-0.159606
-0.0107168
0.000108378
0.983966
-0.0282458
0.00113349
-0.063019
-0.0492271
0.477728
0.0039465
-0.0204765
-4.16502e-05
0.0594284
0.0103879
-0.0478068
0.00112094
-0.00433796
-0.0350208
6.87563e-05
-0.0649426
-0.00191925
-0.0186848
-0.0803319
0.445076
-0.0128915
0.00743188
-0.0671399
-0.0411103
3.16537e-05
0.000245293
-0.0047892
7.1226e-05
-0.0140702
-0.0698124
-0.0025479
3.76749e-05
0.863404
0.00653909
0.000510226
-9.80895e-06
-0.00265057
0.449682
-0.065162
0.987089
0.275349
0.0285776
0.427817
2.56892e-05
-0.0188119
-0.00100857
-0.00308895
0.289356
-0.013018
0.977881
0.377767
-0.0718217
0.409339
0.0109472
-0.0181195
0.00297828
-0.0720119
-0.00499546
-0.0649917
-0.0693232
-0.00379402
0.397908
-0.0126065
0.00023044
-0.00544453
-0.000793293
-0.0425191
-0.000163312
-0.00154285
-1.54381e-05
0.232386
-0.159229
0.410858
0.0354871
-0.00345574
-0.0445594
-0.0259463
0.0999973
-0.00385308
-0.00129991
-0.0813816
-0.05775
0.00895629
-0.0534367
-0.00569273
0.00365312
0.00215859
8.42754e-05
0.193156
-1.23142e-05
0.0768315
-0.000973937
7.10479e-06
0.00266904
-0.000795451
-0.00150167
-0.0206685
0.217757
0.216949
-0.0254848
-0.0161728
0.00384836
-0.00648659
-0.0130023
-1.88678e-05
-0.000571889
0.000975381
0.161925
-0.0113961
-0.0732007
-0.0696959
-0.00314747
-0.0334231
-0.0226321
-0.00214023
0.00694514
-0.0158752
0.356483
-0.0915347
0.00694822
0.00147279
-0.0489252
0.965718
-0.0128408
-0.00769967
0.0101376
0.113287
0.00529608
-0.0101745
0.399321
-0.000419242
0.0580611
-0.0316567
-0.0781138
0.00834687
-0.00477614
-0.00704936
0.0547509
-0.00459607
-0.000738799
-0.00419465
0.00334301
-0.000243205
0.034711
-0.0120194
-0.00256407
2.38843e-05
0.23522
-1.59687e-05
-0.0428124
0.109165
-0.0330267
0.000259564
0.160436
-0.0604344
0.256505
-2.68764e-06
-0.00508352
0.0596184
0.000280627
0.0065029
-0.00577557
0.013727
-0.0266488
-0.0409852
-0.0121052
-0.00339648
0.0129743
0.027397
-0.0291002
-0.000194954
0.167807
-0.0508864
-0.00423726
-0.00888013
0.000588196
-0.0865196
0.000130439
0.744084
0.275149
-0.000576023
-0.0276157
0.000165294
-0.00273604
-0.00762029
-0.0254226
0.236301
0.132678
0.00441101
0.0133396
-0.0909903
0.0452996
0.00972396
0.0104624
-0.0642119
0.0174999
0.283401
-0.0122304
0.601155
-0.00112709
-0.0139265
-0.066326
-7.13241e-05
-0.000907661
-2.75242e-05
0.597471
-0.0131929
0.000418579
-0.0199245
-0.00764108
-0.000365073
-0.0167895
0.35519
0.00134283
0.0142311
-0.0407152
-0.000550213
-0.0058218
-0.000971646
0.995367
0.000323384
5.30581e-05
-0.00248271
-0.0187679
0.0190313
0.000787134
0.00786553
0.10496
-0.00012119
0.00271912
-0.090366
-0.0189223
-0.0697896
2.52885e-06
0.000520161
-0.02305
0.0412371
0.469475
0.130524
-0.0428073
2.74963e-06
-0.0751133
-0.00327273
-0.0160122
-0.01549
0.262218
0.706785
-9.64119e-05
0.216712
0.351193
-0.0122604
-0.0395016
-0.0313018
-0.0217859
0.000187318
-0.0501438
-0.0110401
-7.2005e-05
-0.000617051
-0.00194285
-0.00233718
-0.00078604
0.44948
0.430425
0.196052
-1.73019e-06
-0.0291564
-0.0133067
0.148617
0.755312
-0.000559773
-0.02541
-0.0230933
0.329378
-0.0240424
-0.0122457
-0.0273794
0.223447
0.000459288
-0.000549606
-0.0331396
-0.061898
0.158566
0.030309
-0.05618
-0.0313096
-0.0113347
0.0253259
-0.0626697
0.00907617
-0.0589689
0.10972
-0.000370077
-0.000716395
0.0991414
0.000313147
0.0117792
0.0415102
2.95023e-05
0.222452
-0.0135522
-0.00553605
1.02981
-0.0456071
-0.0140654
-0.048134
-0.00349783
0.698424
0.00156159
0.971048
-0.000114376
-0.0378376
0.984085
0.00891209
0.687632
-0.00716427
5.87756e-05
-0.0372257
0.676123
-0.00192683
-0.00829583
-0.0101768
-0.00119531
-0.027013
0.706716
0.138848
4.27817e-05
0.0252125
-0.00463095
0.0385457
-0.0010541
0.0302317
-0.00321832
-0.000509176
0.666822
0.70962
0.678001
-0.0631975
-0.0463588
0.000247055
-0.068774
0.423954
0.0184964
0.000380344
-0.0947579
0.000825058
-9.08463e-05
0.711855
0.000208985
0.00547932
-0.0023569
-0.0116184
0.68821
0.69442
0.732413
0.015279
0.000703507
0.29805
0.00984997
0.0267609
-0.0113364
0.000122953
-0.00363871
-1.20403e-05
-0.00564772
-0.000867988
-0.00729018
-1.64096e-05
0.208012
0.00281082
-0.0980514
-0.0116033
-0.0855145
-0.0202132
-0.000906585
0.488152
-0.0133683
7.30259e-05
-1.20371e-06
0.948347
5.60612e-05
0.0147104
0.0687211
-0.0222359
0.411938
-0.00650343
-0.0524945
-0.0451901
-0.00056096
0.000208011
0.384637
0.722734
-0.00185745
-0.0288345
-0.000242043
0.695114
0.90641
-0.00172755
-0.00822161
0.0250067
0.00396191
-0.0302693
0.000159942
0.0131015
-0.0464088
0.0691662
0.456977
-0.00180618
0.0371442
0.0772258
-0.000890636
-0.0537487
0.0363767
0.875159
0.231591
-0.0637284
0.697725
-0.000659783
0.753155
-0.00961602
0.590481
0.0919977
-0.00627411
0.0400824
0.00318444
0.0227938
-0.0869054
-0.000771226
-0.0286905
0.55396
-0.0328241
0.0255936
-0.00177749
-0.0586277
0.219598
-0.0114394
-0.120673
0.000983898
-0.00448931
-0.0293596
-0.00260805
0.00260788
-0.0108738
-0.00056065
0.0032012
0.575528
0.00281617
-0.0194951
-0.0722663
-0.0357392
-0.0753403
-0.110792
0.00543559
2.82548e-06
5.13392e-05
0.348795
-0.0772518
0.000108609
-0.0954079
0.244654
-0.0735242
-0.0183674
0.000191005
-0.00228536
-0.0554241
0.167392
-0.011356
-0.000532875
-0.0552818
-0.0244511
0.992259
0.148316
0.0850891
-0.0652029
4.44952e-07
-0.00820151
0.0841068
-0.000397717
3.80168e-05
0.221737
0.125698
0.000855938
-0.000997538
0.00784524
-0.0515129
0.0130171
0.00987242
-0.0183678
9.78116e-05
0.262833
0.000815126
-0.000694371
-0.000224433
-0.000219212
-0.000133592
0.106541
0.00126693
-0.00336451
-0.0115929
-0.00601051
0.0361252
-0.006544
-0.049816
-0.0125886
0.621232
0.495469
-0.000533215
-0.00173263
0.121491
-0.000926211
-0.0271288
0.0483898
0.00518185
-0.0011151
0.0261482
0.0510941
0.00171441
0.0858414
-7.28225e-05
0.00942405
-0.0342036
0.0173213
-0.0176817
0.0625914
0.000132452
-0.000359276
0.000429573
-1.27214e-05
-0.00187128
-0.0116264
-0.0153538
-0.0351221
0.0412947
0.0452478
0.0115757
-0.0833252
0.0127621
0.00650914
0.0162734
0.000104339
0.711576
-0.00989046
-0.0038631
-0.0501039
1.00586
1.34536e-05
0.0287951
4.46811e-05
-0.0704363
-0.00762452
-0.0263621
0.221025
-0.00469363
4.41877e-05
0.109477
0.0921755
-0.000596358
0.0647815
1.19628e-05
0.215369
0.00730007
-0.0337193
-0.000112929
0.289404
0.0355479
-0.0240173
9.22334e-05
0.222145
0.424386
-0.00126587
1.78362e-05
-0.0429933
-0.0105673
0.0015811
0.0234545
0.758474
0.385606
0.000659066
0.398716
0.29053
-0.00328463
-0.0639129
-0.0469891
-0.0199246
-0.0715084
0.0473965
0.00107177
0.785455
0.178258
0.0151623
0.000192028
0.000847722
1.87287e-05
-0.000583296
-0.003202
0.843993
5.00032e-05
0.100038
0.0333622
-0.000209679
0.758932
0.904668
0.255235
0.308278
-0.0767632
0.00307221
-0.000271163
-0.0128457
9.94348e-06
-0.00121734
-0.176463
5.37823e-05
-0.00228757
0.790071
-0.0134741
-1.68318e-06
0.845425
0.000627327
-0.0405454
-0.0823113
-0.00146109
-0.106049
-0.000219986
0.106354
0.00408903
-0.0210257
0.00240904
-0.000686299
-0.000382615
-0.000202457
-0.177474
-0.0704638
0.201418
0.00338697
-0.0109496
0.281457
0.000129056
0.956963
-0.000545464
-0.095753
0.00277785
0.00203972
0.062825
0.065745
4.64641e-05
-0.00477156
0.000177167
-0.000713887
0.00108658
0.104117
0.0600428
0.43487
-0.059998
-7.43622e-05
0.000254883
0.124068
0.409065
-0.00506698
-0.00719343
0.960025
-0.00314008
-0.0236402
0.00107426
0.0551127
-0.0601167
-0.00978128
0.20642
0.00167263
-0.0002143
0.0020594
-0.0584264
0.930259
0.713593
-0.027625
-0.0494105
-0.00743203
0.00194788
6.77992e-05
0.0931937
0.233321
4.60746e-05
-0.00832753
-1.3695e-06
0.000223591
0.654881
4.85437e-07
-0.0975535
-0.0744286
-0.126393
0.0851558
3.57296e-05
0.0118208
-0.00713465
0.591151
-0.0215585
0.0060084
-0.0349892
0.000828556
0.423458
0.280178
0.0124922
0.0551261
0.797749
-0.0751392
-0.0700501
-0.00212549
-0.00798401
-0.000352898
0.0214563
-3.01858e-06
0.21643
0.00352469
0.207901
-0.0408111
2.26327e-06
0.0634517
-0.00013274
3.18886e-05
-0.000792037
0.931528
0.889516
0.303514
0.000105698
0.143163
0.751984
-0.00104845
0.00137143
-0.00961513
0.0579037
0.678237
-0.0315502
0.153435
-0.00291423
-0.0732949
-0.0826232
1.04577
-0.00062247
0.704281
0.108548
0.251666
0.000219705
0.000308559
0.00638916
-0.0102244
0.0999346
-1.43951e-05
0.000117138
0.694867
-0.138759
0.000424358
0.733485
-0.00258558
0.000242754
0.527833
-0.00850743
-0.00170048
-0.0646595
0.111024
0.000434382
-9.1716e-05
0.00409025
-0.00455482
0.68285
0.92437
0.303476
1.02075
0.0349505
-0.0522451
0.809727
-3.82841e-05
-0.00365197
0.0543941
-0.00389958
-0.000679511
-7.30605e-05
0.724751
0.012562
-0.000669285
0.896508
0.0922919
0.148924
0.0516575
-0.00302988
-0.0237412
0.153849
0.0832373
0.708643
-0.0288929
-0.000822816
0.651787
0.531153
0.0150354
0.459169
-0.0460917
-0.00880685
-0.0108701
-0.000660386
-0.000105795
0.663501
-0.0722003
-0.0242184
0.00098539
0.194325
-0.035576
-0.0245995
-0.00106308
-0.00459607
0.755392
-0.000841034
-0.0199408
-0.00334349
0.727297
-0.0224076
0.0235093
-0.00846203
0.00171902
0.192487
-0.0249013
0.789046
0.011583
1.01522
0.338309
-0.0672278
0.0368482
-0.001953
-0.00212456
-0.0928783
0.696756
0.749903
0.864005
0.32082
0.674126
-0.000338306
0.805966
1.34161e-06
0.000120275
-0.0541705
0.877093
0.0599972
0.279481
9.00747e-05
-0.00237762
-0.117396
-0.0425257
0.685223
-0.000706209
-0.00864891
0.293864
0.0012886
-0.00477108
0.979506
0.0556178
-0.0535422
-0.19704
-0.000532088
0.016873
-0.0138612
1.0292
0.00565829
0.00269132
0.00487088
-0.000213741
-0.0145037
0.240842
0.00570631
0.000197568
-0.129769
0.320038
-0.00160954
0.693061
-0.0881672
0.706841
-0.040659
-0.0261
0.806426
-0.00598171
-0.0193509
-0.000386011
-0.00142326
-0.0707632
-0.0253376
-0.0405908
-0.0110173
-0.00711488
-0.135916
-0.0787913
0.691118
0.000376397
0.000954489
-0.023378
0.135658
-0.14117
-0.0658641
4.22101e-05
-0.13614
0.0536319
-6.40232e-05
-0.103433
-0.113677
0.718753
-0.12963
0.677127
-0.0154255
0.0974282
0.327638
-0.0388794
0.237891
-0.00195021
0.0753367
0.00060779
0.100968
0.234014
0.216274
-0.0319918
0.00703838
-0.000666687
0.222548
-5.74393e-05
-9.45197e-05
-0.00109753
-0.0178225
0.0162151
0.0169302
0.566152
0.16303
0.942412
0.513116
-0.00165095
-0.036054
-0.000126808
-0.0540931
-0.00135503
0.00664851
0.000807982
-0.0391584
0.427698
0.709359
-0.000270482
4.0895e-05
-0.00607599
3.29487e-05
-0.0101763
-0.000141333
0.136441
-0.0393319
0.233941
-0.110972
9.15496e-05
-0.0153431
-0.0439783
-0.0298641
-0.0181776
-0.057552
0.0363949
-0.000135928
8.93531e-07
0.00244772
-9.27774e-05
0.0746228
0.00991253
0.0434015
0.863516
0.0499915
-0.164318
-0.0942536
-0.00041535
0.0585447
-8.18287e-05
0.635071
0.115345
0.778241
0.000220663
-0.036175
-0.00746933
0.0539897
0.0687315
0.542497
-0.00835629
0.0284972
-0.00203386
-0.0221243
-0.00878808
-0.00666707
0.124641
0.00187412
-0.0101805
-0.0224704
0.149716
0.0609336
1.20391e-05
-0.000909978
-0.00678462
-0.00060898
0.113402
-0.000673942
-0.039764
0.148897
0.000123696
0.292743
0.000137258
-3.68711e-07
-0.105665
-0.0242286
0.00023993
-0.0248591
0.000258416
0.819759
0.0140154
-0.0265352
0.775242
0.149405
-0.0343787
0.555811
-0.0029702
-0.0019985
-0.00222117
0.0883173
1.08826
-0.00156795
-0.00058311
3.89848e-05
0.00886208
-0.00130707
0.0287387
0.00696096
-0.0229337
-0.0647484
0.0206019
0.0116353
-0.0207208
-0.000526141
-0.0520557
0.476085
-0.00192135
-0.0150569
-0.000199052
0.575608
0.0578543
0.478024
0.000551509
-0.000859255
-0.0264282
0.870339
0.170149
-0.0310658
-9.45361e-05
0.0348667
0.0634799
-0.0385613
0.224852
-0.051709
0.0206863
-0.170996
0.546681
-0.0189501
0.300351
-0.00341686
1.01937
-0.0448522
-0.0120074
0.774405
-0.0467629
0.19455
-0.184369
0.221672
0.00728869
0.0551461
0.404451
0.0558617
-0.0520921
-0.0105404
-0.00838906
-0.0197223
-0.0255277
-0.00163482
-0.0628704
-0.0308009
0.00227126
-0.0714428
-0.0897087
-1.79469e-06
0.0416959
-0.00993779
0.0197593
0.763601
0.43162
-0.0579219
-0.0776723
0.000597384
-0.0973819
-0.00501531
0.986517
-0.0384423
-0.0329712
0.43217
0.0538533
-0.0443866
0.177709
-0.0401182
-0.000626564
-0.0127622
0.0112311
0.00081292
0.454592
-0.00290052
0.166745
0.271815
-0.00617103
0.29809
-0.126211
-0.000353436
0.00750006
0.0568012
0.33918
-0.0027012
0.0780831
-0.0776785
0.0655302
-0.0252198
0.453996
-0.00733073
-0.103579
-0.00366845
0.000256057
0.678932
-0.0026283
-0.039583
-6.57479e-05
0.256279
-2.86521e-05
-0.0550205
-0.00410876
-0.186086
0.000807643
-0.0114355
0.147401
-0.00424217
0.00111571
0.000787425
-0.00447327
0.0241875
-5.42976e-05
8.87858e-06
-0.00926212
-0.0115091
-0.0253297
0.00916333
-0.00202238
0.083121
0.0900011
-0.00131891
0.00122151
-0.000151173
0.66465
-0.0045475
-0.0076372
0.536717
-0.0203467
0.468049
0.0464165
0.719554
0.278784
0.122597
-0.00157578
-0.013967
0.0896033
0.0228445