/*--------------------------------*- C++ -*----------------------------------*\
  =========                 |
  \\      /  F ield         | OpenFOAM: The Open Source CFD Toolbox
   \\    /   O peration     | Website:  https://openfoam.org
    \\  /    A nd           | Version:  7
     \\/     M anipulation  |
\*---------------------------------------------------------------------------*/
FoamFile
{
    version     2.0;
    format      ascii;
    class       volScalarField;
    location    "5";
    object      p;
}
// * * * * * * * * * * * * * * * * * * * * * * * * * * * * * * * * * * * * * //

dimensions      [0 2 -2 0 0 0 0];

internalField   nonuniform List<scalar> 
7639
(
0.806714
0.0490839
1.15561
0.753551
-0.00436501
-0.000235323
1.14668
-0.0263943
-0.000689331
0.333855
-0.000222327
0.0114738
-0.0392304
0.171506
0.345195
-0.0491202
0.827659
-0.0515633
0.00610021
-0.207669
0.233008
0.00745777
0.128882
0.607272
-0.0669045
0.831406
-0.00401407
0.20947
0.515919
0.013292
-0.06981
1.66939
0.127235
-0.00252338
-0.000599503
0.273347
0.0146282
1.11205
-0.0219388
-0.0017814
-0.0199026
-0.0479243
-0.187013
-0.0192377
-0.00109918
-0.000477844
0.00736836
-0.0220741
-0.000406308
-0.202355
0.0172527
0.200299
-0.0843535
-0.00206159
0.271902
-0.0235033
0.00684004
-0.0265692
-0.107096
-0.00264297
0.000138671
0.022166
0.171804
0.0126308
-0.00499101
-0.067958
-0.000580783
1.22076e-05
0.292518
-0.0204561
-0.000443702
-0.171976
-0.0646093
-0.110603
-0.0496899
-0.153017
1.13905
0.22813
0.224933
-0.198211
-0.0376852
1.02076
0.326899
-0.114138
-0.00731675
-0.0113537
-0.0282623
-0.0817878
-0.00338223
-0.0220814
0.527556
-0.0351082
-0.000758542
0.00613561
-0.0176444
-0.112219
-0.165368
0.00724887
-0.00801041
-0.00595406
-0.189501
0.245559
-0.0168055
-0.000130527
-0.0165931
0.54338
1.44867
-0.0248811
-6.37977e-06
0.121912
0.716287
-0.10704
-1.21756e-05
0.129139
0.542923
0.00210084
-0.107117
0.442855
-0.123194
-0.112047
-0.196595
0.981989
-0.176956
0.0499405
-0.192119
-0.00493146
-0.0616494
0.0102372
-0.00525466
-0.0685142
-0.132518
0.224322
-0.00313201
-0.0039693
-0.118108
0.694538
1.18841
-0.000113071
0.0386047
-0.245723
-0.104868
-0.140422
-0.153426
-0.105658
1.46606
-0.0460714
0.520692
-0.102089
-0.144943
0.978118
0.261841
-0.0171015
-0.00741333
0.244649
0.325699
1.04179
-0.172414
-0.0390376
1.39178
-0.000370505
0.00318351
0.628863
-0.000136386
-0.0101097
-0.0198984
0.767825
0.770797
1.4372
-0.0115928
-0.0152614
1.29263e-05
-0.204563
0.00208228
0.0658834
0.0416168
-0.142587
0.0287419
0.467436
-0.000753591
-0.00260029
0.767747
-0.000368117
-0.000643825
1.15541
0.0364992
-0.0977286
-0.115562
-0.103048
-0.0568527
-0.240871
-0.000144092
-0.158905
0.484082
-0.0169583
0.000290261
0.605956
-0.00640445
-0.0642404
-0.057214
1.66129e-05
0.0045356
0.708543
0.566443
1.04163
-0.0913546
-0.0921622
-0.176034
0.228481
0.695801
-0.00117391
0.000118642
1.38628
-0.0424339
-0.00326382
-0.15195
-0.0644378
0.95708
0.973423
-0.150702
1.5887
-0.00594902
-0.0510997
-0.194229
0.274616
-0.22817
0.699612
1.39152
0.000226729
0.0522746
0.468958
-0.0207386
0.433976
-0.00289323
1.53527
1.01941
-0.0281654
0.0144384
-0.0016587
0.448231
-0.000552603
-0.0302754
-0.229272
-0.000444057
-0.00696119
-0.00232171
0.499266
-0.000141009
-0.0229492
-0.191972
1.66466
0.20242
1.4812
-0.00028358
-0.0651998
-0.00107666
1.08328
0.0214242
1.19428
0.00789354
0.00384275
0.0406266
0.236361
0.00292997
-0.00127136
0.0025899
-0.021789
-0.092253
-0.000266969
-0.166559
-0.0189492
-0.000820277
-0.00340852
1.14634
-0.0389448
-0.00409242
1.5693
-0.00766688
0.767474
-0.00118516
0.00760628
2.34294e-05
-0.111402
0.265141
0.046252
-0.107291
-0.00224432
-0.187468
-0.0762239
-0.00102301
0.00250771
-0.0112084
-0.0374531
0.0154537
-0.00643162
-0.109105
-0.0785898
-0.107913
0.0110906
-0.136103
1.02343
1.05767
-0.00790522
-0.0196034
-5.2503e-05
-0.0119473
-0.114257
0.592988
0.36243
0.000418804
-0.0109061
-0.13255
0.521104
-0.00531458
0.0188327
0.00634214
0.210767
-0.141258
0.991252
-0.00849669
0.0480815
-0.000682234
0.021874
-0.000331765
-0.0818463
-0.00190391
0.0269969
-0.0868558
-0.131112
0.0139441
0.0463926
-0.00395609
0.108466
-0.033928
0.278451
0.506345
-0.221196
-0.0356434
-0.0788442
0.0271715
-0.222654
1.47022
-0.0208385
0.157025
1.55755
-0.00817838
-0.00921163
-0.0332329
-0.0057396
-0.0360002
0.0333192
-0.0144938
-0.0108548
0.493908
-0.000447794
0.00280168
0.000333697
-0.0177052
-0.0352823
-6.14315e-05
-0.00589711
-0.10252
1.38053
0.0179436
-0.0418198
1.3055
0.868179
0.244253
0.0109738
-0.207812
0.0261487
0.741727
-0.0552444
0.867353
-0.066992
-0.184376
0.574183
0.875139
-0.159029
0.344181
0.690996
0.800034
0.224317
-0.0160014
-0.0220102
-0.000537306
0.0238115
-0.0564523
0.00512992
-0.000643099
-0.00846801
-0.190264
0.304949
-0.0827112
-0.0118281
-0.0197739
0.0377466
-0.0358836
0.00972305
0.605744
-0.00993013
-0.000177328
-0.000387158
0.000164684
-0.0995008
0.481278
-0.0207754
0.143493
-0.23287
1.09119
0.0176594
0.035505
-0.0266406
1.11184
-0.00570053
0.984606
0.530649
-0.000698004
-0.0739371
-0.0172229
-0.134249
0.00290807
0.26607
0.0191056
0.03311
-0.00460148
0.462306
0.529308
-0.111061
-0.101659
-0.0118511
-0.0643369
0.241823
1.64425
-0.069143
0.0243702
-1.00763e-05
-0.0652468
-0.0118811
0.0993712
-0.202268
-0.0391415
1.1594
0.486255
-0.151826
0.633689
1.09165
0.139994
0.0062943
0.776435
-0.00480287
-0.00107047
-0.084642
0.000372406
-0.194999
0.000796785
-0.103303
0.00999529
0.618214
-0.00941212
-0.000183056
-0.199934
0.00896077
0.154004
-0.182174
-0.238488
0.0444288
0.473383
0.393479
0.403866
-0.00117838
0.280688
0.299735
-0.00290166
-0.0798187
0.00311307
0.0328369
-0.00684703
0.0248241
-0.00422381
0.436131
-0.00014877
0.000939129
0.0102215
-0.102264
0.106741
-0.0981982
-0.121396
-0.089698
-0.233309
0.048005
0.755
-0.0392676
-0.0339074
1.55123
-0.162036
-0.0371473
-0.119163
-0.027907
-0.0965387
-0.0503241
0.144608
-0.0390444
-0.000196462
0.127303
-0.00058526
1.02005
0.303128
-0.0248297
-0.0676363
-0.00108833
1.02396
0.940938
0.23928
0.471863
-0.168129
1.22483
-0.000421346
0.105888
-0.086145
0.48829
1.43738
0.208528
0.466119
-0.0084039
-0.00117528
0.415412
-0.0984464
1.07129
0.160228
0.663948
-0.035511
1.11045
0.898462
-0.0449627
-0.0381346
0.350199
-0.244428
-0.000539773
-0.0626855
-0.233818
-0.168476
0.0578394
0.0478116
-0.000762966
0.950125
-0.00462577
-0.000626334
-0.064534
-0.00269374
-0.00127653
0.0185873
0.6696
-0.181921
1.35053
0.000255183
0.661687
-0.0551846
-0.000499846
5.9944e-05
0.511217
0.642934
-0.0206577
0.586492
8.27731e-05
0.617176
-0.218894
-0.0468554
1.1368
-0.146351
0.437338
-0.114392
0.612127
0.636501
-0.0770805
-0.097098
-0.0290565
-0.0144411
-0.00116194
-0.00546606
0.823042
-0.000197749
0.592329
-0.167715
0.939095
0.564922
-0.239438
1.31825
-0.00825041
0.030835
-0.0784444
-0.092557
-0.0323652
-0.0652528
0.153661
1.51317
0.00016147
-0.00971635
-0.110841
1.65604e-05
1.03757
0.0091437
1.31151e-05
0.000906117
0.0018522
-0.0790558
0.0972503
-0.00784804
-0.000524995
-0.0341894
0.0143396
-0.227285
-0.220779
0.107873
-0.000147746
-0.233732
-0.0610221
0.378741
0.921303
0.00599756
0.402102
0.000692431
-0.0587025
0.303321
-0.0323681
0.719815
-0.0600927
0.119114
0.314165
0.477929
0.0238009
-0.0482178
0.558482
-0.1943
1.10471
-0.0433875
0.80143
-0.0432656
-0.00592735
0.445507
0.0128482
0.300216
0.00959179
1.21537e-05
-0.238705
0.589134
0.00719073
0.36982
-0.057007
-0.243536
0.044031
-0.101861
-0.00842951
-0.0406562
-0.18554
-0.123267
-0.045456
-0.000873779
1.15892
0.388739
0.143009
-0.00110962
0.890103
-1.94356e-05
-0.00102517
0.416669
0.0109727
0.516312
0.206579
0.084581
-0.0325321
-0.205567
0.0417139
0.00645452
-0.177422
-0.000162006
0.0193013
0.689579
-0.0733858
-0.0139755
-0.0231008
-0.00986021
-0.00218154
1.53943
-0.0458768
-0.00292359
-4.13236e-05
0.431435
-0.126583
-0.00176159
-0.0137628
0.495539
0.300044
-0.157939
-2.09677e-05
0.542897
-0.0718199
0.58935
0.0805637
0.0982787
-0.130026
-0.000563517
0.306594
0.276555
0.119943
-0.15064
0.819142
0.0300523
0.544531
-0.0116971
-0.0654161
-0.00208512
-0.0048252
-0.000655143
0.50082
0.742318
-0.00748024
0.094155
-0.0776691
-0.115951
-0.134737
-0.00938137
0.0985104
1.49726
0.0952961
-0.000369525
0.294751
-0.0178763
1.28474
-0.056727
-0.0488858
-0.000291368
-0.0557318
-0.0288194
-0.036396
-0.0154915
0.00773532
0.134072
0.000452666
-0.192359
0.0433746
1.00496
-0.151544
0.536307
0.0100498
-0.0645967
-0.046528
0.623908
-0.0343444
0.000431734
-0.0698904
-0.0251603
0.106882
-0.117148
-0.100799
0.0272675
-0.066433
-0.013675
-0.174238
9.54983e-06
0.177745
-0.155417
0.464667
-0.0544378
0.298621
-0.166643
0.925497
0.0424877
-0.13405
-0.0443435
1.3575
-0.161928
-0.0593008
-0.216846
-0.0776302
-0.185699
-0.100545
0.533283
-0.0138867
0.726231
0.0429592
-0.00206833
-0.00610295
0.26216
1.67293
0.00550132
-0.0537359
0.518447
7.37027e-05
-0.0927655
0.131013
0.0509161
0.043626
-0.00811835
-0.111916
-0.0142906
0.000100561
-0.139184
0.744458
0.0214194
-0.0750017
0.00917822
0.517871
-0.00202543
-0.00631785
-0.00191514
-0.00399095
0.166014
0.0272811
0.0168215
-0.0804049
0.000151999
-0.185312
-0.0766401
-0.204068
-0.0595359
0.0718578
-0.0011685
-0.05715
-0.188748
0.133183
0.94334
-0.00634086
-0.210831
-0.0234576
0.0500954
0.469208
0.00205622
-0.00090033
0.376138
0.102351
0.0742468
-0.0148603
-0.0105049
-0.172199
-0.00100512
0.00850316
-0.0605641
0.822699
0.747235
-0.0509721
-0.148265
0.0356626
0.0254877
0.0845748
-0.166195
-0.0313147
-1.69607e-05
0.0694338
-0.108727
-0.184084
0.0290967
-0.17088
-0.00212593
-0.0149331
0.570654
-0.12448
-2.84266e-05
-0.0140943
-0.12893
-0.000931129
-0.0404458
-0.000341984
0.0206959
-0.21959
-0.0565669
-0.000199489
0.000104659
0.377651
-0.118893
1.03157
0.76941
0.0587627
-0.00305242
-0.0367641
0.000980133
-0.135887
-0.166956
0.0346629
-0.0729157
0.749162
0.0431006
0.0012188
0.0316931
-0.180271
0.00948985
-0.050096
-0.182282
0.0144419
0.0786136
0.223075
0.0429778
-0.0983505
-0.0898931
0.539732
-0.0605874
-4.11919e-06
-0.184865
-0.204254
-0.0713532
0.0220274
0.00360431
0.0425014
-0.210773
0.115556
-0.119194
0.401438
-0.0818489
0.0299554
0.069383
0.0666427
-0.120896
-0.141088
-0.000635392
0.426994
0.587788
0.028237
0.608912
-0.150606
0.156485
-0.117707
0.56701
0.307914
1.49201
5.50118e-06
0.316305
0.509676
0.0527094
-0.00580147
-0.0631834
0.0359694
0.000135891
-0.0630305
-0.13143
-0.0691352
-0.0758979
0.000553126
-0.0967482
-0.00154988
-0.0035279
0.66652
0.0250967
0.223321
0.0744071
0.581448
0.0433944
-0.00166111
-0.146522
0.0308284
0.985529
0.00467163
-0.139228
-0.000987302
-0.00222475
0.0287603
-0.0930347
-0.000187132
-0.0376848
0.104447
-0.0075488
9.78336e-05
-0.000273197
0.438102
-0.017701
0.0253396
-0.00436552
0.0319942
0.0559407
0.0319676
-0.00124087
0.974073
-0.118529
0.615879
0.845621
-0.000903305
0.196988
0.339901
-0.00306368
-0.0011398
-0.00178912
0.0513088
0.0644881
-0.027364
-0.0551489
-0.183101
0.489383
-0.163061
2.88848e-05
-0.0666411
-0.0611258
-0.121271
-0.0159099
0.0221187
0.00454404
0.0977933
-0.00207439
-0.00102183
-0.0591648
-0.0159864
-0.0849559
-7.95759e-05
-0.0512432
0.11742
0.00497189
-0.0280032
-0.0303743
-0.0408351
-0.0319767
-0.0191793
0.0408149
-0.0329845
-0.00048185
-0.00164206
0.0827088
-0.0423495
-0.0182489
0.030954
0.0123174
-0.248028
-0.0385954
0.448725
-0.0434551
-0.167417
-0.0783023
-0.0773789
-0.0537596
-0.0138957
0.00812096
-0.0130615
-0.0477249
-0.0554702
0.551703
0.438963
0.176014
0.919853
-0.000336168
-0.0117427
-0.0564342
-0.0284789
0.295612
-0.0694166
0.174552
-0.0152371
0.598787
-0.00722907
-0.00608024
0.070229
-0.0470933
-0.000943202
-0.0655918
-0.0215695
-0.0714138
-0.000114583
-0.024173
0.00712137
-0.060156
0.126636
0.119658
0.0658224
-0.0484178
-0.106436
0.342522
-0.00480697
-0.00734067
-0.00788882
1.29609
-0.000450779
0.238425
-0.0726251
-0.0700493
-0.0901181
-0.127375
-0.0974843
-0.115382
-0.0621617
-0.0169497
-0.000445394
-0.0156843
-0.073674
0.301084
0.00601185
0.450658
-0.11119
-0.0457814
-0.00353786
-0.0977601
-0.000464044
0.427469
-0.102273
-0.0890273
-0.0811934
-0.0137768
-0.107695
-0.00637459
-0.136868
0.305847
-0.0878571
-0.190578
-0.00551358
-0.091886
-0.0633018
0.0534774
-0.0119556
0.410616
-0.00895788
-0.0653234
-0.00261743
0.457847
-0.131188
-0.0899399
-0.0119572
-0.0341412
-0.0101906
0.547222
0.0719747
0.587377
-0.0171834
-0.00314993
-0.00476447
-0.00861249
0.515421
-0.197663
-0.0248866
0.00113081
-0.0231189
-0.0205657
-0.00344169
-0.0380276
-0.0540686
0.184284
-0.0181965
0.0194545
1.25895
-0.203402
-0.0982587
-0.190136
8.15885e-05
0.236956
-0.0130714
-0.0914699
-0.0205338
-0.120372
0.016287
-0.00208423
-0.0107077
0.0115488
0.560571
-0.0213549
-0.00665642
-0.0170858
-0.167419
-0.0302624
-0.0761153
0.015892
-0.031642
-0.0324522
-0.012111
0.570733
-0.154543
0.0114125
-0.0154334
-0.0939999
-0.0495097
-0.165819
-0.00526824
0.281449
0.080019
-0.028576
-0.00644666
-0.0483579
1.33774
0.565403
-0.0405119
-0.00224384
-0.00884319
0.0261463
-0.0146531
0.0727274
-0.00164239
-0.0464912
-0.00737043
-0.0598988
-0.096721
-0.00402014
-0.0360872
-0.00510252
0.861959
-0.0234461
-0.041785
0.0113693
-0.00721078
-0.10187
0.199436
1.18683
-0.0386499
-0.0408605
-0.00786939
-0.00183726
-3.27317e-05
-2.38712e-05
-0.0364681
-0.00255793
0.345071
-0.00259541
-0.00676992
0.0295591
-0.00105043
-0.148549
-0.153316
0.0596955
0.131348
0.0893387
0.168134
-0.0879413
0.276605
0.217353
0.289851
0.360264
-0.0461331
-0.00333718
-0.0205239
-0.170966
-0.0129047
-0.0532495
0.13645
0.918223
-0.135535
-0.00188689
-0.000197059
-0.00550531
-2.80968e-05
0.0339574
-0.00216369
-0.0162261
-0.15954
0.00186083
0.009459
-0.000904917
0.221437
-0.0546796
-0.0565258
-0.00453339
0.870514
0.793951
-0.0361769
-0.150398
-0.0951767
-0.0836248
-0.0511636
-0.00695815
-0.190795
-0.0833754
-0.137615
-0.0802407
-0.000288086
0.545631
-0.0289142
-0.0347621
-0.0753204
0.0652913
-0.00206716
-0.0302641
-0.0051287
0.0487136
-0.00564481
0.488443
0.00116927
0.0353786
-0.0016257
-0.120809
0.0313081
-0.00291694
0.0516021
0.00137855
0.112652
0.355383
0.0072385
-0.00541262
-0.000544857
-0.0022193
-0.00196763
-0.200659
0.366339
0.09454
-0.00108523
0.0344175
-0.0018002
0.632482
-0.196242
0.707419
-0.143669
-0.00176549
-0.00117366
-0.026483
-0.0204707
-0.00243819
-8.95965e-05
0.0869573
0.0987616
-0.000965743
-0.00135366
-0.0687486
-0.000108133
0.478864
-0.00356824
-0.17392
-0.0664037
-0.0230724
-0.182072
-0.197872
0.435764
-0.0382952
-0.0703957
-0.00126811
-0.18623
-0.0714599
0.0799267
0.31441
0.951124
-0.00441517
-0.194858
0.0491318
0.851489
0.13138
-0.000518392
-0.0219071
-0.0148555
-0.0180608
-0.15879
0.284005
0.000531498
0.0736456
0.0109263
0.250965
-0.00202698
-0.000561932
-0.110938
0.780657
-0.179347
0.433243
-0.00467595
-0.00083858
-1.32568e-05
-0.16706
-0.138816
-0.00137053
0.328176
0.0392681
-0.019391
1.09069
-0.00157753
-0.0134905
-0.190938
-0.0477198
-0.00840947
0.393059
-0.134744
-0.000695132
0.0491079
-0.000758496
-0.000453224
0.411391
0.0168632
-0.00176773
-0.170593
-0.0844548
-0.0127274
-0.0576626
0.00837552
-0.0781187
0.00581333
-0.0127925
-0.209529
-0.126781
0.0771463
-0.00345679
0.456048
0.583531
-0.161656
0.0351244
0.0661288
-0.0156469
0.476416
0.330124
-0.0958277
-0.000688243
0.0355763
-0.182207
0.04881
-0.0929576
-0.00774493
0.155823
-0.0936646
-0.000584039
-0.000352127
-0.0676985
-0.081425
-0.0886888
0.0346301
0.0699739
-0.145719
-0.000675782
-0.00514875
-0.000881591
-0.104137
-0.000120756
-0.00713829
-0.107909
-0.20248
0.344238
-0.0109159
0.0148047
-0.0724263
-0.0869149
-0.000560335
-0.153611
0.325286
0.451971
5.46317e-05
-0.000484121
0.460139
-0.0092179
-0.198199
-0.134356
0.0118349
0.00157056
-0.226608
-0.0191126
0.470892
-0.186587
-0.00548695
-0.0286826
-0.16523
-0.00222349
-0.000980595
-0.00344813
0.0193976
-0.168716
0.424799
-0.000867935
1.31476
0.0239335
0.000315828
-0.00364809
0.000778385
0.000905264
-8.89155e-05
0.000395933
-0.174698
-0.00275462
0.00143617
-0.000819379
0.408588
-0.0206271
-0.000801588
-0.000245554
0.991623
-0.0736682
-0.0299021
0.00394437
-0.00273694
0.196603
-0.000446931
-0.0403889
-0.174161
0.00760811
-0.0223259
-0.000427317
-0.000855004
-0.10253
-0.149188
0.0254792
-0.167007
-0.104644
-0.000136482
0.0730708
0.109014
0.325571
-0.00637426
-0.000661831
-0.183237
-0.0219734
-0.00195093
-0.162439
-0.000590297
0.140746
-0.000441639
-0.00475868
0.0679058
-0.00759274
-0.191485
1.22092
-0.00601095
0.000889963
-0.170223
-0.150844
0.0328857
0.0166052
-0.000635608
-0.105391
-0.000389708
0.553268
1.5857
0.259864
0.0106519
0.0127054
-0.000107378
-0.0933638
-0.000291006
-0.0226705
-0.00627105
0.00120136
-0.0122075
-0.032589
-0.000528226
0.00295914
-0.026704
-0.00124502
-0.0332699
-0.0568995
-0.00629057
-0.00422689
1.42466
-0.00265257
0.00853574
0.000771772
0.0483101
-0.164143
0.0341454
-0.000741556
-0.000437582
0.00940901
-0.000487073
-0.000183576
-0.0389935
0.00236231
-0.000120131
-0.167394
-0.00800337
-0.185979
-0.00606218
-0.00030643
-0.011343
-0.0160479
-0.0509654
-0.0694676
0.00803598
0.00173795
-0.00180261
-0.00728605
-0.000374968
0.763565
0.00540557
-0.000104178
0.00194389
-0.00739667
-0.00142717
-0.208425
-0.180084
-0.000589575
-0.0250883
1.22406e-05
-0.00921373
-0.000330835
0.11814
-0.000602958
-0.000797789
-0.0122776
-0.000144232
0.047087
-0.000926189
-0.00469668
0.0647854
4.78891e-06
1.01913
-0.17528
-0.137949
-0.000142157
-0.000104282
0.00664859
-0.00441273
-0.162423
-8.89386e-05
-2.98083e-05
0.00250065
-1.44708e-05
0.00124595
0.00148463
-0.00176842
0.00269019
-0.173202
1.26307
-0.101795
0.928094
0.0317872
-0.0557198
-0.000101432
-0.00329142
-0.0429866
0.000419584
0.000916469
0.000527543
0.220185
-0.00491642
-0.000911612
1.27344
-0.00205075
0.00194615
0.00167868
-2.50571e-05
0.113311
-0.00789714
0.00391243
0.000353547
-0.00204809
-0.000305322
-0.00343421
-0.144686
-0.00161394
-0.00566975
-7.4795e-06
0.000101938
-0.00102227
0.54254
-0.00170542
-0.00112553
-0.226844
0.0131983
-0.00041906
-0.00494381
-0.000274997
0.500247
-0.23562
-0.0012155
-0.00150279
-0.00660939
-0.000693584
0.189393
0.348279
0.13795
0.00166157
-3.43128e-05
-6.16769e-06
0.197061
0.00081339
-0.199912
-0.068027
-0.0543338
-0.022497
1.42238
0.00681781
0.570277
-0.0503228
-0.0982076
0.507895
-0.00138506
-0.213995
-7.24764e-05
-0.0318045
-0.163896
0.000142025
-0.148124
-0.00353544
-0.00343918
-0.0185279
-0.143428
-0.14134
-0.0107047
-0.19262
-0.148167
-0.000761215
-0.0422147
-0.00028158
-0.125581
-0.000133023
-0.000757334
0.0795311
0.483669
-2.42126e-06
-0.150539
0.0125165
0.000196126
-0.0697832
-5.42275e-06
-0.0477709
-0.00105367
-0.129471
0.000378531
-0.000390341
-0.00733104
-0.000286671
0.471867
-0.102745
0.25411
-0.00018932
0.00212056
-0.109621
-2.45801e-06
-0.187726
-0.217355
-0.184489
1.32917
-0.022998
-8.90943e-05
0.0894758
-0.138945
-0.00888381
-0.000190334
-0.000379577
-0.157844
0.000367475
0.0030133
-6.66959e-06
0.000469368
-0.0951124
0.341314
-0.130646
0.309997
-0.0189974
-6.73145e-06
0.023529
-0.153241
-9.80508e-05
-7.44691e-05
0.00104318
0.000171197
0.00133092
0.66944
0.119989
0.000146834
7.06658e-06
-0.21901
0.581481
0.5222
-0.000206004
-0.121453
-0.0638509
-0.0345298
-0.160205
-0.0284799
-0.0104065
0.422261
-0.000223797
-0.0894219
0.496556
-0.162086
-0.000137388
-0.204046
-0.000717866
0.835266
0.0990779
-0.000136516
-0.000152889
0.545785
4.34893e-06
-0.000746148
-0.0407765
-6.79727e-06
0.71443
0.0122612
-0.0257372
-0.216263
-0.0133985
-0.205107
0.537076
-0.0282644
-0.0199137
0.0034042
-0.000117664
-0.00374898
-9.78717e-05
-0.000110119
0.0956791
0.531571
0.446905
-0.00167944
0.696178
-0.0352461
-3.41272e-06
-0.153108
-0.000135612
-0.0939073
0.10269
-0.0479287
0.0155588
0.00637071
-0.0325655
0.000748914
-0.00601181
0.0712732
-0.0102986
-0.000256541
6.56229e-05
-0.000276142
0.106522
0.000127144
-0.0712391
0.73477
-0.0211285
0.000130036
-0.0122591
-9.39623e-05
0.261182
-0.00136304
-0.000295225
-0.000363997
-7.9183e-05
0.61017
-0.000647552
0.685681
-0.200054
0.000312703
-0.164994
-0.00185899
0.465667
1.30574
-0.00508377
4.05362e-06
7.30083e-06
-0.000118381
0.422359
3.39749e-07
0.00354485
-0.0822216
0.650832
4.34501e-07
1.08351e-05
5.73384e-06
5.30467e-05
-0.0701404
2.00394e-06
0.771855
-0.0531073
-0.000511003
7.00733e-05
-0.00737263
-0.0986223
2.76941e-06
-0.000252494
0.491767
7.76665e-05
-0.107385
-0.119717
0.000388245
1.14637e-06
-0.214965
2.30887e-06
0.488912
3.26027e-05
-0.00168317
1.20363e-05
-0.000703607
0.290214
-6.72915e-06
-0.00586576
-8.5875e-06
0.0480698
-0.0119922
-0.0223598
0.00338502
0.457508
-0.0010861
-0.000363367
-0.0308793
-0.0298683
-0.000952226
-0.000292194
-0.0032777
8.20644e-05
0.526721
-0.0346496
1.30823
-2.51638e-05
-0.0267136
-0.000680663
0.407533
0.000135688
-0.0877262
5.10272e-05
-0.00567291
-0.111955
-0.000908563
-0.0539929
-0.163381
0.0178489
-9.78836e-05
-0.167796
-0.00126985
-0.00118659
-0.0194151
-0.0382349
0.00439826
-0.00028904
-0.00164687
-0.00327674
-0.00462084
5.08611e-07
-0.00437204
1.26466
0.000268116
-0.0114711
-0.11698
-0.241574
-0.207951
-0.158781
-0.0735864
-0.00198019
-0.0454905
0.000200345
-0.000361669
1.27604
-0.000401491
0.532191
-0.00168477
0.00129
-0.0041045
-0.129582
-0.00158102
0.00248431
-0.000103238
-0.0014896
-0.00013815
-0.000349844
-0.0513025
-0.000477555
-0.000194198
-0.00036086
0.000386767
-9.05631e-05
-0.140292
0.684349
-5.91892e-05
-0.00220877
-2.15331e-05
6.66387e-05
-0.00304434
7.71247e-06
-0.00328889
0.000881398
-0.00138982
-0.211656
-0.00253112
-0.00648007
-1.60279e-06
-0.00541321
0.00107314
-7.38243e-05
-6.43913e-05
2.52586e-05
-0.0028906
0.00179123
-0.146269
-0.0876465
-0.214308
0.00202549
-0.00634525
0.0083706
-0.215964
-0.000398359
0.0553197
0.0239138
-0.00374577
-0.040647
-0.186667
1.17921
-0.00158996
-8.41038e-05
0.00297519
0.000111759
3.32292e-05
0.233221
0.0128113
0.270276
-0.110094
1.13982
-0.0019296
-6.09653e-06
0.000442826
-0.000108539
-0.00486305
0.461018
0.630012
-5.56271e-05
-0.000695168
-0.000121675
0.601366
0.0711112
-0.016862
2.2823e-05
4.03725e-05
0.0250242
-0.00253594
-0.229852
-0.0566401
2.08974e-05
0.0120095
-0.100474
-0.000270396
0.00620792
-0.000324218
-0.151815
-0.00630098
0.440148
3.25818e-05
0.00568036
9.71824e-06
2.20676e-05
0.000510297
-0.0773168
2.42449e-05
-0.00328958
2.84923e-05
-0.0658729
-0.15162
-0.0101587
-0.0217632
-0.0296139
0.0312827
-0.029978
-0.00875823
0.000169473
0.000279024
2.77499e-05
2.5379e-05
-0.000251483
0.031225
-0.179196
0.00162345
-0.123244
-0.0108012
-0.148923
0.000234841
-6.88495e-05
0.00442101
-0.0762044
2.93761e-05
-0.125339
-0.0488426
0.0872892
-0.119907
5.02306e-05
-0.0119345
0.000580313
-0.192337
0.398156
-1.85935e-05
-0.191565
-0.0727612
-0.014635
7.07037e-05
-5.58918e-05
0.10142
-0.0560237
2.66976e-05
-0.0232785
-9.3406e-05
0.000649447
0.372753
-4.96446e-05
-6.03863e-05
-0.000407041
6.51237e-05
0.00301159
0.000241738
-0.0178199
0.000708302
-0.0426441
0.0037172
-0.000844567
-0.099928
-0.13991
-0.0216038
-7.53597e-05
3.41002e-05
-0.173448
0.019796
-0.155857
3.38236e-05
-0.0178296
-0.000165867
3.78364e-05
0.237747
-0.0238985
-0.00973859
-6.77091e-05
-0.0588118
0.000115843
-0.216411
3.98497e-05
-0.243752
-9.89563e-06
-3.85089e-05
0.000229464
0.00342639
-0.133223
-0.0608399
-0.220677
2.74849e-07
0.000247442
-0.249313
-0.0714424
-0.0287767
-4.544e-05
-0.0432578
-0.158148
-0.253561
-4.4979e-05
-5.82474e-05
-7.28358e-05
-0.145185
-0.211567
0.00237301
-0.0372713
-0.000274971
0.657032
0.000258202
-1.15757e-05
0.000441864
-0.000124402
-6.4848e-05
-0.0125363
0.000301701
-0.00886996
-0.201828
-0.0439328
-0.192986
6.5164e-05
-0.000228121
0.17795
-0.120338
-0.0161542
0.339988
-8.78751e-05
-8.85303e-05
-8.06694e-05
0.35746
0.000516648
-0.000123972
-6.80321e-05
-0.178082
-0.0518018
-5.44484e-05
0.000151788
-0.0313831
-0.0217711
0.00135046
0.637372
-0.181108
0.000563985
1.59848
-0.000173139
-0.00252729
-0.0271999
-0.258349
-2.83047e-05
-8.92573e-05
4.2329e-05
0.0164933
-0.0985627
-0.00129271
-0.159783
-0.0263008
2.20488e-05
-2.91371e-05
-0.0343083
0.00339061
0.0165062
-0.0998204
-0.150057
-0.127704
0.0621576
-0.0868406
-0.000284263
0.00111813
0.0535395
0.00177185
-0.000409401
0.00251815
1.50938e-05
-0.000444507
-0.0405277
-6.31661e-05
-0.000169632
0.131784
-0.0151591
-0.000708269
-0.000263107
-5.96908e-05
0.692916
-0.0225305
0.00259606
-0.0910933
0.000711397
0.000597767
0.000510823
-0.000232679
0.00156869
-0.123008
0.0619218
-5.06956e-05
-0.000703525
-0.132538
-0.0988273
0.153941
-0.00180122
0.00619895
0.0600974
-4.70326e-05
0.000131695
-0.139681
4.15503e-05
0.477706
-6.11954e-05
0.0142534
0.000497233
0.000678456
-0.230174
-0.024953
-0.0595933
-0.00839943
5.24233e-05
0.0232302
0.193044
-0.0412979
-0.000559582
0.289464
0.467077
-1.28342e-05
-0.169905
-0.000309333
-8.2152e-05
-0.000204013
-0.00205893
0.0662097
-0.000115919
0.000756143
-0.0810139
-0.0853637
-0.0733414
0.85095
-2.3244e-05
-0.000308376
0.489061
-0.00716179
-0.0130373
-0.00235858
0.481364
6.50238e-05
-0.00123319
5.22275e-05
-6.68298e-06
6.30557e-05
7.26163e-05
0.000194725
-0.0596688
-3.60038e-05
-0.011377
-0.147212
0.684212
-0.000643843
-0.000224979
0.0160224
0.260722
-0.134804
-0.00270363
-0.229101
0.847388
9.53775e-05
1.08325
-3.98909e-05
0.0113328
0.0812109
0.00140765
1.15676
-0.000161314
-4.41417e-05
0.0038914
5.83816e-05
-0.00308573
0.000809047
-2.92534e-05
-0.00686617
-7.00465e-05
-0.000599731
-0.0114137
0.677114
0.170925
0.0735354
-0.145238
-3.66566e-05
-0.000127097
0.0115893
-0.16294
-7.68649e-05
-0.154166
-0.000248549
0.314694
0.194556
-0.106854
-0.00477667
-0.0382265
-0.00350801
-0.0496902
0.0150385
-0.0242069
0.204072
-2.90817e-06
0.716566
0.144386
-0.00214014
0.602025
-0.0451042
-6.28198e-05
2.52413e-06
0.000168587
-0.000821403
-0.000524179
0.683339
-0.0035039
0.69877
-0.00372805
0.477356
0.632296
0.367634
-0.0239781
-6.59696e-05
9.83771e-05
-0.0358247
-0.22185
-0.155666
0.00501035
-2.85288e-05
-0.127006
-0.00122174
-9.81092e-05
0.00337906
-0.00382003
-0.00229786
0.109404
0.000196021
-0.161505
0.189744
0.000141724
0.000824944
-0.0458023
-0.179217
-0.00264381
-0.00190382
-3.75182e-05
0.000753576
0.288122
-0.0556068
-0.153394
0.00437444
0.318673
-0.127998
3.66268e-05
9.24243e-06
0.10153
-0.000439859
0.278397
0.00903474
-0.0457533
-0.00144393
0.00550775
-0.117402
-0.000246559
0.00160109
0.0191169
-0.242585
0.46027
-0.206979
-0.0893541
-0.000709894
-0.000206169
0.0227167
9.03481e-05
-0.247545
-0.212869
0.00185031
0.011662
0.0127789
-0.217392
0.00210767
0.000550593
3.71183e-05
-0.134507
3.90289e-05
0.00183648
0.36435
0.515741
-0.224807
0.156678
0.157291
0.0947734
-0.00069707
0.0428143
0.0003468
1.89066e-05
-0.000388439
-1.28518e-05
-5.11807e-05
-0.00134682
-0.0261077
-0.114181
-0.0332947
-0.0917006
0.172419
0.143428
0.0138406
-0.203623
0.000442016
0.0160508
0.0383411
-0.00146108
0.242086
-0.0042057
-0.0367626
0.0419737
0.0185631
0.00356636
-0.0139276
0.146336
0.00271997
-0.066436
-0.0552688
1.3555
-0.0814897
0.25821
0.112014
-0.116153
0.00740944
0.000237778
-0.00907727
8.73375e-05
-0.00922399
-0.0839851
-0.000314227
-0.000303915
0.792082
-0.0113746
-0.139419
-0.0635643
0.000564511
-0.00475952
-0.000135743
-1.66355e-05
0.132659
7.17261e-05
-0.0102507
0.24595
0.0215418
0.00373747
0.0628519
-0.0198246
0.0143943
-0.202682
0.00287212
-0.0153418
-0.18459
-0.00308916
-0.0277505
0.00249105
0.00457954
0.00327922
0.129712
-0.00123801
0.0192787
-0.180856
-0.0689718
0.000940595
-0.180976
-0.0508637
-0.0584116
0.000229103
0.0225295
-0.204431
-0.00302274
-0.016603
-0.169212
0.00172712
-0.00419159
0.632865
-0.0668048
-0.00018621
0.028034
-0.160015
-0.00376314
0.556973
-0.00725498
0.00337782
0.187456
-0.00508226
0.0282952
0.380101
7.19316e-05
0.00390049
0.000513802
1.08538e-05
-0.0153555
-0.0233186
-0.000603002
-0.0813684
0.307122
-0.126152
-0.212392
0.00388885
-0.0113272
-0.00219925
-0.102371
-2.05911e-05
0.0611929
2.45495e-05
-0.0537847
-0.00687224
-0.0169627
-0.00898342
0.364732
-0.222704
-0.0002507
0.577893
-0.00666756
-0.00814447
-0.19888
-0.230201
-0.0525331
-0.000153919
-0.00386937
0.0246709
-0.0107026
-0.0163577
0.00136941
0.271794
-0.134665
-0.0380001
-0.0228369
0.0904059
-0.00658857
-0.00207837
0.0057037
-0.000211313
-0.010739
0.355053
0.00260621
-0.220797
-0.000342632
-0.0251455
-0.0114688
-0.240205
-0.0390782
-0.263028
-0.000291615
-0.000289438
-0.0112361
0.0361542
0.00623585
-0.274537
0.279801
-0.159269
0.000541805
-0.281686
-0.000115859
-0.283026
-0.0853925
-0.274484
-0.267465
-0.254052
-0.208042
-0.0999929
-0.0455685
0.0126361
0.0871183
0.162064
0.432525
0.52213
0.614321
0.768462
-0.027528
-0.025011
0.217457
-0.0520685
0.00297657
0.0631259
-0.134323
0.0017379
-0.00233804
-1.99594e-05
-0.0476989
0.0598956
8.90258e-05
-0.00120062
-0.0357463
-0.00985108
-0.282985
-0.0376823
-0.184858
-0.000148716
0.00184656
-0.000229325
-0.144758
-0.0295931
-0.119729
-0.0300316
0.00582845
0.000637678
0.0160111
-0.000148605
-0.0149364
-0.000186589
0.0011749
-0.016738
-0.0389242
-0.000956923
0.00101744
0.156199
-0.0348934
0.216529
-0.284464
-0.0228027
0.336431
-0.0632072
0.0125926
-0.0721447
-0.0112105
-0.0422101
-0.0408533
0.927939
-0.00439845
0.000135654
-0.0198015
-0.0298601
-1.72877e-07
0.251071
-0.0135644
0.871726
-0.147878
-0.151421
-0.0895613
0.161273
-0.0156173
-0.000228665
-3.62621e-05
-0.0143854
-0.171339
9.48793e-05
0.965291
-0.00952031
-0.0167161
-0.000425523
-0.00142082
-0.0203338
0.248768
-0.0881991
0.361879
0.00210145
-0.0481636
-3.03545e-05
0.0897917
-0.0255948
0.0650113
-0.0317729
-0.0186215
-0.00268372
0.00437197
0.0398962
-5.83887e-05
-0.0314772
0.00179592
-0.00146866
0.00149767
-0.0488091
0.000660597
0.427376
-0.035869
0.0128898
-0.13786
0.112193
-0.146492
-0.0379432
0.137247
-0.0613901
0.516892
0.00475911
-0.0117164
-0.165504
-0.00252576
-0.000219064
0.00139816
0.000231182
-0.00754849
0.0148509
0.000180027
-0.0448796
0.0729611
-0.0106143
-1.91657e-07
-0.0113514
-0.140889
0.441433
-0.109414
-0.155445
0.0276946
0.256871
-0.00437999
0.149855
-0.0396943
0.0177939
0.119819
-0.191752
0.331076
-0.000239578
-0.096962
0.00382373
-0.00524233
-0.000194043
-0.0205113
0.328562
0.00297624
0.667343
-0.0695823
0.0453965
-0.0531727
0.000355329
-0.00520629
0.205867
-0.196227
0.66016
0.118989
0.0812448
0.496884
-0.138959
-0.0146286
-0.204194
0.00208476
-0.112391
0.455308
-0.00985678
0.856168
-0.00492502
0.283216
0.000247195
0.307164
0.391033
0.00473357
-0.0661997
-0.00136433