/*--------------------------------*- C++ -*----------------------------------*\
  =========                 |
  \\      /  F ield         | OpenFOAM: The Open Source CFD Toolbox
   \\    /   O peration     | Website:  https://openfoam.org
    \\  /    A nd           | Version:  7
     \\/     M anipulation  |
\*---------------------------------------------------------------------------*/
FoamFile
{
    version     2.0;
    format      ascii;
    class       surfaceScalarField;
    location    "37";
    object      phi;
}
// * * * * * * * * * * * * * * * * * * * * * * * * * * * * * * * * * * * * * //

dimensions      [0 3 -1 0 0 0 0];

internalField   nonuniform List<scalar> 
29574
(
588.155
-435.505
-152.65
271.025
43.1887
-314.214
949.496
-1141.64
192.14
-395.174
994.331
-599.157
-631.485
671.213
-39.728
-687.196
55.711
222.533
-46.6896
-175.843
649.79
-506.195
-143.595
204.003
-288.749
84.7465
86.3901
563.4
-94.3223
262.953
-168.63
-294.341
295.349
-1.00787
-230.214
-22.6331
252.847
34.6858
553.469
620.513
-649.578
29.0651
-965.122
569.948
-320.641
360.675
-40.0343
-92.957
-1044.67
1137.63
-261.794
229.099
32.6955
305.551
-34.5254
-309.445
294.369
15.0762
-31.6094
-262.731
-509.738
596.128
265.583
-328.966
63.3822
949.496
-350.663
58.3567
292.306
893.407
-977.19
83.7831
338.49
-144.366
-194.124
-161.005
-113.409
274.414
-118.321
-143.473
-592.296
740.675
-148.379
336.48
-281.664
-54.8159
414.815
-87.3496
-327.466
555.024
-294.825
-260.199
-716.936
780.474
-63.538
-730.878
138.582
170.414
-401.549
231.135
932.367
-932.367
785.231
-343.371
-441.86
281.193
457.138
-738.332
0.994556
807.105
-808.1
-325.57
97.572
227.998
-886.119
733.243
152.876
974.418
-81.0115
-96.2722
-254.391
116.491
72.5471
-189.038
1160.29
-494.814
-665.473
345.173
-247.401
-97.7722
842.878
-30.4362
-812.442
238.711
-226.876
-11.8356
-787.761
70.8254
45.2568
-764.336
719.079
-308.358
-128.772
437.13
763.167
-835.238
72.0705
180.789
-403.322
222.533
14.6951
-208.099
193.404
377.624
-107.561
-270.063
694.688
-751.075
56.387
-63.6044
-291.248
354.852
-88.1328
-232.508
-645.396
401.924
243.472
-50.309
244.414
-194.105
479.439
-481.999
2.56014
-206.237
-382.287
588.524
-697.653
828.106
-130.453
-713.878
106.431
607.448
543.861
-566.534
22.6726
-650.156
-63.7221
-184.766
-358.035
542.801
-106.093
-104.514
210.607
358.637
-556.266
197.629
337.875
-230.545
-107.33
674.855
-54.3422
-268.801
-38.9976
307.799
1062.92
-561.081
-501.835
-88.2452
484.967
-396.721
333.575
-105.03
-228.546
-226.681
15.4199
211.261
947.116
-665.923
591.442
-832.393
240.951
631.918
-525.488
816.723
-193.852
-622.871
309.326
-112.402
-196.924
297.738
-93.735
133.979
-184.288
-633.989
-252.131
235.431
-281.97
46.5391
-32.0355
134.695
-102.659
-689.487
483.249
111.297
-300.152
188.855
-440.903
733.716
-292.813
738.996
148.804
-887.8
904.454
-130.119
-774.335
174.382
-285.281
110.899
204.169
141.004
423.867
55.5717
250.977
-76.5942
-779.408
789.348
-9.94053
-330.57
236.248
1043.2
-934.455
-108.741
274.706
-163.409
404.191
-415.42
11.229
153.972
143.201
-297.173
473.372
-185.01
-288.362
1254.49
-1254.49
476.995
45.1939
-522.189
-6.03548
254.065
-248.03
-492.504
254.448
238.056
265.409
8.93606
-274.345
-300.022
-55.0026
355.025
51.1626
-212.167
178.74
43.7925
393.064
-107.992
-285.072
-269.732
-401.132
670.864
-580.961
492.715
-568.707
-431.363
-424.375
-152.546
576.921
576.658
55.2607
-328.363
6.27239
322.09
-1028.8
240.338
788.458
-170.797
909.793
58.8296
255.014
-313.843
387.842
-641.294
253.451
229.768
-361.892
132.123
132.727
422.297
805.107
-898.064
15.9816
229.42
-245.401
184.932
153.559
243.296
93.1837
109.12
-533.495
-33.2155
-148.056
181.272
23.3381
215.373
862.229
-861.235
289.55
495.681
110.613
-361.34
250.727
273.1
981.386
308.193
-77.0452
-231.148
-276.2
-33.2449
-404.746
34.989
369.757
97.7154
67.4147
-165.13
295.15
-236.32
32.8533
-301.654
184.845
153.03
-298.164
183.452
114.713
-591.962
97.8898
494.072
-135.715
246.328
-313.478
92.6959
220.782
-93.9863
-222.473
316.459
7.82555
318.744
-326.57
-766.189
-211.001
127.259
-221.245
227.483
971.75
-67.2955
-227.17
-55.5848
282.755
150.711
666.013
-290.64
-22.8379
-754.231
120.242
71.4369
194.146
67.7634
-158.409
90.6458
-8.58244
-221.631
-173.971
354.76
-244.115
197.425
-36.19
-416.144
-175.818
-205.878
-686.691
892.569
-142.379
110.344
344.985
59.206
278.061
31.265
443.818
41.1486
-360.612
531.026
362.397
-54.2039
-159.784
-156.213
315.996
21.874
-233.289
211.415
397.096
-442.483
45.3862
98.1147
96.5154
-194.63
44.1514
370.664
-571.699
509.165
62.5337
-537.761
-31.1513
568.913
-441.678
-139.283
4.1543
216.771
-220.925
68.3387
-234.318
165.979
735.579
196.787
341.617
33.345
-374.962
-60.773
215.446
-154.673
267.261
38.29
226.422
-123.411
-103.011
589.162
-230.526
32.3121
1010.88
145.01
206.189
117.476
-323.666
303.413
-287.432
251.814
-403.329
151.515
74.3361
-1008.79
-612.304
427.538
215.745
-147.982
-46.4967
318.092
-271.596
97.4322
244.184
-56.9247
328.896
-271.971
325.399
-58.1385
-6.82182
213.011
265.662
-407.172
141.51
-98.2517
339.87
-241.618
-493.368
143.411
-330.194
186.783
268.012
-373.868
105.856
-310.427
283.784
26.6434
-11.6646
-326.043
337.707
783.244
-737.987
196.196
-181.501
619.659
-634.939
15.28
411.519
132.341
-853.06
511.838
341.222
-38.5385
302.382
-263.843
-84.2177
-149.98
234.198
-295.868
562.557
500.36
513.862
-513.862
-528.391
-500.405
-272.693
-219.811
900.365
-610.815
-4.54006
267.675
-263.135
-153.768
-284.894
438.662
58.857
165.546
-224.403
537.767
-978.67
-348.445
293.443
-12.4154
-392.33
350.89
-362.555
-1068.65
499.945
-485.211
485.211
-640.971
-7.18633
648.157
671.077
-283.235
292.833
140.79
-433.623
-329.645
323.609
-215.695
208.898
6.79745
-565.007
844.395
-279.388
306.743
-71.3118
581.366
-104.371
-409.796
250.012
182.87
68.1067
-660.55
506.781
250.352
-355.381
88.0349
-172.253
284.75
108.661
-393.411
352.613
-122.845
-1007.01
-247.475
621.564
-44.9065
-84.7865
290.012
-205.225
560.427
-484.964
-75.463
-83.0826
785.564
-702.481
-53.2188
896.097
263.68
1.72901
-119.979
178.836
-92.9903
582.394
-489.404
-543.137
199.766
-163.486
9.33413
154.152
-140.825
433.658
-57.5263
236.557
-179.031
-67.9235
-257.647
192.052
-94.3363
-77.4353
193.926
23.5429
-250.237
226.694
36.4079
454.29
-490.698
710.428
49.3832
-759.811
283.992
22.751
-84.4661
-159.649
-144.192
45.7821
245.963
-291.745
32.8569
360.207
200.963
-765.97
301.357
-192.275
-89.6947
122.515
-820.695
698.181
70.5679
-405.08
-161.453
-302.131
217.179
84.9513
-329.7
-315.695
567.794
-999.157
234.593
-48.3335
-186.259
-68.2184
269.826
-201.607
-1038.98
342.294
696.686
-52.269
382.599
-330.33
324.266
53.3582
-231.252
81.4872
149.764
369.283
-111.355
-257.928
397.089
-145.275
-151.931
295.132
260.887
-214.908
136.879
-205.097
-113.656
632.377
-518.721
752.767
-161.325
-110.118
-382.726
492.844
854.073
-731.558
266.648
-220.866
-21.6931
-338.918
-537.013
69.8
90.8097
-160.61
375.574
-92.5109
-283.063
-98.7926
194.545
-95.7527
405.919
-140.258
-124.401
-360.248
484.649
7.68976
843.924
-851.614
-776.666
803.725
-27.0589
-239.336
42.9545
196.382
-753.833
439.117
314.716
44.7084
-163.029
-3.92683
176.969
-173.042
-304.007
272.398
6.19784
-230.734
224.536
249.664
-32.8928
184.322
-562.095
377.774
231.621
-208.078
-40.3024
-186.378
-58.9872
590.013
372.035
-81.5839
-290.451
-733.847
741.537
-458.41
364.933
93.4773
460.653
-351.533
481.216
-856.584
375.368
-298.981
-104.34
-726.576
28.9229
-178.512
-52.7397
-645.238
631.463
13.7752
-183.768
351.278
-167.51
325.538
318.65
261.965
-170.373
-91.5916
271.031
-255.406
-498.825
-199.704
-85.5773
269.651
-214.786
-54.8651
-576.907
18.0782
558.829
175.753
-77.6382
1006.25
-1006.25
433.504
-498.165
-540.814
165.085
194.054
-359.139
-497.192
475.499
-331.997
293
-324.818
427.009
174.117
-601.126
50.9476
712.219
576.224
-149.214
450.654
-603.2
111.454
211.1
-322.554
-209.052
-215.51
424.563
328.895
68.0615
-396.957
-297.326
-544.634
841.96
492.355
-762.087
395.633
24.785
-420.418
-1044.67
417.726
96.1365
301.091
-279.217
299.258
-362.863
-11.0827
121.069
-109.987
18.9492
-261.011
-254.565
11.841
242.724
254.168
15.483
331.424
-392.197
227.12
-93.141
-565.182
-202.334
-97.8178
-392.164
-361.669
-980.347
-186.941
1167.29
-494.078
964.199
-470.12
-131.448
-4.46169
135.91
-668.142
636.71
31.4322
-255.456
389.366
-133.91
247.071
313.356
2.53368
-210.632
873.978
-912.527
38.5486
438.919
-128.031
225.603
-387.076
168.959
218.118
-258.308
74.9869
183.321
-510.031
-66.8758
135.623
-243.184
365.169
-80.4183
-1137.05
931.176
-573.385
480.394
-98.6102
212.05
-113.44
-77.9774
386.937
-308.96
392.09
-368.137
-23.9533
-371.843
47.1365
-210.622
-323.009
706.94
-383.932
-77.3683
-253.202
-89.4118
485.045
4.42987
192.25
-196.68
955.462
204.826
-371.967
-15.1094
174.706
217.384
-372.327
-456.618
828.945
-880.24
385.425
439.2
-950.257
511.057
109.25
-445.784
336.534
-288.028
189.235
-14.2414
468.531
-131.23
-198.964
-429.96
148.296
616.004
5.5605
22.9271
211.666
436.541
-71.1258
-365.416
-114.056
-84.8545
198.911
139.688
244.156
-312.08
9.1145
-108.841
-41.9791
150.82
-383.91
-24.8445
408.754
-26.1632
337.555
-311.392
-102.382
492.796
-390.415
-417.384
394.519
-65.6237
-916.714
833.631
369.517
-324.323
-71.0341
-332.295
-74.7485
-332.423
-655.091
-124.317
-538.627
304.778
233.849
-297.197
66.652
-126.087
123.612
40.8889
201.949
411.745
-613.693
30.242
-296.463
49.0619
28.7417
300.154
151.061
-259.053
-46.6868
-299.026
345.713
-810.597
796.29
14.3071
229.702
-252.036
22.3337
361.717
538.648
279.967
-391.322
-22.4405
306.432
-724.58
694.144
287.181
-211.295
-75.8864
304.469
13.6229
-176.574
-173.107
-310.37
483.477
-213.572
-96.8556
309.169
-401.68
449.413
-573.815
120.218
74.4825
-194.7
205.955
-128.291
-77.6635
278.423
-650.75
165.049
-523.083
245.173
-89.1051
-156.068
47.3934
-813.582
-436.179
318.721
-400.305
-594.922
704.172
-516.814
100.67
368.298
-665.624
112.186
-228.059
115.873
-851.592
898.986
-30.1226
-5.39277
812.498
-216.395
215.688
0.706934
-313.669
195.639
118.029
-242.005
-131.864
-61.7684
429.143
-367.375
563.558
-677.214
51.5993
-231.974
180.375
177.051
-125.452
352.817
79.894
-263.662
176.073
15.9788
-145.895
766.859
107.119
-461.773
173.411
-208.293
176.245
32.0481
190.231
-247.758
-4.36623
190.797
-186.431
-356.427
309.74
-220.432
-17.0367
237.469
-551.394
441.277
212.907
-205.081
-580.762
-64.4769
614.922
4.73626
-326.385
-207.11
172.597
-88.4688
-84.1285
-110.773
-106.113
216.887
177.656
-245.474
67.8184
-44.0688
297.725
-253.656
-224.93
211.284
13.6467
-193.318
-31.6118
359.134
77.4077
1002.82
-729.716
-288.976
-316.921
239.552
191.249
33.0389
-224.288
-991.972
810.113
181.859
-367.266
170.031
197.235
-516.163
-150.638
666.801
-158.908
-806.214
-16.8307
-280.342
-473.795
448.951
-101.624
-212.045
258.484
11.3423
662.212
-104.795
-557.417
347.099
-449.481
-159.198
756.221
-597.023
-238.501
-210.123
448.624
-284.673
268.25
16.4231
5.95138
-72.397
250.053
-118.194
-183.936
-525.118
-13.5086
-16.1476
-90.2678
-744.97
41.5328
-432.199
-216.217
105.444
-287.265
173.855
699.08
253.433
-309.018
163.211
63.2112
-331.622
-11.3564
342.979
-262.03
3.72186
-36.6792
-997.347
778.783
218.564
-16.6126
225.51
-80.6984
269.554
491.896
-524.766
32.8705
-304.52
-153.89
-360.465
395.454
-45.1666
136.687
-91.5206
1007.02
-824.532
-182.489
41.3862
-590.466
549.079
-27.4995
-122.971
150.47
-158.933
-138.264
487.253
-63.3857
-266.621
513.692
-560.341
124.181
436.159
-212.29
270.647
519.597
-396.23
-123.368
294.057
8.39737
-302.454
-286.098
201.311
687.364
-107.178
-580.187
440.603
-238.654
-433.441
389.73
43.7112
274.887
15.1244
-298.92
-32.7021
-179.663
56.2521
198.406
-500.698
68.4013
432.296
-263.855
259.315
-404.094
377.931
-332.493
-67.4848
-417.726
-460.822
399.053
-530.628
1001.79
-471.157
-119.156
73.9891
-175.805
-191.461
488.228
-50.2466
-437.982
-17.6165
-297.873
315.489
-511.019
565.123
-54.1044
448.472
202.17
-99.8903
-102.279
202.02
-246.089
196.23
-200.596
-309.606
94.8203
476.649
-435.263
-11.7944
-272.879
66.9122
-911.596
911.596
118.453
2.23942
420.377
-422.616
-169.398
182.333
-12.935
-514.801
305.749
-427.642
72.6935
354.949
56.5213
116.076
-511.68
413.035
98.6451
-209.086
436.343
50.9093
308.353
42.0394
-350.392
342.205
-87.1907
-432.629
-52.3348
119.075
-361.655
283.677
336.783
-257.476
-79.3069
-25.6541
142.776
-117.122
-980.347
-292.989
-182.374
79.5427
102.832
-347.536
260.187
-428.602
-521.656
241.43
570.143
-811.573
-143.017
-533.012
676.029
-488.152
161.767
-16.6434
192.716
213.625
-17.3948
-657.191
640.463
16.728
88.9806
351.622
298.504
-79.0378
-219.466
-97.2812
-572.584
669.865
-583.019
826.417
-243.399
-592.056
61.3656
-823.408
212.135
611.273
-984.165
431.125
553.04
-290.558
-269.783
-115.255
484.772
-968.567
437.939
-675.583
814.406
-138.822
666.785
-764.067
-212.005
250.471
-227.132
124.294
-799.878
-163.96
-694.522
858.482
686.669
0.695003
501.28
326.826
-94.3318
298.501
-92.8945
88.4328
-152.778
220.781
-603.067
253.905
-226.691
-27.2144
-115.053
344.646
-229.593
-173.104
-123.359
524.337
-32.4407
-290.271
272.654
13.4355
623.275
-703.832
-650.47
-256.709
-243.989
45.4245
217.528
19.5988
498.267
-517.866
-395.281
354.941
40.3404
-141.226
156.645
561.647
440.138
-384.337
-163.078
547.415
176.109
-264.242
-108.97
293.815
-75.3767
-352.265
185.959
-263.004
-231.762
320.742
202.667
-130.12
-450.713
-533.451
-291.278
-11.3577
302.636
-338.512
204.343
134.169
-173.984
178.414
-253.903
-84.6087
225.306
-219.108
248.156
-282.349
34.1932
323.841
-84.6319
-239.209
-805.21
646.302
-309.756
-337.874
82.4182
-333.276
358.061
271.989
-68.1947
516.666
177.161
-11.6149
258.915
564.991
-823.906
-193.468
165.811
40.144
-580.427
407.32
-996.029
309.338
321.958
-816.037
-472.94
-73.0411
545.981
-530.868
453.19
77.6781
279.966
-207.441
38.0424
-661.966
395.345
-42.2142
154.4
-368.05
387.649
130.752
-526.982
-122.18
-36.9158
219.786
-8.07243
276.322
270.907
-81.4628
177.978
781.021
4.54339
296.743
-288.242
-8.50015
-281.918
-79.4226
-82.1235
-35.4892
265.191
719.587
244.612
47.5699
221.984
339.599
-89.2476
-56.1047
316.488
-260.383
-460.08
77.3538
494.486
-230.301
-264.185
286.397
-294.469
-15.7252
-674.803
690.528
221.76
-829.55
457.707
-239.508
77.3389
-367.79
-125.65
-405.932
531.582
-125.195
134.529
251.381
-345.713
335.583
-16.839
-871.612
333.851
91.0841
-374.148
-725.718
-526.285
-465.687
235.81
107.264
-365.192
234.328
-343.298
156.161
89.0125
155.296
-218.911
63.6152
-525.975
165.727
506.114
-923.499
-146.036
57.5676
458.379
26.8319
-574.937
-422.411
17.5845
-598.346
-3.67326
297.73
-95.7925
416.895
-321.103
-108.918
-85.7122
154.914
-235.029
-60.839
-343.103
375.96
-273.037
-47.5107
320.548
-60.1245
264.468
-292.165
-259.338
241.266
18.0716
43.7604
-256.651
333.99
371.952
-67.8357
-327.445
-23.2617
234.545
203.39
-29.2466
-174.143
-78.9179
-466.509
53.7965
412.712
-288.628
-140.112
428.74
188.345
-213.999
342.465
-235.093
56.5814
-192.745
-127.87
320.616
820.08
341.592
-43.4364
-208.016
251.452
-22.4796
-508.388
-291.278
-733.718
343.016
390.702
0.580824
-295.406
-9.12779
252.424
-11.2255
226.913
284.482
-327.295
42.813
-470.478
-141.826
-541.372
174.721
366.651
208.949
28.5197
237.903
348.337
-611.34
263.004
244.044
-406.964
162.919
-354.265
410.103
-664.271
254.168
1001.16
-968.845
-788.28
465.272
-462.107
-107.704
569.812
177.984
118.758
-318.493
578.462
-420.364
-158.098
395.459
-219.349
-840.749
257.73
250.405
244.08
-242.246
83.3138
401.922
-78.3125
178.19
-179.419
1.22895
232.878
11.5356
581.718
-612.87
-500.528
167.159
333.369
72.273
-366.128
-119.673
485.8
93.2282
401.228
-215.269
265.421
59.9784
-453.052
148.532
313.486
102.385
-415.872
118.286
-216.896
-191.767
-229.278
-206.227
-359.021
15.9189
-28.4608
-628.73
-39.3633
232.629
-193.266
-294.871
184.943
109.928
-401.362
-119.325
520.687
-283.807
-64.6385
186.318
17.0712
-353.492
78.1433
182.786
70.9213
-253.707
-265.085
-149.895
414.981
-365.498
-291.779
271.97
19.8089
108.088
-337.051
228.964
162.587
-225.744
63.1579
-34.7554
-125.006
-292.451
417.457
-362.425
231.195
211.632
-440.91
-249.638
107.513
142.125
-467.071
156.701
35.1312
-440.391
405.26
-196.239
-63.099
186.792
436.799
-362.823
-73.9767
-212.508
200.72
11.7879
-261.818
116.813
145.005
-72.5961
-135.697
-333.161
-119.402
929.515
-213.66
-36.5766
275.191
-475.582
321.691
108.273
-307.184
198.91
-413.737
-142.68
556.418
-472.448
-214.748
220.372
-29.1238
286.869
690.454
-706.179
-49.0662
-271.997
321.063
83.8528
-712.283
628.43
207.983
105.047
-313.03
315.375
-121.321
-239.025
222.195
-361.877
-52.4922
414.369
-710.392
39.2107
671.181
-510.267
-150.282
-96.5446
-307.549
522.97
-42.5981
-774.566
-19.8904
794.456
-207.843
574.907
-367.063
-217.538
476.453
142.213
-508.34
332.405
-121.305
125.838
456.556
-425.989
428.228
-324.244
-155.044
479.288
-523.448
50.5078
313.155
51.7781
15.1148
-254.14
271.784
-77.6134
-194.17
-115.12
-118.932
308.168
-90.7716
-270.883
40.0464
230.601
-297.861
-106.006
403.867
-280.941
357.298
-76.3568
-92.3437
282.575
-337.341
-147.259
484.6
-233.269
103.795
129.474
-134.42
-53.3174
54.9787
-652.243
597.264
-181.195
-252.246
-310.666
-251.43
-333.228
-102.951
-209.218
-88.0299
297.248
415.187
639.765
169.879
-226.285
56.4068
172.008
532.165
230.405
41.3784
179.463
-258.717
79.2538
-415.567
-135.827
-524.753
-103.353
374.384
-178.956
316.74
-36.7737
657.903
-151.122
-4.59977
229.905
-239.318
279.622
-40.3035
713.641
-0.212171
286.609
-601.897
492.299
109.597
222.339
76.1654
203.828
-51.9949
223.416
-321.234
69.5723
-323.963
20.3065
-354.68
356.253
-1.5727
83.2214
-185.881
161.354
52.02
-320.223
317.328
2.89527
304.408
-351.918
249.132
-22.4375
-382.379
-114.813
-58.7692
286.768
11.9621
241.943
299.96
7.83891
-394.696
-109.826
504.522
-76.3361
-150.539
-194.091
-37.8835
51.6487
249.708
257.301
-292.791
324.425
-52.0195
-268.097
293.336
-25.2392
-1061.24
714.129
347.109
-423.162
134.533
342.694
2.7937
-345.488
-73.5375
357.215
566.817
-176.462
-44.0461
220.508
-72.723
-231.284
-259.067
-67.9693
327.036
-282.362
-65.4656
347.828
-69.9288
-510.026
-91.8708
-798.044
785.648
12.3964
27.2866
249.602
-276.889
30.7361
326.479
-199.289
487.447
-288.158
-231.115
-85.8055
-490.774
104.431
-213.349
185.605
-238.345
-317.316
-121.814
439.13
-118.89
479.032
-360.142
-380.526
-93.2694
-240.209
-105.504
2.14466
-449.256
-124.129
-198.313
683.268
17.262
647.274
-664.536
-196.93
48.8736
231.955
-817.706
585.751
143.042
-385.046
308.295
-54.2292
82.9394
-1031
-227.994
-115.304
436.787
-3.2828
-533.062
-395.542
-126.647
-657.41
206.591
-401.317
194.726
-7.81942
305.544
-352.691
-92.9491
445.64
-17.5475
-286.309
303.856
830.069
-116.429
-492.314
478.072
-59.1248
-715.441
-92.9422
470.873
-846.838
783.3
294.3
-476.796
401.419
-96.7967
-114.498
161.877
175.617
-337.493
-438.204
-247.379
183.301
18.9516
-202.252
-211.061
917.749
31.7469
-991.982
559.783
-213.472
-109.621
323.094
766.44
38.6663
359.061
-65.6183
370.689
-354.77
-401.639
404.997
-3.35788
332.99
-323.734
-9.25649
363.798
-76.9291
-20.2639
-445.843
-144.622
-226.108
-133.031
-200.255
-122.299
-623.014
834.83
-211.816
-243.035
-10.868
-224.722
-449.236
-462.418
412.171
70.068
-305.097
-89.3559
-124.984
214.34
-42.3694
387.382
-345.012
358.991
-49.2505
218.828
-73.5352
-145.293
98.2916
-221.262
134.251
126.635
319.145
-111.162
-337.981
-91.4702
232.474
573.14
-131.863
26.1608
-773.494
747.333
-276.011
111.945
-193.408
-30.1652
-78.6378
351.036
55.7444
771.63
-699.559
856.502
-110.886
-745.617
375.238
-74.0128
-301.225
104.655
-218.095
-88.5646
506.229
-417.664
-233.893
-54.8567
21.2825
-733.565
465.435
-69.7836
-290.155
283.163
6.99183
-211.848
-37.1408
248.989
200.84
28.3004
-229.141
-37.352
-83.2506
-450.378
-610.86
-427.287
198.251
-0.318627
-193.035
-26.3684
248.128
60.0171
-539.187
479.17
-335.289
223.368
-399.173
148.049
-347.013
684.238
-335.324
67.3565
-267.227
199.871
-147.025
315.984
598.702
-148.048
-201.237
-141.365
227.209
922.952
87.9315
-302.636
226.042
46.0393
725.591
-10.8822
189.072
-322.157
-93.263
408.745
-90.024
-465.069
-521.053
153.617
367.436
-164.096
-547.758
711.854
-571.398
1010.32
-765.987
142.973
-492.385
-273.569
279.621
117.469
-935.03
52.3158
882.714
-359.979
408.127
-98.9581
-12.9375
363.828
336.28
21.0177
231.86
-194.066
-37.7943
-309.703
98.6418
-191.146
-21.3616
243.142
384.743
-104.776
684.427
-135.348
295.314
110.606
581.622
-132.209
524.477
-112.732
258.976
-44.6938
-214.282
450.793
-505.009
-342.939
847.947
543.732
-238.954
-303.721
-554.026
80.9397
473.086
318.408
-78.8558
-711.476
677.317
34.1591
529.163
-80.2124
-27.1121
634.624
-607.512
-387.117
302.485
302.317
87.0488
435.648
140.576
-388.633
220.434
-40.0594
375.715
-16.724
-439.234
-125.756
-44.4227
593.671
319.828
-314.839
-4.98857
-540.024
69.5455
-393.673
-333.833
297.06
56.852
325.747
-301.562
352.705
-50.2201
-145.307
-272.576
-275.423
-14.3979
289.821
-401.47
-112.392
-36.6627
547.299
-38.1341
-3.39268
471.924
588.989
-26.3586
-152.407
-266.413
332.888
-66.4749
-52.3076
219.168
31.8121
-743.288
-325.806
-237.529
366.147
-389.052
-71.7702
476.584
645.517
209.038
-854.555
-154.823
589.868
-124.433
333.757
-244.369
-89.3882
-68.7638
-610.108
-213.3
38.2532
199.017
137.263
-138.698
201.856
-285.893
-313.729
357.193
-43.4645
212.892
325.02
-440.276
735.165
432.122
-318.136
378.504
-60.3687
-267.339
-482.816
-219.383
837.51
18.9921
422.306
-46.5909
-969.232
34.2022
395.796
-64.3721
-745.907
-14.2878
-318.007
633.588
205.562
-85.3441
-89.683
13.6796
292.752
-388.972
-11.3504
400.322
-241.531
-151.88
201.507
-120.978
-475.01
-105.418
503.889
-96.5691
354.809
-5.88538
-326.538
-111.702
-138.167
-518.155
375.137
-113.101
652.569
-631.287
-281.39
385.674
-104.283
-241.101
67.9972
280.557
21.8248
-445.154
-478.344
-404.44
972.884
-466.888
-505.995
591.49
-111.095
-529.287
-132.679
-97.9881
17.6973
534.991
-139.646
25.1992
58.4159
174.213
-230.684
-231.089
51.4398
-106.366
569.472
-141.934
-402.834
-343.671
288.855
261.837
3.35423
449.826
-95.0162
-50.4446
-147.869
-141.69
-304.633
31.7543
83.3476
-277.439
441.93
-652.931
625.573
-116.599
-508.974
758.748
-726.936
441.429
-75.2821
-244.179
-280.612
49.4674
603.743
-127.159
-758.333
784.494
213.496
-0.302411
-213.193
-152.715
222.783
466.68
-67.6268
628.936
-145.686
-279.472
279.26
-108.636
-73.7379
-207.213
272.389
-65.1752
-91.0026
268.987
301.418
-47.9846
-35.6928
249.543
-473.512
-277.563
271.613
-235.809
-35.804
-438.514
427.041
11.4729
-17.3158
-140.024
314.73
296.104
-301.417
5.3133
-253.096
-84.1601
-14.1306
135.2
-318.318
427.859
-42.7919
787.071
-744.279
-507.876
352.674
-27.6531
37.7921
342.79
14.3299
-357.119
7.15535
382.575
233.594
499.649
40.7142
506.531
10.1357
356.34
-47.9866
-71.3484
250.811
272.436
44.0519
-870.7
887.962
-303.53
281.169
22.3615
-545.79
246.162
3.38027
815.524
-606.12
-209.404
258.744
-180.929
-77.8156
433.394
227.142
32.9582
491.379
-196.837
616.645
-419.808
99.9733
-52.0891
848.118
-796.029
-436.816
311.81
475.902
198.954
231.624
2.92159
221.093
-193.999
-489.723
683.722
42.757
206.375
67.2661
-557.774
571.026
-508.492
815.413
-258.356
-557.057
-293.379
-199.989
70.4942
271.174
0.796423
-221.637
-290.043
-362.141
-518.099
2.08943
184.298
-186.387
289.246
261.57
187.433
-792.369
768.528
23.8417
-30.4899
407.281
-458.763
51.482
279.998
81.4582
-0.575961
797.987
-797.411
103.976
228.912
62.3945
78.7019
-290.557
303.022
-12.4659
-922.165
-58.1821
192.887
-135.544
-489.828
625.371
-290.827
860.971
-146.572
-402.311
-137.713
-560.124
98.6769
387.123
21.5215
-252.241
-27.2315
199.84
-141.424
20.3399
861.235
50.3618
-13.9363
300.545
471.786
-356.245
-115.541
-629.765
231.324
398.441
143.571
164.597
365.633
-355.249
275.942
156.514
282.616
229.36
262.958
30.3778
69.6112
-483.415
413.804
839.023
-234.589
-604.434
169.459
223.661
-393.121
369.153
401.714
247.951
3.92024
-626.343
-306.023
274.705
-889.63
367.331
81.8454
-487.778
87.5881
-637.161
-96.4046
243.045
-356.343
401.797
554.846
-568.167
645.011
-76.8441
-9.7222
369.929
410.62
-358.236
-44.3067
174.23
-129.923
-302.985
293.307
-16.9847
677.407
-345.273
-22.3618
375.496
-353.134
92.2944
-175.313
256.285
-80.972
-295.796
240.033
55.7626
267.575
547.838
131.723
-400.585
462.875
-1137.63
1137.05
132.68
-11.2963
442.825
168.212
-56.2668
414.188
355.531
213.613
20.5846
299.159
363.449
-25.6624
-337.787
-649.34
649.096
0.243936
227.849
193.77
-9.47251
501.314
-431.703
-211.031
765.877
312.771
76.3831
276.66
-365.907
-170.52
26.8637
244.75
796.637
-175.15
-621.488
-894.509
968.845
302.801
386.083
256.074
-253.28
554.154
-992.358
475.055
352.698
341.887
-32.5885
476.358
291.002
59.3016
-416.205
356.904
-221.251
336.963
-13.5993
-23.1566
-824.299
694.18
867.791
-201.006
333.067
294.048
124.903
338.833
-19.9443
-318.889
268.829
326.485
301.405
-186.76
86.8699
-271.623
280.828
-9.2053
450.453
-567.273
-244.299
-1.90156
215.515
467.301
-577.127
-274.721
22.4797
479.615
-135.925
-237.545
373.471
-332.111
-188.942
634.352
106.323
426.3
-943.924
517.624
-459.019
417.654
41.3652
-2.74573
251.434
-248.689
362.338
-270.043
259.487
-236.653
-22.8336
330.172
47.6227
-222.936
-851.592
80.053
369.346
-449.399
-33.47
725.259
-691.789
322.072
-295.083
-26.9892
-445.638
484.314
330.005
-274.261
-399.981
978.654
-578.673
271.749
-13.7208
197.022
539.851
460.149
-186.124
205.372
13.3245
-218.697
-27.5791
397.336
-593.54
33.6001
559.94
200.104
263.542
-369.046
-42.1788
-396.335
-917.749
865.66
-494.005
1033.86
335.87
-62.6082
237.451
-1.67543
-235.776
488.401
-434.604
56.9756
-709.219
-459.127
0.108718
-255.2
317.352
-469.442
-499.125
298.18
-18.8265
-279.353
-959.746
431.355
-798.044
155.466
31.7706
-187.237
28.7659
599.664
647.647
-633.872
-271.455
836.445
-73.7162
226.746
385.4
-560.325
174.925
-139.441
358.074
-218.633
-704.338
750.377
-384.794
222.411
-222.997
231.995
-8.99712
-275.958
702.258
313.17
651.428
27.6107
-785.944
-231.291
247.723
-363.026
-31.2179
-228.882
240.723
-898.986
982.769
175.318
39.0418
-214.359
261.114
-326.359
-65.8376
-1.70223
393.394
210.776
-604.171
502.762
-902.743
534.081
-57.4325
-221.025
-1.7491
222.774
-113.991
-190.642
-311.824
72.6149
-167.152
-134.502
302.128
291.429
-264.565
-118.636
-314.963
433.599
279.371
288.079
-17.5482
-292.682
310.23
-690.667
15.8635
862.229
-922.165
1001.16
-1007.01
981.386
1024.44
-1024.44
-894.509
-1031
278.443
-256.922
-243.408
-258.255
-185.591
-0.840123
753.057
-963.901
210.844
-887.962
9.08742
-279.151
189.711
-34.2446
-763.528
791.139
227.345
-6.80127
-220.544
-285.045
267.497
-11.8973
-249.525
261.422
248.551
-14.2585
-234.292
201.072
-228.286
-23.6775
-253.262
276.939
-187.537
200.258
-12.7206
249.517
280.631
-346.72
406.021
102.771
-179.609
76.8379
-397.461
-611.33
-193.817
207.076
-13.2584
-419.537
-84.1167
503.654
193.098
-174.147
38.8683
201.258
-25.9408
-359.454
280.031
522.952
-121.155
208.651
464.072
-56.7902
314.605
-406.558
91.9534
18.2689
-637.746
666.512
263.559
-460.396
-783.646
730.263
53.3834
480.77
497.883
70.7833
452.169
-280.516
272.697
-73.0658
-710.58
238.365
-347.986
739.936
-951.752
346.925
-773.842
426.916
124.492
264.245
-206.037
-58.2084
-57.3439
-386.597
-868.576
592.618
-1.18254
254.093
3.74855
-308.626
304.878
14.8228
-54.9249
235.004
281.903
-37.1531
185.572
-58.3404
-127.231
738.866
19.882
272.603
300.089
6.44061
176.811
-229.607
52.7951
239.038
-299.143
295.47
-340.365
-202.839
217.086
-14.2469
74.626
-494.163
243.345
184.514
-81.9983
835.056
-609.374
451.276
579.136
-687.877
221.796
-343.101
308.93
-448.371
188.562
-321.593
217.852
-189.551
-339.339
218.018
-188.685
-6.9
195.585
219.331
-341.63
368.448
-266.327
-102.121
-7.85454
487.024
-442.453
-560.387
1002.84
-769.835
662.658
-50.6245
-320.537
371.161
21.3819
62.1036
-294.168
285.04
-266.489
-8.23137
196.514
70.0095
-266.524
-184.631
-216.686
-297.669
223.451
-208.97
-14.4803
-308.626
-410.14
410.14
184.941
-657.389
169.216
185.544
304.878
727.322
-235.022
-41.9902
-645.467
687.457
527.42
-91.2605
234.705
-363.934
314.868
401.09
242.229
4.23703
232.315
-172.268
-60.047
-28.9015
-686.833
686.833
-177.287
-386.296
-93.2019
-120.147
206.826
20.294
-143.169
211.275
-422.575
478.147
-145.082
-201.931
747.765
-505.343
-242.422
-111.819
-106.276
562.026
-184.252
-119.179
-47.2069
-489.92
537.127
-500.709
-287.053
512.731
-21.3521
-14.4076
-753.938
559.938
-457.776
-65.672
767.931
19.1396
230.319
-112.91
773.638
-660.728
108.226
884.692
683.155
856.565
144.86
-218.395
-385.502
-73.6256
-232.25
249.987
-233.401
49.2115
-167.462
-898.181
41.504
856.677
10.4994
391.424
814.648
-260.236
245.553
14.6831
1066.45
-542.404
-524.046
-168.594
1.65713
476.415
202.605
-36.7937
261.822
285.593
420.368
-772.041
956.296
-184.255
-349.639
5.96841
230.771
16.861
666.407
-89.7941
-213.736
-161.383
-243.057
215.008
92.3345
634.987
689.736
-731.726
91.0602
-795.398
22.5746
654.742
752.278
-849.601
97.3227
-627.528
535.548
91.9801
627.254
-563.543
-63.7109
-446.225
520.851
61.3655
-75.6417
-121.633
197.275
122.556
305.715
-603.777
453.494
189.126
-189.126
-198.323
218.348
-879.195
436.742
-676.277
540.733
-554.026
870.7
-952.699
23.4416
-237.563
203.471
-161.918
-223.128
-247.07
19.3562
356.603
34.4196
340.818
-350.202
-365.948
42.2141
441.868
-680.822
-55.3174
-726.735
782.053
225.434
-262.575
55.0887
101.329
-226.313
-623.536
654.968
-196.682
-41.6632
8.16035
555.129
151.812
-306.84
-26.9932
-455.123
957.885
864.396
-864.396
332.497
42.999
8.51796
463.406
-761.441
17.1616
651.968
14.5438
80.3589
417.478
-497.837
213.765
301.609
-3.87892
8.92707
673.742
16.7865
-869.913
656.613
195.349
303.306
-498.655
-826.225
567.868
210.285
-413.523
17.9142
-649.201
-184.954
-60.935
245.889
-77.9875
192.765
-114.777
15.1475
44.2019
355.319
40.1355
-199.567
17.4135
-298.726
522.17
660.562
64.6969
12.3736
145.5
-78.0029
-198.886
195.632
394.273
-499.597
-707.822
-64.2186
-195.732
-466.849
-477.076
-274.101
-360.838
624.524
-514.927
6.64821
798.78
-805.428
318.338
50.1093
391.588
-59.0915
623.285
-58.4612
-564.823
313.771
-20.7717
-573.311
-107.41
680.721
-27.2826
-260.149
-609.71
458.588
-171.981
-74.3963
246.377
242.85
611.327
66.352
-241.555
-79.6793
24.1113
202.397
-546.044
638.378
193.525
3.49636
-199.523
395.141
-195.618