/*--------------------------------*- C++ -*----------------------------------*\
  =========                 |
  \\      /  F ield         | OpenFOAM: The Open Source CFD Toolbox
   \\    /   O peration     | Website:  https://openfoam.org
    \\  /    A nd           | Version:  7
     \\/     M anipulation  |
\*---------------------------------------------------------------------------*/
FoamFile
{
    version     2.0;
    format      ascii;
    class       volVectorField;
    location    "37";
    object      U;
}
// * * * * * * * * * * * * * * * * * * * * * * * * * * * * * * * * * * * * * //

dimensions      [0 1 -1 0 0 0 0];

internalField   nonuniform List<vector> 
19930
(
(0.997596 -0.000233809 3.40345e-23)
(0.990175 -0.000757844 -4.06083e-22)
(1.03471 -0.00481776 4.60974e-23)
(1.0003 -6.53564e-05 -2.70007e-24)
(1.0006 -0.0114336 7.09007e-23)
(1.00013 -0.0121437 -6.97082e-23)
(1.03962 -0.218109 -8.75923e-22)
(1.23045 0.0917049 -9.90226e-21)
(1.00362 -0.107942 -2.09963e-21)
(1.23964 0.0868137 7.14799e-21)
(1.0554 -0.198326 -2.70146e-21)
(1.35779 0.00584266 1.47773e-22)
(0.979372 -0.0681794 -2.68423e-22)
(0.997399 -0.000280232 -2.81967e-23)
(0.994689 -0.00389878 -1.72213e-23)
(1.00029 -7.93335e-05 -2.46493e-24)
(1.3257 -0.126068 -2.54386e-21)
(1.19162 -0.00143798 -4.97367e-21)
(0.998037 -0.162292 -1.32488e-21)
(0.992444 -0.000359397 3.57387e-22)
(1.01849 -0.125378 2.91766e-21)
(1.35975 0.0108998 1.95871e-22)
(1.25028 0.0934576 -5.03333e-21)
(1.14892 -0.255038 -2.134e-21)
(1.03224 -0.00225667 1.67648e-24)
(0.997148 0.21521 -2.67344e-20)
(1.01164 -0.00346052 5.65144e-23)
(0.990106 -0.0742723 9.50758e-22)
(1.20356 -0.248143 -1.96476e-21)
(1.00118 -0.164336 4.81288e-21)
(0.998344 -0.0026224 4.79602e-27)
(0.87822 0.033752 4.61648e-20)
(1.34466 0.0951791 2.07113e-21)
(0.988558 -0.0425315 1.01207e-22)
(1.00001 -0.00200014 6.7523e-24)
(0.998407 -0.0028435 6.24652e-25)
(1.24049 0.130107 -1.09032e-20)
(0.999943 -4.3492e-06 -5.00264e-24)
(1.01892 -0.0256869 1.46284e-22)
(1.20073 -0.0124767 -1.41288e-21)
(1.05513 -0.0113073 2.85652e-23)
(1.34341 0.190235 4.47935e-21)
(1.08012 0.0941701 -6.95021e-21)
(1.01034 -0.00400122 -4.71003e-23)
(0.995119 0.205782 1.08801e-20)
(0.978108 -0.00161608 -2.23524e-22)
(1.18074 0.0119654 -1.73887e-20)
(1.34527 -0.0599486 2.51059e-21)
(0.999588 -0.000111575 -5.08831e-24)
(0.963905 -0.058875 8.24675e-23)
(0.99988 -0.00212651 -1.64139e-23)
(1.10602 -0.0135443 7.97658e-23)
(1.2249 -0.181476 7.32197e-21)
(1.0003 -0.00482469 -2.63001e-23)
(1.26142 -0.193408 -1.73176e-21)
(0.940469 -0.0204712 2.37332e-23)
(0.971386 -0.0387986 2.97314e-23)
(0.998152 -0.00343776 -1.29138e-24)
(1.01119 -0.0631147 -1.4452e-21)
(1.32564 -0.120665 1.97853e-21)
(0.940981 0.0706992 2.40918e-20)
(0.967563 -0.0046506 -2.30204e-22)
(0.987495 -0.00360378 6.23454e-23)
(1.25682 0.0707317 -3.88589e-22)
(0.999437 -8.11224e-05 3.2836e-23)
(0.99407 -0.0099909 3.56574e-24)
(0.994084 0.144065 7.14116e-22)
(0.993373 -0.0104122 1.65855e-23)
(1.15669 -0.11956 -2.9745e-21)
(1.01431 0.216168 9.95852e-21)
(1.05287 -0.0583963 -9.56636e-22)
(1.31799 -0.152983 -3.7347e-21)
(0.995168 -0.0039299 -1.11713e-24)
(0.977809 -0.0493702 6.84679e-22)
(0.999586 0.0173492 -1.02658e-20)
(1.09504 -0.121034 1.93483e-21)
(1.01201 0.200437 4.53605e-21)
(0.958302 -0.00556584 -2.905e-23)
(1.19663 -0.0114618 9.27767e-22)
(1.00715 0.0691628 1.4352e-20)
(0.995186 -0.0104589 7.79047e-23)
(1.00267 -0.00576848 -3.54373e-23)
(1.18424 -0.247925 1.56798e-21)
(1.00507 -0.104616 1.75215e-21)
(0.971241 -0.00368205 2.54881e-22)
(1.07424 0.089619 3.33693e-20)
(0.983202 -0.0636723 -4.80776e-22)
(0.755135 0.125619 4.4863e-21)
(1.24677 0.0684732 -4.03728e-21)
(0.957471 0.223297 1.77066e-20)
(1.20443 0.0241038 -5.99787e-21)
(1.00038 -9.56963e-05 2.78334e-24)
(1.00003 -0.000395571 8.14483e-24)
(0.901381 0.0103315 -1.31421e-20)
(1.34474 -0.0665811 -1.23516e-21)
(0.98784 -0.00382226 5.38921e-23)
(0.920942 0.00664182 2.01201e-20)
(0.999138 -0.00572378 1.65237e-23)
(1.06125 -0.192378 -1.23144e-21)
(1.14279 0.024994 -7.99029e-21)
(0.949014 0.231067 -5.26092e-20)
(0.970544 -0.0119809 -3.89658e-24)
(0.922024 0.211034 -5.85352e-20)
(1.2133 -0.166313 8.63094e-21)
(1.14849 -0.00584941 -1.57275e-21)
(1.12994 -0.122348 2.60371e-21)
(1.0877 0.227858 1.69288e-20)
(1.20416 -0.14217 3.21191e-21)
(0.99006 -0.000431468 6.04519e-22)
(1.14509 0.246228 3.41384e-21)
(1.21047 -0.252559 -6.77259e-21)
(1.03339 -0.217098 -1.94322e-21)
(0.970813 -0.02997 1.67555e-22)
(1.04452 -0.0299701 4.35876e-22)
(1.09863 -0.112671 8.35936e-22)
(1.00007 -0.000147741 -2.49546e-24)
(1.13042 0.144141 1.521e-20)
(0.995922 -0.00979899 -3.19828e-23)
(1.20218 -0.177974 1.68067e-21)
(1.00564 0.0493053 -3.35511e-20)
(1.00037 -7.21498e-05 5.29449e-25)
(1.03377 -0.131565 2.06046e-21)
(1.23587 -0.00863247 -1.68352e-21)
(1.0119 -0.072294 -2.00109e-21)
(0.988486 -0.0402733 -6.18912e-23)
(1.19371 -0.00160135 2.42624e-21)
(1.3669 0.0526737 -2.16714e-22)
(0.989872 -0.0714419 7.56335e-22)
(0.86264 0.0403089 -1.36156e-20)
(1.12304 0.151869 8.22248e-21)
(0.984461 -0.0823093 -7.68212e-22)
(0.963529 -0.0564925 -3.01557e-22)
(1.05537 -0.00584562 -6.65086e-23)
(1.01781 -0.0236331 -1.44385e-22)
(1.0693 0.215639 -2.36686e-20)
(1.14202 -0.00982948 -2.38014e-22)
(1.34711 -0.0367381 1.84235e-21)
(1.02256 -0.126394 -1.20844e-21)
(0.976099 -0.0124271 1.10158e-23)
(0.985714 -0.109607 3.52047e-21)
(1.02844 -0.135243 3.27766e-22)
(0.975705 -0.0509912 -6.81704e-22)
(1.31474 -0.162641 -3.24657e-21)
(0.913515 0.233906 -1.86424e-20)
(1.28281 -0.0796082 -9.4761e-22)
(1.06882 0.223862 2.15466e-20)
(1.37276 0.104924 -4.26299e-22)
(0.963235 -0.0124724 8.62695e-23)
(1.36197 0.0373748 -4.19787e-22)
(1.01318 -0.00463231 -1.21787e-22)
(0.963544 -0.0112932 -1.89748e-22)
(1.01742 0.21083 1.06289e-21)
(1.00005 -0.000345924 -5.2442e-24)
(1.00331 -0.0966789 6.57164e-22)
(1.00261 -0.00518619 6.33714e-23)
(1.37285 0.114365 1.55298e-21)
(1.06572 0.0951429 -3.47345e-21)
(1.14403 -0.25028 9.58742e-21)
(0.934523 -0.0241192 1.588e-23)
(0.978169 -0.0698094 5.58401e-22)
(1.2635 -0.203535 2.45467e-21)
(1.04546 -0.211431 1.3653e-21)
(0.998102 -0.00316078 -6.09171e-25)
(1.28369 -0.0723501 1.16204e-21)
(1.18022 -0.0100952 -3.28759e-22)
(0.759574 0.131841 1.07841e-20)
(0.971769 -0.0122398 -5.0195e-23)
(1.17577 -0.254817 6.18049e-22)
(1.08891 -0.122896 -2.21817e-21)
(1.23633 0.1236 -6.72663e-21)
(1.34725 -0.0404677 -5.26292e-22)
(0.97716 0.162248 1.07783e-20)
(1.22269 0.264577 1.97689e-20)
(0.985151 -0.0367381 1.2997e-23)
(0.822694 0.0319288 -1.62133e-20)
(1.34828 0.0882877 2.03022e-21)
(0.996586 -0.000650445 -3.74309e-23)
(0.982206 0.0135763 -2.78711e-20)
(1.10719 -0.111577 -8.86033e-23)
(1.13174 0.264707 7.05976e-21)
(1.0612 0.242282 -1.09676e-20)
(0.99991 -2.68327e-06 6.15221e-24)
(0.905908 0.156598 7.12529e-22)
(1.19506 0.227952 1.85581e-20)
(0.991815 -0.000610863 -2.20125e-23)
(0.936942 -0.0165374 -1.24413e-22)
(1.05245 -0.0545456 6.9476e-22)
(1.15216 0.0182692 -2.09292e-21)
(1.20519 -0.170524 -2.86462e-21)
(0.831982 0.113859 1.38933e-20)
(1.36414 0.0535378 -4.40359e-22)
(1.29999 -0.127102 -1.91122e-21)
(1.13472 0.0195936 1.57739e-20)
(1.15729 -0.111013 -1.52719e-21)
(0.934528 -0.0254291 8.33057e-23)
(1.34922 -0.00618939 7.29375e-22)
(0.90823 0.165814 -8.61566e-22)
(1.33034 -0.0845133 4.83063e-21)
(0.993781 -0.000233302 -1.24977e-23)
(0.822976 0.111972 -1.36662e-20)
(1.33177 -0.0471819 3.21077e-21)
(1.28131 -0.172821 2.6665e-21)
(1.22598 -0.173261 -7.02581e-21)
(0.84632 0.133471 -1.66213e-20)
(0.887141 0.142582 3.80685e-20)
(0.954547 -0.0300152 -8.63549e-23)
(0.998823 -0.0528041 -1.00054e-22)
(1.10615 -0.0079915 -5.82195e-24)
(0.939797 -0.0223372 -4.21281e-23)
(0.998835 -0.000108671 6.10072e-23)
(0.998272 0.147526 -5.00483e-21)
(0.975556 0.0487164 -1.00086e-20)
(0.960991 -0.0162444 3.15915e-24)
(0.942535 -0.0418631 1.69699e-22)
(1.13283 0.254141 1.03889e-20)
(0.998503 0.0323194 1.56219e-20)
(0.998893 -5.43634e-05 -1.76584e-22)
(1.00317 0.0366234 -2.28817e-20)
(1.21054 -0.137665 1.50147e-21)
(1.01926 -0.0208238 3.84995e-22)
(1.00363 -0.0775816 1.08918e-22)
(1.08737 0.149197 -1.77822e-21)
(0.887761 0.264011 1.76165e-20)
(1.1992 0.0227661 7.93279e-21)
(1.14336 0.232996 -1.67946e-20)
(0.974778 -0.012302 -2.40136e-23)
(1.00167 -0.052235 -5.0379e-22)
(1.00011 -0.000154691 1.34511e-25)
(0.999248 -3.79014e-05 4.92013e-23)
(1.00045 -0.00952996 1.37352e-22)
(1.23062 -0.00992922 6.8538e-22)
(1.16256 -0.173563 -1.5969e-21)
(1.09008 0.219109 -2.1525e-20)
(0.995797 -0.129173 9.13292e-22)
(1.05034 0.0787675 1.32437e-20)
(0.985159 -0.0614436 -8.29325e-23)
(1.12247 -0.116456 -1.89263e-21)
(0.982818 0.158358 1.90657e-20)
(0.907192 0.00819283 6.84771e-20)
(1.08721 0.140338 3.01393e-20)
(1.01731 0.192905 -2.80791e-20)
(0.940675 -0.0408015 -1.42093e-22)
(1.31374 0.182139 -3.52169e-21)
(1.01332 -0.0700822 2.19408e-21)
(1.1555 -0.00961381 3.58068e-21)
(0.995738 -0.00879184 -4.78468e-23)
(1.29455 -0.192194 -7.25397e-21)
(1.22678 -0.110083 -3.11725e-21)
(1.11618 -0.0402466 1.81122e-23)
(0.999631 -8.54478e-05 6.14965e-24)
(0.988264 -0.000598363 -6.79818e-22)
(0.876032 0.270469 -2.71565e-20)
(1.28465 -0.00330103 6.2903e-21)
(1.01809 -0.0276083 -3.41767e-22)
(0.959626 -0.0638329 -6.70323e-22)
(1.15655 -0.167175 6.33232e-22)
(1.08347 -0.233081 3.67731e-21)
(1.33631 0.200544 -6.62675e-22)
(0.987349 -0.108418 -1.01485e-21)
(0.973899 -0.00201391 3.58874e-22)
(0.992714 -0.0847565 1.15639e-21)
(0.989779 -0.0355958 -9.31659e-23)
(0.999411 -5.96008e-05 -2.45323e-24)
(0.984032 -0.0584955 4.36928e-22)
(1.0503 -0.21174 -6.00071e-22)
(0.910833 0.223347 3.49824e-20)
(1.33858 -0.0891849 -2.88663e-21)
(0.973044 -0.0286282 -2.63776e-22)
(1.04533 0.083139 -2.0521e-20)
(0.891181 0.154452 -4.59522e-21)
(0.983946 -0.0663103 8.35708e-23)
(1.00076 -0.000335209 -1.86817e-23)
(1.00206 -0.100461 -1.17462e-21)
(0.99431 0.135346 5.85314e-21)
(1.26841 -0.223622 -3.87801e-21)
(0.946524 0.0649737 -3.60855e-20)
(1.00003 -0.000164459 1.13871e-24)
(0.944381 -0.0465253 3.80007e-22)
(1.19132 0.282775 1.61568e-21)
(0.998978 0.0298924 3.12369e-20)
(1.03702 -0.0987441 -4.25613e-22)
(0.973263 -0.0370529 2.26428e-22)
(0.837034 0.239027 2.98524e-20)
(1.28108 -0.155543 8.11246e-22)
(1.2926 -0.127711 1.61002e-21)
(0.933349 0.21387 2.39392e-20)
(0.834538 0.13091 -2.85327e-21)
(0.982122 -0.0685138 -2.87592e-22)
(1.19119 0.291595 -1.14745e-20)
(1.21933 -0.0437657 -9.16769e-22)
(1.0104 0.0728394 -3.91657e-20)
(1.16812 0.145866 8.46996e-21)
(1.00079 -0.000245333 2.40907e-23)
(1.34109 -0.09064 2.84037e-21)
(1.22127 0.12502 4.17109e-21)
(0.996557 -0.000552843 -1.09773e-22)
(0.993578 -0.136097 -3.83418e-22)
(1.32527 -0.0735322 1.27455e-21)
(1.16262 -0.244717 -1.75527e-21)
(1.32676 -0.0495505 -1.63349e-21)
(1.24218 -0.0905804 1.36841e-21)
(1.00011 -0.000237514 -2.12852e-24)
(0.999323 -0.00400496 4.21138e-23)
(0.965377 0.257843 -4.09321e-20)
(1.00111 -0.0173789 -2.53312e-23)
(1.00666 -0.163415 -1.18859e-21)
(0.985179 -0.0889921 1.06518e-22)
(1.3605 0.0131704 4.60594e-22)
(0.970038 -0.0044589 4.67198e-23)
(1.13801 0.271629 1.19433e-20)
(1.28617 -0.0542952 -1.23357e-21)
(0.989531 -0.0852631 6.5136e-22)
(0.955198 -0.00678451 9.18076e-23)
(1.24022 0.112311 6.99321e-22)
(1.34413 0.00385077 -1.63063e-22)
(1.00006 -0.000242405 -1.76236e-24)
(0.946332 0.15276 3.51466e-20)
(1.12499 0.160916 3.92136e-21)
(0.985947 0.0294577 -8.68132e-21)
(1.26672 -0.184428 -2.52268e-21)
(0.999496 -5.66024e-05 -2.60652e-23)
(0.841142 0.228354 -1.99652e-21)
(0.996087 -0.00596854 -1.22425e-23)
(0.989253 -0.0651681 1.97121e-22)
(1.34503 -0.0041696 5.62461e-23)
(1.32536 -0.0817334 -5.64501e-22)
(0.973826 -0.0683781 -5.78307e-22)
(1.27679 -0.164893 3.9845e-21)
(1.05953 0.0913423 5.34702e-21)
(0.905009 0.0100537 2.46596e-20)
(1.0473 0.218386 -2.88717e-20)
(1.26611 -0.0294755 -1.48389e-21)
(0.798775 0.0430714 3.5072e-21)
(1.00032 -1.23426e-05 -1.7519e-24)
(0.987066 -0.0348523 -8.83786e-23)
(0.999825 0.016339 4.12984e-20)
(1.2177 -0.221632 7.92825e-22)
(1.21511 0.119155 -1.01913e-20)
(0.980483 -0.0501235 -2.94022e-22)
(1.00132 0.199041 2.85169e-20)
(1.26057 -0.0617031 -3.83203e-22)
(1.00002 -0.00439699 3.36482e-23)
(1.2526 -0.0632894 3.45567e-22)
(1.12684 0.133211 -1.959e-20)
(1.17801 -0.224252 -5.34574e-23)
(0.944658 0.0150794 -6.59896e-21)
(1.21515 0.230575 2.53887e-21)
(0.999231 -0.000331793 1.67094e-24)
(1.04726 -0.0271798 5.23718e-22)
(1.30885 0.0902398 3.03593e-21)
(1.19189 -3.95305e-05 9.81827e-21)
(0.998339 -8.41874e-05 1.85581e-22)
(1.21887 0.254892 -1.77827e-20)
(1.01427 -0.0622586 -1.91184e-22)
(0.7355 0.125807 -1.58209e-21)
(1.02354 -0.132944 -2.4574e-21)
(0.961019 -0.0145699 -2.80559e-23)
(0.988921 -0.00070947 5.32826e-22)
(1.05248 0.226779 3.18133e-20)
(1.18968 0.220536 -2.91427e-20)
(0.974957 -0.00280305 -1.41876e-22)
(1.2295 0.103774 2.44304e-21)
(0.955336 0.211418 -1.0153e-20)
(1.00117 -0.0186603 -4.82655e-23)
(1.09566 0.0123346 4.96527e-21)
(1.04994 0.0385759 -1.48033e-20)
(0.766685 0.0668189 2.31834e-20)
(0.996629 -0.00497258 2.03133e-24)
(1.34126 0.0305759 -1.45312e-21)
(1.21875 -0.113478 1.16922e-21)
(0.939348 -0.019916 -1.20445e-23)
(0.999662 -5.94459e-05 -5.53984e-24)
(0.999636 0.00912634 2.54659e-20)
(1.34951 0.190908 2.40977e-21)
(1.31605 -0.100864 1.23814e-20)
(0.991171 0.254018 -1.02259e-20)
(1.26432 -0.0219099 5.84835e-22)
(0.969178 -0.0381618 1.68669e-22)
(1.31193 0.169129 -2.7187e-21)
(1.17959 -0.00573718 -1.17877e-21)
(1.27538 -0.000697244 2.42479e-21)
(0.773021 0.0730984 -6.05272e-20)
(1.02743 -0.116828 9.27927e-22)
(1.34172 -0.0173563 -2.83559e-22)
(0.982359 0.0408612 -2.26094e-20)
(0.957826 -0.0648509 5.96361e-22)
(1.20427 -0.0537735 1.28638e-22)
(1.06989 -0.193376 2.90522e-21)
(1.30494 0.0824108 -1.38444e-21)
(0.994943 -0.000182222 8.23586e-22)
(1.1858 0.0119115 -1.73488e-21)
(1.31977 -0.095369 -5.05731e-21)
(1.33948 -0.0227691 -1.33542e-21)
(1.00138 -0.00567029 1.26447e-22)
(1.17695 0.0089852 1.85542e-20)
(0.995405 0.0208535 -2.1524e-20)
(1.11809 0.0910411 3.5301e-20)
(1.16436 -0.239736 -7.00124e-21)
(0.991467 -0.033598 2.08754e-22)
(0.856518 0.122122 -1.92327e-20)
(0.878002 0.0392533 -4.95912e-20)
(0.996408 -0.00823488 -8.62286e-24)
(0.946618 -0.045522 1.56481e-22)
(1.053 0.158605 4.2584e-21)
(1.01187 -0.171682 -9.7622e-22)
(1.11378 -0.119171 1.67812e-21)
(1.32689 0.197521 1.03088e-20)
(0.99071 -0.000463786 -6.64082e-22)
(0.762122 0.0590081 4.02109e-20)
(1.03989 -0.0884984 -1.33629e-22)
(1.34469 0.0486691 9.42447e-22)
(0.98792 -0.0116178 -4.03995e-24)
(0.992475 0.0213728 -9.22962e-21)
(1.21979 0.218756 -4.96608e-21)
(1.11732 -0.0317841 -3.30998e-22)
(1.12967 -0.130417 -9.5582e-22)
(1.30345 -0.121848 3.40271e-21)
(1.33331 -0.0421617 -3.95793e-22)
(0.999319 -0.00623232 2.03336e-24)
(1.03968 0.131231 -7.85548e-21)
(1.32323 -0.150252 8.00767e-21)
(1.23946 0.0747613 1.00416e-20)
(0.737817 0.133745 6.06012e-20)
(1.27682 -0.183065 2.0674e-21)
(1.0861 -0.106101 -2.73521e-21)
(1.00002 -0.0103572 -1.37944e-22)
(1.3467 -0.0565489 -4.62011e-21)
(1.33067 -0.0921627 -3.15585e-21)
(0.969025 -0.029082 4.00738e-22)
(1.2824 0.213127 -1.70175e-21)
(0.999999 -0.00161828 -2.62463e-23)
(0.965832 -0.052044 -1.05882e-22)
(1.01811 -0.0189143 -5.39247e-22)
(1.27611 -0.148036 3.07986e-22)
(0.985712 -0.0561785 3.57862e-22)
(0.999574 -0.000146896 1.67291e-24)
(0.98358 -0.0730813 1.18399e-21)
(1.34964 -0.012892 5.58633e-22)
(1.17701 -0.233725 -2.7061e-21)
(1.0582 -0.0949595 -2.27126e-22)
(0.952648 -0.0307285 -2.05415e-22)
(1.31973 -0.0699972 3.52991e-21)
(1.23686 -0.0836257 -9.72423e-22)
(0.96701 -0.06769 -3.05625e-22)
(0.947708 -0.00957953 -3.35092e-22)
(1.00097 -0.00591851 -2.02326e-23)
(1.16325 -0.125277 3.26307e-21)
(1.02541 -0.185506 -1.65342e-22)
(1.01493 -0.00389191 9.28326e-23)
(1.04159 -0.0946741 1.56399e-21)
(1.33836 0.00643476 -7.15483e-23)
(1.11891 0.0836241 -2.14245e-20)
(1.29239 -0.0677422 -3.40676e-22)
(0.99921 -0.000274491 1.66284e-23)
(0.817741 0.254347 -4.44821e-20)
(1.01513 -0.0019799 3.24099e-22)
(0.999905 -0.00175115 3.13797e-23)
(1.05167 -0.0134774 -2.61543e-22)
(0.951408 -0.0461518 -2.64266e-22)
(1.00815 -0.119444 1.34829e-22)
(0.895379 0.131801 -2.23419e-20)
(1.02855 -0.0720846 1.37306e-22)
(1.21438 -0.0398585 -6.42121e-22)
(1.02094 -0.160859 2.40554e-21)
(1.01688 -0.163276 -3.03504e-21)
(1.32543 0.184737 -7.1627e-21)
(0.991798 -0.0660415 -3.49942e-22)
(0.986821 -0.103371 5.07054e-22)
(0.9961 -0.134062 9.35134e-22)
(0.999718 -4.27613e-05 1.1899e-23)
(1.2142 -0.156639 -4.93813e-21)
(0.790939 0.239225 -4.10912e-21)
(1.08717 -0.226139 9.85973e-22)
(0.948117 -0.058889 -4.5999e-23)
(1.27277 0.203884 -1.52156e-22)
(0.975312 -0.0644478 -6.11909e-23)
(1.16305 0.136687 -7.12366e-21)
(1.36405 0.0360988 2.12613e-22)
(0.995504 -0.00638014 2.77822e-23)
(0.998676 -0.000158066 -4.96964e-23)
(1.10966 0.148687 2.46699e-21)
(0.740916 0.170179 1.96425e-20)
(1.0676 -0.223363 2.42719e-22)
(1.36999 0.089799 1.80235e-22)
(1.35225 -0.0202083 2.69967e-21)
(0.955873 -0.0522631 -1.34627e-22)
(0.955734 -0.055032 -3.32901e-22)
(1.05824 0.165281 -1.147e-21)
(1.14189 -0.0182386 4.05422e-22)
(1.18602 -0.238827 5.57474e-21)
(1.07541 -0.185758 -2.48955e-21)
(0.979477 -0.00164964 2.65213e-23)
(1.08236 -0.0209334 -1.64742e-22)
(0.868511 0.0620444 -8.56379e-21)
(1.22445 -0.02041 -5.61553e-21)
(1.00031 -0.000113976 2.68067e-24)
(0.917871 0.202069 3.77377e-20)
(1.04397 -0.0846121 -1.7016e-21)
(1.00981 -0.121768 1.75028e-21)
(1.19933 0.274257 -9.80903e-21)
(1.0213 -0.0307595 -5.14734e-22)
(0.987006 -0.0110267 -2.83319e-24)
(0.999228 -0.000503632 6.08393e-24)
(1.20268 -0.123418 -1.73612e-21)
(0.955935 -0.0230415 -8.2675e-23)
(1.0003 -2.08325e-05 3.03415e-24)
(1.37106 0.0857591 -5.20667e-22)
(1.27289 -0.215953 -2.71418e-21)
(1.03432 0.12893 -1.37452e-20)
(0.999339 -8.62272e-05 -8.79824e-24)
(1.00012 -0.00527723 -1.6097e-23)
(0.973833 -0.0661048 -3.19818e-22)
(0.999993 -0.000146427 2.66409e-25)
(1.06833 -0.229532 -1.23788e-21)
(1.20521 -0.237294 -2.6836e-21)
(0.999421 -0.00526644 8.23189e-24)
(1.00757 -0.0955825 -5.32068e-22)
(0.938333 -0.016363 -6.78529e-25)
(1.18076 0.245925 -1.34301e-21)
(0.984707 0.251478 8.24891e-21)
(0.996063 -0.00541253 4.11905e-24)
(1.00383 -0.00138829 3.65982e-23)
(0.991903 -0.126816 -2.32718e-21)
(0.969607 0.227073 2.74301e-20)
(1.0047 -0.0431617 5.25934e-22)
(0.950035 0.142503 -8.32087e-22)
(0.976868 -0.0138111 -5.58789e-24)
(0.741404 0.100426 -1.64392e-20)
(1.08467 0.0286761 -2.72811e-21)
(1.26657 0.0424966 -7.84102e-21)
(0.77865 0.133718 -1.77319e-20)
(1.32568 -0.140352 3.22918e-22)
(0.988996 -0.00306718 3.45027e-23)
(1.21047 -0.109212 -9.85722e-22)
(1.01027 -0.0448958 -5.48777e-23)
(0.988371 0.223351 6.69341e-21)
(1.05057 0.142568 1.84099e-20)
(0.967375 -0.00858266 -6.80476e-23)
(1.2914 -0.186011 8.21391e-21)
(1.1804 -0.0518309 -3.4824e-23)
(1.08167 -0.111472 -1.46154e-21)
(0.996042 -0.000278896 1.15718e-22)
(1.29104 -0.201631 7.1646e-21)
(1.00028 -5.5162e-05 4.10826e-24)
(1.16982 0.240595 6.45124e-21)
(0.937861 -0.0152817 1.42738e-22)
(0.987224 -0.0822275 -2.19491e-22)
(0.99377 -0.0390281 2.44368e-22)
(1.00657 -0.0764265 1.9735e-21)
(1.33717 0.0495599 3.49161e-22)
(1.2932 -0.0605567 1.52836e-21)
(0.9986 -4.849e-05 -1.93226e-22)
(1.03253 -0.0694897 -1.17785e-21)
(0.999863 -0.000188633 -8.66805e-26)
(0.748694 0.0925553 1.21261e-20)
(0.880456 0.0557093 1.74591e-20)
(0.994825 -0.00105433 6.29623e-23)
(0.966083 -0.0145833 -1.02921e-24)
(1.04452 -0.0516616 -5.68336e-22)
(1.05662 0.149223 7.90041e-21)
(0.930782 -0.0255768 -1.17951e-22)
(1.3532 -0.0205983 6.6304e-22)
(0.950755 -0.0604326 9.42447e-23)
(1.03516 0.219638 -5.75561e-22)
(1.27605 0.0435754 -7.91401e-22)
(0.954452 -0.0252709 -8.99955e-23)
(0.783842 0.0472827 -2.55194e-20)
(1.07227 -0.00357375 2.40686e-22)
(1.0618 0.228533 -1.68426e-20)
(0.990142 -0.0171899 1.78396e-24)
(1.02743 -0.196722 4.89206e-21)
(0.95657 0.00900682 -5.52453e-20)
(1.01783 -0.0568275 7.76578e-22)
(0.732843 0.183144 -8.97446e-21)
(1.08482 0.16965 9.71294e-22)
(0.787098 0.0538317 -6.02679e-21)
(0.989401 -0.00320174 -1.61908e-23)
(0.992751 -0.000521897 -2.63427e-22)
(1.03341 -0.125514 -5.69184e-22)
(1.229 -0.10109 3.99309e-21)
(1.01957 -0.0304436 5.57666e-22)
(1.03296 -0.113516 -1.98497e-22)
(1.04373 0.201416 1.56505e-21)
(1.0367 0.240724 5.39598e-21)
(1.0872 0.00550405 7.12442e-24)
(0.977414 0.219932 -1.96593e-20)
(0.749302 0.200163 4.86155e-21)
(1.33613 0.0949054 4.79389e-21)
(0.998452 0.0100577 -3.70133e-20)
(1.10575 0.0719325 -6.94163e-21)
(1.0063 -0.022699 -4.54505e-22)
(1.10376 0.155302 -7.99816e-22)
(0.984801 -0.102518 -4.35911e-22)
(0.953019 -0.0590289 2.47373e-22)
(0.998398 -0.00142847 -1.95201e-24)
(1.07294 -0.11072 3.46678e-21)
(1.13544 -0.210892 -7.55995e-22)
(1.17929 0.0629198 4.95483e-21)
(1.1229 -0.0156265 4.92491e-22)
(1.00515 0.0580328 2.86348e-21)
(1.01022 -0.0658076 1.33267e-21)
(1.19072 -0.040507 5.06412e-22)
(1.0067 0.0437234 -3.25759e-21)
(1.0118 -0.04713 8.98364e-22)
(1.12416 -0.135143 2.17112e-21)
(0.999897 -0.000220097 1.57906e-25)
(1.00053 -0.000278932 3.82794e-24)
(1.17411 0.0568352 -4.0879e-23)
(0.988091 -0.0885797 -6.31318e-22)
(0.960876 -0.0552768 4.11413e-22)
(1.00059 -0.000266306 -5.8341e-24)
(0.999981 -0.00363658 2.11732e-23)
(1.17688 -0.0574654 -4.96422e-23)
(0.999504 -5.92812e-05 1.54544e-23)
(1.34197 -0.0705931 9.31645e-23)
(0.759274 0.0730323 3.19718e-20)
(1.37063 0.101887 1.44166e-22)
(1.26126 0.0790873 -4.30149e-22)
(0.963907 -0.00828178 1.34059e-22)
(1.11079 0.230878 5.69269e-21)
(1.34738 -0.049967 2.0014e-21)
(1.00548 -0.0402395 -3.19106e-23)
(0.966248 -0.0165018 -1.56537e-23)
(0.996637 -0.00458455 -1.21442e-25)
(0.999173 -0.000438666 -4.67423e-24)
(1.00216 -0.00605952 -4.87461e-23)
(0.994534 -0.0415405 2.02755e-22)
(1.04771 -0.196769 2.90925e-21)
(1.26124 0.125827 1.17207e-20)
(1.25741 -0.1128 -1.2803e-21)
(0.964208 -0.00391983 -4.94812e-24)
(0.999876 -0.000151379 4.97963e-25)
(1.00784 0.133203 1.91805e-20)
(1.32166 -0.118292 6.79459e-21)
(1.30725 -0.165034 2.28966e-21)
(1.021 -0.0585956 -8.73439e-22)
(1.34481 -0.0354825 -1.46721e-21)
(1.0699 -0.114485 -8.9114e-22)
(0.98426 -0.000879542 7.77603e-24)
(1.00378 0.0326063 1.62409e-20)
(0.958628 0.00160341 -7.43168e-20)
(1.26504 0.268894 -1.01804e-20)
(0.990734 -0.000396456 4.49839e-22)
(1.25683 0.274081 8.52253e-21)
(0.966657 -0.00580807 -7.08012e-23)
(0.979188 -0.0603066 -4.15857e-22)
(1.35419 0.129512 -4.69486e-21)
(1.00029 -0.000139597 4.84473e-24)
(0.985544 -0.0390452 -3.62784e-23)
(1.34557 0.0341567 5.91323e-22)
(1.31874 0.0919418 5.12906e-21)
(0.955551 -0.0276082 -7.93478e-24)
(1.06649 0.147289 1.25612e-21)
(0.899519 0.271749 -1.83589e-21)
(1.03407 0.0711233 -3.66907e-20)
(0.948944 -0.0472766 4.29167e-22)
(0.948801 -0.00948476 1.21812e-22)
(1.06351 -0.0904386 -5.1534e-22)
(1.18562 -0.0119522 2.21988e-22)
(1.04634 0.0318352 -8.66863e-21)
(0.994667 -0.00149769 1.71088e-23)
(0.948452 0.0216662 -2.06735e-20)
(0.988481 -0.0621076 1.08583e-21)
(1.03372 -0.196626 -3.35776e-21)
(1.20874 -0.10051 -6.65971e-22)
(0.807255 0.259437 6.31896e-20)
(1.27232 0.132115 -8.82825e-21)
(1.04282 0.144705 -1.93585e-20)
(1.21603 -0.232096 1.41434e-21)
(0.924274 0.0049142 -3.37521e-20)
(0.958111 -0.022811 7.74119e-23)
(0.981111 -0.0580518 3.0327e-22)
(0.838196 0.0246464 1.20873e-20)
(1.11086 -0.0435725 2.56385e-23)
(1.04906 -0.183202 -5.01674e-22)
(1.06099 0.208095 -3.90597e-21)
(1.02879 0.210737 -1.24801e-20)
(0.968183 -0.0503145 -3.71858e-22)
(1.05803 0.0412536 -1.94864e-20)
(0.972215 0.237926 -3.60906e-21)
(1.02795 0.193329 1.63388e-20)
(1.15923 0.265225 4.43703e-21)
(1.05065 0.210508 2.56333e-20)
(1.162 0.155377 -1.12005e-20)
(0.984907 -0.00387868 -1.01523e-22)
(0.959089 -0.0249997 1.33431e-22)
(1.00334 -0.00984678 -2.80375e-23)
(1.00969 -0.160639 3.39006e-21)
(0.987495 0.0425444 -5.17505e-21)
(1.01639 -0.17015 1.96787e-21)
(1.34881 0.00927374 -1.86712e-23)
(1.28752 0.0118622 -2.86631e-21)
(0.961563 -0.0644888 3.10133e-22)
(1.33932 -0.0678467 -1.49831e-23)
(1.35939 0.0319737 5.03746e-23)
(0.986551 0.0159556 -1.58784e-21)
(1.3309 -0.0691055 -1.4542e-21)
(0.99947 -0.00439104 -4.90659e-24)
(1.08751 -0.02053 2.90538e-23)
(0.978244 -0.0651574 2.00227e-22)
(1.29037 -0.153975 1.18261e-22)
(1.30351 -0.158517 -5.07794e-21)
(1.02067 -0.180895 6.39532e-22)
(1.15661 0.251542 2.50802e-21)
(0.946061 0.262701 2.944e-20)
(1.25226 -0.0893101 -1.15549e-21)
(0.995008 0.0125244 1.64273e-20)
(0.74066 0.157777 -2.20503e-20)
(0.998699 -9.71815e-05 4.73441e-23)
(1.00425 -0.00141735 -2.92455e-24)
(0.995518 -0.00707604 -1.18998e-23)
(0.967929 -0.00912954 -3.93617e-23)
(1.22487 0.142748 -7.49206e-21)
(0.836534 0.0279842 -2.61098e-20)
(1.22987 -0.0180491 4.8596e-21)
(1.1221 0.247714 3.44936e-21)
(0.975296 -0.0299234 -1.60752e-22)
(1.26508 0.231742 1.38429e-20)
(1.26851 0.254189 4.32788e-21)
(1.27143 -0.20604 1.08523e-21)
(0.951501 -0.0134722 -3.9142e-23)
(0.932687 -0.0240484 9.34579e-23)
(1.35298 0.00647318 -3.20801e-23)
(1.015 -0.058077 2.99313e-22)
(1.25854 -0.106467 -1.49195e-21)
(0.958385 -0.0508761 7.44985e-23)
(0.9342 -0.0484984 -5.09773e-22)
(1.07999 0.211451 2.72411e-20)
(0.990691 -0.0027076 -7.2373e-23)
(1.03319 -0.0795414 -2.69994e-22)
(1.03983 0.235817 1.32616e-20)
(1.33523 -0.0722159 -8.84193e-21)
(0.834296 0.215015 7.03059e-21)
(1.01761 -0.115722 -9.75063e-22)
(1.09371 0.0248144 8.89064e-21)
(1.29495 -0.161068 5.18735e-21)
(0.996615 -0.0942308 2.75203e-22)
(0.956461 0.0159076 -7.48042e-21)
(0.979517 0.00101218 4.78496e-20)
(0.979615 0.0631745 -8.04657e-21)
(0.990401 -0.044013 -4.27967e-22)
(0.86257 0.0360438 2.74522e-20)
(0.951792 -0.0433303 2.07621e-22)
(0.935105 0.187698 1.09253e-21)
(1.16537 -0.105743 7.48283e-22)
(0.970446 0.113816 -4.48315e-21)
(0.974507 -0.0618297 2.49976e-22)
(1.00003 -0.000298939 -4.22674e-25)
(0.970462 0.0984761 1.50788e-20)
(0.928737 0.166869 1.78992e-20)
(0.943066 0.206074 -2.86439e-20)
(0.973695 0.0821959 -1.75526e-20)
(1.15148 0.00926061 -2.77413e-20)
(1.20206 -0.047635 7.41247e-23)
(1.18724 0.135604 -2.01769e-20)
(1.0454 -0.177588 1.31564e-21)
(0.993451 0.0312838 5.31352e-20)
(1.06159 0.131488 -2.3674e-20)
(1.31512 -0.119378 -8.17777e-21)
(1.12746 -0.0206046 -5.47084e-22)
(0.985394 -0.00366036 -6.02326e-23)
(1.32955 -0.13792 -1.25463e-21)
(1.09996 0.214115 -4.32447e-21)
(0.936887 -0.0367765 5.89171e-24)
(0.967324 -0.00493561 2.66031e-22)
(0.985516 0.00850799 -1.0674e-20)
(0.957612 0.123313 -3.27228e-20)
(0.983948 -0.0712192 -4.95735e-22)
(0.978672 0.134301 2.35347e-20)
(1.02363 -0.191744 1.14839e-21)
(1.34102 -0.0375264 2.67288e-21)
(0.99417 -0.000288583 2.87403e-22)
(0.943326 0.133602 -1.85179e-20)
(0.926358 0.146195 4.76755e-20)
(0.772425 0.0830459 4.92199e-20)
(0.96281 0.246516 3.811e-20)
(0.997022 -0.000353677 3.94905e-23)
(0.975392 -0.0326132 1.06137e-22)
(0.99819 -0.00146539 1.76837e-23)
(0.991464 -0.0985306 -2.09953e-21)
(0.840241 0.161254 -1.01644e-20)
(1.28935 0.0724312 -9.77292e-21)
(1.132 0.228409 -2.97514e-22)
(0.93505 -0.0463114 3.02863e-22)
(1.10822 0.0785275 2.17787e-20)
(1.04772 -0.050546 5.98033e-22)
(0.835967 0.18872 1.45914e-20)
(1.11031 -0.143018 -1.00461e-21)
(0.992137 0.0111062 1.82162e-20)
(0.994323 -0.000288426 1.63902e-22)
(0.863768 0.15162 -3.30647e-20)
(0.812377 0.200678 -4.10053e-20)
(0.972983 -0.0341059 -2.96266e-22)
(1.30039 -0.0266188 2.32183e-22)
(0.86974 0.125918 -3.30165e-20)
(0.996312 -0.000550469 -2.02075e-22)
(0.808287 0.0850512 -5.44186e-21)
(1.05883 -0.100613 3.81352e-22)
(0.996567 -0.000356015 7.31845e-23)
(0.949084 -0.0149884 2.20698e-23)
(1.06508 0.238289 -1.66367e-20)
(1.30385 0.0310912 -3.73448e-21)
(1.00492 -0.13473 1.51721e-21)
(1.00309 0.242649 1.49299e-21)
(0.796334 0.228419 2.76189e-21)
(1.2605 0.245529 -1.51674e-20)
(1.07757 -0.0156814 9.38109e-24)
(0.995269 -0.0875384 4.24184e-22)
(1.20193 -0.115413 1.54381e-21)
(0.960272 0.140351 2.68752e-20)
(0.827614 0.0863521 -3.11823e-21)
(0.763938 0.0789364 3.18341e-21)
(1.27459 0.0614109 1.66373e-21)
(1.0003 -0.0131767 3.328e-23)
(0.977146 -0.00182883 -1.12106e-22)
(1.10949 0.219361 -1.53063e-20)
(1.00224 -0.0102252 2.78768e-23)
(0.981358 -0.00580424 1.74277e-24)
(1.00357 -0.0162243 -2.24695e-23)
(0.990557 -0.0383163 -2.09204e-22)
(1.1024 -0.202252 2.78722e-21)
(1.20798 -0.216663 -1.94951e-21)
(0.903295 0.204565 -4.2417e-20)
(1.02451 -0.0651434 2.60353e-23)
(0.998639 -0.00117853 -1.3871e-23)
(1.07835 0.134253 -4.06083e-22)
(1.33362 0.0599954 2.99282e-21)
(1.00204 -0.0163781 -3.88937e-23)
(1.34026 -0.0104618 7.94528e-22)
(1.00227 -0.00169303 5.4514e-24)
(1.2757 0.0243535 6.45911e-22)
(1.03519 0.0752673 2.58005e-20)
(0.972541 0.128492 -4.56624e-20)
(1.16972 -0.217957 2.17585e-21)
(1.28636 -0.0119841 -1.40662e-21)
(0.991275 -0.0176758 -2.6528e-23)
(1.15103 -0.14997 4.08665e-22)
(0.994128 -0.00190262 8.28586e-24)
(0.951168 0.160008 -4.76124e-20)
(0.898681 0.198371 1.29542e-20)
(1.23703 -0.227276 2.00597e-21)
(1.19714 -0.232428 1.79325e-21)
(1.15575 -0.232895 5.65991e-21)
(1.03857 -0.116637 9.6829e-22)
(0.990922 0.233083 3.11764e-21)
(1.04308 -0.106865 6.64731e-22)
(1.13031 -0.193835 1.04121e-21)
(1.08282 -0.218039 -1.19925e-21)
(1.14501 -0.13299 -1.89745e-21)
(0.790099 0.0842928 2.66241e-20)
(1.15447 -0.25231 -1.03003e-20)
(1.31899 -0.0873681 6.52551e-22)
(0.969473 0.0363849 9.35473e-21)
(0.995225 -0.000421804 -1.61804e-22)
(1.28765 -0.0479112 -2.75739e-22)
(1.04719 -0.0965185 -1.09586e-21)
(1.08445 -0.201925 2.09234e-21)
(0.995013 -0.00109944 -1.06882e-23)
(0.999509 -0.00370456 -1.30151e-23)
(0.783706 0.109442 -4.51755e-20)
(1.12461 0.0796126 1.62138e-20)
(1.23099 -0.235268 6.87623e-21)
(1.33658 -0.115535 -1.97012e-21)
(1.15011 0.136515 -8.43977e-21)
(0.987086 0.130865 -3.58553e-21)
(1.06931 0.138243 7.06859e-21)
(1.26638 -0.166322 -4.72933e-21)
(0.975222 -0.0697246 6.21355e-22)
(0.990276 -0.0595161 -2.92712e-22)
(0.980039 -0.0630558 -7.72149e-23)
(1.09708 0.134133 -2.2714e-20)
(0.966379 -0.00627982 -2.09064e-22)
(1.00147 -0.089638 6.7304e-22)
(0.999706 -4.60804e-05 -3.84012e-24)
(0.961308 -0.0246236 -2.0072e-22)
(0.997419 -0.000652136 -3.04393e-24)
(1.12698 -0.213419 2.20646e-21)
(1.04792 0.235053 -1.57288e-20)
(1.05733 -0.183209 7.73203e-22)
(0.964464 0.20464 1.82674e-21)
(0.983636 0.202221 -4.20906e-20)
(0.953186 -0.0563249 -5.17196e-23)
(0.980426 -0.0374443 3.76645e-23)