/*--------------------------------*- C++ -*----------------------------------*\
  =========                 |
  \\      /  F ield         | OpenFOAM: The Open Source CFD Toolbox
   \\    /   O peration     | Website:  https://openfoam.org
    \\  /    A nd           | Version:  7
     \\/     M anipulation  |
\*---------------------------------------------------------------------------*/
FoamFile
{
    version     2.0;
    format      ascii;
    class       volScalarField;
    location    "7";
    object      p;
}
// * * * * * * * * * * * * * * * * * * * * * * * * * * * * * * * * * * * * * //

dimensions      [0 2 -2 0 0 0 0];

internalField   nonuniform List<scalar> 
7807
(
3.0917
2.52791
3.31762
3.09192
1.39252
0.368242
3.36706
1.82573
0.863857
2.65936
0.346261
1.60552
1.9379
2.40077
2.6743
2.12691
3.09902
2.02629
2.00436
2.41625
2.58157
1.47997
2.31018
2.97552
2.09829
3.10321
1.37153
2.47672
2.87576
2.03825
2.16685
3.44583
2.31165
1.16318
0.647905
2.57798
2.06377
3.34923
1.95659
0.961303
1.95994
2.11548
2.43685
2.63151
0.799444
0.575586
1.4639
1.93901
0.546336
2.4194
1.7038
2.45593
2.16187
2.32414
2.57776
1.81036
1.98629
1.82332
2.23777
1.15605
0.450045
1.77603
2.3998
1.62179
1.24992
2.16869
0.850366
0.0722849
2.85936
1.92225
0.557657
2.36207
2.08657
2.22328
2.014
2.3048
3.30293
2.56838
2.71101
2.35701
1.92712
3.43437
2.70157
2.23314
1.63719
1.57463
1.85134
2.15107
1.40367
1.71041
2.88945
2.65738
0.731559
1.93701
1.71539
2.1502
2.36141
2.32863
1.63628
1.32918
2.32395
2.72798
1.70418
0.220555
2.67662
2.91642
3.744
1.82033
0.0204282
2.41155
3.06398
2.44753
0.0326401
2.43252
2.91402
1.22959
2.50989
2.81004
2.33135
2.23328
2.34362
3.41897
2.44395
2.11589
2.3161
1.47054
2.12138
1.97912
1.29299
2.15504
2.62308
2.70012
1.24375
1.42204
2.24147
3.04998
3.84174
0.250201
1.96085
2.42855
2.20409
2.37666
2.30813
2.22476
3.72423
2.38075
2.88219
2.24296
2.28195
3.40341
2.55803
2.65572
1.59112
2.83469
2.69505
3.28967
2.3249
1.93183
3.51675
0.51408
1.94751
2.9966
0.304677
1.82033
1.74572
3.14915
3.15455
3.49232
1.81685
1.69367
0.0861913
2.24278
1.20811
2.53962
1.98427
2.24709
2.69764
2.92204
0.742172
1.24047
3.0995
0.49733
0.607067
3.35283
2.52921
2.41398
2.32671
2.20771
2.37458
2.45385
0.302623
2.35341
2.9354
1.70946
0.579121
2.98974
1.39016
2.14236
2.36009
0.0856901
1.55952
3.06354
2.97716
3.32294
2.50943
2.45297
2.51707
2.50764
3.0552
0.763243
0.41969
3.78128
2.1013
1.23287
2.35113
2.13323
3.23738
3.25874
2.37684
3.48079
1.36792
2.02458
2.33072
2.61965
2.44588
3.04812
3.55127
0.725984
2.11
2.83646
1.89469
2.80426
1.41632
3.46148
3.29085
1.84563
1.9951
0.944207
2.94296
0.717339
2.04014
2.36208
0.565067
1.67102
1.40031
2.90983
0.343267
1.74779
2.35335
3.43581
2.68148
3.53167
0.408025
2.35603
1.01745
3.31419
1.75989
3.79825
2.02666
1.5735
2.44098
2.52012
1.21658
0.863451
1.22327
1.90996
2.42975
0.394779
2.31892
1.73388
0.743598
1.27019
3.57098
1.91117
1.2158
3.73195
1.66627
3.07961
1.00813
2.25622
0.118248
2.29939
2.60254
2.71526
2.24226
1.22784
2.4036
2.19011
0.843602
1.20252
1.74875
1.91371
1.67142
1.57809
2.22293
2.43833
2.21894
2.64333
2.28066
3.23567
3.25197
1.48549
2.69644
0.0998734
1.79978
2.21022
2.95971
2.74204
0.680694
1.78047
2.26738
2.91325
1.46217
1.72131
1.47592
2.77133
2.60283
3.18452
1.48921
2.5567
0.725009
1.99219
0.477261
2.21904
0.989276
2.29092
2.68083
2.28843
2.26015
2.0754
1.18219
2.42826
2.17288
2.74365
2.91086
2.52105
2.61546
2.17846
1.89771
2.35735
3.48753
2.60534
2.4623
3.51353
1.4937
1.53936
2.63732
1.58891
2.37393
1.89426
1.67248
1.56696
2.8686
0.799818
1.19561
0.616474
1.72157
2.02627
0.121679
1.34605
2.22809
3.65637
2.28301
2.08904
3.5641
3.26939
2.69521
2.70808
2.29157
1.91098
3.11757
2.02705
3.14041
2.38183
2.46286
2.97847
3.13937
2.30844
2.72359
3.04657
3.098
2.50849
1.69786
1.7905
0.629233
2.35549
2.04818
1.62057
0.681845
1.49944
2.40134
2.81584
2.15621
2.07123
1.74768
2.54433
1.91281
1.95185
3.01158
1.51569
0.481682
0.845143
0.716421
2.20055
2.85392
1.79726
2.40998
2.44715
3.35624
1.97999
1.97909
1.84073
3.54525
1.29966
3.17638
2.89331
0.694813
2.37936
1.70638
2.38243
1.18431
2.70396
2.1923
1.95597
1.26968
2.88577
2.91678
2.41235
2.23689
1.76652
2.3349
2.82247
3.50552
2.53908
2.0188
0.0354692
2.09185
1.58909
2.41029
2.4344
2.67563
3.43064
2.8873
2.53103
3.00692
3.59878
2.33517
1.62429
3.12215
1.57309
0.907689
2.0687
0.65282
2.51321
2.1873
2.29643
1.60754
2.99593
1.54067
0.439022
2.4553
1.5719
2.7006
2.32128
2.34219
2.76899
2.8383
2.73699
2.74852
0.857339
2.80807
2.76218
1.26823
2.14814
1.20854
2.27992
2.30774
1.80881
1.45309
2.92935
0.336219
0.907505
1.57209
2.19459
2.3411
2.2716
2.25192
2.42084
2.46096
2.43089
3.10056
2.69477
1.89909
3.4686
2.36603
2.0413
2.23989
2.16546
2.13583
2.01945
2.45444
2.60479
0.472832
2.40621
0.647775
3.26455
2.87459
1.81233
2.01501
0.824436
3.45996
3.18228
2.78117
2.96079
2.37183
4.05496
0.768004
2.54312
2.15046
2.92897
3.56434
2.80372
2.8629
2.06907
0.858453
2.93488
2.63862
3.47801
2.69418
3.02754
1.9079
3.39354
3.16137
1.98559
1.9365
2.90065
2.36701
0.816873
2.08281
2.36092
2.40377
2.06157
2.06784
0.891427
3.18028
2.04728
0.694845
2.4328
1.1895
0.872686
2.10545
3.02701
2.44813
3.58297
0.548362
3.02146
2.40166
0.864609
0.257831
2.87007
3.00964
1.78035
2.96546
0.375536
2.99008
2.51635
1.99677
3.72144
2.34355
2.94605
2.24373
2.98703
3.00521
2.14326
2.19798
2.02338
1.66267
0.934253
2.03373
3.11731
0.430369
2.96902
2.4624
3.29536
2.94531
2.36777
3.50088
1.52768
2.3449
2.49824
2.24438
1.89786
2.39629
2.59644
3.52888
0.465731
1.5691
2.44018
0.113648
3.26112
1.55944
0.130963
0.885809
1.06534
2.20863
2.39123
1.49439
0.600544
1.90758
2.10836
2.42969
2.4139
2.3283
0.20078
2.48636
2.06915
2.90227
3.34072
1.72916
2.89993
0.838642
2.0602
2.61604
1.90578
3.0557
2.07818
2.55546
2.63283
2.8857
2.17919
2.00966
2.9637
2.4058
3.31231
1.9881
3.09302
1.98153
1.37733
2.84194
2.34835
2.66477
1.5437
0.10987
2.43981
3.00353
1.72665
2.88982
2.06273
2.47942
2.51283
2.28133
1.52017
1.92777
2.39164
2.24959
1.99186
1.0982
3.33247
2.88611
2.42221
0.894301
3.16341
0.304376
0.867138
2.89518
2.29458
2.9683
2.47677
2.29976
2.56758
2.47
2.75942
1.46062
2.31619
0.523953
2.08065
3.03787
2.13019
1.66459
2.38233
1.56333
1.37011
3.53684
2.00502
1.28599
0.0358244
2.78056
2.28108
1.18152
1.64679
2.86064
2.74275
2.30512
0.20648
2.90585
2.18375
2.9764
2.15311
2.2158
2.2625
0.677337
2.61992
2.73215
2.78955
2.47106
3.11971
1.86417
2.95844
2.11397
2.42075
1.0392
2.1976
1.08033
2.89077
3.06367
1.51118
2.3272
2.14341
2.47963
2.46999
1.5374
2.52714
3.52912
2.7576
0.813398
2.72941
1.98643
4.75917
2.05701
2.2474
2.38375
2.253
2.20198
1.92714
2.10855
1.89875
2.58671
0.692934
2.56004
2.69263
3.21954
2.29742
2.97413
1.54438
2.52413
2.33825
2.99277
1.92416
0.877737
2.18657
2.0113
2.52036
2.23325
2.20476
2.6421
2.09532
2.3749
2.4084
0.134248
2.62339
2.40115
2.9374
2.5564
2.6569
2.45597
3.15834
2.46839
2.26947
2.39545
3.91691
2.55537
2.06607
2.45474
2.44877
2.46827
2.47773
2.94559
1.67146
3.09986
1.96882
1.19711
1.61632
2.69047
3.42791
1.91186
2.41512
2.88567
0.293652
2.1868
2.38327
2.58124
1.96738
1.6157
2.31689
1.97252
0.348303
2.34055
3.07344
2.3839
2.13173
1.5099
2.8871
1.24221
1.41409
1.02377
1.58381
2.80317
2.43545
2.22643
2.15162
0.56741
2.49011
2.66069
2.48494
2.29778
2.21736
0.86981
2.1134
2.3559
2.77103
3.31327
1.70555
2.3533
1.81882
2.45967
2.91296
1.09338
0.93644
2.91512
2.73937
2.31411
1.69207
1.54943
2.35135
1.05672
2.37525
2.05595
3.21498
3.07266
2.52194
2.40581
1.91108
2.32391
2.70765
2.41323
2.4033
0.0998808
2.68068
2.25055
2.42172
2.37437
2.31409
1.10337
1.67772
2.94831
2.25254
0.0495309
1.65232
2.57013
0.784199
2.42288
0.749985
2.15466
2.42701
2.50967
0.744593
0.36135
2.71411
2.42211
3.50497
3.07819
2.65542
1.56837
2.3594
0.892432
2.59749
2.47839
2.73197
2.12604
3.0672
2.32292
1.17428
2.31307
2.50644
1.51194
2.4406
2.35264
2.31584
2.2597
2.5109
2.3543
2.2139
2.53042
2.90685
2.45731
0.0164019
2.48414
2.3479
2.47276
2.2145
1.24803
2.38391
2.44448
2.378
2.29625
2.88008
2.48721
2.22384
2.24741
2.4695
2.36658
2.57789
1.04935
2.77463
2.95645
1.83588
3.00889
2.45451
2.44918
2.42858
2.93549
2.65297
3.5017
0.114441
2.74023
2.89504
2.02973
1.39783
2.05148
2.66729
0.587725
2.08756
2.39546
2.11754
2.13536
0.748028
2.61556
1.19396
1.18162
3.03852
2.14158
2.84638
2.28692
2.94769
2.29064
1.35359
2.54259
2.18865
3.38259
1.31997
2.39004
1.18902
1.07787
2.25792
2.49984
0.513769
1.89581
2.39012
1.23642
0.406457
0.763355
2.78731
2.58819
2.06272
1.24329
2.11445
2.06025
2.15293
1.17675
3.17998
2.5573
2.98514
3.12097
0.769193
2.83022
2.78383
1.20817
1.04703
1.41222
2.63152
2.44121
2.35248
2.33103
2.39483
2.85922
2.50195
0.14534
2.10742
2.1794
2.25331
1.69519
2.03639
1.30661
2.3007
1.02764
1.21876
2.10047
1.70463
2.16791
0.148761
2.0375
2.36821
2.57859
2.53346
1.87874
1.9635
1.88099
1.73946
2.41246
1.88095
0.671135
1.22426
2.33177
1.96625
1.73574
2.07328
2.18386
2.45073
1.96007
2.80054
1.97136
2.33418
2.25375
2.14748
2.04137
1.65182
1.78651
1.64383
2.00593
2.04423
2.93973
2.858
2.59693
3.31222
0.495508
1.88646
2.04638
1.87674
2.80115
2.11238
2.63197
1.92122
2.98094
1.52023
1.51413
2.49665
2.35213
0.960872
2.29314
1.76303
2.11882
0.280132
1.791
1.50863
2.08353
2.53271
2.27803
2.09073
2.01536
2.2195
2.6692
1.50785
1.45737
1.46398
3.52355
1.03141
2.66663
2.13317
2.1213
2.17802
2.32877
2.19612
2.23639
2.11389
1.73157
0.641152
1.68501
2.19742
2.63862
1.3801
2.92379
2.22976
2.01138
1.18541
2.20188
0.629788
2.7776
2.21276
2.17949
2.15993
1.95135
2.25222
1.38938
2.2734
2.62576
2.17223
2.41764
1.33425
2.18278
2.09815
2.02899
1.63658
2.75491
1.50946
2.10321
1.29107
2.81058
2.26483
2.17836
1.60168
1.93175
1.59945
2.95114
2.59068
2.99584
1.91143
1.37435
1.29051
1.56053
2.95974
2.34451
1.84706
0.925052
2.19078
2.39687
1.50307
2.33113
2.0532
2.42651
1.72896
2.24787
4.23134
2.34521
2.19007
2.33542
0.354138
2.5249
1.63754
2.19135
1.78898
2.24598
2.02396
1.15618
1.56438
1.5791
2.92458
1.75431
1.45008
1.72425
2.34523
1.87101
2.13408
1.95165
1.87336
1.85346
1.62945
2.94025
2.29666
1.62587
1.67893
2.18538
2.01173
2.30833
1.49775
2.61222
2.24587
1.86863
1.50451
2.02759
3.4533
2.92963
1.95621
1.06617
1.55242
2.40213
1.6993
2.20247
1.15144
2.31044
1.44861
2.05733
2.66045
1.4921
2.18699
1.33176
3.21553
1.87124
1.95932
2.62194
1.67253
2.19727
2.82387
3.42635
1.95311
1.97759
1.45309
1.28329
0.293522
0.0629263
1.93463
1.20055
2.84011
1.35754
1.44072
2.03113
0.854338
2.2894
2.41174
2.06005
2.30732
2.18422
2.79376
2.46491
2.59966
2.48424
2.59596
2.6918
1.99063
1.27988
1.98044
2.42006
1.62502
2.03522
2.76135
3.15981
2.40315
1.03562
0.713185
1.32219
0.196738
2.24656
1.2705
1.94331
2.30157
1.05165
1.61583
0.850997
2.67615
2.03823
2.53862
1.54593
3.26901
3.0871
1.94961
2.47841
2.19007
2.16607
2.03172
1.48529
2.42534
2.39874
2.29499
2.6399
0.858428
2.93743
2.41726
1.89618
2.40266
2.17292
1.11658
1.89524
1.31982
2.31229
1.65463
2.91985
0.925732
1.90452
0.953394
2.58466
1.91613
1.54118
2.48561
1.15754
2.73123
2.78023
2.19571
1.37086
0.688857
1.14432
1.07439
2.33889
2.70158
2.70274
0.832154
2.2116
1.13942
3.00239
2.33862
3.05082
2.28412
0.995509
1.14642
1.86603
1.75511
1.32922
0.170581
2.2871
2.28716
0.826745
1.23612
2.10824
0.205987
2.83642
1.32995
2.31643
2.1029
1.78407
2.32587
2.34729
2.7842
2.43565
2.11451
0.897695
2.32588
2.11251
2.67619
2.85333
3.25595
1.25421
2.3357
2.34406
3.14239
2.37003
0.648144
1.80849
1.67182
1.75065
2.30862
2.70151
1.06439
2.4607
1.91105
2.71069
1.06256
0.958114
2.57136
3.09752
2.32019
2.86352
1.66372
0.822578
0.0264214
2.48485
2.27689
1.13452
2.78064
1.93443
1.76159
3.56615
1.32443
1.72269
2.33822
2.45291
1.48965
2.73296
2.46265
0.701328
2.37422
1.00661
0.682807
2.81796
2.4086
0.981611
2.31565
2.16421
1.61724
2.46916
1.51399
2.16239
1.57278
1.65785
2.34834
2.25879
2.48909
1.36163
2.84384
2.94953
2.51027
2.17589
2.15749
1.71937
2.83105
2.768
2.17674
0.777078
2.13991
2.28225
2.40278
2.21184
1.54499
2.5862
2.19489
0.65571
0.676257
2.48438
2.26456
2.17151
2.10005
2.65142
2.29312
0.947196
1.53491
0.996714
2.3113
0.252156
1.47643
2.4316
2.46683
2.86237
1.62218
1.64593
2.15382
2.16884
0.730383
2.30663
2.86771
2.8035
0.235751
0.609871
2.81272
1.58419
2.44902
2.25411
1.57799
1.39487
2.33452
2.54806
2.82505
2.31066
1.36055
2.21934
2.33646
1.18377
0.815337
1.31035
2.59712
2.31117
2.88791
0.810656
3.78702
2.67234
0.866582
1.53001
1.07824
1.10984
0.269566
0.824382
2.36272
1.31791
0.988611
0.771567
2.75198
1.76355
0.782507
0.669556
3.19878
2.13915
2.58998
1.52724
1.22727
2.62124
0.724786
2.22438
2.55884
1.44677
2.01849
0.600248
0.863627
2.22367
2.44845
1.80283
2.5384
2.52144
0.253583
2.12178
2.24707
2.64557
1.40433
0.735794
2.32877
1.78229
1.31208
2.30575
0.718691
2.55311
1.00076
1.27627
2.72624
1.77948
2.32957
3.50958
1.55013
0.861354
2.34284
2.39346
2.05826
1.67708
0.684175
2.21573
0.664331
2.91703
3.68237
2.77726
1.54451
1.6598
0.290465
2.20722
0.657379
2.17375
1.46917
1.12475
1.61069
2.07656
0.637423
1.27952
2.1482
0.910011
2.05042
2.07422
2.4059
1.61135
3.76479
1.48647
1.47889
0.849186
1.99673
2.31169
1.94377
0.80605
0.589361
1.77027
0.712535
0.619098
2.10498
1.11816
0.238534
2.31064
1.80302
2.35373
1.43381
0.465396
1.58317
2.36028
2.11082
2.31648
1.47404
1.17172
1.09909
1.40948
0.706502
3.11579
1.34796
0.236236
1.37595
1.55448
1.2661
2.34369
2.31191
0.988366
1.83892
0.273463
1.8721
0.507991
2.27767
0.759852
1.0378
1.90725
0.460058
2.0005
0.891738
1.31711
2.09137
0.294392
3.3237
2.31931
2.27584
0.384879
0.211608
1.60424
1.27821
2.32741
0.202873
0.154194
1.26669
0.00551361
0.957105
0.988914
1.05922
1.15312
2.32601
3.41717
2.32626
3.21452
1.87
2.17052
0.248006
1.17163
2.00128
0.801672
0.863108
0.73085
2.74071
1.69002
1.12894
5.07726
1.02067
1.3261
1.0213
0.0545664
2.79938
1.57853
1.26325
0.769622
1.52491
0.453136
1.64844
2.28669
0.980372
1.76387
-0.0221595
2.01369
0.813395
2.90556
1.02006
1.30733
2.37712
1.60983
0.939588
1.35509
0.412484
2.85846
2.36663
1.39522
0.93985
1.8351
1.17123
2.5373
2.76733
2.67308
1.34586
0.0682507
0.0143359
2.63279
0.83161
2.3201
2.34583
2.09868
2.73764
3.68341
1.41414
2.9598
2.08985
2.20973
2.86684
0.899085
2.34944
0.194921
1.92123
2.30985
0.421263
2.35547
1.20392
2.42019
2.00586
2.27866
2.27906
1.93805
2.34636
2.31038
0.673818
1.95494
0.794964
2.28452
0.241158
0.712935
2.51418
2.83966
0.0126755
2.29446
1.67927
0.581073
2.2023
0.194952
1.99665
1.08702
2.28512
0.645617
0.622584
1.69817
0.982555
2.82678
2.21648
2.76389
0.650351
1.08613
2.19816
0.0360004
2.32914
2.35488
2.32579
3.72158
1.83604
0.191621
2.25909
2.26546
1.85022
0.839362
0.581109
2.29916
0.7475
1.18713
0.0311476
0.856042
2.20858
2.89242
2.489
2.72635
1.77794
0.00691575
2.08067
2.36278
0.219702
0.183194
0.894358
0.453449
0.958021
3.03271
2.34285
0.419916
0.240269
2.36918
2.9497
2.89645
0.277338
2.24922
2.19351
2.09426
2.29823
2.0663
1.59236
2.76819
0.607306
2.18355
2.85989
2.30618
0.599057
2.31522
0.765535
3.10566
2.36827
0.693898
0.417032
2.92482
0.0662925
0.847732
1.94725
0.402173
3.0581
1.93949
1.81066
2.3772
1.68615
2.40807
2.90287
2.33817
2.56659
1.21929
0.363835
1.46287
0.547312
0.407384
2.50054
2.89244
2.7971
1.11066
3.07004
2.22931
0.228829
2.28937
0.567704
2.19901
2.36282
2.14636
1.82423
1.4235
1.91356
1.12757
1.47821
2.29395
1.57491
0.700516
0.300175
0.445778
2.25965
0.536186
2.2474
3.11435
1.86032
0.390703
1.61674
0.451433
2.81378
0.880806
0.489091
0.504771
0.238104
2.97794
0.917543
3.03863
2.35775
0.71622
2.32463
1.44148
2.81872
4.18743
1.28342
0.0332566
0.381339
0.321847
2.85073
0.0164606
1.3832
2.1358
3.01528
0.172169
0.327584
0.0338245
0.26638
2.12596
0.0327803
3.07632
2.15579
0.620073
0.270703
1.42229
2.23857
0.0162078
0.398236
2.84832
0.313188
2.22684
2.46054
0.690139
0.0152954
2.49831
0.0167569
2.87318
0.149834
1.07099
0.21932
0.645053
2.60342
0.129403
1.44346
0.283202
2.27947
1.70995
1.76267
1.96903
2.80938
1.27802
0.634172
1.86076
1.85802
0.795109
0.889651
1.33652
0.470386
2.9566
2.06911
3.45159
0.163322
1.84883
1.14103
2.8197
0.515749
2.2053
0.24572
1.40814
2.23325
0.790549
2.05905
2.30901
1.93614
0.515449
2.38306
0.798177
1.36587
1.75348
2.3171
1.51052
0.9519
1.03161
1.62186
1.32884
0.348569
1.29048
4.12455
0.602334
1.59023
2.24326
2.36292
2.34527
2.30455
2.14388
1.49752
2.29614
0.560378
0.59247
3.59298
0.557985
2.9352
0.930289
1.10554
1.25313
2.49673
0.992371
1.89961
0.375431
0.952357
0.662441
0.550573
2.02291
0.755174
0.807833
0.538963
1.08265
0.419163
2.29204
3.03877
0.175077
1.01778
1.08756
0.320735
1.14853
0.18457
1.1808
1.05934
0.912191
2.34392
1.13605
1.53898
0.137955
1.73932
0.940733
0.149676
0.217837
0.16871
1.12465
1.15217
2.29639
2.22764
2.33981
1.71576
1.81181
2.59994
2.33491
0.524844
2.25576
1.97634
1.13126
1.98445
2.33165
3.3978
0.936233
0.226906
1.4667
0.482789
0.22182
2.5127
1.89647
2.56765
2.33099
3.485
0.976244
0.0962451
0.759767
0.332618
1.24048
2.86379
2.9993
0.271939
0.81912
0.471089
2.96867
2.43216
2.16302
0.143593
0.211587
1.85361
1.06266
2.36915
2.08002
0.499205
1.71982
2.25397
0.458027
1.55533
0.719228
2.29381
1.34058
2.83365
0.200465
1.40897
1.91163
0.231467
0.813625
2.15667
0.210038
1.15635
0.392992
2.06133
2.29575
1.91597
2.13865
1.8506
1.90011
1.90311
1.53941
0.528237
0.759081
0.339181
0.285097
0.412827
2.01583
2.35477
1.06
2.37891
1.5216
2.36668
0.572689
0.463197
1.36006
2.6187
0.263829
2.36545
2.09609
2.76476
2.39246
0.330032
1.57845
0.867804
2.56761
2.7404
0.454961
2.34392
2.19912
1.66151
0.490986
0.186411
2.49139
2.04423
0.44644
1.79226
0.610953
0.921749
2.73683
0.144987
0.559212
0.908527
0.437674
1.25992
0.5425
1.71391
0.974713
2.00796
1.36465
0.968814
2.30161
2.28471
1.81679
0.16114
0.318059
2.40056
1.80749
2.29905
0.531009
1.75855
0.256329
0.372048
2.65459
1.75635
1.53786
0.495295
2.13614
0.461674
2.35387
0.425704
2.37548
0.603073
0.124419
0.551912
1.27325
2.53407
2.07614
2.36898
0.434533
0.703781
2.37785
2.32678
1.84369
0.20868
2.50672
2.3326
2.39128
0.44305
0.229173
0.706313
2.50386
2.36692
1.28729
1.88506
0.626936
3.02447
0.565277
0.486993
0.739243
0.757113
0.260974
1.6654
0.813502
1.59292
2.36544
1.97184
2.29686
0.595045
0.364679
2.5864
2.45255
1.71638
2.696
0.851725
0.312443
0.280882
2.85517
0.792755
0.995118
0.39931
2.38482
2.02848
0.591173
1.06946
1.92882
1.76152
1.19965
3.00679
2.3628
1.73061
3.47338
0.90214
1.45832
2.04805
2.48487
0.390581
0.642822
0.254447
1.80865
2.31633
1.10536
2.31599
1.79854
0.582973
0.0914892
1.88689
2.399
2.57539
2.56078
2.29055
2.26172
2.62771
2.2108
0.500917
1.07258
2.5083
1.04664
1.18358
1.33879
0.750112
1.09268
1.92363
0.154099
0.556438
2.52261
2.53068
1.31931
1.04417
0.303909
3.06724
1.84428
1.38814
2.22199
0.800131
0.847519
0.752923
0.493367
1.11905
2.26927
2.35465
0.133951
1.23101
2.29885
2.28622
2.36944
0.958004
1.40635
2.11368
0.411055
0.636661
2.36392
0.275651
2.83214
0.737804
1.67538
0.733184
0.901063
2.3659
1.88949
2.09441
1.48204
0.308793
2.11852
2.45604
2.02117
0.772555
2.61137
2.82262
0.184426
2.31569
0.615226
0.355754
0.364921
0.993451
2.12763
0.788679
0.95418
2.14202
2.17625
2.08707
3.22898
0.686734
0.531516
2.84587
2.35204
1.69404
1.04334
2.83871
0.730256
1.45272
0.895497
0.832649
0.36286
0.416525
0.484146
2.04433
0.507263
1.71908
2.28748
3.03942
1.4069
0.395874
1.72736
2.56827
2.36844
1.08873
2.30461
3.21015
0.428751
3.39806
0.175845
1.73751
2.21598
1.04359
3.53633
0.933177
0.166254
1.48041
0.384099
1.15185
0.913645
0.53918
1.42101
0.883141
0.802908
1.60148
3.04611
2.52385
2.17195
2.28762
0.134318
0.503958
1.78291
2.3758
0.32403
2.30376
0.481905
2.6504
2.46678
2.26115
1.36559
2.07442
1.14652
2.00785
2.14745
1.99512
2.52689
0.0736771
3.05135
2.66683
1.57942
2.97461
2.0243
0.141918
0.634538
0.507123
0.705852
0.896231
3.056
1.21416
3.0683
1.69947
2.8327
2.99996
2.84781
1.86302
0.367365
1.0386
1.84657
2.47392
2.32341
1.37433
0.800923
2.25794
1.53617
1.02597
1.25327
1.21561
1.65868
2.3018
0.519156
2.26995
2.52714
0.473946
1.00693
2.13179
2.3698
1.11524
0.997848
0.654574
1.02683
2.82262
2.12036
2.32587
1.37886
2.80924
2.2785
0.697356
0.551362
2.59368
1.12324
2.77262
2.2169
1.99293
1.09398
1.52479
2.27689
1.07485
1.09883
2.42414
2.37131
2.88908
2.34345
2.19661
1.26056
0.351515
1.77008
0.574319
2.37276
2.36546
1.11245
1.82689
1.61268
2.46011
1.1656
1.01397
0.781545
2.2832
0.478606
1.09333
2.70781
2.87956
2.46546
2.37975
2.42395
2.56817
1.34867
2.25614
0.662738
0.0905938
1.21336
0.0729479
1.22557
0.937164
1.8739
2.48831
1.94668
2.26567
2.46363
2.38409
1.73196
2.36363
1.03306
1.90851
2.07083
1.01554
2.61037
1.77309
2.01838
2.15069
1.71066
1.83612
1.7143
2.46974
1.31945
2.11717
2.09184
3.49683
2.20448
2.62145
2.62039
2.30696
1.56918
1.02007
1.49294
0.926566
1.53744
2.19438
0.573466
1.30192
3.09739
1.55324
2.28176
2.04719
1.21994
1.84431
0.427275
0.337419
2.45977
0.543415
1.52785
2.6243
1.94846
1.26746
2.22096
1.80545
1.64462
2.49416
1.36975
1.72695
2.33475
1.44712
1.89245
1.48364
2.04131
1.33258
2.47077
1.48076
1.8233
2.3411
2.14126
1.38324
2.33714
2.04969
2.05785
1.20775
1.82295
2.39623
1.16658
1.81001
2.34404
2.07589
1.31343
3.00098
2.25343
0.286765
1.86873
2.34155
1.23935
2.92319
1.88067
1.31324
2.42902
1.39105
1.98912
2.71791
1.4473
1.32678
0.909943
0.976413
1.68919
2.03691
1.43559
2.16431
2.68643
2.24955
2.40496
1.30729
1.60778
1.60633
2.46887
0.945565
2.32279
1.1178
2.05129
1.41135
1.71567
2.72175
2.77435
2.41176
0.524001
2.96317
1.7305
1.94728
2.33492
2.4191
2.07723
0.375413
1.72435
1.86854
1.58027
1.74668
1.44234
2.62407
2.3326
1.97434
1.76101
2.47134
2.1409
2.10983
1.42614
1.57468
1.57493
2.75999
1.43703
2.48986
1.27245
1.78838
1.98076
2.42464
2.00502
2.44225
0.543159
0.585024
2.1708
2.02887
1.77776
2.44974
2.68851
2.31879
0.962378
2.45042
1.38953
2.45622
2.18063
2.486
2.50189
2.52601
2.59138
2.70496
2.7464
2.78396
2.82145
2.85787
2.95881
2.99089
3.02144
3.07479
1.82499
1.94655
2.65479
2.29062
1.41921
2.41276
2.27977
1.57088
1.6843
0.069792
2.07466
2.1279
0.522998
1.56343
1.87271
2.33609
2.46955
2.27389
2.33793
1.16574
1.42462
0.268932
2.4172
1.97452
2.27445
2.25051
1.50738
1.43024
1.70899
0.258253
2.42602
1.13575
1.05252
2.19858
1.90998
1.69494
1.01955
2.3665
2.00249
2.63161
2.46184
2.22522
2.92655
2.10341
1.76663
2.1597
1.68931
1.9545
2.12158
3.33266
1.79732
0.876303
1.84136
1.99924
0.0805314
2.55804
1.87852
3.24448
2.66215
2.32022
2.19223
2.56481
2.01371
0.450193
0.0723707
1.74246
2.39208
0.844334
3.20037
1.61614
1.83856
1.5197
0.976934
2.04414
2.89247
2.60123
2.72044
1.14552
2.03385
0.0786704
2.24477
2.07373
2.11113
2.46178
1.78587
1.87742
1.68617
2.05639
0.113311
2.10102
1.6904
1.05423
1.01677
2.49406
1.55853
2.79066
1.95688
1.81106
2.5236
2.68929
2.49572
2.12738
2.56332
2.06363
2.87589
2.5597
1.68095
2.3154
1.75869
0.407422
1.06569
0.654012
1.90314
1.77943
0.988988
2.15213
2.15679
1.63019
1.2548
1.65158
2.29686
2.79494
2.28643
2.33514
1.8363
2.66472
1.4166
2.74433
1.99815
1.72454
2.32925
2.36415
2.68036
0.439328
2.22724
1.25259
1.62588
1.36022
1.83306
2.7359
1.67511
3.03692
2.13586
2.60923
2.07097
1.67982
1.97955
2.53896
2.51828
3.02269
2.50221
2.20125
2.85393
2.30415
1.79784
2.33915
1.87497
2.24008
2.81707
1.67594
3.10807
1.86739
2.59805
0.781647
2.63578
2.81676
2.35971
2.12234
0.833046
0.0718052
1.77668
1.87252
2.27139
2.2571
1.81345
2.27055
2.82768
2.53383
2.44592
2.17571
1.60136
1.7139
3.02677
1.76284
2.83956
2.36223
1.75964
1.17815
1.51463
2.21896
1.27577
1.76935
2.38415
1.04284
1.86945
2.39843
2.3124
3.00297
-0.000352855
2.19802
1.40108
2.18982
0.949611
2.36051
2.72074
2.3706
2.23794
1.93473
2.05579
1.73438
1.82982
2.55528
2.29613
0.217045
2.09764
2.04093
1.06495
1.96884
2.11131
1.99506
2.25157
0.34831
2.80091
2.30097
1.93437
1.02608
1.96488
0.988161
2.51737
1.15633
2.18747
1.492
2.26614
1.81567
1.86406
2.14967
0.946107
1.99199
1.86125
2.84353
1.41421
1.87677
1.8596
1.85423
2.71643
2.06811
2.54801
2.19538
1.48748
2.70229
2.41082
1.46274
0.620029
2.45117
2.3214
1.85799
2.24096
2.22534
1.33488
2.58325
2.20164
2.06559
1.98131
3.12883
2.21582
2.57517
2.28767
0.906091
0.240145
2.06333
2.07391
2.87255
2.00198
2.34285
0.938969
3.45211
3.36057
1.22993
2.92964
3.48801
2.25779
0.178932
2.84681
2.79498
1.61226
2.19223
1.53123
0.249995
2.76914
2.64038
0.250938
2.35971
1.4752
2.36567
2.67933
2.27355
2.29557
2.23599
1.61722
1.43244
1.95867
2.6106
2.31424
2.931
1.89038
2.53321
2.10152
0.741459
2.09768
1.70583
2.76146
2.03289
2.78402
1.64312
2.4232
2.27639
2.7724
2.06318
1.82593
2.28819
1.0117
2.09753
2.68926
2.09096
2.8266
2.11761
2.13404
2.43043
2.58662
2.41615
2.13951
1.15552
2.27009
1.31601
2.01534
1.82084
2.33094
2.14291
2.36996
1.63831
2.41867
2.30161
2.25875
2.61302
2.68546
1.65797
0.120435
1.88606
2.91439
0.509223
1.71525
1.99995
0.929205
2.26427
2.12904
1.66935
1.2864
1.3049
0.999321
2.25611
2.16018
2.26795
2.32988
1.65982
3.15821
2.42434
2.27064
2.28901
1.47673
0.969826
2.13703
1.25023
1.93674
3.18209
2.83298
2.7956
1.71968
2.04674
1.43616
2.46171
2.75949
2.67527
2.79482
2.81938
2.16692
1.19859
1.51529
2.43911
2.18912
2.83937
0.314694
1.91271
-0.320561
2.24802
2.34498
1.35017
2.25371
2.281
2.34634
2.80765
2.76718
2.60941
2.77914
2.61536
2.61932
0.346948
2.24139
2.26555
2.5558
2.21589
2.27345
2.59703
2.53474
1.21077
2.33022
2.69685
2.76887
2.42745
2.78036
2.19692
2.1898
2.44242
1.80168
3.36502
0.629328
2.39953
2.50301
2.08123
1.80683
2.31969
3.42126
2.21112
2.50189
1.83048
2.3855
0.966707
3.02956
2.3165
2.23098
2.4109
2.37427
2.48987
3.27436
3.10352
1.74266
1.04534
1.68396
0.98236
2.25342
1.75387
2.48991
0.358011
1.43323
2.65201
3.23992
2.23373
0.0333208
3.49682
2.40947
2.62828
1.62359
2.83131
2.36061
2.55437
2.80202
0.151373
2.74758
2.25144
0.80509
2.49192
2.46062
2.50199
3.28907
3.29616
1.89369
2.41516
1.27623
2.24644
2.26742
0.536339
2.79004
2.41391
2.27467
2.64124
1.90002
0.309843
1.85201
2.21008
3.11087
2.28249
1.52188
0.679694
1.73853
0.515332
2.24691
2.29651
1.91847
2.31095
2.34484
2.30945
0.122591
2.34063
1.73557
2.42241
2.49099
0.576571
0.0145435
3.35618
3.20592
3.47222
3.05624
2.38438
1.65407
2.38471
2.34576
0.930646
3.16682
2.58691
1.10134
2.73852
2.66186
2.62435
2.45466
2.35384
2.96879
2.45892
2.50249
1.80668
2.50588
2.52343
2.72701
2.76212
2.80008
2.83599
2.9692
3.0035
2.6634
2.34431
3.60999
1.85754
2.63493
2.3189
1.75786
2.64533
2.51327
1.9674
2.37094
2.48951
2.3426
0.710123
2.3142
3.25144
2.6045
3.20243
3.08329
3.47102
2.50279
2.46808
3.29387
2.37638
2.94022
1.14487
1.69586
1.25981
2.35647
2.64953
2.54825
2.37307
2.52281
2.34422
2.66004
2.28644
2.66
2.35741
1.30297
2.16766
2.47331
1.86692
2.44416
2.16153
3.83395
0.16091
2.68358
1.83158
2.02826
1.77483
2.64713
1.59917
2.35584
0.432771
1.82808
2.64867
2.30502
2.15808
2.1211
0.358687
2.66534
2.87202
2.3119
2.29502
2.64016
1.84343
1.49761
2.83984
0.261139
2.4918
2.24458
2.38808
0.113092
1.2506
0.225007
2.3807
2.82092
0.173003
1.9
0.622806
2.51973
2.21485
0.768019
2.26829
2.39429
3.35607
0.565326
2.53847
1.35655
1.10123
1.15914
2.90546
2.47838
2.35233
2.33376
3.06597
2.22399
2.80379
0.0808223
3.07661
2.71512
0.166928
2.42116
2.59885
0.869018
0.535378
2.27853
2.28536
3.42961
0.624801
2.29456
2.28259
0.28052
2.40333
1.47024
2.22266
2.9263
2.24376
2.21857
1.90776
1.8403
3.12283
3.22962
1.45892
2.43898
2.30477
3.085
2.47416
0.912672
2.57442
2.42793
2.44143
1.24203
2.29226
2.71845
2.35485
2.58942
2.32855
2.36433
2.34062
2.38333
0.30133
2.15872
3.44724
1.15975
2.00037
1.80752
3.91545
2.66707
0.0142945
0.03338
2.84009
2.83804
2.12477
2.37433
2.35049
0.32736
2.15138
2.17445
2.79976
1.647
3.00224
2.1762
2.47184
3.27481
0.859785
2.19934
2.5509
2.58487
2.15826
1.93442
3.18559
2.45871
2.70907
2.34154
2.39095
0.662565
2.8764
1.59766
0.918954
2.34451
2.62905
1.42886
1.94977
2.40668
2.72748
1.71457
2.291
1.55617
2.17679
0.960945
2.45693
1.61295
2.68525
2.2857
2.85688
1.94995
0.534122
1.24855
3.44045
0.314784
2.35363
2.33097
3.14426
2.52294
1.34244
2.0868
2.31648
2.34043
2.52662
2.34048
2.72247
2.0308
2.77135
2.26592
2.11434
3.16674
1.69832
2.16423
2.90296
2.75002
3.55549
2.35305
2.24026
1.17552
2.38302
2.43093
2.69865
2.01419
2.24516
1.16038
2.24641
1.62579
2.56396
2.2488
2.49054
1.42806
2.26481
1.13048
2.73735
2.27416
1.25212
0.454692
2.61939
3.48931
2.48714
2.20841
2.0297
1.79241
3.22103
2.28897
0.156148
2.46054
2.41229
0.0857781
1.96912
2.25923
1.95386
1.72806
2.71223
3.14536
3.10971
2.30786
1.63854
2.32412
0.887561
2.96797
3.40164
0.59828
1.94541
2.61586
3.41614
0.239696
3.13736
3.42929
2.29607
1.79448
2.01043
3.16116
1.86876
2.37058
3.64805
1.77408
3.18588
2.14419
2.14056
3.38521
2.90157
3.17943
3.10548
1.5543
0.128203
2.89211
2.53833
2.00511
2.51601
2.56596
2.37129
2.18726
3.155
1.7543
1.76938
2.44095
2.60107
2.18519
2.38266
2.51537
3.12708
2.45153
2.1706
3.3681
1.51283
0.387988
2.46428
2.33283
2.49032
0.749801
1.8945
0.21833
2.5828
2.31069
0.278701
1.35063
1.52839
0.824282
2.57522
1.98847
1.80224
2.12444
2.33424
1.94316
1.64761
3.12323
2.22882
2.23266
1.32072
1.98905
0.686382
2.36703
2.71222
2.55548
2.87876
1.85208
2.68547
2.90704
2.97174
2.19051
3.36022
2.17266
3.13774
2.44514
0.097566
2.24476
2.23442
2.20085
2.78174
2.32534
1.35369
3.30522
1.82318
2.8027
2.26365
2.79451
2.56312
1.64994
2.24475
2.36151
1.44489
1.08123
1.97804
2.29962
1.75461
1.77853
2.36545
2.86608
1.86607
2.23042
-0.00782292
3.65445
3.46916
1.86677
1.31321
2.22909
2.24234
2.3546
0.835283
2.64298
2.31581
1.11279
1.03507
2.41416
1.13625
2.21616
2.32601
3.16417
2.35112
3.25109
1.11379
1.97105
2.04645
2.7913
2.67022
2.4247
1.67558
2.05287
3.08215
2.26635
1.30618
0.394755
1.65482
0.115522
2.50043
2.08052
2.18637
1.69624
2.83278
0.676311
1.71229
3.0312
3.05764
2.17343
1.33542
2.98361
0.831547
1.20278
2.65158
1.20565
3.66715
2.25358
3.14532
2.54976
0.397296
1.83023
3.33098
3.18466
2.08595
2.12823
1.76875
2.7624
2.69868
2.00516
1.3473
2.55035
2.33259
0.141663
2.29977
2.33373
2.35847
1.78214
3.68462
2.05959
2.17821
2.3404
1.22456
0.209672
1.41113
2.14625
3.18874
2.49233
0.484028
1.1484
2.40972
3.35049
0.783119
1.10957
2.59754
2.37221
3.28082
2.222
3.22472
3.18028
0.737516
3.10153
3.16972
2.25521
2.61715
0.73183
3.19548
1.24956
0.525794
1.85911
2.97444
1.93871
2.99152
1.41286
3.71209
1.61422
0.110692
3.33297
2.32813
3.46831
2.74216
2.49633
2.20747
2.34753
3.25787
1.17296
0.602156
2.70713
1.10477
3.99985
2.44544
2.44796
1.5231
2.57671
2.68209
2.35332
2.2451
2.31031
2.09056
2.338
1.28631
2.09508
2.41547
2.33166
2.40868
2.73364
2.53592