/*--------------------------------*- C++ -*----------------------------------*\
  =========                 |
  \\      /  F ield         | OpenFOAM: The Open Source CFD Toolbox
   \\    /   O peration     | Website:  https://openfoam.org
    \\  /    A nd           | Version:  7
     \\/     M anipulation  |
\*---------------------------------------------------------------------------*/
FoamFile
{
    version     2.0;
    format      ascii;
    class       volScalarField;
    location    "33.5";
    object      p;
}
// * * * * * * * * * * * * * * * * * * * * * * * * * * * * * * * * * * * * * //

dimensions      [0 2 -2 0 0 0 0];

internalField   nonuniform List<scalar> 
7807
(
0.221977
-0.0225117
0.334597
0.206668
-0.000696011
-5.28535e-06
0.329362
-0.0037226
-8.0606e-05
0.0784953
-5.07899e-06
0.00124232
-0.00568934
0.0352996
0.0821741
-0.0130318
0.233906
-0.00767871
-0.00180421
-0.0848324
0.0478108
0.000736734
0.0244547
0.160084
-0.0100446
0.230548
-0.000650843
0.0450952
0.132984
-0.000886248
-0.0156647
0.457042
0.0238186
-0.000296785
-2.13527e-05
0.0628138
-0.00076983
0.318986
-0.00542933
-0.000122752
-0.00528285
-0.0122019
-0.0973422
-0.0830542
-5.31663e-05
-1.61164e-05
0.000714602
-0.00546242
-1.81078e-05
-0.0848515
0.00211062
0.0424228
-0.0126427
-0.0144203
0.0620009
-0.00363547
-0.0016277
-0.0035577
-0.0229061
-0.000286828
1.35135e-06
0.00287836
0.0356441
0.00142705
-0.000418281
-0.0158655
-6.91556e-05
-7.4406e-07
0.0507705
-0.00515353
-1.45768e-05
-0.056174
-0.00977074
-0.0167613
-0.00747848
-0.0327961
0.330696
0.0468296
0.030438
-0.0514792
-0.00551559
0.281573
0.0734214
-0.0193504
-0.00147391
-0.00126101
-0.00421708
-0.0123702
-0.000618921
-0.00257299
0.136097
-0.0943986
-4.20779e-05
-0.00106114
-0.00230661
-0.0152437
-0.0534804
-0.0119498
-0.00153288
-0.000537085
-0.03066
0.0381116
-0.0022176
-1.36625e-06
-0.0844971
0.139943
0.386006
-0.00379553
2.60412e-08
0.0187693
0.193618
-0.0686501
-4.42406e-07
0.0201976
0.140221
0.000104615
-0.0929924
0.109819
-0.0410308
-0.0181661
-0.029294
0.267747
-0.0927369
0.00649441
-0.0283608
-0.000853966
-0.0135143
-0.00071494
-0.000443991
-0.0157303
-0.149933
0.0317755
-0.000401515
-0.000691369
-0.0198586
0.186519
0.32402
-9.74876e-07
0.00562752
-0.0401471
-0.0153768
-0.0555409
-0.0343768
-0.0161127
0.385091
-0.0321651
0.133819
-0.0245952
-0.0198814
0.267391
0.059595
-0.0823185
-0.00141124
0.0301216
0.0731407
0.297002
-0.0391575
-0.00541009
0.395837
-1.56441e-05
-0.00170916
0.166066
-5.87893e-06
-0.00275935
-0.00257556
0.208091
0.208619
0.412815
-0.00286699
-0.00183908
-7.71142e-07
-0.0248047
0.000104476
-0.0159542
0.00623195
-0.0197275
-0.0617105
0.112434
-4.81057e-05
-0.000381265
0.211838
-1.14919e-05
-2.2661e-05
0.333919
-0.0277823
-0.0545533
-0.039169
-0.0169339
-0.0347004
-0.0410797
-5.63621e-06
-0.0511614
0.118253
-0.00235142
7.77112e-06
0.15779
-0.000693214
-0.0148275
-0.0320287
-2.87543e-07
0.000155861
0.191563
0.147419
0.294805
-0.0863913
-0.0641134
-0.152182
0.0497338
0.188645
-5.82149e-05
1.15645e-06
0.361084
-0.0110939
-0.000391949
-0.0494454
-0.0142187
0.269816
0.274663
-0.0602386
0.444481
-0.000649095
-0.00731789
-0.0310117
0.060519
-0.121233
0.191417
0.390968
-3.52933e-06
0.00712443
0.117945
-0.00462978
0.10709
-0.000591476
0.446154
0.289234
-0.00400537
3.19701e-05
-0.000112859
0.109272
-1.74576e-05
-0.00834521
-0.0431966
-1.87998e-05
-0.00157101
-0.000514733
0.123339
-7.54585e-06
-0.00265997
-0.0507795
0.452492
0.0240927
0.417914
-6.06455e-06
-0.0339227
-0.000142143
0.311173
0.00271474
0.325016
-0.00170671
2.52033e-05
-0.0116692
0.052416
0.000214833
-7.79509e-05
0.000164603
-0.00492548
-0.0573864
-5.94815e-06
-0.0377267
-0.00246417
-4.63616e-05
-0.00043502
0.318383
-0.00497727
-0.000323893
0.408972
-0.00160957
0.211254
-0.00014448
-0.00801
-3.50421e-07
-0.034608
0.0577331
-0.0530229
-0.0239203
-0.000335099
-0.071256
-0.0102675
-4.31555e-05
0.000157243
-0.00244368
-0.00519228
0.00185912
-0.00124843
-0.018619
-0.0523759
-0.0174097
-0.0695943
-0.0219043
0.292895
0.305447
-0.000993232
-0.0868758
-3.779e-07
-0.00289589
-0.0149851
0.15563
0.083765
1.35891e-05
-0.0026901
-0.021357
0.13169
-0.000858591
0.00238281
0.0005543
0.0172006
-0.164902
0.286005
-0.000893031
-0.0266393
-4.55778e-05
0.00164248
-1.18145e-05
-0.0214486
-0.000133978
-0.00421895
-0.118933
-0.0322168
-0.00644177
0.00635561
-0.00030988
0.0134153
-0.0131844
0.0510244
0.126423
-0.195168
-0.0899054
-0.0104751
0.00338267
-0.0430715
0.41992
-0.0785889
0.0276696
0.436425
-0.000868827
-0.00122729
-0.0920509
-0.00120591
-0.0287942
0.00477246
-0.00166886
-0.00117231
0.12532
-5.53586e-05
0.000201362
7.9361e-06
-0.00205861
-0.00835971
-6.83881e-07
-0.000569133
-0.0219515
0.367299
-0.00644271
-0.0106168
0.365566
0.238004
0.0409088
-0.0739233
-0.0248571
0.00313194
0.201659
-0.00758581
0.24432
-0.039194
-0.112646
0.149966
0.247347
-0.0337158
0.0774254
0.189638
0.221883
0.0480149
-0.00225438
-0.00336362
-2.53447e-05
-0.0089582
-0.00768353
0.000141078
-3.06034e-05
-0.00106763
-0.0691983
0.0532913
-0.0133693
-0.00633758
-0.00249015
-0.0278722
-0.00499443
-0.000566195
0.161898
-0.00106167
-1.4265e-05
-5.90088e-05
-7.91809e-06
-0.0165311
0.12127
-0.00266266
0.0257636
-0.134196
0.310397
0.000806012
0.00478051
-0.00407047
0.307449
-0.000517094
0.283073
0.13699
-3.25931e-05
-0.0411542
-0.00204188
-0.0545832
0.000214881
0.0492068
-0.0024403
0.00435223
-0.000428347
0.110186
0.134626
-0.0611205
-0.0235697
-0.00261966
-0.0317926
0.0281725
0.448244
-0.0867879
0.00184148
-2.67351e-07
-0.0104575
-0.00135053
0.0115875
-0.105096
-0.0988196
0.328882
0.120491
-0.139658
0.167193
0.298124
0.0274647
0.000319862
0.213139
-0.00107413
-0.000103299
-0.0104324
1.26954e-05
-0.167271
-0.00661231
-0.031803
0.000959466
0.162252
-0.00106023
-1.22828e-05
-0.118125
0.00086451
0.000668192
-0.0302152
-0.0352327
-0.0486046
0.119296
0.0961349
0.0991266
-7.41629e-05
0.0444468
0.0578914
-0.000415382
-0.0130709
0.000240528
-0.00220563
-0.0137618
0.00331206
-0.000759717
0.102866
-7.06332e-06
4.64223e-05
0.00109422
-0.0150866
0.0170042
-0.0282717
-0.0184422
-0.051933
-0.140193
-0.00746872
0.206355
-0.103366
-0.00504594
0.446325
-0.0538825
-0.00878323
-0.0183735
-0.011531
-0.0134634
-0.00799631
0.0237002
-0.0858593
-1.43228e-05
0.0202401
-2.70531e-05
0.290962
0.0604343
-0.00362303
-0.00876187
-6.69523e-05
0.281856
0.268071
0.0265447
0.112498
-0.0591593
0.329687
-4.90457e-05
0.00225328
-0.0110639
0.118473
0.402093
0.0146175
0.115127
-0.00547233
-8.18739e-05
0.0980541
-0.127944
0.295494
0.00344426
0.17738
-0.00527962
0.313335
0.253915
-0.00688917
-0.00589973
0.0743789
-0.0361682
-6.20747e-05
-0.0101722
-0.0398576
-0.0696771
0.00921535
0.00671573
-8.80584e-05
0.272044
-0.0042627
-4.00376e-05
-0.0480498
-0.000326581
-8.79206e-05
-0.000737931
0.178532
-0.103587
0.378376
6.69115e-06
0.17711
-0.0383824
-6.76435e-05
-7.78165e-08
0.130884
0.170912
-0.00322362
0.152568
-6.30002e-08
0.162115
-0.186356
-0.00714251
0.309868
-0.046575
0.104055
-0.0169295
0.16041
0.168365
-0.0135257
-0.0171715
-0.00761143
-0.00183717
-0.00011472
-0.00411757
0.229343
-1.20884e-05
0.155073
-0.104381
0.260178
0.146226
-0.0394412
0.377728
-0.00118609
-0.00631641
-0.0727342
-0.0137354
-0.00512205
-0.0411565
0.0141877
0.423055
2.4548e-06
-0.00138635
-0.0645142
-6.28446e-07
0.298785
0.000898918
-1.1674e-06
4.11965e-05
0.00012653
-0.019926
0.0111013
-0.00105012
-1.84368e-05
-0.00532394
-0.00197999
-0.111244
-0.0323652
0.0178274
-1.63377e-06
-0.178972
-0.00941992
0.0809738
0.251935
-5.39737e-05
0.0884
2.7379e-05
-0.00910432
0.0701496
-0.00536067
0.194194
-0.0104314
0.00510554
0.0730382
0.117715
-0.00102114
-0.00772631
0.142824
-0.0815291
0.318554
-0.0073803
0.222862
-0.0070412
-0.000686379
0.108646
-0.0116735
0.0663798
0.0009493
-9.95975e-07
-0.12742
0.155781
0.000231861
0.0767945
-0.00986891
-0.178133
-0.0203112
-0.029625
-0.00116006
-0.00529384
-0.0659424
-0.0202309
-0.00728536
-0.000160867
0.338531
0.0836966
0.0250508
-9.92052e-05
0.25105
-4.30164e-06
-8.89438e-05
0.0938193
-0.00850656
0.130378
0.0440426
0.011909
-0.0742312
-0.142986
-0.0507769
0.000585537
-0.0299938
-1.62242e-05
-4.87284e-05
0.186898
-0.0129147
-0.0019899
-0.0255118
-0.00134166
-0.0004647
0.406193
-0.00784017
-0.000424707
3.00717e-07
0.107447
-0.0297074
-0.000271245
-0.00173562
0.126132
0.058709
-0.0318916
-2.83191e-06
0.140601
-0.0171499
0.152666
0.0140095
0.0179396
-0.0222687
-3.70224e-05
0.0711024
0.0506327
-0.0149382
-0.0982217
0.228359
0.00421978
0.138335
-0.00684202
-0.0450232
-0.000181877
-0.00814022
-0.000137028
0.126025
0.206469
-0.00110404
0.0137474
-0.0123473
-0.0835851
-0.0903818
-0.0011792
0.000890464
0.394363
-0.0324242
-5.34335e-05
0.0584884
-0.00551743
0.338757
-0.00939177
-0.019389
-0.0186355
-0.0214864
-0.0133067
-0.00569066
-0.00742104
-0.000481282
0.00723259
1.50648e-05
-0.179204
-0.0546627
0.28823
-0.0307746
0.136196
0.001071
-0.0746406
-0.0266714
0.164979
-0.00573419
7.30151e-07
-0.0173558
-0.00688826
0.00418784
-0.0184832
-0.0176754
-0.0553215
-0.00965625
-0.0220667
-0.0766017
-9.026e-07
0.0206232
-0.0662791
0.111944
-0.0844567
0.0661508
-0.0976771
0.262166
-0.0138339
-0.0227086
-0.034118
0.353853
-0.150435
-0.00965374
-0.12753
-0.0560626
-0.120563
-0.0762692
0.134061
-0.00207415
0.196428
0.00653478
-0.000304054
-0.00133876
0.0494161
0.443255
-0.000976321
-0.040606
0.132757
2.01119e-07
-0.0164934
0.0229864
-0.0296033
0.0066658
-0.00152595
-0.0367591
-0.00485431
2.36566e-07
-0.0448719
0.204698
-0.0120793
-0.0118747
0.000986752
0.132519
-0.000333927
-0.000789073
-0.000170911
-0.00101513
0.00238251
-0.016102
-0.00406773
-0.0138339
-1.02754e-06
-0.137341
-0.116283
-0.155875
-0.0256565
0.0107396
-8.9082e-05
-0.0126885
-0.0510974
-0.0149807
0.260975
-0.00167039
-0.0441735
-0.00379366
-0.010206
0.112082
0.000146132
-0.000104797
0.0827199
-0.0277542
0.00834683
-0.00224046
-0.00116973
-0.0496872
-0.000152371
-0.015392
-0.00798405
0.223349
0.204158
-0.0668034
-0.0656997
0.00512636
-0.00650036
-0.0392153
-0.0757703
-0.0308335
-1.31808e-06
-0.0415522
-0.015864
-0.0829057
-0.00904543
-0.0298656
-0.000228336
-0.00209206
0.147984
-0.0215438
-5.29753e-07
-0.00166174
-0.138547
-5.52257e-05
-0.0369212
-4.28964e-05
-0.00110985
-0.107983
-0.0648146
-3.46143e-05
8.09833e-07
0.0918055
-0.0590574
0.282118
0.213384
-0.0430946
-0.000871546
-0.0267609
5.13835e-05
-0.146876
-0.112609
-0.0546158
-0.0122638
0.206037
-0.00129457
1.85564e-05
-0.00419093
-0.149102
0.00102436
-0.0439376
-0.0500976
-0.00923411
0.0115014
0.0475829
-0.00312156
-0.0202794
-0.0976277
0.139403
-0.0515228
-9.63509e-08
-0.129274
-0.0424115
-0.0605225
-0.00252367
0.000295686
-0.00536984
-0.113965
0.0181191
-0.0176357
0.088303
-0.0699794
-0.000734448
0.00918687
-0.00504654
-0.0190088
-0.156732
-0.000124213
0.106322
0.154138
0.00386006
0.160121
-0.0905799
0.0283733
-0.0600034
0.14752
0.0699765
0.423989
-7.88656e-07
0.0660419
0.128875
0.00831593
-0.000738838
-0.00859592
-0.0560315
-2.59031e-06
-0.0107171
-0.0582865
-0.00920373
-0.0126458
2.14374e-05
-0.129434
-0.000264534
-0.000291937
0.177314
0.000112726
0.0239883
0.00904879
0.152337
0.000348539
-0.000396841
-0.141196
0.000533501
0.27106
0.000408289
-0.0593227
-0.000212408
-0.00021776
-0.00224954
-0.0800459
-1.63763e-05
-0.0047058
0.0137823
-0.00066277
-1.15691e-07
-4.08306e-05
0.109588
-0.0694639
0.00150204
-0.00039844
0.00230865
0.00869231
0.00161451
-0.000227951
0.28077
-0.128059
0.162685
0.238801
-5.37912e-05
0.0143269
0.0715081
-0.000358618
-0.000157063
-0.000471884
-0.042457
-0.00290414
-0.0236517
-0.0289343
-0.0662174
0.123369
-0.128642
-4.59838e-07
-0.0118909
-0.0165401
-0.0186233
-0.00192586
0.00122273
0.000386142
0.0158002
-0.000166779
-0.000232856
-0.0120624
-0.00236403
-0.0153314
-1.14329e-06
-0.00899558
0.0192572
-0.0542953
-0.0584415
-0.00477788
-0.00662646
-0.00475709
-0.00264669
-0.00808621
-0.00460052
-3.66414e-05
-0.000291391
0.0104943
-0.00650858
-0.00267338
0.00266167
-0.0039098
-0.151783
-0.00664616
0.11241
-0.00632875
-0.0428828
-0.0242122
-0.0142163
-0.00890024
-0.0018473
0.000205146
-0.00184608
-0.00692777
-0.00867106
0.141182
0.104163
0.0237033
0.252324
-1.48288e-05
-0.0035104
-0.00830554
-0.00478467
0.0512845
-0.0117148
0.018869
-0.0043059
0.155689
-0.00113074
-0.00104178
-0.00693907
-0.0289847
-0.000114112
-0.0262074
-0.00293065
-0.0114618
-5.41988e-06
-0.00323176
0.000641334
-0.0109002
0.0110095
0.0227579
0.0110437
-0.00810676
-0.0193633
0.0815527
-0.000924462
-0.000914625
-0.000915704
0.367337
-0.000104589
0.0412139
-0.0110642
-0.0125289
-0.0133908
-0.0403512
-0.0155056
-0.0206167
-0.0127181
-0.00265138
-3.2339e-05
-0.00207125
-0.0111462
0.0684208
0.00057583
0.1058
-0.0201089
-0.00816482
-0.000316813
-0.01808
-3.0196e-05
0.105692
-0.0188808
-0.0160729
-0.014946
-0.00447032
-0.0259973
-0.000641023
-0.024359
0.0709175
-0.0150104
-0.0828553
-0.00058573
-0.0155664
-0.0115282
0.00855834
-0.00180623
0.101427
-0.00103211
-0.00927788
-0.00041914
0.115084
-0.0235786
-0.0145693
-0.00143016
-0.00595796
-0.00155584
0.138668
-0.022184
0.152865
-0.00444829
-0.00055202
-0.000507016
-0.00133102
0.127918
-0.041873
-0.00423129
6.43802e-05
-0.0117602
-0.0269014
-0.000779645
-0.0242895
-0.00953786
0.038112
-0.00253711
-0.00440383
0.338013
-0.0398418
-0.0136357
-0.0381068
-9.84175e-08
0.0515037
-0.00176117
-0.0139756
-0.00335693
-0.021224
-8.45534e-05
-0.000271802
-0.00130477
0.00132017
0.145618
-0.0027284
-0.000898625
-0.00255009
-0.0473287
-0.00455081
-0.0111983
0.000709371
-0.00445447
-0.0041435
-0.00174322
0.148569
-0.0279224
0.00121747
-0.00189845
-0.0149293
-0.00671859
-0.0291151
-0.000933699
0.0625636
0.0122409
-0.00459306
-0.00103555
-0.00866899
0.386575
0.14676
-0.00630221
-0.00019852
-0.00129501
-0.0126969
-0.0023171
0.0112345
-0.000243832
-0.0244676
-0.000865181
-0.00857297
-0.128613
-0.000816759
-0.0139497
-0.00058889
0.237928
-0.00450374
-0.00611294
-0.0641111
-0.000720459
-0.0156309
0.0165159
0.339239
-0.00637194
-0.00708366
-0.000844462
-0.000350747
-4.62446e-06
-8.00205e-07
-0.00596435
-0.000332741
0.0682069
-0.000487899
-0.000863307
0.00291513
-8.25964e-05
-0.0271707
-0.0713565
0.00981676
0.0254125
0.0159743
0.0014636
-0.0655513
0.0617068
0.0474131
0.0667319
0.0866582
-0.00665033
-0.000432221
-0.00574091
-0.0797613
-0.00162394
-0.00843251
-0.0139899
0.261398
-0.0621194
-0.00018286
-3.11656e-05
-0.000543311
-2.9027e-06
-0.000605512
-0.000370835
-0.00472236
-0.0284236
0.000126219
0.000818858
-8.05534e-05
0.0329113
-0.00808033
-0.0735737
-0.000983551
0.238803
0.220012
-0.00635952
-0.103611
-0.0160032
-0.0123535
-0.0086021
-0.00100808
-0.092733
-0.0470438
-0.032984
-0.113703
-5.41033e-05
0.138514
-0.0324832
-0.00477005
-0.0448273
0.0098157
-0.00024306
-0.00512039
-0.000555872
0.00076633
-0.00140501
0.118554
6.76072e-05
0.00512896
-0.000128861
-0.135568
0.00418905
-0.00079676
-0.012793
3.69341e-05
-0.0235407
0.0786017
-0.0054171
-0.000675898
-4.0013e-05
-0.000270697
-0.000210054
-0.0367373
0.0883802
-0.0303408
-7.42076e-05
0.000722436
-0.000244233
0.167282
-0.0387386
0.19118
-0.0267262
-0.000153667
-0.000206846
-0.0045434
-0.002833
-0.000447818
-1.62976e-06
0.013014
0.016448
-7.35611e-05
-0.000272542
-0.0110764
-1.58652e-06
0.121437
-0.000527182
-0.0317751
-0.011345
-0.00311318
-0.0347103
-0.0437283
0.10887
-0.0390239
-0.0106727
-0.000100858
-0.0329405
-0.0105083
-0.0331977
0.0562494
0.267258
-0.000438232
-0.0362326
-0.00075986
0.238226
0.0235767
-3.25059e-05
-0.00361248
-0.00197757
-0.00285377
-0.0205073
0.0564983
-2.38979e-05
-0.00158506
3.44382e-05
0.0416794
-0.000202196
-9.22512e-05
-0.125427
0.215466
-0.0324225
0.102985
-0.001316
-7.19172e-05
-2.60907e-07
-0.119649
-0.0178508
-0.000214423
0.0662667
0.00583312
-0.00300955
0.298408
-0.000361792
-0.00243999
-0.0404244
-0.0462378
-0.000989934
0.0963364
-0.0849015
-3.78751e-05
-0.00271621
-0.00011894
-3.82543e-05
0.0978572
-0.0161749
-0.000141224
-0.0266157
-0.0145759
-0.00148935
-0.0537898
0.000860304
-0.0114242
0.000362819
-0.00195354
-0.040713
-0.0232047
-0.00348095
-0.000545036
0.111624
0.152206
-0.133432
0.00183669
0.0102542
-0.0024995
0.120662
0.0696251
-0.0141118
-5.86781e-05
0.0026537
-0.0251291
-0.00499865
-0.0205445
-0.00123126
0.0169486
-0.0176588
-3.14001e-05
-3.46999e-05
-0.0629964
-0.0256652
-0.0135254
0.00314732
-0.0345371
-0.0300038
-9.55739e-05
-0.00101725
-0.000122681
-0.0350359
-4.58602e-06
-0.000979691
-0.0640802
-0.130753
0.0675448
-0.001687
0.00173857
-0.0151205
-0.0141419
-4.74497e-05
-0.0201757
0.0613461
0.113626
-4.07494e-07
-2.54075e-05
0.115996
-0.00144665
-0.111374
-0.017357
0.00136052
-5.3105e-05
-0.0321092
-0.0575747
0.119161
-0.0252932
-0.000647244
-0.0140392
-0.0441106
-0.000299151
-6.75271e-05
-0.000495858
-0.0501585
-0.0277646
0.0963614
-6.79282e-05
0.357152
-0.0648832
-9.09822e-06
-0.000852326
-2.64499e-07
4.21781e-06
-5.13966e-06
3.10042e-06
-0.0274077
-0.000459321
9.00873e-05
-5.58198e-05
0.10091
-0.00301039
-6.01194e-05
-2.97622e-05
0.287092
-0.0138089
-0.0774885
0.00013159
-0.000366973
0.0296254
-4.39167e-05
-0.0164238
-0.175094
0.000785046
-0.00665632
-2.64716e-05
-8.30107e-05
-0.0211636
-0.0842489
0.00344874
-0.158498
-0.0939224
-3.87831e-06
0.0125244
0.0203861
0.0764988
-0.000751634
-4.8954e-05
-0.036915
-0.00320954
-0.000385299
-0.0271408
-4.52634e-05
0.014945
-9.48813e-05
-0.000471802
-0.0470654
-0.00217243
-0.0333481
0.344312
-0.00113729
4.39984e-05
-0.046335
-0.0625011
0.00331803
0.00204806
-3.59047e-05
-0.0182544
-3.43576e-05
0.143874
0.408944
0.0372867
0.00118734
0.00136093
-5.80084e-06
-0.0196792
-3.0526e-05
-0.0107275
-0.000929525
3.30118e-05
-0.00155204
-0.00923055
-2.91963e-05
0.000202301
-0.0106624
-0.000107818
-0.00905025
-0.0105314
-0.0232248
-0.00111554
0.370295
-0.000666434
0.000900383
3.55671e-05
0.00755482
-0.0253537
0.0045707
-6.59664e-05
-2.40254e-05
0.000473057
-4.29675e-05
-2.28786e-05
-0.0109367
0.000175168
-3.59589e-06
-0.0310648
-0.00240216
-0.0266407
-0.000836327
-1.29841e-05
-0.00135952
-0.0208335
-0.0122642
-0.029439
0.000849258
8.10758e-05
-0.000220014
-0.000711345
-3.88952e-05
0.209319
0.000511531
-3.88299e-06
6.90942e-06
-0.00124709
-0.000299906
-0.0294463
-0.0276181
-0.000102494
-0.00407917
-2.74815e-06
-0.00303023
-1.692e-05
0.0223088
-5.32674e-05
-0.000131919
-0.00378339
-1.26366e-05
0.00725348
-9.15536e-05
-0.000554337
0.0108501
-3.22032e-06
0.287064
-0.0337746
-0.0258053
-9.35791e-06
-3.02645e-06
0.000419638
-0.000479231
-0.0410715
-3.26574e-06
-2.29231e-06
0.000145076
-1.97635e-07
7.09514e-05
9.62089e-05
-0.000194896
0.000205187
-0.0284066
0.367494
-0.0368576
0.261782
0.00451045
-0.0155747
-4.31019e-06
-0.000303113
-0.00782439
6.04904e-06
4.71823e-05
1.77892e-05
0.0251868
-0.00144156
-0.000177088
0.336578
-0.000147178
4.15808e-05
0.000111607
-5.88625e-07
-0.0117729
-0.00135781
0.000333593
3.71212e-06
-0.0006655
-1.08257e-05
-0.0011187
-0.028283
-0.000143538
-0.00186071
2.99029e-07
-0.00325767
-6.66596e-05
0.140819
-0.000169145
-0.000302413
-0.02897
0.00153849
-7.82311e-05
-0.000630953
-9.47043e-06
0.12755
-0.0443277
-0.000392048
-0.000120149
-0.00239993
-0.000177451
0.0348936
0.0767275
-0.00496176
-4.0765e-06
-9.08476e-07
3.11016e-08
0.0271705
3.87195e-05
-0.0247236
-0.0330463
-0.0119339
-0.0718039
0.382638
0.000676805
0.146035
-0.0112892
-0.0193393
0.129905
-9.70489e-05
-0.0387807
-3.31172e-06
-0.00567372
-0.0211242
2.09831e-06
-0.0497894
-0.000355182
-0.0242884
-0.0059398
-0.0182841
-0.024742
-0.00390538
-0.0471341
-0.0191794
-2.73332e-05
-0.00553374
-4.54054e-05
-0.0170192
-2.89603e-06
-3.50904e-05
-0.00568746
0.122821
-8.21971e-08
-0.0291672
0.00128592
2.19121e-06
-0.0187237
-2.32027e-06
-0.006047
-0.000168813
-0.0171173
1.10922e-05
-2.94406e-05
-0.0017392
-7.85489e-05
0.119491
-0.0197533
0.0369975
-2.55359e-05
0.000150896
-0.0143319
-5.43463e-07
-0.0352688
-0.0367313
-0.0279914
0.36276
-0.00400567
-2.71218e-06
0.0145777
-0.0192317
-0.0027956
-4.50572e-05
-2.4403e-05
-0.0265701
5.09618e-06
0.000232652
-2.75901e-07
5.3075e-06
-0.0128751
0.0696899
-0.0958731
0.0651541
-0.00316931
1.14155e-07
0.000699755
-0.0524923
-1.16126e-06
-2.94236e-06
5.72055e-05
3.3009e-06
8.24087e-05
0.180371
0.021022
2.32851e-06
-2.41378e-06
-0.033428
0.152451
0.13281
-1.95714e-06
-0.0224052
-0.0177082
-0.0101444
-0.0251556
-0.00851117
-0.00150823
0.104924
-2.38305e-05
-0.0168403
0.126562
-0.0305896
-1.95315e-05
-0.0297882
-5.57507e-05
0.235952
0.0135063
-2.6134e-05
-1.09267e-05
0.139991
-8.31955e-07
-7.63018e-05
-0.00560818
-5.68145e-06
0.193996
2.51484e-05
-0.00350025
-0.0296309
-0.00217198
-0.0858307
0.138795
-0.0221565
-0.0640489
0.000282985
-8.33222e-06
-0.000741369
-1.49551e-05
-9.7288e-06
0.00239972
0.136725
0.112095
-0.00022119
0.188451
-0.0157127
-2.76463e-06
-0.0205536
-1.7492e-05
-0.018464
0.0146185
-0.0135637
0.00141617
0.000618261
-0.00455159
-1.44711e-05
-0.000946508
0.00769077
-0.00112077
-3.32815e-05
-3.59276e-07
-1.22292e-05
0.0194121
-1.31274e-06
-0.0227466
0.1983
-0.00419412
1.926e-06
-0.00163995
-1.0833e-05
0.0339114
-8.3301e-05
-1.57868e-05
-7.61279e-06
-4.25956e-06
0.160287
-8.74691e-05
0.184965
-0.0474491
3.43242e-06
-0.0408879
-0.00051556
0.117636
0.341903
-0.000498718
-2.15126e-07
-4.75206e-06
-6.82156e-06
0.0992191
-3.31611e-07
0.000222519
-0.0107674
0.172752
-1.90065e-06
-3.62181e-06
-1.6459e-07
-5.13188e-07
-0.0131051
-3.79438e-07
0.21754
-0.0145103
-1.55459e-05
3.23564e-07
-0.000797199
-0.0140755
-1.95826e-07
-9.00518e-06
0.124949
4.64291e-07
-0.0206107
-0.0780993
1.09384e-05
-3.43626e-07
-0.182012
-2.21623e-07
0.122609
-1.91988e-07
-0.000200481
-2.08402e-06
-2.39937e-05
0.0658766
-1.60202e-06
-0.000855442
-3.677e-06
0.00195919
-0.00224481
-0.00283813
-0.0018819
0.115212
-0.000276383
-3.04942e-05
-0.00419345
-0.00428149
-4.27113e-05
-6.01839e-05
-0.000521941
-2.73843e-06
0.13029
-0.00914253
0.378873
-2.33237e-06
-0.00426088
-0.000162309
0.0959107
-5.14943e-07
-0.0198001
-5.71165e-07
-0.000764951
-0.021078
-5.9362e-05
-0.0099321
-0.0323525
0.00120615
-1.33557e-05
-0.0602282
-6.09813e-05
-0.000358167
-0.00287653
-0.0226922
0.000215794
-7.12601e-05
-0.000175467
-0.00102601
-0.00057764
-4.26896e-06
-0.000505502
0.338597
6.17791e-06
-0.00146072
-0.0218952
-0.0294831
-0.0377294
-0.0223455
-0.0143502
-0.000610462
-0.0225206
2.67122e-06
-2.59471e-05
0.356357
-2.07899e-05
0.133701
-9.37145e-05
4.51739e-05
-0.000438031
-0.101801
-0.000152333
-0.00143685
-8.45247e-06
-0.000128656
-2.35369e-05
-2.133e-05
-0.00695798
-4.92058e-05
-4.08146e-05
-1.94699e-05
-4.1309e-05
-9.50149e-06
-0.0311831
0.186197
-2.82581e-06
-0.000139029
-8.25754e-05
-4.03617e-07
-0.000278481
-1.75548e-06
-0.00032518
1.31679e-05
-0.00010854
-0.0355857
-0.000271284
-0.00112863
-1.55654e-06
-0.00171416
5.70946e-05
-1.70195e-06
-3.76538e-06
-8.70832e-07
-0.000201191
8.72904e-05
-0.0313982
-0.0225458
-0.0333458
-0.000554312
-0.0022158
-0.0592934
-0.0310637
-1.16749e-05
0.00503194
0.00216624
-0.000275098
-0.00735115
-0.0233503
0.337965
-0.00010782
-3.98449e-06
6.37717e-05
-8.93571e-07
-1.02649e-06
0.0518996
0.000481801
0.0611675
-0.0389143
0.318127
-0.000116686
-1.08529e-06
1.14955e-05
-7.13116e-06
-0.000392818
0.112843
0.167194
-4.71309e-06
-6.84342e-05
-1.24484e-05
0.157811
5.03102e-05
-0.00944268
-7.60536e-07
-5.52359e-07
0.00313133
-0.00016925
-0.0502438
-0.0109438
-6.79732e-06
0.00110446
-0.0260058
-1.37182e-05
0.000436605
-3.84049e-05
-0.0261227
-0.000535657
0.106531
-9.84113e-07
0.000511665
-0.00196316
-1.6445e-06
1.36723e-05
-0.0151161
-1.41688e-06
-0.000241656
-3.75897e-06
-0.00851727
-0.0232826
-0.00358897
-0.00959542
-0.00404155
0.00423087
-0.00530224
-0.00083116
1.88459e-06
-2.39319e-06
-2.84833e-06
-2.14839e-06
-1.05105e-05
0.00342558
-0.0509021
9.38392e-05
-0.0522557
-0.00105396
-0.0532786
4.92233e-06
-1.01465e-05
0.000356653
-0.112067
-1.85208e-06
-0.0493759
-0.011544
-0.035231
-0.0552739
-1.4507e-06
-0.00121737
1.50112e-05
-0.184042
0.0977428
-7.60711e-06
-0.043482
-0.0186951
-0.00157228
-3.65252e-06
-3.09594e-06
0.00563225
-0.00703548
-5.0155e-06
-0.00335254
-1.78565e-05
1.57685e-05
0.0883778
-2.23726e-06
-1.35046e-05
-7.11356e-05
-2.66596e-06
0.000213194
5.38064e-06
-0.00199319
1.36499e-05
-0.00808705
0.000253928
-0.000110934
-0.0322519
-0.0291184
-0.00372642
-2.17748e-06
-2.35158e-06
-0.0687924
0.00227684
-0.0296659
-7.39988e-06
-0.00294724
-1.65795e-06
-3.08129e-06
0.0428017
-0.00266271
-0.000959347
-1.13899e-05
-0.0135458
-5.23298e-07
-0.0419338
-4.06259e-06
-0.0485247
-1.27164e-05
-1.82485e-06
4.77142e-06
0.000267109
-0.124587
-0.00786643
-0.0534148
-6.31739e-06
-1.56321e-06
-0.0450695
-0.0313552
-0.00338559
-3.37822e-06
-0.0579097
-0.0427267
-0.0422767
-8.62846e-06
-3.9327e-06
-2.28549e-05
-0.117121
-0.0543578
0.000121872
-0.00438184
-2.72376e-05
0.176362
7.22295e-06
-8.42203e-06
1.19379e-05
-3.07518e-05
-4.70868e-06
-0.00201055
-4.83625e-06
-0.00147025
-0.0547959
-0.00543139
-0.0221515
-7.76787e-06
-7.64118e-06
0.0258516
-0.0739897
-0.00177825
0.0789092
-3.88599e-05
-6.29096e-06
-5.36052e-06
0.0719883
1.46927e-05
-6.74793e-05
-8.23166e-06
-0.0631198
-0.00659023
-1.49457e-05
-6.19334e-05
-0.00583439
-0.00247172
3.10234e-05
0.169202
-0.0544721
-0.000829652
0.446716
-5.30198e-05
-0.000609637
-0.00800613
-0.0378734
-6.50516e-06
-1.97356e-05
-1.08934e-06
0.0016377
-0.0345003
-0.000194709
-0.0357614
-0.00304912
-1.01805e-05
-1.31749e-06
-0.00410349
-0.0194679
-0.0463252
-0.111318
-0.0243864
-0.0244247
-0.0339522
-0.0208115
-1.71718e-05
3.70101e-05
-0.0158717
0.000109942
-0.000155574
0.000111055
-2.04759e-05
-0.000123108
-0.00491079
-2.339e-06
-1.83938e-05
0.014054
-0.0507121
-0.000267148
-9.20397e-05
-5.53651e-06
0.184747
-0.00411827
8.64528e-05
-0.0215766
3.09926e-05
1.76283e-05
1.78993e-05
-1.64693e-05
7.481e-05
-0.0275988
0.00264998
-1.95217e-06
-0.000208942
-0.0338954
-0.03002
0.0312765
-0.000102606
0.000591691
0.0092764
-7.64812e-06
-5.13703e-06
-0.0509366
-1.24108e-06
0.120766
-2.51198e-05
0.00162213
1.73948e-05
1.96667e-05
-0.0369839
-0.00482861
-0.0116012
-0.000888826
-1.26135e-06
0.00027005
0.0403398
-0.00842693
-5.50259e-05
0.0654213
0.117644
-2.41758e-06
-0.0334804
-2.72755e-05
-7.41162e-06
-8.29383e-06
-0.000127205
0.010679
-3.37496e-05
2.02943e-05
-0.0118353
-0.0163941
-0.0089661
0.232456
-1.87043e-05
-1.96155e-05
0.124639
-0.0178315
-0.00222281
-0.000149585
0.122589
-1.58783e-05
-0.000458958
-3.42795e-05
-3.11268e-05
-1.44415e-06
-2.02225e-06
4.36296e-06
-0.00820403
-1.01479e-05
-0.00226606
-0.025569
0.183992
-0.000337551
-9.77981e-06
0.00182171
0.0579835
-0.0518187
-0.000186398
-0.0302025
0.232917
-7.23394e-07
0.304406
-2.72694e-06
0.000950823
0.013248
7.39269e-05
0.321604
-5.81064e-05
-2.63314e-06
0.000183856
-1.96649e-06
-0.000208055
3.21957e-05
-1.12308e-05
-0.000795499
-4.26798e-05
-6.12506e-05
-0.00154988
0.181516
0.0289466
0.0119716
-0.0220679
-2.01572e-06
-1.41641e-05
0.000841412
-0.0586115
-6.36185e-06
-0.025059
-1.56813e-05
0.0722979
0.0403962
-0.0266592
-0.000651611
-0.0100852
-0.000253444
-0.00620433
-0.00228194
-0.00649881
0.040639
-8.39121e-07
0.195535
0.000450838
-0.00078232
0.158138
-0.00859775
-1.95187e-06
-1.38637e-05
1.91173e-06
-3.09029e-05
-7.67242e-05
0.183205
-0.000376223
0.188859
-0.00132829
0.121075
0.167998
0.0765146
-0.0044162
-7.19982e-06
-5.7866e-05
-0.0041836
-0.167717
-0.0397515
0.000437751
-2.84697e-05
-0.0204896
-0.000583956
-7.35198e-05
0.000265322
-0.00037362
-0.00100462
0.0191326
3.90655e-06
-0.0226581
0.0353855
1.20385e-06
1.78886e-05
-0.012784
-0.0567796
-0.00024654
-0.000148609
-1.7069e-05
8.51797e-06
0.0464728
-0.0130886
-0.0406575
0.000345263
0.0599452
-0.0286898
-1.48753e-05
-9.3139e-06
-0.00819999
-0.000134141
0.0462246
-0.00593601
-0.00571942
-0.000198227
0.000375978
-0.0294
-0.000100443
8.13212e-05
-0.0165605
-0.0446531
0.110531
-0.0327486
-0.0187312
-0.000227858
-7.17687e-06
0.0030159
-5.55041e-06
-0.0405406
-0.052178
0.000108578
0.000670411
0.0014742
-0.134401
0.00012458
-1.07121e-05
-2.21617e-05
-0.0303118
-5.42692e-06
0.000110737
0.0870682
0.132444
-0.154141
0.0315313
0.0295833
-0.00707524
-0.000291138
0.00149671
9.84368e-06
-2.75673e-07
-0.000169024
-8.99478e-07
-0.000138297
-0.000119784
-0.0046831
-0.087108
-0.00623447
-0.0270282
0.0326957
0.0268357
0.00141101
-0.0530719
-2.40333e-05
0.00106825
0.0045812
-0.000159852
0.0489334
-0.00170593
-0.00815827
0.00409258
0.00236183
-0.000815838
-0.00239599
0.0237356
0.000145455
-0.0126665
-0.0115059
0.385897
-0.019671
0.0540007
-0.00814389
-0.0361518
0.000631469
-4.17267e-05
-0.000905266
-3.69505e-05
-0.000840632
-0.018764
-2.35657e-05
-0.000212239
0.219423
-0.00111721
-0.0276889
-0.00785255
-6.75823e-05
-0.00220022
-1.10019e-05
-4.92182e-06
0.0194897
-5.23262e-06
-0.00102326
0.0490143
0.00191223
0.000312389
0.00816946
-0.00349999
0.00162476
-0.159515
0.000133025
-0.00256715
-0.039928
-0.000652809
-0.00501844
-2.05411e-05
-0.0026438
0.000217526
0.017773
-0.000498618
0.00213759
-0.0258048
-0.0144523
-0.000127238
-0.0230234
-0.0095525
-0.00729734
-0.000101281
0.00277479
-0.0739236
-0.000306587
-0.00334622
-0.0220266
-0.00361949
-0.000532805
0.167645
-0.0227707
-1.3413e-06
0.00372225
-0.0458013
-0.00041126
0.14494
-0.00283915
0.000236282
0.0396358
-0.000697507
0.00309025
0.0924031
-0.000296548
0.000307246
3.15126e-06
-5.26816e-05
-0.00166556
-0.00719425
-0.000366253
-0.0155681
0.0672884
-0.0191833
-0.0792665
0.00030912
-0.00161176
-0.000852848
-0.0722728
-4.85095e-05
0.0041041
-8.84926e-05
-0.00689213
-0.000746085
-0.00185946
-0.0813973
0.0818826
-0.0883976
-1.86951e-05
0.148907
-0.00182897
-0.00361171
-0.0340878
-0.0957001
-0.0108627
-9.00332e-06
-0.00144551
0.00301889
-0.00144081
-0.00276618
-0.000125474
0.0588702
-0.0424261
-0.00702011
-0.00254046
0.00353837
-0.00668693
-0.00505101
0.000510432
-0.000524713
-0.00137487
0.0799948
4.60586e-05
-0.175453
-0.000195261
-0.00286802
-0.00456215
-0.107519
-0.00791076
-0.13742
-2.07507e-05
-2.42224e-05
-0.00857857
0.00445883
-8.52273e-05
-0.16785
0.0564465
-0.0375876
-1.98851e-06
-0.190399
-0.000260792
-0.20455
-0.0170722
-0.235428
-0.238627
-0.232813
-0.19668
-0.114698
-0.0816136
-0.0503549
-0.0189457
0.0129726
0.105028
0.135176
0.16281
0.209627
-0.00321367
-0.00565516
0.0331058
-0.0234306
0.000109421
-0.000975309
-0.0285926
-0.000255906
-0.00109522
-9.53859e-07
-0.0105658
0.00909787
-3.76852e-06
-0.000633793
-0.00408718
-0.0172367
-0.233442