/*--------------------------------*- C++ -*----------------------------------*\
  =========                 |
  \\      /  F ield         | OpenFOAM: The Open Source CFD Toolbox
   \\    /   O peration     | Website:  https://openfoam.org
    \\  /    A nd           | Version:  7
     \\/     M anipulation  |
\*---------------------------------------------------------------------------*/
FoamFile
{
    version     2.0;
    format      ascii;
    class       surfaceScalarField;
    location    "4";
    object      phi;
}
// * * * * * * * * * * * * * * * * * * * * * * * * * * * * * * * * * * * * * //

dimensions      [0 3 -1 0 0 0 0];

internalField   nonuniform List<scalar> 
43924
(
-594.953
663.62
-68.6664
1060.62
-1071.17
10.5482
-335.541
383.364
-47.8235
231.698
-260.321
28.6223
-498.873
498.873
225.848
-266.969
41.1207
-358.193
361.964
-3.77115
21.7044
-558.393
536.688
662.943
-833.139
170.196
-1009.22
1102.2
-92.982
549.466
-138.193
-411.273
-529.82
537.312
-7.49142
-687.977
582.738
105.239
-859.825
868.889
-9.06329
259.772
50.5977
-310.37
386.664
-10.7025
-375.961
814.748
-666.829
-147.919
-391.925
389.442
2.48372
161.651
314.761
-476.412
291.563
-358.477
66.9132
-594.176
81.6306
512.546
724.135
-61.1923
50.5316
-386.073
136.673
-489.833
353.16
243.906
-139.823
-104.084
1065.67
-5.04301
659.956
-681.119
21.1633
-272.816
-13.3599
286.176
290.738
-30.9657
-440.286
543.859
-103.573
948.811
-250.167
-698.644
-664.446
752.569
-88.123
238.719
-227.939
-10.7797
476.478
-65.8371
-410.641
143.192
-416.008
271.579
-431.55
159.971
421.629
-574.089
152.459
292.394
-35.1785
-257.215
823.324
-977.321
153.997
1060.22
-236.897
-1017.95
1035.55
-17.601
406.267
-96.8389
-309.428
703.99
110.757
196.252
-306.778
110.526
1228.46
-777.691
-450.765
-591.362
151.077
540.61
-538.739
-1.87051
230.523
645.492
-876.015
223.285
537.334
-760.618
-113.541
535.171
-358.809
158.316
200.493
-18.3656
-224.291
242.657
-659.15
-5.29627
241.706
-15.8579
424.919
-38.2558
-258.588
-59.925
318.513
525.491
-500.257
-25.2336
-34.2095
-559.967
-461.424
38.4258
422.998
-301.163
-20.42
321.583
799.531
17.5772
-817.108
-409.172
570.823
-16.6466
-224.844
241.491
-211.253
482.833
-308.452
429.526
-121.074
263.812
248.999
-512.811
498.131
-129.949
-368.181
428.045
-45.3846
-382.661
-455.338
-33.5076
488.846
-986.518
-31.43
1057.4
8.26449
287.033
297.236
-584.269
-240.431
545.511
-305.08
164.99
92.7967
-257.787
-433.138
382.677
50.461
-359.508
367.865
-8.35723
278.577
-149.619
-128.958
-251.799
-63.2401
315.039
-699.317
16.5522
682.765
409.484
-97.7678
-311.716
-258.138
258.138
95.688
-764.425
668.737
-660.046
65.0925
-947.227
848.213
99.0142
-309.854
-48.3391
-34.4004
199.801
-165.4
521.613
-148.228
-373.385
-644.641
-43.3365
652.591
-69.8531
105.756
79.537
-185.293
-352.366
84.0069
268.359
-312.88
61.081
844.845
-621.56
555.281
-584.519
29.2377
232.599
-99.7908
-132.809
-350.412
121.514
228.898
-13.5789
246.891
-233.312
-846.647
847.258
-0.610536
-24.9007
-165.694
190.595
256.379
12.5215
-268.9
-711.464
12.1465
-269.465
285.504
-16.0387
778.758
20.7735
424.649
-623.66
199.011
202.31
-220.675
-750.655
808.832
-58.1766
634.158
-719.826
85.6684
74.7327
577.858
943.86
-846.97
-96.8905
-224.653
236.397
-11.7438
202.894
35.8248
352.024
112.961
-464.986
1009.09
-256.883
-752.204
19.8217
563.02
-582.842
-13.501
-586.956
600.457
538.807
-251.774
94.0196
428.913
-522.933
-303.661
409.377
-105.717
76.7693
-814.832
738.063
-696.862
456.431
-18.4829
-181.82
200.303
16.047
-852.471
836.424
-294.481
305.465
-10.9835
-42.3
306.112
24.1978
-890.516
866.318
-341.045
325.023
16.0217
-85.2923
-306.633
3.25943
-278.635
275.376
702.237
-785.95
83.7126
726.255
-860.26
134.005
-139.54
335.792
167.42
111.157
190.577
-206.705
16.1282
273.01
-292.255
19.245
-123.722
548.372
621.362
327.449
154.893
62.9976
-217.89
279.382
-319.294
39.9117
200.178
-222.664
22.4853
-32.0668
288.445
-331.754
-9.29104
1.20528
-191.413
190.208
229.066
-66.7278
-162.339
181.122
827.965
-198.078
-739.277
937.355
-101.22
-397.654
522.675
17.9344
221.564
-227.41
5.84628
244.44
-202.304
-42.1354
9.31301
-212.984
203.671
-394.232
626.767
-232.535
56.2783
502.884
-559.162
984.022
-886.238
-97.7837
790.985
-787.105
-3.87969
-573.291
-238.214
811.505
-146.415
722.178
-575.763
457.687
-444.278
-13.4086
-206.008
-9.93059
215.939
43.7831
-768.607
724.824
-159.019
-199.789
-251.351
236.997
14.3534
241.65
-9.95116
32.1493
1020.9
-572.444
-448.454
735.195
-933.273
-401.513
97.8526
19.2806
209.786
16.3924
-778.169
761.777
-90.4098
-856.817
418.991
-453.232
34.2419
-106.54
832.795
55.7984
-736.002
680.203
-206.775
0.766566
279.382
-7.64947
244.414
-236.764
-433.422
433.422
83.4198
678.62
-762.04
-317.641
48.1755
-578.755
598.576
310.516
-284.312
-26.2039
-777.838
-63.2743
841.112
-137.895
442.029
-304.134
426.384
95.2287
427.822
-444.235
16.4123
232.424
-32.246
-219.109
-316.142
535.252
502.51
-381.96
-120.55
-329.136
15.6966
313.439
784.54
-82.3024
-522.085
-77.5856
599.67
-661.15
661.15
-122.295
499.609
-377.313
94.2007
-351.179
256.979
-920.307
347.016
307.7
-360.353
52.6523
437.12
20.5665
815.358
-503.479
-311.879
908.46
-57.1367
-851.323
80.677
151.922
-846.918
613.88
233.038
-15.2822
253.296
-238.014
-216.706
220.961
-4.25525
-39.9842
-489.836
874.492
-889.956
15.4637
-51.882
430.393
-11.4026
787.245
-789.306
2.06146
246.003
-24.4394
11.0237
-235.676
822.141
-963.834
141.693
238.348
-344.979
106.631
570.87
-570.87
899.949
-93.2576
-806.691
594.396
73.0536
-667.45
50.2669
-324.426
274.159
-194.926
260.876
-65.9505
-467.392
329.497
54.8068
732.438
-393.288
529.961
263.173
-182.496
-683.865
-176.395
484.124
-630.539
453.911
-501.577
47.6658
-890.536
1023.52
-132.984
-581.554
555.968
25.5855
505.202
-582.804
77.6018
128.205
726.783
-854.988
211.402
530.601
-742.003
723.33
505.126
321.671
738.55
329.207
-233.11
-96.0967
-298.004
298.004
371.647
-402.765
31.1185
-28.8214
1086.22
271.261
-325.412
54.1512
529.496
-473.218
-297.43
-562.395
551.954
-566.402
14.4487
-29.6773
904.169
252.065
-267.348
-200.78
191.084
9.69581
499.214
-588.048
88.8341
-197.822
958.969
-761.147
588.969
-83.7672
771.125
-384.727
-386.398
340.355
-48.7916
472.019
548.879
-190.531
156.13
-743.858
59.9922
-926.317
35.7802
478.06
47.4311
-679.753
891.155
-685.799
-64.8564
193.646
-200.751
7.10474
-74.0196
915.132
-841.113
-38.0446
-817.797
855.842
187.834
-186.628
25.8894
170.768
-196.658
-10.5404
-366.11
376.651
316.885
-313.626
-599.471
205.239
-226.831
436.738
-209.907
908.533
-678.009
303.734
25.4728
266.254
11.6784
-277.932
-567.918
156.667
411.251
461.692
-33.8692
510.544
-729.653
-352.364
-7.14347
647.546
-746.148
98.6023
-237.328
159.711
77.6162
-656.402
639.033
17.3684
206.611
-214.26
77.8152
185.358
-742.061
825.481
-311.193
305.448
5.74466
68.1285
-364.405
296.277
231.348
-211.089
-20.2595
527.142
-329.014
-198.129
6.12022
-347.457
341.336
-497.776
484.275
-64.1691
271.828
-207.659
-659.167
154.714
504.453
-347.267
-3.14471
653.922
6.03313
446.636
-21.7165
-158.761
5.49883
153.262
-21.3811
717.938
-696.557
-846.609
974.814
322.712
-147.637
-175.074
677.358
-775.164
97.8063
422.383
348.743
706.583
59.3893
-765.973
818.09
81.8592
540.579
-518.963
-21.6165
1093.7
-1012.29
-81.4034
6.76443
-299.186
292.421
271.895
-5.64145
102.571
141.336
212.407
-21.83
193.774
-203.878
10.104
148.557
146.55
-295.107
-307.274
286.605
20.6691
-155.225
-297.496
452.721
421.99
-544.285
-323.016
195.112
-198.745
3.63336
199.554
1009.28
-570.856
-438.426
526.132
-109.203
-416.928
121.978
512.18
75.6599
464.919
16.0345
-686.65
710.088
-23.4377
49.6055
-549.5
499.895
-78.9404
-250.054
328.995
-449.926
39.5506
410.375
-140.759
-336.251
477.01
780.024
-1.26653
21.7744
184.265
-364.383
180.117
162.367
-226.536
-920.538
848.674
71.8645
-300.141
306.497
-6.35616
664.28
-80.2759
-584.004
1047.03
-603.812
-443.22
193.271
-197.159
3.8876
269.292
-108.866
-160.425
-422.929
418.783
4.14581
664.253
-32.5342
-631.719
-691.574
4.92386
370.342
39.1422
-556.555
436.366
120.189
581.583
-578.587
-2.99668
-855.762
44.3824
811.38
856.364
33.1999
-889.564
-425.063
284.304
-202.862
44.1011
-321.579
521.733
-200.154
-173.118
-27.6623
754.997
-793.042
-150.988
176.878
526.418
-170.545
-355.873
-123.75
-309.672
225.644
-227.385
1.74004
619.525
44.7281
683.574
-608.841
17.7202
-302.19
284.469
837.011
-876.193
39.1817
-293.848
9.53591
952.101
-955.568
3.46666
42.8855
206.681
-249.567
680.315
-32.7691
566.109
-593.25
27.1412
-830.749
846.796
175.409
-193.892
786.2
212.249
746.72
144.49
201.347
-345.837
-302.099
-9.77901
815.654
-59.0968
-756.557
597.64
-127.808
-469.832
233.984
-75.6683
88.4622
409.668
66.0096
-260.935
473.955
-504.038
30.0835
143.647
-350.135
206.488
137.886
389.256
45.5623
862.898
652.953
-773.368
120.415
-23.2405
975.342
-248.054
-20.612
268.666
-223.371
206.275
17.0959
-11.2217
176.212
49.0301
453.48
335.516
-346.057
-352.384
43.9327
-334.703
33.5395
838.365
-58.3413
62.2079
-227.682
165.474
-949.294
22.9774
-912.595
-36.6993
-486.145
54.3628
431.782
-727.794
896.11
-168.315
-194.465
-68.266
262.731
-103.91
-81.6698
185.58
-162.118
-38.845
200.963
-124.623
228.472
-103.849
853.451
400.436
-216.171
140.53
-13.242
-568.312
-878.661
-41.8772
450.747
146.893
185.51
-507.089
200.707
-1106.92
906.215
34.0755
198.992
-233.067
-17.9614
-198.744
419.478
27.1578
89.2237
701.761
284.994
1.57798
-286.572
-473.982
568.001
728.665
72.9719
-801.637
-776.85
-9.10023
799.058
-854.234
55.1766
279.698
-249.771
-29.9266
80.1302
242.581
850.653
-865.004
14.3508
978.836
-862.155
-116.681
938.917
-943.524
4.60669
-384.068
-172.487
-7.74672
-873.369
543.09
330.279
-189.964
163.288
26.6765
-242.757
391.314
142.004
92.4742
-234.478
758.517
244.994
-261.641
431.836
94.2957
781.531
-693.753
-87.7787
-52.9448
-98.8175
-97.5124
196.33
-311.614
260.667
50.9472
862.268
-838.07
-22.3532
380.907
-358.554
-321.625
-10.1294
568.958
-584.322
15.3641
370.766
-327.525
-43.2415
-828.41
731.172
97.2379
-905.726
831.706
141.875
127.417
-407.524
277.881
129.644
469.603
-454.604
-14.9989
621.723
-622.701
0.978495
518.247
-44.2917
-302.811
-144.247
447.058
12.1911
-260.245
-78.0395
-244.549
322.589
544.282
563.925
-1108.21
-900.871
849.208
51.6634
-5.1177
-405.869
420.094
-14.2245
432.915
-400.303
-32.612
670.418
-841.601
171.183
710.596
-880.064
169.468
-504.656
-154.511
-425.063
72.2682
352.795
307.66
-6.96521
-300.695
-328.022
165.904
473.767
75.6995
-719.656
-108.754
1.86287
191.911
-306.458
300.136
6.32175
49.9215
-335.412
285.49
491.561
38.5764
-530.137
-227.372
301.525
-74.153
-896.202
-19.6401
915.842
-206.934
-29.8447
236.779
7.05544
-842.211
835.155
804.708
-118.495
-686.214
343.2
138.816
-216.855
-874.886
-21.3163
808.36
40.3133
-10.6071
534.475
-182.451
-500.158
-15.9581
516.116
-801.996
913.798
-111.802
314.66
-246.532
-390.901
311.96
-30.4477
590.802
63.1201
385.279
-241.631
309.011
506.347
-16.1894
28.4365
342.33
-777.984
88.0862
689.898
457.36
94.5938
-136.719
-23.1592
159.878
-851.814
-23.0719
74.7913
331.475
-204.847
227.881
-23.0338
53.8977
-281.269
-248.27
261.515
-13.2446
-19.7839
33.2618
-514.278
481.016
-610.609
-135.539
-25.8372
305.244
-279.407
-330.027
442.989
599.391
447.641
-1102.76
430.48
672.285
330.126
0.415098
-330.541
-246.162
-156.751
402.912
-525.306
547.01
-661.167
-17.5068
678.674
99.142
93.6168
-192.759
-44.2444
799.241
838.414
-862.357
23.9428
807.582
-154.629
42.3816
-600.774
-328.415
-19.0411
556.839
57.8802
-614.719
442.357
19.3344
-350.232
394.909
-44.677
-853.3
-3.85237
857.153
-27.8166
-823.997
282.856
-261.89
-20.9663
625.215
-3.49234
557.345
-399.714
-157.632
-224.075
274.014
-49.9389
-97.4779
-254.906
-422.596
-38.8273
893.043
-182.448
-816.669
88.8741
-629.425
18.8167
-541.596
52.7859
488.81
820.558
-39.6349
-780.923
-255.832
131.209
-2.53081
-356.046
358.576
855.439
-185.022
309.477
-1.81721
636.567
-70.4582
494.153
-2.59277
801.442
-712.218
-1045.13
-57.6395
445.451
24.1517
521.167
34.1137
735.138
-691.355
795.622
-38.3077
-757.314
198.65
-223.55
277.842
-17.1748
-118.478
196.451
-187.138
475.022
15.8025
-490.825
577.104
-100.997
-476.107
-460.531
422.502
38.0294
128.951
672.491
-2.04675
-98.8968
-761.24
860.136
89.6878
-668.404
578.716
230.365
-306.749
76.3846
-742.556
643.66
91.8221
712.886
-504.401
1048.68
223.488
-161.281
-261.271
-173.558
257.212
-83.6533
216.337
-262.118
45.7806
-181.465
323.469
-6.63397
-314.991
-51.2962
6.12842
-411.979
405.851
-47.6004
-162.658
-195.819
-32.3585
370.265
-337.906
-870.846
944.472
-73.6253
45.5256
-528.289
482.764
21.4708
-244.842
-755.988
106.382
649.605
361.051
-217.859
819.403
1.15495
-3.85087
205.433
-201.583
425.235
132.11
-112.349
-312.714
815.65
-201.77
-95.1865
-914.032
618.47
-321.234
126.704
41.1565
654.575
-558.887
496.238
-19.7599
344.168
-36.4677
339.562
-422.072
82.5099
199.686
-235.994
36.3077
44.3414
253.799
-298.14
336.663
-491.888
-1.92098
761.958
-806.203
537.984
-62.9614
-103.914
735.556
-631.642
-270.414
306.307
-35.8925
-67.4386
297.803
210.368
-191.088
-284.066
13.6512
-1054.23
583.888
470.344
-35.9217
-75.5894
181.345
-311.291
296.51
14.781
-676.065
692.457
269.549
-274.556
5.0076
-469.548
172.051
-499.781
-554.451
244.313
-279.492
847.174
-946.606
99.4322
-344.606
16.1907
483.707
-627.622
143.915
-2.09685
810.457
228.886
-247.65
18.7638
-320.042
-553.327
-37.7785
294.989
-25.4405
334.939
-117.749
-217.19
-20.336
-834.096
854.432
-875.49
490.582
384.907
-56.7853
735.405
-455.483
32.8863
-151.645
-114.181
265.826
874.562
-811.769
-62.7934
396.137
-321.346
796.056
3.00142
103.972
91.135
-195.107
-580.558
1024.4
-443.839
148.74
-198.132
49.392
-758.932
-145.009
903.941
132.29
202.649
853.524
-31.3829
813.475
-736.705
505.342
-416.88
8.80137
-233.645
34.0911
154.654
-188.745
308.474
226.001
-27.2947
-1098.2
619.2
479
7.46413
891.67
-60.5492
-831.121
-430.712
623.678
-192.967
57.1712
756.303
24.8083
-524.966
-590.556
-18.4231
608.979
399.362
151.577
-550.939
-264.676
-522.429
279.552
64.6159
-181.165
-76.9732
-406.997
353.283
53.7143
-792.475
288.996
202.408
-263.907
61.4995
226.062
-246.564
20.5016
431.259
-425.131
721.459
51.0212
-772.48
-204.818
39.1239
815.797
20.9022
-836.7
-345.22
8.84776
336.373
118.641
860.195
-411.962
450.388
412.04
-72.4779
-954.382
99.6603
854.722
789.076
102.595
-26.7573
226.444
51.0271
381.887
890.381
133.139
31.3032
-486.786
28.5861
-826.578
797.992
693.952
-760.02
66.069
636.263
465.938
769.02
-56.0329
-712.987
199.13
-50.3898
76.7262
339.688
-416.414
-735.225
792.396
250.915
178.611
-284.599
168.063
116.536
-111.127
-426.921
538.048
-32.7604
-218.59
1004.4
-573.923
97.6374
-292.102
194.647
-198.498
-101.019
-159.302
30.4811
820.172
-157.351
494.014
-595.365
747.792
-152.427
677.089
-698.47
-387.314
371.356
-442.293
-180.408
39.7549
348.971
-9.61072
-339.361
-46.284
808.242
-505.241
-623.362
1128.6
288.655
-232.312
218.733
12.0103
198.358
-257.501
117.678
-885.241
908.893
-23.652
-264.245
256.379
7.86608
75.2815
706.25
3.36441
765.655
636.577
-17.0519
-15.1923
-513.899
470.222
43.6767
933.06
17.1562
-950.217
-309.099
-36.1216
-0.871107
-235.536
789.814
-68.3553
529.029
-623.209
94.1809
-761.773
-84.8745
27.2347
252.463
880.477
9.90388
-491.367
441.316
50.0514
-950.446
-94.6794
54.3278
-380.905
326.577
-194.775
207.53
-12.755
244.856
-28.5185
-40.0303
1050.31
-313.233
-737.08
579.667
-50.6389
37.6491
-267.281
-57.1444
-688.934
764.758
-75.8245
-89.674
1.09049
224.971
505.013
-5.79924
92.7959
-870.634
-97.336
217.063
-119.727
-190.019
218.808
-28.7889
-681.814
570.687
-446.205
479.467
341.789
54.3479
-461.553
425.335
36.218
580.203
429.079
498.765
-460.157
-38.6082
468.838
-307.898
-160.941
-188.958
39.339
351.789
-22.0378
-329.751
-259.63
86.0717
-336.682
294.382
-219.023
-636.739
-691.464
-81.9041
261.385
-58.9775
657.754
197.685
6.92937
230.068
815.438
-85.9954
-729.443
329.435
-142.258
647.212
-504.954
233.085
-301.351
-105.749
505.112
-750.553
8.49198
-129.657
-107.67
500.002
-92.3983
777.03
-684.631
-204.113
216.866
-12.7525
-20.6814
-243.564
829.591
-737.769
225.377
-427.468
-402.472
829.94
858.536
-200.782
-43.2026
781.085
-737.882
597.484
-6.68206
17.8756
-608.432
283.046
130.14
-413.185
-404.474
481.201
-20.131
-320.476
340.607
-617.75
66.7509
550.999
-145.746
504.184
-358.438
-477.799
411.072
-484.031
72.9592
105.969
-183.252
77.2829
-190.782
335.272
-174.228
-178.137
723.429
-29.4778
102.352
581.222
-611.109
649.03
-37.9212
269.298
-295.135
-809.896
-52.4613
97.3436
-433.595
590.12
460.193
-615.839
173.546
413.572
-841.041
372.308
-681.924
28.6592
653.265
-197.934
236.992
-39.0581
-816.288
886.709
-70.4216
-48.9514
-432.361
481.312
1005.36
-405.595
-599.768
-69.8889
-784.345
7.44543
275.411
-950.473
207.413
743.059
-857.732
-92.7405
-175.435
-14.529
-777.764
731.48
-127.72
-292.912
420.632
-21.7887
-263.936
285.725
160.534
647.048
220.886
156.698
-377.584
-902.873
154.586
748.287
541.253
-581.042
39.7882
604.554
58.6096
-663.164
-43.5319
674.195
-639.854
-34.3417
353.935
-23.8098
-12.5762
216.207
-203.63
608.296
65.8998
14.9338
-791.783
721.547
-777.58
-181.05
215.142
321.759
147.079
133.07
-307.298
205.941
-210.626
4.6841
344.528
-200.845
-143.683
592.05
44.5269
-746.403
800.557
-54.1531
-386.825
-111.587
498.412
-18.0568
-288.401
248.61
45.5112
-294.121
254.452
-102.993
-151.459
418.503
-467.454
-61.7185
-740.278
-411.501
81.079
150.269
493.13
-438.265
-54.8658
-227.011
261.086
-207.832
199.245
8.58689
7.61388
-214.73
207.116
-323.6
380.46
-56.8601
208.795
-2.18569
-206.609
450.428
554.935
-266.338
555.672
-474.041
141.957
-244.046
102.089
-207.005
-5.03392
212.039
701.306
-96.7524
250.022
-172.206
-358.303
280.915
77.3874
-432.794
-5.21973
438.014
-352.257
449.601
316.261
-323.716
7.45543
-18.9203
36.7803
468.562
462.966
35.7994
22.953
-455.747
175.415
15.6698
-341.514
-3.0922
-372.566
297.091
75.4746
343.703
-64.1508
671.664
221.379
-234.169
241.783
-291.949
307.646
88.0851
661.157
-749.242
-735.517
-26.4304
761.947
23.6252
154.117
16.7815
-340.382
-690.755
621.155
69.5998
133.927
-167.071
172.834
-5.7632
422.685
-139.639
-238.792
-167.412
406.204
-168.194
-345.705
223.819
-17.878
-254.585
102.94
89.712
-187.048
-1009.55
696.319
-348.786
348.786
851.451
242.247
-35.3503
-509.111
-500.442
211.743
325.569
528.289
42.5808
546.908
-52.7549
252.656
-235.211
-17.4446
-629.488
662.473
-32.9843
-50.2447
-533.213
-45.5414
-640.355
706.505
-66.1494
84.7368
-493.909
-353.481
539.553
7.3553
525.481
11.5778
-537.059
745.549
-647.757
7.9034
-120.564
-58.0747
178.638
-420.996
84.3147
315.1
-35.1149
-279.985
-160.297
-42.5646
-304.292
290.925
13.3668
-289.448
65.3724
867.801
-196.136
-332.151
53.5155
766.934
-0.615479
-766.319
584.222
-659.161
74.939
-922.847
830.367
92.4799
-24.5057
-636.662
109.888
299.49
-24.8473
-262.254
287.101
-776.218
11.7926
-205.529
-293.456
268.608
-466.279
511.804
-230.292
249.696
-19.4039
-307.041
299.259
7.78235
-808.035
704.121
995.989
-148.816
-161.073
285.323
-242.438
364.119
-162.772
401.954
-304.066
-97.8886
289.46
54.2433
810.55
-96.8063
-713.743
183.933
-681.71
-748.514
663.888
84.6261
5.18537
-617.683
623.555
-5.87127
67.8137
182.208
-94.207
516.197
-274.793
287.695
-12.9026
379.439
-458.635
79.1958
-608.737
649.357
-40.6203
585.242
44.9632
-630.205
239.615
-225.184
-14.4303
555.63
-22.7043
-532.925
245.187
-133.725
-111.461
-136.263
-50.8992
187.163
951.902
-943.123
-8.7794
-575.504
-388.33
-47.0162
-754.191
801.207
-897.649
834.375
-570.24
351.873
218.367
605.136
-623.559
-17.4384
670.381
-652.942
12.7977
154.149
-166.946
-67.7296
-267.682
-855.968
-66.8789
15.4568
367.22
334.113
-739.707
196.788
-21.3739
-232.307
232.307
415.125
-154.93
-260.196
-911.184
25.9432
-3.66573
-30.7658
-473.276
504.041
-753.675
-80.7801
487.461
-406.681
-252.425
-408.725
433.425
-10.923
-62.2551
261.247
157.265
187.264
-537.549
399.356
-173.674
394.561
340.988
-51.5285
761.98
-706.182
-285.185
-9.62915
271.519
-946.886
-3.56029
5.60598
927.454
533.53
-448.793
-829.862
571.22
258.641
-5.25478
264.229
-258.975
350.221
-4.16361
-346.057
-462.721
32.0093
-834.331
748.077
86.2541
-135.444
-173.655
195.065
30.4613
-225.526
213.257
127.731
-800.995
17.8123
-593.638
320.727
272.911
42.5823
230.428
363.931
-326.387
-37.5444
-372.313
381.33
-9.01684
847.426
-513.313
-455.14
312.881
-326.278
193.735
132.543
423.39
-720.82
568.488
-27.2348
811.255
-807.89
78.2743
166.912
-827.372
808.88
18.492
-794.133
47.7293
-472.161
-527.844
1042.64
-186.28
931.106
-835.17
-95.9365
-521.12
-463.317
984.436
-49.1455
-258.128
61.4009
227.838
-237.104
9.26609
-22.5421
-56.08
733.438
466.943
-30.2069
-436.736
-375.791
-192.127
12.2044
-101.749
-243.23
-147.555
407.813
-260.259
-926.387
926.387
93.3587
-806.537
494.658
-511.251
69.3062
441.945
-212.445
-195.079
161.644
-158.121
-379.428
-548.164
390.043
600.232
60.273
194.179
420.031
-928.213
508.182
-14.6985
299.693
-221.229
-264.915
-219.487
407.061
-85.3021
-183.547
-142.731
-65.5024
-835.369
452.619
-518.257
65.6372
16.3813
-687.359
768.39
-81.0316
415.853
-422.135
6.2824
248.858
-569.113
529.774
39.3393
116.858
110.419
-227.278
200.249
-212.826
378.931
-708.796
329.864
110.547
758.341
177.776
237.35
-68.7896
-492.818
462.052
293.831
-308.759
14.9287
416.807
-37.368
354.319
-386.678
-24.0806
-367.785
391.866
-31.3122
-260.943
307.966
8.57137
-316.537
-410.903
263.348
-390.191
42.7402
631.046
-749.54
-410.526
533.312
-314.29
-91.5791
976.662
-866.115
-492.697
-312.327
805.025
296.465
42.0674
290.139
-332.206
-455.459
132.715
-268.159
-51.9974
451.68
-564.164
112.484
47.4363
613.713
-183.194
62.6305
313.311
-270.729
708.756
-329.824
267.533
-183.526
24.4573
365.12
-389.577
-29.5604
-300.24
-1.94972
-260.485
253.399
7.08593
-0.44569
547.069
-522.261
32.2834
-891.588
113.419
797.217
-1.16095
331.034
-117.777
525.486
328.713
-854.199
598.41
239.955
666.821
-759.22
-738.307
102.378
635.929
266.428
56.498
-322.927
190.866
-183.953
-6.91288
20.8753
274.376
572.882
-193.506
26.4387
167.067
-157.086
-606.772
763.858
-342.774
358.073
-15.2981
-244.24
297.622
-53.3816
-149.388
-176.024
-256.657
216.127
40.5304
920.087
-920.087
-87.5413
727.092
-639.55
295.522
-215.392
346.013
-68.1321
-657.478
192.09
28.8674
-220.958
57.7291
-587.678
529.949
22.9698
-224.067
201.097
908.055
-913.815
5.7592
300.695
-674.381
373.686
339.689
-285.361
52.6268
311.304
-350.753
876.239
557.27
-105.59
-73.502
-245.792
-401.1
326.954
74.1454
216.599
-346.548
335.831
-500.199
164.368
-234.134
36.1995
-873.287
-73.5991
33.2517
-720.61
311.073
-189.559
796.389
-773.224
-23.1652
431.481
44.561
-476.042
-685.697
610.728
74.9685
-235.549
208.375
27.1742
322.239
-28.4087
-426.192
-254.927
872.665
-829.802
-42.8631
-357.896
658.591
139.166
-525.991
-864.41
11.1095
-58.579
-595.406
653.985
37.5715
-135.411
-149.188
-915.842
418.08
497.761
196.841
2.40422
451.158
-35.3053
543.442
257.06
-249.134
-7.92576
-335.746
-6.31673
342.063
-542.521
428.98
-16.0854
-188.599
204.684
234.529
-42.4386
-84.0452
342.848
-258.802
-357.703
7.47154
435.788
-10.4528
66.1417
-807.652
741.51
-664.329
664.329
40.72
192.365
-84.9918
-505.018
590.01
-854.459
938.094
-83.6345
741.105
55.2845
-14.1663
-834.489
848.655
325.319
-342.92
17.6005
326.01
15.6913
-341.701
583.728
-637.048
53.3199
44.4804
296.037
-340.518
-211.867
-109.685
321.552
200.333
-9.46786
104.973
-709.868
604.895
-759.991
267.294
353.898
-311.83
793.747
59.7772
-77.4903
-433.761
344.431
-389.815
-680.438
100.073
580.365
301.707
-266.091
-35.6157
-532.239
613.257
-81.0182
-82.2004
-363.147
445.347
411.211
-382.774
-593.799
-322.043
591.629
-725.468
133.839
-405.853
-424.009
837.849
-39.7853
-645.911
136.663
444.487
-581.149
563.581
-644.88
81.2995
24.3193
-226.624
11.1072
-693.032
-324.03
321.499
12.8745
570.654
-692.755
122.1
-344.533
-430.632
-6.90465
-683.987
698.369
-14.3827
763.088
-164.678
645.868
-103.145
-542.723
202.048
291.082
293.781
-299.334
5.55264
807.724
-935.901
128.176
-643.31
-94.9964
-283.216
8.4231
-330.018
94.0077
236.01
-57.083
640.811
71.9333
-240.595
168.662
358.702
-336.501
-22.2006
-328.764
-264.873
-9.28574
202.932
-21.9551
-178.796
232.517
129.185
-361.702
-272.833
320.683
-47.8502
586.422
-671.414
25.5067
289.593
-257.615
-72.4029
-283.684
-286.555
-711.362
540.66
170.702
-110.839
-156.13
-167.116
67.3257
-579.33
536.582
42.7476
576.958
-1098.08
-25.6998
-1016.2
-140.708
363.396
43.665
-23.3612
-51.419
-756.99
125.348
847.728
-840.672
617.431
-76.7709
1.8621
589.26
-591.122
-277.783
-168.549
446.332
-31.0085
-204.541
3.4942
204.19
-211.965
7.77514
-994.016
225.408
448.221
-112.39
19.7454
-628.055
608.31
298.204
-365.185
24.0577
341.128
57.4274
573.433
-630.86
-104.618
770.081
-665.463
-669.337
-195.667
-720.734
38.877
681.857
-39.7643
563.7
-523.936
919.798
-911.692
-8.1067
557.994
-616.573
-611.193
-23.7959
634.989
-397.324
124.491
256.787
-253.383
-3.40341
801.023
-772.437
-96.2867
730.991
-634.704
461.402
8.82029
-434.458
-670.055
604.148
65.9068
398.793
-92.3227
-564.079
-40.9292
-11.8716
-400.108
-13.651
201.228
-187.577
26.3541
327.543
-361.57
365.273
-3.70263
743.782
-790.799
134.7
128.031
216.7
-228.975
12.2743
684.138
-775.333
91.1955
-315.954
-667.464
-21.47
794.189
73.6118
291.393
120.647
809.991
-15.8022
-27.4194
-1030.65
178.175
3.94857
16.9212
-566.421
161.102
-148.305
-1081.28
-243.606
227.52
68.3678
227.154
-107.91
-467.155
575.065
-2.56234
-477.595
480.157
838.942
-31.2179
570.144
75.7249
-25.9309
-205.793
231.724
735.47
-778.673
-143.059
375.576
-398.099
443.044
-44.9445
-679.211
723.339
-44.128
274.153
-369.821
18.6418
397.538
-158.19
-239.348
173.025
-511.967
466.379
45.5871
5.42764
-462.873
458.85
4.02315
613.93
-596.055
27.5675
-155.342
586.823
-297.368
57.5609
441.313
42.1596
606.752
-648.912
-89.0262
-138.913
182.877
25.4983
30.4539
-394.65
29.4641
-412.126
14.0266
252.707
-254.946
2.23865
711.287
-682.628
-486.318
85.0589
401.259
-42.3613
626.583
-5.69085
-209.039
914.27
-141.801
-772.47
518.88
537.482
-1056.36
-282.744
-24.034
292.373
4.1373
10.2595
276.345
-687.386
-0.709195
688.095
591.995
-749.081
-208.798
198.559
10.2393
-515.034
-36.2265
-632.177
-4.08613
146.043
-137.976
-428.426
-112.654
184.587
13.3874
-629.109
615.721
-39.3282
-497.676
537.004
-245.478
289.959
-69.3786
626.217
-725.328
752.607
-27.2795
217.767
-482.443
227.938
-254.631
26.693
2.88462
-837.29
29.2552
230.245
-442.112
903.458
-912.667
9.20906
636.033
14.6653
-650.698
-56.4853
-536.765
-807.244
840.444
110.533
-208.046
897.678
-78.275
244.891
-17.053
-60.3262
-715.959
776.285
-86.636
-597.351
-10.587
536.068
-662.943
19.6327
212.967
-230.739
17.7725
-240.185
3.73567
236.45
-559.666
533.553
26.1134
-226.37
90.1068
68.1288
83.6864
-151.815
-880.245
314.875
21.5924
-336.467
55.0127
637.868
-692.881
-344.164
363.327
-19.1625
-642.796
-20.1475
-670.952
759.037
-896.401
127.357
769.044
-148.128
-169.512
-446.561
64.6008
-456.974
-614.198
249.183
-4.18875
-293.332
292.907
0.424866
180.906
-64.048
-423.989
394.451
29.5382
-954.86
972.016
-275.013
102.736
172.276
147.58
13.5225
520.619
849.8
-870.136
277.475
-34.8933
354.639
-500.385
-788.988
811.057
-22.0686
-345.895
-178.114
524.01
135.166
-179.076
43.9106
427.621
-521.828
738.642
-677.27
-61.3719
-260.555
-22.1891
317.415
-68.8052
318.56
-293.053
334.188
-652.057
-17.9975
5.44609
633.587
-378.348
160.489
20.6643
-891.51
546.74
-392.026
608.148
368.514
424.19
9.23519
744.606
-804.933
-40.8671
-26.647
827.282
70.3962
421.217
-499.965
78.7485
220.887
-177.7
-43.1875
-187.506
198.098
-10.5923
-15.652
345.594
-329.942
-616.807
658.967
429.144
247.819
-223.883
-23.9366
370.74
503.822
313.634
-335.671
700.61
109.939
73.9482
-597.69
523.742
639.957
-35.8093
31.2225
-930.191
113.756
816.435
224.065
-253.91
-254.549
-793.338
732.254
61.0836
5.34381
813.869
-819.212
925.518
-925.518
-379.074
17.5033
602.831
37.1262
-109.2
-13.8328
-195.536
209.368
437.751
27.9801
-465.732
-437.013
23.025
413.988
186.228
972.163
-453.283
-235.202
42.4151
192.787
-626.896
630.928
-4.03201
416.557
-470.902
54.3451
-431.061
-5.95181
52.0211
-762.022
710.001
-637.24
-59.6226
-550.25
518.602
31.6486
-367.708
270.23
15.2392
-232.91
217.671
-143.914
-131.098
-29.8918
220.481
-37.6042
56.1669
281.984
-280.406
-72.0049
791.615
368.577
-53.7023
-768.866
33.3499
-890.031
814.414
75.6164
117.851
271.591
388.442
150.365
-752.09
858.415
333.143
181.999
-515.141
-167.388
594.467
-644.07
49.6028
472.019
54.6026
-526.622
629.496
-336.656
-292.84
-469.227
-115.292
-779.97
675.352
29.8857
-683.061
653.175
-711.387
108.529
602.858
-766.207
14.4845
20.0247
508.708
-87.4907
-511.86
354.509
543.436
-583.2
-35.4685
-69.1474
236.49
-167.343
33.3677
-673.723
-237.567
-240.313
171.166
-31.9507
260.993
-112.591
-148.401
148.339
-9.87163
-635.76
723.846
-19.0693
187.409
-168.34
869.872
-628.633
10.9501
135.539
177.772
1.01564
397.713
-398.729
-224.934
-190.011
414.945
180.946
763.526
380.258
-355.8
-841.782
7.45103
626.424
-609.872
0.0388197
-805.6
805.561
589.571
16.1417
-605.713
839.771
44.9472
-884.719
313.926
-14.6671
128.254
-406.037
426.411
9.37695
-255.827
335.705
-79.8784
199.006
382.079
-90.686
611.713
-56.1759
-555.537
-754.319
778.578
-24.2593
13.3651
640.055
-653.421
-644.875
112.636
-7.82845
-442.66
599.81
34.7073
323.995
-31.693
193.445
-94.3031
-337.9
2.15402
95.9787
742.963
4.56069
-279.151
274.59
-426.112
-502.1
-57.4604
-757.739
815.199
247.842
-41.1604
195.498
-258.456
62.9579
203.216
-96.1328
-225.377
-516.879
-581.32
-791.816
-18.0797
-172.973
-815.764
776.451
39.313
-34.6376
470.083
-435.446
59.783
821.342
-881.125
202.817
-134.688
773.691
26.8653
-215.682
201.849
21.0315
-308.941
287.91
575.744
-573.882
-647.24
146.095
501.145
-545.15
589.392
-44.2411
34.1174
259.664
-665.152
-441.77
608.55
45.8418
-654.392
-721.927
606.77
-679.225
72.4554
-159.988
-33.518
450.217
-484.427
-846.053
851.397
104.217
-307.595
-588.806
-642.528
593.33
49.1979
186.141
-80.1717
-44.1832
455.954
173.542
-566.955
52.6771
514.172
-527.633
13.461
73.0057
-717.689
644.684
269.366
-16.6592
-316.844
167.66
149.183
-565.977
577.555
-129.182
456.319
-327.137
681.452
-86.9851
2.10076
-319.586
317.486
-446.75
-442.791
889.542
-149.741
240.12
-90.3791
-100.375
-580.063
-559.768
406.249
153.518
399.297
-31.5312
-367.766
-1.14579
160.857
-256.774