/*--------------------------------*- C++ -*----------------------------------*\
  =========                 |
  \\      /  F ield         | OpenFOAM: The Open Source CFD Toolbox
   \\    /   O peration     | Website:  https://openfoam.org
    \\  /    A nd           | Version:  7
     \\/     M anipulation  |
\*---------------------------------------------------------------------------*/
FoamFile
{
    version     2.0;
    format      ascii;
    class       volScalarField;
    location    "31";
    object      p;
}
// * * * * * * * * * * * * * * * * * * * * * * * * * * * * * * * * * * * * * //

dimensions      [0 2 -2 0 0 0 0];

internalField   nonuniform List<scalar> 
30084
(
0.0146473
0.171548
-0.0148014
-0.0588348
-0.00420501
-0.0624366
-0.0270814
0.0140012
0.00334858
0.000269872
0.00895322
-0.00785981
-0.000883258
-6.44943e-05
0.193345
-0.0101117
-0.000367277
0.0784868
-0.00372567
-0.0174782
-0.00152771
0.00314365
-0.0150303
-0.00366509
0.591124
0.170516
-0.000946099
0.502176
0.186143
-0.002841
0.0264273
0.0815222
-0.0963489
-0.0112369
0.508725
-0.0125947
0.194693
-0.0449384
0.00953612
0.00915762
0.000687494
-0.0281902
-0.000333234
-0.0344121
3.28647e-05
-0.00256948
-0.0071094
8.77412e-05
0.00551926
0.190063
-0.0355005
-0.0516578
0.0841509
-0.0601839
-0.00990162
0.177568
-0.00590973
-0.00157376
-0.00794515
-0.0296461
-0.000139795
-0.00362244
0.0645597
-0.0110965
0.296147
0.560638
-0.01339
-0.0142346
0.5359
0.000721795
0.168887
0.425825
0.00377717
0.556306
-0.0130724
0.0186655
0.194385
-0.0397564
-0.000108668
-0.0258445
-0.0554162
0.226351
0.0146649
-2.59416e-05
-0.0237861
-0.133949
0.318786
-0.000916931
-0.000854249
-0.0811551
-0.0378821
-0.0402938
0.005068
0.0819417
-0.0839866
0.325431
-0.0500553
0.000744931
-0.0672338
0.221555
-0.000113904
-0.0376731
-0.000135545
0.058652
-0.0528307
0.146011
0.369779
-0.000822937
-4.20553e-05
-0.0937692
-0.0959925
0.0174954
2.04119e-06
-0.00267107
-0.000343206
0.41631
0.245587
-0.0189379
8.24993e-06
0.00444844
-0.0211245
0.182424
-0.00485375
0.557593
0.00180709
0.019862
0.0843345
-0.0245941
0.00675401
-2.80266e-05
-0.0320482
0.186778
0.412346
-0.0296146
0.0579428
0.0256768
0.350828
-0.0384668
-0.161607
0.214789
0.0286823
-0.0699468
-0.0718595
1.50385e-06
-6.45371e-06
-0.00429733
-0.00667558
-0.0736088
-0.11287
0.112544
0.0431644
0.021079
0.000666263
-0.000278214
0.237234
0.000783841
-0.0129604
0.335212
0.28078
-0.031138
-0.0531089
-0.057469
0.183506
-0.00011502
-7.00005e-06
-0.0190821
-0.0690145
4.05834e-05
-2.88575e-05
-0.0116273
-5.77169e-06
0.00944274
0.339583
-0.0376594
-0.0776536
-0.00840339
0.00342933
-0.0392223
-0.00218475
0.0062757
-4.11901e-05
-0.00707606
0.31647
-0.0132213
-0.161108
0.238881
-0.0104774
-0.0289619
0.006353
-0.00280461
-0.000524873
0.00305874
0.566706
0.233609
-0.0222569
-0.0124182
0.479065
0.211957
-0.0832082
0.00188918
-0.0502816
-0.0811386
-0.00755742
0.00135533
0.349059
-0.011172
0.0114451
-0.0729036
-0.0954214
-7.69592e-05
0.450312
-0.00180749
-2.79391e-05
-0.000985976
-0.0358874
0.0871377
-0.00517841
0.011147
-0.0036375
-0.0840208
-5.174e-06
0.000684109
-0.00392226
0.120034
-0.00482403
-0.00253964
0.0818389
0.000154996
3.02031e-05
0.00874937
-0.0452632
-0.0346576
-0.0078626
0.167143
-0.0237656
0.0222223
-6.72433e-05
-0.00506771
0.0012613
-0.04616
-0.156287
-0.00238408
0.000715738
-0.00264447
0.00468024
-0.0169336
-0.000110136
-0.121741
1.88707e-05
0.121861
-0.00570745
0.000185877
0.148092
-0.0805322
0.000376845
-9.03669e-06
-0.0700358
-0.147316
-0.0145077
-0.0264863
0.0430145
0.304942
9.40188e-05
-0.042822
-0.00943524
0.490583
-0.0132504
0.235381
0.0240358
-0.000494174
0.671176
-0.000981338
-0.0827425
-0.0830814
0.00368981
0.0530928
-0.013558
0.41637
-0.00584789
-0.0287039
-0.000541445
0.269582
-0.00497768
0.331091
-0.00091947
-0.00967499
0.477824
0.105197
0.0816954
-0.0511317
-0.000300102
0.00455834
-0.000385749
-2.51856e-05
0.117002
4.04252e-05
-0.0312286
-0.0123209
0.597702
0.408829
-0.0708221
-0.0309205
-0.0329494
0.015833
0.00437005
-0.0294312
-0.0756741
0.311087
0.428923
-0.00222013
0.364124
0.113795
-0.00175691
0.0186452
-0.00307987
-0.0154155
-0.00897544
-0.00448817
-0.000128108
-0.00324676
0.027812
0.275595
0.00267181
-0.0429558
0.0216695
-8.52657e-05
-0.0732323
0.627353
-0.0105762
-0.00250546
0.0199073
-0.0241565
0.151863
-0.00251033
-8.33794e-05
1.54436e-06
-0.00452286
0.480723
0.0409305
-0.156634
-7.88859e-06
-0.154295
0.0948132
-0.00855119
-0.0768473
-0.00229832
-0.000806143
-0.0398213
0.00150461
0.0109227
0.0176435
0.171238
-0.000404464
0.00339565
0.181036
-0.0172899
0.000652431
0.00069728
0.412534
-0.0377414
-0.00271992
0.22123
0.498384
-0.0434677
-0.0123709
0.0920594
-0.00137196
-0.0140682
-0.00572219
0.207816
-0.000103121
0.0169806
-0.100496
0.417054
0.548379
-0.0101759
-0.014893
0.304648
-0.0307762
-0.000124558
0.153074
0.126466
0.12855
-0.012369
0.0424366
0.495367
-0.132931
0.451573
0.422034
-3.81366e-05
0.0280057
-0.125511
-0.00508738
0.00272896
0.502723
0.0411745
0.000441605
-0.0563567
-0.0832026
-0.00948575
-0.000260063
0.338025
0.240849
2.42357e-05
0.00699569
0.00926888
-0.0772703
-0.0511148
4.83925e-05
-6.95567e-06
0.000809306
0.157151
-0.044519
0.334751
-0.0799508
-0.0299292
-0.0344785
0.216898
0.0687751
-0.00215627
0.0138726
0.00139893
0.455007
-0.0411398
0.00183597
-0.0126349
0.0362467
-0.00271197
-0.020541
0.000360954
0.000371353
0.635601
-0.0136775
-0.0087055
-0.000893145
-0.00134053
0.29137
-0.100834
-0.0419132
4.01324e-06
-2.32404e-05
-0.0424336
-0.0114826
-0.00891317
0.0292602
0.010617
-0.00473315
0.0536456
-0.0289347
0.444545
0.00816487
0.000385477
-0.0703577
-0.0394328
0.0670539
-0.00597198
-0.0410394
-3.86181e-05
0.536174
0.0331842
9.64372e-05
0.566767
-0.0434072
-4.10978e-05
0.00248152
-0.0723269
0.0190823
0.0742437
-5.45724e-06
-0.0134885
-0.0127977
-0.00921292
-0.000884826
-0.0139255
0.483998
-0.014154
-0.0198948
0.247428
-0.00490722
0.468798
-4.49865e-05
-0.0273251
-0.0779112
-0.0401939
-0.0323278
-0.00278567
0.00256423
-0.000354752
-0.0315002
0.0140995
-8.0725e-05
5.67355e-06
-0.0107661
0.44251
0.0123558
0.00431809
-0.0827411
-6.45167e-06
0.00166575
-0.000142166
0.0161078
-0.0289959
-0.000742579
-0.0138693
-0.0207582
0.0017612
-4.75617e-05
0.00794931
-0.000806461
0.0854754
0.388768
0.30932
-0.00752206
0.0104351
0.0436146
-0.000253016
-0.00628212
-1.4366e-05
0.425837
-0.0230182
0.0288485
-0.0280362
0.00274999
-0.00555018
-0.000236906
7.06191e-06
-0.0084266
0.0774994
0.285373
0.00213734
-0.0635839
-0.0404239
-0.0134362
0.113862
-0.00239279
0.00167031
-0.00964243
-0.000221675
-0.0748102
0.315249
0.224375
-0.0369462
0.30844
9.85971e-05
3.32184e-06
0.15216
0.06187
0.555394
-0.0695905
-0.034739
0.0439243
0.002034
-0.0100621
0.000770064
-0.0178578
-0.0215636
-3.0061e-05
-0.00164191
0.413368
-0.000317539
0.519454
-1.26413e-05
0.0320207
0.0809219
0.0584487
0.00180482
0.000288025
0.434204
0.0900205
-0.0789833
0.230701
-0.0113853
-0.0219004
-0.00712658
0.285139
-0.0419769
0.0187805
-0.0132887
-5.44369e-06
-0.00236786
0.0102545
-0.0291141
-0.0361306
-0.067793
-0.0294215
0.154646
-0.00382942
-0.0820668
-0.0227034
1.73832e-05
-0.0199845
0.0148541
0.157174
-0.0441822
-1.16245e-05
-0.0301255
-0.00100405
0.00242517
-0.131837
0.333903
0.00154892
-0.0197417
-0.0330773
0.106874
0.474307
0.00315906
-0.00839496
0.280208
0.199439
-0.0256561
0.0086613
-0.0741825
-5.05504e-06
-0.0627819
0.000113329
-0.0343025
-7.31879e-05
1.47061e-05
-0.0109415
0.0702827
0.388606
0.0160083
0.0203041
-2.94416e-06
-0.0109385
0.000122487
-0.00573698
1.57592e-05
0.0787885
-0.000912103
0.226654
-0.000275998
-0.0210644
-0.055687
-0.00745577
0.471267
-0.0269798
-0.0787502
-0.00984348
0.0727092
-0.0693501
0.0476142
-0.0308232
-4.948e-06
-0.00919627
-0.0069764
0.000398904
0.000116325
0.283295
-0.0086439
0.116104
-0.00784185
0.00149146
0.0530015
0.000253118
-4.75653e-05
-0.0617548
-0.00618165
2.14988e-05
0.290819
0.604874
-0.000429399
-0.0536855
4.85812e-06
0.503433
0.029438
-0.0575723
2.33876e-05
0.0196067
0.0903891
0.10509
0.0730154
-0.000789428
-0.00033747
-0.0254214
-4.26482e-06
1.72098e-06
-0.0427275
-0.0490677
-0.0667255
0.57965
0.000315389
-0.0520428
0.0135119
-4.3542e-05
-0.00230463
6.30872e-06
-0.0106157
5.00775e-05
-0.0280446
0.046096
0.463346
0.0706534
-0.000553927
0.000761526
-0.0866613
0.11382
-0.00553149
7.7847e-06
0.254674
-0.162028
-0.0682161
-0.0231033
-5.4768e-05
-0.000547968
-0.168629
-0.0355619
0.18846
0.442405
-0.0772824
-0.0023149
-4.31815e-05
-0.0691142
-0.0949714
-0.000414566
0.0042663
-0.0247957
-0.00824105
0.42914
-0.00238312
0.00333153
0.204675
-0.0132278
0.55815
0.557505
-8.3583e-05
-0.000129422
-0.0265406
0.0271322
-0.0522092
0.00930865
-0.0128049
-0.0010898
0.488647
0.221755
0.00396556
0.663596
3.75743e-06
0.143735
-0.0873167
-0.0508662
0.000120566
-0.0540466
0.148729
0.0259627
0.0951677
-0.000862171
-0.000926683
-0.00736944
-0.00612285
-0.0224062
-0.00200603
0.1712
-0.0101909
-0.00926091
-0.0833044
0.405739
0.0368071
0.0520418
-0.000775035
-0.000977387
-0.0324562
0.00170772
-0.0046058
-5.23738e-05
-0.000691427
0.149177
0.435934
-0.000268577
0.247069
-3.4118e-05
-0.00591906
-5.34097e-05
0.00954019
-0.00323594
-9.89404e-05
-0.000102123
-0.0820725
-3.40966e-06
0.0750066
-0.039543
-0.000120868
0.229085
-2.17009e-05
-0.000769307
-0.000193513
-0.00888612
-0.00076132
-0.0106101
-0.102389
-0.000683664
0.007491
-4.81947e-05
0.383101
0.000937507
0.0357923
-0.0489608
-0.0354429
-0.00213444
0.00512616
0.262547
-0.0408749
0.238718
-0.059901
-0.00611364
-7.87505e-06
-0.00993996
0.410692
0.247866
-0.0553135
-0.0739412
0.370692
-0.0142643
-0.0815844
-5.25476e-05
-0.041226
-0.00153625
0.644448
-0.0723334
-0.000189275
-0.0810131
-0.0416483
0.296435
-0.00455043
-0.0436487
-0.0067118
-0.010185
-0.00231878
0.295504
-0.15357
-0.0306419
-0.0241873
-0.020857
0.00982857
0.364949
-0.0295274
0.231589
0.00476549
-0.0282249
0.528374
-0.0144835
-0.00045563
0.29823
0.417052
-0.00562233
0.0246336
-0.0114407
-0.0484413
0.2804
-0.0688794
-5.83999e-05
-0.0124709
3.7735e-05
-0.00773317
-6.16439e-05
-0.00806225
-0.00175302
-0.00553907
-0.0600953
-0.00111708
-0.000943896
-0.00203382
0.249314
-0.00364926
-0.00565647
-0.00526737
0.212068
0.00907786
-0.000731808
0.407997
0.550368
-0.0305287
0.488208
-0.0269804
0.386801
0.00935361
-0.0210639
0.00438339
-0.000854672
1.43618e-05
0.00433801
-0.0188961
-0.0303797
0.226579
-0.0351286
-0.0308819
-0.00163938
-0.0469945
-0.0378576
0.0111368
-9.42758e-06
0.0171538
0.169465
0.418523
0.0332144
-0.0207682
0.181845
-0.000675143
0.0575039
-0.0275421
0.000976196
-0.0801916
0.0049616
0.387338
-0.00350404
-0.000963922
-0.000282133
-0.0767976
-0.00220313
0.649177
0.670801
0.0195617
-8.11824e-05
0.0135592
-4.26447e-05
0.0973707
-0.000953901
0.0350123
0.592922
0.0713669
1.5501e-05
-0.0127397
-4.62257e-05
-0.155055
-0.0514116
0.491157
0.000333081
0.0188357
0.00458261
0.000422974
-0.00371083
-0.000541811
-0.00942277
-0.055402
-0.0348599
0.0105484
0.224182
-0.0202422
0.0100411
-0.0305757
-0.00292191
-0.0409041
9.13659e-06
4.61764e-05
-0.00352785
0.0439513
-0.0463305
-0.0243976
-0.0057376
0.00418934
-0.0295587
0.296222
-0.0191675
-8.31578e-06
-0.0753414
0.455246
-0.0295557
-0.0182018
0.113638
-3.75734e-05
-0.0011199
-0.0426451
-6.73033e-05
-0.000749125
-4.29649e-05
0.664072
0.0137019
0.00553337
-4.05755e-08
1.0994e-06
-3.7803e-05
-3.82848e-06
-0.0334161
0.418482
-0.0512842
-0.000816296
-0.000287747
-0.00822597
0.48941
-0.0756953
0.44871
0.0406434
0.176337
-0.000249979
0.483749
-0.00342177
-0.0140937
0.0235183
0.0123536
0.0141816
0.227918
-0.0589854
0.477408
0.33569
-0.0122623
-0.0412478
0.0012506
-0.043158
-2.58271e-05
-0.00146203
0.00406675
0.0954095
-0.00979568
-0.0336023
-0.00498541
0.574913
-0.101462
-7.19723e-05
-6.02667e-05
0.497063
-0.00735511
0.00320511
-0.0192612
-0.00339455
-0.0223815
-0.0143098
-0.02244
0.129759
0.0459559
-0.0147203
-0.0208444
7.31232e-05
-0.00850159
-0.00184541
-0.0116234
-5.79951e-05
4.38306e-05
-0.0272789
-0.0293792
0.472982
-0.0330377
-0.00035127
-0.00230325
-0.00050256
0.405637
-0.0250219
-7.28308e-05
-0.0409583
-0.00661835
-0.00525607
-0.0403044
-0.0461536
0.00955728
0.0800065
-0.0892863
5.73782e-05
0.00840982
-0.0190109
-2.72639e-05
-0.000116949
0.144752
0.110805
0.0214311
-0.0672873
-0.0741534
0.000696085
0.511792
4.95487e-05
-0.0237511
0.430392
-0.0243152
-0.0517893
2.40487e-06
0.000162298
-0.0515426
-0.0133194
0.00189766
-0.0449847
0.273472
0.320494
0.000908961
0.000291757
0.258378
-0.0177666
-2.76831e-05
-0.00216669
-0.0394253
-0.0306642
-0.014704
-0.00312033
0.25145
9.92929e-06
0.098127
0.321811
1.43165e-05
0.0144191
-0.000673584
-0.114826
-0.0190176
-0.000983842
0.0364178
0.000210339
0.268053
0.00188699
0.0291297
0.0278167
0.598719
0.400384
-0.0726682
-0.00972935
2.32344e-06
0.0280849
-0.0176417
0.188461
0.364427
-0.044948
-0.0121183
-0.0209491
-0.00806588
0.173535
-0.000291118
0.481234
0.0319026
4.1013e-05
1.63692e-05
9.74757e-05
-0.0159507
-0.0219024
0.000822119
0.0870445
0.153646
-0.0668716
0.000568593
5.31623e-05
-0.0285732
-6.88752e-05
-0.00352126
-0.0136754
-0.000922851
0.0546526
0.00518754
-0.00169403
-0.00459512
-0.0192755
0.400688
0.410598
0.0457578
-3.45674e-05
-0.000702186
0.287191
-0.00059292
-0.119074
-0.000279413
-0.0237994
-0.0967665
-0.000296546
-0.000312968
-0.0390523
0.00156395
-0.000113766
-0.00162364
0.241997
-0.0410141
-7.36714e-05
0.11347
0.386611
0.399465
0.000671927
-0.120504
-0.0109467
0.452256
-0.0789771
-0.0810638
-0.00712172
-0.0150196
0.0336489
-0.0297815
0.399425
0.101406
-0.000248793
-0.0625502
-0.0819223
-0.00450958
-4.3166e-06
-0.00218182
0.243295
-0.000272852
-0.000979206
-0.00472135
-0.00142154
0.0102635
0.0335105
-0.000255445
-0.000175512
-0.00824616
-0.11234
-0.0414317
-0.0883061
0.276293
-0.00253092
-0.000364486
-0.0425697
-0.0276765
0.0111278
0.0153705
2.61025e-05
0.0842845
0.17066
0.0216187
0.0281474
-0.000781542
-0.0153493
0.0449146
0.00145022
-0.000126068
-0.0107122
-0.00465856
-0.000903551
-0.0128971
-0.00102978
0.292657
-0.0104034
-0.158931
-0.0275466
-0.0123071
0.0133491
0.501187
-0.0494639
-0.000185439
0.481356
0.190818
0.00875649
-0.00673105
0.0084949
0.0208696
0.184319
0.000357557
-0.0035266
0.592829
0.323561
0.359311
-0.0508508
-0.00165544
-0.00145708
-7.22094e-05
-0.00154751
0.328428
0.0955791
-0.00555877
-0.0059803
-0.000472643
-0.0148557
0.564705
0.431709
0.0921655
-0.00328223
-0.0712692
-0.00557931
-0.000882004
-0.024973
0.0157086
-0.030872
-0.00407107
0.000946535
-0.107368
-0.113844
0.0343891
-0.0281717
-0.00478968
-0.0292055
-0.000266684
-0.00795738
-0.000839424
0.378147
1.96863e-05
3.46916e-07
-0.0324481
-0.0222932
-0.0323499
0.0441466
-9.1571e-06
-0.102602
0.076053
0.226034
0.634533
-0.00530688
-0.127652
0.0343889
-0.00242738
0.0860577
-0.000731978
0.0117375
-0.000260186
0.29423
-0.0688888
0.011996
0.154766
0.134996
0.00158058
0.00312453
1.56507e-06
0.451173
-1.23396e-05
-0.0506029
0.000337486
0.00181211
0.209213
0.117823
-0.0883853
-0.043724
-0.00470389
0.669828
-0.0910197
2.21621e-06
-0.0174941
-9.03196e-05
-0.0181333
0.120255
0.22685
0.000954112
-0.0394029
-0.010643
0.172289
0.0622763
-0.0363732
0.578775
-0.0111916
5.08722e-05
-0.159911
0.600764
0.00198966
0.107163
-0.0497665
0.171946
0.00207496
0.0379158
-0.0838565
0.0059581
0.0624108
-0.0317893
0.23208
-0.0292909
-0.021777
-0.000957507
-0.000960959
0.525655
-2.91702e-05
-0.00635954
-5.47237e-05
-0.00912752
0.000356334
-0.00825567
0.286528
-1.10613e-05
-0.00119965
0.129805
-0.16319
-0.0271856
0.00120921
0.438138
-0.0630347
0.197901
-0.0133327
0.180139
0.0075499
-0.000897252
-0.0435482
0.000816503
0.537723
-0.030483
-0.000175734
0.00249023
0.165395
-0.0126489
-0.00084271
-0.00018911
-0.105277
-0.0029693
-0.0110802
-0.0874383
4.82105e-07
-0.0772395
0.000388621
0.38656
-0.0115857
0.17337
0.00489734
-0.00421709
0.306303
-0.0713757
-0.155283
-0.00495967
-0.115295
0.315149
0.332635
-0.0158116
-3.94538e-05
-0.0173586
0.00512529
-1.60249e-05
0.0762325
0.416736
0.0140807
0.00173823
0.00977731
-0.0785973
-0.000226247
0.0934999
0.0556655
0.0871861
0.0148331
0.0310567
-0.000480319
0.203999
-0.0559522
-0.170435
-0.00117995
0.0224015
0.169444
0.000860795
-0.0806946
0.249725
-0.0485127
-0.0823991
-0.0820494
-0.109274
-0.112604
0.0600681
0.251571
-0.128465
-2.44084e-05
0.000864611
-0.0247667
-0.00206401
0.00793051
-2.77666e-05
-0.00648964
0.00440076
-0.000106724
0.0654795
-0.000630713
0.140684
-0.037622
-0.00714693
-0.0077957
-0.00963461
-0.078756
-0.00662007
-0.00125188
0.0239157
0.0907158
0.00492627
-0.0371198
-0.00338454
0.033055
-0.0106773
-0.0216329
-0.0818438
-0.017854
-6.74115e-05
-0.0171111
0.478942
9.57985e-06
0.160531
-0.0546226
0.567517
0.0554166
-0.0521996
-3.84216e-06
0.00183765
-0.104273
-3.35228e-05
-0.00310718
-7.95575e-06
-0.0886441
0.0050124
-0.100968
-0.0258215
-0.000174924
0.30866
0.29824
-0.0403262
0.000471182
-0.000235114
-2.3681e-05
-9.06237e-05
0.514252
-0.00154525
0.00251805
0.0245644
0.00102191
-0.000721283
-0.0829869
-0.000363429
0.0531044
0.00226314
-0.00243006
-0.000896323
-0.0288332
-0.047018
0.208451
0.11902
-0.000221036
-0.0149028
0.000563245
-0.0686092
-0.000758005
0.158207
-0.0108935
0.665737
-0.0188223
-0.00170256
0.0862946
-0.0214354
0.381893
-0.0477232
-0.0127557
-0.0147237
0.0207249
-0.00418157
-1.13919e-05
-0.00949796
0.34248
-0.0490612
-0.00373942
-0.0468796
-0.0304715
0.176636
-0.000626436
0.313858
-0.00356114
-0.0767629
-0.000653761
0.0149409
0.0525693
-0.00728519
0.368943
-0.000586704
0.0375624
0.101944
0.000477003
-0.000199066
0.555419
0.0799089
-0.0013468
0.0338987
0.0223071
0.00010254
-0.0710666
-0.0251709
-0.153386
-0.0120679
0.368895
0.00463351
0.199365
-0.000499298
0.432103
-0.0797892
-0.00609009
0.00697492
0.0357068
-0.0808413
-0.130374
-0.00981755
2.06692e-05
0.611902
-0.0255803
0.000873048
-0.0373744
-0.0447019
0.376254
0.0033398
-0.0185792
-8.77025e-05
0.101772
0.00906478
-0.0433852
0.00086658
-0.00404405
-0.0317732
2.43274e-05
-0.0590215
-0.0018583
-0.0169144
-0.0730615
0.323276
-0.0117767
0.055913
-0.0534154
-0.0365796
-8.08556e-05
0.000122399
-0.00443443
2.56774e-05
-0.0128346
0.0192075
-0.00244059
-2.83696e-05
0.546246
0.00563713
0.000318997
-7.81618e-05
-0.00251996
0.36367
-0.0594282
0.613341
0.215972
0.0253609
0.318096
-3.27937e-05
-0.016728
-0.00102972
-0.00291708
0.225884
-0.0117395
0.611977
0.292433
-0.0653417
0.303798
0.00990726
-0.0163926
0.0024878
-0.0554218
-0.00464105
-0.0591062
-0.0632032
-0.00355268
0.299962
-0.0114979
0.00012499
-0.00504515
-0.000823428
-0.0384701
-0.000231591
-0.00151935
-4.65659e-05
0.187264
-0.127802
0.309109
0.0321511
-0.00325488
-0.0393025
-0.0232532
0.0849343
-0.0036067
-0.00128889
-0.0746932
-0.0520869
0.0105795
-0.0486344
-0.00527153
0.0102037
0.00240805
6.47015e-06
0.162767
-7.94653e-05
0.0659797
-0.000994935
1.74501e-06
0.00222313
-0.000838773
-0.0014749
-0.0185957
0.20928
0.175035
-0.0229154
-0.0146503
0.00325276
-0.0059931
-0.011879
-0.000140718
-0.000624615
0.000734091
0.134197
-0.0102016
-0.0662108
-0.0612119
-0.00282326
-0.0282857
-0.0171679
-0.00205449
0.0059977
-0.01446
0.279
-0.08282
0.0063983
0.00176011
-0.0438387
0.602281
-0.011678
-0.00626428
0.00884137
0.0961345
0.00453394
-0.00547845
0.301513
-0.000473979
0.0516705
-0.0276974
-0.0681901
0.0072171
-0.00443465
-0.00649391
0.0479149
-0.00427805
-0.000787096
-0.00157613
0.00282104
-0.000320158
0.0373848
-0.0109706
-0.00244206
-3.10949e-05
0.189441
-7.86878e-05
-0.0376277
0.0928862
-0.0287862
0.000100114
0.132671
-0.051301
0.203842
-0.000109317
-0.00469638
0.120985
0.000163861
0.00560723
-0.00534319
0.0119613
-0.023933
-0.037131
-0.010564
-0.00319391
0.0113227
0.0238933
0.11772
-0.000255891
0.138287
-0.0462517
-0.00394608
-0.00815663
0.00042039
-0.0743326
5.95944e-05
0.483697
0.257675
-0.000621152
-0.0247979
2.79134e-05
-0.00260907
-0.00664047
-0.0201629
0.188867
0.191473
0.0206127
0.0116482
-0.0837736
0.042728
0.0613331
0.0755339
-0.0586112
0.0181914
0.250592
-0.0111729
0.419229
-0.00113569
-0.0127114
-0.0598508
-0.00014895
-0.000933553
-6.56437e-05
0.416159
-0.0120489
0.000255692
-0.0179806
-0.00630087
-0.000422381
-0.0152848
0.322573
0.00103168
0.0125295
-0.0355508
-0.000653256
-0.00538832
-0.000989374
0.620726
0.000202659
1.74578e-05
-0.00234402
-0.0167047
0.121293
0.000556761
0.0136774
0.0913138
-0.000238595
0.00227311
-0.0834965
0.0795481
-0.0557638
1.20534e-07
0.00032942
-0.00424649
0.0367599
0.349398
0.109464
-0.0387431
3.1709e-07
-0.0657531
-0.00308254
-0.0144693
-0.0139905
0.20769
0.464928
-0.000155459
0.175469
0.273806
-0.0112076
-0.0241533
-0.027539
-0.0167586
9.06275e-05
-0.0455159
-0.00997913
-0.000199267
-0.000686934
-0.00187403
-0.00224047
-0.000828448
0.342751
0.365235
0.234473
-7.58748e-06
-0.0264166
0.0463914
0.12463
0.489726
-0.000606268
-0.022833
-0.0209356
0.342038
-0.0217167
-0.0109956
-0.00716855
0.179926
0.000289318
-0.000643561
-0.0294313
-0.051998
0.170274
0.0526065
-0.0490233
-0.0273888
0.122414
0.0228119
-0.0564399
0.00787809
0.0353629
0.174916
-0.00044891
-0.000772856
0.124
0.000194602
0.0352128
0.0361701
-3.58261e-05
0.318164
-0.0122147
-0.00512949
0.637971
-0.0413222
-0.0114015
-0.0430545
-0.00314605
0.460999
0.00124147
0.60445
-0.000195275
-0.021909
0.614154
0.00770474
0.45913
-0.00659852
-4.3602e-05
-0.0301471
0.467289
-0.00185967
-0.00761749
-0.00926946
-0.00119511
-0.0242047
0.469854
0.131044
-1.68016e-05
0.0226291
-0.00431096
0.0340549
-0.00106836
0.0263542
-0.00303368
-0.000604896
0.447436
0.479309
0.452141
-0.0576939
0.0525591
0.00012115
-0.0626887
0.316508
0.0179241
0.000222823
-0.0807462
0.00062032
-0.000149898
0.476889
0.000106758
0.00470441
-0.00225236
-0.0104415
0.456452
0.47029
0.483816
0.0134344
0.00048259
0.243829
0.00853979
0.0277629
-0.010372
5.45997e-05
-0.00341901
-3.67458e-05
-0.0052284
-0.000898044
-0.00664718
-0.000120666
0.172453
0.00234702
-0.0879627
-0.0104918
-0.0786816
-0.0183431
-0.000929318
0.38142
-0.0122093
-5.61981e-05
-5.78319e-05
0.594402
1.86062e-05
0.0128598
0.0661285
-0.0201568
0.334545
-0.00598949
-0.0477694
-0.0409074
-0.000661339
0.000108035
0.286867
0.480554
-0.00180358
-0.0250706
-0.00030247
0.47474
0.572998
-0.00168691
-0.007485
0.0218724
0.00339927
-0.0273605
3.03018e-05
0.0114103
-0.042086
0.0667406
0.384153
-0.00177008
0.0324309
0.132015
0.048833
-0.0487564
0.0320705
0.556603
0.215588
-0.0580007
0.480524
-0.000720945
0.48913
-0.00840252
0.405211
0.0894798
-0.00578198
0.0413378
0.00267548
0.0199342
-0.0793077
-0.000802861
-0.0259702
0.405059
-0.029509
0.0284672
-0.00172973
0.00553959
0.208643
-0.0103929
-0.01602
0.000746111
-0.00416916
-0.0265792
-0.0024873
0.00215621
-0.0099569
-0.000609142
0.00269066
0.402608
0.00235562
-0.0176991
-0.0655223
-0.0323167
-0.0689034
-0.099847
0.00465796
-6.39008e-06
-5.13656e-05
0.288296
-0.0675844
4.47146e-05
-0.0627606
0.198814
-0.0667674
-0.0166189
0.000100827
-0.00218742
-0.0504789
0.165832
-0.00988654
-0.000583326
-0.0503393
-0.0218504
0.6174
0.124557
0.0782627
-0.0587507
-3.8158e-06
-0.00754201
0.0728641
-0.000463022
1.14742e-05
0.18952
0.113968
0.000647361
-0.00101345
0.00813383
-0.0442052
0.0114464
0.00893149
-0.0166961
3.84963e-05
0.317134
0.000603373
-0.000781082
-0.000303473
-0.000279859
-0.000211353
0.0912517
0.000964068
-0.00316656
-0.0105901
-0.00540117
0.0319617
-0.00602919
-0.0452392
-0.011504
0.436431
0.363748
-0.00059231
-0.0016882
0.110111
-0.000961063
-0.0235372
0.0766111
0.107752
-0.00112113
0.0228063
0.0445595
0.00136322
0.120399
-0.000149337
0.00816359
-0.0151703
0.0152262
-0.0160009
0.0540338
5.39379e-05
2.10994e-05
0.000247181
-8.35055e-05
-0.00179435
-0.010634
-0.0139485
-0.0316148
0.0697251
0.0425175
0.010064
-0.0747132
0.012228
0.00708606
0.0143074
4.32035e-05
0.470261
-0.00903677
-0.00361542
-0.0127867
0.62524
3.21415e-06
0.0875246
-2.83919e-05
-0.0434817
-0.00701061
-0.0235899
0.188215
-0.00436722
-9.44633e-05
0.203307
0.078545
-0.000649025
0.0563465
-2.51921e-05
0.175339
0.00708951
-0.0302659
-0.000194956
0.260794
0.031051
-0.0217682
1.20194e-05
0.181921
0.332255
-0.00125774
-7.55745e-05
-0.0388667
-0.00967968
0.00669458
0.0250258
0.491244
0.287215
0.000469867
0.359501
0.267557
-0.00309267
-0.0582367
-0.040246
-0.0173448
-0.0627466
0.158174
0.000822445
0.510852
0.162575
0.0133007
5.8431e-05
0.000626787
4.89796e-06
-0.000652926
-0.0030269
0.546183
-1.85799e-05
0.084948
0.0290629
-0.000280716
0.507056
0.573157
0.211212
0.243962
0.00636746
0.00256975
-0.000346115
-0.0117116
-2.62709e-05
-0.0012149
-0.160955
-7.4246e-05
-0.0020836
0.519482
-0.0122737
-3.3675e-05
0.540993
0.000441742
-0.0367824
-0.0753143
-0.00144512
-0.0945842
-0.000283526
0.167833
0.00346504
-0.0182311
0.00199576
-0.000750007
-0.00045812
-0.000272096
-0.166303
-0.0640987
0.163417
0.00285871
-0.00643172
0.252295
5.23384e-05
0.599577
-0.000649911
-0.0880526
0.00231109
0.00167371
0.0542073
0.0570789
-2.51638e-05
-0.00442055
7.98604e-05
-0.00075281
0.000837817
0.0890162
0.0518481
0.337575
-0.0506306
-0.00013114
0.000143791
0.104229
0.367556
-0.00470556
-0.00662298
0.599876
-0.00296164
-0.0214282
0.000842977
0.0811072
-0.0494447
-0.00895128
0.167146
0.00133976
-0.000303272
0.00169072
0.00248979
0.589568
0.46896
-0.0250192
-0.0425213
-0.00679978
0.00159192
4.99261e-06
0.079474
0.214789
-1.89102e-05
-0.00764351
-3.16258e-05
0.000101582
0.442629
-8.08872e-07
-0.0878833
-0.0653003
-0.112301
0.0735978
-1.27404e-05
0.0103209
-0.00650941
0.409543
0.00301909
0.0051606
-0.0315013
0.000610989
0.369115
0.219147
0.0112221
0.0592792
0.525129
-0.0684689
-0.0630012
-0.00204122
-0.00734503
-0.000451775
0.0250456
-0.000111805
0.174994
0.00296679
0.210024
-0.0363687
-3.62077e-06
0.0599085
-0.000211656
-2.70334e-05
-0.000842701
0.585711
0.562753
0.331083
3.79671e-05
0.19716
0.487089
-0.00105917
0.00152979
-0.00880793
0.0908703
0.470403
-0.0285168
0.128029
-0.00274619
-0.0669207
-0.0758363
0.647314
-0.000664801
0.467737
0.0925217
0.200371
6.7603e-05
0.000184039
0.00552199
-0.009337
0.0876253
-8.40909e-05
4.48612e-05
0.459026
-0.122763
0.000259319
0.480567
-0.00245799
0.000121492
0.392159
-0.00740741
-0.00167796
0.0188571
0.167883
0.000293062
-0.000171652
0.00351699
-0.0042415
0.455937
0.582088
0.300691
0.632129
0.135982
-0.0474946
0.530379
-0.000113271
-0.00342198
0.15995
-0.00364288
-0.000717711
-0.000129254
0.479154
0.0292046
-0.00071538
0.567049
0.0786353
0.262069
0.0452826
-0.00286192
-0.0214076
0.168992
0.0771214
0.477815
-0.0252374
-0.000854962
0.440268
0.408321
0.0134951
0.344216
-0.0409781
-0.00809041
-0.00976242
-0.000703218
-0.00017662
0.445142
-0.0655769
0.021012
0.000752492
0.16415
-0.0322792
-0.0195907
-0.00110834
-0.00408051
0.496406
-0.000872051
-0.0179744
-0.00315394
0.488588
-0.0200424
0.0205671
-0.00776648
0.00138206
0.159331
-0.0225652
0.507191
0.141269
0.629316
0.257559
-0.0613064
0.0320663
-0.0019037
0.0104724
-0.0252442
0.462495
0.492783
0.55018
0.331211
0.449646
-0.00043585
0.521042
-5.39215e-05
4.62189e-05
-0.0493444
0.561716
0.051815
0.254831
-4.80304e-05
-0.00228804
-0.0627309
-0.0372485
0.454609
-0.000744213
-0.00794594
0.330812
0.00101866
-0.00442668
0.609909
0.0484405
-0.045101
-0.144558
-0.000605839
0.0804262
0.135233
0.637075
0.110145
0.0572508
0.00424605
-0.000276881
-0.00760424
0.196696
0.00570942
0.00010543
-0.0944842
0.246943
-0.00157074
0.468455
-0.0788044
0.473631
-0.0263144
-0.0235483
0.527605
-0.00552887
0.0518174
-0.000460241
-0.0014077
-0.0645801
-0.0229329
-0.0368341
-0.0100093
0.00626081
-0.102848
-0.0721024
0.471489
0.00022089
0.00072178
-0.0209142
0.122586
-0.112321
-0.0599384
-1.91077e-05
-0.0990745
0.0477178
-0.000140122
-0.0923035
-0.00338031
0.477573
-0.112967
0.466762
-0.0139666
0.120316
0.251877
-0.0353015
0.32135
-0.00189405
0.109693
0.000724503
0.0863523
0.19843
0.17552
-0.028793
0.00610187
-0.000757616
0.179663
-0.000107953
-0.000164136
-0.00110544
-7.89306e-06
0.0159639
0.0148938
0.400164
0.159668
0.592561
0.371402
-0.0016086
-0.0326625
-0.000209532
-0.0486583
-0.00134502
0.00572473
0.000599224
-0.0341367
0.331041
0.465926
-0.000331011
1.24441e-05
0.0498502
-3.9032e-05
-0.00927107
-0.000223579
0.136647
-0.0356611
0.187301
-0.0992661
1.00081e-05
-0.0139827
-0.0400356
-0.0259381
-0.0165259
-0.052391
0.0570106
-0.000195501
-5.74922e-05
0.00201728
-0.000177031
0.081282
0.105599
0.0392592
0.551258
0.0446184
-0.148297
-0.0868849
-0.000489445
0.0509108
-0.000160611
0.441141
0.0984038
0.514327
0.000104441
-0.0327087
-0.00687162
0.0495378
0.204234
0.405058
-0.00765159
0.0313497
-0.00197856
-0.0193243
-0.00806536
-0.00614977
0.105424
0.00151959
-0.0085304
-0.0203253
0.252587
0.0656621
-6.94782e-07
-0.00093865
-0.00625672
-0.000652065
0.116354
-0.000714398
-0.03193
0.149985
5.51755e-05
0.254992
6.39913e-05
-5.13921e-06
-0.0950217
-0.0193079
0.000131672
-0.0224522
0.000120358
0.536046
0.0122607
-0.0240341
0.500042
0.124815
-0.0311873
0.393795
-0.00281542
-0.00192484
-0.00213747
0.0839738
0.668685
-0.00155818
-0.00067198
-2.54607e-05
0.00769815
-0.00130618
0.0250595
0.00599938
-0.0207883
-0.0587671
0.0181375
0.0103608
-0.0186682
-0.000585087
-0.0141476
0.390087
-0.00187404
-0.0137079
-0.000268013
0.401758
0.0535409
0.386011
0.000389458
-0.00090251
-0.0237509
0.553157
0.142748
-0.0280783
-0.000163146
0.0309346
0.103695
-0.0250661
0.198879
-0.0470445
0.0191643
-0.155181
0.405243
-0.0164352
0.241828
-0.00322001
0.633797
-0.0406782
-0.010968
0.50598
-0.042439
0.161203
-0.169081
0.178756
0.00628902
0.0488881
0.316572
0.0489286
-0.04737
-0.00965391
-0.00760963
-0.0144712
-0.00163905
-0.00159125
-0.0566518
-0.0279094
0.00185832
-0.0651133
-0.0826115
-6.15241e-05
0.13692
-0.00909471
0.143271
0.509668
0.360197
-0.0527557
-0.0710755
0.000398133
-0.0822247
-0.00446975
0.61437
-0.0348526
-0.0298953
0.355674
0.0468961
-0.0398599
0.228621
-0.036449
-0.000713235
-0.0116627
0.00980996
0.000571101
0.373541
-0.0027538
0.137945
0.327125
-0.00570563
0.232445
-0.110938
-0.000411053
0.00650589
0.0862306
0.340249
-0.00257065
0.0821445
-0.0708332
0.0689708
-0.0227774
0.36402
0.00456675
-0.0712016
-0.0032514
0.000150058
0.464726
-0.00249629
-0.0322653
-0.000140677
0.202728
-8.9007e-05
-0.0481017
-0.00268192
-0.148419
0.000573757
-0.0102512
0.196379
-0.00395762
0.000870447
0.000554321
-0.00416439
0.0558057
-0.00010442
-4.52304e-05
-0.00849276
-0.0105156
-0.0226673
0.00793678
-0.00195819
0.0730367
0.0774101
-0.00133457
0.000960283
-0.00023867
0.458603
-0.00423655