/*--------------------------------*- C++ -*----------------------------------*\
  =========                 |
  \\      /  F ield         | OpenFOAM: The Open Source CFD Toolbox
   \\    /   O peration     | Website:  https://openfoam.org
    \\  /    A nd           | Version:  7
     \\/     M anipulation  |
\*---------------------------------------------------------------------------*/
FoamFile
{
    version     2.0;
    format      ascii;
    class       volScalarField;
    location    "5";
    object      p;
}
// * * * * * * * * * * * * * * * * * * * * * * * * * * * * * * * * * * * * * //

dimensions      [0 2 -2 0 0 0 0];

internalField   nonuniform List<scalar> 
7724
(
0.962316
0.0847689
1.60356
1.03292
-0.0060093
-0.000261869
1.61991
-0.0375964
-0.000821308
0.470182
-0.000246419
0.0166562
-0.0561346
0.244002
0.487031
-0.0696496
0.969502
-0.0739939
0.00931298
-0.295612
0.331862
0.0109012
0.183262
0.85448
-0.096378
1.00596
-0.00551259
0.297516
0.725729
0.019683
-0.0998779
2.52089
0.181338
-0.00339622
-0.000736777
0.387646
0.0217029
1.56609
-0.030986
-0.00236306
-0.0279274
-0.0680137
-0.259559
0.036957
-0.00141644
-0.000574462
0.0107792
-0.0311662
-0.000476912
-0.286456
0.0248844
0.283138
-0.121845
0.000677058
0.385472
-0.0334598
0.0102816
-0.0378491
-0.154604
-0.00356945
0.000280772
0.0318875
0.244337
0.0183348
-0.00692145
-0.0971183
-0.000670524
3.1155e-05
0.427127
-0.0288326
-0.000528084
-0.24789
-0.0930566
-0.160378
-0.0713154
-0.222322
1.57177
0.324349
0.330439
-0.289116
-0.0539368
1.46298
0.46335
-0.165551
-0.0101189
-0.0159978
-0.0403286
-0.118106
-0.00459462
-0.0313787
0.742172
0.0400788
-0.000943439
0.00930749
-0.0249923
-0.162938
-0.237658
0.0140255
-0.0111648
-0.00830542
-0.277777
0.356733
-0.0238069
-0.000140609
0.0706937
0.761443
2.15822
-0.0354317
-5.22647e-06
0.175562
0.982109
-0.141122
-1.06963e-05
0.186285
0.761655
0.00322564
-0.124622
0.622642
-0.175463
-0.162539
-0.288721
1.40567
-0.242537
0.0713075
-0.281874
-0.00679872
-0.0883514
0.0152394
-0.00730355
-0.0980937
-0.066005
0.328873
-0.00425238
-0.00542679
-0.171448
0.955833
1.73361
-0.000121188
0.0551888
-0.363398
-0.151979
-0.198323
-0.22279
-0.153149
2.18695
-0.0600767
0.732177
-0.146942
-0.211294
1.3993
0.370214
0.0546324
-0.0102945
0.380779
0.461407
1.44844
-0.251198
-0.0558261
2.04469
-0.000431397
0.00508075
0.881451
-0.000133711
-0.0140285
-0.028231
1.08336
1.08792
2.11894
-0.0161887
-0.0215524
3.49016e-05
-0.300795
0.00319794
0.107726
0.0597071
-0.207796
0.122222
0.623372
-0.000934972
-0.0034915
1.04766
-0.000429838
-0.000794753
1.62385
0.0680851
-0.131466
-0.164267
-0.149272
-0.0757887
-0.355972
-0.00014588
-0.228378
0.639833
-0.0240437
0.000516313
0.801777
-0.00894461
-0.0918823
-0.0767972
4.00622e-05
0.00679199
0.977747
0.733617
1.46458
-0.104371
-0.119084
-0.204273
0.323137
0.963569
-0.00151788
0.000247006
2.05306
-0.0601077
-0.00444828
-0.217911
-0.0923154
1.3214
1.35244
-0.213881
2.38715
-0.00828891
-0.0732501
-0.284989
0.389648
-0.317002
0.82616
2.04946
0.000450326
0.0747183
0.65911
-0.0293845
0.609866
-0.0038995
2.28259
1.42191
-0.0401714
0.0212126
-0.00219194
0.583523
-0.000674304
-0.0427192
-0.337627
-0.0005277
-0.00962264
-0.00308705
0.684513
-0.000133751
-0.0326149
-0.279612
2.5134
0.299669
2.20263
-0.00032235
-0.0884941
-0.00135689
1.51207
0.0308083
1.74213
0.0119697
0.00580673
0.0649217
0.335346
0.00437214
-0.00165157
0.00389695
-0.0308353
-0.122241
-0.000301049
-0.242563
-0.0268743
-0.00103107
-0.00465409
1.65697
-0.0556512
-0.00563941
2.36029
-0.0106522
0.990437
-0.00151314
0.0130121
5.59233e-05
-0.159264
0.375169
0.148845
-0.154773
-0.00298615
-0.26624
-0.109981
-0.00131244
0.0037914
-0.0157191
-0.0535662
0.022294
-0.00888571
-0.158143
-0.101638
-0.156403
0.0737918
-0.198125
1.38386
1.43521
-0.0110615
0.0858898
-5.42242e-05
-0.0167141
-0.165857
0.833702
0.511902
0.000715256
-0.0152294
-0.192797
0.719964
-0.00735051
0.0271863
0.00930951
0.329194
-0.0945133
1.26153
-0.0119511
0.0870148
-0.00083685
0.0316774
-0.000383614
-0.11714
-0.00253391
0.0407778
0.0291911
-0.189518
0.0220285
0.0665862
-0.00544795
0.157673
-0.047222
0.398781
0.695903
-0.247797
0.00967321
-0.113733
0.0391154
-0.327677
2.17556
0.0213133
0.225634
2.3337
-0.0114959
-0.0129223
0.0266696
-0.00789222
-0.045956
0.047971
-0.0204611
-0.0152972
0.691925
-0.000491922
0.0041995
0.000583299
-0.0250349
-0.0501471
-6.44302e-05
-0.0082176
-0.14793
2.04411
0.02779
-0.0592925
1.90666
1.23146
0.353182
0.119263
-0.30568
0.0376249
1.04519
-0.0793296
1.14304
-0.0898523
-0.247124
0.7485
1.1424
-0.231476
0.486321
0.801082
1.0403
0.317934
-0.0226761
-0.0313104
-0.000651296
0.0379869
-0.0810727
0.00766328
-0.000792174
-0.01187
-0.271093
0.438625
-0.119463
-0.0159281
-0.028041
0.0715021
-0.0513249
0.0144165
0.722028
-0.014006
-0.000161743
-0.000398313
0.000361358
-0.144019
0.674789
-0.0294922
0.205649
-0.32224
1.54017
0.0256475
0.0508988
-0.0379801
1.60422
-0.00794502
1.24082
0.746665
-0.000864979
-0.100077
-0.0243554
-0.18829
0.00433074
0.381779
0.0286469
0.0474503
-0.0063698
0.635707
0.732979
-0.151531
-0.146395
-0.0166094
-0.0879003
0.372844
2.47857
-0.0657083
0.0352462
-7.25794e-06
-0.0939939
-0.0167352
0.144367
-0.282311
0.0527803
1.6583
0.672541
-0.167796
0.830824
1.57662
0.199418
0.00936038
1.07593
-0.00658082
-0.00136042
-0.122222
0.000645762
-0.228561
0.00275599
-0.147149
0.0145729
0.823552
-0.0132634
-0.000177188
-0.272065
0.0130843
0.24569
-0.266827
-0.352262
0.189114
0.665326
0.554486
0.569059
-0.00152339
0.409731
0.426568
-0.00392755
-0.115229
0.00461977
0.0488755
-0.00628145
0.0357652
-0.00578896
0.573194
-0.000145907
0.00149297
0.0148647
-0.148276
0.153366
-0.140305
-0.176327
-0.119237
-0.316519
0.0746512
1.0418
0.0721973
-0.0485119
2.31158
-0.231912
-0.0527349
-0.173179
-0.0385911
-0.139823
-0.0722784
0.207879
0.00173579
-0.000190559
0.183127
-0.000714031
1.40633
0.439379
-0.0353415
-0.0974282
-0.00139896
1.46994
1.24873
0.361059
0.592502
-0.240856
1.79348
-0.000459769
0.160427
-0.124443
0.653118
2.13092
0.337506
0.648712
-0.0108794
-0.0015176
0.54579
-0.0253541
1.53739
0.251435
0.920464
-0.0508101
1.57892
1.19494
-0.0644821
-0.0546185
0.483719
-0.361372
-0.000618915
-0.0902649
-0.344887
-0.237444
0.0826396
0.0685798
-0.000921971
1.24981
-0.00552095
-0.000762978
-0.082454
-0.0036348
-0.0016593
0.0274238
0.897017
-0.248579
1.98504
0.000462327
0.87901
-0.0717336
-0.000554097
0.000133792
0.718662
0.872752
-0.0293737
0.80656
0.000188388
0.845784
-0.249158
-0.0671977
1.65106
-0.209848
0.563994
-0.166137
0.835221
0.858957
-0.111174
-0.140445
-0.04105
-0.0203993
-0.00148911
-0.00663898
1.0889
-0.000199652
0.817664
-0.223827
1.32804
0.782344
-0.353437
1.91954
-0.011546
0.0474704
-0.0907519
-0.133952
-0.046296
-0.086536
0.228376
2.25923
0.000316129
-0.0136454
-0.147371
4.53563e-05
1.42385
0.0133399
4.40153e-05
0.00144198
0.00281377
-0.113156
0.14109
-0.0109762
-0.000636211
-0.0489343
0.0213899
-0.321034
-0.325514
0.154749
-0.000159698
-0.296415
-0.0878265
0.519628
1.31308
0.00890314
0.547494
0.00112954
-0.0844588
0.427296
-0.0463044
0.94623
-0.0864663
0.178652
0.443132
0.659699
0.0351584
-0.0692363
0.741844
-0.276651
1.5355
-0.062241
1.01293
-0.0620601
-0.00825733
0.620569
0.0224351
0.426342
0.013934
3.85244e-05
-0.335436
0.711304
0.0105993
0.509684
-0.081995
-0.31469
0.0764728
-0.145476
-0.0118038
-0.05812
-0.265151
-0.179042
-0.0652297
-0.00105828
1.61665
0.533347
0.205322
-0.0014187
1.19353
3.04981e-05
-0.00130174
0.567793
0.0184115
0.647269
0.293898
0.121662
-0.0105364
-0.272089
0.176037
0.00946892
-0.259604
-0.000132752
0.0283783
0.908977
-0.10581
-0.0197666
-0.026961
-0.0138521
-0.00289089
2.31081
-0.0658408
-0.00396155
-4.2657e-05
0.607281
-0.182831
-0.00230935
-0.0194424
0.696437
0.426692
-0.229962
1.07075e-05
0.763404
-0.102772
0.791509
0.114859
0.140189
-0.188994
-0.000676747
0.432758
0.395903
0.254987
-0.197111
1.09321
0.0431851
0.719009
-0.0155876
-0.084803
-0.00279456
-0.00512276
-0.0007497
0.69654
0.902678
-0.0104445
0.135663
-0.112088
-0.14672
-0.175261
-0.0131653
0.149452
2.2366
0.217619
-0.000378502
0.41968
-0.0249224
1.89186
-0.0815917
-0.067953
0.00552765
-0.0778254
-0.0394813
-0.0521226
-0.0211431
0.0114764
0.201734
0.000764784
-0.178594
0.133537
1.34621
-0.220507
0.678308
0.0146366
-0.0657268
-0.0621609
0.874857
-0.0491568
0.00076649
-0.099887
-0.0354666
0.160016
-0.170096
-0.145929
0.0894058
-0.0956524
-0.0139468
-0.245717
3.97904e-05
0.262989
-0.218276
0.609753
-0.0407233
0.423344
-0.224413
1.1925
0.0694138
-0.195025
-0.0566904
2.00734
-0.157809
-0.0853424
-0.296218
-0.0989485
-0.246517
-0.125921
0.71497
-0.0196427
1.02169
0.0616507
-0.00274187
-0.00840243
0.375782
2.52866
0.00833682
-0.0687058
0.728073
0.000159928
-0.134122
0.187924
0.0952515
0.0624145
-0.0113008
-0.15926
-0.0197649
0.000207785
-0.199161
0.991765
0.0357781
-0.108199
0.0133869
0.726822
-0.00267454
-0.00880901
-0.00255403
-0.00541865
0.299212
0.0461703
0.0258127
-0.116066
0.000321062
-0.234477
0.0121261
-0.261331
-0.082305
0.102978
-0.00150721
-0.0817489
-0.274149
0.256765
1.33868
-0.00872947
-0.30926
-0.0334119
0.0790546
0.633111
0.00311032
-0.00111327
0.508036
0.213273
0.107345
-0.0210433
-0.0147944
-0.248916
-0.00125097
0.0174586
-0.0871129
1.16394
0.986659
-0.048331
-0.206844
0.0511586
0.0393092
0.179135
-0.23273
-0.0374517
-3.73045e-06
0.150637
-0.157872
-0.258223
0.0460126
-0.24987
-0.00283754
-0.0211405
0.7927
-0.180817
-2.91443e-05
-0.0198858
-0.113747
-0.00118257
-0.0490997
-0.000350326
0.0306804
-0.309947
-0.0589296
-0.000148732
0.00021629
0.532068
-0.160961
1.48445
0.980651
0.127744
-0.00408503
-0.0476387
0.001549
-0.0925512
-0.216796
0.153322
-0.105145
0.927128
0.064177
0.00193451
0.0478505
-0.217501
0.0138139
-0.0611511
-0.264473
0.0237058
0.112799
0.316575
0.0648356
-0.141993
-0.0946949
0.758173
-0.0739339
-2.49934e-06
-0.237915
-0.299322
-0.0866155
0.0329352
0.00533764
0.065082
-0.292265
0.166672
-0.173066
0.55112
-0.0981379
0.0442236
0.099712
0.102289
-0.175605
-0.117224
-0.000725815
0.600942
0.825936
0.0405541
0.746232
-0.201866
0.224557
-0.158279
0.79607
0.435646
2.21556
3.0189e-05
0.448388
0.71065
0.0754293
-0.00807256
-0.0909236
0.111282
0.000301244
-0.0907598
-0.182822
-0.099604
-0.109519
0.000915636
-0.0454674
-0.0020069
-0.00483575
0.937008
0.0368127
0.363684
0.107267
0.817707
0.0640182
-0.00214942
-0.152782
0.0451763
1.40642
0.00687876
-0.19513
-0.00120649
-0.0029874
0.0428188
-0.109888
-0.000170212
-0.0538705
0.151179
-0.0106102
0.000215164
-0.000250283
0.616483
0.0163059
0.036843
-0.00603605
0.0464975
0.0799073
0.046597
-0.00156994
1.2555
-0.113186
0.864778
1.0924
-0.00114697
0.336095
0.478711
-0.00416534
-0.00144393
-0.00232284
0.110112
0.0976866
-0.0343979
-0.0748656
-0.260924
0.68677
-0.200206
6.88411e-05
-0.095973
-0.0869694
-0.176138
-0.0224632
0.0321865
0.00669305
0.140221
-0.00277704
-0.00125073
-0.0849217
-0.0226644
-0.122664
-8.41085e-05
-0.073615
0.168778
0.0380315
-0.0158215
-0.0434134
-0.0585443
-0.0457301
-0.027225
0.0638526
-0.0471686
-0.000562018
-0.00213222
0.120088
-0.0606961
-0.0259135
0.0447419
0.0189352
-0.342542
-0.0552963
0.631157
-0.0622403
-0.242826
-0.111141
-0.111569
-0.0772881
-0.0196421
0.011935
-0.018453
-0.0684454
-0.0797518
0.759121
0.608146
0.257039
1.3059
-0.000385798
-0.0163232
-0.0811068
-0.0406744
0.425389
-0.100063
0.259826
-0.0212381
0.808793
-0.0100826
-0.0084349
0.109453
-0.0626708
-0.00117309
-0.0913189
-0.0306584
-0.102977
-0.00010749
-0.0344038
0.0104387
-0.08653
0.187062
0.170279
0.0940234
-0.0695344
-0.154156
0.483188
-0.00661676
-0.0102665
-0.011058
1.88612
-0.000465548
0.343702
-0.104709
-0.10091
-0.130314
-0.181916
-0.141135
-0.167366
-0.0892163
-0.024051
-0.00051557
-0.0221991
-0.106269
0.426174
0.0088257
0.597519
-0.161125
-0.0656858
-0.00485411
-0.141376
-0.000544059
0.601586
-0.147969
-0.128593
-0.117109
-0.0191074
-0.155152
-0.00890204
-0.199057
0.432848
-0.126983
-0.26901
-0.0076683
-0.13285
-0.091079
0.0764687
-0.0168602
0.578092
-0.0125858
-0.0940809
-0.00351889
0.644001
-0.190675
-0.130057
-0.0168458
-0.0488494
-0.0143183
0.737324
0.123088
0.730765
-0.0240934
-0.00426914
-0.00660163
-0.012055
0.661389
-0.289211
-0.0354799
0.00176859
-0.0314303
-0.0224797
-0.00466634
-0.0503098
-0.0777028
0.260654
-0.0258261
0.0296209
1.84951
-0.298209
-0.142306
-0.278122
0.00018264
0.33527
-0.018463
-0.13231
-0.0292032
-0.174698
0.023932
-0.00277004
-0.0150793
0.0167551
0.787628
-0.0303404
-0.0092818
-0.0242447
-0.24199
-0.0432394
-0.109759
0.0231205
-0.0452308
-0.0463921
-0.0170851
0.800545
-0.225269
0.0165951
-0.0218163
-0.135981
-0.0709893
-0.242161
-0.0072767
0.398807
0.114669
-0.0408088
-0.00896346
-0.0694073
1.9395
0.794673
-0.0580521
-0.00301578
-0.0123902
0.0430737
-0.0207437
0.103997
-0.00214361
-0.0631381
-0.0103133
-0.0861471
-0.00127225
-0.00549553
-0.0501294
-0.00708293
1.20986
-0.0333619
-0.0598366
0.0624493
-0.0101325
-0.14758
0.335216
1.69701
-0.0553796
-0.0585654
-0.011035
-0.00240592
9.84491e-06
-2.12459e-05
-0.0522333
-0.00343681
0.485691
-0.00348341
-0.00944872
0.0425633
-0.00133989
-0.216404
-0.213736
0.0853262
0.186742
0.127375
0.296381
-0.111035
0.392074
0.308184
0.409624
0.507743
-0.0661159
-0.00455054
-0.0288006
-0.238942
-0.0182168
-0.0765258
0.254115
1.19505
-0.188236
-0.00251263
-0.000150413
-0.0076557
-1.0379e-06
0.0500931
-0.00287058
-0.022648
-0.232838
0.00282778
0.0137811
-0.00113139
0.322836
-0.0785522
-0.0500673
-0.00621404
1.23521
0.989315
-0.0517833
-0.194182
-0.137701
-0.120723
-0.0735081
-0.00970143
-0.267606
-0.112036
-0.19917
-0.0110163
-0.000255819
0.748275
-0.0330946
-0.0497034
-0.100248
0.0933587
-0.00275315
-0.0432502
-0.00711984
0.071886
-0.00775438
0.660133
0.00182433
0.0507365
-0.00214687
-0.0931093
0.045034
-0.00390359
0.0834519
0.00215872
0.216632
0.498772
0.0119424
-0.00752258
-0.000648303
-0.0029648
-0.00261912
-0.294386
0.516493
0.186289
-0.00139238
0.0503806
-0.00236876
0.889209
-0.287473
0.949004
-0.209047
-0.00234322
-0.00147831
-0.0377817
-0.0290821
-0.00326291
-9.48204e-05
0.124848
0.141449
-0.00122266
-0.00171967
-0.0990826
-0.000114966
0.674362
-0.00489409
-0.254154
-0.0956518
-0.0328054
-0.2662
-0.289282
0.61315
-0.0449542
-0.101464
-0.00164609
-0.272701
-0.103006
0.159032
0.450896
1.32673
-0.00610669
-0.285485
0.0732388
1.14456
0.188116
-0.000618012
-0.0311799
-0.0210184
-0.0256446
-0.232055
0.404707
0.000937722
0.111306
0.0160223
0.363
-0.00270699
-0.00063072
-0.0943379
1.04551
-0.262439
0.598307
-0.00636564
-0.00104198
-1.27948e-05
-0.213797
-0.202281
-0.00175996
0.463515
0.0562305
-0.0275561
1.57372
-0.00203277
-0.0190555
-0.279172
-0.0564324
-0.0117938
0.553494
-0.177194
-0.000859427
0.0740098
-0.000905175
-0.000519342
0.575459
0.0305869
-0.00234571
-0.249555
-0.121965
-0.0179491
-0.0681082
0.01223
-0.112719
0.0086259
-0.0180629
-0.307645
-0.184084
0.118144
-0.00471725
0.637734
0.820187
-0.192766
0.0511572
0.094501
-0.0221727
0.669663
0.465788
-0.138669
-0.000836407
0.0516413
-0.267023
0.0744945
-0.133872
-0.0108133
0.229842
-0.135308
-0.000710047
-0.000376909
-0.0793286
-0.115522
-0.128211
0.0500617
0.138405
-0.211664
-0.000792651
-0.00709879
-0.00108101
-0.147887
-0.00012196
-0.00996298
-0.144264
-0.27023
0.485061
-0.0153576
0.0213946
-0.103948
-0.125605
-0.000663025
-0.224281
0.464284
0.635888
0.000122008
-0.000576683
0.647233
-0.0129147
-0.272097
-0.195652
0.0171759
0.00247817
-0.333853
-0.000314026
0.662244
-0.273619
-0.00762944
-0.039094
-0.239259
-0.00296182
-0.00124528
-0.00472103
0.0619483
-0.246671
0.581252
-0.00108571
1.93605
0.102602
0.000600329
-0.0049548
0.00129181
0.00147832
-7.34025e-05
0.000706532
-0.255758
-0.00371629
0.00221319
-0.00102305
0.575145
-0.029318
-0.00099626
-0.00022661
1.30246
-0.106104
0.00295908
0.00592152
-0.00368597
0.286378
-0.000503244
-0.0559807
-0.16274
0.0111289
-0.0312612
-0.000497259
-0.00105643
-0.148075
-0.201152
0.0366203
-0.178195
-0.117102
-0.000144037
0.104226
0.155308
0.459155
-0.00889235
-0.000805951
-0.267832
-0.0312456
-0.00256643
-0.237331
-0.000707404
0.207274
-0.000456034
-0.00659477
0.175941
-0.0104488
-0.280732
1.76516
-0.00831837
0.00141502
-0.246536
-0.212252
0.0473573
0.0239749
-0.00077799
-0.152648
-0.000432287
0.777514
2.38323
0.381714
0.0154784
0.0184247
-9.55937e-05
-0.134589
-0.00029323
-0.0309264
-0.00871917
0.00190182
-0.0172204
-0.045802
-0.000633997
0.00444509
-0.0370133
-0.00161121
-0.0470235
-0.0817656
-0.00163086
-0.00574431
2.1173
-0.00354109
0.0124554
0.00124477
0.0690639
-0.239968
0.0489407
-0.00090685
-0.00051387
0.0137382
-0.00056213
-0.000147038
-0.055014
0.00355129
-0.000124037
-0.24445
-0.01103
-0.27274
-0.00843258
-0.000348685
-0.0159801
-0.0178901
-0.0726111
-0.0961347
0.0117486
0.00267728
-0.00237912
-0.010207
-0.000404207
1.06105
0.00794702
-0.000101352
0.0030063
-0.0103071
-0.00182204
-0.306681
-0.263748
-0.000667313
-0.0357653
6.95091e-05
-0.0127198
-0.000376073
0.168263
-0.000718242
-0.000958072
-0.0170442
-0.000118394
0.0674964
-0.00115403
-0.00650487
0.0926151
6.28515e-05
1.43676
-0.256091
-0.200609
-0.000128272
-0.000107224
0.00983601
-0.00610059
-0.235558
-8.62977e-05
-1.14265e-05
0.00379365
-1.51755e-05
0.00193643
0.00228454
-0.00233812
0.00402082
-0.253488
1.80795
-0.143684
1.27807
0.0455936
-0.0791012
-9.50511e-05
-0.00450069
-0.0616142
0.000735774
0.00145281
0.000876338
0.329432
-0.00670111
-0.00110761
1.87349
-0.00273898
0.00300152
0.0025649
-2.42112e-05
0.257042
-0.011006
0.00578753
0.000636964
-0.00266408
-0.000349083
-0.00459449
-0.210484
-0.00212932
-0.00772278
-7.94116e-06
0.00110907
-0.00130895
0.762804
-0.00225499
-0.0013882
-0.334829
0.0191008
-0.000430296
-0.00685466
-0.000311216
0.703582
-0.347549
-0.00150556
-0.00197519
-0.00903382
-0.000790166
0.271099
0.489805
0.220903
0.00259811
-3.44769e-05
-5.64872e-06
0.288378
0.00130034
-0.29395
-0.0926521
-0.0777622
0.119586
2.11374
0.00998836
0.774994
-0.0719081
-0.141865
0.713394
-0.00181107
-0.314686
-6.41978e-05
-0.0454556
-0.239658
0.000280273
-0.211632
-0.00484886
0.00316516
-0.0257795
-0.209095
-0.205776
-0.0147297
-0.281287
-0.216113
-0.000953196
-0.0603745
-0.000256916
-0.182691
-0.000141682
-0.000946791
0.123477
0.680176
-4.37098e-07
-0.219109
0.0181641
0.000386339
-0.0995012
3.0263e-05
-0.0684487
-0.00131602
-0.188386
0.000650659
-0.000440581
-0.0101527
-0.000238028
0.663833
-0.1486
0.372035
-0.000149889
0.00320229
-0.159087
4.24473e-06
-0.274843
-0.320016
-0.270448
1.95716
-0.0327458
-8.89365e-05
0.128098
-0.20249
-0.0122723
-0.000120306
-0.000432639
-0.23035
0.000652447
0.00448363
-2.98136e-06
0.000815691
-0.137712
0.478402
-0.163817
0.439766
-0.0269879
-6.73232e-06
0.0343454
-0.218861
-0.000105022
-6.9367e-05
0.00163918
0.000327132
0.00206035
0.807968
0.17185
0.000286883
5.61547e-05
-0.322576
0.818199
0.730581
-0.000226157
-0.176247
-0.0908413
-0.0485696
-0.233998
-0.0399357
-0.0146338
0.594259
-0.000206311
-0.129121
0.698122
-0.236393
-8.48345e-05
-0.299918
-0.000880284
1.02439
0.143094
-6.76607e-05
-0.00013797
0.759915
1.90102e-05
-0.000904585
-0.0583177
6.58056e-05
0.966591
0.017958
-0.0366653
-0.318366
-0.0189299
-0.292858
0.754895
-0.0360429
0.00460999
0.00504672
-9.73465e-05
-0.00511206
-3.76962e-05
-7.92618e-05
0.14376
0.746873
0.628666
-0.00220138
0.978968
-0.048431
3.93383e-05
-0.22352
-8.77028e-05
-0.135599
0.147981
-0.0678147
0.0225018
0.00935019
-0.0465183
0.00125715
-0.00834771
0.1029
-0.0145137
-0.000237063
0.000149909
-0.000308725
0.151805
0.000280342
-0.100776
1.03558
-0.0300003
0.00025778
-0.0173
-4.88511e-05
0.390842
-0.00177889
-0.000328527
-0.000425833
-6.54355e-05
0.857616
-0.000754592
0.93134
-0.291812
0.000569704
-0.239793
-0.00241651
0.654742
1.92386
-0.00705583
1.22477e-05
8.20066e-05
-0.000105548
0.584872
3.73685e-06
0.0052963
-0.11873
0.893209
3.41371e-05
7.73635e-05
1.46962e-05
0.000125832
-0.100997
9.27144e-06
0.926033
-0.0753428
-0.000618914
0.000150353
-0.0103277
-0.142796
7.10945e-06
-0.000282272
0.690975
0.000169382
-0.155381
-0.156415
0.000673941
4.70571e-06
-0.262457
6.51873e-06
0.68291
7.47072e-05
-0.00221476
5.92009e-05
-0.000875206
0.409206
1.61184e-05
-0.00814528
4.19305e-05
0.0704952
-0.0168914
-0.0317892
0.0054475
0.643415
-0.00133449
-0.000400195
-0.0441094
-0.0426575
-0.00121591
-0.000257263
-0.00447335
0.000204328
0.686181
-0.0488324
1.89133
-3.10866e-06
-0.0381068
-0.000776349
0.568909
0.00028882
-0.126144
0.000119042
-0.0078851
-0.162194
-0.00114697
-0.0775669
-0.238228
0.0258466
-4.32053e-05
-0.23899
-0.00164987
-0.00146856
-0.027583
-0.0509955
0.00655218
-0.000244817
-0.0021695
-0.00438071
-0.0063979
6.65597e-05
-0.00604246
1.85847
0.000491386
-0.0161671
-0.169559
-0.357177
-0.305355
-0.232079
-0.105912
-0.00257531
-0.0620311
0.000388754
-0.00040514
1.86171
-0.000468089
0.724942
-0.00222835
0.00202181
-0.0056621
-0.159192
-0.00208119
0.00401244
-7.50376e-05
-0.0019552
-7.51223e-05
-0.000395681
-0.0735366
-0.00054142
-0.000130669
-0.000413416
0.000734383
-4.96288e-05
-0.203343
0.836711
-4.91592e-05
-0.00296112
0.000154275
0.000155244
-0.0041477
4.66513e-05
-0.00449725
0.00143411
-0.00181839
-0.311168
-0.00341101
-0.00899349
2.48551e-05
-0.00737339
0.00169007
-7.54714e-05
-4.83443e-05
6.83148e-05
-0.00392881
0.00274208
-0.212345
-0.125622
-0.315362
0.00328911
-0.00866925
0.0499415
-0.318019
-0.000469296
0.080304
0.0344944
-0.00513554
-0.0582393
-0.273807
1.6765
-0.00209572
-7.45246e-05
0.00450338
0.000248901
8.95559e-05
0.33132
0.0186594
0.38198
-0.155813
1.63749
-0.00256973
1.0764e-05
0.000761659
-8.98869e-05
-0.00674269
0.640024
0.88531
-2.61495e-05
-0.000838447
-8.45859e-05
0.845355
0.106476
-0.0227441
5.99988e-05
9.76334e-05
0.036042
-0.0034257
-0.337923
-0.0813449
0.000122516
0.0174184
-0.144248
-0.000298472
0.00916249
-0.000330114
-0.221418
-0.00883829
0.614799
8.45862e-05
0.00835292
0.00048953
7.56378e-05
0.000866787
-0.111314
7.46817e-05
-0.00449264
0.000114236
-0.0948626
-0.221217
-0.0139916
-0.0300012
-0.0422864
0.0449851
-0.0428251
-0.0123278
0.000339211
0.000529676
0.000103461
9.02488e-05
-0.000278883
0.0448647
-0.259466
0.00248591
-0.172281
-0.0152122
-0.211891
0.000439558
-1.12504e-05
0.00654246
-0.0247408
9.19274e-05
-0.17653
-0.0696717
0.216935
-0.166032
0.000133722
-0.01681
0.000975398
-0.171846
0.560711
5.85017e-05
-0.279694
-0.104001
-0.0206611
0.000191932
-4.22829e-05
0.150825
-0.0804396
0.000121318
-0.0331085
-2.02374e-05
0.00108271
0.525851
-4.14806e-05
1.76972e-05
-0.000417055
0.000174401
0.00451095
0.000442777
-0.0251968
0.00117459
-0.061095
0.00553867
-0.00103083
-0.141884
-0.203164
-0.0307406
-7.54605e-05
0.000108593
-0.245558
0.0285559
-0.22716
0.000146443
-0.025312
-0.000179893
0.000123692
0.341855
-0.0339681
-0.0137159
-4.02446e-06
-0.0838288
0.000250732
-0.318044
0.00013623
-0.359742
9.68351e-05
-2.97662e-05
0.000427968
0.00510287
-0.144398
-0.0874937
-0.323464
8.156e-05
0.000475316
-0.368038
-0.0985584
-0.0410393
-2.32661e-05
-0.0416657
-0.228603
-0.375137
1.89368e-05
-3.75138e-05
2.49739e-05
-0.176286
-0.308826
0.00361302
-0.0532146
-0.000275688
0.816624
0.000470432
7.41279e-05
0.000756774
-3.98418e-05
-4.10588e-05
-0.0176891
0.000571261
-0.0123979
-0.293843
-0.0628587
-0.283264
0.000201715
-0.000252827
0.258584
-0.158795
-0.0228248
0.480309
2.68919e-05
-6.52657e-05
-5.97391e-05
0.500918
0.000871915
-5.0572e-06
-2.13288e-05
-0.254554
-0.0743134
3.16433e-05
0.000397775
-0.0448283
-0.0309155
0.00213518
0.894635
-0.26175
0.00119135
2.40367
-8.67852e-05
-0.00336805
-0.0381999
-0.382511
3.32426e-05
-9.05731e-06
0.000108464
0.023831
-0.139306
-0.00165339
-0.232152
-0.0374549
0.000138648
-2.29828e-05
-0.0489859
0.0115424
0.0514101
-0.0904632
-0.218825
-0.185391
0.121329
-0.12475
-0.000310863
0.00177286
0.0885819
0.00269795
-0.000381934
0.00382206
0.000156935
-0.000447457
-0.0579249
-5.9037e-05
-0.000138077
0.193326
0.000556959
-0.000790437
-0.000196424
-2.62097e-05
0.974527
-0.0320586
0.00394147
-0.13082
0.00114945
0.000996625
0.000856909
-0.00023872
0.00242198
-0.17788
0.091429
-4.51943e-05
-0.000794258
-0.191206
-0.140774
0.220382
-0.00239061
0.00909905
0.0859653
1.04145e-05
0.000302141
-0.198176
0.000111352
0.671062
4.66437e-05
0.0206242
0.000834716
0.00112018
-0.339462
-0.0355328
-0.0856054
-0.011803
0.000132846
0.0340256
0.27441
-0.059062
-0.000654635
0.409374
0.656843
1.80019e-05
-0.247926
-0.000326665
-4.87956e-05
-0.00021939
-0.00275054
0.0946134
-2.28288e-05
0.00123891
-0.116993
-0.123116
-0.105771
1.20167
9.18738e-05
-0.000339889
0.687795
-0.00555826
-0.0184052
-0.00317261
0.677937
0.000224115
-0.00151803
0.000231878
0.000138782
0.000157944
0.000181157
0.000365986
-0.085791
4.31198e-05
-0.0159989
-0.214462
0.934277
-0.000684846
-0.00024411
0.023152
0.370438
-0.190451
-0.00366452
-0.338232
1.19163
0.000215727
1.54289
-2.15388e-05
0.0164696
0.116081
0.0021769
1.66781
-6.60881e-05
-2.95177e-05
0.00581707
0.000155162
-0.00420592
0.00130805
5.83115e-05
-0.00959667
5.65775e-05
-0.000705783
-0.0160845
0.949514
0.245974
0.105047
-0.211742
-2.51519e-05
-8.66519e-05
0.0168324
-0.232427
-4.6841e-05
-0.225046
-0.000263251
0.444906
0.276944
-0.153615
-0.00661232
-0.0541037
-0.0047986
-0.0712451
0.0225134
-0.0341334
0.29122
1.0811e-05
0.899824
0.227032
-0.00277105
0.836407
-0.0646427
-6.10922e-05
0.00011945
0.000333832
-0.00103574
-0.000583623
0.960083
-0.0048035
0.980124
-0.00498829
0.671423
0.872298
0.513787
-0.0341425
-2.39787e-05
0.000317274
-0.051159
-0.291025
-0.225374
0.00738953
0.000103044
-0.184604
-0.00147421
3.57735e-05
0.00502675
-0.00525725
-0.00295679
0.156562
0.000374843
-0.236016
0.271396
0.00028979
0.00134482
-0.0647788
-0.257909
-0.00357869
-0.00253621
6.63091e-05
0.00124729
0.421284
-0.0793709
-0.221695
0.00648152
0.453644
-0.185126
0.000178361
0.000115153
0.160654
-0.000435992
0.40172
0.0147422
-0.0655123
-0.00186993
0.00814764
-0.16905
-0.000168396
0.00246196
0.0346242
-0.358237
0.630851
-0.304335
-0.128773
-0.000799764
-0.000224449
0.032663
0.000234107
-0.365496
-0.311078
0.0028179
0.01696
0.0185314
-0.294465
0.00319531
0.000956394
0.00019283
-0.194956
0.000144577
0.00279329
0.514156
0.7251
-0.298833
0.223747
0.224762
0.148446
-0.00077078
0.0626964
0.000611757
4.42399e-05
-0.000347009
-3.2095e-06
0.00013729
-0.00175323
-0.0372292
-0.141761
-0.0475801
-0.130796
0.246401
0.204997
0.0200364
-0.297048
0.000805369
0.0232635
0.0550727
-0.00190639
0.344864
-0.00562784
-0.0523838
0.0607204
0.0268016
0.00547002
-0.0196876
0.210591
0.00410898
-0.0955563
-0.0792094
1.98064
-0.11688
0.36716
0.178573
-0.166017
0.0108808
0.000512581
-0.0127776
0.000285838
-0.0129884
-0.120755
-0.000340944
-0.000215497
1.04049
-0.0160222
-0.202544
-0.0914813
0.0010163
-0.00638974
-0.000111964
4.03112e-05
0.191765
0.00020254
-0.0144383
0.350613
0.0310857
0.0055387
0.0902433
-0.0281654
0.0207668
-0.251812
0.00433156
-0.0217304
-0.269492
-0.00417226
-0.0395946
0.00381987
0.00736979
0.00490985
0.188029
-0.00151814
0.0278209
-0.265192
-0.0989756
0.00157482
-0.265307
-0.0729992
-0.0839334
0.00053479
0.0324806
-0.293764
-0.0041153
-0.023461
-0.247552
0.00342435
-0.00578564
0.876274
-0.0940138
-0.000203084
0.0403423
-0.230862
-0.00517277
0.783179
-0.00991032
0.00504596
0.265845
-0.00704041
0.0407096
0.535567
0.00034746
0.00579375
0.000887916
0.000183913
-0.0216875
-0.0325999
-0.000620814
-0.117304
0.43676
-0.183347
-0.304571
0.00576816
-0.0159604
-0.00284315
-0.130348
0.000135359
0.089455
0.000224769
-0.0771824
-0.00961099
-0.023964
0.113452
0.512386
-0.319985
-0.000259107
0.788795
-0.0091805
-0.0110161
-0.29178
-0.329253
-0.0752862
-0.000146533
-0.00517551
0.035541
-0.015064
-0.0231896
0.00220313
0.386373
-0.192735
-0.054392
-0.0324431
0.134707
-0.00817836
-0.00188959
0.00839008
-3.09462e-06
-0.0151164
0.500324
0.00396895
-0.275642
-0.000273897
-0.0357807
-0.0156282
-0.342622
-0.0558775
-0.369971
-0.00031402
-0.000303659
-0.0145966
0.0517756
0.00924516
-0.379156
0.398748
-0.231162
0.000935906
-0.385387
6.6638e-05
-0.379163
-0.123089
-0.332837
-0.303495
-0.262262
-0.150746
0.0441656
0.115933
0.183594
0.254183
0.325192
0.544453
0.620001
0.700442
0.867722
-0.039235
-0.0354019
0.315987
-0.0716827
0.00449181
0.0946785
-0.194779
0.00279381
-0.00299988
-1.43117e-05
-0.0681387
0.0856259
0.000223597
-0.00143113
-0.0510379
-0.00980183
-0.360404
-0.0512194
-0.269658
-1.30274e-05
0.00287969
-0.000253805
-0.20003
-0.0420625
-0.172686
-0.0405664
0.00859471
0.0011526
0.0231318
-0.000160024
-0.0126855
-7.24517e-05
0.0018489
-0.0222014
-0.0556085
-0.00100343
0.00162033
0.222152
-0.049743
0.312759
-0.373853
-0.0305207
0.469725
-0.0908969
0.0182545
-0.103404
-0.0157625
-0.0603624
-0.0576405
1.32044
-0.00589826
0.00034707
-0.0280845
-0.0423787
1.58351e-05
0.356916
-0.0189767
1.23122
-0.0294975
-0.220884
-0.129161
0.235036
-0.0214969
-0.000240356
-3.75455e-05
-0.020339
-0.243473
0.000284444
1.29317
-0.0133262
-0.0235835
-0.000341295
-0.00185436
-0.0281819
0.397071
-0.0502842
0.510667
0.00317841
-0.0691025
-3.11969e-05
0.128407
-0.0357128
0.092903
-0.0331282
-0.0264396
-0.00339598
0.00661858
0.0572244
-5.9873e-05
-0.0441328
0.00295781
-0.0019114
0.00230573
-0.0518094
0.00123875
0.601294
-0.0513218
0.0186914
-0.156747
0.197648
-0.181887
-0.0533943
0.203427
-0.088339
0.726105
0.0324987
-0.0164918
-0.241098
-0.00323689
-0.00023385
0.00216856
0.000445452
-0.0102876
0.0214846
0.000426192
-0.0633332
0.10421
-0.0149139
0.000212532
-0.015973
-0.203984
0.622112
-0.15667
-0.224249
0.0397995
0.367334
-0.00602151
0.258439
-0.0568016
0.0256821
0.171427
-0.27803
0.467712
-0.000257729
-0.139529
0.0056583
-0.00718869
-4.96553e-05
-0.0291287
0.464905
0.00464184
0.936028
-0.100001
0.095793
-0.0762744
0.000879945
-0.00668268
0.293796
-0.223294
0.909164
0.175043
0.116078
0.698063
-0.200744
-0.0205936
-0.299939
0.00340286
-0.162625
0.640375
-0.0138054
0.970725
-0.00660586
0.400103
0.000489218
0.434357
0.546304
0.0115603
-0.0951349
-0.00178064
-2.81781e-05
0.0256236
0.01019
-0.187015
-0.17076
-0.0273532
-0.193488
0.665653
0.243293
-0.180837
-0.074309
0.000183259
0.0205212
0.757209
0.0223659
0.673287
-0.281931
0.0259112
0.000421183
0.00197551
-0.0989109
-0.00546313
-0.0123202
-0.16114
-0.00296187
0.0167142
-0.153864
-0.189403
0.761747
-1.55099e-05
-0.0861361
0.0009269
-0.121811
-0.00170773
-0.266918
0.525404
-0.166785
-0.112277
-0.0069917
-0.0723917
-0.00315273
-0.0249756
0.361844