/*--------------------------------*- C++ -*----------------------------------*\
  =========                 |
  \\      /  F ield         | OpenFOAM: The Open Source CFD Toolbox
   \\    /   O peration     | Website:  https://openfoam.org
    \\  /    A nd           | Version:  7
     \\/     M anipulation  |
\*---------------------------------------------------------------------------*/
FoamFile
{
    version     2.0;
    format      ascii;
    class       volVectorField;
    location    "27";
    object      U;
}
// * * * * * * * * * * * * * * * * * * * * * * * * * * * * * * * * * * * * * //

dimensions      [0 1 -1 0 0 0 0];

internalField   nonuniform List<vector> 
29540
(
(1.00853 -0.0113529 2.92573e-23)
(1.0084 0.00384963 1.40322e-22)
(0.992514 -0.0027085 -1.83722e-22)
(0.97443 -0.0390145 6.21254e-23)
(0.998017 -4.23789e-05 2.60579e-23)
(0.965087 -0.0236714 -8.93254e-23)
(1.04265 -0.070607 1.45661e-22)
(1.01107 -0.0172611 -2.87523e-24)
(1.00163 -0.00158944 4.16964e-24)
(1.00015 -4.00946e-05 1.07771e-24)
(1.01214 -0.0231133 -8.63959e-25)
(0.998095 -0.0134542 -6.7471e-23)
(0.99961 -0.000158792 3.58319e-24)
(0.999975 -8.76495e-06 9.97728e-26)
(1.16191 0.0835721 2.52423e-22)
(0.995088 -0.00157878 2.81489e-23)
(0.999871 -0.000694074 -1.63274e-24)
(1.12628 -0.0171794 -1.54818e-23)
(0.998266 -0.00146078 -8.88147e-24)
(0.991164 -0.000650014 -4.09767e-23)
(0.9993 -0.000223568 -1.21863e-23)
(1.00154 -0.00158588 1.46183e-23)
(0.992442 -0.00286502 2.0304e-22)
(0.99826 -0.000139244 1.14571e-23)
(0.888338 0.113551 6.84512e-23)
(1.00922 0.00304482 7.52816e-22)
(0.999579 -4.77994e-05 8.16737e-24)
(0.944399 0.0960984 -4.54556e-21)
(1.16747 0.0830114 -7.25161e-22)
(0.999286 -0.0073849 -1.28328e-23)
(1.01252 -0.00930119 2.1053e-23)
(1.03192 -0.00678663 -1.59348e-22)
(0.976472 -0.0899745 6.33168e-22)
(0.998098 -0.0186279 3.40641e-23)
(0.942309 0.0915764 3.64818e-21)
(1.00208 -0.0267056 9.96487e-23)
(1.06671 0.0412722 -2.30188e-22)
(0.977092 -0.0220146 2.42466e-22)
(1.00433 -0.000676461 -5.7017e-23)
(1.00418 -0.000483007 1.08463e-22)
(1.00035 -0.000133152 -3.36508e-24)
(0.990379 -0.0243605 -2.37438e-22)
(0.999886 -0.00067457 -2.08413e-26)
(1.01739 -0.0602351 -4.28944e-22)
(1.00003 -4.54546e-06 -2.10462e-25)
(0.999446 -0.0074931 9.52813e-24)
(0.997881 -0.00999371 -1.90714e-23)
(1.00006 -6.89077e-05 5.3994e-25)
(1.0027 -0.00298371 -5.93808e-23)
(1.06633 0.0385415 -9.42426e-23)
(1.09117 -0.0914611 1.11394e-22)
(0.977339 -0.0345183 -2.83674e-22)
(1.03186 -0.0059813 5.60544e-23)
(0.966161 -0.0235111 -1.46293e-22)
(0.995208 -0.0016202 -2.47212e-23)
(1.17078 0.0708074 -4.3683e-22)
(0.997264 -0.00182165 8.8315e-24)
(0.999281 -0.000246391 1.54383e-23)
(0.999648 -0.0176194 -4.81075e-23)
(1.00608 -0.0480104 -1.82693e-22)
(0.999947 -5.77122e-06 2.34352e-25)
(0.998326 -0.00149674 -1.82835e-24)
(1.24969 -0.020716 -1.81829e-22)
(1.00243 -0.0261248 -5.51398e-23)
(1.06595 0.106813 1.97705e-21)
(0.914341 0.0314577 9.13649e-21)
(0.998693 -0.0221261 -9.26395e-23)
(0.994 -0.01113 8.4809e-23)
(0.936476 0.0201217 3.6624e-21)
(1.00037 -0.000125757 2.17688e-24)
(1.01065 0.00365379 -1.02602e-21)
(0.988096 0.0798258 2.4965e-21)
(1.00256 -0.00739082 -2.2467e-23)
(0.908698 0.132048 2.52507e-21)
(0.993504 -0.000510127 1.29966e-22)
(1.09919 -0.0550856 -2.71843e-23)
(1.23883 0.138716 5.7328e-22)
(0.978227 -0.0125272 5.77598e-23)
(0.99996 -1.8116e-05 -6.65751e-25)
(1.00138 -0.0392773 -1.78257e-22)
(0.966721 -0.000552734 -9.67212e-23)
(1.02075 0.0383176 6.05464e-22)
(1.00868 -0.0118465 -8.85019e-23)
(1 -5.07898e-05 6.35748e-26)
(1.04489 -0.0692663 -2.26356e-22)
(1.15641 -0.179932 -7.67089e-22)
(1.03811 0.0936519 -3.81499e-21)
(0.999595 -0.000156466 -3.2449e-24)
(0.999622 -0.00014154 -9.50828e-25)
(0.948923 -0.029638 -3.82121e-22)
(0.993094 -0.0422255 3.24865e-22)
(0.978136 -0.0131222 6.51851e-23)
(1.00253 -0.00308262 1.01295e-23)
(1.0513 -0.011776 -8.86859e-23)
(0.944932 -0.0126052 -3.17229e-22)
(1.04866 0.113725 1.89798e-21)
(0.993572 -0.0546715 5.28744e-22)
(1.00038 -0.000313523 5.42019e-24)
(0.974362 -0.048888 -5.55899e-22)
(1.15629 0.111404 1.44228e-21)
(0.999958 -1.77652e-05 9.73848e-25)
(0.979313 -0.0081807 -3.46003e-22)
(0.999948 -7.0764e-06 -1.21118e-25)
(1.03911 -0.0186664 -4.36147e-22)
(0.976289 -0.0343377 1.88642e-22)
(1.03294 0.011176 1.03964e-21)
(1.00386 0.0752325 3.72805e-21)
(0.999638 -0.000143255 -8.04687e-24)
(0.999996 -5.64214e-05 -1.46325e-26)
(0.988713 -0.0882897 -3.09885e-23)
(0.975082 -0.0886806 -5.69865e-22)
(1.03376 -0.0367801 2.20473e-23)
(1.00001 -1.66318e-06 3.59502e-26)
(0.999052 -0.00499399 -3.31662e-23)
(0.999905 -0.00178451 1.30313e-24)
(0.99094 0.0816476 1.75396e-23)
(1.04207 0.0551064 -1.30829e-21)
(0.990534 -0.005793 -1.39797e-22)
(1.00002 -5.54698e-05 4.83761e-26)
(1.00282 -0.00732182 -1.7346e-23)
(1.25376 -0.116169 2.72948e-21)
(1.00555 0.0116872 1.65728e-21)
(1.14721 -0.0823875 -8.66351e-22)
(0.912443 0.0384665 -8.66177e-21)
(1.00089 -0.000291204 -1.38138e-23)
(1.14497 -0.0587929 1.14954e-22)
(1.12538 -0.0127339 -9.5119e-23)
(1.00987 -0.0467115 1.39131e-22)
(1.00324 -0.00283361 -5.30588e-23)
(1.00002 -0.000356911 5.82208e-26)
(1.0173 -0.0586317 1.5104e-22)
(1.24307 0.131171 2.63583e-22)
(1.00623 0.143887 4.60903e-21)
(1.1463 -0.101229 -2.65407e-22)
(1.03776 -0.0182437 3.66433e-22)
(1.01215 -0.00894475 3.99856e-22)
(1.07977 0.187471 3.15926e-22)
(0.978468 -0.00060465 5.07201e-22)
(1.06017 -0.177087 1.94774e-21)
(1.15777 0.105144 -1.10656e-21)
(1.1453 -0.0533609 -1.06271e-22)
(0.954486 -0.00378337 -4.08843e-22)
(0.96132 -0.032723 1.21341e-22)
(1.00001 -1.49434e-06 -1.54766e-26)
(0.999991 -2.926e-06 5.23122e-26)
(0.997966 -7.02624e-05 -2.06001e-23)
(0.998038 -0.00979927 3.8894e-23)
(0.981714 -0.0694525 -4.31787e-22)
(1.07824 -0.145111 9.00466e-22)
(1.29084 0.0414809 -5.28126e-22)
(1.02525 -0.0170213 2.00098e-22)
(1.01433 -0.0167787 6.4116e-23)
(1.00035 -0.000508217 8.34137e-24)
(0.999894 -0.000180076 9.37459e-25)
(1.00161 0.0226913 -3.67952e-21)
(1.00043 -0.00124503 9.69643e-25)
(0.99453 -0.00906798 4.8944e-26)
(1.09546 0.190073 -8.96323e-22)
(1.00466 0.0446206 -3.999e-21)
(1.09441 -0.0891606 -2.40305e-22)
(0.968214 -0.0021064 1.67558e-22)
(0.975235 -0.0382907 4.34835e-22)
(1.17182 0.0765324 1.17732e-22)
(0.99996 -3.72956e-05 2.10887e-25)
(0.99999 -2.82482e-06 -1.95997e-26)
(0.990488 -0.00608828 4.9527e-23)
(0.962248 -0.032118 -6.48245e-22)
(1.00004 -0.00018304 -5.14531e-25)
(1 -5.39184e-05 2.37007e-26)
(0.994541 -0.00409956 -1.65238e-23)
(1.00003 -0.000346424 -4.59299e-26)
(1.00464 -0.00489276 -2.9565e-23)
(1.09071 0.193938 1.05167e-21)
(0.978774 -0.000319126 -4.17741e-22)
(1.02243 -0.0957553 -1.91856e-22)
(0.995935 -7.91324e-05 8.37382e-23)
(1.0017 -0.00219801 3.10205e-24)
(0.978771 -0.00803517 5.85174e-22)
(0.999292 -0.00498589 -3.03542e-24)
(1.15538 -0.0744229 5.42759e-22)
(0.999983 -8.18979e-06 3.24215e-25)
(1.00906 -0.0320981 -7.75159e-23)
(1.04054 0.0956638 1.36265e-21)
(0.99426 -0.0103455 -4.93438e-24)
(1.05703 -0.172291 -1.79742e-21)
(1.0318 0.0471177 -1.1536e-21)
(0.994939 -0.0022617 -1.2138e-22)
(0.985482 -0.0120158 1.52373e-22)
(1.00306 -0.00284648 8.08721e-23)
(0.999354 -0.00688803 -1.9151e-23)
(0.999776 -5.98176e-06 9.31863e-25)
(1.0046 -0.0147294 1.09175e-23)
(0.907669 0.0192126 3.61789e-21)
(1.00102 0.0185787 2.83104e-21)
(0.988572 -0.00488083 3.92097e-24)
(0.994772 -0.00893835 -5.31456e-23)
(0.979742 0.0429524 -3.38668e-21)
(1.01276 0.0300258 5.19515e-22)
(0.946022 -0.0124949 3.85214e-22)
(1.00093 -0.000390304 -1.08108e-23)
(1.04903 -0.0892493 2.97358e-22)
(0.972134 -0.064308 5.70988e-22)
(0.998304 -0.0137422 3.22012e-23)
(1.00068 -0.000856744 -1.72287e-23)
(1.08302 0.192201 4.47848e-22)
(0.994714 -0.00411012 -1.10505e-23)
(1.00543 -0.00439347 -3.33175e-23)
(0.980565 -0.0688571 5.72737e-22)
(0.988535 -0.0901841 7.92643e-23)
(0.999971 -4.16686e-06 7.96453e-26)
(0.977802 0.115371 -4.13667e-21)
(0.999172 -1.87128e-05 -2.01436e-25)
(1 -4.33333e-05 1.77868e-26)
(0.999563 -0.000166725 1.38438e-24)
(0.995323 -0.0426894 -1.20479e-22)
(1.24262 0.00812931 4.7149e-22)
(1.00993 -0.0315218 6.86518e-24)
(1.00526 -0.00410154 -2.28304e-23)
(0.998279 -0.000191661 2.84347e-23)
(0.946939 -0.0139465 -7.20902e-23)
(1.00003 -0.000379421 -1.26646e-25)
(1.00038 -0.00126939 9.95141e-26)
(0.998147 -0.000162516 -1.87858e-23)
(1.02412 0.000987139 9.61074e-22)
(0.99788 -0.00315437 -5.98511e-24)
(0.999075 -0.00464013 9.84396e-24)
(1.02331 -0.00130064 4.65893e-22)
(1.0001 -0.000310031 8.19025e-25)
(1.00003 -3.92224e-06 5.51902e-26)
(1.00399 -0.000487207 1.15715e-23)
(0.980047 -0.025224 -2.233e-22)
(0.981055 -0.000311365 -2.01904e-22)
(0.996181 -0.000301125 -8.91843e-23)
(1.01155 0.00286564 8.48019e-22)
(0.98757 -0.000891596 9.65288e-23)
(1.01456 -0.0162302 -6.31555e-23)
(0.999975 -9.76854e-06 2.80879e-25)
(0.997645 -0.00208075 -3.39666e-23)
(1.00063 -0.000850061 1.86221e-23)
(1.04942 -0.0861477 2.94011e-22)
(1.01226 -0.148821 1.24033e-21)
(0.998896 -9.94606e-05 1.48551e-23)
(1.00037 -0.000452043 -6.42431e-24)
(0.998998 -0.00452818 -3.35414e-24)
(1.00275 -0.00653807 -4.31703e-23)
(0.991339 -0.000479744 -1.73587e-22)
(0.999961 -3.55197e-05 -1.33009e-26)
(1.15475 -0.17389 -1.73282e-21)
(1.00004 -0.000388012 1.35523e-25)
(1.02383 0.000937718 -6.76677e-22)
(0.99735 -0.00182456 -1.77743e-23)
(1.00012 -0.00030067 3.48724e-25)
(1.03202 0.0116172 -6.60683e-22)
(0.968722 -0.0611741 -5.97885e-22)
(1.0002 -3.40305e-05 3.54799e-24)
(1 -1.01069e-05 1.10774e-26)
(0.954371 -0.00270731 -4.65472e-22)
(1.00556 -0.135669 -1.91389e-22)
(0.993095 -0.00650435 -1.31415e-23)
(1.00897 -0.0476242 -3.62111e-23)
(1.02594 -0.017691 -3.28198e-23)
(1.04627 0.0923899 1.69579e-22)
(1.00006 -6.50528e-05 1.49567e-25)
(0.980428 -0.0247313 2.10821e-22)
(1.20284 -0.100818 1.11492e-21)
(0.961387 0.0620103 8.25661e-23)
(0.994199 -0.0101093 3.95046e-23)
(1.03058 0.0455323 1.40394e-21)
(1.10015 -0.0513003 -1.2689e-23)
(0.999901 -0.00196328 -1.48688e-24)
(0.822416 0.0536328 5.43541e-21)
(0.999566 -0.000350912 -9.32083e-24)
(1.02108 -0.0981282 -2.46492e-22)
(0.947778 -0.0139596 4.73346e-22)
(1.00181 -0.0020779 -1.70871e-23)
(1.19528 -0.0319377 -3.07819e-22)
(0.993173 -0.000738647 -1.03545e-22)
(1.00874 0.155789 3.19742e-21)
(0.997224 -0.000210286 8.21418e-24)
(0.985862 -0.01297 -7.98595e-24)
(0.999832 -0.0017837 -8.14928e-24)
(1.1362 0.148382 3.63061e-22)
(0.999805 -0.0139797 8.46747e-24)
(1.04518 0.11462 1.19135e-22)
(0.999591 -3.69078e-05 -3.5759e-24)
(0.995335 -0.00150009 -3.90103e-23)
(0.96005 0.141222 -2.12545e-21)
(1.0282 -0.000149996 -7.89542e-22)
(1.02314 -0.000924062 5.41581e-22)
(0.975988 -0.0317955 5.27901e-22)
(0.999878 -2.63367e-05 9.43767e-25)
(1.00268 -0.00631215 -4.90295e-24)
(0.999867 -0.000758124 -2.93579e-24)
(1 -4.10585e-05 1.42598e-26)
(1.05229 0.00245471 2.10152e-22)
(1.00003 -4.28409e-06 5.35556e-27)
(0.98406 -0.0114598 3.60224e-22)
(1.1971 -0.10083 -1.01844e-21)
(0.885818 0.118647 -5.32714e-21)
(1.00965 0.144347 -7.09591e-21)
(0.972144 -0.0533091 1.83953e-22)
(0.988312 -0.0236022 1.31675e-22)
(0.981955 -0.00120232 9.61414e-23)
(1.0269 -0.0331666 8.58383e-23)
(1.00507 -0.0145427 -2.21215e-23)
(0.985375 -0.0125877 -2.10468e-22)
(0.972166 -0.0584495 8.09119e-23)
(1.0445 0.0950548 -2.55361e-21)
(0.999458 0.0168492 5.44677e-21)
(0.998969 -0.000121437 8.19201e-24)
(1.00538 0.0759667 -5.13474e-21)
(1.05126 0.0011692 6.94467e-23)
(1.15323 -0.0812393 2.47538e-22)
(1.01097 -0.013286 3.06567e-23)
(1.00069 -0.0129055 -4.12965e-23)
(1.0158 -0.0444514 -9.58925e-23)
(0.99567 -0.00145158 -9.2004e-23)
(0.997854 -0.000528651 -5.9932e-24)
(0.999951 -5.57966e-06 1.23736e-24)
(0.999219 -0.007054 2.82924e-23)
(1.08123 -0.0491726 1.15202e-23)
(1.13727 0.15426 -6.28304e-22)
(1.00131 -0.00112682 8.03202e-24)
(0.977973 -0.0206605 -2.88475e-22)
(1.01256 -0.0136536 -9.6445e-23)
(0.999969 -1.34251e-05 -1.07825e-25)
(0.97215 -0.05579 -2.91293e-22)
(0.860443 0.0922935 -2.41228e-21)
(0.994988 -0.00386454 1.36739e-22)
(0.999099 -0.00370876 8.96836e-24)
(1.01146 -0.013152 -1.90035e-23)
(1.00122 -0.0381425 2.22405e-22)
(1.08655 0.0254721 2.55844e-22)
(0.999513 -0.00800871 -4.69199e-24)
(0.999974 -4.3198e-05 6.96422e-25)
(1.00001 -2.34002e-06 1.77298e-26)
(0.997825 -0.000481556 -6.66835e-24)
(0.957928 0.140125 3.07623e-21)
(1.04169 -0.0281739 8.18212e-23)
(1.01597 -0.148817 -3.14073e-22)
(1 -1.01219e-05 8.10269e-28)
(1.00268 -0.137868 1.24575e-22)
(1.0752 -0.00784857 -2.66553e-22)
(0.995836 -0.000132313 -4.20672e-23)
(0.949736 -0.00511176 -5.72627e-22)
(0.999168 -0.00364492 -8.97196e-24)
(0.999647 -0.000160475 -5.87935e-25)
(0.981077 -0.0223785 -6.28304e-23)
(1.00075 -0.000940097 -8.32981e-24)
(1.16113 -0.0730024 -4.85096e-22)
(1.0076 -0.000893768 -2.40856e-22)
(1.22863 0.0937944 -2.46892e-22)
(0.999931 -0.00193795 1.92661e-24)
(1.00338 -0.0115356 7.35931e-24)
(1.00536 0.0103286 -2.24184e-21)
(1.24744 -0.110825 -1.1104e-21)
(1.00034 -0.000478367 -4.90373e-24)
(1.00036 -0.000423896 4.80493e-25)
(0.993826 0.096728 2.55345e-22)
(0.993902 -0.043105 -6.46484e-23)
(0.999376 -0.00788429 5.74579e-24)
(1.01172 0.0335171 2.74244e-22)
(0.97168 0.0218298 6.66058e-21)
(1.09036 -0.0956244 -3.85652e-22)
(0.998735 -0.0213612 -2.7755e-23)
(1.23748 0.0112696 -4.67875e-22)
(0.999376 -6.00429e-05 -6.1511e-24)
(0.992934 -0.00339984 3.65652e-23)
(0.997282 -0.000221017 -2.29802e-23)
(1.01424 0.0285075 9.20571e-25)
(0.999989 -0.000623242 1.95068e-25)
(1.00734 -0.00108984 2.46096e-22)
(1.10051 -0.146768 2.19437e-23)
(1.00378 0.135613 7.17979e-21)
(0.911996 0.136347 -1.16555e-21)
(0.995092 -0.00225734 4.83107e-24)
(0.992896 -0.00634903 3.93941e-23)
(1.06301 0.110107 -1.58395e-21)
(1.00625 -0.0494959 2.64282e-22)
(0.999953 -6.66352e-06 -1.20707e-24)
(1.27659 0.0856089 -1.86359e-22)
(1.02358 0.00146962 -2.88777e-22)
(1.02317 0.00146241 -1.96101e-22)
(0.995175 -0.0110217 -5.7633e-23)
(1.01578 -0.00170597 -3.81448e-22)
(0.948973 0.125051 1.04884e-21)
(1.07086 -0.150622 -2.63076e-22)
(0.980281 0.124006 1.11037e-21)
(0.995339 0.122733 -1.87333e-21)
(0.999997 -5.40434e-05 4.59781e-26)
(1.07849 -0.0476628 1.11556e-24)
(1.0733 -0.146569 1.69061e-22)
(0.997781 -0.00318177 1.57037e-23)
(1.00134 -0.00120904 -1.3253e-23)
(0.966431 0.0254807 1.5979e-21)
(1.04313 -0.0290989 -1.04594e-22)
(1.00023 -6.25789e-05 8.09209e-25)
(0.98248 -0.0480625 -6.51212e-22)
(0.971352 -0.065863 -2.68451e-22)
(0.995436 -0.00154192 5.48288e-23)
(0.999901 -0.000174858 -1.17622e-24)
(1.05733 0.13658 -2.62741e-22)
(1.04159 0.0529605 2.18844e-21)
(1.00004 -0.00042495 -4.39466e-26)
(1.00336 -0.00305917 1.04272e-23)
(1.00434 -0.00307368 5.65297e-23)
(1.15122 -0.133846 1.19537e-21)
(0.976068 -0.0309461 -4.67796e-22)
(1.00005 -0.000504401 -3.4197e-25)
(0.999988 -1.89219e-06 -2.93915e-26)
(1.00041 -0.000138105 1.28308e-24)
(1.08509 0.027087 -2.41984e-23)
(0.977117 -0.0212382 -2.32363e-22)
(1.00248 0.0465303 1.16941e-21)
(0.955932 -0.0357956 2.98193e-22)
(0.988968 -0.0235287 -1.36773e-22)
(0.980516 -0.000932204 -4.02603e-22)
(1.01325 0.0322616 -1.35043e-21)
(1.24053 -0.0184468 -5.10758e-23)
(0.999001 -0.000129165 1.5005e-23)
(1.00654 -0.00503297 -6.04869e-23)
(1.0007 -0.000930379 9.44377e-24)
(0.978988 0.136478 -2.87708e-21)
(0.978797 -0.019321 1.23768e-22)
(1.0009 -0.000236767 -4.52318e-24)
(0.993777 -0.00303414 -4.93647e-23)
(1.15123 -0.0495397 -1.23386e-22)
(0.999581 -0.00860756 -1.24229e-23)
(0.990372 -0.0104095 -2.74431e-23)
(1.0002 -0.000119446 -2.46201e-24)
(1.0002 -4.55436e-05 -1.08868e-25)
(0.856623 0.0986536 3.78787e-21)
(0.993223 -0.00110054 -6.45373e-23)
(0.996013 -0.00399302 5.60537e-23)
(0.999685 -0.00157967 -7.11654e-24)
(0.999391 -4.58542e-05 -8.43969e-25)
(1.05342 0.0897715 -8.48128e-22)
(1.10525 -0.150313 6.85266e-23)
(0.986448 -0.0351272 8.27492e-23)
(1.00001 -1.82573e-06 -1.84618e-26)
(1 -3.30012e-05 1.28546e-26)
(0.97798 -0.0199754 3.27006e-22)
(0.994389 -0.00161822 1.31011e-23)
(0.995703 -0.00185167 -7.51229e-24)
(1.01226 -0.0046948 1.17342e-22)
(1.00488 -0.00208917 2.03345e-23)
(1.00002 -0.0143267 -1.52379e-23)
(1.12047 -0.0327439 6.36422e-23)
(0.984726 -0.00365751 -8.14278e-23)
(0.982303 0.121567 -9.01899e-22)
(1.01141 -0.0230716 -2.11164e-23)
(1.00021 -0.000119903 2.73833e-24)
(0.971586 -0.0522554 2.75158e-23)
(0.985315 -0.0310669 -2.86114e-22)
(1.1856 -0.0233753 -9.93698e-23)
(0.997568 -0.00524103 -1.68086e-23)
(0.988962 -0.0414196 -1.01147e-22)
(0.999982 -4.85768e-06 1.78414e-25)
(0.926038 0.0993077 -3.6511e-21)
(1.01313 -0.00196932 2.13833e-22)
(1.00007 -0.00020399 -8.34694e-25)
(0.907525 0.0262765 -4.66004e-21)
(0.985582 -0.0352402 1.91342e-22)
(0.999982 -5.64566e-06 2.83565e-26)
(1.00122 -0.00110108 3.9136e-24)
(0.971487 -0.0546276 -1.62438e-22)
(1.03252 -0.0354513 2.71921e-23)
(1.04409 -0.0136966 2.5467e-22)
(0.999993 -3.14154e-06 4.17371e-26)
(0.993188 -0.000561804 5.15381e-23)
(1.01668 -0.0435804 1.71784e-22)
(0.995562 -0.00141514 7.59292e-23)
(0.999608 -4.24403e-05 -1.93917e-23)
(0.99307 -0.00351139 1.01379e-24)
(0.976166 0.0449335 3.95411e-22)
(0.993902 -0.0108095 -7.09177e-23)
(0.990775 -0.0102051 2.00777e-23)
(1.00186 0.0264096 -1.14097e-21)
(0.997688 -0.00196548 1.77504e-23)
(0.972982 0.138365 -3.72028e-22)
(0.999981 -5.67523e-06 -9.07925e-26)
(0.990684 -0.0237826 5.52227e-23)
(0.980685 -0.0656145 6.5477e-22)
(0.989732 -0.0417677 1.71723e-22)
(1.18627 -0.111337 2.93942e-22)
(0.998972 -0.00485117 2.22496e-23)
(1.00741 -0.0213959 4.15891e-24)
(0.999921 -0.00208679 3.75012e-25)
(0.985487 -0.018299 -1.60303e-22)
(1.0334 -0.0385049 3.27661e-24)
(0.99997 -1.28411e-05 5.45977e-25)
(1.00002 -1.02597e-06 -3.1676e-26)
(0.994668 -0.000363125 3.48711e-23)
(0.98041 0.0851665 2.5647e-21)
(1.01061 -0.0178521 1.05945e-22)
(1.00218 -0.00310792 -1.64635e-23)
(0.945908 -0.0260831 4.092e-22)
(1 -9.09829e-06 2.21429e-27)
(1.00083 -0.00102659 -1.51217e-23)
(0.99997 -0.000594198 -2.18491e-25)
(1.01185 -0.0171761 1.21776e-22)
(0.985785 -0.0135413 2.80005e-23)
(0.999675 -0.00024966 2.44048e-24)
(0.994316 -0.00965255 2.66573e-23)
(0.989592 -0.00602892 -2.92002e-23)
(1.00087 -0.000141968 -1.24528e-24)
(0.99998 -6.54999e-06 -5.67698e-26)
(1.21794 -0.0722192 -1.03713e-21)
(0.999717 -0.0015537 7.62894e-24)
(1.07213 -0.0122276 2.01227e-22)
(1.02004 0.132216 6.88456e-21)
(1.0577 0.108847 -1.46746e-21)
(1.0001 -0.0180794 -5.70497e-23)
(1.00478 -0.00189372 -6.72409e-24)
(1.01609 -0.00135848 2.33342e-22)
(0.999963 -0.00213375 -4.24823e-25)
(0.99803 -0.00912566 2.75475e-23)
(1 -1.51007e-05 2.03951e-26)
(0.992383 0.123154 -1.37673e-22)
(0.989534 -0.0136774 3.88528e-23)
(1.01202 -0.00432961 -8.37771e-23)
(0.985064 -0.00379911 1.66488e-22)
(1.00298 -0.0113323 8.6794e-25)
(0.997713 -0.00515696 3.63574e-23)
(0.999911 -0.000179183 2.76626e-25)
(1.00002 -9.83131e-07 -1.72916e-25)
(0.996148 -0.00397841 -4.07782e-23)
(1.0513 -0.0134132 -1.37797e-22)
(1.0049 0.0466861 1.81104e-22)
(1.00104 -0.000419971 -1.83828e-23)
(0.975679 -0.0490758 -1.44515e-22)
(0.978768 -0.0187363 -5.59684e-23)
(0.993355 -0.000440935 -1.9285e-22)
(1.28206 0.0400889 3.32702e-22)
(0.998895 -0.000847962 -8.90396e-24)
(1.00299 -0.0128118 -1.75217e-23)
(0.995365 -0.00243411 3.80793e-23)
(0.999919 -0.000172734 2.32594e-25)
(0.971423 -0.0571373 1.83379e-22)
(1.00223 0.0401555 -1.82007e-21)
(1.03107 0.0411777 -1.43745e-21)
(0.980952 -0.0126028 -2.69446e-23)
(1.00166 0.0381238 -7.83907e-23)
(1.00007 -0.000191588 1.60818e-24)
(1.00001 -1.32096e-06 5.28228e-26)
(1.2698 0.08191 2.03181e-23)
(1.19351 -0.0254085 2.60476e-22)
(0.909651 0.101023 -1.7809e-22)
(0.993998 -0.0706094 4.97176e-22)
(0.980721 -0.00128727 -1.25571e-22)
(1.15106 -0.04323 1.87112e-22)
(1.00099 -0.000437798 2.0818e-23)
(0.995191 -0.00327723 2.18397e-23)
(1.00039 -0.000146698 -1.22447e-24)
(0.99098 -0.000614884 -4.22838e-23)
(0.989933 -0.0111957 -5.69795e-23)
(0.999996 -2.95776e-05 -1.21249e-25)
(0.999245 -2.90385e-05 3.51392e-24)
(1.0033 0.13242 -6.53088e-21)
(0.99989 -0.000616929 2.66072e-24)
(0.934494 0.0916234 4.37857e-21)
(1 -1.43553e-05 -1.55455e-26)
(1.2769 -0.0565338 -1.18301e-21)
(1.07195 -0.0143226 -4.38533e-22)
(1.12078 -0.0290001 -7.37074e-23)
(1.00089 -0.000415137 1.24587e-24)
(1.00016 -3.67308e-05 2.18092e-24)
(0.984833 0.080486 -3.82234e-21)
(1.07513 -0.0102297 8.86356e-22)
(0.980067 -0.0667623 -6.04608e-22)
(1.02159 0.0402324 6.58546e-22)
(0.997709 -0.0182574 2.38533e-23)
(0.988684 -0.00459958 -4.29869e-23)
(0.996556 -0.000189491 -2.30825e-23)
(1.14702 0.187706 -2.84287e-21)
(0.979486 -0.0224373 2.01735e-22)
(1.02746 -0.0318375 -6.17101e-23)
(0.994542 -0.009571 -1.52338e-23)
(1 -9.05396e-06 -4.78329e-28)
(0.998906 -0.000800656 -7.56805e-24)
(1.0051 -0.00529255 3.52158e-23)
(0.984495 -0.00676628 2.14232e-22)
(0.981433 -0.0127163 4.01418e-23)
(0.963432 -0.0327927 -6.34769e-23)
(0.98433 -0.0071728 -1.62119e-22)
(1.01717 0.00260633 1.14873e-22)
(0.998192 -0.000122766 4.71242e-25)
(0.95004 -0.0300483 2.14298e-22)
(0.988125 -0.000782985 -5.96622e-23)
(1.00003 -0.000185039 2.10344e-25)
(0.989625 -0.000629025 -4.14638e-23)
(1.02776 -0.0344284 -8.5609e-23)
(1.01648 0.00279646 -6.35101e-22)
(0.977833 -0.0224953 -5.04346e-23)
(0.999986 -6.5546e-07 -7.99658e-28)
(0.985134 -0.0138208 4.22296e-23)
(1.00166 -0.0130513 4.85982e-24)
(1.00119 -0.00102203 5.02868e-24)
(1.08791 -0.15953 -7.72067e-22)
(1.0018 0.0375995 -4.25088e-21)
(1.00077 -0.00101393 1.40384e-23)
(0.989801 -0.000474503 5.8e-25)
(1.08238 -0.0932613 1.57416e-23)
(1.02453 0.000195846 9.60064e-22)
(0.990169 0.0311473 -4.20893e-22)
(1.00158 -0.0021642 4.47474e-24)
(0.999919 -0.0188228 1.77626e-23)
(1.11129 0.133575 -4.69721e-22)
(1.01505 0.0252508 -3.33614e-21)
(0.99157 -0.023752 1.46822e-22)
(1.00409 -0.00307422 -6.33005e-24)
(0.959377 -0.038571 3.01547e-22)
(0.999998 -4.63588e-06 2.28963e-26)
(0.959898 -0.00164711 -2.15311e-22)
(1.00007 -6.07197e-05 3.03622e-25)
(1.07948 -0.0932692 -8.80011e-22)
(0.999972 -3.04099e-06 -6.02894e-26)
(1.00002 -5.42394e-05 1.70756e-25)
(0.999503 -0.0210247 -2.14802e-23)
(1.25556 -0.0137288 4.53678e-22)
(1.03627 0.169815 2.98052e-21)
(1.03067 -0.0357257 -1.24589e-22)
(1.01195 -0.0137645 6.42174e-23)
(0.999999 -3.62816e-06 -6.10321e-27)
(0.994807 -0.00389085 -7.40037e-23)
(1.00008 -1.85615e-05 -2.27679e-25)
(0.997325 -0.00209073 2.53729e-23)
(1.00002 -5.0526e-05 -1.32718e-25)
(1.04435 -0.0118721 -7.93187e-22)
(0.999598 -0.000413025 -9.5669e-24)
(1.05836 0.0547915 1.41373e-21)
(0.999893 -0.000190999 -1.80908e-24)
(0.989093 -0.00449758 -7.23594e-23)
(0.966018 -0.000894129 4.79483e-22)
(0.996379 -0.000259475 -2.96514e-23)
(0.983724 0.0450619 4.05048e-21)
(0.985456 -0.000611121 1.16326e-22)
(1.01198 -0.092667 4.30697e-23)
(0.995314 -0.00343823 1.13141e-22)
(1.02267 -0.00250208 -1.96993e-22)
(0.973569 -0.0496075 6.65273e-22)
(1.01716 -0.00127518 -6.53137e-22)
(1.02992 -0.0666515 -1.8228e-23)
(0.999988 -1.52728e-06 7.59505e-27)
(0.999014 -0.017752 1.95911e-23)
(0.996612 -0.000250061 3.61959e-24)
(1.00021 -8.06992e-05 1.65034e-24)
(1.00007 -1.56089e-05 3.80423e-25)
(1.15315 0.190771 3.10259e-21)
(0.995845 -0.00185806 6.33016e-23)
(1.02442 0.00092261 1.09897e-21)
(1.00045 -0.0193003 2.1836e-23)
(1.00074 -0.000266105 4.81578e-24)
(1.02089 -0.00776385 -7.14376e-22)
(1.00014 -3.46448e-05 -4.81212e-24)
(0.999979 -3.03449e-06 -8.08043e-27)
(0.960366 -0.00219507 1.6552e-22)
(0.997028 -0.00106094 2.86333e-23)
(1.00003 -4.92124e-05 2.01373e-25)
(1.07036 0.106956 1.05423e-21)
(0.873233 0.0804902 -6.6446e-21)
(0.99982 -0.00020218 4.51547e-24)
(0.96748 -0.00180911 -1.29708e-22)
(1.00001 -1.3237e-06 3.80116e-26)
(0.945323 0.122236 -4.2168e-21)
(1.28581 -0.05893 -1.57974e-21)
(0.974457 -0.0399369 -5.34275e-22)
(1.00004 -0.000487805 -3.98084e-25)
(1.02653 -0.030657 1.54252e-22)
(1.02779 -0.00285134 -2.72487e-22)
(1.02888 -0.000213004 8.13775e-23)
(1.04514 -0.0144351 -9.79804e-23)
(0.999688 -0.00166533 -1.16042e-24)
(0.999888 -0.000739211 2.31604e-24)
(0.988008 -0.0135616 -1.2429e-22)
(1 -8.00615e-06 -5.1981e-27)
(1.00001 -1.13884e-06 -9.71888e-27)
(0.978807 -0.0220125 -1.18957e-22)
(0.994855 -0.054111 -2.6111e-22)
(0.964459 -0.0322389 -1.63095e-23)
(0.89472 0.114171 -1.42798e-22)
(1.00017 -2.23516e-05 -2.01491e-24)
(1.00915 -0.0696165 -5.65145e-22)
(1.00633 -0.00472216 -6.21469e-23)
(0.99998 -3.22302e-06 9.26606e-26)
(0.999121 -0.00345339 -1.94473e-23)
(1.00003 -0.00041345 -2.38105e-25)
(0.996079 -0.0111999 4.35467e-23)
(1.00004 -9.11624e-06 2.2701e-25)
(1.0316 -0.0657347 -4.27368e-23)
(1.01682 -0.00155519 6.34159e-22)
(0.974755 0.135786 9.83636e-22)
(1.02219 -0.00235298 7.39124e-22)
(0.999763 -0.000197976 3.55795e-24)
(1.00039 -0.00034225 -4.72018e-24)
(1.1477 -0.139626 -1.21979e-21)
(1.02436 0.000697921 -8.8314e-22)
(0.997371 -0.00034295 2.59839e-23)
(1.00002 -1.36441e-06 8.14031e-26)
(1.0873 0.0912226 -1.68555e-21)
(1.04764 -0.16802 -3.11774e-22)
(0.994309 -0.0691771 -2.16456e-22)
(0.987802 -0.000666099 -3.14291e-23)
(0.999982 -1.95914e-05 1.81666e-25)
(0.999765 -0.000186736 -2.08545e-24)
(1.05081 -0.172569 8.69511e-22)
(0.996236 -0.0435145 -7.10832e-23)
(1.03741 0.0286588 2.03922e-22)
(0.981634 0.117224 3.75894e-21)
(1.01141 -0.0902449 3.16255e-22)
(0.998922 -7.39648e-05 -4.67179e-24)
(0.999982 -9.17919e-06 -2.11557e-25)
(0.967838 -0.0421084 5.21501e-22)
(0.973853 -0.0843932 -6.94707e-22)
(0.999827 -0.000209323 2.41283e-24)
(1.008 -0.0208361 4.02209e-23)
(0.991864 -0.023133 -2.58976e-23)
(0.996058 -0.00199311 2.49478e-23)
(0.99826 0.0314748 -3.17091e-21)
(0.998905 -0.000478689 1.67437e-23)
(1.0441 -0.0513973 -2.88985e-23)
(1.24029 0.145332 -7.19645e-22)
(0.993438 -0.00286076 -7.25435e-23)
(0.907439 0.0952153 -6.48912e-22)
(0.91634 0.0448945 1.98528e-21)
(0.999974 -4.57151e-05 -6.99854e-25)
(0.999978 -0.000649598 -2.00237e-25)
(0.985628 -0.000812114 -7.40576e-23)
(1.0114 -0.00425178 -1.51668e-22)
(0.968806 -0.00167204 2.73115e-22)
(1.00444 -0.00381697 -6.49626e-23)
(0.993672 -0.00287106 6.76252e-23)
(0.999516 -0.00043968 -7.29617e-24)
(0.955014 0.122847 -7.52248e-22)
(1.05879 0.0521123 -2.19141e-21)
(1.00194 -0.00209957 1.14898e-23)
(0.829977 0.0506796 -1.34986e-21)
(1.00001 -1.13998e-06 -5.43498e-26)
(1.02311 0.00589013 -1.55924e-21)
(0.986893 -0.0839608 4.80846e-22)
(1.01119 -0.0699388 2.20699e-22)
(1.00008 -0.000186108 -8.23451e-26)
(0.967354 -0.000914072 2.2224e-22)
(1.02082 0.00535446 8.79065e-22)
(1.0111 -0.00454833 1.25559e-22)
(1.02736 -0.0018179 3.79621e-22)
(0.999618 -3.32652e-05 1.36858e-23)
(0.999593 -0.000439972 8.6636e-24)
(1.01956 -0.0427877 4.96853e-23)
(0.997077 -0.00114342 -8.17464e-23)
(0.989228 -0.010168 -1.34582e-22)
(0.999229 -0.00313025 1.15131e-24)
(1.08412 0.0344304 1.02533e-21)
(0.998762 -0.0184854 -1.33787e-23)
(0.99578 -0.00422406 1.36456e-24)
(0.943374 -0.0220247 -6.12491e-22)
(0.996375 0.0966086 4.18868e-22)
(1.10452 -0.0487883 4.88935e-23)
(1.02041 -0.00743257 5.72429e-22)
(0.999661 -0.000161095 2.59945e-24)
(0.999567 -0.000287711 1.17465e-24)
(0.984872 -0.0180589 3.23467e-22)
(1.00085 -0.00110472 -1.1268e-23)
(0.997798 -0.000605421 -4.64681e-24)
(0.999983 -1.87919e-05 -6.87864e-26)
(0.99972 -0.00169689 2.32335e-25)
(1.02025 0.00493632 -3.4211e-22)
(0.983929 0.0840217 -3.68247e-21)
(0.999891 -1.37778e-05 5.60899e-25)
(1.1815 0.168435 -2.28049e-21)
(0.999996 -3.69237e-05 5.24507e-26)
(0.997239 -0.002476 3.46177e-23)
(0.999993 -8.46138e-05 7.71487e-26)
(1.00448 -0.00330472 -2.87997e-23)
(1.21791 -0.0795093 8.18378e-22)
(0.999966 -3.83733e-05 5.93591e-26)
(0.999965 -4.114e-05 4.18178e-25)
(0.95507 -0.0361549 -2.94923e-22)
(1 -7.93121e-06 -1.81428e-27)
(1.04824 -0.0146417 8.17239e-22)
(0.988316 -0.0360923 2.64052e-22)
(0.99998 -0.00057112 2.23793e-25)
(1.08438 0.0680749 -1.29449e-21)
(1 -2.63975e-05 -3.12568e-26)
(0.999661 -3.44604e-05 1.19661e-23)
(0.999924 -3.16459e-05 1.96958e-26)
(0.995931 -0.00423401 -2.09868e-23)
(0.999713 -0.0013527 -3.64335e-24)
(0.99477 -0.000275266 -2.35054e-23)
(0.992512 -0.101717 -5.53962e-23)
(0.999745 -0.0013174 2.42871e-24)
(1.00358 -0.00307379 -2.23798e-23)
(0.999979 -2.21096e-06 -3.47571e-26)
(1.03869 0.166387 -5.63267e-21)
(1.04244 -0.0521662 -7.83916e-23)
(1.10787 -0.050162 4.20571e-23)
(0.970928 -0.0050166 2.96672e-22)
(0.981084 -0.00362997 -5.42048e-23)
(0.999199 -0.00337792 3.20868e-23)
(1.00249 -0.00234093 3.12297e-23)
(1.04809 0.0678885 6.08205e-22)
(0.984713 -0.031933 3.89545e-23)
(1.1335 0.11095 5.95031e-22)
(0.963945 -0.0112577 -5.41213e-22)
(0.997142 -0.00239016 -3.26806e-23)
(0.999992 -3.80226e-06 -7.53674e-26)
(0.995207 -0.00244183 -4.58763e-23)
(1.01237 0.157761 1.4801e-21)
(1.07581 0.079031 -3.04194e-22)
(0.983787 -0.0478239 2.20338e-22)
(0.95176 -0.00477722 1.26091e-22)
(1.04423 0.157622 1.49711e-21)
(0.992848 -0.00050238 6.06824e-23)
(0.983913 -0.0765298 3.79423e-23)
(0.999993 -8.09085e-05 1.42263e-25)
(0.987366 -0.0362032 3.3002e-22)
(0.999295 -0.000198755 -1.7372e-23)
(0.842279 0.0862954 -3.91201e-21)
(0.980131 -0.0623823 -5.02167e-22)
(0.999926 -2.83805e-05 1.03678e-24)
(0.948724 -0.0154118 -3.29511e-23)
(0.984493 -0.0338586 1.88639e-23)
(1.03421 0.0755135 2.23732e-21)
(0.997828 -0.000660806 -4.38243e-23)
(0.982978 -0.0325714 -1.17045e-22)
(0.997867 -0.00935199 -3.85113e-23)
(0.999596 -0.0203229 -4.4528e-23)
(0.998933 -0.000487119 -1.13897e-23)
(1.03284 0.0738804 -2.7099e-21)
(1.00956 -0.144135 5.40249e-22)
(0.985071 -0.0143855 -9.40384e-23)
(0.988488 -0.0126196 1.99781e-24)
(0.989184 -0.0042485 -2.94255e-23)
(1.00448 -0.00180005 -2.64456e-23)
(1.04615 0.153175 5.80566e-21)
(0.985088 -0.0116708 4.252e-23)
(1.01446 0.0383338 1.43789e-21)
(1.00229 -0.00187893 2.37626e-23)
(1.1934 -0.11065 -1.90267e-23)
(0.931468 0.0981693 6.61035e-22)
(0.992708 -0.0003917 -2.10545e-22)
(0.999807 -3.63408e-05 2.33925e-24)
(1.05141 0.0925977 6.64888e-22)
(1.00014 0.126777 -5.46552e-21)
(1.01905 -0.0412287 -6.08459e-23)
(1.07222 -0.048465 -4.3619e-24)
(0.995881 -0.0116105 -4.87863e-23)
(0.971366 -0.00453853 -1.76071e-22)
(1.10785 0.130266 1.87133e-21)
(0.966735 -0.0422072 8.73728e-23)
(0.99998 -1.88152e-05 2.3642e-25)
(0.993792 -9.72339e-05 -1.07557e-22)
(1.00003 -4.94395e-06 2.2998e-25)
(0.996255 -0.000232998 8.08073e-23)
(0.999979 -1.97888e-05 -3.70854e-25)
(0.998124 -0.0130498 6.63248e-23)
(0.999194 -3.22166e-05 6.19575e-24)
(0.997681 -0.00488897 4.2276e-24)
(1.16337 -0.127196 -2.15131e-22)