/*--------------------------------*- C++ -*----------------------------------*\
  =========                 |
  \\      /  F ield         | OpenFOAM: The Open Source CFD Toolbox
   \\    /   O peration     | Website:  https://openfoam.org
    \\  /    A nd           | Version:  7
     \\/     M anipulation  |
\*---------------------------------------------------------------------------*/
FoamFile
{
    version     2.0;
    format      ascii;
    class       volScalarField;
    location    "37";
    object      p;
}
// * * * * * * * * * * * * * * * * * * * * * * * * * * * * * * * * * * * * * //

dimensions      [0 2 -2 0 0 0 0];

internalField   nonuniform List<scalar> 
7807
(
0.209008
-0.0248267
0.321575
0.196805
-0.000621203
-1.77946e-06
0.316841
-0.00326452
-6.89111e-05
0.0736359
-1.67179e-06
0.00106303
-0.00499517
0.0325535
0.0771844
-0.012129
0.220949
-0.00675401
-0.00188616
-0.0817665
0.0439263
0.000621149
0.0224058
0.152315
-0.00881782
0.217615
-0.000582459
0.0418476
0.126199
-0.0010997
-0.0143277
0.441383
0.0217784
-0.000254653
-1.26887e-05
0.0586618
-0.00100259
0.306764
-0.00501311
-9.58818e-05
-0.00490511
-0.0113131
-0.0956525
-0.088363
-3.73691e-05
-8.83757e-06
0.000598331
-0.00505757
-1.17809e-05
-0.081904
0.00183668
0.0393381
-0.0110591
-0.0146437
0.0578679
-0.00322475
-0.00173191
-0.00309876
-0.020853
-0.000243086
5.68397e-08
0.00252725
0.0329015
0.00122772
-0.000338919
-0.0145722
-5.88126e-05
-8.09309e-07
0.0408472
-0.00478223
-7.72012e-06
-0.0531889
-0.0085802
-0.0146926
-0.00658236
-0.0297561
0.317778
0.0430626
0.0248673
-0.0476434
-0.00484485
0.270266
0.068252
-0.0171686
-0.00133772
-0.00107545
-0.00372618
-0.0108321
-0.000557699
-0.00220352
0.129146
-0.100889
-3.02849e-05
-0.00114467
-0.00200874
-0.0131622
-0.0505439
-0.0123404
-0.00138453
-0.000442881
-0.0267798
0.0322593
-0.00193054
5.32674e-07
-0.0915224
0.132466
0.372046
-0.00336365
1.34759e-07
0.016612
0.184014
-0.0682166
-2.47674e-07
0.0178962
0.132832
7.50638e-05
-0.0941817
0.10348
-0.0388868
-0.0160549
-0.0252473
0.256886
-0.0911201
0.00565111
-0.0244277
-0.000766036
-0.0123839
-0.00086987
-0.000360199
-0.0144603
-0.15684
0.026466
-0.000348456
-0.000620402
-0.0176145
0.177167
0.31169
7.49405e-07
0.00501621
-0.0349838
-0.0134417
-0.0533604
-0.031363
-0.0141182
0.370946
-0.031864
0.12691
-0.0226763
-0.01702
0.256564
0.0556293
-0.0884393
-0.00127992
0.0204532
0.0680206
0.285019
-0.0357822
-0.00472775
0.38193
-9.96729e-06
-0.00174456
0.157953
-3.72166e-06
-0.00256366
-0.00223782
0.198862
0.199393
0.398526
-0.00264417
-0.00158582
-8.1174e-07
-0.0206279
7.52307e-05
-0.0184952
0.00556576
-0.0169378
-0.0687904
0.10272
-3.64097e-05
-0.000336239
0.201737
-5.85565e-06
-1.34658e-05
0.321278
-0.0300164
-0.0536743
-0.0371812
-0.0150003
-0.0341871
-0.0360853
-3.37022e-06
-0.0483589
0.108133
-0.00206306
4.72017e-06
0.14778
-0.000589905
-0.0136402
-0.0313777
-3.89066e-07
9.02153e-05
0.182173
0.136956
0.283053
-0.0877003
-0.063969
-0.15466
0.0462427
0.179541
-4.14718e-05
1.10401e-07
0.347543
-0.0103032
-0.000337259
-0.0467748
-0.0130291
0.258403
0.263247
-0.0579683
0.429333
-0.000551535
-0.00641691
-0.0270237
0.0561808
-0.11938
0.178789
0.377124
-5.25331e-06
0.00624465
0.111353
-0.00425214
0.100801
-0.000537372
0.431135
0.277541
-0.00351361
-0.000193074
-8.73615e-05
0.0979184
-9.04793e-06
-0.00779331
-0.0383906
-1.19438e-05
-0.00143862
-0.000469814
0.115015
-5.23668e-06
-0.00227382
-0.0471049
0.436969
0.0190741
0.403527
-1.83409e-06
-0.0331084
-0.000123062
0.298985
0.00237109
0.312629
-0.00182194
-2.87442e-05
-0.0130449
0.0487932
0.000172983
-5.87654e-05
0.000128156
-0.00452742
-0.0568474
-1.89396e-06
-0.0344826
-0.00213872
-3.38761e-05
-0.000376923
0.306464
-0.00429967
-0.00025955
0.394345
-0.00146489
0.199915
-0.000123986
-0.00825551
-4.90676e-07
-0.0326486
0.053566
-0.0606184
-0.021879
-0.000295086
-0.0681919
-0.0088891
-2.77229e-05
0.000121872
-0.00223883
-0.00454558
0.00161902
-0.00113188
-0.0165526
-0.0520308
-0.0153582
-0.0750045
-0.0192599
0.280531
0.292938
-0.000859574
-0.0948203
4.46566e-07
-0.00267384
-0.0128318
0.148074
0.0780986
8.84102e-06
-0.00248851
-0.0187911
0.123729
-0.000764899
0.00207984
0.000458137
0.00966657
-0.171178
0.273163
-0.000758197
-0.0293344
-3.48239e-05
0.00129436
-6.83608e-06
-0.0199433
-0.00010476
-0.00484812
-0.127036
-0.029734
-0.00680968
0.00557638
-0.000247641
0.0113358
-0.0126052
0.0450296
0.118241
-0.198931
-0.0947445
-0.00904937
0.00294306
-0.038521
0.405346
-0.0828519
0.0249442
0.421486
-0.00074055
-0.00107113
-0.0977091
-0.00109998
-0.0286529
0.00423257
-0.00142389
-0.000990951
0.118367
-4.71277e-05
0.000161161
4.4691e-06
-0.00174977
-0.00771533
2.57585e-07
-0.000474111
-0.0200033
0.353704
-0.0069152
-0.00984007
0.352279
0.227964
0.0357272
-0.081859
-0.0205557
0.00271185
0.192615
-0.00659179
0.232789
-0.0385724
-0.111951
0.139711
0.235584
-0.0305889
0.0719548
0.176785
0.210464
0.0445441
-0.00197987
-0.00298199
-1.72663e-05
-0.00968129
-0.00666343
6.68918e-05
-2.1046e-05
-0.000926799
-0.0661168
0.045351
-0.0118277
-0.00611526
-0.00215893
-0.0302431
-0.00436713
-0.000713034
0.149422
-0.00090236
-1.10918e-05
-5.13451e-05
-8.85111e-06
-0.0146539
0.114471
-0.00231178
0.0233464
-0.132789
0.298385
0.000528097
0.00421131
-0.0036035
0.295635
-0.000429169
0.270053
0.13
-2.20747e-05
-0.0403982
-0.00174753
-0.0525065
0.000173599
0.0439201
-0.00281668
0.00382189
-0.000355631
0.102024
0.126746
-0.0601171
-0.0216466
-0.00240214
-0.0309371
0.0189889
0.432709
-0.0891154
0.00144701
-9.09241e-08
-0.00926869
-0.00115711
0.00969206
-0.103233
-0.10619
0.316535
0.112784
-0.142446
0.156814
0.286492
0.0252751
0.000226239
0.203329
-0.000983369
-8.58078e-05
-0.00887408
8.62418e-06
-0.16996
-0.00666839
-0.0299333
0.000801545
0.152394
-0.00090828
-9.16017e-06
-0.117104
0.000721947
-0.00500796
-0.026525
-0.0300835
-0.0584946
0.112706
0.0905657
0.0934565
-5.66133e-05
0.0364958
0.0515842
-0.000365117
-0.0115756
0.000196253
-0.00291105
-0.0138247
0.00291471
-0.000683398
0.0919838
-4.6699e-06
3.46592e-05
0.000935425
-0.0132014
0.0151607
-0.0264774
-0.0161528
-0.0511754
-0.139415
-0.0088458
0.196624
-0.111568
-0.0044506
0.431226
-0.0510077
-0.00809514
-0.0161517
-0.0110469
-0.0117031
-0.00709858
0.0211229
-0.0901263
-1.09179e-05
0.0180114
-1.81209e-05
0.279048
0.0502199
-0.00318962
-0.00755556
-5.04177e-05
0.270631
0.256152
0.0189218
0.100008
-0.0563411
0.31718
-4.14001e-05
-0.00050376
-0.00946968
0.108822
0.387952
0.00573203
0.107889
-0.00530936
-6.36573e-05
0.0864573
-0.134636
0.283908
-0.00207588
0.168561
-0.00466673
0.301226
0.242287
-0.00608722
-0.00522968
0.0634744
-0.0308737
-5.251e-05
-0.00902041
-0.034912
-0.0671123
0.00828108
0.00591501
-7.51233e-05
0.259925
-0.00414362
-3.02379e-05
-0.047945
-0.000281364
-6.8491e-05
-0.00106335
0.168545
-0.10239
0.364844
3.98581e-06
0.167051
-0.0380865
-5.83285e-05
-5.29652e-07
0.124204
0.161509
-0.00286356
0.143989
-7.60996e-07
0.15317
-0.189694
-0.00631526
0.297921
-0.0439707
0.0920581
-0.0147528
0.151344
0.158803
-0.0120857
-0.0153279
-0.00707441
-0.0015965
-9.55754e-05
-0.00397754
0.218125
-8.79286e-06
0.146604
-0.103785
0.249418
0.138081
-0.034288
0.364362
-0.00104474
-0.00712727
-0.0736555
-0.0120231
-0.00455106
-0.0406738
0.010518
0.408456
8.44143e-07
-0.00122015
-0.0637064
-6.53367e-07
0.286693
0.000752526
-1.12835e-06
2.96616e-05
0.00010181
-0.0184533
0.00925185
-0.0009174
-1.05615e-05
-0.00472645
-0.00223854
-0.108812
-0.0277415
0.0159879
5.11966e-07
-0.180787
-0.00832243
0.0703534
0.241528
-0.000139643
0.0783815
1.89135e-05
-0.00803816
0.0656783
-0.00479045
0.18342
-0.0093295
0.0020557
0.0684124
0.109931
-0.00147147
-0.00685764
0.13308
-0.0788005
0.306123
-0.00660684
0.21093
-0.00626743
-0.000589128
0.101723
-0.0122004
0.0615859
0.00079859
-9.85164e-07
-0.125543
0.14359
0.000125806
0.0666452
-0.00883686
-0.179296
-0.0223078
-0.0277557
-0.00101671
-0.00458476
-0.0628111
-0.0178503
-0.00647995
-0.000143697
0.325814
0.074147
0.0226067
-8.1344e-05
0.239664
-3.62334e-06
-7.25522e-05
0.0843887
-0.00886505
0.118802
0.0408017
0.0104166
-0.0773247
-0.143188
-0.0602362
0.000486503
-0.026415
-1.31383e-05
-0.000363779
0.176507
-0.0115641
-0.00175047
-0.0256013
-0.00117357
-0.000422586
0.391576
-0.00701369
-0.000373403
8.59313e-07
0.101489
-0.0272672
-0.000239349
-0.00150287
0.119345
0.0527799
-0.028749
-2.2702e-06
0.133551
-0.0157927
0.143188
0.012716
0.0163567
-0.0197369
-2.80872e-05
0.0665801
0.0448576
-0.0243923
-0.097967
0.217392
0.00374165
0.128452
-0.00662726
-0.0447282
-0.000149092
-0.00810024
-0.000123366
0.118503
0.194413
-0.000974982
0.0120849
-0.0109271
-0.083774
-0.0902138
-0.00102019
-0.00166948
0.379973
-0.0411112
-4.62183e-05
0.0528293
-0.00517627
0.326021
-0.00835934
-0.0185768
-0.0190848
-0.0205662
-0.0128305
-0.0050452
-0.00713342
-0.000592057
0.00375081
9.91323e-06
-0.184177
-0.0614082
0.275967
-0.0278031
0.124757
0.000914103
-0.076341
-0.0261206
0.1569
-0.00512433
-3.47383e-06
-0.0160436
-0.00641993
0.00156977
-0.016255
-0.0157858
-0.0602929
-0.0084632
-0.0222845
-0.0742331
-7.96609e-07
0.0165696
-0.0640407
0.101209
-0.0873259
0.061437
-0.0967627
0.249718
-0.0154047
-0.0201064
-0.03396
0.340594
-0.154399
-0.0085843
-0.126459
-0.05595
-0.120246
-0.076548
0.1247
-0.00183574
0.187653
0.00584626
-0.000267451
-0.00122585
0.044359
0.427759
-0.0010483
-0.0404685
0.125705
-4.21723e-07
-0.0147595
0.0207691
-0.0327448
0.00596434
-0.00138094
-0.0347997
-0.00457696
-7.30973e-07
-0.0424089
0.194229
-0.0128713
-0.0104946
0.000842459
0.125423
-0.000297169
-0.000683878
-0.000140367
-0.000937386
-0.00693272
-0.0172833
-0.00442921
-0.0123407
-2.36667e-06
-0.138187
-0.123654
-0.15711
-0.0247365
0.0095118
-7.08468e-05
-0.0116284
-0.047479
-0.0235455
0.250222
-0.00154701
-0.0398467
-0.00338366
-0.0118089
0.102868
0.000118148
-8.93024e-05
0.0714082
-0.0354359
0.00699831
-0.00198385
-0.00099845
-0.0464686
-0.000133705
-0.0159556
-0.00689875
0.213715
0.193366
-0.0684513
-0.0636531
0.00454783
-0.00717118
-0.0461083
-0.0736232
-0.0309194
-9.57408e-07
-0.0475373
-0.0138167
-0.0805016
-0.0099231
-0.0264709
-0.000192773
-0.00183843
0.139918
-0.0191479
-5.61993e-08
-0.00142899
-0.142843
-4.10372e-05
-0.0370257
-3.64372e-05
-0.00149113
-0.105638
-0.06611
-3.02423e-05
-1.97183e-07
0.0864612
-0.0576341
0.270896
0.20189
-0.0483179
-0.000809707
-0.0265038
3.87755e-05
-0.152576
-0.112646
-0.0629633
-0.0109124
0.194016
-0.00223353
4.32763e-06
-0.00494462
-0.151077
0.000875526
-0.0441019
-0.0466287
-0.00971965
0.0101421
0.0441212
-0.00412942
-0.0184221
-0.0998269
0.132174
-0.0517626
-1.30584e-08
-0.129717
-0.0382702
-0.0609313
-0.00297192
0.000242836
-0.00646264
-0.11232
0.0160849
-0.0153989
0.0792975
-0.0706079
-0.00131769
0.00796137
-0.00688796
-0.0167096
-0.161864
-0.00011116
0.100429
0.146463
0.00340825
0.148012
-0.0898202
0.0257083
-0.0586538
0.139997
0.0652418
0.40939
-6.60502e-07
0.0602652
0.121399
0.00746083
-0.000641506
-0.00748119
-0.0618987
-3.56883e-06
-0.00956774
-0.0564522
-0.00795162
-0.0112557
1.51196e-05
-0.135282
-0.000235592
-0.000236708
0.169022
-0.000338658
0.0133227
0.00769953
0.144874
-0.000530316
-0.000363372
-0.144448
-3.47087e-05
0.259961
0.00033898
-0.0573065
-0.000192272
-0.000182135
-0.00285145
-0.0809217
-1.29762e-05
-0.00404693
0.0118412
-0.000547351
-9.59934e-07
-3.53029e-05
0.103584
-0.0730017
0.00107862
-0.000328857
0.00176045
0.0077864
0.00105137
-0.000204109
0.268204
-0.131639
0.15472
0.227148
-4.04214e-05
0.00419937
0.064943
-0.000307651
-0.000136582
-0.000435114
-0.0469782
-0.00454381
-0.0235428
-0.0282403
-0.0630687
0.116521
-0.129972
-6.33839e-07
-0.0106691
-0.0154107
-0.016287
-0.00166114
0.000863596
0.000317974
0.0141307
-0.000134271
-0.000211847
-0.010974
-0.00208991
-0.0137489
6.5464e-08
-0.00807044
0.0172241
-0.0574866
-0.0604491
-0.00424655
-0.00590457
-0.00420294
-0.00232034
-0.00926872
-0.00402948
-2.87258e-05
-0.000260617
0.00899574
-0.00576346
-0.00236046
0.00214406
-0.00416931
-0.15093
-0.00595904
0.106278
-0.00556286
-0.0396462
-0.0228097
-0.0127799
-0.00793525
-0.00161394
8.75477e-05
-0.00162413
-0.00607979
-0.0076768
0.132838
0.0966366
0.0199477
0.242001
-9.55351e-06
-0.00328289
-0.00728938
-0.00428317
0.0437745
-0.0104492
0.0147431
-0.00401418
0.146338
-0.00100521
-0.000933952
-0.0090106
-0.0285178
-9.76679e-05
-0.025146
-0.00256363
-0.0101653
-3.60321e-06
-0.00281583
0.000531704
-0.00980131
0.00815269
0.0208521
0.00998133
-0.00723881
-0.0173511
0.0766103
-0.000836738
-0.000792171
-0.000786098
0.354154
-9.4494e-05
0.0364552
-0.00973815
-0.011229
-0.011744
-0.0380688
-0.0136935
-0.018427
-0.0115663
-0.00235795
-2.50609e-05
-0.00180695
-0.00980675
0.0638241
0.000483144
0.0955037
-0.0179749
-0.00734094
-0.000261035
-0.0162384
-2.2744e-05
0.0997452
-0.0169281
-0.0143932
-0.013423
-0.00420173
-0.0239735
-0.000538302
-0.0216702
0.0663541
-0.0133814
-0.0802567
-0.000496562
-0.0138352
-0.0103609
0.00769449
-0.00160045
0.0957166
-0.00088544
-0.00811069
-0.000372477
0.108867
-0.0210406
-0.0129041
-0.0012323
-0.00535106
-0.00137973
0.129423
-0.0255928
0.141216
-0.00412466
-0.000494833
-0.00043016
-0.00118174
0.116891
-0.037846
-0.00379285
4.94846e-05
-0.0113857
-0.0271284
-0.000713769
-0.0239034
-0.0085525
0.0352204
-0.00222397
-0.00484752
0.325249
-0.035646
-0.0117831
-0.0342244
-8.34718e-07
0.047889
-0.00153901
-0.0122763
-0.00299838
-0.0188981
-0.000351088
-0.000235994
-0.00112991
0.0011397
0.138342
-0.0023642
-0.000786067
-0.00225512
-0.0441817
-0.00401925
-0.00980806
0.000462784
-0.00390194
-0.0035848
-0.00153562
0.140958
-0.0248493
0.00103949
-0.0016342
-0.0131711
-0.00584912
-0.0257976
-0.000838991
0.0582183
0.010872
-0.00408993
-0.000922485
-0.007792
0.372863
0.139497
-0.00558254
-0.00016247
-0.00114262
-0.0136649
-0.00206305
0.0100058
-0.000214469
-0.0238661
-0.000742385
-0.0074939
-0.136129
-0.000742087
-0.0133247
-0.000505148
0.227727
-0.00408331
-0.00537343
-0.0687037
-0.000605312
-0.0137184
0.00675806
0.326666
-0.00568309
-0.00635056
-0.000714469
-0.000316089
-3.79687e-06
-4.14287e-07
-0.00531972
-0.000289299
0.0599364
-0.000439511
-0.000749439
0.00243146
-6.59686e-05
-0.0242592
-0.0694423
0.00885336
0.0233438
0.0145435
-0.00749618
-0.0656361
0.0574581
0.0440781
0.0624027
0.0815153
-0.00583375
-0.00037457
-0.00535415
-0.077672
-0.00140828
-0.00747013
-0.0221501
0.249317
-0.0603434
-0.000152527
-2.6952e-05
-0.000453693
-2.2728e-06
-0.00128393
-0.000331582
-0.0044133
-0.0252719
0.000100615
0.000669146
-6.58932e-05
0.0280179
-0.00709812
-0.0755676
-0.000898179
0.228674
0.207844
-0.00571234
-0.103671
-0.0142283
-0.0108199
-0.00767551
-0.000888642
-0.0906519
-0.0462412
-0.0303385
-0.120131
-4.7831e-05
0.130055
-0.032725
-0.0041658
-0.0441806
0.00871479
-0.000208315
-0.00458405
-0.000471934
-0.000237825
-0.0012966
0.109438
5.20442e-05
0.00455669
-0.000103982
-0.140358
0.00367814
-0.000738004
-0.0145964
2.02938e-05
-0.0308237
0.0722653
-0.00559324
-0.000585748
-3.12291e-05
-0.000233231
-0.000177586
-0.032645
0.0831497
-0.0367939
-5.77266e-05
7.31474e-05
-0.000212793
0.159315
-0.0347686
0.181014
-0.0238918
-0.000125784
-0.000184497
-0.00407424
-0.00248036
-0.000402878
-2.47775e-07
0.0115056
0.0147817
-5.84301e-05
-0.000246128
-0.00981519
6.42677e-08
0.114949
-0.000465365
-0.0282628
-0.010121
-0.00271454
-0.0310041
-0.0397487
0.102898
-0.039309
-0.00939227
-8.08561e-05
-0.0291374
-0.00922704
-0.0388258
0.0468925
0.256126
-0.000368215
-0.0322415
-0.0018376
0.227128
0.0213776
-2.4332e-05
-0.00322779
-0.00172428
-0.00253937
-0.0174136
0.0512669
-2.85272e-05
-0.00344402
-0.000130511
0.0362229
-0.000169327
-8.13072e-05
-0.129458
0.204811
-0.0288287
0.0952732
-0.00122281
-5.84034e-05
-3.75182e-08
-0.120068
-0.0151884
-0.000189292
0.0596631
0.00520011
-0.00267411
0.28682
-0.000330314
-0.00220072
-0.0365869
-0.0466097
-0.000850021
0.0908215
-0.0844282
-2.73159e-05
-0.00387715
-0.000104597
-3.06493e-05
0.0911557
-0.017016
-0.000113433
-0.0232496
-0.0129924
-0.00127549
-0.0542649
0.000729523
-0.00997589
0.000277285
-0.00173223
-0.0364368
-0.020737
-0.00556755
-0.00048324
0.104729
0.144761
-0.135122
0.00120489
0.00915257
-0.00222684
0.114283
0.0633724
-0.0123454
-4.74537e-05
0.00203411
-0.0214561
-0.00626061
-0.0187961
-0.00109592
0.0134039
-0.0158818
-2.25046e-05
-2.84694e-05
-0.063686
-0.0242143
-0.0118868
0.00255909
-0.0394555
-0.0271183
-8.31232e-05
-0.000922441
-0.000106683
-0.033244
-2.72651e-06
-0.000858011
-0.0633384
-0.130452
0.0583105
-0.00149746
0.00150757
-0.0137561
-0.0125227
-3.81785e-05
-0.0171935
0.0515352
0.107483
-8.23281e-07
-1.78885e-05
0.109773
-0.00128606
-0.110077
-0.0147944
0.00117455
-7.07494e-05
-0.0273425
-0.0599127
0.112838
-0.0214954
-0.000556333
-0.0135789
-0.0409594
-0.000260601
-5.23104e-05
-0.000436383
-0.0537614
-0.024409
0.0874298
-5.41352e-05
0.344007
-0.0711412
-1.1691e-05
-0.00078207
-8.50293e-06
-5.99202e-06
-3.65117e-06
-7.60056e-07
-0.0239197
-0.00040981
7.05139e-05
-4.30356e-05
0.0952233
-0.00265727
-4.74664e-05
-2.5033e-05
0.274775
-0.0124341
-0.081169
7.59415e-05
-0.000320276
0.0255464
-3.61642e-05
-0.015743
-0.179875
0.000665669
-0.00623557
-1.96358e-05
-6.89713e-05
-0.0192081
-0.0831842
0.00304099
-0.162074
-0.0953536
-1.80008e-06
0.0113442
0.0186396
0.0717582
-0.00064587
-3.8372e-05
-0.0332358
-0.00282826
-0.000348306
-0.0239222
-3.56953e-05
0.0118329
-8.52262e-05
-0.000395019
-0.0549508
-0.00202189
-0.0294417
0.33168
-0.00102851
3.26306e-05
-0.0430967
-0.0602374
0.00277322
0.00179018
-2.60535e-05
-0.0162432
-2.76724e-05
0.136717
0.394147
0.0301066
0.00102012
0.00116126
-4.04735e-06
-0.01791
-2.5214e-05
-0.0103368
-0.000821016
1.84935e-05
-0.00134602
-0.00861987
-2.09566e-05
0.000160056
-0.010192
-8.79797e-05
-0.00844549
-0.00948771
-0.0237002
-0.00103292
0.356529
-0.000613753
0.000766601
2.59251e-05
0.00677746
-0.0220873
0.0040203
-5.38318e-05
-1.71183e-05
0.000331971
-3.47418e-05
-1.92052e-05
-0.0102122
0.000141454
-1.7407e-06
-0.027742
-0.0022446
-0.0229085
-0.000733205
-8.2111e-06
-0.00117002
-0.0209266
-0.0113194
-0.0283634
0.000723588
5.91077e-05
-0.00018925
-0.000594516
-3.22031e-05
0.199728
0.000429599
-2.24401e-06
-1.72573e-05
-0.00111669
-0.00027186
-0.0251213
-0.0239625
-9.08127e-05
-0.00363781
-2.52988e-06
-0.00284725
-1.16681e-05
0.0204233
-4.32446e-05
-0.000116587
-0.00354434
-9.9888e-06
0.00649023
-7.61934e-05
-0.000476601
0.00980156
-2.87204e-06
0.275572
-0.0302724
-0.0231203
-6.93416e-06
-1.39994e-06
0.000319215
-0.000407074
-0.0379445
-1.85668e-06
-1.70028e-06
0.000109787
5.73981e-08
5.44325e-05
7.57702e-05
-0.000165405
0.000166516
-0.0249436
0.354322
-0.0351597
0.250575
0.00400239
-0.0145511
-2.70311e-06
-0.000250285
-0.00704741
1.73419e-06
3.54481e-05
1.16939e-05
0.018815
-0.00134311
-0.000158949
0.323937
-0.000115694
1.67139e-05
8.82116e-05
-1.76344e-07
-0.0214706
-0.00121814
0.000275594
3.09323e-07
-0.00062145
-6.08562e-06
-0.00104704
-0.0254598
-0.000117701
-0.0017441
4.67974e-07
-0.00323935
-5.1385e-05
0.133714
-0.000141407
-0.000278384
-0.0242268
0.00133087
-6.95116e-05
-0.000548151
-5.25946e-06
0.120902
-0.0394184
-0.000364826
-9.6512e-05
-0.00226421
-0.000162116
0.0315651
0.0706229
-0.0100798
-2.38634e-05
-3.53151e-07
1.39488e-07
0.0229228
2.85269e-05
-0.020669
-0.0321123
-0.0109335
-0.0811358
0.368798
0.000570747
0.137052
-0.0103596
-0.0174697
0.123165
-7.54106e-05
-0.034394
-2.12935e-06
-0.00510576
-0.0179126
7.23943e-07
-0.047206
-0.00029795
-0.0249051
-0.00558665
-0.0155165
-0.0219785
-0.00369307
-0.0433927
-0.016309
-1.62873e-05
-0.00479503
-3.96246e-05
-0.0146418
-8.6236e-07
-2.3835e-05
-0.00799905
0.116367
-2.4594e-08
-0.0261819
0.00109019
2.4701e-07
-0.0174308
-1.96278e-06
-0.00521786
-0.000149058
-0.0146539
7.24743e-06
-2.29392e-05
-0.0015995
-7.13662e-05
0.113138
-0.0178055
0.030214
-2.16798e-05
0.000121324
-0.0123062
-4.42229e-07
-0.0314765
-0.0322619
-0.0242228
0.349405
-0.00359831
-1.30892e-06
0.0130689
-0.0165528
-0.0026187
-4.0363e-05
-1.82265e-05
-0.0234374
1.40258e-06
0.000189901
-1.40904e-07
4.25708e-07
-0.0111346
0.0589634
-0.0963049
0.0596085
-0.00283545
2.45332e-07
0.000299738
-0.0498442
3.51281e-07
-1.74734e-06
4.35639e-05
1.51942e-06
6.42977e-05
0.168144
0.0190082
8.56323e-07
-2.1595e-06
-0.0288446
0.144858
0.125492
9.15644e-07
-0.0200784
-0.0165342
-0.00950772
-0.0219957
-0.00797995
-0.00132926
0.0990936
-1.96338e-05
-0.0151639
0.119804
-0.0273506
-1.65791e-05
-0.0256297
-4.42361e-05
0.223532
0.0117027
-2.288e-05
-8.28276e-06
0.132231
-7.78794e-07
-6.39582e-05
-0.00489082
-5.01612e-06
0.184039
-0.000164559
-0.00306228
-0.0251492
-0.0019379
-0.0829514
0.131632
-0.0219566
-0.0669222
0.000234995
-6.28069e-06
-0.000672327
-1.26987e-05
-7.67185e-06
5.47638e-05
0.129795
0.106014
-0.000192025
0.17993
-0.0151342
-2.39158e-06
-0.0175479
-1.46441e-05
-0.0166937
0.0127725
-0.01268
0.00117471
0.000517917
-0.00400993
-2.21182e-05
-0.000841668
0.00639143
-0.000953707
-2.82703e-05
-8.59949e-07
-7.85564e-06
0.0176911
-2.34013e-06
-0.0214789
0.189383
-0.00381202
6.32761e-07
-0.00143392
-8.88154e-06
0.0253162
-6.29092e-05
-1.10318e-05
-2.33248e-06
-2.94079e-06
0.152567
-7.57807e-05
0.175358
-0.0433804
5.04401e-07
-0.0377226
-0.000476964
0.111373
0.329094
-0.000418219
-2.3096e-07
-4.32268e-06
-4.85938e-06
0.09174
-3.18034e-07
0.000172066
-0.00928015
0.163591
-1.64363e-06
-3.31841e-06
-2.20011e-07
-8.67939e-07
-0.0118092
-3.57166e-07
0.205231
-0.0135275
-7.8263e-06
-2.38725e-07
-0.000678491
-0.0122509
-2.48509e-07
-5.07058e-06
0.11846
-1.91741e-07
-0.01855
-0.0777485
6.66951e-06
-3.40722e-07
-0.18449
-2.51023e-07
0.115433
-4.41879e-07
-0.000171988
-1.92152e-06
-1.38196e-05
0.0615291
-1.32388e-06
-0.000754777
-3.17076e-06
0.00101601
-0.00202978
-0.00245815
-0.00191911
0.109026
-0.000253453
-2.43006e-05
-0.00366928
-0.00377043
-2.85368e-05
-5.36874e-05
-0.000464389
-3.23365e-06
0.119751
-0.0084855
0.365435
-1.78218e-06
-0.0037936
-0.000147533
0.0891031
-1.72744e-06
-0.018147
-9.29595e-07
-0.000669058
-0.018945
-4.53936e-05
-0.00894991
-0.0291216
0.000923077
-1.11781e-05
-0.0573317
-4.25615e-05
-0.000331984
-0.00254103
-0.0222414
0.000152532
-6.43052e-05
-0.000148313
-0.000958385
-0.000500744
-3.79046e-06
-0.000433637
0.325815
3.26157e-06
-0.00127091
-0.0196327
-0.0243564
-0.0334269
-0.0192405
-0.0129794
-0.000568295
-0.0218734
5.77967e-07
-1.99532e-05
0.343352
-1.44749e-05
0.124969
-6.87472e-05
2.92125e-05
-0.000371525
-0.102607
-0.000126774
-0.00145783
-6.56166e-06
-0.000105005
-2.03661e-05
-1.56601e-05
-0.00605484
-4.08826e-05
-3.6223e-05
-1.3712e-05
-4.34762e-05
-7.67246e-06
-0.0284457
0.174227
-1.84446e-06
-0.000105477
-7.84686e-05
-9.06691e-07
-0.000230843
-1.57331e-06
-0.000272593
3.18145e-06
-8.6891e-05
-0.0312313
-0.000229835
-0.00101256
-1.32078e-06
-0.00160401
4.33794e-05
-5.50669e-07
-2.66176e-06
-9.43564e-07
-0.000156794
6.47338e-05
-0.0285301
-0.0209211
-0.0289411
-0.000570638
-0.00208552
-0.0631342
-0.02661
-5.68874e-06
0.00401419
0.00177957
-0.000218181
-0.00662169
-0.0195929
0.325296
-8.3422e-05
-2.6127e-06
2.40438e-05
-1.79303e-06
-1.13833e-06
0.0483228
0.000284528
0.0570921
-0.0370489
0.305979
-8.77201e-05
-8.61745e-07
6.73553e-06
-5.26732e-06
-0.00031815
0.105491
0.159213
-3.63455e-06
-5.69053e-05
-1.00725e-05
0.150127
-0.00162776
-0.00916372
-8.28716e-07
-7.93327e-07
0.00272783
-0.000130816
-0.0455487
-0.00990665
-6.33532e-06
0.000918424
-0.0241327
-9.39135e-06
0.000344141
-3.23511e-05
-0.0231419
-0.000439536
0.0997163
-1.11675e-06
0.000423782
-0.00194154
-1.59524e-06
8.04696e-06
-0.0136642
-1.42069e-06
-0.000191344
-3.60442e-06
-0.00735372
-0.0203228
-0.00338737
-0.00921917
-0.00353666
0.00371552
-0.00476982
-0.000691053
1.98947e-07
-4.8088e-06
-2.75925e-06
-2.09086e-06
-6.55473e-06
0.00291403
-0.0475213
7.26351e-05
-0.0504522
-0.000881392
-0.0507629
2.41446e-06
-8.50164e-06
0.000290814
-0.117548
-1.87584e-06
-0.0474178
-0.0106457
-0.0442538
-0.0536884
-1.70259e-06
-0.00102281
8.50979e-06
-0.189497
0.0921604
-6.67564e-06
-0.039623
-0.0173417
-0.00133209
-3.9317e-06
-2.14058e-06
0.00330059
-0.0060444
-4.74403e-06
-0.00295361
-1.54934e-05
8.48461e-06
0.0827968
-1.41404e-06
-1.17459e-05
-6.28514e-05
-2.96456e-06
0.000169868
2.73092e-06
-0.00169625
5.80619e-06
-0.00731582
0.000200018
-9.57957e-05
-0.0304773
-0.0263955
-0.00334569
-9.99948e-07
-2.3858e-06
-0.0659946
0.00196217
-0.0265972
-7.06153e-06
-0.00263561
7.45243e-07
-3.09857e-06
0.0382305
-0.00226319
-0.000804203
-9.68749e-06
-0.0124282
-1.52446e-06
-0.0374594
-4.02566e-06
-0.0434703
-1.15511e-05
-1.16653e-06
2.30831e-06
0.000217382
-0.127087
-0.00678937
-0.0490366
-5.69785e-06
-3.62935e-06
-0.0397453
-0.0302869
-0.00290381
-2.52214e-06
-0.0592196
-0.0397171
-0.036838
-7.35998e-06
-2.88993e-06
-2.04822e-05
-0.118336
-0.050237
8.92987e-05
-0.00374371
-2.22644e-05
0.16476
4.43749e-06
-7.52932e-06
7.09216e-06
-2.74208e-05
-3.53786e-06
-0.00179255
-7.41487e-06
-0.00131424
-0.0509161
-0.00466715
-0.0182413
-7.67112e-06
-4.13853e-06
0.0222064
-0.0733822
-0.00150892
0.0737445
-3.55872e-05
-4.72718e-06
-3.9604e-06
0.0632769
8.87334e-06
-6.26004e-05
-6.74756e-06
-0.0600809
-0.00568165
-1.31976e-05
-6.06456e-05
-0.00527221
-0.00210908
1.46788e-05
0.161084
-0.051123
-0.000820808
0.431689
-4.81721e-05
-0.000559876
-0.00750214
-0.0321732
-5.57076e-06
-1.73424e-05
-1.30339e-06
0.00137897
-0.0328172
-0.000171225
-0.0325716
-0.00261096
-9.53023e-06
-8.22865e-07
-0.00352318
-0.0200581
-0.0493635
-0.114558
-0.0214389
-0.0219601
-0.0382145
-0.0191984
-1.252e-05
2.36462e-05
-0.0179091
8.56933e-05
-0.000144506
7.70247e-05
-1.92304e-05
-0.000112511
-0.00421097
-1.32919e-06
-1.51058e-05
0.0112414
-0.052653
-0.000249458
-8.46431e-05
-4.35339e-06
0.176227
-0.00371788
5.18063e-05
-0.0198571
2.2307e-05
1.07229e-05
1.21533e-05
-1.25186e-05
5.50929e-05
-0.0252322
0.00137466
-1.12612e-06
-0.00019272
-0.031371
-0.0282288
0.0288203
-7.5596e-05
0.000493861
0.00828623
-6.41617e-06
-5.79857e-06
-0.0486118
-1.42072e-06
0.114418
-2.28187e-05
0.00139791
1.17527e-05
1.17471e-05
-0.0321537
-0.00437921
-0.0105022
-0.000751358
-1.57466e-06
-0.000129191
0.0372952
-0.00767327
-4.55192e-05
0.0610479
0.111285
-1.98531e-06
-0.0300712
-2.18756e-05
-5.83739e-06
-5.08702e-06
-9.61255e-05
0.00959484
-3.04159e-05
1.15245e-05
-0.0103562
-0.0147839
-0.00764786
0.222465
-1.71305e-05
-1.45389e-05
0.118135
-0.018051
-0.0019938
-0.000113629
0.116117
-1.54511e-05
-0.000430089
-3.28137e-05
-2.91746e-05
-1.8557e-06
-2.47398e-06
2.26033e-06
-0.00714535
-8.85684e-06
-0.00206081
-0.0226633
0.17453
-0.000319188
-6.21226e-06
0.00156951
0.0539664
-0.049661
-0.000145296
-0.0254314
0.222878
-1.47528e-06
0.292581
-1.98241e-06
0.00077789
0.0118921
5.59825e-05
0.309471
-5.32167e-05
-1.85021e-06
0.000129322
-2.26061e-06
-0.000160219
2.24402e-05
-9.96962e-06
-0.000683053
-3.94995e-05
-5.09984e-05
-0.00135591
0.173028
0.0258208
0.0107574
-0.0192069
-1.3668e-06
-1.16218e-05
0.00066562
-0.0558662
-4.92292e-06
-0.0220249
-1.15523e-05
0.0675614
0.0373018
-0.02463
-0.000571031
-0.00938361
-0.000200221
-0.00533781
-0.00255977
-0.00605063
0.0372414
-6.86577e-07
0.18395
-0.00441638
-0.000734984
0.149847
-0.00777696
-9.53977e-07
-1.27792e-05
2.0923e-07
-1.90141e-05
-6.69517e-05
0.174797
-0.000319175
0.180112
-0.00124912
0.114666
0.159289
0.0682865
-0.00398789
-5.80913e-06
-5.59821e-05
-0.00356444
-0.168811
-0.0367517
0.000362379
-2.63354e-05
-0.0180283
-0.000552971
-6.88035e-05
0.000216256
-0.000312664
-0.000951319
0.0173112
1.83113e-06
-0.0194748
0.0320955
-1.32589e-07
8.41632e-06
-0.0119387
-0.0535267
-0.000204709
-0.000119147
-1.53637e-05
3.41251e-07
0.0380393
-0.0120597
-0.037731
0.000280742
0.0524375
-0.0261876
-1.41012e-05
-8.56105e-06
-0.011683
-0.000123309
0.0393993
-0.00616779
-0.00492503
-0.000172717
0.000295052
-0.0271666
-9.30508e-05
6.06871e-05
-0.017493
-0.0395109
0.102287
-0.0284911
-0.0170493
-0.000211122
-3.96099e-06
0.00265405
-5.90687e-06
-0.035196
-0.0479502
8.44342e-05
0.000494275
0.00127254
-0.133706
9.71524e-05
-1.59418e-05
-2.1097e-05
-0.0277318
-5.28053e-06
8.63509e-05
0.0817761
0.125512
-0.154224
0.0290081
0.0269744
-0.010138
-0.000273154
0.000672375
6.02227e-06
-4.19841e-07
-0.000158007
-6.29039e-07
-0.000132387
-9.8152e-05
-0.00421931
-0.087573
-0.0056349
-0.0253663
0.0298204
0.0244688
0.00119549
-0.0490911
-2.74296e-05
0.000818069
0.00394442
-0.000135406
0.0447734
-0.00161419
-0.00748616
0.00336986
0.00206618
-0.000855216
-0.00215026
0.0210971
0.0001075
-0.0114332
-0.0104845
0.372098
-0.0181453
0.0496879
-0.0121181
-0.0340986
0.000517736
-4.21629e-05
-0.000759986
-3.58186e-05
-0.000692036
-0.0171894
-1.82559e-05
-0.000201303
0.208297
-0.000933021
-0.0249449
-0.00672788
-7.13657e-05
-0.00209635
-8.55844e-06
-4.23554e-06
0.0170209
-5.39797e-06
-0.000860675
0.0447143
0.00156898
0.000257647
0.00707342
-0.00314818
0.00139877
-0.161053
9.33691e-05
-0.00229849
-0.0361974
-0.000594611
-0.00452285
-5.18656e-05
-0.00270671
0.00017071
0.0152791
-0.000468978
0.00183309
-0.0221969
-0.0131652
-0.000134966
-0.0194136
-0.00862381
-0.00626118
-0.000100043
0.00241504
-0.0705457
-0.000257672
-0.00304486
-0.0186901
-0.00363555
-0.000462152
0.159022
-0.0216021
1.32288e-06
0.00326984
-0.0428062
-0.000349491
0.137605
-0.00269041
0.000187288
0.0366773
-0.000610709
0.0026316
0.087025
-0.000288881
0.00025004
-2.18474e-06
-5.0019e-05
-0.00141152
-0.0067574
-0.000347986
-0.0140471
0.0622679
-0.0167504
-0.0757948
0.000251786
-0.00141876
-0.000803542
-0.0722507
-4.55918e-05
0.0029186
-8.4854e-05
-0.00594452
-0.000633362
-0.00157664
-0.0904168
0.0756834
-0.0850671
-1.43982e-05
0.14005
-0.00169839
-0.00344416
-0.0299996
-0.0923789
-0.00989948
-6.44796e-06
-0.00136275
0.00262348
-0.00126067
-0.0024784
-0.000139069
0.054477
-0.0400181
-0.00633528
-0.00215856
0.00144108
-0.00658093
-0.00501152
0.00042313
-0.000509382
-0.00119416
0.0740433
1.19818e-05
-0.177226
-0.000184073
-0.0024485
-0.00433333
-0.104485
-0.00720122
-0.13516
-1.58513e-05
-1.92016e-05
-0.00840556
0.00387235
-0.00017048
-0.166914
0.0514111
-0.0344785
-7.42882e-06
-0.190421
-0.000251364
-0.205327
-0.0154686
-0.238814
-0.242874
-0.237892
-0.203586
-0.123776
-0.0916336
-0.0609593
-0.0302558
0.00110802
0.0920459
0.121994
0.149385
0.195971
-0.00275397
-0.00519101
0.0285201
-0.0226404
6.86872e-05
-0.0024624
-0.0259709
-0.000273412
-0.00104029
-6.06459e-07
-0.00968759