/*--------------------------------*- C++ -*----------------------------------*\
  =========                 |
  \\      /  F ield         | OpenFOAM: The Open Source CFD Toolbox
   \\    /   O peration     | Website:  https://openfoam.org
    \\  /    A nd           | Version:  7
     \\/     M anipulation  |
\*---------------------------------------------------------------------------*/
FoamFile
{
    version     2.0;
    format      ascii;
    class       surfaceScalarField;
    location    "2.5";
    object      phi;
}
// * * * * * * * * * * * * * * * * * * * * * * * * * * * * * * * * * * * * * //

dimensions      [0 3 -1 0 0 0 0];

internalField   nonuniform List<scalar> 
11512
(
158.247
-496.058
337.811
-739.409
-13.1045
752.513
400.437
-376.805
-23.6321
611.66
285.419
-897.079
1511.21
-1069.47
-441.739
1216.29
-1527.14
310.842
-78.8961
482.828
-403.932
168.639
-843.023
674.383
962.162
-1610.85
648.693
-1750.98
1658.48
92.4986
-542.946
1759.24
-1139.67
1933.61
-793.944
609.331
181.13
-790.461
-23.5519
-1307.85
1331.4
218.796
-1969.78
1025.1
-381.109
-643.987
-162.739
320.986
486.882
190.74
-677.622
1156.58
-1312.6
156.017
-304.393
379.8
-75.4078
995.897
-1303.04
307.147
1221.47
798.839
-2020.31
70.2141
-1631.69
1561.48
-451.572
-1183.82
1635.39
478.302
182.124
-660.426
-200.724
-295.334
498.347
1012.86
1638.3
-1793.77
155.476
-78.8187
-1695.77
1774.59
-1558.49
648.812
909.68
-305.816
654.563
-348.747
-196.13
-152.883
349.013
1277.64
-1207.42
355.149
-1407.51
1052.36
-1754.35
1754.35
100.611
1521.31
-1621.92
-1075.88
-482.614
634.28
-713.176
-382.615
941.598
-558.983
1331.98
-1317.36
-14.6235
-1100.6
717.983
629.463
395.632
-378.881
-49.876
428.757
-425.719
745.704
-319.986
-1618.53
1618.53
1253.6
-1437.91
184.306
-488.28
1709.75
1256.96
-315.367
1660.76
-1161.27
-499.492
87.3742
-391.767
2064.01
-1133.89
-930.116
1802.82
-164.527
457.681
156.242
-613.922
-447.966
966.845
-518.879
-1162.05
1262.66
-569.214
971.736
-402.522
403.635
752.943
661.862
-493.222
-438.684
597.862
-159.177
1190.74
-835.589
2308.18
-1080.65
-1227.53
1163.01
-2006.95
843.936
-1592.82
1569.27
440.818
-1580.49
-759.26
1250.91
-491.649
-673.948
368.132
1661.49
-699.324
-1106.93
-870.892
1977.82
653.059
-345.665
-307.394
689.637
567.327
-258.203
1511.8
120.042
-323.104
203.063
-285.012
763.314
-335.893
567.807
-231.913
-324.746
811.629
-319.083
-151.479
470.562
330.202
70.2352
1445.94
-450.042
-957.706
473.29
484.416
283.321
89.103
-372.424
950.837
-341.506
-1699.88
666.982
1032.89
15.0902
-844.588
829.498
-282.813
598.585
-315.772
156.333
-1093.73
937.396
1051.98
-1067.52
15.5365
373.044
519.687
-892.732
-245.629
703.31
-1104.14
-481.913
1586.05
-678.785
951.734
-272.949
1361.26
-1440.08
-607.642
269.103
338.539
-470.185
-1011.59
1481.78
-540.733
-791.626
1332.36
576.747
-997.028
420.281
-266.748
-318.14
584.888
411.42
-291.379
-1033.25
585.28
955.341
-799.008
-110.286
944.128
-833.842
-212.44
421.986
-209.545
-614.852
-342.854
-386.742
963.489
1856.38
-1856.38
-448.369
-159.273
-955.563
1546.27
-590.705
497.778
-935.587
437.809
-924.632
355.418
-941.912
-1058.08
-1483.46
348.649
1134.81
-291.296
902.956
-298.111
609.183
-311.072
-1941.91
999.994
-1130.71
-352.746
536.476
-1492.04
1728.52
-1725.47
-3.05343
219.248
-596.325
377.077
-1446.84
972.086
474.753
293.051
210.937
-503.988
312.093
-647.987
244.671
-421.912
177.24
2013.41
-863.525
-1149.88
-544.831
165.949
619.535
831.185
-1450.72
-185.147
429.819
431.03
877.231
-1308.26
-910.757
395.977
514.78
-1043.63
1447.27
-1068.91
309.655
754.861
-100.298
523.812
-272.214
-251.598
984.383
-511.094
593.281
-1404.01
810.73
-1342.44
238.302
-549.663
266.85
-1177.12
885.824
1945.86
-988.46
-957.395
276.804
1579.58
-2091.2
892.784
1198.42
368.537
-31.1335
-337.403
-224.455
484.277
-259.822
-118.033
-375.039
493.071
-470.347
151.265
343.352
-128.832
626.611
406.294
391.7
-797.994
-2031.9
1103.99
927.909
461.963
-535.472
73.5084
223.661
-365.948
142.287
1030.64
982.763
1772.54
-251.224
695.951
-426.848
797.508
-1390.29
592.778
328.451
324.608
1042.12
-1027.03
-512.49
-212.15
724.64
482.344
-138.94
-343.404
798.427
-617.297
577.679
-733.679
156
503.33
1157.43
-1240.18
699.446
1052.76
-1504.33
-3.13866
-1439.43
1442.57
324.503
825.839
-1150.34
623.789
269.977
-893.766
-2270.81
1130.61
1140.2
-1106.81
-1164
215.487
362.192
958.579
-634.077
879.568
-899.287
19.7186
-2099.38
992.451
-227.452
-191.069
418.521
-41.651
1770.17
-817.333
77.9242
-1025.68
-1065.52
-230.636
454.298
-642.369
194
-249.01
-425.057
674.067
1104.07
-1574.25
783.208
-1374.59
591.387
692.973
-407.554
1947.88
-1444.55
-378.29
-1376.06
87.8612
394.966
-526.701
513.596
1.40885
-559.138
557.729
572.935
-279.884
-607.358
281.387
325.971
778.961
-372.667
34.0103
334.526
1188.47
-1191.61
183.11
228.311
391.522
-640.531
620.227
-1006.97
-2026.7
2026.7
-236.879
-450.499
687.378
699.408
405.885
-1105.29
580.11
174.751
392.803
386.158
-2199.74
1328.85
-927.035
-678.316
1605.35
-498.235
-678.885
-268.34
540.55
-272.21
822.822
-173.881
-648.942
-420.1
639.348
377.9
-676.011
-335.899
-140.742
476.641
-1319.76
-474.008
605.079
-1103.31
-374.159
-1244.37
844.319
1463.86
301.594
-932.702
631.108
967.296
-337.833
1391.53
-798.244
448.653
-265.543
-330.647
-868.098
552.048
316.05
-310.333
-557.765
305.812
-423.845
-220.453
-152.495
372.949
-392.733
1092.14
435.782
-245.042
-397.588
1340.69
-167.906
-1172.78
-466.518
264.253
202.265
236.568
230.676
-467.245
32.1566
-765.835
592.06
-1728.98
1136.92
1480.72
-861.185
-1048.95
-397.894
-1058.08
573.186
484.891
1366.1
-394.013
929.656
-1411.57
-159.03
-213.042
372.072
-469.978
582.534
-1626.17
427.978
904.006
258.628
300.915
-559.543
568.076
1186.27
1105.33
-717.216
-388.111
410.086
-221.738
-188.348
-1419.47
444.461
739.107
-1183.57
1473.47
-543.819
-494.464
913.674
-419.21
426.141
1186.17
-1612.31
47.3022
-726.087
-144.471
427.792
218.845
-414.975
518.155
466.228
-632.821
66.5021
566.319
1024.54
-1307.68
283.133
661.593
-268.791
468.213
-1447.27
979.053
422.13
1685.35
-522.341
913.712
1032.14
-663.784
-1684.45
757.417
567.857
386.491
-954.348
452.773
78.7212
1749.84
-1828.56
1443.78
-379.492
-1064.29
1699.06
-1740.71
-368.439
-507.705
717.622
-209.917
-502.593
187.472
294.872
-373.239
-1226.02
214.428
-764.563
-639.448
-671.294
1005.58
-334.288
-654.051
644.123
9.92785
655.127
-923.793
268.666
-750.261
374.87
375.391
-649.268
-676.439
357.775
318.664
-932.396
1400.61
-408.637
882.323
-473.685
-2205.3
5.55797
185.065
-540.499
355.435
140.971
1199.72
-92.4994
-549.869
161.775
-600.46
1487.28
-704.07
373.715
-468.016
94.3006
-566.643
566.643
1223.07
395.456
1777.78
-1229.39
588.999
640.393
850.788
-52.3612
1291.16
772.845
-539.785
1337.29
295.265
303.321
284.081
-791.786
235.917
-661.636
232.827
-446.849
214.022
-222.515
571.344
-348.828
134.824
-357.339
-592.188
-564.554
1156.74
-355.591
513.208
-157.616
-1192.16
2032.05
-839.886
1290.63
-332.052
-403.527
136.779
-1980.56
796.748
1513.94
-842.137
-671.8
1986.93
-877.412
-1109.52
713.452
577.18
-241.473
474.3
-676.692
1124.64
-447.95
-770.432
1201.46
551.465
924.716
-1724.7
799.984
-531.434
-68.2805
599.714
284.522
239.29
414.303
-111.56
-302.743
896.993
-83.4417
-813.552
898.36
-542.276
-356.083
1576.22
-472.16
886.376
-1624.82
738.446
1068.49
879.395
751.497
-446.752
-304.745
-1059.08
-258.282
553.818
583.267
-1137.08
-439.84
483.486
-43.6461
580.417
-348.734
-231.682
-981.247
572.609
597.272
883.449
-441.851
1096.98
1402.07
-767.186
-634.883
400.461
-927.29
526.83
-1000.48
385.624
531.921
-1026.38
442.786
-499.347
56.5609
460.035
285.669
-517.939
-48.7041
-794.821
-876.318
1671.14
197.169
212.917
-213.97
429.457
-36.7069
-530.64
567.346
485.532
865.964
-1351.5
-535.007
314.553
985.99
-88.9972
836.679
-1065.15
228.474
375.966
846.857
-1386.64
-439.44
831.14
1975.55
-1282.04
-693.505
270.188
609.38
256.014
795.967
71.1799
-951.944
880.764
1673.75
-1089.1
-584.66
-137.802
1887.64
-1866.03
-160.661
483.783
-621.967
138.184
-1015.72
526.215
489.502
-1730.48
538.319
-955.973
845.687
392.826
205.036
590.01
-288.415
-427.429
713.03
254.266
84.1943
710.993
-795.187
-1136.48
-893.192
2029.67
-530.677
1082.78
-552.107
-448.091
-336.466
109.014
-1653.26
858.441
-884.191
-577.822
1462.01
-332.285
-295.483
627.768
367.726
-637.849
270.123
231.494
-604.161
299.688
217.01
-516.698
324.705
-593.046
610.432
-242.705
316.07
-467.549
669.349
399.194
-162.625
-366.657
-309.781
1212.75
-3.89706
-1208.85
1040.31
-420.085
561.025
410.711
-1782.39
869.831
912.557
496.895
539.695
-1036.59
-536.156
203.872
-262.195
1180.32
-918.124
-1590.91
1212.62
504.689
-1096.88
390.093
-16.3778
420.805
290.485
-711.29
374.285
-619.914
-28.7121
754.587
-725.875
-526.35
796.327
371.659
322.992
527.796
655.642
74.3701
-382.173
307.803
1059.17
-645.37
-413.799
494.003
-1664.27
1170.27
-1140.47
1753.25
-612.779
1715.8
-1123.74
-335.595
616.982
-1181.8
1252.98
425.384
-796.309
1594.26
-797.947
-239.382
-227.137
-887.057
1468.91
1810.67
-611.69
-1198.98
-404.945
631.583
-1302.88
-124.787
-30.7192
445.022
-670.633
-354.172
-1236.74
-227.723
459.217
904.063
-563.552
188.513
-1674.46
-71.1697
1745.63
-1047.78
517.103
572.144
-1180.44
608.294
901.219
909.453
630.854
620.055
668.513
245.161
-1119.66
442.967
-407.342
408.751
623.738
-515.94
254.113
-736.707
482.594
665.964
-337.513
-338.413
185.529
-584.5
218.341
366.158
-888.894
-735.928
1087.67
-2145.75
400.799
-685.811
-343.004
-724.513
832.555
569.513
-352.92
303.044
353.934
197.326
667.537
-864.863
528.872
595.77
-517.3
181.401
363.202
-600.081
-1042.61
-850.12
1892.73
-1788.63
156.942
1107.4
-1369.6
1151.42
-735.966
-415.457
-503.256
1350.11
-1495.57
627.868
867.703
-287.897
-210.873
498.77
1428.39
558.542
317.154
-457.895
-487.928
-562.742
1050.67
-416.95
602.015
1582
-1128.4
-453.597
-758.463
307.963
655.006
404.163
-1623.43
416.153
1207.27
-206.061
505.749
797.993
784.003
193.69
-667.227
473.536
209.41
212.576
-295.083
-110.038
405.121
462.308
5.32893
-467.637
-1625.59
576.644
-1599.39
1662.27
-62.8766
8.50549
-1607.9
1069.62
740.319
-319.514
-794.87
-205.605
-1134.59
-240.009
-312.449
686.734
-1812.27
-621.84
1205.11
206.287
760.558
-1328.64
-678.314
-465.208
587.976
-329.348
-1013.29
1350.75
-1932.79
582.041
645.693
1287.92
487.347
-3.07015
718.07
697.387
-1415.46
-642.327
341.043
301.284
441.757
-100.257
-341.5
158.484
278.701
174.603
-453.304
-573.219
1141.08
472.538
-597.457
-462.687
-402.022
864.709
-338.216
179.186
-462.344
170.965
-306.849
-708.867
550.053
-108.296
-568.203
968.664
580.21
-270.322
-309.888
457.073
-781.82
-645.182
423.329
-1129.42
-829.054
1177.7
-569.77
462.623
262.017
-435.555
89.8896
1029.8
-316.969
594.261
-277.291
-509.044
1578.67
-669.233
219.892
383.488
-603.38
208.885
461.276
-15.0676
-446.208
-252.935
-209.409
1011.54
1108.97
564.784
-861.047
932.658
-71.6112
-456.996
169.099
-713.105
288.048
-600.664
315.29
350.674
807.782
-1219.91
412.124
778.577
-807.289
-948.997
-550.377
1499.37
-148.662
449.577
-518.944
246.73
1298.57
756.262
-562.572
1299.85
-694.772
488.15
-689.731
-417.957
-424.506
-378.877
803.382
503.886
-845.393
-431.428
78.6133
352.815
-326.217
572.391
730.95
-330.151
-247.685
-176.652
424.337
-494.342
150.772
343.57
1455.85
79.5949
-1535.44
-748.21
1345.48
-1144.75
-466.1
532.6
-149.112
1149.33
-370.749
1083.53
492.7
692.491
-408.41
-885.21
-522.301
-1328.49
-30.0627
985.119
-955.056
597.123
310.896
-908.019
-313.327
-231.503
-681.641
405.514
1621.18
-161.34
359.458
355.842
-715.3
-1839.8
-2106.67
1519.14
587.537
-2037.2
341.437
344.375
538.399
-882.774
-460.241
1021.27
-377.159
-674.65
1051.81
-2030.52
1391.21
639.314
601.027
-978.186
57.4151
385.371
387.123
203.359
245.293
312.614
945.402
849.296
682.379
-327.598
-354.781
-295.888
624.471
-328.583
575.634
529.693
565.727
515.041
-1080.77
-796.278
-699.293
753.532
395.793
-422.743
692.865
-1193.43
1609.58
402.844
-1077.49
-315.891
532.9
-1384.47
858.083
526.386
-716.815
-357.723
-796.422
374.849
421.574
446.991
718.695
-1165.69
1067.36
-570.463
-390.296
653.315
-263.019
254.831
325.379
-469.226
-432.183
901.41
-244.703
546.814
-939.02
392.206
-468.504
600.599
-1681.25
423.707
671.421
-1095.13
524.364
84.8185
113.406
-2212.78
531.41
-68.7867
1443.69
1777.09
-217.554
-1559.54
-438.393
1789.14
-1986.84
1194.43
792.416
406.333
345.164
-30.3463
862.902
-1283.67
719.116
-871.248
-823.975
793.912
316.187
49.0063
-365.193
229.91
184.835
-414.746
1547.08
-829.013
-1530.95
-325.432
460.718
-187.471
-273.247
396.143
367.171
231.034
356.942
-7.97888
1000.93
-992.952
373.575
262.469
-636.044
-734.007
1817.26
-1083.25
-343.201
739.344
-1211.05
-410.874
-916.857
484.674
556.232
-770.457
214.225
763.648
-382.233
-381.415
-417.929
-443.118
447.434
1060.79
1235.55
-663.404
802.798
-345.724
388.4
298.979
-257.568
-210.449
-190.542
612.672
408.212
-849.4
441.188
197.685
357.941
-555.626
-423.921
832.133
754.794
-1147.53
875.203
-67.4209
-493.551
272.99
769.127
-95.446
1383.37
1890.5
-77.1068
341.36
-319.942
394.313
-1085.06
1077.08
604.609
376.686
386.962
52.1202
408.598
267.835
484.679
-370.415
-271.912
-564.515
-89.535
-356.261
370.965
-14.7041
-258.795
-290.868
1011.15
-1540.74
529.587
-204.424
-172.381
-383.776
646.245
-1625.36
1591.08
-963.216
242.259
-660.217
584.308
1224.42
-1808.73
607.405
983.68
290.291
-1118.16
690.729
-288.481
-271.062
1368.22
-1440.51
819.73
620.783
401.518
-612.58
211.062
-349.229
471.997
-122.768
360.707
101.601
1723.55
463.551
-254.142
557.613
-1704.8
1147.18
-90.759
394.892
343.516
338.864
-448.518
-616.212
1064.73
423.525
-862.965
-641.446
903.219
570.255
-502.275
-247.985
-440.294
-409.106
-307.13
-827.455
1821.11
-1821.11
-106.584
-1582.72
1689.3
292.893
287.524
-917.419
-555.25
1472.67
-408.274
974.001
-583.771
-1041.82
677.577
382.656
-1060.23
480.977
-164.907
573.057
1220.35
-1793.41
-1044.86
2116.46
-1071.61
-373.661
-300.287
-491.724
799.687
-1746.75
1597.28
149.469
1746.75
-1599.84
-146.912
-247.89
527.592
-279.701
-537.277
1620.8
1555.8
-1966.67
1063.2
-283.121
-241.773
524.895
246.581
-562.472
-689.009
266.266
1340.52
635.029
576.342
486.959
-1063.3
286.368
406.122
875.5
500.116
-1375.62
529.908
-1017.84
1574.97
-563.823
-776.94
-369.102
-104.857
473.96
-489.905
1208.6
-743.126
334.63
368.68
351.054
260.77
-611.824
597.635
832.092
-603.618
267.968
664.69
-502.275
-316.951
-219.751
536.702
1168.59
-665.123
611.912
464.488
-1076.4
-1287.47
1287.47
-387.749
764.435
-289.098
-472.981
762.079
480.824
450.515
-931.339
387.308
-676.407
614.878
-869.082
254.204
-367.362
-497.402
1073.74
-662.97
-708.391
1371.36
-374.639
921.453
-1552.68
675.264
40.4808
-399.931
359.451
-492.048
686.048
237.557
333.787
172.992
307.984
-503.61
215.129
1869.09
-1964.53
272.612
-692.711
443.161
-821.826
378.665
-922.967
1404.2
-481.229
-429.877
-486.98
600.667
1124.21
-1724.88
-717.082
343.421
-459.608
1035.24
-766.539
1034.51
-381.137
-631.483
-470.67
706.587
541.399
-359.275
904.348
-298.324
-196.018
1599.02
-1816.57
-344.171
-594.849
-330.218
480.99
244.523
-573.871
-182.982
1053.84
-780.854
219.573
-273.66
-289.894
563.554
397.246
-872.096
474.85
-489.364
-442.151
-932.702
-327.492
555.91
-228.418
-445.442
-413.886
-315.541
-201.157
-375.403
636.173
-447.766
746.745
-1073.32
624.806
-1410.7
526.512
-27.4189
-1833.07
1860.49
569.859
-449.246
1199.3
-682.197
319.552
-319.552
669.389
-428.932
1043.22
-1626.99
-1158.73
-947.944
294.475
329.996
879.135
715.122
-480.795
-302.835
783.631
1655.41
-1682.83
-434.946
353.157
219.778
1135.42
-523.508
-943.331
1550.47
-607.139
447.622
-244.262
387.373
362.883
-750.256
523.292
476.192
-999.483
-332.323
666.953
-37.7748
1906.86
1579.69
993.021
-1697.09
727.35
-1177.33
449.982
-492.457
1367.96
838.257
-1341.51
-537.47
254.349
790.725
-404.234
555.685
-1187.02
631.339
-640.047
-1215.54
-695.635
1911.18
-207.201
539.277
-332.077
-165.01
278.554
-485.755
324.857
375.585
-700.442
-1478.83
758.032
720.795
884.132
-1434.51
827.256
-431.279
222.906
-367.377
-569.639
252.688
-629.659
-754.81
699.512
505.572
-1205.08
396.603
-205.497
-191.106
556.938
-959.46
-557.102
-425.749
713.797
-831.265
-1155.58
-1437.98
499.612
938.369
18.1494
-613.205
325.93
287.275
-1307.6
1045.02
262.581
-617.232
-456.091
-666.038
922.052
404.697
-206.907
-197.791
508.13
980.754
-1488.88
973.807
-564.156
167.252
396.904
-383.084
665.333
-392.722
-510.095
179.876
234.578
-1516.62
534.48
532.878
-727.659
235.611
162.148
-460.473
375.251
-817.402
1954.16
-1195.39
-758.768
402.437
-653.647
251.211
325.066
319.092
129.571
-448.663
-560.398
196.676
266.876
-691.695
1374.43
-682.737
424.099
448.586
-1165.4
268.797
1866.78
-1013.59
-853.189
785.229
-511.435
183.943
1402.41
-975.22
-427.185
340.258
-769.189
-616.481
1725.45
614.462
621.086
321.697
-5.50967
275.037
-1138.47
1725.72
-587.255
-1763.52
820.186
1747.87
-1679.75
-68.1271
-657.845
250.503
555.46
-694.08
223.41
1402.84
-564.579
395.473
435.667
-1858.5
1420.1
527.718
-409.294
-118.425
217.151
-532.692
-274.108
-173.983
-354.411
697.927
-565.635
196.533
602.605
554.791
-1157.4
1113.69
-1947.38
833.687
168.585
308.056
-1698.44
1660.67
321.97
-730.38
-163.963
386.869
748.808
680.731
-1429.54
1069.59
-1073.49
529.943
-1100.41
-633.499
255.508
377.991
508.555
-290.213
-591.627
-1035.36
302.205
-716.091
-912.319
190.048
167.694
228.909
376.18
300.391
-676.572
-624.753
-833.869
-978.397
494.576
-1054.97
-274.246
476.511
536.321
641.382
-280.637
-122.89
-408.742
699.034
277.912
-1196.8
572.044
1305.22
-556.408
446.894
-1004
-388.933
157.142
370.577
1023.46
551.514
-1710.95
1604.36
1621.71
-549.842
-1071.87
1901.87
-1889.99
-11.8818
190.982
-510.924
-331.852
551.425
-759.4
-314.447
-343.398
1030.08
694.511
-1492.38
797.868
352.349
-26.1922
1625.21
-1068.59
403.471
-1224.23
447.287
-59.6209
1515.47
1197.61
-470.264
-489.596
-74.5602
-259.199
736.001
-1951.54
-712.384
345.85
-536.239
190.39
191.775
-508.745
1139.9
671.538
-1811.44
-585.27
175.976
942.175
-1497.42
-210.492
678.948
-468.456
880.741
1119.26
-733.658
1348.12
582.489
-471.581
-110.908
-350.184
1169.91
1033.28
-1981.01
947.73
-1169
547.158
1488.86
-585.643
-361.87
-155.43
-1239.24
575.841
1159.58
-126.691
946.035
775.373
-1721.41
-217.703
578.389
-1541.77
963.385
486.984
916.754
-1403.74
614.414
590.693
376.329
-1106.66
591.761
1104.46
1216.13
-452.424
-763.708
-1186.2
-1754.95
-8.87732
-1702.07
-206.626
-405.954
1605.38
-625.452
-979.929
-490.882
1121.74
-1315.71
638.091
677.624
-1360.08
1439.67
-1328.22
594.561
1520.56
-385.22
-552.615
190.745
-1472.81
243.775
176.386
212.862
369.627
434.587
388.562
-823.149
506.315
-939.136
901.091
-1444.91
-680.495
232.342
448.153
-1036.42
463.197
-467.336
862.808
697.274
33.8324
-514.582
182.505
-886.565
-1318.74
-717.621
351.577
366.045
407.192
-724.843
317.651
-481.394
-189.386
-709.901
716.487
1539.43
-593.396
808.756
738.327
1344.87
-844.758
-971.481
-570.294
-799.429
428.109
371.32
-1037.32
-645.256
306.182
339.074
-1433.7
-296.783
-792.498
399.664
392.834
-637.186
386.915
250.271
-667.082
274.36
412.83
488.579
390.074
442.059
479.902
384.808
597.294
-970.533
668.775
472.301
454.364
356.778
-811.142
1630.78
-1079.92
-550.855
-504.403
-280.848
-1026.75
455.319
348.064
409.674
594.803
-1004.48
-1378.85
753.397
-536.514
1144.81
352.891
-74.1893
412.283
-866.97
454.687
-1890.93
308.214
442.397
-727.623
285.226
-186.068
408.178
-222.11
-664.481
311.416
353.066
-676.8
322.019
371.25
393.184
613.223
-1021.5
754.041
660.469
-1414.51
438.799
625.931
340.5
393.418
-733.918
410.569
328.775
603.859
667.635
393.158
584.443
-1009.17
424.731
-1665.74
1203.62
462.121
1696.6
-539.172
622.181
-1147.73
525.552
-644.33
348.847
437.357
-936.332
498.975
733.863
-443.378
351.587
346.339
558.239
-902.41
650.529
-1253.79
603.265
357.572
735.174
-1225.08
769.982
509.412
-1279.39
474.519
408.849
-883.368
-501.606
-936.375
-306.179
631.036
352.693
542.47
-895.162
334.224
332.729
-502.177
1944.74
437.639
-847.976
410.336
-917.959
-806.742
-750.779
369.364
-1205.18
438.638
-1726.21
1599.84
126.372
1742.45
-1597.28
-145.175
-786.018
-596.252
268.09
328.162
-1747.87
1966.67
538.279
792.022
-1330.3
440.088
716.654
690.598
385.642
-1076.24
-85.4294
1617.16
-593.699
380.647
818.652
-651.582
327.697
323.886
-378.758
-298.516
553.347
-226.391
437.328
282.284
-669.322
387.039
267.057
-582.829
-284.648
442.514
-1034.24
591.722
538.037
1092.74
366.091
597.398
312.68
353.198
-665.878
1611.93
-917.422
1691.61
-1520.2
-171.416
-329.196
-825.021
415.915
857.64
-1068.13
-610.157
281.574
-1090.62
1628.66
-1574.9
-81.4029
1656.31
-342.067
-350.78
-370.618
535.811
599.609
-504.877
-30.5941
-550.087
510.123
-284.669
-225.454
1737.18
-1289.75
-627.834
300.973
326.861
406.466
357.274
734.867
-297.838
-399.202
-1742.45
1682.83
459.505
-1101.5
641.998
-44.3223
1648.69
571.551
476.487
-1048.04
104.665
1145.09
-1452.22
-18.4292
-1872.5
230.422
-601.428
308.374
293.053
-955.844
612.84
-899.683
469.807
-1129.03
674.029
454.997
351.921
269.087
-749.882
-312.628
1217.86
887.102
698.948
-1183.16
456.163
726.993
494.266
701.291
-1195.56
-358.742
-249.146
416.84
-961.715
438.469
523.247
21.2644
-1879.76
1080.75
-465.867
-487.714
557.888
-1378.38
820.496
-419.763
798.427
-405.536
494.972
-712.535
1724.07
417.129
-188.22
217.025
-173.767
-247.226
420.993
1895.31
-504.107
-1682.86
1052.02
-604.064
305.548
-1014.73
554.493
-314.032
544.241
905.434
-1449.67
-1104.25
438.213
-20.6226
-1943.91
1709.66
-676.38
-541.074
460.678
-1190.8
730.126
190.345
214.352
-282.903
767.224
701.685
839.171
819.272
-462.494
1085.44
-461.959
482.521
-196.07
-286.452
-1922.34
-714.677
-319.144
-644.419
-6.7129
651.132
471.038
-274.363
560.799
1051.13
-798.096
925.936
1244.59
-425.357
-206.375
-220.586
426.961
955.141
-888.632
-330.708
-1068.55
612.455
1552.85
-794.816
537.584
935.085
-386.87
736.522
-349.652
1130.69
-277.159
318.476
1349.91
-704.38
-222.91
448.29
-1198.87
750.58
-1006.19
-88.8853
1095.07
442.937
-956.689
513.752
175.947
732.697
483.435
745.367
-77.8292
854.342
-425.782
1182.85
-797.208
552.002
-1465.57
913.57
-1216.66
1800.97
-431.713
-1510.19
879.816
-1402.12
-296.292
-414.997
1457.36
-1521.69
785.766
1491.54
204.569
277.952
-347.946
-1726.21
-299.831
-1002.95
1563.75
-1757.34
1757.34
1555.8
-1004.57
-636.11
-330.902
368.497
605.504
-360.517
-356.363
-1389.93
897.472
1125.17
600.547
1202.96
1789.48
-1216.43
-606.104
274.969
1658.9
-1916.33
257.428
813.851
-1267.45
1545.28
-561.598
770.624
312.16
-326.553
554.54
795.573
682.974
1346.69
-207.694
-444.997
-345.321
498.715
-342.474
471.688
736.912
-289.565
-159.098
-319.903
566.475
-246.572
25.7346
-374.469
1107.5
-1720.28
-422.526
-477.144
-564.606
864.52
688.328
-1596.6
904.908
-451.658
-614.207
-513.292
1252.4
320.996
1723.63
-1702.37
-1655.41
1889.99
-1560.91
840.336
720.572
-354.293
-1794
917.686
582.81
820.025
-397.577
1794.22
-680.53
-401.729
671.671
418.933
-1090.6
-1099.26
444.075
753.538
-1617.2
473.175
901.257
179.912
-406.934
227.021
-1589.06
-380.715
-418.037
990.33
-667.201
1443.02
-974.136
1854.88
243.363
-545.136
501.009
-296.44
474.317
893.64
543.016
977.548
-462.74
-428.063
573.826
883.532
-1392.71
-40.988
1567.07
-828.745
519.949
971.588
-1475.88
-1115.9
1765.15
-1243.35
-521.799
1206.22
-318.9
-887.319
-194.898
459.131
-264.233
-457.523
-251.794
435.811
-184.017
149.591
-398.737
1724.07
-1732.95
-447.219
-530.842
-903.668
449.04
-209.782
-239.258
636.566
-442.869
-354.976
-297.215
652.191
-920.792
363.026
-1167.48
676.594
423.275
-627.452
-446.749
1568.09
-852.969
530.181
-457.796
-571.715
-462.521
366.549
-356.305
-10.2447
-1087.43
405.23
-664.639
-1033.74
1698.38
-589.522
-1422.87
714.476
562.146
-1596.29
1034.14
-368.672
-483.99
139.997
528.516
-1258.6
745.311
539.214
1006.06
-2133.18
999.991
1133.19
-342.643
414.421
-389.289
-25.1323
1478.1
-360.284
449.551
1223.49
582.041
906.822
568.536
527.331
-1095.87
169.614
-428.174
-1679.75
265.783
1127.6
-605.83
518.418
1013.85
-1532.27
1092.89
-1643.74
194.702
680.501
537.599
-868.307
-1086.59
-173.406
432.14
-258.734
-587.347
-415.7
-636.944
-630.386
347.484
-1618.34
940.027
-476.697
216.929
-405.15
538.678
-308.256
-595.147
1197.29
-1258.94
918.347
340.595
-1025.86
-345.997
-752.378
-820.177
1684.7
-476.824
1792.6
-1579.5
-213.1
-1556.66
1018.77
537.897
-721.154
-262.617
446.386
-183.769
-582.674
384.124
277.202
-661.326
-523.787
976.649
633.331
-351.757
-1620.3
1050.53
571.751
1103.57
-1675.32
-398.66
-297.33
-367.152
-740.758
-457.085
-331.742
504.735
1558.01
-995.865
-775.761
1497.47
664.075
-310.918
725.881
1152.37
-1878.25
270.839
291.269
-487.028
-1931
1719.07
211.931
741.315
-474.801
-266.514
531.817
1060.87
-1592.68
366.549
-1720.5
-233.208
1752.35
-1580.71
1073.8
506.916
-1718.85
-1.64638
-521.529
414.421
1698.44
-1719.07
939.898
624.192
-1564.09
386.719
-221.051
-165.668
-395.657
-271.424
73.7479
95.4162
-358.033
-435
-434.082
-411.141
225.073
1510.28
378.764
-218.146
-419.04
466.767
-199.892
305.055
1510.8
1004.56
-153.269
-851.291
-1104.13
1704.8
-1728.73
1064.09
-707.04
-1021.69
-1265.09
1844.99
-579.898
1155.08
-1771.11
616.028
272.98
-878.394
1675.61
43.4612
-1719.07
-491.156
-1083.09
-1724.07
-982.989
554.926
1019.65
590.204
1133.06
-1723.27
293.756
-442.867
706.457
-384.438
360.721
925.17
680.181
-378.236
-630.937
582.875
1072.59
-1655.47
-396.7
-373.421
770.121
411.057
-1660.67
1520.2
140.475
585.483
-1045.09
544.742
1083.92
-1555.72
994.118
-240.674
240.57
310.856
1901.87
400.48
-87.7706
995.866
722.753
-1718.62
-697.545
1085.38
-1557.54
169.199
-572.278
199.825
266.942
-646.457
-558.72
582.438
1034.72
-711.312
-262.594
-1368.86
676.704
692.158
-419.327
778.407
51.2509
-829.657
561.533
-137.136
1557.24
-220.796
263.287
-768.297
-1931
1664.64
1039.02
374.87
291.056
442.807
-930.364
-991.98
-1767.27
639.633
1693.78
512.542
-474.154
1211.07
1087.18
-424.99
1030.49
-980.083
495.676
484.407
699.969
1047.99
-1747.96
488.366
480.298
-1494.06
-748.244
31.0275
782.364
-413
-881.454
393.74
-538.359
-803.154
631.108
-576.961
1397.46
1055.14
196.311
235.829
-550.599
1618.54
-771.29
1525.33
-1727.84
575.234
1152.6
546.847
-884.68
-1732.61
1916.33
-183.725
1721.75
184.769
-543.023
370.332
-274.916
-481.327
1211.45
568.271
1128.33
-491.411
437.013
860.241
-464.609
-775.322
422.502
352.82
1418.58
1089.64
-518.143
1423.05
-510.698
-533.567
1044.26
-602.733
455.841
-1191.81
1691.61
1839.58
-687.209
1585.52
-645.619
-1241.65
717.861
-562.313
204.712
-395.781
458.625
-246.05
-520.991
-1246.71
1870.94
-624.226
1173.58
-551.404
1120.3
-1659.47
1687.85
-573.919
-544.468
-549.805
1720.07
-317.605
-688.013
-473.286
1223.87
-1680.62
-1860.1
613.388
280.813
-929.754
171.578
216.341
-1719.03
1204.16
514.867
1162.86
558.888
-510.942
-465.369
1192.36
178.112
230.066
588.443
1251.14
-539.172
-1238.59
1777.76
-1025.5
999.991
866.791
-204.15
-1658.9
1702.37
-510.038
1411.29
-1732.61
-369.545
27.4474
342.097
-269.403
587.953
-318.551
59.3316
492.716
783.383
-376.191
1257.53
1271
-413.355
853.796
-437.881
1817.41
-662.334
1586.49
-1723.63
-412.776
-728.185
301.04
427.145
-559.091
-563.188
79.73
-1138.81
-985.634
-669.435
1655.07
-943.709
-1189.47
157.478
-399.252
-648.87
705.562
1167.46
649.959
1410.39
-590.361
1636.76
1318.22
-572.911
-496.563
200.123
-503.266
1396.91
1240.3
-563.598
-999.99
894.814
52.5577
-947.372
603.448
-506.107
1403.58
1495.1
-588.283
-370.089
370.089
-589.369
1623.51
1239.71
-486.176
1134.17
-76.1701
1850.76
-398.39
1489.51
-588.423
-507.67
1348.01
-653.783
1218.83
-565.045
1554.82
-591.434
742.002
572.285
-1314.29
-649.661
275.194
481.068
599.884
-1957.3
-973.085
1586.49
372.547
-372.547
-75.1132
390.624
436.632
364.695
-3.98845
-345.578
880.448
-522.876
-425.586
816.21
-245.802
623.793
-437.916
1541.9
-444.339
-884.149
190.004
228.012
-418.016
601.167
1250.78
-1851.95
928.359
-458.552
-356.305
126.154
-1943.01
1816.85
-454.877
189.334
1181.39
-440.446
-740.94
-309.531
-571.923
-490.916
-389.289
-484.001
258.546
1158.77
-559.157
231.337
-386.385
155.048
-22.7395
-107.673
1376.06
-1268.38
34.5255
-599.041
-586.356
-454.46
454.46
-1262.36
1985.12
-1344.41
-218.678
-1823.69
244.188
-1025.76
-974.241
-188.579
-1636.96
706.592
1229.32
-1924.95
372.818
310.749
-683.567
-1850.01
1234.27
615.737
-562.544
562.544
-959.296
-40.0385
-1866.03
-558.132
1650.87
-677.996
1636.18
-601.461
-169.49
-1703.01
-587.869
-437.129
-594.775
-468.349
468.349
-1537.81
194.524
1343.28
175.756
227.552
-403.308
488.343
516.218
998.023
-474.777
1751.3
768.976
-425.246
400.114
519.802
1702.05
-594.552
-552.956
1636.87
474.793
1812.71
-645.258
-1803.78
-1938.08
-646.895
-480.456
480.456
-580.816
235.495
-683.956
1020.25
-465.759
-1070.69
-283.912
1579.58
1852.31
1635.33
-1635.33
-280.248
739.077
1761.48
595.782
1275.16
175.773
210.946
563.522
594.324
1603.52
-1603.52
224.645
-352.025
-433.235
463.253
952.746
-457.07
-640.13
-1131.03
1706.27
282.55
-1642.33
600.514
-290.261
475.03
1744.64
-592.042
-217.2
-408.418
382.592
721.873
1738.57
-613.396
-511.756
-775.641
1960.53
-870.451
-1090.08
1642.81
-706.832
1223.98
-1824.94
600.961
312.035
-857.171
-186.114
-106.556
1098.86
-486.409
122.233
605.76
-1641.12
443.046
597.977
-1803.78
-583.269
1787.43
884.702
-1162.94
1760.49
-597.55
1783.84
-575.518
-1208.32
439.36
928.395
-1732.95
924.874
-1505.06
280.092
1224.97
-831.7
-1254.23
-382.086
76.3874
305.698
581.706
272.036
1023.97
-447.464
848.374
-400.91
821.665
737.232
-1558.9
643.52
1066.23
-24.2888
-663.928
688.217
-1744.26
722.577
694.833
150.597
-1122.72
1936.75
-674.544
-1262.21
-537.173
1665.51
825.35
962.423
-1787.77
1227.87
683.307
-401.678
713.093
835.996
1029.26
-586.319
1761.48
627.032
1773.56
-1185.63
-587.928
-374.496
-314.678
689.174
121.444
-1185.73
1660.56
-540.263
-1437.83
1437.83
1250.58
594.412
1351.63
206.385
-570.739
284.219
-195.116
699.044
1113.67
486.045
-307.933
-870.59
-574.321
1734.59
-1734.59
1004.26
-1004.26
987.329
1025.17
-2012.5
1837.94
-613.961
-581.102
807.632
-947.847
-1052.16
998.453
690.244
-1688.7
-517.939
-332.217
-645.969
-808.419
2042.69
-1246.43
-613.673
1002.97
974.85
1289.77
646.981
327.699
1012.69
232.953
335.919
1186.27
1756.87
-1756.87
672.152
80.0283
-389.917
-997.05
-539.989
1674.16
989.2
1010.8
-1833.27
-225.55
-362.319
602.126
-336.342
1849.47