/*--------------------------------*- C++ -*----------------------------------*\
  =========                 |
  \\      /  F ield         | OpenFOAM: The Open Source CFD Toolbox
   \\    /   O peration     | Website:  https://openfoam.org
    \\  /    A nd           | Version:  7
     \\/     M anipulation  |
\*---------------------------------------------------------------------------*/
FoamFile
{
    version     2.0;
    format      ascii;
    class       volScalarField;
    location    "37.5";
    object      p;
}
// * * * * * * * * * * * * * * * * * * * * * * * * * * * * * * * * * * * * * //

dimensions      [0 2 -2 0 0 0 0];

internalField   nonuniform List<scalar> 
29659
(
0.0109893
0.167394
-0.0113483
-0.0485926
-0.00320966
-0.0482469
-0.0489096
0.0090751
0.00280033
0.000289002
0.00333918
-0.00677818
-0.000611503
-2.12109e-05
0.0547439
-0.0078165
-0.000194077
0.00136969
-0.00280952
-0.0135311
-0.00110302
0.00264227
-0.0115913
-0.00276342
0.803968
0.166338
-0.000660343
0.643119
0.0394606
-0.00227548
0.0211093
0.0672422
-0.087079
-0.0103208
0.657361
-0.0139856
0.162314
-0.0351501
0.00788057
0.00753924
0.000646094
-0.0242071
-0.000167526
-0.0444508
6.0473e-05
-0.00211536
-0.00613689
0.000130776
0.00450006
0.158121
-0.08204
-0.0422255
0.0699206
-0.0461983
-0.00766394
0.0440398
-0.00459256
-0.00114211
-0.00773271
-0.0333905
-6.48825e-05
-0.00273854
-0.0958496
-0.012604
0.256186
0.763041
-0.012987
-0.011467
0.722995
0.000674496
0.164482
0.520687
0.00281989
0.725715
-0.0101011
-0.0370797
-0.0298766
-0.0303591
-4.3359e-05
-0.0272822
-0.0416247
0.229455
0.0109991
2.64634e-05
-0.0466872
-0.211731
0.317942
-0.000638469
-0.00058835
-0.0605807
-0.0351195
-0.0309544
0.00411577
0.0562745
-0.0621655
0.305356
-0.0479154
0.00069443
-0.0570119
0.0778298
-4.68463e-05
-0.0288025
-6.17438e-05
0.0398627
-0.0429536
0.133507
0.429417
-0.000564632
1.55285e-05
-0.0912741
-0.0857648
0.000378153
5.96092e-06
-0.00208422
-0.000134277
0.502388
0.23836
-0.0146752
5.7228e-05
0.00339262
-0.164168
0.180068
-0.087924
0.754295
0.00155859
-0.0642128
0.00669753
-0.0299398
0.00551405
6.34746e-05
-0.0419029
-0.0336689
0.435998
-0.110075
0.039597
0.0205798
0.229157
-0.0292889
-0.191447
0.0741397
-0.0569522
-0.0513579
-0.0563497
4.39868e-06
-4.77826e-07
-0.00327258
-0.00578435
-0.065994
-0.152487
-0.0965412
0.0315666
0.0145218
0.000636999
-0.000143988
0.24744
0.000736514
-0.0105357
0.200255
0.305315
-0.080877
-0.0398254
-0.047415
0.0488338
-4.36407e-05
-6.87154e-07
-0.0148129
-0.0537074
0.000110369
2.57372e-05
-0.00914969
7.90946e-05
0.00755249
0.206957
-0.0285126
-0.0901163
-0.00648219
0.00285358
-0.0303036
-0.00170683
-0.0821926
-1.01806e-05
-0.0115317
0.310599
-0.01048
-0.189809
0.238721
-0.00812836
-0.0225663
0.00522413
-0.0024196
-0.000341329
0.000922942
0.772212
0.242928
-0.0171923
-0.0100739
0.62217
0.214306
-0.061886
0.00162207
-0.0763104
-0.0704685
-0.00662968
0.00120861
0.211612
-0.00873874
0.00925814
-0.0645252
-0.0931505
-2.83018e-05
0.539848
-0.00133077
2.14146e-05
-0.000693183
-0.0342785
-0.0834864
-0.0100147
0.00902079
-0.00274658
-0.0632575
9.38578e-05
0.000657426
-0.00298014
0.110479
-0.00377882
-0.0019541
0.0720695
0.000212202
5.67534e-05
0.00721185
-0.0373723
-0.0265861
-0.00603568
0.162471
-0.0183227
0.0156043
-2.19543e-05
-0.00389645
0.00113586
-0.0723516
-0.160104
-0.00178304
0.000673198
-0.00199506
0.00364081
-0.0130022
-4.13071e-05
-0.201491
0.000112574
0.11244
-0.00442395
0.000236352
0.136076
-0.0684253
0.000378966
7.79626e-06
-0.0513629
-0.149922
-0.0113032
-0.0316594
0.0310872
0.297213
0.000135409
-0.0348284
-0.120932
0.637754
-0.0104208
0.234843
-0.0318402
-0.000325477
0.937632
-0.000682008
-0.0941966
-0.0626519
0.00307288
-0.0689101
-0.0103902
0.427251
-0.00450323
-0.0225089
-0.000319251
0.121077
-0.00470922
0.314423
-0.000638775
-0.00750411
0.567528
0.0934969
0.0720527
-0.0411207
-0.000174312
0.00357572
-0.000205612
2.23011e-05
0.0920265
7.02334e-05
-0.024316
-0.122918
0.815836
0.428719
-0.0596239
-0.0260097
-0.0251478
0.00249576
0.00215329
-0.0230315
-0.0646794
0.30511
0.534565
-0.00164808
0.419206
0.0893143
-0.0888163
0.014023
-0.00337669
-0.0235102
-0.00694212
-0.00339143
-5.72055e-05
-0.00281247
-0.0180886
0.115809
0.00224438
-0.0335233
0.0161759
-3.10087e-05
-0.0621058
0.869668
-0.00825051
-0.00199951
0.015002
-0.025315
0.0991741
-0.00207144
-1.90595e-05
5.69571e-06
-0.00340816
0.572577
0.0198357
-0.163368
8.7333e-06
-0.156595
0.0538417
-0.00656724
-0.0567215
-0.00182326
-0.000551527
-0.0317365
0.00132741
-0.082027
0.0145491
-0.0275346
-0.000267458
0.00200503
0.17873
-0.159131
0.000621961
0.000656775
0.486806
-0.0355406
-0.00219644
0.225977
0.656791
-0.0930453
-0.0118971
-0.0755007
-0.000986102
-0.0107699
-0.00440903
0.208965
1.91182e-05
0.0139935
-0.153742
0.455036
0.706927
-0.00789848
-0.0116204
0.269334
-0.0345676
-5.50241e-05
-0.0758369
0.117286
0.11957
-0.0101545
0.0357492
0.613986
-0.169037
0.536878
0.481756
1.75819e-05
-0.0164839
-0.158914
-0.0040085
0.00229716
0.66428
0.0195411
0.000438013
-0.0493261
-0.0720459
-0.00735885
-0.000130715
0.291264
0.233783
0.00011706
0.0057164
0.00755112
-0.155773
-0.0412543
0.000140149
-1.11459e-06
0.000745838
0.106629
-0.0347595
0.382369
-0.0624552
-0.0253846
-0.0259227
0.220089
-0.0866996
-0.00159985
0.0111958
0.00124436
0.53081
-0.0319554
0.00158104
-0.00973855
-0.053745
-0.0023542
-0.0162394
0.000370074
0.000374528
0.884451
-0.0105888
-0.00685237
-0.000623781
-0.000962054
0.273824
-0.156124
-0.0365844
1.05032e-05
1.93578e-05
-0.0329465
-0.00889182
-0.00687623
0.0240131
0.00863267
-0.00460019
-0.0171179
-0.0223637
0.523551
0.00316135
0.000390415
-0.0587105
-0.0334244
-0.0519492
-0.00480098
-0.0361695
-1.08487e-05
0.70643
0.0276642
0.000156789
0.772404
-0.0376145
-1.15658e-05
0.00210818
-0.0609338
0.0028186
0.0522561
2.90661e-07
-0.010322
-0.0213505
-0.00714637
-0.000613911
-0.0107024
0.630399
-0.0113208
-0.0157906
0.260667
-0.0037279
0.559217
-1.31755e-05
-0.0235036
-0.0712265
-0.0357468
-0.134193
-0.0021519
-0.000917627
-0.000138931
-0.0252013
-0.0027228
-2.86649e-05
1.39e-05
-0.0082578
0.54608
0.00753685
0.00353362
-0.0610598
8.24727e-06
0.00145684
-1.20476e-05
0.0109201
-0.0227774
-0.000497577
-0.0113904
-0.0161217
0.00151948
-1.39734e-05
-0.118838
-0.000554525
0.0464811
0.403284
0.280652
-0.00753996
0.008469
0.0367772
-6.22585e-05
-0.00534839
1.00082e-05
0.48851
-0.0183527
0.0236704
-0.0215195
0.00159209
-0.00442031
-0.000111341
1.67437e-05
-0.0066257
0.0514044
0.310139
0.0018246
-0.0536474
-0.0310946
-0.0104079
-0.0932349
-0.00177033
0.000410671
-0.00747252
-0.000100876
-0.0633271
0.35393
0.221914
-0.0288757
0.344344
0.000157477
8.70281e-06
-0.0735816
-0.0618447
0.738351
-0.06906
-0.0263897
-0.0466284
0.00174731
-0.00780551
0.000714052
-0.0138253
-0.0171033
1.20643e-05
-0.00119636
0.452014
-0.000153309
0.676421
1.043e-05
-0.134931
0.0419283
-0.0126343
0.00155841
0.000303968
0.533983
0.0491783
-0.0720873
0.234696
-0.0102233
-0.0168512
-0.00546398
0.0756487
-0.0331699
0.00527724
-0.0109058
9.08277e-06
-0.00175227
0.00814894
-0.0223064
-0.0282632
-0.0528806
-0.0225308
0.148171
-0.00290738
-0.061924
-0.017454
8.98506e-05
-0.0153272
0.00112073
0.151074
-0.034685
-2.99351e-06
-0.0236546
-0.00167887
0.00206013
-0.1742
0.381505
0.00136554
-0.0151747
-0.0765447
0.0969922
0.61402
0.00263891
-0.00833114
0.163151
0.198912
-0.0221437
0.00706508
-0.0575154
2.0111e-06
-0.0460809
0.000152291
-0.0750827
-2.60483e-05
6.24452e-05
-0.0108157
-0.0952711
0.352734
0.000779365
0.0151345
1.8013e-06
-0.00854224
0.000155612
-0.00442035
6.18905e-05
0.0571817
-0.000622805
0.202841
-0.000137171
-0.0161411
-0.0414781
-0.00570894
0.607895
-0.0205595
-0.0866775
-0.00764406
0.0631981
-0.0591339
0.0404058
-0.0454025
-6.87672e-07
-0.00875882
-0.00533003
0.000400936
0.000149169
0.0652765
-0.0066731
0.106463
-0.00808469
0.00130344
0.0439213
0.000273331
-1.49119e-05
-0.0451708
-0.00471522
6.65117e-05
0.241657
0.828377
-0.000255897
-0.040059
1.25197e-05
0.633078
-0.140979
-0.0471396
0.000121921
0.00658301
0.0785601
0.0930623
0.0502286
-0.000479462
-0.000168637
-0.0201331
8.39513e-06
4.85444e-06
-0.0336235
-0.0475597
-0.0522315
0.77954
0.000326997
-0.0572749
0.0109273
-1.31285e-05
-0.00178645
0.00010467
-0.00877965
8.21091e-05
-0.0435688
0.039055
0.549313
0.061307
-0.000353584
0.000707221
-0.161197
0.104205
-0.00425061
1.86789e-05
0.192088
-0.184533
-0.0676026
-0.0176885
-1.11167e-05
-0.000348388
-0.190921
-0.0343879
0.177063
0.522326
-0.0849121
-0.00172073
-1.07969e-05
-0.0562321
-0.0849826
-0.000243861
0.000642662
-0.0214105
-0.00637055
0.535348
-0.00178505
-0.0191174
-0.0334852
-0.0102002
0.743952
0.757214
-1.77989e-05
4.92744e-07
-0.0201623
0.0223356
-0.0391443
0.00754358
-0.00986738
-0.000763652
0.603599
0.197747
0.00328488
0.926079
9.79628e-06
0.135331
-0.0832637
-0.0572576
0.000174857
-0.0404147
0.141316
0.021297
0.0836797
-0.000595998
-0.000634434
-0.0171552
-0.00469054
-0.0176318
-0.00152891
0.122419
-0.00960944
-0.00730639
-0.0603118
0.4746
-0.0253537
0.0431168
-0.000527978
-0.000679148
-0.0259258
0.00149174
-0.00348868
-1.05908e-05
-0.000399535
0.141859
0.535072
-0.000151268
0.0206133
1.32796e-05
-0.00455631
1.64017e-05
0.00776586
-0.125875
-3.13983e-05
-3.34686e-05
-0.0644328
9.04835e-06
0.050808
-0.0347653
2.22576e-06
0.180706
1.59079e-05
-0.000524042
-9.75024e-05
-0.00698287
-0.000502936
-0.0081576
-0.100226
-0.000439681
0.00611306
-1.53229e-05
0.346141
-0.0202717
-0.0286145
-0.0366371
-0.027451
-0.00165206
0.00421471
0.251877
-0.0346364
0.115286
-0.0449947
-0.00470932
-9.27931e-08
-0.0076973
0.416208
0.202094
-0.0490103
-0.0544846
0.331346
-0.0110028
-0.0758659
1.60744e-05
-0.0361224
-0.00110829
0.89222
-0.0649778
-9.49607e-05
-0.0607219
-0.0353051
0.30127
-0.00344456
-0.036689
-0.00571114
-0.0100919
-0.00172975
0.301553
-0.15648
-0.024215
-0.0190637
-0.0159559
0.00805172
0.3271
-0.022975
0.238036
0.0039336
-0.134276
0.693074
-0.0111516
-0.000287268
0.283363
0.467962
-0.0151886
-0.0153226
-0.00957611
-0.0363172
0.168956
-0.0552758
-1.36056e-05
-0.00959657
6.70436e-05
-0.00594313
-1.50963e-05
-0.00724213
-0.00128539
-0.00438655
-0.147241
-0.00078723
-0.00065734
-0.00159599
0.252217
-0.00275942
-0.00435338
-0.00418431
0.195811
0.00736629
-0.00048161
0.403833
0.745219
-0.0235185
0.592619
-0.020757
0.402957
0.0076514
-0.0264856
0.00362048
-0.00058417
3.17076e-05
0.00355264
-0.0147929
-0.0232737
0.230367
-0.0268592
-0.0236824
-0.00119386
-0.141713
-0.0318363
0.0089809
-2.29491e-06
0.00230002
-0.017307
0.494554
-0.0149941
-0.0161256
0.17731
-0.000438521
0.0479643
-0.0211748
0.00083262
-0.0602682
0.0027459
0.412653
-0.00265474
-0.000673038
-0.000106918
-0.0700299
-0.00176243
0.90229
0.93349
0.0161587
-3.04929e-05
0.0111006
-1.14519e-05
0.0509847
-0.000657253
0.028043
0.794198
-0.0461143
3.39316e-05
-0.00981484
2.19464e-05
-0.155101
-0.0385528
0.627948
0.000342783
0.0155511
0.00178766
0.000421191
-0.00280413
-0.000352358
-0.00727859
-0.0478258
-0.0270165
0.00463459
0.175397
-0.0156816
0.00808489
-0.0237748
-0.00244778
-0.0325209
2.15418e-05
7.77901e-05
-0.00266759
0.0342256
-0.0462668
-0.0196304
-0.00439818
0.00348166
-0.048613
0.101909
-0.0146171
-4.17105e-07
-0.0554186
0.569932
-0.106522
-0.0141009
0.0297729
2.88289e-05
-0.000782164
-0.0329472
-2.14605e-05
-0.000508102
-1.27629e-05
0.927279
0.0111398
0.00454201
6.03274e-07
4.27503e-06
1.46929e-05
6.61581e-07
-0.025392
0.468892
-0.0388058
-0.000550421
-0.000163971
-0.0074475
0.636232
-0.0680986
0.539432
-0.0118723
0.173068
-6.65238e-05
0.630521
-0.00259149
-0.0109566
-0.0180196
0.00593174
0.00755157
0.225407
-0.0444591
0.619912
0.279111
-0.0100014
-0.0348425
-0.0191265
-0.0332974
1.85846e-05
-0.00105618
0.00337131
0.0830411
-0.00762854
-0.0255661
-0.00394551
0.764049
-0.100668
-1.66635e-05
-1.89099e-05
0.63757
-0.00563934
0.000598108
-0.0148071
-0.0025493
-0.0178045
-0.0112287
-0.105386
0.0147144
-0.00550651
-0.0115274
-0.0165788
0.00013761
-0.00656682
-0.00227159
-0.00893765
-1.71471e-05
9.71718e-05
-0.0314328
-0.0235137
0.612128
-0.0523712
-0.000178098
-0.00173581
-0.000322022
0.406343
-0.0990484
-1.77106e-05
-0.0378345
-0.00509181
-0.00416033
-0.0323025
-0.0352209
0.00763862
0.0591987
-0.0851519
0.000124284
0.00686656
-0.0144549
2.01182e-06
-4.97649e-05
0.136221
0.0964273
-0.0740903
-0.0492966
-0.0667066
0.000657787
0.633141
0.000141297
-0.0242623
0.501398
-0.0187534
-0.0409364
6.52575e-06
0.000233971
-0.0410908
-0.0102357
0.00162612
-0.0334835
0.278455
0.160008
0.000827449
0.000351382
0.194019
-0.0137601
1.06779e-06
-0.00162265
-0.0301635
-0.0254015
-0.0139696
-0.00382904
0.0338764
2.34284e-05
0.0859675
0.301987
6.80583e-05
0.00429641
-0.000450273
-0.122622
-0.0146371
-0.000687506
0.0304622
0.000283888
0.258871
0.00162244
0.0229977
-0.0185635
0.820722
0.4859
-0.0534243
-0.00756191
6.21543e-06
-0.106524
-0.01361
0.15768
0.298791
-0.0336654
-0.0477303
-0.0162579
-0.00622147
0.168281
-0.000167324
0.585798
0.0240927
7.2332e-05
6.86127e-05
0.000137322
-0.0123166
-0.0170035
0.000758705
-0.0145332
0.0821372
-0.0492442
0.000414356
0.000105637
-0.0229914
-2.41224e-05
-0.00267054
-0.0110717
-0.000718066
-0.0505724
0.0037782
-0.00123876
-0.00348115
-0.0153443
0.486631
0.500924
0.0357301
1.60442e-05
-0.000472005
0.296929
-0.000383227
-0.16212
-0.000158845
-0.0189582
-0.0873575
-0.000156224
-0.000183707
-0.0327921
0.00130078
-4.73712e-05
-0.00117797
0.195102
-0.0320928
-1.30035e-05
0.0989019
0.417149
0.420735
0.000646143
-0.14954
-0.00842036
0.565964
-0.0671703
-0.0690857
-0.0240684
-0.0115087
0.025845
-0.0230243
0.424181
0.0549524
-0.000111927
-0.0481522
-0.0593612
-0.00350439
1.14093e-06
-0.00167221
0.255188
-0.000137226
-0.0201608
-0.00367252
-0.00101896
0.00815917
0.0279644
-0.000116948
-8.70737e-05
-0.00933808
-0.122377
-0.0330721
-0.0768045
0.299051
-0.00334339
-0.000209224
-0.0359579
-0.0218613
0.008183
0.012416
0.000120816
0.0727304
0.154598
0.0178597
0.0220421
-0.000519206
-0.0118275
-0.097053
0.00126816
5.34854e-06
-0.00876123
-0.00353228
-0.000614714
-0.0104847
-0.00071962
0.0873645
-0.008064
-0.168659
-0.0221737
-0.00948236
0.0109197
0.624745
-0.0371069
-7.27047e-05
0.626977
0.180851
0.00716113
-0.00513553
0.00692207
-0.0742489
0.182352
0.000363085
-0.00376385
0.796818
0.366134
0.292192
-0.0403506
-0.00119544
-0.00104656
-1.19813e-05
-0.00112066
0.212699
0.0843087
-0.0221454
-0.00870803
-0.000267812
-0.0959617
0.772002
0.518504
0.0801214
-0.00248045
-0.0524722
-0.00637635
-0.00059785
-0.0253683
0.00618635
-0.0237091
-0.00309437
0.000859452
-0.0991167
-0.121709
0.0287196
-0.0224619
-0.00784381
-0.0222517
-0.000149844
-0.00622812
-0.000571364
0.348198
7.44626e-05
4.20572e-06
-0.0419765
-0.0171278
-0.0246819
0.0363429
9.39435e-05
-0.0909874
0.052498
0.225253
0.868685
-0.00409374
-0.156988
0.0268464
-0.00180513
-0.0192642
-0.0004896
0.00934511
-0.000122343
0.204099
-0.153126
0.00967493
0.0865989
0.126525
0.00135189
0.00171343
5.49152e-06
0.52607
9.16395e-06
-0.0382215
0.00035213
0.00149507
0.190498
0.103736
-0.0815249
-0.0331837
-0.00369802
0.937248
-0.0798625
6.25094e-06
-0.0136497
-1.76441e-06
-0.0214791
0.106092
0.232473
0.000875732
-0.0302132
-0.00824102
0.168112
-0.0872375
-0.0279182
0.767286
-0.00868183
8.27937e-05
-0.20291
0.811527
0.00075259
0.097357
-0.0402139
0.126254
0.00177138
0.0187344
-0.0606402
0.00360013
0.052384
-0.0426093
0.100234
-0.0226634
-0.0170985
-0.000653669
-0.000664612
0.690133
1.37693e-05
-0.00588517
-1.63912e-05
-0.00705797
0.000367666
-0.00648161
0.197918
8.92032e-06
-0.00084968
-0.0879433
-0.181355
-0.024879
0.00107201
0.550757
-0.061293
0.196567
-0.0102605
0.174964
0.00511188
-0.000608131
-0.142361
0.000762805
0.706496
-0.0251528
-6.69058e-05
0.00210993
0.160576
-0.00978364
-0.000566521
-7.63369e-05
-0.109538
-0.0022262
-0.00888032
-0.0759522
3.59926e-06
-0.0578897
0.000427554
0.443704
-0.0092918
0.166694
0.00366908
-0.00325177
0.280484
-0.0773526
-0.20574
-0.00389723
-0.120818
0.290506
0.292099
-0.0122689
-1.14128e-05
-0.0135368
0.00422135
3.30728e-05
0.00318421
0.50146
0.0114283
0.00150066
0.000979511
-0.0589115
-0.000119601
0.0652292
0.0398107
0.0605057
0.011956
0.0248727
-0.000306162
0.204848
-0.148095
-0.188813
-0.000837061
0.00924106
0.154211
0.000788712
-0.059881
0.254496
-0.0478657
-0.0616252
-0.0588425
-0.141792
-0.142489
0.0501836
0.266043
-0.143113
1.75087e-05
0.000747412
-0.0951062
-0.00152236
-0.00557747
1.24808e-05
-0.00498908
0.00366048
-4.14697e-05
0.0564978
-0.000411105
0.132744
-0.0313746
-0.00855957
-0.00601305
-0.00736604
-0.0674521
-0.00503691
-0.000911529
0.0195604
0.0762382
0.00354757
-0.02844
-0.00255939
0.025538
-0.00821602
-0.016779
-0.0599904
-0.0137696
-9.31704e-06
-0.0132337
0.622855
4.97303e-05
-0.0414207
-0.0753785
0.748369
0.0460029
-0.039103
2.58356e-06
0.00159462
-0.092937
-9.42631e-06
-0.00233471
-1.66186e-06
-0.0782097
0.00412792
-0.106101
-0.0198354
-8.65493e-05
0.330282
0.325068
-0.0316464
0.00046393
-0.000121518
1.5524e-05
-3.50039e-05
0.640295
-0.00111494
0.00213344
0.0201421
0.000933807
-0.000485149
-0.0602135
-0.000161694
0.0377094
-0.0012196
-0.00180224
-0.000603556
-0.0220147
-0.0363818
0.193086
0.0445131
-0.000116393
-0.0116147
0.000546622
-0.112645
-0.000602298
0.124255
-0.0124607
0.922751
-0.022955
-0.00123122
0.0745155
-0.0166491
0.435245
-0.0369022
-0.00975999
-0.0113555
0.0171141
-0.00323113
2.36217e-05
-0.00737626
0.364965
-0.0369588
-0.00282569
-0.0355635
-0.0232452
0.173423
-0.000413856
0.315825
-0.00890354
-0.0654912
-0.000434613
0.0120741
0.0420351
-0.0160479
0.35933
-0.000378081
0.0314585
0.0903837
0.000497679
-8.20901e-05
0.729699
0.0432413
-0.00207444
0.0269434
0.00586308
0.000156776
-0.116195
-0.0198619
-0.164564
-0.00997822
0.429844
0.00338914
0.0260962
-0.00031931
0.516145
-0.05929
-0.00463698
0.00572339
0.029616
-0.0742909
-0.170583
-0.00753114
7.39369e-05
0.845053
-0.0196341
0.000807993
-0.0786923
-0.0338962
0.379323
0.00279593
-0.014329
-3.31149e-05
0.0135278
0.00731995
-0.0329921
0.000795195
-0.00307119
-0.0242157
4.82922e-05
-0.0451284
-0.0013676
-0.0131032
-0.0560434
0.36579
-0.00908748
-0.0318152
-0.0675443
-0.0305761
2.23688e-05
0.000173007
-0.0034649
5.0087e-05
-0.00980755
-0.114019
-0.0018077
2.36368e-05
0.740995
0.00461979
0.00036095
-1.06406e-05
-0.00188777
0.354133
-0.0441053
0.848663
0.219972
0.0199736
0.34839
1.5319e-05
-0.0138959
-0.000715999
-0.00218708
0.231493
-0.00947052
0.831325
0.303351
-0.0512083
0.333846
0.00713366
-0.0128481
0.00210919
-0.0753396
-0.00352968
-0.0450866
-0.0468352
-0.00269731
0.32216
-0.00891477
0.00016264
-0.00386659
-0.000564797
-0.0286039
-0.000119426
-0.00109505
-1.32159e-05
0.183092
-0.172471
0.333056
0.0242697
-0.00246154
-0.0349601
-0.0186558
0.0752192
-0.00272588
-0.000922221
-0.0559194
-0.0411909
0.00191427
-0.0364807
-0.0040302
-0.00747414
0.000195768
5.71723e-05
0.147792
-1.22249e-05
0.057022
-0.000691568
4.73731e-06
0.00189571
-0.000563429
-0.00105995
-0.0148266
0.155812
0.171473
-0.017687
-0.0114297
0.00272579
-0.00454731
-0.00914667
-9.19911e-05
-0.00040664
0.000694607
0.124917
-0.00842851
-0.0534088
-0.0587397
-0.00256038
-0.029213
-0.0227907
-0.00151259
0.00489127
-0.0111279
0.284714
-0.0722713
0.00406677
-9.59437e-05
-0.0351076
0.828622
-0.00910098
-0.00704878
0.00713809
0.0854245
0.00374174
-0.0140231
0.323381
-0.000300791
0.0411812
-0.0246044
-0.0689524
0.00593152
-0.00342487
-0.00498061
0.0396062
-0.00325241
-0.000524196
-0.00732313
0.00230775
-0.000173578
0.0173837
-0.00850384
-0.00181758
1.44099e-05
0.185449
-1.65416e-05
-0.033737
0.0820833
-0.0260435
0.000183521
0.123959
-0.0552593
0.203461
-3.03897e-06
-0.00367536
0.00473476
0.000198614
0.00459228
-0.00410342
0.00976137
-0.018704
-0.0283387
-0.00941246
-0.00240748
0.00920329
0.0197682
-0.0958594
-0.00014221
0.130081
-0.0353611
-0.00304948
-0.00627165
0.000417104
-0.0796096
9.22124e-05
0.631424
0.201136
-0.00040997
-0.0197206
1.506e-05
-0.00195241
-0.00607771
-0.0243323
0.187726
0.0652241
-0.015545
0.00945635
-0.0626493
0.0294646
-0.0309863
-0.0368294
-0.0443446
0.00836162
0.213931
-0.0086393
0.500315
-0.00080032
-0.00977021
-0.0518686
-5.41352e-05
-0.000646297
-2.27176e-05
0.497321
-0.00930243
0.000297795
-0.0140635
-0.00681934
-0.000262084
-0.0118167
0.267034
0.000915536
0.00999018
-0.0325362
-0.000425542
-0.00412645
-0.00069219
0.847561
0.000228164
3.71596e-05
-0.00184838
-0.0137735
-0.0416912
0.000562123
-0.00393605
0.0773235
-8.65273e-05
0.00185632
-0.0624356
-0.0725154
-0.0703763
1.5538e-06
0.000367341
-0.0384098
0.0289042
0.381526
0.0995902
-0.0289717
1.71239e-06
-0.0651392
-0.00230634
-0.0113948
-0.011031
0.208339
0.597549
-7.26985e-05
0.170237
0.280633
-0.00863269
-0.0487898
-0.0245449
-0.02143
0.000131857
-0.0347491
-0.00796486
-5.23467e-05
-0.000437773
-0.00138646
-0.00164971
-0.000557556
0.362255
0.331992
0.121562
-1.58667e-06
-0.0202948
-0.0534594
0.113604
0.64188
-0.000397028
-0.0176666
-0.0160994
0.228922
-0.0168943
-0.00892618
-0.0433603
0.176189
0.000326288
-0.000402937
-0.0250918
-0.0561548
0.103293
-4.82348e-05
-0.0460733
-0.0238047
-0.076822
0.0171349
-0.0461797
0.00643968
-0.105674
0.0444104
-0.000262089
-0.000508509
0.0523438
0.000219909
-0.0154343
0.0300775
1.74679e-05
0.120364
-0.00983692
-0.00391839
0.88335
-0.0316659
-0.0124956
-0.0341395
-0.00277
0.590162
0.00110298
0.83466
-8.35384e-05
-0.0481739
0.839154
0.00633229
0.579786
-0.00506114
3.9292e-05
-0.0347731
0.560796
-0.00137112
-0.00586651
-0.00718995
-0.0008466
-0.0193886
0.595725
0.0972805
2.77441e-05
0.0171613
-0.00327789
0.0273484
-0.000750268
0.0218464
-0.00226197
-0.000370742
0.56128
0.593444
0.57195
-0.043736
-0.0961337
0.000173742
-0.0465423
0.344566
0.0105706
0.000270199
-0.0904098
0.00058092
-6.84168e-05
0.598504
0.000147099
0.00384881
-0.00168041
-0.00849477
0.581071
0.581263
0.619138
0.010789
0.000501677
0.232951
0.00704777
0.0137175
-0.0079977
8.68851e-05
-0.00258859
-1.06509e-05
-0.00401186
-0.000617235
-0.00528648
-1.22947e-05
0.160868
0.00199696
-0.0855174
-0.0083683
-0.0582508
-0.0141496
-0.000646776
0.388385
-0.00940453
4.99998e-05
-3.93593e-06
0.811589
3.93288e-05
0.0104529
0.0452296
-0.0155158
0.323997
-0.00461649
-0.0358607
-0.0314816
-0.00043971
0.000146845
0.313558
0.60902
-0.00131435
-0.0226522
-0.000175345
0.579914
0.773599
-0.00122576
-0.00597877
0.0179254
0.00274059
-0.0212373
0.000115559
0.00934857
-0.0326757
0.0452912
0.354261
-0.00129241
0.0267755
0.0228424
-0.038955
-0.0367677
0.0258514
0.746236
0.169046
-0.0423601
0.578758
-0.000469592
0.640215
-0.00745271
0.491169
0.0603231
-0.0044518
0.0222738
0.00226089
0.0163089
-0.0583881
-0.000548645
-0.020047
0.45263
-0.0236291
0.0110511
-0.00126847
-0.0945838
0.158053
-0.00812437
-0.163398
0.000696879
-0.00323368
-0.0205371
-0.00184634
0.00181837
-0.00765908
-0.000400456
0.00227409
0.478214
0.0019026
-0.013527
-0.0523379
-0.0252593
-0.0505239
-0.0963219
0.00384569
1.67544e-06
3.43563e-05
0.272244
-0.0672414
7.64707e-05
-0.10998
0.191576
-0.0532415
-0.012922
0.000134568
-0.00162668
-0.0378572
0.114765
-0.00893419
-0.000381027
-0.0377346
-0.0177438
0.850401
0.113257
0.0590433
-0.0512034
2.9805e-07
-0.00578552
0.061945
-0.000287799
2.63717e-05
0.169157
0.0903333
0.000605859
-0.000712623
0.00302481
-0.0441805
0.00910068
0.0063695
-0.0128757
6.89099e-05
0.16541
0.000577212
-0.000523911
-0.000159426
-0.000159109
-9.77291e-05
0.0795845
0.000862
-0.0023841
-0.0081598
-0.00456877
0.0255178
-0.00463328
-0.0344562
-0.00887219
0.514202
0.404587
-0.000380198
-0.00124385
0.0871033
-0.000654909
-0.0215413
0.0108202
-0.0524851
-0.000790638
0.0188595
0.037056
0.00118666
0.0370691
-5.49947e-05
0.00676284
-0.0484809
0.0121757
-0.0126283
0.0461011
9.2537e-05
-0.00130541
0.000302744
-1.27042e-05
-0.00145096
-0.00819537
-0.010753
-0.0248199
0.00526929
0.0294755
0.00834067
-0.0686479
0.00735168
0.0019466
0.0115284
7.36962e-05
0.601586
-0.00701631
-0.00274005
-0.0714054
0.861025
8.96184e-06
-0.0188758
2.79261e-05
-0.0857133
-0.00539728
-0.0190466
0.168637
-0.00332537
2.85822e-05
0.033418
0.0690687
-0.000423798
0.0473191
8.01373e-06
0.168518
0.00374489
-0.0241458
-8.26992e-05
0.215653
0.0256407
-0.0167247
6.28011e-05
0.173074
0.338185
-0.000897264
1.02475e-05
-0.0306638
-0.00743374
-0.00713256
0.0110798
0.644366
0.314527
0.000465762
0.298589
0.215626
-0.00232997
-0.0429456
-0.0400452
-0.0157341
-0.0602035
-0.0216816
0.000759023
0.666199
0.12926
0.0106985
0.000139007
0.000601362
1.2716e-05
-0.00041363
-0.00227682
0.712833
3.23865e-05
0.0752726
0.0241569
-0.000151652
0.634326
0.770402
0.198076
0.2447
-0.115902
0.00218033
-0.000193502
-0.00907196
6.59186e-06
-0.000863048
-0.174885
3.44931e-05
-0.00191821
0.665186
-0.00949196
-2.23119e-06
0.720318
0.000441792
-0.0277253
-0.0595465
-0.00103849
-0.0937083
-0.000159392
0.0434325
0.00290064
-0.0163196
0.00171084
-0.000491754
-0.000272286
-0.000147012
-0.172898
-0.050369
0.158303
0.00233421
-0.0141993
0.210553
9.00662e-05
0.815866
-0.000418692
-0.0638826
0.00196901
0.00144896
0.0463152
0.0481142
2.9629e-05
-0.00343054
0.000124991
-0.000508584
0.000770643
0.0778923
0.0442161
0.347681
-0.0554245
-5.6148e-05
0.000180245
0.0944608
0.304827
-0.00357536
-0.00508626
0.822652
-0.00222709
-0.016476
0.000667513
0.017244
-0.0580523
-0.00691442
0.162567
0.00118852
-0.000151519
0.00146396
-0.0931756
0.786099
0.604566
-0.0192275
-0.0417604
-0.00536027
0.00138215
4.5946e-05
0.0697778
0.171343
2.97817e-05
-0.00588824
-2.01807e-06
0.000157429
0.550133
3.45888e-07
-0.0814324
-0.0634599
-0.1192
0.0628468
2.38078e-05
0.00835022
-0.00521112
0.49259
-0.0432306
0.00427071
-0.0247938
0.000586804
0.322482
0.223917
0.00832671
0.0298303
0.670372
-0.0550789
-0.0535931
-0.00151048
-0.00563921
-0.000249423
0.00766671
-2.81948e-06
0.170187
0.00249355
0.144262
-0.0301291
1.44932e-06
0.041859
-9.70405e-05
1.98903e-05
-0.000563945
0.795773
0.760124
0.204443
7.36891e-05
0.0748346
0.637654
-0.000743166
0.000116735
-0.00677283
0.0165151
0.560374
-0.0221133
0.117734
-0.00217199
-0.0502807
-0.0566771
0.89697
-0.000442001
0.594591
0.0815018
0.199758
0.000154077
0.000218155
0.00447505
-0.00723862
0.0729654
-1.36207e-05
8.16823e-05
0.587125
-0.137559
0.000303275
0.621606
-0.00184484
0.000170892
0.429003
-0.00686695
-0.00124751
-0.106575
0.0489383
0.000307514
-6.85603e-05
0.00281736
-0.00321952
0.575647
0.788909
0.217908
0.878092
-0.0282476
-0.0360356
0.681723
-3.13278e-05
-0.00263344
-0.0137422
-0.00280481
-0.000484075
-5.52415e-05
0.612181
-0.0100071
-0.000475253
0.765771
0.0691693
0.0582307
0.0372437
-0.00214668
-0.0168789
0.0980436
0.0572629
0.593476
-0.0224581
-0.000584822
0.547516
0.424457
0.0101109
0.372021
-0.0349427
-0.00620635
-0.00796648
-0.000470402
-7.87372e-05
0.558734
-0.052452
-0.0572082
0.000536397
0.14851
-0.0245725
-0.0238103
-0.000801744
-0.00367862
0.639099
-0.000598478
-0.0141901
-0.00237654
0.609637
-0.0162854
0.0168345
-0.00598334
0.00122659
0.148882
-0.0173323
0.6726
-0.0567627
0.871295
0.273728
-0.0455267
0.0267222
-0.00139872
-0.0177833
-0.126195
0.588354
0.634706
0.736902
0.224664
0.568498
-0.000243252
0.684755
-2.02749e-06
8.39646e-05
-0.037843
0.742805
0.0441649
0.206817
6.53624e-05
-0.00168739
-0.142745
-0.0337322
0.578711
-0.000503643
-0.00610631
0.195457
0.000916889
-0.00339894
0.839983
0.0404431
-0.0481812
-0.217603
-0.000378664
-0.0313491
-0.0847969
0.882345
-0.0545998
-0.038311
0.00323447
-0.000154922
-0.0200478
0.188071
0.00254733
0.000139008
-0.144151
0.257125
-0.00114807
0.580546
-0.0739084
0.594005
-0.0475038
-0.018716
0.679518
-0.00425222
-0.0633442
-0.000274271
-0.0010179
-0.047209
-0.0177528
-0.0279186
-0.00782876
-0.0219145
-0.148761
-0.0540084
0.575746
0.00026617
0.000677011
-0.0169759
0.0982481
-0.149268
-0.0457879
2.72244e-05
-0.151416
0.03803
-4.9289e-05
-0.0922945
-0.157591
0.606163
-0.128242
0.562593
-0.0109326
0.0517217
0.263546
-0.0268089
0.136401
-0.00144594
0.0293864
-0.000371265
0.0754925
0.178818
0.169598
-0.0228189
0.00492764
-0.000498107
0.175113
-4.47752e-05
-7.10094e-05
-0.000776782
-0.0341355
0.00882344
0.0118414
0.468108
0.112803
0.803579
0.421068
-0.00117798
-0.0245935
-9.31303e-05
-0.0389792
-0.00106416
0.00470109
0.000574038
-0.0312972
0.343066
0.599499
-0.000194306
2.84199e-05
-0.0458912
2.01035e-05
-0.00718153
-0.000103028
0.0914723
-0.0273228
0.185794
-0.0998009
6.23407e-05
-0.0107362
-0.0307779
-0.023726
-0.0128228
-0.0391817
0.00555145
-0.000100374
-2.69721e-06
0.00173345
-6.80444e-05
0.0436645
-0.047121
0.029856
0.734552
0.0350852
-0.162564
-0.0637805
-0.000295308
0.0427027
-6.15424e-05
0.527726
0.0866291
0.654373
0.000155264
-0.0254868
-0.00528114
0.036715
-0.011906
0.439018
-0.00594334
0.0131193
-0.00142199
-0.017166
-0.00621921
-0.00471515
0.0943619
0.00132855
-0.00874064
-0.0158587
0.0628178
0.0339708
8.00058e-06
-0.000645804
-0.00479959
-0.00043384
0.0730848
-0.000480922
-0.0384933
0.100809
8.7444e-05
0.222401
9.69349e-05
-3.99545e-07
-0.0856976
-0.0228386
0.00016952
-0.0174621
0.000179062
0.68922
0.00992664
-0.018277
0.659779
0.114491
-0.023786
0.459508
-0.0021048
-0.00142546
-0.00157291
0.0594874
0.931603
-0.00111622
-0.000422584
2.44793e-05
0.00627617
-0.000928503
0.0207476
0.0049462
-0.0159587
-0.0450717
0.0144993
0.00786147
-0.014723
-0.000374522
-0.0736455
0.3721
-0.0013746
-0.0105614
-0.000144543
0.478367
0.038829
0.376201
0.000391167
-0.000608311
-0.0189275
0.742822
0.13015
-0.0217442
-7.08995e-05
0.0245033
0.0179741
-0.0459555
0.167574
-0.0353332
0.013127
-0.169849
0.444175
-0.0150439
0.236668
-0.00242853
0.868975
-0.0309559
-0.00845156
0.655866
-0.0323298
0.150392
-0.183294
0.174608
0.00517345
0.0392137
0.322761
0.0403868
-0.0355342
-0.00742908
-0.00606553
-0.0206111
-0.0460698
-0.00125097
-0.0456861
-0.0212002
0.00157611
-0.0492497
-0.0627056
-4.57926e-06
-0.0207366
-0.00702139
-0.0481266
0.637323
0.335188
-0.039465
-0.0547886
0.000423264
-0.092503
-0.00395444
0.844243
-0.0267208
-0.0227754
0.337778
0.0391739
-0.0323731
0.103216
-0.027782
-0.000455872
-0.00898332
0.00790908
0.000549653
0.355404
-0.00205804
0.128948
0.170607
-0.0043311
0.238732
-0.118211
-0.000253947
0.00526848
0.0167124
0.24168
-0.00191422
0.0467365
-0.0566459
0.0380868
-0.0177544
0.358634
-0.0207207
-0.118393
-0.00301149
0.000180259
0.565931
-0.00188082
-0.0369601
-5.0306e-05
0.203744
-2.38417e-05
-0.0451976
-0.00514017
-0.200743
0.000555758
-0.00840968
0.0801926