/*--------------------------------*- C++ -*----------------------------------*\
  =========                 |
  \\      /  F ield         | OpenFOAM: The Open Source CFD Toolbox
   \\    /   O peration     | Website:  https://openfoam.org
    \\  /    A nd           | Version:  7
     \\/     M anipulation  |
\*---------------------------------------------------------------------------*/
FoamFile
{
    version     2.0;
    format      ascii;
    class       surfaceScalarField;
    location    "2";
    object      phi;
}
// * * * * * * * * * * * * * * * * * * * * * * * * * * * * * * * * * * * * * //

dimensions      [0 3 -1 0 0 0 0];

internalField   nonuniform List<scalar> 
11380
(
170.883
-544.742
373.859
-753.302
0.80554
752.497
435.806
-379.173
-56.6327
649.549
274.398
-923.947
1510.88
-1069.43
-441.448
1216.28
-1527.12
310.842
-29.9752
473.555
-443.58
168.762
-842.228
673.467
962.083
-1610.81
648.723
-1764.96
1672.18
92.7864
-542.946
1759.23
-1140.6
1934.49
-793.889
608.118
181.142
-789.261
-25.1093
-1314.47
1339.58
220.567
-1985.53
1023.74
-382.494
-641.25
-185.814
356.697
485.579
190.691
-676.27
1155.6
-1313.6
158.005
-306.035
376.23
-70.1956
998.756
-1315.79
317.031
1221.56
799.332
-2020.89
73.0202
-1640.52
1567.5
-481.206
-1172.5
1653.7
476.712
182.002
-658.714
-212.286
-332.456
498.055
1012.83
1647.57
-1806.26
158.69
-93.9429
-1692.98
1786.93
-1558.93
651.892
907.038
-307.124
653.601
-346.477
-189.166
-113.412
302.578
1284.61
-1211.59
355.223
-1407.4
1052.18
-1754.31
1754.31
103.392
1531.4
-1634.79
-1078.88
-480.045
659.966
-689.941
-384.159
941.608
-557.45
1331.89
-1317.28
-14.6115
-1100.17
716.016
627.008
396.736
-381.918
-42.013
423.931
-453.026
753.818
-300.792
-1618.47
1618.47
1253.58
-1437.88
184.305
-488.671
1710.23
1255.61
-314.004
1660.74
-1161.25
-499.495
81.2763
-387.311
2065.34
-1134.99
-930.344
1814.33
-166.765
455.838
156.075
-611.913
-455.65
969.2
-513.55
-1170.48
1273.88
-568.319
970.927
-402.608
401.068
754.531
661.325
-492.563
-438.127
595.249
-157.122
1190.66
-835.442
2308.2
-1080.67
-1227.53
1163.55
-2008.68
845.128
-1602.39
1577.28
440.694
-1581.3
-759.083
1250.69
-491.605
-672.471
365.347
1661.46
-699.378
-1106.93
-870.896
1977.83
682.452
-338.765
-343.687
690.007
565.605
-258.205
1511.78
115.72
-319.393
203.673
-284.783
761.495
-335.011
565.493
-230.482
-324.572
810.151
-318.554
-149.031
467.584
325.947
109.859
1458.36
-459.602
-974.737
469.059
505.678
279.291
90.1263
-369.417
949.524
-341.406
-1704.08
629.813
1074.27
12.1354
-854.684
842.549
-280.878
595.997
-315.119
156.964
-1093.62
936.654
1051.52
-1067.09
15.5674
373.035
518.758
-891.793
-245.339
701.177
-1103.72
-482.179
1585.9
-678.158
950.989
-272.832
1359.33
-1453.27
-609.988
246.185
363.803
-470.19
-1011.55
1481.74
-538.941
-793.628
1332.57
576.185
-996.348
420.163
-265.394
-317.027
582.421
407.798
-292.078
-1035.27
579.619
955.366
-798.403
-110.309
943.947
-833.638
-210.248
418.919
-208.671
-636.955
-337.782
-386.718
962.903
1856.37
-1856.37
-475.412
-134.576
-959.103
1570.73
-611.631
449.788
-879.172
429.383
-923.755
355.437
-941.909
-1058.08
-1488.06
343.344
1144.71
-284.685
934.234
-307.015
609.485
-302.47
-1941.9
999.991
-1140.12
-347.94
555.696
-1514.8
1728.49
-1725.67
-2.81803
202.465
-588.242
385.777
-1466.47
981.84
484.628
288.556
212.829
-501.385
310.223
-645.234
242.416
-418.648
176.232
2018.78
-824.812
-1193.97
-539.512
157.594
617.433
835.143
-1452.58
-184.281
426.697
431.265
876.803
-1308.07
-908.368
393.661
514.707
-1046.39
1447.46
-1068.69
309.611
752.25
-98.6495
527.003
-301.039
-225.963
1000.17
-531.11
593.345
-1403.87
810.525
-1342.3
238.589
-547.12
266.242
-1206.09
921.402
1931.55
-1019.25
-912.306
276.802
1579.57
-2094.41
895.148
1199.26
365.433
-31.2792
-334.153
-223.882
482.458
-258.575
-112.465
-376.874
489.339
-467.28
148.726
341.611
-129.272
579.06
412.58
384.529
-797.109
-2044.86
1120.22
924.639
461.44
-532.481
71.041
222.067
-363.808
141.741
991.441
1027.34
1785.24
-253.846
698.565
-452.38
796.813
-1389.79
592.979
321.062
361.39
1053.88
-1041.74
-495.031
-262.027
757.058
478.689
-136.693
-341.996
797.361
-616.219
533.054
-733.941
200.886
503.33
1157.41
-1240.06
701.123
1047.16
-1528.36
-3.13176
-1439.42
1442.56
325.555
824.58
-1150.14
623.162
269.925
-893.087
-2277.82
1163.41
1114.41
-1146.04
-1131.78
159.003
374.051
958.712
-633.156
879.024
-898.782
19.7583
-2099.38
992.455
-225.425
-189.834
415.259
-41.8548
1770.35
-821.049
67.7467
-1028.33
-1066.07
-229.713
451.78
-644.18
168.768
-249.848
-458.506
708.354
1104.02
-1574.21
782.962
-1374.43
591.472
713.382
-438.984
1947.86
-1444.53
-378.289
-1376.02
57.2971
416.258
-522.766
523.571
9.62406
-563.758
554.134
570.4
-281.844
-604.886
279.663
325.223
778.247
-365.668
33.9943
331.438
1188.47
-1191.6
178.829
228.969
427.114
-676.962
619.604
-1006.32
-2026.73
2026.73
-251.773
-473.298
725.071
699.167
405.865
-1105.03
579.797
172.453
398.738
379.509
-2199.75
1328.86
-926.544
-679.068
1605.61
-493.184
-712.903
-292.738
579.607
-286.868
848.959
-222.323
-626.636
-432.033
634.498
367.839
-674.855
-347.674
-123.481
471.155
-1329.83
-476.431
638.595
-1131.78
-374.156
-1244.31
844.332
1463.86
303.307
-898.035
594.728
966.499
-339.491
1391.4
-798.051
445.37
-266.54
-328.571
-894.443
591.325
303.118
-353.928
-540.515
306.647
-419.112
-171.054
-162.476
333.53
-392.75
1091.92
435.064
-244.373
-394.529
1350.93
-165.066
-1185.86
-461.128
267.476
193.652
269.429
246.735
-516.164
-16.5346
-717.406
592.105
-1729.02
1136.91
1483
-865.572
-1056.01
-410.454
-1057.21
573.63
483.58
1385.29
-403.454
929.273
-1411.45
-183.953
-166.525
350.478
-469.194
580.641
-1627.03
427.933
903.96
254.618
346.263
-600.881
568.062
1186.25
1104.23
-714.793
-389.435
406.441
-218.924
-187.517
-1419.45
445.085
738.296
-1183.38
1473.39
-544.12
-512.485
947.107
-434.622
426.148
1186.16
-1612.3
47.297
-725.455
-145.198
424.489
182.678
-371.843
537.563
462.607
-574.424
27.2447
547.179
1024.53
-1307.66
283.132
662.21
-263.472
468.281
-1447.23
978.952
397.939
1686.62
-523.071
876.675
1054.88
-661.712
-1684.57
758.023
561.171
396.834
-958.006
455.414
78.8955
1749.91
-1828.81
1443.73
-379.493
-1064.23
1699.08
-1740.94
-367.203
-513.968
715.062
-201.094
-502.592
184.629
294.06
-373.186
-1225.98
214.428
-764.628
-639.242
-625.675
994.315
-368.64
-653.09
643.118
9.97257
655.005
-923.644
268.64
-685.047
336.546
348.501
-648.533
-722.23
374.515
347.715
-932.29
1400.57
-414.518
885.039
-470.521
-2205.31
5.55724
181.165
-537.001
355.836
138.83
1212.1
-71.8655
-572.315
159.539
-597.666
1487.17
-704.211
374.003
-463.822
89.8186
-564.996
564.996
1223.03
395.436
1777.98
-1228.86
589.388
639.467
849.535
-52.1732
1291.73
773.602
-540.18
1336.99
294.663
301.334
275.498
-789.466
216.197
-669.223
231.126
-444.41
213.284
-263.595
607.397
-343.802
115.938
-379.533
-591.838
-564.586
1156.42
-383.039
516.874
-133.836
-1192.15
2032.04
-839.884
1289.82
-331.107
-401.689
136.295
-1990.65
818.151
1535.04
-854.974
-680.062
1986.97
-877.442
-1109.53
713.819
576
-240.817
471.943
-690.474
1155.94
-465.468
-770.018
1201.28
551.63
924.642
-1725.13
800.484
-567.094
-47.3957
614.49
273.764
253.238
437.224
-98.5715
-338.652
896.749
-83.4712
-813.278
906.054
-559.269
-346.785
1576.19
-472.173
889.299
-1626.35
737.046
1068.47
879.39
749.466
-443.508
-305.958
-1058.99
-258.293
560.086
578.84
-1138.93
-474.225
483.121
-8.8969
577.755
-345.445
-232.31
-982.789
568.271
595.84
887.164
-441.815
1096.82
1409.3
-777.556
-631.747
396.702
-925.178
528.476
-1018.19
381.24
547.978
-1060.46
426.52
-499.934
73.4133
448.887
304.931
-516.303
-48.693
-794.362
-878.346
1672.71
194.611
211.83
-247.257
406.26
-12.5517
-551.553
564.105
495.414
865.135
-1360.55
-482.778
311.724
985.696
-88.9466
836.216
-1064.82
228.602
397.774
846.214
-1386.39
-445.594
830.123
1977.96
-1284.18
-693.777
269.95
609.074
255.847
795.674
80.8827
-973.404
892.522
1673.74
-1089.03
-584.705
-137.937
1887.85
-1866.07
-160.654
483.332
-621.487
138.155
-1014.15
526.687
487.463
-1730.47
538.317
-955.761
845.451
392.445
202.804
567.544
-264.237
-422.703
711.111
255.389
35.7702
724.596
-760.366
-1175.19
-853.957
2029.14
-551.033
1102.07
-551.032
-454.904
-333.718
108.292
-1654.88
860.514
-861.843
-612.308
1474.15
-331.335
-295.101
626.436
372.561
-677.038
304.477
238.079
-603.747
304.858
206.329
-511.186
338.203
-630.941
651.39
-278.83
315.256
-464.286
680.352
443.761
-174.333
-405.809
-316.421
1220.09
-1.08886
-1219
1039.73
-420.129
560.194
410.733
-1782.36
869.823
912.533
491.472
546.947
-1038.42
-534.936
203.601
-263.039
1180.92
-917.886
-1590.87
1212.58
504.638
-1096.48
386.648
-12.6453
452.361
285.845
-738.205
372.534
-617.873
-31.948
755.995
-724.047
-525.856
795.782
383.289
322.313
527.221
653.828
67.0657
-413.813
346.747
1058.79
-645.082
-413.706
494.017
-1664.27
1170.25
-1140.4
1753.24
-612.837
1715.83
-1123.72
-334.97
614.633
-1192.82
1273.7
425.133
-795.003
1601.73
-806.722
-244.172
-216.956
-912.265
1469.94
1812.69
-610.964
-1201.73
-404.997
679.039
-1304.71
-124.747
-56.6467
493.871
-685.526
-354.174
-1236.7
-222.589
460.668
903.495
-559.766
182.892
-1674.6
-71.2399
1745.84
-1066.21
515.175
568.995
-1181.71
612.713
900.915
911.776
630.71
619.977
688.978
258.129
-1149.84
459.362
-401.019
410.643
620.979
-515.036
247.761
-732.686
484.925
692.896
-371.834
-294.301
180.889
-586.142
235.148
350.994
-887.23
-739.115
1087.67
-2145.75
399.262
-684.044
-342.958
-724.131
832.039
577.264
-345.497
303.484
382.298
249.037
631.208
-880.245
544.116
611.826
-511.869
164.195
385.725
-637.498
-1087.69
-806.028
1893.72
-1797.05
156.525
1107.11
-1370.14
1180.13
-730.002
-450.131
-503.705
1349.92
-1495.52
627.89
867.632
-286.793
-210.326
497.119
1428.41
558.563
325.693
-449.174
-484.315
-566.598
1050.91
-418.176
599.342
1582.52
-1129.36
-453.16
-798.345
325.047
654.822
403.966
-1623.42
416.164
1207.26
-195.92
500.778
797.864
784.66
177.814
-673.923
496.109
207.244
211.674
-291.961
-109.616
401.578
458.653
34.8246
-493.477
-1644.97
588.951
-1610.46
1676.17
-65.7097
10.3764
-1620.84
1069.57
765.305
-312.944
-818.727
-199.468
-1134.59
-239.841
-312.149
684.683
-1812.54
-628.006
1206.85
211.003
758.197
-1330.32
-678.355
-465.502
622.213
-367.594
-1013.28
1350.77
-1932.88
582.107
646.284
1288.21
485.361
-2.90378
716.442
704.732
-1421.17
-639.706
337.378
302.327
439.927
-100.229
-339.698
151.304
282.487
164.182
-446.669
-583.032
1144.2
467.23
-608.06
-461.732
-401.918
863.65
-320.872
136.919
-458.778
166.7
-305.118
-709.032
547.509
-107.583
-570.904
967.606
578.102
-269.511
-308.591
455.713
-780.285
-644.704
436.335
-1129.4
-839.067
1182.41
-569.771
454.684
302.374
-457.475
118.71
1028.9
-315.989
592.724
-276.735
-509.044
1578.61
-712.638
256.637
384.883
-641.52
198.211
490.282
4.46634
-494.748
-254.037
-204.741
980.751
1108.92
564.818
-871.958
935.06
-63.1017
-455.444
168.651
-752.291
293.785
-590.959
348.37
344.526
827.014
-1249.11
422.101
777.184
-809.132
-948.937
-550.384
1499.32
-139.506
485.769
-520.752
219.712
1308.85
766.19
-588.376
1333.58
-694.98
487.792
-663.228
-420.401
-423.345
-378.712
802.057
502.731
-844.137
-444.567
59.4289
385.138
-323.24
572.426
729.248
-329.986
-244.783
-175.772
420.555
-490.047
145.253
344.793
1458.5
81.2004
-1539.7
-751.29
1347.13
-1144.76
-466.041
570.036
-185.153
1150.09
-372.905
1083.49
492.706
691.049
-415.551
-885.03
-522.372
-1328.43
-26.3468
984.774
-958.427
620.769
332.735
-953.504
-318.506
-221.005
-681.636
405.525
1621.2
-177.576
365.789
348.373
-714.163
-1839.78
-2106.69
1519.14
587.543
-2043.1
350.12
365.44
554.636
-920.075
-460.335
1020.53
-397.693
-687.295
1084.99
-2030.53
1391.21
639.326
615.485
-1013.18
36.8998
389.621
386.806
199.283
246.087
350.776
980.925
887.371
680.391
-325.858
-354.533
-293.968
622.147
-328.178
573.59
530.638
565.293
514.872
-1080.16
-796.199
-699.323
752.296
397.793
-429.398
733.875
-1193.41
1609.58
422.762
-1110.06
-322.12
528.448
-1393.93
892.698
501.234
-727.074
-354.4
-769.662
325.901
443.76
447.098
718.252
-1165.35
1069.27
-577.8
-400.336
650.647
-250.31
253.71
324.392
-468.178
-432.2
900.378
-237.957
562.946
-948.393
385.446
-455.533
600.599
-1681.27
423.799
670.954
-1094.75
518.888
90.5975
113.408
-2212.79
563.451
-108.766
1444.15
1777.09
-217.552
-1559.54
-438.443
1789.22
-1987
1194.49
792.513
403.398
346.068
-38.071
870.11
-1283.31
718.729
-870.097
-822.698
796.351
308.788
53.4484
-362.237
228.196
182.981
-411.177
1552.73
-836.29
-1530.94
-325.432
460.776
-198.347
-262.429
394.799
366.695
224.167
398.046
-9.24244
1001.86
-992.617
411.812
259.612
-671.424
-734.061
1817.32
-1083.26
-342.943
737.742
-1220.46
-414.323
-915.752
483.552
593.048
-813.557
220.509
761.955
-380.64
-381.315
-432.075
-439.883
451.712
1092.09
1236.98
-667.984
801.381
-345.668
414.088
310.983
-251.334
-212.488
-235.765
633.704
408.162
-848.005
439.843
223.848
380.9
-604.748
-422.669
830.831
754.529
-1147.28
895.089
-68.0755
-488.322
272.448
781.428
-95.8538
1384.06
1890.5
-70.2564
337.732
-359.378
426.443
-1086.2
1076.95
635.979
376.535
385.42
62.9263
397.85
258.417
494.08
-371.417
-268.289
-563.557
-89.5329
-356.546
367.339
-10.7939
-258.24
-288.88
1011.01
-1540.71
529.7
-180.493
-198.68
-417.92
677.532
-1634.07
1591.03
-963.144
276.75
-697.151
584.317
1224.42
-1808.74
607.419
983.614
290.434
-1119.39
696.687
-324.065
-276.817
1378.78
-1445.55
827.053
618.5
418.916
-613.201
194.286
-355.364
465.282
-109.917
379.369
79.2839
1723.97
460.376
-253.131
557.631
-1704.79
1147.16
-94.1101
415.472
343.24
337.151
-448.584
-615.64
1064.22
416.872
-862.466
-641.02
902.901
570.492
-465.456
-219.592
-438.888
-409.117
-307.328
-827.265
1821.1
-1821.1
-104.187
-1595.56
1699.75
293.233
284.522
-917.217
-555.382
1472.6
-408.23
973.523
-599.637
-1045.33
700.903
381.225
-1082.13
477.89
-162.634
573.063
1220.35
-1793.41
-1059.4
2118.66
-1059.26
-374.771
-297.7
-511.803
836.85
-1752.37
1601.57
150.807
1752.37
-1606
-146.376
-245.917
524.988
-279.071
-537.289
1620.78
1567.59
-1981.91
1082.14
-315.696
-222.264
537.959
235.37
-557.49
-726.621
297.223
1341.68
636.28
579.324
483.942
-1063.27
278.488
412.561
875.398
500.12
-1375.52
533.253
-1017.57
1574.96
-563.947
-789.753
-399.853
-117.223
517.077
-490.049
1208.3
-740.821
333.163
368.014
358.155
249.665
-607.819
593.525
831.893
-603.29
258.591
676.469
-465.456
-349.749
-202.525
552.274
1168.54
-684.983
610.007
465.828
-1075.84
-1274.48
1274.48
-386.305
762.84
-284.793
-475.868
760.661
487.487
444.086
-931.573
389.246
-674.039
610.979
-868.693
257.714
-367.366
-494.571
1073.89
-661.481
-710.3
1371.78
-367.57
930.517
-1552.71
675.272
14.1326
-380.538
366.405
-523.492
692.26
277.038
330.359
170.668
307.222
-542.51
218.445
1869.64
-1965.5
258.876
-690.909
447.682
-820.519
372.836
-920.228
1427.58
-507.357
-429.957
-485.794
600.742
1124.19
-1724.93
-715.467
340.696
-460.871
1034.46
-780.877
1039.47
-378.992
-628.939
-494.109
710.306
540.153
-358.151
904.359
-300.398
-189.649
1599.02
-1816.58
-336.069
-612.324
-332.455
477.708
244.309
-611.904
-167.226
1064.28
-791.829
209.942
-314.271
-291.207
605.478
390.226
-874.812
484.586
-486.734
-448.736
-898.035
-342.827
548.496
-205.669
-440.092
-421.627
-321.815
-189.371
-383.814
633.479
-471.161
782.144
-1072.79
624.204
-1416.08
554.237
-27.968
-1835.78
1863.74
569.956
-449.74
1215.71
-700.533
279.452
-279.452
671.088
-435.675
1047.58
-1647.21
-1158.73
-947.952
292.621
329.526
887.614
714.112
-497.087
-291.288
788.375
1657.95
-1685.91
-434.426
348.375
222.025
1134.95
-524.943
-943.335
1550.48
-607.145
444.907
-245.625
396.103
393.646
-789.749
530.725
470.044
-1000.77
-331.904
665.067
-37.9429
1907.59
1603.27
992.793
-1697
727.05
-1177.06
450.012
-492.476
1367.87
837.65
-1341.36
-553.879
238.184
796.255
-399.42
551.943
-1188.21
636.266
-638.007
-1215.53
-695.659
1911.19
-192.082
532.371
-340.288
-138.453
287.58
-479.662
327.705
371.089
-698.795
-1483.16
757.16
725.998
884.071
-1434.46
825.364
-431.703
219.287
-364.485
-586.554
236.805
-664.242
-729.69
698.677
506.193
-1204.87
393.295
-204.764
-188.531
556
-958.608
-567.78
-453.089
746.873
-831.285
-1155.72
-1437.96
499.655
938.307
41.202
-629.802
309.497
320.305
-1314.48
1045.9
268.589
-616.58
-456.208
-665.87
921.717
401.832
-203.4
-198.432
508.223
980.634
-1488.86
974.811
-562.771
166.717
396.053
-417.454
663.572
-404.696
-506.04
173.585
234.378
-1518.56
529.501
539.77
-740.69
217.198
155.706
-456.104
367.921
-816.656
1954.16
-1195.39
-758.77
429.343
-662.751
233.408
323.846
320.86
123.029
-443.889
-568.374
194.613
265.763
-691.738
1374.34
-682.599
424.092
467.984
-1195.06
266.748
1866.78
-1013.59
-853.186
784.821
-506.58
163.753
1402.37
-975.182
-427.192
332.456
-768.13
-616.521
1725.44
611.511
625.468
319.449
-10.6601
263.236
-1138.42
1725.72
-587.299
-1763.53
820.194
1761.35
-1691.91
-69.4356
-655.419
254.401
598.363
-700.938
206.829
1402.73
-565.082
389.114
441.009
-1858.59
1420.15
522.853
-430.853
-91.9999
205.192
-527.007
-300.264
-154.64
-352.779
696.019
-616.267
216.414
609.425
550.466
-1159.89
1113.59
-1947.47
833.874
152.69
318.466
-1699.17
1661.22
313.469
-729.02
-164.702
383.989
754.766
679.225
-1433.99
1078.6
-1079.69
525.076
-1102.88
-630.95
253.3
377.65
513.263
-278.114
-611.236
-1035.98
292.896
-714.523
-912.319
177.006
165.206
228.089
384.64
290.262
-674.903
-629.765
-834.078
-978.462
489.075
-1057.45
-279.773
473.425
533.561
648.85
-279.47
-122.219
-439.321
729.756
266.832
-1198.57
568.807
1308.56
-553.793
440.049
-1007.83
-387.053
134.01
388.843
1023.34
551.617
-1720.73
1616.54
1642.3
-573.232
-1069.07
1903.68
-1892.32
-11.3527
197.42
-556.798
-337.637
547.579
-768.935
-317.794
-337.625
1031.07
698.854
-1507.45
808.594
299.922
-26.1897
1625.21
-1088.77
403.786
-1251.79
462.04
-60.3157
1518.82
1197.38
-470.333
-488.493
-74.2777
-239.88
736.028
-1951.56
-710.626
348.226
-532.631
184.404
191.385
-507.374
1139.92
671.57
-1811.49
-583.515
152.661
941.984
-1497.37
-210.503
678.875
-468.372
903.251
1096.75
-737.804
1349.32
597.731
-509.331
-88.4
-345.741
1172.79
1051.66
-1985.01
933.349
-1171.44
543.437
1488.82
-585.915
-375.648
-136.221
-1241.05
573.063
1165.74
-91.4767
946.14
775.616
-1721.76
-211.54
578.541
-1541.75
963.211
486.996
916.636
-1403.63
619.938
586.907
384.188
-1106.64
590.944
1106.64
1215.81
-452.326
-763.487
-1186.2
-1754.94
-7.15576
-1713.57
-187.465
-425.736
1607.22
-628.98
-978.242
-490.855
1121.56
-1317.54
636.08
681.464
-1361.84
1443.04
-1330.01
592.209
1520.52
-412.843
-548.703
173.055
-1493.46
245.582
176.395
192.49
405.241
455.751
389.294
-845.045
506.365
-939.011
900.743
-1444.86
-686.208
217.275
468.933
-1040.21
457.174
-473.151
862.265
695.444
30.1029
-508.513
168.225
-886.567
-1318.74
-715.741
349.883
365.858
404.245
-723.31
319.065
-479.221
-189.363
-709.419
719.992
1539.69
-593.553
815.491
737.242
1344.79
-844.665
-971.272
-570.48
-797.505
428.167
369.338
-1036.71
-643.075
304.338
338.737
-1433.69
-296.781
-790.933
398.163
392.77
-639.405
403.113
236.292
-667.026
262.33
412.809
487.569
389.98
440.851
478.984
384.667
596.635
-969.821
678.156
466.047
453.561
356.544
-810.105
1630.76
-1079.89
-550.873
-504.573
-286.972
-1027.51
454.157
347.9
409.686
594.11
-1003.8
-1380.73
751.752
-533.025
1145.74
348.18
-65.6924
412.308
-865.703
453.395
-1900.48
304.916
441.361
-726.379
285.019
-186.578
405.467
-218.889
-662.275
307.911
354.365
-674.715
320.182
371.054
391.786
612.732
-1020.96
753.217
661.923
-1415.14
438.82
625.404
339.573
392.916
-732.489
409.231
328.511
619.52
691.044
401.051
599.709
-1019.34
419.629
-1679.3
1184.64
494.652
1696.59
-539.176
620.779
-1147.3
526.518
-642.86
347.759
437.432
-935.34
497.909
757.197
-471.352
351.251
344.768
574.399
-910.468
651.529
-1253.16
601.633
375.568
734.716
-1224.77
769.512
509.616
-1279.13
485.145
401.05
-886.195
-501.673
-936.289
-302.086
629.792
352.601
541.813
-894.414
332.793
332.274
-502.182
1944.74
436.996
-847.118
410.122
-917.804
-807.322
-749.006
367.691
-1213.57
432.694
-1733.81
1606
127.812
1746.23
-1601.57
-144.663
-784.556
-593.703
266.098
327.605
-1761.35
1981.91
538.556
791.537
-1330.09
440.098
716.325
690.299
385.621
-1075.92
-45.0659
1617.15
-593.81
376.85
838.857
-649.719
326.44
323.279
-378.589
-297.787
551.497
-222.62
435.449
280.756
-666.834
386.078
265.034
-580.153
-282.797
442.599
-1033.6
590.998
538.049
1092.71
366.033
596.87
311.607
352.36
-663.967
1626.37
-927.515
1691.97
-1520.6
-171.368
-328.669
-823.573
414.455
857.495
-1068
-607.756
279.577
-1090.59
1628.64
-1589.86
-78.9153
1668.77
-341.658
-350.454
-370.376
537.146
597.804
-503.497
-28.9837
-549.896
507.435
-284.012
-223.422
1751.47
-1299.75
-625.636
299.27
326.366
402.137
357.277
734.64
-296.11
-399.123
-1746.23
1685.91
459.594
-1101.04
641.441
-43.2951
1659.84
571.282
476.416
-1047.7
104.231
1144.82
-1452.15
-14.5344
-1885.95
228.364
-599.279
307.772
291.507
-955.416
612.458
-898.53
468.573
-1128.62
673.505
455.116
365.689
259.188
-756.275
-345.09
1217.13
886.772
699.124
-1182.95
456.159
726.792
494.397
700.796
-1195.19
-393.458
-248.314
413.521
-960.834
438.604
522.23
21.2461
-1879.84
1080
-469.017
-494.545
558.222
-1378.25
820.032
-424.616
797.452
-405.513
499.868
-725.515
1706.27
413.782
-185.693
215.85
-171.338
-246.45
417.788
1895.32
-504.116
-1695.43
1051.55
-601.928
304.142
-1013.96
553.629
-313.405
544.318
905.262
-1449.58
-1103.81
437.936
-20.7956
-1944.7
1717.05
-665.389
-540.486
460.737
-1190.52
729.781
190.931
210.901
-281.705
769.652
700.288
838.228
818.319
-461.775
1085
-483.733
479.617
-194.009
-285.608
-1923.25
-714.132
-318.523
-643.265
-6.598
649.863
468.016
-273.404
563.389
1062.98
-803.933
925.001
1244.33
-425.409
-164.022
-254.323
418.345
940.6
-888.523
-322.613
-1067.99
611.782
1557.07
-799.914
537.683
934.917
-390.954
735.273
-344.319
1130.4
-276.165
344.668
1349.76
-705.102
-220.076
448.311
-1198.65
750.341
-993.527
-130.076
1123.6
441.812
-955.839
514.027
158.753
732.519
483.293
750.365
-119.157
853.16
-425.86
1182.53
-796.91
552.185
-1465.51
913.326
-1216.65
1800.97
-431.711
-1510.19
879.625
-1402
-294.201
-444.004
1457.26
-1523.61
784.497
1491.49
202.468
277.149
-350.334
-1733.81
-290.214
-1012.82
1576.21
-1769.16
1769.16
1567.59
-1004.47
-634.346
-333.075
368.444
605.078
-392.997
-359.045
-1389.84
897.366
1125.14
600.582
1202.73
1789.48
-1216.42
-611.665
274.007
1659.02
-1916.49
257.477
814.545
-1267.71
1545.24
-561.622
775.224
326.841
-339.916
554.887
795.032
651.952
1377.19
-235.367
-445.135
-352.297
497.246
-341.171
471.789
736.511
-292.007
-151.882
-325.908
565.438
-239.531
27.3776
-372.823
1107.44
-1720.28
-440.943
-484.201
-563.865
864.018
693.056
-1596.5
904.761
-451.788
-620.976
-513.896
1252.19
329.055
1723.71
-1702.46
-1657.95
1892.32
-1560.82
840.262
720.556
-372.57
-1796.06
917.718
583.221
819.511
-389.667
1794.34
-680.745
-431.193
692.833
420.812
-1113.65
-1099.62
444.123
753.26
-1617.18
473.205
901.132
177.608
-403.653
226.046
-1600.78
-384.753
-445.553
990.277
-672.24
1442.94
-955.591
1858.84
242.444
-559.858
498.192
-295.724
474.325
893.549
543.137
977.387
-462.926
-428.008
574.015
883.25
-1392.7
-40.9893
1572.32
-835.081
519.958
971.532
-1475.84
-1115.9
1778.2
-1246.56
-531.634
1206.15
-319.047
-887.099
-192.668
456.007
-263.339
-457.418
-250.97
432.658
-181.687
147.15
-395.464
1735.21
-1742.36
-454.661
-530.856
-903.6
445.8
-207.436
-238.364
634.886
-467.53
-389.665
-292.292
681.957
-948.491
407.976
-1167.28
676.428
420.051
-634.816
-449.871
1574.86
-860.744
530.187
-457.965
-570.943
-462.655
364.374
-354.053
-10.3213
-1104.79
404.258
-664.782
-1033.65
1698.43
-600.157
-1423.48
713.18
562.22
-1596.28
1034.06
-384.95
-492.526
139.079
549.899
-1258.46
744.565
539.232
1006
-2133.18
999.988
1133.19
-350.001
412.261
-387.137
-25.1239
1478.05
-362.976
449.586
1181.08
582.261
906.555
567.768
527.572
-1095.34
167.07
-436.124
-1691.91
255.887
1127.57
-613.8
518.502
1013.75
-1532.25
1092.85
-1643.72
202.82
692.27
544.82
-867.433
-1086.49
-171.825
429.31
-257.485
-586.972
-424.261
-636.826
-628.378
346.674
-1618.8
939.73
-476.831
215.997
-401.69
536.023
-307.659
-606.779
1197.18
-1285.12
936.377
348.746
-1044.41
-355.824
-756.95
-824.67
1688.69
-476.991
1797.97
-1587.24
-210.738
-1556.63
1018.71
537.916
-725.335
-260.409
443.319
-182.91
-591.402
383.971
274.757
-658.728
-523.969
985.156
631.053
-351.476
-1620.27
1050.5
571.774
1103.54
-1675.31
-408.07
-293.669
-368.607
-744.652
-479.379
-331.091
501.759
1558
-995.781
-775.206
1497.45
661.23
-312.855
725.881
1152.36
-1878.24
275.91
287.867
-487.179
-1932.24
1719.96
212.273
739.207
-474.63
-264.577
531.836
1060.82
-1592.66
364.374
-1728.11
-233.211
1752.35
-1580.69
1073.77
506.919
-1728.71
0.604793
-521.688
412.261
1699.17
-1719.96
939.678
624.567
-1564.24
383.42
-219.635
-163.785
-409.544
-257.483
69.2616
95.0213
-355.43
-431.303
-437.391
-408.312
221.734
1510.24
378.88
-201.95
-437.455
463.74
-197.977
307.552
1510.76
981.826
-171.724
-810.102
-1104.1
1704.84
-1728.81
1064.02
-707.211
-1021.59
-1265.08
1844.99
-579.904
1155.07
-1771.16
616.09
271.494
-878.133
1675.72
43.4417
-1719.16
-491.168
-1083.04
-1735.21
-982.218
554.21
1019.6
590.232
1133.03
-1723.26
291.227
-476.38
704.48
-384.298
376.64
924.848
680.764
-372.327
-647.011
582.9
1072.55
-1655.45
-399.624
-369.746
769.369
402.976
-1661.22
1520.6
140.619
583.447
-1044.32
544.749
1083.89
-1555.67
994.052
-238.504
232.37
315.209
1903.68
412.275
-74.9796
995.859
722.752
-1718.61
-697.266
1085.34
-1557.51
166.818
-571.485
197.904
265.836
-660.49
-553.08
582.528
1034.63
-711.124
-252.01
-1368.59
675.635
692.954
-416.107
746.348
95.6277
-841.975
561.787
-137.154
1557.3
-217.381
266.168
-771.861
-1932.24
1664.62
1031.52
336.546
285.154
472.043
-930.243
-993.01
-1767.26
637.271
1693.77
509.092
-474.314
1210.82
1087.12
-424.98
1030.06
-978.889
493.233
485.656
700.248
1047.96
-1748.21
485.233
482.372
-1494
-747.305
32.5121
780.716
-413.025
-881.299
386.754
-538.903
-802.452
594.728
-577.345
1397.38
1055.16
194.562
234.748
-550.625
1618.52
-772.675
1525.89
-1727.84
575.259
1152.58
544.07
-883.561
-1732.79
1916.49
-183.7
1721.74
182.603
-544.008
367.822
-272.8
-481.429
1211.21
568.271
1128.32
-491.348
431.208
858.673
-461.937
-772.733
425.062
347.67
1418.92
1089.6
-518.216
1422.98
-510.63
-533.37
1044
-602.763
490.149
-1220.15
1691.97
1839.58
-687.212
1585.68
-646.004
-1241.31
717.341
-562.519
202.709
-392.543
455.462
-243.787
-520.004
-1246.71
1870.94
-624.235
1173.34
-552.566
1120.28
-1659.46
1695.31
-573.945
-545.664
-549.82
1720.07
-316.959
-688.042
-473.339
1223.68
-1684.36
-1860.1
613.397
325.961
-952.597
169.319
214.18
-1719.03
1204.15
514.875
1162.85
558.888
-511.692
-465.397
1192.19
178.611
226.855
588.444
1251.13
-539.176
-1238.58
1777.76
-1025.43
999.988
866.788
-204.121
-1659.02
1702.46
-510.088
1411.22
-1732.79
-342.62
-7.4154
350.035
-264.776
585.488
-320.712
93.8483
497.476
781.926
-377.681
1257.53
1270.86
-413.362
852.471
-438.016
1817.46
-662.39
1586.55
-1723.71
-412.795
-747.837
327.287
420.55
-559.784
-563.326
79.7359
-1138.72
-985.471
-669.76
1655.23
-943.706
-1189.47
187.923
-410.187
-648.33
705.615
1167.45
650.011
1410.33
-590.823
1636.74
1318.12
-573.554
-493.601
197.877
-503.287
1396.84
1240.12
-564.487
-999.987
893.066
54.987
-948.053
603.432
-506.141
1403.51
1495.09
-588.53
-366.915
366.915
-589.45
1623.51
1239.52
-486.259
1134.15
-68.6307
1855.56
-394.696
1489.5
-588.753
-507.68
1347.94
-652.498
1218.65
-566.155
1554.81
-591.602
753.417
569.884
-1323.3
-667.958
263.23
502.96
600.211
-1957.3
-984.652
1586.55
369.686
-369.686
-70.4756
388.455
436.909
347.982
31.3872
-311.627
915.549
-539.982
-426.215
814.669
-243.757
621.406
-431.7
1551.92
-444.342
-884.087
187.656
226.813
-414.468
601.169
1250.77
-1851.94
927.319
-458.746
-354.053
126.151
-1943.02
1816.87
-451.591
185.05
1181.25
-440.468
-740.784
-302.122
-579.176
-492.388
-387.137
-481.262
257.84
1158.34
-560.539
230.692
-382.73
152.038
-22.7626
-107.675
1376.02
-1268.35
34.5275
-598.085
-586.407
-452.277
452.277
-1262.35
1985.11
-1344.38
-209.726
-1827.54
240.308
-1025.76
-974.241
-186.379
-1637.91
707.664
1229.32
-1924.98
369.816
312.069
-681.884
-1850.02
1234.27
615.743
-561.519
561.519
-959.157
-40.0163
-1866.07
-558.149
1650.86
-677.188
1636.19
-601.56
-177.292
-1708.65
-585.414
-462.684
-594.806
-466.353
466.353
-1537.81
194.525
1343.28
173.673
226.186
-399.859
501.81
480.016
997.235
-475.005
1751.3
768.39
-422.984
397.86
520.847
1702.06
-594.614
-552.968
1636.86
471.911
1812.75
-645.303
-1804.03
-1938.07
-646.965
-478.704
478.704
-575.929
223.631
-701.005
1019.59
-465.958
-1072.35
-284.89
1579.57
1852.3
1635.35
-1635.35
-310.062
738.565
1761.5
595.789
1275.15
173.858
209.562
584.634
597.33
1603.51
-1603.51
222.618
-353.495
-434.819
460.398
951.801
-458.568
-639.637
-1131
1706.26
280.599
-1659.39
614.063
-289.384
471.987
1744.65
-592.068
-215.939
-447.653
378.942
727.701
1738.57
-613.434
-511.767
-783.809
1960.54
-870.454
-1090.08
1642.77
-705.752
1223.97
-1824.95
600.975
340.586
-900.445
-185.793
-105.522
1098.38
-486.6
124.896
622.507
-1658.48
437.649
597.398
-1804.03
-583.279
1787.43
884.257
-1162.92
1760.49
-597.573
1783.83
-575.531
-1208.3
432.689
940.737
-1742.36
924.729
-1491.5
252.674
1238.83
-830.926
-1254.23
-379.654
75.6485
304.006
581.728
269.93
1027.79
-444.598
847.046
-402.449
821.117
738.806
-1559.92
643.88
1066.35
-24.1778
-663.171
687.349
-1744.33
722.74
700.154
150.592
-1122.68
1936.76
-674.551
-1262.21
-537.177
1665.49
830.43
964.159
-1794.59
1227.86
683.329
-403.193
711.103
868.225
1028.51
-586.697
1761.5
626.572
1773.56
-1185.62
-587.944
-410.478
-310.123
720.601
121.446
-1185.68
1660.55
-540.27
-1437.81
1437.81
1250.57
594.417
1351.54
206.458
-579.489
282.619
-192.492
699.085
1113.67
482.973
-304.362
-870.182
-574.681
1741.76
-1741.76
981.937
-981.937
987.332
1025.17
-2012.5
1837.95
-613.974
-581.11
830.122
-947.85
-1052.17
998.349
690.626
-1688.97
-516.303
-354.745
-658.433
-808.425
2042.7
-1246.42
-613.684
1002.97
974.853
1289.77
646.988
325.89
1012.69
256.636
337.328
1186.25
1756.88
-1756.88
671.902
79.8562
-388.447
-997.053
-539.991
1674.14
985.609
1014.39
-1833.29
-223.544
-361.87
599.152
-343.265
1849.5
-1077.86
-771.646
359.543