/*--------------------------------*- C++ -*----------------------------------*\
  =========                 |
  \\      /  F ield         | OpenFOAM: The Open Source CFD Toolbox
   \\    /   O peration     | Website:  https://openfoam.org
    \\  /    A nd           | Version:  7
     \\/     M anipulation  |
\*---------------------------------------------------------------------------*/
FoamFile
{
    version     2.0;
    format      ascii;
    class       volVectorField;
    location    "32.5";
    object      U;
}
// * * * * * * * * * * * * * * * * * * * * * * * * * * * * * * * * * * * * * //

dimensions      [0 1 -1 0 0 0 0];

internalField   nonuniform List<vector> 
7807
(
(1.0681 0.14284 4.83769e-21)
(1.05625 -0.0424939 -1.42351e-21)
(0.981643 0.102887 -1.02834e-20)
(1.03168 0.0687219 1.335e-20)
(0.999233 -0.000813678 -1.50786e-23)
(0.999972 -3.93414e-06 -2.92973e-25)
(0.980857 0.0825032 -1.99005e-20)
(0.995153 -0.001227 -2.97777e-24)
(0.999894 -0.000143997 -2.23459e-24)
(1.02305 0.00135046 -5.50279e-22)
(0.999972 -5.58792e-06 3.30525e-25)
(1.00195 -0.00112953 -4.20792e-23)
(0.992799 -0.00140256 1.43805e-22)
(1.01941 -0.00174564 -3.06137e-21)
(1.02232 0.00163459 2.33782e-21)
(0.990482 -0.0140903 -4.83027e-22)
(1.07056 0.149777 -1.017e-20)
(0.990394 -0.00176528 -5.13971e-23)
(1.00178 -0.00916016 3.28096e-23)
(0.974584 -0.109047 -5.94032e-22)
(1.03468 -0.00411966 -1.04484e-21)
(1.00127 -0.000694556 6.95388e-23)
(1.01751 -0.00321455 2.37081e-22)
(1.00968 0.0296712 -6.62264e-21)
(0.987487 -0.00217354 -2.31012e-22)
(1.06296 0.14055 -4.81024e-21)
(0.999276 -0.000777504 -1.04734e-23)
(1.02275 -0.00183951 1.26419e-21)
(1.00449 0.0140773 -8.28995e-22)
(1.00319 -0.00981304 -3.49737e-23)
(0.985486 -0.0144643 -7.97378e-22)
(0.92882 0.0128777 2.77676e-21)
(1.01736 -0.00394815 1.50229e-21)
(0.999578 -0.000303766 1.44608e-23)
(0.999962 -3.01882e-06 1.39944e-26)
(1.02312 0.000342905 8.01643e-22)
(1.00366 -0.0107617 -2.20313e-23)
(0.986146 0.081061 -3.13609e-21)
(0.996013 -0.00723359 3.92231e-22)
(0.999771 -2.54375e-05 8.40192e-24)
(0.996402 -0.00750069 -4.21886e-23)
(0.990667 -0.0131402 -1.6011e-22)
(1.00829 -0.120217 3.11279e-21)
(1.16097 -0.0402095 9.12117e-22)
(0.99993 -4.62186e-06 1.87085e-24)
(0.999946 -7.43857e-06 -3.99755e-25)
(1.00122 -0.000561187 -4.24864e-23)
(0.995901 -0.00658805 -2.30172e-22)
(0.999946 -1.88431e-05 -4.7465e-25)
(0.979891 -0.109898 8.73207e-22)
(1.0029 -0.000998969 5.03919e-23)
(1.02242 -0.00116687 -1.30108e-21)
(0.984313 -0.00241718 -7.92978e-22)
(1.01048 -0.0312819 -9.84517e-23)
(1.02365 -0.000209345 -4.45666e-22)
(0.995603 -0.00195649 -2.89781e-23)
(1.00176 -0.0084871 -3.53561e-23)
(0.99527 -0.000992856 1.81671e-22)
(0.975144 -0.0168051 -1.33426e-21)
(0.999564 -0.000263573 -1.7732e-23)
(1.00003 -1.84515e-05 -2.58743e-25)
(1.00381 -0.00114368 5.86155e-23)
(1.01957 -0.00113496 -7.31546e-22)
(1.00212 -0.000990427 4.26185e-23)
(0.9993 -8.56654e-05 1.83562e-23)
(0.986038 -0.0151537 1.16062e-22)
(0.999914 -0.000144439 1.96044e-24)
(1.00001 -2.09925e-06 -1.18538e-26)
(1.15213 0.0813761 1.26436e-21)
(0.996117 -0.00624182 -7.78264e-23)
(0.999945 -9.99179e-06 4.05617e-25)
(0.962595 -0.0598978 -3.47349e-21)
(0.987409 -0.00258165 1.18994e-22)
(0.980015 -0.00262987 1.48982e-22)
(0.990455 -0.00211431 1.64203e-22)
(0.960206 -0.0242235 -2.96196e-22)
(0.985371 0.105304 1.65632e-20)
(1.03293 -0.00412893 1.3411e-21)
(1.08641 0.00328558 -1.67387e-21)
(0.944436 -0.0451623 -3.66898e-21)
(0.992923 -0.001673 -2.21396e-22)
(0.997538 0.0486931 1.88571e-20)
(1.03937 0.00690067 3.39622e-21)
(0.974204 -0.0067074 8.19071e-22)
(0.998644 -0.00215151 -3.29639e-23)
(0.998572 -0.000119083 1.77548e-23)
(0.994691 -0.00175219 2.78476e-22)
(0.984001 -0.00291787 5.03247e-22)
(0.99939 -0.000984125 1.74802e-23)
(0.997087 -0.000250342 7.07197e-23)
(1.00472 0.015964 6.18335e-21)
(1.19348 -0.0199441 -1.48986e-21)
(0.999892 -3.32899e-05 -1.48664e-24)
(1.00139 -0.00713051 -1.3188e-23)
(0.99692 -0.000607692 7.08749e-23)
(0.986688 -0.0008569 -1.14263e-21)
(0.965582 -0.0596332 1.92697e-22)
(1.01238 -0.0300912 3.07854e-22)
(0.998517 -0.0020597 1.01175e-23)
(0.999211 -9.36693e-05 7.20322e-24)
(0.95379 -0.00961012 5.96444e-22)
(1.08691 0.00863912 1.55224e-21)
(0.997018 -0.000756366 -1.73108e-22)
(0.999991 -5.99727e-07 -1.45343e-26)
(1.19575 -0.00688019 -1.12003e-21)
(1.02834 0.0308173 -5.87249e-21)
(0.95606 0.0111425 3.1721e-21)
(0.995332 -0.00178876 -1.11939e-22)
(0.999993 -2.01898e-06 5.54277e-27)
(1.02478 -0.0139151 -3.98757e-22)
(1.0352 0.065414 -1.5511e-20)
(1.02718 -0.0861336 -4.14627e-21)
(0.999992 -2.35059e-06 -1.31478e-26)
(1.02647 -0.0142991 -8.47733e-23)
(1.02524 0.0292133 6.18768e-21)
(1.00035 -0.000500305 -1.65474e-24)
(1.08175 -0.100283 -3.03524e-22)
(1.02897 0.0176685 -1.37865e-21)
(0.978345 -0.0468276 1.57285e-21)
(0.977528 -0.00375847 -1.79294e-22)
(0.963401 -0.00430933 -1.28982e-21)
(1.00039 0.0216796 -1.21783e-20)
(1.01601 -0.118228 -4.2629e-21)
(1.0091 -0.00785049 2.08658e-23)
(0.960301 -0.00566154 4.81856e-22)
(0.999112 -0.00113948 4.08623e-23)
(0.987174 -0.01066 2.59852e-22)
(1.00233 -0.00807091 2.90962e-23)
(0.999382 -5.72215e-05 -4.25828e-23)
(0.985736 -0.0132047 2.03889e-23)
(1.234 -0.0338511 -8.50421e-22)
(1.0806 0.000641179 2.95507e-22)
(0.999467 -0.000424637 1.68185e-24)
(0.99929 -0.000999564 -3.60722e-23)
(0.974116 -0.00564293 2.22982e-22)
(1.03321 0.0586103 5.61735e-21)
(0.996635 0.0159988 2.14938e-20)
(0.999988 -1.03785e-06 -6.17967e-27)
(1.00666 -0.00306038 2.87021e-23)
(0.956001 -0.00561541 -1.77663e-21)
(0.984278 -0.00152468 -6.26751e-22)
(0.983008 -0.0678325 -2.66912e-21)
(0.960326 -0.026731 4.03147e-22)
(0.981459 -0.00234437 -1.55101e-23)
(0.95997 0.00796117 1.19792e-20)
(1.01176 -0.0492774 -1.20745e-22)
(1.00994 0.0180323 -3.12475e-21)
(0.977134 -0.0211591 -7.56873e-22)
(0.979131 -0.00194597 1.80519e-22)
(0.999888 0.0358683 -6.07014e-21)
(1.02339 0.000707848 1.95904e-21)
(1.17961 -0.0243848 -1.11002e-22)
(0.99861 -0.00169458 -1.00277e-22)
(1.15805 0.0730393 4.09141e-23)
(1.03733 0.00641309 -3.53593e-21)
(0.997391 0.0863469 -1.60406e-20)
(0.953258 -0.0287284 1.24351e-21)
(0.99344 -0.000912114 4.73537e-23)
(0.939573 0.0550426 2.91652e-20)
(0.999951 -1.57996e-05 -4.48201e-25)
(1.00092 -0.00753979 6.8107e-23)
(1.00963 0.0324624 4.80799e-21)
(0.999983 -1.39714e-05 3.16268e-25)
(0.998128 -0.00456562 -2.0711e-22)
(0.996668 -0.000557167 -3.29777e-23)
(1.00257 0.0316393 -1.5896e-21)
(1.00119 0.0211028 5.9355e-21)
(0.930316 0.0600268 9.89966e-21)
(0.997862 -0.00438596 -1.11056e-22)
(0.998186 -0.000134057 -3.46334e-23)
(1.00001 -2.85398e-06 1.44773e-26)
(0.975224 -0.00153812 -1.8977e-21)
(1.00034 -0.000447616 2.37078e-24)
(1.05811 -0.0382508 1.65123e-21)
(1.00699 -0.00329537 1.88296e-22)
(0.976393 -0.00249218 3.32974e-22)
(1.18464 0.00340947 -1.21064e-21)
(1.10378 0.0800641 1.10978e-22)
(0.999891 -4.47487e-05 8.13856e-25)
(0.999547 -0.000500278 -2.058e-23)
(1.03263 0.0727049 -2.38515e-21)
(0.999954 -9.61793e-06 -1.70711e-25)
(0.999944 -4.3059e-06 3.19963e-25)
(0.979724 0.0882598 -1.66114e-20)
(1.05879 -0.046237 -1.08969e-21)
(1.01068 -0.0720511 -2.13201e-21)
(0.980736 -0.045365 -2.2419e-21)
(0.978277 -0.00443616 4.97642e-22)
(1.00832 -0.0507417 2.50909e-22)
(0.960901 -0.00368846 1.00153e-21)
(0.999981 -1.25186e-05 -8.99381e-26)
(0.966741 -0.055391 -8.5743e-22)
(1.10616 0.0880648 -3.84309e-21)
(0.996946 -0.000991859 2.44366e-23)
(1.00006 -5.56063e-06 -3.04498e-25)
(1.07294 0.0824927 4.58917e-22)
(0.998942 -0.000243377 5.63415e-23)
(0.986679 -0.0127041 4.12655e-22)
(1.00514 -0.0477713 8.00976e-22)
(1.00001 -1.66087e-06 8.13627e-27)
(1.00072 -0.00178149 -7.77218e-24)
(1.02961 0.0576202 7.07936e-21)
(1.09164 0.0942712 -5.50713e-21)
(0.994944 0.0753301 -2.16174e-21)
(1.07645 -0.0929669 2.13235e-21)
(1.03156 -0.0817351 9.09426e-22)
(1.13945 -0.130611 -8.02172e-22)
(1.02321 -0.00176625 3.83033e-21)
(1.02749 0.0537317 -2.23698e-21)
(0.999897 -6.08539e-06 -2.26912e-24)
(1.00003 -1.67142e-05 5.26457e-26)
(0.979687 0.00273788 -1.18055e-20)
(0.991934 -0.0126253 -1.60475e-22)
(0.999451 -0.000369346 -1.58878e-23)
(0.969608 -0.0545806 1.7819e-21)
(0.986513 -0.0112659 -3.06035e-22)
(1.00808 0.0815553 -1.78273e-20)
(1.00491 0.0783611 -3.7095e-21)
(0.979576 -0.0695976 6.94349e-22)
(0.918703 0.0270977 -1.08028e-20)
(0.998999 -0.000293213 -4.28094e-23)
(0.991051 -0.00137894 1.77086e-22)
(0.955152 -0.00797157 7.2458e-22)
(1.03264 0.000441188 -7.88442e-22)
(1.01511 -0.152833 -3.93744e-22)
(1.09253 0.140912 -9.74358e-21)
(0.942623 0.0458933 -2.47665e-20)
(1.00005 -8.89852e-05 7.77172e-26)
(1.00911 -0.00719155 9.70393e-23)
(1.02686 0.0200886 7.51508e-21)
(0.996105 -0.00533137 -2.64548e-22)
(1.03169 0.0180741 -9.39821e-22)
(0.999478 -0.0010853 -8.92777e-24)
(0.907218 0.0639957 2.00596e-20)
(0.999077 0.0798773 3.53089e-21)
(0.994774 -0.0014364 1.6751e-22)
(1.00311 -0.00817971 -1.05623e-24)
(0.99977 -3.21481e-05 -1.54689e-23)
(1.13049 0.112152 1.86036e-21)
(0.999953 -4.68198e-06 6.28995e-25)
(0.994362 -0.0101773 1.42638e-22)
(0.932792 -0.0217534 1.2189e-21)
(0.999941 -1.55988e-05 -1.60246e-25)
(0.998711 -0.00255606 -2.87597e-23)
(0.999582 -0.00105767 1.20846e-23)
(1.06695 0.0502558 5.46641e-21)
(0.999983 -1.86704e-05 4.71459e-25)
(0.997482 -0.000168954 -1.91302e-25)
(0.947426 -0.0451628 4.27401e-21)
(0.943727 0.00701691 -6.09795e-21)
(1.07987 -0.00454746 -3.79031e-22)
(0.92861 0.0388819 1.47625e-20)
(0.99997 -3.19825e-06 -2.54174e-25)
(1.00235 -0.0485776 -1.03545e-23)
(0.999829 -0.00025414 -7.19595e-24)
(0.991719 0.0875886 -1.62722e-20)
(1.00359 -0.000782888 -7.73475e-23)
(0.994704 0.0239126 7.05802e-21)
(1.00225 -0.00982172 8.72245e-23)
(1.00062 -0.00192159 3.32871e-24)
(1.03091 -0.0356896 4.31727e-22)
(1.02313 -0.000886858 -3.5443e-21)
(1.00049 -0.000301045 7.04383e-24)
(0.999827 -2.77627e-05 1.10293e-25)
(1.00043 -0.000404481 1.39519e-23)
(0.995886 -0.00567112 -2.44647e-22)
(1.01907 -0.0750392 2.67445e-21)
(0.999968 -4.96737e-06 1.57833e-25)
(0.955378 -0.0274929 8.75531e-22)
(0.996685 -0.000697013 -8.58148e-24)
(0.999885 -2.66797e-05 1.5335e-24)
(0.999424 -0.000471886 5.36087e-24)
(0.986836 0.0478102 1.72706e-20)
(0.995821 -0.000230829 6.33367e-23)
(0.999539 -3.81819e-05 -3.61777e-24)
(0.968998 0.00172231 2.25546e-20)
(0.998575 -0.00243573 -6.01194e-23)
(1.05502 0.106333 -5.57007e-21)
(0.999812 -0.000231517 1.15205e-23)
(1.00731 -0.0231288 -2.85987e-22)
(1.00001 -1.6708e-06 -5.70175e-28)
(0.978512 -0.0368369 -8.03321e-22)
(1.03201 -5.25119e-05 1.24874e-21)
(1.18602 0.0139928 2.25007e-21)
(0.975213 -0.0184362 1.14789e-21)
(0.999613 -0.000510236 2.48727e-23)
(0.973125 -0.0912752 1.23046e-21)
(0.997579 -0.00010679 2.89991e-22)
(0.999912 -8.23672e-06 5.35161e-26)
(1.00041 -0.0003549 -1.23093e-23)
(0.997894 -0.00320165 9.06042e-23)
(0.994098 -0.000665825 -1.97424e-22)
(1.00269 -0.000912698 -8.27905e-23)
(0.998795 -0.00171473 3.54436e-23)
(0.975599 -0.00624609 1.33126e-22)
(1.02444 -0.0722881 -1.89706e-21)
(0.97698 -0.00482049 5.40791e-22)
(1.15282 -0.0317707 -2.29389e-22)
(0.972003 -0.00457065 -6.81426e-22)
(1.00664 0.106094 1.8529e-21)
(1.00175 0.108359 -1.3601e-20)
(0.998618 -0.000583539 -4.27993e-23)
(1.2099 0.0134373 -5.08389e-21)
(0.999988 -1.81154e-06 2.25915e-28)
(0.997787 -0.00402115 -1.16952e-22)
(0.990145 -0.000494562 1.14442e-21)
(1.0072 0.0263477 3.9689e-21)
(1.04038 0.0119163 -3.43493e-21)
(1.00008 -2.73196e-05 8.80752e-25)
(0.997937 -0.00379137 -9.90822e-24)
(0.971116 -0.00559823 5.13675e-22)
(1.05122 0.0428818 -2.21873e-21)
(0.999051 -0.00103433 2.73398e-23)
(1.00311 -0.000734392 5.03155e-23)
(1.00108 -0.000944398 -2.94966e-24)
(1.13192 0.0298756 1.07075e-21)
(1.23398 -0.0479837 -5.25444e-21)
(1.02574 0.132902 8.85728e-21)
(0.998891 -0.000113077 -3.43396e-23)
(1.06902 -0.0435753 1.91784e-21)
(0.999903 -4.95139e-05 -1.51646e-24)
(1.00434 -0.00725137 -1.09064e-22)
(0.999958 -7.75071e-06 -1.16312e-25)
(0.983222 -0.0209534 2.20321e-22)
(0.999733 -3.9581e-05 -3.06282e-24)
(1.01211 -0.0228738 2.9577e-23)
(1.23408 0.0175567 5.36161e-21)
(0.968715 -0.0273302 1.51341e-21)
(1.00862 -0.0225242 6.58682e-23)
(1.00812 -0.00643753 -1.15908e-22)
(0.999476 -5.67449e-05 1.72012e-23)
(1.02717 -0.0182696 2.74774e-22)
(0.995588 -0.0192953 3.21042e-22)
(1.0805 0.0134439 -1.10959e-21)
(1.06165 0.0476714 2.45754e-21)
(1.19789 -0.137473 1.5937e-22)
(1.15822 -0.0511742 -2.84014e-21)
(0.995507 -0.000162402 -3.18598e-22)
(1.0047 -0.00360759 1.60552e-22)
(0.935726 -0.0204952 -4.52029e-22)
(0.923172 0.0568953 -3.02651e-20)
(1.13635 -0.0537213 3.48803e-21)
(1.02742 -0.0109947 -1.3659e-21)
(0.918763 0.0320109 -1.49205e-20)
(0.99906 -6.00561e-05 1.69266e-23)
(0.998369 -0.000731414 -1.38719e-23)
(1.17657 -0.0360221 -2.79774e-21)
(0.998918 -0.0018831 -2.465e-23)
(1.01213 -0.0457159 2.74474e-22)
(1.00545 -0.00172519 6.08607e-23)
(0.998081 -0.000177315 -2.74423e-23)
(0.998522 -0.000159714 -4.38377e-23)
(1.03203 0.0261041 4.45277e-21)
(0.999937 -0.00012391 -5.33353e-25)
(1.00047 -0.000248234 -6.30318e-24)
(1.00007 -1.08094e-05 5.34682e-25)
(0.997314 -0.000339841 1.55571e-22)
(0.993219 -0.00873606 3.42222e-22)
(0.999988 -1.11593e-06 1.03068e-26)
(0.9991 -0.000140719 4.41177e-24)
(0.976462 -0.0158868 3.85694e-22)
(0.9707 0.00602743 7.46501e-21)
(1.01057 -0.0237583 2.23646e-22)
(0.992048 -0.0117735 6.04322e-22)
(0.959031 0.0490936 3.40651e-21)
(1.00038 0.0216656 1.08316e-20)
(1.06958 0.00152476 -8.36325e-22)
(1.20028 0.0192091 1.68861e-21)
(0.98111 -0.00115496 9.83314e-22)
(1.00464 -0.00418362 -7.64119e-23)
(1.00781 0.0429422 -6.06632e-22)
(0.991195 -0.00104193 -4.01913e-22)
(1.03393 0.103502 2.43966e-22)
(1.00782 -0.0546756 4.37413e-23)
(1.04331 -0.133892 -1.62626e-21)
(1.08652 0.0903373 3.42158e-21)
(1.03609 0.109957 -7.52615e-21)
(0.957958 -0.0228846 1.82884e-21)
(1.04141 0.00981008 -2.15289e-21)
(1.09812 0.146384 9.11902e-21)
(1.0485 0.106255 1.06886e-20)
(1.0242 -0.00214687 1.19395e-21)
(0.997117 -0.00111571 4.19106e-23)
(0.995904 -0.00178451 3.96435e-23)
(0.999928 -1.46555e-05 -4.01738e-25)
(1.01698 -0.0297939 -1.35794e-22)
(0.991973 -0.000808358 9.27806e-23)
(1.00085 -0.00223686 -7.12141e-24)
(0.999919 -1.24788e-05 -8.53453e-25)
(0.998517 -0.00051097 1.69515e-23)
(0.969755 -0.0896764 -2.05099e-21)
(1.11337 0.0416414 9.37301e-22)
(0.982785 -0.00401041 -6.24253e-22)
(0.998687 -0.0124432 4.12939e-22)
(0.997016 -0.000371297 -9.25128e-23)
(1.0658 -0.0467247 -1.20949e-22)
(0.994135 -0.000770414 -3.19375e-22)
(1.00206 -0.00730252 -4.7615e-24)
(1.11277 0.139438 1.46556e-21)
(0.998625 -0.000165685 -1.02428e-22)
(0.99998 -3.70907e-05 -5.63276e-25)
(0.999946 -0.000152345 -4.78363e-25)
(1.00004 -9.0566e-05 -3.52984e-25)
(0.978278 -0.00539758 3.00464e-22)
(1.03046 0.0238989 -5.20593e-21)
(0.997317 -0.000200165 3.5765e-24)
(1.02314 -0.00959195 8.8667e-22)
(1.0257 -0.159368 3.0945e-21)
(0.988381 0.0757432 -2.66792e-22)
(1.0036 -0.00737892 2.7111e-23)
(1.00626 -0.00467219 -3.08375e-23)
(0.994986 -0.00196166 -1.37549e-22)
(0.99148 0.0478386 -1.68985e-20)
(0.999345 -5.26933e-05 1.21364e-23)
(1.02956 0.137984 -4.46517e-21)
(1.00766 0.0185199 -6.08101e-21)
(0.999908 -1.68243e-05 1.07595e-24)
(1.00534 -0.0556597 -1.22637e-21)
(0.99719 -0.000413382 -7.56067e-23)
(0.987204 -0.0690997 3.29523e-21)
(1.00049 -0.00013455 6.55875e-24)
(1.06442 0.00416483 1.23426e-21)
(1.00671 -0.0167083 3.97252e-24)
(1.00585 -0.00425801 6.06091e-24)
(0.999352 -7.52555e-05 -2.43924e-23)
(1.07222 0.0477099 2.56496e-21)
(1.04665 0.0408883 8.72328e-22)
(1.00814 -0.0754079 2.00806e-21)
(0.976976 -0.0192929 -7.37481e-23)
(0.997767 -0.00342707 -7.5076e-23)
(0.998946 -0.0438447 -2.2039e-21)
(1.15298 0.0626017 -1.29983e-21)
(0.922208 0.0170634 -1.36637e-20)
(1.09765 -0.0845291 -2.26811e-21)
(1.00483 -0.00786871 -2.14557e-24)
(0.999994 -2.76221e-06 -5.30349e-27)
(0.98674 -0.00343305 -4.85641e-22)
(0.998355 -0.000177674 9.93184e-23)
(1.02579 -0.0185443 3.73458e-22)
(1.00406 -0.126646 -1.21067e-21)
(1.2094 -0.000842539 2.13572e-21)
(0.979082 0.0687344 -2.15143e-20)
(1.0555 0.0397704 3.54735e-21)
(1.14046 -0.116839 3.35906e-21)
(1.07244 0.0895784 1.51144e-21)
(0.998925 0.0211868 1.97867e-20)
(1.01897 -0.0024763 7.91679e-22)
(1.00105 -0.00217736 2.04966e-23)
(1.0216 0.0605008 3.56326e-21)
(0.999107 -0.00184391 5.19963e-23)
(0.999836 -0.000133278 2.23017e-24)
(0.990455 -0.000556466 1.32391e-22)
(1.00007 -2.71669e-05 1.50763e-25)
(1.1513 -0.139253 1.73056e-21)
(1.00339 -0.018469 -2.17001e-22)
(0.981043 -0.0363942 1.43009e-21)
(1.0017 -0.00149794 1.85522e-23)
(1.06703 0.0786975 7.97706e-21)
(0.998672 -0.000153973 -7.30362e-24)
(0.999978 -2.91731e-05 -3.10228e-26)
(1.03484 -0.140437 1.74834e-21)
(1.0015 -0.00129965 -1.09123e-23)
(1.11373 -0.00260486 -2.63439e-22)
(0.956377 -0.00894238 2.97077e-22)
(0.944981 -0.00955594 6.97543e-23)
(1.21164 0.0652888 1.71821e-22)
(1.0243 0.019156 -1.9683e-21)
(1.02077 0.00562355 1.19179e-21)
(1.01941 0.00530451 -4.61559e-22)
(0.999846 -2.05029e-05 5.18813e-25)
(1.1221 0.0411303 6.75246e-22)
(1.08082 0.0179959 1.26265e-21)
(0.999504 -0.00054529 9.50139e-24)
(0.983121 -0.00465686 7.15777e-22)
(1.00053 -0.000190183 -7.31887e-24)
(1.01206 -0.0209698 9.721e-23)
(1.00846 -0.0302815 -1.63116e-22)
(1.00417 -0.00134141 7.85125e-25)
(0.999242 -0.00112871 -5.02366e-23)
(1.12899 0.103377 -5.83695e-21)
(0.999981 -1.6781e-05 -4.59992e-25)
(1.00017 -9.8867e-05 -1.25432e-24)
(1.00178 -0.00102093 -1.1047e-24)
(0.985797 -0.00120509 4.40045e-22)
(1.01927 -0.0115157 5.35446e-22)
(0.980569 -0.0299483 -1.86461e-21)
(0.979982 -0.00235886 -2.58208e-22)
(1.01469 -0.0711385 1.20316e-21)
(1.051 -0.170038 -3.41961e-21)
(1.02877 -0.0326755 -1.69341e-22)
(1.02574 0.0616459 -2.03542e-20)
(1.22382 0.0236013 -3.56731e-21)
(0.993588 -0.00185432 -2.25046e-23)
(0.906477 0.0568842 2.36692e-20)
(0.968582 -0.0624607 3.09996e-21)
(0.992843 -0.00929025 1.10658e-22)
(0.982303 -0.00183592 4.37265e-22)
(0.996855 -0.0186363 -8.09088e-23)
(0.988782 -0.00089274 6.39321e-22)
(0.990053 -0.00279747 -1.37752e-22)
(1.0278 -0.0128533 -8.70773e-22)
(1.14605 -0.0574661 -8.18859e-22)
(0.999977 -3.41004e-05 -7.77822e-26)
(1.02374 -0.0126286 -1.17859e-22)
(0.999922 -1.83409e-05 -5.49101e-25)
(1.00155 0.0901479 4.29412e-21)
(1.15381 0.0883414 3.01892e-21)
(0.995382 -0.00140214 4.52778e-23)
(0.991791 -0.000595734 -5.41684e-22)
(0.999848 -3.16407e-05 -3.42018e-24)
(0.997541 0.0429003 1.25303e-20)
(1.02226 0.106997 1.00824e-20)
(1.12514 0.031959 -5.32939e-22)
(1.13586 0.132484 -4.90219e-21)
(0.968314 -0.0668757 -1.41748e-21)
(0.998846 0.00486559 -1.83343e-20)
(0.999942 -0.000109521 1.34135e-24)
(1.05126 -0.027604 2.06971e-22)
(0.99245 -0.00048266 -1.567e-23)
(1.09527 0.0771041 -1.4801e-21)
(0.937193 0.0380836 -1.78147e-20)
(1.15739 0.0549599 6.73122e-22)
(1.04992 0.0326548 5.97026e-22)
(0.999409 -0.012343 -1.01613e-22)
(0.999826 -5.63593e-05 -3.54519e-24)
(1.13866 0.115724 1.9451e-21)
(1.21994 -0.0259229 1.0168e-21)
(0.993447 0.0516375 -3.97642e-22)
(1.10572 -0.00428032 4.08983e-22)
(1.02955 0.0499203 5.91211e-21)
(0.993356 -0.00153281 -6.42295e-23)
(0.985702 0.070165 5.89978e-21)
(1.02738 0.102021 3.488e-21)
(0.991272 -0.00233187 -3.8476e-22)
(0.992664 -0.00224631 -1.45577e-22)
(1.15067 0.104586 2.56261e-23)
(0.947277 -0.00854104 -1.70441e-21)
(0.999922 -0.000126799 -2.06305e-24)
(0.987147 -0.00391727 6.40425e-22)
(0.937012 -0.0149271 1.42467e-21)
(0.983447 -0.0878449 -4.33118e-22)
(1.00929 -0.00240842 -5.72142e-22)
(1.00815 -0.00584464 2.70532e-23)
(0.999885 -0.000157767 -3.58769e-24)
(1.02385 0.113484 -1.52749e-20)
(0.999795 -0.0112113 1.92233e-23)
(0.999912 -4.27889e-05 6.55487e-25)
(1.02406 -0.0658841 1.74321e-21)
(0.999545 -0.000343182 6.76627e-24)
(0.999813 -4.63608e-05 2.74585e-25)
(1.00484 -0.0121477 6.4765e-24)
(1.0546 0.077774 1.11183e-20)
(1.02362 -0.124472 2.36174e-21)
(0.951936 0.0431946 1.05645e-20)
(1.00005 -7.80814e-06 -3.63501e-25)
(1.06017 0.0822003 -1.15425e-20)
(1.01525 -0.055952 1.18616e-21)
(0.999926 -0.000158772 -5.87505e-25)
(1.00002 -5.22766e-06 -3.06619e-26)
(1.00235 0.0100622 -9.96572e-22)
(1.05077 0.0666831 4.12534e-21)
(0.996174 -0.00193698 4.19898e-23)
(1.04709 0.0515615 -5.20288e-21)
(1.00002 -1.6817e-05 2.87128e-26)
(1.04679 0.0572246 -7.26191e-21)
(1.18154 -0.142015 4.43622e-21)
(0.991059 -0.00193804 4.08684e-22)
(0.99926 0.0095172 -2.542e-20)
(0.97028 -0.0509218 2.00594e-21)
(1.14046 0.125649 4.61822e-21)
(0.982553 -0.00171961 2.27339e-22)
(1.05151 0.0607372 9.50394e-21)
(1.05578 0.0706318 -2.98703e-21)
(0.983367 -0.00640431 1.1276e-21)
(0.978096 -0.00765511 -8.26197e-22)
(0.994543 -0.00942681 3.54437e-22)
(0.997572 -0.000430941 -2.78301e-23)
(0.999821 -0.00014855 5.86801e-24)
(0.999575 -0.0106961 -3.41234e-23)
(1.03875 0.0977444 -1.75921e-21)
(0.999976 -2.62276e-05 1.48898e-25)
(1.04254 0.0489188 6.89489e-21)
(1.04139 -0.123271 3.95048e-21)
(1.00284 0.0579859 5.0038e-21)
(1.0425 0.044089 -7.78888e-21)
(0.938013 -0.0130378 -2.31367e-22)
(0.953689 0.0615879 -2.26168e-20)
(0.998529 -0.000925993 1.74065e-24)
(1.01661 -0.0272968 -8.05862e-23)
(1.06184 -0.0856809 1.16653e-21)
(0.989148 -0.000743906 -4.71421e-23)
(0.993823 -0.00256845 1.96238e-22)
(1.01208 -0.057534 -9.96162e-22)
(1.05842 -0.018064 -3.38342e-23)
(0.927206 0.0293086 2.77187e-20)
(1.00003 -1.56351e-05 2.60013e-25)
(0.998262 -0.00097412 3.46261e-23)
(1.0215 -0.0854733 7.30369e-23)
(1.00001 -4.11579e-06 -7.13633e-27)
(1.00121 0.0966725 2.13301e-21)
(1.00153 -0.00112625 0)
(1.00001 -5.60324e-06 -7.66052e-27)
(1.00016 -7.63189e-05 2.83358e-24)
(1.00033 -0.000110051 7.79009e-26)
(0.983677 -0.0194676 1.14853e-21)
(1.02336 -0.0174401 -2.62138e-22)
(0.998613 -0.000697163 5.25109e-23)
(0.999939 -8.54366e-06 8.56397e-25)
(0.993462 -0.0023155 1.01744e-22)
(1.00416 -0.0126531 3.20284e-23)
(0.989691 -0.135821 -3.2683e-21)
(0.971851 -0.00210348 1.1553e-22)
(1.01853 -0.0102684 1.03514e-21)
(0.999986 -1.01975e-06 7.13354e-26)
(1.12868 -0.172384 5.16089e-21)
(0.988208 -0.00230628 -2.40006e-22)
(1.13637 0.095455 -2.61655e-22)
(1.00013 0.00850754 -3.56309e-21)
(1.00104 -0.00330737 -1.08171e-24)
(1.1232 0.0835217 -5.1646e-21)
(1.00012 -8.14581e-05 4.50063e-26)
(0.988343 -0.00282339 2.08893e-24)
(1.02333 0.000822347 -2.28042e-21)
(0.9938 -0.00303153 -8.05914e-23)
(1.05527 0.0926115 -6.4609e-22)
(0.987573 -0.00523821 -5.04393e-22)
(1.05274 -0.0246029 -3.46666e-22)
(1.02366 0.00145929 -2.47847e-21)
(1.06105 0.0421514 -1.54455e-21)
(1.00705 -0.0153018 6.22841e-24)
(0.990441 -0.003173 1.11215e-23)
(1.08029 0.0786284 4.77494e-21)
(0.974704 -0.0972171 -2.56596e-21)
(0.989237 0.0929139 1.78818e-20)
(0.991426 -0.00388338 -4.84904e-22)
(1.05699 0.120021 -1.30889e-22)
(0.991488 -0.00327453 1.30508e-22)
(0.998992 -0.000372967 -3.58129e-24)
(1.04959 0.0291592 1.66539e-21)
(1.01504 -0.0313159 1.98068e-22)
(1.03653 0.00341086 3.30041e-21)
(1.0016 -0.000778643 1.27441e-23)
(1.00001 -4.53239e-06 -3.57243e-27)
(1.00672 -0.156456 1.25357e-21)
(1.11089 0.132332 -7.68441e-21)
(1.00127 -0.00321512 -5.85843e-24)
(1.13302 0.0857473 4.25888e-22)
(0.988309 -0.00486228 -3.32499e-22)
(1.11823 -0.182199 -2.06894e-21)
(1.0505 -0.0431759 -2.20914e-22)
(0.979986 -0.0320579 1.07699e-21)
(0.998505 -0.000783114 -2.3383e-23)
(0.994955 -0.000363073 -7.41274e-23)
(0.967126 -0.0812623 -1.39324e-21)
(0.972584 -0.00606965 1.08028e-21)
(0.99105 -0.00292483 3.20962e-22)
(0.999858 -0.00037505 4.95562e-24)
(0.980821 0.0972337 -2.26581e-21)
(1.12008 0.0745224 3.03993e-21)
(1.02446 -0.0106393 -3.55954e-22)
(0.999831 -0.000112402 3.52237e-24)
(1.02553 0.095737 -6.70495e-21)
(1 -1.95128e-05 -1.02142e-25)
(0.999845 -9.97432e-05 6.43818e-24)
(1.11079 0.0727198 2.72156e-21)
(1.01028 -0.0259649 -2.08608e-22)
(1.1212 0.119482 5.94523e-21)
(1.02318 -0.00265902 8.82281e-22)
(1.01677 -0.0128282 -3.88731e-23)
(1.10742 -0.0680596 1.55379e-21)
(1.07095 -0.152839 4.01735e-21)
(1.21213 0.0568222 8.98831e-22)
(1.00109 -0.000792706 -2.59292e-23)
(0.955709 -0.0107012 -9.03419e-23)
(0.999983 -4.6141e-05 -1.90558e-25)
(1.00452 -0.0109745 -4.14686e-25)
(1.05991 0.0887187 4.20325e-21)
(0.984327 -0.00598094 7.79592e-22)
(0.997489 -0.00112435 4.818e-23)
(1.01545 -0.0440971 -8.62404e-22)
(0.998244 -0.000835159 1.97692e-24)
(0.999609 -0.00094877 1.64376e-23)
(0.970463 0.00304249 4.66771e-21)
(0.990874 -0.00419482 -2.76088e-22)
(0.9995 -0.000598427 -3.22737e-23)
(0.999994 -2.35216e-07 2.13367e-26)
(1.01634 0.00657664 5.23039e-21)
(0.969793 -0.0253161 -2.01866e-22)
(0.999702 -0.000453816 1.02176e-23)
(0.997612 -0.000554946 5.67536e-23)
(1.02216 0.0211388 2.17461e-21)
(1.06935 0.0128226 3.42275e-22)
(0.95834 -0.0201954 -1.15221e-21)
(1 -1.23226e-05 -1.15955e-25)
(1.00091 0.00944889 1.45494e-20)
(0.985285 -0.0167004 -7.62745e-22)
(1.06736 0.0717539 -7.91278e-21)
(1.01215 -0.00120165 -9.49666e-22)
(1.01413 -0.001252 2.23113e-21)
(0.969432 -0.00828748 1.51673e-21)
(0.999921 -4.65158e-05 -4.45518e-25)
(1.02303 0.000384985 -4.81875e-22)
(1.07475 0.010286 -3.77683e-22)
(1.18878 0.0618603 -1.36436e-22)
(1.04882 -0.116401 9.29831e-22)
(1.03597 0.0916506 5.20872e-21)
(1.00516 -0.00161759 -1.38811e-23)
(1.08735 0.0829659 -6.56915e-21)
(0.999394 -0.0145584 -1.55281e-22)
(1.01933 -0.0632064 -2.75458e-21)
(0.999674 -0.000111562 -6.12044e-24)
(1.00267 -0.0197464 4.34365e-22)
(0.999896 -0.000360409 3.31066e-24)
(1.04569 0.0355606 -5.04179e-21)
(1.07711 0.130949 -1.52552e-20)
(0.998663 -0.00096816 1.82893e-23)
(1.01828 -0.0129974 -2.7045e-23)
(0.984956 -0.00270678 2.57283e-22)
(1.05237 -0.100082 4.62885e-22)
(1.0461 -0.107182 -1.97882e-21)
(0.998351 -0.000627241 3.35199e-23)
(1.04764 -0.0284093 4.53956e-24)
(0.987548 0.00132379 -7.7351e-21)
(1.18529 0.0422094 -7.60506e-22)
(0.99995 -0.000135198 3.52795e-24)
(1.06452 0.00969444 -1.16706e-21)
(0.996837 -0.0086575 -1.98289e-22)
(0.999193 0.00091197 1.69062e-20)
(0.988445 -0.0040658 4.44668e-22)
(0.994703 -0.0276509 -2.98325e-22)
(1.01822 -0.0387937 -2.9316e-24)
(0.993148 -0.0285991 -1.92257e-23)
(0.997726 -0.021777 -7.58594e-22)
(0.993 -0.00252107 6.91891e-23)
(0.998488 -0.0143839 4.18573e-22)
(1.00159 -0.00611954 6.66346e-25)
(1.0601 -0.0219874 1.26575e-22)
(1.00008 -2.00426e-05 -1.28025e-24)
(1.22111 -0.0951159 -2.04754e-21)
(1.17103 -0.00176818 -8.18856e-22)
(1.0111 0.108785 1.25525e-20)
(0.960661 -0.0190691 1.68359e-21)
(1.1118 0.114595 -3.05605e-21)
(1.0017 -0.000604664 4.91318e-23)
(1.08034 -0.0830551 7.10123e-26)
(1.00394 -0.0415545 -8.88035e-22)
(1.01859 0.0364078 6.479e-21)
(0.993383 -0.00328967 1.98233e-22)
(1.00008 -0.00015619 3.80016e-25)
(0.985948 -0.017564 1.00328e-21)
(0.995409 -0.0092053 -1.35282e-22)
(1.04436 -0.0257818 3.47435e-22)
(0.976181 -0.00415225 -8.69784e-22)
(0.977361 -0.0067907 2.83025e-22)
(1.13953 -0.0334238 -4.67909e-22)
(0.98871 -0.00155172 -3.84339e-22)
(1.01538 -0.0406664 6.51108e-22)
(0.98552 -0.0936304 1.94333e-21)
(1.00001 -6.49285e-06 -6.83799e-27)
(1.06144 -0.013654 1.12147e-21)
(0.987681 -0.0830513 -5.12187e-21)
(1.11848 0.099694 2.58831e-21)
(1.10846 -0.0762667 -2.81986e-21)
(1.03491 0.00289658 2.63325e-22)
(1.032 -0.119398 -4.94382e-21)
(1.03292 0.122399 3.29803e-21)
(1.03717 -0.0381377 -4.18623e-22)
(0.96923 -0.007148 -8.92073e-22)
(1.01532 -0.0517963 -1.49589e-21)
(0.990663 0.00184583 7.4341e-21)
(1.1811 -0.103753 1.32697e-21)
(0.987947 -0.00360015 -1.39905e-22)
(1.03611 -0.152268 -3.76582e-22)
(1.02963 -0.0749017 1.99134e-21)
(1.05429 -0.137706 -6.37399e-22)
(1.04898 -0.0919724 -2.25509e-21)
(1.08004 0.0713608 5.98297e-21)
(0.997491 -0.00133606 2.71956e-24)
(1.00675 0.0404369 2.43382e-21)
(1.00706 -0.00157474 9.60795e-23)
(0.999647 -0.000456271 -1.36055e-23)
(0.998849 -0.00209285 1.38788e-22)
(1.06009 0.00244066 -3.281e-22)
(0.987545 0.000216196 2.18722e-22)
(1.00122 -0.00654357 -2.42062e-23)
(1.01933 -0.0584278 3.83093e-22)
(1.02226 0.0242043 -3.62205e-21)
(1.00002 -5.93625e-06 -8.76187e-27)
(0.979287 -0.00717169 6.50184e-22)
(1.02173 -0.00986137 7.61849e-22)
(1.08162 -0.0425932 -1.14544e-21)
(1.00719 -0.000785361 5.50241e-22)
(0.998502 -0.00183193 2.20616e-23)
(0.980594 -0.0420218 -5.21179e-24)
(0.997524 -0.00834043 -8.05624e-23)
(1.00003 -5.03085e-06 1.01575e-25)
(0.972986 -0.0499497 -3.41541e-21)
(1.04622 0.0859372 -1.77609e-21)
(1.02021 -0.0336603 2.03894e-22)
(0.984827 -0.00340429 -4.46325e-22)
(1.00154 -0.000415639 -1.72661e-23)
(1.02525 0.0260121 4.76259e-21)
(0.999645 -0.00056648 -6.44063e-24)
(0.99891 -0.000513915 -2.61944e-24)
(0.9997 -0.00012733 -6.13514e-24)
(0.999247 -0.00199543 -4.1388e-23)
(1.17521 0.0628294 6.20278e-22)
(1.02983 -0.0383692 -1.40851e-21)
(1.00747 -0.0194563 -1.11285e-22)
(0.982635 -0.00576439 -2.28348e-22)
(1.00003 -4.46225e-05 5.39649e-26)
(1.09369 -0.143183 5.60937e-21)
(1.22061 -0.00855967 5.13589e-23)
(1.10227 -0.154358 -2.67463e-21)
(0.995546 -0.0359188 -5.77447e-22)
(1.01308 -0.00948769 6.1519e-22)
(0.999825 -7.31333e-05 2.3303e-24)
(0.988319 -0.0109687 -3.56867e-22)
(0.949888 -0.0488068 -1.71898e-21)
(1.17383 0.0440696 3.97212e-22)
(1.00185 0.055746 -1.66059e-22)
(0.998806 -0.00303586 3.57474e-23)
(0.937519 -0.0286096 7.7403e-22)
(0.995611 -0.00232156 -1.82856e-22)
(1.03482 -0.0350869 2.81451e-22)
(1.09358 0.0688867 5.66055e-22)
(1.00035 -0.000124497 -9.28447e-24)
(0.99986 -0.000183111 -1.60834e-24)
(1.14832 0.111601 4.50713e-22)
(1.16916 0.0238187 4.25712e-22)
(1.01748 -0.0160695 1.89275e-22)
(0.997308 -0.00146207 8.90396e-23)
(0.998342 -0.000264217 -6.95945e-24)
(0.95834 -0.0508446 4.3371e-22)
(0.999839 -0.000308987 -5.93539e-24)
(1.01779 -0.0355915 -7.50325e-22)
(0.992971 -0.000455651 7.35672e-22)
(1.00026 0.0104528 -2.96018e-21)
(1.04997 0.0920071 -9.38031e-22)
(1.07389 -0.0767067 1.22561e-21)
(0.992715 -0.0837325 1.85706e-21)
(1.00585 -0.0014108 2.56678e-22)
(1.01425 -0.0262172 2.45339e-22)
(1.16091 0.00546879 -1.23093e-21)
(0.992085 -0.0942279 -1.18242e-21)
(1.01873 -0.0497943 8.77504e-22)
(0.999998 -6.24056e-06 2.31102e-26)
(1.14728 -0.0115678 -1.59349e-21)
(0.98702 -0.000807103 7.214e-23)
(0.990898 -0.105905 2.37379e-21)
(1.01957 -0.0308267 6.42109e-22)
(0.957869 -0.010223 -1.93767e-22)
(0.999653 -0.000242019 -3.76578e-24)
(0.997317 -0.00101825 -3.80668e-23)
(1.03829 0.04175 6.02849e-21)
(0.971136 -0.0077141 -3.19967e-22)
(0.999989 -1.52385e-06 3.56914e-26)
(0.997824 -0.000285017 -7.20981e-23)
(1.17595 -0.0874039 -7.13839e-21)