/*--------------------------------*- C++ -*----------------------------------*\
  =========                 |
  \\      /  F ield         | OpenFOAM: The Open Source CFD Toolbox
   \\    /   O peration     | Website:  https://openfoam.org
    \\  /    A nd           | Version:  7
     \\/     M anipulation  |
\*---------------------------------------------------------------------------*/
FoamFile
{
    version     2.0;
    format      ascii;
    class       volScalarField;
    location    "7.5";
    object      p;
}
// * * * * * * * * * * * * * * * * * * * * * * * * * * * * * * * * * * * * * //

dimensions      [0 2 -2 0 0 0 0];

internalField   nonuniform List<scalar> 
7807
(
0.504938
0.014283
0.639084
0.430613
-0.00216371
-7.33048e-05
0.624654
-0.0127807
-0.000294939
0.185062
-7.15848e-05
0.00479802
-0.0193981
0.0927113
0.191916
-0.0315711
0.519062
-0.0260218
-0.000378563
-0.163468
0.12844
0.00299722
0.0673339
0.336655
-0.0344128
0.514126
-0.00200274
0.114184
0.285751
0.00309806
-0.0426709
0.833612
0.0665056
-0.0010934
-0.000194594
0.151922
0.00363436
0.607516
-0.0138098
-0.00062943
-0.0129178
-0.0304021
-0.156233
-0.00745975
-0.000360926
-0.000159583
0.00298311
-0.0136218
-0.000142181
-0.160227
0.00746672
0.10817
-0.0440087
-0.013116
0.150951
-0.0118435
0.000126392
-0.0126604
-0.0647022
-0.00111604
3.05927e-05
0.00983984
0.0928679
0.00536005
-0.00196641
-0.0421247
-0.000258717
2.22554e-06
0.243119
-0.0126453
-0.000148513
-0.123566
-0.0334788
-0.0582442
-0.0253008
-0.094528
0.632554
0.125215
0.138072
-0.13267
-0.018796
0.547393
0.185244
-0.0630998
-0.00407768
-0.00487261
-0.0140675
-0.0429577
-0.00181789
-0.00988297
0.292558
0.00273087
-0.000265557
0.000390172
-0.00815053
-0.0566777
-0.118738
-0.00729996
-0.00436821
-0.00239403
-0.10776
0.15186
-0.00785031
-3.87731e-05
0.0241101
0.307331
0.721639
-0.0124148
-2.1445e-06
0.0621797
0.410117
-0.0944789
-4.24791e-06
0.0664736
0.306082
0.000686679
-0.0964662
0.24973
-0.0883458
-0.0601941
-0.108639
0.524957
-0.14754
0.0226695
-0.106137
-0.00257374
-0.0366468
0.00211677
-0.00205985
-0.0416653
-0.058654
0.13536
-0.00140496
-0.00207481
-0.0647512
0.396452
0.616765
-3.43289e-05
0.0178507
-0.140286
-0.054071
-0.107367
-0.0961524
-0.0556391
0.724215
-0.0446757
0.289034
-0.0642637
-0.0765108
0.524086
0.144502
0.00872558
-0.00393353
0.214384
0.183991
0.576539
-0.108713
-0.0189359
0.72843
-0.000128608
-0.00130055
0.346977
-4.88586e-05
-0.00661999
-0.00917528
0.419827
0.420768
0.753468
-0.0072302
-0.00672171
2.00635e-06
-0.106033
0.00067475
0.0259263
0.0194433
-0.0752696
0.0539903
0.314391
-0.00027164
-0.00122437
0.440921
-0.000122978
-0.000205157
0.632155
0.00627156
-0.0836632
-0.0832715
-0.0555988
-0.0515589
-0.137996
-5.07767e-05
-0.11336
0.328569
-0.00808846
7.07697e-05
0.375096
-0.00273622
-0.039053
-0.0503864
3.60471e-06
0.00149754
0.402244
0.370554
0.570803
-0.0854594
-0.0834987
-0.151039
0.124475
0.393361
-0.000380761
2.5656e-05
0.681994
-0.027231
-0.0014363
-0.108732
-0.0384421
0.534542
0.54029
-0.115213
0.807449
-0.00255645
-0.0253854
-0.109646
0.153019
-0.192863
0.461779
0.722224
3.2307e-05
0.0241882
0.264302
-0.0123835
0.24539
-0.0016604
0.805674
0.562763
-0.0137828
0.00419674
-0.000590131
0.339864
-0.000183054
-0.0196853
-0.139518
-0.00015343
-0.0041647
-0.00140408
0.302223
-5.34486e-05
-0.0102538
-0.128826
0.824567
0.12073
0.762435
-8.88939e-05
-0.0555133
-0.000505489
0.597187
0.00948091
0.61978
0.000344076
0.00113962
0.0101315
0.129813
0.00104116
-0.000442703
0.000891309
-0.0130397
-0.0813977
-8.48361e-05
-0.104656
-0.00882338
-0.000286625
-0.00155692
0.604844
-0.0182819
-0.00154994
0.758896
-0.00442575
0.462973
-0.000535847
-0.0047745
4.55964e-06
-0.0772898
0.1467
0.0726404
-0.0657555
-0.00108587
-0.143663
-0.0377306
-0.000343101
0.000855294
-0.00654168
-0.0180059
0.0066172
-0.00348411
-0.0600383
-0.0712749
-0.0584311
0.0127143
-0.0742891
0.578293
0.595499
-0.00359715
0.0402071
-1.6049e-05
-0.00727039
-0.0578683
0.328202
0.206326
0.000108058
-0.00666403
-0.0727099
0.305063
-0.00268755
0.00830207
0.00244277
0.158922
-0.0834973
0.57932
-0.00358464
0.015492
-0.000250811
0.00821739
-0.000110274
-0.0528973
-0.000684111
0.00598724
0.0110162
-0.0838842
-0.00108943
0.0212273
-0.00151348
0.0537368
-0.025886
0.170034
0.303239
-0.181643
-0.0248045
-0.0387415
0.0120207
-0.13494
0.76765
-0.0195479
0.083321
0.795249
-0.00342408
-0.00427976
-0.0109114
-0.00324444
-0.0376725
0.0156188
-0.00637335
-0.0046826
0.280361
-0.00020721
0.000988993
8.05824e-05
-0.00793486
-0.0215734
-1.86542e-05
-0.00241825
-0.0617296
0.689634
0.000562087
-0.0264821
0.68185
0.470498
0.143857
0.058246
-0.108441
0.0112757
0.408829
-0.0273865
0.505982
-0.0591449
-0.158608
0.369948
0.51356
-0.0976036
0.195224
0.463912
0.476812
0.122462
-0.00770724
-0.011013
-0.000184075
0.00213757
-0.0278468
0.00168484
-0.000215959
-0.00381903
-0.144415
0.210016
-0.0441732
-0.0109862
-0.00897838
0.00807185
-0.0172929
0.00211912
0.423249
-0.00426226
-7.49769e-05
-0.000197978
1.27903e-05
-0.0541608
0.272376
-0.00944815
0.075664
-0.200626
0.594452
0.00600314
0.0158962
-0.0133901
0.588321
-0.00225082
0.578372
0.294426
-0.000236018
-0.0639804
-0.00776848
-0.103743
0.00103076
0.155921
0.00379237
0.0147161
-0.00182063
0.282459
0.307521
-0.094117
-0.0630799
-0.00693725
-0.0533486
0.202674
0.822724
-0.06754
0.00929963
-3.68432e-06
-0.0343537
-0.00513244
0.0482438
-0.169076
0.0162551
0.622715
0.286522
-0.128887
0.392955
0.575069
0.0737531
0.00226064
0.436073
-0.00284486
-0.000433847
-0.0415489
9.62769e-05
-0.166881
-0.00665017
-0.0718966
0.00407314
0.377823
-0.00406471
-7.30129e-05
-0.17175
0.00363546
0.103708
-0.103321
-0.136181
0.122269
0.265844
0.219358
0.224975
-0.00040686
0.199435
0.183913
-0.00137844
-0.0429454
0.00111597
0.00986394
-0.0149954
0.0112451
-0.00225169
0.323814
-5.47597e-05
0.000279682
0.00425247
-0.0526687
0.0540701
-0.0663006
-0.0640407
-0.0778179
-0.201628
0.0154511
0.426521
0.0328836
-0.0169776
0.808476
-0.117577
-0.0227461
-0.0626618
-0.0222209
-0.0485364
-0.0260738
0.0754744
-0.0289513
-7.998e-05
0.0655602
-0.000200434
0.568524
0.25961
-0.0121495
-0.0329133
-0.000382434
0.547353
0.541434
0.17185
0.363816
-0.123897
0.628375
-0.000191785
0.0521979
-0.0428406
0.320447
0.739402
0.181079
0.2715
-0.00893677
-0.000429865
0.331029
-0.0330945
0.570412
0.104294
0.375353
-0.017605
0.600015
0.519029
-0.0229526
-0.0194028
0.290262
-0.139457
-0.000238952
-0.0332538
-0.138118
-0.131524
0.0279744
0.0220981
-0.00032709
0.549562
-0.00645634
-0.000228514
-0.0615414
-0.00118122
-0.000459954
0.00517921
0.399302
-0.154745
0.700597
6.33751e-05
0.399346
-0.0524099
-0.000238166
1.2269e-05
0.282613
0.379508
-0.0104503
0.34181
1.66757e-05
0.360279
-0.180375
-0.0237164
0.594282
-0.103757
0.345384
-0.0600222
0.360633
0.379379
-0.0424665
-0.0541342
-0.0186123
-0.00651999
-0.00048003
-0.00657873
0.48211
-7.65772e-05
0.342893
-0.144853
0.512093
0.326514
-0.140454
0.696739
-0.00395252
0.00682942
-0.0750274
-0.0477508
-0.0166566
-0.0592213
0.0835811
0.77233
3.81686e-05
-0.00465383
-0.0952712
2.34233e-06
0.580623
0.00374723
6.97135e-07
0.000269341
0.000614577
-0.0504552
0.0469643
-0.00364447
-0.000175229
-0.0174321
0.002544
-0.18802
-0.122382
0.0549518
-4.34781e-05
-0.20558
-0.0314139
0.292808
0.495859
0.00161962
0.290815
0.000191398
-0.0304644
0.167764
-0.0169607
0.432254
-0.0326661
0.0604333
0.174228
0.284714
0.00676845
-0.0251755
0.352065
-0.15245
0.610229
-0.0231154
0.487039
-0.022663
-0.00260133
0.258407
-0.00450593
0.169095
0.00393255
1.09492e-06
-0.203107
0.411473
0.00228301
0.279245
-0.0308288
-0.214924
0.0114021
-0.0692505
-0.00395711
-0.0192545
-0.139028
-0.0678126
-0.0235983
-0.000488493
0.63885
0.276648
0.0752016
-0.000438416
0.511447
-1.5551e-05
-0.000399442
0.286715
-0.00378235
0.369453
0.112745
0.0410466
-0.0375653
-0.182035
0.111261
0.00252209
-0.10152
-7.42869e-05
0.00601224
0.416848
-0.0402581
-0.00674783
-0.0293718
-0.0046349
-0.00129457
0.756471
-0.0245784
-0.00142112
-1.06119e-05
0.23998
-0.0799348
-0.000872913
-0.00628338
0.277809
0.178554
-0.0954444
-1.22562e-05
0.30006
-0.0449874
0.359275
0.0403911
0.0503686
-0.0729369
-0.000208914
0.169995
0.166097
0.154483
-0.130761
0.476574
0.0138642
0.349021
-0.0117567
-0.0609454
-0.00081593
-0.0101138
-0.000397691
0.290483
0.470542
-0.00362724
0.0465783
-0.0406958
-0.103226
-0.118146
-0.00427476
0.0472414
0.737472
0.120211
-0.000184747
0.173819
-0.0124246
0.643904
-0.0301827
-0.0375667
-0.0142748
-0.0420276
-0.0240709
-0.0186763
-0.013725
0.00148388
0.0713691
0.000117581
-0.135215
0.0559172
0.571496
-0.0912451
0.374023
0.00418658
-0.0643253
-0.0417899
0.347954
-0.0181097
8.48286e-05
-0.0444073
-0.0165063
0.0521442
-0.0632104
-0.055776
0.0215007
-0.0336135
-0.0228548
-0.138281
-2.46852e-07
0.0997422
-0.122191
0.332097
-0.054592
0.16748
-0.142164
0.543014
0.0110089
-0.074648
-0.0446201
0.670242
-0.121573
-0.0312833
-0.186495
-0.071884
-0.161661
-0.0915236
0.334476
-0.00684019
0.399129
0.0203083
-0.0009926
-0.00350543
0.152084
0.814658
0.000246099
-0.0525331
0.290813
1.56945e-05
-0.0515208
0.0684395
0.0199351
0.0206056
-0.00431437
-0.0796957
-0.0104203
2.21694e-05
-0.0990542
0.439039
-0.000322576
-0.0395736
0.003823
0.291444
-0.00103018
-0.00285934
-0.000760651
-0.00254252
0.174197
0.00133863
0.0017129
-0.0439338
3.01018e-05
-0.162385
-0.00700521
-0.181376
-0.0470884
0.0345361
-0.000439614
-0.034294
-0.128056
0.139631
0.513129
-0.00410911
-0.13178
-0.0120657
0.0160211
0.304906
0.000695851
-0.000395743
0.30759
0.107563
0.0344985
-0.00737755
-0.00457556
-0.118928
-0.000508353
-0.00833213
-0.0295945
0.446672
0.444347
-0.0543183
-0.117867
0.0166515
0.00407125
0.0783783
-0.133281
-0.0361157
-7.71015e-06
0.0579363
-0.0565592
-0.147896
0.00481953
-0.0976888
-0.000901221
-0.00714107
0.327592
-0.0695474
-9.28499e-06
-0.00622053
-0.0969441
-0.000329695
-0.0435698
-0.0001632
0.00549535
-0.181317
-0.0585225
-0.000114374
2.36307e-05
0.209907
-0.0977663
0.548032
0.468476
0.0414661
-0.0020939
-0.0370431
0.000300027
-0.0794824
-0.145261
0.0856008
-0.0393882
0.468778
0.015196
0.000298854
0.00823987
-0.157243
0.0039646
-0.0515466
-0.124061
-0.00249221
0.0380199
0.121824
0.0143059
-0.0581434
-0.0843279
0.30197
-0.060022
-1.57029e-06
-0.161103
-0.126755
-0.0688842
0.00494548
0.0013227
0.0131625
-0.178456
0.0591563
-0.0618286
0.272262
-0.0772844
0.0094908
0.0326051
0.0266982
-0.0644783
-0.100003
-0.000373012
0.237362
0.327843
0.0128975
0.414819
-0.12935
0.0832172
-0.0975101
0.317223
0.172193
0.773592
-9.87407e-07
0.185441
0.293856
0.0253483
-0.00265508
-0.0307684
0.0373438
2.16348e-05
-0.0339739
-0.104353
-0.0341327
-0.0406835
0.000147325
-0.0520209
-0.000812178
-0.00135422
0.3659
0.0082464
0.223586
0.0350218
0.321438
0.0162117
-0.00105679
-0.120787
0.0107297
0.530446
0.00177312
-0.109069
-0.000596871
-0.000901301
0.00795695
-0.0858135
-8.10057e-05
-0.0176887
0.0517808
-0.00296418
1.96712e-05
-0.000142646
0.243378
-0.0222688
0.00950824
-0.00174915
0.0126808
0.0268612
0.0120782
-0.00068273
0.567595
-0.0974836
0.342943
0.501673
-0.000319062
0.204328
0.205704
-0.00133162
-0.000547618
-0.00120281
0.0292465
0.0257528
-0.0305683
-0.0471609
-0.137984
0.275908
-0.143019
5.58492e-06
-0.0366754
-0.0399879
-0.0649344
-0.00703625
0.00800421
0.00172337
0.0491372
-0.000785696
-0.000634266
-0.0342829
-0.00786057
-0.0473525
-2.45952e-05
-0.0278073
0.0603166
-0.0103789
-0.0374072
-0.01553
-0.0212737
-0.0159258
-0.00911694
0.0112757
-0.0159851
-0.000188227
-0.000872751
0.0396994
-0.0214953
-0.00894518
0.0124698
1.52586e-06
-0.217835
-0.0206349
0.249375
-0.0215171
-0.110643
-0.0542015
-0.0433035
-0.0284641
-0.00646803
0.00239691
-0.00625804
-0.0236564
-0.0286448
0.324002
0.263221
0.096564
0.49622
-0.000118695
-0.0080994
-0.0284738
-0.0149808
0.199261
-0.0373311
0.0990274
-0.0100936
0.360545
-0.00359026
-0.00315269
0.0289813
-0.0434262
-0.000425877
-0.0503119
-0.0102112
-0.0375416
-4.18518e-05
-0.0114052
0.00279985
-0.033226
0.0646417
0.0623407
0.0324581
-0.0257099
-0.0600313
0.190278
-0.00264974
-0.00332151
-0.00346472
0.682425
-0.00029641
0.13668
-0.03742
-0.0387392
-0.0462744
-0.0899899
-0.0516137
-0.0648052
-0.0361732
-0.00856069
-0.000172404
-0.00727831
-0.0376832
0.167965
0.00240084
0.316828
-0.0629529
-0.0249398
-0.0013925
-0.0553443
-0.000174063
0.238
-0.0581437
-0.0498384
-0.0456362
-0.00986958
-0.0679094
-0.00267336
-0.0782055
0.17027
-0.0478777
-0.151808
-0.00233473
-0.0502483
-0.0351431
0.0257705
-0.00589476
0.228253
-0.00392196
-0.0325065
-0.00131961
0.25417
-0.0746707
-0.0479272
-0.00526748
-0.0183226
-0.00502477
0.337956
0.0337811
0.398074
-0.0109006
-0.00167099
-0.00201727
-0.00425446
0.356731
-0.123569
-0.0131363
0.000355622
-0.0204701
-0.028618
-0.00208501
-0.0360964
-0.0294948
0.0991955
-0.00874125
0.00258568
0.641047
-0.124161
-0.0504495
-0.116311
1.6831e-05
0.129416
-0.00614235
-0.0477026
-0.0106013
-0.0678348
0.00487804
-0.000947505
-0.00475369
0.00486432
0.309858
-0.00992122
-0.00310433
-0.00846166
-0.114585
-0.0151989
-0.0391285
0.00535964
-0.0154768
-0.015388
-0.00585589
0.320216
-0.0895327
0.00474788
-0.00700856
-0.0501872
-0.0239062
-0.0955495
-0.0027889
0.156308
0.0390538
-0.0147557
-0.00324788
-0.0264828
0.713129
0.312006
-0.0207427
-0.000885013
-0.00427759
0.00182685
-0.00741882
0.0352037
-0.000800416
-0.0401312
-0.0032675
-0.0302242
-0.013001
-0.00228945
-0.0274953
-0.00223816
0.47357
-0.013087
-0.0208435
0.00340589
-0.0030327
-0.0540431
0.198679
0.63835
-0.0203143
-0.0219701
-0.00338839
-0.00101949
-1.93206e-05
-8.43919e-06
-0.019052
-0.00115041
0.234183
-0.00143506
-0.00309274
0.0120387
-0.000398585
-0.0857905
-0.123499
0.0291583
0.068884
0.0453001
0.165889
-0.0809904
0.153579
0.118546
0.160675
0.200089
-0.0229657
-0.00155031
-0.0136227
-0.138276
-0.00585196
-0.0277323
0.132527
0.536125
-0.108722
-0.000770475
-0.000108417
-0.00227674
-1.4087e-05
0.0113549
-0.001122
-0.0109268
-0.0916456
0.000631495
0.00376848
-0.00035519
0.129181
-0.0277518
-0.0563739
-0.00266327
0.472765
0.487756
-0.0195271
-0.131725
-0.0516324
-0.0429739
-0.0273186
-0.00334144
-0.156313
-0.0720217
-0.0876664
-0.025136
-0.000167739
0.323062
-0.0354199
-0.0168639
-0.0665521
0.031179
-0.000902124
-0.0160164
-0.0021962
0.0189456
-0.00352719
0.311005
0.000373639
0.016441
-0.000609
-0.083226
0.0143067
-0.00196367
0.0167977
0.000370806
0.10381
0.21014
-0.00315775
-0.0024556
-0.000208434
-0.00097796
-0.000830056
-0.118825
0.20379
0.0802577
-0.000390661
0.0123508
-0.000838815
0.348176
-0.119156
0.417192
-0.0836547
-0.000691535
-0.000632545
-0.0140729
-0.00979903
-0.00132746
-2.85379e-05
0.0426794
0.0499451
-0.000360725
-0.00077536
-0.0364176
-3.36895e-05
0.266666
-0.00176945
-0.102136
-0.0359897
-0.0109791
-0.109062
-0.12543
0.241993
-0.043039
-0.0364478
-0.000484917
-0.108855
-0.0361981
0.0610547
0.239796
0.526396
-0.00181015
-0.116325
0.0184555
0.490677
0.0687945
-0.000190714
-0.0113858
-0.00696007
-0.00918177
-0.0813174
0.164004
6.81663e-05
0.031348
0.00305565
0.149855
-0.000833751
-0.000297024
-0.0854928
0.455161
-0.10448
0.26539
-0.00315515
-0.000326215
-4.48808e-06
-0.146622
-0.070354
-0.000692285
0.200144
0.0183825
-0.009755
0.575297
-0.000978922
-0.00726456
-0.118711
-0.0507815
-0.00371668
0.218449
-0.116673
-0.000242103
0.0176119
-0.000390921
-0.000183333
0.241001
-0.00437163
-0.000668931
-0.0935472
-0.0463734
-0.00565477
-0.0586327
0.00343008
-0.0400645
0.00210585
-0.00635972
-0.127065
-0.0727586
0.0334222
-0.00176486
0.261951
0.321806
-0.140707
0.0134767
0.0319267
-0.00798409
0.263664
0.197483
-0.04964
-0.000270733
0.0143595
-0.0976096
0.0165668
-0.0563633
-0.00387775
0.0843624
-0.0534646
-0.000205141
-0.000152702
-0.0667754
-0.0568335
-0.0464967
0.0142932
0.0463933
-0.0883808
-0.000327935
-0.00287596
-0.000426024
-0.0746317
-4.14993e-05
-0.00335565
-0.0932112
-0.176379
0.251249
-0.00542964
0.00632871
-0.0427101
-0.0466668
-0.000223387
-0.0788098
0.25431
0.250931
1.11077e-05
-0.000171955
0.255183
-0.004589
-0.168537
-0.0678997
0.00501743
0.000290437
-0.125202
-0.0297519
0.260957
-0.0998401
-0.0024337
-0.0246517
-0.110664
-0.00102065
-0.000356218
-0.00168269
0.00287392
-0.0948684
0.280671
-0.000328425
0.669801
0.0345375
4.37638e-05
-0.00224547
0.000162946
0.00020284
-3.47592e-05
8.02565e-05
-0.0959234
-0.00142451
0.000468779
-0.000298256
0.22707
-0.0100706
-0.000300357
-0.000118088
0.571335
-0.0415778
-0.0296993
0.0012461
-0.00124086
0.110365
-0.000190361
-0.031511
-0.128575
0.00313416
-0.015216
-0.00015908
-0.000342639
-0.0608631
-0.126285
0.0115487
-0.137324
-0.0933917
-4.50393e-05
0.0363181
0.0564199
0.180568
-0.00282541
-0.00025025
-0.111552
-0.0107806
-0.00110643
-0.0911416
-0.000227579
0.0740152
-0.00027735
-0.00196804
0.087602
-0.00512143
-0.111026
0.646323
-0.00325606
0.000267684
-0.115031
-0.117442
0.0136355
0.00719695
-0.000225356
-0.0585085
-0.00016164
0.306373
0.763676
0.176123
0.00448778
0.00527437
-4.0939e-05
-0.0556774
-0.000130772
-0.0195201
-0.00304716
0.000316997
-0.00558488
-0.0216074
-0.00018888
0.00103633
-0.0209537
-0.000488158
-0.0213901
-0.0317092
-0.0194301
-0.00273671
0.697255
-0.00171181
0.00354492
0.000222771
0.0230316
-0.0898766
0.0155045
-0.000293988
-0.000158346
0.00312016
-0.000199026
-9.11695e-05
-0.0257309
0.00082755
-4.04424e-05
-0.0979882
-0.00551963
-0.0994436
-0.00285699
-0.000107272
-0.00505717
-0.0234528
-0.0315955
-0.0544488
0.00332357
0.000519315
-0.000803632
-0.00303956
-0.000165102
0.427188
0.00213077
-3.64075e-05
0.000476358
-0.00379402
-0.000838753
-0.114016
-0.100139
-0.000322956
-0.0129896
-4.12384e-06
-0.00674446
-0.000119991
0.0614962
-0.000242429
-0.000423814
-0.00857416
-6.32109e-05
0.022405
-0.000376479
-0.00208558
0.0318555
-7.27082e-06
0.55727
-0.104566
-0.0800113
-5.70189e-05
-3.49513e-05
0.00246121
-0.00189132
-0.106489
-3.09516e-05
-1.32007e-05
0.000839089
-4.90606e-06
0.000393159
0.000494775
-0.000759345
0.000954253
-0.0967838
0.680941
-0.0750888
0.520954
0.0146435
-0.0368805
-3.64925e-05
-0.00130894
-0.0236385
9.13966e-05
0.00027788
0.000139202
0.146308
-0.00339696
-0.00052274
0.639795
-0.000731475
0.000525586
0.000566062
-8.49113e-06
0.163773
-0.00406714
0.00146262
7.18814e-05
-0.0015409
-0.000103647
-0.00253408
-0.0855375
-0.000641057
-0.00416126
-2.37728e-06
-0.0035214
-0.000360347
0.300276
-0.000704576
-0.000771549
-0.120074
0.00560241
-0.000239837
-0.00226969
-9.23744e-05
0.277118
-0.142549
-0.00093356
-0.000574169
-0.00516515
-0.000469342
0.102315
0.204276
0.086742
0.000380391
-1.15132e-05
-2.02733e-06
0.111123
0.000239899
-0.103305
-0.056203
-0.0324021
0.0812157
0.71209
0.00276858
0.342199
-0.0303254
-0.0571548
0.281536
-0.000507887
-0.126526
-2.65327e-05
-0.0172412
-0.084204
3.31764e-05
-0.107263
-0.00145975
-0.0182973
-0.0130797
-0.0728952
-0.0801066
-0.00821292
-0.125518
-0.0756935
-0.0002457
-0.0200611
-0.000151342
-0.0640786
-4.25471e-05
-0.000254286
0.0349066
0.267712
-9.63491e-07
-0.0892929
0.00512011
4.54963e-05
-0.045642
-7.05072e-06
-0.0223821
-0.000545458
-0.0657549
9.13254e-05
-0.000154348
-0.00449508
-0.000212958
0.261926
-0.0592584
0.168101
-9.69838e-05
0.00073231
-0.0544284
-1.83951e-06
-0.111589
-0.125251
-0.102032
0.678884
-0.0122707
-3.01016e-05
0.0446419
-0.0722164
-0.00636457
-0.00012951
-0.000144013
-0.0892693
7.84166e-05
0.00107729
-2.67217e-06
0.000101705
-0.047404
0.28085
-0.115326
0.1803
-0.009914
-2.20874e-06
0.00826368
-0.111916
-2.99857e-05
-2.63986e-05
0.000326139
4.15654e-05
0.00043624
0.441525
0.0622015
3.55094e-05
-4.54432e-06
-0.122916
0.323997
0.295787
-5.85923e-05
-0.0694547
-0.0422193
-0.0231995
-0.0883198
-0.0193556
-0.00503288
0.234581
-0.00010284
-0.0508134
0.277707
-0.095695
-7.38104e-05
-0.11184
-0.000273983
0.511724
0.0488865
-8.50884e-05
-6.24754e-05
0.312718
-4.79636e-07
-0.00030519
-0.0197192
-1.60213e-05
0.41683
0.00353363
-0.0121961
-0.11616
-0.00685177
-0.161333
0.299855
-0.0301327
-0.0280864
0.00123488
-4.86287e-05
-0.00210059
-5.59348e-05
-4.92499e-05
0.0452182
0.293559
0.247991
-0.000773378
0.38235
-0.0287974
-7.60562e-06
-0.0800166
-7.00245e-05
-0.0544136
0.0511272
-0.0318367
0.00603034
0.00255238
-0.0152752
0.000129455
-0.00299821
0.0329007
-0.00439901
-0.000126465
1.30078e-05
-9.82018e-05
0.0547517
2.34569e-05
-0.0499152
0.40197
-0.0119698
3.15706e-05
-0.0057198
-4.72714e-05
0.198897
-0.00046905
-0.000108801
-0.00011386
-3.04559e-05
0.336084
-0.00030265
0.399994
-0.131242
6.24552e-05
-0.107002
-0.00128338
0.257988
0.649568
-0.00206974
5.78551e-07
-1.0395e-05
-4.59276e-05
0.256508
-4.19287e-07
0.00121118
-0.0402261
0.376967
-4.54324e-06
-6.74399e-06
1.26792e-06
9.88744e-06
-0.0393993
-2.2469e-07
0.488165
-0.0348002
-0.000167003
1.49139e-05
-0.00314034
-0.0503459
6.30531e-07
-8.64406e-05
0.271437
1.68302e-05
-0.0621838
-0.105035
9.69337e-05
-1.1016e-07
-0.189438
3.54828e-07
0.28076
6.87185e-06
-0.000744759
-2.32638e-06
-0.000225107
0.160274
-5.44525e-06
-0.00282264
-1.12794e-05
0.0193025
-0.00655561
-0.0102956
-0.00137289
0.253688
-0.000719115
-0.000148934
-0.0146418
-0.0145261
-0.000319052
-0.000178645
-0.0016702
1.07367e-05
0.35053
-0.0222958
0.699075
-1.21008e-05
-0.0136921
-0.000443339
0.240028
2.75338e-05
-0.0536383
9.77537e-06
-0.0026539
-0.0642875
-0.000326337
-0.0299314
-0.0979274
0.00648504
-5.31835e-05
-0.125411
-0.000412596
-0.00087682
-0.00957534
-0.0352016
0.00146759
-0.000200181
-0.000698842
-0.00235929
-0.00210387
-1.09771e-05
-0.00192026
0.643406
6.77398e-05
-0.00521058
-0.0674146
-0.126949
-0.123813
-0.083521
-0.0421606
-0.00144851
-0.0384336
4.8461e-05
-0.000141564
0.665952
-0.000144393
0.322711
-0.000567153
0.000356412
-0.00174031
-0.115419
-0.000645544
-0.00122238
-4.5134e-05
-0.000584455
-8.11931e-05
-0.000131543
-0.0248659
-0.000205722
-0.00012361
-0.000131891
2.77665e-06
-4.40055e-05
-0.0871745
0.444092
-2.2181e-05
-0.000761359
-0.000159299
1.2771e-05
-0.00119419
-2.54181e-06
-0.00133992
0.000209385
-0.000526455
-0.122637
-0.00105486
-0.00338542
-4.08836e-06
-0.00389255
0.000329202
-2.39911e-05
-2.54954e-05
3.72528e-06
-0.00103656
0.000538807
-0.0899569
-0.0563493
-0.120594
-0.000186914
-0.00483849
-0.00436767
-0.118047
-0.000130703
0.0241524
0.00942993
-0.00133021
-0.0222278
-0.096613
0.638082
-0.000575407
-3.11547e-05
0.000849255
2.07972e-05
4.66321e-06
0.128292
0.00411697
0.149209
-0.0805913
0.60645
-0.000656459
-4.19403e-06
0.000105738
-4.39774e-05
-0.00181394
0.270643
0.347173
-2.52949e-05
-0.000284391
-5.72211e-05
0.332066
0.0301817
-0.0160617
3.3941e-06
7.31144e-06
0.0111146
-0.00089182
-0.146653
-0.0320822
-1.21226e-05
0.004686
-0.0650919
-9.87052e-05
0.00229473
-0.000151642
-0.0857064
-0.00248213
0.254246
5.03698e-06
0.00220806
-0.00261202
6.81958e-07
0.000124649
-0.0444852
2.03688e-06
-0.00118194
-3.67094e-06
-0.0315158
-0.0823056
-0.00767165
-0.0180439
-0.0141725
0.0144132
-0.0161532
-0.00361909
3.92937e-05
4.64308e-05
-1.44414e-06
-2.93206e-08
-8.86031e-05
0.0130847
-0.123395
0.000509436
-0.0963227
-0.00441651
-0.110282
5.90076e-05
-3.99917e-05
0.00164604
-0.0396987
1.95334e-06
-0.0954961
-0.030027
0.125255
-0.0962946
6.76462e-06
-0.00494281
0.000142781
-0.131197
0.221453
-2.29096e-05
-0.122406
-0.0467938
-0.00620816
5.78229e-06
-2.18085e-05
0.0488762
-0.0266488
-7.01315e-06
-0.0112934
-6.01143e-05
0.000159172
0.210258
-1.83692e-05
-4.42456e-05
-0.000223483
6.68646e-06
0.00106855
6.04105e-05
-0.00767046
0.00016816
-0.0238431
0.00130894
-0.000396572
-0.070698
-0.0846061
-0.01145
-2.53549e-05
1.53401e-06
-0.13393
0.00844406
-0.0916904
-9.97273e-06
-0.0092436
-4.82785e-05
3.94158e-07
0.135326
-0.0104628
-0.00400083
-4.19386e-05
-0.0360936
2.28736e-05
-0.132003
-1.57826e-06
-0.150867
-3.11355e-05
-1.45743e-05
5.76399e-05
0.0012464
-0.113809
-0.0292092
-0.145454
-1.55238e-05
4.06295e-05
-0.15056
-0.0566775
-0.0129164
-1.96552e-05
-0.0489552
-0.106264
-0.148929
-3.10512e-05
-2.42102e-05
-6.44477e-05
-0.128381
-0.141892
0.000764087
-0.0169312
-0.000121377
0.425779
6.55665e-05
-2.26561e-05
0.00010764
-9.00811e-05
-2.75273e-05
-0.00635529
4.75089e-05
-0.00450139
-0.137774
-0.020464
-0.0980542
-4.94047e-06
-7.72503e-05
0.0971645
-0.104226
-0.00695764
0.19107
-9.64263e-05
-3.70335e-05
-3.3064e-05
0.247018
0.000129213
-0.000158024
-3.58138e-05
-0.132679
-0.0245217
-4.51492e-05
-8.44461e-05
-0.0173134
-0.00951862
0.000356057
0.353079
-0.127387
-0.000990332
0.807358
-0.000140829
-0.00159653
-0.018319
-0.147391
-2.26006e-05
-6.23895e-05
6.62182e-06
0.00662391
-0.0718277
-0.000642153
-0.100661
-0.0116506
-1.84792e-05
-1.08357e-05
-0.0155731
-0.0127082
-0.00290429
-0.0825599
-0.0834156
-0.0743495
0.0350692
-0.0541765
-0.000107762
0.000300598
0.017633
0.000588
-0.000364679
0.000777132
-3.98942e-05
-0.000324793
-0.0186448
-2.22193e-05
-7.99926e-05
0.0677513
-0.0282378
-0.000614051
-0.000232051
-2.80794e-05
0.379677
-0.0122605
0.000763905
-0.0569138
0.000202426
0.00015272
0.00013193
-9.28121e-05
0.000467453
-0.0761302
0.026215
-1.81531e-05
-0.000518616
-0.086521
-0.0682842
0.0827544
-0.000611135
0.00248184
0.0289053
-2.97143e-05
1.20125e-05
-0.103974
5.71532e-06
0.263869
-6.50707e-05
0.00601796
0.000129991
0.000174244
-0.131566
-0.0140146
-0.0339406
-0.00359419
8.16077e-06
0.00762423
0.104606
-0.0238674
-0.000233657
0.160444
0.259765
-9.04013e-06
-0.102241
-0.000130205
-3.76576e-05
-7.16996e-05
-0.000704696
0.0323321
-9.29999e-05
0.000191899
-0.0414078
-0.0489093
-0.0353639
0.463629
-4.51642e-05
-0.00011808
0.27095
-0.0174038
-0.00680793
-0.000820134
0.26787
-2.01728e-05
-0.00103473
-5.78768e-05
-6.39703e-05
9.82004e-06
1.01861e-05
4.81901e-05
-0.029355
-3.21212e-05
-0.00639266
-0.0837603
0.396179
-0.000704303
-8.01739e-05
0.00676168
0.144546
-0.101989
-0.000960713
-0.122453
0.464674
1.74979e-05
0.584711
-1.6836e-05
0.00426912
0.0401825
0.000425361
0.611848
-0.000147613
-1.77185e-05
0.00126539
7.13646e-06
-0.00111238
0.000223699
-3.22727e-05
-0.00301455
-9.88736e-05
-0.000251837
-0.00537062
0.37501
0.091486
0.0361628
-0.0786788
-1.4468e-05
-6.1649e-05
0.00416551
-0.121275
-3.42531e-05
-0.0852037
-9.5913e-05
0.175434
0.105601
-0.0686341
-0.00224726
-0.0243678
-0.00124685
-0.0233292
0.0023298
-0.0157207
0.111249
-2.7768e-06
0.448641
0.088895
-0.00171579
0.343554
-0.025349
-2.15316e-05
-3.08124e-05
3.91713e-05
-0.000266997
-0.000256262
0.374905
-0.0014831
0.38714
-0.00290018
0.26466
0.362797
0.243483
-0.0131323
-3.32856e-05
-9.15257e-05
-0.0164524
-0.200188
-0.102381
0.00191907
-6.46448e-05
-0.0693501
-0.0011957
-0.000161747
0.0012312
-0.00156175
-0.00205098
0.0562938
4.81291e-05
-0.085956
0.102414
3.14595e-05
0.000203324
-0.0301519
-0.128475
-0.00104882
-0.000708724
-4.60561e-05
0.000169999
0.211098
-0.0341238
-0.102177
0.0016104
0.209725
-0.0796596
-2.59451e-05
-1.98842e-05
0.0523935
-0.000340053
0.17997
-0.00272487
-0.0213662
-0.000683731
0.00199478
-0.0757065
-0.000240617
0.00048611
-0.00324942
-0.147459
0.28488
-0.11651
-0.0530186
-0.000549677
-7.06996e-05
0.0101797
6.16079e-06
-0.145795
-0.140782
0.00058626
0.00395801
0.00543906
-0.18895
0.000670739
9.30561e-05
-3.82564e-05
-0.0834324
-4.73845e-06
0.000586708
0.203701
0.287925
-0.198424
0.0841001
0.0837305
0.0462171
-0.000646772
0.0165102
8.76169e-05
4.08495e-06
-0.000377427
-5.67272e-06
-0.000247469
-0.00053509
-0.0141312
-0.102463
-0.018472
-0.062382
0.0924775
0.0758792
0.00559144
-0.137292
4.45959e-05
0.00573955
0.016601
-0.000629369
0.134243
-0.00354643
-0.0219358
0.0179341
0.0081862
-0.000213868
-0.0073347
0.0764944
0.000888969
-0.0376523
-0.0323328
0.714011
-0.0511381
0.143664
0.0618254
-0.080815
0.00287869
-3.10131e-05
-0.0038033
-5.48308e-05
-0.00379649
-0.0510357
-0.000125684
-0.000426688
0.468705
-0.00468735
-0.0830416
-0.0302098
1.27493e-05
-0.00437503
-5.81593e-05
-1.61725e-05
0.0682582
2.54727e-06
-0.0042026
0.137076
0.00836682
0.0013837
0.0290114
-0.0106228
0.00610221
-0.177645
0.000907594
-0.00798486
-0.115631
-0.00180085
-0.0151141
0.000605133
-0.00162071
0.00113816
0.0663806
-0.0010902
0.00807693
-0.0965236
-0.0405632
1.96806e-05
-0.0934689
-0.028455
-0.0278094
-0.000119415
0.00990184
-0.153935
-0.00124234
-0.0093979
-0.0873762
-0.00369057
-0.00193444
0.360715
-0.0480154
-5.39388e-05
0.0127353
-0.109854
-0.00161238
0.310234
-0.00590992
0.00119787
0.101648
-0.00240614
0.0117518
0.211336
-0.000452477
0.00143121
0.000108544
-0.000100741
-0.0065659
-0.0160981
-0.000731903
-0.0464065
0.174378
-0.0677851
-0.162248
0.00143213
-0.00543101
-0.00182141
-0.0918207
-0.000100593
0.0264043
-0.000156356
-0.0255887
-0.00296126
-0.00728735
0.0652385
0.212189
-0.17366
-0.000101365
0.34318
-0.00440439
-0.00702573
-0.115693
-0.182425
-0.0305646
-5.96116e-05
-0.00309389
0.0108208
-0.00499349
-0.00857697
0.000142509
0.151637
-0.0949064
-0.0209855
-0.00998238
0.0419343
-0.00966507
-0.00643536
0.00220412
-0.000811287
-0.00491998
0.205834
0.000717144
-0.194053
-0.000411018
-0.0110863
-0.00910493
-0.194696
-0.0224618
-0.223515
-0.000115306
-0.000120236
-0.0130895
0.0156379
0.00151097
-0.241896
0.160491
-0.101883
0.000105753
-0.253313
-0.000451222
-0.256262
-0.0496482
-0.238655
-0.221931
-0.193746
-0.112304
0.03327
0.087006
0.13589
0.184819
0.232274
0.362613
0.402857
0.440375
0.501359
-0.0122776
-0.0150202
0.124225
-0.0420794
0.000906226
0.0255105
-0.0818727
0.000122216
-0.00217669
-7.59438e-06
-0.0285374
0.0286362
1.00979e-05
-0.00124756
-0.0161326
-0.0183086
-0.25467
-0.0324443
-0.117286
-0.000249322
0.00038092
-6.54375e-05
-0.117837
-0.0176886
-0.0761811
-0.0267121
0.00216645
-0.000174045
0.00681822
-4.63948e-05
-0.0262305
-0.000247427
0.000328371
-0.0170903
-0.0177985
-0.00155625
0.000276755
0.0832157
-0.020703
0.121893
-0.257726
-0.0214847
0.321304
-0.0356547
0.00476303
-0.0430718
-0.00606826
-0.0195632
-0.0273037
0.49937
-0.00381927
-2.31343e-05
-0.011141
-0.018429
-1.86436e-06
0.138926
-0.00886942
0.475513
-0.0218686
-0.08081
-0.0523192
0.0863648
-0.0117205
-8.7174e-05
-1.12085e-05
-0.0078048
-0.130351
-3.02981e-05
0.550996
-0.00486822
-0.00978217
-0.000803119
-0.000587867
-0.0147134
0.277373
-0.0576506
0.203618
0.000672943
-0.0268026
-7.98499e-06
0.0450166
-0.0180966
0.0317669
-0.0395768
-0.0099096
-0.00365296
0.00108559
0.0175714
-1.88673e-05
-0.0218768
-0.000179045
-0.000661571
0.000483278
-0.0528709
-0.000367005
0.240478
-0.0196923
0.0046823
-0.119832
0.0802231
-0.129183
-0.0260713
0.0720266
-0.0307408
0.285189
-0.0126874
-0.00618607