/*--------------------------------*- C++ -*----------------------------------*\
  =========                 |
  \\      /  F ield         | OpenFOAM: The Open Source CFD Toolbox
   \\    /   O peration     | Website:  https://openfoam.org
    \\  /    A nd           | Version:  7
     \\/     M anipulation  |
\*---------------------------------------------------------------------------*/
FoamFile
{
    version     2.0;
    format      ascii;
    class       volVectorField;
    location    "25";
    object      U;
}
// * * * * * * * * * * * * * * * * * * * * * * * * * * * * * * * * * * * * * //

dimensions      [0 1 -1 0 0 0 0];

internalField   nonuniform List<vector> 
29540
(
(1.00819 -0.0109596 1.5001e-22)
(1.00828 0.00372276 7.14289e-22)
(0.992837 -0.00259982 -8.82244e-22)
(0.975359 -0.0374233 2.73356e-22)
(0.998124 -4.05234e-05 1.24394e-22)
(0.96648 -0.0226821 -3.98506e-22)
(1.04068 -0.0683915 6.66335e-22)
(1.01062 -0.0166748 -1.46561e-23)
(1.00156 -0.00152911 2.20599e-23)
(1.00014 -3.73525e-05 7.0672e-24)
(1.01162 -0.0223292 -3.93991e-24)
(0.998143 -0.0129498 -3.31066e-22)
(0.999638 -0.000149901 1.57177e-23)
(0.999981 -7.31837e-06 2.09547e-25)
(1.15766 0.080004 1.21922e-21)
(0.995308 -0.001515 1.3492e-22)
(0.999875 -0.000662945 -5.47664e-24)
(1.12209 -0.0176107 -8.09551e-23)
(0.998347 -0.00140026 -4.25516e-23)
(0.99155 -0.000623072 -1.94162e-22)
(0.999344 -0.000212545 -5.62128e-23)
(1.00147 -0.00152554 7.73222e-23)
(0.992767 -0.00275012 9.69845e-22)
(0.998356 -0.000132956 5.45263e-23)
(0.89094 0.110628 3.02002e-22)
(1.00907 0.00294201 3.8413e-21)
(0.999612 -4.52997e-05 3.61547e-23)
(0.945614 0.0934857 -2.13129e-20)
(1.16308 0.0793996 -3.36137e-21)
(0.999302 -0.0071086 -6.14627e-23)
(1.01205 -0.00899037 1.08045e-22)
(1.03085 -0.00668438 -8.06516e-22)
(0.976938 -0.0863412 2.72666e-21)
(0.998129 -0.0179359 1.67646e-22)
(0.943544 0.089076 1.75032e-20)
(1.00192 -0.0257306 4.78751e-22)
(1.06486 0.0396322 -1.14306e-21)
(0.977982 -0.0211265 1.13999e-21)
(1.00416 -0.000652154 -2.9565e-22)
(1.00401 -0.000463672 5.62043e-22)
(1.00033 -0.000126749 -1.96592e-23)
(0.990699 -0.0234177 -1.1454e-21)
(0.99989 -0.000644238 -1.57729e-25)
(1.01643 -0.0581506 -1.96653e-21)
(1.00002 -3.70178e-06 -1.8597e-24)
(0.999453 -0.00721351 4.64017e-23)
(0.997946 -0.00961846 -9.28905e-23)
(1.00005 -6.51447e-05 4.43114e-24)
(1.00259 -0.00287344 -3.09941e-22)
(1.06446 0.0369863 -4.69997e-22)
(1.08726 -0.0890601 4.81967e-22)
(0.978166 -0.0331211 -1.28963e-21)
(1.03079 -0.00590623 2.84852e-22)
(0.96751 -0.0225323 -6.67652e-22)
(0.995422 -0.00155476 -1.18929e-22)
(1.16618 0.0674855 -2.10074e-21)
(0.997387 -0.0017482 4.25177e-23)
(0.999325 -0.000234395 7.11372e-23)
(0.999619 -0.0169705 -2.34919e-22)
(1.00564 -0.0462776 -8.6017e-22)
(0.999956 -5.11819e-06 6.86692e-25)
(0.998403 -0.00143463 -8.76648e-24)
(1.24209 -0.0226349 -6.92779e-22)
(1.00226 -0.0251731 -2.66448e-22)
(1.06439 0.103372 9.49233e-21)
(0.916034 0.0306102 4.44635e-20)
(0.998685 -0.0213053 -4.5135e-22)
(0.994219 -0.0107048 4.16969e-22)
(0.93757 0.01953 1.79243e-20)
(1.00034 -0.000119869 1.2759e-23)
(1.01046 0.00352882 -5.23359e-21)
(0.988241 0.0774133 1.23983e-20)
(1.00245 -0.00712336 -1.17881e-22)
(0.910874 0.128597 1.10454e-20)
(0.993798 -0.000490066 6.26926e-22)
(1.09544 -0.0540333 -1.04254e-22)
(1.23358 0.133225 2.6123e-21)
(0.979098 -0.0120288 2.71548e-22)
(0.999967 -1.60636e-05 -1.73003e-24)
(1.00118 -0.0378282 -8.4062e-22)
(0.96809 -0.00053029 -4.41162e-22)
(1.0203 0.0369772 3.06579e-21)
(1.00834 -0.0114367 -4.51066e-22)
(1 -4.63334e-05 -2.14233e-24)
(1.04285 -0.0671257 -1.02761e-21)
(1.14919 -0.17556 -3.03109e-21)
(1.03723 0.0906819 -1.86943e-20)
(0.999624 -0.000147976 -1.43615e-23)
(0.99965 -0.000133485 -4.23526e-24)
(0.950991 -0.0283432 -1.59805e-21)
(0.993213 -0.0406107 1.53727e-21)
(0.979009 -0.0125997 3.03729e-22)
(1.00242 -0.00296842 5.28828e-23)
(1.04954 -0.011662 -4.48434e-22)
(0.94722 -0.0120483 -1.33506e-21)
(1.04756 0.110188 8.86796e-21)
(0.993597 -0.0525928 2.41855e-21)
(1.00036 -0.000299505 3.15453e-23)
(0.975238 -0.0469036 -2.37385e-21)
(1.1524 0.107207 6.54656e-21)
(0.999966 -1.59034e-05 2.50574e-24)
(0.980154 -0.00785924 -1.63069e-21)
(0.999957 -6.24567e-06 -3.60767e-25)
(1.0377 -0.0182181 -2.20345e-21)
(0.977164 -0.0329438 8.45276e-22)
(1.03197 0.0106742 5.25407e-21)
(1.00376 0.072874 1.86133e-20)
(0.999664 -0.000134917 -3.51084e-23)
(0.999996 -5.2754e-05 1.41406e-25)
(0.988673 -0.0848503 -1.36379e-22)
(0.975621 -0.0850836 -2.45671e-21)
(1.03239 -0.0356775 1.20008e-22)
(1.00001 -1.42224e-06 3.97267e-25)
(0.99908 -0.00480428 -1.59001e-22)
(0.999905 -0.00171282 3.0902e-24)
(0.991057 0.0791617 8.53372e-23)
(1.04099 0.0531965 -6.52781e-21)
(0.990919 -0.0055607 -6.65314e-22)
(1.00002 -5.10876e-05 7.39344e-25)
(1.0027 -0.00705668 -9.06697e-23)
(1.24519 -0.115632 1.06547e-20)
(1.00553 0.0113797 8.43788e-21)
(1.14153 -0.081006 -3.69253e-21)
(0.914218 0.037447 -4.1136e-20)
(1.00084 -0.000279686 -7.52931e-23)
(1.13968 -0.0581651 4.6762e-22)
(1.12126 -0.0132848 -4.84831e-22)
(1.00931 -0.0450608 6.46839e-22)
(1.0031 -0.00273079 -2.7648e-22)
(1.00002 -0.000339133 2.3598e-24)
(1.01636 -0.056607 7.01294e-22)
(1.23768 0.125798 1.22074e-21)
(1.00622 0.139774 1.88469e-20)
(1.14041 -0.0992337 -1.12038e-21)
(1.0364 -0.0178015 1.85568e-21)
(1.01169 -0.00864053 2.04459e-21)
(1.07814 0.181932 1.358e-21)
(0.979372 -0.000580399 2.27669e-21)
(1.05623 -0.171163 7.89869e-21)
(1.15379 0.101085 -5.05825e-21)
(1.14007 -0.0528927 -4.32705e-22)
(0.95637 -0.0036203 -1.77052e-21)
(0.962842 -0.031341 5.16877e-22)
(1.00001 -1.1903e-06 -1.66811e-25)
(0.999993 -2.60977e-06 -1.65658e-26)
(0.998075 -6.71815e-05 -9.73197e-23)
(0.998097 -0.00943076 1.90626e-22)
(0.982131 -0.0666976 -1.91882e-21)
(1.07406 -0.140629 3.82878e-21)
(1.28385 0.0375222 -1.85126e-21)
(1.02431 -0.0165239 1.01249e-21)
(1.01376 -0.0162269 3.28325e-22)
(1.00033 -0.000485732 4.94999e-23)
(0.999901 -0.000170104 2.99735e-24)
(1.0016 0.0230049 -1.86255e-20)
(1.00041 -0.00119473 5.33116e-24)
(0.994732 -0.0087205 2.7065e-25)
(1.09347 0.184404 -3.88655e-21)
(1.00466 0.0442806 -2.02348e-20)
(1.09041 -0.086885 -1.04232e-21)
(0.969523 -0.00202078 7.54887e-22)
(0.976134 -0.0367328 1.96417e-21)
(1.16726 0.0730582 5.45838e-22)
(0.999966 -3.45799e-05 4.99958e-25)
(0.999992 -2.65345e-06 3.56716e-27)
(0.990872 -0.00584532 2.40068e-22)
(0.963732 -0.0307643 -2.86312e-21)
(1.00004 -0.000173263 -5.5708e-24)
(1 -4.96472e-05 -1.20331e-24)
(0.994766 -0.00393695 -7.9273e-23)
(1.00003 -0.000329085 -1.9433e-24)
(1.00445 -0.00471745 -1.52778e-22)
(1.08885 0.188198 4.36623e-21)
(0.979666 -0.00030574 -1.92763e-21)
(1.02096 -0.0923952 -8.56128e-22)
(0.996131 -7.57348e-05 4.0388e-22)
(1.00163 -0.00211528 1.64029e-23)
(0.979635 -0.00771926 2.69386e-21)
(0.999311 -0.00479707 -1.43614e-23)
(1.14956 -0.0734102 2.2734e-21)
(0.999986 -7.08804e-06 4.63627e-25)
(1.00862 -0.0309711 -3.6594e-22)
(1.0396 0.0926235 6.60219e-21)
(0.994471 -0.0099494 -2.43371e-23)
(1.05326 -0.166503 -7.56062e-21)
(1.03101 0.0454748 -5.7772e-21)
(0.995158 -0.00217081 -5.90784e-22)
(0.98605 -0.0115444 7.37001e-22)
(1.00293 -0.00274247 4.19986e-22)
(0.999365 -0.00663043 -9.1994e-23)
(0.999799 -5.50203e-06 3.80913e-24)
(1.00439 -0.0142059 5.97815e-23)
(0.909535 0.0187026 1.72544e-20)
(1.00104 0.0189435 1.43673e-20)
(0.989044 -0.00468196 1.88032e-23)
(0.994965 -0.00859579 -2.61125e-22)
(0.979781 0.0420139 -1.69911e-20)
(1.01256 0.028996 2.6401e-21)
(0.948262 -0.0119439 1.65567e-21)
(1.00088 -0.000375681 -5.86574e-23)
(1.04664 -0.086434 1.31482e-21)
(0.973005 -0.061685 2.47279e-21)
(0.998342 -0.0132298 1.58717e-22)
(1.00064 -0.000821821 -9.58075e-23)
(1.08132 0.186535 1.85759e-21)
(0.994931 -0.00394704 -5.38277e-23)
(1.00521 -0.00423755 -1.72022e-22)
(0.98104 -0.0661117 2.49669e-21)
(0.988486 -0.0866622 3.38111e-22)
(0.999976 -3.21996e-06 1.95736e-25)
(0.978344 0.11213 -1.94947e-20)
(0.999226 -1.77753e-05 -9.52621e-25)
(0.999999 -3.91073e-05 -5.17143e-25)
(0.999594 -0.00015815 6.13905e-24)
(0.995347 -0.0410727 -5.68443e-22)
(1.23553 0.00555648 1.69294e-21)
(1.00945 -0.0304206 3.41976e-23)
(1.00505 -0.00395554 -1.18064e-22)
(0.998374 -0.000183069 1.35677e-22)
(0.949136 -0.013333 -3.06149e-22)
(1.00002 -0.000360812 -1.45045e-24)
(1.00036 -0.00121812 4.28148e-25)
(0.998248 -0.000155229 -8.95561e-23)
(1.02338 0.000901435 4.90122e-21)
(0.997967 -0.00302999 -2.9161e-23)
(0.999104 -0.00446343 4.70274e-23)
(1.02254 -0.00128059 2.38153e-21)
(1.00009 -0.000295506 6.40445e-24)
(1.00002 -3.06348e-06 4.89482e-25)
(1.00383 -0.000468746 6.02597e-23)
(0.980797 -0.0242106 -9.73255e-22)
(0.981857 -0.000299181 -9.43086e-22)
(0.996366 -0.000288121 -4.27466e-22)
(1.01132 0.00276901 4.3261e-21)
(0.988108 -0.000854122 4.54543e-22)
(1.01399 -0.0156994 -3.21945e-22)
(0.99998 -8.12417e-06 5.79731e-25)
(0.997748 -0.0019973 -1.65122e-22)
(1.0006 -0.000815049 1.03647e-22)
(1.04705 -0.0834497 1.3086e-21)
(1.01054 -0.143273 5.04899e-21)
(0.998963 -9.46082e-05 6.94393e-23)
(1.00035 -0.000432114 -3.76084e-23)
(0.999031 -0.00435482 -1.59547e-23)
(1.00264 -0.00630059 -2.24204e-22)
(0.991719 -0.000459986 -8.29971e-22)
(0.999968 -3.26367e-05 -6.70161e-26)
(1.14764 -0.169668 -6.85082e-21)
(1.00003 -0.000369241 2.54725e-24)
(1.02311 0.000851835 -3.45321e-21)
(0.997469 -0.00175103 -8.59138e-23)
(1.00011 -0.000286515 2.48912e-24)
(1.03109 0.0111038 -3.33937e-21)
(0.969762 -0.0586534 -2.50483e-21)
(1.00018 -3.21656e-05 2.21971e-23)
(1 -7.56218e-06 -2.10831e-25)
(0.95626 -0.0025907 -2.0153e-21)
(1.0043 -0.130545 -8.0471e-22)
(0.993368 -0.00625014 -6.42796e-23)
(1.00843 -0.0459331 -1.70781e-22)
(1.02498 -0.0171762 -1.65692e-22)
(1.04518 0.0894267 8.27301e-22)
(1.00006 -6.13818e-05 1.19312e-24)
(0.981164 -0.0237401 9.91475e-22)
(1.19527 -0.0997269 4.49705e-21)
(0.961999 0.0602193 4.06647e-22)
(0.994413 -0.00972108 1.93787e-22)
(1.02982 0.0439359 7.07979e-21)
(1.09641 -0.0503611 -4.26736e-23)
(0.999901 -0.00188511 -4.78818e-24)
(0.826467 0.0523179 2.29673e-20)
(0.999592 -0.000333623 -4.12142e-23)
(1.01965 -0.0946641 -1.08542e-21)
(0.949938 -0.0133474 2.0399e-21)
(1.00173 -0.00199991 -9.01172e-23)
(1.18883 -0.032774 -1.17204e-21)
(0.993479 -0.00070979 -4.95647e-22)
(1.00869 0.15136 1.34656e-20)
(0.997364 -0.000201501 3.87844e-23)
(0.98641 -0.0124614 -3.86585e-23)
(0.999836 -0.00171198 -3.11174e-23)
(1.13304 0.143448 1.64154e-21)
(0.999782 -0.0134627 4.16034e-23)
(1.04417 0.111076 5.60815e-22)
(0.999624 -3.48298e-05 -1.59942e-23)
(0.995544 -0.0014395 -1.8806e-22)
(0.961075 0.137368 -8.31314e-21)
(1.02731 -0.0002215 -4.01378e-21)
(1.02237 -0.000906403 2.77184e-21)
(0.976888 -0.0305021 2.37078e-21)
(0.999892 -2.39386e-05 3.45452e-24)
(1.00256 -0.00608147 -2.57578e-23)
(0.999872 -0.000724569 -9.32007e-24)
(1 -3.69314e-05 -3.34883e-25)
(1.05062 0.00210945 1.05502e-21)
(1.00003 -3.75725e-06 3.37875e-26)
(0.984689 -0.01101 1.7221e-21)
(1.18965 -0.0996378 -4.26129e-21)
(0.888497 0.115599 -2.1035e-20)
(1.00956 0.140208 -3.00318e-20)
(0.973089 -0.0511313 7.78268e-22)
(0.98872 -0.0226833 6.17323e-22)
(0.982721 -0.00115431 4.50898e-22)
(1.0258 -0.0321346 4.51989e-22)
(1.00485 -0.014027 -1.16978e-22)
(0.985944 -0.0120937 -1.01735e-21)
(0.973075 -0.056065 3.44748e-22)
(1.04346 0.0920269 -1.23419e-20)
(0.999492 0.0172604 2.75723e-20)
(0.999032 -0.000115434 3.81371e-23)
(1.00527 0.0735602 -2.54689e-20)
(1.04961 0.000868264 3.51038e-22)
(1.14738 -0.0799846 1.05353e-21)
(1.01054 -0.0128375 1.56361e-22)
(1.00063 -0.0124319 -1.98365e-22)
(1.01502 -0.0429336 -4.47078e-22)
(0.995866 -0.0013924 -4.45332e-22)
(0.997963 -0.000506036 -2.87247e-23)
(0.99996 -4.85972e-06 3.51662e-24)
(0.999236 -0.0067899 1.34877e-22)
(1.07814 -0.0480942 5.99292e-23)
(1.13412 0.149181 -2.74658e-21)
(1.00125 -0.00108251 4.29281e-23)
(0.97883 -0.0198302 -1.36565e-21)
(1.01207 -0.0132015 -4.93014e-22)
(0.999975 -1.14524e-05 -2.58961e-25)
(0.973079 -0.0535128 -1.23889e-21)
(0.863659 0.089972 -1.06475e-20)
(0.995195 -0.00371063 6.64777e-22)
(0.999129 -0.00356519 4.23148e-23)
(1.01102 -0.0127119 -9.72796e-23)
(1.00103 -0.0367341 1.06467e-21)
(1.08399 0.0241364 1.25874e-21)
(0.999517 -0.00770969 -2.26408e-23)
(0.999977 -4.02011e-05 7.18819e-25)
(1.00001 -1.95322e-06 2.15193e-25)
(0.997937 -0.000461001 -3.18069e-23)
(0.95899 0.136306 1.20074e-20)
(1.04011 -0.0274307 4.17694e-22)
(1.01411 -0.143321 -1.31066e-21)
(1 -7.53136e-06 -5.4361e-26)
(1.0015 -0.132622 5.14077e-22)
(1.07271 -0.00806763 -1.34043e-21)
(0.996036 -0.000126626 -2.00563e-22)
(0.951824 -0.00488817 -2.48711e-21)
(0.999195 -0.00350384 -4.23147e-23)
(0.999672 -0.00015098 -2.54234e-24)
(0.981796 -0.0214858 -2.97882e-22)
(1.00071 -0.000902231 -4.59667e-23)
(1.15515 -0.0721213 -2.0177e-21)
(1.0073 -0.000871554 -1.24263e-21)
(1.2229 0.089327 -1.20649e-21)
(0.999929 -0.00186071 6.18625e-24)
(1.00323 -0.0111196 3.91672e-23)
(1.00535 0.0100573 -1.14103e-20)
(1.23892 -0.110301 -4.32527e-21)
(1.00032 -0.000457172 -2.90745e-23)
(1.00034 -0.000405117 2.86442e-24)
(0.993953 0.0938842 1.21819e-21)
(0.993982 -0.0414628 -3.06758e-22)
(0.999386 -0.00758886 2.7674e-23)
(1.01156 0.0324085 1.39104e-21)
(0.971833 0.021322 3.32036e-20)
(1.08642 -0.0930787 -1.62573e-21)
(0.998728 -0.0205687 -1.36718e-22)
(1.23055 0.00870084 -1.69163e-21)
(0.999419 -5.68384e-05 -2.79778e-23)
(0.993234 -0.00326517 1.75937e-22)
(0.997419 -0.000211688 -1.09181e-22)
(1.01398 0.0275256 5.38155e-24)
(0.999988 -0.000595252 -1.29804e-24)
(1.00705 -0.00105736 1.26956e-21)
(1.09551 -0.142558 9.52731e-23)
(1.0038 0.131725 2.93596e-20)
(0.914118 0.1328 -4.88622e-21)
(0.995305 -0.00216619 2.37096e-23)
(0.993179 -0.00610081 1.92496e-22)
(1.06154 0.106598 -7.54696e-21)
(1.0058 -0.0477089 1.2389e-21)
(0.999961 -5.80609e-06 -3.43823e-24)
(1.27031 0.0808645 -3.4371e-22)
(1.02288 0.00136394 -1.47215e-21)
(1.02248 0.00137129 -1.0002e-21)
(0.995347 -0.0106026 -2.83766e-22)
(1.01522 -0.00166154 -1.95058e-21)
(0.950196 0.121661 4.75429e-21)
(1.06688 -0.145838 -1.05491e-21)
(0.980794 0.12053 4.78289e-21)
(0.99552 0.119225 -8.35993e-21)
(0.999997 -5.01865e-05 -4.54264e-25)
(1.0755 -0.0466118 -2.06385e-23)
(1.06928 -0.141958 6.89705e-22)
(0.997873 -0.00305655 7.59378e-23)
(1.00128 -0.00116208 -7.08181e-23)
(0.966718 0.0248165 7.92991e-21)
(1.04151 -0.0283332 -5.29472e-22)
(1.00022 -5.94332e-05 4.97366e-24)
(0.983012 -0.0461588 -2.95499e-21)
(0.972245 -0.0631706 -1.16996e-21)
(0.995641 -0.00147955 2.64426e-22)
(0.999908 -0.000165132 -3.78268e-24)
(1.05607 0.132412 -1.2242e-21)
(1.04052 0.0511175 1.09614e-20)
(1.00004 -0.000404879 -4.93089e-26)
(1.00322 -0.00294799 5.41827e-23)
(1.00416 -0.00296246 2.92938e-22)
(1.14469 -0.130845 5.07337e-21)
(0.976967 -0.0296879 -2.14955e-21)
(1.00005 -0.000481459 -4.39804e-24)
(0.999991 -1.7841e-06 -2.4791e-26)
(1.00038 -0.000131845 7.45295e-24)
(1.08258 0.0257267 -1.21056e-22)
(0.978008 -0.0203816 -1.09134e-21)
(1.00247 0.0466293 5.88219e-21)
(0.957672 -0.034262 1.22713e-21)
(0.989349 -0.0226143 -6.53218e-22)
(0.981339 -0.000895871 -1.80748e-21)
(1.01304 0.0311524 -6.85193e-21)
(1.23312 -0.020283 -2.02441e-22)
(0.999062 -0.000122786 6.96242e-23)
(1.00628 -0.00485564 -3.11368e-22)
(1.00066 -0.000892747 5.21425e-23)
(0.979568 0.132676 -1.20427e-20)
(0.979622 -0.0185478 5.87309e-22)
(1.00085 -0.00022729 -2.47031e-23)
(0.994042 -0.00291325 -2.40013e-22)
(1.14586 -0.0492745 -4.68184e-22)
(0.999581 -0.00828651 -6.00388e-23)
(0.99074 -0.0100048 -1.33629e-22)
(1.00018 -0.000113232 -1.55035e-23)
(1.00018 -4.31109e-05 -6.97224e-25)
(0.85994 0.0961749 1.60445e-20)
(0.993525 -0.0010572 -3.07899e-22)
(0.996175 -0.00383562 2.72571e-22)
(0.999695 -0.00151535 -2.96383e-23)
(0.999434 -4.34366e-05 -3.82597e-24)
(1.05212 0.0868431 -4.14545e-21)
(1.10005 -0.146044 2.91137e-22)
(0.986882 -0.0337488 3.88551e-22)
(1.00001 -1.41587e-06 -1.94922e-25)
(0.999999 -2.95519e-05 -2.98691e-25)
(0.978838 -0.0191722 1.5433e-21)
(0.994639 -0.00155342 6.32687e-23)
(0.995893 -0.00177592 -3.63248e-23)
(1.01181 -0.0045365 6.01096e-22)
(1.00468 -0.0020124 1.0517e-22)
(0.99999 -0.0137982 -7.43862e-23)
(1.11629 -0.0326319 4.22329e-22)
(0.985368 -0.00351079 -3.80499e-22)
(0.982766 0.118139 -4.06786e-21)
(1.01092 -0.0222817 -1.09979e-22)
(1.00019 -0.000113757 1.71768e-23)
(0.972563 -0.0501161 1.15144e-22)
(0.985817 -0.0298407 -1.35754e-21)
(1.17954 -0.0243134 -3.43414e-22)
(0.997659 -0.00504093 -8.12858e-23)
(0.989259 -0.0398099 -4.60376e-22)
(0.999985 -5.06576e-06 3.0086e-25)
(0.927689 0.0966718 -1.6661e-20)
(1.01265 -0.00190074 1.0977e-21)
(1.00006 -0.000193605 -7.06492e-24)
(0.909401 0.0255863 -2.23915e-20)
(0.986053 -0.0338545 8.65898e-22)
(0.999985 -5.55653e-06 5.49823e-26)
(1.00116 -0.00105784 2.0938e-23)
(0.972452 -0.0523925 -6.82721e-22)
(1.03121 -0.0343829 1.4411e-22)
(1.04256 -0.013462 1.28836e-21)
(0.999994 -2.61079e-06 -5.16217e-26)
(0.993494 -0.000539607 2.44658e-22)
(1.01588 -0.0420982 8.04501e-22)
(0.995763 -0.00135775 3.65479e-22)
(0.999639 -3.99334e-05 -8.5329e-23)
(0.993363 -0.00337229 5.03219e-24)
(0.976283 0.0438 1.97038e-21)
(0.994126 -0.0103952 -3.47658e-22)
(0.991126 -0.0098088 9.79229e-23)
(1.0019 0.0267506 -5.7744e-21)
(0.997791 -0.00188628 8.59301e-23)
(0.973703 0.134543 -1.49315e-21)
(0.999984 -5.46285e-06 -1.5994e-25)
(0.990993 -0.0228636 2.66491e-22)
(0.981176 -0.0630054 2.88537e-21)
(0.989993 -0.0401504 7.8625e-22)
(1.17898 -0.109634 1.21963e-21)
(0.999005 -0.00466628 1.06534e-22)
(1.00708 -0.0206418 2.67033e-23)
(0.99992 -0.00200382 9.67188e-25)
(0.986033 -0.0175816 -7.63805e-22)
(1.03204 -0.0373407 2.22348e-23)
(0.999976 -1.08378e-05 1.21347e-24)
(1.00001 -5.29289e-07 -3.36765e-25)
(0.994915 -0.000348471 1.66682e-22)
(0.980749 0.0826736 1.24749e-20)
(1.01017 -0.0172419 5.46886e-22)
(1.00209 -0.0029914 -8.62168e-23)
(0.948122 -0.0249338 1.71726e-21)
(1 -6.67919e-06 -1.68246e-25)
(1.00079 -0.000985718 -8.28346e-23)
(0.99997 -0.000567314 -9.3943e-25)
(1.01138 -0.0165956 6.22883e-22)
(0.986334 -0.0130104 1.35615e-22)
(0.999696 -0.000235884 1.04691e-23)
(0.994525 -0.00928275 1.30037e-22)
(0.990014 -0.00578663 -1.4132e-22)
(1.00082 -0.000136065 -6.75967e-24)
(0.999984 -5.90364e-06 -1.06312e-25)
(1.21032 -0.0722148 -4.26507e-21)
(0.999726 -0.00149029 3.17974e-23)
(1.0697 -0.0122808 1.01702e-21)
(1.01967 0.128341 3.02793e-20)
(1.05636 0.105396 -6.94934e-21)
(1.00005 -0.0174156 -2.78997e-22)
(1.00458 -0.00182333 -3.48459e-23)
(1.01552 -0.00132532 1.19568e-21)
(0.99996 -0.00204932 -1.07687e-24)
(0.998092 -0.00878157 1.35153e-22)
(1 -1.28151e-05 -4.46607e-25)
(0.992632 0.119645 -6.12369e-22)
(0.989925 -0.0131462 1.89839e-22)
(1.01157 -0.00418186 -4.29856e-22)
(0.985692 -0.00364643 7.93029e-22)
(1.00284 -0.0109214 4.43213e-24)
(0.997798 -0.00496017 1.77677e-22)
(0.999917 -0.000169061 8.0139e-25)
(1.00001 -7.77316e-07 -1.74696e-24)
(0.996304 -0.00382175 -1.98515e-22)
(1.04954 -0.0132561 -6.94801e-22)
(1.00491 0.0463022 9.21324e-22)
(1.00099 -0.000404031 -9.92242e-23)
(0.976496 -0.0470894 -6.33248e-22)
(0.979597 -0.0179857 -2.59139e-22)
(0.993654 -0.000423803 -9.18374e-22)
(1.27501 0.0362554 1.1646e-21)
(0.99895 -0.000811429 -4.20403e-23)
(1.00285 -0.0123488 -9.66367e-23)
(0.995564 -0.0023357 1.85344e-22)
(0.999924 -0.000162814 6.91231e-25)
(0.972374 -0.0548007 7.77689e-22)
(1.00223 0.0405757 -9.22454e-21)
(1.0303 0.0397195 -7.24828e-21)
(0.981708 -0.012106 -1.24661e-22)
(1.00168 0.0385568 -3.94579e-22)
(1.00006 -0.000181625 1.41432e-23)
(1.00001 -6.15072e-07 5.57087e-25)
(1.26342 0.0772926 -6.7909e-23)
(1.18719 -0.026393 1.03292e-21)
(0.911709 0.0983726 -8.0558e-22)
(0.99389 -0.0679177 2.19026e-21)
(0.981536 -0.0012368 -5.79184e-22)
(1.14578 -0.0431508 7.20272e-22)
(1.00094 -0.000421352 1.12481e-22)
(0.995392 -0.00314613 1.0629e-22)
(1.00036 -0.000140034 -7.03376e-24)
(0.991374 -0.000589448 -1.96937e-22)
(0.990315 -0.0107601 -2.77987e-22)
(0.999996 -2.62589e-05 1.09137e-24)
(0.999295 -2.74999e-05 1.61439e-23)
(1.00332 0.128617 -2.86989e-20)
(0.999894 -0.000588858 7.85861e-24)
(0.935922 0.0891487 2.09389e-20)
(1 -1.18856e-05 3.39051e-25)
(1.26866 -0.0580038 -4.5454e-21)
(1.06951 -0.01431 -2.18605e-21)
(1.11662 -0.0290004 -4.79462e-22)
(1.00084 -0.000399622 6.77022e-24)
(1.00014 -3.43408e-05 1.40806e-23)
(0.985043 0.0780628 -1.8975e-20)
(1.07262 -0.0103749 4.43024e-21)
(0.980574 -0.064099 -2.61979e-21)
(1.02113 0.038838 3.32177e-21)
(0.997758 -0.0175758 1.16972e-22)
(0.989154 -0.00441145 -2.05432e-22)
(0.996725 -0.000181571 -1.09866e-22)
(1.14387 0.181805 -1.21957e-20)
(0.980272 -0.0215387 9.58311e-22)
(1.02635 -0.030856 -3.22423e-22)
(0.994742 -0.00920484 -7.47089e-23)
(1 -6.70737e-06 -3.8557e-27)
(0.998961 -0.000766041 -3.55989e-23)
(1.00489 -0.00510385 1.81833e-22)
(0.985127 -0.00649938 1.01648e-21)
(0.982169 -0.0122152 1.86982e-22)
(0.964863 -0.031415 -2.78158e-22)
(0.984967 -0.00689078 -7.7108e-22)
(1.01674 0.00250883 5.83518e-22)
(0.998291 -0.000117189 2.24578e-24)
(0.952058 -0.0287397 8.86719e-22)
(0.98864 -0.000749819 -2.82093e-22)
(1.00003 -0.00017518 3.34881e-24)
(0.990077 -0.000602313 -1.95118e-22)
(1.02662 -0.0333588 -4.56651e-22)
(1.01607 0.00269601 -3.22656e-21)
(0.978689 -0.0215899 -2.37536e-22)
(0.999991 -4.58057e-07 -9.55022e-28)
(0.985709 -0.0132782 2.03576e-22)
(1.00156 -0.0125747 2.19674e-23)
(1.00113 -0.000981782 2.69725e-23)
(1.0832 -0.154677 -3.24174e-21)
(1.0018 0.0380622 -2.14848e-20)
(1.00073 -0.00097339 7.69804e-23)
(0.990246 -0.00045418 2.71079e-24)
(1.07875 -0.0906986 6.70125e-23)
(1.02376 0.00017403 4.89952e-21)
(0.990078 0.0310018 -2.11894e-21)
(1.00151 -0.00208248 2.36885e-23)
(0.999876 -0.0181309 8.69063e-23)
(1.10866 0.129171 -2.10559e-21)
(1.01476 0.0243622 -1.69412e-20)
(0.991843 -0.0228375 7.08637e-22)
(1.00392 -0.00296318 -3.27566e-23)
(0.960956 -0.036934 1.26574e-21)
(0.999998 -2.98484e-06 -2.06237e-25)
(0.961552 -0.00157855 -9.14536e-22)
(1.00006 -5.70429e-05 2.32398e-24)
(1.07595 -0.090661 -3.767e-21)
(0.999977 -2.21506e-06 -1.34906e-25)
(1.00002 -4.98979e-05 2.14551e-24)
(0.999468 -0.020248 -1.05152e-22)
(1.24796 -0.0159217 1.70944e-21)
(1.03561 0.164914 1.25393e-20)
(1.02943 -0.0346332 -6.76122e-22)
(1.01148 -0.0133057 3.28225e-22)
(0.999999 -2.08445e-06 7.70071e-26)
(0.995022 -0.00373606 -3.58864e-22)
(1.00007 -1.77409e-05 -1.64549e-24)
(0.997443 -0.00200718 1.23527e-22)
(1.00002 -4.62864e-05 -1.68004e-24)
(1.04282 -0.0116994 -4.01494e-21)
(0.999621 -0.000392535 -4.18615e-23)
(1.05683 0.0528058 6.97816e-21)
(0.9999 -0.000180483 -5.98312e-24)
(0.989546 -0.00431349 -3.48414e-22)
(0.967417 -0.000857173 2.12962e-21)
(0.996556 -0.000248078 -1.42006e-22)
(0.9837 0.0442108 2.0348e-20)
(0.986082 -0.000586933 5.31557e-22)
(1.01095 -0.0893091 1.89041e-22)
(0.995509 -0.00330078 5.50436e-22)
(1.02191 -0.00244237 -1.00373e-21)
(0.974474 -0.0475886 2.72133e-21)
(1.01656 -0.00124351 -3.34333e-21)
(1.02845 -0.0644534 -8.39081e-23)
(0.999991 -1.43218e-06 4.0158e-27)
(0.99901 -0.017096 9.59699e-23)
(0.996778 -0.000239535 1.72799e-23)
(1.0002 -7.68658e-05 1.02258e-23)
(1.00007 -1.5078e-05 2.84197e-24)
(1.1499 0.184774 1.3221e-20)
(0.996028 -0.00178206 3.06743e-22)
(1.02367 0.000862909 5.6068e-21)
(1.00038 -0.0185921 1.06729e-22)
(1.00069 -0.000254903 2.65705e-23)
(1.02015 -0.00753586 -3.63434e-21)
(1.00013 -3.21229e-05 -3.18801e-23)
(0.999984 -3.37885e-06 -1.53981e-26)
(0.962 -0.00210349 7.06382e-22)
(0.997168 -0.0010171 1.37736e-22)
(1.00002 -4.50468e-05 2.25752e-24)
(1.06868 0.10348 5.04069e-21)
(0.876101 0.0784304 -2.98492e-20)
(0.999833 -0.000191412 1.74481e-23)
(0.968819 -0.00173535 -5.8927e-22)
(1.00001 -7.48928e-07 3.92178e-25)
(0.946614 0.118934 -1.93619e-20)
(1.27761 -0.0605129 -6.02354e-21)
(0.975382 -0.0383081 -2.22301e-21)
(1.00004 -0.000465476 -5.39269e-24)
(1.02546 -0.0297096 7.99647e-22)
(1.02688 -0.00282602 -1.38718e-21)
(1.02796 -0.000289331 4.13136e-22)
(1.04357 -0.0141847 -4.92285e-22)
(0.999699 -0.00159767 -4.86534e-24)
(0.999891 -0.00070652 7.24853e-24)
(0.988464 -0.0130328 -6.04174e-22)
(1 -5.96759e-06 -6.60004e-25)
(1.00001 -6.37893e-07 -9.81573e-26)
(0.979624 -0.0211298 -5.6359e-22)
(0.994831 -0.0520631 -1.1935e-21)
(0.965848 -0.0308881 -7.15624e-23)
(0.897174 0.111215 -6.35722e-22)
(1.00016 -2.0915e-05 -1.2893e-23)
(1.00844 -0.0671074 -2.57079e-21)
(1.00608 -0.00455538 -3.2026e-22)
(0.999985 -3.68006e-06 1.7814e-25)
(0.999152 -0.00331901 -9.15359e-23)
(1.00003 -0.00039372 -3.96642e-24)
(0.996213 -0.0107753 2.15059e-22)
(1.00003 -8.23748e-06 1.88714e-24)
(1.03008 -0.0635869 -1.94817e-22)
(1.01622 -0.00151761 3.24142e-21)
(0.975428 0.132021 4.19708e-21)
(1.02144 -0.00229417 3.77357e-21)
(0.99978 -0.000187034 1.45502e-23)
(1.00037 -0.00032701 -2.75168e-23)
(1.14122 -0.136386 -5.08677e-21)
(1.0236 0.000669392 -4.51067e-21)
(0.997504 -0.000328509 1.2331e-22)
(1.00001 -1.3249e-06 8.1998e-25)
(1.0851 0.0880596 -8.09609e-21)
(1.04429 -0.162243 -1.28852e-21)
(0.994201 -0.0665474 -9.74656e-22)
(0.988331 -0.000637912 -1.49355e-22)
(0.999987 -1.59491e-05 1.7809e-25)
(0.999782 -0.000176303 -8.49234e-24)
(1.04727 -0.166669 3.58365e-21)
(0.996219 -0.0418732 -3.32745e-22)
(1.03639 0.0275628 1.02662e-21)
(0.982103 0.113915 1.75585e-20)
(1.01042 -0.0869748 1.40419e-21)
(0.998989 -7.02884e-05 -2.18653e-23)
(0.999986 -7.76003e-06 -3.06894e-25)
(0.969036 -0.040362 2.15598e-21)
(0.974482 -0.0809594 -2.88712e-21)
(0.999839 -0.000198236 9.13976e-24)
(1.00765 -0.0201064 2.13684e-22)
(0.992128 -0.0222436 -1.24722e-22)
(0.996231 -0.00191185 1.20931e-22)
(0.998278 0.0318633 -1.60041e-20)
(0.998965 -0.000457472 7.76158e-23)
(1.04225 -0.0498798 -1.19095e-22)
(1.23515 0.139701 -3.05892e-21)
(0.99372 -0.0027472 -3.50212e-22)
(0.909531 0.0927197 -2.96351e-21)
(0.918025 0.0437182 9.38679e-21)
(0.999977 -4.25102e-05 -6.69934e-25)
(0.999977 -0.000620493 5.95538e-25)
(0.986247 -0.000779687 -3.40665e-22)
(1.01098 -0.00411402 -7.78537e-22)
(0.970091 -0.00160421 1.22606e-21)
(1.00426 -0.00368009 -3.36272e-22)
(0.993944 -0.00275693 3.27763e-22)
(0.999544 -0.000418931 -3.23314e-23)
(0.956086 0.119493 -3.42701e-21)
(1.05723 0.0502016 -1.08712e-20)
(1.00186 -0.00202094 6.05123e-23)
(0.833842 0.0494339 -5.87455e-21)
(1.00001 -3.68635e-07 -5.71171e-25)
(1.02246 0.00564601 -7.90672e-21)
(0.986969 -0.0806768 2.08767e-21)
(1.0104 -0.0674377 1.00585e-21)
(1.00007 -0.000176355 -7.58687e-25)
(0.968699 -0.00087712 1.00778e-21)
(1.02024 0.00513288 4.46378e-21)
(1.01069 -0.0044021 6.4393e-22)
(1.02647 -0.00182548 1.93682e-21)
(0.999649 -3.12144e-05 5.9961e-23)
(0.999616 -0.00041851 3.79645e-23)
(1.01866 -0.0413564 2.282e-22)
(0.997214 -0.00109643 -3.94975e-22)
(0.989644 -0.00977153 -6.53806e-22)
(0.999256 -0.00300775 5.4158e-24)
(1.08169 0.0328642 5.06438e-21)
(0.998766 -0.0178018 -6.58113e-23)
(0.99595 -0.00405739 6.53788e-24)
(0.945712 -0.0210472 -2.53305e-21)
(0.996456 0.0937562 1.99407e-21)
(1.10065 -0.0479865 1.14462e-22)
(1.01969 -0.00721198 2.92252e-21)
(0.999685 -0.00015148 1.12586e-23)
(0.999594 -0.000273609 5.1388e-24)
(0.985444 -0.01735 1.53608e-21)
(1.00081 -0.00106108 -6.12738e-23)
(0.997909 -0.000579535 -2.22608e-23)
(0.999987 -1.49993e-05 -6.229e-26)
(0.99973 -0.00162808 1.03893e-24)
(1.01969 0.00473432 -1.73726e-21)
(0.984183 0.0815079 -1.82033e-20)
(0.999904 -1.23634e-05 2.01444e-24)
(1.17749 0.162726 -9.54114e-21)
(0.999995 -3.30653e-05 -4.51943e-25)
(0.997358 -0.00237792 1.68219e-22)
(0.999994 -7.92606e-05 -2.60724e-25)
(1.0043 -0.00318561 -1.49231e-22)
(1.2102 -0.0793271 3.26903e-21)
(0.999971 -3.52015e-05 1.495e-25)
(0.99997 -3.78547e-05 8.55786e-25)
(0.956844 -0.0346018 -1.1718e-21)
(1 -6.02575e-06 -2.66478e-26)
(1.04656 -0.0144054 4.08116e-21)
(0.988666 -0.0346849 1.24948e-21)
(0.99998 -0.00054521 4.14808e-25)
(1.08215 0.0655637 -6.20051e-21)
(0.999999 -2.38275e-05 5.65983e-25)
(0.99969 -3.24197e-05 5.17408e-23)
(0.999934 -2.94721e-05 8.70046e-26)
(0.996095 -0.00406741 -1.0231e-22)
(0.999723 -0.00129698 -1.47884e-23)
(0.995013 -0.00026402 -1.12056e-22)
(0.992179 -0.097783 -2.41567e-22)
(0.999754 -0.00126299 9.86391e-24)
(1.00343 -0.00296229 -1.1627e-22)
(0.999984 -2.54691e-06 -7.13241e-26)
(1.03797 0.161561 -2.43295e-20)
(1.04065 -0.0506049 -3.24731e-22)
(1.10389 -0.0493479 1.70704e-22)
(0.972124 -0.00481517 1.32674e-21)
(0.981875 -0.00348712 -2.45944e-22)
(0.999226 -0.00324636 1.51059e-22)
(1.00238 -0.00225313 1.63378e-22)
(1.04689 0.065588 3.01043e-21)
(0.985237 -0.0306703 1.84638e-22)
(1.13018 0.106945 2.77018e-21)
(0.965417 -0.01079 -2.37773e-21)
(0.997266 -0.0022953 -1.58509e-22)
(0.999994 -3.13867e-06 8.48787e-26)
(0.995413 -0.00234325 -2.23417e-22)
(1.01225 0.153266 6.18767e-21)
(1.07388 0.0762674 -1.46821e-21)
(0.984264 -0.0459369 1.00764e-21)
(0.95376 -0.0045695 5.46079e-22)
(1.04335 0.15299 6.63074e-21)
(0.993168 -0.000482836 2.90826e-22)
(0.984179 -0.0735144 1.64303e-22)
(0.999994 -7.57882e-05 -1.26119e-24)
(0.987756 -0.034787 1.55324e-21)
(0.99934 -0.000188915 -7.9914e-23)
(0.845919 0.0841536 -1.68638e-20)
(0.98067 -0.0598987 -2.19262e-21)
(0.999936 -2.64887e-05 3.32827e-24)
(0.95084 -0.0147371 -1.42474e-22)
(0.985017 -0.0325182 8.85452e-23)
(1.0334 0.0730422 1.09209e-20)
(0.997937 -0.000632482 -2.09998e-22)
(0.983572 -0.0312749 -5.49369e-22)
(0.997935 -0.00899934 -1.88507e-22)
(0.99956 -0.0195726 -2.18097e-22)
(0.998992 -0.000465413 -5.30478e-23)
(1.03207 0.0714562 -1.3271e-20)
(1.00802 -0.138728 2.23005e-21)
(0.985646 -0.0138205 -4.51636e-22)
(0.988926 -0.0121276 9.64694e-24)
(0.989635 -0.00407377 -1.40099e-22)
(1.0043 -0.00173657 -1.37082e-22)
(1.04521 0.148645 2.59435e-20)
(0.985674 -0.011213 2.04984e-22)
(1.01421 0.0370349 7.28104e-21)
(1.00219 -0.00180887 1.24579e-22)
(1.18592 -0.109084 -8.0031e-23)
(0.932986 0.0955334 3.10903e-21)
(0.993033 -0.000376621 -1.00447e-21)
(0.999826 -3.32866e-05 9.4114e-24)
(1.05018 0.0896048 3.24004e-21)
(1.00023 0.123138 -2.32829e-20)
(1.01817 -0.0398489 -2.7719e-22)
(1.06944 -0.0473213 -7.03035e-24)
(0.996022 -0.0111711 -2.39464e-22)
(0.972545 -0.00435667 -7.86522e-22)
(1.10529 0.125964 8.44607e-21)
(0.967981 -0.0404519 3.66189e-22)
(0.999985 -1.55104e-05 2.99812e-25)
(0.994075 -9.32777e-05 -5.16981e-22)
(1.00003 -4.30123e-06 1.9763e-24)
(0.996437 -0.000222746 3.85705e-22)
(0.999985 -1.67027e-05 -4.75419e-25)
(0.998169 -0.0125612 3.17308e-22)
(0.999247 -3.05911e-05 2.85714e-23)
(0.997769 -0.00470168 2.05426e-23)