/*--------------------------------*- C++ -*----------------------------------*\
  =========                 |
  \\      /  F ield         | OpenFOAM: The Open Source CFD Toolbox
   \\    /   O peration     | Website:  https://openfoam.org
    \\  /    A nd           | Version:  7
     \\/     M anipulation  |
\*---------------------------------------------------------------------------*/
FoamFile
{
    version     2.0;
    format      ascii;
    class       volScalarField;
    location    "3";
    object      p;
}
// * * * * * * * * * * * * * * * * * * * * * * * * * * * * * * * * * * * * * //

dimensions      [0 2 -2 0 0 0 0];

internalField   nonuniform List<scalar> 
19930
(
-0.019483
-0.108536
0.132737
0.000202286
0.000800737
-0.00164734
-0.147901
2.461
-0.0652672
2.40162
-0.0768641
1.72162
-0.0977337
-0.0183665
-0.0194066
0.000197472
0.70008
1.58744
-0.149088
-0.10486
-0.0372936
1.75638
2.41006
-0.0215044
0.123803
3.92199
0.0434855
-0.0675656
0.0644789
-0.143007
-0.00586111
4.62389
2.26098
-0.0492974
1.36603e-05
-0.00559906
2.64956
-0.000451249
0.067476
1.41309
0.221698
2.68543
3.24711
0.0387165
3.92142
-0.26952
2.18135
1.16657
-0.00110296
-0.138552
-0.00049561
0.486304
0.341096
0.00116425
0.336498
-0.227508
-0.106884
-0.0065117
0.0135408
0.73119
4.19006
-0.200063
-0.0517156
2.24357
-0.00282065
-0.0220534
3.85539
-0.0247029
0.447269
3.86014
0.173251
0.551967
-0.0176448
-0.0899361
3.89535
0.223985
3.83538
-0.268805
1.39295
3.61967
-0.0179209
0.00962094
0.0383752
-0.0542611
-0.201091
3.26738
-0.0812836
4.97441
2.25273
4.09741
2.04969
0.000698185
9.21449e-05
4.90416
1.10902
-0.0486947
4.95016
-0.00321475
-0.0448776
2.65527
4.13804
-0.110825
4.22974
0.399326
0.804931
0.344438
3.57529
0.486725
-0.155001
3.3976
0.0558266
-0.159481
-0.105551
0.166
0.258169
3.59688e-05
3.15187
-0.01572
0.325657
3.56904
0.000622699
-0.00142198
1.56774
0.00423701
-0.0492945
1.60713
2.02791
-0.0657165
4.67823
3.21455
-0.0928435
-0.138604
0.220363
0.0635951
3.6157
0.740296
1.35469
-0.0273719
-0.0866908
-0.121998
-0.0240102
-0.0984396
0.495752
4.27159
1.01005
3.64241
2.3117
-0.142351
1.92642
0.049087
-0.144983
3.82897
0.000152443
-0.0492275
0.00938651
2.35001
3.32481
-0.0251433
-0.244019
-0.10433
0.291822
-0.119717
-0.00667157
1.06057
1.17062
4.93787
-0.104795
0.0159059
0.199335
2.62179
1.32304
3.9634
3.2197
-0.0598693
5.1848
2.21482
-0.016794
4.14345
0.292899
3.49792
3.70649
-0.000345516
4.28345
3.19477
-0.0993255
-0.2668
0.177767
2.5578
0.367419
4.62741
2.02945
0.711062
2.71505
0.487541
-0.240545
1.60829
4.26749
0.989196
-0.0969424
4.67681
1.28023
0.445922
0.383775
4.54601
4.36543
-0.160458
-0.0216441
0.494492
-0.224404
-0.0092329
3.82804
4.09284
-0.144103
-0.201512
3.46327
3.8937
-0.0333372
3.56798
0.523876
0.0698888
-0.0259437
3.37613
4.38704
2.07639
3.37253
-0.092776
-0.0112757
9.19161e-05
-0.0262823
0.000788734
1.5446
0.262043
3.54057
-0.110298
3.34837
-0.0732172
0.336969
3.93285
5.00147
3.3447
3.80219
-0.207055
2.7051
0.0126568
0.871443
-0.0163028
0.350696
0.712723
0.516065
-0.00098104
-0.151483
4.43265
1.61899
0.0624546
-0.156248
0.268326
-0.0939789
2.7388
-0.113005
-0.263088
-0.0696636
-0.0427686
-0.00367741
-0.0749802
-0.106968
4.27385
0.947275
-0.0974195
3.38395
4.34435
-0.0798214
0.00237711
-0.0575233
3.84847
0.213897
4.17301
2.21016e-05
-0.196469
3.35275
3.79146
0.0618506
-0.0994778
4.56603
0.535607
0.699272
4.18873
4.60032
-0.0875113
3.37819
1.16091
3.5856
2.98928
0.00240119
0.927222
2.68087
-0.0182702
-0.13014
1.07388
0.000560265
1.25558
0.871644
0.000203091
-0.00245273
4.09729
0.00167144
-0.13634
-0.0970653
1.76951
-0.178999
3.48769
1.19828
-0.0805537
-0.276043
2.54279
1.6794
0.000135584
4.10413
3.23521
4.09146
0.383594
-0.00301998
4.54593
-0.0147249
-0.0616044
1.61955
1.01197
-0.11385
0.481975
3.34321
4.87742
3.71838
1.38569
5.21317
0.000183453
-0.0524798
3.79958
0.178254
2.66969
-0.0810034
3.88407
1.11568
0.000241246
1.08861
3.1328
0.111418
4.32539
3.12138
-0.00249367
0.179301
2.27328
1.6689
-0.0313233
3.19771
0.0249442
5.07838
-0.0347832
-0.146683
-0.141377
3.70559
3.17315
-0.198603
2.53416
4.09502
0.00203053
2.98576
3.24687
5.17719
-0.0124431
1.86691
0.672476
-0.236987
-0.00147689
3.93412
2.68163
0.878892
3.98612
1.4529
-0.113484
2.65533
1.18959
1.6397
5.07516
0.00261843
1.51402
4.07666
-0.162788
1.00712
-0.0264972
2.22627
-0.187592
2.10143
0.914261
1.47176
0.00498052
2.20482
4.05091
3.03935
0.0320172
-0.0362512
4.50605
4.58159
-0.0139062
-0.188528
3.56468
-0.131078
0.295874
2.74332
-0.146118
5.31085
0.0868565
1.98692
-0.0433426
4.07894
3.0736
0.532828
0.313291
0.740735
1.314
-0.00248465
3.56969
0.562876
2.32152
5.03826
0.395912
0.226112
-0.000946398
1.19414
0.93318
-0.111086
2.88741
-4.04415e-05
-0.129998
0.0651501
0.57293
-0.0676332
-0.00105141
-0.0895717
1.55747
0.0751157
0.142755
-0.167968
1.10172
0.907288
-0.135302
-0.271599
0.00349187
0.447329
-0.120704
0.0554826
0.0843957
1.6972
3.00841
1.10307
-0.00267942
4.64432
0.0561602
-0.000347073
0.204738
-0.17351
-0.0579842
4.33342
0.0664288
1.17994
-0.0914121
-0.107884
2.69623
-0.0540581
-0.103515
-0.118355
-0.00136999
0.439475
4.7457
-0.0698783
-0.189255
2.8778
-0.107977
2.97513
1.92172
-0.0169868
-0.00864014
3.26615
4.96763
-0.106604
2.23072
1.50311
-0.161532
-0.163125
3.55497
0.728342
0.0680867
0.00344951
-0.212064
0.344402
4.53711
1.41561
0.000390494
4.24233
0.107469
-0.0560671
3.3023
0.0745875
-0.0464154
-0.00249667
0.574394
-0.15757
7.4474e-05
2.2055
0.245043
3.59373
-0.00345155
0.000441952
-0.114633
4.44008e-06
-0.121916
0.102171
-0.00214733
-0.0332884
-0.260346
3.27416
4.01436
-0.0147311
0.0133016
-0.118456
4.05168
0.00433681
4.08764
-0.0829792
5.10349
3.06457
2.01068
4.85255
0.617248
-0.0459808
0.67176
0.0236143
3.96944
3.53836
-0.138787
0.378447
0.890032
0.194565
-0.0457695
0.313363
7.84209e-05
3.3025
-0.270391
-0.0842957
-0.0303179
-0.0152193
1.99737
1.1558
-0.0280098
0.0842772
-0.000139895
5.11278
4.49203
-0.0244105
-0.125661
0.149239
3.52397
-0.258686
1.50207
-0.180571
3.7673
2.00392
-0.161921
5.28608
0.304196
3.67374
-0.0358749
-0.13549
4.31405
0.0414894
4.99651
3.42971
5.16233
-0.0432034
-0.0708947
0.00744261
0.770839
0.0676848
0.0257128
3.69632
3.79968
3.03165
4.01305
4.92411
2.27205
4.04707
3.04425
0.0195588
3.31436
-0.108553
-0.173417
-0.00566917
0.16803
0.0776656
2.54521
0.599566
3.61817
0.00704681
1.03552
3.48295
0.0286921
0.285817
-0.000119496
0.00149667
2.54116
-0.0884143
-0.147497
0.00171329
0.000283866
0.833533
-0.00253056
1.08538
5.15197
2.29095
2.29329
-0.163327
3.48798
1.24797
0.00940494
-0.122736
-0.0124369
-0.00268836
0.00763721
-0.0284998
-0.0885337
2.56125
0.751963
-0.265943
-6.61049e-05
3.75659
0.756607
0.489187
0.0511983
1.3709
0.148
-0.265353
3.49096
4.79476
3.10015
-0.18962
3.14447
-0.178413
-0.0916069
2.42481
0.000385283
-0.0592597
1.89924
2.26691
-0.15653
3.4713
4.35104
3.39984
-0.181462
-0.264774
0.172385
1.22593
3.24909
-0.021825
4.26951
-0.0631353
-0.121549
0.717521
4.69373
2.56595
3.58213
0.130544
5.04702
-0.149683
-0.0844824
5.23298
0.479803
-0.0544516
3.63385
3.77716
-0.12169
3.21442
4.05147
3.75321
3.40286
3.68557
3.05282
-0.0659339
-0.145085
0.0117172
-0.122543
4.04074
-0.116976
1.72225
1.74092
-0.149436
1.11171
1.8871
4.12754
1.10802
-0.00194504
0.374487
-0.0983651
0.549582
0.526293
-0.125524
3.37287
4.17548
0.903398
4.09517
4.99141
-0.0244612
0.0150628
-0.0170325
-0.13187
2.75859
5.12249
1.45161
3.48376
-0.0905581
2.99631
3.06156
0.287262
-0.202727
-0.254337
1.70547
0.0304717
0.794696
-0.153066
-0.226616
3.56327
-0.0382145
0.0732899
3.77435
1.08082
4.57542
-0.0295179
3.00678
0.511852
-0.068184
4.25122
4.74999
4.0311
-0.0437385
4.71894
-0.171256
4.16257
0.542364
3.98871
-0.107976
0.000111105
4.00623
4.18579
4.14244
4.01786
2.54812
1.04601
2.86473
-0.0556482
4.02722
3.45372
0.761066
0.620148
-0.0633177
0.62678
3.48569
-0.219816
-0.193312
4.14875
4.05251
-0.0859999
3.93743
-0.138924
1.35385
-0.0901695
4.12061
4.19458
5.01415
4.09573
-0.0209944
-0.0912526
-0.00642996
-0.0881936
4.5602
2.18407
3.40027
-0.2238
3.05587
0.164676
4.5705
0.217123
4.11384
-0.0825533
4.46278
4.66261
-0.0991729
1.42836
4.44597
-0.0216295
4.79409
0.134161
-0.0269495
-0.207935
3.6877
1.87854
-0.0942492
3.932
4.72971
3.05263
0.324655
-0.0646767
0.616038
4.03561
4.68959
5.13732
2.13582
-0.000592638
-0.206277
3.46052
0.00743418
-0.0740525
0.0115505
-0.0410967
0.0295947
0.183556
4.2929
0.0580823
-0.00478054
3.37303
2.06064
0.00516069
1.56941
0.00794081
1.84856
3.42028
3.97121
0.121536
1.54752
-0.0320594
0.317628
-0.023122
4.0773
4.31568
0.17348
0.107366
0.0502263
0.0390516
3.97093
0.0707262
0.117892
-0.0547139
0.357469
4.90041
0.000199239
0.971263
4.1423
-0.0479025
1.24947
0.10129
-0.0149446
-0.0223628
-0.00161649
4.86172
2.95948
0.141472
0.767797
3.03307
3.88714
3.43099
0.466434
-0.109701
-0.0551231
-0.0908375
3.27988
-0.17141
-0.047006
-0.00109689
-0.137176
-0.0109849
0.0532939
3.73816
-0.0365342
4.05253
3.9671
-0.171647
-0.0762942
4.97148
3.09637
0.807291
-0.0832049
2.98496
-0.0622567
2.73425
4.86887
2.63892
-0.157753
-0.0902168
3.67354
-0.146437
-0.0799111
-0.0548019
4.38065
-0.113788
0.724027
2.92548
2.32693
3.36886
0.0651332
2.53769
0.033762
4.11968
-0.0668334
1.81753
0.00178404
-0.0276208
-0.0053776
-0.0120407
0.00466831
4.38701
-0.0418242
2.94036
1.31282
0.240777
0.0265733
2.23786
5.07564
4.4855
0.164568
2.10526
0.128866
1.1646
-0.18583
1.7168
-0.202033
0.00494272
3.24733
-0.10137
0.0745024
4.35443
3.56416
4.13713
0.335437
0.576857
-0.0537501
2.19481
0.389435
0.000609986
4.50957
1.45408
2.02602
0.82401
-0.000983434
-0.0265559
0.00840483
1.94857
0.00104486
-0.0579912
0.0648157
-0.0842971
4.58375
-3.97923e-05
-0.0762008
-0.246841
4.81274
0.110119
-1.88757e-05
0.0980846
1.53584
3.30832
-0.0840408
-0.0689059
0.0182476
3.4025
-0.08273
2.09032
0.218984
0.150531
1.24227
3.19387
1.12891
2.07477
-0.0248032
3.53791
4.70727
-0.0812788
2.8162
-0.0985857
4.80371
4.63721
0.0388813
1.1924
1.07976
2.90906
-5.03365e-05
4.01718
5.19769
-0.0409126
1.7285
2.37003
0.00328784
0.00353143
-0.101364
5.05065
-0.0141325
-0.0614644
4.00957
0.0153617
2.85179
4.12938
-0.10583
4.4525
-0.122382
-0.0758099
4.14916
2.15134
3.36618
-0.0268455
4.138
1.94172
3.97505
-0.110879
-0.013023
1.74425
4.48855
4.16386
4.52031
4.06677
0.588795
-0.196561
0.868502
3.06606
3.98989
4.73818
-0.146005
2.49439
4.91502
3.7446
0.00367435
-0.216025
-0.115115
1.6561
0.31564
4.42711
2.22685
3.97829
1.29282
0.359667
4.00349
0.645974
3.15476
0.115448
1.07075
-0.00631611
0.0920834
-0.0841731
4.76728
-0.0850453
-0.100058
0.558268
1.94724
1.19724
-0.106064
0.877595
0.226356
-0.0463789
3.24387
1.95702
3.52564
0.213284
4.21139
0.0129712
0.00221311
-0.0234102
0.111402
0.0900011
0.144179
0.0343435
2.42823
4.52406
1.80118
1.01121
0.0630036
-0.0815264
2.77134
0.0954019
4.8431
2.48434
0.0671678
-0.114383
0.560212
0.156769
-0.0443628
0.0485357
0.396323
-0.0241477
2.37675
4.63614
4.25246
2.1748
-0.0356016
-0.130412
-0.0156502
-0.0386603
3.31846
-0.0868491
3.17664
0.00084542
-0.0686305
4.54531
4.63654
0.00303795
4.03507
4.21882
1.58828
0.0990307
1.87113
3.30355
4.62847
2.78411
0.08122
4.53533
1.11223
-0.00750853
-0.0371356
0.0800514
4.72239
0.124724
4.10137
2.54151
4.46017
0.266697
2.93669
2.96377
0.0169096
4.17172
0.572446
4.40977
0.00315302
2.70246
3.18086
3.10427
0.00607746
0.792263
-0.0141227
-0.138858
2.59905
-0.070028
2.92734
2.75441
5.02159
0.256828
4.42695
0.196163
0.174474
1.00219
4.02088
1.36526
0.630414
0.981515
3.45808
0.0136738
4.95395
0.0224336
0.490189
1.27048
-0.136988
4.0939
-0.00665473
4.27735
3.45954
1.58486
0.780156
1.76159
0.00106533
0.696161
4.35465
-0.0920202
0.476981
2.59383
1.16573
0.475557
0.806762
-0.0854629
4.62226
-0.121287
0.97609
0.503315
-0.209114
3.95773
5.10147
-0.170362
-0.0878382
0.0479842
1.20317
0.00432671
1.55104
4.65324
4.47497
0.195093
1.81217
0.000430859
-0.176921
3.56792
0.0871091
2.17953
-0.13242
4.8959
3.46002
-0.0831686
0.0950571
-0.0256354
4.9384
-0.137695
-0.00767163
-0.135916
1.61266
-0.00945647
-0.132143
1.45286
4.66739
-0.0892755
4.80132
5.14388
-0.0797406
0.444695
0.0026826
-0.0290189
0.23317
-0.072662
4.90673
-0.109745
-0.0429173
3.2007
-0.0927413
3.46216
-0.0671842
0.75827
3.36767
3.23935
-0.112488
-0.0301991
-0.0930907
3.80124
-0.136691
2.32364
-0.157097
-0.0472168
-0.168667
0.00313806
-0.0195599
-0.0705907
-0.0385498
0.460845
0.0859155
1.4481
-0.0164818
-0.151719
-0.0594521
-0.105998
0.0563564
4.57589
0.670094
-0.0650474
0.0541762
3.71548
-0.0163957
3.2858
0.434324
1.02544
-0.0797143
3.44129
2.35329
-0.192783
0.0215363
-0.00781116
2.80969
-5.04576e-05
3.22115
3.73064
0.0565957
0.281093
1.51217
1.37415
-0.0140387
1.6537
3.53489
-0.121522
3.08633
-0.186704
0.297728
2.97822
4.62808
0.616056
0.0266917
3.94807
2.95459
-0.135529
-0.10233
-0.109031
0.274774
-0.133676
-0.0532563
3.69274
0.0245905
0.209681
3.66375
0.136747
-0.11573
2.27302
-0.0337022
1.76618
3.18612
0.598559
3.13367
-0.0619246
4.53425
0.0568068
-0.000341702
-0.000639049
0.914173
0.00166224
-0.0766536
1.78722
0.209175
0.0138223
-0.0523309
-0.0841703
2.11761
4.10485
-0.00638798
-0.0956697
0.152536
2.96191
-0.12541
-0.0914571
-0.145544
1.00608
2.32474
-0.0232441
-0.0747242
0.439425
3.42611
3.63411
1.5989
3.25553
4.18398
0.00998737
3.01696
1.38347
0.637068
-0.12455
0.425826
5.23562
0.0735777
0.0925445
-0.192048
3.37431
-0.0912101
0.000762657
-0.166838
-0.191192
-0.0327529
4.11466
2.48543
3.02067
3.71938
3.27897
-0.130662
1.67016
2.70647
0.909504
4.00963
2.03896
2.53901
-0.000108243
2.72539
-0.0531924
1.96322
2.65002
-0.0804251
1.16171
1.12523
-0.0980333
-0.0615467
1.00297
1.88579
4.71804
1.98163
-5.97042e-05
2.47306
-0.101373
2.64285
2.15486
-0.0988651
-0.113491
2.91508
4.01357
1.48161
-0.259378
-0.156895
2.00119
3.08963
-0.188646
3.63228
-0.143501
1.7366
0.521338
4.42548
-0.00551573
0.0119528
-0.0348393
-0.168038
0.402373
-0.147313
3.05686
3.63626
0.0630972
2.35499
0.072011
-0.106482
-5.74422e-05
2.10235
-0.00853917
2.36245
-0.000326108
3.1489
-0.240081
3.57126
0.426255
3.84691
-0.203976
-0.0830774
-0.0072897
4.06266
-0.156044
1.19248
1.65521
0.0893713
3.52993
-0.0854965
0.0761311
-0.178681
-0.0371535
4.14002
-0.0376016
-0.161311
-0.114025
-0.000181179
-0.123506
3.61543
0.00531979
-0.232572
0.0129578
-0.0120573
3.35515
0.453451
1.00086
0.0422075
0.0054099
-0.00761167
0.662548
-0.188564
0.011868
-0.0933094
2.23783
0.000748258
-0.170709
0.616869
1.6711
3.9333
-0.141938
0.0439691
-0.257025
-0.0325291
3.21072
3.61445
4.19175
-0.000432896
1.94422
-0.174676
-0.174229
2.46412
-0.0986267
-0.10074
-0.130146
-0.035142
-0.138026
-0.125975
-0.116329
0.0151537
0.196083
3.12696
0.101173
2.46076
0.951485
0.680834
2.06591
1.47778
2.78505
0.37254
2.96834
0.00262887
-0.0376422
2.78769
-0.196952
3.313
3.17041
-0.10551
-0.227699
0.00125873
-0.197869
0.843551
-0.152794
-0.159886
-0.162213
-0.140964
-0.234939
-0.128775
-0.117767
-0.0597852
-0.243301
2.78459
-0.220535
-0.0280685
-0.244486
0.0202446
-0.249167
3.60282
3.50501
2.05819
4.31227
0.0586675
0.357442
-0.19417
0.0183095
-0.0226872
-0.00159617
-0.000162484
1.99745
1.46275
-0.00190375
0.137034
1.27975
2.02073
-0.0998513
-0.165625
0.0673058
-0.0246966
0.0129719
-0.000784382
-0.241911
-0.0350402
4.59625
0.0230363
-0.0264971
-0.149291
-0.143814
-0.12543
-0.193302
0.00444435
-0.124573
-0.0982785
-0.227216
-0.0805817
1.28146
-0.129852
2.34332
-0.206033
-0.0296538
0.405331
3.29533
3.42256
2.67796
0.244877
0.161308
0.0726037
0.258768
-0.13132
0.222709
-0.215996
0.18975
-0.0764116
-0.0077745
-0.000342531
0.914924
-0.0631951
-0.00787584
0.0471773
4.7215
-0.146772
-0.0173356
4.4663
4.61909
-0.178602
4.55081
4.30625
3.27716
0.00318607
0.248506
4.64841
-0.0102196
-0.00523098
0.029036
-0.170792
-0.0734839
0.168785
-0.159842
-0.212794
-0.222706
0.00806513
-0.00316041
-0.0965103
-0.0769855
5.01818
-0.191898
-0.141464
5.03691
-0.0472166
4.85274
4.47785
3.13556
-0.153266
4.99029
1.16587
3.79395
0.212445
-0.000277202
0.00759189
0.0716703
0.707696
4.06872
-0.0251701
0.00276637
-0.181048
-0.0023803
0.118823
1.99771
-0.00211906
3.27216
-0.086672
-0.0395641
-0.177862
-0.16055
1.64147
-0.0495511
4.53547
0.012627
4.2271
0.0763533
-0.184701
-0.000653843
-0.275657
-0.0211725
-0.257225
3.75375
3.99914
-0.000578621
4.58597
-0.158787
0.0060916
-0.0259536
4.25072
-0.0124816
-0.00933466
-0.00442758
0.00711328
0.00241031
-0.00234158
-0.00847811
4.69667
-0.00525532
-0.0287872
0.0618434
4.80052
5.16647
-0.0637118
-0.183272
3.34294
5.0601
-0.166644
-0.190307
-0.000477655
0.325472
4.18865
3.28988
0.00555462
-0.158386
-0.194104
4.32215
-0.10226
-0.0833605
-0.0944202
-0.0948408
0.0132645
3.49503
-0.00193105
4.39543
-0.0302413
4.72794
-0.0102225
4.4606
-0.146412
0.933633
-0.0395366
-0.000359695
0.00691395
-0.069569
-0.134927
-0.0328825
0.00353963
0.0188254
-0.0325882
-0.180032
0.00343581
-0.126782
-0.120687
0.0123092
1.14226
-0.000416014
3.27076
-0.199016
0.00387948
0.0283446
-0.0340585
4.87385
-0.110378
-0.0776385
-0.076947
-0.220713
-0.172443
3.10935
3.46064
0.0634988
-0.135169
0.234019
1.28787
4.37479
-0.23748
3.09758
3.61245
-0.000652523
-0.198467
-0.18489
0.0132726
-0.010035
-0.0106252
0.00975532
-0.0732534
-0.0668224
0.0997769
-0.0736108
0.225303
2.07875
0.072964
3.25297
1.40092
-0.112337
-0.000470054
0.00607177
4.04482
-0.0100358
-0.207683
-0.00901382
-0.232423
-0.106015
2.63073
0.806191
4.67152
0.0021753
0.00492979
-0.221444
2.22778
0.0347282
4.44382
1.41992
-0.191229
-0.129864
-0.0624601
0.14643
3.06885
0.521508
4.13
-0.243467
-0.00259489
-0.0203819
-0.100299
0.00122373
-0.00605585
-0.0362245
-0.0882603
0.0871772
-0.217632
-0.00152144
-0.219724
-0.0425638
-3.74077e-05
-0.00203582
0.0345479
0.00488729
-0.0036692
-0.0230635
0.389059
0.00807607
0.76963
-0.120575
3.33866
-0.191655
-0.0645166
-0.000405749
-0.0676646
-0.168743
0.0381024
-0.0622214
-0.000177605
-0.0556267
-0.00213223
-0.0209007
0.897936
1.42377
-0.123056
0.00210144
0.681453
0.0714003
3.53551
2.75223
3.26775
-0.0211286
-0.0440687
-0.00687257
-0.066246
4.17795
3.15572
-0.0195421
-0.0169511
2.38876
3.17292
4.61581
0.00100072
-0.0344305
-0.075168
-0.00058182
0.000811239
-0.00163718
0.00830645
-0.0196806
3.32846
0.0223012
0.00035291
0.0802215
0.00703836
0.85821
0.049664
2.30668
0.00911258
1.58228
-0.178648
-0.250453
1.7801
1.51159
0.00169115
1.82089
4.37269
-0.207803
3.43246
-0.259918
-0.0599315
3.69883
-0.0118894
3.10234
-0.0265403
0.256901
0.042657
-0.0701308
-0.134191
0.0056374
-0.00311763
0.358598
-7.48626e-05
-0.108413
-0.228845
4.44002
0.18725
0.0306852
3.2662
-0.00014033
0.00356042
0.134302
-0.0084662
4.3223
-0.0200777
0.00446459
-0.139216
1.30859
-0.0731577
0.00999294
-0.00348081
1.16475
0.0821812
0.00281988
3.96312
4.78122
0.00953545
0.609658
-0.000501385
3.49474
-0.00506375
-0.0319628
-0.00149292
-6.57612e-05
0.0306324
0.0350026
0.00848624
-0.0427804
-0.00727159
0.114396
-0.00284434
-0.00371523
0.0924051
3.74282
3.91682
0.117655
2.93754
0.972191
-0.000618372
3.20466
-0.0293669
0.0142991
0.0360617
0.603709
-0.00370307
0.373332
-0.0150072
-0.00928918
1.83038
-0.144138
-0.112348
1.55084
2.63054
1.52596
0.000164468
-1.82773e-05
-0.147498
2.17498
-0.0387655
-0.147911
-0.00469583
3.17146
0.303301
3.73974
2.59321
-0.134684
1.71772
-0.00961412
3.30583
0.827956
-0.185943
-0.00265056
0.00888732
-0.127536
-0.147762
-0.109682
-0.1711
1.4409
-0.0839261
2.30615
0.00145696
0.0392374
-0.00816115
1.25151
0.328643
0.0346687
-0.000317234
0.289911
2.14015
-0.206758
0.25475
0.224724
1.01792
0.198401
-0.00449294
0.00497669
3.59366
3.84707
4.04419
0.00164089
3.87932
3.53117
3.88804
-0.0285851
-0.00428648
0.00221069
2.37938
2.89709
-0.082937
-0.228634
-0.234001
-0.0898664
1.09899
-0.132146
-0.073031
3.04802
0.0122474
-0.113879
-0.00124489
-0.152399
3.91884
-0.0998199
0.00051647
-7.56027e-05
4.23502
3.45868
0.742588
2.08173
-0.122615
0.668637
-0.142805
0.594443
0.527219
0.474758
1.98799
-0.165732
1.38695
-0.00028454
3.79902
-0.0119754
-0.0300864
3.28313
0.211751
-0.0832276
-0.260527
0.644209
1.60573
0.104161
-0.00257562
3.10196
0.00408742
-0.0918252
0.913309
-0.00310646
-0.0489833
0.0112904
-0.243535
-0.213649
0.818828
-0.00571488
0.730581
-0.0630822
0.650734
0.576978
-0.0900731
-0.150527
0.511125
-0.216864
-0.137133
-0.117782
2.59398
-0.158451
-0.0702696
-0.00167105
-0.169153
-0.223894
-0.00201361
2.53976
3.67465
-0.203819
-0.165866
-0.107973
-0.0806734
-0.00387366
0.00213567
-0.0305825
0.586973
-0.002606
0.16813
-0.225815
-0.226191
0.00782327
-0.00215149
2.49999
-0.0348995
1.28689
2.7748
0.0319244
-0.233255
-0.219717
-0.00187715
1.1942
-0.244615
-0.241149
1.09945
1.7794
1.21276e-05
1.00899
1.96325
-0.00303982
1.4732
-0.100976
0.144827
3.07824
-0.0419588
0.00148249
0.000586959
2.80699
0.253854
-0.0873325
-0.247694
-0.119958
-0.0765153
-0.0557827
-0.206727
1.34649
4.11466
4.58472
3.35311
-0.00212469
2.48999
1.23274
-0.123094
-0.254467
2.4608
-0.230794
0.197514
-0.00424615
-0.216288
3.08936
-0.00127426
-0.0751738
-0.0744806
0.357985
0.00515158
3.37751
-0.231858
3.28455
-0.153215
-0.194327
0.0913034
-0.008633
2.97492
-0.098925
-0.0739782
-0.000238689
0.143851
0.44751
1.67474
-0.0672939
0.000421487
1.82951
-0.0003331
2.32394
1.57181
0.00348175
2.37206
-0.085569
-0.00175446
-0.0917508
-0.00476373
0.00691612
0.0218316
2.69667
-0.114054
0.0087057
-0.0950792
-0.116076
2.86258
3.88438
0.0027499
-0.0764754
-0.0523411
-0.077661
2.95084
0.230663
0.00436522
2.188
1.59091
3.35437
-0.0484756
0.00662129
2.42905
0.00739701
-0.251927
0.244498
4.22212
-0.0714431
-0.1054
0.00548975
-0.0431191
4.19066
-0.203656
4.73211
1.68994
-0.0732655
-0.00694454
-0.072516
0.0785038
0.00150027
-0.0865995
4.11748
4.66441e-05
-0.0322789
4.16435
-0.00386965
-0.0822879
0.00174554
-0.0140597
0.00172173
0.546573
0.048007
-0.0143404
-0.00466783
-0.00624769
0.00100714
0.00108077
-0.00123941
-0.0507717
0.00129086
-0.00968097
0.145997
-0.051248
4.69375
0.619996
-0.0120563
-0.0421566
7.50465e-05
-0.103539
0.000894585
1.29618
3.18967
-0.0174218
-0.00666777
-0.0244166
1.02798
0.0146382
4.94036
0.0162393
-0.0132905
2.33488
0.108241
0.00121982
-0.166509
3.24115
-0.00579406
3.08846
3.29917
-0.122695
-0.163216
3.79859
-0.102782
-0.0176031
-0.207529
2.49717
1.31296
-0.129149
-0.00292786
3.98733
-0.00824371
0.201905
-0.0469141
-0.0232498
4.46195
0.00757163
0.000494504
-0.154981
2.06788
4.76986
3.2085
5.12327
-0.0390333
4.42396
-0.0039908
2.6238
-0.0297137
-0.00762711
1.7323
-0.0745987
1.22847
0.000561048
-0.237945
4.80849
-0.090635
0.404415
0.0158029
-0.011391
1.79584
0.0199985
-0.195376
0.00111268
-0.04623
-0.0018213
4.95257
-0.128009
-0.18405
0.990133
0.168426
1.64064
3.03089
0.00203284
0.333894
1.97876
3.44204
4.9931
-0.000291733
0.263052
0.196784
-0.0153555
2.16608
2.37566
0.226225
4.24245
1.38106
1.88796
-0.102391
3.08905
-0.237554
0.00129855
0.000588253
0.00103648
-0.00426287
0.0113945
-0.172388
0.00051809
0.00763343
0.0762901
-0.00121978
2.31506
0.0301877
-0.000219855
4.74418
0.00343726
-0.00171689
3.88658
4.96986
-0.25339
-0.0261768
3.76846
-0.0672334
4.44426
0.871915
-0.00327179
-0.116639
-0.00985045
0.0235513
0.00590793
3.18521
5.95006e-05
0.002344
4.1994
-0.00523931
0.0192878
-0.0770066
-0.165274
-0.215024
0.00130216
1.07042
-0.238133
0.00115947
-0.190959
-0.0157914
2.4843
-0.00114461
-0.00114189
-0.0146348
4.14739
-0.0656599
-0.0400879
-0.0111798
0.0178912
3.96683
0.109467
1.49389
3.77161
-0.00726788
4.48682
3.61621
-0.0756978
-0.114732
0.00319964
-0.145383
4.43252
0.0286646
-0.00635713
0.000730817
-0.235834
-0.0493347
-0.00755862
0.002154
4.48525
0.000549546
3.36728
-0.0376026
-0.131095
0.000867929
0.0523449
0.00508256
3.87601
3.94877
1.69043
-0.005645
-0.213998
-0.0505439
1.62435
1.26913
2.26002
-0.1478
-0.0690434
-0.287715
-0.00355651
-0.0047741
-0.00891375
-0.00909188
-0.0064991
-0.00764657
-0.0163149
-0.0444983
-0.257084
-0.014363
-0.0189148
-0.252147
-0.00243829
-0.0106587
0.000237784
5.27355
1.11082
-0.0134214
0.0349415
-0.0121356
0.00016566
-0.00287607
-0.024855
-0.0215715
-0.199637
0.000479579
-0.286096
-0.00418636
-0.010448
0.000961129
-0.217973
-0.123164
-0.0281838
4.08173
-0.0125981
3.28451
-0.160083
4.27328
-0.285264
-0.283076
-0.280102
-0.275563
-0.270018
-0.265047
-0.257823
-0.00205767
-0.25088
-0.242038
3.91253
-0.225733
0.288276
-0.194574
-0.00341258
-0.00562739
-0.11864
0.000767163
-0.0166374
-0.000857609
-0.0148441
0.522342
-0.0122734
1.98782
3.47367
-0.0585808
0.014938
-0.244794
0.0419452
-0.0354872
-0.0507822
-0.192337
-0.00261124
4.81721
-0.114701
-0.112577
-0.0186048
-0.014269
-0.0313223
-0.0255232
-0.287965
-0.0400485
-0.0168426
-0.101347
0.884523
0.00056114
-0.00170862
-0.0201551
0.247871
-0.0194379
-0.0290988
-0.0223183
0.000862111
0.00256967
0.00408647
0.0026931
-0.0145245
-0.0331009
-0.0348232
3.84939
-0.00778626
-0.0258507
-0.0163821
0.0099636
0.00172083
0.00243087
2.59067
-0.0220955
3.57135
-0.0423076
-0.00918608
0.000778867
3.19164
0.0649055
0.00251858
-0.00139287
-0.00135889
-0.0822453
-0.0374936
0.839531
-0.00146836
-0.000232887
-0.00656559
-0.0189661
-0.0108068
-0.0475977
0.0190196
-0.0825002
3.77748
-0.215312
-0.0955453
-0.00453457
-0.00105335
-0.220832
0.000316733
0.153991
-0.0428654
-0.0480481
0.00408107
-0.0350116
-0.0669668
-0.102985
-0.00548703
0.000727182
-0.15519
-0.00453557
-0.053561
-0.0593048
-0.053548
-0.000933998
4.479
-0.00374074
5.14402
-0.0614041
-0.0657257
0.0712851
0.000576245
0.000317544
0.547056
0.00273558
0.141665
-0.00230495
0.654819
-0.0599627
-0.00168172
-0.000924674
0.0276873
4.40354
-0.00195848
-0.113076
0.0592976
3.7394
-0.148109
-0.0536725
0.000421297
0.362754
-0.0976678
-0.0465076
0.0399922
0.00202865
0.0939335
4.76225
-0.057422
0.00942973
-0.0844641
-0.00140491
3.3303
3.71747
-0.000665909
-0.0169244
2.79043
-0.00164668
-0.0449329
-0.00109924
-0.00269698
-0.0767512
-0.17723
0.03506
0.417345
-0.00446788
-0.000243393
-0.00135477
0.0297619
0.0292328
2.41652
-0.0960906
-0.000852395
3.55301
0.0177099
-0.0102799
-0.217513
-0.0725236
-0.00524597
-0.00112892
0.0808411
-0.0144715
-0.0680147
-5.28833e-05
-0.00386714
2.40042
-0.0492405
2.78767
4.21777
0.0519635
0.0258893
-0.14668
-0.0542435
4.72159
0.103485
-0.0195199
0.000406153
3.28954
4.53942
2.2198
0.888563
-0.203445
-0.000651198
-0.229785
-0.00327408
0.00803841
-0.106952
3.1226
-0.127909
-0.00150398
0.0191591
-0.00602139
1.08944
3.20813
-0.00548683
-0.224094
-0.00713975
-0.00988374
-0.0124944
4.44925
0.0288537
-0.00787293
-0.00380603
-0.0373512
-0.126767
1.09087
-0.0313978
0.0183098
-0.023536
-0.00155106
0.102518
3.01737
-0.281511
-0.0113072
0.123593
3.22699
-0.00856874
1.37381
3.80583
0.00687226
0.000213295
1.44837
2.8436
1.67994
2.43459
-0.176104
-0.0128633
0.00306921
3.09336
-0.182373
0.015747
-0.135588
-0.0784656
0.0506812
-0.203055
-0.00990462
0.00324474
2.95086
0.0233143
-0.21638
3.93608
-0.115912
3.72505
-0.000117181
-0.211602
3.55188
4.7769
0.13532
-0.0269183
-0.070793
-0.00698195
-0.0119646
3.60188
0.0957714
-0.156828
-0.0110858
-0.00825831
-0.0137572
0.0283375
-0.004889
2.65538
-0.00402462
0.119374
-0.016967
-0.0394983
-0.00655188
1.98752
3.23205
-0.279675
-0.277267
-0.273868
-0.00586993
0.0367915
-0.00328985
-0.268004
-0.263441
2.16463
3.39098
-0.257414
2.03921
-0.110508
0.0705481
-0.0988243
-0.250487
2.39167
1.8406
-0.242775
-0.0665288
3.47987
2.59427
-0.0130187
0.000999941
-0.0122795
4.38585
-0.0022693
0.000766572
-0.019334
-0.0153685
-0.00972659
0.0189621
-0.0177751
0.0888971
1.40781
-0.0834826
0.000734103
-0.173557
-0.169762
-0.113582
-0.164019
-0.282376
-0.0132123
-0.0247684
-0.0220956
-0.0215045
3.45297
-0.0205202
-0.0253139
0.367115
0.000404052
4.28543
3.31251
-0.160752
-0.023409
-0.00303925
-0.0267133
-0.000805704
3.35879
0.726579
-0.00810307
0.324765
-0.0018151
0.286713
-0.00908738
0.253016
0.223349
4.0025
-0.111344
-0.00196499
-0.0151447
0.0344538
2.11101
2.85727
-0.222885
3.02286
4.5144
0.00561073
-0.0649585
2.91472
-0.0304451
0.804146
4.30507
2.83217
-0.0841424
2.91744
-0.0283819
-0.0610682
-0.0107203
-0.0126511
-0.217906
-0.000327764
0.724212
0.650555
0.581691
0.517511
-0.111105
0.983442
0.0038573
-0.016423
2.12762
-0.0692513
-0.00093825
-0.0195593
-0.0345331
-0.209698
-0.00109157
-0.0930886
0.23524
5.09373
0.884009
3.41563
1.17861
5.36339
0.793071
0.708223
4.10947
4.22448
-0.10386
2.03645
-0.00110962
0.524868
0.63123
-0.0390213
0.56084
0.0933016
-0.153452
-0.0177665
-0.0316605
-0.0439928
0.0128134
-0.0358106
3.14763
0.105469
0.049548
0.00872003
-0.194633
0.0418443
3.83649
-0.00432108
2.99775
-0.0672524
-0.131075
1.3501
1.55146
-0.111387
-0.274936
0.0234988
3.32238
2.52574
2.32906
0.177808
0.00534869
1.25358
1.1614
0.0207166
-0.00232099
-0.0114265
-0.0451788
1.06985
0.0198638
1.81501
-0.0494616
3.63822
3.31592
-0.00174914
3.38607
-0.000845857
4.1728
3.95996
-0.0254726
1.4235
-0.227409
0.0416869
5.34269
0.0219729
-0.089042
1.03414
-0.000747056
-0.0502428
2.79584
3.39503
-0.0446923
-0.153981
1.30494
-0.0124572
2.39261
2.91439
-0.0559309
0.405136
-0.00704619
-0.0622278
0.00190352
0.00269594
-0.0147941
-0.0402547
0.271655
-0.0556288
1.3051
-0.00438939
-0.0927997
0.200875
1.90659
-0.264115
0.030347
2.81123
0.0186959
-4.20216e-05
-0.0222342
-0.0194784
-0.214401
-0.0953003
-0.0621377
0.0226994
2.26036
1.7368
0.904528
-0.0802127
3.48202
-0.068571
-0.0585514
1.96126
5.33262
3.41169
0.0318156
-0.176674
0.0710472
-0.119661
-0.0918977
1.63579
5.25712
-0.0799777
-0.133527
1.56849
-0.000832376
-0.0561185
0.00273281
-0.0330598
3.75837
2.1839
0.00111684
3.35943
-0.182461
-0.00537117
-0.127666
-0.0420295
-0.00247882
-0.0444261
-0.115341
-0.0421947
2.26653
5.09941
3.64197
0.181771
0.398513
5.16277
3.92453
5.05405
0.00201984
-0.102112
-0.0274467
5.23808
4.97954
1.33609
2.7489
0.139714
4.90298
0.455176
0.0213335
1.01895
4.81894
-0.0551185
-0.0796722
2.41841
4.74226
3.40547
2.39913
0.619065
4.65645
-0.00528841
-0.240322
4.63443
0.00587161
-0.062379
0.136953
4.57133
-0.0114301
3.50905
4.48614
-0.000119945
0.475734
-0.0453023
-0.0100395
0.0248607
3.35499
4.3622
0.687817
3.23564
1.92552
-0.207022
-0.000971412
-0.00133531
-0.119996
0.000243735
2.43377
0.0552286
-0.0320843
-0.108708
0.903072
0.0210703
-0.167948
-0.0632376
3.44367
-0.159855
0.138038
-0.158623
-0.128975
1.35199
-0.151208
2.75685
3.25472
3.59802
0.68621
-0.115276
3.70786
-0.140629
0.291442
1.12609
1.7987
3.01329
2.51822
3.7376
2.03613
1.57715
-0.115725
-0.145333
2.27029
3.76341
0.480289
-0.149038
-0.143012
-0.137961
-0.100921
-0.127592
-0.033143