/*--------------------------------*- C++ -*----------------------------------*\
  =========                 |
  \\      /  F ield         | OpenFOAM: The Open Source CFD Toolbox
   \\    /   O peration     | Website:  https://openfoam.org
    \\  /    A nd           | Version:  7
     \\/     M anipulation  |
\*---------------------------------------------------------------------------*/
FoamFile
{
    version     2.0;
    format      ascii;
    class       surfaceScalarField;
    location    "35";
    object      phi;
}
// * * * * * * * * * * * * * * * * * * * * * * * * * * * * * * * * * * * * * //

dimensions      [0 3 -1 0 0 0 0];

internalField   nonuniform List<scalar> 
11380
(
159.844
-587.742
427.898
-797.985
25.6674
772.317
477.364
-373.482
-103.882
720.512
233.638
-954.15
1509.8
-1069.35
-440.448
1216.24
-1527.08
310.841
42.3603
453.884
-496.244
169.431
-839.426
669.995
961.82
-1610.65
648.832
-1790.37
1697.94
92.429
-542.947
1759.19
-1143.77
1937.39
-793.621
603.23
181.465
-784.695
-28.0877
-1331.88
1359.96
226.321
-2016.69
1020.08
-388.451
-631.632
-231.565
391.409
480.346
190.548
-670.894
1152.81
-1317.34
164.539
-333.884
373.703
-39.819
1018.01
-1345.72
327.71
1221.85
800.95
-2022.8
79.49
-1663.12
1583.63
-546.345
-1131.87
1678.22
469.825
181.819
-651.645
-200.928
-386.814
497.072
1012.73
1671.45
-1835.17
163.719
-119.306
-1682.13
1801.44
-1561.72
662.211
899.508
-314.656
651.129
-336.473
-181.363
-72.0219
253.385
1303.18
-1223.69
355.471
-1407.04
1051.57
-1754.19
1754.19
103.012
1557.69
-1660.7
-1089.62
-472.103
688.386
-646.026
-390.944
942.226
-551.282
1331.58
-1317.01
-14.5723
-1099.88
708.938
618.114
401.97
-419.383
-4.08396
423.467
-504.742
817.226
-312.484
-1618.25
1618.25
1253.49
-1437.8
184.308
-489.869
1711.72
1250.66
-308.431
1660.68
-1161.16
-499.511
48.4472
-382.331
2069.86
-1138.75
-931.105
1841.36
-169.913
447.223
155.918
-603.142
-485.941
984.498
-498.556
-1191.47
1294.48
-564.909
967.972
-403.063
392.78
760.025
659.521
-490.09
-437.43
584.621
-147.19
1190.43
-834.96
2308.27
-1080.73
-1227.54
1165.71
-2014.62
848.91
-1626.49
1598.41
440.305
-1584.08
-758.423
1249.91
-491.491
-668.722
354.066
1661.38
-699.558
-1106.93
-870.908
1977.84
746.573
-374.669
-371.904
691.266
559.391
-258.223
1511.72
89.9914
-303.878
213.886
-284.424
754.25
-331.346
555.335
-223.989
-324.1
804.445
-319.632
-134.748
454.379
308.902
168.462
1490.39
-472.383
-1029.71
492.45
537.257
255.623
101.06
-356.683
944.494
-341.264
-1713.99
572.169
1141.82
17.2553
-882.243
864.988
-271.638
584.523
-312.885
159.746
-1093.88
934.135
1049.79
-1065.48
15.6894
373.152
515.161
-888.313
-244.932
692.156
-1102.17
-483.141
1585.31
-675.629
948.14
-272.511
1345.99
-1465.3
-663.045
256.529
406.517
-470.221
-1011.41
1481.63
-533.205
-800.56
1333.76
574.144
-993.863
419.718
-259.256
-312.069
571.324
394.616
-304.625
-1051.33
565.384
955.689
-795.942
-110.466
943.336
-832.871
-196.601
402.924
-206.323
-672.481
-357.226
-386.711
960.856
1856.34
-1856.34
-524.619
-138.426
-948.092
1605.96
-657.865
394.836
-823.102
428.266
-920.506
355.597
-941.898
-1058.08
-1507.89
334.705
1173.19
-254.654
975.166
-349.208
631.665
-282.457
-1941.89
999.991
-1164.78
-343.112
600.382
-1548.47
1728.48
-1726.35
-2.12613
172.694
-605.156
432.462
-1501.05
988.963
512.086
268.332
227.261
-495.593
301.266
-632.612
228.459
-400.412
171.953
2025.15
-851.146
-1174.01
-547.834
128.452
611.034
847.247
-1458.28
-181.475
409.934
432.201
875.222
-1307.42
-898.779
383.743
515.036
-1055.71
1448.49
-1067.91
309.485
741.92
-90.7911
578.349
-340.168
-238.181
1052.65
-560.202
593.576
-1403.39
809.811
-1341.83
239.663
-535.598
263.96
-1235.79
981.138
1934.1
-1008.03
-926.07
276.793
1579.55
-2105.08
902.38
1202.7
347.472
-34.5271
-312.945
-221.865
474.718
-252.853
-84.2669
-396.733
481
-453.796
134.165
333.47
-135.386
530.222
442.283
364.341
-806.624
-2059.73
1151.87
907.861
461.158
-520.122
58.9638
213.857
-353.288
139.432
953.03
1072.13
1814.66
-256.971
756.472
-499.944
794.181
-1388.03
593.851
352.619
393.953
1081.83
-1064.57
-457.166
-338.834
795.999
461.155
-122.659
-338.497
793.295
-611.83
480.269
-738.155
257.885
503.333
1157.34
-1240.24
707.031
1016.32
-1562.67
-3.10294
-1439.42
1442.52
329.492
820.367
-1149.86
620.802
269.839
-890.641
-2274.93
1192.43
1082.49
-1121.54
-1153.39
93.0047
387.265
959.385
-629.893
877.122
-896.983
19.8614
-2099.4
992.467
-213.336
-183.656
396.992
-42.3768
1770.86
-850.232
52.2471
-1036.05
-1069.04
-225.92
439.776
-698.798
174.179
-289.734
-480.427
770.161
1103.87
-1574.09
782.121
-1373.92
591.802
730.362
-496.724
1947.79
-1444.45
-378.278
-1375.91
12.4686
441.415
-532.881
558.548
43.7814
-596.795
553.013
564.427
-296.095
-594.089
271.771
322.318
787.498
-345.215
35.1318
312.341
1188.47
-1191.57
155.879
238.737
454.668
-744.402
617.223
-1003.93
-2026.82
2026.82
-297.611
-482.954
780.566
698.346
405.809
-1104.15
579.395
162.525
427.778
359.72
-2199.78
1328.87
-924.942
-681.665
1606.61
-464.068
-771.724
-291.456
622.05
-330.594
880.339
-299.255
-581.084
-481.194
653.888
346.974
-696.183
-400.467
-103.398
503.865
-1353.93
-481.239
707.91
-1171.98
-374.127
-1244.12
844.381
1463.89
310.288
-873.152
562.864
965.057
-346.943
1390.96
-797.389
434.689
-278.81
-319.384
-923.189
649.774
273.415
-423.174
-500.015
320.2
-404.467
-118.543
-172.246
290.789
-392.859
1091.2
432.332
-241.783
-378.077
1380.32
-169.336
-1210.99
-474.279
309.95
164.329
277.181
297.755
-574.936
-76.4216
-661.733
592.272
-1729.14
1136.87
1489.31
-878.275
-1056.88
-444.164
-1054.33
575.296
479.03
1421.97
-433.005
927.845
-1410.99
-208.819
-115.09
323.909
-466.273
575.243
-1630.96
427.782
903.799
291.631
373.511
-665.142
568.01
1186.18
1100.65
-705.577
-395.077
385.836
-199.364
-186.472
-1419.39
448.007
735.151
-1183.16
1473.06
-545.218
-513.895
996.449
-482.554
426.175
1186.12
-1612.29
47.4628
-723.092
-154.983
410.607
145.526
-326.889
572.064
480.588
-508.978
-18.2186
527.196
1024.49
-1307.62
283.129
673.057
-245.279
468.529
-1447.15
978.625
349.552
1690.99
-525.282
848.103
1086
-655.133
-1685.11
760.169
553.609
427.318
-980.927
460.732
79.3102
1750.34
-1829.65
1443.52
-379.491
-1064.02
1699.29
-1741.66
-363.06
-551.178
726.157
-174.979
-502.589
167.728
293.428
-373.061
-1225.86
214.45
-764.842
-638.545
-553.717
980.149
-426.432
-649.468
639.173
10.2953
654.569
-923.124
268.555
-616.661
296.599
320.062
-645.874
-777.874
373.572
404.302
-931.932
1400.46
-434.923
897.302
-462.379
-2205.33
5.55535
162.852
-524.59
361.738
141.408
1238.91
-73.8164
-624.981
148.763
-586.193
1486.78
-704.663
392.454
-459.237
66.7827
-558.12
558.12
1222.89
395.356
1778.6
-1226.94
590.723
636.216
844.52
-51.2246
1293.49
776.369
-541.732
1335.91
292.823
291.7
254.286
-805.464
217.547
-722.29
222.297
-432.943
210.646
-323.235
647.345
-324.11
79.5769
-402.812
-590.594
-564.762
1155.36
-421.642
562.593
-140.95
-1192.14
2032.02
-839.881
1286.8
-327.419
-393.465
134.21
-1991.06
859.186
1581.9
-870.547
-711.356
1987.11
-877.535
-1109.58
714.986
571.818
-238.765
461.061
-695.375
1208.79
-513.415
-768.491
1200.69
552.234
924.427
-1726.56
802.135
-612.164
-50.2889
662.453
294.253
284.096
446.146
-63.3526
-382.793
895.887
-83.6241
-812.263
950.392
-605.378
-345.014
1576.09
-472.225
899.34
-1632.79
733.447
1068.42
879.369
743.484
-430.432
-313.052
-1058.68
-258.326
582.532
567.537
-1150.07
-522.476
526.089
-3.61304
568.334
-329.872
-238.462
-991.928
557.005
591.779
897.53
-441.706
1096.28
1438.35
-804.936
-633.413
383.056
-919.359
536.302
-1075.96
403.479
600.654
-1114.55
450.541
-555.219
104.679
471.818
345.408
-509.286
-48.8342
-793.128
-884.901
1678.03
177.25
208.586
-285.515
378.52
9.82892
-606.617
596.788
515.488
871.064
-1386.55
-427.159
308.616
984.645
-88.758
834.59
-1063.69
229.096
443.989
843.906
-1385.64
-471.697
836.038
1986.07
-1291.54
-694.531
269.118
608.003
255.201
794.589
115.563
-1014.83
899.266
1673.69
-1088.83
-584.861
-138.233
1888.57
-1866.19
-160.635
481.663
-619.782
138.12
-1008.99
529.084
479.903
-1730.45
538.314
-955.101
844.635
392.37
192.25
549.892
-239.604
-409.396
704.152
260.906
-27.4472
745.802
-718.355
-1148.85
-878.46
2027.31
-576.008
1153.25
-577.245
-495.459
-317.907
104.571
-1660.39
867.262
-801.912
-675.292
1477.2
-327.47
-293.788
621.258
357.807
-724.454
366.647
268.037
-613.252
348.513
179.287
-527.8
389.735
-681.192
698.115
-340.308
314.249
-448.997
699.66
489.648
-212.467
-475.11
-302.764
1239.54
1.72558
-1241.27
1037.59
-420.362
557.035
410.937
-1782.25
869.792
912.457
479.845
572.967
-1052.81
-530.061
202.59
-265.966
1183.1
-917.13
-1590.76
1212.48
504.534
-1095.13
380.79
11.6643
483.473
310.374
-793.847
364.576
-609.508
-43.4309
762.242
-718.812
-523.988
793.827
417.511
319.544
524.976
647.932
90.2919
-468.662
378.37
1057.43
-644.081
-413.344
494.075
-1664.27
1170.19
-1140.17
1753.2
-613.031
1715.93
-1123.66
-332.775
604.546
-1196.81
1312.37
424.152
-799.485
1626.66
-827.176
-288.486
-185.793
-945.281
1474.58
1819.71
-609.665
-1210.04
-405.346
756.864
-1310.58
-124.572
-106.65
552.795
-713.742
-354.189
-1236.57
-205.89
473.927
901.381
-555.318
158.585
-1675.12
-71.4213
1746.54
-1112.83
536.819
560.31
-1189.13
628.819
900.697
919.012
630.202
619.712
737.54
258.909
-1199.54
504.167
-385.99
429.771
609.921
-511.953
224.738
-724.711
499.973
755.428
-402.808
-247.56
175.538
-623.29
280.61
342.681
-883.706
-749.081
1087.66
-2145.74
392.72
-677.144
-342.684
-722.796
837.381
600.968
-329.703
325.619
424.166
326.005
573
-899.005
549.395
659.395
-548.097
147.63
394.215
-691.826
-1073.93
-825.991
1899.92
-1820.35
157.226
1106.16
-1372.13
1212.74
-698.049
-514.696
-505.346
1349.25
-1495.35
627.967
867.381
-282.016
-208.196
490.212
1428.48
558.635
376.344
-479.742
-473.686
-581.057
1054.74
-428.66
591.512
1584.14
-1132.71
-451.434
-859.761
376.807
654.152
403.273
-1623.41
416.209
1207.2
-166.946
515.459
797.322
786.82
180.846
-716.088
535.242
194.181
208.743
-270.722
-109.885
380.607
497.913
40.1358
-538.049
-1677.41
620.528
-1627.42
1702.72
-75.2956
17.6341
-1645.05
1069.39
824.747
-341.274
-860.849
-215.112
-1134.57
-239.349
-311.684
676.259
-1813.35
-648.896
1216.43
229.534
754.964
-1335.55
-679.062
-466.609
685.129
-393.497
-1013.24
1350.84
-1933.17
582.328
648.401
1288.99
476.668
-1.94983
715.875
724.473
-1440.35
-631.41
321.229
310.182
431.952
-100.732
-331.22
129.362
330.673
134.767
-465.44
-612.85
1166.46
441.021
-663.426
-457.986
-401.707
859.693
-300.484
91.6643
-449.598
144.974
-298.184
-710.803
536.058
-104.106
-582.589
965.645
568.933
-266.027
-302.906
450.13
-774.23
-649.294
481.647
-1129.34
-861.742
1196.45
-569.771
430.753
365.246
-501.78
127.111
1025.59
-312.043
586.405
-274.362
-509.038
1578.43
-760.956
320.112
366.217
-686.329
212.583
543.84
-0.67896
-543.161
-268.496
-181.102
991.972
1108.75
564.935
-906.779
958.707
-51.928
-448.724
166.708
-814.049
333.622
-585.399
380.361
375.066
877.176
-1296.8
419.627
773.835
-817.266
-948.731
-550.406
1499.14
-160.11
533.621
-568.342
228.174
1329.03
811.742
-630.895
1382.78
-674.866
486.508
-619.276
-404.342
-418.73
-378.233
796.963
498.119
-839.383
-491.333
69.7652
421.568
-305.249
572.551
722.651
-329.931
-224.729
-173.733
398.462
-485.453
120.503
364.949
1466.25
85.4503
-1551.7
-760.699
1352.48
-1144.8
-465.855
611.386
-245.169
1155.19
-381.356
1083.36
492.733
703.171
-448.885
-884.434
-522.605
-1328.22
-14.5313
985.549
-971.018
633.426
388.06
-1021.49
-360.174
-187.661
-689.18
405.561
1621.26
-226.335
395.856
328.352
-724.208
-1839.73
-2106.72
1519.16
587.562
-2041.43
359.295
419.365
557.487
-976.853
-460.717
1017.75
-449.813
-688.359
1138.17
-2030.58
1391.22
639.366
617.298
-1067.11
8.4905
442.05
385.715
178.735
255.954
383.73
1036.66
945.547
672.483
-318.158
-354.324
-284.917
612.338
-327.422
566.116
534.538
563.694
514.253
-1077.95
-795.93
-699.418
749.096
406.095
-417.342
783.99
-1193.35
1609.56
473.144
-1161.5
-364.58
543.866
-1398.54
948.944
449.593
-726.398
-334.614
-736.494
264.73
471.764
447.537
716.689
-1164.23
1082.11
-602.262
-441.42
671.383
-229.963
248.723
320.21
-464.107
-432.417
896.524
-217.395
598.07
-984.674
386.605
-445.377
600.597
-1681.33
424.152
669.322
-1093.47
515.228
116.438
113.416
-2212.82
602.631
-171.878
1445.72
1777.1
-217.544
-1559.56
-438.633
1789.48
-1987.55
1194.7
792.85
391.472
352.012
-55.7422
893.123
-1282.13
717.366
-865.814
-820.203
805.671
286.027
86.3455
-372.373
218.956
171.166
-390.122
1572.37
-856.493
-1530.91
-325.432
514.942
-247.81
-267.132
389.04
365.209
253.114
432.015
-13.3326
1004.99
-991.66
442.284
292.468
-734.752
-734.276
1817.53
-1083.25
-342.326
731.366
-1240.82
-419.881
-911.614
479.197
654.802
-863.787
208.984
755.406
-373.938
-381.468
-459.32
-447.458
457.123
1150.05
1244.49
-684.181
795.985
-345.855
424.314
356.252
-224.389
-234.848
-300.874
650.427
408.178
-842.678
434.5
281.746
388.522
-670.267
-417.753
825.931
753.586
-1146.44
928.433
-51.2572
-478.358
281.09
800.737
-97.3041
1386.3
1890.52
-36.1351
346.085
-384.971
475.263
-1090.24
1076.91
695.398
376.329
379.077
104.419
410.523
246.771
525.546
-379.607
-251.804
-559.736
-89.7319
-372.203
357.103
15.1
-256.695
-278.902
1010.54
-1540.64
530.101
-140.541
-232.941
-444.181
736.649
-1661.23
1590.85
-962.881
339.299
-743.64
584.35
1224.4
-1808.75
607.465
983.384
325.981
-1130.08
720.688
-346.45
-318.692
1403.26
-1463.13
848.465
614.665
470.345
-649.276
178.931
-406.664
481.363
-74.699
414.099
83.8144
1725.38
444.178
-249.997
557.696
-1704.79
1147.09
-104.068
428.467
342.728
329.754
-448.867
-613.499
1062.37
400.775
-872.472
-639.535
901.747
571.315
-427.478
-189.183
-433.19
-409.488
-307.98
-826.594
1821.09
-1821.09
-96.7122
-1618.04
1714.75
298.653
269.681
-916.519
-555.845
1472.36
-408.108
971.802
-637.2
-1040.21
733.967
400.918
-1134.89
463.53
-149.281
573.085
1220.33
-1793.42
-1046.89
2114.09
-1067.19
-381.869
-286.853
-519.618
896.425
-1768.72
1614.21
154.517
1768.72
-1623.53
-145.196
-235.65
513.11
-277.46
-537.331
1620.69
1592.65
-2012.53
1137.45
-346.089
-240.743
586.832
210.452
-575.031
-776.695
359.352
1345.41
640.653
592.658
473.53
-1066.19
257.478
445.693
875.044
500.114
-1375.16
546.58
-1020.27
1574.92
-564.38
-792.637
-413.234
-161.63
574.864
-490.591
1207.28
-738.657
326.85
365.306
398.843
228.22
-627.063
609.295
831.256
-602.16
247.726
710.981
-427.478
-383.527
-218.51
602.037
1168.34
-711.909
603.424
471.476
-1074.9
-1281.37
1281.37
-380.325
756.654
-268.225
-490.42
758.645
513.615
430.589
-944.204
400.308
-668.533
598.397
-870.534
272.137
-367.695
-484.337
1077
-656.729
-716.877
1373.61
-370.075
968.145
-1552.84
675.303
-6.92662
-405.002
411.929
-575.638
749.817
339.008
308.337
157.436
306.095
-601.345
254.895
1871.48
-1968.79
241.417
-722.611
470.011
-824.74
354.729
-895.993
1461.49
-565.494
-430.483
-481.131
601.002
1124.12
-1725.12
-711.429
329.56
-466.222
1032.34
-818.829
1066.56
-368.652
-617.692
-541.97
759.518
535.331
-353.512
914.39
-324.259
-161.194
1599.04
-1816.59
-338.595
-646.079
-355.209
475.712
280.084
-673.581
-152.945
1090.26
-809.166
183.693
-375.708
-271.078
646.786
380.792
-896.963
516.171
-474.414
-478.273
-873.152
-390.985
592.435
-201.45
-455.432
-458.49
-367.101
-160.698
-424.082
652.302
-484.707
840.959
-1070.8
621.937
-1406.94
605.031
-29.7249
-1844.62
1874.35
570.265
-451.503
1265.42
-728.601
239.165
-239.165
677.036
-466.73
1040.59
-1677.79
-1158.75
-947.977
284.148
328.191
910.295
716.366
-537.616
-288.125
825.741
1665.86
-1695.59
-432.344
327.86
236.567
1134.25
-530.827
-943.346
1550.51
-607.164
437.168
-258.434
382.561
461.227
-843.787
557.06
458.144
-1015.2
-330.598
657.448
-38.4048
1909.89
1640.97
992.004
-1696.67
726.006
-1176.16
450.154
-492.541
1367.59
835.462
-1340.81
-605.091
259.002
820.919
-393.601
541.848
-1196.03
654.184
-629.842
-1215.52
-695.743
1911.26
-166.504
557.3
-390.797
-144.175
344.263
-510.767
342.376
355.475
-697.851
-1498.49
755.298
743.194
883.864
-1434.27
818.501
-434.758
198.467
-353.451
-639.363
255.836
-723.753
-674.784
695.738
508.664
-1204.4
376.446
-205.029
-171.417
552.368
-955.43
-600.135
-471.986
805.608
-831.393
-1156.15
-1437.91
499.813
938.099
42.2877
-685.27
332.09
353.18
-1336.19
1051.4
284.794
-614.104
-456.7
-665.223
920.425
392.243
-184.131
-208.112
508.577
980.22
-1488.8
987.648
-557.043
164.26
392.783
-481.226
687.711
-446.295
-503.335
148.127
233.803
-1525.34
517.408
564.699
-803.165
227.527
128.444
-452.703
349.985
-828.257
1954.16
-1195.38
-758.782
472.417
-713.49
241.073
318.472
347.595
93.787
-441.382
-594.669
182.559
261.619
-691.889
1374.02
-682.132
424.086
516.688
-1243.09
256.415
1866.76
-1013.59
-853.175
783.372
-547.215
156.23
1402.25
-975.038
-427.21
313.994
-780.724
-616.656
1725.41
602.73
641.762
326.954
-40.9267
246.292
-1138.27
1725.72
-587.453
-1763.57
820.222
1786.21
-1712.66
-73.5438
-666.51
280.52
655.318
-750.243
208.273
1402.4
-566.934
371.019
465.02
-1858.93
1420.3
569.248
-483.611
-85.6373
179.986
-547.088
-330.236
-165.223
-345.661
688.39
-680.295
267.061
632.661
540.918
-1173.58
1113.32
-1947.81
834.488
130.536
373.329
-1701.49
1663.08
294.194
-743.079
-174.773
373.24
773.05
676.712
-1449.76
1099.21
-1097.48
515.599
-1117.86
-620.542
243.109
377.433
553.853
-273.244
-654.423
-1023.37
272.953
-731.443
-912.323
150.636
148.812
227.634
424.003
270.739
-694.742
-647.282
-834.693
-978.662
478.956
-1073.63
-327.799
492.128
530.053
666.393
-274.639
-118.826
-462.844
788.825
247.301
-1207.74
560.461
1320.81
-547.762
431.791
-1031.93
-378.745
127.301
441.947
1022.95
551.973
-1733.38
1636.67
1670.75
-623.974
-1046.78
1909.53
-1899.67
-9.86071
236.1
-621.071
-376.31
560.003
-790.163
-340.249
-326.26
1016.33
716.592
-1541.03
824.436
241.682
-26.1785
1625.22
-1136.05
424.144
-1299.98
507.339
-62.7742
1529.03
1196.62
-470.615
-484.078
-72.9651
-249.873
736.12
-1951.64
-703.869
369.905
-530.407
160.502
189.638
-501.68
1139.98
671.669
-1811.65
-634.691
151.08
941.324
-1497.17
-210.557
678.639
-468.082
883.792
1116.21
-752.471
1355.2
654.299
-556.782
-97.5168
-334.807
1183.27
1071.37
-1981.55
910.185
-1183.66
534.765
1488.62
-586.876
-426.914
-121.183
-1249.89
565.706
1177.06
-35.2411
946.408
776.405
-1722.81
-185.413
579.069
-1541.68
962.61
487.047
916.206
-1403.25
639.027
577.406
423.925
-1106.57
587.948
1117.45
1214.64
-451.95
-762.686
-1186.2
-1754.93
-1.78379
-1731.6
-176.018
-473.259
1615.15
-640.316
-974.838
-490.772
1120.97
-1325.47
630.752
694.723
-1367.97
1453.42
-1338.44
585.972
1520.39
-439.061
-589.523
162.609
-1519.97
223.005
176.392
211.138
443.161
472.96
414.531
-887.491
506.53
-938.576
899.496
-1444.71
-729.994
215.792
514.202
-1061.66
448.813
-497.393
868.411
694.749
8.58684
-536.18
145.383
-886.571
-1318.76
-708.429
342.73
365.7
392.043
-719.353
327.31
-469.384
-189.336
-707.647
731.448
1540.55
-594.144
835.096
737.271
1344.46
-844.35
-970.55
-571.13
-790.209
429.137
361.072
-1034.47
-634.163
296.038
338.126
-1433.68
-296.774
-784.969
392.099
392.87
-673.718
446.17
227.548
-695.454
249.16
412.846
483.677
389.744
436.187
475.467
384.226
594.138
-967.2
711.006
455.452
450.453
355.599
-806.052
1630.69
-1079.75
-550.936
-505.164
-300.856
-1035.34
449.639
347.324
409.796
591.506
-1001.3
-1388.23
747.915
-523.007
1151.83
360.961
-30.2881
412.639
-860.953
448.314
-1910.58
292.536
437.371
-721.604
284.234
-194.157
394.976
-200.819
-656.267
293.639
362.628
-666.382
312.058
370.479
386.175
610.931
-1019.04
750.389
667.134
-1417.52
438.904
623.462
335.89
391.036
-726.926
403.751
327.615
624.756
714.978
435.071
631.003
-1054.97
423.962
-1695.17
1150.2
544.967
1696.53
-539.191
616.211
-1146.33
530.121
-637.066
343.279
437.829
-931.66
493.83
810.823
-500.449
350.22
338.17
608.743
-947.338
655.514
-1251.6
596.084
425.929
733.09
-1223.68
767.858
510.356
-1278.21
515.133
393.485
-908.618
-501.914
-935.998
-287.104
629.48
352.362
539.414
-891.776
326.924
330.524
-502.202
1944.72
434.631
-844.067
409.436
-917.343
-809.218
-742.214
360.746
-1250.29
431.463
-1755.63
1623.53
132.104
1758.36
-1614.21
-144.157
-779.045
-582.639
256.647
325.992
-1786.21
2012.53
539.565
789.8
-1329.36
440.2
715.155
689.217
385.591
-1074.81
9.30843
1617.14
-594.185
387.902
877.518
-641.93
321.121
320.81
-378.675
-294.799
543.523
-204.784
432.045
273.89
-655.788
381.898
255.179
-568.064
-275.173
442.96
-1031.24
588.283
538.091
1092.6
365.902
594.954
307.064
348.934
-655.999
1660.12
-943.528
1693.15
-1521.96
-171.19
-327.46
-818.119
408.631
856.977
-1067.53
-597.699
270.277
-1090.48
1628.57
-1618.27
-69.6977
1687.97
-341.052
-350.016
-370.345
542.661
591.59
-499.485
-20.637
-549.292
495.187
-282.564
-212.623
1781.85
-1324.73
-616.44
291.717
324.723
396.042
357.337
733.867
-288.249
-399.485
-1758.36
1695.59
459.959
-1099.31
639.351
-39.8821
1676.55
570.274
476.166
-1046.44
102.327
1143.89
-1451.87
-3.17487
-1907.4
217.727
-590.187
305.402
284.785
-953.875
611.191
-894.25
463.767
-1127.18
671.566
455.618
411.718
255.94
-793.556
-365.246
1214.91
885.575
699.735
-1182.26
456.157
726.102
494.904
699.013
-1193.92
-418.686
-248.292
397.104
-957.632
439.269
518.363
21.1871
-1880.12
1080.39
-481.995
-522.487
559.394
-1377.82
818.425
-445.659
800.388
-405.892
509.486
-718.633
1710.6
396.465
-168.831
210.641
-155.605
-246.261
401.866
1895.36
-504.146
-1722.51
1049.83
-592.539
297.74
-1011.09
550.373
-311.65
544.585
904.689
-1449.27
-1102.2
436.978
-21.399
-1947.39
1720.16
-648.789
-538.278
461.004
-1189.57
728.564
199.583
192.66
-276.624
778.24
696.343
834.679
814.632
-459.033
1083.42
-532.144
465.895
-182.362
-283.533
-1926.33
-712.045
-316.297
-638.618
-6.19981
644.818
453.209
-270.65
575.155
1084.96
-821.779
921.507
1243.45
-426.02
-108.77
-295.927
404.697
953.107
-888.111
-304.197
-1065.95
609.249
1570.91
-815.617
538.019
934.345
-409.595
735.702
-326.107
1129.42
-271.857
381.913
1349.19
-709.92
-209.439
448.391
-1197.9
749.513
-954.036
-210.471
1164.51
437.72
-952.901
515.181
152.901
731.857
482.779
749.144
-176.143
848.826
-426.454
1181.41
-795.816
552.778
-1465.26
912.487
-1216.63
1800.98
-431.703
-1510.19
879.009
-1401.61
-324.327
-469.52
1456.89
-1530.81
781.733
1491.33
190.976
274.919
-374.891
-1755.63
-272.179
-1032.54
1607.7
-1796.41
1796.41
1592.65
-1004.19
-628.406
-358.916
368.243
603.559
-429.434
-382.28
-1389.53
896.989
1125.02
600.701
1201.97
1789.49
-1216.4
-630.338
270.847
1659.41
-1917.05
257.644
816.968
-1268.4
1545.1
-561.721
806.489
346.763
-379.93
556.124
793.129
623.046
1404.27
-291.773
-445.936
-395.045
491.245
-335.327
472.203
735.078
-320.465
-120.917
-357.66
573.793
-216.133
37.8676
-367.739
1107.25
-1720.28
-489.792
-514.263
-575.056
863.398
707.516
-1596.15
904.265
-452.463
-642.743
-516.249
1251.4
368.973
1723.97
-1702.79
-1665.86
1899.67
-1560.49
840.002
720.489
-419.915
-1803.08
918.176
584.691
817.705
-381.83
1794.71
-681.385
-471.075
720.355
449.377
-1169.73
-1104.06
444.318
752.303
-1617.09
473.324
900.697
162.657
-386.155
223.498
-1620.64
-396.049
-485.963
990.099
-689.425
1442.71
-971.553
1855.34
240.86
-560.259
485.28
-294.304
474.353
893.232
543.565
976.829
-463.802
-427.786
574.63
882.26
-1392.68
-40.9954
1590.55
-853.276
519.987
971.342
-1475.71
-1115.89
1795.35
-1242.6
-552.747
1205.91
-319.567
-886.34
-179.173
440.587
-261.414
-457.145
-250.01
417.065
-167.055
131.476
-379.768
1752.55
-1754.33
-486.53
-530.905
-903.366
429.17
-192.709
-236.462
627.874
-509.169
-418.424
-323.494
741.918
-989.002
488.987
-1166.64
675.865
403.517
-657.98
-437.396
1597.2
-880.837
530.211
-458.723
-568.048
-463.195
353.543
-342.543
-11.0003
-1148.69
420.088
-665.259
-1033.37
1698.63
-629.871
-1426.17
709.295
562.453
-1596.22
1033.77
-433.293
-484.435
163.129
574.41
-1258.14
741.89
539.296
1005.81
-2133.16
999.977
1133.18
-396.451
402.044
-376.642
-25.4021
1477.91
-387.888
449.704
1138.97
583.004
905.619
564.978
528.447
-1093.43
150.843
-470.126
-1712.66
232.985
1127.44
-638.905
518.8
1013.39
-1532.19
1092.72
-1643.66
195.518
732.915
572.334
-876.531
-1086.14
-162.775
414.971
-252.196
-585.632
-460.704
-636.505
-619.674
343.05
-1620.49
938.822
-477.373
214.066
-382.898
524.182
-306.455
-638.442
1196.81
-1336.8
955.822
380.98
-1028.45
-405.644
-772.737
-838.314
1701.71
-477.666
1799.39
-1594.55
-204.836
-1556.53
1018.55
537.981
-739.503
-247.725
427.336
-179.61
-618.173
384.824
263.76
-648.584
-524.667
1017.61
621.728
-351.45
-1620.17
1050.4
571.854
1103.42
-1675.27
-447.441
-278.052
-378.214
-757.48
-521.722
-331.322
488.758
1557.96
-995.51
-773.241
1497.42
654.14
-326.28
725.885
1152.33
-1878.22
320.664
318.225
-487.833
-1936.48
1722.89
213.594
731.249
-475.506
-255.742
531.902
1060.68
-1592.58
353.543
-1734.77
-233.219
1752.38
-1580.61
1073.68
506.931
-1741.36
6.58819
-522.352
402.044
1701.49
-1722.89
938.952
625.91
-1564.86
363.951
-213.005
-150.946
-450.284
-245.171
58.0275
93.7935
-341.519
-418.598
-451.937
-397.969
203.812
1510.09
379.313
-193.844
-479.874
448.49
-186.871
342.764
1510.64
966.254
-200.22
-766.034
-1103.98
1704.98
-1729.07
1063.81
-707.758
-1021.31
-1265.05
1844.98
-579.926
1155.03
-1771.34
616.306
264.56
-877.24
1676.11
43.3803
-1719.49
-491.211
-1082.88
-1752.55
-979.384
551.598
1019.43
590.328
1132.92
-1723.24
268.589
-513.758
696.812
-384.754
420.77
923.844
682.762
-378.544
-676.422
582.983
1072.41
-1655.39
-413.498
-356.136
769.634
435.021
-1663.08
1521.96
141.124
576.152
-1042.37
544.774
1083.8
-1555.54
993.822
-228.172
210.239
349.764
1909.53
471.252
-51.3022
995.834
722.749
-1718.58
-696.291
1085.18
-1557.41
151.856
-568.447
187.087
261.403
-692.005
-558.288
582.828
1034.31
-710.481
-271.802
-1368.01
672.009
695.997
-399.031
700.543
159.806
-860.348
562.672
-137.228
1557.52
-198.386
290.299
-782.898
-1936.48
1664.58
1006.42
296.599
305.508
505.315
-929.582
-996.747
-1767.25
627.933
1693.74
497.804
-474.955
1210.03
1086.95
-424.917
1028.48
-975.24
483.822
491.418
701.241
1047.84
-1749.08
474.555
491.09
-1493.79
-743.749
38.1717
774.474
-413.728
-894.357
371.87
-540.912
-799.896
562.864
-578.715
1397.14
1055.2
184.965
230.006
-550.719
1618.45
-777.511
1527.9
-1727.83
575.343
1152.49
533.536
-880.479
-1733.44
1917.05
-183.61
1721.72
169.937
-547.639
354.913
-261.12
-481.822
1210.39
568.275
1128.26
-491.011
416.997
853.258
-451.289
-770.019
440.81
329.209
1420.02
1089.47
-518.467
1422.73
-510.379
-532.695
1043.07
-602.865
561.148
-1259.2
1693.15
1839.56
-687.226
1586.33
-647.383
-1240.21
715.542
-563.227
190.273
-373.929
439.067
-230.324
-516.161
-1246.7
1870.96
-624.266
1173.1
-556.887
1120.21
-1659.4
1715.73
-574.032
-550.247
-549.873
1720.06
-315.596
-688.162
-473.51
1223.02
-1695.86
-1860.12
613.43
405.124
-986.208
155.651
202.716
-1719.02
1204.11
514.908
1162.83
558.89
-514.326
-465.493
1191.59
185.382
209.594
588.451
1251.11
-539.194
-1238.57
1777.76
-1025.11
999.982
866.778
-204.004
-1659.41
1702.79
-510.273
1410.97
-1733.44
-302.29
-54.0561
356.346
-245.284
581.088
-335.804
156.109
493.665
777.407
-385.364
1257.5
1270.36
-413.386
847.552
-438.921
1817.62
-662.592
1586.75
-1723.97
-412.856
-797.281
351.312
445.969
-562.401
-563.815
79.7563
-1138.44
-984.945
-670.909
1655.85
-943.692
-1189.47
206.474
-447.216
-646.358
705.859
1167.42
650.202
1410.2
-592.491
1636.69
1317.84
-575.948
-480.01
185.706
-503.363
1396.59
1239.75
-567.737
-999.975
888.267
63.1895
-951.456
603.389
-506.268
1403.26
1495.01
-589.394
-347.989
347.989
-589.718
1623.49
1238.83
-486.524
1134.1
-51.1487
1852.59
-373.097
1489.43
-589.935
-507.719
1347.72
-648.224
1218.35
-570.127
1554.79
-592.185
778.139
575.445
-1353.58
-686.676
269.238
542.504
601.389
-1957.28
-1024.62
1586.75
353.609
-353.609
-51.6541
379.606
438.895
376.513
37.5856
-273.21
972.8
-546.872
-429.558
809.164
-234.217
611.65
-413.009
1564.88
-444.355
-883.867
172.088
222.519
-394.608
601.179
1250.75
-1851.93
923.504
-459.738
-342.543
126.143
-1943.07
1816.93
-442.967
164.157
1180.78
-440.542
-740.242
-285.631
-608.726
-498.747
-376.642
-468.455
255.833
1157.46
-565.865
231.872
-364.357
132.485
-23.0984
-107.689
1375.91
-1268.22
34.68
-594.416
-586.583
-442.093
442.093
-1262.33
1985.07
-1344.26
-197.637
-1826.55
232.001
-1025.75
-974.247
-173.915
-1641.03
711.448
1229.32
-1925.06
357.591
319.957
-677.547
-1850.03
1234.26
615.765
-557.483
557.483
-958.697
-40.0496
-1866.19
-558.207
1650.81
-674.494
1636.2
-601.89
-196.978
-1710.42
-575.269
-491.774
-594.915
-457.477
457.477
-1537.82
194.534
1343.28
159.857
220.186
-380.042
526.415
439.839
994.376
-476.013
1751.28
768.768
-412.219
386.817
524.874
1702.07
-594.828
-553.008
1636.8
457.934
1812.88
-645.46
-1804.86
-1938.07
-647.216
-471.092
471.092
-598.184
203.139
-724.545
1017.19
-466.812
-1078.91
-297.993
1579.55
1852.29
1635.4
-1635.4
-323.315
740.71
1761.54
595.814
1275.15
161.188
202.762
631.438
591.129
1603.47
-1603.47
212.532
-361.763
-441.704
446.368
948.938
-465.117
-637.856
-1130.91
1706.25
271.712
-1686.55
646.34
-287.511
457.448
1744.65
-592.163
-210.14
-492.701
373.12
744.327
1738.59
-613.566
-511.811
-783.288
1960.55
-870.468
-1090.08
1642.65
-701.562
1223.95
-1824.97
601.023
409.035
-969.294
-184.546
-98.9507
1096.6
-487.353
149.314
659.945
-1683.31
422.752
625.101
-1804.86
-583.312
1787.42
882.585
-1162.85
1760.5
-597.653
1783.83
-575.574
-1208.25
428.113
932.806
-1754.33
924.24
-1465.07
214.511
1250.55
-832.096
-1254.21
-367.387
71.5015
295.886
581.805
260.199
1039.51
-433.189
842.922
-409.733
819.436
744.09
-1563.53
645.067
1066.65
-23.7895
-660.31
684.099
-1744.59
723.28
716.594
150.508
-1122.54
1936.79
-674.577
-1262.22
-537.194
1665.45
844.661
970.198
-1814.86
1227.85
683.406
-412.408
706.047
846.615
1025.87
-588.148
1761.54
624.917
1773.56
-1185.56
-588
-441.448
-339.109
780.557
121.459
-1185.48
1660.51
-540.297
-1437.75
1437.75
1250.55
594.433
1351.27
206.697
-567.817
278.169
-177.109
699.224
1113.66
470.689
-285.307
-868.738
-575.976
1747.74
-1747.74
976.151
-976.151
987.343
1025.17
-2012.52
1837.97
-614.022
-581.136
878.108
-947.86
-1052.16
998.013
691.968
-1689.98
-509.286
-407.348
-659.762
-808.448
2042.71
-1246.4
-613.722
1002.98
974.864
1289.78
647.013
318.137
1012.69
266.268
344.219
1186.18
1756.91
-1756.91
671.028
79.2027
-382.109
-997.065
-539.999
1674.1
989.471
1010.53
-1833.32
-213.94