/*--------------------------------*- C++ -*----------------------------------*\
  =========                 |
  \\      /  F ield         | OpenFOAM: The Open Source CFD Toolbox
   \\    /   O peration     | Website:  https://openfoam.org
    \\  /    A nd           | Version:  7
     \\/     M anipulation  |
\*---------------------------------------------------------------------------*/
FoamFile
{
    version     2.0;
    format      ascii;
    class       surfaceScalarField;
    location    "37";
    object      phi;
}
// * * * * * * * * * * * * * * * * * * * * * * * * * * * * * * * * * * * * * //

dimensions      [0 3 -1 0 0 0 0];

internalField   nonuniform List<scalar> 
11265
(
135.511
-529.948
394.437
-768.945
10.952
757.993
433.105
-370.899
-62.2063
672.709
251.668
-924.377
1510.62
-1069.42
-441.196
1216.27
-1527.11
310.842
-18.791
465.127
-446.336
168.985
-841.521
672.535
962.017
-1610.77
648.753
-1770.65
1677.55
93.1035
-542.947
1759.22
-1141.44
1935.21
-793.768
606.771
181.28
-788.051
-25.9829
-1318.96
1344.94
222.507
-1993.16
1022.69
-383.804
-638.889
-216.545
352.056
484.208
190.615
-674.824
1154.71
-1314.32
159.611
-311.437
374.126
-62.6884
1005.4
-1323.7
318.301
1221.63
799.735
-2021.36
74.9716
-1646.27
1571.3
-503.244
-1153.85
1657.09
474.842
181.968
-656.81
-180.68
-349.269
497.811
1012.81
1653.88
-1813.69
159.812
-99.211
-1688
1787.21
-1559.56
654.469
905.094
-309.148
652.883
-343.735
-189.928
-117.092
307.02
1289.59
-1214.62
355.283
-1407.31
1052.03
-1754.28
1754.28
101.535
1539.32
-1640.85
-1081.67
-477.893
656.617
-675.408
-386.17
941.779
-555.61
1331.81
-1317.21
-14.6021
-1100.28
714.111
624.7
397.993
-389.863
-31.6508
421.513
-485.032
779.405
-294.372
-1618.4
1618.4
1253.55
-1437.86
184.308
-488.941
1710.57
1254.16
-312.377
1660.72
-1161.22
-499.5
72.644
-384.081
2066.54
-1136.02
-930.52
1820.94
-167.057
453.451
156.083
-609.534
-465.249
973.462
-508.213
-1176.44
1277.97
-567.402
970.138
-402.736
398.85
755.859
660.896
-491.911
-437.684
592.4
-154.716
1190.61
-835.328
2308.22
-1080.68
-1227.53
1164.23
-2010.31
846.078
-1608.86
1582.87
440.588
-1582.03
-758.897
1250.48
-491.588
-671.628
362.48
1661.44
-699.423
-1106.93
-870.899
1977.83
734.253
-378.481
-355.773
690.187
563.97
-258.214
1511.77
109.183
-315.082
205.898
-284.743
759.585
-333.934
562.872
-228.938
-324.435
808.643
-318.567
-145.565
464.132
314.621
118.485
1467.53
-462.128
-998.932
479.958
518.974
273.408
92.4443
-365.853
948.165
-341.394
-1707.14
619.912
1087.23
14.5243
-863.618
849.093
-278.609
593.007
-314.398
157.871
-1093.89
936.023
1051.04
-1066.64
15.6023
373.08
517.784
-890.864
-245.308
698.759
-1103.28
-482.437
1585.72
-677.421
950.195
-272.774
1352.06
-1451.27
-634.866
237.192
397.674
-470.203
-1011.51
1481.71
-537.442
-795.396
1332.84
575.654
-995.683
420.029
-263.886
-315.681
579.567
403.884
-294.701
-1040.13
574.884
955.512
-797.641
-110.374
943.795
-833.42
-206.967
414.974
-208.007
-651.471
-347.461
-386.732
962.386
1856.36
-1856.36
-513.277
-121.59
-950.426
1577.81
-627.38
451.542
-886.015
434.473
-922.882
355.479
-941.905
-1058.08
-1493.55
340.401
1153.15
-267.495
940.204
-319.054
613.466
-294.411
-1941.9
999.994
-1146.56
-346.99
571.023
-1521.45
1728.52
-1725.84
-2.68192
186.695
-586.944
400.249
-1475.23
980.835
494.399
282.939
216.418
-499.357
307.933
-641.867
239.005
-414.173
175.167
2019.25
-868.883
-1150.37
-538.212
148.349
615.174
838.332
-1453.51
-183.547
422.553
431.543
876.359
-1307.9
-905.598
390.963
514.636
-1048.72
1447.57
-1068.48
309.587
749.382
-96.4992
546.923
-339.54
-207.383
1022.29
-542.33
593.406
-1403.75
810.339
-1342.17
238.89
-544.132
265.523
-1205.41
937.919
1943.43
-990.399
-953.034
276.8
1579.56
-2097.31
896.993
1200.32
361.116
-31.9795
-329.136
-223.373
480.498
-257.125
-104.882
-381.369
486.251
-463.687
145.121
339.499
-132.688
584.23
420.988
377.893
-798.881
-2045.23
1129.19
916.044
461.1
-529.172
68.0725
220.063
-361.173
141.11
995.929
1023.32
1793.18
-253.866
721.846
-484.654
796.058
-1389.31
593.254
349.785
384.468
1062
-1047.47
-479.972
-275.198
755.17
474.1
-133.281
-340.819
796.27
-614.99
533.279
-734.754
201.475
503.331
1157.39
-1240.05
702.607
1030.96
-1534.21
-3.12236
-1439.43
1442.55
326.594
823.53
-1150.12
622.522
269.93
-892.451
-2271.42
1158.71
1112.71
-1102.13
-1169.29
161.155
372.124
958.88
-632.285
878.543
-898.314
19.7711
-2099.39
992.458
-222.583
-188.257
410.84
-41.92
1770.44
-830.116
61.1718
-1030.17
-1067.14
-228.719
448.782
-673.788
160.511
-286.712
-455.136
741.848
1103.98
-1574.18
782.747
-1374.32
591.569
708.975
-457.307
1947.84
-1444.51
-378.283
-1375.99
50.7976
414.33
-524.769
535.721
19.5332
-571.983
552.45
568.185
-285.246
-602.085
277.709
324.376
780.241
-359.253
34.1853
326.93
1188.47
-1191.59
172.833
231.051
428.25
-714.962
618.942
-1005.67
-2026.75
2026.75
-280.973
-462.505
743.478
698.962
405.854
-1104.82
579.529
169.853
406.68
373.56
-2199.76
1328.86
-926.134
-679.758
1605.89
-476.511
-728.903
-269.429
588.473
-319.043
847.525
-236.769
-610.756
-448.796
635.491
359.779
-678.834
-366.71
-106.982
473.692
-1337.14
-476.548
662.246
-1138.76
-374.141
-1244.26
844.347
1463.87
305.892
-908.066
602.175
966.139
-341.439
1391.29
-797.883
442.09
-269.257
-326.069
-891.062
600.763
290.3
-367.553
-523.51
309.543
-414.425
-175.791
-161.135
336.925
-392.794
1091.76
434.346
-243.731
-390.514
1359.59
-167.646
-1191.94
-459.991
275.939
184.052
230.814
297.567
-528.381
-16.4738
-718.28
592.152
-1729.05
1136.9
1483.99
-868.817
-1052.52
-422.713
-1056.45
573.986
482.459
1395.67
-414.834
928.864
-1411.3
-180.235
-170.265
350.501
-468.441
579.309
-1628.03
427.896
903.918
303.186
340.006
-643.192
568.047
1186.23
1103.14
-712.225
-390.91
401.366
-214.356
-187.01
-1419.44
446.081
737.362
-1183.44
1473.28
-544.42
-503.611
962.861
-459.249
426.156
1186.15
-1612.3
47.3978
-724.818
-147.243
420.652
186.365
-376.293
552.37
469.919
-577.705
29.0163
548.688
1024.52
-1307.65
283.131
664.494
-257.813
468.349
-1447.22
978.875
381.419
1687.82
-523.594
885.835
1057.6
-659.851
-1684.74
758.602
558.383
406.179
-964.562
456.039
78.9307
1750.09
-1829.02
1443.67
-379.49
-1064.18
1699.19
-1741.11
-366.258
-523.887
716.596
-192.709
-502.591
180.424
293.675
-373.162
-1225.95
214.442
-764.677
-639.068
-613.515
993.048
-379.532
-652.147
642.05
10.0974
654.89
-923.509
268.619
-691.412
340.367
351.045
-647.814
-725.982
352.798
373.184
-932.2
1400.55
-420.153
888.23
-468.077
-2205.31
5.55693
176.343
-533.402
357.058
140.231
1219.35
-63.8661
-609.922
156.856
-594.539
1487.06
-704.314
377.326
-461.257
83.9305
-563.182
563.182
1222.99
395.412
1778.12
-1228.31
589.681
638.626
848.132
-51.8614
1292.12
774.424
-540.63
1336.69
294.152
298.855
268.089
-791.976
208.121
-693.153
228.911
-441.533
212.623
-272.375
602.46
-330.084
103.093
-375.468
-591.512
-564.65
1156.16
-418.369
542.443
-124.074
-1192.15
2032.04
-839.885
1288.92
-330.044
-399.63
135.744
-1983.7
829.851
1551
-858.257
-692.747
1987
-877.462
-1109.54
714.027
574.897
-240.243
469.154
-686.234
1172.7
-486.469
-769.592
1201.14
551.799
924.59
-1725.49
800.896
-592.598
-49.4879
642.086
270.933
275.99
415.61
-76.5936
-339.017
896.525
-83.5278
-812.997
921.038
-577.458
-343.58
1576.17
-472.189
892.04
-1628.24
736.202
1068.46
879.384
747.81
-440.179
-307.631
-1058.91
-258.301
566.726
575.027
-1141.75
-525.314
504.763
20.5503
575.158
-341.519
-233.639
-985.07
564.917
594.519
889.472
-441.791
1096.68
1418.7
-785.881
-632.819
392.913
-923.357
530.444
-1043.92
392.452
573.525
-1077.14
416.765
-511.397
94.6312
449.963
329.442
-514.438
-48.7447
-793.998
-880.092
1674.09
190.547
210.819
-245.071
406.226
6.87969
-578.626
571.746
500.874
866.944
-1367.82
-487.695
311.904
985.417
-88.8928
835.796
-1064.54
228.74
427.474
845.586
-1386.22
-452.82
830.713
1980.18
-1286.33
-693.854
269.742
608.801
255.661
795.375
95.518
-985.565
890.047
1673.73
-1088.98
-584.745
-137.949
1888.04
-1866.1
-160.65
482.889
-621.052
138.163
-1012.79
527.294
485.497
-1730.47
538.317
-955.617
845.243
392.259
200.141
572.887
-266.996
-418.344
709.181
256.958
33.021
726.216
-759.237
-1131.12
-897.87
2028.99
-558.798
1121.82
-563.02
-482.235
-329.929
107.346
-1656.29
862.289
-838.456
-629.136
1467.59
-330.334
-294.766
625.1
350.972
-677.248
326.276
246.336
-605.589
314.948
196.036
-510.984
375.674
-645.103
649.326
-298.354
314.774
-460.339
687.387
450.623
-219.809
-430.948
-295.034
1225.47
-0.509994
-1224.96
1039.14
-420.199
559.337
410.802
-1782.33
869.814
912.515
487.683
554.626
-1042.31
-533.658
203.324
-263.824
1181.51
-917.686
-1590.84
1212.56
504.634
-1096.15
384.227
-6.90136
466.187
301.824
-768.011
370.415
-615.723
-34.9562
757.706
-722.75
-525.344
795.274
396.269
321.539
526.593
652.179
114.164
-457.959
343.795
1058.43
-644.83
-413.599
494.036
-1664.27
1170.24
-1140.34
1753.23
-612.884
1715.86
-1123.71
-334.292
612.001
-1189.07
1284.58
424.851
-797.035
1609.36
-812.326
-253.884
-206.107
-912.177
1471.35
1814.56
-610.826
-1203.73
-405.098
693.221
-1306.74
-124.689
-78.3235
493.934
-693.168
-354.18
-1236.66
-217.323
463.659
902.918
-557.327
175.958
-1674.76
-71.2647
1746.02
-1083.59
524.793
566.426
-1183.71
617.284
900.955
913.601
630.575
619.909
710.642
252.219
-1164.12
477.888
-395.206
414.739
617.956
-514.28
240.959
-729.597
488.638
739.373
-389.588
-298.541
181.449
-595.965
254.035
341.929
-886.631
-741.611
1087.67
-2145.75
397.536
-682.279
-342.846
-723.793
833.408
585.293
-338.978
307.327
420.853
259.651
619.148
-878.799
539.96
632.743
-515.566
148.856
372.591
-653.563
-1046.97
-849.632
1896.6
-1803.44
157.166
1106.85
-1370.68
1180.64
-711.426
-469.216
-504.146
1349.73
-1495.47
627.91
867.565
-285.575
-209.778
495.353
1428.42
558.583
341.07
-448.051
-481.431
-570.532
1051.96
-420.566
596.91
1582.87
-1130.28
-452.592
-817.023
354.518
654.641
403.788
-1623.42
416.178
1207.24
-185.507
500.455
797.668
785.203
176.87
-693.022
516.152
204.092
210.882
-286.979
-109.541
396.519
489.582
50.3243
-539.907
-1652.62
600.101
-1613.33
1682.54
-69.2133
13.3121
-1626.64
1069.53
799.481
-333.293
-835.087
-208.837
-1134.57
-239.748
-312.049
682.464
-1812.7
-634.149
1209.18
216.604
756.858
-1331.59
-678.713
-465.813
668.693
-365.507
-1013.27
1350.79
-1932.95
582.162
646.886
1288.33
483.151
-2.6535
716.171
710.386
-1426.56
-637.14
332.962
304.177
437.902
-100.342
-337.56
144.613
292.381
153.079
-445.459
-592.282
1150.67
451.739
-649.388
-460.724
-401.875
862.599
-321.364
141.129
-455.769
161.069
-303.237
-709.555
544.62
-106.718
-573.959
966.872
575.724
-268.565
-307.159
454.219
-778.654
-645.688
456.842
-1129.39
-844.781
1185.18
-569.77
440.752
314.418
-494.617
116.136
1028.01
-315
591.053
-276.053
-509.04
1578.57
-711.213
275.683
363.52
-639.203
206.882
542.797
-30.039
-512.758
-257.108
-198.661
1009.6
1108.88
564.848
-883.295
942.1
-58.8056
-453.679
168.104
-778.652
323.517
-594.178
372.257
367.116
846.797
-1262.95
416.149
776.515
-811.471
-948.884
-550.389
1499.27
-179.313
519.319
-542.384
202.844
1313.13
785.65
-608.78
1343.61
-681.361
487.441
-652.526
-401.564
-422.134
-378.563
800.697
501.48
-842.875
-495.618
84.5419
411.076
-318.958
572.459
727.543
-330.007
-240.107
-175.056
415.163
-487.235
138.493
348.742
1460.27
82.2571
-1542.53
-753.826
1348.35
-1144.77
-466
565.844
-202.324
1151.84
-375.324
1083.45
492.715
693.139
-425.049
-884.886
-522.426
-1328.37
-23.1075
985.16
-962.053
610.503
359.795
-970.298
-328.497
-209.715
-685.259
405.533
1621.21
-206.52
374.183
341.701
-715.885
-1839.77
-2106.69
1519.15
587.547
-2037.46
349.465
390.312
544.365
-934.677
-460.415
1019.75
-420.29
-679.998
1100.29
-2030.55
1391.21
639.337
606.718
-1027.01
14.074
402.691
386.509
193.851
248.239
363.485
997.03
904.16
678.329
-323.864
-354.465
-291.647
619.571
-327.924
571.592
531.543
564.862
514.701
-1079.56
-796.131
-699.344
751.582
400.257
-410.363
736.639
-1193.4
1609.57
443.438
-1123.44
-332.952
528.988
-1388.68
904.178
484.498
-720.684
-349.648
-767.451
324.147
443.305
447.228
717.847
-1165.07
1072.67
-584.989
-413.304
653.396
-240.092
252.44
323.284
-467.094
-432.245
899.339
-231.406
576.441
-961.279
384.838
-458.678
600.598
-1681.28
423.891
670.538
-1094.43
515.655
97.8104
113.411
-2212.8
562.348
-121.595
1444.55
1777.09
-217.55
-1559.55
-438.499
1789.29
-1987.14
1194.54
792.602
400.291
347.519
-43.8239
877.232
-1283.02
718.374
-868.969
-822.062
798.955
301.269
61.0004
-362.27
225.941
180.233
-406.174
1558.58
-842.412
-1530.93
-325.432
469.608
-214.663
-254.945
393.235
366.35
258.618
410.075
-10.2626
1002.64
-992.376
419.275
291.282
-710.557
-734.128
1817.38
-1083.25
-342.8
736.035
-1225.35
-415.5
-914.629
482.384
614.31
-816.845
202.535
760.223
-378.883
-381.34
-440.948
-442.347
452.198
1113.49
1239.11
-672.688
799.962
-345.743
402.979
340.499
-244.036
-217.22
-243.346
624.765
408.136
-846.565
438.429
256.589
358.566
-615.154
-421.399
829.535
754.28
-1147.07
905.59
-58.793
-485.507
275.657
786.341
-96.2722
1384.6
1890.51
-61.0532
336.992
-343.175
457.338
-1087.3
1077.04
677.893
376.461
383.762
77.6204
391.988
253.471
504.521
-373.211
-263.929
-562.513
-89.634
-359.362
363.968
-4.60626
-257.77
-286.362
1010.89
-1540.7
529.808
-170.984
-199.915
-422.46
713.742
-1641.82
1590.98
-963.071
297.048
-698.613
584.326
1224.41
-1808.74
607.429
983.553
319.388
-1122.17
703.821
-313.838
-329.355
1385.29
-1450.34
833.248
617.087
440.984
-623.071
182.087
-368.046
464.085
-96.0391
414.377
75.205
1724.33
456.313
-252.22
557.65
-1704.79
1147.14
-96.5098
407.789
343.095
335.234
-448.66
-615.055
1063.71
411.602
-864.422
-640.644
902.581
570.703
-469.487
-221.925
-437.374
-409.191
-307.482
-827.086
1821.1
-1821.1
-101.332
-1600.47
1701.8
294.521
280.637
-917.037
-555.502
1472.54
-408.205
973.067
-612.516
-1040.11
712.898
390.011
-1102.91
474.176
-159.402
573.07
1220.34
-1793.41
-1040.02
2114.15
-1074.13
-376.697
-294.931
-503.052
857.571
-1756.67
1604.82
151.858
1756.67
-1610.68
-145.996
-243.342
521.914
-278.572
-537.3
1620.75
1573.74
-1989.24
1105.35
-343.168
-236.089
579.257
225.029
-557.981
-731.742
321.379
1342.61
637.568
583.388
480.96
-1064.35
271.4
421.739
875.306
500.11
-1375.42
536.854
-1018.29
1574.95
-564.06
-785.059
-373.591
-160.172
533.763
-490.195
1208.04
-739.949
331.548
367.211
369.141
240.255
-609.396
594.17
831.746
-603.007
253.953
688.148
-469.487
-379.345
-210.25
589.594
1168.48
-693.58
608.29
467.397
-1075.69
-1287.82
1287.82
-384.743
761.204
-280.115
-479.761
759.876
494.954
439.803
-934.757
392.249
-672.364
607.522
-869.047
261.525
-367.488
-491.579
1074.97
-660.222
-712.017
1372.24
-367.608
944.048
-1552.74
675.281
-14.954
-368.236
383.19
-560.553
721.065
290.266
312.194
167.395
306.781
-572.914
259.076
1870.1
-1966.37
248.26
-697.056
453.665
-820.953
367.287
-906.436
1433.92
-527.486
-430.087
-484.542
600.811
1124.18
-1724.99
-714.472
337.775
-462.301
1033.89
-793.952
1047.9
-376.344
-625.939
-520.33
728.45
538.92
-356.953
906.556
-305.491
-181.744
1599.03
-1816.58
-336.174
-625.105
-337.313
475.806
282.307
-647.814
-154.981
1072.03
-796.372
200.491
-328.051
-267.49
595.541
386.276
-881.157
494.881
-483.586
-457.18
-908.066
-366.198
552.437
-186.238
-439.391
-432.197
-333.211
-177.773
-395.532
635.787
-465.709
806.208
-1072.24
623.576
-1406.29
567.83
-28.5048
-1838.17
1866.67
570.025
-450.192
1234.62
-709.83
284.192
-284.192
672.616
-444.485
1040.76
-1653.27
-1158.74
-947.957
290.457
329.114
894.399
714.963
-513.518
-286.849
800.367
1659.96
-1688.46
-433.799
342.716
225.469
1134.87
-526.579
-943.337
1550.49
-607.149
442.468
-248.617
375.241
423.147
-798.387
538.29
466.231
-1004.52
-331.538
663.086
-38.0237
1908.12
1611.78
992.588
-1696.9
726.782
-1176.84
450.059
-492.493
1367.8
837.045
-1341.19
-597.846
254.677
802.981
-396.801
548.951
-1190.18
641.231
-635.913
-1215.53
-695.681
1911.21
-177.591
532.478
-354.887
-121.531
303.372
-480.963
331.464
366.556
-698.02
-1487.65
756.116
731.535
884.019
-1434.41
823.505
-432.542
214.104
-361.348
-626.934
247.589
-677.436
-711.241
697.894
506.91
-1204.8
389.067
-204.562
-184.505
554.997
-957.733
-578.287
-451.538
775.055
-831.327
-1155.82
-1437.96
499.7
938.256
23.7007
-667.638
318.677
348.961
-1320.08
1046.86
273.218
-615.894
-456.342
-665.681
921.342
399.074
-198.556
-200.519
508.326
980.526
-1488.85
978.093
-561.231
166.012
395.219
-441.604
667.6
-419.34
-503.638
166.325
234.211
-1520.54
525.39
547.281
-777.551
216.997
147.932
-453.424
361.816
-818.996
1954.16
-1195.39
-758.774
456.742
-688.02
231.278
322.442
326.32
114.966
-441.286
-576.078
191.697
264.616
-691.777
1374.26
-682.482
424.086
487.036
-1207.72
264.144
1866.77
-1013.59
-853.183
784.443
-513.514
147.316
1402.34
-975.141
-427.194
325.954
-770.439
-616.556
1725.43
608.801
630.314
319.359
-18.09
254.296
-1138.38
1725.72
-587.339
-1763.54
820.201
1766.73
-1695.9
-70.8329
-656.228
261.023
609.387
-722.346
202.017
1402.64
-565.59
383.321
447.392
-1858.68
1420.18
532.609
-465.227
-67.3825
194.055
-527.266
-328.634
-153.601
-350.926
694.021
-625.8
252.209
616.362
547.184
-1163.55
1113.55
-1947.58
834.023
137.681
336.011
-1699.72
1661.7
306.335
-731.385
-166.877
380.981
760.251
678.201
-1438.45
1084.37
-1084.88
521.961
-1106.95
-628.165
250.722
377.444
524.165
-270.13
-625.496
-1027.78
285.117
-717.314
-912.322
164.432
161.33
227.737
396.122
282.054
-678.176
-634.759
-834.2
-978.504
485.639
-1061.72
-290.74
474.792
532.159
653.023
-278.314
-121.316
-442.648
762.036
257.864
-1201.01
566.25
1311.92
-551.669
436.632
-1014.92
-385.032
114.225
418.384
1023.24
551.71
-1721.53
1620.19
1646.74
-590.012
-1056.73
1905.18
-1894.17
-11.0182
241.226
-584.401
-347.387
547.878
-774.871
-322.946
-333.282
1021.24
704.984
-1517.37
812.385
303.617
-26.1858
1625.21
-1106.23
412.651
-1266.13
481.074
-61.1704
1521.44
1197.2
-470.417
-487.326
-73.9047
-236.411
736.052
-1951.58
-708.89
353.081
-530.542
177.461
190.864
-505.863
1139.93
671.591
-1811.52
-600.518
135.291
941.812
-1497.31
-210.522
678.82
-468.298
873.878
1126.12
-742.073
1350.87
654.162
-548.863
-105.298
-342.08
1175.33
1050.81
-1979.96
929.151
-1174.69
540.545
1488.75
-586.168
-397.107
-118.459
-1243.53
570.838
1167.89
-80.6605
946.174
775.807
-1721.98
-204.245
578.678
-1541.73
963.056
487.013
916.517
-1403.53
625.265
583.911
395.399
-1106.62
590.189
1109.33
1215.49
-452.217
-763.271
-1186.2
-1754.94
-5.00151
-1716.52
-174.967
-448.104
1609.57
-631.979
-977.591
-490.837
1121.41
-1319.83
634.554
685.279
-1363.51
1445.77
-1332.45
590.374
1520.49
-404.645
-555.851
158.744
-1496.45
218.378
176.383
213.378
440.784
459.851
401.326
-861.177
506.404
-938.898
900.401
-1444.82
-703.188
211.969
491.219
-1046.21
453.926
-479.868
863.189
694.624
24.8653
-509.984
155.097
-886.567
-1318.75
-713.832
348.028
365.803
400.822
-722.229
321.407
-476.685
-189.372
-708.942
722.939
1539.9
-593.729
821.364
737.219
1344.7
-844.586
-971.084
-570.65
-795.523
428.375
367.147
-1036.09
-640.737
302.189
338.549
-1433.69
-296.779
-789.346
396.576
392.771
-649.492
421.2
228.292
-673.416
254.076
412.81
486.529
389.886
439.649
478.054
384.545
595.954
-969.116
688.354
462.312
452.73
356.25
-808.98
1630.74
-1079.85
-550.89
-504.727
-290.242
-1029.83
452.988
347.709
409.72
593.403
-1003.12
-1382.81
750.834
-530.163
1147.45
347.232
-54.8514
412.382
-864.424
452.042
-1899.98
299.508
440.342
-725.121
284.779
-188.205
402.577
-214.372
-660.379
304.047
356.331
-672.521
318.056
370.858
390.346
612.25
-1020.45
752.398
663.371
-1415.77
438.835
624.88
338.612
392.415
-731.027
407.796
328.239
613.819
695.989
417.497
610.829
-1031.77
420.942
-1679.46
1175.84
503.616
1696.57
-539.18
619.683
-1147.1
527.415
-641.351
346.585
437.519
-934.337
496.818
784.892
-483.068
350.934
343.087
587.894
-924.068
652.564
-1252.8
600.234
401.107
734.287
-1224.48
769.079
509.809
-1278.89
494.775
397.914
-892.689
-501.739
-936.217
-297.905
629.369
352.554
541.193
-893.747
331.345
331.741
-502.188
1944.74
436.386
-846.349
409.962
-917.695
-807.791
-747.219
365.879
-1225.97
432.021
-1740.04
1610.68
129.362
1749.63
-1604.82
-144.815
-783.116
-590.807
263.723
327.084
-1766.73
1989.24
538.823
791.066
-1329.89
440.144
716.017
690.009
385.626
-1075.64
-41.2354
1617.14
-593.904
381.598
853.026
-647.646
325.069
322.577
-378.598
-296.955
549.395
-217.864
434.283
279.038
-663.876
384.837
262.566
-576.964
-280.887
442.69
-1032.95
590.259
538.06
1092.68
366.017
596.369
310.428
351.445
-661.873
1636.02
-931.035
1692.26
-1520.94
-171.315
-328.241
-822.112
412.92
857.356
-1067.88
-605.129
277.205
-1090.56
1628.62
-1597.03
-75.1619
1672.2
-341.406
-350.28
-370.332
538.687
596.182
-502.203
-26.9696
-549.763
504.29
-283.538
-220.752
1759.48
-1307.28
-623.234
297.364
325.87
398.964
357.309
734.447
-294.121
-399.191
-1749.63
1688.46
459.694
-1100.55
640.86
-42.0256
1662.22
571.001
476.349
-1047.35
103.727
1144.58
-1452.06
-10.0806
-1889.89
225.718
-596.919
307.066
289.853
-955.006
612.16
-897.372
467.285
-1128.24
672.972
455.265
391.861
255.78
-769.299
-331.688
1216.53
886.441
699.278
-1182.78
456.161
726.618
494.537
700.32
-1194.86
-388.738
-248.006
409.336
-959.971
438.783
521.188
21.2322
-1879.91
1079.97
-472.449
-502.605
558.521
-1378.13
819.613
-430.234
797.521
-405.584
501.977
-712.179
1721.78
409.439
-181.702
214.586
-167.59
-246.169
413.758
1895.33
-504.123
-1701.51
1051.09
-599.423
302.468
-1013.16
552.748
-312.82
544.386
905.121
-1449.51
-1103.38
437.696
-20.9718
-1945.4
1713.69
-662.878
-539.897
460.823
-1190.29
729.464
192.796
206.278
-280.435
772.03
699.319
837.275
817.306
-461.056
1084.57
-500.207
476.126
-191.178
-284.949
-1924.05
-713.546
-317.881
-641.987
-6.52295
648.51
464.274
-272.578
567.331
1068.69
-809.451
924.048
1244.1
-425.536
-161.226
-253.498
414.725
959.977
-888.403
-316.167
-1067.43
611.083
1560.81
-804.694
537.767
934.772
-395.863
734.764
-338.902
1130.15
-275.001
383.233
1349.59
-706.152
-217.205
448.332
-1198.46
750.129
-975.386
-154.146
1129.53
440.762
-955.065
514.303
149.824
732.333
483.155
743.337
-124.189
852.03
-425.995
1182.24
-796.61
552.321
-1465.43
913.11
-1216.65
1800.97
-431.709
-1510.19
879.482
-1401.91
-316.318
-451.694
1457.14
-1525.54
783.926
1491.45
199.649
276.477
-355.706
-1740.04
-282.712
-1018.54
1585.87
-1775.91
1775.91
1573.74
-1004.43
-632.884
-338.458
368.382
604.684
-420.048
-364.217
-1389.76
897.265
1125.11
600.612
1202.55
1789.49
-1216.42
-617.098
273.097
1659.12
-1916.64
257.521
815.205
-1267.8
1545.2
-561.652
787.322
334.496
-355.127
555.205
794.527
656.136
1372.85
-267.235
-445.33
-363.926
495.7
-339.617
471.912
736.13
-297.873
-143.412
-334.947
567.067
-232.12
29.8872
-371.406
1107.39
-1720.28
-463.318
-493.042
-566.352
863.527
697.282
-1596.41
904.638
-451.953
-627.51
-514.572
1251.93
354.67
1723.78
-1702.55
-1659.96
1894.17
-1560.73
840.194
720.535
-399.289
-1797.95
917.856
583.607
819.028
-386.381
1794.43
-680.874
-458.874
701.583
434.425
-1136.01
-1100.69
444.181
753.018
-1617.15
473.241
901.018
174.073
-399.332
225.258
-1604.7
-388.461
-471.023
990.233
-677.277
1442.89
-980.014
1853.89
241.85
-547.151
494.876
-295.227
474.332
893.466
543.249
977.241
-463.153
-427.923
574.156
882.988
-1392.7
-40.9916
1577.82
-840.597
519.964
971.484
-1475.81
-1115.9
1779.78
-1241.66
-538.114
1206.09
-319.182
-886.905
-189.411
452.116
-262.705
-457.361
-250.566
428.737
-178.17
143.435
-391.441
1737.93
-1742.93
-464.104
-530.869
-903.539
441.632
-203.879
-237.753
633.005
-491.069
-400.647
-322.121
722.767
-952.842
429.332
-1167.13
676.288
415.923
-641.585
-434.694
1581.63
-866.67
530.194
-458.166
-570.162
-462.787
361.667
-351.193
-10.4745
-1120.73
410.9
-664.899
-1033.58
1698.48
-609.577
-1424.21
712.192
562.272
-1596.26
1033.98
-408.536
-477.008
154.015
556.626
-1258.4
743.83
539.25
1005.96
-2133.17
999.984
1133.19
-362.834
409.686
-384.483
-25.2023
1478.02
-375.236
449.59
1185.38
582.444
906.306
567.025
527.775
-1094.8
163.168
-446.268
-1695.9
246.783
1127.53
-621.311
518.582
1013.65
-1532.24
1092.82
-1643.71
195.923
709.668
552.999
-869.166
-1086.4
-169.656
425.758
-256.101
-586.624
-435.26
-636.763
-626.054
345.619
-1619.27
939.512
-476.978
215.329
-397.032
532.95
-307.232
-617.005
1197.09
-1302.21
939.285
362.922
-1019.99
-372.303
-761.609
-828.631
1692.16
-477.166
1794.72
-1586.07
-208.644
-1556.61
1018.67
537.933
-729.46
-257.345
439.384
-182.039
-599.406
384.049
271.952
-656.001
-524.162
995.667
628.596
-351.391
-1620.25
1050.48
571.795
1103.51
-1675.3
-420.311
-289.389
-370.989
-748.258
-501.171
-331.014
498.409
1557.99
-995.718
-774.685
1497.46
658.83
-316.114
725.883
1152.35
-1878.24
286.312
313.096
-487.378
-1933.39
1720.69
212.695
737.08
-474.886
-262.193
531.854
1060.79
-1592.64
361.667
-1726.61
-233.213
1752.36
-1580.67
1073.75
506.923
-1729.45
2.84208
-521.885
409.686
1699.72
-1720.69
939.496
624.934
-1564.43
378.705
-217.866
-160.839
-425.256
-248.16
65.2682
94.6938
-352.039
-427.646
-441.4
-405.398
217.193
1510.2
379.001
-192.939
-456.553
459.91
-195.294
332.407
1510.73
988.547
-175.413
-813.134
-1104.07
1704.88
-1728.87
1063.97
-707.337
-1021.53
-1265.08
1844.99
-579.91
1155.06
-1771.21
616.148
269.728
-877.907
1675.83
43.4276
-1719.26
-491.18
-1083
-1737.93
-981.456
553.533
1019.55
590.257
1133
-1723.26
269.858
-472.182
702.474
-384.417
396.779
924.61
681.281
-374.755
-657.016
582.921
1072.51
-1655.43
-403.468
-365.835
769.302
403.43
-1661.7
1520.94
140.757
581.475
-1043.78
544.756
1083.87
-1555.64
993.992
-235.907
224.422
323.456
1905.18
433.978
-62.7787
995.852
722.751
-1718.6
-697.015
1085.3
-1557.49
163.192
-570.654
195.286
264.625
-671.253
-554.72
582.601
1034.54
-710.964
-260.961
-1368.49
674.709
693.776
-411.886
739.955
103.125
-843.079
562.002
-137.178
1557.36
-212.602
271.561
-774.703
-1933.39
1664.61
1020.52
340.367
296.651
488.241
-929.941
-994.106
-1767.26
634.77
1693.76
506.011
-474.504
1210.63
1087.09
-424.948
1029.63
-977.744
490.571
487.174
700.522
1047.92
-1748.44
482.357
484.515
-1493.94
-746.097
33.8717
779.056
-413.177
-884.364
381.758
-539.45
-801.742
602.175
-577.706
1397.32
1055.16
192.278
233.48
-550.651
1618.5
-773.995
1526.39
-1727.83
575.281
1152.55
541.174
-882.613
-1732.97
1916.64
-183.674
1721.74
179.538
-544.955
364.678
-269.984
-481.539
1211
568.273
1128.3
-491.216
426.688
857.11
-459.117
-771.419
429.122
342.298
1419.18
1089.57
-518.28
1422.92
-510.558
-533.2
1043.76
-602.789
514.034
-1225.46
1692.26
1839.57
-687.217
1585.88
-646.383
-1241.05
716.885
-562.7
199.788
-388.044
451.396
-240.514
-518.95
-1246.7
1870.95
-624.243
1173.37
-553.684
1120.26
-1659.44
1700.66
-573.967
-546.864
-549.835
1720.07
-316.725
-688.079
-473.376
1223.51
-1687.34
-1860.11
613.406
344.886
-955.642
166.031
211.338
-1719.02
1204.14
514.885
1162.85
558.89
-512.415
-465.42
1192.04
180.038
222.539
588.447
1251.13
-539.182
-1238.58
1777.76
-1025.32
999.988
866.785
-204.084
-1659.12
1702.55
-510.139
1411.16
-1732.97
-335.98
-10.3471
346.327
-259.403
583.883
-324.48
112.294
488.469
780.479
-379.657
1257.52
1270.72
-413.367
851.15
-438.23
1817.51
-662.445
1586.6
-1723.78
-412.81
-771.87
338.802
433.069
-560.509
-563.456
79.7412
-1138.65
-985.343
-670.071
1655.41
-943.702
-1189.47
209.403
-445.492
-647.793
705.703
1167.44
650.065
1410.3
-591.273
1636.73
1318.04
-574.214
-490.108
194.882
-503.307
1396.77
1240.05
-565.343
-999.984
891.966
57.0515
-949.018
603.426
-506.176
1403.44
1495.06
-588.756
-362.415
362.415
-589.514
1623.5
1239.34
-486.317
1134.14
-62.7827
1849.99
-389.412
1489.47
-589.071
-507.692
1347.89
-651.431
1218.58
-567.154
1554.81
-591.754
760.742
572.094
-1332.84
-671.805
263.819
521.831
600.536
-1957.29
-999.861
1586.6
365.772
-365.772
-65.1032
386.11
437.395
358.776
55.601
-313.128
934.82
-533.712
-427.028
813.138
-241.381
618.825
-423.99
1553.18
-444.346
-884.028
184.002
225.583
-409.586
601.172
1250.77
-1851.94
926.285
-459
-351.193
126.149
-1943.03
1816.89
-448.807
179.55
1181.13
-440.485
-740.645
-296.316
-588.048
-494.213
-384.483
-478.008
257.256
1158.13
-561.953
230.71
-378.041
147.331
-22.8161
-107.682
1375.99
-1268.31
34.6047
-597.118
-586.453
-449.67
449.67
-1262.35
1985.1
-1344.34
-204.542
-1823.88
237.813
-1025.75
-974.244
-183.328
-1638.67
708.732
1229.32
-1925
366.534
314.182
-680.716
-1850.02
1234.27
615.749
-560.443
560.443
-959.045
-39.984
-1866.1
-558.164
1650.85
-676.532
1636.18
-601.641
-184.339
-1705.56
-582.787
-475.219
-594.835
-464.098
464.098
-1537.81
194.529
1343.28
170.468
224.582
-395.05
506.846
481.7
996.457
-475.269
1751.29
768.365
-420.267
395.065
521.936
1702.06
-594.669
-552.978
1636.84
468.382
1812.79
-645.345
-1804.23
-1938.07
-647.033
-476.728
476.728
-577.923
213.997
-708.08
1018.94
-466.187
-1074.1
-287.738
1579.56
1852.3
1635.36
-1635.36
-286.833
739.22
1761.51
595.796
1275.15
170.893
207.812
600.368
592.241
1603.5
-1603.5
220.13
-355.695
-436.57
456.902
950.892
-460.321
-639.164
-1130.98
1706.26
278.316
-1665.16
625.057
-288.738
468.276
1744.65
-592.094
-214.385
-447.914
377.168
732.159
1738.58
-613.469
-511.78
-779.097
1960.54
-870.458
-1090.08
1642.74
-704.624
1223.97
-1824.95
600.988
371.055
-918.207
-185.452
-103.989
1097.88
-486.798
130.089
634.902
-1662.68
432.955
603.287
-1804.23
-583.288
1787.43
883.774
-1162.9
1760.49
-597.594
1783.83
-575.542
-1208.29
430.899
925.87
-1742.93
924.608
-1484.36
247.58
1236.78
-831.114
-1254.22
-376.631
74.6576
301.974
581.749
267.434
1030.19
-441.446
845.71
-404.263
820.645
740.199
-1560.84
644.178
1066.39
-24.0873
-662.406
686.494
-1744.41
722.872
704.778
150.545
-1122.64
1936.77
-674.558
-1262.21
-537.182
1665.48
834.524
965.672
-1800.2
1227.86
683.35
-405.456
709.504
830.714
1027.78
-587.019
1761.51
626.137
1773.56
-1185.6
-587.959
-425.521
-333.18
758.7
121.451
-1185.63
1660.54
-540.277
-1437.79
1437.79
1250.56
594.422
1351.48
206.514
-563.622
281.204
-188.76
699.121
1113.66
479.661
-299.623
-869.793
-575.029
1740.09
-1740.09
994.495
-994.495
987.335
1025.17
-2012.5
1837.95
-613.987
-581.117
850.004
-947.853
-1052.16
998.264
690.988
-1689.25
-514.438
-376.582
-650.426
-808.432
2042.7
-1246.42
-613.694
1002.97
974.856
1289.77
646.995
323.876
1012.69
234.265
339.033
1186.23
1756.89
-1756.89
671.678
79.6729
-386.832
-997.057
-539.994
1674.13
991
1009
-1833.29
-221.186
-361.601
599.858
-353.075