/*--------------------------------*- C++ -*----------------------------------*\
  =========                 |
  \\      /  F ield         | OpenFOAM: The Open Source CFD Toolbox
   \\    /   O peration     | Website:  https://openfoam.org
    \\  /    A nd           | Version:  7
     \\/     M anipulation  |
\*---------------------------------------------------------------------------*/
FoamFile
{
    version     2.0;
    format      ascii;
    class       surfaceScalarField;
    location    "24";
    object      phi;
}
// * * * * * * * * * * * * * * * * * * * * * * * * * * * * * * * * * * * * * //

dimensions      [0 3 -1 0 0 0 0];

internalField   nonuniform List<scalar> 
43924
(
-594.903
666.527
-71.6236
1063.73
-1072.47
8.74281
-335.004
382.344
-47.3394
227.464
-259.061
31.5979
-498.509
498.509
221.594
-264.269
42.6756
-369.959
365.277
4.68181
26.146
-563.112
536.966
663.624
-833.506
169.882
-1009.29
1102.26
-92.9701
554.591
-144.211
-410.38
-531.358
536.505
-5.14627
-687.848
582.669
105.178
-859.815
868.876
-9.06087
265.21
62.2354
-327.446
385.826
-10.4517
-375.374
814.593
-666.861
-147.732
-407.461
404.403
3.05852
161.207
314.781
-475.988
290.688
-357.301
66.613
-594.056
81.6629
512.393
724.438
-60.814
50.0018
-385.006
136.549
-489.502
352.954
233.391
-123.264
-110.127
1067.92
-4.18921
659.856
-681.002
21.1457
-280.372
0.761322
279.611
304.666
-39.4552
-441.749
543.836
-102.087
952.082
-248.723
-703.359
-672.456
760.409
-87.9535
242.245
-224.241
-18.0045
478.59
-69.7089
-408.881
129.166
-409.538
267.293
-431.132
163.838
437.208
-585.908
148.7
291.598
-37.6993
-253.899
824.405
-978.889
154.484
1061.77
-237.364
-1018.13
1035.68
-17.5447
403.124
-92.8855
-310.238
704.024
110.569
190.349
-308.309
117.961
1228.47
-777.705
-450.768
-591.231
149.482
538.735
-538.677
-0.0578146
230.504
645.526
-876.03
224.47
537.266
-761.735
-108.376
545.583
-373.127
170.669
202.458
-14.6882
-224.743
239.432
-665.962
-6.49361
239.819
-18.2256
424.244
-38.4181
-277.771
-54.4542
332.225
524.761
-499.864
-24.8975
-34.2644
-559.791
-463.223
41.7644
421.459
-297.96
-27.0174
324.977
799.507
17.5781
-817.085
-409.159
570.366
-16.4829
-241.573
258.056
-215.786
483.079
-326.218
438.065
-111.847
261.6
237.896
-499.496
496.533
-126.246
-370.287
428.511
-47.495
-381.016
-448.972
-28.2608
477.233
-986.659
-31.4756
1061.22
6.70325
302.467
279.981
-582.448
-242.722
546.679
-303.957
171.262
79.7734
-251.035
-432.075
381.823
50.2521
-375.167
378.62
-3.45277
297.983
-167.397
-130.586
-251.063
-61.3631
312.426
-699.298
16.542
682.756
407.236
-92.8278
-314.408
-254.943
254.943
83.6271
-762.165
678.538
-662.611
67.7086
-947.221
848.225
98.9961
-312.957
-57.0017
-47.2968
218.502
-171.206
522.337
-135.015
-387.322
-644.55
-43.2973
652.48
-69.8109
101.285
80.4222
-181.708
-354.593
89.5262
265.066
-310.23
59.1671
845.894
-621.424
566.21
-594.246
28.0353
227.481
-96.726
-130.755
-363.257
136.766
226.491
-20.2853
250.78
-230.495
-846.706
847.413
-0.706625
-29.2584
-161.262
190.52
273.617
4.03222
-277.649
-711.451
12.1531
-266.781
283.751
-16.9703
778.739
20.7682
427.422
-631.948
204.526
202.701
-217.389
-756.606
818.332
-61.7258
646.87
-716.687
69.8168
74.6849
577.795
943.846
-846.974
-96.8726
-217.616
237.999
-20.3832
199.17
43.0752
351.63
120.412
-472.041
1009.09
-256.885
-752.208
18.7669
563.559
-582.326
-12.9739
-587.287
600.261
539.273
-236.807
108.925
426.338
-535.263
-303.26
408.042
-104.781
76.7472
-814.828
738.08
-698.338
455.615
-24.3046
-193.183
217.488
20.3389
-855.691
835.353
-305.892
322.954
-17.0623
-35.3753
296.976
24.101
-890.749
866.648
-359.692
339.124
20.5677
-88.5254
-318.936
10.2862
-284.869
274.583
703.623
-786.519
82.896
726.168
-860.276
134.108
-148.012
338.361
185.664
112.318
198.18
-205.377
7.19667
283.11
-309.953
26.843
-128.547
555.969
625.218
326.865
147.499
79.3141
-226.813
277.232
-316.751
39.519
197.022
-231.718
34.696
-25.1281
298.745
-346.262
-13.4303
1.47926
-188.341
186.862
224.658
-63.0547
-161.603
181.123
827.97
-198.075
-739.276
937.351
-101.161
-397.348
522.765
15.9703
226.077
-225.013
-1.06398
256.707
-202.061
-54.6464
15.6947
-232.683
216.988
-395.12
632.328
-237.208
52.1735
507.462
-559.636
984.076
-886.438
-97.6382
790.924
-787.092
-3.8317
-573.028
-237.692
810.72
-146.022
722.118
-576.096
455.674
-443.741
-11.9327
-223.137
4.5886
218.549
30.0748
-761.702
731.627
-171.69
-201.437
-248.28
234.331
13.9484
241.229
-13.7657
26.8949
1020.88
-572.445
-448.433
735.195
-933.27
-399.882
96.6214
16.0525
208.605
16.4666
-778.234
761.767
-90.3878
-856.833
417.692
-452.385
34.693
-106.654
832.821
54.4299
-736.314
681.885
-212.253
-10.8844
277.232
2.80355
242.012
-244.816
-432.783
432.783
82.9014
679.383
-762.284
-315.3
48.5186
-579.307
598.074
328.028
-296.171
-31.8575
-777.832
-63.2709
841.103
-144.759
446.352
-301.593
437.883
84.454
428.686
-443.082
14.3958
242.984
-45.9612
-207.544
-329.389
536.933
501.437
-381.463
-119.974
-328.468
17.4262
311.042
785.263
-81.6406
-520.793
-79.2357
600.028
-661.088
661.088
-126.439
501.95
-375.511
95.1689
-342.615
247.446
-919.504
346.476
306.902
-358.683
51.7802
436.813
18.861
809.818
-490.317
-319.501
917.166
-67.5763
-849.589
78.0068
149.474
-847.188
614.203
232.985
-24.3363
263.065
-238.728
-211.58
221.17
-9.58965
-42.4763
-488.882
874.943
-890.141
15.1978
-64.7538
429.801
-12.1091
788.09
-791.513
3.42273
244.678
-18.6017
18.4927
-236.109
822.131
-963.819
141.688
249.037
-341.535
92.4979
570.691
-570.691
899.944
-93.2412
-806.702
594.27
73.0743
-667.344
55.5384
-326.752
271.214
-204.966
278.088
-73.1215
-471.786
327.027
53.7343
734.356
-393.064
529.613
257.416
-179.409
-683.984
-176.292
484.478
-630.5
453.62
-501.218
47.5973
-897.041
1031.44
-134.402
-580.573
555.725
24.8483
505.84
-582.349
76.509
128.939
732.558
-861.497
211.312
530.697
-742.009
723.343
505.131
322.022
739.747
325.817
-232.204
-93.6125
-295.931
295.931
371.167
-402.184
31.0172
-28.1089
1089.33
270.119
-323.903
53.7841
530.06
-477.887
-297.429
-562.386
551.712
-565.725
14.013
-29.401
904.344
253.093
-277.43
-211.287
191.419
19.8684
499.021
-587.795
88.7741
-197.706
959.04
-761.334
588.782
-82.9423
771.603
-383.765
-387.838
339.276
-48.5877
472
548.878
-206.945
159.648
-743.851
59.8672
-933.405
36.364
477.709
47.0523
-679.852
891.164
-693.846
-62.7602
189.358
-201.006
11.6485
-74.0105
915.197
-841.187
-38.052
-817.793
855.845
184.767
-183.288
38.3647
166.152
-204.516
-9.26862
-365.97
375.239
321.247
-310.96
-605.223
210.103
-245.194
445.114
-199.92
908.551
-678.047
303.539
22.2775
278.981
17.1475
-296.128
-567.318
167.687
399.631
460.853
-32.1669
523.577
-731.12
-363.344
-11.8234
647.011
-746.154
99.1426
-222.089
153.361
68.7281
-656.253
638.975
17.2778
215.861
-213.058
75.1133
182.303
-742.932
825.833
-329.341
322.86
6.48104
68.052
-363.507
295.455
236.351
-205.9
-30.4505
526.605
-328.701
-197.904
7.91013
-346.822
338.911
-497.384
484.41
-79.2175
287.833
-208.615
-660.644
157.429
503.215
-347.643
-15.6142
653.817
6.03934
445.699
-21.4554
-166.329
15.8066
150.522
-21.823
724.469
-702.646
-853.196
982.135
321.097
-149.37
-171.727
677.329
-775.12
97.7915
423.721
347.882
706.399
59.5712
-765.97
818.099
81.8444
550.376
-527.31
-23.0662
1093.72
-1012.31
-81.4056
5.04839
-296.519
291.47
290.363
-11.3828
92.8004
140.591
210.306
-12.1263
194.651
-200.6
5.94955
144.846
148.339
-293.185
-305.169
284.798
20.3707
-161.994
-296.065
458.059
420.464
-546.903
-320.558
195.806
-194.686
-1.11949
192.689
1009.34
-562.744
-446.599
525.923
-109.141
-416.783
137.448
509.422
77.9564
472.42
22.1362
-691.78
712.334
-20.5533
46.6253
-547.834
501.208
-87.3661
-247.37
334.736
-449.038
39.2177
409.82
-140.534
-336.067
476.601
780.004
-1.26496
23.0435
183.736
-373.022
189.286
160.154
-239.372
-920.721
849.199
71.5222
-297.016
305.879
-8.86293
669.184
-83.9998
-585.184
1047.02
-603.806
-443.209
194.058
-193.41
-0.648114
257.686
-112.381
-145.305
-421.81
418.301
3.50844
663.382
-31.7413
-631.641
-693.63
1.84976
373.354
33.8821
-568.439
449.014
119.425
583.02
-578.291
-4.72822
-855.761
44.3942
811.366
856.371
33.1982
-889.569
-424.681
284.147
-202.637
36.3085
-322.229
529.623
-207.395
-171.029
-40.2587
754.995
-793.047
-143.548
181.913
539.47
-174.766
-364.705
-123.591
-309.192
221.652
-222.856
1.20397
619.532
43.8505
683.463
-608.778
20.438
-301.761
281.323
837.456
-876.374
38.9181
-310.382
14.2118
954.969
-958.207
3.23713
53.9887
213.986
-267.975
680.252
-33.2404
568.342
-592.73
24.3875
-828.834
849.173
185.932
-210.237
786.37
212.151
746.888
159.444
189.64
-349.083
-299.054
-8.21106
823.925
-70.9355
-752.989
596.018
-131.914
-464.104
242.071
-71.4018
84.6412
411.892
72.963
-277.929
473.85
-503.912
30.0618
142.651
-349.044
206.393
137.712
388.893
56.4167
860.749
653.043
-773.279
120.236
-22.7458
977.715
-249.89
-32.8881
282.778
-217.756
208.832
8.92414
1.1299
170.132
48.5565
452.88
335.152
-344.42
-357.937
31.7192
-337.656
39.6966
838.347
-58.3435
75.4951
-247.086
171.591
-955.967
22.5622
-919.424
-36.5428
-486.059
56.3209
429.738
-732.153
900.814
-168.661
-204.359
-55.8187
260.177
-117.189
-74.7203
191.909
-151.572
-48.9608
200.532
-138.12
229.722
-91.6019
853.458
410.585
-226.849
139.519
-12.6287
-567.945
-879.192
-41.5292
444.054
151.964
191.894
-514.123
200.749
-1107.03
906.281
28.3648
201.581
-229.946
-11.6631
-199.917
418.838
26.8613
89.1635
701.76
281.037
16.214
-297.251
-472.645
581.57
728.756
72.8633
-801.619
-778.337
-8.18134
800.751
-855.134
54.3831
300.975
-260.397
-40.5775
82.3941
238.703
850.765
-864.969
14.2033
978.829
-862.149
-116.681
939.105
-943.667
4.56231
-397.031
-171.408
-5.4181
-873.04
549.127
323.913
-185.356
162.019
23.3363
-243.832
388.678
140.886
91.8804
-232.766
756.348
262.093
-278.576
431.69
94.2336
782.636
-696.106
-86.5296
-52.6846
-107.77
-87.9034
195.673
-308.731
260.618
48.1128
862.497
-838.396
-21.796
379.839
-358.043
-338.414
-7.84752
570.336
-583.707
13.3712
368.722
-327.337
-41.3851
-828.496
731.208
97.2883
-905.788
831.777
142.371
115.315
-406.503
277.058
129.446
468.386
-454.065
-14.3214
621.342
-622.658
1.31652
518.125
-44.2746
-321.426
-133.317
454.744
23.7585
-273.649
-73.115
-246.086
319.201
544.286
563.929
-1108.22
-900.867
849.215
51.6516
-2.85213
-405.142
419.116
-13.9735
432.109
-399.846
-32.2633
671.851
-845.103
173.252
711.159
-881.562
170.403
-503.281
-157.363
-442.718
77.3614
365.357
305.654
-6.53664
-299.117
-326.033
174.461
474.633
79.9578
-719.695
-108.801
5.91396
188.737
-303.002
300.633
2.36891
52.7063
-353.672
300.965
490.44
39.3461
-529.786
-230.694
300.873
-70.1795
-896.195
-19.6394
915.835
-192.429
-40.9203
233.349
6.55087
-845.691
839.14
804.708
-118.433
-686.276
333.065
141.006
-214.121
-874.878
-21.3175
808.547
40.6511
-6.54227
541.405
-189.775
-508.858
-13.5378
522.395
-801.992
913.795
-111.802
313.927
-245.875
-396.138
308.772
-30.1998
590.719
63.0978
384.097
-241.446
299.415
510.403
-14.5707
26.7276
341.995
-776.957
85.462
691.495
456.795
94.9175
-126.881
-33.7309
160.612
-851.807
-23.0707
71.2962
331.827
-198.375
227.797
-29.422
49.372
-280.066
-259.89
279.738
-19.8483
-18.7902
28.9146
-513.153
484.238
-611.093
-135.061
-23.3368
302.814
-279.477
-330.412
450.823
599.387
447.628
-1102.78
430.488
672.289
329.528
0.347221
-329.876
-229.849
-170.557
400.407
-524.652
550.798
-661.206
-18.3604
679.566
99.118
89.6423
-188.76
-44.2506
799.245
838.882
-862.539
23.6566
807.499
-154.456
39.0455
-602.157
-325.891
-20.9301
556.811
57.8068
-614.618
440.055
20.7982
-349.482
393.202
-43.7199
-853.601
-3.78795
857.389
-27.818
-823.989
303.857
-278.584
-25.2725
625.208
-3.86684
571.235
-409.016
-162.219
-216.348
276.719
-60.3714
-87.0739
-270.863
-420.933
-42.29
894.498
-183.34
-821.137
88.9838
-629.318
18.2252
-539.976
50.8023
489.173
820.551
-39.6283
-780.922
-260.965
122.844
-0.24567
-356.069
356.314
858.91
-187.058
307.992
-2.33855
636.615
-68.273
494.189
-3.74938
801.392
-712.229
-1045.14
-57.6416
445.008
23.3782
529.646
36.5649
729.19
-699.115
796.027
-38.4841
-757.543
194.914
-224.173
275.724
-15.1055
-118.147
213.485
-197.79
474.96
15.5947
-490.554
576.396
-98.2824
-478.114
-459.557
422.006
37.5512
128.894
672.498
2.39584
-94.2454
-762
856.245
78.542
-669.359
590.817
227.485
-304.508
77.0234
-741.262
647.016
91.763
712.945
-504.408
1048.69
242.157
-166.662
-276.635
-178.174
248.802
-70.6282
209.903
-261.721
51.8178
-180.286
321.172
-9.27687
-329.137
-51.1613
5.57348
-410.984
405.41
-47.5543
-162.074
-195.227
-30.4523
368.139
-337.687
-870.852
944.466
-73.6139
45.5022
-528.134
482.632
33.2891
-251.045
-755.858
106.206
649.652
355.446
-226.281
819.405
1.14531
-3.93871
221.062
-217.123
434.709
136.526
-118.334
-324.384
815.913
-201.71
-95.2067
-914.085
613.323
-333.342
130.454
46.303
654.256
-570.629
495.452
-16.8622
342.687
-35.784
339.108
-421.535
82.4268
199.522
-248.465
48.9426
47.0509
250.412
-297.463
335.901
-497.895
-3.68627
761.957
-806.208
537.734
-62.7746
-105.618
737.18
-631.561
-269.522
304.42
-34.8977
-68.4277
295.913
206.136
-190.083
-282.078
12.5557
-1059.28
587.439
471.841
-35.8817
-76.2781
177.564
-309.904
295.3
14.6039
-676.03
692.497
268.597
-273.488
4.89144
-475.267
179.202
-503.005
-556.275
240.908
-278.608
847.164
-946.595
99.431
-343.875
17.9835
485.715
-626.935
141.22
-2.40027
810.948
231.922
-262.368
30.4459
-320.522
-552.518
-37.4923
293.902
-25.3055
343.718
-114.661
-229.057
-20.2364
-840.98
861.216
-876.292
484.033
392.259
-56.2069
735.59
-457.476
36.5424
-144.315
-128.754
273.069
875.744
-820.736
-55.0075
393.55
-322.253
796.807
3.94426
105.364
86.7815
-192.145
-580.554
1024.4
-443.843
146.358
-195.113
48.7549
-758.973
-144.99
903.963
130.187
213.53
853.512
-31.3809
813.472
-736.725
503.525
-418.884
7.62781
-249.201
48.266
148.938
-197.204
306.979
234.426
-24.4466
-1098.2
619.197
479.002
7.99127
891.695
-60.5455
-831.149
-430.605
622.994
-192.389
57.1502
756.322
23.2876
-532.145
-590.53
-18.3158
608.845
415.417
145.663
-561.079
-264.721
-522.371
279.009
63.6775
-178.821
-76.1224
-406.444
352.854
53.5899
-790.848
300.531
201.267
-262.489
61.2218
221.429
-250.26
28.8316
430.261
-424.688
726.422
52.012
-778.434
-203.202
41.9397
820.717
20.7747
-841.492
-356.297
17.0753
339.222
118.64
860.19
-409.953
451.717
411.543
-72.4349
-954.48
99.698
854.782
789.101
102.593
-39.8974
239.419
50.6249
381.484
897.834
133.609
27.8219
-485.297
28.689
-826.847
798.158
697.089
-765.382
68.2929
636.308
465.954
769.012
-56.0324
-712.979
196.221
-49.8631
76.4315
339.463
-415.894
-735.244
792.395
266.175
171.89
-272.113
168.043
104.07
-111.18
-426.846
538.025
-32.2261
-216.054
1004.41
-573.927
83.1507
-287.509
210.518
-214.457
-102.734
-156.327
30.6246
820.141
-164.005
499.906
-600.384
754.795
-154.411
683.387
-705.21
-392.32
378.782
-442.621
-180.037
39.5384
348.768
-11.7714
-336.997
-46.2889
808.246
-505.248
-623.367
1128.61
287.959
-235.704
215.418
8.88102
197.255
-247.869
124.605
-885.297
908.958
-23.6602
-270.356
255.001
15.3551
74.184
708.452
3.36413
765.648
635.854
-16.3225
-15.0957
-512.558
470.96
41.5976
933.08
17.1533
-950.233
-311.837
-44.4602
-0.419561
-234.651
795.847
-69.4245
529.018
-623.137
94.1188
-761.947
-84.7597
37.5688
263.406
887.44
10.3934
-490.868
440.922
49.9463
-950.455
-94.6797
44.3194
-385.83
341.511
-193.328
218.01
-24.6823
246.391
-36.4871
-39.7851
1050.3
-313.221
-737.078
579.605
-50.5872
49.6561
-264.438
-62.3141
-692.384
776.074
-83.6895
-76.9953
-8.52157
229.95
504.807
-5.78617
92.7903
-870.623
-93.0412
213.619
-120.577
-193.465
216.008
-22.5427
-681.796
570.617
-450.147
479.061
342.449
51.1005
-460.728
424.908
35.8199
578.364
430.979
498.492
-459.977
-38.5144
478.963
-309.18
-169.783
-201.229
33.8319
350.729
-21.5448
-329.184
-251.584
73.41
-323.369
287.994
-219.036
-636.725
-691.546
-81.7335
260.042
-58.7751
661.668
197.242
6.96268
227.369
816.178
-84.9887
-731.19
328.933
-142.126
647.048
-504.921
240.217
-296.036
-97.9502
513.367
-750.8
7.86813
-117.342
-104.747
500.006
-95.0739
783.303
-688.229
-199.189
219.414
-20.2248
-28.7529
-241.603
829.59
-737.827
222.717
-428.094
-406.803
834.897
861.854
-200.186
-43.9425
788.212
-744.269
597.394
-6.67554
17.7523
-608.282
280.715
137.265
-417.98
-404.167
480.599
-21.8861
-318.096
339.982
-617.131
65.9787
551.153
-143.683
515.44
-371.758
-479.662
409.807
-483.282
73.4753
105.308
-179.221
73.9131
-180.476
339.919
-175.488
-187.856
728.836
-31.7475
102.296
581.167
-611.048
648.899
-37.8509
269.192
-292.529
-810.381
-52.1578
97.1299
-433.197
590.119
460.18
-615.796
173.175
417.469
-845.563
383.474
-681.89
28.653
653.237
-198.672
248.658
-49.9856
-816.295
886.703
-70.4079
-48.4347
-432.222
480.656
1005.36
-405.614
-599.746
-68.9915
-786.143
10.8433
293.014
-950.464
207.422
743.042
-857.711
-92.7532
-173.292
-12.0635
-777.768
731.479
-131.842
-295.754
427.596
-16.5154
-265.984
282.499
160.378
647.122
236.892
153.586
-390.478
-902.869
154.577
748.292
541.186
-580.96
39.7737
604.54
58.5976
-663.138
-44.2578
673.899
-639.868
-34.0307
353.265
-23.7364
-22.1362
222.635
-200.499
608.368
65.5304
14.0775
-792.415
721.539
-777.571
-176.287
224.553
323.646
155.317
142.035
-317.523
204.046
-208.154
4.10791
342.13
-199.718
-142.412
592.104
43.75
-747.436
800.969
-53.533
-404.803
-100.522
505.325
-13.9976
-289.004
251.404
58.4268
-309.831
250.717
-100.591
-150.126
418.351
-466.785
-61.7157
-740.277
-411
92.3741
143.977
507.485
-442.226
-65.2593
-228.662
257.027
-203.871
195.905
7.96652
21.4138
-224.687
203.273
-322.709
379.506
-56.7969
211.581
-8.90304
-202.678
450.444
554.917
-262.602
555.545
-473.882
140.812
-230.269
89.4572
-202.188
-10.7913
212.98
701.282
-96.7413
244.681
-169.568
-357.586
277.178
80.4084
-426.4
-17.9137
444.314
-352.072
449.202
312.337
-323.389
11.052
-17.211
33.2149
470.31
462.81
35.6813
35.8398
-462.24
186.962
4.45703
-338.955
-4.92023
-370.547
297.411
73.1356
342.416
-63.4069
673.307
221.191
-231.502
252.915
-289.462
306.888
100.836
657.189
-758.025
-736.444
-25.8513
762.296
30.4738
163.017
16.7776
-339.487
-690.695
621.112
69.5831
123.688
-175.284
169.275
6.00907
427.147
-146.432
-239.692
-176.631
416.323
-165.891
-346.667
221.336
-17.2898
-261.951
117.636
91.8609
-184.902
-1009.54
696.318
-348.004
348.004
851.464
242.252
-35.2768
-509.097
-500.441
210.285
326.22
528.134
42.5565
545.862
-51.6725
270.862
-245.064
-25.7977
-629.413
662.317
-32.9045
-50.2806
-532.634
-46.6729
-636.922
716.033
-79.1107
84.3254
-493.484
-353.156
539.449
6.41292
528.839
20.847
-549.686
747.187
-647.387
7.51874
-111.804
-67.3706
179.174
-413.249
89.8798
312.747
-33.6915
-279.055
-153.933
-48.7041
-302.474
289.625
12.8495
-291.936
75.5883
869.106
-195.799
-334.116
49.2467
767.895
-1.29881
-766.596
584.184
-659.037
74.853
-922.856
830.376
92.4804
-23.6908
-637.515
110.053
297.989
-23.637
-261.437
285.074
-785.868
23.7023
-204.05
-291.262
267.625
-466.149
511.651
-240.446
267.466
-27.0205
-303.859
299.787
4.07212
-810.337
704.719
995.979
-148.815
-168.288
305.966
-251.977
361.458
-171.819
415.838
-310.338
-105.5
287.869
54.5471
812.589
-91.3526
-721.237
184.223
-681.607
-753.799
670.399
83.3998
5.51824
-617.389
624.103
-6.71383
65.2509
179.43
-97.8851
518.349
-269.27
292.558
-23.288
379.194
-458.351
79.1569
-608.651
649.237
-40.586
585.595
44.445
-630.04
243.023
-221.878
-21.1449
556.258
-23.9867
-532.271
231.531
-120.605
-110.926
-125.812
-48.8434
174.655
954.967
-945.922
-9.04479
-575.497
-388.322
-46.4327
-756.211
802.644
-897.64
834.369
-585.776
361.273
224.503
605.094
-623.41
-15.022
672.901
-657.879
24.1402
143.476
-167.616
-70.8131
-282.859
-855.978
-66.8787
15.46
366.363
334.082
-739.696
198.816
-11.8538
-229.68
229.68
408.267
-140.188
-268.079
-911.256
25.9581
-3.23948
-27.2426
-476.593
503.836
-753.73
-80.6703
487.123
-406.453
-252.404
-408.685
432.551
-10.5451
-57.4753
259.056
155.887
186.243
-542.09
397.88
-168.044
404.936
339.805
-51.9363
762.572
-708.142
-284.413
-7.95565
270.85
-946.894
-3.56091
5.61068
927.469
533.068
-448.742
-836.667
573.469
263.197
1.49708
260.488
-261.985
350.212
-6.52674
-343.685
-462.116
31.5102
-834.899
748.622
86.2763
-129.775
-182.062
195.338
42.8764
-238.215
213.046
126.759
-800.991
17.7805
-589.95
325.73
264.22
38.2135
244.897
362.446
-325.477
-36.9688
-385.613
397.163
-11.5504
847.417
-513.335
-455.026
312.9
-323.44
192.097
131.343
423.381
-720.81
568.413
-27.2268
811.247
-807.883
79.6377
151.894
-828.635
811.228
17.4062
-794.566
47.1301
-472.163
-527.846
1042.65
-186.28
931.098
-835.179
-95.9196
-521.121
-463.315
984.435
-48.7188
-256.45
54.4383
226.31
-233.937
7.62652
-22.1784
-56.0702
733.399
468.371
-33.1418
-435.229
-368.016
-199.302
18.0104
-88.8621
-252.673
-156.034
421.627
-265.593
-925.874
925.874
92.9648
-805.415
485.914
-510.92
69.2057
441.714
-211.812
-194.692
170.893
-163.806
-378.285
-552.795
388.989
602.119
58.4091
192.308
421.632
-929.733
508.102
-26.7812
307.819
-222.747
-263.312
-216.58
416.688
-93.0421
-181.909
-141.531
-65.4892
-835.378
452.516
-518.122
65.6062
17.0953
-694.069
775.542
-81.4727
415.775
-421.105
5.32956
247.212
-568.106
529.729
38.3768
103.151
116.925
-220.076
195.903
-218.039
378.936
-708.787
329.851
110.541
758.335
168.563
239.704
-68.6809
-492.362
465.119
292.964
-307.538
14.5747
416.569
-37.375
354.014
-384.467
-22.8297
-367.619
390.449
-38.8858
-271.067
320.187
13.3913
-333.578
-424.156
268.122
-388.8
40.8021
631.101
-749.534
-410.103
532.34
-313.476
-91.6663
976.65
-866.109
-492.733
-312.308
805.041
294.229
39.5093
290.243
-329.752
-454.661
141.34
-271.115
-51.8344
451.191
-563.957
112.766
47.4264
613.662
-186.225
74.4217
325.603
-287.389
708.747
-329.811
268.957
-179.431
24.095
364.88
-388.975
-28.6567
-297.067
-4.69363
-257.23
251.677
5.55213
0.865174
553.946
-530.659
38.81
-891.59
113.356
798.793
-1.98574
329.938
-116.892
525.489
328.707
-854.195
598.399
239.949
670.517
-765.591
-747.261
104.334
642.927
277.691
62.8408
-340.532
187.903
-180.809
-7.09414
25.6093
274.504
572.909
-196.608
35.509
161.099
-156.898
-606.902
763.8
-340.137
360.42
-20.2839
-252.945
292.805
-39.8602
-148.628
-175.275
-255.699
212.859
42.8403
920.093
-920.093
-87.3657
727.057
-639.692
294.466
-212.072
345.201
-68.1433
-657.764
190.556
28.0689
-218.625
43.4579
-586.081
542.623
36.4531
-238.175
201.722
908.25
-913.961
5.71133
300.956
-674.492
373.536
345.411
-301.091
51.9292
310.517
-350.747
876.235
557.1
-105.909
-72.9779
-243.773
-400.328
323.611
76.7172
219.589
-345.835
333.383
-500.108
166.725
-247.375
48.7032
-873.295
-73.5992
33.3163
-727.386
318.106
-181.34
796.383
-773.239
-23.1442
431.019
50.2847
-481.304
-685.6
610.677
74.9228
-246.283
209.208
37.0752
321.049
-28.0857
-426.128
-254.874
877.019
-833.362
-43.6565
-357.723
658.679
130.165
-534.968
-864.681
11.0805
-56.3228
-599.967
656.29
42.8156
-137.231
-134.882
-917.831
410.613
507.218
193.243
2.66137
450.255
-34.4798
543.447
275.262
-265.337
-9.92565
-334.818
-6.10581
340.924
-550.174
441.798
-3.31524
-201.573
204.888
232.302
-41.7461
-94.1449
355.716
-261.571
-356.018
6.53584
435.046
-10.1379
61.1498
-809.459
748.309
-664.296
664.296
51.9238
188.294
-88.8497
-505.39
594.24
-854.476
938.106
-83.6298
741.122
55.2616
-14.143
-834.529
848.672
324.455
-341.865
17.4101
325.299
14.6686
-339.967
584.202
-636.928
52.7253
45.7833
310.185
-355.968
-213.874
-117.89
331.765
197.093
-9.19013
106.245
-710.413
604.167
-760.01
267.277
351.242
-311.733
793.737
59.7748
-77.399
-433.521
342.773
-390.268
-681.092
101.313
579.778
316.299
-280.393
-35.9057
-531.412
614.541
-83.1292
-81.972
-362.967
444.939
409.147
-382.42
-594.321
-323.51
601.578
-724.89
123.312
-407.094
-429.573
837.857
-39.749
-645.851
123.606
457.44
-581.046
563.565
-644.803
81.2384
37.2599
-239.321
11.1092
-692.999
-321.689
321.444
5.70508
570.562
-692.725
122.163
-344.507
-430.614
-3.22609
-684.684
698.162
-13.4774
763.073
-164.674
645.622
-102.946
-542.676
214.462
293.023
290.644
-297.787
7.14225
807.723
-935.881
128.158
-650.228
-97.0332
-291.644
22.3744
-326.573
83.3649
243.208
-56.5137
640.716
86.3728
-252.226
165.853
357.958
-335.9
-22.0585
-340.016
-249.934
-13.8419
203.2
-26.5631
-174.443
229.901
136.781
-366.683
-271.94
319.828
-47.8874
588.262
-677.112
24.1434
288.604
-265.653
-60.92
-290.862
-294.914
-711.337
540.694
170.643
-111.217
-153.052
-163.412
66.6859
-578.508
536.42
42.0884
576.955
-1098.08
-25.0268
-1014.65
-140.775
366.711
49.9772
-22.7829
-51.3964
-758.4
126.838
851.274
-844.723
617.397
-76.7027
1.86054
589.243
-591.103
-281.955
-165.655
447.61
-42.0994
-204.183
6.47211
198.297
-211.053
12.7567
-994.434
232.733
448.49
-115.106
19.6844
-627.988
608.303
298.339
-364.951
26.3469
338.604
60.141
573.441
-633.582
-103.319
771.223
-667.904
-669.444
-195.525
-726.809
38.5506
688.259
-34.2653
568.852
-534.587
922.993
-914.589
-8.40381
562.28
-618.602
-611.188
-23.674
634.862
-396.172
124.232
274.441
-270.435
-4.00668
801.275
-772.586
-96.0756
730.891
-634.815
459.826
11.1342
-434.044
-669.897
604.14
65.7572
399.093
-92.2269
-564.026
-53.1264
-11.3298
-399.654
-25.1162
211.731
-186.614
23.8223
327.42
-360.671
364.532
-3.8611
745.746
-792.179
123.462
136.716
214.466
-226.401
11.9354
684.149
-775.292
91.1428
-321.382
-678.315
-14.0696
794.863
74.2425
291.081
120.462
811.231
-16.368
-32.6911
-1029.85
174.161
3.9419
19.3438
-567.177
158.413
-134.273
-1082.52
-242.383
239.068
70.5222
223.944
-107.713
-467.129
574.842
-2.49299
-477.517
480.01
838.928
-31.2047
570.084
75.5377
-40.081
-204.686
244.767
741.591
-785.533
-150.529
380.431
-403.461
444.034
-40.5721
-679.268
723.212
-43.9444
284.068
-359.466
16.8508
393.925
-144.415
-249.509
175.158
-511.642
466.153
45.4892
4.90206
-461.575
461.1
0.475455
613.792
-596.039
33.2175
-161.365
592.385
-295.129
57.4994
441.01
41.494
607.322
-648.816
-81.315
-142.926
194.059
15.1487
31.3276
-391.963
27.0121
-413.121
9.65934
251.323
-253.414
2.09075
711.253
-682.6
-485.239
84.2234
401.015
-42.2892
626.473
-18.9847
-205.702
914.265
-141.776
-772.489
518.882
537.486
-1056.37
-290.385
-17.9246
291.124
4.17538
10.2657
274.533
-690.48
-2.67601
693.156
592.113
-749.011
-211.002
194.203
16.7992
-524.163
-25.5354
-643.824
4.91251
135.9
-137.448
-428.277
-106.77
193.143
16.4707
-634.302
617.832
-38.8709
-497.768
536.639
-258.299
304.082
-69.3157
626.127
-727.901
753.558
-25.6565
217.721
-482.442
245.413
-259.5
14.0874
10.465
-838.237
27.8997
241.058
-454.933
909.394
-919.298
9.90425
636.694
13.8671
-650.561
-53.9187
-538.811
-807.251
840.449
118.725
-206.629
897.673
-78.2677
241.871
-15.561
-60.3806
-715.985
776.366
-87.6359
-597.048
-19.6389
548.478
-671.273
21.0455
208.432
-232.78
24.3482
-237.46
2.60701
234.853
-558.771
533.516
25.2546
-212.391
86.5795
61.7572
87.3049
-149.062
-880.251
314.652
20.3119
-334.964
54.9711
637.884
-692.855
-341.272
366.638
-25.3665
-649.777
-21.4967
-666.364
767.2
-896.617
127.517
769.101
-146.362
-168.938
-445.53
64.0669
-457.03
-615.445
265.756
-3.66276
-290.71
291.207
-0.497826
175.486
-72.3347
-422.938
393.873
29.0646
-954.881
972.034
-285.41
98.1311
187.279
135.113
23.3003
522.477
856.481
-876.717
276.883
-38.1799
367.124
-510.807
-789.335
811.295
-21.9606
-347.021
-184.601
531.622
133.036
-175.08
42.0442
426.549
-524.434
745.558
-681.899
-63.6582
-260.188
-30.1965
330.704
-79.3004
316.271
-292.127
332.128
-652.042
-17.8551
5.51951
633.456
-370.941
144.66
20.6527
-891.505
547.827
-390.397
608.144
368.506
423.717
8.8338
744.639
-805.02
-40.231
-16.5387
827.283
70.3896
421.136
-499.856
78.7196
235.418
-196.061
-39.3571
-185.7
208.101
-22.4016
-11.3091
343.187
-331.878
-617.403
658.897
437.256
249.463
-219.13
-30.3324
365.37
510.374
313.118
-334.663
708.518
104.072
77.3684
-600.732
523.363
639.813
-35.6728
39.2922
-930.411
113.92
816.491
215.924
-256.845
-251.989
-793.299
732.263
61.0364
5.25926
814.269
-819.528
928.485
-928.485
-378.239
17.5676
602.825
36.9879
-109.15
-23.2275
-191.477
214.705
437.601
27.8447
-465.446
-435.47
21.5681
413.902
186.633
972.168
-453.287
-230.282
40.2317
190.051
-627.163
630.823
-3.6606
427.96
-470.175
42.2144
-430.804
-4.66593
46.7601
-764.776
718.016
-636.742
-61.5953
-549.553
518.502
31.0506
-373.293
286.219
23.611
-237.898
214.287
-157.686
-127.725
-29.0422
223.407
-29.3476
47.2427
295.024
-278.81
-71.7173
791.608
367.157
-52.5053
-769.269
32.8249
-890.027
814.427
75.5997
121.535
282.868
377.959
161.314
-754.451
858.709
330.47
187.91
-518.381
-165.032
594.451
-644.04
49.5887
481.247
55.0805
-536.327
637.256
-342.924
-294.332
-478.134
-116.112
-781.341
678.022
27.5821
-685.328
657.746
-711.323
108.512
602.811
-764.319
22.4017
32.3103
508.604
-87.4684
-518.199
354.195
553.591
-587.856
-35.4177
-67.5848
231.704
-164.119
48.0027
-684.925
-234.207
-235.373
167.788
-30.3756
266.586
-107.347
-159.239
159.816
-8.24122
-635.319
720.781
-30.2435
196.23
-165.986
869.868
-629.26
11.8706
135.95
189.652
1.00708
397.575
-398.582
-222.688
-196.924
419.612
180.935
763.531
379.705
-355.61
-842.458
7.55936
626.407
-609.865
-0.615612
-810.981
811.597
589.55
16.0837
-605.633
844.912
45.911
-890.823
311.086
-11.2988
124.96
-406.915
426.006
9.0396
-255.348
335.138
-79.79
194.607
381.64
-90.5596
611.306
-55.4037
-555.903
-756.049
781.662
-25.6125
12.8555
647.558
-660.414
-645.658
114.246
-6.9583
-442.437
604.733
34.5148
323.444
-30.7188
190.034
-90.916
-336.721
1.90254
95.9633
742.965
3.80905
-277.958
274.149
-423.023
-506.71
-57.4467
-757.753
815.2
263.421
-49.4349
191.08
-262.207
71.127
196.699
-94.9826
-222.717
-516.877
-581.323
-791.976
-18.4047
-167.927
-815.757
776.445
39.312
-34.4958
469.79
-435.294
59.7818
821.338
-881.12
198.496
-136.739
774.693
26.2756
-221.328
198.1
20.483
-307.181
286.698
575.725
-573.864
-646.254
133.018
513.236
-560.461
588.266
-27.8047
32.1258
258.519
-665.206
-441.825
608.541
45.8167
-654.358
-721.934
606.758
-679.213
72.4549
-152.513
-44.0952
450.071
-484.335
-846.474
851.733
105.804
-307.771
-588.846
-642.429
593.282
49.1467
182.561
-77.2524
-43.7234
458.804
178.452
-570.19
57.0375
514.246
-527.256
13.0101
73.1484
-717.668
644.519
267.829
-16.5055
-313.777
166.559
147.218
-569.175
590.022
-131.593
473
-341.407
681.423
-86.9721
1.12288
-318.224
317.101
-446.885
-442.77
889.655
-143.927
246.368
-102.441
-101.572
-579.519
-570.83
418.237
152.593
402.583