/*--------------------------------*- C++ -*----------------------------------*\
  =========                 |
  \\      /  F ield         | OpenFOAM: The Open Source CFD Toolbox
   \\    /   O peration     | Website:  https://openfoam.org
    \\  /    A nd           | Version:  7
     \\/     M anipulation  |
\*---------------------------------------------------------------------------*/
FoamFile
{
    version     2.0;
    format      ascii;
    class       volScalarField;
    location    "20.5";
    object      p;
}
// * * * * * * * * * * * * * * * * * * * * * * * * * * * * * * * * * * * * * //

dimensions      [0 2 -2 0 0 0 0];

internalField   nonuniform List<scalar> 
7807
(
1.84462
1.51275
2.00062
1.8586
0.886434
0.278551
2.03325
1.13047
0.572259
1.602
0.234191
0.999623
1.19057
1.45337
1.61098
1.29558
1.85023
1.24449
1.22684
1.45949
1.55473
0.926938
1.40042
1.79239
1.27286
1.85303
0.874615
1.49633
1.73173
1.24573
1.31835
2.08223
1.40124
0.761201
0.465573
1.55561
1.26012
2.02122
1.20035
0.654177
1.20217
1.28913
1.46334
1.54554
0.581608
0.365448
0.918117
1.19048
0.365022
1.46042
1.05568
1.48412
1.30308
1.40565
1.55531
1.1206
1.21677
1.1288
1.35958
0.759168
0.295516
1.09672
1.45285
1.0089
0.777313
1.31945
0.562646
0.048328
1.68617
1.18111
0.351829
1.43112
1.25755
1.35713
1.22689
1.39937
1.99114
1.54726
1.61669
1.43142
1.1785
2.08037
1.62295
1.35477
1.0222
0.987824
1.14406
1.29085
0.89098
1.04623
1.7397
1.55183
0.494026
1.18919
1.07399
1.31116
1.43087
1.40839
1.02203
0.851887
1.40447
1.62752
1.06297
0.192439
1.563
1.7535
2.29893
1.12633
0.0139089
1.4566
1.84091
1.46857
0.022505
1.46843
1.75274
0.780753
1.49289
1.6901
1.41222
1.37192
1.41823
2.06528
1.46755
1.2898
1.39674
0.929663
1.29188
1.21288
0.819517
1.31125
1.51795
1.61165
0.805598
0.901865
1.37003
1.83288
2.34893
0.186576
1.20191
1.51376
1.35518
1.43653
1.40138
1.35566
2.29936
1.43649
1.73504
1.36225
1.36173
2.05812
1.5441
1.55596
0.996749
1.66822
1.61928
1.98376
1.41127
1.18637
2.12445
0.343776
1.19516
1.80597
0.215064
1.12421
1.09385
1.90026
1.90243
2.1106
1.12238
1.06273
0.0572466
1.3621
0.767934
1.52025
1.21534
1.34133
1.57973
1.73713
0.500588
0.801027
1.86261
0.306995
0.446263
2.02387
1.5127
1.45328
1.40934
1.34813
1.43313
1.52949
0.215801
1.42592
1.74448
1.06567
0.376622
1.78475
0.897
1.30395
1.42565
0.0572361
0.974113
1.84305
1.77308
2.00568
1.4932
1.47149
1.47967
1.51408
1.83965
0.572999
0.276005
2.18093
1.2811
0.801259
1.42437
1.29861
1.95033
1.9645
1.43628
2.0968
0.879491
1.24994
1.41562
1.57725
1.46611
1.81461
2.14315
0.473129
1.28675
1.70621
1.16621
1.68633
0.897545
2.09056
1.98533
1.13994
1.22194
0.646293
1.74197
0.442918
1.24684
1.43035
0.376894
1.04115
0.88804
1.73992
0.237539
1.0634
1.42879
2.0534
1.6003
2.13634
0.276983
1.42332
0.667834
1.99968
1.08778
2.32125
1.23935
0.982248
1.46973
1.52167
0.770979
0.587824
0.775952
1.17464
1.46076
0.261224
1.40772
1.07548
0.506583
0.82033
2.17153
1.16647
0.786442
2.23581
1.03871
1.84244
0.663976
1.36821
0.0782284
1.394
1.56723
1.58997
1.36211
0.792808
1.45349
1.31606
0.555379
0.763655
1.0849
1.17739
1.03699
0.989228
1.35538
1.46589
1.34497
1.55452
1.39152
1.94668
1.95777
0.941434
1.56914
0.0669956
1.1129
1.32128
1.78234
1.64675
0.441385
1.10214
1.37449
1.74684
0.925571
1.06591
0.92448
1.63861
1.50345
1.91085
0.959196
1.5269
0.488007
1.22018
0.346144
1.34816
0.667453
1.38824
1.55004
1.38894
1.37073
1.26735
0.742535
1.4655
1.32154
1.63933
1.74231
1.467
1.53685
1.32345
1.1667
1.43654
2.10207
1.53581
1.48572
2.13862
0.972822
0.971467
1.54485
0.994744
1.43269
1.16452
1.0384
0.977852
1.72471
0.529712
0.758694
0.399895
1.05154
1.23911
0.105852
0.867096
1.35388
2.09513
1.38364
1.27419
2.15398
1.97488
1.61198
1.57818
1.37676
1.17416
1.88163
1.21415
1.88427
1.43673
1.47128
1.77538
1.88262
1.40176
1.63517
1.81236
1.85511
1.51382
1.05869
1.10973
0.442816
1.42351
1.23383
1.0092
0.49137
0.950401
1.45325
1.6709
1.3093
1.26408
1.09338
1.52079
1.18897
1.1976
1.78765
0.935393
0.324651
0.556903
0.4681
1.33586
1.71575
1.14315
1.45654
1.46194
2.02703
1.21342
1.21244
1.13747
2.15442
0.853383
1.9047
1.74184
0.466815
1.4353
1.04732
1.43952
0.751316
1.61871
1.33301
1.19924
0.859941
1.72433
1.75002
1.4515
1.35882
1.09467
1.41158
1.66283
2.1392
1.50562
1.23504
0.0245041
1.27234
1.00206
1.4554
1.46129
1.55654
2.07455
1.73055
1.48867
1.79517
2.18291
1.41439
1.01119
1.88062
0.985819
0.605949
1.22556
0.423917
1.4737
1.32982
1.39249
1.00104
1.7903
0.99674
0.298438
1.4674
0.98058
1.60296
1.41231
1.40249
1.61109
1.70762
1.64803
1.65483
0.622531
1.66414
1.65025
0.81694
1.3014
0.765572
1.38213
1.39689
1.11562
0.919324
1.73416
0.234694
0.584801
0.980512
1.33574
1.41757
1.37834
1.38474
1.45723
1.4675
1.46488
1.86619
1.56032
1.16907
2.09589
1.43319
1.2475
1.37289
1.31747
1.31039
1.23613
1.48093
1.53408
0.31997
1.45356
0.423858
1.96738
1.69633
1.12099
1.21439
0.551931
2.09794
1.91162
1.64602
1.74847
1.43578
2.51547
0.509378
1.52599
1.27059
1.74305
2.15238
1.65012
1.71768
1.26299
0.584168
1.73399
1.53213
2.11083
1.60059
1.82162
1.1795
2.0506
1.89815
1.21639
1.18977
1.71093
1.41945
0.54172
1.266
1.42632
1.45149
1.25927
1.26316
0.589869
1.90955
1.25065
0.467773
1.46256
0.775611
0.601749
1.28367
1.81219
1.46631
2.16098
0.357821
1.80728
1.44722
0.570131
0.170135
1.72734
1.80372
1.10401
1.77885
0.248438
1.7934
1.46899
1.22852
2.26862
1.42004
1.73963
1.35664
1.79002
1.79925
1.30234
1.3357
1.23757
1.05424
0.622657
1.24299
1.86949
0.294028
1.78244
1.47164
1.99001
1.76813
1.43076
2.1165
0.963978
1.41785
1.49122
1.36587
1.16847
1.44417
1.55547
2.11569
0.305531
0.987523
1.46656
0.0750532
1.96418
0.973552
0.0865947
0.57133
0.680275
1.34231
1.44459
0.946031
0.389148
1.1743
1.28521
1.46048
1.46648
1.41057
0.185699
1.4628
1.26441
1.71493
2.01933
1.07146
1.71773
0.542006
1.25237
1.57705
1.17271
1.82808
1.26581
1.53291
1.58652
1.72826
1.32563
1.22895
1.76783
1.45215
1.9976
1.2179
1.84969
1.2143
0.883948
1.70524
1.41931
1.60228
0.963846
0.0729089
1.46222
1.78303
1.07
1.70861
1.25757
1.46154
1.5059
1.38397
0.960323
1.18324
1.44786
1.36287
1.22113
0.712797
2.01062
1.71065
1.46312
0.59965
1.90055
0.204257
0.582379
1.71883
1.38993
1.75949
1.49621
1.39427
1.52112
1.46554
1.60697
0.915663
1.4016
0.350793
1.26959
1.81755
1.2959
1.04052
1.43732
0.984847
0.870904
2.17726
1.22676
0.826424
0.055467
1.67424
1.38496
0.765342
1.03239
1.72134
1.64081
1.39938
0.139437
1.74927
1.32812
1.77874
1.31136
1.34723
1.37166
0.455011
1.57914
1.63321
1.63329
1.47633
1.87234
1.14706
1.76298
1.28852
1.45686
0.696136
1.33556
0.700919
1.73473
1.82784
0.954341
1.40966
1.31422
1.48192
1.47649
0.970748
1.51719
2.12022
1.61365
0.537116
1.63404
1.21682
3.18849
1.25364
1.36351
1.43825
1.36656
1.33791
1.18399
1.2854
1.1676
1.54913
0.448679
1.48585
1.58027
1.9361
1.39527
1.76506
0.964187
1.50259
1.41366
1.80214
1.18268
0.569261
1.32975
1.23084
1.5139
1.34525
1.34278
1.55935
1.27612
1.43333
1.45256
0.0889992
1.56987
1.44933
1.74162
1.51346
1.59796
1.47073
1.89359
1.48412
1.38104
1.44401
2.31571
1.49533
1.25918
1.46621
1.47031
1.47099
1.48159
1.75721
1.04408
1.87002
1.20649
0.775471
1.00998
1.61194
2.06554
1.17502
1.45394
1.73607
0.193724
1.33047
1.44157
1.53843
1.20588
1.01059
1.40389
1.20898
0.229761
1.41808
1.8428
1.43874
1.29329
0.944546
1.7366
0.799731
0.902092
0.684837
0.991469
1.64526
1.46612
1.35202
1.30759
0.372949
1.475
1.54463
1.46739
1.39164
1.34808
0.589531
1.28756
1.43014
1.62588
2.00218
1.06015
1.4283
1.12507
1.47988
1.7342
0.697217
0.618795
1.71965
1.60886
1.40173
1.05532
0.975929
1.42633
0.689746
1.43371
1.23718
1.94013
1.84013
1.50288
1.45125
1.17401
1.40631
1.59143
1.45449
1.44828
0.0678767
1.57989
1.35335
1.45959
1.43377
1.41181
0.727063
1.04785
1.77074
1.37043
0.0411633
1.03798
1.5034
0.535818
1.45825
0.49692
1.31176
1.45872
1.49787
0.491686
0.238297
1.63484
1.45916
2.12458
1.84055
1.56862
0.982523
1.4251
0.575122
1.51048
1.47688
1.59591
1.29159
1.8307
1.40612
0.749303
1.40048
1.47694
0.945679
1.46685
1.42783
1.4016
1.37194
1.51509
1.42326
1.34558
1.49906
1.74934
1.47475
0.0113038
1.47569
1.42692
1.48128
1.34546
0.789281
1.43932
1.46509
1.43811
1.41917
1.71074
1.48687
1.35083
1.36496
1.48574
1.45776
1.49853
0.682408
1.67091
1.77992
1.13089
1.78763
1.4702
1.47857
1.46241
1.76652
1.5969
2.1149
0.0763803
1.6415
1.73784
1.24138
0.892734
1.25638
1.56953
0.386134
1.27056
1.44557
1.26644
1.30046
0.483241
1.5227
0.771233
0.790141
1.83113
1.30431
1.66972
1.3867
1.77534
1.3882
0.860904
1.49227
1.33105
2.04852
0.832278
1.44303
0.765921
0.715702
1.36989
1.4911
0.345077
1.15121
1.44425
0.864228
0.268382
0.504464
1.67848
1.53155
1.25958
0.808932
1.289
1.25844
1.31078
0.760021
1.90855
1.50171
1.79772
1.8704
0.532344
1.65973
1.66468
0.787881
0.685496
0.894182
1.55819
1.47083
1.42118
1.40941
1.44934
1.71909
1.48154
0.0959008
1.28277
1.32559
1.3642
1.06186
1.24487
0.824731
1.39509
0.690008
0.783077
1.27998
1.06249
1.31837
0.108461
1.24426
1.43294
1.53127
1.50972
1.15785
1.20464
1.15964
1.08426
1.4548
1.16159
0.449531
0.788466
1.41194
1.20837
1.07995
1.26561
1.32814
1.45974
1.20242
1.68602
1.21397
1.41671
1.36777
1.30589
1.24614
1.03634
1.10409
1.02969
1.23361
1.24879
1.76214
1.7105
1.5579
2.00119
0.333457
1.16111
1.25034
1.15671
1.66423
1.28567
1.57394
1.18037
1.78315
0.958858
0.954444
1.49964
1.42109
0.63361
1.38926
1.09647
1.2938
0.196672
1.10908
0.94365
1.26939
1.52175
1.38256
1.27606
1.23256
1.35031
1.60813
0.949982
0.925567
0.929758
2.13107
0.670465
1.59746
1.30267
1.2905
1.33239
1.41126
1.34714
1.36136
1.28764
1.07705
0.429705
1.05474
1.34378
1.58872
0.868623
1.73406
1.35451
1.23037
0.791451
1.33897
0.422516
1.6718
1.34487
1.3248
1.31332
1.1972
1.36765
0.887817
1.37809
1.5823
1.32243
1.45827
0.86103
1.32531
1.27777
1.24095
1.02469
1.65907
0.960546
1.2894
0.828144
1.69198
1.3768
1.33023
1.02211
1.18679
1.00372
1.7623
1.54453
1.78001
1.17504
0.874545
0.835873
0.98168
1.75651
1.42348
1.14044
0.595176
1.33166
1.44483
0.946389
1.40954
1.2527
1.46742
1.076
1.36407
2.58644
1.42276
1.3121
1.41753
0.234203
1.52328
1.02666
1.33622
1.10854
1.36257
1.23785
0.753583
0.998729
0.984116
1.76097
1.08208
0.921022
1.07317
1.42266
1.15302
1.28765
1.19738
1.1518
1.11056
1.02124
1.76912
1.39268
1.01158
1.03538
1.32422
1.23243
1.39927
0.944837
1.57301
1.36417
1.15235
0.94965
1.23906
2.08583
1.76332
1.20037
0.709717
0.977716
1.44854
1.05904
1.3396
0.747927
1.39824
0.920707
1.24495
1.53884
0.940742
1.32949
0.857625
1.94118
1.15338
1.19983
1.54738
1.01262
1.32076
1.65886
2.07034
1.19867
1.21203
0.910125
0.821771
0.197814
0.0448243
1.18826
0.780104
1.68671
0.864498
0.916364
1.24191
0.576499
1.39136
1.45338
1.25863
1.39893
1.32908
1.64129
1.47704
1.56613
1.50081
1.56552
1.62152
1.2158
0.824914
1.21359
1.45777
1.02334
1.24093
1.6226
1.89587
1.44926
0.689715
0.471732
0.850193
0.133574
1.36352
0.815617
1.19275
1.40019
0.672186
1.00582
0.569788
1.60003
1.23972
1.50954
0.97081
1.9761
1.84422
1.1967
1.47799
1.33613
1.32443
1.24073
0.939979
1.459
1.44537
1.393
1.53887
0.563962
1.75912
1.45534
1.16097
1.44756
1.32274
0.732909
1.1669
0.851742
1.40027
1.03147
1.74027
0.595574
1.17005
0.649455
1.50983
1.17726
0.967264
1.49313
0.738995
1.60722
1.66556
1.33468
0.878408
0.461973
0.748644
0.710237
1.42285
1.62718
1.59308
0.569008
1.344
0.742425
1.80854
1.42158
1.82842
1.3858
0.668303
0.742396
1.15079
1.08935
0.848582
0.129494
1.38734
1.38748
0.558255
0.794049
1.28046
0.149398
1.70739
0.852017
1.4043
1.27933
1.10469
1.41076
1.42625
1.67661
1.46448
1.27845
0.606723
1.40815
1.28534
1.5811
1.68639
1.96395
0.8252
1.41669
1.41771
1.88718
1.43425
0.435122
1.11927
1.04437
1.08743
1.39963
1.61923
0.68534
1.48144
1.17445
1.61978
0.705214
0.627184
1.50817
1.85844
1.41196
1.71219
1.03639
0.551429
0.017441
1.47718
1.37575
0.736774
1.66117
1.1871
1.0936
2.16512
0.844314
1.07118
1.42039
1.47267
0.943264
1.64612
1.47469
0.477107
1.43414
0.65797
0.45644
1.68987
1.45183
0.661481
1.41403
1.31483
1.00528
1.48014
0.946853
1.30744
0.981362
1.03625
1.42826
1.37109
1.49613
0.868305
1.70697
1.77539
1.48303
1.32379
1.31395
1.07004
1.70434
1.65669
1.32146
0.520194
1.30339
1.37823
1.44964
1.34425
0.972559
1.55111
1.33432
0.441499
0.450585
1.4862
1.37387
1.31146
1.2808
1.56975
1.39232
0.621844
0.965151
0.65345
1.40044
0.183062
0.935598
1.46135
1.46885
1.69484
1.01625
1.02209
1.31053
1.31564
0.48841
1.39965
1.69394
1.68804
0.155817
0.409861
1.69351
0.994745
1.46654
1.36214
0.983584
0.880397
1.42114
1.51672
1.70081
1.38876
0.873615
1.34763
1.41774
0.769167
0.552733
0.841259
1.5408
1.40088
1.71761
0.545572
2.28023
1.56826
0.56329
0.961457
0.69284
0.711735
0.186558
0.535142
1.45173
0.843207
0.634321
0.521067
1.65746
1.09515
0.527047
0.444731
1.92191
1.30126
1.53015
0.955822
0.79486
1.57148
0.482701
1.35052
1.48517
0.908113
1.23476
0.40304
0.575701
1.3513
1.46913
1.11214
1.48497
1.49817
0.190745
1.29372
1.3651
1.59412
0.897305
0.494219
1.41461
1.10548
0.838064
1.40492
0.48179
1.5335
0.651955
0.829791
1.59582
1.10131
1.41596
2.12483
0.973981
0.555543
1.42161
1.44546
1.25714
1.03973
0.460768
1.34563
0.443669
1.75652
2.22919
1.64883
0.964396
1.03102
0.201649
1.34163
0.43769
1.32219
0.930534
0.719883
1.01185
1.26719
0.428137
0.809765
1.30776
0.611889
1.25246
1.26465
1.4498
1.00687
2.20323
0.936593
0.926629
0.548488
1.22256
1.40511
1.19243
0.538971
0.395479
1.09477
0.475776
0.411659
1.28319
0.712372
0.176788
1.40549
1.11442
1.44669
0.911621
0.318118
0.993978
1.42558
1.28638
1.40218
0.924044
0.746639
0.72094
0.8747
0.470024
1.87788
0.849508
0.169743
0.868768
0.977314
0.811131
1.41447
1.39263
0.645591
1.13613
0.182222
1.15303
0.341923
1.38214
0.507608
0.676787
1.17262
0.309586
1.22466
0.593647
0.849388
1.27643
0.196518
2.00707
1.40949
1.38224
0.262478
0.158802
0.999514
0.829287
1.41251
0.147037
0.105461
0.802653
0.00113174
0.614968
0.634525
0.699664
0.733145
1.42294
2.06415
1.40854
1.93609
1.15027
1.3205
0.175613
0.775968
1.22491
0.52002
0.556419
0.472688
1.62897
1.05117
0.730894
3.45659
0.693169
0.839128
0.654142
0.0406946
1.63859
0.99048
0.798582
0.499871
0.957662
0.311325
1.02751
1.38884
0.657147
1.09246
-0.0511077
1.23172
0.578934
1.74987
0.678552
0.833802
1.44753
1.00164
0.614791
0.869068
0.291513
1.72046
1.44107
0.883902
0.6362
1.13227
0.754433
1.52847
1.65825
1.5881
0.85132
0.0531755
0.00936828
1.57617
0.536569
1.40805
1.41793
1.27926
1.59162
2.22009
0.888836
1.77051
1.2745
1.34319
1.72596
0.611383
1.43173
0.13784
1.18107
1.39918
0.276269
1.4265
0.790654
1.45719
1.22764
1.37111
1.38458
1.18976
1.42474
1.3988
0.467015
1.19012
0.524474
1.38122
0.176897
0.484491
1.50895
1.70937
0.00884869
1.39262
1.04222
0.381114
1.33866
0.130742
1.2294
0.707585
1.38387
0.417595
0.417088
1.05633
0.639887
1.70185
1.34743
1.64316
0.431686
0.692886
1.33299
0.0235848
1.41559
1.44018
1.40728
2.24795
1.13424
0.141057
1.37162
1.3634
1.14083
0.55115
0.390252
1.39186
0.484963
0.752958
0.0215363
0.554877
1.33728
1.70647
1.48406
1.63425
1.1023
0.00393931
1.26959
1.43068
0.173695
0.131221
0.575994
0.297567
0.615505
1.80449
1.41889
0.276044
0.160283
1.44292
1.77607
1.74073
0.230583
1.36719
1.33357
1.27713
1.38978
1.26147
1.00034
1.66711
0.404869
1.32774
1.72118
1.39933
0.398093
1.4073
0.514093
1.85691
1.43246
0.458671
0.282976
1.75643
0.0441167
0.563854
1.1905
0.268172
1.83503
1.19061
1.1175
1.45769
1.05147
1.45371
1.74726
1.41345
1.5236
0.771708
0.247779
0.924313
0.364221
0.274889
1.5031
1.74094
1.68423
0.725904
1.85309
1.35328
0.153181
1.37421
0.378055
1.33688
1.42943
1.30676
1.12507
0.89471
1.21547
0.722957
0.935058
1.39035
1.00887
0.464505
0.198242
0.306009
1.37183
0.353045
1.36398
1.87869
1.14724
0.257464
1.01527
0.302576
1.66184
0.609668
0.331327
0.342345
0.165709
1.79321
0.60383
1.82287
1.43303
0.465126
1.41076
0.910728
1.69711
2.52614
0.84822
0.0222791
0.254042
0.22196
1.70506
0.0110858
0.871451
1.28712
1.80961
0.115144
0.218348
0.0228006
0.175923
1.29376
0.0219171
1.83625
1.31217
0.413737
0.178469
0.9197
1.36138
0.0111576
0.28018
1.71414
0.206732
1.35326
1.47396
0.447968
0.010229
1.46303
0.0112655
1.72519
0.0993231
0.704712
0.146038
0.442263
1.56899
0.0869983
0.916277
0.189679
1.38205
1.06384
1.10059
1.20715
1.69153
0.817057
0.424102
1.16028
1.15441
0.543735
0.583242
0.854628
0.310727
1.75754
1.26301
2.0855
0.111051
1.14184
0.736777
1.6902
0.339539
1.34043
0.162202
0.897654
1.35764
0.536062
1.25623
1.40282
1.1884
0.34379
1.44228
0.563882
0.867191
1.08924
1.40196
0.945842
0.621275
0.683414
1.01255
0.854784
0.232671
0.834922
2.56579
0.39343
1.00431
1.36262
1.44672
1.42103
1.3951
1.30437
0.942258
1.39051
0.367624
0.397477
2.17546
0.373405
1.75465
0.636227
0.707735
0.817114
1.4854
0.662143
1.16816
0.254302
0.640657
0.438653
0.370126
1.24693
0.502253
0.531514
0.362101
0.697065
0.281764
1.39159
1.8104
0.122968
0.695056
0.701887
0.212021
0.768896
0.123043
0.779655
0.68076
0.618832
1.4212
0.748481
0.968232
0.0923783
1.07878
0.605495
0.1111
0.151031
0.11129
0.750969
0.734687
1.39445
1.35318
1.42389
1.06442
1.11924
1.53927
1.42674
0.334583
1.36912
1.21101
0.771858
1.21576
1.41218
2.05325
0.634441
0.15959
0.92105
0.318292
0.146516
1.51751
1.1661
1.54894
1.41146
2.11381
0.674019
0.0647872
0.49214
0.227718
0.830861
1.717
1.8079
0.185288
0.545795
0.315904
1.78789
1.46612
1.31611
0.0943779
0.139601
1.14163
0.721633
1.44089
1.26817
0.330792
1.06561
1.36852
0.313124
0.971115
0.477276
1.39615
0.871417
1.70005
0.132218
0.885698
1.17495
0.153595
0.526932
1.31191
0.139008
0.78793
0.261089
1.24968
1.39301
1.17745
1.30239
1.14322
1.16827
1.17111
0.958647
0.347114
0.494143
0.225458
0.189466
0.28668
1.23323
1.42872
0.677585
1.4369
0.96954
1.43229
0.374739
0.309503
0.856965
1.53093
0.175011
1.43015
1.27807
1.61499
1.44339
0.218702
1.00359
0.561554
1.4863
1.65036
0.302926
1.42341
1.33686
1.04412
0.324451
0.129791
1.49879
1.23785
0.296279
1.112
0.404972
0.595655
1.64563
0.102179
0.371146
0.59584
0.28961
0.797637
0.354685
1.06323
0.628814
1.22865
0.860269
0.636733
1.39521
1.38734
1.12366
0.118631
0.21118
1.45067
1.11538
1.39698
0.351197
1.09161
0.20345
0.246956
1.59178
1.08381
0.979076
0.330148
1.30076
0.304226
1.42733
0.282337
1.45012
0.398506
0.0872743
0.361134
0.805124
1.49447
1.26586
1.44104
0.289143
0.457981
1.44405
1.40773
1.14117
0.143205
1.49737
1.41525
1.46244
0.295865
0.157744
0.465751
1.48476
1.43861
0.815336
1.14746
0.418134
1.80139
0.369066
0.323542
0.478689
0.498704
0.17887
1.04005
0.529362
0.998978
1.43662
1.20167
1.38876
0.391969
0.261197
1.5529
1.4712
1.06945
1.62176
0.557838
0.213541
0.192917
1.69417
0.513132
0.646465
0.268279
1.44363
1.23639
0.391605
0.690134
1.18518
1.09613
0.764247
1.81173
1.43305
1.07308
2.05735
0.589877
0.920794
1.25124
1.51014
0.261282
0.425352
0.168207
1.11618
1.40312
0.719826
1.40604
1.12253
0.385002
0.0643395
1.15915
1.44626
1.53177
1.50888
1.38441
1.37402
1.55915
1.34348
0.338836
0.687943
1.50415
0.669182
0.760541
0.845965
0.49264
0.707076
1.17557
0.11074
0.371611
1.51685
1.50983
0.839882
0.67703
0.206254
1.8479
1.13862
0.875267
1.35013
0.516533
0.548351
0.486808
0.333712
0.715068
1.37801
1.4238
0.095454
0.789103
1.39509
1.38659
1.43477
0.654152
0.884673
1.28905
0.275199
0.41717
1.43036
0.182494
1.70458
0.485685
1.03985
0.474303
0.582197
1.4474
1.1635
1.27633
0.930695
0.204397
1.29122
1.48406
1.23615
0.514552
1.5731
1.699
0.124123
1.40533
0.411285
0.24081
0.25768
0.689545
1.29693
0.518563
0.615578
1.28484
1.32332
1.23026
1.94978
0.452507
0.358181
1.71335
1.42096
1.05555
0.70742
1.70914
0.479229
0.916458
0.583926
0.545089
0.240252
0.275479
0.31744
1.24509
0.337179
1.06872
1.38608
1.82427
0.889867
0.276189
1.06961
1.54855
1.43219
0.74437
1.41114
1.9379
0.282991
2.05494
0.121028
1.0759
1.34723
0.668283
2.1466
0.608852
0.115263
0.928453
0.254405
0.754754
0.589342
0.357661
0.907331
0.577237
0.53412
1.00634
1.83595
1.52003
1.32217
1.38312
0.0933973
0.337107
1.10182
1.43775
0.220222
1.40425
0.326909
1.59573
1.49005
1.37295
0.873675
1.26586
0.790035
1.22815
1.30758
1.22181
1.52335
0.0493672
1.8209
1.58687
0.988336
1.78779
1.23762
0.103667
0.418488
0.333071
0.481166
0.589546
1.84259
0.794672
1.85073
1.0562
1.70542
1.80241
1.69344
1.14894
0.247611
0.671675
1.11109
1.45964
1.41
0.865228
0.525329
1.37263
0.963509
0.665076
0.792837
0.797986
1.03298
1.39576
0.340367
1.36782
1.52277
0.311682
0.648366
1.29842
1.4366
0.742313
0.676957
0.432082
0.661175
1.67073
1.29163
1.41124
0.868252
1.67108
1.3835
0.458391
0.364831
1.54931
0.725162
1.65039
1.34641
1.22455
0.714721
0.95364
1.38217
0.695385
0.702208
1.46029
1.43699
1.72539
1.42994
1.33539
0.80615
0.252515
1.09362
0.378219
1.43786
1.43818
0.709796
1.1268
1.00352
1.46632
0.741952
0.654202
0.51235
1.38612
0.317001
0.697781
1.62993
1.73333
1.46145
1.4409
1.46475
1.53678
0.856677
1.36901
0.431127
0.0601059
0.777893
0.0497028
0.784059
0.628846
1.15501
1.4849
1.19506
1.37477
1.487
1.44239
1.07245
1.43605
0.666545
1.17278
1.26434
0.672033
1.57056
1.09747
1.2347
1.30948
1.05946
1.13243
1.06675
1.48952
0.834198
1.28898
1.27533
2.11077
1.33992
1.57727
1.56222
1.39849
0.978909
0.659599
0.937687
0.602926
0.941876
1.33408
0.384901
0.829107
1.85613
0.982881
1.38522
1.23307
0.778989
1.13736
0.288525
0.225974
1.48348
0.358556
0.995938
1.57785
1.19526
0.801151
1.34993
1.11726
1.02156
1.4695
0.86405
1.07402
1.41747
0.914985
1.16523
0.931157
1.24749
0.841482
1.48944
0.932274
1.12443
1.42248
1.30323
0.874382
1.41987
1.25138
1.24821
0.772691
1.12414
1.45062
0.769254
1.11922
1.42716
1.2671
0.845669
1.80382
1.36716
0.222505
1.15014
1.42022
0.808183
1.75997
1.15775
0.829712
1.46969
0.887521
1.21821
1.63695
0.912208
0.837319
0.589147
0.634157
1.06079
1.24501
0.906161
1.31626
1.61368
1.35726
1.45531
0.825388
1.00932
1.00348
1.47857
0.615431
1.40631
0.719796
1.25532
0.901543
1.07056
1.58035
1.66325
1.45788
0.353026
1.77429
1.07409
1.1949
1.41408
1.46075
1.2671
0.257774
1.07015
1.15012
0.99498
1.08487
0.908221
1.57939
1.41357
1.21024
1.09589
1.48778
1.30372
1.28617
0.895749
0.98477
0.992538
1.65542
0.904075
1.46302
0.812138
1.11799
1.21349
1.46136
1.22721
1.46397
0.365448
0.391884
1.3205
1.24051
1.09925
1.45733
1.61258
1.40769
0.622074
1.44879
0.879316
1.44522
1.326
1.44031
1.44293
1.45207
1.48808
1.56094
1.58983
1.6164
1.64315
1.6698
1.74464
1.76866
1.7911
1.82991
1.13586
1.1949
1.58897
1.38757
0.893285
1.45546
1.38418
0.981613
1.04741
0.048688
1.26595
1.29711
0.345007
0.978895
1.1366
1.41216
1.43623
1.37812
1.41991
0.749049
0.897513
0.239351
1.45584
1.21041
1.38083
1.3651
0.943193
0.901933
1.05904
0.222394
1.46019
0.731431
0.675146
1.33603
1.17007
1.05312
0.655296
1.43274
1.22591
1.57841
1.44062
1.3509
1.7208
1.2811
1.09245
1.31404
1.05235
1.19766
1.29264
2.01446
1.11103
0.571225
1.13671
1.22416
0.0542604
1.54236
1.15683
1.96016
1.53104
1.42815
1.33287
1.54062
1.23195
0.307332
0.0789419
1.08212
1.44666
0.551461
1.92346
1.01189
1.13483
0.953698
0.6509
1.24901
1.6953
1.52141
1.63638
0.729483
1.24268
0.0516837
1.36354
1.26565
1.28752
1.47769
1.10648
1.15583
1.04708
1.25619
0.0854541
1.28104
1.04996
0.693119
0.651393
1.49178
0.975132
1.67878
1.20064
1.11774
1.49112
1.59062
1.48307
1.29597
1.53838
1.24538
1.73009
1.52397
1.04794
1.40546
1.08924
0.281906
0.6823
0.426385
1.17027
1.09962
0.640829
1.31002
1.31355
1.0202
0.801046
1.03201
1.3947
1.68247
1.38704
1.41644
1.13106
1.59856
0.899483
1.61751
1.22336
1.06789
1.41136
1.43493
1.613
0.301258
1.3532
0.791923
1.01513
0.862556
1.13229
1.64064
1.04095
1.82998
1.30002
1.54905
1.26342
1.04428
1.2127
1.53
1.47059
1.81636
1.50544
1.33885
1.71733
1.39845
1.11228
1.42435
1.15434
1.36096
1.69516
1.04465
1.85512
1.15028
1.5656
0.509547
1.58748
1.68602
1.42542
1.29225
0.590521
0.0523532
1.09783
1.15282
1.3793
1.37101
1.12149
1.37814
1.70225
1.52525
1.46767
1.3234
0.999858
1.06205
1.79683
1.09007
1.7092
1.4343
1.08798
0.75531
0.949748
1.34804
0.826064
1.09584
1.43938
0.706492
1.15089
1.44617
1.40268
1.78665
0.00269492
1.33607
0.885276
1.33149
0.634336
1.43212
1.63746
1.43271
1.35894
1.18789
1.25497
1.07558
1.13017
1.54158
1.39174
0.13363
1.27918
1.24716
0.697809
1.20681
1.28709
1.22179
1.36765
0.246096
1.68579
1.39433
1.18726
0.676521
1.20503
0.655714
1.50365
0.739778
1.33008
0.938066
1.37621
1.12059
1.14827
1.30858
0.609599
1.22011
1.14656
1.71164
0.88944
1.17861
1.15586
1.1422
1.63519
1.2622
1.50329
1.33445
0.934364
1.62701
1.45757
0.917854
0.402947
1.48021
1.40835
1.14455
1.36098
1.35095
0.84572
1.54241
1.35207
1.26101
1.21409
1.8697
1.34721
1.51798
1.3878
0.618523
0.158806
1.25994
1.2659
1.70965
1.22535
1.41745
0.609578
2.08589
2.0287
0.852584
1.76427
2.1126
1.37069
0.118826
1.68664
1.67744
1.03723
1.33282
0.959664
0.167759
1.66715
1.56786
0.170548
1.43086
0.927998
1.43256
1.59571
1.37991
1.41452
1.35756
1.00923
0.900426
1.19429
1.57135
1.40417
1.75066
1.18005
1.52347
1.28141
0.516005
1.27932
1.06113
1.66062
1.24265
1.67189
1.02385
1.45928
1.37611
1.66611
1.25968
1.12679
1.38856
0.649217
1.27935
1.61849
1.27538
1.69727
1.29043
1.29983
1.4625
1.54688
1.4778
1.30277
0.787447
1.37715
0.830554
1.2331
1.12373
1.41088
1.30479
1.43454
1.01832
1.48288
1.39653
1.37138
1.55996
1.61686
1.02973
0.079941
1.16146
1.75471
0.336731
1.10762
1.22422
0.615752
1.35749
1.29703
1.03655
0.830715
0.819079
0.642477
1.37022
1.31451
1.37485
1.40864
1.03621
1.89106
1.46559
1.3784
1.38643
0.925447
0.628316
1.30167
0.812505
1.18859
1.90793
1.68608
1.66476
1.06709
1.24483
0.911008
1.48291
1.64456
1.61059
1.68161
1.69675
1.31837
0.784484
0.954166
1.47169
1.33073
1.70929
0.21252
1.17557
-0.219216
1.36369
1.41886
0.843786
1.36707
1.38336
1.424
1.69041
1.66444
1.55482
1.6707
1.57202
1.57247
0.233601
1.3599
1.37342
1.46804
1.34562
1.38061
1.5597
1.47287
0.819296
1.41222
1.61892
1.66145
1.46773
1.64341
1.32038
1.33133
1.47221
1.11483
2.03496
0.411315
1.45133
1.5098
1.27049
1.11628
1.40685
2.06774
1.34348
1.50878
1.12954
1.46295
0.622744
1.80589
1.40593
1.35486
1.45827
1.43463
1.50211
1.97166
1.87161
1.07908
0.668601
1.04895
0.635054
1.37886
1.07528
1.5017
0.240129
0.942442
1.59217
1.9504
1.35667
0.0222891
2.11419
1.45734
1.51871
1.01749
1.67119
1.43421
1.53548
1.68215
0.102009
1.65093
1.36694
0.520512
1.50031
1.48331
1.50825
1.98507
1.9863
1.16433
1.46092
0.809388
1.36492
1.37618
0.37213
1.67625
1.45686
1.37306
1.52216
1.16847
0.204504
1.14076
1.34363
1.86116
1.38505
0.961387
0.439443
1.07946
0.337077
1.36324
1.3934
1.17952
1.39982
1.40918
1.40111
0.0839165
1.41743
1.07737
1.46045
1.50158
0.385254
0.00917533
2.01815
1.92471
2.10094
1.82547
1.44
1.02971
1.44054
1.4188
0.602732
1.90408
1.5394
0.729436
1.63162
1.59863
1.56732
1.45732
1.42743
1.78641
1.45299
1.50677
1.11472
1.45297
1.45629
1.57809
1.60123
1.62911
1.65479
1.75286
1.77913
1.59328
1.41978
2.18839
1.14541
1.56712
1.40834
1.08664
1.59367
1.50264
1.20649
1.44344
1.45042
1.41905
0.460414
1.4047
1.9561
1.54883
1.92586
1.85795
2.09749
1.50796
1.45275
1.98501
1.43632
1.73219
0.731962
1.05538
0.801461
1.42624
1.5935
1.50651
1.43557
1.50792
1.42148
1.57901
1.38502
1.59897
1.42597
0.822137
1.31881
1.44603
1.14925
1.46925
1.31487
2.30908
0.1063
1.54842
1.12967
1.24013
1.09641
1.57543
0.996975
1.43225
0.295066
1.12884
1.59185
1.39501
1.30247
1.29247
0.236782
1.57956
1.68134
1.40302
1.39072
1.57335
1.13715
0.967432
1.70081
0.176535
1.50123
1.36334
1.44682
0.0781243
0.809098
0.187844
1.43694
1.69608
0.130848
1.16932
0.406586
1.50788
1.34579
0.496148
1.37736
1.44727
2.0293
0.378745
1.53014
0.854474
0.733584
0.737114
1.70592
1.48529
1.42435
1.42691
1.82624
1.36467
1.67103
0.0537752
1.8543
1.60247
0.11081
1.4577
1.56468
0.600688
0.359648
1.37682
1.38705
2.0701
0.410702
1.3917
1.38535
0.202794
1.45054
0.924032
1.35029
1.75795
1.36319
1.3488
1.17225
1.13496
1.86837
1.94112
0.914866
1.46678
1.3827
1.83822
1.48367
0.60238
1.55019
1.46089
1.46499
0.81262
1.388
1.61292
1.4245
1.52464
1.41412
1.43918
1.41615
1.44248
0.198821
1.34956
2.08684
0.816621
1.22428
1.11743
2.35182
1.60637
0.00969045
0.022029
1.70879
1.70737
1.26777
1.43745
1.42515
0.262251
1.31026
1.32306
1.67912
1.0333
1.79054
1.32378
1.48909
1.97344
0.555759
1.33646
1.46859
1.48967
1.3134
1.18776
1.91618
1.48602
1.60209
1.41617
1.44709
0.433056
1.73149
0.996908
0.596455
1.41925
1.57887
0.89755
1.27469
1.45025
1.64093
1.06572
1.39045
0.972882
1.32546
0.617664
1.47556
1.00602
1.59158
1.38584
1.71993
1.19684
0.307336
0.795709
2.08101
0.245261
1.4235
1.41369
1.89643
1.51838
0.851622
1.2729
1.40164
1.42609
1.52343
1.41895
1.63339
1.24134
1.63092
1.37412
1.28859
1.91144
1.05366
1.31677
1.73092
1.65457
2.15254
1.42398
1.36086
0.772294
1.4377
1.46168
1.61915
1.23191
1.36371
0.743875
1.36397
1.01685
1.53162
1.36511
1.49088
0.907135
1.37373
0.726285
1.61638
1.38583
0.791725
0.298235
1.54952
2.08421
1.51702
1.34181
1.24079
1.10807
1.93801
1.38857
0.102799
1.47936
1.47062
0.0608668
1.20701
1.3723
1.19899
1.07486
1.63219
1.89016
1.85584
1.39991
1.02055
1.40973
0.577227
1.76372
2.05466
0.389946
1.19388
1.55636
2.06438
0.161549
1.89262
2.07266
1.40668
1.02889
1.23
1.90829
1.15183
1.44001
2.20616
1.09981
1.92092
1.3232
1.30342
2.04435
1.70591
1.91988
1.87262
0.970242
0.0853333
1.74122
1.53044
1.2086
1.53025
1.53035
1.44416
1.32981
1.90409
1.08649
1.14172
1.46639
1.52561
1.3264
1.4435
1.49094
1.87197
1.48102
1.32142
2.03323
0.94791
0.268778
1.48799
1.41296
1.50285
0.511157
1.16479
0.148895
1.51435
1.39939
0.208027
0.863948
0.95717
0.53807
1.55189
1.21816
1.11349
1.29432
1.42336
1.19311
1.02904
1.87061
1.35337
1.35525
0.832934
1.22475
0.449115
1.4303
1.63325
1.52347
1.71504
1.14047
1.61221
1.73512
1.78767
1.32217
2.03077
1.32159
1.8771
1.45902
0.0732527
1.36192
1.35635
1.33877
1.67412
1.41148
0.857366
1.99387
1.1241
1.67917
1.37454
1.64829
1.54478
1.02678
1.36327
1.44487
0.90736
0.724069
1.21235
1.39505
1.08906
1.09332
1.44038
1.72508
1.15011
1.35541
0.0551921
2.15386
2.09083
1.14907
0.834822
1.35436
1.36044
1.42343
0.543946
1.57786
1.40233
0.714965
0.694951
1.45336
0.755263
1.34629
1.40784
1.89545
1.43182
1.96402
0.734786
1.20848
1.25001
1.64497
1.59214
1.45992
1.04064
1.2537
1.85022
1.37603
0.829131
0.259395
1.03284
0.0775021
1.49672
1.26956
1.32982
1.02726
1.6903
0.443976
1.06202
1.79857
1.81827
1.32186
0.872255
1.77001
0.53671
0.767948
1.58107
0.793147
2.21273
1.36892
1.89132
1.48639
0.273232
1.13712
2.01009
1.92431
1.27351
1.29667
1.09476
1.65851
1.60752
1.22728
0.862998
1.51629
1.43369
0.0958139
1.39328
1.41502
1.42588
1.10407
2.18986
1.25761
1.32468
1.41662
0.778397
0.139113
0.887078