/*--------------------------------*- C++ -*----------------------------------*\
  =========                 |
  \\      /  F ield         | OpenFOAM: The Open Source CFD Toolbox
   \\    /   O peration     | Website:  https://openfoam.org
    \\  /    A nd           | Version:  7
     \\/     M anipulation  |
\*---------------------------------------------------------------------------*/
FoamFile
{
    version     2.0;
    format      ascii;
    class       surfaceScalarField;
    location    "17";
    object      phi;
}
// * * * * * * * * * * * * * * * * * * * * * * * * * * * * * * * * * * * * * //

dimensions      [0 3 -1 0 0 0 0];

internalField   nonuniform List<scalar> 
44730
(
-595.423
667.553
-72.1301
1062.95
-1072.2
9.24875
-334.828
381.945
-47.1162
225.437
-259.666
34.2298
-498.401
498.401
218.76
-263.08
44.32
-375.433
373.788
1.64487
26.7222
-564.64
537.918
663.833
-833.617
169.784
-1009.3
1102.27
-92.9674
556.778
-145.24
-411.538
-532.321
536.516
-4.19477
-687.82
582.656
105.164
-859.816
868.877
-9.06097
247.775
62.2904
-310.065
385.51
-10.3447
-375.165
814.545
-666.873
-147.671
-393.653
403.666
-10.0126
161.049
314.799
-475.848
290.335
-356.815
66.4791
-594.027
81.674
512.353
724.532
-60.6989
49.7565
-384.585
136.511
-489.406
352.895
242.215
-136.305
-105.91
1067.39
-4.44272
659.839
-680.98
21.1411
-274.681
-10.2255
284.907
287.47
-39.6946
-442.363
543.924
-101.561
953.265
-248.956
-704.309
-670.907
760.535
-89.6277
250.75
-226.411
-24.339
480.043
-71.3495
-408.693
140.094
-414.776
266.523
-432.164
165.641
431.141
-576.847
145.706
291.85
-39.7213
-252.129
824.727
-979.346
154.619
1062.21
-237.479
-1018.17
1035.71
-17.5306
402.267
-90.8669
-311.4
704.037
110.508
192.233
-313.016
120.784
1228.47
-777.703
-450.768
-591.287
148.924
538.201
-538.868
0.667205
230.497
645.532
-876.03
224.815
537.263
-762.078
-106.01
537.151
-379.888
165.243
214.644
-11.9218
-226.218
238.14
-666.4
-4.50719
239.206
-20.4455
424.004
-38.4945
-266.226
-45.8243
312.051
524.507
-499.739
-24.7681
-34.2824
-559.745
-464.424
43.0896
421.335
-299.451
-29.2189
328.67
799.508
17.5781
-817.086
-409.165
570.214
5.9728
-238.66
232.687
-217.79
484.313
-311.462
426.974
-115.511
263.642
246.465
-510.107
496.711
-124.925
-371.787
428.967
-48.5181
-380.449
-454.443
-32.1903
486.633
-986.687
-31.4875
1060.25
7.14681
291.355
292.146
-583.501
-243.44
547.133
-303.693
166.647
90.3072
-256.955
-431.668
381.504
50.1644
-368.468
384.921
-16.4534
269.883
-151.705
-118.179
-251.011
-60.0893
311.1
-699.299
16.5417
682.757
408.479
-91.3487
-317.131
-252.89
252.89
88.2555
-761.63
673.374
-663.631
68.2084
-947.219
848.225
98.9939
-320.817
-54.6166
-18.9978
214.241
-195.243
517.925
-142.009
-375.916
-644.533
-43.2872
652.457
-69.8006
97.2293
82.0615
-179.291
-357.882
93.0757
264.807
-308.888
57.8764
846.228
-621.413
562.281
-595.138
32.8575
223.369
-93.9581
-129.411
-351.174
125.475
225.699
-24.0488
255.274
-231.226
-846.717
847.455
-0.737611
-33.0605
-158.984
192.044
257.489
4.78734
-262.276
-711.452
12.1535
-265.264
282.934
-17.6698
778.74
20.7683
431.035
-633.36
202.326
204.007
-215.929
-753.667
815.806
-62.1389
637.6
-717.73
80.1302
74.6735
577.783
943.844
-846.975
-96.8684
-217.899
244.323
-26.4247
200.291
50.4584
355.985
119.111
-475.096
1009.09
-256.884
-752.207
18.3793
563.803
-582.182
-12.7967
-587.402
600.198
538.445
-247.09
102.869
424.212
-527.082
-303.184
407.513
-104.33
76.7436
-814.825
738.082
-698.92
455.48
12.6407
-212.142
199.502
19.008
-854.697
835.689
-319.981
317.005
2.97612
-40.6261
304.268
24.0711
-890.812
866.741
-344.69
342.49
2.20012
-74.3463
-319.307
12.1017
-288.627
276.525
704.041
-786.716
82.675
726.141
-860.279
134.137
-150.918
343.151
170.151
99.7323
190.955
-205.546
14.5908
298.487
-304.646
6.15921
-125.77
556.805
626.078
327.187
151.572
63.9934
-215.566
276.088
-315.38
39.292
222.424
-254.206
31.7815
-23.7757
281.265
-350.705
6.01521
1.76705
-186.151
184.383
221.878
-59.8881
-161.99
181.123
827.969
-198.075
-739.276
937.351
-101.145
-397.256
522.99
15.2108
232.761
-226.601
-6.1598
271.094
-223.951
-47.1427
31.1357
-219.994
188.859
-397.068
633.847
-236.78
52.2242
508.725
-560.949
984.083
-886.493
-97.5904
790.91
-787.091
-3.81849
-572.839
-237.78
810.619
-145.895
722.1
-576.204
454.924
-443.675
-11.249
-204.088
-7.76682
211.855
36.5722
-764.294
727.722
-163.86
-216.028
-246.318
232.685
13.6337
242.291
-16.854
21.2432
1020.88
-572.447
-448.431
735.195
-933.27
-399.199
96.0154
13.0831
208.795
16.4855
-778.247
761.762
-90.3843
-856.834
417.184
-452.085
34.901
-106.685
832.827
54.1023
-736.513
682.411
-203.765
-0.32304
276.088
4.30039
249.262
-253.563
-432.562
432.562
82.7386
679.626
-762.364
-314.113
48.8488
-579.554
597.933
321.043
-308.259
-12.7843
-777.834
-63.2707
841.104
-146.773
449.187
-302.414
427.4
90.5248
429.297
-442.76
13.4635
265.38
-42.956
-211.081
-322.795
533.876
501.034
-381.295
-119.738
-328.437
18.5363
309.901
785.505
-81.4636
-520.409
-79.8389
600.248
-661.081
661.081
-127.613
503.015
-375.402
94.6567
-349.581
254.924
-919.583
346.744
306.617
-357.939
51.3213
436.832
18.0921
814.711
-499.95
-314.762
913.137
-63.4106
-849.726
75.5774
147.792
-847.262
614.302
232.96
-21.0335
269.465
-248.431
-209.927
224.18
-14.2531
-43.4862
-488.835
875.069
-890.183
15.1132
-52.1925
429.609
-12.4253
788.412
-792.15
3.73871
247.063
-14.3025
24.1911
-242.09
822.132
-963.82
141.689
240.177
-343.739
103.561
570.649
-570.649
899.941
-93.2394
-806.702
594.242
73.0815
-667.323
58.5615
-329.885
271.324
-175.548
258.341
-82.793
-474.648
327.875
53.4933
734.918
-393
529.511
252.838
-177.26
-684.017
-176.262
484.595
-630.49
453.537
-501.111
47.5746
-895.777
1030.34
-134.559
-580.238
555.668
24.5702
506.111
-582.224
76.1137
129.24
732.28
-861.519
211.283
530.725
-742.008
723.341
505.13
322.132
740.075
324.384
-232.291
-92.0932
-294.866
294.866
371.004
-401.983
30.979
-28.2881
1088.54
269.616
-323.22
53.6043
531.184
-478.96
-297.429
-562.387
551.646
-565.491
13.8447
-29.3175
904.387
262.135
-283.169
-229.355
204.156
25.1989
498.973
-587.73
88.7574
-197.665
959.052
-761.386
588.754
-82.6433
771.887
-383.554
-388.333
338.834
-48.4988
471.999
548.88
-203.573
184.575
-743.847
59.8298
-932.321
36.5437
477.6
46.9065
-679.877
891.159
-691.579
-62.0886
187.796
-203.749
15.9528
-74.0067
915.206
-841.199
-38.05
-817.795
855.845
182.558
-180.791
46.6916
172.67
-219.362
-8.65384
-366.019
374.672
325.062
-312.96
-606.641
209.573
-232.349
436.23
-203.882
908.548
-678.051
304.295
20.0888
301.055
-10.4154
-290.639
-568.331
159.724
408.607
460.667
-31.3706
516.8
-727.881
-368.284
-0.183913
646.834
-746.162
99.3282
-233.645
158.594
75.0514
-656.214
638.963
17.2508
224.662
-220.362
72.6566
180.181
-743.201
825.94
-304.394
318.109
-13.715
68.0305
-363.161
295.131
230.892
-209.289
-21.6028
526.433
-328.603
-197.83
9.0377
-346.85
337.812
-497.257
484.461
-68.0671
269.003
-200.936
-661.651
158.558
503.093
-344.24
-6.9341
653.798
6.04081
445.35
-21.3461
-159.917
7.18421
152.733
-22.9203
724.284
-701.363
-852.959
982.198
321.28
-151.395
-169.885
677.327
-775.117
97.79
424.185
347.702
706.342
59.6305
-765.973
818.098
81.8427
550.346
-523.816
-26.5298
1093.71
-1012.31
-81.4054
3.94627
-295.159
291.212
282.801
18.2539
100.568
141.647
210.984
-20.029
197.306
-199.806
2.4993
142.987
149.739
-292.725
-304.097
283.905
20.1926
-161.789
-299.042
460.831
420.467
-548.08
-319.4
198.578
-193.426
-5.15249
195.052
1009.2
-562.388
-446.815
525.87
-109.124
-416.746
127.262
510.338
81.4621
468.884
1.06242
-693.174
713.456
-20.2813
45.6493
-547.611
501.961
-88.9922
-249.317
338.309
-448.71
39.0824
409.628
-140.457
-336.012
476.469
780.005
-1.26495
23.5152
195.485
-379.172
183.687
155.499
-223.566
-920.768
849.354
71.4138
-295.494
306.245
-10.7518
670.527
-84.3193
-586.208
1047.02
-603.808
-443.21
196.749
-192.262
-4.48635
267.229
-110.344
-156.885
-421.381
418.153
3.22804
663.108
-31.4575
-631.651
-694.772
1.59723
376.388
32.0916
-555.711
442.568
113.144
583.659
-578.303
-5.35627
-855.763
44.3972
811.365
856.37
33.1985
-889.568
-424.559
284.102
-202.722
42.8048
-327.173
531.947
-204.774
-182.937
-46.4182
754.995
-793.045
-147.929
194.621
534.49
-167.529
-366.961
-123.539
-309.023
218.694
-219.33
0.635834
619.57
43.5382
683.438
-608.765
22.4272
-302.274
279.847
837.583
-876.416
38.8331
-302.257
-6.00162
955.636
-958.841
3.20443
55.9368
191.733
-247.67
680.234
-33.4
569.285
-592.924
23.6393
-829.435
848.443
201.211
-188.57
786.418
212.116
746.936
148.086
197.982
-346.068
-299.321
-7.62824
819.865
-65.9856
-753.88
598.32
-129.268
-469.052
249.085
-83.8418
83.2685
413.443
83.4665
-259.014
473.829
-503.884
30.0559
142.21
-348.605
206.395
137.654
388.778
52.4139
860.723
653.072
-773.25
120.178
-22.6957
978.332
-279.646
-17.4091
297.055
-221.396
205.834
15.5618
-8.80948
175.457
48.3583
452.676
335.08
-343.734
-350.147
38.6845
-341.528
42.0772
838.348
-58.3436
79.6075
-225.724
146.117
-954.606
22.2859
-918.285
-36.3212
-486.281
57.2468
429.034
-732.683
901.54
-168.858
-196.423
-65.8532
262.276
-117.374
-88.6347
206.009
-159.723
-40.7343
200.457
-127.019
227.976
-100.957
853.46
415.05
-219.565
153.72
-12.3944
-567.844
-879.355
-41.4135
449.695
148.624
190.047
-517.221
200.76
-1107.05
906.292
24.5893
204.961
-229.551
-6.22258
-203.704
418.613
26.7377
89.148
701.762
280.394
5.53831
-285.932
-470.224
573.094
728.781
72.8291
-801.61
-778.782
-7.93414
801.239
-855.428
54.1892
294.677
-278.842
-15.835
84.5365
236.743
850.796
-864.953
14.157
978.83
-862.149
-116.681
939.147
-943.697
4.54932
-391.815
-163.896
-3.64367
-872.905
545.167
327.738
-182.073
161.979
20.0935
-244.996
387.983
140.287
91.5844
-231.872
756.455
259.984
-254.012
431.654
94.2159
783.054
-696.764
-86.2903
-52.5997
-100.16
-95.6456
195.806
-307.39
261.23
46.1597
862.558
-838.487
-21.5431
379.418
-357.875
-325.105
-25.6002
570.968
-583.634
12.6664
367.866
-327.464
-40.4024
-828.514
731.213
97.3011
-905.796
831.789
142.674
124.556
-406.106
276.728
129.378
467.932
-453.896
-14.036
621.219
-622.651
1.43222
518.099
-44.2702
-308.089
-137.689
445.778
7.50618
-287.152
-70.2836
-248.146
318.429
544.285
563.928
-1108.21
-900.865
849.215
51.6503
-1.14462
-404.879
418.743
-13.8647
431.811
-399.691
-32.1197
672.437
-845.909
173.472
711.353
-882.001
170.648
-503.157
-158.494
-430.715
63.2035
367.512
304.658
-6.27342
-298.385
-326.974
167.251
476.005
80.7726
-719.7
-108.813
9.51103
187.795
-301.897
302.026
-0.129198
29.6104
-332.061
302.45
490.052
39.6608
-529.713
-233.996
302.149
-68.1526
-896.196
-19.6379
915.834
-203.915
-32.3922
236.307
6.56329
-846.419
839.856
804.703
-118.414
-686.289
341.121
143.053
-213.337
-874.877
-21.3186
808.597
40.7575
-3.0572
545.096
-189.111
-506.544
-18.1173
524.661
-801.993
913.795
-111.802
313.65
-245.62
-399.98
310.987
-30.098
590.705
63.0935
383.623
-241.413
306.621
508.09
-13.7936
25.8351
342.031
-777.075
86.4571
690.618
456.599
95.0467
-134.847
-24.8811
159.728
-851.808
-23.0696
69.5502
332.717
-196.087
230.641
-34.5539
47.0301
-281.026
-278.657
272.123
6.5336
-18.4212
28.0726
-513.991
485.919
-611.262
-134.899
-21.7815
301.799
-280.018
-334.625
453.737
599.388
447.63
-1102.77
430.485
672.288
329.312
0.317328
-329.63
-241.672
-160.293
401.964
-525.568
552.291
-661.248
-18.6142
679.862
99.9275
85.9299
-185.857
-44.2488
799.244
839.017
-862.582
23.5646
807.473
-154.401
38.8296
-603.469
-324.727
-22.1225
556.806
57.7869
-614.593
439.175
21.4928
-349.251
392.468
-43.2168
-853.682
-3.76842
857.451
-27.8183
-823.989
275.223
-278.732
3.50929
625.215
-3.99571
565.311
-410.64
-154.67
-221.096
272.87
-51.7741
-92.3203
-257.827
-420.832
-43.5929
894.918
-183.565
-821.772
89.0892
-629.287
18.0241
-539.519
50.0501
489.469
820.552
-39.6293
-780.923
-256.195
129.175
1.0433
-356.441
355.398
859.693
-187.256
307.326
-2.66759
636.942
-67.6568
494.255
-4.20344
801.381
-712.233
-1045.13
-57.6411
444.875
23.0563
530.291
31.9899
731.335
-694.762
796.143
-38.5346
-757.609
193.537
-226.597
274.828
-13.598
-118.018
203.043
-171.907
474.948
15.5209
-490.469
576.55
-97.5282
-479.022
-459.191
421.839
37.3517
128.881
672.5
6.31605
-97.6046
-760.07
857.675
82.0448
-666.64
584.595
225.852
-303.451
77.5995
-742.332
644.728
91.7459
712.957
-504.406
1048.69
223.759
-144.151
-274.783
-174.947
255.773
-80.8258
209.436
-265.596
56.16
-179.697
319.985
8.23495
-333.34
-51.1186
5.33241
-410.604
405.272
-47.5398
-161.826
-194.989
-29.4203
367.251
-337.831
-870.852
944.465
-73.613
45.4966
-528.099
482.602
23.6772
-245.073
-755.818
106.15
649.668
360.141
-220.046
819.405
1.14689
-31.5879
219.427
-187.839
435.298
130.013
-104.735
-325.98
815.99
-201.687
-95.2098
-914.091
616.666
-324.52
123.849
50.9758
652.801
-564.546
495.695
-15.6526
342.039
-35.4218
338.953
-421.353
82.4
192.403
-230.614
38.2105
49.1731
248.654
-297.827
338.875
-500.663
-4.50011
761.958
-806.206
537.657
-62.7096
-106.032
737.707
-631.676
-269.22
303.512
-34.2915
-69.2225
295.074
203.452
-190.369
-281.084
11.8636
-1058.04
586.653
471.389
-35.8689
-77.6521
174.881
-309.285
294.772
14.5128
-676.021
692.506
268.195
-273.027
4.83183
-478.326
179.284
-502.269
-555.773
239.07
-278.792
847.167
-946.598
99.4313
-343.876
19.1486
486.674
-627.127
140.453
-2.49689
811.094
256.473
-276.136
19.6626
-322.13
-550.776
-37.3989
293.439
-25.2444
356.11
-127.094
-229.016
-19.939
-840.478
860.417
-877.094
489.414
387.68
-56.027
735.653
-458.812
37.98
-144.359
-117.072
261.431
874.526
-816.898
-57.6279
392.972
-323.422
797.053
4.18525
107.598
83.1497
-190.747
-580.555
1024.4
-443.842
144.655
-192.995
48.3401
-758.977
-144.985
903.962
141.058
215.051
853.513
-31.3816
813.471
-736.727
503.594
-420.326
-13.6393
-225.021
35.6778
152.642
-188.32
310.584
234.512
-24.2444
-1098.2
619.198
479.001
8.22798
891.695
-60.543
-831.152
-430.59
622.762
-192.171
57.1471
756.324
27.0376
-533.581
-590.523
-18.2839
608.807
407.132
145.193
-552.325
-264.734
-522.357
278.843
63.1957
-177.285
-75.6055
-406.255
352.71
53.545
-792.998
293.049
200.721
-261.819
61.0982
226.1
-258.444
32.344
429.886
-424.554
726.863
51.5739
-778.437
-203.669
44.6852
821.278
20.8338
-842.111
-362.164
16.5684
345.595
118.64
860.19
-409.647
452.737
411.377
-72.4237
-954.498
99.7083
854.79
789.104
102.592
-28.485
220.888
50.4624
381.349
897.19
133.146
26.616
-485.428
28.7219
-826.921
798.2
698.352
-766.15
67.7977
636.314
465.954
769.012
-56.0313
-712.981
194.218
-49.5626
76.3195
339.395
-415.715
-735.246
792.393
253.982
172.992
-282.07
168.618
113.452
-111.195
-426.827
538.022
-31.8513
-214.467
1004.41
-573.926
94.8423
-291.265
179.815
-211.403
-104.765
-154.901
30.6693
820.127
-163.662
502.536
-601.256
754.279
-153.023
682.045
-704.965
-394.247
376.13
-442.739
-179.912
39.4687
349.022
-13.0403
-335.982
-46.2876
808.245
-505.246
-623.366
1128.61
288.244
-239.684
215.635
6.03576
197.416
-255.892
119.587
-885.305
908.966
-23.6617
-276.647
258.616
18.0309
73.9711
709.083
3.36255
765.65
635.628
-16.0579
-15.0656
-512.226
471.504
40.7216
933.079
17.1531
-950.232
-318.167
-43.9961
-0.494095
-235.007
795.931
-69.0676
529.019
-623.121
94.1027
-761.995
-84.7217
14.1178
280.559
886.532
10.6571
-490.707
440.798
49.9086
-950.453
-94.6793
47.0332
-376.28
329.247
-214.711
237.453
-22.7417
250.772
-41.3355
-39.6686
1050.3
-313.223
-737.079
579.593
-50.5742
50.6691
-264.742
-65.1435
-688.49
770.609
-82.1183
-86.7971
-11.4915
237.591
504.755
-5.78225
92.7907
-870.624
-89.8575
212.122
-122.265
-200.464
217.888
-17.4236
-681.794
570.599
-451.82
479.893
343.466
49.5059
-460.426
424.768
35.6583
581.513
427.69
498.41
-459.927
-38.483
483.893
-315.519
-168.373
-181.883
30.1785
350.305
-21.3188
-328.986
-258.17
83.2225
-333.861
293.235
-219.039
-636.724
-691.572
-81.678
259.418
-58.6967
662.351
197.341
7.01297
225.672
816.445
-84.7384
-731.707
328.762
-142.085
647.002
-504.916
234.367
-300.221
-98.3377
505.47
-750.884
7.68288
-126.35
-107.295
500.006
-94.9672
782.033
-687.066
-199.983
225.624
-25.6411
-31.3209
-245.326
829.585
-737.839
221.039
-427.573
-406.022
833.596
862.634
-200.283
-42.7391
787.219
-744.48
597.379
-6.67425
17.7149
-608.238
283.074
138.771
-421.845
-404.071
480.391
-22.8839
-316.994
339.878
-616.937
65.7072
551.23
-138.121
504.551
-366.431
-480.997
409.322
-483.028
73.7053
105.442
-176.11
70.6677
-187.614
335.7
-191.08
-177.205
729.458
-31.106
102.282
581.156
-611.035
648.865
-37.8297
269.594
-291.376
-810.524
-52.058
97.0544
-433.067
590.12
460.183
-615.786
173.048
416.782
-844.355
374.995
-681.888
28.6523
653.235
-187.893
229.475
-41.5811
-816.295
886.701
-70.4066
-48.2319
-432.194
480.426
1005.36
-405.62
-599.742
-68.7702
-786.658
-15.2876
290.51
-950.465
207.424
743.041
-857.71
-92.7556
-172.492
-9.58069
-777.767
731.479
-127.735
-299.73
427.465
-13.3632
-268.423
281.786
160.328
647.145
229.571
150.437
-380.008
-902.868
154.575
748.292
541.176
-580.947
39.7705
604.541
58.5953
-663.136
-44.5732
673.805
-639.881
-33.9237
353.02
-23.708
-28.6431
233.381
-204.738
608.397
65.4072
13.8501
-792.632
721.541
-777.572
-178.799
214.477
329.248
154.644
130.086
-321.166
202.98
-206.612
3.63209
340.897
-199.19
-141.707
592.155
43.4732
-747.754
801.102
-53.3484
-393.633
-104.318
497.951
-11.3686
-290.528
240.184
53.173
-293.357
248.223
-98.7406
-149.482
418.317
-466.549
-61.716
-740.277
-410.832
82.2874
148.604
494.061
-433.58
-60.4807
-231.556
256.145
-200.842
193.481
7.3611
9.96832
-214.38
204.412
-322.359
379.139
-56.7795
217.227
-13.8088
-203.418
450.448
554.914
-261.509
555.516
-473.842
142.378
-241.114
98.7356
-201.001
-15.2101
216.211
701.281
-96.7394
240.504
-167.848
-358.665
275.886
82.7786
-427.403
-10.8115
438.215
-352.017
449.071
310.938
-324.523
13.5847
-16.5284
31.9259
471.668
462.769
35.6414
28.7965
-456.2
203.856
0.300177
-337.8
-6.07563
-369.749
297.88
71.8695
341.872
-63.0289
673.76
221.158
-231.365
241.333
-288.224
306.76
95.3518
657.947
-753.299
-736.729
-25.6803
762.409
4.14396
156.226
16.7793
-339.139
-690.687
621.107
69.5805
128.141
-168.125
171.494
-3.36878
430.812
-147.738
-250.11
-170.303
420.414
-164.946
-347.28
219.821
-16.841
-251.314
106.955
94.5427
-184.4
-1009.54
696.319
-347.71
347.71
851.462
242.252
-35.2509
-509.099
-500.443
209.827
326.689
528.099
42.5507
545.508
-51.2525
265.51
-263.97
-1.54078
-629.398
662.277
-32.8789
-50.2911
-532.468
-47.0858
-636.075
709.209
-73.1337
84.1755
-493.341
-353.052
539.465
6.04342
523.556
18.931
-542.487
747.675
-647.269
7.38847
-118.575
-58.9815
177.557
-419.74
85.8789
311.571
-32.8008
-278.77
-159.111
-43.6112
-301.596
289.053
12.5428
-288.354
67.258
869.495
-195.735
-337.389
48.7624
768.193
-1.49992
-766.693
584.175
-659.004
74.8289
-922.854
830.374
92.48
-23.4442
-637.804
110.188
297.325
-22.8707
-261.195
284.065
-780.564
18.935
-203.282
-290.145
267.274
-466.119
511.616
-258.559
260.642
-2.08358
-302.844
301.101
1.74255
-811.019
704.987
995.982
-148.815
-167.743
285.454
-229.517
362.709
-164.727
413.803
-318.584
-95.2191
287.136
54.7359
811.016
-92.6239
-718.392
184.323
-681.58
-754.616
670.397
84.2191
5.73002
-617.318
624.316
-6.99778
62.9089
177.596
-98.8653
519.333
-272.128
287.292
-15.1633
379.123
-458.27
79.1466
-608.635
649.211
-40.5767
585.724
44.2663
-629.99
249.381
-223.059
-26.3226
556.536
-24.4501
-532.086
242.173
-130.315
-111.858
-133.489
-50.4881
183.977
955.663
-946.58
-9.0827
-575.497
-388.323
-46.3201
-756.727
803.047
-897.641
834.37
-580.745
364.685
216.06
605.085
-623.369
-15.2283
673.91
-658.682
15.8006
151.949
-167.75
-52.4985
-279.562
-855.976
-66.8782
15.4654
366.039
334.076
-739.695
211.784
-7.92778
-228.052
228.052
413.659
-151.555
-262.104
-911.266
25.9614
-3.17822
-26.4394
-478.012
504.451
-753.738
-80.6346
487.021
-406.386
-252.401
-408.68
432.224
-10.3854
-54.4125
259.374
155.128
185.769
-544.067
398.827
-165.132
394.703
339.316
-52.18
762.828
-708.726
-284.278
-7.33465
271.081
-946.892
-3.561
5.61103
927.467
532.911
-448.736
-838.097
575.067
263.03
4.82187
261.117
-265.938
350.6
-7.8653
-342.734
-461.903
31.3127
-835.06
748.785
86.2743
-133.958
-184.209
188.937
32.1779
-221.115
213.024
126.293
-800.992
17.8522
-592.705
321.989
270.716
57.5691
240.918
361.809
-325.127
-36.6816
-370.372
391.712
-21.3403
847.416
-513.34
-454.996
312.911
-321.854
191.193
130.661
423.382
-720.811
568.401
-27.225
811.247
-807.884
79.1635
163.01
-829.071
811.879
17.192
-794.713
46.9595
-472.163
-527.846
1042.65
-186.28
931.096
-835.179
-95.9172
-521.12
-463.315
984.435
-48.4864
-255.611
59.8512
225.714
-231.969
6.25437
-22.0547
-56.0694
733.396
469.286
-34.3102
-434.976
-374.15
-194.181
22.7803
-98.7752
-244.964
-145.305
419.851
-274.546
-926.048
926.048
92.8322
-807.505
492.744
-510.821
69.1726
441.648
-211.556
-194.55
164.94
-164.64
-379.427
-554.711
390.071
598.845
56.9159
191.307
419.719
-929.773
510.054
-17.3843
297.778
-223.561
-262.72
-215.611
420.483
-91.2348
-180.984
-140.871
-65.488
-835.377
452.494
-518.092
65.5982
17.309
-692.514
775.131
-82.617
415.807
-420.722
4.91518
246.38
-567.768
529.76
38.0086
114.157
112.159
-226.316
198.868
-227.511
378.938
-708.789
329.851
110.541
758.336
175.774
237.886
-68.6431
-492.976
466.536
292.618
-307.012
14.3936
416.503
-37.3796
354.111
-383.531
-22.2309
-367.66
389.891
-18.9933
-285.653
299.351
24.2004
-323.552
-422.22
276.915
-388.25
39.7872
631.115
-749.528
-409.964
532.323
-313.158
-91.7203
976.652
-866.11
-492.741
-312.303
805.043
295.843
38.0028
290.735
-328.738
-457.375
143.081
-277.039
-51.7815
451.023
-563.893
112.869
47.4254
613.656
-182.552
63.9764
337.947
-280.378
708.749
-329.811
271.29
-178.214
23.9507
364.81
-388.76
-28.3039
-295.651
-6.62299
-255.27
250.927
4.34239
1.19384
555.509
-528.472
44.3401
-891.586
113.339
799.25
-2.19662
329.491
-116.468
525.489
328.708
-854.196
598.4
239.949
669.212
-764.179
-746.977
105.884
641.093
291.104
42.726
-333.831
185.813
-178.501
-7.31191
29.6402
274.542
572.913
-194.201
27.9969
166.204
-156.839
-606.941
763.78
-340.654
362.975
-22.3212
-245.568
295.86
-50.2924
-148.276
-174.945
-256.006
211.111
44.895
920.092
-920.092
-87.3096
727.043
-639.734
294.904
-210.367
344.89
-68.1625
-657.852
189.744
27.484
-217.228
50.2089
-584.091
533.882
24.5696
-221.005
196.435
908.295
-913.992
5.69687
301.043
-674.527
373.484
335.462
-288.429
51.5878
310.221
-350.749
876.237
557.048
-106.025
-72.7076
-242.672
-400.739
322.295
78.4446
221.25
-346.175
332.832
-500.497
167.665
-228.206
40.3127
-873.293
-73.5987
34.6915
-727.206
310.209
-184.734
796.38
-773.241
-23.1393
433.433
50.1706
-483.604
-685.579
610.667
74.9119
-260.689
219.35
41.3394
320.545
-27.9268
-426.117
-254.863
877.762
-834.107
-43.6548
-357.664
658.707
133.063
-526.696
-864.753
11.0713
-56.4169
-600.824
657.241
34.6308
-136.292
-145.778
-916.897
415.93
500.967
190.537
2.94369
449.931
-34.1241
543.446
251.475
-265.926
14.4511
-334.456
-5.99642
340.453
-542.392
436.382
-14.0338
-188.203
202.237
231.021
-41.2764
-87.7854
358.463
-270.677
-355.277
6.02592
434.776
-10.0081
62.197
-808.308
746.111
-664.293
664.293
42.8202
191.547
-88.687
-506.696
595.383
-854.475
938.105
-83.6294
741.124
55.2563
-14.1382
-834.531
848.669
324.117
-341.436
17.3187
325.085
14.107
-339.192
584.368
-636.896
52.5285
28.5359
310.244
-338.78
-202.99
-120.234
323.224
194.768
-8.95518
106.685
-710.682
603.997
-760.013
267.273
350.148
-312.146
793.738
59.7753
-77.3697
-433.451
342.182
-390.7
-681.383
101.76
579.622
319.898
-264.722
-55.176
-531.344
615.078
-83.7335
-81.8906
-362.912
444.803
408.32
-382.485
-591.437
-325.46
595.311
-725.53
130.219
-408.522
-429.576
837.857
-39.74
-645.839
129.941
448.585
-578.525
563.564
-644.786
81.2219
26.9197
-250.871
11.1095
-692.997
-320.684
321.727
-0.172967
570.538
-692.719
122.181
-344.504
-430.612
-0.817579
-684.951
698.126
-13.1751
763.074
-164.674
645.545
-102.88
-542.666
207.166
286.895
288.992
-297.33
8.33811
807.726
-935.881
128.155
-648.34
-98.6377
-283.916
11.7879
-327.676
91.5286
236.147
-56.3232
640.691
85.0785
-265.16
180.082
357.682
-335.682
-21.9995
-331.885
-260.821
-18.0127
205.808
-30.9823
-172.766
234.144
137.289
-371.433
-271.572
319.492
-47.9196
589.507
-678.194
23.2967
288.274
-258.03
-69.6457
-283.645
-297.1
-711.332
540.705
170.627
-112.123
-150.958
-160.414
66.4564
-578.229
536.388
41.8411
576.956
-1098.08
-24.7824
-1014.85
-140.794
371.995
48.4885
-22.5611
-51.3906
-758.901
127.225
851.982
-845.418
617.39
-76.6846
1.86026
589.243
-591.103
-283.942
-165.061
449.003
-45.8123
-214.877
8.64402
195.737
-213.304
17.5673
-993.69
229.396
448.912
-116.081
19.6686
-627.972
608.303
299.569
-365.289
27.7762
337.513
60.7464
573.845
-634.591
-103.115
771.677
-668.562
-669.476
-195.477
-727.495
39.7575
687.738
-33.5618
564.582
-531.02
923.694
-915.255
-8.43903
563.175
-619.592
-611.187
-23.6369
634.824
-395.711
124.139
250.314
-269.358
19.0438
801.345
-772.623
-96.0087
730.859
-634.85
459.349
12.1551
-433.907
-669.849
604.14
65.709
399.429
-92.1984
-564.015
-41.6764
-11.0924
-399.512
-28.5973
230.192
-201.594
22.3586
327.79
-360.324
364.258
-3.93338
746.268
-792.588
132.682
129.594
213.13
-224.811
11.6809
684.152
-775.282
91.1299
-318.091
-673.262
-15.2287
795.078
74.417
290.979
120.398
811.595
-16.5169
-11.1529
-1030.05
175.356
3.94017
20.2256
-567.836
161.054
-145.253
-1082.2
-240.584
226.551
72.5497
222.354
-107.648
-467.125
574.774
-2.47076
-477.498
479.969
838.927
-31.2017
570.07
75.4754
-27.8824
-201.822
229.704
741.747
-784.486
-150.919
385.063
-406.151
445.693
-39.5422
-679.286
723.171
-43.8851
298.011
-367.799
18.2178
396.049
-154.568
-241.481
173.875
-511.545
466.089
45.4558
4.38699
-461.8
462.496
-0.695999
613.751
-596.036
35.7338
-161.704
595.138
-293.995
57.4801
440.921
41.2746
607.518
-648.793
-76.6566
-149.754
206.212
13.1373
31.3427
-390.863
25.5743
-414.794
8.64312
250.667
-252.665
1.99858
711.25
-682.598
-484.843
83.888
400.955
-42.2692
626.445
-7.69766
-206.682
914.262
-141.77
-772.492
518.882
537.486
-1056.37
-295.482
-17.5343
290.574
4.19825
10.2824
273.622
-691.487
-2.31435
693.801
592.15
-748.988
-217.717
194.385
23.3323
-521.982
-29.2338
-637.406
-1.44311
143.822
-137.25
-428.241
-119.32
204.399
16.2173
-635.21
618.993
-38.7055
-497.812
536.518
-260.608
289.144
-69.2995
626.105
-728.678
753.977
-25.2989
217.709
-482.444
229.472
-250.949
21.4771
-13.3318
-838.629
27.6105
240.037
-443.027
908.11
-918.091
9.9802
636.921
13.6106
-650.532
-53.205
-539.719
-807.25
840.448
111.711
-207.357
897.675
-78.2691
240.049
-14.3341
-60.3949
-715.989
776.384
-87.9649
-596.986
-17.9486
541.505
-670.885
22.545
208.913
-238.931
30.0183
-235.836
1.73181
234.104
-558.473
533.546
24.9265
-222.92
89.4313
57.0276
91.854
-148.882
-880.25
314.675
19.6606
-334.336
54.9605
637.889
-692.85
-342.284
369.539
-27.255
-648.018
-22.8665
-667.514
762.865
-896.68
127.567
769.113
-145.307
-168.806
-445.136
63.8407
-457.061
-615.139
241.082
18.9024
-289.278
290.43
-1.15154
180.35
-66.1933
-422.532
393.675
28.8568
-954.879
972.032
-320.045
122.254
197.79
145.052
16.0019
523.345
855.969
-875.908
277.567
-40.8237
362.933
-501.054
-789.434
811.362
-21.9284
-351.292
-182.622
533.915
131.629
-171.84
40.2118
426.646
-525.512
745.571
-682.744
-62.8272
-264.402
-31.0796
313.403
-73.2194
315.149
-291.852
331.227
-652.041
-17.8082
5.54219
633.421
-376.976
156.93
20.6516
-891.503
548.617
-390.059
608.145
368.507
423.559
8.66497
744.643
-805.038
-39.9679
-21.8428
827.283
70.3912
421.121
-499.832
78.7119
207.719
-186.109
-21.6095
-204.207
226.544
-22.3373
-9.12736
343.086
-333.959
-617.607
658.882
437.612
253.675
-219.357
-34.3176
366.799
507.727
312.94
-334.259
705.744
105.272
78.2289
-601.883
523.654
639.769
-35.629
13.5645
-930.471
113.97
816.501
222.54
-254.933
-251.001
-793.289
732.265
61.0245
5.23409
814.383
-819.617
927.73
-927.73
-377.923
17.5989
602.825
36.944
-109.137
-28.0276
-196.894
224.921
437.561
27.7968
-465.358
-434.908
20.9252
413.983
189.514
972.168
-453.286
-226.497
38.1643
188.333
-627.255
630.791
-3.53582
418.82
-469.623
50.8031
-430.829
-4.07878
47.596
-762.959
715.363
-636.759
-62.1614
-549.316
518.489
30.8262
-365.884
273.564
27.0729
-245.122
218.049
-161.587
-158.458
-28.7129
234.144
-27.9322
52.3829
282.15
-276.612
-71.5939
791.609
366.585
-51.9098
-769.401
32.6718
-890.025
814.427
75.5979
131.135
272.53
385.161
153.283
-755.1
858.79
332.211
188.948
-521.159
-163.588
594.452
-644.038
49.5861
476.876
59.1103
-535.987
638.292
-341.773
-296.519
-474.294
-120.844
-781.859
678.744
27.6764
-686.292
658.616
-711.316
108.51
602.806
-764.484
-3.32712
33.246
508.584
-87.4632
-520.647
356.985
550.439
-584.001
-35.401
-66.3086
227.947
-161.639
41.6274
-677.703
-234.862
-231.465
165.157
-28.7858
286.942
-121.198
-165.744
167.622
-9.04517
-635.025
721.482
-32.2919
208.956
-176.664
869.866
-629.502
12.1836
153.573
184.375
1.0044
397.541
-398.545
-225.402
-197.473
422.875
180.934
763.531
379.509
-355.559
-842.654
7.59403
626.408
-609.866
-0.285542
-811.512
811.798
589.547
16.0673
-605.614
843.753
45.8653
-889.618
310.232
-9.13126
124.201
-408.143
425.875
8.90125
-255.173
334.935
-79.7629
193.198
381.495
-90.5161
611.183
-55.1325
-556.05
-756.621
782.368
-25.7473
14.6683
646.049
-660.718
-646.093
114.748
-6.34424
-442.372
605.725
34.4356
323.246
-30.1921
187.756
-87.8286
-336.228
1.77179
95.9608
742.967
3.42243
-277.443
274.02
-422.809
-506.964
-57.4446
-757.754
815.199
241.212
-49.4793
198.173
-270.381
72.2088
202.466
-95.7527
-221.039
-516.878
-581.322
-792.016
-18.5078
-167.259
-815.757
776.446
39.3108
-34.4455
469.698
-435.253
59.782
821.338
-881.121
197.58
-140.552
775
26.1022
-231.476
203.448
20.1702
-306.344
286.173
575.725
-573.864
-644.572
140.175
504.397
-551.014
587.724
-36.7102
30.7538
258.238
-665.214
-441.838
608.542
45.8115
-654.354
-721.933
606.759
-679.214
72.4552
-158.753
-35.4478
450.03
-484.313
-846.592
851.826
106.013
-307.827
-588.853
-642.407
593.273
49.1341
179.964
-74.5216
-43.5628
461.341
176.95
-572.139
58.1483
514.283
-527.131
12.8474
73.1961
-717.665
644.469
267.09
-16.4235
-312.03
166.052
145.978
-564.306
583.237
-120.608
461.631
-341.024
681.421
-86.9699
0.644568
-317.655
317.01
-446.926
-442.759
889.684
-161.139
258.545
-97.4058
-101.998
-579.385
-563.617
415.756
147.861
404.832
-38.2481
-366.584
0.562199
158.032