/*--------------------------------*- C++ -*----------------------------------*\
  =========                 |
  \\      /  F ield         | OpenFOAM: The Open Source CFD Toolbox
   \\    /   O peration     | Website:  https://openfoam.org
    \\  /    A nd           | Version:  7
     \\/     M anipulation  |
\*---------------------------------------------------------------------------*/
FoamFile
{
    version     2.0;
    format      ascii;
    class       volScalarField;
    location    "9.5";
    object      p;
}
// * * * * * * * * * * * * * * * * * * * * * * * * * * * * * * * * * * * * * //

dimensions      [0 2 -2 0 0 0 0];

internalField   nonuniform List<scalar> 
19930
(
-0.00349665
-0.0267774
0.0324963
-1.28096e-05
-0.00274742
-0.00354033
-0.10265
0.866066
-0.0471422
0.837647
-0.0815619
0.466342
-0.0445092
-0.0033955
-0.00535128
-2.14948e-05
0.103058
0.540544
-0.0804778
-0.025267
-0.0388365
0.481743
0.834031
-0.0854095
0.0291195
1.5604
0.00851805
-0.0363362
-0.0825173
-0.0800234
-0.0017884
1.8867
0.718354
-0.0227863
-0.000642368
-0.00185522
0.942363
-2.37664e-05
0.0114834
0.464957
0.0569353
0.884467
1.2437
0.00740814
1.5629
-0.0676973
0.779606
0.272504
-0.000162494
-0.0520113
-0.000780193
0.138912
0.015376
-0.00109422
-0.000165264
-0.0662739
-0.0386457
-0.00220883
-0.0117503
0.112269
1.69193
-0.0511492
-0.0134114
0.76689
-0.000387491
-0.00784543
1.53117
-0.00860233
0.0961461
1.53791
0.0347649
0.0554012
-0.00487511
-0.0363453
1.54908
0.0345929
1.52075
-0.0748556
0.460063
1.42264
-0.00667446
0.000533966
-0.0867573
-0.0425025
-0.0508061
1.25507
-0.0376238
2.07909
0.77279
1.65086
0.71382
5.92316e-06
-0.000118885
2.00614
0.247248
-0.0124206
2.02848
-0.00213559
-0.0662092
0.983052
1.67033
-0.0318237
1.71385
0.0521794
0.249691
0.0674901
1.38649
0.0917624
-0.0359644
1.28298
-0.0909458
-0.105234
-0.0354086
0.037825
0.0472943
-1.33941e-05
1.19084
-0.00603126
0.0231694
1.39939
-9.56263e-07
-0.0332722
0.508393
-0.0175182
-0.0226643
0.544681
0.59645
-0.0352419
1.91433
1.22118
-0.0462363
-0.0509306
0.0569419
0.0113141
1.40892
0.22646
0.341159
-0.0384655
-0.0251312
-0.0663573
-0.0408797
-0.0396054
0.0299093
1.73614
0.258376
1.42385
0.711033
-0.0398566
0.56326
0.00969921
-0.0396628
1.51939
-8.94401e-05
-0.0377231
0.000569405
0.719735
1.28219
-0.0906495
-0.071374
-0.0472176
-0.0189716
-0.0902184
-0.00209996
0.27759
0.379915
2.0602
-0.029936
-0.0843585
0.0287952
0.932812
0.32855
1.58725
1.18134
-0.0242976
2.15317
0.693909
-0.00337991
1.65563
0.0580729
1.33522
1.4526
-8.81451e-06
1.74024
1.18924
-0.0239568
-0.0773209
0.0369373
0.939107
0.0439326
1.91176
0.604593
0.135474
1.00887
0.112644
-0.071341
0.447508
1.7301
0.21796
-0.0238694
1.93702
0.337841
0.0343295
0.0343999
1.87042
1.78121
-0.0510053
-0.018122
0.142262
-0.0653991
-0.00154791
1.51617
1.64075
-0.0416809
-0.0662177
1.31883
1.54741
-0.00633024
1.39859
0.106201
0.0136215
-0.0253814
1.30283
1.79747
0.725549
1.2769
-0.0272158
-0.0148957
-5.85032e-06
-0.00484709
-0.00214746
0.501023
0.0203208
1.36948
-0.0635239
1.296
-0.0347831
0.069753
1.57302
2.04996
1.28669
1.50552
-0.0669439
0.920064
-0.0143959
0.272218
-0.00579687
-0.0144862
0.172768
0.146104
-0.000131771
-0.0350988
1.81926
0.500675
0.00948692
-0.0601363
0.0232611
-0.0998848
0.915679
-0.0621759
-0.0647007
-0.039722
-0.0197123
-0.000538329
-0.034552
-0.084649
1.73406
0.194052
-0.0326156
1.31256
1.77038
-0.037203
0.00012195
-0.0408731
1.53037
-0.0521703
1.68129
-2.87886e-05
-0.0664516
1.24842
1.50173
-0.00616787
-0.0357129
1.88912
0.0708305
0.131339
1.69663
1.89744
-0.0405639
1.25898
0.352285
1.40706
1.10934
0.000129503
0.180123
0.962988
-0.00363648
-0.0752447
0.255862
-0.106979
0.328995
0.226285
-4.13793e-05
-0.0015688
1.64588
-0.00353353
-0.0863857
-0.0489781
0.497075
-0.0465017
1.32341
0.333372
-0.0435632
-0.0778041
0.893578
0.482332
-5.13855e-05
1.65316
1.22832
1.63681
0.0190948
-0.000417354
1.8756
-0.00468209
-0.0316288
0.457143
0.231933
-0.0462907
0.0510748
1.29163
2.00239
1.4616
0.417496
2.17631
-5.38957e-06
-0.0220726
1.50416
-0.0430264
0.959788
-0.0334472
1.54608
0.315482
-0.00105176
0.308174
1.18383
-0.0541282
1.73651
1.13931
-0.000473352
0.0429742
0.750058
0.573085
-0.00522793
1.17551
-0.00747697
2.13149
-0.0429568
-0.041589
-0.0333359
1.44875
1.17829
-0.051863
0.896719
1.64897
-0.00366508
1.13025
1.24959
2.15624
-0.00386254
0.562875
0.160457
-0.0707166
-0.000197488
1.56749
0.879126
0.190156
1.58385
0.445553
-0.0399374
0.902596
0.388032
0.513814
2.13153
-0.0281008
0.417341
1.63202
-0.0620508
0.299756
-0.0628942
0.733802
-0.0440969
0.743901
0.198131
0.405978
-0.000505578
0.791416
1.61911
1.14862
-0.0897187
-0.0175167
1.84812
1.86784
-0.00515799
-0.0634293
1.39093
-0.082083
0.055452
0.925908
-0.0350248
2.22917
0.00396492
0.604846
-0.0132698
1.63184
1.12147
0.154209
0.0534398
0.14329
0.346897
-0.00207321
1.39593
0.0548642
0.804942
2.10788
0.0165675
0.040291
-0.00268554
0.281106
0.196489
-0.0363949
1.00821
-0.000534051
-0.0478976
0.0125576
0.0885109
-0.0318684
-0.000171515
-0.0442153
0.426065
-0.0706412
0.017487
-0.0537473
0.272155
0.243634
-0.0531546
-0.07411
-0.000908868
0.0954649
-0.0849214
0.0113057
0.00208657
0.495276
1.13325
0.290792
-0.000471456
1.93352
0.0115462
-0.000613531
0.0522429
-0.0589784
-0.0412249
1.7652
0.00209326
0.363238
-0.0694265
-0.076593
0.908224
-0.0299201
-0.0517736
-0.0702422
-0.000200193
0.0668794
1.97809
-0.0920088
-0.0680096
1.01155
-0.0461526
1.10557
0.555914
-0.00530437
-0.00142788
1.24702
2.07804
-0.104259
0.675016
0.398798
-0.0569608
-0.0581783
1.38502
0.219827
-0.0781801
-0.0529611
-0.0522335
0.0950374
1.85185
0.452183
-7.0702e-06
1.72072
0.0105176
-0.0432153
1.22032
0.0136155
-0.0138839
-0.000537936
0.125893
-0.0476765
-5.08023e-06
0.658489
-0.0439621
1.40783
-0.00049623
-0.00131285
-0.0483179
-1.20417e-05
-0.110362
-0.0692447
-0.00188198
-0.0323224
-0.0763493
1.21316
1.60128
-0.00446998
0.00198365
-0.0644075
1.62671
-0.00851765
1.64628
-0.0241715
2.12289
1.1671
0.668012
2.02499
0.0743614
-0.0113916
0.161146
-0.00336859
1.58514
1.38011
-0.0381884
-0.00251692
0.264632
0.0263714
-0.0100307
-0.0235178
-1.06688e-05
1.23487
-0.0767746
-0.0434206
-0.0169957
-0.0227986
0.619251
0.311094
-0.00543345
0.00816072
-5.47615e-05
2.12189
1.82944
-0.00521178
-0.0364066
0.0316852
1.37208
-0.0770846
0.393884
-0.0644245
1.48594
0.658476
-0.0497512
2.21099
0.082543
1.43582
-0.0129997
-0.0913574
1.72825
-0.00108926
2.10115
1.3203
2.15196
-0.0107866
-0.0164778
-0.0290944
0.192578
0.0122833
-0.0208405
1.45037
1.50273
1.15223
1.60849
2.07345
0.732736
1.62056
1.15401
-0.00028544
1.26954
-0.0518869
-0.0624844
-0.0014643
0.0194399
-0.0474567
0.92415
0.175513
1.42176
-0.014707
0.318975
1.35923
-0.00192945
0.047494
-6.54514e-05
4.54677e-05
0.924968
-0.046743
-0.0541653
5.25466e-05
-0.00088606
0.24445
-0.000398216
0.243573
2.13421
0.703855
0.785028
-0.0441104
1.33947
0.300804
-0.00669544
-0.0359417
-0.00363949
-0.000550464
-2.39209e-05
-0.0166778
-0.0805308
0.893133
0.169133
-0.0698688
-2.45166e-05
1.48638
0.129177
0.0344744
0.00123139
0.354715
0.0111441
-0.0677685
1.36222
1.94139
1.09429
-0.0458008
1.1245
-0.046891
-0.0393476
0.779896
-1.42984e-05
-0.0245991
0.575084
0.737464
-0.0483628
1.34704
1.77711
1.3217
-0.0614416
-0.0739971
0.0294968
0.400313
1.251
-0.00485423
1.71677
-0.0323146
-0.0892238
0.181586
1.96254
0.886432
1.40005
-0.066008
2.06934
-0.0454928
-0.0370895
2.17669
0.134334
-0.0640235
1.41727
1.49038
-0.0452049
1.23438
1.62508
1.48004
1.28363
1.44528
1.13863
-0.0172923
-0.0447219
0.000393242
-0.0817026
1.6155
-0.077212
0.495993
0.547564
-0.0564823
0.258697
0.552561
1.65178
0.265934
-0.00155535
0.105074
-0.0432811
0.0709546
0.0530016
-0.0854115
1.26946
1.68639
0.23372
1.63766
2.09188
-0.00421495
0.00229105
-0.0055515
-0.0358427
0.99
2.12603
0.464895
1.3304
-0.0309749
1.06379
1.08606
-0.0230962
-0.0574881
-0.0769514
0.483589
-0.00509653
0.185951
-0.0542022
-0.0741649
1.3827
-0.00928382
0.00130971
1.48618
0.250027
1.89073
-0.0387735
1.14026
0.0525128
-0.0423836
1.70717
1.92479
1.61252
-0.0218528
1.93391
-0.0574255
1.68122
0.132851
1.59718
-0.0446114
-6.33801e-05
1.60507
1.69683
1.6744
1.60851
0.935968
0.316228
1.0491
-0.0643357
1.60929
1.34018
0.146308
0.182639
-0.0167734
0.0759009
1.33984
-0.0692287
-0.050931
1.6558
1.62775
-0.0429822
1.57282
-0.094904
0.356688
-0.0194539
1.66159
1.69689
2.09349
1.64605
-0.00414829
-0.0319716
-0.00160936
-0.0491477
1.88052
0.724062
1.2924
-0.0723346
1.15848
0.0365616
1.88701
0.0216602
1.64571
-0.0180133
1.83059
1.934
-0.0342641
0.41329
1.81889
-0.00426272
1.98452
0.0137831
-0.0052363
-0.0588011
1.44705
0.592682
-0.061757
1.5661
1.97452
1.08815
0.08772
-0.0391934
0.143412
1.62055
1.93227
2.16789
0.712565
-0.00304852
-0.0496758
1.32653
-0.000753779
-0.0192113
-0.0006088
-0.0201785
-0.0508265
-0.0368968
1.74108
0.0013642
-0.00121331
1.30005
0.64773
-0.00259263
0.440882
0.000850153
0.597692
1.33271
1.58916
-0.043932
0.469994
-0.0121152
0.046976
-0.00534096
1.63787
1.75539
-0.056316
-0.0650192
-0.0690756
-0.0186335
1.5856
-0.00528996
-0.0271131
-0.0801434
0.066806
2.03565
-0.0763899
0.219369
1.65992
-0.0105734
0.35212
0.00610671
-0.0651792
-0.00479322
-0.00140072
2.02121
1.11011
-0.0617897
0.13023
1.13459
1.54871
1.32877
0.0510249
-0.0454529
-0.0295326
-0.0401109
1.25439
-0.0453299
-0.0351066
-0.000144514
-0.0424791
-0.00218493
-0.0530156
1.46548
-0.0622808
1.62914
1.58599
-0.0611474
-0.0292314
2.07733
1.16373
0.202899
-0.0322141
1.0645
-0.0367765
0.99026
2.02354
0.871215
-0.0421284
-0.0354209
1.44681
-0.0566738
-0.067107
-0.0381757
1.78992
-0.0434133
0.129526
1.0387
0.738822
1.30339
-0.001848
0.835632
-0.0170708
1.65191
-0.0842051
0.517532
-0.0260341
-0.0341896
-0.00132911
-0.00239015
0.000421078
1.79077
-0.0434453
1.08499
0.338972
0.0211618
-0.0469648
0.743575
2.10427
1.84603
-0.00519213
0.683108
0.0162782
0.279837
-0.0481285
0.546283
-0.0666379
-0.00105462
1.2504
-0.0506778
0.0155319
1.77354
1.37415
1.66879
0.0919128
0.0732819
-0.0217144
0.733445
0.0821262
1.74796e-06
1.82317
0.381685
0.642318
0.152071
-0.000113822
-0.0147397
0.000908336
0.602445
-0.000382795
-0.0290639
0.0057609
-0.0407108
1.87846
-5.89733e-06
-0.0454003
-0.070743
1.96326
0.025746
-2.25149e-05
-0.0461719
0.517024
1.24527
-0.0302139
-0.0260074
-0.0133808
1.29851
-0.0329942
0.70277
-0.0275952
-0.0413299
0.395458
1.15441
0.348992
0.658663
-0.00516018
1.35588
1.95548
-0.0247022
0.986545
-0.0566551
2.00319
1.91637
-0.0467666
0.286168
0.231047
1.07586
-0.000360444
1.60492
2.15293
-0.00993366
0.483125
0.752292
-0.000515408
0.0002611
-0.0307296
2.10217
-0.013512
-0.0439005
1.60662
-0.000256544
1.04748
1.66386
-0.0400536
1.82625
-0.0479378
-0.0297314
1.67689
0.72504
1.30016
-0.00550337
1.66666
0.581919
1.59026
-0.0721807
-0.0113312
0.494914
1.82292
1.68137
1.85292
1.62932
0.0709334
-0.0580705
0.185083
1.15346
1.59596
1.9558
-0.0526401
0.910514
2.01029
1.47531
-0.000383244
-0.067773
-0.0331314
0.483303
0.0418819
1.7725
0.786604
1.58998
0.410972
0.0641045
1.60095
0.112052
1.20789
-0.0313178
0.264638
-0.0128892
-0.0320656
-0.0625328
1.94836
-0.0598114
-0.04124
0.0889111
0.644119
0.306296
-0.0409865
0.237083
0.0423388
-0.058547
1.2365
0.687311
1.3762
-0.0371153
1.67833
-0.0472747
-0.000401161
-0.0147712
0.0134197
-0.0524319
-0.0489744
0.00365098
0.784577
1.86103
0.534627
0.278143
-0.00970104
-0.0642512
0.96387
0.00365095
2.00802
0.814621
0.0127697
-0.0392267
0.134074
-0.0125606
-0.025688
-0.00871747
0.0816457
-0.0695272
0.768385
1.90604
1.72685
0.664972
-0.00733553
-0.048561
-0.00302338
-0.0173478
1.28144
-0.0185713
1.20538
-0.0468621
-0.026647
1.87483
1.92093
-0.00035355
1.61878
1.71126
0.456121
0.0115614
0.609735
1.27512
1.91614
1.01801
-0.0297929
1.86798
0.348214
-0.0294301
-0.0391618
-0.0376141
1.9655
0.0136594
1.65142
0.850694
1.83696
0.0368936
1.10763
1.06581
-0.0530714
1.68632
0.123698
1.80026
0.000227647
0.931395
1.21911
1.14334
-0.00113069
0.160815
-0.0049384
-0.0532137
0.92861
-0.0316151
1.0689
0.940387
2.10496
0.0496334
1.81133
0.0356286
0.0308226
0.239194
1.61267
0.368178
0.110604
0.271421
1.32165
-0.00205869
2.06351
0.00175611
0.0695305
0.308581
-0.03997
1.64076
-0.0329569
1.73752
1.34572
0.495586
0.206296
0.522305
-0.000820173
0.178462
1.77074
-0.0488604
0.0813419
0.869818
0.297315
0.113052
0.211333
-0.0255222
1.88158
-0.0444504
0.233714
0.0684023
-0.0683024
1.58233
2.12726
-0.0527978
-0.0687588
0.00915962
0.357009
-5.15177e-05
0.445364
1.92825
1.83725
0.0327959
0.590418
-0.000269246
-0.0615749
1.37325
0.00990796
0.746352
-0.0415341
2.05646
1.29746
-0.0752722
0.00983261
-0.0293026
2.06328
-0.0500171
-0.00261691
-0.0332585
0.482297
-0.053543
-0.0379674
0.398929
1.89151
-0.0860898
1.99275
2.17353
-0.0342804
0.0731931
-0.000143226
-0.00613872
0.0229165
-0.0423213
2.04312
-0.0353842
-0.00903162
1.22202
-0.0629609
1.34032
-0.0148194
0.129651
1.26121
1.24587
-0.0802184
-0.0243902
-0.0666188
1.50843
-0.0489348
0.831501
-0.056896
-0.0195969
-0.0588013
-0.00762885
-0.00779287
-0.0825097
-0.072276
0.0336952
0.0190601
0.42415
-0.00431527
-0.0531036
-0.0603636
-0.0361853
-0.00868027
1.87843
0.188727
-0.0356543
-0.000584548
1.46725
-0.00342633
1.26735
0.0577274
0.228465
-0.0171074
1.32465
0.85246
-0.0665101
-0.0192369
-0.0274157
1.02147
-0.000442186
1.23693
1.46027
0.00450243
0.0351717
0.465376
0.457549
-0.0485697
0.461428
1.36088
-0.0377991
1.17725
-0.0657512
0.0732316
1.12335
1.92009
0.154374
0.00131939
1.57742
1.04014
-0.0431439
-0.052954
-0.0996056
0.0735541
-0.0407104
-0.0140381
1.45645
-0.0752493
0.0132013
1.43599
-0.0128574
-0.0464213
0.71063
-0.00795176
0.562808
1.22009
0.125356
1.13826
-0.0238578
1.84716
-0.036
-0.000513727
-5.17062e-05
0.18462
-0.000372932
-0.027948
0.562986
0.0161505
-0.00102893
-0.0353796
-0.0312174
0.693415
1.6433
-0.00117654
-0.0309443
0.0248981
1.09146
-0.0733819
-0.0336821
-0.0435488
0.305177
0.742667
-0.0162217
-0.0207274
0.0506914
1.32264
1.4023
0.433257
1.25304
1.69361
-0.00740837
1.12947
0.461136
0.157389
-0.0391702
0.0967332
2.16426
0.00667413
-0.0327674
-0.0624919
1.2832
-0.0251605
-0.00181547
-0.0574713
-0.065613
-0.00792673
1.64805
0.821848
1.09083
1.46453
1.26406
-0.0323339
0.553834
1.00501
0.2051
1.60228
0.653305
0.826651
-2.52723e-05
0.989402
-0.0431577
0.613998
0.903308
-0.081042
0.363984
0.32491
-0.037369
-0.0162806
0.215134
0.574028
1.91917
0.588299
-0.000137632
0.895682
-0.0324637
0.880968
0.700482
-0.0265619
-0.0419074
1.03978
1.60477
0.414397
-0.0778948
-0.0461961
0.70348
1.17517
-0.0598875
1.42773
-0.0454102
0.558194
0.112327
1.778
-0.00179383
0.00158284
-0.0102869
-0.0484734
0.0322829
-0.0365616
1.11717
1.41
0.0132932
0.793158
0.0151545
-0.0280069
-4.68952e-06
0.711631
-0.0107828
0.743725
-5.1296e-05
1.20314
-0.0677223
1.39943
0.0151584
1.52766
-0.065299
-0.0234648
-0.00117675
1.62582
-0.0568862
0.294992
0.502577
0.0201793
1.37952
-0.0235761
0.00828667
-0.0507704
-0.00925055
1.65802
-0.0110316
-0.0480289
-0.0357291
-9.5447e-05
-0.0321063
1.42165
0.000515891
-0.0714091
-0.000283638
-0.0041799
1.29971
0.00694221
0.265089
-0.0214894
2.88958e-05
-0.0118332
0.0978199
-0.0525189
0.00144724
-0.025186
0.793399
-0.000265864
-0.045898
0.0925052
0.518744
1.5641
-0.0342402
0.00858854
-0.0726625
-0.0301424
1.19568
1.40283
1.67361
-6.48053e-05
0.630412
-0.0570143
-0.0540293
0.795481
-0.0391286
-0.0266054
-0.0330013
-0.0145663
-0.0415421
-0.0385369
-0.0309766
0.000980765
0.0500344
1.19562
0.023401
0.897218
0.300783
0.205975
0.732757
0.498301
1.03962
0.103871
1.03909
-0.000485305
-0.020455
0.965791
-0.0713709
1.27833
1.21496
-0.0383793
-0.0686494
-0.000160911
-0.0542767
0.164535
-0.0396175
-0.0409132
-0.044228
-0.035967
-0.0645836
-0.0463563
-0.0307698
-0.0160885
-0.0773061
1.04048
-0.0601885
-0.0061397
-0.0707933
0.000436065
-0.0691771
1.40467
1.36545
0.673001
1.75881
0.00561425
0.0489767
-0.054745
0.00122218
-0.00856661
-0.000410777
-2.04553e-05
0.646019
0.390679
-0.000464546
-0.0307897
0.412858
0.708595
-0.0546116
-0.0407066
0.00714665
-0.00861213
0.00179265
-0.00226039
-0.0674392
-0.0347257
1.85103
0.00209438
-0.0318783
-0.0440676
-0.0506317
-0.0306098
-0.0460057
2.0592e-05
-0.0318221
-0.0365584
-0.0626502
-0.0479459
0.320115
-0.035659
0.781932
-0.0553468
-0.00679806
0.061116
1.27104
1.32632
0.993152
0.0643269
-0.0288323
-0.00791122
-0.01333
-0.0515277
-0.0212999
-0.066177
-0.0256826
-0.0172991
-0.00982356
-0.000106006
0.276493
-0.0142011
-0.00130301
-0.000954871
1.92973
-0.0473296
-0.0740229
1.80751
1.87067
-0.0450366
1.83222
1.71977
1.22888
-0.00269568
-0.0346368
1.87775
-0.00190627
-0.001518
-0.001727
-0.0485723
-0.0194448
0.0223782
-0.0461418
-0.0579692
-0.0574907
-0.0144556
-0.000345028
-0.0530551
-0.0210595
2.07938
-0.0483435
-0.0352079
2.07643
-0.0121887
1.97392
1.83152
1.19021
-0.0388711
2.07456
0.323901
1.50149
0.0468385
-0.000705777
-0.0060802
0.00149862
0.203403
1.62891
-0.00574746
-9.67954e-05
-0.0508172
-0.000595367
-0.0721328
0.69758
-0.00047783
1.25999
-0.0522984
-0.0117736
-0.0591827
-0.0405181
0.451078
-0.0132037
1.85549
0.00179071
1.70777
0.0166393
-0.0547414
-6.6881e-05
-0.0748301
-0.0130206
-0.0695587
1.48661
1.60195
-0.000103857
1.86723
-0.054912
-0.000705687
-0.0245016
1.724
-0.0930651
-0.00181132
-0.00140136
0.000275048
-0.000331516
-0.000387649
-0.00285465
1.89944
-0.000934789
-0.00678788
-0.00037525
2.00318
2.1798
-0.013864
-0.0627529
1.28802
2.0659
-0.0612852
-0.052206
-0.000136544
0.0827757
1.66906
1.26801
0.000111151
-0.0415282
-0.0615081
1.75707
-0.0829215
-0.0288892
-0.0286836
-0.0267304
-0.0153741
1.36138
-0.000338078
1.79743
-0.00737436
1.96342
-0.00350378
1.83274
-0.0380091
0.274284
-0.0252075
-4.50875e-05
0.000784783
-0.0194027
-0.0381312
-0.0154767
-3.38559e-05
0.00155455
-0.0072122
-0.0579973
-9.71011e-05
-0.0341249
-0.0326628
0.000648881
0.361861
-0.000911654
1.26065
-0.0539056
-0.0100692
0.00302589
-0.0849521
2.03462
-0.0294774
-0.0220701
-0.0226908
-0.0687807
-0.0435676
1.16948
1.34829
0.0131325
-0.0347863
0.014856
0.425379
1.79048
-0.0688423
1.17328
1.41952
-0.000121857
-0.0681115
-0.0459371
0.00177371
-0.00173774
-0.00219379
0.00126856
-0.01743
-0.0181238
0.0209099
-0.0313386
0.05357
0.626337
-0.0349004
1.24474
0.361296
-0.0872056
-7.11733e-05
0.000641563
1.62418
-0.00366944
-0.0652973
-0.00180786
-0.0656353
-0.0315036
0.971845
0.239769
1.90338
-0.000115099
-0.000277695
-0.059733
0.686133
0.00662246
1.8019
0.367345
-0.0491325
-0.0299341
-0.0575106
0.0363532
1.14207
0.150977
1.66154
-0.0724541
-0.000772926
-0.00564961
-0.0280181
1.45955e-05
-0.00169581
-0.00853247
-0.0291062
0.017496
-0.0649219
-0.000310649
-0.0666894
-0.0614801
-4.23505e-05
-0.000335929
0.00644959
0.000419181
-0.00103173
-0.010283
0.104502
0.000920109
0.223991
-0.029873
1.29214
-0.0569853
-0.0548681
-7.92268e-05
-0.0535992
-0.0630377
-0.00606608
-0.0170792
-1.59526e-05
-0.0150278
-0.000417134
-0.048092
0.18705
0.424195
-0.101642
-0.000154503
0.204939
-0.052821
1.3711
0.990893
1.19997
-0.00430727
-0.0115283
-0.00134203
-0.0154249
1.68976
1.19819
-0.00620355
-0.00691981
0.857987
1.2149
1.90841
-0.000296005
-0.00860993
-0.0230749
-0.000151429
-0.000349272
-0.00030913
-0.00128418
-0.00657578
1.2872
-0.0132205
-0.000785119
0.0177329
0.000488322
0.16261
0.00999278
0.712794
0.000803127
0.516852
-0.0627861
-0.0686972
0.519936
0.412054
-0.000129007
0.567603
1.78505
-0.0661505
1.33292
-0.0700547
-0.01378
1.45917
-0.00435882
1.11814
-0.00630716
0.0381528
-0.0360621
-0.0166167
-0.0352058
0.0003152
-0.000948678
0.0930601
1.7576e-05
-0.029392
-0.0612871
1.8186
0.0245591
0.00552114
1.25775
-2.38411e-05
8.92145e-05
0.0212288
-0.00308832
1.76574
-0.00452627
0.000177496
-0.0371222
0.383375
-0.036324
0.0013325
-0.000393451
0.28769
0.0164765
2.65795e-05
1.58393
1.9918
0.000195961
0.134136
-0.00187314
1.36318
-0.00139962
-0.00727506
-0.000356288
-4.25374e-07
-0.0357931
0.00611466
0.00103532
-0.0915823
-0.0025978
-0.0167889
-0.000295488
-0.00115397
0.020781
1.47911
1.56167
0.0178815
1.01846
0.259805
-8.07241e-05
1.23057
-0.0135678
0.00215143
0.00624085
0.0915621
-0.00124693
0.0828982
-0.00318402
-0.0259518
0.526377
-0.0395152
-0.0309421
0.418419
0.957601
0.457251
-2.92992e-05
-8.39063e-06
-0.0357693
0.670266
-0.0121387
-0.08423
-0.000851502
1.21577
-0.0188169
1.47854
0.863211
-0.0316526
0.565479
-0.00202429
1.27452
0.181929
-0.0615213
-0.000619016
0.00112546
-0.0288694
-0.0338805
-0.0248612
-0.040703
0.463707
-0.01804
0.774797
-0.000470898
0.00755809
-0.00165472
0.309645
0.0710203
0.00408214
-0.000119769
0.0610911
0.690833
-0.0492257
0.0524127
0.0455129
0.287869
0.0392467
-0.00153486
0.000405143
1.40957
1.52966
1.62228
-0.000161011
1.54473
1.38171
1.5497
-0.00606548
-0.000726989
-1.97163e-05
0.776173
1.07311
-0.077577
-0.0713372
-0.0572505
-0.027766
0.298248
-0.0296383
-0.0154328
1.14802
0.00167721
-0.0262272
-0.000125448
-0.0344085
1.56148
-0.0470818
-0.000678953
2.26246e-06
1.7212
1.33094
0.150541
0.633025
-0.0275478
0.128072
-0.032846
0.105409
0.0855433
0.0723915
0.59695
-0.0396147
0.383784
-0.000420211
1.50629
-0.01873
-0.0128811
1.21762
0.0509328
-0.0259143
-0.0633661
0.0910553
0.508139
0.0155699
-0.00027011
1.18413
0.00033745
-0.0290257
0.252939
-0.00102378
-0.0107009
0.00155773
-0.0661363
-0.0512918
0.222421
-0.00107859
0.193647
-0.0293521
0.169218
0.146758
-0.0238873
-0.0400495
0.127506
-0.0582119
-0.0312513
-0.026191
0.930121
-0.0361621
-0.0148383
-0.000368905
-0.050354
-0.0759594
-0.000530694
0.855303
1.44164
-0.056495
-0.0429109
-0.0279033
-0.0171527
-0.000686208
-0.00694678
-0.00625546
0.172465
-0.000842567
0.0383734
-0.0629526
-0.0544574
0.000939554
-0.000683955
0.867819
-0.00763859
0.34435
1.01687
-0.00930427
-0.0738227
-0.0525855
-0.000267724
0.312745
-0.065756
-0.0594918
0.279441
0.534395
-4.57694e-05
0.249058
0.655375
-0.00083371
0.459147
-0.0282437
0.0182474
1.17167
-0.010695
5.31564e-05
-0.000311938
0.988461
-0.0268598
-0.0376731
-0.0608602
-0.0302674
-0.0160338
-0.0211087
-0.0544062
0.410083
1.6528
1.8754
1.28681
-0.000622015
0.866896
0.371057
-0.0341928
-0.06255
0.870846
-0.0660506
-0.0558594
-0.00114904
-0.0533618
1.1135
-0.000270676
-0.0659857
-0.0214668
0.0558812
0.000490426
1.28981
-0.0697117
1.23767
-0.04244
-0.0451231
0.0131376
-0.00156218
1.12387
-0.0309824
-0.0160447
-7.55062e-05
-0.0236289
0.117102
0.495208
-0.022093
-0.000875818
0.601904
-7.53856e-05
0.811972
0.457093
0.000101393
0.85058
-0.0568489
-0.000549698
-0.027072
-0.000609712
0.000523877
-0.00300276
0.936723
-0.0436107
0.000697081
-0.0593262
-0.0286911
1.07385
1.54496
3.64441e-05
-0.0270924
-0.0109166
-0.0204612
1.06476
0.0535272
0.000192624
0.754365
0.426826
1.29503
-0.0191524
0.000718104
0.829805
-0.00319613
-0.0655879
0.0600826
1.68767
-0.0443686
-0.0311951
0.000315696
-0.0129767
1.67352
-0.0611
1.94763
0.564618
-0.0219722
-0.000959664
-0.0364076
-0.0066455
5.12316e-05
-0.0278965
1.64108
-1.11132e-05
-0.0255333
1.66936
-0.000453761
-0.0277004
6.79318e-05
-0.00286025
5.66353e-05
0.151842
0.00269258
-0.00279237
-0.0641303
-0.00180902
-4.52184e-05
2.80155e-05
-0.000311779
-0.0335263
3.77475e-05
-0.00144396
0.0139528
-0.0267693
1.93347
0.183679
-0.0103358
-0.00856245
-1.59561e-05
-0.0318704
2.87847e-05
0.427695
1.19014
-0.00381172
-0.0210191
-0.0131087
0.305695
0.000714073
2.04766
0.00228633
-0.00215451
0.838463
0.0237755
-5.90711e-06
-0.0545181
1.24563
-0.000773422
1.14033
1.27379
-0.0368261
-0.0548887
1.50665
-0.0305846
-0.00300131
-0.0637043
0.801187
0.431235
-0.0527091
-0.000751627
1.59105
-0.00118211
0.0472942
-0.00939375
-0.00416401
1.82919
-1.97777e-05
-3.93451e-05
-0.0439401
0.681577
1.95961
1.23146
2.09956
-0.0100068
1.80477
-0.000988367
0.95708
-0.00552076
-0.00145838
0.575588
-0.0306657
0.395134
-0.000228169
-0.0768041
1.97808
-0.034022
0.0653425
0.00160737
-0.00177171
0.516635
0.00293133
-0.0583102
-9.02661e-06
-0.0288793
-0.000281796
2.018
-0.0336982
-0.049707
0.304835
-0.0217261
0.550961
1.08956
9.07348e-05
0.0125342
0.696256
1.33586
2.05809
-5.42494e-05
-0.00767279
-0.0172358
-0.00254437
0.776003
0.860806
-0.0147907
1.6922
0.444888
0.611978
-0.0278915
1.17905
-0.0634376
-0.000326172
-2.08689e-05
-5.88366e-05
-0.000506493
0.00106384
-0.0445826
-1.34056e-05
0.000889988
0.0162267
-0.000220367
0.782685
-0.0227447
-5.58575e-05
1.97486
0.000219109
-0.000494937
1.54018
2.05448
-0.071845
-0.017054
1.49255
-0.0173088
1.7902
0.263898
-0.000788178
-0.0701875
-0.0240029
0.00288582
0.000600125
1.15029
-4.05527e-05
0.000121886
1.69886
-0.000684765
0.00215331
-0.048744
-0.0432708
-0.057409
-0.000132282
0.293151
-0.0626702
5.65918e-06
-0.0540302
-0.00291496
0.901999
-0.000223632
-0.000264084
-0.00268207
1.65156
-0.0171382
-0.00910941
-0.002819
0.00237122
1.58376
0.0247188
0.453408
1.49188
-0.00124429
1.84534
1.41169
-0.0166358
-0.0695085
0.000193905
-0.0384034
1.79017
0.00375446
-0.000832228
-7.49409e-06
-0.063968
-0.00991421
-0.00105689
-7.91358e-06
1.83193
-4.89222e-05
1.29985
-0.023446
-0.0768138
4.46568e-06
-0.0218192
-0.000629642
1.54277
1.57662
0.461805
-0.00229027
-0.0741892
-0.0554237
0.541642
0.398528
0.761958
-0.0910265
-0.0518129
-0.0768963
-0.000935017
-0.00191289
-0.00127751
-0.00374069
-0.00266826
-0.00316418
-0.00457735
-0.00913762
-0.0642086
-0.00665123
-0.00551122
-0.0674591
-0.000911642
-0.00442131
-0.000185753
2.20818
0.359428
-0.00601067
0.00493414
-0.00517526
-0.000150029
-0.0010995
-0.00740264
-0.00634086
-0.0681063
-1.97956e-05
-0.0767375
-0.00165153
-0.00158959
-0.000150764
-0.0607499
-0.0519395
-0.00861621
1.64327
-0.0139799
1.26012
-0.0618146
1.73346
-0.0821472
-0.0831152
-0.0838658
-0.083618
-0.0829444
-0.0832676
-0.0820722
-0.00075585
-0.0813104
-0.0791968
1.56071
-0.0770763
0.0417808
-0.0699767
-0.00130551
-0.0452414
-0.0325038
-1.60841e-05
-0.0077128
-0.000304761
-0.00402129
0.141305
-0.00190244
0.572781
1.35332
-0.0182443
0.0021416
-0.0640215
0.0062249
-0.011389
-0.0177979
-0.0513393
-0.000430585
2.00849
-0.029097
-0.03609
-0.00906265
-0.00231056
-0.00996764
-0.00624747
-0.0819456
-0.0130751
-0.00379006
-0.0231126
0.214263
-0.000112084
-0.000618502
-0.0101589
0.0649871
-0.00447944
-0.00728815
-0.00531867
-2.23083e-05
8.08653e-05
-0.000936919
0.00016227
-0.00319178
-0.00847168
-0.0074975
1.53036
-0.00165299
-0.00571236
-0.00263273
0.000363823
-4.70573e-05
7.64211e-05
0.846048
-0.0115169
1.3644
-0.0112793
-0.00201106
-5.51537e-05
1.21562
-0.0303624
0.000123144
-0.000498301
-0.000385348
-0.022257
-0.00980375
0.146379
-0.000257693
-0.0243634
-0.0013468
-0.00412059
-0.00243122
-0.0129
0.00284459
-0.0504146
1.49562
-0.0745749
-0.024061
-0.00108951
-0.000293089
-0.0639515
-0.000155521
0.0265756
-0.0096218
-0.0105997
0.0002358
-0.0153644
-0.0190204
-0.0914521
-0.00109029
-4.62357e-05
-0.0426824
-0.000870527
-0.0147348
-0.0139282
-0.0124499
-0.000230939
1.80791
-0.000694556
2.11373
-0.0204337
-0.0157565
0.0154206
-9.22565e-05
-0.000226961
0.123076
0.000140816
-0.00987903
-0.000963748
0.0717146
-0.0167864
-0.000202385
-0.000474498
0.00258003
1.80335
-0.000807131
-0.0409425
0.0120597
1.47595
-0.058752
-0.0531535
-0.000192019
0.0198516
-0.0231807
-0.0850918
-0.00734202
8.85477e-05
0.0185582
1.94333
-0.0516841
-0.000719043
-0.0200025
-0.000434265
1.28477
1.46831
-0.000267991
-0.00312202
0.949005
-0.000667081
-0.0149815
-0.000335563
-0.0011734
-0.0389357
-0.0566345
-0.0685433
0.0972038
-0.00197707
-0.000345077
-0.000543496
-0.0272634
-0.00723273
0.8685
-0.0281559
-0.000339928
1.3796
-0.00162444
-0.0027266
-0.0746044
-0.0174023
-0.0023622
-0.000577291
0.0114505
-0.00421725
-0.0276626
-0.000294911
-0.00170201
0.870849
-0.0158996
0.936713
1.70926
0.00770361
0.000879589
-0.0852964
-0.0172994
1.95717
0.0217905
-0.00412203
-7.32125e-05
1.21379
1.83748
0.692023
0.202156
-0.0631754
-0.000413035
-0.0608592
-0.00137927
0.00079855
-0.0261338
1.19215
-0.0451966
-0.000804042
0.00224356
-0.00275134
0.315815
1.21089
-0.0169372
-0.0570941
-0.00322194
-0.00287424
-0.00304156
1.77867
0.00474863
-0.00143373
-0.000792253
-0.00733316
-0.0377522
0.326091
-0.0128798
-0.00283896
-0.0215314
-0.000252184
0.0224029
1.04903
-0.0757364
-0.00244643
0.0255154
1.24034
-0.00386831
0.408679
1.50687
0.000718854
-0.000127211
0.406027
0.981586
0.539334
0.803953
-0.0661987
-0.00265927
0.000136931
1.16973
-0.0432067
0.00167563
-0.0550448
-0.0249161
-0.0307423
-0.0615497
-0.00456191
0.000143283
1.09924
0.00296628
-0.0610039
1.5702
-0.0393668
1.47159
1.87274e-05
-0.0583761
1.39104
1.96858
0.0222797
-0.0115039
-0.0221868
-0.00150957
-0.00601276
1.38233
0.0186293
-0.0533496
-0.0052404
-0.00183794
-0.00383453
0.00385897
-0.000993696
0.959214
-0.000793349
0.0196013
-0.00499883
-0.00905344
-0.00148099
0.636237
1.17033
-0.0802492
-0.0816277
-0.0825751
-0.00123087
0.00670892
-0.000621411
-0.0810927
-0.0815181
0.763906
1.30297
-0.0810567
0.688744
-0.0277144
-0.0171736
-0.0252669
-0.0798157
0.741063
0.561022
-0.0790218
-0.0135105
1.35746
0.883844
-0.0065104
-0.000125648
-0.00234037
1.7853
-0.00139873
-0.000109878
-0.00580271
-0.00350724
-0.0022263
0.00291022
-0.00411555
0.018607
0.457508
-0.0458667
-0.000134542
-0.0523235
-0.054375
-0.0292733
-0.053125
-0.0804741
-0.0029416
-0.00456233
-0.00669878
-0.01678
1.30782
-0.00495274
-0.007821
0.0834329
-9.23516e-05
1.71706
1.23353
-0.0531727
-0.00577782
-0.00186571
-0.00675209
-0.000503659
1.30117
0.170928
-0.00235672
0.0720909
-0.000225398
0.0622
-0.00247573
0.0539347
0.0464722
1.60429
-0.0276904
-0.000411773
-0.00792759
0.00499312
0.746387
1.01526
-0.0637881
1.14616
1.8248
-0.0107987
-0.0290115
1.10021
-0.00786554
0.17655
1.72842
1.04453
-0.0221548
1.09956
-0.00914607
-0.013384
-0.00261175
-0.00292449
-0.0749313
-2.61764e-05
0.149505
0.126091
0.106995
0.0877333
-0.0342068
0.279121
0.000217638
-0.00894101
0.654952
-0.0201431
-0.000194768
-0.00488867
-0.00910121
-0.0521068
-0.000434816
-0.0220571
0.0578198
2.10419
0.246808
1.32783
0.337902
2.23687
0.217003
0.189781
1.64325
1.71355
-0.0227828
0.618461
-0.000394333
0.146698
0.166091
-0.0104878
0.144786
0.0146064
-0.0606432
-0.0102056
-0.0103574
-0.0120532
0.00113629
-0.0119369
1.13671
0.0164826
0.00612109
0.00104189
-0.0467251
0.00275798
1.5247
-0.00257848
1.09044
-0.0281552
-0.0506024
0.371833
0.490281
-0.0488127
-0.0743046
0.00369568
1.28202
0.901323
0.759221
0.0446868
0.000485706
0.336297
0.304204
0.0033173
-0.000335371
-0.00268836
-0.0103894
0.27248
0.00316923
0.530609
-0.0137075
1.43079
1.25441
-0.0226297
1.30991
-0.000194325
1.66733