/*--------------------------------*- C++ -*----------------------------------*\
  =========                 |
  \\      /  F ield         | OpenFOAM: The Open Source CFD Toolbox
   \\    /   O peration     | Website:  https://openfoam.org
    \\  /    A nd           | Version:  7
     \\/     M anipulation  |
\*---------------------------------------------------------------------------*/
FoamFile
{
    version     2.0;
    format      ascii;
    class       volVectorField;
    location    "25.5";
    object      U;
}
// * * * * * * * * * * * * * * * * * * * * * * * * * * * * * * * * * * * * * //

dimensions      [0 1 -1 0 0 0 0];

internalField   nonuniform List<vector> 
7807
(
(1.06387 0.132156 5.553e-21)
(1.05176 -0.0398223 -9.7257e-22)
(0.983868 0.0961402 -1.13663e-20)
(1.02993 0.063635 1.50748e-20)
(0.999283 -0.000772859 -1.90043e-23)
(0.999972 -4.30723e-06 -6.13776e-25)
(0.982601 0.0772303 -2.1932e-20)
(0.995436 -0.00120115 -3.88597e-24)
(0.9999 -0.000137838 -2.89396e-24)
(1.02165 0.00100561 -6.37688e-22)
(0.999973 -5.94795e-06 6.84523e-25)
(1.00184 -0.00107597 -5.7213e-23)
(0.993124 -0.00139253 1.86747e-22)
(1.01785 -0.00168377 -3.67141e-21)
(1.021 0.00135848 2.70563e-21)
(0.991272 -0.0131517 -5.70824e-22)
(1.06612 0.138593 -1.16787e-20)
(0.990785 -0.00175292 -6.66278e-23)
(1.00171 -0.00851672 2.80322e-23)
(0.976453 -0.0990564 -6.5305e-22)
(1.03224 -0.00399306 -1.26287e-21)
(1.0012 -0.000641232 9.78117e-23)
(1.0163 -0.00305016 2.90899e-22)
(1.00944 0.0275025 -7.47857e-21)
(0.987898 -0.00215571 -3.01212e-22)
(1.05915 0.130023 -5.50669e-21)
(0.99932 -0.000736963 -1.33547e-23)
(1.02128 -0.00172245 1.49865e-21)
(1.00454 0.0135226 -9.41063e-22)
(1.00299 -0.00912948 -3.1145e-23)
(0.986706 -0.0135514 -9.65231e-22)
(0.928029 0.0128374 3.03537e-21)
(1.0161 -0.00370351 1.83104e-21)
(0.999604 -0.00029138 1.91834e-23)
(0.99996 -3.07022e-06 1.81891e-26)
(1.02146 0.000364248 9.33565e-22)
(1.00346 -0.0100301 -1.68397e-23)
(0.987461 0.0757239 -3.46268e-21)
(0.996358 -0.00678591 4.65915e-22)
(0.999772 -2.59951e-05 1.24214e-23)
(0.996714 -0.00702814 -5.0818e-23)
(0.991442 -0.012261 -1.93571e-22)
(1.00645 -0.109776 3.28267e-21)
(1.1495 -0.0400325 7.79718e-22)
(0.999926 -4.82242e-06 3.10886e-24)
(0.999946 -7.81348e-06 -7.49623e-25)
(1.00114 -0.000520876 -5.98185e-23)
(0.996228 -0.00617583 -2.73373e-22)
(0.999949 -1.87675e-05 -7.6334e-25)
(0.98117 -0.0999189 9.56597e-22)
(1.00272 -0.00095551 6.68105e-23)
(1.02105 -0.000937456 -1.54597e-21)
(0.984695 -0.00241497 -1.03746e-21)
(1.00973 -0.028991 -7.90328e-23)
(1.0219 -0.000335649 -5.26751e-22)
(0.995906 -0.00188138 -3.67751e-23)
(1.00167 -0.007908 -2.45263e-23)
(0.995497 -0.000979088 2.38321e-22)
(0.97722 -0.015806 -1.63141e-21)
(0.999591 -0.000253458 -2.37517e-23)
(1.00003 -1.77675e-05 -7.92367e-25)
(1.00359 -0.00105065 7.7017e-23)
(1.01805 -0.00107542 -8.74357e-22)
(1.00199 -0.000937087 5.79358e-23)
(0.999308 -8.93457e-05 2.67667e-23)
(0.987216 -0.0141814 1.47275e-22)
(0.999919 -0.000138242 2.49649e-24)
(1.00001 -1.91201e-06 2.61282e-26)
(1.14282 0.0751678 1.82962e-21)
(0.996417 -0.00584935 -9.05138e-23)
(0.999946 -1.04615e-05 7.21424e-25)
(0.966153 -0.054898 -3.97886e-21)
(0.987975 -0.00254963 1.53517e-22)
(0.980249 -0.0026494 1.97587e-22)
(0.990946 -0.00208436 2.1185e-22)
(0.963672 -0.0227615 -3.63325e-22)
(0.987377 0.0982863 1.82949e-20)
(1.03057 -0.00393869 1.61613e-21)
(1.08049 0.00220943 -2.44005e-21)
(0.949757 -0.0417492 -4.36243e-21)
(0.993311 -0.0016493 -2.87159e-22)
(0.9975 0.0462221 2.09155e-20)
(1.03671 0.00614475 4.02447e-21)
(0.975616 -0.00655132 1.04367e-21)
(0.998751 -0.00203345 -3.96689e-23)
(0.998559 -0.000121664 2.42144e-23)
(0.995042 -0.00169926 3.58186e-22)
(0.984582 -0.00290537 6.60833e-22)
(0.999432 -0.000932978 2.18429e-23)
(0.997063 -0.000259546 9.4535e-23)
(1.00477 0.0153469 7.01167e-21)
(1.18109 -0.021701 -1.24957e-21)
(0.999897 -3.3385e-05 -2.26552e-24)
(1.00133 -0.00666013 -9.11666e-24)
(0.997067 -0.000606123 9.25358e-23)
(0.986381 -0.000886301 -1.52595e-21)
(0.968841 -0.0546558 2.23677e-22)
(1.01147 -0.0279041 2.99762e-22)
(0.998633 -0.00194876 1.24041e-23)
(0.999209 -9.36812e-05 1.00371e-23)
(0.955481 -0.00945118 7.7714e-22)
(1.08104 0.00721437 2.15605e-21)
(0.997188 -0.00074448 -2.27281e-22)
(0.99999 -5.99163e-07 -3.65987e-26)
(1.18361 -0.00930821 -9.46396e-22)
(1.0267 0.028265 -6.70224e-21)
(0.95548 0.0111114 3.47916e-21)
(0.995647 -0.00172904 -1.43938e-22)
(0.999994 -1.74824e-06 1.11476e-26)
(1.02302 -0.0129257 -5.2678e-22)
(1.03326 0.0605221 -1.75142e-20)
(1.02432 -0.0793824 -4.25548e-21)
(0.999992 -2.08539e-06 -2.16345e-26)
(1.02462 -0.0133645 -1.12694e-22)
(1.02378 0.0268598 7.05848e-21)
(1.00033 -0.000471244 -2.89809e-24)
(1.07384 -0.0936298 -2.82697e-22)
(1.02727 0.0161451 -1.58422e-21)
(0.980341 -0.043091 1.78379e-21)
(0.978124 -0.00373701 -2.30265e-22)
(0.963435 -0.00432291 -1.72668e-21)
(1.00037 0.0237746 -1.35058e-20)
(1.01342 -0.108151 -4.49833e-21)
(1.00846 -0.0072704 3.09111e-23)
(0.960768 -0.00565245 6.53985e-22)
(0.999175 -0.00107886 5.07667e-23)
(0.988194 -0.0100209 3.12914e-22)
(1.00222 -0.00753253 2.17238e-23)
(0.999369 -5.80789e-05 -6.12416e-23)
(0.986904 -0.0123872 2.32097e-23)
(1.22073 -0.0361182 -7.6478e-22)
(1.07501 -0.00017518 4.22447e-22)
(0.999501 -0.000404437 2.2003e-24)
(0.999341 -0.000948769 -4.4683e-23)
(0.975249 -0.00556155 2.89294e-22)
(1.03137 0.0540573 6.37512e-21)
(0.996313 0.0175846 2.3714e-20)
(0.999987 -1.14239e-06 -3.44034e-26)
(1.0063 -0.00282679 3.65628e-23)
(0.955865 -0.00552336 -2.33125e-21)
(0.984174 -0.00154619 -8.20601e-22)
(0.984499 -0.062121 -2.94582e-21)
(0.96385 -0.02503 4.94089e-22)
(0.981627 -0.00235337 -2.00364e-23)
(0.959151 0.00800012 1.31508e-20)
(1.01075 -0.0454803 -1.2762e-22)
(1.00983 0.0166066 -3.55329e-21)
(0.9791 -0.0197672 -9.0755e-22)
(0.97884 -0.00197938 2.35313e-22)
(0.999874 0.036529 -6.73476e-21)
(1.02186 0.000827403 2.2973e-21)
(1.16764 -0.0255542 -8.88237e-24)
(0.998705 -0.00159943 -1.232e-22)
(1.14845 0.0672284 1.78625e-22)
(1.03482 0.00571561 -4.18128e-21)
(0.998101 0.0804319 -1.77792e-20)
(0.957407 -0.0269358 1.52411e-21)
(0.99359 -0.000919809 6.12159e-23)
(0.942892 0.0528116 3.19334e-20)
(0.999953 -1.57482e-05 -7.16218e-25)
(1.00089 -0.00703078 6.66751e-23)
(1.00952 0.0302664 5.42265e-21)
(0.999983 -1.35515e-05 4.75317e-25)
(0.998287 -0.00429259 -2.42465e-22)
(0.996785 -0.000557253 -4.34939e-23)
(1.00267 0.0318398 -1.78497e-21)
(1.00128 0.0229984 6.64594e-21)
(0.934204 0.0577688 1.08197e-20)
(0.998042 -0.0041274 -1.32781e-22)
(0.998153 -0.000136316 -4.58981e-23)
(1.00001 -2.50125e-06 -1.92397e-26)
(0.974656 -0.00157337 -2.64856e-21)
(1.00032 -0.000419862 4.08776e-24)
(1.05358 -0.0359533 1.12592e-21)
(1.00656 -0.0030727 2.40314e-22)
(0.976317 -0.00253492 4.50409e-22)
(1.17308 0.000759505 -8.53883e-22)
(1.09722 0.0739256 1.56002e-22)
(0.999897 -4.37642e-05 1.24133e-24)
(0.999576 -0.000477241 -2.61648e-23)
(1.03079 0.067331 -2.68876e-21)
(0.999955 -1.00276e-05 -2.98299e-25)
(0.999941 -4.58792e-06 5.09788e-25)
(0.981697 0.0825891 -1.83124e-20)
(1.05402 -0.0433155 -8.6995e-22)
(1.00955 -0.066253 -2.23811e-21)
(0.982512 -0.0417654 -2.5409e-21)
(0.979172 -0.0043737 6.41964e-22)
(1.0076 -0.0468006 2.60156e-22)
(0.960548 -0.00365795 1.2898e-21)
(0.999982 -1.21478e-05 -1.45156e-25)
(0.969878 -0.0508406 -9.76555e-22)
(1.09948 0.0814291 -4.73575e-21)
(0.997139 -0.00096582 3.22184e-23)
(1.00006 -5.31929e-06 -6.77345e-25)
(1.06846 0.0762434 5.35207e-22)
(0.998996 -0.00024003 7.67033e-23)
(0.987764 -0.01192 4.97831e-22)
(1.00472 -0.044054 8.3724e-22)
(1.00001 -1.57041e-06 -7.21325e-27)
(1.00068 -0.00166874 -1.50607e-23)
(1.028 0.0531786 7.98228e-21)
(1.08582 0.0871981 -6.53515e-21)
(0.995572 0.0701623 -2.39262e-21)
(1.06919 -0.0867821 2.07561e-21)
(1.02839 -0.0754468 9.40809e-22)
(1.12641 -0.123958 -7.68327e-22)
(1.02164 -0.00189268 4.52e-21)
(1.02598 0.0496696 -2.53054e-21)
(0.999892 -6.55329e-06 -3.68064e-24)
(1.00003 -1.58646e-05 1.94319e-25)
(0.978685 0.00272213 -1.29966e-20)
(0.992612 -0.0117777 -1.91828e-22)
(0.999486 -0.000353299 -2.10424e-23)
(0.972458 -0.050107 2.02869e-21)
(0.987592 -0.0105894 -3.67525e-22)
(1.00799 0.0757215 -1.98528e-20)
(1.00496 0.0728083 -4.13849e-21)
(0.981371 -0.0636981 7.72309e-22)
(0.919456 0.0267973 -1.18004e-20)
(0.999057 -0.000287022 -5.78484e-23)
(0.991283 -0.00138365 2.30513e-22)
(0.956312 -0.00788408 9.6275e-22)
(1.0305 0.000296042 -9.38481e-22)
(1.01169 -0.139347 -4.171e-22)
(1.08644 0.130601 -1.14297e-20)
(0.945344 0.0442486 -2.71345e-20)
(1.00005 -8.46398e-05 4.78863e-25)
(1.00845 -0.00668592 1.23654e-22)
(1.02531 0.0184002 8.61693e-21)
(0.996405 -0.00500621 -3.19423e-22)
(1.02976 0.0165275 -1.08223e-21)
(0.999516 -0.00102597 -1.05517e-23)
(0.911728 0.0619636 2.1891e-20)
(0.999538 0.0743359 3.89804e-21)
(0.995092 -0.00140122 2.1762e-22)
(1.00294 -0.00760803 -2.04103e-24)
(0.999774 -3.3092e-05 -2.29672e-23)
(1.12217 0.104114 2.36263e-21)
(0.99995 -5.09132e-06 1.20349e-24)
(0.994828 -0.0095257 1.67173e-22)
(0.93694 -0.020799 1.549e-21)
(0.999944 -1.5643e-05 -2.90919e-25)
(0.998817 -0.00240884 -3.48462e-23)
(0.999613 -0.000999415 1.47614e-23)
(1.06266 0.0461769 6.39179e-21)
(0.999984 -1.79816e-05 6.72026e-25)
(0.997417 -0.000176164 -1.55559e-25)
(0.952457 -0.0417358 5.07768e-21)
(0.942658 0.00700901 -6.66496e-21)
(1.07427 -0.00498903 -5.46439e-22)
(0.930944 0.0379692 1.61436e-20)
(0.999969 -3.46181e-06 -5.5327e-25)
(1.00218 -0.0447759 -1.49507e-23)
(0.99984 -0.000241983 -9.20126e-24)
(0.992844 0.0817228 -1.79752e-20)
(1.00334 -0.000713969 -1.01275e-22)
(0.994345 0.0245613 7.80105e-21)
(1.00215 -0.00914888 6.66199e-23)
(1.00059 -0.00179241 1.10061e-23)
(1.02847 -0.0332164 3.16226e-22)
(1.02156 -0.000946487 -4.18337e-21)
(1.00046 -0.000282451 1.06468e-23)
(0.99983 -2.84472e-05 1.47234e-25)
(1.0004 -0.000379826 2.20121e-23)
(0.996204 -0.00532384 -2.93127e-22)
(1.01712 -0.0691221 2.75259e-21)
(0.999968 -5.39388e-06 3.59277e-25)
(0.959326 -0.0257935 1.0693e-21)
(0.996847 -0.000692205 -1.06102e-23)
(0.99989 -2.68161e-05 2.35241e-24)
(0.999463 -0.000449729 7.05755e-24)
(0.987127 0.0453162 1.90526e-20)
(0.995706 -0.000240698 8.39048e-23)
(0.999529 -4.03412e-05 -5.26577e-24)
(0.968091 0.001756 2.47272e-20)
(0.99869 -0.00229842 -7.34929e-23)
(1.05186 0.0984232 -6.36527e-21)
(0.999824 -0.000220954 1.50358e-23)
(1.00683 -0.0214886 -2.68754e-22)
(1.00001 -1.39847e-06 -1.30016e-26)
(0.98046 -0.0340321 -9.29708e-22)
(1.02993 -4.8733e-05 1.47765e-21)
(1.17464 0.0107875 1.41006e-21)
(0.977308 -0.0172925 1.39859e-21)
(0.99964 -0.000485839 3.14577e-23)
(0.975407 -0.0831358 1.39336e-21)
(0.99744 -0.000112093 3.87612e-22)
(0.999907 -8.87952e-06 1.5732e-25)
(1.00039 -0.000332329 -1.94464e-23)
(0.998052 -0.00301128 1.09063e-22)
(0.994174 -0.000680072 -2.58901e-22)
(1.00255 -0.000853276 -1.10685e-22)
(0.998881 -0.0016194 4.35689e-23)
(0.976929 -0.00610029 1.68381e-22)
(1.02207 -0.0666585 -1.96202e-21)
(0.97794 -0.00474827 6.96633e-22)
(1.142 -0.0318667 -1.89011e-22)
(0.972662 -0.00456253 -8.84926e-22)
(1.00706 0.098653 2.05392e-21)
(1.00257 0.100838 -1.50943e-20)
(0.998708 -0.000563152 -5.63267e-23)
(1.19788 0.00983098 -3.94326e-21)
(0.999988 -1.89054e-06 -1.72519e-26)
(0.997963 -0.00377962 -1.39331e-22)
(0.989798 -0.000516765 1.53805e-21)
(1.00713 0.0246066 4.47797e-21)
(1.03779 0.0107064 -4.02877e-21)
(1.00008 -2.68425e-05 1.75807e-24)
(0.998096 -0.00356217 -1.15652e-23)
(0.972138 -0.00554494 6.67104e-22)
(1.04801 0.0394339 -2.56344e-21)
(0.999118 -0.000981677 3.46064e-23)
(1.0029 -0.000698731 6.62474e-23)
(1.00102 -0.000882341 -4.3144e-24)
(1.12332 0.0265451 1.95341e-21)
(1.22049 -0.049695 -4.81013e-21)
(1.02493 0.123114 9.8973e-21)
(0.998889 -0.000113221 -4.68506e-23)
(1.06355 -0.0410719 1.40481e-21)
(0.999908 -4.82089e-05 -2.20501e-24)
(1.00408 -0.00675313 -1.63597e-22)
(0.999959 -7.86289e-06 -2.0444e-25)
(0.984665 -0.0195245 2.61901e-22)
(0.999739 -4.01125e-05 -4.5117e-24)
(1.01124 -0.0212253 4.48847e-23)
(1.22221 0.0134234 4.35322e-21)
(0.971487 -0.0254664 1.81126e-21)
(1.00803 -0.0209308 5.53136e-23)
(1.00754 -0.00598508 -1.5057e-22)
(0.999478 -5.99961e-05 2.45876e-23)
(1.02524 -0.0171198 3.67486e-22)
(0.996007 -0.0179186 3.56901e-22)
(1.0751 0.0117987 -1.43108e-21)
(1.0577 0.0438211 2.87162e-21)
(1.18261 -0.13347 1.28306e-22)
(1.14667 -0.0502503 -2.51948e-21)
(0.99529 -0.000168148 -4.24807e-22)
(1.0044 -0.00336113 2.12333e-22)
(0.93965 -0.0196352 -5.77968e-22)
(0.927034 0.0549991 -3.30978e-20)
(1.12595 -0.0520556 2.98647e-21)
(1.02545 -0.0103513 -1.69852e-21)
(0.920206 0.03156 -1.62933e-20)
(0.999044 -6.12429e-05 2.30562e-23)
(0.998476 -0.000704538 -1.81e-23)
(1.16446 -0.0364941 -2.43929e-21)
(0.998997 -0.00177459 -2.94185e-23)
(1.01112 -0.0422206 2.76074e-22)
(1.0051 -0.00164155 7.93614e-23)
(0.998063 -0.000183021 -3.76179e-23)
(0.998521 -0.000164442 -5.97898e-23)
(1.03002 0.0239963 5.10064e-21)
(0.999941 -0.000118619 -6.12501e-25)
(1.00044 -0.000230045 -9.51879e-24)
(1.00006 -1.065e-05 1.17206e-24)
(0.997344 -0.000345791 2.13008e-22)
(0.993759 -0.00819015 4.10412e-22)
(0.999988 -1.17062e-06 2.66721e-26)
(0.999126 -0.000140754 6.04817e-24)
(0.978414 -0.0149512 4.73854e-22)
(0.969806 0.00592943 8.20552e-21)
(1.00983 -0.0220588 2.0805e-22)
(0.992712 -0.0109855 7.15473e-22)
(0.961176 0.0467749 3.73853e-21)
(1.00041 0.0237899 1.20579e-20)
(1.06473 0.000747905 -1.09129e-21)
(1.18854 0.0155328 1.26357e-21)
(0.980521 -0.00118486 1.39202e-21)
(1.00435 -0.00388517 -1.018e-22)
(1.00752 0.0400653 -6.76582e-22)
(0.991274 -0.00106007 -5.31744e-22)
(1.03226 0.0959371 2.85846e-22)
(1.00711 -0.0504057 4.2898e-23)
(1.03768 -0.123156 -1.67409e-21)
(1.08107 0.0835544 4.03987e-21)
(1.0343 0.101896 -8.46636e-21)
(0.961542 -0.0215852 2.2668e-21)
(1.03879 0.00876098 -2.54975e-21)
(1.09159 0.135719 1.07203e-20)
(1.04581 0.0983921 1.21224e-20)
(1.02256 -0.00203115 1.41414e-21)
(0.997306 -0.00107913 5.42747e-23)
(0.996184 -0.0017161 5.06492e-23)
(0.999931 -1.44935e-05 -7.03563e-25)
(1.0157 -0.0276467 -1.08827e-22)
(0.991922 -0.000818821 1.24667e-22)
(1.00081 -0.00210411 -1.3639e-23)
(0.999921 -1.26789e-05 -1.41151e-24)
(0.998608 -0.000497018 2.22117e-23)
(0.972399 -0.0816019 -2.31019e-21)
(1.10604 0.0378094 1.26112e-21)
(0.983688 -0.00394394 -8.0001e-22)
(0.998849 -0.0116065 4.54484e-22)
(0.997051 -0.000375595 -1.21795e-22)
(1.06055 -0.0438953 -1.00368e-22)
(0.994246 -0.000780344 -4.17296e-22)
(1.00195 -0.0068166 1.57132e-23)
(1.10532 0.129514 1.71905e-21)
(0.998634 -0.000168095 -1.3902e-22)
(0.999981 -3.55083e-05 -7.22884e-25)
(0.99995 -0.0001449 -5.826e-25)
(1.00004 -8.62426e-05 1.5419e-25)
(0.979438 -0.00527614 3.81636e-22)
(1.02853 0.0219192 -5.97911e-21)
(0.997282 -0.000207672 4.74832e-24)
(1.02152 -0.00896739 1.09916e-21)
(1.02101 -0.14564 3.20775e-21)
(0.989455 0.0706796 -2.95984e-22)
(1.0034 -0.0068883 4.50413e-23)
(1.00587 -0.00436188 -3.92795e-23)
(0.99533 -0.00189318 -1.77683e-22)
(0.99155 0.0456097 -1.86515e-20)
(0.999332 -5.24779e-05 1.71375e-23)
(1.02849 0.127748 -5.00626e-21)
(1.00768 0.0172195 -6.8951e-21)
(0.999911 -1.71974e-05 1.74736e-24)
(1.00486 -0.0512935 -1.30851e-21)
(0.997269 -0.000422098 -1.03904e-22)
(0.988271 -0.0632903 3.63298e-21)
(1.00046 -0.000123975 9.75277e-24)
(1.05995 0.00328916 1.58269e-21)
(1.00628 -0.0155197 3.01735e-24)
(1.00549 -0.0039403 1.00935e-23)
(0.999359 -7.74589e-05 -3.42535e-23)
(1.06765 0.0437587 3.04191e-21)
(1.04371 0.0376153 1.01196e-21)
(1.00716 -0.0692799 2.12577e-21)
(0.978934 -0.0180573 -9.09088e-23)
(0.997935 -0.00322226 -9.08384e-23)
(0.999062 -0.0404008 -2.36347e-21)
(1.14356 0.0573324 -2.09002e-21)
(0.921844 0.0170053 -1.49223e-20)
(1.08903 -0.0796264 -2.15219e-21)
(1.00452 -0.00731991 -1.07765e-23)
(0.999994 -2.39416e-06 -9.73602e-27)
(0.987513 -0.00335827 -6.23601e-22)
(0.998356 -0.000180705 1.33616e-22)
(1.02399 -0.0172926 5.07774e-22)
(1.00246 -0.115471 -1.29067e-21)
(1.19705 -0.00385813 1.73718e-21)
(0.980593 0.06441 -2.36986e-20)
(1.052 0.0365006 4.14019e-21)
(1.12783 -0.111141 3.23896e-21)
(1.06801 0.0828505 1.76346e-21)
(0.998869 0.0230907 2.188e-20)
(1.01785 -0.00238324 9.55641e-22)
(1.00099 -0.00204419 3.55424e-23)
(1.02047 0.0558953 4.00409e-21)
(0.999175 -0.00173587 6.24956e-23)
(0.999846 -0.000127751 2.96132e-24)
(0.990218 -0.00058091 1.81164e-22)
(1.00007 -2.6439e-05 3.1611e-25)
(1.1373 -0.132598 1.70184e-21)
(1.0032 -0.0171407 -2.19696e-22)
(0.982773 -0.0336143 1.64119e-21)
(1.0016 -0.00140563 2.6459e-23)
(1.06292 0.0727036 9.23723e-21)
(0.99868 -0.000156825 -1.02461e-23)
(0.999979 -2.79821e-05 -4.76284e-26)
(1.02981 -0.128805 1.80852e-21)
(1.00141 -0.00121407 -1.55038e-23)
(1.10589 -0.00369013 -3.42806e-22)
(0.957949 -0.00881522 3.80034e-22)
(0.945965 -0.00936406 1.1591e-22)
(1.20075 0.0598244 7.10633e-23)
(1.02297 0.0175134 -2.25695e-21)
(1.01959 0.00508591 1.36842e-21)
(1.01837 0.00478875 -5.3572e-22)
(0.999848 -2.08766e-05 7.58231e-25)
(1.11422 0.0372662 9.45255e-22)
(1.07546 0.016017 1.63756e-21)
(0.999539 -0.000519756 1.2084e-23)
(0.984147 -0.00454539 9.19959e-22)
(1.0005 -0.000179283 -1.08742e-23)
(1.01119 -0.0194657 -1.79724e-23)
(1.00788 -0.0280248 -1.60481e-22)
(1.00391 -0.00125594 1.0847e-24)
(0.999297 -0.00106905 -6.22865e-23)
(1.12083 0.0958578 -7.36513e-21)
(0.999982 -1.62034e-05 -6.88787e-25)
(1.00016 -9.26335e-05 -2.14583e-24)
(1.00169 -0.000955987 -1.4053e-24)
(0.985619 -0.00122935 5.74358e-22)
(1.01792 -0.0107411 6.8988e-22)
(0.982304 -0.0277459 -2.17187e-21)
(0.979966 -0.00237703 -3.37191e-22)
(1.0132 -0.0654719 1.26219e-21)
(1.04351 -0.156278 -3.51839e-21)
(1.02652 -0.0303865 -1.0239e-22)
(1.02439 0.0569411 -2.29262e-20)
(1.21195 0.0194069 -2.94477e-21)
(0.993989 -0.00180592 -2.81895e-23)
(0.910359 0.0553147 2.58113e-20)
(0.97152 -0.0571936 3.53822e-21)
(0.993419 -0.00871015 1.32695e-22)
(0.982134 -0.00186845 5.68865e-22)
(0.997181 -0.017307 -9.11815e-23)
(0.988508 -0.000912669 8.44578e-22)
(0.990675 -0.00273064 -1.77004e-22)
(1.02583 -0.0121431 -1.11069e-21)
(1.13495 -0.0557964 -6.92161e-22)
(0.999978 -3.27602e-05 -1.00819e-25)
(1.02204 -0.0118053 -1.42257e-22)
(0.999924 -1.83276e-05 -8.76167e-25)
(1.00205 0.0838842 4.76319e-21)
(1.14441 0.0817993 4.34409e-21)
(0.995674 -0.00136595 5.78792e-23)
(0.991631 -0.000614334 -7.20851e-22)
(0.999853 -3.16515e-05 -5.11506e-24)
(0.997347 0.0419927 1.38723e-20)
(1.02148 0.0992675 1.12806e-20)
(1.117 0.0285744 -1.01757e-21)
(1.12719 0.12336 -6.24321e-21)
(0.97126 -0.0611702 -1.59513e-21)
(0.998785 0.0055382 -2.0211e-20)
(0.999945 -0.000104669 1.70635e-24)
(1.04739 -0.0259752 6.37926e-22)
(0.99218 -0.000495872 -2.35638e-23)
(1.08927 0.071168 -1.78675e-21)
(0.939433 0.0370864 -1.95053e-20)
(1.14771 0.0500656 1.83452e-21)
(1.04677 0.029924 6.99447e-22)
(0.999518 -0.0115105 -1.08327e-22)
(0.999836 -5.54817e-05 -5.16579e-24)
(1.12987 0.107558 2.50458e-21)
(1.2068 -0.0281113 8.78592e-22)
(0.993636 0.0486177 -4.47428e-22)
(1.09836 -0.00515991 1.29464e-21)
(1.02795 0.0460644 6.66836e-21)
(0.993717 -0.00150997 -8.20403e-23)
(0.986853 0.0655754 6.50627e-21)
(1.02618 0.0946153 3.92429e-21)
(0.991797 -0.00227701 -4.93913e-22)
(0.99314 -0.00218613 -1.85837e-22)
(1.14139 0.0971935 6.38899e-23)
(0.947861 -0.00837273 -2.30696e-21)
(0.999927 -0.000121418 -2.62859e-24)
(0.987981 -0.00380463 8.18073e-22)
(0.939594 -0.0144765 1.86111e-21)
(0.984689 -0.0801758 -4.86687e-22)
(1.00866 -0.0022765 -7.17223e-22)
(1.00756 -0.00543246 3.74e-23)
(0.999892 -0.000151 -4.60644e-24)
(1.023 0.105258 -1.70783e-20)
(0.999877 -0.0104325 2.08214e-23)
(0.999917 -4.17363e-05 9.60331e-25)
(1.0218 -0.060817 1.74583e-21)
(0.999573 -0.000328512 8.92871e-24)
(0.999821 -4.66265e-05 3.92368e-25)
(1.00455 -0.0113077 -4.65496e-24)
(1.05138 0.0718544 1.2753e-20)
(1.02013 -0.114011 2.45783e-21)
(0.954131 0.0414755 1.15768e-20)
(1.00005 -7.74006e-06 -8.22743e-25)
(1.05655 0.0759798 -1.32708e-20)
(1.01387 -0.0516255 1.22005e-21)
(0.999931 -0.000150787 -7.49045e-25)
(1.00002 -4.91703e-06 -1.7674e-25)
(1.00253 0.0100836 -1.13163e-21)
(1.04773 0.0615797 4.72159e-21)
(0.996439 -0.001855 5.30253e-23)
(1.04424 0.0475383 -5.96129e-21)
(1.00002 -1.58664e-05 1.38271e-25)
(1.04403 0.0527967 -8.33734e-21)
(1.16635 -0.136792 4.27956e-21)
(0.991513 -0.0019104 5.2816e-22)
(0.999223 0.0105737 -2.80654e-20)
(0.973058 -0.0468054 2.29719e-21)
(1.13157 0.117005 5.97628e-21)
(0.982424 -0.00175469 3.05592e-22)
(1.04842 0.0560388 1.08992e-20)
(1.05243 0.0652184 -3.41597e-21)
(0.984569 -0.00615651 1.42124e-21)
(0.979616 -0.00737417 -1.04517e-21)
(0.994994 -0.00881901 4.18202e-22)
(0.997666 -0.000429406 -3.67514e-23)
(0.999832 -0.000142511 7.89339e-24)
(0.999676 -0.00994734 -3.67023e-23)
(1.0367 0.0905593 -1.97791e-21)
(0.999977 -2.52609e-05 2.11718e-25)
(1.03995 0.0451003 7.89993e-21)
(1.03625 -0.113448 4.04507e-21)
(1.00272 0.053587 5.55239e-21)
(1.0399 0.0406269 -8.91826e-21)
(0.940047 -0.0126796 -2.83609e-22)
(0.956554 0.0585007 -2.47933e-20)
(0.998627 -0.000884566 2.46363e-24)
(1.01537 -0.0253494 -2.43104e-23)
(1.05599 -0.0797017 1.15102e-21)
(0.988881 -0.000765429 -5.92123e-23)
(0.994254 -0.0024687 2.49793e-22)
(1.01097 -0.0530551 -1.03276e-21)
(1.05409 -0.0172356 -7.97561e-23)
(0.928561 0.0288603 3.03254e-20)
(1.00003 -1.50118e-05 7.69405e-25)
(0.998378 -0.000931911 4.49566e-23)
(1.01917 -0.0786468 6.99333e-23)
(1.00001 -3.87719e-06 1.04489e-26)
(1.00183 0.0899993 2.36323e-21)
(1.00144 -0.00104751 0)
(1.00001 -5.1808e-06 5.60112e-27)
(1.00015 -7.18176e-05 4.9096e-24)
(1.00032 -0.000102171 1.22406e-25)
(0.985075 -0.018151 1.36224e-21)
(1.02162 -0.016255 -3.60576e-22)
(0.998704 -0.000668368 6.85612e-23)
(0.999939 -8.80848e-06 1.45946e-24)
(0.993904 -0.00223851 1.31256e-22)
(1.00391 -0.011782 2.36783e-23)
(0.989384 -0.123322 -3.48477e-21)
(0.971254 -0.00212372 1.57511e-22)
(1.01723 -0.00956905 1.29697e-21)
(0.999985 -1.09168e-06 2.26125e-25)
(1.11509 -0.162491 5.14661e-21)
(0.988728 -0.00227923 -3.10138e-22)
(1.12783 0.088407 -3.70224e-22)
(1.00014 0.00960232 -3.96799e-21)
(1.00099 -0.00310049 2.21875e-24)
(1.11545 0.0771322 -6.60583e-21)
(1.00012 -7.72141e-05 5.00315e-26)
(0.988993 -0.00276823 3.9506e-24)
(1.02186 0.000772697 -2.66529e-21)
(0.994241 -0.00289884 -1.02562e-22)
(1.05206 0.085649 -7.40989e-22)
(0.988477 -0.0050227 -6.38406e-22)
(1.0488 -0.0232713 -6.9777e-22)
(1.02224 0.00138073 -2.88922e-21)
(1.05716 0.0387272 -1.80732e-21)
(1.0066 -0.0142288 -3.90469e-23)
(0.991083 -0.00307383 1.43571e-23)
(1.07529 0.072641 5.63784e-21)
(0.976724 -0.0884792 -2.81133e-21)
(0.99067 0.0867226 1.97663e-20)
(0.992042 -0.00371794 -6.12268e-22)
(1.0537 0.111124 -1.26283e-22)
(0.992082 -0.00315196 1.64607e-22)
(0.999054 -0.000362264 -4.62264e-24)
(1.04641 0.0267222 1.93997e-21)
(1.0139 -0.0290414 1.75837e-22)
(1.03399 0.00296502 3.91363e-21)
(1.00149 -0.000732869 1.78225e-23)
(1.00001 -4.07003e-06 2.65068e-27)
(1.00411 -0.142354 1.32136e-21)
(1.10359 0.122839 -9.20501e-21)
(1.0012 -0.00301215 -1.04118e-23)
(1.1247 0.0792356 5.83072e-22)
(0.989153 -0.00466531 -4.1958e-22)
(1.10513 -0.171062 -1.99772e-21)
(1.04641 -0.0403629 -1.93085e-22)
(0.981787 -0.0296708 1.24936e-21)
(0.998603 -0.000751724 -3.02013e-23)
(0.994867 -0.000376049 -9.88265e-23)
(0.970117 -0.0740539 -1.57318e-21)
(0.973812 -0.00597981 1.39001e-21)
(0.991646 -0.0028335 4.10488e-22)
(0.999868 -0.000355726 6.02347e-24)
(0.98294 0.0909206 -2.48622e-21)
(1.1125 0.0686779 3.94305e-21)
(1.02277 -0.00992637 -4.34928e-22)
(0.999841 -0.000108147 4.8193e-24)
(1.02442 0.0888073 -7.52039e-21)
(1 -1.85696e-05 -7.58826e-26)
(0.999854 -9.60385e-05 8.9553e-24)
(1.10377 0.0670108 3.45015e-21)
(1.00956 -0.0240662 -1.68787e-22)
(1.1134 0.110933 7.28004e-21)
(1.02164 -0.00257814 1.05067e-21)
(1.0156 -0.0119544 -5.95404e-23)
(1.09856 -0.0646021 1.41333e-21)
(1.06223 -0.141526 4.05002e-21)
(1.20101 0.0516659 4.51152e-22)
(1.00103 -0.000739999 -3.67829e-23)
(0.957789 -0.0104743 -1.24248e-22)
(0.999984 -4.41123e-05 -2.3872e-25)
(1.00426 -0.0102464 6.96708e-24)
(1.05635 0.0820734 4.82904e-21)
(0.985451 -0.00575221 9.8299e-22)
(0.997655 -0.00108175 6.2557e-23)
(1.01418 -0.0407546 -8.61781e-22)
(0.99836 -0.000801977 2.86399e-24)
(0.999639 -0.000895928 1.97873e-23)
(0.969602 0.00310448 5.12475e-21)
(0.991534 -0.00401471 -3.48627e-22)
(0.999536 -0.000570233 -4.12019e-23)
(0.999993 -2.56504e-07 -7.23847e-27)
(1.01553 0.00600102 5.98978e-21)
(0.972453 -0.0236165 -2.50476e-22)
(0.999723 -0.000432334 1.28899e-23)
(0.997735 -0.000545153 7.4949e-23)
(1.02101 0.0193996 2.48134e-21)
(1.06467 0.0113083 4.13873e-22)
(0.96176 -0.0191384 -1.42337e-21)
(1 -1.16835e-05 -1.03507e-25)
(1.00105 0.0103628 1.6476e-20)
(0.986539 -0.015602 -9.10518e-22)
(1.06321 0.0662408 -9.18464e-21)
(1.01133 -0.00114913 -1.16839e-21)
(1.01315 -0.00116824 2.73079e-21)
(0.971169 -0.00807744 1.94189e-21)
(0.999926 -4.52701e-05 -6.45742e-25)
(1.02161 0.000307278 -5.50827e-22)
(1.06965 0.00888203 -5.01253e-22)
(1.17797 0.0565746 8.09261e-22)
(1.04321 -0.107414 9.31673e-22)
(1.03408 0.0849337 5.88688e-21)
(1.00487 -0.00151554 -1.73125e-23)
(1.08188 0.076698 -7.75724e-21)
(0.999521 -0.0135503 -1.6672e-22)
(1.01752 -0.0582996 -2.83312e-21)
(0.999692 -0.000109522 -8.66477e-24)
(1.00254 -0.018308 4.39094e-22)
(0.999904 -0.000342009 3.80928e-24)
(1.04276 0.0326249 -5.81902e-21)
(1.07223 0.121266 -1.7576e-20)
(0.998753 -0.000923401 2.37269e-23)
(1.01697 -0.0121114 -1.82728e-23)
(0.985485 -0.0026974 3.27033e-22)
(1.04692 -0.0926346 4.48816e-22)
(1.041 -0.0989439 -2.0265e-21)
(0.998457 -0.000606232 4.41554e-23)
(1.044 -0.0266512 -1.50782e-22)
(0.987075 0.00133169 -8.49638e-21)
(1.17433 0.0377447 1.85358e-23)
(0.999953 -0.000128694 4.34954e-24)
(1.06012 0.00844705 -1.4369e-21)
(0.997114 -0.00808888 -2.29748e-22)
(0.998977 0.00111206 1.86225e-20)
(0.989243 -0.00392541 5.65603e-22)
(0.995238 -0.0256104 -3.3123e-22)
(1.01676 -0.0358995 -8.84601e-24)
(0.993799 -0.0264842 -2.47081e-23)
(0.997993 -0.020211 -8.31137e-22)
(0.993477 -0.00243665 8.95137e-23)
(0.998689 -0.0133908 4.61755e-22)
(1.00151 -0.00571615 -4.59379e-24)
(1.05562 -0.0209097 2.23137e-22)
(1.00008 -1.96897e-05 -2.55404e-24)
(1.20637 -0.0942304 -1.85787e-21)
(1.15991 -0.00391284 -5.59436e-22)
(1.01121 0.101062 1.39721e-20)
(0.963874 -0.0180795 2.09567e-21)
(1.10462 0.106263 -3.72376e-21)
(1.00159 -0.000571354 6.68899e-23)
(1.0731 -0.0777464 -7.55055e-24)
(1.00365 -0.038332 -9.44326e-22)
(1.01776 0.0335161 7.31231e-21)
(0.993857 -0.00314421 2.4954e-22)
(1.00008 -0.000147911 1.19022e-24)
(0.987151 -0.0163869 1.19701e-21)
(0.995796 -0.00860546 -1.59415e-22)
(1.04099 -0.0242035 6.2736e-22)
(0.976851 -0.00413366 -1.12853e-21)
(0.97879 -0.00658408 3.55509e-22)
(1.12945 -0.0330846 -3.05432e-22)
(0.988871 -0.00154835 -5.00323e-22)
(1.01414 -0.037603 6.40862e-22)
(0.986474 -0.0854115 2.10581e-21)
(1.00001 -6.11672e-06 3.6012e-27)
(1.05692 -0.0131978 1.60339e-21)
(0.98856 -0.0759133 -5.58898e-21)
(1.11098 0.092324 3.26749e-21)
(1.09929 -0.0722684 -2.59614e-21)
(1.03251 0.00248895 3.16732e-22)
(1.02785 -0.109654 -5.11721e-21)
(1.03148 0.113402 3.72216e-21)
(1.0342 -0.0355084 -2.71767e-22)
(0.970686 -0.00701726 -1.14343e-21)
(1.01398 -0.0478251 -1.52039e-21)
(0.98998 0.00188487 8.18443e-21)
(1.16675 -0.100684 1.20127e-21)
(0.988723 -0.00349912 -1.76684e-22)
(1.03062 -0.139575 -3.8924e-22)
(1.02676 -0.0691479 2.00687e-21)
(1.04754 -0.127015 -6.64997e-22)
(1.04404 -0.0851538 -2.25751e-21)
(1.07503 0.0658729 7.05887e-21)
(0.99766 -0.001279 3.65799e-24)
(1.00664 0.0380921 2.7339e-21)
(1.00662 -0.0014554 1.21856e-22)
(0.999671 -0.000434974 -1.73525e-23)
(0.998934 -0.00197732 1.67318e-22)
(1.05591 0.00177113 -4.43083e-22)
(0.987136 0.000211523 2.39303e-22)
(1.00118 -0.00610999 -2.19345e-23)
(1.01758 -0.0539344 3.95783e-22)
(1.0211 0.0221933 -4.13384e-21)
(1.00002 -5.75733e-06 -3.5925e-26)
(0.980721 -0.00691293 8.23962e-22)
(1.02024 -0.00920653 9.50875e-22)
(1.07525 -0.0403835 -7.79067e-22)
(1.00674 -0.000749821 6.95113e-22)
(0.99861 -0.00172919 2.72279e-23)
(0.982378 -0.0387371 5.64064e-24)
(0.997749 -0.00779482 -8.97293e-23)
(1.00002 -4.71277e-06 3.8913e-25)
(0.975499 -0.0459247 -3.90318e-21)
(1.04359 0.0795503 -2.02334e-21)
(1.01863 -0.0312105 2.10528e-22)
(0.98557 -0.00335512 -5.76005e-22)
(1.00145 -0.000382597 -2.3685e-23)
(1.02386 0.0239456 5.44001e-21)
(0.99967 -0.000535547 -8.17957e-24)
(0.998979 -0.000495322 -3.19432e-24)
(0.999717 -0.000124081 -8.49868e-24)
(0.999306 -0.0018777 -4.89046e-23)
(1.16482 0.0575164 1.26231e-21)
(1.02746 -0.0356901 -1.16112e-21)
(1.00697 -0.0180562 -9.25728e-23)
(0.983821 -0.00557461 -2.88682e-22)
(1.00003 -4.23618e-05 3.24883e-25)
(1.08344 -0.133586 5.57616e-21)
(1.20794 -0.0115248 6.62465e-23)
(1.09095 -0.144278 -2.66026e-21)
(0.995994 -0.033164 -6.36855e-22)
(1.01218 -0.00883698 7.88569e-22)
(0.999835 -7.12169e-05 3.36477e-24)
(0.989258 -0.010294 -4.32137e-22)
(0.954715 -0.0449773 -2.03311e-21)
(1.1633 0.0396244 3.86438e-22)
(1.00173 0.0516664 -1.8626e-22)
(0.998905 -0.00285582 4.1908e-23)
(0.942586 -0.0269874 9.64349e-22)
(0.995919 -0.00222082 -2.3105e-22)
(1.03208 -0.0326843 2.34612e-22)
(1.08767 0.0635033 7.04408e-22)
(1.00034 -0.000117792 -1.40961e-23)
(0.99987 -0.000174196 -2.03856e-24)
(1.13914 0.103826 6.27172e-22)
(1.15857 0.0203995 2.58368e-22)
(1.01631 -0.0149681 2.56894e-22)
(0.997491 -0.00139924 1.13943e-22)
(0.998394 -0.000265408 -9.27385e-24)
(0.96232 -0.0467647 5.09714e-22)
(0.999851 -0.000293692 -7.46024e-24)
(1.01638 -0.0329656 -6.68354e-22)
(0.992804 -0.000465643 9.77725e-22)
(1.00032 0.0117016 -3.29323e-21)
(1.04711 0.0851311 -1.0604e-21)
(1.06732 -0.0717308 1.144e-21)
(0.99309 -0.0765872 2.03605e-21)
(1.00546 -0.00135002 3.29763e-22)
(1.0132 -0.0243263 1.59321e-22)
(1.15043 0.00312764 -5.12217e-22)
(0.992372 -0.0860424 -1.2845e-21)
(1.01713 -0.0460188 8.87601e-22)
(0.999998 -5.80016e-06 2.62349e-26)
(1.13721 -0.0127232 -1.05592e-21)
(0.986711 -0.000834636 9.5702e-23)
(0.99111 -0.0965334 2.58126e-21)
(1.01807 -0.0286103 4.78664e-22)
(0.959854 -0.0100068 -2.51766e-22)
(0.999675 -0.000233253 -4.99522e-24)
(0.99749 -0.000985347 -4.90502e-23)
(1.03599 0.0384589 6.89815e-21)
(0.972761 -0.00752621 -4.14765e-22)
(0.999989 -1.3624e-06 7.54049e-26)
(0.997866 -0.000289077 -9.70361e-23)
(1.16235 -0.0850447 -6.69526e-21)
(0.999873 -3.34573e-05 7.39859e-24)