/*--------------------------------*- C++ -*----------------------------------*\
  =========                 |
  \\      /  F ield         | OpenFOAM: The Open Source CFD Toolbox
   \\    /   O peration     | Website:  https://openfoam.org
    \\  /    A nd           | Version:  7
     \\/     M anipulation  |
\*---------------------------------------------------------------------------*/
FoamFile
{
    version     2.0;
    format      ascii;
    class       volVectorField;
    location    "37.5";
    object      U;
}
// * * * * * * * * * * * * * * * * * * * * * * * * * * * * * * * * * * * * * //

dimensions      [0 1 -1 0 0 0 0];

internalField   nonuniform List<vector> 
19930
(
(0.997606 -0.000232772 3.45178e-23)
(0.990203 -0.000756421 -4.17916e-22)
(1.03486 -0.00484035 4.74976e-23)
(1.0003 -6.59383e-05 -2.71613e-24)
(1.00059 -0.0114793 7.08761e-23)
(1.00012 -0.0121922 -6.96969e-23)
(1.04003 -0.219191 -8.78207e-22)
(1.23123 0.0922 -9.79401e-21)
(1.00364 -0.108515 -2.10133e-21)
(1.24047 0.0872947 7.07084e-21)
(1.05587 -0.199281 -2.71e-21)
(1.35795 0.00585505 1.55391e-22)
(0.979229 -0.0685274 -2.67424e-22)
(0.997408 -0.000279014 -2.85619e-23)
(0.994666 -0.00390551 -1.86216e-23)
(1.00029 -8.00042e-05 -2.47826e-24)
(1.32628 -0.126214 -2.57015e-21)
(1.19234 -0.00142734 -4.90646e-21)
(0.998109 -0.1632 -1.3234e-21)
(0.992468 -0.000358617 3.67781e-22)
(1.01862 -0.126033 2.92313e-21)
(1.36001 0.0109481 2.06608e-22)
(1.25116 0.0939814 -4.97367e-21)
(1.14975 -0.255804 -2.14302e-21)
(1.03238 -0.00226831 1.61409e-24)
(0.996902 0.215848 -2.66e-20)
(1.01168 -0.00347525 5.73649e-23)
(0.990028 -0.0746543 9.48116e-22)
(1.2044 -0.248673 -1.97504e-21)
(1.00128 -0.165248 4.81138e-21)
(0.998335 -0.00262841 2.0633e-26)
(0.878417 0.0337271 4.59651e-20)
(1.34569 0.0957685 2.0158e-21)
(0.98847 -0.0427307 1.00765e-22)
(1 -0.00200582 6.73539e-24)
(0.998399 -0.00285046 6.96839e-25)
(1.24127 0.130797 -1.07893e-20)
(0.999944 -4.36354e-06 -5.031e-24)
(1.019 -0.0258066 1.47744e-22)
(1.20149 -0.0124821 -1.3874e-21)
(1.05537 -0.0113559 2.83383e-23)
(1.34393 0.191286 4.38986e-21)
(1.08026 0.0945647 -6.91034e-21)
(1.01038 -0.00401813 -4.78103e-23)
(0.994885 0.20639 1.08278e-20)
(0.978134 -0.00161715 -2.307e-22)
(1.18135 0.0120434 -1.72265e-20)
(1.34571 -0.0601011 2.55743e-21)
(0.999589 -0.000111478 -5.13032e-24)
(0.963669 -0.0591654 8.08515e-23)
(0.999878 -0.00213246 -1.63632e-23)
(1.10649 -0.0136002 5.05565e-23)
(1.22588 -0.181886 7.38306e-21)
(1.0003 -0.00484138 -2.62619e-23)
(1.26231 -0.193724 -1.74391e-21)
(0.940302 -0.0205227 2.67134e-23)
(0.971204 -0.0389678 2.94276e-23)
(0.998142 -0.00344683 -1.34059e-24)
(1.01123 -0.0634255 -1.4493e-21)
(1.32626 -0.120818 1.99789e-21)
(0.940995 0.0707494 2.39834e-20)
(0.967579 -0.0046534 -2.40175e-22)
(0.987482 -0.00360242 6.48615e-23)
(1.25776 0.0711474 -3.83207e-22)
(0.99944 -8.06793e-05 3.31036e-23)
(0.994034 -0.0100238 3.57193e-24)
(0.993975 0.144504 7.10901e-22)
(0.993334 -0.010446 1.59431e-23)
(1.15744 -0.119959 -3.02769e-21)
(1.01411 0.216844 9.90897e-21)
(1.05312 -0.0586657 -9.72186e-22)
(1.31854 -0.153136 -3.76806e-21)
(0.995147 -0.00393732 -8.66682e-25)
(0.977657 -0.0496052 6.77893e-22)
(0.999587 0.0172457 -1.02164e-20)
(1.09556 -0.121545 1.9569e-21)
(1.01184 0.201065 4.51276e-21)
(0.958307 -0.00557334 -3.16462e-23)
(1.19737 -0.0114674 9.1213e-22)
(1.00712 0.069057 1.42784e-20)
(0.995155 -0.0104953 7.64683e-23)
(1.00268 -0.00579055 -3.56128e-23)
(1.18511 -0.248533 1.57622e-21)
(1.00511 -0.105167 1.75363e-21)
(0.971267 -0.0036839 2.65972e-22)
(1.07436 0.0899954 3.31764e-20)
(0.983081 -0.0639929 -4.78297e-22)
(0.755083 0.12564 4.46733e-21)
(1.24766 0.0688734 -3.98802e-21)
(0.957104 0.223872 1.7623e-20)
(1.20515 0.0242596 -5.93122e-21)
(1.00038 -9.61857e-05 2.79632e-24)
(1.00003 -0.000396926 8.12777e-24)
(0.901575 0.010321 -1.30864e-20)
(1.34515 -0.0667318 -1.25841e-21)
(0.987823 -0.00382136 5.55711e-23)
(0.921103 0.00663446 2.00346e-20)
(0.999129 -0.00574307 1.64143e-23)
(1.06175 -0.19329 -1.23623e-21)
(1.14321 0.0251111 -7.9356e-21)
(0.948609 0.231644 -5.23615e-20)
(0.97045 -0.0120007 -4.65222e-24)
(0.921602 0.211497 -5.82645e-20)
(1.21427 -0.16673 8.72023e-21)
(1.14911 -0.00586954 -1.51433e-21)
(1.1306 -0.122805 2.64442e-21)
(1.0877 0.228705 1.68302e-20)
(1.20508 -0.142555 3.25788e-21)
(0.990086 -0.000430874 6.18209e-22)
(1.14525 0.247241 3.39022e-21)
(1.21128 -0.253054 -6.80971e-21)
(1.03377 -0.218195 -1.94736e-21)
(0.970639 -0.0300867 1.63607e-22)
(1.04471 -0.0301065 4.45827e-22)
(1.09915 -0.113141 8.4749e-22)
(1.00007 -0.000149036 -2.50187e-24)
(1.1307 0.144758 1.51121e-20)
(0.995895 -0.00983325 -3.14614e-23)
(1.20314 -0.178442 1.69619e-21)
(1.00562 0.0491188 -3.33765e-20)
(1.00037 -7.25391e-05 5.32162e-25)
(1.034 -0.132232 2.06795e-21)
(1.23676 -0.00858722 -1.64938e-21)
(1.01195 -0.0726556 -2.00735e-21)
(0.988398 -0.0404598 -6.10449e-23)
(1.19443 -0.00158213 2.39015e-21)
(1.36746 0.0529958 -6.73011e-23)
(0.989792 -0.0718072 7.53774e-22)
(0.862831 0.0402817 -1.35574e-20)
(1.1233 0.152507 8.17078e-21)
(0.984353 -0.0827416 -7.66996e-22)
(0.963292 -0.0567678 -2.97222e-22)
(1.05561 -0.00587025 -7.08164e-23)
(1.01788 -0.0237433 -1.46664e-22)
(1.06928 0.216416 -2.35363e-20)
(1.14262 -0.00986072 -2.19912e-22)
(1.34774 -0.0368501 1.89227e-21)
(1.02272 -0.127049 -1.21027e-21)
(0.976002 -0.0124527 4.88644e-24)
(0.985635 -0.110207 3.51771e-21)
(1.02865 -0.135938 3.28304e-22)
(0.975541 -0.0512354 -6.75147e-22)
(1.31528 -0.162793 -3.27502e-21)
(0.913029 0.234417 -1.85575e-20)
(1.28383 -0.0797558 -9.7851e-22)
(1.06878 0.224661 2.14274e-20)
(1.3731 0.105575 -4.11665e-22)
(0.963142 -0.0124925 9.30354e-23)
(1.36269 0.0375971 -3.1188e-22)
(1.01324 -0.00465202 -1.23714e-22)
(0.963467 -0.0113098 -2.03404e-22)
(1.01724 0.211499 1.05658e-21)
(1.00005 -0.000347238 -5.23398e-24)
(1.00333 -0.0971852 6.57334e-22)
(1.00262 -0.00520592 6.37156e-23)
(1.37312 0.115069 1.47246e-21)
(1.06581 0.0955343 -3.45257e-21)
(1.14486 -0.251068 9.63442e-21)
(0.934316 -0.0241899 1.09147e-23)
(0.978019 -0.0701677 5.56152e-22)
(1.26434 -0.203844 2.47236e-21)
(1.0459 -0.21247 1.36903e-21)
(0.998092 -0.00316866 -5.50482e-25)
(1.28471 -0.0724828 1.20793e-21)
(1.18093 -0.0101182 -3.20531e-22)
(0.759479 0.131869 1.07398e-20)
(0.971673 -0.0122615 -5.54863e-23)
(1.17661 -0.255461 6.21576e-22)
(1.0894 -0.123425 -2.24353e-21)
(1.2371 0.124253 -6.66069e-21)
(1.34781 -0.0405899 -5.42875e-22)
(0.976975 0.162698 1.07259e-20)
(1.223 0.265771 1.95992e-20)
(0.985047 -0.0369031 1.28502e-23)
(0.822946 0.0319145 -1.61479e-20)
(1.3493 0.088838 1.95995e-21)
(0.996591 -0.000648735 -3.79684e-23)
(0.982317 0.013501 -2.77428e-20)
(1.10774 -0.112029 -8.90193e-23)
(1.13181 0.265754 7.01542e-21)
(1.06108 0.243125 -1.09066e-20)
(0.999911 -2.70505e-06 6.18762e-24)
(0.905603 0.156868 7.08723e-22)
(1.19544 0.228987 1.84231e-20)
(0.99184 -0.00060958 -2.26864e-23)
(0.936821 -0.0165755 -1.5452e-22)
(1.0527 -0.0547961 7.05523e-22)
(1.15263 0.0183609 -2.07927e-21)
(1.20614 -0.170971 -2.89315e-21)
(0.831847 0.113902 1.38344e-20)
(1.36485 0.0538664 -3.89077e-22)
(1.30089 -0.127302 -1.93867e-21)
(1.13511 0.0196856 1.56621e-20)
(1.15803 -0.11138 -1.56598e-21)
(0.934303 -0.0255048 7.14009e-23)
(1.35008 -0.0062003 8.0557e-22)
(0.9079 0.166118 -8.57583e-22)
(1.3311 -0.0846667 4.91242e-21)
(0.993802 -0.000232773 -1.26085e-23)
(0.822861 0.112005 -1.36086e-20)
(1.3327 -0.0472906 3.32996e-21)
(1.28218 -0.173072 2.69033e-21)
(1.22696 -0.173659 -7.09371e-21)
(0.846082 0.133572 -1.65501e-20)
(0.886862 0.142776 3.79008e-20)
(0.954314 -0.0301211 -8.21018e-23)
(0.99879 -0.0530609 -1.00028e-22)
(1.10662 -0.00802463 -1.77493e-24)
(0.939607 -0.0223967 -2.98228e-23)
(0.998841 -0.000108172 6.16509e-23)
(0.998162 0.147986 -4.98006e-21)
(0.975621 0.0485977 -9.96228e-21)
(0.960856 -0.0162798 -5.83293e-24)
(0.942216 -0.0420368 1.64312e-22)
(1.13293 0.255158 1.03198e-20)
(0.998508 0.0321423 1.55471e-20)
(0.998899 -5.41845e-05 -1.7871e-22)
(1.00316 0.0364379 -2.27641e-20)
(1.21147 -0.138026 1.52336e-21)
(1.01934 -0.0209209 3.90445e-22)
(1.00363 -0.0779766 1.08844e-22)
(1.0875 0.149783 -1.76869e-21)
(0.887168 0.264548 1.75366e-20)
(1.1999 0.0229121 7.84478e-21)
(1.14354 0.233963 -1.66813e-20)
(0.974681 -0.0123261 -1.37308e-23)
(1.00165 -0.0524885 -5.03919e-22)
(1.00011 -0.000155948 1.36319e-25)
(0.999252 -3.77645e-05 4.99004e-23)
(1.00045 -0.00956706 1.37211e-22)
(1.23149 -0.00989282 6.68666e-22)
(1.16343 -0.174126 -1.61079e-21)
(1.09011 0.219933 -2.13986e-20)
(0.995802 -0.129883 9.115e-22)
(1.05037 0.079086 1.31708e-20)
(0.985049 -0.0617507 -8.24387e-23)
(1.12309 -0.116902 -1.9218e-21)
(0.982657 0.158811 1.89735e-20)
(0.907371 0.00818574 6.81894e-20)
(1.08735 0.140896 2.99634e-20)
(1.01716 0.193523 -2.79357e-20)
(0.940354 -0.0409683 -1.37195e-22)
(1.31451 0.183153 -3.46863e-21)
(1.01338 -0.0704306 2.20099e-21)
(1.15614 -0.00964503 3.46566e-21)
(0.995711 -0.00882147 -4.67928e-23)
(1.29516 -0.192391 -7.30497e-21)
(1.22772 -0.110347 -3.1976e-21)
(1.11669 -0.0404 -2.83275e-23)
(0.999632 -8.53492e-05 6.20089e-24)
(0.988293 -0.000597593 -6.95618e-22)
(0.87541 0.270997 -2.7033e-20)
(1.28572 -0.00322298 6.02475e-21)
(1.01816 -0.0277369 -3.4559e-22)
(0.959363 -0.0641544 -6.64446e-22)
(1.15739 -0.167732 6.39564e-22)
(1.08412 -0.234066 3.69083e-21)
(1.33683 0.201634 -6.51541e-22)
(0.987278 -0.109009 -1.01497e-21)
(0.973925 -0.00201564 3.71546e-22)
(0.992656 -0.0851997 1.15447e-21)
(0.9897 -0.0357571 -9.24791e-23)
(0.999414 -5.92544e-05 -2.48154e-24)
(0.983916 -0.0587853 4.3465e-22)
(1.05076 -0.212765 -6.01486e-22)
(0.910364 0.223819 3.48209e-20)
(1.3391 -0.0893358 -2.92907e-21)
(0.972883 -0.0287389 -2.55576e-22)
(1.04535 0.0834647 -2.04083e-20)
(0.890868 0.154685 -4.57533e-21)
(0.98383 -0.0666465 8.29211e-23)
(1.00076 -0.000336315 -1.8781e-23)
(1.00207 -0.10099 -1.17474e-21)
(0.994217 0.135759 5.82473e-21)
(1.26907 -0.223885 -3.90233e-21)
(0.946558 0.0650012 -3.59216e-20)
(1.00003 -0.000165757 1.14063e-24)
(0.944055 -0.0467298 3.72053e-22)
(1.19149 0.283975 1.60159e-21)
(0.998981 0.0297258 3.1084e-20)
(1.03722 -0.0992299 -4.27993e-22)
(0.973092 -0.037213 2.21724e-22)
(0.836455 0.239397 2.9725e-20)
(1.282 -0.155792 8.20243e-22)
(1.29354 -0.127922 1.63168e-21)
(0.932944 0.214365 2.3828e-20)
(0.834323 0.13099 -2.84125e-21)
(0.981995 -0.0688634 -2.86097e-22)
(1.19132 0.292816 -1.13899e-20)
(1.22019 -0.0438499 -8.57736e-22)
(1.01037 0.0727988 -3.89647e-20)
(1.16856 0.146535 8.40774e-21)
(1.00079 -0.000246144 2.4226e-23)
(1.34147 -0.0907881 2.87806e-21)
(1.22198 0.125663 4.13181e-21)
(0.996565 -0.000551231 -1.11486e-22)
(0.99358 -0.136853 -3.83035e-22)
(1.32616 -0.0736758 1.30336e-21)
(1.16349 -0.245415 -1.76426e-21)
(1.32773 -0.0496596 -1.70022e-21)
(1.24314 -0.0907786 1.41018e-21)
(1.00011 -0.000238744 -2.13138e-24)
(0.999316 -0.00401748 4.18144e-23)
(0.964957 0.25853 -4.07297e-20)
(1.0011 -0.0174527 -2.52377e-23)
(1.00679 -0.164311 -1.18941e-21)
(0.985079 -0.089465 1.06143e-22)
(1.36098 0.0132378 5.23183e-22)
(0.970054 -0.00445988 4.86903e-23)
(1.13808 0.272708 1.18651e-20)
(1.28721 -0.0543871 -1.32167e-21)
(0.989455 -0.0857111 6.49914e-22)
(0.955194 -0.00679526 9.92126e-23)
(1.24103 0.112915 6.9211e-22)
(1.34513 0.0038992 -2.1816e-22)
(1.00006 -0.000243647 -1.76108e-24)
(0.946105 0.153114 3.4981e-20)
(1.12524 0.161592 3.89434e-21)
(0.986012 0.029304 -8.64142e-21)
(1.26762 -0.184724 -2.54306e-21)
(0.999499 -5.6247e-05 -2.62751e-23)
(0.840588 0.228703 -1.98809e-21)
(0.996065 -0.00598597 -1.09247e-23)
(0.989168 -0.0654965 1.96402e-22)
(1.34599 -0.0041624 7.91785e-23)
(1.32621 -0.0818848 -5.74651e-22)
(0.973649 -0.0687283 -5.72532e-22)
(1.27771 -0.165156 4.02288e-21)
(1.05959 0.0917178 5.31823e-21)
(0.905202 0.0100435 2.45547e-20)
(1.0472 0.219132 -2.87163e-20)
(1.26711 -0.0294907 -1.39888e-21)
(0.799028 0.0430565 3.49313e-21)
(1.00032 -1.24538e-05 -1.76583e-24)
(0.986973 -0.0350079 -8.74065e-23)
(0.999824 0.0162457 4.10967e-20)
(1.21862 -0.222107 7.98226e-22)
(1.21579 0.119764 -1.00991e-20)
(0.980347 -0.0503636 -2.91483e-22)
(1.00112 0.199645 2.8375e-20)
(1.26155 -0.061817 -4.38438e-22)
(1.00001 -0.00441176 3.35928e-23)
(1.25357 -0.0634109 3.94092e-22)
(1.12713 0.133782 -1.94639e-20)
(1.17893 -0.224876 -5.40908e-23)
(0.944844 0.0150665 -6.56918e-21)
(1.21558 0.231654 2.51842e-21)
(0.99923 -0.000331511 1.71278e-24)
(1.04747 -0.0273029 5.40115e-22)
(1.30995 0.0907899 2.97929e-21)
(1.19259 -3.05666e-05 9.69161e-21)
(0.998347 -8.3806e-05 1.87769e-22)
(1.21922 0.256055 -1.76304e-20)
(1.01432 -0.0625638 -1.91973e-22)
(0.735492 0.125829 -1.57346e-21)
(1.02371 -0.133635 -2.46343e-21)
(0.960902 -0.0145981 -3.22264e-23)
(0.98895 -0.000708616 5.46536e-22)
(1.05238 0.227558 3.16383e-20)
(1.19006 0.221541 -2.89228e-20)
(0.974988 -0.00280389 -1.47123e-22)
(1.23027 0.104324 2.41653e-21)
(0.954988 0.211956 -1.01046e-20)
(1.00116 -0.0187402 -4.8345e-23)
(1.09586 0.0123915 4.93445e-21)
(1.04995 0.0387302 -1.47216e-20)
(0.766902 0.0668061 2.30901e-20)
(0.996611 -0.00498629 1.60608e-24)
(1.34236 0.0307694 -1.33769e-21)
(1.21968 -0.113763 1.19487e-21)
(0.939188 -0.0199664 -7.62384e-24)
(0.999664 -5.9212e-05 -5.59045e-24)
(0.999638 0.0090731 2.53449e-20)
(1.34993 0.19195 2.35583e-21)
(1.31692 -0.101033 1.2579e-20)
(0.990823 0.254753 -1.01728e-20)
(1.26531 -0.0218989 5.40792e-22)
(0.968984 -0.0383262 1.65487e-22)
(1.31277 0.170086 -2.67982e-21)
(1.18029 -0.00574982 -1.15259e-21)
(1.27641 -0.000606699 2.35225e-21)
(0.773195 0.0730801 -6.02843e-20)
(1.02761 -0.117423 9.31203e-22)
(1.34266 -0.0174012 -3.1475e-22)
(0.98242 0.040701 -2.25045e-20)
(0.957552 -0.0651789 5.90783e-22)
(1.20509 -0.053902 1.24575e-22)
(1.07043 -0.194268 2.91689e-21)
(1.30605 0.0829137 -1.35961e-21)
(0.994957 -0.000182061 8.44643e-22)
(1.18644 0.0119938 -1.71517e-21)
(1.32062 -0.0955317 -5.14047e-21)
(1.34043 -0.0228287 -1.41882e-21)
(1.00138 -0.00569099 1.26822e-22)
(1.17755 0.00904011 1.83836e-20)
(0.995427 0.0207159 -2.14233e-20)
(1.11838 0.0914383 3.50746e-20)
(1.16524 -0.240427 -7.03752e-21)
(0.991399 -0.0337493 2.07253e-22)
(0.856318 0.122213 -1.91498e-20)
(0.878178 0.0392298 -4.9377e-20)
(0.996385 -0.00826275 -8.36437e-24)
(0.946304 -0.0457209 1.52546e-22)
(1.05301 0.159182 4.23555e-21)
(1.01205 -0.172614 -9.77129e-22)
(1.11437 -0.119642 1.70306e-21)
(1.32751 0.1986 1.01422e-20)
(0.990736 -0.000463111 -6.81175e-22)
(0.762364 0.059 4.00522e-20)
(1.04009 -0.0889273 -1.34734e-22)
(1.34577 0.0489799 9.07567e-22)
(0.987854 -0.0116508 -4.66762e-24)
(0.992516 0.0212308 -9.18679e-21)
(1.22028 0.219798 -4.92262e-21)
(1.11783 -0.0319061 -2.86954e-22)
(1.13035 -0.130904 -9.67689e-22)
(1.30434 -0.122039 3.44904e-21)
(1.33424 -0.0422619 -4.09024e-22)
(0.99931 -0.00625392 2.05493e-24)
(1.03968 0.131713 -7.81336e-21)
(1.32367 -0.150385 8.0797e-21)
(1.2403 0.0751848 9.92161e-21)
(0.737758 0.133777 6.03566e-20)
(1.27766 -0.183327 2.08488e-21)
(1.08654 -0.106562 -2.77244e-21)
(1.00001 -0.0103977 -1.37805e-22)
(1.34703 -0.0567002 -4.71585e-21)
(1.33139 -0.0923182 -3.20619e-21)
(0.968844 -0.0291924 3.86e-22)
(1.28303 0.214236 -1.6886e-21)
(0.999997 -0.0016228 -2.61677e-23)
(0.96561 -0.0522919 -1.04381e-22)
(1.01818 -0.0190028 -5.47031e-22)
(1.27707 -0.14829 3.12413e-22)
(0.985606 -0.0564547 3.55755e-22)
(0.999575 -0.000146886 1.6924e-24)
(0.983464 -0.0734583 1.17989e-21)
(1.35043 -0.0129357 6.00063e-22)
(1.17791 -0.234364 -2.72147e-21)
(1.0585 -0.0954021 -2.29204e-22)
(0.952406 -0.0308375 -1.97058e-22)
(1.32068 -0.0701339 3.62289e-21)
(1.2378 -0.0838117 -1.02925e-21)
(0.966792 -0.0680364 -3.02778e-22)
(0.947673 -0.00959607 -3.58745e-22)
(1.00097 -0.00593994 -2.02833e-23)
(1.16404 -0.125687 3.32006e-21)
(1.02569 -0.18648 -1.65767e-22)
(1.01499 -0.00390866 9.43556e-23)
(1.04181 -0.0951338 1.57557e-21)
(1.33943 0.00650439 1.29907e-23)
(1.1192 0.0839905 -2.1285e-20)
(1.29342 -0.0678657 -3.6097e-22)
(0.99921 -0.000274085 1.68207e-23)
(0.817129 0.254719 -4.42964e-20)
(1.01519 -0.00198817 3.29795e-22)
(0.999903 -0.00175597 3.12855e-23)
(1.0519 -0.0135352 -2.74729e-22)
(0.951114 -0.0463564 -2.57962e-22)
(1.00822 -0.12008 1.34584e-22)
(0.895139 0.131982 -2.2243e-20)
(1.02868 -0.0724362 1.38273e-22)
(1.21522 -0.0399345 -6.16851e-22)
(1.02115 -0.161714 2.41041e-21)
(1.01707 -0.164152 -3.04041e-21)
(1.32614 0.185769 -7.04726e-21)
(0.991728 -0.0663744 -3.49098e-22)
(0.986741 -0.103931 5.04641e-22)
(0.996113 -0.134801 9.35227e-22)
(0.99972 -4.25908e-05 1.19993e-23)
(1.21516 -0.157035 -4.99266e-21)
(0.790382 0.239513 -4.09097e-21)
(1.08783 -0.227094 9.89791e-22)
(0.94779 -0.0591765 -4.41634e-23)
(1.27343 0.204948 -1.50104e-22)
(0.975144 -0.0647736 -6.06057e-23)
(1.16348 0.137311 -7.072e-21)
(1.36461 0.0363093 2.25349e-22)
(0.995479 -0.00639866 2.58091e-23)
(0.998682 -0.000157337 -5.02164e-23)
(1.10987 0.149297 2.45176e-21)
(0.740667 0.170267 1.95625e-20)
(1.06817 -0.224373 2.4349e-22)
(1.37054 0.0903708 1.62326e-22)
(1.3528 -0.0202884 2.82071e-21)
(0.955594 -0.0525091 -1.32114e-22)
(0.955453 -0.0552959 -3.27305e-22)
(1.05825 0.165884 -1.14069e-21)
(1.14248 -0.0182982 3.78517e-22)
(1.18692 -0.239431 5.60541e-21)
(1.07596 -0.186603 -2.50161e-21)
(0.979509 -0.00164973 2.6155e-23)
(1.08272 -0.0210242 -1.88373e-22)
(0.86859 0.0620343 -8.5268e-21)
(1.22531 -0.020415 -5.47622e-21)
(1.00031 -0.000114689 2.69356e-24)
(0.917464 0.202496 3.75633e-20)
(1.0442 -0.0850178 -1.71721e-21)
(1.00989 -0.122415 1.75237e-21)
(1.19955 0.275445 -9.72991e-21)
(1.02138 -0.0309036 -5.21596e-22)
(0.986938 -0.0110559 -1.00619e-24)
(0.999226 -0.000503782 6.17222e-24)
(1.20358 -0.123754 -1.76821e-21)
(0.955742 -0.0231091 -7.5241e-23)
(1.0003 -2.10359e-05 3.05648e-24)
(1.37152 0.0862966 -4.76248e-22)
(1.27357 -0.216206 -2.73135e-21)
(1.03431 0.1294 -1.36728e-20)
(0.999342 -8.57366e-05 -8.87328e-24)
(1.00012 -0.00529549 -1.60861e-23)
(0.973656 -0.0664409 -3.17577e-22)
(0.999993 -0.000147747 2.67784e-25)
(1.06891 -0.230561 -1.24172e-21)
(1.2061 -0.23782 -2.69935e-21)
(0.999414 -0.00528406 8.16375e-24)
(1.0076 -0.0960788 -5.32745e-22)
(0.938215 -0.0164 -7.44928e-24)
(1.18104 0.247 -1.33616e-21)
(0.98435 0.252189 8.20592e-21)
(0.996042 -0.00542749 3.70826e-24)
(1.00384 -0.00139363 3.69751e-23)
(0.991881 -0.127516 -2.32496e-21)
(0.969262 0.227684 2.72973e-20)
(1.0047 -0.0433673 5.26833e-22)
(0.949841 0.142834 -8.27362e-22)
(0.976764 -0.0138439 -4.90565e-24)
(0.741497 0.100427 -1.6372e-20)
(1.08482 0.0288038 -2.71154e-21)
(1.26756 0.0427796 -7.70391e-21)
(0.778501 0.13376 -1.76589e-20)
(1.32614 -0.140491 3.26102e-22)
(0.988987 -0.00306544 3.54574e-23)
(1.21137 -0.109496 -1.00891e-21)
(1.0103 -0.0451106 -5.48983e-23)
(0.988085 0.223992 6.65948e-21)
(1.05059 0.143097 1.83109e-20)
(0.967331 -0.00859015 -7.32635e-23)
(1.29211 -0.186227 8.27346e-21)
(1.18115 -0.0519743 -3.01999e-23)
(1.08211 -0.111962 -1.47602e-21)
(0.996057 -0.000278055 1.1788e-22)
(1.29162 -0.201827 7.21488e-21)
(1.00028 -5.56778e-05 4.13267e-24)
(1.17008 0.241632 6.40286e-21)
(0.937757 -0.015316 1.70653e-22)
(0.987133 -0.0826583 -2.18985e-22)
(0.993712 -0.0392096 2.43488e-22)
(1.00658 -0.0768136 1.97633e-21)
(1.3383 0.0498795 3.38701e-22)
(1.29424 -0.0606649 1.60696e-21)
(0.998607 -4.82745e-05 -1.95762e-22)
(1.03268 -0.0698255 -1.18786e-21)
(0.999863 -0.000189748 -1.00944e-25)
(0.748828 0.0925505 1.20752e-20)
(0.880552 0.0557009 1.73828e-20)
(0.99483 -0.00105259 6.41159e-23)
(0.965965 -0.0146125 3.61816e-24)
(1.04473 -0.0519008 -5.79252e-22)
(1.05664 0.149777 7.85781e-21)
(0.930562 -0.0256553 -1.0625e-22)
(1.35361 -0.0206808 6.89658e-22)
(0.950442 -0.0607308 9.27806e-23)
(1.03502 0.220364 -5.72434e-22)
(1.27708 0.0438673 -7.75539e-22)
(0.954244 -0.0253497 -8.53678e-23)
(0.784095 0.0472713 -2.54186e-20)
(1.07258 -0.00358956 2.63615e-22)
(1.06172 0.229335 -1.67488e-20)
(0.990079 -0.0172534 1.50132e-24)
(1.02774 -0.197749 4.90171e-21)
(0.956737 0.00899801 -5.49952e-20)
(1.0179 -0.057103 7.81114e-22)
(0.732555 0.183254 -8.93788e-21)
(1.08492 0.170305 9.6576e-22)
(0.787337 0.0538146 -6.0022e-21)
(0.98939 -0.00320046 -1.67696e-23)
(0.992774 -0.000520647 -2.68861e-22)
(1.03362 -0.126148 -5.70885e-22)
(1.22993 -0.101328 4.10036e-21)
(1.01965 -0.0305861 5.65108e-22)
(1.03316 -0.114085 -1.99219e-22)
(1.04365 0.202106 1.55671e-21)
(1.03652 0.241516 5.36725e-21)
(1.08737 0.00553124 7.11386e-24)
(0.977105 0.22054 -1.95645e-20)
(0.748922 0.200315 4.84196e-21)
(1.3372 0.0954914 4.68862e-21)
(0.99846 0.00999032 -3.68406e-20)
(1.106 0.0722487 -6.89893e-21)
(1.00631 -0.0228013 -4.56712e-22)
(1.10393 0.155928 -7.94598e-22)
(0.984709 -0.103075 -4.33721e-22)
(0.952719 -0.0593183 2.43519e-22)
(0.998392 -0.00143018 -2.01198e-24)
(1.07334 -0.11122 3.50217e-21)
(1.13627 -0.211638 -7.59887e-22)
(1.17986 0.0632356 4.9154e-21)
(1.12343 -0.0156874 4.39383e-22)
(1.00512 0.057851 2.84917e-21)
(1.01026 -0.0661336 1.33658e-21)
(1.19148 -0.0406077 4.81273e-22)
(1.00666 0.0435707 -3.24069e-21)
(1.01184 -0.047356 9.02621e-22)
(1.12482 -0.13566 2.19784e-21)
(0.999897 -0.00022126 1.61324e-25)
(1.00053 -0.000279894 3.8456e-24)
(1.17466 0.0571167 -4.09679e-23)
(0.988009 -0.0890485 -6.29875e-22)
(0.960624 -0.0555436 4.05597e-22)
(1.00059 -0.00026722 -5.86312e-24)
(0.999977 -0.00364835 2.11349e-23)
(1.17761 -0.0576303 -4.12829e-23)
(0.999507 -5.89675e-05 1.5581e-23)
(1.3425 -0.070742 9.75457e-23)
(0.759467 0.0730195 3.18436e-20)
(1.37115 0.102519 1.37496e-22)
(1.26221 0.0795462 -4.27175e-22)
(0.963876 -0.00828884 1.42587e-22)
(1.11087 0.231776 5.65734e-21)
(1.34777 -0.0501168 2.04815e-21)
(1.00549 -0.0404301 -3.19897e-23)
(0.966114 -0.0165405 -1.12934e-23)
(0.99662 -0.00459655 -1.25313e-25)
(0.999171 -0.000438557 -4.7318e-24)
(1.00217 -0.00608236 -4.89048e-23)
(0.994479 -0.0417356 2.01854e-22)
(1.04814 -0.197739 2.91849e-21)
(1.26211 0.126522 1.15837e-20)
(1.25841 -0.113032 -1.3043e-21)
(0.964225 -0.0039241 -6.80574e-24)
(0.999875 -0.000152563 5.06412e-25)
(1.00777 0.13364 1.90848e-20)
(1.32238 -0.11845 6.88107e-21)
(1.30789 -0.165208 2.30839e-21)
(1.02108 -0.0588795 -8.78639e-22)
(1.34555 -0.0355834 -1.52698e-21)
(1.07029 -0.115007 -8.98801e-22)
(0.984283 -0.000880124 9.18272e-24)
(1.00376 0.0324431 1.61559e-20)
(0.958722 0.00160188 -7.39947e-20)
(1.26535 0.270141 -1.00679e-20)
(0.990757 -0.000396231 4.61642e-22)
(1.25712 0.275332 8.43575e-21)
(0.966659 -0.00581093 -7.43698e-23)
(0.979043 -0.0606072 -4.12987e-22)
(1.35498 0.130292 -4.57455e-21)
(1.00029 -0.000140443 4.86527e-24)
(0.98544 -0.0392233 -3.55908e-23)
(1.34663 0.034369 5.51502e-22)
(1.31985 0.0925068 5.00381e-21)
(0.955331 -0.0277006 -6.56547e-24)
(1.06655 0.147849 1.24974e-21)
(0.898926 0.272329 -1.82759e-21)
(1.03405 0.0713502 -3.64941e-20)
(0.948636 -0.0474877 4.19524e-22)
(0.948767 -0.00950105 1.32508e-22)
(1.06384 -0.0908541 -5.22028e-22)
(1.18634 -0.0119794 2.18287e-22)
(1.04634 0.0319553 -8.61963e-21)
(0.994664 -0.00149628 1.74672e-23)
(0.948633 0.0216448 -2.05801e-20)
(0.988391 -0.0624183 1.08198e-21)
(1.03407 -0.197637 -3.36484e-21)
(1.20962 -0.100772 -6.8843e-22)
(0.806633 0.259803 6.29257e-20)
(1.27323 0.132856 -8.71245e-21)
(1.04281 0.145231 -1.92544e-20)
(1.21692 -0.232579 1.42251e-21)
(0.924421 0.0049102 -3.361e-20)
(0.957923 -0.0228783 6.98514e-23)
(0.980977 -0.0583389 3.01256e-22)
(0.838439 0.0246353 1.20384e-20)
(1.11135 -0.0437414 4.08716e-23)
(1.04947 -0.184106 -5.02978e-22)
(1.06095 0.208833 -3.88444e-21)
(1.02864 0.211427 -1.24154e-20)
(0.967976 -0.0505524 -3.66355e-22)
(1.05807 0.041429 -1.93753e-20)
(0.971854 0.238571 -3.59128e-21)
(1.02784 0.193967 1.62544e-20)
(1.15938 0.266321 4.4061e-21)
(1.05057 0.211236 2.54957e-20)
(1.1624 0.156076 -1.11201e-20)
(0.984897 -0.00387749 -1.05148e-22)
(0.958889 -0.0250795 1.2484e-22)
(1.00335 -0.00988696 -2.8144e-23)
(1.00984 -0.161513 3.39529e-21)
(0.987538 0.0423628 -5.15069e-21)
(1.01659 -0.171064 1.97109e-21)
(1.34976 0.00934266 -1.51121e-23)
(1.2886 0.0120029 -2.774e-21)
(0.961311 -0.0648146 3.06365e-22)
(1.33998 -0.0679942 -1.47622e-23)
(1.36018 0.0321633 9.1e-23)
(0.986634 0.015856 -1.5802e-21)
(1.33173 -0.069248 -1.48996e-21)
(0.999463 -0.00440523 -4.87867e-24)
(1.0879 -0.020617 2.83131e-23)
(0.978094 -0.0654873 1.98754e-22)
(1.29125 -0.154203 1.18342e-22)
(1.30425 -0.15871 -5.12472e-21)
(1.02091 -0.181857 6.4025e-22)
(1.1568 0.252592 2.49094e-21)
(0.945582 0.263358 2.92988e-20)
(1.25324 -0.089497 -1.19899e-21)
(0.995039 0.0124309 1.63512e-20)
(0.740477 0.157843 -2.1961e-20)
(0.998706 -9.68178e-05 4.79143e-23)
(1.00426 -0.00142285 -2.95751e-24)
(0.995492 -0.00709771 -1.10159e-23)
(0.967876 -0.00913807 -4.13679e-23)
(1.22556 0.143476 -7.42535e-21)
(0.836782 0.0279683 -2.60034e-20)
(1.23075 -0.0180437 4.73978e-21)
(1.12218 0.248691 3.42836e-21)
(0.975144 -0.0300432 -1.56999e-22)
(1.2656 0.232894 1.36972e-20)
(1.2689 0.255406 4.28055e-21)
(1.27219 -0.206315 1.09275e-21)
(0.951415 -0.0134968 -4.82037e-23)
(0.93248 -0.0241188 8.66161e-23)
(1.35383 0.00652006 -4.27961e-23)
(1.01506 -0.0583597 3.00486e-22)
(1.25953 -0.106686 -1.52385e-21)
(0.958122 -0.051114 7.32286e-23)
(0.933829 -0.0487148 -4.94876e-22)
(1.08 0.212233 2.70867e-20)
(0.990683 -0.00270627 -7.43555e-23)
(1.03336 -0.079929 -2.72143e-22)
(1.03967 0.236599 1.31899e-20)
(1.33596 -0.0723633 -9.01187e-21)
(0.83378 0.215312 7.00021e-21)
(1.01772 -0.116324 -9.77662e-22)
(1.0939 0.0249273 8.83586e-21)
(1.29576 -0.161282 5.23256e-21)
(0.996588 -0.0947281 2.7502e-22)
(0.95664 0.0158834 -7.44602e-21)
(0.979566 0.00101104 4.76406e-20)
(0.979651 0.0630676 -8.00885e-21)
(0.990322 -0.0442203 -4.25186e-22)
(0.862776 0.0360167 2.73347e-20)
(0.951506 -0.043517 2.02631e-22)
(0.934765 0.188122 1.08847e-21)
(1.16613 -0.106081 7.64752e-22)
(0.970365 0.114078 -4.46164e-21)
(0.974334 -0.0621394 2.48231e-22)
(1.00003 -0.000300212 -4.24716e-25)
(0.970423 0.0986384 1.50079e-20)
(0.92844 0.167222 1.78168e-20)
(0.942701 0.206569 -2.85107e-20)
(0.9737 0.0822281 -1.74697e-20)
(1.15194 0.00930427 -2.75304e-20)
(1.20287 -0.0477457 7.71549e-23)
(1.18777 0.136254 -2.00155e-20)
(1.04578 -0.178475 1.3199e-21)
(0.993479 0.0311027 5.2886e-20)
(1.06165 0.131993 -2.35443e-20)
(1.31592 -0.119549 -8.28246e-21)
(1.12801 -0.0206842 -4.91287e-22)
(0.985386 -0.00365863 -6.2283e-23)
(1.32991 -0.138046 -1.2673e-21)
(1.10003 0.214938 -4.29762e-21)
(0.936577 -0.0369167 5.39617e-24)
(0.967337 -0.00493832 2.77487e-22)
(0.985617 0.00845773 -1.0625e-20)
(0.957483 0.123596 -3.25707e-20)
(0.983833 -0.0715848 -4.94319e-22)
(0.978554 0.134672 2.3423e-20)
(1.02391 -0.192755 1.15039e-21)
(1.34185 -0.0376296 2.77049e-21)
(0.99419 -0.000287688 2.92441e-22)
(0.943143 0.13389 -1.84325e-20)
(0.926112 0.146481 4.74577e-20)
(0.772555 0.0830303 4.90221e-20)
(0.962407 0.247165 3.79264e-20)
(0.997033 -0.000352674 4.01115e-23)
(0.975237 -0.0327486 1.03658e-22)
(0.998183 -0.00146696 1.82001e-23)
(0.991409 -0.0990578 -2.09601e-21)
(0.839901 0.161414 -1.01215e-20)
(1.29042 0.0728742 -9.59829e-21)
(1.13216 0.229339 -2.96051e-22)
(0.934689 -0.0465127 2.92851e-22)
(1.10847 0.0788711 2.16439e-20)
(1.04794 -0.0507788 6.10286e-22)
(0.835534 0.188947 1.4529e-20)
(1.11093 -0.143594 -1.0145e-21)
(0.992192 0.0110217 1.81324e-20)
(0.994343 -0.000287601 1.66864e-22)
(0.863455 0.151794 -3.29198e-20)
(0.811911 0.200902 -4.08311e-20)
(0.972814 -0.0342483 -2.90071e-22)
(1.30148 -0.0266365 1.7921e-22)
(0.869517 0.126039 -3.28724e-20)
(0.996322 -0.000549092 -2.04987e-22)
(0.808344 0.0850387 -5.41961e-21)
(1.05914 -0.101083 3.85066e-22)
(0.99658 -0.000354911 7.41191e-23)
(0.948982 -0.0150189 2.83283e-23)
(1.06499 0.239126 -1.65455e-20)
(1.30499 0.0313172 -3.61911e-21)
(1.00499 -0.135461 1.51881e-21)
(1.0028 0.243378 1.4859e-21)
(0.795799 0.22869 2.75048e-21)
(1.26095 0.246715 -1.50097e-20)
(1.07791 -0.0157506 2.05938e-23)
(0.995229 -0.0879967 4.23723e-22)
(1.20282 -0.115728 1.57671e-21)
(0.960103 0.140699 2.67498e-20)
(0.827629 0.0863462 -3.10527e-21)
(0.764108 0.0789226 3.1706e-21)
(1.27561 0.0617903 1.63706e-21)
(1.00029 -0.0132301 3.33061e-23)
(0.977178 -0.001829 -1.13934e-22)
(1.10958 0.22022 -1.52103e-20)
(1.00224 -0.0102665 2.79416e-23)
(0.981326 -0.00580564 1.78129e-24)
(1.00358 -0.0162938 -2.25805e-23)
(0.990482 -0.0384927 -2.0785e-22)
(1.1031 -0.203082 2.8022e-21)
(1.20892 -0.21717 -1.96213e-21)
(0.902861 0.204967 -4.22217e-20)
(1.02462 -0.0654604 2.61606e-23)
(0.998634 -0.00117978 -1.42221e-23)
(1.07846 0.134782 -4.04103e-22)
(1.33476 0.0603737 2.90026e-21)
(1.00204 -0.0164474 -3.89383e-23)
(1.34126 -0.0104724 8.62895e-22)
(1.00228 -0.00169917 5.48349e-24)
(1.27674 0.024552 6.36761e-22)
(1.03518 0.0755175 2.56633e-20)
(0.972425 0.128827 -4.54458e-20)
(1.17063 -0.2186 2.18937e-21)
(1.28743 -0.0119409 -1.33974e-21)
(0.991217 -0.0177429 -2.61597e-23)
(1.15182 -0.150483 4.13952e-22)
(0.994121 -0.00190182 8.45192e-24)
(0.950931 0.160396 -4.7388e-20)
(0.898258 0.198743 1.28933e-20)
(1.23787 -0.227673 2.01985e-21)
(1.19805 -0.232985 1.80401e-21)
(1.15663 -0.23361 5.68865e-21)
(1.03881 -0.117215 9.73016e-22)
(0.99062 0.233757 3.10248e-21)
(1.04332 -0.107387 6.68944e-22)
(1.1311 -0.194548 1.04823e-21)
(1.08345 -0.218983 -1.20405e-21)
(1.14575 -0.133457 -1.92337e-21)
(0.790193 0.0842762 2.65149e-20)
(1.15531 -0.25304 -1.03543e-20)
(1.31988 -0.0875237 6.6439e-22)
(0.969584 0.0362915 9.31162e-21)
(0.995242 -0.000420746 -1.64629e-22)
(1.28869 -0.0479863 -3.10569e-22)
(1.04744 -0.0969819 -1.10415e-21)
(1.08507 -0.20281 2.10102e-21)
(0.995016 -0.00109765 -1.08004e-23)
(0.999504 -0.00371609 -1.29193e-23)
(0.783678 0.109448 -4.49892e-20)
(1.12493 0.0799648 1.61078e-20)
(1.23182 -0.235687 6.91765e-21)
(1.33689 -0.11566 -1.99481e-21)
(1.15049 0.137124 -8.38224e-21)
(0.98699 0.131243 -3.56779e-21)
(1.06939 0.138776 7.02868e-21)
(1.26733 -0.166611 -4.77357e-21)
(0.975054 -0.0700829 6.1503e-22)
(0.990196 -0.0598114 -2.91854e-22)
(0.979899 -0.0633729 -7.70454e-23)
(1.09726 0.134678 -2.25792e-20)
(0.966374 -0.00628287 -2.1912e-22)
(1.00147 -0.0901045 6.72982e-22)
(0.999708 -4.59522e-05 -3.86993e-24)
(0.961115 -0.0247027 -1.86019e-22)
(0.997421 -0.000650769 -3.08799e-24)
(1.12778 -0.214199 2.21981e-21)
(1.04778 0.235848 -1.56434e-20)
(1.05778 -0.18409 7.76214e-22)
(0.964154 0.205179 1.81871e-21)
(0.98338 0.202795 -4.18841e-20)
(0.952889 -0.0565966 -5.10809e-23)
(0.980295 -0.0376108 3.70989e-23)
(0.763721 0.108674 2.28483e-20)