/*--------------------------------*- C++ -*----------------------------------*\
  =========                 |
  \\      /  F ield         | OpenFOAM: The Open Source CFD Toolbox
   \\    /   O peration     | Website:  https://openfoam.org
    \\  /    A nd           | Version:  7
     \\/     M anipulation  |
\*---------------------------------------------------------------------------*/
FoamFile
{
    version     2.0;
    format      ascii;
    class       volVectorField;
    location    "9.5";
    object      U;
}
// * * * * * * * * * * * * * * * * * * * * * * * * * * * * * * * * * * * * * //

dimensions      [0 1 -1 0 0 0 0];

internalField   nonuniform List<vector> 
7807
(
(1.06288 0.097113 5.54703e-20)
(1.05386 -0.0228343 1.72666e-19)
(1.02292 0.0791025 -8.83328e-20)
(1.03934 0.0576445 1.76899e-19)
(1.01735 -0.00222182 2.66149e-20)
(1.0078 -0.0167383 1.95369e-20)
(1.02113 0.0727687 -1.74859e-19)
(1.0151 -0.00307136 6.78336e-22)
(1.01445 -0.00146326 2.27783e-20)
(1.02721 0.000371663 -1.52202e-20)
(1.01151 -0.00607974 -2.15434e-20)
(1.0184 -0.00235449 -4.28128e-20)
(1.01329 -0.00373667 -4.20832e-20)
(1.02453 -0.00106593 -1.80276e-19)
(1.02606 0.00128815 6.35212e-20)
(1.01419 -0.00944768 6.71964e-20)
(1.06357 0.101144 -1.17751e-19)
(1.01014 -0.00252908 1.17269e-20)
(1.02064 -0.00587647 -3.39907e-20)
(1.0075 -0.0619662 1.45227e-20)
(1.03726 0.0025707 -4.87268e-20)
(1.01766 0.000406957 1.212e-19)
(1.02678 -0.00188732 2.32952e-20)
(1.01258 0.0310338 -1.07455e-19)
(1.00725 -0.00235235 4.17829e-20)
(1.06016 0.0955224 -5.56108e-20)
(1.01766 -0.00174762 2.21808e-20)
(1.03011 0.000797812 5.94471e-20)
(1.00653 0.0163741 -1.56534e-20)
(1.02002 -0.00566452 3.03508e-20)
(1.01055 -0.0101826 9.58964e-20)
(0.755347 0.0182619 1.81792e-20)
(1.02535 -0.00191762 1.25695e-19)
(1.01535 -0.00312373 -4.9775e-20)
(0.699335 -0.0023853 2.07682e-22)
(1.02683 0.00212958 2.42685e-20)
(1.02143 -0.0073396 2.2368e-20)
(1.02205 0.0710239 -2.96985e-20)
(1.01517 -0.00622435 -1.21105e-19)
(0.989059 -0.00376142 -5.94747e-20)
(1.01564 -0.00611224 1.21908e-20)
(1.01418 -0.00916137 2.50734e-20)
(1.02573 -0.0685164 -6.95821e-20)
(1.12354 -0.0232158 -2.51722e-20)
(0.673779 -0.00265558 -2.7976e-20)
(0.999221 -0.00122293 1.33486e-20)
(1.0164 0.000462029 -7.37203e-20)
(1.01656 -0.00546753 7.12827e-20)
(1.01413 -0.000132261 1.2423e-20)
(1.01039 -0.0624199 -2.14011e-20)
(1.01898 -0.00184116 3.4229e-20)
(1.03086 0.0018154 -6.41988e-20)
(0.994494 -0.00164643 1.15448e-19)
(1.02534 -0.0184079 2.45027e-20)
(1.02606 0.00040292 -1.86656e-20)
(1.01562 -0.00342356 1.23398e-20)
(1.01879 -0.00486023 5.3597e-20)
(1.01454 -0.00308178 -7.95833e-20)
(1.00531 -0.0116258 1.09463e-19)
(1.01532 -0.00401475 6.03816e-20)
(1.01361 -0.00110331 -3.03263e-20)
(1.02008 -8.7568e-05 3.25851e-20)
(1.0256 -0.000436016 -4.07463e-20)
(1.01743 -0.0020616 4.37066e-20)
(1.00352 -0.00561055 -4.75511e-20)
(1.01095 -0.0104276 -1.5303e-20)
(1.01366 -0.002074 -2.12414e-20)
(1.01171 0.000187506 3.06699e-21)
(1.1191 0.062099 5.68335e-20)
(1.01671 -0.00467846 2.86981e-20)
(1.01164 -0.000692545 -1.20643e-20)
(1.0006 -0.0356317 1.28397e-19)
(1.01133 -0.00308312 -2.07663e-20)
(0.964453 -0.00391113 -1.75912e-20)
(1.01285 -0.00263032 -3.67844e-20)
(0.997129 -0.0168981 1.74656e-20)
(1.02408 0.0800212 1.41521e-19)
(1.03574 0.00220999 6.12305e-20)
(1.07419 0.00826234 -1.26889e-19)
(0.99062 -0.0289048 1.44724e-19)
(1.01456 -0.00362256 6.47405e-20)
(1.01523 0.0653298 1.99702e-19)
(1.03891 0.0103893 1.07366e-19)
(1.0029 -0.00567576 -7.80436e-20)
(1.01542 -0.00359382 3.64047e-20)
(0.944862 -0.00850959 -1.97648e-20)
(1.01476 -0.00331729 -1.06158e-19)
(1.00358 -0.00266644 -7.39384e-20)
(1.01634 -0.00206124 -3.05139e-20)
(0.953547 -0.0031097 -3.81226e-20)
(1.00673 0.0186506 1.11061e-19)
(1.14764 -0.0104461 3.92136e-20)
(1.0124 -0.00206999 2.10254e-20)
(1.019 -0.00508786 2.50186e-20)
(1.01536 -0.00304713 -4.49971e-20)
(0.768108 -0.00363216 1.35369e-19)
(1.00213 -0.0354532 -7.71961e-21)
(1.02631 -0.0173994 -4.22187e-20)
(1.01483 -0.00365282 -7.31188e-21)
(0.993372 -0.000287277 -1.32313e-20)
(0.975252 -0.0116748 -3.68166e-20)
(1.07474 0.0120068 9.53869e-20)
(1.01567 -0.00295632 1.11954e-19)
(0.724853 -0.00105339 4.82709e-22)
(1.14992 -0.00130091 2.49209e-20)
(1.03067 0.0290435 -1.07015e-19)
(0.94107 0.0454442 2.46498e-20)
(1.01554 -0.00323349 4.71633e-20)
(1.01058 -0.000582898 -1.04555e-21)
(1.03322 -0.00550855 -5.16568e-20)
(1.04169 0.0553184 -2.05315e-19)
(1.03695 -0.0496315 1.31795e-19)
(1.01066 -0.000255479 1.29341e-21)
(1.03497 -0.00584008 -1.12117e-20)
(1.02733 0.0286815 1.11702e-19)
(1.01587 -0.000316029 -1.63304e-20)
(1.06934 -0.0585769 9.73868e-21)
(1.03099 0.0181379 -2.96212e-20)
(1.00852 -0.0281162 -7.88668e-20)
(0.990833 -0.00396175 1.86727e-20)
(0.876135 -0.00847253 8.70539e-20)
(1.00673 0.0568482 -1.33058e-19)
(1.03014 -0.0675602 9.55829e-20)
(1.02263 -0.00313791 1.43358e-20)
(0.926788 -0.00905241 -3.4277e-20)
(1.01603 -0.00262581 -6.50009e-20)
(1.01194 -0.00758935 -3.51949e-20)
(1.01915 -0.0055693 -4.11277e-20)
(0.957373 -0.00895225 1.07033e-19)
(1.0113 -0.00919022 -2.31091e-21)
(1.17754 -0.0230218 1.15916e-20)
(1.06995 0.00635016 2.12748e-20)
(1.01593 -0.00334005 -4.70753e-21)
(1.01571 -0.00225421 6.77575e-20)
(0.999838 -0.00538242 -2.2408e-20)
(1.03973 0.0492478 8.17551e-20)
(1.01575 0.0863279 2.22454e-19)
(0.934397 0.00202632 2.3795e-21)
(1.02368 -0.00173522 7.85126e-21)
(0.781536 0.00211683 9.14465e-20)
(0.898571 -0.00515062 7.63678e-20)
(1.01173 -0.0394331 9.90156e-20)
(0.997443 -0.0182561 -2.34083e-20)
(0.962491 -0.00426375 1.39619e-21)
(0.820538 0.0138086 9.68005e-20)
(1.02727 -0.0281825 6.48247e-21)
(1.01338 0.0184564 -5.93095e-20)
(1.00659 -0.0138285 5.88336e-20)
(0.819535 0.00147387 -1.60361e-20)
(1.00771 0.0613437 -6.64211e-20)
(1.02888 0.00349612 7.08623e-20)
(1.13736 -0.0129315 1.69475e-20)
(1.01652 -0.00240882 1.02549e-19)
(1.12349 0.0562917 1.36307e-20)
(1.03765 0.00977434 -1.13694e-19)
(1.02656 0.0722832 -1.53703e-19)
(0.993992 -0.0200286 -6.29575e-20)
(1.00448 -0.00522033 -1.57288e-20)
(1.01404 0.061505 2.22833e-19)
(1.01444 -0.000478068 1.29732e-20)
(1.01903 -0.00500421 -6.24303e-20)
(1.01397 0.0347015 7.38064e-20)
(1.01183 -0.00229226 -1.54953e-20)
(1.01646 -0.00420697 1.24836e-19)
(1.0117 -0.00138225 2.00631e-20)
(1.00662 0.0424963 -2.22503e-20)
(1.00417 0.0417078 7.99245e-20)
(1.00872 0.0599006 6.93546e-20)
(1.01613 -0.00472072 5.40451e-20)
(0.910302 -0.00419967 2.51677e-20)
(1.01251 0.00124012 -3.08019e-21)
(0.63659 -0.00492871 1.38722e-19)
(1.01617 -0.000903142 2.18378e-20)
(1.05531 -0.020242 -2.02009e-19)
(1.02359 -0.00227777 5.11995e-20)
(0.89493 -0.00322142 -3.29739e-20)
(1.14208 0.00655879 4.62833e-20)
(1.08605 0.0601836 4.61581e-21)
(1.01274 -0.00227253 -1.22055e-20)
(1.01612 -0.0021116 6.17919e-20)
(1.04015 0.0595241 -2.944e-20)
(1.0127 0.00112415 5.72921e-21)
(0.901804 -0.0053806 -6.31647e-21)
(1.0215 0.0741206 -1.43783e-19)
(1.05554 -0.0248518 8.75712e-20)
(1.0272 -0.0413434 8.37895e-20)
(1.00977 -0.0271985 1.13203e-19)
(1.00261 -0.00540533 -5.66146e-20)
(1.02536 -0.0292219 -1.59997e-20)
(0.735522 -0.00642682 -4.82117e-20)
(1.01094 -0.00278339 4.80445e-21)
(1.0026 -0.0331141 3.1629e-20)
(1.08774 0.065608 -8.52381e-20)
(1.01561 -0.00280328 -1.6125e-20)
(1.01475 -0.000383415 -1.52636e-20)
(1.06645 0.0622786 6.66871e-21)
(1.01543 0.000949129 -1.00859e-19)
(1.01175 -0.00864247 -5.24836e-20)
(1.02333 -0.0276564 -5.72799e-20)
(1.013 -0.000938984 -1.29066e-21)
(1.01665 -0.00203969 -5.33464e-20)
(1.03703 0.0496403 9.24974e-20)
(1.07781 0.0692306 -9.60585e-20)
(1.02362 0.0686409 -2.01637e-20)
(1.06615 -0.0539916 -5.48786e-20)
(1.0395 -0.0469602 -2.71075e-20)
(1.1038 -0.0813871 1.42138e-20)
(1.02856 -0.00247942 1.60436e-19)
(1.03405 0.0490824 -3.41807e-20)
(0.877187 -0.0108404 2.67803e-20)
(1.01436 -0.000443086 8.76371e-21)
(0.696164 0.0485913 -1.07446e-19)
(1.01458 -0.00909206 2.72211e-20)
(1.01596 -0.00365935 4.18066e-20)
(1.0041 -0.0326129 -7.3251e-20)
(1.01174 -0.0079727 3.9042e-20)
(1.03057 0.0681274 -1.84601e-19)
(1.02802 0.067483 -4.10911e-20)
(1.00998 -0.0403491 -2.55344e-20)
(0.951359 0.0337885 -7.36343e-20)
(1.01755 -0.000669659 7.63908e-20)
(1.0035 -0.00258328 -4.10176e-20)
(0.96007 -0.0112657 -4.77249e-20)
(1.03622 0.00545553 -3.17953e-20)
(1.02865 -0.0868928 6.42122e-21)
(1.0767 0.0978177 -1.33629e-19)
(1.01606 0.0579283 -1.94641e-19)
(1.01373 -0.00143639 2.21473e-20)
(1.02201 -0.00357155 1.89405e-20)
(1.02881 0.0205108 1.54835e-19)
(1.01638 -0.0046986 9.49399e-20)
(1.03311 0.0187347 -2.04263e-20)
(1.01618 -0.00210717 2.21501e-20)
(0.995097 0.0584688 1.35481e-19)
(1.02656 0.0694237 3.16442e-20)
(1.0148 -0.00324688 -6.46063e-20)
(1.02056 -0.0054925 -3.74231e-21)
(1.00814 -0.00287065 1.1343e-19)
(1.10256 0.0821725 4.58352e-20)
(0.902175 0.00335866 -2.22695e-20)
(1.01564 -0.00690178 -2.66536e-20)
(0.977831 -0.0184627 -5.47226e-20)
(1.01396 0.000152274 5.04657e-21)
(1.01569 -0.00355872 2.70684e-20)
(1.01617 -0.00215159 -2.45518e-20)
(1.06035 0.0407704 1.04552e-19)
(1.01255 -0.00214246 -2.05351e-20)
(0.867366 0.00380478 -1.94839e-22)
(0.992173 -0.028773 -1.68864e-19)
(0.624793 0.0223668 -3.97742e-20)
(1.06951 0.0029129 -3.13199e-20)
(1.00822 0.0478011 1.08315e-19)
(1.00148 -0.0125628 1.60099e-20)
(1.02172 -0.0282784 -4.87463e-21)
(1.0149 -0.00287938 4.75798e-20)
(1.02475 0.0732608 -1.46568e-19)
(1.01838 0.000535197 -4.02257e-20)
(1.02057 0.0761019 7.12931e-20)
(1.02 -0.00688401 -1.00757e-19)
(1.01748 -0.00144802 6.79296e-20)
(1.03789 -0.0193801 -7.80384e-20)
(1.02798 -0.00112112 -1.49568e-19)
(1.016 -0.000651202 3.37792e-20)
(1.0072 -0.00612553 -1.70693e-21)
(1.01605 -0.000988556 8.5261e-20)
(1.0166 -0.00486569 8.02345e-20)
(1.03227 -0.0429934 -1.0446e-19)
(1.01478 -0.00657294 -1.0689e-20)
(0.994911 -0.0190872 -4.61163e-20)
(1.01494 -0.00203495 4.34363e-21)
(1.01276 -0.00145778 -2.20266e-20)
(1.01609 -0.003498 -1.26091e-20)
(1.01877 0.0728019 1.68981e-19)
(0.823727 -0.00375086 -1.91306e-20)
(0.947535 -0.0102419 1.16511e-20)
(0.474413 0.0344749 1.68928e-19)
(1.01555 -0.00407794 5.13735e-20)
(1.05665 0.0766991 -7.16435e-20)
(1.01469 -0.00293536 -6.91879e-20)
(1.02296 -0.0140756 7.45343e-20)
(1.01381 0.000468174 -9.65254e-22)
(1.00825 -0.0224119 4.85475e-20)
(1.03635 0.00574231 4.59022e-20)
(1.14354 0.0140003 -1.06887e-19)
(1.00543 -0.0125771 -9.38201e-20)
(1.01551 -0.00246189 -7.71819e-20)
(1.00687 -0.0523381 -3.65533e-20)
(0.255148 0.00154187 -5.22605e-20)
(0.87912 0.00429643 -4.37023e-21)
(1.01602 -0.000829465 -7.56499e-20)
(1.01677 -0.00342882 -5.97832e-20)
(0.989449 -0.00796399 6.15123e-20)
(1.02023 -0.000700979 -6.61782e-20)
(1.01596 -0.00274292 -3.41713e-20)
(1.00383 -0.00554154 -1.31811e-20)
(1.03541 -0.0413242 7.02007e-20)
(1.00147 -0.00433876 -5.72191e-20)
(1.1181 -0.0170225 7.20334e-21)
(0.979487 -0.0041482 6.06833e-20)
(1.03235 0.0793717 1.66209e-20)
(1.0304 0.0806327 -1.24957e-19)
(1.01544 -0.00248638 5.37384e-20)
(1.16148 0.0128451 1.36071e-19)
(1.01177 -0.00456256 1.7149e-21)
(1.0172 -0.00387661 6.37255e-20)
(0.587885 0.00626212 -1.39624e-19)
(1.00967 0.0272961 6.32378e-20)
(1.04081 0.0130917 -9.46558e-20)
(1.01405 -0.00156534 3.03085e-20)
(1.01704 -0.00307502 9.26102e-21)
(0.992298 -0.00424452 -4.5817e-20)
(1.04943 0.0369721 -4.21436e-20)
(1.01597 -0.00271811 -3.6852e-20)
(1.01785 -0.00152564 3.046e-20)
(1.0172 -0.00059161 -7.08329e-21)
(1.10482 0.0259414 1.102e-19)
(1.17693 -0.0333548 7.11137e-20)
(1.04152 0.0906241 8.28752e-20)
(0.977135 0.00140634 4.96345e-20)
(1.06233 -0.0235949 -1.71551e-19)
(1.01278 -0.00199431 2.14312e-20)
(1.02073 -0.00511617 -1.05321e-19)
(1.01536 -2.2623e-05 4.46941e-21)
(1.01019 -0.0135019 -1.61578e-20)
(1.00928 -0.00441633 1.95655e-20)
(1.02595 -0.0128773 1.04285e-20)
(1.18074 0.0150438 -1.15638e-19)
(1.00235 -0.0178898 -9.15963e-20)
(1.02383 -0.013229 -2.17586e-20)
(1.02172 -0.00300242 -3.11636e-20)
(0.995509 -0.00894693 -5.3276e-20)
(1.03509 -0.0100482 3.43116e-20)
(1.01696 -0.011598 -4.75351e-20)
(1.07025 0.0156619 -4.74289e-20)
(1.05662 0.0396327 5.06575e-20)
(1.14305 -0.0919476 -1.10315e-21)
(1.12143 -0.0304372 6.31692e-20)
(0.442322 -0.0042204 5.5632e-20)
(1.02055 -0.0021338 7.3606e-20)
(0.979542 -0.0176202 2.23756e-20)
(1.00452 0.0573582 -2.17276e-19)
(1.10598 -0.0310293 -1.10583e-19)
(1.03319 -0.00388926 -1.01558e-19)
(0.984386 0.0388657 -1.03005e-19)
(0.923523 -0.00766524 -2.42243e-20)
(1.0154 -0.00268157 1.47339e-20)
(1.13476 -0.0208669 6.27768e-20)
(1.01664 -0.00309365 3.02917e-20)
(1.02746 -0.0259602 -2.22077e-20)
(1.02114 -0.00240198 2.34631e-20)
(0.966259 -0.00332449 2.44649e-20)
(0.97878 -0.00413176 5.0048e-20)
(1.03249 0.0262888 8.50263e-20)
(1.01383 -0.00180433 9.29693e-21)
(1.01597 -0.000229202 -2.97472e-20)
(1.01391 -0.000454945 2.63139e-20)
(0.997737 -0.0016635 -1.13957e-19)
(1.01525 -0.00664992 -7.1947e-20)
(1.01414 -0.0158423 -2.68911e-21)
(1.01702 -0.00168245 -7.32793e-21)
(1.00602 -0.0110464 -3.40157e-20)
(0.884529 0.0354844 6.17252e-20)
(1.02524 -0.0139526 -4.68784e-20)
(1.01483 -0.00857209 -1.00725e-19)
(1.02035 0.0632958 2.8464e-20)
(1.00421 0.0486553 1.28268e-19)
(1.0621 0.00641419 -4.53835e-20)
(1.15424 0.0173836 -5.17007e-20)
(0.489265 0.00762329 -7.56791e-20)
(1.02059 -0.00240191 -3.84787e-20)
(1.01238 0.0456372 -6.37612e-21)
(0.980478 -0.00286234 9.05026e-20)
(1.04484 0.0760427 3.48146e-21)
(1.02514 -0.0314801 -2.76465e-21)
(1.04517 -0.0773347 3.102e-20)
(1.07472 0.0669664 5.91587e-20)
(1.0462 0.0792272 -8.1211e-20)
(0.995701 -0.0163415 -1.08828e-19)
(1.04262 0.011619 -6.68652e-20)
(1.07954 0.101357 1.25558e-19)
(1.05291 0.0768673 1.274e-19)
(1.02926 0.000247518 5.16788e-20)
(1.01572 -0.00297697 -2.65843e-20)
(1.01565 -0.00346872 -1.82703e-20)
(1.011 0.0010282 1.05539e-20)
(1.02948 -0.016724 3.23301e-20)
(0.939443 -0.00117394 -2.14626e-20)
(1.01654 -0.0029509 -3.88102e-20)
(1.00415 -0.0110924 1.75971e-20)
(1.01573 -0.00179852 -2.03409e-20)
(1.00502 -0.0514845 6.03824e-20)
(1.09241 0.0342765 4.05422e-20)
(1.00756 -0.00398812 8.56234e-20)
(1.01697 -0.0080048 -1.14712e-19)
(1.00076 0.000542512 5.5743e-20)
(1.06078 -0.0255574 6.10795e-21)
(1.00083 -0.00696969 1.0704e-19)
(1.01899 -0.00465771 7.47176e-20)
(1.08918 0.0986737 1.98434e-20)
(0.988382 -0.00158983 1.23414e-19)
(1.013 -0.00186784 1.77269e-20)
(1.01426 -0.001752 6.46141e-21)
(1.01371 -0.00163772 4.17138e-20)
(1.00523 -0.00544074 -3.25078e-20)
(1.03079 0.0235204 -1.06936e-19)
(0.95003 -0.00669279 -1.65057e-21)
(1.03115 -0.00420627 6.9375e-20)
(1.03429 -0.0910199 -4.60455e-20)
(1.02288 0.0698763 -3.24284e-21)
(1.02029 -0.00554553 3.99712e-20)
(1.02283 -0.00289463 -6.95076e-21)
(1.01516 -0.00329447 5.29004e-20)
(1.01765 0.0736336 -1.667e-19)
(0.939005 -0.00272839 -2.65488e-20)
(1.04334 0.0931269 -4.30431e-20)
(1.01123 0.0191197 -1.09088e-19)
(1.00868 -0.00328854 -2.05887e-20)
(1.02369 -0.0322297 6.27748e-20)
(1.01038 -0.00164887 5.55011e-20)
(1.01415 -0.0400899 -1.24422e-19)
(1.01564 0.000388653 2.85888e-20)
(1.05817 0.00882354 6.13718e-20)
(1.02265 -0.0100042 -2.24895e-21)
(1.02192 -0.00190497 1.1548e-20)
(1.00606 -0.00610541 6.56509e-20)
(1.06495 0.0386942 5.47655e-20)
(1.04571 0.0362413 1.58728e-20)
(1.02581 -0.0430475 -7.08321e-20)
(1.0065 -0.0128962 6.09078e-21)
(1.01709 -0.00357757 4.21025e-20)
(1.01991 -0.0251374 1.44771e-19)
(1.11995 0.0487915 -8.31645e-20)
(0.849758 0.0272451 -8.97363e-20)
(1.07973 -0.0496036 5.11997e-20)
(1.02126 -0.00535043 -2.19406e-20)
(1.01123 -0.000690351 1.02356e-21)
(1.01191 -0.00363877 8.39366e-20)
(0.986011 -0.00466709 -9.84818e-20)
(1.03503 -0.00943092 5.67262e-20)
(1.0233 -0.0718792 2.49012e-20)
(1.16043 0.00242819 -5.14396e-20)
(1.02091 0.069717 -1.92403e-19)
(1.05268 0.0343721 7.59109e-20)
(1.1055 -0.072609 -5.24329e-20)
(1.06644 0.0667948 2.27557e-20)
(1.01055 0.0695721 2.07306e-19)
(1.02999 -0.00239445 5.91974e-20)
(1.01692 -0.00176276 8.54836e-20)
(1.03131 0.0534842 4.61075e-20)
(1.01657 -0.0028234 -6.44242e-20)
(1.0139 -0.00297794 -1.84411e-20)
(0.774346 -0.0027466 -2.27046e-20)
(1.01576 -0.00119472 6.37394e-21)
(1.11078 -0.0879247 -1.88662e-20)
(1.02099 -0.0112037 5.3104e-20)
(1.00949 -0.0222097 -8.79947e-20)
(1.01728 -0.0013176 2.7392e-20)
(1.06248 0.060025 1.2562e-19)
(0.992746 -0.0020393 1.02816e-20)
(1.01297 -0.00205233 1.29611e-22)
(1.0401 -0.0807382 -3.2062e-20)
(1.01739 -0.00045685 -1.69053e-20)
(1.09255 0.00416359 -1.19128e-20)
(0.976688 -0.0110494 -1.83541e-20)
(0.913309 -0.00643563 -5.81984e-21)
(1.16443 0.0517923 -9.70542e-21)
(1.02672 0.0190231 -3.96004e-20)
(1.02399 0.00590164 2.72617e-20)
(1.02243 0.00534906 -1.28384e-20)
(1.00086 -0.0163094 -6.04473e-21)
(1.09837 0.0338688 3.21082e-20)
(1.07046 0.0184412 5.72723e-20)
(1.017 -0.00279192 -2.51495e-20)
(1.00866 -0.00420983 -9.90851e-20)
(1.01666 -0.000233225 -3.16917e-20)
(1.02589 -0.0116826 -1.22941e-19)
(1.02517 -0.0178475 2.29152e-20)
(1.02121 -0.00142803 -7.17647e-22)
(1.01604 -0.00267865 8.02842e-20)
(1.10217 0.0762665 -1.35753e-19)
(1.01237 -0.00285439 2.09323e-20)
(1.01542 0.000169727 -1.84442e-20)
(1.01952 -0.000868011 -4.09717e-22)
(0.866467 -0.00500295 -5.26824e-20)
(1.02904 -0.00552763 6.92026e-20)
(1.00896 -0.01866 1.30575e-19)
(0.920074 -0.00142128 2.63089e-20)
(1.02964 -0.0408398 -4.70219e-20)
(1.04799 -0.0985121 5.07157e-20)
(1.03679 -0.0174672 4.16626e-20)
(1.03529 0.0530528 -2.65795e-19)
(1.17276 0.0199271 6.95671e-20)
(1.01461 -0.0039434 6.68433e-21)
(0.99358 0.0546741 1.56457e-19)
(1.00392 -0.03695 -1.17455e-19)
(1.0152 -0.00742676 -2.15272e-20)
(0.876662 0.00589182 -4.55176e-20)
(1.01725 -0.0115354 9.90644e-21)
(0.781563 0.0051305 -8.58231e-20)
(1.01304 -0.00339488 3.05104e-20)
(1.03387 -0.00657449 -7.71583e-20)
(1.11246 -0.0337763 2.4112e-20)
(1.01302 -0.00192095 1.72766e-21)
(1.0315 -0.0058232 -5.53885e-21)
(1.01009 -0.00200354 1.10243e-20)
(1.02908 0.0732022 4.14878e-20)
(1.12 0.0671911 1.26444e-19)
(1.01588 -0.00312666 -1.82525e-20)
(0.843636 -0.00124048 1.03763e-19)
(1.00932 -0.00471776 3.66575e-20)
(1.01005 0.0688518 1.31899e-19)
(1.03923 0.0784648 1.02983e-19)
(1.10034 0.0273541 -6.00696e-20)
(1.10509 0.096219 -1.07486e-19)
(1.0039 -0.0392584 5.02606e-20)
(1.0035 0.0658053 -1.95103e-19)
(1.01382 -0.00167088 -1.93136e-20)
(1.0512 -0.0133646 1.35365e-19)
(0.633705 0.00929051 2.9721e-21)
(1.08058 0.05832 -3.20077e-20)
(1.01505 0.053046 -1.36373e-19)
(1.12316 0.0435039 1.2696e-19)
(1.04854 0.0298832 1.23761e-20)
(1.01742 -0.00799853 3.46427e-20)
(1.01278 -0.00422806 3.19862e-20)
(1.10792 0.0849904 4.77457e-20)
(1.16703 -0.0161784 -2.15112e-20)
(1.01805 0.0722025 -5.09865e-21)
(1.0868 0.00290321 1.48045e-19)
(1.03516 0.0453 8.30029e-20)
(1.01458 -0.00406082 1.96922e-20)
(1.02161 0.0700726 5.29228e-20)
(1.04139 0.0756895 3.89283e-20)
(1.01408 -0.00316216 9.25524e-20)
(1.01472 -0.003823 4.11275e-20)
(1.11711 0.0783272 3.48546e-21)
(0.875127 0.000691502 9.27289e-20)
(1.01388 -0.00183278 2.55532e-20)
(1.01214 -0.00406249 -1.09463e-19)
(0.963711 -0.0147349 -6.99e-20)
(1.01235 -0.0503869 1.26834e-20)
(1.02273 -0.00211533 -1.07515e-19)
(1.02114 -0.00240059 9.64027e-21)
(1.01548 -0.00241004 3.28726e-20)
(1.04018 0.081455 -1.52845e-19)
(1.01884 -0.0079191 -8.87311e-21)
(1.01273 -0.00174265 -9.88881e-21)
(1.03506 -0.03762 -8.39742e-20)
(1.01598 -0.00345474 -1.96892e-20)
(1.01307 -0.00426484 -3.08865e-21)
(1.02041 -0.00749188 -2.36896e-20)
(1.0552 0.0598519 1.60925e-19)
(1.03426 -0.0712165 -4.80241e-20)
(1.02015 0.0603271 8.40872e-20)
(1.01411 -0.000949044 -2.05138e-20)
(1.05843 0.0622749 -1.70588e-19)
(1.02958 -0.0320102 -6.5435e-20)
(1.01439 -0.0022334 6.72184e-21)
(1.01341 0.000288211 -1.02455e-20)
(1.00411 0.0126646 -1.86583e-20)
(1.05136 0.0534108 6.11189e-20)
(1.01569 -0.00346339 -1.95615e-20)
(1.04763 0.0436983 -8.68616e-20)
(1.01309 -0.000220766 7.57546e-21)
(1.04858 0.047667 -1.17254e-19)
(1.13097 -0.092827 -5.17791e-20)
(1.01323 -0.00288581 -1.00213e-19)
(1.00145 0.0498516 -2.62643e-19)
(1.00433 -0.0306046 -8.87397e-20)
(1.10867 0.0920938 1.10325e-19)
(0.896909 -0.00434306 -2.71312e-20)
(1.05156 0.0493593 1.50399e-19)
(1.05503 0.0553312 -4.41211e-20)
(1.00948 -0.00530676 -1.48827e-19)
(1.0064 -0.00638741 8.82437e-20)
(1.01582 -0.0068146 -8.26373e-20)
(1.01451 -0.00306553 2.2023e-20)
(1.01412 -0.00288938 -4.15643e-20)
(1.01876 -0.00791383 1.46211e-20)
(1.04703 0.0726176 -1.98656e-20)
(1.01299 -0.00201686 -4.71821e-21)
(1.04367 0.0425717 1.14183e-19)
(1.04447 -0.0711564 -8.2749e-20)
(1.02065 0.0579305 5.19726e-20)
(1.04325 0.0390973 -1.33517e-19)
(0.949368 -0.0132361 9.33135e-21)
(1.0172 0.0649723 -1.80863e-19)
(1.01587 -0.00280298 5.52585e-24)
(1.02918 -0.0152984 4.83413e-20)
(1.05762 -0.0493736 -3.02328e-20)
(0.789492 0.00053174 5.16513e-21)
(1.01484 -0.00394255 -6.13523e-20)
(1.02777 -0.0331401 5.20133e-20)
(1.05452 -0.0067886 -1.19699e-20)
(0.994745 0.0411609 2.01605e-19)
(1.01252 -0.000978491 2.83805e-20)
(1.01581 -0.00296688 -3.37973e-20)
(1.03397 -0.0491538 1.87122e-22)
(1.01417 -0.000586157 1.65157e-21)
(1.02915 0.0757464 2.00826e-20)
(1.01704 -0.000159859 0)
(1.0131 0.000842321 1.43948e-21)
(1.01382 -0.000192053 4.55093e-20)
(1.01683 0.000194731 5.54225e-22)
(1.01033 -0.0127958 -1.10124e-19)
(1.03098 -0.00849862 -3.91172e-20)
(1.01582 -0.00289471 -6.61829e-20)
(1.00369 0.0153529 -2.19659e-20)
(1.01479 -0.00390779 -3.21291e-20)
(1.01995 -0.00748995 -2.60846e-20)
(1.01534 -0.0765176 6.21243e-20)
(0.63875 -0.00126251 -7.55374e-21)
(1.02854 -0.00495175 1.06857e-19)
(0.936645 -0.00336758 -1.06899e-20)
(1.09399 -0.106852 -6.44979e-20)
(1.01127 -0.00467281 4.58927e-20)
(1.10754 0.0711536 -9.57155e-21)
(1.00113 0.0298408 -4.25881e-20)
(1.01663 -0.00249097 2.493e-20)
(1.09906 0.0627026 -1.4095e-19)
(1.01377 -0.000559151 -8.77035e-22)
(1.01221 -0.00415531 -8.82778e-22)
(1.02743 0.00182427 -7.62199e-20)
(1.01494 -0.0041223 2.47985e-20)
(1.05648 0.0685255 -1.00679e-20)
(1.01221 -0.00482247 8.47121e-20)
(1.05149 -0.0118371 -1.04914e-19)
(1.0285 0.00396867 -7.70718e-20)
(1.05644 0.0362741 -2.96348e-20)
(1.02272 -0.00928274 -6.7985e-20)
(1.01348 -0.00371024 -2.4488e-21)
(1.07096 0.0597434 8.55219e-20)
(1.00776 -0.0554819 6.38125e-20)
(1.02469 0.0751227 1.62488e-19)
(1.01405 -0.00429812 1.13911e-19)
(1.05769 0.0845027 5.75473e-22)
(1.01416 -0.00393715 -3.04057e-20)
(1.01653 -0.00175731 5.75429e-21)
(1.04762 0.0279906 3.63844e-20)
(1.02864 -0.0180593 -3.60355e-20)
(1.03692 0.00773855 1.10541e-19)
(1.01566 -0.000821437 1.88223e-20)
(1.01339 0.000865209 6.64467e-22)
(1.02391 -0.0885839 -2.29152e-20)
(1.08853 0.0939721 -1.24013e-19)
(1.01689 -0.00252345 -2.23426e-20)
(1.10559 0.0643848 1.56859e-20)
(1.01257 -0.00473595 6.0343e-20)
(1.08709 -0.111825 2.19466e-20)
(1.0504 -0.0231274 1.60196e-20)
(1.00873 -0.0198562 -7.06782e-20)
(1.016 -0.00271088 2.64767e-20)
(0.899192 -0.00475054 2.42152e-20)
(1.00344 -0.0469791 4.36895e-20)
(0.998922 -0.00537839 -9.93196e-20)
(1.0139 -0.00362425 -7.65877e-20)
(1.01515 -0.00229165 -3.07954e-20)
(1.02223 0.0769838 -1.76822e-20)
(1.097 0.0565899 8.95006e-20)
(1.03264 -0.00453661 -2.49482e-20)
(1.0138 -0.00312487 -2.81524e-20)
(1.04012 0.0728825 -7.32999e-20)
(1.01283 -0.000860349 8.13372e-21)
(1.01356 -0.00293572 -5.82277e-20)
(1.09071 0.0553515 7.62086e-20)
(1.02546 -0.0150226 6.68403e-20)
(1.09614 0.0865047 1.1402e-19)
(1.02967 -0.00165227 4.33961e-20)
(1.02815 -0.00707538 -1.33039e-20)
(1.08646 -0.0393944 -4.57105e-20)
(1.06033 -0.0899387 -6.19485e-20)
(1.16465 0.0454689 -4.64684e-20)
(1.01712 -0.000827986 -5.05628e-20)
(0.984872 -0.0110453 6.50367e-21)
(1.01323 -0.00139323 5.81384e-21)
(1.0206 -0.0079604 1.70222e-20)
(1.05872 0.0664835 5.80949e-20)
(1.0101 -0.00496424 -1.10946e-19)
(1.01586 -0.00305978 -3.41123e-20)
(1.02944 -0.0249414 7.15123e-20)
(1.01573 -0.00315415 -1.86422e-21)
(1.01622 -0.00221161 -4.47614e-20)
(0.492408 0.00809097 3.55289e-20)
(1.01379 -0.00442072 5.93947e-20)
(1.01546 -0.003239 8.34711e-20)
(0.712538 -0.00265097 3.11747e-21)
(1.01926 0.00682923 1.1502e-19)
(1.00272 -0.0167702 1.3369e-20)
(1.01551 -0.00255853 -3.87594e-20)
(1.01613 -0.00277925 -4.54561e-20)
(1.025 0.02139 4.19047e-20)
(1.06195 0.0150076 1.06141e-20)
(0.995519 -0.0148372 6.88681e-20)
(1.01247 -0.000828941 9.11168e-21)
(1.0024 0.0176884 2.57135e-19)
(1.01077 -0.0113638 7.96642e-20)
(1.06237 0.0555955 -1.30502e-19)
(1.02452 -0.00109936 -1.16288e-19)
(1.0254 -0.000342865 2.35542e-19)
(0.999779 -0.00648143 -1.28366e-19)
(1.0129 -0.00152578 6.9797e-21)
(1.02747 0.000509387 -9.42036e-21)
(1.06555 0.0130003 -1.97493e-20)
(1.14624 0.049046 9.65051e-20)
(1.04903 -0.0673611 -2.63137e-20)
(1.04504 0.0697312 6.28297e-20)
(1.02254 -0.00116046 -2.814e-21)
(1.07541 0.0624277 -1.17348e-19)
(1.01795 -0.00961362 4.42606e-20)
(1.03217 -0.036206 1.28091e-19)
(1.01483 -0.00330748 3.15219e-20)
(1.02078 -0.0117086 -1.07716e-19)
(1.01512 -0.00215102 -2.72912e-20)
(1.04424 0.0316749 -9.88752e-20)
(1.06843 0.091057 -1.9263e-19)
(1.01613 -0.00267099 -2.03647e-20)
(1.02883 -0.00621665 8.58428e-21)
(1.00434 -0.00274922 -3.66038e-20)
(1.05163 -0.0578546 -1.5512e-20)
(1.04773 -0.0619104 4.14552e-20)
(1.01501 -0.00330355 -3.57965e-20)
(1.04843 -0.0135298 -5.39549e-20)
(0.228305 -0.00338233 -5.99591e-20)
(1.14339 0.0344684 8.6414e-20)
(1.01409 -0.00168588 -4.89075e-20)
(1.05841 0.0126255 -4.22836e-20)
(1.01664 -0.00652826 6.3163e-20)
(0.670184 -0.00300323 2.18047e-19)
(1.01261 -0.00440866 -8.17224e-20)
(1.01658 -0.0166945 2.88665e-20)
(1.03082 -0.0216534 -3.01566e-21)
(1.01599 -0.0170847 1.09976e-21)
(1.0178 -0.0132584 1.11508e-19)
(1.01469 -0.00390758 -1.99175e-20)
(1.01757 -0.00977401 -9.58639e-20)
(1.01889 -0.00453146 -2.26839e-20)
(1.05607 -0.00976435 2.40994e-20)
(1.01303 -0.0013944 -4.38131e-20)
(1.16305 -0.0653041 3.08629e-20)
(1.13185 0.00320217 3.64955e-20)
(1.03444 0.0800863 1.19148e-19)
(0.996752 -0.0139289 -1.08173e-19)
(1.09037 0.0828128 -5.70917e-20)
(1.01723 -0.000595719 5.65009e-20)
(1.06903 -0.0480675 -2.12043e-21)
(1.02261 -0.0240153 6.48271e-20)
(1.02312 0.0361226 9.96981e-20)
(1.01486 -0.00421682 -5.62472e-20)
(1.01453 -0.0012927 3.2662e-20)
(1.01124 -0.0117587 -1.10434e-19)
(1.0161 -0.00688287 3.23157e-20)
(1.04577 -0.0125025 8.90787e-20)
(0.990658 -0.0033398 8.73913e-20)
(1.00576 -0.00596369 -2.9346e-20)
(1.10909 -0.0175318 2.8544e-20)
(0.990929 -0.00356045 6.98389e-20)
(1.02925 -0.0229831 -5.99955e-20)
(1.01351 -0.0535306 -5.29931e-20)
(1.01303 -0.00164173 1.43827e-21)
(1.05612 -0.00371968 1.03541e-19)
(1.0146 -0.0477688 1.6088e-19)
(1.09545 0.0733626 6.33007e-20)
(1.08685 -0.0448201 7.47784e-20)
(1.03585 0.00697617 1.13432e-20)
(1.03918 -0.0686186 1.10744e-19)
(1.04509 0.0856346 3.56453e-20)
(1.04212 -0.0205537 8.09624e-20)
(0.997026 -0.00569866 7.62706e-20)
(1.02954 -0.0296011 9.27469e-20)
(0.460679 0.0164181 6.72982e-20)
(1.1334 -0.0673347 -2.98213e-20)
(1.01246 -0.00422253 2.52752e-20)
(1.04039 -0.0875086 6.51356e-21)
(1.03847 -0.0427879 -7.80761e-20)
(1.05137 -0.0800739 4.13562e-21)
(1.04981 -0.0530788 6.30463e-20)
(1.07062 0.0550687 1.12066e-19)
(1.01583 -0.00309214 -1.7039e-21)
(1.01038 0.044308 3.49126e-20)
(1.0223 -0.000974698 2.54953e-20)
(1.01572 -0.00234118 4.80543e-20)
(1.01695 -0.00270661 -1.44317e-19)
(1.05535 0.0076776 -2.15738e-20)
(0.133543 0.00837488 1.41016e-21)
(1.01881 -0.00460485 3.26443e-20)
(1.0321 -0.0333815 -1.67576e-20)
(1.025 0.0237698 -6.83763e-20)
(1.01319 -0.000695322 -1.467e-21)
(1.007 -0.00607382 -7.53e-20)
(1.03057 -0.0044654 6.89517e-20)
(1.07061 -0.0225742 1.03402e-19)
(1.02209 -0.000789862 1.33448e-19)
(1.01701 -0.00336536 -2.00759e-20)
(1.00949 -0.0252912 3.4215e-22)
(1.01711 -0.00630476 3.26817e-20)
(1.01246 0.000796628 1.71108e-20)
(1.00575 -0.0300134 1.51798e-19)
(1.05046 0.0655459 -2.50675e-20)
(1.0315 -0.0186726 -1.19134e-20)
(1.0087 -0.00267304 6.76451e-20)
(1.01821 0.000102507 -2.13432e-20)
(1.02793 0.026201 9.09252e-20)
(1.01615 -0.00268275 1.88437e-20)
(1.01629 -0.00243901 4.24516e-21)
(1.0149 -0.00330796 3.16175e-20)
(1.01663 -0.00268486 5.80727e-20)
(1.13597 0.0495009 6.63855e-20)
(1.03742 -0.0214503 1.93913e-19)
(1.02343 -0.0114343 4.70017e-20)
(1.00884 -0.00495581 3.03485e-20)
(1.01378 -0.000620631 1.70423e-20)
(1.07449 -0.0856861 -8.76135e-20)
(1.16863 -0.0037743 1.76951e-21)
(1.07888 -0.0931169 3.98109e-20)
(1.01762 -0.0212106 4.41918e-20)
(1.02518 -0.00518629 1.06298e-19)
(1.01321 -0.00379738 -2.05935e-20)
(1.01249 -0.00778971 4.96723e-20)
(0.993632 -0.0305304 6.82911e-20)
(1.13486 0.0359162 3.14437e-23)
(1.01811 0.0593423 -2.49596e-21)
(1.01665 -0.00353829 -3.3719e-20)
(0.98522 -0.021362 -3.46427e-20)
(1.01554 -0.00351579 7.69397e-20)
(1.04043 -0.0189559 -3.18299e-20)
(1.07937 0.0529439 1.32263e-20)
(1.01697 -0.000731418 -5.75751e-20)
(1.01477 -0.00295367 1.30538e-20)
(1.11519 0.0830737 1.51677e-20)
(1.13112 0.0215076 -2.02035e-20)
(1.03019 -0.00933964 3.57323e-20)
(1.01583 -0.00318261 -5.66302e-20)
(1.00857 -0.00429838 7.52199e-21)
(0.998128 -0.0312069 -1.72131e-20)
(1.01476 -0.00267928 3.91476e-20)
(1.03034 -0.0200055 1.11242e-19)
(0.834988 -0.004718 -1.58521e-19)
(1.00121 0.0294075 -3.44706e-20)
(1.05313 0.0684565 -1.21574e-20)
(1.06522 -0.0439773 -4.52166e-20)
(1.01737 -0.048043 -5.67634e-20)
(1.01988 -0.00183111 8.27676e-20)
(1.02749 -0.0146683 -9.8591e-20)
(1.12492 0.00855576 9.96522e-20)
(1.01709 -0.0538559 3.2213e-20)
(1.03149 -0.028285 -5.65688e-20)
(1.01223 -0.000576463 -1.79676e-21)
(1.11504 -0.00299287 8.57811e-20)
(0.776447 -0.00734329 -8.47867e-21)
(1.01638 -0.0603468 -5.85447e-20)
(1.03106 -0.0172018 -1.53746e-19)
(0.986729 -0.00947452 1.29448e-20)
(1.01479 -0.0031827 1.55472e-20)
(1.01581 -0.00287731 2.6739e-20)
(1.03997 0.0379035 1.02068e-19)
(1.00098 -0.00633661 3.03113e-20)
(1.01236 -0.00263755 -3.06663e-21)
(1.00401 -0.00264497 6.1478e-20)
(1.13117 -0.055928 1.108e-19)
(1.01253 -0.00210711 -6.1232e-20)
(1.03411 -0.0318527 2.28241e-20)
(1.0138 -0.00158754 2.40749e-21)
(1.02161 -0.00872498 7.02777e-21)
(1.01539 -0.0729983 -2.8816e-20)
(1.06011 -0.0447048 3.39451e-20)
(1.01386 -0.00144848 1.98646e-20)
(1.01292 0.000757594 -1.02464e-20)
(1.02351 0.00203227 3.26641e-21)
(1.02703 -0.0464386 -1.22323e-20)
(1.00207 0.0380156 -2.66592e-21)
(1.059 0.080401 1.47221e-21)
(1.10511 -0.0111465 -3.7152e-20)
(1.01663 -0.00270883 -4.39316e-21)