/*--------------------------------*- C++ -*----------------------------------*\
  =========                 |
  \\      /  F ield         | OpenFOAM: The Open Source CFD Toolbox
   \\    /   O peration     | Website:  https://openfoam.org
    \\  /    A nd           | Version:  7
     \\/     M anipulation  |
\*---------------------------------------------------------------------------*/
FoamFile
{
    version     2.0;
    format      ascii;
    class       volScalarField;
    location    "9";
    object      p;
}
// * * * * * * * * * * * * * * * * * * * * * * * * * * * * * * * * * * * * * //

dimensions      [0 2 -2 0 0 0 0];

internalField   nonuniform List<scalar> 
117990
(
26.3967
-0.0486108
9.37192
2.79314
9.25112
0.0316203
50.3888
19.9238
-0.341644
-0.0507181
-0.546595
0.430198
6.18529
79.9484
-0.333383
74.6583
-0.108033
-0.589271
49.6895
9.35293
19.9109
-5.30343
-0.620988
3.91512
51.3923
42.0353
22.2221
25.1655
-0.0958394
47.6644
-0.359932
41.3023
18.0132
5.18012
50.3599
-1.7398
49.9936
-0.0997622
-7.92984
49.6925
41.4447
-0.590334
15.1432
-1.79962
25.7191
80.1556
17.98
12.7503
9.8039
0.389815
-0.000103435
-3.86159
42.2643
-0.0263391
9.57326
42.3934
39.7962
38.2725
34.2883
11.0557
-0.120758
4.14117
-1.1494
11.3182
-0.217327
4.0171
5.94917
37.1019
23.6289
38.6242
49.1812
42.6738
49.5999
64.0668
22.5144
29.2953
31.6078
3.3292
50.3371
37.8753
38.0683
-0.208072
23.8022
24.5587
-3.27523
0.412559
13.3687
-0.0677982
38.0597
-0.066036
2.80646
4.0403
-0.0994476
-1.40982
-0.670816
0.946638
-0.716584
23.366
14.11
38.1027
-0.122507
27.9948
14.9787
8.19162
49.2613
20.1073
50.0337
17.8629
18.8756
-0.0799821
38.7385
-0.710141
31.8359
16.4342
45.937
13.569
-0.551201
49.0107
0.0291523
42.5536
48.9536
74.61
9.61001
34.5606
-0.00898998
47.9404
4.29263
41.2201
-2.19977
32.0182
26.2246
0.623882
47.701
0.410052
0.0303725
49.3064
50.6275
18.0929
9.71247
4.10594
39.0962
13.4119
0.116131
42.6548
26.5731
-0.000166414
22.4909
4.34128
37.1734
5.87342
19.9715
26.6099
3.91208
-0.00887942
-3.81022
18.0436
-0.0772597
34.7961
35.1759
20.6032
28.1304
22.3511
-1.13267
19.0989
14.5626
-1.11275
30.5063
19.3629
34.6105
14.4294
12.3082
17.9054
-1.66889
76.2058
19.5872
35.7017
76.5621
2.03857
20.5146
9.67419
22.95
22.6527
49.4706
42.8078
50.0269
-0.0801743
1.46599
45.8535
28.9764
3.00356
2.10193
13.0978
50.2132
17.4456
42.1995
19.0978
76.6877
-1.09153
19.0037
22.2565
43.8987
50.3616
24.3498
-0.0782335
0.791361
30.4362
-0.506558
-0.211667
32.5757
20.8508
77.085
49.9638
51.3404
-0.0640972
20.2888
17.6548
35.1764
18.0725
80.1183
-0.242806
18.463
15.4672
11.2297
38.9014
-0.0278753
49.0669
19.6272
20.8701
19.0245
50.3961
26.6573
22.4016
40.887
18.8068
26.0029
44.0123
1.14771
12.7916
19.129
-3.92495
11.6799
24.7331
20.6084
13.2641
-2.26453
6.21716
39.5146
43.5233
19.366
60.3857
50.2453
-0.455817
42.3144
5.53751
42.9455
23.1138
29.1262
25.1151
0.714534
19.7063
23.1541
80.3349
42.9001
-8.20258
18.9116
2.92068
34.8296
-2.16059
35.6192
28.4279
-0.225453
29.117
9.65776
24.7763
4.65429
13.8853
24.6685
19.7551
11.8141
17.3397
19.1516
-2.23188
3.00382
30.0916
0.558831
20.5259
49.193
41.6059
23.2588
-6.5484
25.6832
-0.0706563
31.2068
49.8867
0.0372763
25.2157
0.0149769
41.105
7.6536
28.0873
78.3293
18.7098
0.264471
6.58006
16.3318
38.4964
24.291
20.72
-1.61066
20.5356
-0.665014
46.801
44.4486
19.1693
6.09685
14.7747
50.1884
6.20882
3.98794
28.5682
32.2527
-0.230993
24.1809
46.143
39.7186
31.647
18.2449
40.4923
78.4673
31.6277
-0.461547
-0.0710652
0.036045
-0.0343852
49.8207
4.15322
35.4614
-0.216393
-0.0768067
1.3424
9.68562
39.4038
21.15
10.6613
7.37824
8.39254
11.8837
41.4405
24.1646
11.78
47.8406
45.9354
23.0123
2.02874
22.1677
20.8879
26.4393
-0.000912448
1.06124
28.5741
47.1803
15.8898
50.0364
48.5732
31.5445
-0.000800979
4.01858
15.7414
11.2665
-0.00399122
16.748
40.1789
42.6879
-0.913477
37.0779
12.6622
14.7991
0.382455
-0.0049797
29.1023
23.1229
19.0702
16.0701
28.5235
20.4958
-0.341193
41.5069
64.3603
9.20138
21.7679
40.9847
48.501
13.5056
25.2283
15.3204
0.903933
-1.12459
3.69663
9.55325
12.0705
21.4705
1.29503
43.0166
49.4014
-4.58834
27.6999
0.030824
10.9716
34.5286
-5.18322
17.7348
-0.750965
8.49805
3.20093
-3.36325
11.6518
9.53535
13.3668
0.0788966
20.1668
-0.000981667
77.255
0.632549
49.0771
44.6561
46.5242
28.0825
47.4036
39.5918
4.19097
6.93815
-0.00650075
-0.26638
20.0509
6.53585
10.935
26.79
0.617558
-0.373191
0.367336
3.1807
32.2704
26.496
12.1878
0.52361
16.8411
6.10672
-0.341675
48.382
35.6228
50.1284
0.0871016
0.423425
7.23574
19.3408
5.50337
19.0766
43.7748
45.0489
-4.41328
43.1384
6.10625
9.10386
50.4429
46.9625
19.7477
8.94889
76.1104
-4.30497
0.0878468
20.2249
63.0088
19.1011
64.7042
26.6769
39.6273
-0.00340185
9.015
27.8992
32.9211
48.1933
-0.00236018
-0.214285
6.32456
19.11
-0.398413
0.0605716
34.1286
51.6784
28.3942
49.8281
11.9192
50.2078
43.3923
3.33966
16.7929
73.0655
16.379
12.6667
8.05709
-1.35587
50.4686
18.8591
48.7136
24.3608
46.3477
11.5988
9.72728
10.7486
44.3036
2.1214
5.41699
5.51138
-0.0963583
26.0804
21.0963
0.762447
33.8613
-0.0685344
-0.0543572
7.02771
24.6512
2.52633
11.6829
18.5327
5.12907
-0.0978477
50.1111
23.7164
20.8507
12.5271
20.7023
9.42166
0.0177246
-0.002242
58.2105
73.2778
21.4763
0.016119
5.3658
39.5
22.4767
31.1316
-0.204175
19.8733
22.2194
0.240343
-0.0908218
43.5164
6.19014
8.9393
20.1835
1.19271
42.7498
18.8548
11.7723
10.4962
11.8089
35.7632
0.868186
0.0274629
13.1871
46.7133
50.3442
48.2985
26.3593
10.3197
49.1076
22.3727
0.719461
29.6995
9.79768
35.1718
7.96963
34.8922
4.02038
48.2001
1.73562
6.27597
11.4033
49.7389
0.692972
19.1633
19.0653
45.0248
19.6069
5.29595
16.9286
0.144128
-4.4629
5.13125
25.4301
19.3358
8.31473
40.2914
49.5073
50.1569
47.4046
48.5338
28.0585
38.5136
22.5364
50.0344
50.171
8.91204
4.18579
50.2633
0.0435707
-8.03733
26.2741
12.9773
6.18523
32.9623
-0.196324
7.05675
49.7404
50.3919
-0.390567
0.903333
33.0859
5.33561
-0.0676189
47.2115
45.228
-0.0807281
18.016
18.9735
1.93297
24.8003
39.3573
50.6044
5.43222
-0.00296714
50.0181
24.7142
-0.395305
32.171
17.9675
3.89991
-2.64468
-8.12687
6.18012
-0.243273
21.0226
0.92224
-0.319242
13.5706
32.4228
-0.497012
18.4206
4.04991
19.6795
49.8223
0.0206233
48.1233
24.3905
50.2044
32.6649
-0.775805
-0.101711
-0.615492
5.4741
43.0896
11.9872
4.13785
49.3598
70.3732
70.9678
29.3043
33.1213
50.0149
-0.709408
19.1904
13.0924
0.57827
24.9853
4.02019
26.1596
17.2007
47.3963
44.5982
1.59642
13.6355
20.8397
37.149
38.83
22.6975
0.00077284
49.7569
5.45955
78.8768
11.2843
28.1221
16.9887
13.2046
14.2786
-1.25042
50.4618
16.0894
39.7904
63.092
27.0253
-0.0696585
18.5019
18.7143
19.0259
32.0154
20.273
0.961156
15.8807
-1.36481
-0.0660504
11.8885
0.813109
50.5865
0.590561
49.1688
14.0988
26.5336
9.40076
42.4764
12.6001
46.0448
-0.00382743
22.8811
6.76172
9.025
18.1382
0.0365331
26.9667
44.0029
27.1338
0.719809
13.9268
43.0285
49.5038
7.61104
-0.576236
33.1373
0.450372
50.4456
22.2848
40.0976
47.1799
0.432482
23.2558
47.431
-0.322579
35.1528
50.2788
-2.67185
14.9985
1.07593
18.0968
11.4798
-5.35204
48.429
16.2055
43.636
47.0395
-3.23052
0.300885
48.8916
3.50143
5.89937
0.848503
45.7446
62.5529
49.3231
6.04078
1.66993
5.624
17.7838
18.2091
34.5291
31.3049
43.1108
-0.406862
15.19
0.0109747
6.51028
-0.00433198
-3.88495
19.7487
48.2948
-0.0991174
50.2144
-0.713858
25.1537
-0.865333
63.7822
12.8112
41.6651
-0.380903
20.9979
25.0247
11.1248
-0.0778574
1.55156
-0.516621
17.5137
8.41418
-1.30136
44.5062
0.290357
0.987033
19.8058
-0.763046
49.0749
38.7013
7.6256
25.2979
20.2693
-0.0106666
16.3809
17.6354
0.984119
21.3472
6.0578
31.177
5.64169
1.64944
24.7223
-0.064937
4.75583
-0.680702
49.9148
-1.34356
0.429556
-0.401849
28.604
38.3007
3.63028
1.91151
48.2742
50.3805
9.04242
42.4632
13.7672
59.89
0.312349
-0.0152135
46.9257
32.5768
0.305355
39.9228
-1.12373
-0.0375579
38.77
18.5398
44.1181
66.1363
19.3264
-5.27932
5.70944
12.5915
47.6529
-0.0190574
18.3077
37.9095
0.114468
14.2803
24.3992
45.4404
15.1573
14.3348
45.1188
32.7205
21.5948
15.2485
49.6379
37.0949
1.58901
18.5976
47.3619
-1.54775
-0.643135
17.5616
7.2299
10.9589
45.7396
-5.34236
-0.0360691
-8.41195
10.5346
17.9838
46.0489
15.472
29.0753
1.36802
45.7812
15.2703
38.6982
16.0481
42.6283
39.9017
18.3941
42.2559
48.6635
-0.676307
39.262
51.2524
17.6851
2.64108
19.8989
45.5222
25.7033
27.1079
49.6757
7.71337
4.02886
-2.26043
0.818394
37.0442
37.1126
0.966171
50.127
47.7166
30.1889
-2.22197
33.5197
63.8817
18.4254
49.3867
45.2065
1.24131
33.3698
63.3399
3.49035
42.1514
67.1876
-1.39872
39.6986
0.798754
46.151
10.2118
43.9514
36.4829
-3.76228
50.3686
-1.31397
21.5882
15.8783
-0.395481
15.8653
15.7481
11.4671
19.6091
5.03846
2.4636
34.727
13.8071
-0.649439
18.9881
78.9345
48.3089
28.1316
43.2806
-3.14626
6.63208
48.178
23.9786
-0.0677981
2.12541
19.8367
1.46802
15.9071
-2.13377
39.7807
-6.3814
31.884
57.88
43.1495
31.7066
6.5148
9.48974
-4.11866
43.4338
18.5209
0.000468704
-1.418
-0.644172
44.9622
4.83782
-0.0072739
16.1751
13.6577
20.3936
43.4593
42.2185
14.9121
19.3476
6.17289
46.5615
17.5792
40.4708
5.06608
20.3618
21.235
9.64593
-0.378487
0.814123
-0.10649
20.1235
-1.31511
13.4243
1.79561
42.7773
0.0218064
2.0587
0.168431
43.4533
15.3295
50.4966
32.084
42.6324
0.507809
16.6224
50.4386
27.0278
15.3773
45.4684
-0.419402
7.23344
-7.43039
29.9837
0.0231574
25.4845
13.365
19.3218
18.7032
50.2789
10.4903
-8.0482
43.3906
10.9783
11.0958
6.38518
-0.00684204
-0.355576
-1.35336
33.8904
-0.759301
4.15435
13.2367
49.882
47.809
23.0672
0.40745
16.6394
33.0496
16.551
0.380816
14.0313
27.3427
0.0667817
5.29492
32.6175
44.1253
12.4614
75.388
48.1375
17.0835
0.602979
66.7368
30.18
2.76143
0.104288
-7.3895
-2.23675
11.4444
-0.0815378
-3.10819
31.9059
41.9914
17.5777
18.9152
12.5527
-0.129572
43.8227
-0.66462
25.3745
44.754
-0.186516
28.5584
7.29285
51.6749
45.4813
19.494
50.7012
45.2697
15.6823
34.2724
0.417446
2.4449
74.0098
-2.19945
-0.385088
26.0161
-1.04317
-0.159187
11.0418
-0.522033
18.9786
18.2945
3.58477
-0.47598
-0.563503
3.53413
-0.104719
43.0387
33.1181
21.522
-1.19296
66.6266
19.7239
40.2846
11.6121
12.5485
45.914
38.5325
31.1073
20.0494
3.7373
0.0442309
33.1342
50.2713
31.0429
-0.0958271
-8.13366
0.394133
0.0798135
43.8465
1.88881
42.2734
-1.26375
50.1703
22.215
12.3924
23.091
-0.0457594
46.179
-1.17064
5.59648
44.6485
50.2392
48.4146
1.7108
2.15641
43.4601
-0.0254857
36.5915
5.4681
50.1
42.7949
13.5228
14.4578
0.0772676
39.027
16.6024
16.1496
17.7777
13.8074
1.23825
25.0077
-3.24596
40.2663
43.313
10.259
46.1348
38.2594
-7.0736
-5.14086
32.4354
14.8003
44.2333
48.108
34.4875
12.2865
0.0126294
8.99781
18.4249
16.4003
21.4104
38.272
49.8817
5.11504
46.3095
-0.0374011
21.1779
3.75133
48.7066
75.7665
-0.183206
46.4566
-0.0714564
5.31582
-0.104718
-0.0025776
-0.00212479
48.7205
9.74236
19.3341
14.8354
1.26296
52.0197
48.1674
10.3863
3.6469
-0.738276
-0.104798
2.15845
23.7133
31.8021
45.8219
-5.33332
43.4061
15.3908
20.9619
29.0897
2.15904
44.3973
0.047857
4.18107
2.20009
12.4602
-2.91905
48.5328
3.77612
0.00221282
15.3086
5.0428
49.3833
-0.0729315
3.83369
3.74128
18.8578
25.0873
17.2315
82.1426
40.5162
49.1207
-2.23571
4.09186
20.2167
-1.2626
42.5215
16.7843
-3.70722
28.5589
-6.92622
2.46114
15.1619
-0.378206
10.611
51.1939
9.1567
34.0209
49.9197
49.3427
48.233
-0.063459
2.60439
0.0439728
34.7708
29.9167
46.4894
11.8183
17.194
44.645
18.4752
23.8079
12.0176
30.0128
18.0248
0.0279447
39.6101
-0.878136
46.579
34.6993
32.8194
0.37447
4.05017
26.7563
-0.00955593
42.7022
7.11564
20.3987
25.308
33.3371
50.4845
20.4698
44.119
44.804
24.076
-1.32106
32.076
44.2786
6.39937
34.223
1.59239
25.3062
27.4422
10.0955
43.3146
0.436044
43.7922
49.4673
-0.0780805
3.84417
0.096472
41.204
5.07706
21.2582
3.95536
25.3937
37.4088
6.55145
21.4222
4.94927
18.1584
11.6382
-0.0680214
1.47119
22.8709
62.4266
16.1874
-0.0612397
24.222
-1.30355
5.99617
28.4846
47.7736
10.2182
22.7175
46.4862
10.9079
8.98121
22.2547
9.05555
9.03688
22.7441
40.4731
20.0072
-5.01843
-1.97141
23.9855
0.388858
-0.623329
0.0939396
40.3783
-1.46819
2.46577
25.0938
-0.0135117
6.8766
-0.310364
48.6082
0.079876
4.95713
-0.219868
15.4733
47.8866
11.4722
17.9155
-0.107075
-0.052879
22.7288
6.63214
-0.385842
50.1289
19.8898
-2
68.9171
5.47203
2.23789
15.9042
11.1233
-1.29254
44.7261
-0.478249
20.7793
47.9627
-0.372393
21.8245
-0.734437
19.3627
44.4901
29.2457
-5.21926
0.42367
10.6947
13.1754
11.4608
25.0653
4.38936
-1.10854
-0.218941
-0.467361
21.2302
17.2653
41.4585
10.5586
3.98305
43.5553
42.5822
27.6943
-0.453615
19.038
22.7521
31.948
25.3784
16.6031
41.2631
41.1164
18.8266
24.4598
48.1276
19.7973
0.364899
71.1095
77.9029
26.9597
13.2233
14.3433
4.48432
34.0799
17.5482
50.4496
19.5041
50.3554
62.1791
-0.973757
13.4737
6.41334
0.0369792
-0.0968885
48.3726
-0.1406
29.3208
14.2739
22.8215
43.2996
-0.655617
23.4001
30.5366
-0.344747
48.1166
18.9185
-1.1795
30.9038
42.235
-0.00523432
32.9939
2.1132
41.6535
29.8105
61.6644
41.2089
-1.17637
-1.02668
44.1467
48.4906
48.4947
5.01925
22.4273
50.4922
40.4366
19.627
-0.00946498
42.4854
22.7386
12.0497
16.1115
47.0722
15.5473
4.50372
41.9282
-0.345379
22.0694
40.0824
49.1834
42.5461
42.4143
46.6621
39.4433
-0.475328
-0.867338
-1.21271
-1.28968
42.2547
39.4679
47.7133
26.0192
-5.20762
18.7461
16.8591
2.88106
5.9968
-0.853322
57.2848
11.1464
31.8917
-0.0263506
0.0287773
3.99094
0.0519738
4.20598
13.2369
27.0174
12.0798
7.93232
46.1173
62.4826
6.09907
-2.25594
4.94512
-1.27664
-0.365768
4.57475
13.5477
1.19187
5.9359
30.3068
-0.0818403
32.2714
24.7373
12.0504
-0.548562
10.6358
32.0842
16.3978
39.4078
27.5565
0.860096
27.8086
15.9049
-1.46244
-0.0242021
0.400005
7.62415
46.2941
7.28539
3.82335
7.2952
14.6988
-0.678777
50.105
-0.920703
42.6408
2.44385
-0.909421
0.369307
20.6068
72.3914
49.5609
46.8227
42.6438
2.23061
19.7355
-0.140341
-0.00578283
-0.981232
8.64497
48.0339
22.0076
52.7018
17.5132
47.9554
39.8037
15.8444
0.000245852
40.4436
45.9713
28.0938
-0.0985236
-1.12948
3.29501
48.3968
45.9128
24.6098
27.83
49.56
4.49549
-0.0968418
-0.0691319
32.0979
4.44148
39.0096
-0.0266769
24.7081
10.4586
0.111155
47.7081
21.9654
39.2037
-1.64704
2.11991
33.619
23.7073
38.8982
12.3107
4.19017
44.2653
4.13113
25.6307
46.2076
47.6472
-1.37003
42.5389
-0.00195389
1.11845
44.8382
14.1328
32.5503
32.6577
5.49017
48.1224
26.9502
-0.064251
75.1135
5.73372
5.80056
-0.499771
-0.203913
56.8119
17.3218
4.56405
16.159
8.4738
42.6631
49.4553
0.305574
-2.30786
-0.747953
20.8062
-0.539945
0.101458
-0.107164
47.4142
24.4704
5.87827
21.823
32.428
68.0967
49.2341
46.4437
48.9503
-0.062231
-6.6555
32.2237
13.636
18.1201
-1.49245
45.811
5.4764
19.6649
3.42206
33.2211
67.4245
31.7439
-0.00124708
37.7765
-0.18929
-0.0138908
38.7655
-1.81975
19.3238
48.5817
16.3305
4.61643
-1.91245
44.7012
49.3062
50.5069
50.0531
58.6495
-2.33484
-1.09398
27.351
18.781
10.4059
-0.248962
23.8816
8.59199
17.6046
7.17532
-0.040219
22.4021
27.1015
50.2335
43.3357
-0.048184
38.9604
3.44628
80.4032
71.8407
14.5685
50.3393
-0.749776
55.8319
32.5622
-0.653651
0.1997
33.2908
42.3157
17.1748
24.3571
36.6376
13.4276
-0.0143626
-0.00866307
35.8581
25.0531
19.2681
-1.096
44.9565
-0.26655
-0.00558321
-0.980087
9.04769
14.4244
-0.0696218
21.8649
39.7313
44.8679
1.82556
45.5901
6.12294
45.0834
-2.87846
21.442
0.101487
32.7017
35.6862
33.4517
46.362
47.2495
14.0727
20.3016
49.0591
-1.52471
47.8116
0.000145066
44.1117
37.4102
46.9011
0.380773
-0.0799283
39.2879
46.8135
42.3318
0.0315134
3.65621
38.8233
4.09667
-1.57211
33.3824
24.6976
20.6875
49.6931
-2.28273
27.3626
11.3134
34.5947
-0.400162
48.2941
41.2089
36.1952
-0.992242
42.838
18.7464
27.6745
37.262
0.464028
19.9475
27.2239
23.6734
-2.02407
16.4295
13.5142
-0.0572245
16.8345
-3.46488
5.61819
18.9703
-2.01079
4.12924
30.3636
0.097961
36.9899
72.6716
46.6752
-0.461497
42.7082
-0.106893
0.872625
14.0734
-0.168343
10.5352
6.92967
72.3501
47.2873
19.2933
23.2931
34.8295
50.6716
-0.105427
17.314
29.2318
31.7111
-0.0772542
48.9365
17.7557
28.9381
0.33167
13.2697
-0.198506
46.4919
-2.15072
43.4726
0.395583
73.1045
-1.43775
-0.0289455
50.4155
-0.222492
45.7876
46.1965
40.6375
-0.780384
45.6809
47.8227
50.1019
49.9462
48.4309
49.1067
-0.0757211
17.3428
46.3036
0.879358
38.9661
35.7988
-0.0440887
0.0656524
41.9477
42.1742
35.105
17.0246
40.1742
-0.500788
0.567255
18.8704
17.1142
19.1042
49.6553
49.3264
19.4887
49.7714
43.5115
29.1191
49.7469
6.36954
48.7038
10.5629
32.0628
6.39094
16.9908
14.5854
21.5373
-0.0734703
20.487
-0.0915946
45.6424
44.0243
-5.47291
3.91311
21.3867
23.5922
-0.211625
12.5318
19.1334
12.8596
20.2253
17.1864
-0.957337
11.7888
32.0104
0.331795
29.0047
-0.100949
41.7995
4.35734
22.6919
0.324928
-2.43239
17.0367
12.9781
28.3759
4.026
34.7842
19.2205
70.606
-0.36711
29.8915
32.0845
18.2157
49.6936
1.00998
73.8663
18.2652
10.5982
23.3029
0.0950836
11.0514
12.1543
-3.87452
-0.358858
-1.13259
40.8929
-0.00150033
0.375318
0.138127
-0.111266
-2.31215
49.0294
48.164
-0.691166
25.5154
-0.111196
22.6909
13.6275
-2.98807
30.7704
-1.98496
43.5272
13.9355
4.68473
13.1544
-1.9377
25.5663
-0.553431
50.7168
6.20906
41.713
19.0955
-0.0823662
40.6949
-1.15439
17.3174
46.2463
4.21823
19.298
50.8788
55.2811
20.2129
18.5794
31.7936
2.64391
35.0569
-0.178017
16.8655
3.68734
49.9347
24.9001
35.2422
30.9424
-5.30119
35.6113
27.1393
26.1502
44.787
6.99805
20.7339
-4.93019
1.27514
-0.379248
23.152
34.982
-1.5759
18.4449
17.6992
4.17167
17.3053
-0.593869
1.0244
-2.01256
-0.222085
61.1133
4.95202
43.6429
-0.00473633
-0.886462
0.0994959
42.3173
-0.224437
36.7445
42.6206
45.484
0.812831
14.9239
10.7759
7.40076
2.68784
33.843
18.7913
19.136
6.50442
-0.722199
42.2846
26.9808
20.9863
-1.31478
0.917205
33.0214
-0.387486
13.2793
32.082
51.618
47.4732
-3.73415
5.93314
14.438
-0.410828
0.119661
19.1751
-0.00442504
16.8427
15.299
-0.0458019
0.0349867
23.2571
23.6024
18.6016
31.8486
0.0563488
34.2244
24.4125
20.2367
0.31854
42.2901
-0.704023
48.3438
-0.946963
21.0619
-0.0302721
13.7029
41.7304
12.2148
23.7158
18.7934
0.23475
38.4209
5.38956
25.7578
18.7521
12.9905
39.7232
42.3967
24.9207
38.3858
2.39174
0.0604819
-0.438294
18.9955
-0.106326
5.78004
39.7442
50.9311
42.0327
-1.09371
43.7554
10.6666
3.79557
25.713
35.1076
23.3944
0.0330793
36.7738
26.5044
23.806
74.4263
77.7106
17.4901
-0.0623833
5.96761
3.29533
48.471
20.3288
28.0624
21.2084
40.8966
25.3565
44.8091
-0.191305
20.4728
10.5281
0.00369074
4.3872
34.9515
4.02103
74.1674
26.1238
31.9757
49.5681
0.671636
-0.00213943
0.0303555
18.8227
31.435
19.1615
-3.13953
7.07586
3.0148
42.6642
-0.179221
26.6624
-1.1102
10.7962
10.2322
2.88948
43.1442
21.0758
13.2743
26.6512
45.0508
18.6224
48.9132
46.6198
39.0442
19.4682
13.0003
52.7962
26.2
43.4782
19.4979
0.0977661
-5.26023
-0.00433354
76.3298
-0.647303
1.18627
-5.29686
40.6962
-0.373421
-0.0952331
38.8165
15.4337
0.00157092
-0.0285086
5.02001
3.13543
0.0349217
27.6217
10.9946
18.7256
34.4027
28.2811
22.7553
36.4272
16.7768
0.432878
-0.652382
50.3134
2.82353
20.2157
0.0905619
18.8343
18.8894
0.535774
27.4128
18.879
13.592
50.0224
-0.190578
15.5683
-1.03611
11.0286
-0.706325
-4.07553
47.7741
10.3329
-0.0107852
46.7293
3.04918
-0.778647
9.25091
4.61687
31.2359
19.279
-0.411483
-1.92765
31.155
17.8263
0.0682911
15.6684
17.3346
29.4723
20.8307
23.2086
48.9651
13.3394
36.7687
42.7043
-0.725158
11.6984
50.1446
0.000881745
46.8897
23.152
-0.00385157
44.8528
47.2344
2.81767
34.3656
53.0314
30.9229
3.76947
17.1879
-0.00428897
3.0622
38.4104
17.2611
19.4881
-1.9606
53.6587
3.13337
-0.374644
-0.381409
31.9782
51.4066
22.2908
-0.00301863
0.10662
8.3937
-1.83372
16.0075
44.888
73.1283
15.5546
16.9114
13.8739
45.9158
0.0403385
33.0556
14.3447
40.9261
5.97678
35.6247
-1.98889
-1.02504
3.40256
-0.0705733
-0.0892283
37.7022
1.38334
44.7292
-0.176232
32.2988
-0.316994
20.5748
15.1783
26.9688
74.6416
23.4796
-0.0804875
40.6292
18.9297
25.699
40.2424
74.0109
19.6545
18.3694
-5.81295
41.1695
11.6776
40.5184
14.3689
19.2516
0.290868
44.4613
26.5268
-0.36028
-0.0593928
42.626
-1.19073
35.6162
42.1646
11.4211
-0.158096
13.6183
49.5628
40.3777
3.9404
44.662
42.8647
30.4248
0.66116
-2.06797
27.4217
47.2365
18.3523
14.2451
-1.17235
0.084556
15.7957
30.4869
32.3737
42.7928
11.0579
8.6572
19.0418
18.7937
22.8605
42.0806
26.9269
24.2738
6.35725
-0.079909
25.8498
19.1775
7.10985
-0.485268
42.6878
46.3952
43.8374
41.2557
19.8783
46.971
-0.402335
46.1544
17.781
13.0195
-0.0964198
29.3227
28.9981
-1.16929
4.43348
49.0872
49.6616
6.28317
49.8198
47.3262
32.429
17.3481
20.3424
-3.31673
44.6055
15.741
-0.582064
-0.013587
-0.633397
18.7037
1.59473
13.3617
20.1145
13.4947
-1.23231
46.5986
23.4624
49.3084
43.2538
45.4268
23.8859
-0.0439921
34.2157
5.47473
1.20057
48.0601
41.7555
41.8525
42.4287
14.4417
29.8673
18.4714
0.0174437
39.3997
-0.660853
19.9901
13.829
21.0441
-0.027175
18.7122
40.0131
0.000295055
42.3983
36.4129
-0.611233
-0.493992
-1.30661
47.7143
41.0898
-0.00783163
-1.41642
0.0817064
-0.443746
6.95484
-1.39183
2.28228
2.31347
0.996127
1.06289
-0.638519
-0.60561
26.6384
-0.04178
-0.0361258
24.5529
21.9718
26.3229
50.4601
24.6014
3.09587
3.09709
-0.00157225
10.5345
16.9443
14.3757
17.3761
-0.573753
49.4834
36.5943
44.9258
19.6624
26.7398
18.0477
22.1975
0.0294926
21.0177
14.0571
0.414851
20.942
22.6464
-0.0970688
46.1649
42.3989
0.203397
40.6358
37.6356
13.8523
13.9504
-0.102359
36.0474
16.8742
-0.00789304
35.891
-0.0999836
-1.20759
38.2729
72.8018
1.51194
10.411
-0.0347191
20.3698
6.44847
45.3905
30.5445
0.061776
0.185617
5.05596
22.4665
1.59735
16.6991
1.38481
64.6212
41.8302
5.0556
-0.134476
-0.736061
20.7225
35.0636
50.3692
23.182
48.0965
6.76989
50.5274
69.4978
43.3018
50.5432
-2.63387
1.03638
20.3745
-0.0971154
50.847
47.5898
38.5144
54.5485
39.8558
41.1406
46.3936
48.0335
47.7643
30.2585
11.9394
49.9962
59.4215
-1.57072
23.6669
27.2958
2.30019
19.2497
-0.445771
17.7391
20.7467
7.32934
22.151
0.0795173
32.0424
13.3361
24.5213
-0.0877865
0.580876
-0.204243
-0.0218639
43.6263
35.9203
10.1429
-0.564626
23.1036
-0.0759149
0.0846232
1.06717
-0.519741
9.34331
67.2808
12.359
41.9714
-1.95513
34.3218
31.773
16.7242
6.31172
2.04237
26.9691
54.4005
-1.23437
-0.0181617
10.4919
18.7696
18.7163
31.0917
7.27403
32.9503
43.1051
4.10226
5.10614
37.7969
0.57678
-1.18535
-0.128713
-0.00717796
-0.219358
28.2011
35.1506
50.253
48.1448
-0.324011
-0.128623
-0.58976
20.3614
46.9163
37.8146
61.9052
37.3884
-0.196601
3.56968
21.4342
13.6877
20.4829
18.3803
24.6479
25.6127
8.38091
40.3138
9.70265
0.924154
4.72657
33.894
10.9331
11.7424
82.1412
8.78755
50.5376
49.9738
43.1953
50.1029
42.578
22.636
1.37317
11.2305
43.8397
40.2075
0.728758
-0.0591637
14.0881
15.6261
-0.984538
22.1682
16.8151
22.8111
50.498
-1.17109
32.2652
23.2203
19.992
41.1703
24.3039
14.1072
25.8752
16.8572
24.995
3.12438
29.6386
-0.543796
22.3896
49.1775
21.624
6.43017
0.633444
46.9524
16.0706
20.1989
16.5246
-0.0737654
50.2386
38.7533
24.3361
6.39926
13.8091
15.9219
0.981639
73.5873
20.7776
17.4993
10.44
8.29982
0.0812079
-0.324812
29.8253
-0.0634471
19.6425
23.4424
17.2906
-0.42459
2.17024
0.314919
8.5702
34.661
20.4774
29.6587
20.2025
26.1438
3.13307
2.66647
45.7479
3.16928
-3.96009
45.3681
2.7531
48.8197
50.256
-2.35775
43.3335
3.76853
20.039
-2.85116
-2.19731
23.6547
52.8292
5.8877
23.4196
7.15037
46.1827
24.8761
12.3961
-0.583151
0.690061
49.488
47.1311
20.2091
50.2767
-1.5854
49.6471
16.7863
8.30288
35.8785
34.2875
-0.264831
-1.26005
48.1224
17.0405
-0.09321
51.5825
41.9374
22.9366
27.4265
49.2254
51.3412
10.3225
18.7233
0.67251
11.0202
12.3826
8.65756
21.2406
0.310593
3.34305
15.7502
32.4396
43.8442
24.965
47.907
53.7394
2.4345
12.2126
26.975
3.0583
45.4847
4.72751
-1.227
49.1027
20.837
62.0813
-0.901832
36.2619
20.8223
-0.063442
12.0252
-0.262459
9.69733
48.5794
43.3191
48.9344
11.9842
28.2864
-0.497595
-0.153334
1.19592
47.8828
-7.65741
11.6307
-0.255381
47.0935
34.884
0.145985
11.1478
39.5204
-1.26701
17.9834
-1.08204
8.65667
26.2361
46.9044
48.0014
43.4291
-0.445087
22.0938
4.92363
18.7438
-0.30473
13.8248
0.0602876
24.613
0.414046
48.4919
19.2241
19.0155
42.3162
-0.217377
49.5312
-2.03734
48.048
-0.0174414
51.1925
14.3949
28.1187
27.8919
47.9747
44.5212
47.8947
46.7675
73.545
34.2938
9.65758
20.4126
0.493427
52.0278
50.1492
-0.520664
34.8111
28.4834
-0.447456
45.2509
32.5657
30.6218
-1.46541
-2.58357
26.1301
20.4704
26.6689
31.448
7.43444
32.9523
29.6427
33.5448
33.3432
28.2173
10.1897
-0.564274
56.628
31.6021
16.7645
-0.00182425
10.5377
50.3179
45.8896
17.0044
19.3285
35.4141
-0.253027
33.087
34.05
44.6019
34.5478
20.8435
48.2234
3.09215
34.6918
47.9935
-1.18514
4.99758
31.6465
-0.56882
-0.253304
19.8285
0.00179782
-2.33022
-0.522509
42.1411
32.4614
23.046
-0.0618773
50.3761
9.86979
0.0175286
50.028
18.9565
32.3297
18.6739
49.126
0.499317
-0.050532
-0.687301
50.5435
46.3821
17.3439
34.5275
42.6714
2.64885
30.2236
62.5023
44.0843
30.7863
22.333
15.2911
19.0666
46.5473
20.0635
-0.327921
29.8488
40.5204
49.5643
22.4007
32.0338
42.6856
43.8171
-0.17213
18.8365
30.658
38.5978
0.0740155
50.0444
32.7219
49.6399
-1.15661
48.2164
40.7854
-1.94658
20.3005
20.113
39.9824
1.6918
3.78674
17.0979
43.912
58.6608
6.11369
33.7581
2.68911
3.75986
9.4624
62.1852
2.96099
15.2806
22.3689
14.2161
8.87014
2.41955
0.41679
1.84771
40.0096
14.1927
43.1723
0.0759533
20.0337
1.70704
16.3089
-0.219983
33.8723
0.0801588
-0.149175
38.1277
25.7257
12.1145
42.8686
19.1375
50.0396
-0.047807
12.2746
41.2906
9.33576
43.0677
5.07137
6.24912
5.31396
10.7548
34.1367
44.9163
22.0296
22.0498
22.1416
5.06239
8.95954
-0.0619778
-0.538406
16.5411
18.648
13.4758
20.5039
-0.148768
47.886
9.51548
-3.31183
19.8128
-0.317731
43.7937
27.2663
65.2692
20.2969
21.0068
50.1865
29.1684
32.0323
2.22843
42.1247
19.1288
-0.893534
49.2581
2.32081
6.61084
-1.31986
40.2971
7.21148
49.4915
14.4159
14.1998
7.22897
43.2724
49.2484
16.5254
6.5019
-0.41036
18.1803
37.5268
-3.18896
20.3086
24.9608
-0.045325
50.1832
-3.35171
-1.38632
31.779
34.5767
-0.769066
22.3807
0.0940754
32.0548
36.8296
32.3273
5.45157
35.4161
22.9519
50.3009
0.0708761
57.1284
16.4669
8.36716
7.85188
31.5245
18.879
7.31095
-0.00680592
36.8368
-0.0061433
25.0856
5.48014
31.9103
48.0039
34.3014
0.957421
37.9459
45.7854
2.88816
11.1388
10.8146
21.8994
-0.000819999
33.4707
47.5371
13.1627
0.0335997
23.7386
4.11313
21.2245
23.2881
32.1251
42.3033
24.4867
57.9242
36.4475
0.634586
7.58114
-2.10624
-0.63987
44.7197
27.1418
0.738903
68.9235
-3.03053
16.2895
0.408048
17.5765
39.1332
0.0308114
0.150137
9.46259
-2.3611
-1.90655
16.5345
24.979
3.38393
41.8345
-2.34437
6.07154
37.0231
19.771
-0.893152
5.79235
11.6088
16.0114
34.8565
6.00816
15.8603
49.464
21.7788
81.1194
18.341
-0.335605
1.74841
20.3658
49.7807
63.3914
9.90905
-2.0122
28.2115
40.299
5.74371
0.263536
0.0667881
46.2544
0.431527
32.7555
1.09756
65.9943
0.649261
45.8156
-0.406864
-1.15955
-0.175983
16.5573
6.09303
15.8306
2.45825
44.5635
28.9738
42.8992
47.0858
46.0186
7.74818
44.4019
7.45874
15.7462
17.2542
12.1254
0.531183
-0.0901305
49.0707
44.3281
-0.481784
25.3676
37.6477
-0.0720532
25.5694
-0.973388
33.6405
44.241
41.4135
26.6429
21.873
14.3536
14.2556
10.0816
1.08981
15.36
14.4385
1.03376
7.86934
22.0693
-3.00325
69.5716
17.7225
-1.29751
42.6792
27.6276
48.2042
49.1975
11.7855
27.4051
4.72329
0.0595063
50.6452
26.7312
36.2031
14.1658
40.466
54.011
-0.0980393
14.7477
17.5913
25.2967
-0.206619
44.1058
18.67
35.5948
-0.00517513
29.6388
-0.411885
15.6778
22.2949
35.1349
9.66176
0.79791
2.18253
40.5959
33.3306
-4.62963
-0.263797
19.1685
46.2754
37.7063
31.2878
37.4223
49.3639
18.5327
11.4683
24.3959
13.9406
27.6589
50.441
2.06468
74.2877
43.2064
0.764715
16.9239
45.0634
12.396
9.35742
1.74435
23.8857
8.21394
20.1471
9.41635
19.8949
23.0057
31.5276
45.5064
39.1546
-0.286684
41.4928
40.5953
35.8236
11.5797
-1.29827
32.6402
46.0782
41.3552
-0.0639555
22.5045
37.1867
38.0645
-2.8809
0.415699
20.5365
14.9784
-0.333795
-2.06027
12.8976
3.51234
13.6751
1.9167
-0.989194
25.9037
1.78452
44.5528
-0.573931
-0.904082
23.423
16.2365
17.5045
26.758
2.22912
5.6337
18.9617
40.722
19.8362
30.2195
49.4423
21.6771
3.20598
4.42079
35.5043
-0.72031
42.7769
24.3598
2.44807
19.3128
16.9407
26.5632
34.483
50.2575
45.9879
-4.7887
31.8275
16.9798
6.35404
5.14386
0.0558079
27.2104
-2.63776
26.5151
0.207998
72.2518
23.018
31.6123
43.6714
75.9622
0.109372
48.8298
-1.35645
0.191497
23.2312
15.9127
-0.619042
44.5383
73.2218
34.65
6.54405
12.9657
46.9798
11.8789
76.0109
-0.0338776
-0.323437
33.3459
45.0181
13.8059
26.5522
46.8404
3.11329
-0.503196
72.7724
18.4207
-0.89009
-0.699177
46.3275
-1.24771
39.9239
-0.348907
22.9509
-1.15504
34.1099
6.93125
10.0043
8.68316
33.2951
2.4355
18.8355
31.3169
-0.245756
14.6463
41.7665
28.1333
32.2521
-0.0939119
40.6821
5.1402
25.8571
47.8511
44.4212
-1.72654
46.8829
3.1414
-1.4511
-0.140077
14.5748
61.0441
45.6665
-1.94513
7.69353
32.6425
23.3752
50.3141
46.8816
44.4398
-0.0905037
39.5774
16.5967
23.1816
2.89776
-3.06685
50.2002
1.92846
80.0249
50.1318
-0.016727
40.7572
48.4727
19.6498
-5.28566
16.5669
27.7859
47.0689
18.4426
7.04444
50.1516
-0.409953
33.9724
41.0792
16.7141
9.90701
26.6742
28.9979
33.0857
34.9372
24.9274
34.4694
17.0498
-1.45774
36.304
-0.123102
39.3554
5.99936
34.3528
26.8456
47.0754
0.405711
22.1551
18.0803
2.29652
59.8314
42.7902
0.147097
44.3262
23.7275
3.63593
4.89064
28.1883
1.3873
10.9523
20.2469
-0.348113
3.82702
22.0844
-4.91303
40.0785
0.00149003
29.458
-0.295031
20.2439
41.9937
3.79988
46.9405
-0.570807
-0.000431021
18.6647
-0.619524
-0.390234
32.0746
50.0213
21.0246
5.71459
14.248
17.7819
0.0099225
27.4932
-0.0795809
24.4858
21.9986
5.84602
-0.201493
-0.629231
-0.172974
49.8785
28.4235
20.6093
42.3284
-0.00777056
-1.14397
-0.0153848
44.4041
25.0662
13.2664
19.2015
-2.06978
0.0706065
4.27002
4.91427
-0.0634802
45.1797
41.7688
40.9378
-5.49281
-0.656128
19.9939
47.9974
48.6025
0.117972
41.1102
44.6767
32.8373
2.32449
-3.50016
14.224
50.4516
26.7044
16.4354
18.4017
8.479
38.3039
38.8863
23.2105
15.9115
40.7046
41.8772
17.332
7.45692
16.6571
37.7276
6.21215
0.72859
46.6907
47.9023
-0.431338
41.576
59.3225
49.2112
42.5926
13.4051
39.1511
3.73372
2.36048
19.1279
26.8088
0.0181949
47.471
43.732
-0.948881
21.8201
8.65013
9.99703
-1.11169
36.3925
75.2586
50.3861
-0.418891
50.21
22.5321
0.0536709
3.88513
45.3973
16.3787
46.4558
49.6947
12.9273
20.4872
24.1371
8.18255