/*--------------------------------*- C++ -*----------------------------------*\
  =========                 |
  \\      /  F ield         | OpenFOAM: The Open Source CFD Toolbox
   \\    /   O peration     | Website:  https://openfoam.org
    \\  /    A nd           | Version:  7
     \\/     M anipulation  |
\*---------------------------------------------------------------------------*/
FoamFile
{
    version     2.0;
    format      ascii;
    class       volScalarField;
    location    "19";
    object      p;
}
// * * * * * * * * * * * * * * * * * * * * * * * * * * * * * * * * * * * * * //

dimensions      [0 2 -2 0 0 0 0];

internalField   nonuniform List<scalar> 
7807
(
0.307741
-0.00938179
0.423577
0.273139
-0.00114217
-2.04678e-05
0.415343
-0.00657821
-0.000138074
0.110682
-2.00739e-05
0.00240233
-0.0100236
0.0531392
0.115244
-0.0188
0.319872
-0.01346
-0.00129124
-0.107176
0.0728947
0.00148628
0.0377244
0.212324
-0.0177257
0.316222
-0.00105929
0.0662876
0.178183
0.00044798
-0.0241116
0.565528
0.0370289
-0.000538876
-6.52755e-05
0.0900713
0.000702688
0.40297
-0.0080397
-0.000272197
-0.0076596
-0.0178595
-0.112214
-0.0542766
-0.000137772
-5.23353e-05
0.00146863
-0.00801007
-4.86727e-05
-0.106183
0.00385591
0.0625541
-0.0225602
-0.0134379
0.0891838
-0.0061996
-0.000987776
-0.00642628
-0.0359243
-0.000538953
1.65139e-05
0.00512249
0.0534312
0.00271126
-0.000893174
-0.0240558
-0.000119049
9.86205e-07
0.112637
-0.00749385
-4.82137e-05
-0.0762722
-0.0172422
-0.0297597
-0.013096
-0.0520612
0.418902
0.0711723
0.0652237
-0.0764113
-0.00970612
0.359376
0.107378
-0.0330939
-0.00229241
-0.00240074
-0.00729363
-0.0220258
-0.000981121
-0.00487983
0.182619
-0.0582769
-0.000102882
-0.000533832
-0.00415449
-0.0282807
-0.0730445
-0.00989201
-0.00242688
-0.00110472
-0.0549673
0.074829
-0.00399584
-9.13972e-06
-0.0449249
0.18993
0.482477
-0.00649747
-3.21141e-07
0.0324795
0.258103
-0.0741065
-1.04927e-06
0.0348162
0.189676
0.000310256
-0.089811
0.1519
-0.055205
-0.0313959
-0.0544848
0.342733
-0.106666
0.0117934
-0.0529001
-0.00138201
-0.020698
0.000248926
-0.000942355
-0.0238116
-0.113117
0.0650355
-0.000709715
-0.00111292
-0.0339466
0.249247
0.409034
-8.08496e-06
0.00952506
-0.0720961
-0.0275109
-0.0705058
-0.0535772
-0.0286015
0.482837
-0.0349988
0.179951
-0.0368633
-0.0377788
0.34219
0.0855835
-0.0485039
-0.00220268
0.089993
0.106784
0.378856
-0.0607303
-0.00968858
0.491787
-4.28373e-05
-0.00149632
0.220082
-1.43654e-05
-0.00397208
-0.00467081
0.27065
0.271211
0.511251
-0.00424432
-0.00340304
1.05629e-06
-0.050621
0.000305945
-0.00127296
0.0104594
-0.037201
-0.0208234
0.175158
-0.000108563
-0.000639412
0.279903
-3.84192e-05
-6.93135e-05
0.420767
-0.0153067
-0.061934
-0.0523464
-0.0290729
-0.038904
-0.0720278
-1.47733e-05
-0.0698053
0.183583
-0.00414642
3.52947e-05
0.22372
-0.00131995
-0.0223821
-0.0369204
1.8979e-06
0.000603455
0.254597
0.215823
0.375396
-0.0820845
-0.0676194
-0.144276
0.07257
0.249847
-0.00014788
1.43466e-05
0.454172
-0.016119
-0.000711711
-0.0671998
-0.0217709
0.347576
0.352573
-0.0759786
0.549181
-0.00123713
-0.0129842
-0.055901
0.0888597
-0.138897
0.274135
0.486475
1.78323e-05
0.0126666
0.161823
-0.00701276
0.148769
-0.000910752
0.549837
0.369257
-0.00707808
0.00142933
-0.000253657
0.181754
-6.00342e-05
-0.0118614
-0.0735384
-5.23832e-05
-0.00237663
-0.000777399
0.177957
-1.65628e-05
-0.00506779
-0.0746908
0.559864
0.0553176
0.517226
-2.52271e-05
-0.0398749
-0.000244931
0.394682
0.00490409
0.410602
-0.000986291
0.000400579
-0.00376145
0.0761079
0.000496241
-0.000182245
0.000413575
-0.00743367
-0.0628282
-2.42144e-05
-0.0584716
-0.00448462
-0.000111514
-0.000776704
0.401571
-0.00921085
-0.000702138
0.510038
-0.00248935
0.286781
-0.00025617
-0.00666553
2.58623e-06
-0.0474803
0.0849682
-0.00903806
-0.0369152
-0.000563567
-0.0924439
-0.0189081
-0.000126375
0.00039697
-0.00371461
-0.00924183
0.00340149
-0.00194798
-0.0316048
-0.0563859
-0.0303152
-0.0393331
-0.0384527
0.376806
0.3905
-0.00180704
-0.0413602
-3.58981e-06
-0.00427271
-0.0284792
0.206595
0.12099
5.30163e-05
-0.00394028
-0.0374942
0.184305
-0.00142209
0.00431407
0.00118155
0.063572
-0.131152
0.372726
-0.00171729
-0.011413
-0.000100634
0.0038097
-3.49433e-05
-0.0311149
-0.000297805
-0.00049352
-0.071944
-0.0481475
-0.00434411
0.0112291
-0.000678212
0.0264378
-0.0169925
0.0890441
0.180272
-0.180831
-0.0642474
-0.0193995
0.00618221
-0.0718397
0.52036
-0.0557225
0.0451062
0.539791
-0.00165134
-0.00218357
-0.0611616
-0.00183936
-0.0305477
0.00824711
-0.00317903
-0.00228222
0.171739
-9.36631e-05
0.000470717
3.87013e-05
-0.00396508
-0.0124477
-4.39516e-06
-0.00113998
-0.0343251
0.460734
-0.00372809
-0.0155506
0.457045
0.306496
0.0736901
-0.0275353
-0.0514244
0.00578515
0.262979
-0.0138257
0.321967
-0.0442542
-0.122355
0.217171
0.326416
-0.0536062
0.113282
0.273705
0.298134
0.0707474
-0.00395748
-0.00575049
-6.56664e-05
-0.00481487
-0.014071
0.000652391
-7.89692e-05
-0.00192793
-0.0915302
0.103313
-0.0230401
-0.00776629
-0.00455089
-0.0146842
-0.00889786
0.000354963
0.242648
-0.00204427
-2.66183e-05
-9.28851e-05
8.49073e-06
-0.0283522
0.166537
-0.00483709
0.0413203
-0.14949
0.393045
0.0025326
0.00836321
-0.0069878
0.389305
-0.0010444
0.370616
0.183721
-8.66211e-05
-0.0471204
-0.00387231
-0.0687665
0.000491371
0.0829166
-0.000177924
0.00769072
-0.00085799
0.163336
0.186888
-0.0694836
-0.0358248
-0.00396769
-0.0378761
0.0849142
0.555942
-0.0763633
0.00429699
-7.33568e-07
-0.0179254
-0.00254354
0.0234479
-0.121327
-0.0569094
0.414122
0.171193
-0.129154
0.235619
0.378559
0.0416703
0.000953439
0.279409
-0.0016193
-0.000196755
-0.0202094
4.79228e-05
-0.158599
-0.00638067
-0.0439717
0.00198488
0.227398
-0.00198928
-2.49609e-05
-0.130087
0.00178855
0.0350653
-0.0532956
-0.0672451
0.0103659
0.163177
0.133137
0.136838
-0.000168325
0.0942153
0.0980156
-0.000707015
-0.0224593
0.000536736
0.00204654
-0.0136855
0.00586758
-0.00121486
0.172298
-1.66421e-05
0.000133524
0.00212698
-0.0269095
0.0287424
-0.0398857
-0.0327843
-0.0583798
-0.153035
0.00062874
0.271936
-0.05506
-0.00877232
0.550747
-0.0729518
-0.0131382
-0.0322978
-0.0147096
-0.024491
-0.0136372
0.0400756
-0.0633301
-2.82435e-05
0.0344519
-7.20878e-05
0.372278
0.124294
-0.00631821
-0.0163297
-0.000155674
0.35929
0.348722
0.0737657
0.191823
-0.0782369
0.416194
-8.44853e-05
0.0189648
-0.0210663
0.180973
0.499448
0.069162
0.162787
-0.00652181
-0.000180694
0.171761
-0.0914027
0.375636
0.0369988
0.236556
-0.00912456
0.396741
0.33237
-0.0119213
-0.0101077
0.143154
-0.0690282
-0.000108129
-0.0173976
-0.0708815
-0.0872864
0.0151583
0.0117296
-0.000152596
0.35396
-0.00499749
-8.98921e-05
-0.0504492
-0.000587153
-0.000193952
0.00128154
0.244921
-0.115611
0.471397
3.18191e-05
0.243936
-0.0414555
-0.000111133
7.05939e-06
0.175641
0.233543
-0.00547172
0.209592
1.02806e-05
0.221674
-0.17484
-0.0123331
0.392399
-0.0637757
0.180254
-0.0305645
0.220665
0.231869
-0.0225806
-0.0287646
-0.0110166
-0.00332028
-0.00021866
-0.00496897
0.30463
-2.59396e-05
0.211533
-0.112796
0.333944
0.200467
-0.0715783
0.469897
-0.00204916
-0.0015625
-0.0701633
-0.0244689
-0.00870054
-0.0454756
0.036855
0.52379
1.98648e-05
-0.00240672
-0.0719127
1.57154e-06
0.381268
0.00184666
9.45738e-07
0.000126471
0.000296668
-0.0293349
0.0226661
-0.00186001
-5.80683e-05
-0.00908047
-0.000396914
-0.131392
-0.060999
0.0295676
-1.03969e-05
-0.177706
-0.0163039
0.148181
0.323384
0.000509252
0.152173
9.21623e-05
-0.0157998
0.099734
-0.00894595
0.265798
-0.0173574
0.0236471
0.103667
0.168814
0.00172119
-0.0131714
0.206684
-0.101477
0.40371
-0.0122538
0.3022
-0.0118987
-0.00127484
0.154237
-0.00878248
0.0977843
0.00192692
9.29408e-07
-0.145817
0.234868
0.000921768
0.14101
-0.0163796
-0.180466
-0.00901164
-0.0417256
-0.00203521
-0.00972653
-0.0875898
-0.0352011
-0.0123562
-0.000251606
0.425895
0.144493
0.0407238
-0.000195315
0.328019
-3.69729e-06
-0.000176248
0.154214
-0.0065181
0.204802
0.0651709
0.0213118
-0.0586188
-0.148683
0.00501856
0.00123045
-0.0524911
-2.73956e-05
0.00194779
0.255993
-0.0214374
-0.00347276
-0.0257532
-0.00237258
-0.00070999
0.507205
-0.0130338
-0.000724106
-1.65009e-06
0.147076
-0.0452737
-0.000451371
-0.00317266
0.171418
0.0966134
-0.0517714
-2.89799e-06
0.187775
-0.0257683
0.215203
0.0222884
0.0280998
-0.0382
-8.17735e-05
0.101037
0.0873389
0.0417601
-0.104302
0.302149
0.00730177
0.202907
-0.00825111
-0.0484132
-0.000369774
-0.00852027
-0.000206274
0.175818
0.28629
-0.00188963
0.0242548
-0.0212486
-0.0861457
-0.0953502
-0.00215166
0.0163821
0.493549
0.0193639
-8.52113e-05
0.0947729
-0.00767142
0.426812
-0.0158767
-0.0247836
-0.0164517
-0.0276112
-0.0164796
-0.00973208
-0.00928446
0.00020974
0.028498
5.71018e-05
-0.156292
-0.0157198
0.371492
-0.0496292
0.210032
0.00208979
-0.0676607
-0.0307372
0.219275
-0.00956285
3.99585e-05
-0.0257088
-0.00985888
0.0201347
-0.0325193
-0.0295823
-0.0273955
-0.0171584
-0.0214146
-0.093694
8.70352e-07
0.0459281
-0.0820466
0.180787
-0.0706487
0.097074
-0.107769
0.345677
-0.00483613
-0.0390358
-0.0361866
0.445356
-0.133603
-0.0163891
-0.140635
-0.0588489
-0.128257
-0.0778005
0.195319
-0.00355388
0.25615
0.0109202
-0.000512403
-0.00201428
0.0817321
0.550455
-0.00052428
-0.0428498
0.179881
8.90495e-06
-0.0274317
0.0372213
-0.0117742
0.0111218
-0.00240134
-0.0496583
-0.00660015
1.18165e-05
-0.0611508
0.274785
-0.00762589
-0.0205613
0.00192144
0.179944
-0.000543109
-0.00142708
-0.000345004
-0.00148004
0.0591491
-0.00951896
-0.0019292
-0.0232397
1.64441e-05
-0.138818
-0.075353
-0.156086
-0.0319003
0.0184682
-0.000188397
-0.0194066
-0.0746675
0.0367382
0.334791
-0.00242436
-0.0716204
-0.00636179
-0.000875568
0.171748
0.000336952
-0.000185365
0.154238
0.018126
0.0168306
-0.00383437
-0.00222671
-0.0707611
-0.000252617
-0.0124183
-0.0147891
0.289074
0.276157
-0.0595883
-0.0802938
0.00882479
-0.00259356
0.00135927
-0.0915746
-0.0313214
-1.74081e-06
-0.00675666
-0.0287049
-0.100839
-0.00397552
-0.0511718
-0.000431456
-0.00366799
0.201837
-0.0366
-2.38674e-06
-0.00310333
-0.11825
-0.000130771
-0.0375696
-7.14151e-05
0.00121796
-0.127211
-0.0597197
-5.0278e-05
1.28654e-05
0.127277
-0.0695771
0.359559
0.289919
-0.0130914
-0.0012374
-0.0291017
0.000143407
-0.118128
-0.11787
-0.00593533
-0.0207572
0.285508
0.00439724
0.000124374
0.000276505
-0.144212
0.00198942
-0.0445596
-0.0727141
-0.00652424
0.0200771
0.070226
0.00292511
-0.0320617
-0.0886033
0.187778
-0.0520578
-2.89723e-07
-0.133205
-0.0687333
-0.0605273
0.000162056
0.000644425
0.00111455
-0.129702
0.0310883
-0.0316178
0.145947
-0.0691468
0.00282155
0.0168733
0.00589722
-0.033398
-0.131045
-0.000189975
0.145507
0.205693
0.00674993
0.238755
-0.0991914
0.0454907
-0.0700926
0.197966
0.101112
0.524842
5.00137e-07
0.103315
0.178549
0.0137426
-0.00132721
-0.0155759
-0.0226281
1.28473e-05
-0.0179582
-0.0712385
-0.0170584
-0.0213968
7.15467e-05
-0.0983065
-0.000426915
-0.000615542
0.233112
0.00289844
0.0893209
0.0175117
0.202424
0.00574296
-0.000587826
-0.127705
0.0040295
0.34713
0.000863991
-0.0734144
-0.000320594
-0.000421858
0.00137707
-0.078211
-2.96497e-05
-0.00882738
0.0259951
-0.00136288
1.15699e-05
-6.33476e-05
0.14954
-0.050796
0.00415573
-0.000812369
0.00574502
0.0144557
0.00512358
-0.000359207
0.36553
-0.111813
0.216198
0.317038
-0.000125371
0.0766235
0.113722
-0.000655647
-0.000268456
-0.000683179
-0.0167353
0.00691998
-0.0250011
-0.0339753
-0.0874059
0.169009
-0.126867
3.16153e-06
-0.0196025
-0.0237664
-0.0332583
-0.00356317
0.00347179
0.000834231
0.0264168
-0.000351586
-0.000345813
-0.0189504
-0.00407086
-0.0253231
-6.03447e-06
-0.0148295
0.032235
-0.0372119
-0.048747
-0.00811395
-0.0111718
-0.00823191
-0.00467838
-0.00117953
-0.00816843
-7.5321e-05
-0.000464113
0.0199214
-0.0111885
-0.00462561
0.00590001
-0.00238644
-0.165374
-0.0109728
0.153263
-0.01112
-0.0637505
-0.0333221
-0.0232866
-0.0149828
-0.00329431
0.000950433
-0.00322105
-0.0122274
-0.0149139
0.196463
0.153249
0.0472126
0.323481
-3.97076e-05
-0.00493796
-0.0146623
-0.0079353
0.0985939
-0.019695
0.0445499
-0.00612761
0.217556
-0.00189475
-0.00169482
0.00534936
-0.0326674
-0.000200768
-0.0333236
-0.0052188
-0.0196113
-1.22131e-05
-0.00581746
0.001357
-0.0178348
0.0286222
0.035056
0.0178168
-0.0135715
-0.0320648
0.114309
-0.00145292
-0.00166148
-0.00170577
0.458338
-0.000152198
0.0714336
-0.0193707
-0.0207079
-0.023718
-0.0553335
-0.0268646
-0.0344253
-0.0200026
-0.00448156
-6.75794e-05
-0.00370923
-0.019537
0.098678
0.00118283
0.171807
-0.0335439
-0.013358
-0.000643208
-0.0297119
-6.65993e-05
0.145258
-0.0311754
-0.0266424
-0.0245356
-0.00615904
-0.0389496
-0.0012656
-0.0412837
0.101067
-0.0252761
-0.102068
-0.0011223
-0.026456
-0.018879
0.0140414
-0.00307781
0.13939
-0.00192907
-0.0165913
-0.000689792
0.15652
-0.0395726
-0.0250293
-0.00264499
-0.00977702
-0.00263789
0.199363
-0.00246846
0.228506
-0.00647406
-0.000889796
-0.000968011
-0.00224315
0.19903
-0.0674286
-0.00698278
0.000171064
-0.0142792
-0.0263855
-0.00117224
-0.0273054
-0.0157369
0.0569495
-0.00448146
-0.00179531
0.425976
-0.0663456
-0.0252557
-0.0626401
1.00885e-05
0.0752048
-0.00313281
-0.0246196
-0.00560079
-0.0358657
0.00157142
-0.000475211
-0.00237999
0.00247981
0.194363
-0.00500164
-0.00158222
-0.00438628
-0.0678488
-0.00787346
-0.0199481
0.00225188
-0.00791092
-0.00765674
-0.00302494
0.199626
-0.047281
0.00237063
-0.0035315
-0.0260005
-0.0121599
-0.0500014
-0.00150459
0.0910921
0.0208893
-0.00774552
-0.00172088
-0.0141902
0.481095
0.195565
-0.0108136
-0.000404428
-0.00222686
-0.00724558
-0.00389682
0.0189876
-0.000408611
-0.0287819
-0.0016112
-0.0153582
-0.0858684
-0.00126386
-0.0180452
-0.00109315
0.307438
-0.00714636
-0.0107545
-0.0388628
-0.00142245
-0.0276794
0.0762802
0.426011
-0.0106962
-0.0116932
-0.00163678
-0.000547899
-5.15681e-06
-2.06744e-06
-0.0100179
-0.000581647
0.120719
-0.000771805
-0.00155448
0.00592464
-0.000171629
-0.0455219
-0.0855785
0.0159528
0.0388303
0.0251553
0.0558938
-0.0676988
0.089651
0.069175
0.0952921
0.120769
-0.0117843
-0.00077131
-0.00818591
-0.0956348
-0.00295394
-0.0144736
0.0351168
0.342799
-0.0750046
-0.000355981
-4.63917e-05
-0.00108009
-3.55059e-06
0.00353116
-0.000595859
-0.00666388
-0.0482471
0.000302491
0.00179385
-0.000156934
0.0636683
-0.0142566
-0.064527
-0.00149867
0.307948
0.300641
-0.0104293
-0.107965
-0.0271618
-0.0219757
-0.0144237
-0.00173367
-0.109517
-0.0534992
-0.049903
-0.0793056
-7.93725e-05
0.194406
-0.032115
-0.00856511
-0.0502673
0.0167539
-0.000441066
-0.00848785
-0.00105886
0.00692574
-0.00206017
0.177824
0.000178875
0.008766
-0.000268141
-0.112076
0.00745644
-0.00114467
-0.00233724
0.000157806
0.0197538
0.119626
-0.00442899
-0.00122036
-8.37213e-05
-0.000484439
-0.000395109
-0.0625038
0.123078
0.00767761
-0.00016286
0.00470955
-0.000421419
0.220789
-0.0638765
0.258982
-0.0445903
-0.00031139
-0.000329025
-0.0074873
-0.0050268
-0.000710362
-7.29661e-06
0.0225482
0.0270791
-0.000153686
-0.000418375
-0.0190131
-8.35843e-06
0.164722
-0.000898094
-0.0538962
-0.0190392
-0.00559868
-0.0580752
-0.069144
0.148617
-0.0386873
-0.0187457
-0.000210638
-0.0568531
-0.0185551
-0.000386143
0.114968
0.343263
-0.000855679
-0.061406
0.0057914
0.313054
0.0377252
-7.30722e-05
-0.00602007
-0.00354385
-0.00481534
-0.0397741
0.0901215
2.04336e-05
0.00960939
0.00106506
0.076166
-0.000389963
-0.000145049
-0.106383
0.286962
-0.0550268
0.153194
-0.00187838
-0.000141948
-1.08752e-06
-0.122741
-0.0344729
-0.00035369
0.108542
0.00985405
-0.0051056
0.378692
-0.000540167
-0.00392887
-0.0648283
-0.0457183
-0.00184199
0.132966
-0.0914916
-9.21467e-05
0.00426706
-0.000192587
-7.48908e-05
0.141773
-0.0115796
-0.000296877
-0.0476718
-0.0245368
-0.00281044
-0.0529941
0.00171058
-0.0204969
0.000937804
-0.00332283
-0.0677539
-0.0387506
0.0090242
-0.000911996
0.15715
0.202288
-0.129337
0.00575547
0.0172374
-0.004197
0.163153
0.109837
-0.0252216
-0.000115675
0.00653211
-0.0480059
0.00250071
-0.0316654
-0.00205572
0.0389531
-0.0288531
-7.6325e-05
-6.3023e-05
-0.061374
-0.0351148
-0.0238543
0.00683301
-0.00608609
-0.0482521
-0.000157337
-0.00159045
-0.000206399
-0.0468814
-1.1883e-05
-0.00171943
-0.0709747
-0.139215
0.125888
-0.0028533
0.00322317
-0.0237437
-0.0243434
-9.3421e-05
-0.0387612
0.122989
0.154552
6.15803e-06
-6.24986e-05
0.157444
-0.00242874
-0.124823
-0.0333617
0.0025563
7.77635e-05
-0.0616123
-0.0457349
0.161313
-0.0489126
-0.00119529
-0.0171361
-0.0645235
-0.000518464
-0.000148174
-0.000851255
-0.0303265
-0.0488502
0.153806
-0.000139909
0.447376
-0.0292165
1.9957e-05
-0.00127249
6.6859e-05
8.3921e-05
-1.01557e-05
3.92994e-05
-0.0491496
-0.000749273
0.000226421
-0.00012226
0.138701
-0.00521801
-0.00012576
-4.89147e-05
0.370659
-0.0224714
-0.0582767
0.000510121
-0.000634471
0.0553628
-8.07671e-05
-0.0209272
-0.152096
0.00156231
-0.00931909
-5.95467e-05
-0.000154839
-0.0335372
-0.0943413
0.00605087
-0.143631
-0.0893729
-1.24367e-05
0.020039
0.0316244
0.107911
-0.00139146
-0.000102772
-0.0602299
-0.00558499
-0.000597628
-0.047303
-9.32283e-05
0.0342516
-0.000139885
-0.000930033
-0.000616013
-0.00309807
-0.0578301
0.431757
-0.00179568
0.00012757
-0.0673681
-0.0781659
0.00671487
0.00370518
-8.60667e-05
-0.0309041
-6.56345e-05
0.191967
0.511279
0.0821302
0.00226857
0.00264311
-1.2151e-05
-0.0308835
-5.3485e-05
-0.013306
-0.00158582
0.000139585
-0.0028203
-0.0131065
-7.01834e-05
0.000488505
-0.0137311
-0.000216479
-0.0129019
-0.0171068
-0.0210792
-0.00160967
0.464999
-0.000976395
0.00177035
0.00010793
0.0124917
-0.0457639
0.00806995
-0.000127875
-5.75936e-05
0.00136579
-8.28933e-05
-3.6254e-05
-0.0155499
0.000401738
-1.10777e-05
-0.052016
-0.00337688
-0.0498036
-0.00146002
-3.52167e-05
-0.00252556
-0.020863
-0.0182662
-0.0367351
0.00166669
0.000235791
-0.00039399
-0.00142557
-6.95637e-05
0.274118
0.00105044
-1.01086e-05
0.00017803
-0.00203973
-0.000456046
-0.0562982
-0.050489
-0.000159849
-0.00684297
3.65458e-07
-0.00417503
-4.15447e-05
0.0344826
-0.000103248
-0.000211654
-0.00528083
-2.20812e-05
0.012095
-0.000171167
-0.00102086
0.0175134
-6.28614e-07
0.365922
-0.0559122
-0.0427565
-1.85603e-05
-9.54821e-06
0.00109169
-0.0009097
-0.0612221
-8.5612e-06
-3.32802e-06
0.000387013
-1.26714e-06
0.000187935
0.000238681
-0.000362091
0.000462866
-0.0500424
0.458305
-0.0481912
0.337996
0.00775453
-0.0221337
-1.02398e-05
-0.000610565
-0.0127171
4.46284e-05
0.000133059
6.6219e-05
0.0647154
-0.00203965
-0.000273427
0.423989
-0.000323635
0.000216394
0.000272643
-2.11261e-06
0.0467688
-0.00220459
0.000715569
3.61493e-05
-0.00092063
-3.27902e-05
-0.00154565
-0.0461552
-0.000288659
-0.00257585
-4.51618e-07
-0.00335904
-0.000148191
0.188209
-0.000325928
-0.00043398
-0.0581041
0.00286493
-0.000117517
-0.0011294
-2.86869e-05
0.171909
-0.0752455
-0.000543466
-0.000251878
-0.00324591
-0.000255877
0.0561528
0.116314
0.02583
0.000139029
-3.04274e-06
-3.41553e-07
0.053869
0.000114477
-0.0497742
-0.0396262
-0.0182755
-0.0180846
0.47792
0.00136961
0.205363
-0.0171806
-0.0311427
0.174936
-0.000216296
-0.0663652
-7.3714e-06
-0.00924498
-0.0411089
1.73878e-05
-0.0669529
-0.000691687
-0.0213568
-0.00817183
-0.0355599
-0.0421136
-0.00524204
-0.0712934
-0.0370809
-8.46829e-05
-0.0101533
-6.88807e-05
-0.0318877
-1.12817e-05
-9.34658e-05
0.0080817
0.165837
-1.24048e-07
-0.048009
0.00254284
2.37016e-05
-0.0270001
-1.23584e-06
-0.0112316
-0.000275499
-0.0325103
4.44069e-05
-6.01936e-05
-0.00259441
-0.000108385
0.161857
-0.0320767
0.0793914
-3.9571e-05
0.000352557
-0.027005
-4.22627e-07
-0.0591842
-0.0646872
-0.0514875
0.454202
-0.00655923
-8.10597e-06
0.0241706
-0.035979
-0.00389879
-6.10351e-05
-5.37101e-05
-0.0462813
3.88664e-05
0.000518391
-5.01855e-07
4.8277e-05
-0.0237716
0.137133
-0.0976947
0.100993
-0.00525597
-4.11952e-07
0.00320992
-0.0701699
-7.3627e-06
-7.22199e-06
0.000155813
2.14893e-05
0.000209981
0.26031
0.0339558
1.82706e-05
1.47708e-09
-0.0618933
0.203354
0.181628
-1.37203e-05
-0.0371039
-0.025239
-0.0142057
-0.044991
-0.0118886
-0.00260837
0.1437
-4.06519e-05
-0.0274369
0.171656
-0.0510206
-2.87305e-05
-0.0556739
-0.000114721
0.318671
0.0249042
-3.5719e-05
-2.10177e-05
0.191768
3.97024e-08
-0.000138063
-0.0100933
-3.49212e-06
0.260635
0.00121128
-0.00624208
-0.0572681
-0.00362326
-0.107054
0.186698
-0.0239718
-0.0492255
0.000602088
-1.55629e-05
-0.0011527
-2.05897e-05
-1.63364e-05
0.0166624
0.183137
0.152598
-0.000384947
0.245639
-0.0195687
-1.28061e-06
-0.0393245
-2.65198e-05
-0.0296676
0.0263138
-0.0192183
0.00293713
0.00126985
-0.00792729
4.87005e-05
-0.00158065
0.0158559
-0.00214364
-5.36738e-05
7.70345e-06
-3.22463e-05
0.0304613
1.36997e-05
-0.0309942
0.258512
-0.00659334
1.6362e-05
-0.00291468
-1.60724e-05
0.0873026
-0.000194279
-3.76265e-05
-3.24684e-05
-8.63683e-06
0.212211
-0.00014444
0.249244
-0.0735066
3.20045e-05
-0.0612572
-0.000737725
0.159362
0.430524
-0.000979187
4.48347e-07
-1.39266e-06
-1.40416e-05
0.147893
-1.30256e-07
0.000560138
-0.0200781
0.233933
-5.19052e-07
-2.67565e-07
7.25103e-07
6.14002e-06
-0.0212903
7.13614e-08
0.299175
-0.0207906
-5.41333e-05
8.31515e-06
-0.00151906
-0.0255069
3.57542e-07
-2.68206e-05
0.168274
9.68755e-06
-0.0336096
-0.0834799
4.77243e-05
-7.7337e-08
-0.175115
1.97563e-07
0.170249
3.9099e-06
-0.000361392
6.07391e-07
-7.61819e-05
0.0945409
-1.03018e-06
-0.00146289
-2.27881e-06
0.00778663
-0.00357839
-0.00520052
-0.00164954
0.156423
-0.000400768
-5.92163e-05
-0.00746655
-0.00748004
-0.000118779
-8.64556e-05
-0.000864741
7.83202e-06
0.198505
-0.0132897
0.471532
-2.95615e-06
-0.00719153
-0.000237612
0.140376
1.52907e-05
-0.030304
5.7937e-06
-0.0013446
-0.0345656
-0.000133216
-0.0161311
-0.0528252
0.00296537
-1.89903e-05
-0.0794602
-0.000160133
-0.000503321
-0.00496667
-0.0260217
0.000638792
-9.98207e-05
-0.000328574
-0.00142683
-0.00104018
-1.71256e-06
-0.000935748
0.426899
3.3845e-05
-0.00263295
-0.0361538
-0.060816
-0.0648331
-0.0417134
-0.0230149
-0.00085407
-0.0270206
2.47576e-05
-5.40231e-05
0.445831
-5.12228e-05
0.191143
-0.000231894
0.000160129
-0.000834125
-0.101467
-0.000295921
-0.00130708
-1.45242e-05
-0.000260792
-3.30934e-05
-4.79532e-05
-0.0126125
-8.90028e-05
-5.67089e-05
-4.67431e-05
-1.22747e-05
-1.44963e-05
-0.0485938
0.264819
-5.984e-06
-0.000327821
-9.24476e-05
7.93593e-06
-0.000555711
3.02607e-07
-0.000633398
9.06519e-05
-0.000228727
-0.0629416
-0.00050968
-0.00183164
-5.62121e-07
-0.00238858
0.000157169
-6.16759e-06
-7.10264e-06
2.56139e-06
-0.000457659
0.00024486
-0.0496321
-0.0329632
-0.0608309
-0.000420075
-0.00302273
-0.0384282
-0.0586619
-4.04479e-05
0.0113824
0.00456933
-0.000603762
-0.0119483
-0.0466268
0.425206
-0.00024398
-8.77661e-06
0.000336455
1.24209e-05
3.47052e-06
0.0752802
0.00170958
0.087995
-0.0513142
0.402088
-0.00027774
-6.95733e-07
5.21564e-05
-1.36323e-05
-0.000830792
0.161128
0.2206
-7.16801e-06
-0.000126304
-2.00365e-05
0.209451
0.01022
-0.0113213
2.20833e-06
4.55235e-06
0.00571215
-0.000388948
-0.0802829
-0.0174962
-1.79338e-06
0.00229042
-0.0380309
-3.33629e-05
0.0010499
-6.49458e-05
-0.0448375
-0.0011179
0.151411
3.31861e-06
0.00108384
-0.00210535
1.96439e-06
6.06538e-05
-0.0242778
2.22129e-06
-0.000532755
1.52419e-06
-0.0157984
-0.041836
-0.00485497
-0.0120713
-0.0072094
0.00752812
-0.00865054
-0.00168926
2.08556e-05
2.37465e-05
2.04687e-06
2.17083e-06
-2.84243e-05
0.00660903
-0.0730103
0.000240654
-0.0648197
-0.00211044
-0.0701296
2.96926e-05
-1.32493e-05
0.000791928
-0.0831873
2.67893e-06
-0.0627576
-0.0172535
0.0189221
-0.0666807
5.45324e-06
-0.00240975
6.82858e-05
-0.158059
0.134831
-6.28333e-06
-0.0680635
-0.0273425
-0.00305449
5.90652e-06
-5.94259e-06
0.0199382
-0.0132366
3.64566e-07
-0.00584716
-2.31585e-05
7.4794e-05
0.125222
-4.85783e-06
-1.58137e-05
-0.000108004
6.14936e-06
0.000505703
3.01315e-05
-0.0038289
7.67816e-05
-0.012952
0.000613255
-0.000189353
-0.0438539
-0.0464039
-0.00611262
-6.70196e-06
3.00698e-06
-0.0874827
0.0042809
-0.0490554
-1.13047e-06
-0.00489397
-1.14502e-05
2.95663e-06
0.0719627
-0.00515022
-0.00190552
-1.43471e-05
-0.0206152
1.30379e-05
-0.0702381
2.45269e-06
-0.080548
-1.06185e-05
-3.74701e-06
2.88756e-05
0.000599603
-0.11506
-0.0146079
-0.0817995
-3.33444e-06
2.14607e-05
-0.0784745
-0.0386892
-0.00639556
-5.29598e-06
-0.0523151
-0.062207
-0.0761613
-9.65457e-06
-6.73977e-06
-2.6742e-05
-0.115162
-0.0812349
0.000346689
-0.00836941
-4.85615e-05
0.252461
3.32891e-05
-6.35542e-06
5.27557e-05
-3.97203e-05
-7.90131e-06
-0.0033595
2.32645e-05
-0.00242045
-0.0801797
-0.0102144
-0.0463088
9.23006e-07
-2.33079e-05
0.0487678
-0.0807137
-0.00344513
0.112945
-4.59464e-05
-1.12217e-05
-9.71632e-06
0.127311
6.25305e-05
-8.30269e-05
-1.13436e-05
-0.0836984
-0.0122721
-1.66984e-05
-5.45401e-05
-0.00937411
-0.00472279
0.000151718
0.223772
-0.0765653
-0.000859533
0.550546
-6.90986e-05
-0.000901376
-0.0112116
-0.0729225
-6.22583e-06
-2.47519e-05
4.52101e-06
0.00327429
-0.0456364
-0.000324207
-0.0559931
-0.00577997
-5.13542e-06
-2.75149e-06
-0.00772843
-0.0164809
-0.029798
-0.0965764
-0.042929
-0.0400134
-0.00948414
-0.0311205
-3.82619e-05
0.000135788
-0.00414697
0.000277149
-0.000207101
0.000344271
-1.66195e-05
-0.000173204
-0.00928496
-5.94667e-06
-3.0339e-05
0.0315317
-0.0409895
-0.000359004
-0.000122834
-8.2102e-06
0.242274
-0.00663139
0.000324135
-0.0325315
9.67235e-05
7.30453e-05
6.45598e-05
-3.34317e-05
0.000214306
-0.0426652
0.0104989
-4.74649e-06
-0.000291926
-0.05011
-0.0416567
0.0471885
-0.000252758
0.00122784
0.0155614
-8.95453e-06
8.68843e-06
-0.0665628
4.44733e-06
0.16316
-2.80587e-05
0.00305787
6.31728e-05
8.22504e-05
-0.0670304
-0.00765543
-0.0185381
-0.00172701
5.72032e-06
0.00276136
0.0601274
-0.0131867
-0.000101635
0.0942359
0.160032
-1.97419e-06
-0.0550242
-5.1391e-05
-1.17833e-05
-2.2259e-05
-0.000301011
0.0175764
-4.22339e-05
8.88966e-05
-0.0211271
-0.0265467
-0.0172397
0.300546
-1.79655e-05
-4.28828e-05
0.168063
-0.0169949
-0.00364322
-0.000353534
0.165802
-7.34702e-06
-0.000619686
-2.96941e-05
-3.04302e-05
6.92484e-06
7.39941e-06
2.48842e-05
-0.0148425
-1.02948e-05
-0.00354098
-0.0438631
0.247369
-0.000432882
-2.55683e-05
0.00343206
0.0843898
-0.0664511
-0.000422669
-0.059619
0.301278
1.07382e-05
0.385912
-4.40422e-06
0.00205171
0.0218616
0.000200339
0.405998
-7.42064e-05
-4.69959e-06
0.000550749
6.00097e-06
-0.00048615
0.000106422
-1.07067e-05
-0.0014797
-4.88149e-05
-0.000111607
-0.00274443
0.238803
0.0488104
0.0196969
-0.0399691
-3.72699e-06
-2.22702e-05
0.00195049
-0.0770681
-1.03675e-05
-0.0440473
-3.38611e-05
0.10355
0.0604925
-0.0396286
-0.00113619
-0.0145484
-0.000560928
-0.0116257
-0.000601052
-0.00934205
0.06258
-4.05818e-07
0.272103
0.0299174
-0.00105617
0.21362
-0.0137733
-5.67132e-06
-1.08675e-05
2.05489e-05
-9.3473e-05
-0.000122506
0.239748
-0.000713032
0.247705
-0.00180468
0.163776
0.226302
0.129042
-0.00710556
-1.02236e-05
-5.45081e-05
-0.00806214
-0.169467
-0.0590499
0.000934462
-2.93485e-05
-0.0359039
-0.00075561
-8.78575e-05
0.00059292
-0.000734324
-0.00131504
0.0308264
2.50048e-05
-0.0425606
0.0564304
1.70572e-05
9.1392e-05
-0.0181837
-0.078385
-0.000488827
-0.000314343
-1.76162e-05
7.44179e-05
0.0992869
-0.0196299
-0.0595518
0.000772424
0.107537
-0.0445572
-9.04433e-06
-5.36438e-06
0.0125023
-0.000185253
0.089185
-0.0046323
-0.0106901
-0.000340078
0.000913781
-0.0436979
-0.000130879
0.000225442
-0.0114386
-0.0770628
0.164238
-0.0592867
-0.0293949
-0.000313831
-2.12916e-05
0.00532523
5.74094e-06
-0.0738975
-0.0795391
0.000275309
0.00177368
0.00277006
-0.145577
0.000312607
3.65773e-05
-1.67674e-05
-0.0467798
1.24152e-06
0.000277821
0.122179
0.178752
-0.161122
0.0478537
0.0464193
0.011138
-0.000384721
0.00657348
4.36703e-05
2.19679e-06
-0.000219667
-1.2e-06
-0.000156767
-0.000239323
-0.00759744
-0.0880957
-0.0100085
-0.0378048
0.051251
0.0421124
0.00278403
-0.0789582
1.21924e-05
0.00262667
0.0085513
-0.000296189
0.0756812
-0.00226739
-0.0124094
0.00863304
0.00425129
-0.000569197
-0.00392343
0.0404822
0.000403675
-0.0204447
-0.0179644
0.480889
-0.0293944
0.0818776
0.0155672
-0.0496304
0.00137885
-2.42121e-05
-0.00179567
-3.0009e-05
-0.0017521
-0.0287725
-4.77159e-05
-0.000262026
0.293896
-0.00224684
-0.0450101
-0.0148988
-2.55091e-05
-0.00284972
-1.97035e-05
-3.87868e-06
0.0350723
4.42673e-06
-0.00201591
0.0766464
0.00404775
0.000674769
0.0150248
-0.00570172
0.00307699
-0.157648
0.00040188
-0.00424122
-0.0635794
-0.000996813
-0.00813299
0.000200766
-0.00225434
0.000532398
0.0334297
-0.000663762
0.00407224
-0.0482443
-0.0226017
-5.91647e-05
-0.0454036
-0.0154061
-0.0137806
-9.07535e-05
0.00507786
-0.09739
-0.000591247
-0.0052281
-0.0427589
-0.00354065
-0.000957059
0.225407
-0.0304186
-1.23635e-05
0.00662285
-0.0653264
-0.000777147
0.194025
-0.00377368
0.000564624
0.0588543
-0.00121972
0.00594631
0.128107
-0.000323903
0.000687653
4.98427e-05
-5.47402e-05
-0.00323583
-0.00996656
-0.000460492
-0.0251821
0.100081
-0.0344618
-0.10346
0.000689188
-0.00280262
-0.00113802
-0.0754528
-5.23654e-05
0.0114686
-9.50803e-05
-0.0128163
-0.00143036
-0.00360917
-0.0294824
0.122192
-0.112705
-3.73423e-05
0.207563
-0.00262951
-0.00466269
-0.0597807
-0.120167
-0.0169576
-1.91353e-05
-0.00194591
0.00554224
-0.0025514
-0.0045615
-1.8222e-05
0.0874424
-0.0582536
-0.0113326
-0.00491443
0.0163368
-0.00743734
-0.00534819
0.00108025
-0.000593953
-0.00248586
0.118768
0.000282046
-0.172709
-0.000246595
-0.00548109
-0.00599892
-0.131297
-0.0123921
-0.158804
-4.2814e-05
-4.6452e-05
-0.00978475
0.00811147
0.000464065
-0.183097
0.088883
-0.0574969
4.60249e-05
-0.200557
-0.000300216
-0.210288
-0.0272205
-0.224685
-0.221866
-0.209665
-0.160644
-0.0618938
-0.0229003
0.0128675
0.049307
0.0853448
0.186862
0.219244
0.249195
0.298924
-0.00608245
-0.00857145
0.0620386
-0.0288237
0.000386187
0.00801108
-0.0452014
-0.000114929
-0.00141694
-1.85277e-06
-0.0161279
0.0153891
7.61332e-06
-0.000806157
-0.00790174
-0.0169684
-0.228513
-0.0228811
-0.0649843
-0.000147862
0.000110881
-1.59355e-05
-0.0829341
-0.0100383
-0.0435416
-0.0189428
0.00101547
-0.000176275
0.00347129
-1.24678e-05
-0.0267263
-0.000141642
0.000150049
-0.0125236
-0.00882427
-0.00111705
0.000127576
0.0474796
-0.0116581
0.0634948
-0.220261
-0.015518
0.154482
-0.0193607
0.00228874
-0.0240806
-0.00331987
-0.00976022
-0.0165844
0.325325
-0.00245638
-1.27646e-05
-0.00614981