/*--------------------------------*- C++ -*----------------------------------*\
  =========                 |
  \\      /  F ield         | OpenFOAM: The Open Source CFD Toolbox
   \\    /   O peration     | Website:  https://openfoam.org
    \\  /    A nd           | Version:  7
     \\/     M anipulation  |
\*---------------------------------------------------------------------------*/
FoamFile
{
    version     2.0;
    format      ascii;
    class       volVectorField;
    location    "19";
    object      U;
}
// * * * * * * * * * * * * * * * * * * * * * * * * * * * * * * * * * * * * * //

dimensions      [0 1 -1 0 0 0 0];

internalField   nonuniform List<vector> 
7807
(
(1.05888 0.121284 6.53178e-21)
(1.04727 -0.0369595 -3.8896e-22)
(0.985981 0.0887251 -1.28786e-20)
(1.02792 0.0584093 1.74571e-20)
(0.999333 -0.000729204 -2.43197e-23)
(0.999973 -4.82779e-06 -1.16565e-24)
(0.98437 0.07145 -2.47805e-20)
(0.995754 -0.00117018 -5.09869e-24)
(0.999906 -0.000131346 -3.87238e-24)
(1.02017 0.000609436 -7.57218e-22)
(0.999974 -6.40194e-06 1.29398e-24)
(1.00172 -0.00102526 -7.69567e-23)
(0.993523 -0.00138101 2.43621e-22)
(1.01618 -0.00161545 -4.4924e-21)
(1.01958 0.00106136 3.20858e-21)
(0.992055 -0.0121948 -6.88725e-22)
(1.06084 0.127236 -1.37433e-20)
(0.991279 -0.00173934 -8.67997e-23)
(1.00163 -0.00785826 2.21918e-23)
(0.978671 -0.089475 -7.3823e-22)
(1.02969 -0.00375444 -1.55515e-21)
(1.00113 -0.000583365 1.34283e-22)
(1.01501 -0.0028868 3.62797e-22)
(1.00906 0.0251492 -8.66111e-21)
(0.988442 -0.00213316 -3.94301e-22)
(1.05459 0.119275 -6.4602e-21)
(0.999362 -0.000693232 -1.7302e-23)
(1.01976 -0.00154418 1.81574e-21)
(1.00454 0.0127268 -1.09521e-21)
(1.00278 -0.00842569 -2.64495e-23)
(0.987925 -0.0126243 -1.18887e-21)
(0.927215 0.0127964 3.4001e-21)
(1.01475 -0.00344372 2.27226e-21)
(0.999632 -0.000278167 2.5599e-23)
(0.999957 -3.01714e-06 2.42978e-26)
(1.01969 0.000397662 1.11399e-21)
(1.00327 -0.00928188 -1.0291e-23)
(0.988753 0.069914 -3.92103e-21)
(0.996713 -0.00633022 5.64547e-22)
(0.999774 -2.65909e-05 1.7948e-23)
(0.997034 -0.00654716 -6.23362e-23)
(0.992212 -0.0113572 -2.38269e-22)
(1.0052 -0.0994701 3.55485e-21)
(1.13749 -0.0391005 6.25308e-22)
(0.999921 -4.99114e-06 4.88848e-24)
(0.999947 -8.25938e-06 -1.30055e-24)
(1.00106 -0.000478934 -8.21686e-23)
(0.996553 -0.00574627 -3.31175e-22)
(0.999952 -1.86295e-05 -1.22478e-24)
(0.98284 -0.0903019 1.0774e-21)
(1.00254 -0.000913032 8.82043e-23)
(1.01965 -0.00063845 -1.87695e-21)
(0.985229 -0.00241675 -1.36081e-21)
(1.00901 -0.0266738 -5.54803e-23)
(1.01999 -0.000486283 -6.36534e-22)
(0.996215 -0.00179926 -4.7185e-23)
(1.00156 -0.00732448 -1.10836e-23)
(0.995772 -0.000961265 3.1373e-22)
(0.979278 -0.0147871 -2.02773e-21)
(0.99962 -0.000242401 -3.192e-23)
(1.00003 -1.7071e-05 -1.30425e-24)
(1.00336 -0.000950751 1.01159e-22)
(1.01643 -0.001009 -1.06638e-21)
(1.00186 -0.000887921 7.792e-23)
(0.999324 -9.45503e-05 3.79969e-23)
(0.988391 -0.0131963 1.88417e-22)
(0.999925 -0.00013207 3.30958e-24)
(1.00001 -1.73855e-06 5.75198e-26)
(1.13281 0.0690008 2.57185e-21)
(0.996709 -0.00543762 -1.07474e-22)
(0.999948 -1.097e-05 1.21703e-24)
(0.969676 -0.0500953 -4.67387e-21)
(0.988672 -0.00251013 1.99301e-22)
(0.980602 -0.00267709 2.61836e-22)
(0.991525 -0.00204743 2.75066e-22)
(0.967111 -0.0212878 -4.52748e-22)
(0.989219 0.0906192 2.07153e-20)
(1.02807 -0.00363313 1.98561e-21)
(1.07431 0.00137122 -3.4426e-21)
(0.954955 -0.0384903 -5.29841e-21)
(0.993756 -0.0016208 -3.74362e-22)
(0.997549 0.0428738 2.37926e-20)
(1.03387 0.0054609 4.87751e-21)
(0.977253 -0.00637728 1.34154e-21)
(0.99886 -0.00191112 -4.85501e-23)
(0.998553 -0.000124925 3.28027e-23)
(0.995414 -0.00163867 4.64338e-22)
(0.985332 -0.00289328 8.69178e-22)
(0.999474 -0.000879749 2.77392e-23)
(0.997054 -0.000272982 1.26214e-22)
(1.00474 0.0144503 8.14984e-21)
(1.1677 -0.0227682 -9.65177e-22)
(0.999903 -3.35599e-05 -3.40337e-24)
(1.00127 -0.00618193 -4.08875e-24)
(0.997243 -0.000602614 1.21331e-22)
(0.985981 -0.000928312 -2.03249e-21)
(0.97208 -0.0498629 2.67063e-22)
(1.01058 -0.0256864 2.92949e-22)
(0.998753 -0.00183296 1.54599e-23)
(0.999216 -9.31586e-05 1.38541e-23)
(0.957531 -0.00933503 1.01547e-21)
(1.0749 0.00601166 2.94901e-21)
(0.997377 -0.000728584 -2.99365e-22)
(0.999989 -5.75349e-07 -7.75183e-26)
(1.17042 -0.0111499 -7.39865e-22)
(1.0249 0.0256629 -7.84325e-21)
(0.955222 0.0111409 3.91244e-21)
(0.995973 -0.00166277 -1.86492e-22)
(0.999994 -1.51385e-06 2.53192e-26)
(1.02123 -0.0118301 -6.95787e-22)
(1.0311 0.0555078 -2.02813e-20)
(1.02179 -0.0725412 -4.46319e-21)
(0.999992 -1.83183e-06 -4.13279e-26)
(1.02274 -0.0123409 -1.49569e-22)
(1.02213 0.0244908 8.25628e-21)
(1.0003 -0.000440538 -4.43043e-24)
(1.06627 -0.0863851 -2.60903e-22)
(1.02543 0.0146335 -1.86581e-21)
(0.982338 -0.039434 2.07372e-21)
(0.978925 -0.00371363 -2.97726e-22)
(0.963438 -0.00438145 -2.30123e-21)
(1.00033 0.0258243 -1.53693e-20)
(1.01144 -0.0981187 -4.87425e-21)
(1.00779 -0.00665453 4.36994e-23)
(0.961345 -0.00569311 8.80122e-22)
(0.99924 -0.00101471 6.41637e-23)
(0.989206 -0.00935874 3.83914e-22)
(1.0021 -0.00699851 1.26342e-23)
(0.999361 -5.95454e-05 -8.61864e-23)
(0.988066 -0.0115506 2.70106e-23)
(1.20524 -0.0375906 -6.66742e-22)
(1.06917 -0.000765451 5.88871e-22)
(0.999537 -0.000381992 2.90002e-24)
(0.999392 -0.000896463 -5.63965e-23)
(0.976633 -0.00547334 3.77171e-22)
(1.02931 0.0493473 7.41911e-21)
(0.995956 0.0191163 2.68396e-20)
(0.999987 -1.28624e-06 -8.64244e-26)
(1.00595 -0.00257629 4.69853e-23)
(0.955457 -0.0055012 -3.05631e-21)
(0.984073 -0.00157865 -1.07701e-21)
(0.986094 -0.0565523 -3.33676e-21)
(0.967321 -0.023328 6.15253e-22)
(0.981898 -0.00236719 -2.6038e-23)
(0.958405 0.00807708 1.48035e-20)
(1.00983 -0.0416518 -1.38062e-22)
(1.00962 0.0151021 -4.14239e-21)
(0.981042 -0.0183713 -1.10943e-21)
(0.978465 -0.0020272 3.07184e-22)
(0.99986 0.0362193 -7.66753e-21)
(1.02025 0.00100563 2.75614e-21)
(1.15487 -0.0260177 1.19136e-22)
(0.998797 -0.001498 -1.53693e-22)
(1.13813 0.0614836 3.55684e-22)
(1.03215 0.00509303 -5.0582e-21)
(0.998687 0.074073 -2.02074e-20)
(0.961523 -0.0251578 1.8987e-21)
(0.993811 -0.000929468 7.96933e-23)
(0.947066 0.0500506 3.58327e-20)
(0.999956 -1.55701e-05 -1.15616e-24)
(1.00086 -0.00651071 6.57786e-23)
(1.00933 0.0278398 6.2685e-21)
(0.999984 -1.31023e-05 7.83491e-25)
(0.998447 -0.00401377 -2.90044e-22)
(0.996939 -0.000555329 -5.74317e-23)
(1.00278 0.0310566 -2.05563e-21)
(1.00138 0.0246551 7.62921e-21)
(0.939103 0.0549243 1.21144e-20)
(0.998226 -0.00386174 -1.61826e-22)
(0.998122 -0.000138051 -6.08757e-23)
(1.00001 -2.08512e-06 -4.40563e-26)
(0.973824 -0.00163537 -3.63152e-21)
(1.00029 -0.000390592 6.21018e-24)
(1.04902 -0.0334158 4.46527e-22)
(1.00614 -0.00283815 3.08421e-22)
(0.976245 -0.00259891 6.05412e-22)
(1.16063 -0.00139605 -4.15326e-22)
(1.09011 0.0677854 2.15248e-22)
(0.999903 -4.24201e-05 1.87053e-24)
(0.999605 -0.000453389 -3.37532e-23)
(1.02865 0.0617931 -3.10843e-21)
(0.999957 -1.04617e-05 -5.05612e-25)
(0.999939 -4.92459e-06 7.96937e-25)
(0.983667 0.0763487 -2.06955e-20)
(1.04926 -0.0401647 -6.23234e-22)
(1.00864 -0.0604489 -2.40605e-21)
(0.984296 -0.0382355 -2.95194e-21)
(0.98029 -0.00430468 8.33247e-22)
(1.00696 -0.0428467 2.75363e-22)
(0.959887 -0.00368575 1.66685e-21)
(0.999983 -1.17492e-05 -2.48947e-25)
(0.972982 -0.0464443 -1.14096e-21)
(1.09224 0.0747835 -5.9312e-21)
(0.997343 -0.000934997 4.25671e-23)
(1.00005 -4.96941e-06 -1.06542e-24)
(1.06351 0.069935 6.3896e-22)
(0.999058 -0.000235286 1.04102e-22)
(0.988845 -0.0111148 6.11736e-22)
(1.00439 -0.0403298 8.93924e-22)
(1.00001 -1.53791e-06 -1.99328e-26)
(1.00063 -0.00155574 -2.4524e-23)
(1.0262 0.0485903 9.22895e-21)
(1.07944 0.0800753 -7.92606e-21)
(0.996138 0.0646172 -2.7155e-21)
(1.06222 -0.0800724 2.03977e-21)
(1.02551 -0.0690379 9.96178e-22)
(1.11339 -0.115938 -7.3961e-22)
(1.01997 -0.00206065 5.45399e-21)
(1.02429 0.0455412 -2.93531e-21)
(0.999887 -7.22031e-06 -5.67877e-24)
(1.00003 -1.49068e-05 3.25923e-25)
(0.977526 0.00274214 -1.4676e-20)
(0.993291 -0.0109072 -2.33811e-22)
(0.999522 -0.000335628 -2.8021e-23)
(0.975289 -0.0457729 2.36805e-21)
(0.988663 -0.00988816 -4.49877e-22)
(1.00772 0.0695201 -2.26738e-20)
(1.00485 0.0668958 -4.73552e-21)
(0.983263 -0.0579676 8.82032e-22)
(0.92107 0.0263915 -1.32068e-20)
(0.99912 -0.000279533 -7.80607e-23)
(0.991608 -0.00138977 3.01499e-22)
(0.957742 -0.00784749 1.27615e-21)
(1.02827 0.000252214 -1.14121e-21)
(1.00924 -0.125934 -4.55659e-22)
(1.0796 0.120209 -1.37164e-20)
(0.948951 0.0421993 -3.04715e-20)
(1.00004 -8.01275e-05 8.55882e-25)
(1.00775 -0.00617342 1.58711e-22)
(1.0236 0.0167284 1.01275e-20)
(0.996704 -0.00467046 -3.93251e-22)
(1.02767 0.015008 -1.27695e-21)
(0.999554 -0.00096389 -1.28519e-23)
(0.917769 0.0593271 2.44692e-20)
(0.999891 0.068396 4.41219e-21)
(0.995443 -0.00135901 2.84267e-22)
(1.00277 -0.00702548 -3.27581e-24)
(0.999779 -3.43975e-05 -3.33044e-23)
(1.11317 0.096042 3.03109e-21)
(0.999948 -5.65155e-06 2.09167e-24)
(0.995287 -0.0088641 2.00165e-22)
(0.941544 -0.0199648 1.98613e-21)
(0.999947 -1.55992e-05 -4.96199e-25)
(0.998926 -0.00225548 -4.29897e-23)
(0.999645 -0.000938901 1.84469e-23)
(1.05798 0.042081 7.65072e-21)
(0.999985 -1.72294e-05 1.06717e-24)
(0.997347 -0.000186036 -1.06284e-25)
(0.957364 -0.0384522 6.16261e-21)
(0.941324 0.007016 -7.46448e-21)
(1.06846 -0.00518424 -7.66051e-22)
(0.934459 0.0367636 1.80896e-20)
(0.99997 -3.82329e-06 -1.05697e-24)
(1.0021 -0.0409763 -2.09344e-23)
(0.999852 -0.000229002 -1.21038e-23)
(0.993878 0.0753773 -2.03591e-20)
(1.00308 -0.000640229 -1.32584e-22)
(0.993967 0.0245414 8.84525e-21)
(1.00205 -0.0084705 4.07377e-23)
(1.00055 -0.00165471 2.0969e-23)
(1.02605 -0.030652 1.74522e-22)
(1.01988 -0.00103487 -5.04858e-21)
(1.00043 -0.000263154 1.51676e-23)
(0.999836 -2.91714e-05 2.04721e-25)
(1.00037 -0.000354539 3.2102e-23)
(0.996519 -0.00496207 -3.58183e-22)
(1.01541 -0.0631472 2.89371e-21)
(0.999969 -5.96965e-06 6.98164e-25)
(0.963238 -0.0240993 1.32804e-21)
(0.997038 -0.000684481 -1.33688e-23)
(0.999895 -2.70055e-05 3.55049e-24)
(0.999504 -0.000425264 9.36096e-24)
(0.987601 0.0422613 2.15557e-20)
(0.99557 -0.000253953 1.1115e-22)
(0.999521 -4.33283e-05 -7.47911e-24)
(0.966929 0.0018212 2.77901e-20)
(0.998809 -0.0021558 -9.13161e-23)
(1.04819 0.0902903 -7.45666e-21)
(0.999837 -0.000209743 2.00393e-23)
(1.00636 -0.0198397 -2.49254e-22)
(1.00001 -1.11537e-06 -2.32235e-26)
(0.982391 -0.0312691 -1.10132e-21)
(1.02778 9.67722e-05 1.78789e-21)
(1.16232 0.00800243 3.68523e-22)
(0.97938 -0.0161328 1.73321e-21)
(0.999668 -0.00046115 4.04532e-23)
(0.977868 -0.0752947 1.60825e-21)
(0.997247 -0.000119405 5.16854e-22)
(0.999902 -9.78037e-06 3.19455e-25)
(1.00036 -0.000308715 -2.83796e-23)
(0.998209 -0.00281313 1.3384e-22)
(0.994303 -0.000698468 -3.40579e-22)
(1.00241 -0.000786431 -1.47099e-22)
(0.998966 -0.00152155 5.4353e-23)
(0.978475 -0.00593707 2.15068e-22)
(1.01992 -0.0609318 -2.07449e-21)
(0.979129 -0.0046659 9.02935e-22)
(1.13067 -0.0313177 -1.4096e-22)
(0.973541 -0.00456511 -1.15384e-21)
(1.00716 0.0907136 2.33407e-21)
(1.00309 0.0927798 -1.71761e-20)
(0.998802 -0.000540237 -7.44156e-23)
(1.18451 0.0066237 -2.53928e-21)
(0.999988 -1.99112e-06 -4.88724e-26)
(0.998139 -0.00352676 -1.69256e-22)
(0.989325 -0.000547514 2.05821e-21)
(1.00693 0.0225187 5.1817e-21)
(1.03506 0.00952249 -4.83657e-21)
(1.00007 -2.65697e-05 2.70075e-24)
(0.998251 -0.00332264 -1.38039e-23)
(0.973429 -0.00549298 8.69847e-22)
(1.04452 0.035965 -3.03431e-21)
(0.999186 -0.000926108 4.43743e-23)
(1.00268 -0.000667886 8.70461e-23)
(1.00096 -0.000816778 -6.07357e-24)
(1.11417 0.023458 3.09928e-21)
(1.20473 -0.0504464 -4.31114e-21)
(1.02348 0.112843 1.13415e-20)
(0.998895 -0.000112818 -6.36378e-23)
(1.05808 -0.0382688 7.88616e-22)
(0.999914 -4.67291e-05 -3.23217e-24)
(1.00382 -0.00624685 -2.33509e-22)
(0.999961 -7.9045e-06 -3.49961e-25)
(0.986094 -0.0180892 3.17789e-22)
(0.999747 -4.05067e-05 -6.49037e-24)
(1.01038 -0.0195418 6.4793e-23)
(1.20815 0.00951534 3.10645e-21)
(0.974204 -0.0236096 2.21088e-21)
(1.00744 -0.0193293 4.25909e-23)
(1.00695 -0.00552052 -1.95587e-22)
(0.999484 -6.46766e-05 3.45241e-23)
(1.02329 -0.0159194 4.89546e-22)
(0.996424 -0.0165262 4.06346e-22)
(1.06943 0.0103406 -1.85681e-21)
(1.05338 0.0399611 3.43435e-21)
(1.16552 -0.127378 9.10007e-23)
(1.13466 -0.0484864 -2.15572e-21)
(0.994994 -0.000175327 -5.65319e-22)
(1.00409 -0.00310819 2.80148e-22)
(0.944023 -0.0188742 -7.44753e-22)
(0.932122 0.0525654 -3.70854e-20)
(1.11526 -0.0496532 2.39997e-21)
(1.02341 -0.00964134 -2.14259e-21)
(0.922771 0.0309488 -1.82292e-20)
(0.99903 -6.20471e-05 3.12932e-23)
(0.998587 -0.000675353 -2.37454e-23)
(1.15163 -0.0361723 -2.02417e-21)
(0.999075 -0.00166087 -3.58485e-23)
(1.01017 -0.038688 2.81737e-22)
(1.00475 -0.00156132 1.03968e-22)
(0.998056 -0.000188809 -5.10753e-23)
(0.99853 -0.000170198 -8.10062e-23)
(1.0278 0.0219187 5.99069e-21)
(0.999946 -0.000113093 -7.70503e-25)
(1.00041 -0.000210648 -1.35576e-23)
(1.00006 -1.06832e-05 1.83423e-24)
(0.997401 -0.00035173 2.89092e-22)
(0.994298 -0.00762217 5.01809e-22)
(0.999988 -1.29417e-06 5.57306e-26)
(0.999163 -0.000140827 8.26578e-24)
(0.98035 -0.0139943 5.91316e-22)
(0.969005 0.00580157 9.24743e-21)
(1.0091 -0.0203388 1.90622e-22)
(0.993376 -0.0101741 8.6449e-22)
(0.96386 0.0440624 4.20601e-21)
(1.00046 0.025826 1.37679e-20)
(1.05969 0.000127699 -1.42891e-21)
(1.17566 0.0122105 7.39664e-22)
(0.979662 -0.00123286 1.92679e-21)
(1.00405 -0.00357539 -1.34912e-22)
(1.00706 0.0367306 -7.72497e-22)
(0.99142 -0.00108693 -7.03789e-22)
(1.03016 0.0880478 3.42776e-22)
(1.00652 -0.0461351 4.24162e-23)
(1.03282 -0.11215 -1.76529e-21)
(1.07508 0.0767309 4.87803e-21)
(1.03203 0.0935002 -9.76729e-21)
(0.965137 -0.0202703 2.84947e-21)
(1.03606 0.00775463 -3.08883e-21)
(1.08425 0.124983 1.28897e-20)
(1.04264 0.0902703 1.40974e-20)
(1.02079 -0.00189234 1.71286e-21)
(0.997502 -0.00103774 7.07802e-23)
(0.996471 -0.00164041 6.53385e-23)
(0.999934 -1.41434e-05 -1.17271e-24)
(1.01445 -0.0254537 -7.60002e-23)
(0.991896 -0.000835712 1.67102e-22)
(1.00076 -0.00197115 -2.22494e-23)
(0.999923 -1.2904e-05 -2.25341e-24)
(0.998703 -0.000481347 2.92463e-23)
(0.975209 -0.0738987 -2.65839e-21)
(1.09821 0.0341249 1.68859e-21)
(0.984751 -0.00386893 -1.03272e-21)
(0.999007 -0.0107583 5.11114e-22)
(0.997116 -0.000378301 -1.60677e-22)
(1.05535 -0.0407499 -6.93399e-23)
(0.994419 -0.000791715 -5.47156e-22)
(1.00184 -0.00632127 4.1621e-23)
(1.09711 0.119537 2.06188e-21)
(0.998656 -0.000171138 -1.87988e-22)
(0.999982 -3.37755e-05 -1.04372e-24)
(0.999955 -0.000137244 -7.55144e-25)
(1.00003 -8.18113e-05 5.49157e-25)
(0.980794 -0.00514024 4.89428e-22)
(1.02636 0.019943 -7.03855e-21)
(0.997257 -0.000216965 6.32899e-24)
(1.01985 -0.00830098 1.38338e-21)
(1.01735 -0.13182 3.41414e-21)
(0.990528 0.0652019 -3.37541e-22)
(1.00321 -0.00639934 6.79658e-23)
(1.00549 -0.00403521 -5.02864e-23)
(0.995685 -0.00181789 -2.31107e-22)
(0.991763 0.0427328 -2.11129e-20)
(0.999322 -5.19019e-05 2.38526e-23)
(1.02674 0.117046 -5.75606e-21)
(1.00764 0.0157203 -8.01616e-21)
(0.999914 -1.7514e-05 2.75142e-24)
(1.0045 -0.046938 -1.42997e-21)
(0.99738 -0.000430895 -1.41293e-22)
(0.989467 -0.0576047 4.11033e-21)
(1.00043 -0.00011204 1.37743e-23)
(1.05527 0.00255773 2.04532e-21)
(1.00585 -0.0143135 1.84515e-24)
(1.00513 -0.00359346 1.49693e-23)
(0.999373 -8.01346e-05 -4.74602e-23)
(1.06272 0.0398058 3.687e-21)
(1.0405 0.0343309 1.20224e-21)
(1.00642 -0.0631689 2.30607e-21)
(0.980869 -0.0168107 -1.13766e-22)
(0.998101 -0.00300784 -1.11938e-22)
(0.999229 -0.0369584 -2.59529e-21)
(1.13345 0.0521795 -3.12062e-21)
(0.921759 0.0169495 -1.66984e-20)
(1.08055 -0.0740817 -2.04385e-21)
(1.00421 -0.00676574 -2.1905e-23)
(0.999995 -2.01856e-06 -2.20921e-26)
(0.98839 -0.00326989 -8.06564e-22)
(0.99837 -0.000184211 1.79269e-22)
(1.02219 -0.0159563 6.84203e-22)
(1.00151 -0.104488 -1.41452e-21)
(1.18338 -0.00635254 1.25486e-21)
(0.982247 0.0596834 -2.6766e-20)
(1.04823 0.033228 4.94554e-21)
(1.11519 -0.1042 3.14665e-21)
(1.0631 0.0760418 2.10636e-21)
(0.998803 0.024886 2.48243e-20)
(1.01672 -0.00229438 1.17648e-21)
(1.00093 -0.00190944 5.53127e-23)
(1.01913 0.0511039 4.61352e-21)
(0.999244 -0.00162389 7.66354e-23)
(0.999856 -0.00012158 4.00878e-24)
(0.98992 -0.000616023 2.45814e-22)
(1.00007 -2.56717e-05 4.91596e-25)
(1.12308 -0.124338 1.69786e-21)
(1.00301 -0.0158005 -2.25275e-22)
(0.984497 -0.0308701 1.92847e-21)
(1.00149 -0.00131535 3.67485e-23)
(1.05838 0.0666323 1.09579e-20)
(0.998702 -0.000160376 -1.4174e-23)
(0.999981 -2.666e-05 -7.01397e-26)
(1.02563 -0.117003 1.9183e-21)
(1.00131 -0.00112474 -2.14589e-23)
(1.0977 -0.00441286 -4.48215e-22)
(0.959869 -0.00872332 4.89778e-22)
(0.947017 -0.00928192 1.75933e-22)
(1.18822 0.0542397 -5.68305e-23)
(1.02149 0.0158479 -2.65273e-21)
(1.01831 0.00453766 1.6106e-21)
(1.01721 0.00425456 -6.37143e-22)
(0.999852 -2.14311e-05 1.10219e-24)
(1.10582 0.0335787 1.30034e-21)
(1.0698 0.0142023 2.13365e-21)
(0.999575 -0.000492727 1.56075e-23)
(0.985296 -0.00441759 1.19028e-21)
(1.00047 -0.000167393 -1.53515e-23)
(1.01033 -0.017927 -1.63999e-22)
(1.00734 -0.0257328 -1.58897e-22)
(1.00366 -0.00117355 1.50139e-24)
(0.999354 -0.00100678 -7.8598e-23)
(1.11204 0.0883229 -9.40114e-21)
(0.999983 -1.55928e-05 -1.12398e-24)
(1.00016 -8.56795e-05 -3.19747e-24)
(1.0016 -0.000884713 -1.80005e-24)
(0.985413 -0.00126466 7.52041e-22)
(1.01653 -0.00991947 8.94007e-22)
(0.984022 -0.0255595 -2.58724e-21)
(0.979986 -0.0024047 -4.4154e-22)
(1.01192 -0.0597702 1.35601e-21)
(1.0371 -0.141994 -3.71715e-21)
(1.02428 -0.0279956 -1.90824e-23)
(1.02284 0.0520505 -2.6479e-20)
(1.19831 0.0154602 -2.17451e-21)
(0.994425 -0.0017481 -3.58081e-23)
(0.91581 0.0532498 2.88306e-20)
(0.974464 -0.052111 4.14053e-21)
(0.993995 -0.00811352 1.62116e-22)
(0.981942 -0.00191335 7.42716e-22)
(0.997508 -0.0159616 -1.05272e-22)
(0.988157 -0.000940766 1.11594e-21)
(0.991355 -0.00265294 -2.29126e-22)
(1.02382 -0.0114023 -1.42884e-21)
(1.1235 -0.053307 -5.42633e-22)
(0.99998 -3.13258e-05 -1.41793e-25)
(1.0203 -0.010957 -1.75114e-22)
(0.999928 -1.82552e-05 -1.37322e-24)
(1.00238 0.0771825 5.418e-21)
(1.13428 0.0752765 6.08165e-21)
(0.995987 -0.00132409 7.46446e-23)
(0.991442 -0.000638683 -9.58256e-22)
(0.999859 -3.16117e-05 -7.52474e-24)
(0.997144 0.0399756 1.57576e-20)
(1.0203 0.0911366 1.29439e-20)
(1.10834 0.0254044 -1.64606e-21)
(1.11771 0.114163 -8.02582e-21)
(0.97423 -0.0556771 -1.84207e-21)
(0.998775 0.00645046 -2.28568e-20)
(0.999949 -9.94198e-05 2.29741e-24)
(1.04351 -0.0241692 1.19329e-21)
(0.991821 -0.000513496 -3.40736e-23)
(1.08275 0.0652246 -2.19955e-21)
(0.942735 0.0358132 -2.18876e-20)
(1.13733 0.0453262 3.3322e-21)
(1.0434 0.0272169 8.38215e-22)
(0.999622 -0.0106661 -1.17769e-22)
(0.999846 -5.43024e-05 -7.46205e-24)
(1.12037 0.0993341 3.24743e-21)
(1.19202 -0.0295464 7.17255e-22)
(0.993968 0.0449964 -5.16512e-22)
(1.09067 -0.00570057 2.43199e-21)
(1.02617 0.0421363 7.71155e-21)
(0.994132 -0.00148118 -1.05714e-22)
(0.988071 0.0606182 7.35708e-21)
(1.02459 0.0868618 4.52802e-21)
(0.992382 -0.00221046 -6.39039e-22)
(0.993648 -0.0021173 -2.39456e-22)
(1.13138 0.0897635 1.13108e-22)
(0.948379 -0.00830438 -3.09692e-21)
(0.999932 -0.000115721 -3.51154e-24)
(0.988886 -0.00367532 1.05381e-21)
(0.942558 -0.014156 2.43604e-21)
(0.98616 -0.0727234 -5.61047e-22)
(1.00802 -0.00216183 -9.08683e-22)
(1.00694 -0.00500637 5.06842e-23)
(0.9999 -0.000143754 -6.10483e-24)
(1.02169 0.096611 -1.95829e-20)
(0.999959 -0.00963161 2.29302e-23)
(0.999922 -4.04683e-05 1.41894e-24)
(1.01972 -0.0556603 1.77583e-21)
(0.999602 -0.000312636 1.18568e-23)
(0.999831 -4.6899e-05 5.6441e-25)
(1.00425 -0.0104512 -1.88986e-23)
(1.04777 0.0657817 1.49937e-20)
(1.0173 -0.103521 2.62365e-21)
(0.957044 0.0394145 1.30036e-20)
(1.00005 -7.8352e-06 -1.29097e-24)
(1.0525 0.0696299 -1.56377e-20)
(1.01262 -0.0472624 1.28015e-21)
(0.999937 -0.000142116 -9.96148e-25)
(1.00002 -4.55669e-06 -3.02938e-25)
(1.00267 0.00980502 -1.31828e-21)
(1.04434 0.0563619 5.53977e-21)
(0.99671 -0.00176593 6.77849e-23)
(1.04112 0.0434713 -7.00111e-21)
(1.00002 -1.48607e-05 2.33531e-25)
(1.04101 0.0482965 -9.81065e-21)
(1.14997 -0.129571 4.15994e-21)
(0.99205 -0.00187459 6.86962e-22)
(0.999216 0.0119075 -3.17882e-20)
(0.975808 -0.0428062 2.69597e-21)
(1.12191 0.108289 7.77646e-21)
(0.982287 -0.00180209 4.0883e-22)
(1.04501 0.0512586 1.28116e-20)
(1.04869 0.0596924 -4.00478e-21)
(0.985819 -0.00588409 1.81125e-21)
(0.981239 -0.00706758 -1.33566e-21)
(0.99544 -0.00819471 5.03884e-22)
(0.997785 -0.000426085 -4.86031e-23)
(0.999844 -0.000135931 1.07797e-23)
(0.999779 -0.00917178 -4.01636e-23)
(1.03424 0.0830917 -2.28068e-21)
(0.999979 -2.42164e-05 3.24632e-25)
(1.03708 0.0412503 9.27791e-21)
(1.03177 -0.103395 4.23691e-21)
(1.00258 0.0488151 6.32049e-21)
(1.03705 0.037152 -1.04687e-20)
(0.942363 -0.0124559 -3.53339e-22)
(0.959895 0.0548794 -2.78557e-20)
(0.998727 -0.000839726 3.41374e-24)
(1.01415 -0.0233546 4.66475e-23)
(1.05043 -0.0733462 1.15125e-21)
(0.988541 -0.000795461 -7.53003e-23)
(0.994697 -0.00235875 3.21202e-22)
(1.00999 -0.0485606 -1.09374e-21)
(1.04966 -0.0162179 -1.38948e-22)
(0.93097 0.0282669 3.39995e-20)
(1.00003 -1.44447e-05 1.26127e-24)
(0.998497 -0.000886317 5.87522e-23)
(1.01716 -0.0717632 6.80308e-23)
(1.00001 -3.63036e-06 2.30624e-26)
(1.00224 0.0828554 2.68478e-21)
(1.00133 -0.000964964 0)
(1.00001 -4.72247e-06 1.34933e-26)
(1.00014 -6.70616e-05 7.33621e-24)
(1.0003 -9.30507e-05 1.7755e-25)
(0.986459 -0.0168211 1.64911e-21)
(1.01983 -0.0150074 -4.89746e-22)
(0.998798 -0.00063567 9.00412e-23)
(0.999941 -8.99291e-06 2.39631e-24)
(0.994364 -0.0021514 1.7053e-22)
(1.00365 -0.0108987 1.32334e-23)
(0.989755 -0.111203 -3.82038e-21)
(0.970348 -0.0021749 2.12361e-22)
(1.01589 -0.00882741 1.64543e-21)
(0.999985 -1.1745e-06 5.09023e-25)
(1.10154 -0.15076 5.24474e-21)
(0.989375 -0.00224782 -4.03183e-22)
(1.11866 0.0813538 -5.1282e-22)
(1.00016 0.0111163 -4.53113e-21)
(1.00093 -0.00289084 6.43576e-24)
(1.10711 0.0707589 -8.52245e-21)
(1.00011 -7.28495e-05 6.16908e-26)
(0.989742 -0.00270287 6.30733e-24)
(1.02026 0.000740386 -3.18923e-21)
(0.994689 -0.00275495 -1.31847e-22)
(1.04841 0.0784852 -8.71123e-22)
(0.989403 -0.00478764 -8.16516e-22)
(1.04481 -0.0217844 -1.152e-21)
(1.02075 0.00138101 -3.45e-21)
(1.05296 0.0353309 -2.16484e-21)
(1.00614 -0.01314 -9.65556e-23)
(0.991762 -0.00296133 1.86495e-23)
(1.06981 0.0666304 6.80749e-21)
(0.978968 -0.0800782 -3.16501e-21)
(0.991992 0.0799898 2.24032e-20)
(0.99267 -0.00353772 -7.81957e-22)
(1.04983 0.102002 -1.21698e-22)
(0.992697 -0.0030158 2.10025e-22)
(0.999119 -0.000349819 -6.03388e-24)
(1.04301 0.0243493 2.31353e-21)
(1.0128 -0.0267291 1.49752e-22)
(1.03128 0.0026029 4.74568e-21)
(1.00137 -0.000687344 2.44182e-23)
(1.00001 -3.56813e-06 6.44824e-27)
(1.00248 -0.128442 1.43332e-21)
(1.09559 0.113288 -1.12541e-20)
(1.00113 -0.0028062 -1.62377e-23)
(1.11575 0.0727422 7.90305e-22)
(0.990019 -0.00444947 -5.35444e-22)
(1.09221 -0.158072 -1.95282e-21)
(1.04237 -0.0373353 -1.59308e-22)
(0.983572 -0.0273057 1.48277e-21)
(0.998704 -0.000717647 -3.9317e-23)
(0.994775 -0.000392381 -1.31556e-22)
(0.973214 -0.0671502 -1.82173e-21)
(0.975305 -0.00588314 1.79994e-21)
(0.992278 -0.00272887 5.29609e-22)
(0.999879 -0.000335332 7.61242e-24)
(0.984987 0.0839795 -2.79613e-21)
(1.10434 0.0628711 5.1415e-21)
(1.02104 -0.0091559 -5.40936e-22)
(0.999851 -0.0001034 6.66609e-24)
(1.02296 0.0815585 -8.65084e-21)
(1 -1.75639e-05 -9.24989e-26)
(0.999863 -9.18359e-05 1.25571e-23)
(1.0962 0.0613274 4.42063e-21)
(1.00887 -0.0221292 -1.20488e-22)
(1.10494 0.102349 9.0692e-21)
(1.02003 -0.00251977 1.27793e-21)
(1.01442 -0.0110486 -8.63891e-23)
(1.08967 -0.0605097 1.26016e-21)
(1.05436 -0.129501 4.16865e-21)
(1.18836 0.0465015 -1.11431e-22)
(1.00096 -0.000686955 -5.07571e-23)
(0.960251 -0.0102669 -1.68603e-22)
(0.999985 -4.19125e-05 -3.3829e-25)
(1.00398 -0.00951783 1.65435e-23)
(1.05234 0.0752828 5.68583e-21)
(0.986619 -0.00549942 1.25331e-21)
(0.997826 -0.00103431 8.17552e-23)
(1.01299 -0.0373564 -8.72379e-22)
(0.99848 -0.000765741 4.05195e-24)
(0.99967 -0.000840621 2.4495e-23)
(0.968523 0.00320005 5.76913e-21)
(0.992206 -0.00381924 -4.45198e-22)
(0.999574 -0.000540541 -5.33959e-23)
(0.999993 -2.96557e-07 -6.41644e-26)
(1.01462 0.00542137 7.03084e-21)
(0.975064 -0.0219147 -3.14948e-22)
(0.999744 -0.00041013 1.66011e-23)
(0.997877 -0.000531344 9.91562e-23)
(1.01974 0.0176505 2.90272e-21)
(1.05974 0.00994131 5.10056e-22)
(0.965243 -0.0180581 -1.78435e-21)
(1 -1.10151e-05 -1.45349e-25)
(1.00122 0.0111702 1.91301e-20)
(0.987788 -0.0144883 -1.10845e-21)
(1.05863 0.0606777 -1.09195e-20)
(1.01049 -0.00111108 -1.45973e-21)
(1.01214 -0.00107684 3.39726e-21)
(0.973163 -0.00784874 2.50473e-21)
(0.99993 -4.38873e-05 -9.50428e-25)
(1.02009 0.000207901 -6.46168e-22)
(1.06428 0.00764561 -6.64379e-22)
(1.16613 0.0513764 2.01749e-21)
(1.03819 -0.09812 9.49537e-22)
(1.0318 0.0779559 6.82297e-21)
(1.0046 -0.00140296 -2.18775e-23)
(1.07591 0.0704142 -9.36763e-21)
(0.999653 -0.0125309 -1.82887e-22)
(1.01587 -0.0533341 -2.97457e-21)
(0.999712 -0.000107049 -1.21588e-23)
(1.0024 -0.0168486 4.49494e-22)
(0.999912 -0.000322868 4.63472e-24)
(1.03957 0.0296625 -6.88207e-21)
(1.06668 0.111445 -2.07496e-20)
(0.998844 -0.00087571 3.09918e-23)
(1.01562 -0.011171 -7.66815e-24)
(0.986176 -0.00268644 4.19415e-22)
(1.0419 -0.0848703 4.38737e-22)
(1.0364 -0.0904407 -2.12273e-21)
(0.998568 -0.00058252 5.83625e-23)
(1.04033 -0.0247124 -3.50304e-22)
(0.986441 0.0013395 -9.56917e-21)
(1.16243 0.0334904 1.00746e-21)
(0.999957 -0.00012178 5.7022e-24)
(1.0555 0.00732882 -1.79813e-21)
(0.99739 -0.00750703 -2.72119e-22)
(0.998612 0.00138399 2.10493e-20)
(0.990081 -0.00376813 7.2636e-22)
(0.995782 -0.0235608 -3.76771e-22)
(1.01535 -0.0329329 -1.6521e-23)
(0.994457 -0.0243671 -3.20376e-23)
(0.998262 -0.0186405 -9.32076e-22)
(0.993974 -0.00234246 1.16531e-22)
(0.998896 -0.0123846 5.2132e-22)
(1.00143 -0.00530438 -1.11793e-23)
(1.05106 -0.0196396 3.48448e-22)
(1.00008 -1.96539e-05 -3.9239e-24)
(1.18945 -0.0917812 -1.65126e-21)
(1.14804 -0.00555104 -2.3914e-22)
(1.01095 0.0928582 1.59484e-20)
(0.967144 -0.0170625 2.64346e-21)
(1.09682 0.0978855 -4.61976e-21)
(1.00148 -0.000540145 8.99882e-23)
(1.06607 -0.0719168 -1.72355e-23)
(1.00341 -0.0350956 -1.02741e-21)
(1.01679 0.0305958 8.46224e-21)
(0.994339 -0.00298721 3.17992e-22)
(1.00008 -0.000139244 2.03769e-24)
(0.988349 -0.0151947 1.45633e-21)
(0.996182 -0.0079881 -1.91884e-22)
(1.03758 -0.0224708 9.90382e-22)
(0.977735 -0.00411553 -1.4711e-21)
(0.980376 -0.00635582 4.51577e-22)
(1.11897 -0.0321247 -1.04832e-22)
(0.989124 -0.00154394 -6.54218e-22)
(1.01296 -0.0344836 6.36224e-22)
(0.987698 -0.0774252 2.34344e-21)
(1.00001 -5.76651e-06 7.95181e-27)
(1.05224 -0.0125412 2.23722e-21)
(0.989656 -0.0689502 -6.26005e-21)
(1.10288 0.0849322 4.17253e-21)
(1.09015 -0.0675896 -2.35841e-21)
(1.02994 0.00215741 3.88316e-22)
(1.02432 -0.0997844 -5.42626e-21)
(1.02947 0.104005 4.30757e-21)
(1.03128 -0.0327444 -8.94412e-23)
(0.972432 -0.00687845 -1.476e-21)
(1.01275 -0.0438116 -1.57253e-21)
(0.989171 0.00195853 9.24175e-21)
(1.1516 -0.0961255 1.06959e-21)
(0.989566 -0.00338293 -2.25596e-22)
(1.02608 -0.12667 -4.12657e-22)
(1.02412 -0.0632703 2.05818e-21)
(1.04157 -0.115905 -7.14474e-22)
(1.03948 -0.0780662 -2.29934e-21)
(1.06958 0.060382 8.51754e-21)
(0.997834 -0.00121646 4.90825e-24)
(1.00638 0.0352465 3.14941e-21)
(1.00618 -0.00132676 1.55838e-22)
(0.999696 -0.000413033 -2.25011e-23)
(0.999016 -0.00185809 2.0532e-22)
(1.05153 0.00125657 -5.94632e-22)
(0.986569 0.000209397 2.68321e-22)
(1.00113 -0.00566633 -1.93783e-23)
(1.01597 -0.0493845 4.17725e-22)
(1.0198 0.0201451 -4.83738e-21)
(1.00002 -5.58752e-06 -6.20011e-26)
(0.982253 -0.00663012 1.05461e-21)
(1.01871 -0.00850574 1.20306e-21)
(1.06883 -0.0378011 -3.31287e-22)
(1.00627 -0.000721171 8.85762e-22)
(0.99872 -0.00161801 3.40709e-23)
(0.984163 -0.0355122 1.90856e-23)
(0.99797 -0.00723755 -1.02119e-22)
(1.00002 -4.33203e-06 6.563e-25)
(0.977996 -0.0420052 -4.57173e-21)
(1.04056 0.0729588 -2.3632e-21)
(1.01707 -0.0286968 2.21557e-22)
(0.98646 -0.00329408 -7.47689e-22)
(1.00136 -0.000345097 -3.20389e-23)
(1.02233 0.0218857 6.37089e-21)
(0.999695 -0.00050195 -1.05494e-23)
(0.999051 -0.000474367 -3.98489e-24)
(0.999736 -0.000120438 -1.17743e-23)
(0.999365 -0.0017557 -5.91577e-23)
(1.15357 0.0523072 2.09523e-21)
(1.02515 -0.032927 -8.63969e-22)
(1.00647 -0.0166287 -6.98547e-23)
(0.98509 -0.00536287 -3.68784e-22)
(1.00003 -3.99769e-05 5.77103e-25)
(1.07381 -0.123042 5.64065e-21)
(1.19363 -0.0139116 8.52133e-23)
(1.08023 -0.133054 -2.69311e-21)
(0.996469 -0.0304219 -7.1971e-22)
(1.01126 -0.00815668 1.01564e-21)
(0.999845 -6.89042e-05 4.83297e-24)
(0.990191 -0.0095994 -5.32763e-22)
(0.959419 -0.04131 -2.45763e-21)
(1.15195 0.0353952 3.77786e-22)
(1.00156 0.0472041 -2.14322e-22)
(0.999004 -0.00267002 5.02616e-23)
(0.947864 -0.0254426 1.2174e-21)
(0.996231 -0.00211237 -2.95471e-22)
(1.02937 -0.030169 1.78461e-22)
(1.08127 0.0581325 8.89315e-22)
(1.00032 -0.000110737 -2.00231e-23)
(0.99988 -0.000164335 -2.67441e-24)
(1.12923 0.0959926 8.59228e-22)
(1.14719 0.0173194 4.93339e-23)
(1.01517 -0.0138281 3.4568e-22)
(0.997679 -0.00133079 1.47251e-22)
(0.998463 -0.00026559 -1.23756e-23)
(0.966213 -0.0428358 6.1267e-22)
(0.999863 -0.000277528 -9.6933e-24)
(1.01502 -0.0302812 -5.72706e-22)
(0.992603 -0.00048165 1.29847e-21)
(1.00039 0.0132949 -3.75754e-21)
(1.04382 0.0780306 -1.22937e-21)
(1.06094 -0.0663033 1.06095e-21)
(0.993703 -0.0695855 2.29158e-21)
(1.00506 -0.00129285 4.26193e-22)
(1.01216 -0.0223875 5.2611e-23)
(1.13928 0.00122579 3.90176e-22)
(0.992964 -0.078048 -1.43312e-21)
(1.01563 -0.0421818 9.12675e-22)
(0.999999 -5.37227e-06 4.18315e-26)
(1.12661 -0.0133766 -3.92399e-22)
(0.986309 -0.000874162 1.26851e-22)
(0.991718 -0.0874077 2.88466e-21)
(1.01659 -0.0263418 2.77396e-22)
(0.962208 -0.00980083 -3.28405e-22)
(0.999698 -0.000224394 -6.68505e-24)
(0.99767 -0.000947739 -6.37392e-23)
(1.03345 0.0351499 8.0921e-21)
(0.974633 -0.00732083 -5.40254e-22)
(0.999989 -1.20315e-06 1.49083e-25)
(0.997931 -0.000292379 -1.30194e-22)