/*--------------------------------*- C++ -*----------------------------------*\
  =========                 |
  \\      /  F ield         | OpenFOAM: The Open Source CFD Toolbox
   \\    /   O peration     | Website:  https://openfoam.org
    \\  /    A nd           | Version:  7
     \\/     M anipulation  |
\*---------------------------------------------------------------------------*/
FoamFile
{
    version     2.0;
    format      ascii;
    class       volVectorField;
    location    "22";
    object      U;
}
// * * * * * * * * * * * * * * * * * * * * * * * * * * * * * * * * * * * * * //

dimensions      [0 1 -1 0 0 0 0];

internalField   nonuniform List<vector> 
117990
(
(1.03056 -0.0856533 -6.99963e-19)
(0.998643 8.23606e-06 -3.61441e-21)
(0.774959 0.0293532 -2.14704e-19)
(0.877716 -0.072291 5.10695e-20)
(1.09106 -0.055436 6.47063e-20)
(0.928994 -0.0962416 -2.19996e-21)
(0.742206 0.0645488 -1.89576e-18)
(1.16 -0.126776 -1.60168e-19)
(0.968369 -0.0421988 -9.06921e-22)
(0.998563 9.32445e-05 7.64253e-22)
(0.973045 -0.00263223 1.15603e-20)
(1.01684 -0.0139299 6.45437e-21)
(0.995302 -0.0847595 7.07817e-20)
(0.269159 -0.0286365 1.65756e-18)
(0.968135 -0.0432099 8.91276e-21)
(0.431182 -0.144513 3.69394e-18)
(0.986246 -0.034614 2.87192e-21)
(0.961473 -0.0238467 -1.47534e-20)
(1.00525 -0.160922 1.93906e-18)
(1.0912 -0.0537586 2.31688e-19)
(1.16335 -0.10783 -1.54312e-18)
(0.618412 -0.00856468 -2.57054e-20)
(0.955944 -0.0312707 -1.31709e-20)
(0.850088 -0.0551463 2.84318e-20)
(1.3102 -0.0312886 1.42953e-18)
(0.915036 0.318375 2.08822e-18)
(0.188989 0.304683 -3.5348e-19)
(1.21383 0.000810394 1.23712e-18)
(0.998009 -0.00601677 4.00867e-21)
(1.08575 0.322164 -1.84133e-18)
(0.98489 -0.00552342 9.48922e-21)
(1.11268 0.144396 4.71576e-19)
(1.12895 -0.026513 -8.95577e-20)
(0.661801 0.00152607 1.16738e-19)
(1.33731 -0.0117423 6.19364e-19)
(0.843865 -0.0800332 1.02631e-19)
(0.774801 0.205195 3.18744e-19)
(0.986285 -0.0353428 -1.41762e-21)
(0.353234 1.74617 3.77599e-20)
(0.853623 0.085104 4.23386e-18)
(1.11638 0.1437 -9.17154e-19)
(0.960967 -0.0246472 -2.75657e-21)
(0.794029 0.0344924 4.87916e-19)
(0.842957 -0.0783419 -7.18563e-20)
(0.951951 -0.190878 5.90116e-20)
(0.272896 -0.0275135 -1.72596e-18)
(1.08319 -0.0131314 8.53975e-19)
(1.19235 -0.00949461 2.09138e-19)
(1.05141 -0.0610809 9.08535e-20)
(1.0167 -0.00146314 -2.95352e-20)
(1.00068 -4.79724e-05 3.70336e-24)
(0.721634 -0.00955789 9.74147e-20)
(1.10092 0.0954028 1.42835e-18)
(0.998901 -4.19118e-06 -5.8553e-22)
(0.99812 -0.0565315 -3.21859e-19)
(1.09916 0.0947662 -3.56039e-19)
(1.15839 0.0140239 1.16353e-18)
(0.804682 -0.212619 3.42922e-19)
(0.173634 0.336001 1.09781e-18)
(0.836156 0.0175872 -6.4e-19)
(0.991595 -0.0208996 -3.0839e-21)
(0.849975 -0.0486475 -2.67811e-20)
(0.921584 -0.00415704 -2.39803e-20)
(0.703456 0.0524698 -5.65602e-20)
(0.992782 -0.00581139 -1.0407e-20)
(1.09046 -0.00223951 -1.79625e-20)
(1.00267 -0.0793878 -3.76037e-19)
(1.15633 0.0697551 1.21043e-18)
(0.398956 0.262174 8.43391e-19)
(1.17361 0.013833 5.06742e-19)
(0.753739 0.341232 1.08703e-18)
(0.239332 0.205731 -1.39653e-18)
(0.860834 0.0869133 1.90607e-18)
(0.583886 -0.0291498 3.98171e-19)
(1.02901 -0.117718 3.29361e-19)
(0.664533 0.00762689 1.31706e-19)
(0.721151 0.33797 -4.98994e-19)
(0.99249 -0.0869088 1.45454e-19)
(0.99126 -0.312753 -6.82308e-19)
(1.01486 0.222354 1.21409e-19)
(1.00804 0.232071 4.32857e-19)
(0.994443 -0.000146236 3.57599e-22)
(1.0902 -0.428029 -4.78097e-19)
(1.2375 -0.0018434 -5.58845e-19)
(0.733468 -0.0563265 5.16867e-20)
(1.01622 -0.0135336 6.35068e-21)
(0.758109 0.0544886 2.91213e-19)
(0.998777 -0.00214718 -4.65402e-22)
(0.656741 -0.0407026 2.25688e-21)
(0.998787 -0.00356922 1.97766e-21)
(0.0801049 0.895741 -6.51857e-21)
(0.716132 -0.0122802 -7.02146e-20)
(0.997686 -0.00589229 -5.09662e-21)
(0.873333 -0.0766458 7.90561e-20)
(0.952991 -0.0293649 -2.26706e-20)
(1.03805 -0.00528151 1.26201e-20)
(0.95912 -0.00184353 -5.18832e-21)
(1.0968 -0.425387 -3.97895e-20)
(0.839799 0.640864 -4.91197e-20)
(0.65456 -0.0380339 2.59193e-19)
(0.991441 -0.0213794 3.08951e-21)
(1.19185 0.0122253 -1.15161e-18)
(1.06876 -0.0339285 -6.71108e-19)
(1.14616 -0.00527251 -2.18662e-21)
(0.748861 0.339764 7.2681e-19)
(1.14338 -0.213092 -5.73293e-19)
(0.879754 -0.0126096 -1.17213e-18)
(1.03866 -0.270694 -4.15004e-19)
(0.913046 0.0471459 -1.54993e-19)
(0.998155 -0.00692218 -2.36817e-21)
(0.878492 0.270554 -9.91254e-19)
(0.959564 -0.00241779 2.07888e-21)
(0.700479 0.352934 3.13466e-19)
(0.953864 0.0397427 9.33646e-19)
(1.26301 0.100318 -2.12942e-19)
(1.02339 -0.0183082 1.2009e-18)
(0.972707 -0.00222059 -2.13456e-20)
(0.748566 0.333064 -1.42058e-18)
(1.00222 -0.00188133 2.50183e-22)
(0.235623 0.217051 9.62086e-19)
(0.748551 0.332897 2.0398e-18)
(0.428279 -0.146809 -1.47448e-18)
(0.786715 0.0309726 -1.94661e-19)
(0.366323 0.364301 7.66384e-19)
(0.998712 -0.000194328 -7.23895e-22)
(1.07654 0.32722 2.12728e-18)
(0.851735 -0.0493224 2.25206e-20)
(1.24126 0.269838 -6.91128e-19)
(0.838169 -0.00748925 1.8393e-21)
(1.22499 0.00206224 -1.04914e-18)
(1.05911 -0.118736 -8.03668e-20)
(1.0259 -0.00386754 9.94527e-21)
(0.711739 0.297068 -9.45015e-19)
(1.01625 -0.0128292 -1.93724e-20)
(1.00239 -0.00164205 1.18083e-22)
(1.01917 0.0367649 3.05687e-18)
(1.32036 -0.0746205 -3.95981e-19)
(1.12359 -0.0230166 -1.1397e-19)
(1.00152 -0.0563657 4.42556e-19)
(0.85199 -0.0517395 -2.40203e-19)
(0.742468 -0.0479505 7.69981e-19)
(1.0406 -0.0275705 6.09849e-19)
(1.006 -0.000399738 -8.02082e-21)
(1.08412 0.129802 1.7842e-19)
(1.05699 -0.11663 1.18006e-18)
(1.00052 -8.98143e-05 -3.29493e-24)
(1.11229 0.0147937 7.27257e-23)
(0.848784 -0.0440905 8.22307e-20)
(1.15947 0.0707269 -1.8683e-18)
(1.07488 -0.0653297 -2.25773e-19)
(1.1383 -0.211595 4.37778e-19)
(0.945014 -0.186539 -4.27931e-19)
(0.712347 -0.0128618 -4.37342e-20)
(0.998369 -0.000174102 3.24705e-22)
(0.724616 -0.00874674 5.74532e-20)
(1.14877 -0.0257218 5.42516e-19)
(0.998145 -0.00707551 3.01668e-21)
(1.03845 0.188719 1.49032e-18)
(0.640383 0.00605334 1.21579e-20)
(1.2773 -0.279643 2.26525e-19)
(0.663988 0.014798 -7.16905e-19)
(1.11343 0.0162376 6.44221e-19)
(0.92284 -0.00369249 -1.76981e-20)
(1.02018 -0.158678 -6.08992e-20)
(0.935579 0.0174124 3.47818e-19)
(0.91343 -0.0456773 -6.26196e-20)
(1.15649 -0.00134208 5.68199e-19)
(0.901571 0.0121279 5.40804e-20)
(1.01861 0.193783 -2.17922e-18)
(0.913458 0.0224624 -4.01592e-19)
(0.862555 0.0111476 -5.33616e-19)
(1.0893 -0.0186322 -4.82276e-19)
(0.0401629 0.959699 2.84199e-20)
(0.362725 -0.114672 2.57394e-18)
(0.970238 -0.136984 -5.15989e-20)
(1.17771 0.0439356 -5.29012e-20)
(0.360706 -0.111059 -5.68538e-19)
(0.912444 -0.0925939 -6.06171e-20)
(1.08114 0.00433323 1.78398e-18)
(1.05058 -0.0641018 1.48397e-19)
(1.15809 0.00389196 1.08837e-19)
(1.02415 -0.117914 3.77952e-19)
(1.09246 -0.106734 -8.44022e-19)
(1.08332 0.115838 7.7004e-19)
(0.884572 -0.0219992 2.75556e-18)
(0.966091 -0.073492 -3.026e-22)
(0.838363 -0.0632807 -2.44863e-20)
(1.0004 0.00661797 -8.01526e-19)
(1.10392 -0.025208 1.6532e-18)
(0.0968753 0.910073 4.2679e-20)
(0.916856 -0.0917707 -2.015e-20)
(1.04611 -0.0302775 -4.08897e-19)
(1.04642 -0.29699 -1.22141e-18)
(0.761953 0.00118728 -9.13632e-19)
(0.92649 0.316251 -2.76561e-18)
(1.17657 -0.29505 2.6552e-19)
(0.353564 -0.107475 1.6919e-19)
(0.53144 -0.000599056 -3.83183e-20)
(0.700095 -0.00743991 6.68815e-19)
(0.963721 -0.0385634 5.2264e-19)
(1.07293 0.0978384 1.00824e-18)
(0.866034 -0.240063 1.21994e-18)
(1.16924 0.0114955 3.23187e-19)
(0.998671 -0.00270732 -3.15787e-21)
(0.826315 -0.0651606 -2.60298e-21)
(0.687097 -0.0956443 4.69991e-19)
(0.936375 -0.0774702 -1.78848e-20)
(0.992923 -0.00584105 8.01541e-21)
(1.18354 0.0124824 -2.77977e-19)
(1.07171 -0.141634 -1.59851e-18)
(0.349668 -0.102887 -1.43722e-18)
(0.878356 0.00333039 -7.28976e-19)
(1.30691 -0.0353766 -1.05906e-18)
(0.99886 -0.00357373 2.59197e-22)
(0.933337 0.0266942 1.1655e-18)
(0.763176 -0.00319294 4.52118e-19)
(1.09647 0.132999 8.37234e-19)
(1.09312 -0.0236585 9.6718e-19)
(0.265298 -0.0216481 -9.99477e-19)
(0.984138 -0.0239247 1.5916e-21)
(0.946791 -0.121413 1.88021e-20)
(0.766144 0.0275384 -3.21014e-20)
(1.05118 -0.051729 -4.26553e-20)
(0.648126 0.00761243 -5.84022e-19)
(0.998897 -6.5591e-05 8.41506e-22)
(1.25888 -0.0771073 1.10864e-18)
(1.03641 0.0189047 -8.15838e-19)
(0.672168 -0.0133004 7.25651e-19)
(1.17525 -0.290965 1.5586e-19)
(1.21377 -0.148228 6.10022e-19)
(1.20211 0.0108747 -1.13029e-19)
(0.940552 -0.199055 -7.9598e-20)
(0.75611 0.000634732 -6.35988e-19)
(0.888305 -0.00149663 4.52348e-19)
(1.06597 -0.117164 -5.40617e-19)
(1.07193 0.0977819 1.51261e-18)
(1.04446 -0.00380985 1.43362e-20)
(1.06653 -0.038804 7.30878e-19)
(0.908849 -0.0121562 -1.64544e-19)
(0.71782 -0.0136813 -1.26477e-19)
(0.250676 0.76297 -5.40397e-19)
(1.00701 -0.0639569 1.11664e-20)
(1.28364 -0.278507 -2.92673e-19)
(0.856364 0.666728 3.48469e-19)
(0.83333 -0.0068017 -9.39199e-20)
(1.07018 -0.0613331 -4.4646e-20)
(1.12878 0.101752 1.34688e-18)
(0.657946 0.00406878 1.26693e-18)
(0.901448 0.0124638 1.94706e-20)
(0.605375 -0.18072 6.66387e-19)
(1.01025 -0.180674 -6.34595e-19)
(0.896635 -0.0963324 -3.03924e-21)
(1.11389 0.0146679 -5.12588e-18)
(1.03719 -0.0779627 2.38218e-20)
(1.25498 0.25322 -1.28618e-18)
(1.15798 0.00217059 -7.45433e-19)
(0.520506 0.3974 -1.16904e-18)
(1.2371 0.00306876 5.11109e-19)
(1.03007 -0.000668907 6.76514e-20)
(1.16986 -0.126045 -1.63657e-20)
(1.16278 0.0072346 -1.74235e-18)
(0.271008 -0.0165724 6.13643e-19)
(1.07982 0.122783 -1.10397e-18)
(0.614258 1.96871 -6.10286e-20)
(0.910388 0.0480409 -1.19308e-19)
(0.882476 -0.0737604 -1.61957e-19)
(0.376132 0.361327 1.22701e-18)
(0.840227 -0.018598 1.02024e-19)
(0.746067 0.319485 -5.79909e-19)
(0.723602 0.339624 1.11553e-19)
(0.993149 -0.00316325 -7.18726e-23)
(1.10775 -0.0236645 -4.03734e-19)
(1.05497 -0.0649025 3.84858e-19)
(1.00714 -0.064394 -6.25627e-19)
(0.98378 -0.0898877 2.76559e-19)
(0.751339 0.0516684 1.44585e-19)
(0.949499 -0.191648 -4.51708e-19)
(0.968684 -0.134701 -2.58473e-20)
(0.999649 -0.0278525 -4.86102e-19)
(1.04298 -0.26971 3.36837e-19)
(1.02092 -0.162811 1.59565e-19)
(0.835358 -0.00566565 -7.09814e-20)
(1.01488 -0.0802475 3.84524e-20)
(0.680842 -0.0867271 -2.46817e-19)
(0.996938 -0.0642663 1.68255e-20)
(1.16375 -0.00280278 1.22823e-18)
(1.25001 -0.0989128 6.45487e-19)
(1.13223 0.00796459 -2.64315e-18)
(1.11282 -0.43833 2.82076e-19)
(0.36131 1.6317 2.13087e-20)
(0.944133 -0.190809 -1.12798e-19)
(0.998958 -0.00259015 -2.38087e-21)
(0.165451 0.369927 7.27977e-19)
(0.884126 0.00815903 -7.10495e-19)
(0.988964 -0.0439298 -2.97897e-22)
(1.16732 0.0162016 -8.49623e-19)
(0.896913 -0.0889591 3.39569e-21)
(1.11888 0.140538 7.35809e-19)
(1.04623 -0.0732374 -2.9499e-19)
(0.694106 0.363679 2.8513e-19)
(0.326438 -0.0846818 7.71887e-19)
(0.950757 -0.130613 -1.67162e-19)
(0.121797 0.409921 -7.89605e-21)
(0.857726 -0.0295088 2.12703e-19)
(1.00231 -0.178779 6.08087e-20)
(1.1012 0.177476 4.28848e-19)
(1.00175 -0.0977365 -8.24423e-20)
(0.670819 -0.00679189 -5.02833e-19)
(1.91466 1.37249 -7.01434e-20)
(1.08454 0.00370233 6.72118e-21)
(0.831214 -0.0921521 -1.28831e-20)
(0.777714 0.248372 1.47984e-18)
(0.763445 0.135292 1.04012e-18)
(0.908122 -0.011055 4.96162e-19)
(0.983644 -0.0792758 -3.64711e-19)
(1.07384 -0.03571 1.83144e-19)
(1.04974 -0.295239 -1.91554e-18)
(1.06845 -0.060626 1.90331e-19)
(0.855319 -0.0590443 -1.25991e-19)
(0.175249 0.383157 -1.8467e-19)
(1.11231 0.0642801 2.92272e-19)
(0.984543 -0.0244023 -1.20746e-20)
(1.16715 0.00926475 -2.53623e-19)
(1.26733 0.0925368 3.84449e-19)
(1.05581 0.214777 -1.67445e-18)
(0.645992 0.0227102 1.21121e-18)
(1.14936 -0.0262353 -7.9757e-19)
(1.1212 0.121186 9.37254e-19)
(0.318379 -0.0796831 -1.50309e-18)
(0.160103 0.360184 -1.13951e-18)
(0.837109 -0.0924822 9.09876e-21)
(0.998897 -0.00269428 4.4936e-21)
(0.96953 -0.0766251 -5.72316e-21)
(0.899293 -0.0955721 1.80129e-21)
(1.30071 0.0174282 2.84554e-19)
(0.92054 -0.0709523 1.74302e-19)
(1.01014 0.197335 8.67029e-19)
(0.993858 -0.00325323 8.02077e-22)
(0.924518 -0.0959995 -2.69907e-22)
(0.833322 -0.0626623 3.44997e-20)
(0.795556 0.0246825 1.91179e-19)
(1.1054 0.158417 -3.16406e-18)
(0.208346 0.298131 1.39697e-19)
(0.699567 0.0498725 -5.26025e-19)
(0.838342 -0.0217768 -8.22483e-20)
(1.10176 -0.0573964 -7.01515e-20)
(0.995031 -0.0254391 3.0221e-19)
(1.24434 0.248507 -1.64496e-20)
(0.783252 -0.111338 -1.25806e-18)
(1.01459 -0.0362718 -1.5269e-19)
(0.715776 0.300241 4.99539e-19)
(1.02418 0.0935726 -1.21744e-18)
(1.16408 0.00556525 1.58832e-18)
(0.892011 -0.0839018 -8.98942e-20)
(0.962985 -0.0382035 5.80313e-20)
(1.01549 0.0282331 1.10514e-19)
(1.03126 -0.0824554 1.1133e-18)
(1.00058 -0.000237056 -1.46549e-24)
(0.959166 -0.096894 -1.04047e-19)
(1.08031 -0.0452276 -7.07332e-19)
(0.855299 0.384388 1.66982e-18)
(1.01717 -0.201132 -1.11745e-19)
(0.772116 0.185112 6.0538e-19)
(1.30902 0.0464234 -3.03714e-19)
(0.897232 0.247171 -1.13693e-18)
(1.00036 -0.00026581 -1.06104e-23)
(0.542162 0.000600968 1.54637e-19)
(0.817586 0.0426033 -2.91137e-19)
(1.05528 -0.0525603 -3.81509e-19)
(1.00025 -0.000361049 7.79155e-23)
(1.28853 0.0843706 2.83477e-19)
(0.385196 -0.0955147 -7.90891e-19)
(0.658323 0.00622384 1.24264e-18)
(0.942303 -0.00257928 -2.71245e-20)
(0.729018 0.309537 -8.80637e-19)
(1.11775 -0.045434 9.98629e-20)
(1.07024 -0.0344376 -3.74111e-19)
(1.01624 -0.000997135 2.62006e-20)
(0.908423 -0.10374 1.3495e-21)
(1.08595 -0.0494297 -1.04163e-19)
(0.936992 -0.199103 -6.10603e-19)
(0.915597 0.0404944 2.96621e-19)
(0.946693 0.0387009 1.29912e-18)
(1.07815 -0.0442586 -8.6017e-19)
(1.17508 -0.00688108 -6.56127e-19)
(0.988106 -0.00072197 -1.40108e-20)
(0.746858 0.0135381 1.33317e-18)
(0.55642 -0.182574 -1.52586e-19)
(1.09384 -0.0569183 -2.5009e-19)
(1.10201 -0.13328 2.36474e-19)
(1.11375 0.13338 -3.2573e-18)
(0.92578 0.104062 -2.49367e-18)
(0.755273 0.0541927 -2.16603e-19)
(1.20799 0.00496122 6.6389e-19)
(0.767876 0.0285619 -2.94541e-20)
(0.901143 -0.104053 6.46046e-20)
(1.92521 1.30197 4.20036e-20)
(1.05271 -0.0561208 1.98151e-19)
(1.05415 -0.0654939 -6.96968e-19)
(0.716701 0.0528847 -6.28627e-19)
(0.731869 -0.0564862 -3.22343e-19)
(0.913246 -0.0898595 -9.03717e-20)
(1.04415 0.213979 -5.22316e-19)
(0.869433 0.0996477 1.77472e-19)
(1.30574 1.84122 3.8199e-20)
(1.07093 0.0866188 -9.81188e-19)
(1.00238 -0.0017393 -2.53792e-22)
(0.960954 -0.0213461 -1.26526e-19)
(1.09447 0.0988457 3.56443e-19)
(0.578285 -0.00867245 5.89256e-20)
(0.94358 0.0441533 7.29909e-19)
(0.825312 -0.0909485 3.85112e-21)
(1.10622 -0.0554062 -1.95826e-19)
(0.894332 -0.0729629 1.30907e-19)
(0.72774 -0.0524988 -4.11045e-20)
(0.999928 -0.0322478 1.7197e-19)
(1.057 -0.0650712 4.221e-19)
(1.66006 -0.080246 -4.4038e-20)
(1.00429 -0.00267056 3.64351e-21)
(1.18478 -0.00802834 -1.10498e-19)
(0.998817 6.83316e-05 -6.1644e-23)
(0.34267 -0.0992914 1.96767e-18)
(1.02358 -0.0213126 1.76645e-20)
(0.943087 0.358131 1.298e-18)
(0.764555 0.145325 -5.50023e-19)
(0.990765 0.176743 -1.02266e-18)
(1.08632 0.0768148 6.72169e-19)
(0.953902 0.155334 -9.76781e-20)
(1.16251 0.0153076 1.66759e-18)
(0.955738 -0.077966 -3.77522e-20)
(1.10411 -0.0423901 -2.0144e-19)
(0.979002 -0.0565689 9.68244e-23)
(0.769811 -0.0671947 -1.01274e-21)
(0.67611 -0.00135414 -2.91087e-19)
(0.859462 -0.0351547 8.04158e-20)
(0.956534 -0.018245 -3.03535e-19)
(1.04088 -0.0843625 -4.17087e-19)
(1.02325 -0.0205845 -2.14094e-20)
(0.983147 -0.0091997 -3.52896e-21)
(1.01463 -0.0124706 -1.40111e-20)
(0.984615 -0.0872928 -1.36856e-19)
(1.22145 0.00267944 9.90162e-19)
(1.02979 -0.075418 8.85022e-19)
(0.709438 0.0562292 6.68929e-19)
(0.996658 -0.0626691 -3.47409e-20)
(1.23871 0.157755 -6.39444e-19)
(1.07015 -0.0624113 5.6516e-19)
(0.984805 -0.00921069 -1.4643e-20)
(0.929801 0.108069 3.57395e-18)
(1.17157 0.0401805 1.60884e-19)
(0.965365 -0.0907171 4.62902e-18)
(1.00466 -0.00354111 -3.61779e-21)
(1.00295 -0.0518675 0)
(1.10788 -0.0418431 3.00266e-19)
(0.903206 0.00673812 -2.78006e-19)
(0.889154 -0.0530812 8.38127e-20)
(1.29988 -0.15409 2.35005e-19)
(0.659257 0.00336658 -8.49844e-19)
(1.02273 0.28533 2.26116e-18)
(0.5449 -0.00426582 3.79669e-19)
(1.03493 0.209238 -2.75133e-19)
(1.07168 -0.0621348 -4.10957e-19)
(1.09329 -0.0563899 2.94943e-19)
(0.940826 -0.204517 -1.06179e-18)
(0.772756 0.251815 -6.17307e-19)
(1.17124 -0.105393 8.9242e-19)
(1.12014 -0.0432124 4.6029e-20)
(0.370844 -0.117902 -2.81398e-18)
(0.544774 -0.0062836 -2.18147e-19)
(1.0047 -0.00375112 1.53876e-21)
(1.17758 -0.00718461 1.32161e-19)
(0.572314 -0.182748 3.79092e-19)
(0.904225 -0.00783428 4.39158e-20)
(0.580562 -0.0302651 -7.08697e-19)
(1.03952 -0.088657 -1.5105e-19)
(1.06884 0.206851 2.7669e-18)
(0.998746 1.55702e-05 -1.84797e-22)
(1.1257 -0.039142 -9.06168e-20)
(1.18625 0.00941131 8.43206e-19)
(1.13047 0.0114419 -1.04989e-18)
(1.05989 0.379144 -6.05974e-19)
(0.999871 -0.00010213 1.6697e-24)
(0.993931 -0.00350855 2.70095e-22)
(1.12224 -0.00212922 -4.47594e-19)
(0.90248 -0.00452717 4.77008e-19)
(0.943555 -0.0773196 1.3922e-20)
(0.988655 -0.0470576 -6.44577e-21)
(0.998956 0.20808 -1.08324e-18)
(1.30923 -0.00312821 -1.33436e-18)
(0.677849 0.38067 -1.24676e-19)
(0.959028 -0.0507618 -1.26574e-18)
(0.602504 0.0272117 -1.48018e-19)
(1.01945 -0.163014 3.98126e-19)
(1.08791 0.0689409 1.6265e-18)
(0.901332 -0.0730029 -5.54543e-20)
(1.29484 0.0630786 -3.85016e-19)
(0.464001 -0.150153 -2.65759e-18)
(0.959124 0.0359393 -6.74811e-19)
(1.06652 -0.0392968 -3.92051e-19)
(0.962036 -0.0534354 -2.30786e-19)
(0.878408 -0.0771715 2.32291e-20)
(0.997007 -0.305908 -3.84233e-18)
(0.889117 0.00440408 6.90285e-19)
(0.880548 0.348946 7.11085e-19)
(1.00484 -0.106759 -5.99672e-19)
(0.99671 0.175801 5.68842e-19)
(0.683268 0.0594298 -2.40377e-19)
(0.801872 0.0229129 5.21022e-19)
(0.219908 0.779366 -2.59496e-20)
(1.06792 0.0918543 1.61312e-18)
(0.902648 -0.0882751 1.1053e-19)
(1.03733 -0.0791363 4.6522e-19)
(1.0325 -0.0758836 -3.59914e-19)
(0.99827 -0.000323933 -5.17934e-21)
(1.02309 -0.0788198 -1.53521e-18)
(0.976664 -0.22166 4.77021e-19)
(1.01749 -0.0469302 -3.28757e-20)
(1.11293 0.0636181 -9.95977e-20)
(0.971768 -0.065166 9.9635e-22)
(0.971762 -0.0664899 -6.32874e-22)
(1.12938 -0.00649039 -3.40997e-20)
(1.00694 -0.101899 3.67956e-19)
(1.07027 -0.00696667 -7.88756e-20)
(1.08098 -0.0456189 5.46411e-21)
(0.621993 0.0321685 -4.36125e-19)
(0.908498 -0.0745134 -8.07634e-20)
(0.775809 -0.0659157 -6.4157e-21)
(1.02883 -0.306644 -4.85911e-18)
(1.01328 0.233116 1.71406e-18)
(1.11301 -0.0013809 8.4681e-19)
(0.862198 0.0112224 -4.10647e-19)
(0.936341 -0.166748 7.97759e-20)
(1.05587 -0.0642082 -2.50353e-19)
(1.00225 -0.0034525 -4.88185e-22)
(0.999896 -0.000323373 5.14851e-23)
(0.620086 -0.048925 -1.38933e-19)
(0.46166 -0.149914 2.70947e-18)
(0.812447 -0.0895821 2.11043e-20)
(1.00218 -0.00330054 -1.29144e-21)
(0.668047 0.00272146 -2.21684e-19)
(1.10942 0.158309 2.92462e-18)
(0.435034 0.263569 -1.01284e-18)
(0.905085 0.259172 -7.96818e-19)
(0.994679 -0.000282864 -3.6311e-21)
(0.673546 0.00218084 -9.53951e-19)
(0.963636 -0.0196022 -8.67879e-19)
(1.01102 -0.00115231 -1.2911e-21)
(0.991629 -0.0251564 1.51794e-21)
(0.652687 -0.00503959 1.54989e-19)
(1.12089 -0.00154319 -1.49038e-19)
(1.07166 -0.0607653 -3.21471e-20)
(1.22244 -0.193399 1.28552e-19)
(1.04554 -0.00433016 -4.38617e-20)
(0.801414 -0.171132 -1.17653e-18)
(0.630852 0.0409772 4.41704e-19)
(0.603803 0.0281682 -2.51618e-19)
(0.705554 0.0492971 -8.64827e-20)
(1.08526 -0.0458996 -2.92727e-19)
(0.762099 -0.172801 -1.43995e-18)
(1.02418 -0.0454802 4.06841e-20)
(1.00225 -0.00149073 -9.26703e-23)
(1.13542 -0.0456426 2.51785e-19)
(0.840037 0.280042 -5.87053e-19)
(1.2063 -0.154086 3.06913e-18)
(0.966132 0.0593569 1.26805e-18)
(1.02952 -0.0779288 -2.86041e-19)
(0.840425 0.0118272 1.22183e-19)
(0.942007 0.0263365 6.3508e-18)
(1.16591 0.00395983 -2.19622e-18)
(1.01982 -0.0401832 -2.67895e-20)
(1.22381 0.00338635 -8.64745e-19)
(0.786328 0.0339145 -1.11889e-19)
(0.723361 0.320983 -1.10949e-18)
(0.963066 -0.0583657 -2.7862e-19)
(1.20488 0.0066858 -2.19272e-18)
(1.08945 -0.00357119 1.63699e-19)
(0.967627 0.0616618 8.73457e-19)
(1.05799 -0.00543854 -8.04931e-20)
(0.89866 -0.0467483 -5.50922e-20)
(0.69167 0.0548494 6.55979e-20)
(0.884171 0.0293478 7.43049e-19)
(1.029 -0.00132117 -6.00561e-20)
(0.911908 -0.016577 -6.45412e-19)
(1.28976 -0.153163 -4.63721e-19)
(1.01781 0.286857 -1.78158e-18)
(0.920258 -0.0715399 5.00937e-19)
(0.88375 -0.0545267 -1.24726e-19)
(0.758953 0.56498 -2.15798e-19)
(1.00678 -0.000190618 -3.42403e-21)
(1.25897 1.81629 -1.64893e-20)
(0.902942 -0.0726175 -8.65939e-20)
(1.16825 0.0156588 -1.31723e-18)
(0.903074 0.00720353 -2.65762e-19)
(1.14482 -0.00418803 -4.77013e-19)
(0.384178 -0.0766631 -1.97164e-18)
(0.86247 0.0974765 -1.7561e-18)
(1.24091 -0.161032 1.43791e-18)
(0.954871 0.151373 2.86291e-19)
(0.73824 0.380336 9.68324e-19)
(0.744406 0.337629 -8.66944e-19)
(0.73746 -0.0652487 -1.73686e-20)
(1.16788 0.00352733 2.43239e-18)
(0.739804 0.279739 9.20039e-19)
(0.971043 -0.0934789 -3.5969e-18)
(1.06167 -0.0584733 -1.3997e-20)
(0.972586 -0.0932587 1.28773e-19)
(1.18052 -0.156539 -3.32132e-18)
(1.00294 -0.00232174 -4.96963e-22)
(0.572871 1.91696 7.60973e-20)
(0.429064 0.234863 -4.06294e-19)
(0.766518 0.0533134 -4.60267e-19)
(1.07972 -0.0652668 -2.61327e-20)
(1.13712 0.00756684 -3.54172e-19)
(0.896185 -0.0953604 -1.70943e-21)
(1.1052 -0.0417105 -6.0437e-21)
(0.978906 -0.17696 -8.84413e-19)
(1.33359 -0.0157337 1.11777e-18)
(0.984663 -0.000760988 -8.42625e-22)
(1.02542 -0.0452958 -4.0624e-20)
(1.10961 0.0733673 -3.41864e-19)
(1.0422 -0.0789684 3.1544e-20)
(0.134077 0.38587 2.29059e-20)
(0.770537 0.260598 -1.03752e-18)
(1.04115 0.220953 3.46878e-19)
(0.992052 -0.0253363 -4.06782e-21)
(1.01059 -0.171753 -1.18664e-19)
(0.956888 -0.138584 -8.96149e-19)
(1.06107 -0.00412001 5.38318e-20)
(1.01521 -0.0323652 7.85663e-19)
(1.13025 0.105754 7.26474e-19)
(1.32826 -0.0411426 -7.22451e-19)
(1.04034 -0.0782259 -1.17428e-19)
(0.999721 -0.000149532 2.37319e-23)
(0.745792 0.278457 6.9205e-19)
(1.0139 -0.0326333 1.3937e-18)
(0.984408 -0.000829588 -1.87538e-20)
(1.15404 -0.00545167 -2.22149e-19)
(1.11261 -0.0339896 -1.65858e-19)
(0.915145 -0.0718076 1.53267e-20)
(0.805381 -0.00441354 4.09846e-20)
(0.173705 1.56156 5.23788e-20)
(0.631332 0.0176868 -9.3523e-20)
(0.897858 -0.0977263 -1.35102e-21)
(0.734316 -0.0520718 -5.97933e-21)
(1.02671 -0.0440823 5.84188e-20)
(0.985989 -0.00971646 1.02551e-20)
(1.0299 -0.0228981 -6.76781e-19)
(0.564446 0.352622 -1.6713e-19)
(0.975172 -0.00706959 7.23603e-21)
(0.631066 0.0417869 5.25516e-19)
(1.07754 -0.0542396 2.36018e-20)
(0.917645 -0.0656355 2.36916e-19)
(0.879506 0.0246818 -9.82347e-19)
(0.98803 -0.0441849 2.42391e-21)
(1.27214 0.0419 -6.49507e-19)
(1.08973 -0.0154125 -6.50956e-19)
(1.03164 -0.187391 4.54784e-19)
(0.598111 0.348971 4.62187e-19)
(0.946213 -0.0271117 1.05412e-20)
(0.996613 -0.00873261 -2.65225e-21)
(0.956632 -0.0305201 -2.10582e-20)
(0.888439 -0.0526558 -2.29861e-21)
(1.09379 0.0171018 0)
(1.03284 -0.0427348 -4.69706e-19)
(0.543144 0.00116024 -3.5986e-20)
(1.00027 0.0204846 -2.93746e-18)
(0.496274 -0.163415 2.27338e-18)
(0.492244 -0.160523 -1.96856e-18)
(1.0876 -0.0468644 5.54995e-19)
(1.11085 0.0373081 1.57908e-18)
(1.02706 -0.275058 3.02875e-18)
(0.949471 -0.0316299 1.02498e-20)
(0.911609 -0.015679 -1.34397e-19)
(0.763584 0.0534778 4.38116e-19)
(1.02126 -0.0214631 2.50275e-20)
(1.01166 -0.0706684 3.66819e-19)
(1.07947 -0.0529017 -1.14483e-20)
(1.02228 -0.0718714 -8.14772e-19)
(1.02708 -0.251641 -8.29271e-20)
(1.31597 0.123198 -1.26702e-18)
(0.78089 -0.167595 1.14658e-18)
(0.900587 -0.0901024 -1.83691e-20)
(0.748412 0.055324 7.64761e-19)
(1.0234 0.0259245 -5.85134e-20)
(1.05356 0.200675 -1.85514e-18)
(1.17191 0.0144595 -2.95451e-19)
(0.973426 -0.0603116 -1.06395e-19)
(1.00139 -1.26003e-05 -5.94725e-23)
(0.959336 -0.0442402 1.57883e-18)
(0.704399 0.00148226 2.73363e-20)
(0.310894 -0.0740571 -1.39764e-18)
(1.02692 -0.0454528 -2.42922e-19)
(1.07628 -0.0481184 -2.72863e-18)
(0.981658 -0.150278 -6.8097e-19)
(1.13912 -0.0461858 1.0991e-19)
(0.105201 0.406564 -5.96445e-19)
(0.912856 -0.00321503 6.80072e-20)
(0.73396 0.0496091 1.92559e-18)
(0.989219 0.00776929 4.75633e-19)
(1.12864 0.110544 -3.52728e-19)
(0.593594 -0.0586609 -1.62611e-18)
(1.21834 0.00747018 1.66122e-19)
(0.998715 -0.00222392 -1.33911e-21)
(0.944224 -0.115989 4.65897e-20)
(0.627608 0.0362792 -4.97791e-19)
(0.89813 0.000967245 -6.38686e-19)
(1.15251 -0.00840214 -1.64256e-19)
(1.22914 -0.198039 1.233e-19)
(1.02733 -0.0440974 -6.66234e-20)
(1.51611 -0.409917 8.96762e-20)
(0.87636 -0.078179 -9.6042e-20)
(0.99806 -0.00802603 -1.11516e-21)
(1.03442 -0.0445437 5.22388e-19)
(1.02086 -0.046453 1.67485e-20)
(1.3332 -0.035532 9.91298e-19)
(1.02193 -0.0211049 -2.2061e-20)
(0.92844 0.353654 -4.12486e-19)
(0.750153 0.0479891 1.21435e-19)
(1.22886 0.00201272 -3.15796e-19)
(1.13594 -0.0382553 -4.62203e-19)
(1.07399 0.228339 2.67361e-18)
(1.11377 -0.0441582 -5.75766e-19)
(1.0211 0.0914298 -1.04586e-18)
(1.00008 -0.000447543 3.58669e-23)
(1.02247 -0.118317 5.17134e-19)
(1.01552 -0.0756903 -1.718e-19)
(1.08946 -0.056888 5.03685e-20)
(0.710115 0.00315922 1.94892e-19)
(1.00258 -0.00192783 1.11815e-21)
(0.166944 0.403462 -5.91137e-19)
(1.23509 0.317425 2.97472e-19)
(0.397288 0.228305 9.11016e-19)
(1.01988 -0.0391772 5.19778e-20)
(1.12184 0.466918 1.73175e-19)
(1.09487 0.018764 -4.04138e-19)
(1.07623 -0.101168 2.06663e-18)
(1.03559 -0.0695279 7.8568e-20)
(0.970537 -0.000304029 -5.66038e-21)
(1.10635 0.0696775 -3.99547e-19)
(1.01761 -0.0155523 -1.43442e-20)
(1.22517 -0.128333 -6.75458e-19)
(0.963622 -0.0177176 -9.20126e-20)
(0.395866 -0.130274 -1.62578e-20)
(0.85954 0.381726 -2.22218e-18)
(1.01686 -0.0145183 1.13734e-20)
(1.10936 -0.429542 2.70603e-19)
(0.993188 0.0640367 -2.09708e-18)
(0.985988 -0.00926332 5.0269e-22)
(1.09594 0.137931 2.27497e-18)
(1.026 -0.0792252 2.06001e-18)
(0.803329 -0.00721019 3.30509e-20)
(1.06446 -0.0318914 4.70893e-19)
(1.04185 -0.00542822 3.19587e-20)
(1.08995 -0.0195942 -5.75339e-19)
(0.697536 0.0538031 -3.08068e-20)
(0.596885 -0.00449158 4.12312e-20)
(0.877904 0.348043 -9.79339e-19)
(0.961718 0.0324533 -4.65114e-19)
(1.26114 0.210908 2.02395e-18)
(1.22521 0.0183358 1.70871e-18)
(0.763758 -0.00634842 -9.45449e-20)
(1.00258 -0.0412138 -2.71407e-21)
(0.870698 0.344502 -3.98742e-19)
(0.903852 -0.0723717 -5.40546e-20)
(0.601017 0.0138889 -4.4477e-20)
(1.02245 -0.046637 -9.38668e-21)
(1.01501 0.247163 8.65674e-20)
(0.597989 -0.0571017 2.31605e-18)
(1.34126 0.0436628 1.66092e-18)
(1.00201 -0.0851872 2.33261e-19)
(1.00315 -0.0915184 -4.68373e-20)
(0.71192 0.00299771 -9.56681e-20)
(0.400099 0.291373 -6.49805e-19)
(1.01174 -0.1694 -2.38213e-20)
(0.988046 0.203249 -3.41031e-19)
(1.12836 -0.0193592 -1.09389e-18)
(1.0941 0.0729409 -1.36535e-18)
(0.978951 -0.0128716 -4.83619e-21)
(0.116875 0.616259 2.41633e-19)
(1.00192 -0.00317739 -6.68738e-22)
(1.10003 -0.039379 3.78418e-19)
(0.998667 -2.9347e-05 3.95238e-22)
(1.25269 1.72584 -7.96432e-20)
(1.17356 -0.0984193 -7.32887e-19)
(0.936875 0.10449 1.68557e-19)
(0.998211 -0.000398908 5.20673e-22)
(1.23701 -0.171443 -3.86579e-18)
(0.956819 -0.0125867 1.45925e-20)
(1.01357 -0.070679 3.68272e-19)
(0.938143 -0.029993 3.47692e-20)
(0.563005 -0.182927 -7.55924e-20)
(0.863521 0.00991188 6.73482e-19)
(1.02541 0.25383 1.35697e-18)
(0.985325 -0.00114916 2.559e-20)
(1.06686 -0.138463 5.07862e-19)
(1.01941 -0.0315425 1.41937e-19)
(0.844032 0.0127724 4.72228e-19)
(0.997662 -0.00865059 5.22194e-21)
(1.0001 -0.0922806 -4.98561e-20)
(0.975406 -0.00122649 2.79894e-21)
(0.995699 -0.188709 4.23579e-19)
(1.09824 -0.0584232 2.15554e-19)
(0.896499 -0.0539175 -2.62767e-21)
(0.665505 -0.0025986 -1.2924e-18)
(1.00923 -0.0224877 -1.51499e-22)
(1.02839 -0.0412859 5.43511e-20)
(1.0403 0.0202381 6.15981e-19)
(0.94705 -0.0273354 6.29557e-21)
(0.939501 0.033629 -2.82395e-18)
(1.13949 0.124136 2.59639e-18)
(0.330407 0.281826 -1.21121e-20)
(0.611136 0.00742889 1.17501e-19)
(1.13181 -0.197064 -4.43851e-19)
(0.998398 -0.000171226 -3.3134e-22)
(0.739279 0.592443 2.39458e-19)
(1.02405 -0.251283 3.09676e-19)
(1.03924 -0.0055244 4.69716e-20)
(0.818156 -0.0895276 2.68768e-19)
(0.99476 -0.0874647 1.69447e-19)
(0.696952 -0.112515 -3.98496e-19)
(1.5393 0.777964 2.91483e-20)
(1.05689 -0.00512724 -5.80175e-20)
(1.00971 -0.101032 -1.14811e-18)
(0.998074 -0.00820531 4.44691e-21)
(0.87504 -0.0603463 7.2196e-20)
(0.959164 -0.0131566 1.43188e-21)
(0.773917 0.248849 -1.3079e-19)
(0.642501 -0.0342059 -4.3568e-20)
(1.01365 -0.0266686 -3.95838e-22)
(0.981457 -0.00945234 8.43479e-21)
(1.1702 0.00737986 1.05442e-18)
(0.808849 -0.212373 -1.30877e-19)
(0.908736 -0.0724456 8.51534e-20)
(1.00845 -0.0902376 -1.1723e-19)
(0.885571 0.348291 -1.14011e-19)
(0.864489 -0.236771 7.69502e-19)
(1.09349 -0.0564852 1.38705e-19)
(0.320862 0.0830038 -3.03181e-20)
(1.30683 0.312219 -4.33688e-19)
(0.61207 -0.179634 -6.10033e-19)
(1.00338 -0.0407115 1.07326e-20)
(0.999142 -7.89032e-05 1.19714e-21)
(0.831874 0.284042 7.67509e-19)
(0.676206 -0.0846158 -1.47863e-19)
(1.00994 -0.0224522 -6.7313e-21)
(0.200033 0.284815 1.17096e-18)
(0.913348 -0.0442866 3.83935e-20)
(0.998904 -0.00059095 2.80918e-21)
(1.10848 0.160097 2.78052e-19)
(1.1149 -0.302359 1.07074e-19)
(0.783587 -0.169709 -1.52451e-18)
(0.536247 -0.179701 -2.80542e-19)
(0.899105 0.0270494 5.56424e-19)
(0.586429 -0.00734737 6.6315e-20)
(0.60532 0.0122427 3.69494e-19)
(1.06949 -0.0400205 -5.76137e-19)
(0.870477 0.3577 -1.00852e-18)
(0.977921 -0.0571978 1.24091e-21)
(0.959488 -0.137005 -1.67582e-19)
(1.1224 0.170389 1.94867e-19)
(0.98667 -0.0551708 4.62683e-21)
(1.30098 0.285423 5.9917e-19)
(1.00392 -0.0573407 1.12286e-18)
(1.02891 0.210524 -2.67524e-18)
(1.05357 -0.0261092 4.05451e-19)
(0.953258 0.00605516 -1.20559e-19)
(1.15952 0.391692 -1.05948e-18)
(1.18631 0.0132166 8.00413e-19)
(1.09946 -0.136957 -6.42746e-20)
(0.80285 0.0374569 -4.66596e-19)
(0.738774 0.320947 1.93611e-18)
(0.756148 0.306669 6.21155e-19)
(0.617879 -0.000813256 4.24047e-20)
(0.983876 -0.158664 -3.13976e-19)
(0.764545 0.264802 1.84258e-19)
(0.886118 -0.0269154 2.38004e-20)
(0.965115 -0.00150768 2.08756e-22)
(1.4357 -0.381999 4.70541e-19)
(0.836967 -0.0257454 1.64969e-19)
(0.845427 0.0116558 1.22529e-19)