/*--------------------------------*- C++ -*----------------------------------*\
  =========                 |
  \\      /  F ield         | OpenFOAM: The Open Source CFD Toolbox
   \\    /   O peration     | Website:  https://openfoam.org
    \\  /    A nd           | Version:  7
     \\/     M anipulation  |
\*---------------------------------------------------------------------------*/
FoamFile
{
    version     2.0;
    format      ascii;
    class       volVectorField;
    location    "16";
    object      U;
}
// * * * * * * * * * * * * * * * * * * * * * * * * * * * * * * * * * * * * * //

dimensions      [0 1 -1 0 0 0 0];

internalField   nonuniform List<vector> 
117990
(
(1.01752 -0.0383154 -5.87943e-19)
(0.999159 1.02635e-05 -2.91849e-21)
(0.865694 0.0203122 -1.93905e-19)
(0.92467 -0.0439737 4.3321e-20)
(1.05562 -0.0328249 5.51485e-20)
(0.956382 -0.0597983 8.94907e-22)
(0.83203 0.00416154 -1.44403e-18)
(1.11225 -0.0487433 -1.38286e-19)
(0.980475 -0.026035 -7.57007e-22)
(0.9991 7.50431e-05 6.16775e-22)
(0.983449 -0.00162249 9.77891e-21)
(1.01035 -0.0086153 5.26742e-21)
(0.998406 -0.0522058 5.93832e-20)
(0.544537 -0.0181084 1.47477e-18)
(0.980317 -0.0266699 7.46377e-21)
(0.65126 -0.0950682 3.319e-18)
(0.991542 -0.0213367 2.55459e-21)
(0.976259 -0.0146813 -1.24037e-20)
(1.01049 -0.137654 1.45228e-18)
(1.05569 -0.0314293 1.98872e-19)
(1.11293 -0.035098 -1.32092e-18)
(0.764114 -0.00382091 -2.19684e-20)
(0.972824 -0.0193135 -1.10349e-20)
(0.910183 -0.0328752 2.58378e-20)
(1.2315 -0.0326262 1.03371e-18)
(0.897925 0.194033 1.63224e-18)
(0.194919 0.198502 -2.0179e-19)
(1.12674 0.00159564 1.03271e-18)
(0.998818 -0.00369996 3.42822e-21)
(1.06238 0.116504 -1.33663e-18)
(0.990666 -0.00340521 8.03818e-21)
(1.05254 0.0883019 3.79154e-19)
(1.07807 -0.013833 -7.52542e-20)
(0.794205 0.00111037 1.04189e-19)
(1.25396 -0.0358463 4.32365e-19)
(0.90376 -0.0490978 8.72215e-20)
(0.854728 0.0885119 2.42448e-19)
(0.991575 -0.0217804 -1.2547e-21)
(0.543614 1.37444 2.40028e-20)
(0.896743 0.0313418 3.29683e-18)
(1.05479 0.0875606 -7.36929e-19)
(0.975939 -0.0151763 -2.31337e-21)
(0.876893 0.02564 4.38438e-19)
(0.90321 -0.0480428 -6.13028e-20)
(0.986001 -0.116451 5.52352e-20)
(0.546439 -0.0179831 -1.53609e-18)
(1.05031 -0.00417954 7.18761e-19)
(1.11688 -0.00558002 1.75946e-19)
(1.0314 -0.0358205 7.82524e-20)
(1.01029 -0.000892764 -2.40153e-20)
(1.00039 -3.01229e-05 5.58192e-24)
(0.828113 -0.00594458 7.92151e-20)
(1.04906 0.0563273 1.14682e-18)
(0.999336 -1.1686e-07 -4.72724e-22)
(0.999803 -0.0327099 -2.79615e-19)
(1.04813 0.0554784 -2.84996e-19)
(1.0874 0.00868248 9.40504e-19)
(0.88685 -0.138739 3.07031e-19)
(0.31402 0.219796 7.67089e-19)
(0.902383 0.0131341 -5.5682e-19)
(0.994814 -0.0128854 -2.72735e-21)
(0.909774 -0.0280246 -2.3868e-20)
(0.951687 -0.00257877 -1.99419e-20)
(0.82267 0.0348954 -5.09213e-20)
(0.995571 -0.00358861 -8.78793e-21)
(1.05545 -0.000758124 -1.50021e-20)
(1.00268 -0.0475837 -3.17218e-19)
(1.08434 0.0456321 9.87454e-19)
(0.308003 0.0873075 4.93442e-19)
(1.09719 0.00830904 4.10472e-19)
(0.81792 0.162428 8.39692e-19)
(0.361065 0.0720279 -1.01323e-18)
(0.902113 0.0324194 1.48453e-18)
(0.751624 -0.0183626 3.57366e-19)
(1.02551 -0.05886 2.85629e-19)
(0.799263 0.00715121 1.09352e-19)
(0.768567 0.255873 -3.81212e-19)
(0.99656 -0.0528068 1.19986e-19)
(0.996788 -0.222772 -5.19821e-19)
(0.967103 0.155047 9.75063e-20)
(0.961825 0.161339 3.45117e-19)
(0.996559 -6.41128e-05 2.99182e-22)
(1.09517 -0.269521 -4.57992e-19)
(1.14135 -0.000952604 -4.66357e-19)
(0.835356 -0.0349343 4.35942e-20)
(1.00997 -0.00837037 5.17666e-21)
(0.855561 0.0380327 2.64262e-19)
(0.999245 -0.00133622 -3.85441e-22)
(0.795469 -0.0265891 1.37624e-21)
(0.999233 -0.00220854 1.67315e-21)
(0.273385 0.78423 1.88654e-21)
(0.82764 -0.00634436 -6.5632e-20)
(0.998594 -0.00360817 -4.3526e-21)
(0.921793 -0.0473877 6.61489e-20)
(0.970993 -0.0181141 -1.89849e-20)
(1.02348 -0.00324321 1.02544e-20)
(0.974865 -0.00115702 -4.36936e-21)
(1.09979 -0.267382 -3.52375e-20)
(0.883131 0.486909 -3.67992e-20)
(0.793271 -0.0250287 2.17074e-19)
(0.994723 -0.0131873 2.76139e-21)
(1.11174 0.0103957 -9.55838e-19)
(1.04314 -0.0175514 -5.76761e-19)
(1.08969 -0.00342735 -1.89568e-21)
(0.815575 0.162675 5.60987e-19)
(1.11221 -0.120875 -4.88977e-19)
(0.916861 -0.0288494 -9.11847e-19)
(1.04573 -0.166352 -3.81405e-19)
(0.949893 0.0349986 -1.36768e-19)
(0.998879 -0.0042497 -2.06203e-21)
(0.871838 0.181339 -7.75313e-19)
(0.975127 -0.00151471 1.75149e-21)
(0.752611 0.266837 2.39531e-19)
(0.974123 0.0286911 8.16414e-19)
(1.24339 0.0409634 -1.40792e-19)
(1.01469 -0.00809823 1.03831e-18)
(0.983243 -0.00136727 -1.80521e-20)
(0.805554 0.152561 -1.09526e-18)
(1.00133 -0.00116336 1.91181e-22)
(0.357739 0.0831453 7.00274e-19)
(0.805567 0.151331 1.56986e-18)
(0.649399 -0.0961653 -1.33125e-18)
(0.873375 0.0216068 -1.75379e-19)
(0.491571 0.253583 5.60611e-19)
(0.999188 -0.000131465 -5.82993e-22)
(1.05611 0.121698 1.54359e-18)
(0.910723 -0.0285861 2.0926e-20)
(1.19701 0.108394 -4.5334e-19)
(0.900173 -0.00455584 1.49846e-21)
(1.1303 0.00150056 -8.59443e-19)
(1.03594 -0.0585814 -6.52449e-20)
(1.01597 -0.00240793 8.14585e-21)
(0.766027 0.119666 -7.12709e-19)
(1.00999 -0.00792903 -1.57942e-20)
(1.00145 -0.00102239 8.96191e-23)
(1.01894 -0.0128532 2.26355e-18)
(1.24084 -0.074466 -2.80114e-19)
(1.07462 -0.0113355 -9.57679e-20)
(1.00183 -0.0327129 3.84444e-19)
(0.911309 -0.0303359 -2.17872e-19)
(0.774192 -0.153768 4.81716e-19)
(1.02618 -0.014783 5.26646e-19)
(1.00368 -0.000233973 -6.36317e-21)
(1.03585 0.0745445 1.42877e-19)
(1.03235 -0.0583461 9.6058e-19)
(1.00026 -6.07551e-05 -5.33726e-24)
(1.06697 0.0125208 6.5577e-23)
(0.908761 -0.0251671 7.3539e-20)
(1.08692 0.046064 -1.52413e-18)
(1.04663 -0.0398751 -1.91021e-19)
(1.10832 -0.119316 3.73977e-19)
(0.980855 -0.113763 -3.97051e-19)
(0.82521 -0.00676406 -4.14326e-20)
(0.998908 -0.000118596 2.62214e-22)
(0.829975 -0.00540146 4.6721e-20)
(1.09025 -0.0138325 4.5479e-19)
(0.998866 -0.00434598 2.63231e-21)
(0.990802 0.145605 1.18925e-18)
(0.783885 0.00468547 9.48403e-21)
(1.21041 -0.155762 1.86983e-19)
(0.799296 0.0123853 -5.96247e-19)
(1.06754 0.0138315 5.43849e-19)
(0.952459 -0.00226733 -1.47278e-20)
(1.02473 -0.0905479 -5.28756e-20)
(0.965235 0.0130375 3.07972e-19)
(0.946632 -0.0281889 -5.15484e-20)
(1.08868 0.00351811 4.70104e-19)
(0.944466 0.0127968 4.77765e-20)
(0.975363 0.149544 -1.73609e-18)
(0.950986 0.015862 -3.54335e-19)
(0.918692 0.00774989 -4.5998e-19)
(1.05422 -0.00828991 -4.05913e-19)
(0.231974 0.865915 4.77779e-20)
(0.606949 -0.0751179 2.32466e-18)
(0.989397 -0.0809557 -4.45865e-20)
(1.09923 0.0293495 -4.32329e-20)
(0.606512 -0.073171 -5.13146e-19)
(0.946903 -0.0569889 -5.15479e-20)
(1.0487 0.00603598 1.50528e-18)
(1.03091 -0.0378448 1.28149e-19)
(1.09381 0.00502322 9.1529e-20)
(1.02114 -0.0594714 3.26045e-19)
(1.06905 -0.103727 -6.27992e-19)
(1.03703 0.0660067 6.14748e-19)
(0.919808 -0.0352803 2.14327e-18)
(0.979155 -0.0454045 -3.21733e-22)
(0.901356 -0.0375545 -2.24021e-20)
(1.00015 0.00246523 -6.39295e-19)
(1.05709 -0.00700065 1.37809e-18)
(0.293391 0.787009 -1.36666e-21)
(0.949816 -0.0561109 -1.71332e-20)
(1.02957 -0.0160585 -3.53036e-19)
(1.03833 -0.210377 -9.13999e-19)
(0.858958 0.00425596 -8.2548e-19)
(0.906275 0.192466 -2.16108e-18)
(1.14129 -0.174616 2.2548e-19)
(0.601151 -0.0701905 1.5284e-19)
(0.70881 -0.000532207 -5.86106e-20)
(0.819088 -0.00131551 6.02635e-19)
(0.981278 -0.0140862 4.52321e-19)
(1.03388 0.056295 8.05327e-19)
(0.911865 -0.178227 9.33347e-19)
(1.1001 0.0101898 2.71301e-19)
(0.999202 -0.00161475 -2.64063e-21)
(0.894891 -0.0390588 -2.47457e-21)
(0.812813 -0.059842 4.01262e-19)
(0.960776 -0.0478627 -1.54443e-20)
(0.995647 -0.00360562 6.76868e-21)
(1.10471 0.00990383 -2.28311e-19)
(1.05736 -0.0725902 -1.39685e-18)
(0.599401 -0.0680125 -1.29401e-18)
(0.915652 -0.020254 -5.67404e-19)
(1.23003 -0.0332102 -7.66358e-19)
(0.999282 -0.00220843 2.19218e-22)
(0.960089 0.0216929 1.00185e-18)
(0.859912 0.00115327 4.10199e-19)
(1.0348 0.101886 6.81e-19)
(1.0559 -0.0118893 8.13114e-19)
(0.541916 -0.0146042 -8.87991e-19)
(0.990226 -0.0147925 1.37027e-21)
(0.975872 -0.0749315 1.67692e-20)
(0.859915 0.0209256 -2.89574e-20)
(1.03208 -0.0292783 -3.68895e-20)
(0.789593 0.0061051 -4.97018e-19)
(0.999335 -4.48093e-05 6.79293e-22)
(1.19393 -0.082573 8.11112e-19)
(1.02245 0.0162156 -6.8822e-19)
(0.802006 -0.00572844 6.49493e-19)
(1.14018 -0.172299 1.30248e-19)
(1.16026 -0.105357 4.47441e-19)
(1.11795 0.00864606 -9.38318e-20)
(0.978173 -0.128463 -7.20451e-20)
(0.784163 -0.117006 -4.04149e-19)
(0.936065 0.00376705 3.9504e-19)
(1.03987 -0.0565596 -4.37888e-19)
(1.03328 0.0563671 1.20728e-18)
(1.02741 -0.00228786 1.14876e-20)
(1.0415 -0.0210307 6.28638e-19)
(0.950198 -0.00245028 -1.43677e-19)
(0.825817 -0.00848288 -1.02986e-19)
(0.430021 0.627711 -3.41559e-19)
(1.00534 -0.0296065 8.9867e-21)
(1.21515 -0.154616 -2.39088e-19)
(0.896556 0.505512 2.6755e-19)
(0.897174 -0.00420022 -7.6544e-20)
(1.04341 -0.0365812 -3.79703e-20)
(1.06336 0.0634978 1.09524e-18)
(0.797165 0.00392972 1.10158e-18)
(0.944154 0.0130095 1.73467e-20)
(0.762995 -0.114795 5.92984e-19)
(1.00909 -0.151993 -4.73128e-19)
(0.935961 -0.0602723 -2.99767e-21)
(1.06151 0.00830692 -4.13065e-18)
(1.02302 -0.0476763 1.9731e-20)
(1.20599 0.102544 -8.74427e-19)
(1.09337 0.00372503 -6.27869e-19)
(0.621803 0.302324 -8.76775e-19)
(1.14082 0.00224561 4.26377e-19)
(1.01859 -0.000424187 5.53824e-20)
(1.11937 -0.0472101 -1.43621e-20)
(1.09661 0.00714994 -1.46667e-18)
(0.54491 -0.00992683 5.45243e-19)
(1.03423 0.0705483 -8.82196e-19)
(0.74886 1.4846 -4.40054e-20)
(0.948151 0.0356676 -1.05524e-19)
(0.927784 -0.045225 -1.37685e-19)
(0.499592 0.250697 9.03876e-19)
(0.901426 -0.0115125 8.32752e-20)
(0.782381 0.230353 -4.49619e-19)
(0.777192 0.263496 8.41857e-20)
(0.995791 -0.00196627 -6.20944e-23)
(1.05958 -0.00598443 -3.35984e-19)
(1.03395 -0.0386364 3.3187e-19)
(1.0058 -0.0293438 -5.23577e-19)
(0.990519 -0.0558821 2.29535e-19)
(0.852054 0.0360927 1.31353e-19)
(0.983322 -0.120873 -4.21088e-19)
(0.988072 -0.0795913 -2.23119e-20)
(1.00124 -0.0141756 -4.22863e-19)
(1.04766 -0.164898 3.07242e-19)
(1.02471 -0.0936486 1.39603e-19)
(0.898416 -0.00346667 -5.79328e-20)
(1.00876 -0.0494626 3.03432e-20)
(0.808395 -0.0539955 -2.11216e-19)
(0.998013 -0.0396009 1.30444e-20)
(1.09709 0.000264831 1.0335e-18)
(1.18624 -0.0968691 4.73583e-19)
(1.07206 0.00488141 -2.13268e-18)
(1.11046 -0.276948 2.65777e-19)
(0.550792 1.28175 1.58588e-20)
(0.981512 -0.119809 -1.03029e-19)
(0.999371 -0.00159408 -1.98928e-21)
(0.307689 0.261717 5.06612e-19)
(0.919942 -0.0168874 -5.53262e-19)
(0.993188 -0.0271427 -2.12272e-22)
(1.09796 0.0132196 -7.11038e-19)
(0.935265 -0.0538181 -4.02837e-21)
(1.05618 0.0861033 5.91761e-19)
(1.02808 -0.0444449 -2.50059e-19)
(0.754663 0.282717 2.15573e-19)
(0.583852 -0.0559757 6.93659e-19)
(0.976743 -0.0761331 -1.47849e-19)
(0.0806596 0.472175 -1.48445e-20)
(0.912985 -0.0144874 1.82391e-19)
(1.01634 -0.110795 5.61222e-20)
(1.02973 0.122749 3.43054e-19)
(1.00122 -0.0471471 -7.07738e-20)
(0.801132 -0.00155577 -4.49046e-19)
(1.67181 0.973117 -1.1808e-21)
(1.05062 0.00566569 5.67716e-21)
(0.896859 -0.0574461 -1.56264e-20)
(0.814594 0.0736773 1.10738e-18)
(0.795128 -0.0159275 7.2512e-19)
(0.949332 -0.00168058 4.35076e-19)
(0.990213 -0.0480462 -3.06098e-19)
(1.04627 -0.0187043 1.57291e-19)
(1.04098 -0.207028 -1.4321e-18)
(1.04213 -0.03615 1.62458e-19)
(0.9131 -0.0352775 -1.14153e-19)
(0.320544 0.283411 -1.27996e-19)
(1.05505 0.0641326 2.37313e-19)
(0.990472 -0.0150761 -1.03902e-20)
(1.09885 0.00878912 -2.12992e-19)
(1.24592 0.0357104 2.53963e-19)
(0.995664 0.140591 -1.33077e-18)
(0.787432 0.0166221 1.02097e-18)
(1.09061 -0.0145254 -6.68712e-19)
(1.05789 0.073738 7.57799e-19)
(0.57869 -0.0518256 -1.35073e-18)
(0.301757 0.250983 -7.95466e-19)
(0.900668 -0.0574777 1.10512e-20)
(0.999329 -0.0016559 3.75221e-21)
(0.98129 -0.0473371 -3.02406e-21)
(0.936938 -0.0589171 1.17236e-20)
(1.25017 0.0050197 1.91039e-19)
(0.953359 -0.0420378 1.51543e-19)
(0.968233 0.147536 6.91459e-19)
(0.996266 -0.0020449 6.72525e-22)
(0.953364 -0.0596633 -5.31552e-22)
(0.898367 -0.037097 3.13944e-20)
(0.877193 0.0180693 1.71139e-19)
(1.03864 0.104884 -2.567e-18)
(0.198838 0.194658 7.96741e-20)
(0.820339 0.033037 -4.62807e-19)
(0.90286 -0.0119144 -7.20775e-20)
(1.06288 -0.0348068 -5.92514e-20)
(0.998092 -0.0126868 2.62939e-19)
(1.20346 0.0964489 -1.05744e-20)
(0.874723 -0.0678655 -1.14014e-18)
(1.0105 -0.0199044 -1.33096e-19)
(0.769547 0.122632 3.75395e-19)
(1.0056 0.0501711 -9.65577e-19)
(1.09752 0.00588382 1.33704e-18)
(0.933756 -0.0511137 -7.74531e-20)
(0.980969 -0.0137937 4.96444e-20)
(1.0092 0.022939 9.35386e-20)
(1.01819 -0.0366556 9.35197e-19)
(1.00037 -0.0001542 -1.40256e-24)
(0.974639 -0.0601407 -6.99415e-20)
(1.04434 -0.0146755 -5.91408e-19)
(0.869796 0.220113 1.30828e-18)
(1.02818 -0.125431 -9.55228e-20)
(0.85291 0.0776067 4.60969e-19)
(1.26209 0.0174328 -2.00564e-19)
(0.900502 0.190491 -8.78255e-19)
(1.0002 -0.00017684 -1.0131e-23)
(0.718261 0.000446732 1.10107e-19)
(0.891078 0.0304251 -2.55426e-19)
(1.03468 -0.0298626 -3.29353e-19)
(1.00016 -0.000230096 6.62448e-23)
(1.19438 0.102589 2.39913e-19)
(0.472951 -0.204583 -5.53017e-19)
(0.797479 0.00491931 1.07674e-18)
(0.964488 -0.00158366 -2.27153e-20)
(0.76736 0.216192 -6.78339e-19)
(1.07134 -0.025676 8.4947e-20)
(1.04398 -0.0179563 -3.21774e-19)
(1.00999 -0.000598748 2.13024e-20)
(0.943507 -0.0655208 -4.95504e-21)
(1.04603 -0.0183569 -8.63498e-20)
(0.976197 -0.128606 -5.47356e-19)
(0.950471 0.0308818 2.59979e-19)
(0.969745 0.0279487 1.14167e-18)
(1.04321 -0.013886 -7.19756e-19)
(1.10522 -0.00269272 -5.51935e-19)
(0.992732 -0.000450168 -1.18236e-20)
(0.778211 -0.107123 8.55302e-19)
(0.731931 -0.117029 -1.34857e-19)
(1.05755 -0.0340226 -2.13901e-19)
(1.07344 -0.059432 1.99392e-19)
(1.05314 0.0819118 -2.62408e-18)
(0.942501 0.0470529 -1.95459e-18)
(0.854179 0.0377397 -1.96969e-19)
(1.12265 0.00428117 5.54552e-19)
(0.86094 0.0212732 -2.65964e-20)
(0.939805 -0.0655114 4.27869e-20)
(1.67767 0.925386 -1.59722e-21)
(1.03359 -0.0350281 1.60713e-19)
(1.03347 -0.0389893 -6.01312e-19)
(0.830492 0.0353413 -5.69462e-19)
(0.839779 -0.0335321 -2.87825e-19)
(0.94849 -0.0541559 -6.74302e-20)
(1.01943 0.034605 -3.48456e-19)
(0.907362 0.0405814 1.38235e-19)
(1.24313 1.31053 2.2592e-20)
(1.02841 0.0881274 -7.85225e-19)
(1.00144 -0.00108177 -1.95122e-22)
(0.979875 -0.0109965 -1.09529e-19)
(1.03537 0.0785027 2.90463e-19)
(0.73857 -0.00591426 5.18566e-20)
(0.966429 0.0318512 6.33451e-19)
(0.892998 -0.0565881 4.42917e-21)
(1.06602 -0.0333319 -1.65794e-19)
(0.935458 -0.044567 1.1132e-19)
(0.831634 -0.0324922 -3.46036e-20)
(1.00136 -0.0173549 1.49822e-19)
(1.03531 -0.0387714 3.64085e-19)
(1.47149 0.00605627 -3.8573e-20)
(1.00261 -0.00166239 2.85937e-21)
(1.11184 -0.00336841 -9.27809e-20)
(0.999237 6.29346e-05 -4.95132e-23)
(0.594183 -0.0647017 1.77146e-18)
(1.01453 -0.0131148 1.44566e-20)
(0.96682 0.172067 9.76585e-19)
(0.796461 -0.00920965 -3.8613e-19)
(0.97862 0.0967835 -8.06909e-19)
(1.03997 0.0805842 5.38061e-19)
(0.958651 0.0824981 -7.69193e-20)
(1.08975 0.00926178 1.34876e-18)
(0.972519 -0.0462044 -3.12908e-20)
(1.06407 -0.0256679 -1.69917e-19)
(0.986982 -0.0348396 7.88647e-23)
(0.85919 -0.0422771 1.4656e-21)
(0.804547 0.00244314 -2.61436e-19)
(0.914072 -0.0188202 6.89221e-20)
(0.977316 -0.00875606 -2.62558e-19)
(1.02341 -0.0380162 -3.50702e-19)
(1.01432 -0.0126578 -1.75276e-20)
(0.989654 -0.00566423 -2.99278e-21)
(1.009 -0.00770076 -1.13927e-20)
(0.991237 -0.052829 -1.12926e-19)
(1.12803 0.00178956 8.11069e-19)
(1.01675 -0.0324919 7.45077e-19)
(0.825339 0.0379564 6.05371e-19)
(0.997832 -0.0386279 -2.70529e-20)
(1.15782 0.150369 -5.32163e-19)
(1.04354 -0.0375297 4.81291e-19)
(0.990646 -0.0056745 -1.24355e-20)
(0.944341 0.0499335 2.80279e-18)
(1.09443 0.0269401 1.31081e-19)
(0.972665 -0.0902894 3.5915e-18)
(1.00286 -0.00218222 -2.84035e-21)
(1.00179 -0.0320272 0)
(1.0666 -0.0250066 2.5303e-19)
(0.94536 0.00968761 -2.45928e-19)
(0.933133 -0.0310733 7.16763e-20)
(1.21696 -0.0628348 1.99672e-19)
(0.798174 0.00249694 -7.36424e-19)
(0.985926 0.165325 1.77154e-18)
(0.716549 -0.00277169 3.62403e-19)
(1.01174 0.0303088 -1.87203e-19)
(1.04448 -0.0372506 -3.49936e-19)
(1.05732 -0.0335766 2.52176e-19)
(0.958462 -0.161298 -8.1686e-19)
(0.811545 0.0764733 -4.6199e-19)
(1.11898 -0.0329343 7.64478e-19)
(1.07257 -0.0259652 3.89898e-20)
(0.612936 -0.077586 -2.54257e-18)
(0.716509 -0.00440335 -2.08181e-19)
(1.00288 -0.00230978 1.20741e-21)
(1.10703 -0.00285271 1.11158e-19)
(0.742065 -0.116911 3.35843e-19)
(0.946804 0.000667436 3.85167e-20)
(0.749108 -0.0198692 -6.26703e-19)
(1.02275 -0.0406348 -1.26771e-19)
(1.00517 0.136311 2.19815e-18)
(0.999168 1.98784e-05 -1.50432e-22)
(1.07643 -0.0230347 -7.68696e-20)
(1.10776 0.00873321 7.00374e-19)
(1.06956 0.0155126 -8.60438e-19)
(1.04601 0.178215 -4.67799e-19)
(0.999902 -5.92408e-05 1.16961e-24)
(0.996311 -0.00222117 2.26244e-22)
(1.07505 -0.000862799 -3.75039e-19)
(0.945606 0.00235161 4.17112e-19)
(0.965258 -0.0477568 1.21847e-20)
(0.993016 -0.0290801 -5.20402e-21)
(0.962391 0.160268 -8.5981e-19)
(1.2359 -0.00758581 -9.39213e-19)
(0.742306 0.294775 -9.38088e-20)
(0.969016 -0.0575446 -9.86029e-19)
(0.758664 0.0178862 -1.19843e-19)
(1.01695 -0.134951 2.95673e-19)
(1.04462 0.0393006 1.30202e-18)
(0.940433 -0.0445304 -4.72372e-20)
(1.20007 0.0870966 -3.261e-19)
(0.672112 -0.098892 -2.34603e-18)
(0.977241 0.0262267 -5.8961e-19)
(1.04152 -0.0213308 -3.37539e-19)
(0.978552 -0.0304246 -1.96536e-19)
(0.925017 -0.0477968 1.94852e-20)
(0.999393 -0.228127 -2.9187e-18)
(0.936892 0.00761462 6.03208e-19)
(0.919616 0.161967 5.37345e-19)
(1.00323 -0.0532804 -5.07968e-19)
(0.981883 0.0969336 4.48804e-19)
(0.808507 0.0402706 -2.12446e-19)
(0.881193 0.016958 4.63734e-19)
(0.402997 0.645304 -1.40817e-20)
(1.03182 0.052166 1.28631e-18)
(0.940907 -0.0540482 9.49637e-20)
(1.02343 -0.0485173 3.87504e-19)
(1.01971 -0.0457326 -3.00287e-19)
(0.998951 -0.00024023 -4.24286e-21)
(1.01321 -0.0355926 -1.29155e-18)
(1.00168 -0.13466 4.21254e-19)
(1.01068 -0.029033 -2.63851e-20)
(1.0527 0.0538216 -8.12984e-20)
(0.982587 -0.0401393 8.65781e-22)
(0.982594 -0.0409672 -1.17953e-21)
(1.0794 -0.00381737 -2.883e-20)
(1.00416 -0.0495999 3.10858e-19)
(1.0433 -0.00465665 -6.17605e-20)
(1.05003 -0.0251433 4.71218e-21)
(0.771522 0.0202078 -3.5895e-19)
(0.944877 -0.0450364 -6.94299e-20)
(0.862938 -0.0411593 -1.48153e-20)
(1.027 -0.219438 -3.65243e-18)
(0.992302 0.195392 1.32303e-18)
(1.06716 0.00187718 7.12941e-19)
(0.918425 0.00694413 -3.53872e-19)
(0.972948 -0.106919 7.25402e-20)
(1.03469 -0.0380894 -2.1587e-19)
(1.00139 -0.00212923 -3.457e-22)
(0.99993 -0.000207407 4.38284e-23)
(0.774109 -0.0294098 -1.23466e-19)
(0.669974 -0.0988943 2.39274e-18)
(0.891986 -0.0534849 1.90746e-20)
(1.00135 -0.00202771 -9.1048e-22)
(0.798315 0.00187849 -1.97719e-19)
(1.04209 0.104452 2.37139e-18)
(0.319027 0.0840306 -5.92428e-19)
(0.906715 0.201278 -6.13983e-19)
(0.996717 -0.000158229 -3.03055e-21)
(0.802768 0.00448694 -8.56332e-19)
(0.98202 -0.00265209 -7.48756e-19)
(1.0068 -0.000717371 -1.0432e-21)
(0.994837 -0.0155656 1.41752e-21)
(0.79237 -0.00516481 1.33634e-19)
(1.07428 -0.00048799 -1.2445e-19)
(1.04472 -0.0353417 -2.75845e-20)
(1.1652 -0.0971697 1.11596e-19)
(1.02805 -0.00264074 -3.49743e-20)
(0.888513 -0.103723 -1.05999e-18)
(0.778637 0.0273856 3.63573e-19)
(0.759288 0.0185495 -2.0312e-19)
(0.824022 0.0326814 -7.65341e-20)
(1.05279 -0.025469 -2.52438e-19)
(0.86327 -0.109437 -1.25394e-18)
(1.01498 -0.0282555 3.25157e-20)
(1.00136 -0.00092715 -6.98989e-23)
(1.08193 -0.0267842 2.13099e-19)
(0.868282 0.0968626 -4.39613e-19)
(1.1541 -0.108046 2.25816e-18)
(0.97119 0.0205335 9.96466e-19)
(1.01742 -0.0340626 -2.40576e-19)
(0.905674 0.00986581 1.06405e-19)
(0.956591 -0.00185964 4.96709e-18)
(1.09773 0.00527906 -1.84832e-18)
(1.01215 -0.024773 -2.17252e-20)
(1.13043 0.00239472 -7.13702e-19)
(0.873024 0.0236221 -1.00861e-19)
(0.765873 0.232848 -8.5465e-19)
(0.979038 -0.0341538 -2.35575e-19)
(1.11668 0.00354139 -1.78508e-18)
(1.05466 -0.00162782 1.35843e-19)
(0.972075 0.0226857 6.86825e-19)
(1.03582 -0.00346097 -6.27196e-20)
(0.939748 -0.0271647 -4.63179e-20)
(0.81499 0.0364559 5.74044e-20)
(0.918538 -0.00325949 5.78797e-19)
(1.01791 -0.000839607 -4.91802e-20)
(0.952098 -0.0050261 -5.65534e-19)
(1.20934 -0.0624854 -3.97032e-19)
(0.981465 0.166365 -1.39543e-18)
(0.95506 -0.0369355 4.38281e-19)
(0.929492 -0.032128 -1.06271e-19)
(0.820932 0.434875 -1.65602e-19)
(1.00412 -0.000118255 -2.73131e-21)
(1.20878 1.29506 -9.83034e-21)
(0.941364 -0.0439562 -7.40547e-20)
(1.09838 0.0131508 -1.1018e-18)
(0.945057 0.0100667 -2.35538e-19)
(1.08869 -0.00268703 -4.02272e-19)
(0.471064 -0.187145 -1.39033e-18)
(0.90266 0.0390493 -1.36783e-18)
(1.17923 -0.129331 1.04799e-18)
(0.959472 0.0801216 2.25237e-19)
(0.794678 0.200184 7.54432e-19)
(0.792997 0.263795 -6.55589e-19)
(0.770174 -0.167886 -1.05746e-20)
(1.09898 0.00485208 2.04711e-18)
(0.816598 0.140549 7.13366e-19)
(0.977321 -0.0941209 -2.79075e-18)
(1.03734 -0.0334039 -1.19138e-20)
(0.983322 -0.0584554 1.06576e-19)
(1.13504 -0.109293 -2.4492e-18)
(1.00178 -0.00142956 -3.83367e-22)
(0.71726 1.45493 5.44048e-20)
(0.342902 0.0393363 -2.48775e-19)
(0.860089 0.0369731 -4.15445e-19)
(1.04935 -0.0401993 -2.22425e-20)
(1.07437 0.0125699 -2.90322e-19)
(0.935131 -0.0590314 -6.63649e-21)
(1.06474 -0.0251703 -5.06683e-21)
(0.991955 -0.148005 -6.64009e-19)
(1.25134 -0.0391241 7.83123e-19)
(0.990574 -0.000440649 -7.11505e-22)
(1.01575 -0.0281385 -3.24318e-20)
(1.04956 0.0661517 -2.77678e-19)
(1.02644 -0.0486648 2.63365e-20)
(0.0729181 0.458833 3.49579e-20)
(0.810613 0.0836024 -7.7698e-19)
(1.00482 0.126358 2.75022e-19)
(0.995099 -0.0156803 -3.80661e-21)
(1.01908 -0.102133 -1.01334e-19)
(0.980879 -0.0821802 -7.8229e-19)
(1.03764 -0.00250768 4.18453e-20)
(1.00879 -0.0127403 6.65718e-19)
(1.06427 0.0668569 5.91436e-19)
(1.24657 -0.0538073 -5.08033e-19)
(1.02528 -0.0480525 -9.78385e-20)
(0.999787 -9.22808e-05 1.9938e-23)
(0.820487 0.140339 5.36921e-19)
(1.00791 -0.013155 1.18184e-18)
(0.990431 -0.000468305 -1.5846e-20)
(1.08628 0.000379103 -1.82514e-19)
(1.06847 -0.0194862 -1.39303e-19)
(0.949769 -0.0431096 1.31563e-20)
(0.879777 -0.00335304 3.28266e-20)
(0.387396 1.28789 3.92418e-20)
(0.775246 0.0115073 -8.08068e-20)
(0.936327 -0.0609577 -6.03623e-22)
(0.841448 -0.0310793 -5.76943e-21)
(1.0165 -0.0273635 4.65508e-20)
(0.99138 -0.00600106 8.71386e-21)
(1.01902 -0.0115871 -5.85168e-19)
(0.650392 0.26032 -1.25863e-19)
(0.984715 -0.00435562 6.12577e-21)
(0.778253 0.0276582 4.31114e-19)
(1.04882 -0.0337834 1.93337e-20)
(0.95316 -0.0335017 2.05158e-19)
(0.916233 -0.0067405 -7.65332e-19)
(0.992626 -0.0272931 1.91169e-21)
(1.24255 0.015752 -4.29307e-19)
(1.05042 0.0222206 -5.30307e-19)
(1.02686 -0.14761 3.38696e-19)
(0.676189 0.257269 3.51294e-19)
(0.966833 -0.0167496 8.807e-21)
(0.997896 -0.00538256 -2.30407e-21)
(0.97325 -0.0188578 -1.76546e-20)
(0.932379 -0.0307942 -2.18265e-21)
(1.04955 0.0100368 0)
(1.02093 -0.0238488 -4.08668e-19)
(0.719019 0.00070026 -2.55166e-20)
(1.00585 -0.0237721 -2.17807e-18)
(0.692336 -0.107026 2.01851e-18)
(0.690211 -0.104799 -1.74637e-18)
(1.04648 -0.017652 4.61997e-19)
(1.05325 0.0389596 1.28706e-18)
(1.02568 -0.204588 2.27286e-18)
(0.968883 -0.0195024 8.56718e-21)
(0.951603 -0.00428373 -1.18018e-19)
(0.858506 0.0371575 3.96134e-19)
(1.01307 -0.013267 2.04998e-20)
(1.00835 -0.0337039 3.07369e-19)
(1.05019 -0.0327909 -9.40465e-21)
(1.01235 -0.0290125 -6.84877e-19)
(1.03486 -0.154598 -7.75591e-20)
(1.24819 0.0469592 -8.87777e-19)
(0.876022 -0.101163 1.03256e-18)
(0.938909 -0.0545735 -1.53668e-20)
(0.850353 0.0383696 6.97039e-19)
(1.01472 0.020986 -4.96325e-20)
(0.996686 0.144565 -1.48227e-18)
(1.09607 0.00850186 -2.39388e-19)
(0.985886 -0.0295632 -9.23994e-20)
(1.00086 -5.21407e-06 -3.50113e-23)
(0.969806 -0.052724 1.22939e-18)
(0.820469 0.00194014 2.44876e-20)
(0.572901 -0.0489872 -1.25462e-18)
(1.01776 -0.0254211 -2.11924e-19)
(1.04304 -0.0172276 -2.29114e-18)
(1.00041 -0.0918798 -6.15454e-19)
(1.08431 -0.0272947 9.30834e-20)
(0.152168 0.354149 -3.1189e-19)
(0.946279 -0.00198997 5.64025e-20)
(0.825902 -0.00566606 1.46702e-18)
(0.993912 0.00903896 4.13107e-19)
(1.06302 0.068422 -2.85997e-19)
(0.757166 -0.0373777 -1.41246e-18)
(1.12869 0.00544071 1.3801e-19)
(0.999208 -0.00139201 -1.10731e-21)
(0.973769 -0.0713235 4.14384e-20)
(0.775086 0.0227317 -4.08308e-19)
(0.94288 0.00584385 -5.58051e-19)
(1.08533 -0.00111948 -1.35054e-19)
(1.17051 -0.100557 1.06534e-19)
(1.01687 -0.0273586 -5.30424e-20)
(1.40037 -0.224982 8.46597e-20)
(0.923704 -0.0484061 -8.05785e-20)
(0.998765 -0.00496512 -9.91395e-22)
(1.02183 -0.0249044 4.54575e-19)
(1.01286 -0.0288235 1.34204e-20)
(1.25027 -0.0505755 6.98037e-19)
(1.01349 -0.0130445 -1.80724e-20)
(0.956714 0.170069 -3.0934e-19)
(0.85113 0.0332385 1.11054e-19)
(1.13608 0.0015908 -2.62474e-19)
(1.08323 -0.0225688 -3.9199e-19)
(1.01499 0.136268 2.10796e-18)
(1.06871 -0.0248875 -4.89002e-19)
(1.00404 0.0480807 -8.29157e-19)
(1.00002 -0.00029298 3.03946e-23)
(1.01886 -0.0592783 4.44563e-19)
(1.01213 -0.0452984 -1.44193e-19)
(1.05408 -0.0338679 4.26662e-20)
(0.825855 0.00575163 1.76609e-19)
(1.00156 -0.00119265 8.62746e-22)
(0.312979 0.308551 -4.05688e-19)
(1.1813 0.141512 1.89444e-19)
(0.330927 0.0394057 5.56675e-19)
(1.01215 -0.0241164 4.21645e-20)
(1.07892 0.361925 1.42547e-19)
(1.04993 0.0109028 -3.25064e-19)
(1.05912 -0.101024 1.53759e-18)
(1.02084 -0.0416776 6.66903e-20)
(0.981892 -0.000183598 -4.78711e-21)
(1.04638 0.063478 -3.25895e-19)
(1.01084 -0.00959922 -1.17201e-20)
(1.1669 -0.0913089 -4.95587e-19)
(0.981092 -0.00146884 -7.92385e-20)
(0.480673 -0.237139 -1.22357e-20)
(0.873427 0.218649 -1.74079e-18)
(1.01036 -0.00897764 9.28254e-21)
(1.10808 -0.268855 2.58156e-19)
(0.990672 0.0273024 -1.6498e-18)
(0.991385 -0.00571497 4.27924e-22)
(1.03396 0.105699 1.85333e-18)
(1.02289 -0.0653221 1.5204e-18)
(0.878764 -0.00425648 2.67786e-20)
(1.04024 -0.0162114 4.04217e-19)
(1.0258 -0.00329255 2.57111e-20)
(1.05416 -0.00885783 -4.83848e-19)
(0.818668 0.0356302 -2.79716e-20)
(0.750338 -0.00297447 3.52824e-20)
(0.912854 0.1567 -7.39117e-19)
(0.978881 0.0240867 -4.05948e-19)
(1.21653 0.0865094 1.3741e-18)
(1.22215 0.00664279 1.10418e-18)
(0.854211 -0.00393418 -7.6813e-20)
(1.00155 -0.0254632 -2.21943e-21)
(0.913024 0.160257 -3.00948e-19)
(0.942034 -0.0439625 -4.63818e-20)
(0.756261 0.00906645 -3.6717e-20)
(1.01388 -0.0289655 -7.52833e-21)
(0.987475 0.141929 6.81423e-20)
(0.759739 -0.0353461 2.01272e-18)
(1.26184 -0.000864883 1.15119e-18)
(1.00225 -0.0523345 1.96638e-19)
(1.00203 -0.0574358 -3.47852e-20)
(0.825526 0.0032529 -8.57259e-20)
(0.273004 0.151881 -3.62393e-19)
(1.02009 -0.100179 -2.01773e-20)
(0.955072 0.153702 -2.70567e-19)
(1.07098 0.00211789 -9.001e-19)
(1.04805 0.0415284 -1.09344e-18)
(0.987027 -0.00792877 -4.09907e-21)
(0.286824 0.524561 1.49249e-19)
(1.00118 -0.00194563 -4.50021e-22)
(1.06144 -0.0240314 3.19658e-19)
(0.999109 -9.19686e-06 3.21802e-22)
(1.20294 1.23129 -5.266e-20)
(1.11992 -0.0279932 -6.25932e-19)
(0.949212 0.0481685 1.32882e-19)
(0.998915 -0.000289599 4.26631e-22)
(1.17704 -0.13533 -2.82295e-18)
(0.973403 -0.00776834 1.22744e-20)
(1.0094 -0.0340254 3.08989e-19)
(0.961834 -0.0185112 2.8955e-20)
(0.736058 -0.116966 -6.70139e-20)
(0.918474 0.00598703 5.8043e-19)
(0.976097 0.15542 1.0631e-18)
(0.990991 -0.000699171 2.1602e-20)
(1.05363 -0.0703179 4.43939e-19)
(1.01096 -0.0118415 1.19883e-19)
(0.907762 0.00988761 4.10847e-19)
(0.998549 -0.00535329 4.61043e-21)
(1.00005 -0.0579617 -3.66845e-20)
(0.984881 -0.00076097 2.36674e-21)
(1.01346 -0.119867 3.996e-19)
(1.06065 -0.0354526 1.81661e-19)
(0.936224 -0.0333495 -2.15123e-21)
(0.803749 -0.00217847 -1.12133e-18)
(1.00566 -0.013902 -1.23156e-22)
(1.01746 -0.0255077 4.3145e-20)
(1.02509 0.0172223 5.19643e-19)
(0.967353 -0.0168758 5.26365e-21)
(0.954038 0.00366893 -2.20935e-18)
(1.06844 0.0825087 2.1024e-18)
(0.186585 0.257285 -1.34654e-21)
(0.762569 0.00515652 9.62917e-20)
(1.10225 -0.109221 -3.87241e-19)
(0.998929 -0.000116611 -2.68114e-22)
(0.80824 0.455947 1.83222e-19)
(1.03374 -0.154016 2.85401e-19)
(1.02423 -0.00340635 3.79608e-20)
(0.895292 -0.0533906 2.42668e-19)
(0.997943 -0.0544362 1.42503e-19)
(0.819372 -0.0711988 -3.44911e-19)
(1.37966 0.569038 2.38434e-20)
(1.03519 -0.00324119 -4.53489e-20)
(1.00605 -0.0486756 -9.68432e-19)
(0.998775 -0.00506674 3.96647e-21)
(0.924524 -0.0355084 6.29315e-20)
(0.974845 -0.00813589 1.20625e-21)
(0.839326 0.126454 -1.01675e-19)
(0.781645 -0.0228977 -4.34126e-20)
(1.00836 -0.0164784 -3.2424e-22)
(0.988631 -0.00586025 7.14913e-21)
(1.09828 0.00852966 8.7563e-19)
(0.89079 -0.138633 -1.17268e-19)
(0.945465 -0.0439227 7.3214e-20)
(1.00544 -0.0565277 -8.73476e-20)
(0.917864 0.155352 -8.57048e-20)
(0.910283 -0.176028 5.8954e-19)
(1.05713 -0.0334552 1.18065e-19)
(0.42589 -0.0416268 -2.14901e-20)
(1.20687 0.256581 -3.58515e-19)
(0.767381 -0.112988 -5.4312e-19)
(1.00206 -0.0251513 8.77552e-21)
(0.999505 -5.06491e-05 9.69555e-22)
(0.863283 0.1006 5.75603e-19)
(0.806137 -0.0526563 -1.23462e-19)
(1.0061 -0.0138781 -5.47693e-21)
(0.334431 0.153148 8.40561e-19)
(0.946582 -0.0273543 3.1621e-20)
(0.999308 -0.000362649 2.28503e-21)
(1.03762 0.109272 2.2511e-19)
(1.09989 -0.184381 9.07945e-20)
(0.877734 -0.102706 -1.37274e-18)
(0.719402 -0.115263 -2.4757e-19)
(0.9435 0.022727 4.90904e-19)
(0.743499 -0.0047554 5.768e-20)
(0.759311 0.00753132 2.95312e-19)
(1.04333 -0.0217831 -4.96022e-19)
(0.889005 0.20231 -7.92075e-19)
(0.986285 -0.0352469 9.31718e-22)
(0.98404 -0.0803794 -1.47682e-19)
(1.04785 0.12125 1.57393e-19)
(0.991804 -0.0340469 3.73267e-21)
(1.20214 0.238041 4.95958e-19)
(1.00414 -0.025307 9.40994e-19)
(0.997928 0.119357 -2.12085e-18)
(1.03331 -0.012486 3.4781e-19)
(0.974561 0.00641096 -1.06638e-19)
(1.12002 0.20437 -7.64493e-19)
(1.10646 0.0100842 6.56692e-19)
(1.07299 -0.0631888 -5.3465e-20)
(0.88233 0.0276583 -4.16652e-19)
(0.812165 0.160005 1.49547e-18)
(0.787271 0.214875 4.83343e-19)
(0.765806 0.000392052 3.27358e-20)
(0.999715 -0.0958195 -2.70055e-19)
(0.806459 0.0877492 1.38513e-19)