/*--------------------------------*- C++ -*----------------------------------*\
  =========                 |
  \\      /  F ield         | OpenFOAM: The Open Source CFD Toolbox
   \\    /   O peration     | Website:  https://openfoam.org
    \\  /    A nd           | Version:  7
     \\/     M anipulation  |
\*---------------------------------------------------------------------------*/
FoamFile
{
    version     2.0;
    format      ascii;
    class       volVectorField;
    location    "27";
    object      U;
}
// * * * * * * * * * * * * * * * * * * * * * * * * * * * * * * * * * * * * * //

dimensions      [0 1 -1 0 0 0 0];

internalField   nonuniform List<vector> 
117990
(
(1.03197 -0.0978201 -6.23359e-19)
(0.998286 1.22394e-05 -3.30229e-21)
(0.714645 0.043063 -2.09464e-19)
(0.845101 -0.0891986 4.73526e-20)
(1.11679 -0.0690023 5.96426e-20)
(0.908931 -0.121775 -2.15084e-22)
(0.689208 0.0447914 -1.52937e-18)
(1.18724 -0.135855 -1.42644e-19)
(0.959376 -0.0541367 -7.93674e-22)
(0.998216 9.13555e-05 6.98548e-22)
(0.96528 -0.00337559 1.04385e-20)
(1.02173 -0.0178858 5.73057e-21)
(0.993056 -0.103147 6.4497e-20)
(0.104735 -0.0352284 1.61405e-18)
(0.95913 -0.0553922 7.88083e-21)
(0.30007 -0.172729 3.58448e-18)
(0.982236 -0.0444959 2.59362e-21)
(0.950508 -0.0306534 -1.32066e-20)
(1.01575 -0.227108 1.52132e-18)
(1.11731 -0.0671659 2.13986e-19)
(1.1911 -0.110811 -1.35999e-18)
(0.515066 -0.00806347 -2.38946e-20)
(0.943461 -0.0400618 -1.17407e-20)
(0.808971 -0.0666768 2.75915e-20)
(1.39839 -0.0475137 1.08392e-18)
(0.850023 0.400974 1.72194e-18)
(-0.0309411 0.373309 -2.12574e-19)
(1.26781 0.00397377 1.10784e-18)
(0.997374 -0.00772446 3.74891e-21)
(1.11451 0.38153 -1.43504e-18)
(0.980691 -0.00709402 8.65157e-21)
(1.13004 0.178753 4.04391e-19)
(1.16153 -0.0302377 -8.11783e-20)
(0.57353 0.00729871 1.11721e-19)
(1.43229 -0.0296167 4.66224e-19)
(0.79948 -0.10181 9.29507e-20)
(0.726059 0.215273 2.57028e-19)
(0.982243 -0.0454347 -1.27911e-21)
(0.207933 2.15763 3.15176e-20)
(0.811036 0.0867838 3.5307e-18)
(1.1318 0.179481 -7.85634e-19)
(0.949892 -0.0316729 -2.4671e-21)
(0.744008 0.04989 4.75058e-19)
(0.798287 -0.0996805 -6.52397e-20)
(0.939235 -0.230461 5.8577e-20)
(0.108797 -0.0337828 -1.68034e-18)
(1.10359 -0.0133409 7.77106e-19)
(1.24457 -0.011535 1.898e-19)
(1.06581 -0.0748162 8.435e-20)
(1.02147 -0.00192476 -2.61725e-20)
(1.00092 -7.54758e-05 1.61219e-23)
(0.644328 -0.0119655 8.60151e-20)
(1.1169 0.121263 1.2246e-18)
(0.998588 -2.82001e-05 -5.35003e-22)
(0.998985 -0.0682336 -3.00521e-19)
(1.11521 0.120087 -3.04511e-19)
(1.19253 0.0194243 1.00659e-18)
(0.76391 -0.250854 3.3792e-19)
(-0.0852471 0.391105 8.0332e-19)
(0.792894 0.0307917 -6.10052e-19)
(0.989259 -0.026867 -2.86153e-21)
(0.809658 -0.0595048 -2.56507e-20)
(0.899335 -0.00528317 -2.12557e-20)
(0.625162 0.0705792 -5.48181e-20)
(0.990695 -0.00745126 -9.56629e-21)
(1.11651 -0.00361904 -1.61316e-20)
(1.00311 -0.10014 -3.43593e-19)
(1.18985 0.0911056 1.05375e-18)
(0.20165 0.322143 4.75187e-19)
(1.21204 0.0175236 4.39449e-19)
(0.683446 0.399662 8.85191e-19)
(0.0136386 0.199711 -1.06979e-18)
(0.820511 0.0895874 1.59012e-18)
(0.479764 -0.036364 3.83113e-19)
(1.02743 -0.135061 3.02173e-19)
(0.578548 0.0075865 1.19797e-19)
(0.575214 0.437522 -4.05323e-19)
(0.988198 -0.110105 1.29665e-19)
(0.991069 -0.404972 -5.48186e-19)
(0.975891 0.284702 1.02658e-19)
(0.966751 0.294921 3.62418e-19)
(0.992946 -0.000231823 3.28347e-22)
(1.10715 -0.506988 -4.77554e-19)
(1.2973 -0.000592824 -5.00724e-19)
(0.659933 -0.07015 4.67243e-20)
(1.02089 -0.0173778 5.63565e-21)
(0.695653 0.0712417 2.85316e-19)
(0.998444 -0.00272415 -4.32357e-22)
(0.571401 -0.0474888 1.6046e-21)
(0.998469 -0.00457345 1.85765e-21)
(-0.165117 1.07243 4.74809e-21)
(0.640094 -0.0122472 -6.93494e-20)
(0.997014 -0.00761649 -4.75891e-21)
(0.837871 -0.0974376 7.08918e-20)
(0.939744 -0.0376536 -2.02106e-20)
(1.04879 -0.00688787 1.11522e-20)
(0.947379 -0.0023083 -4.65831e-21)
(1.11566 -0.503568 -3.82369e-20)
(0.712482 0.883609 -3.58562e-20)
(0.568835 -0.0439869 2.38065e-19)
(0.989047 -0.0274551 2.87817e-21)
(1.23902 0.0163276 -1.02699e-18)
(1.08381 -0.0375119 -6.21725e-19)
(1.18591 -0.00633559 -1.99794e-21)
(0.678024 0.398741 5.93649e-19)
(1.17314 -0.246264 -5.06844e-19)
(0.849745 -0.0339361 -9.76878e-19)
(1.04888 -0.321848 -4.03036e-19)
(0.889127 0.0671903 -1.47759e-19)
(0.99759 -0.00892828 -2.24192e-21)
(0.789117 0.349293 -8.138e-19)
(0.947983 -0.00303122 1.86721e-21)
(0.550746 0.451093 2.54851e-19)
(0.939141 0.0571636 8.83723e-19)
(1.35916 0.116892 -1.46517e-19)
(1.02966 -0.0195684 1.12278e-18)
(0.96483 -0.00284877 -1.92779e-20)
(0.67332 0.390145 -1.14821e-18)
(1.00291 -0.00240831 2.03311e-22)
(0.00697408 0.215485 7.38616e-19)
(0.674407 0.389619 1.64453e-18)
(0.296187 -0.17516 -1.43616e-18)
(0.729484 0.0447742 -1.89554e-19)
(0.141071 0.443588 5.87582e-19)
(0.998387 -0.000243227 -6.61155e-22)
(1.10514 0.386582 1.65775e-18)
(0.812685 -0.0598321 2.22076e-20)
(1.33839 0.315841 -4.62045e-19)
(0.792541 -0.00973959 1.61848e-21)
(1.27765 0.00243905 -9.2326e-19)
(1.06438 -0.130722 -6.96544e-20)
(1.03331 -0.00490611 8.84762e-21)
(0.629716 0.33716 -7.45253e-19)
(1.02092 -0.0164977 -1.71925e-20)
(1.00309 -0.00208801 9.4975e-23)
(1.03781 0.00902579 2.38331e-18)
(1.40912 -0.103633 -2.97785e-19)
(1.15611 -0.0268806 -1.03384e-19)
(1.0033 -0.0679568 4.13205e-19)
(0.811903 -0.0627766 -2.32927e-19)
(0.700185 -0.136525 5.14755e-19)
(1.04893 -0.0304094 5.69539e-19)
(1.00772 -0.00054227 -6.94399e-21)
(1.09461 0.163777 1.52786e-19)
(1.06263 -0.127441 1.02802e-18)
(1.00078 -0.000115585 -1.57609e-23)
(1.13921 0.0247677 7.58779e-23)
(0.809697 -0.0549822 7.90163e-20)
(1.19273 0.0914835 -1.62667e-18)
(1.09519 -0.0821061 -2.05885e-19)
(1.16728 -0.245528 3.87024e-19)
(0.930898 -0.227264 -4.2587e-19)
(0.635727 -0.0130595 -4.35639e-20)
(0.998066 -0.000217514 2.97123e-22)
(0.648072 -0.0111139 5.06736e-20)
(1.1853 -0.028058 4.90299e-19)
(0.997581 -0.00912693 2.86126e-21)
(1.00964 0.251452 1.25445e-18)
(0.550817 0.00707206 1.04471e-20)
(1.33511 -0.329695 2.03706e-19)
(0.578534 0.0149128 -6.52754e-19)
(1.14084 0.0253995 5.85007e-19)
(0.900946 -0.00477195 -1.56973e-20)
(1.02478 -0.186 -5.51173e-20)
(0.916002 0.0323397 3.30122e-19)
(0.888885 -0.058476 -5.51449e-20)
(1.19194 0.00297333 5.02957e-19)
(0.877873 0.0211646 5.16569e-20)
(0.986499 0.257902 -1.83043e-18)
(0.890087 0.0384504 -3.80533e-19)
(0.825179 0.0247717 -5.05311e-19)
(1.11012 -0.0190563 -4.38854e-19)
(-0.172909 1.139 7.12809e-20)
(0.21422 -0.137333 2.51682e-18)
(0.964545 -0.158156 -4.75169e-20)
(1.21811 0.0563582 -4.62838e-20)
(0.210774 -0.133138 -5.5626e-19)
(0.88827 -0.115301 -5.50995e-20)
(1.1001 0.0129124 1.62328e-18)
(1.06473 -0.0777014 1.37841e-19)
(1.19747 0.00969181 9.80584e-20)
(1.0226 -0.134945 3.44927e-19)
(1.12344 -0.164973 -6.55998e-19)
(1.09361 0.14608 6.57411e-19)
(0.856626 -0.0448993 2.29643e-18)
(0.956427 -0.0938903 -3.17362e-22)
(0.793808 -0.0785543 -2.34062e-20)
(1.00017 0.00415836 -6.83023e-19)
(1.12543 -0.0257245 1.47049e-18)
(-0.153164 1.09572 -1.4231e-20)
(0.893569 -0.114677 -1.83202e-20)
(1.05659 -0.0348759 -3.82177e-19)
(1.05828 -0.374651 -9.60565e-19)
(0.704045 0.00452005 -8.94779e-19)
(0.864231 0.399084 -2.2813e-18)
(1.21448 -0.347334 2.43051e-19)
(0.202283 -0.128024 1.65357e-19)
(0.412635 -0.00124341 -5.15271e-20)
(0.629319 -0.00828374 6.48253e-19)
(0.950714 -0.0403819 4.7956e-19)
(1.08302 0.122105 8.60828e-19)
(0.841092 -0.323168 9.92579e-19)
(1.20913 0.018694 2.90901e-19)
(0.998295 -0.00359692 -2.94179e-21)
(0.777773 -0.081356 -2.53181e-21)
(0.61309 -0.116268 4.41109e-19)
(0.918401 -0.0989154 -1.63667e-20)
(0.990898 -0.00748975 7.36765e-21)
(1.22536 0.0193627 -2.4456e-19)
(1.0805 -0.164091 -1.45548e-18)
(0.197185 -0.123374 -1.40647e-18)
(0.846762 -0.0158659 -6.07809e-19)
(1.39454 -0.0525358 -8.03457e-19)
(0.998554 -0.00458576 2.43524e-22)
(0.913678 0.0422774 1.08921e-18)
(0.705728 -0.00114107 4.43769e-19)
(1.10825 0.177588 7.23431e-19)
(1.11686 -0.0240606 8.78661e-19)
(0.0998025 -0.0272109 -9.72362e-19)
(0.979612 -0.0306263 1.44654e-21)
(0.937125 -0.143518 1.82054e-20)
(0.710228 0.0392731 -3.14269e-20)
(1.06441 -0.0619147 -3.97251e-20)
(0.559745 0.00838937 -5.41653e-19)
(0.998575 -8.68408e-05 7.68528e-22)
(1.33096 -0.122203 8.46352e-19)
(1.04211 0.0308414 -7.46917e-19)
(0.595609 -0.0148968 6.92911e-19)
(1.21296 -0.34161 1.39625e-19)
(1.26758 -0.198586 4.74445e-19)
(1.25339 0.0147189 -1.00811e-19)
(0.926158 -0.232816 -7.71579e-20)
(0.715498 -0.0677629 -4.37045e-19)
(0.863669 0.00342617 4.37625e-19)
(1.07147 -0.126275 -4.67743e-19)
(1.0816 0.12151 1.29067e-18)
(1.05695 -0.00506924 1.25509e-20)
(1.08283 -0.0461319 6.80683e-19)
(0.887632 -0.00982748 -1.58146e-19)
(0.639355 -0.0171798 -1.11789e-19)
(-0.0184912 0.95481 -3.308e-19)
(1.00221 -0.0737459 9.54423e-21)
(1.34304 -0.330244 -2.60198e-19)
(0.732401 0.919321 2.63914e-19)
(0.786477 -0.00868721 -8.23194e-20)
(1.09014 -0.0776005 -4.08677e-20)
(1.15194 0.130691 1.16762e-18)
(0.570441 0.00387608 1.19135e-18)
(0.877688 0.0215998 1.85825e-20)
(0.516909 -0.219439 6.48834e-19)
(1.0124 -0.208661 -4.97031e-19)
(0.867946 -0.121067 -3.02861e-21)
(1.1367 0.018018 -4.42347e-18)
(1.04805 -0.0978115 2.14868e-20)
(1.35203 0.293937 -8.63749e-19)
(1.19813 0.00884959 -6.73893e-19)
(0.317678 0.507924 -9.16281e-19)
(1.29629 0.00351823 4.57479e-19)
(1.03852 -0.000847523 6.01641e-20)
(1.19918 -0.134088 -1.42562e-20)
(1.20337 0.0123024 -1.57342e-18)
(0.106993 -0.0194278 5.97014e-19)
(1.08915 0.153781 -9.43309e-19)
(0.510079 2.48732 -5.79503e-20)
(0.886691 0.0676346 -1.13989e-19)
(0.851516 -0.0910773 -1.50344e-19)
(0.156988 0.440616 9.50532e-19)
(0.795317 -0.0236497 8.95288e-20)
(0.610654 0.405874 -4.77047e-19)
(0.572423 0.454715 8.85189e-20)
(0.991186 -0.00404552 -6.40704e-23)
(1.13015 -0.0240163 -3.58466e-19)
(1.06994 -0.0789125 3.5722e-19)
(1.00244 -0.0748895 -5.60657e-19)
(0.979437 -0.111145 2.50594e-19)
(0.687612 0.0674104 1.42043e-19)
(0.93738 -0.229694 -4.37326e-19)
(0.962856 -0.155257 -2.28344e-20)
(0.999819 -0.0313173 -4.56485e-19)
(1.05404 -0.319951 3.23913e-19)
(1.02645 -0.188916 1.4543e-19)
(0.789127 -0.00740676 -6.22787e-20)
(1.02035 -0.100934 3.33607e-20)
(0.606898 -0.106964 -2.32096e-19)
(0.996123 -0.0819813 1.43881e-20)
(1.20862 -0.000898775 1.11154e-18)
(1.31993 -0.146283 4.9465e-19)
(1.15915 0.00995514 -2.2847e-18)
(1.13467 -0.519014 2.8107e-19)
(0.190651 2.02952 2.07829e-20)
(0.931416 -0.228321 -1.0693e-19)
(0.998644 -0.00335055 -2.21977e-21)
(-0.0988821 0.436616 5.24983e-19)
(0.854244 -0.00911926 -5.92768e-19)
(0.985834 -0.0562816 -2.79225e-22)
(1.20912 0.0223178 -7.6268e-19)
(0.870727 -0.114868 -1.33704e-21)
(1.13617 0.178735 6.30725e-19)
(1.05993 -0.0901195 -2.70224e-19)
(0.531816 0.481759 2.26066e-19)
(0.169632 -0.102142 7.56471e-19)
(0.940174 -0.150575 -1.57561e-19)
(0.0194462 0.506232 -2.73489e-20)
(0.822803 -0.0368703 2.00272e-19)
(1.0008 -0.210407 5.85872e-20)
(1.09083 0.231906 3.6222e-19)
(0.99832 -0.112513 -7.48028e-20)
(0.59401 -0.00822335 -4.79013e-19)
(2.04935 1.88568 -4.21667e-20)
(1.10471 0.0119184 6.26061e-21)
(0.783345 -0.115581 -1.46497e-20)
(0.728453 0.277016 1.16619e-18)
(0.71919 0.120507 7.71498e-19)
(0.886809 -0.00830654 4.75219e-19)
(0.98027 -0.0977187 -3.32415e-19)
(1.09048 -0.040906 1.69499e-19)
(1.06373 -0.377754 -1.50701e-18)
(1.08818 -0.0773162 1.74525e-19)
(0.815398 -0.0706749 -1.22174e-19)
(-0.0918971 0.460755 -1.32114e-19)
(1.11866 0.0998492 2.49122e-19)
(0.980142 -0.0312792 -1.09717e-20)
(1.20634 0.0167053 -2.28353e-19)
(1.36603 0.105942 2.66228e-19)
(1.03398 0.273364 -1.4029e-18)
(0.559031 0.0276105 1.11249e-18)
(1.18646 -0.0278749 -7.20835e-19)
(1.14116 0.154578 8.08143e-19)
(0.160833 -0.095348 -1.47301e-18)
(-0.103819 0.424563 -8.26469e-19)
(0.791063 -0.115917 1.03558e-20)
(0.998581 -0.00347322 4.19013e-21)
(0.960834 -0.0979096 -3.92001e-21)
(0.873029 -0.120742 8.1602e-21)
(1.40236 0.0192494 2.0608e-19)
(0.897309 -0.0890696 1.6388e-19)
(0.967949 0.264744 7.28907e-19)
(0.992009 -0.00408989 7.38566e-22)
(0.903736 -0.121499 -4.3666e-22)
(0.78781 -0.0778958 3.29484e-20)
(0.743934 0.0375638 1.85405e-19)
(1.11953 0.20227 -2.71531e-18)
(-0.00398132 0.36991 8.25595e-20)
(0.619824 0.0667469 -5.01848e-19)
(0.794447 -0.0219355 -7.82095e-20)
(1.12932 -0.0718971 -6.41573e-20)
(0.994912 -0.0284552 2.83825e-19)
(1.34054 0.293606 -9.19249e-21)
(0.732356 -0.135508 -1.23061e-18)
(1.01748 -0.04112 -1.43477e-19)
(0.634953 0.342789 3.9315e-19)
(1.02291 0.113067 -1.03169e-18)
(1.20529 0.0104153 1.43481e-18)
(0.86404 -0.104075 -8.2572e-20)
(0.949503 -0.0401433 5.31582e-20)
(1.01623 0.0425298 1.01334e-19)
(1.03288 -0.0943344 9.91602e-19)
(1.00068 -0.000300488 -1.69162e-24)
(0.948344 -0.122379 -8.25893e-20)
(1.09343 -0.0509088 -6.27584e-19)
(0.790738 0.472351 1.38432e-18)
(1.01891 -0.238078 -1.03454e-19)
(0.724936 0.189446 4.88277e-19)
(1.41299 0.0511995 -2.10364e-19)
(0.798751 0.340823 -9.35477e-19)
(1.00048 -0.000321442 -1.28242e-23)
(0.425619 0.00112058 1.26418e-19)
(0.774425 0.0604732 -2.79011e-19)
(1.06933 -0.0626574 -3.55487e-19)
(1.00031 -0.000454021 7.66918e-23)
(1.34615 0.156954 2.40667e-19)
(0.223248 -0.209909 -5.84681e-19)
(0.570475 0.00598722 1.16609e-18)
(0.925822 -0.0033406 -2.41969e-20)
(0.587976 0.394579 -7.16817e-19)
(1.15005 -0.0565483 9.16713e-20)
(1.0858 -0.0387842 -3.46675e-19)
(1.02094 -0.0013452 2.32173e-20)
(0.883064 -0.128136 -2.70601e-21)
(1.10065 -0.053532 -9.18652e-20)
(0.921036 -0.233345 -5.89524e-19)
(0.892617 0.0590702 2.80842e-19)
(0.931534 0.0560365 1.23256e-18)
(1.09138 -0.0508638 -7.63007e-19)
(1.22032 -0.00452252 -5.93786e-19)
(0.984636 -0.000937037 -1.28003e-20)
(0.703142 -0.0514958 9.23357e-19)
(0.456319 -0.219375 -1.48229e-19)
(1.11948 -0.0703213 -2.30674e-19)
(1.1163 -0.153901 2.09765e-19)
(1.13171 0.166179 -2.80003e-18)
(0.899709 0.117894 -2.09201e-18)
(0.692264 0.0707937 -2.12225e-19)
(1.2615 0.00764961 5.94754e-19)
(0.712001 0.0409197 -2.88732e-20)
(0.873342 -0.128926 5.10789e-20)
(2.06698 1.79717 2.45007e-20)
(1.06587 -0.0699246 1.74771e-19)
(1.06892 -0.0796705 -6.46962e-19)
(0.64374 0.0721321 -6.11023e-19)
(0.668037 -0.0680268 -3.11414e-19)
(0.88708 -0.114613 -7.62161e-20)
(1.07332 0.253155 -3.67639e-19)
(0.829789 0.107756 1.48018e-19)
(1.31136 2.4583 3.15523e-20)
(1.06191 0.143227 -8.24337e-19)
(1.00308 -0.00221304 -2.07908e-22)
(0.947008 -0.0203737 -1.18555e-19)
(1.10608 0.14005 3.08045e-19)
(0.467197 -0.0104039 5.49701e-20)
(0.92721 0.0631427 6.90961e-19)
(0.77619 -0.114025 4.22767e-21)
(1.13463 -0.0698932 -1.79278e-19)
(0.865875 -0.0908413 1.21737e-19)
(0.653731 -0.0660355 -3.7114e-20)
(0.999793 -0.0361936 1.61562e-19)
(1.07281 -0.0797288 3.91673e-19)
(1.80932 -0.0642784 -3.88911e-20)
(1.00558 -0.00340043 3.11856e-21)
(1.23167 -0.00702056 -9.989e-20)
(0.998544 3.50809e-05 -5.74695e-23)
(0.188969 -0.118072 1.92566e-18)
(1.03027 -0.0275407 1.57023e-20)
(0.937844 0.400676 1.03934e-18)
(0.720127 0.133867 -4.10119e-19)
(0.975026 0.212538 -8.61318e-19)
(1.07675 0.132436 5.65266e-19)
(0.934047 0.18487 -8.22544e-20)
(1.19663 0.0195169 1.44348e-18)
(0.944635 -0.0987963 -3.42515e-20)
(1.13251 -0.053345 -1.83468e-19)
(0.973213 -0.0726584 8.65497e-23)
(0.706467 -0.0821953 2.44929e-22)
(0.599787 -0.00111407 -2.78653e-19)
(0.824726 -0.0423238 7.57648e-20)
(0.941553 -0.0171379 -2.84394e-19)
(1.04455 -0.0950346 -3.71703e-19)
(1.02985 -0.0266486 -1.90406e-20)
(0.978264 -0.0118555 -3.20959e-21)
(1.01882 -0.0160419 -1.24195e-20)
(0.979563 -0.110545 -1.21977e-19)
(1.2741 0.00268708 8.71187e-19)
(1.03149 -0.0870006 7.88319e-19)
(0.635831 0.0752905 6.49882e-19)
(0.995789 -0.0802519 -2.97829e-20)
(1.27543 0.256888 -5.46831e-19)
(1.08979 -0.0790672 5.17546e-19)
(0.980469 -0.0118338 -1.33513e-20)
(0.904155 0.122721 2.99951e-18)
(1.21174 0.0534043 1.40639e-19)
(0.959049 -0.119876 3.84327e-18)
(1.00601 -0.00455209 -3.10321e-21)
(1.00376 -0.0663961 0)
(1.13713 -0.0531272 2.73373e-19)
(0.879842 0.0145163 -2.65983e-19)
(0.857973 -0.0638112 7.83851e-20)
(1.36193 -0.174628 2.09442e-19)
(0.57112 0.00325838 -7.98779e-19)
(1.00296 0.354531 1.88671e-18)
(0.427643 -0.0048007 3.73407e-19)
(1.06332 0.245661 -1.92391e-19)
(1.09164 -0.07867 -3.76301e-19)
(1.11873 -0.0703078 2.72007e-19)
(0.93101 -0.264073 -8.72059e-19)
(0.720281 0.281465 -4.86513e-19)
(1.2017 -0.107982 7.86696e-19)
(1.15524 -0.0536536 4.20968e-20)
(0.223615 -0.141786 -2.75134e-18)
(0.427315 -0.00693382 -2.14626e-19)
(1.00605 -0.0048256 1.319e-21)
(1.22337 -0.00604901 1.19611e-19)
(0.476091 -0.220107 3.68512e-19)
(0.882522 -0.00520039 4.19242e-20)
(0.475798 -0.0383641 -6.76784e-19)
(1.04265 -0.099436 -1.35246e-19)
(1.0488 0.264585 2.31744e-18)
(0.998483 4.89893e-06 -1.72035e-22)
(1.16113 -0.0495494 -8.28607e-20)
(1.23304 0.0142212 7.52904e-19)
(1.15695 0.0225806 -9.16156e-19)
(1.08031 0.432253 -4.82541e-19)
(0.999872 -0.000154805 1.482e-24)
(0.992082 -0.00436633 2.48001e-22)
(1.15583 -0.00319632 -4.06243e-19)
(0.880315 -0.000478075 4.58271e-19)
(0.927533 -0.0987064 1.28174e-20)
(0.985403 -0.0602946 -5.81553e-21)
(0.955336 0.276554 -9.07243e-19)
(1.41109 -0.00751767 -9.99743e-19)
(0.512304 0.495545 -9.85811e-20)
(0.950921 -0.0741338 -1.05485e-18)
(0.500818 0.0357001 -1.31229e-19)
(1.02199 -0.18803 3.10821e-19)
(1.10345 0.0859835 1.39309e-18)
(0.874036 -0.0910398 -5.1591e-20)
(1.35499 0.129214 -3.25465e-19)
(0.339975 -0.179156 -2.56404e-18)
(0.944973 0.0528716 -6.38435e-19)
(1.08274 -0.046908 -3.65408e-19)
(0.951967 -0.0654353 -2.1391e-19)
(0.844152 -0.0979358 2.08696e-20)
(0.998553 -0.377542 -3.07294e-18)
(0.864157 0.0109646 6.66852e-19)
(0.854019 0.400845 5.68242e-19)
(1.00166 -0.120404 -5.38862e-19)
(0.982067 0.211678 4.79133e-19)
(0.602378 0.0772638 -2.2977e-19)
(0.750546 0.0356564 5.03486e-19)
(-0.0489264 0.969291 -1.3165e-20)
(1.0772 0.113409 1.37584e-18)
(0.875025 -0.108077 1.01445e-19)
(1.04787 -0.0992816 4.20768e-19)
(1.04279 -0.0959927 -3.26032e-19)
(0.997777 -0.000343936 -4.73116e-21)
(1.02287 -0.0910168 -1.36895e-18)
(0.972644 -0.265003 4.41007e-19)
(1.02256 -0.0599599 -2.87761e-20)
(1.12524 0.0960018 -8.58838e-20)
(0.963832 -0.0836488 9.06297e-22)
(0.963837 -0.0852721 -9.7013e-22)
(1.1649 -0.00870944 -3.10836e-20)
(1.0041 -0.115982 3.29987e-19)
(1.09003 -0.00819498 -6.8212e-20)
(1.10259 -0.0560828 5.10143e-21)
(0.526457 0.0420592 -3.90416e-19)
(0.883655 -0.0911241 -7.53281e-20)
(0.71403 -0.0808471 -1.06774e-20)
(1.04112 -0.40423 -3.85336e-18)
(0.963669 0.339265 1.38527e-18)
(1.14168 0.00516757 7.68659e-19)
(0.824903 0.0257133 -3.8861e-19)
(0.922031 -0.195977 7.9183e-20)
(1.07145 -0.079323 -2.32289e-19)
(1.00288 -0.00443979 -3.68035e-22)
(0.9999 -0.000406549 5.02041e-23)
(0.524071 -0.0630729 -1.3281e-19)
(0.337009 -0.179003 2.61349e-18)
(0.769911 -0.108598 2.06196e-20)
(1.0028 -0.00426299 -9.619e-22)
(0.580919 0.00880459 -2.12179e-19)
(1.12345 0.202006 2.50882e-18)
(0.242369 0.330362 -5.69078e-19)
(0.808209 0.352382 -6.52937e-19)
(0.993207 -0.000379726 -3.33307e-21)
(0.596995 0.00292375 -9.11815e-19)
(0.950343 -0.019143 -7.95942e-19)
(1.01413 -0.00148036 -1.13878e-21)
(0.989224 -0.0321831 1.43103e-21)
(0.56512 -0.00482131 1.45236e-19)
(1.15421 -0.00264587 -1.34968e-19)
(1.09065 -0.0759353 -2.97314e-20)
(1.26899 -0.225079 1.15074e-19)
(1.05835 -0.00557247 -3.82757e-20)
(0.760404 -0.213829 -1.14086e-18)
(0.535385 0.0508525 3.95462e-19)
(0.502491 0.0369744 -2.22818e-19)
(0.626878 0.0659685 -8.28596e-20)
(1.10732 -0.0561054 -2.72188e-19)
(0.705598 -0.209208 -1.38877e-18)
(1.0307 -0.0578704 3.55348e-20)
(1.00292 -0.0018975 -7.40753e-23)
(1.17274 -0.0559519 2.30207e-19)
(0.807127 0.323142 -4.59816e-19)
(1.25619 -0.203267 2.39217e-18)
(0.953977 0.0634105 1.06558e-18)
(1.0302 -0.0894282 -2.54714e-19)
(0.796059 0.0226647 1.16286e-19)
(0.926996 0.021359 5.31602e-18)
(1.20938 0.00829363 -1.98621e-18)
(1.02553 -0.0516281 -2.36138e-20)
(1.27781 0.00381501 -7.65636e-19)
(0.728955 0.0483637 -1.09019e-19)
(0.582436 0.409504 -9.06969e-19)
(0.953141 -0.0706178 -2.57559e-19)
(1.25327 0.00789724 -1.9145e-18)
(1.11541 -0.00551782 1.46448e-19)
(0.955982 0.0671239 7.34472e-19)
(1.07423 -0.00668393 -6.93266e-20)
(0.869623 -0.0567967 -5.11459e-20)
(0.611345 0.0727674 6.22543e-20)
(0.852506 0.0173501 6.20102e-19)
(1.03725 -0.00160734 -5.34197e-20)
(0.891589 -0.015464 -6.18229e-19)
(1.34963 -0.17345 -4.14786e-19)
(0.996626 0.358069 -1.48532e-18)
(0.903531 -0.0820102 4.66648e-19)
(0.85012 -0.0645636 -1.16502e-19)
(0.610511 0.773475 -1.64742e-19)
(1.00883 -0.000246755 -2.97996e-21)
(1.25163 2.42325 -1.36826e-20)
(0.876755 -0.0883427 -8.06071e-20)
(1.20971 0.0220234 -1.18248e-18)
(0.879516 0.0150703 -2.54413e-19)
(1.18501 -0.00583344 -4.33689e-19)
(0.216383 -0.183673 -1.46549e-18)
(0.821171 0.104276 -1.46501e-18)
(1.30616 -0.219747 1.10645e-18)
(0.935275 0.179998 2.40931e-19)
(0.653767 0.45136 7.98773e-19)
(0.596869 0.456546 -6.91311e-19)
(0.694801 -0.159349 -1.27383e-20)
(1.21178 0.00829179 2.19948e-18)
(0.661335 0.325828 7.64146e-19)
(0.965811 -0.122261 -2.98656e-18)
(1.08057 -0.0742236 -1.28913e-20)
(0.965402 -0.115358 1.16339e-19)
(1.2215 -0.205856 -2.58941e-18)
(1.00382 -0.00298154 -4.12542e-22)
(0.45557 2.41386 7.17745e-20)
(0.222186 0.276273 -2.43732e-19)
(0.706661 0.0708836 -4.50107e-19)
(1.10168 -0.081227 -2.39216e-20)
(1.16396 0.0193122 -3.09466e-19)
(0.868727 -0.120515 -4.8697e-21)
(1.13393 -0.0525423 -5.48827e-21)
(0.984464 -0.2454 -6.96874e-19)
(1.42875 -0.0344293 8.41374e-19)
(0.980302 -0.00103507 -7.66347e-22)
(1.03222 -0.0576735 -3.54581e-20)
(1.11569 0.112992 -2.91152e-19)
(1.05393 -0.0991782 2.85522e-20)
(0.0474111 0.482997 6.48011e-20)
(0.715776 0.293731 -8.1779e-19)
(1.03211 0.274484 2.92495e-19)
(0.989763 -0.0323996 -3.83886e-21)
(1.01263 -0.202312 -1.05659e-19)
(0.947744 -0.158843 -8.36323e-19)
(1.07848 -0.00543425 4.63112e-20)
(1.01428 -0.0329998 7.09854e-19)
(1.15369 0.133809 6.30539e-19)
(1.4201 -0.0640917 -5.45686e-19)
(1.05159 -0.0983365 -1.06233e-19)
(0.999738 -0.000208057 2.23788e-23)
(0.668208 0.324961 5.75543e-19)
(1.01294 -0.0326265 1.25998e-18)
(0.979939 -0.00116026 -1.70746e-20)
(1.18752 0.0010948 -1.95009e-19)
(1.13982 -0.0362307 -1.50381e-19)
(0.89054 -0.0897258 1.43014e-20)
(0.750539 -0.0076281 3.52918e-20)
(0.021648 1.887 5.03229e-20)
(0.538057 0.0258557 -8.68511e-20)
(0.870334 -0.122564 -8.76829e-22)
(0.670972 -0.0628745 -6.18209e-21)
(1.034 -0.056041 5.09282e-20)
(0.981968 -0.0124463 9.35885e-21)
(1.03694 -0.0244452 -6.32715e-19)
(0.372876 0.450781 -1.32158e-19)
(0.968085 -0.00910521 6.55087e-21)
(0.535923 0.0523172 4.70221e-19)
(1.09763 -0.0677212 2.09494e-20)
(0.900477 -0.0750381 2.19053e-19)
(0.847554 0.0106751 -8.19954e-19)
(0.984577 -0.0566638 2.19422e-21)
(1.3719 0.0464123 -4.49421e-19)
(1.09988 0.00468049 -5.61258e-19)
(1.03673 -0.22044 3.55992e-19)
(0.415088 0.446761 3.7105e-19)
(0.930998 -0.0346797 9.37813e-21)
(0.995683 -0.0112292 -2.48782e-21)
(0.944339 -0.039078 -1.8786e-20)
(0.85812 -0.0641923 -2.28429e-21)
(1.11245 0.0219722 0)
(1.04194 -0.0490993 -4.4049e-19)
(0.426865 0.00188969 -2.93466e-20)
(1.015 -0.0103567 -2.29503e-18)
(0.378417 -0.1953 2.19596e-18)
(0.373778 -0.19169 -1.90121e-18)
(1.10316 -0.050113 4.90382e-19)
(1.12203 0.0668597 1.36293e-18)
(1.0409 -0.365949 2.39189e-18)
(0.93501 -0.0406321 9.11497e-21)
(0.891089 -0.0142213 -1.28494e-19)
(0.703045 0.0709255 4.28609e-19)
(1.02743 -0.0274869 2.22591e-20)
(1.00772 -0.0804802 3.2851e-19)
(1.09977 -0.0664545 -1.01792e-20)
(1.02229 -0.0846432 -7.26027e-19)
(1.03349 -0.299992 -8.08624e-20)
(1.41844 0.130395 -9.32381e-19)
(0.734173 -0.209816 1.10929e-18)
(0.874145 -0.11403 -1.65348e-20)
(0.683545 0.0717895 7.485e-19)
(1.02504 0.0400547 -5.37736e-20)
(1.02565 0.26159 -1.56234e-18)
(1.20914 0.0184291 -2.56363e-19)
(0.963662 -0.0659168 -9.76195e-20)
(1.00178 -1.59409e-05 -1.77263e-23)
(0.951446 -0.0660148 1.31569e-18)
(0.627279 0.00501528 2.64761e-20)
(0.151591 -0.0900033 -1.37004e-18)
(1.03322 -0.053943 -2.27663e-19)
(1.08761 -0.0541214 -2.42838e-18)
(0.977469 -0.177455 -6.45947e-19)
(1.17705 -0.0564395 1.0048e-19)
(-0.10774 0.493119 -3.03829e-19)
(0.888202 -0.00410227 6.01627e-20)
(0.678479 0.0275986 1.55429e-18)
(0.986146 0.0164574 4.45635e-19)
(1.15079 0.141558 -3.04778e-19)
(0.491598 -0.0729306 -1.5384e-18)
(1.27246 0.0102868 1.48048e-19)
(0.998359 -0.00279709 -1.24101e-21)
(0.933797 -0.136873 4.50562e-20)
(0.533287 0.0475506 -4.45543e-19)
(0.87494 0.00645394 -6.15657e-19)
(1.18522 -0.00221919 -1.44146e-19)
(1.27648 -0.231431 1.10371e-19)
(1.03503 -0.0559613 -5.80443e-20)
(1.61245 -0.487074 8.68072e-20)
(0.841609 -0.0991448 -8.62958e-20)
(0.997586 -0.0102768 -1.07285e-21)
(1.04395 -0.051525 4.89709e-19)
(1.02662 -0.0592114 1.46497e-20)
(1.42556 -0.0579822 7.4816e-19)
(1.02828 -0.0270131 -1.96238e-20)
(0.91905 0.394509 -3.30605e-19)
(0.68644 0.0632377 1.19198e-19)
(1.28543 0.00427696 -2.81597e-19)
(1.17313 -0.0484141 -4.22301e-19)
(1.06419 0.292093 2.24462e-18)
(1.14571 -0.0557484 -5.28147e-19)
(1.01948 0.109428 -8.86248e-19)
(1.00015 -0.000534853 3.52832e-23)
(1.02093 -0.135564 4.70272e-19)
(1.01532 -0.0937156 -1.56701e-19)
(1.11564 -0.0708613 4.62849e-20)
(0.640124 0.00523874 1.90141e-19)
(1.00337 -0.00246643 9.22051e-22)
(-0.101482 0.487165 -4.08619e-19)
(1.32381 0.357205 2.15145e-19)
(0.186731 0.26471 5.47251e-19)
(1.02576 -0.050354 4.58264e-20)
(1.09886 0.670031 1.41784e-19)
(1.11339 0.0243919 -3.47899e-19)
(1.10138 -0.158476 1.60622e-18)
(1.04914 -0.0867514 7.19265e-20)
(0.962093 -0.000402523 -5.10842e-21)
(1.11281 0.10838 -3.41866e-19)
(1.02263 -0.0200264 -1.2746e-20)
(1.27946 -0.169 -5.24679e-19)
(0.950576 -0.0171149 -8.44733e-20)
(0.241835 -0.259851 -1.18317e-20)
(0.796755 0.468675 -1.84228e-18)
(1.02175 -0.0186409 1.00974e-20)
(1.13027 -0.509078 2.70565e-19)
(0.989252 0.0731125 -1.76862e-18)
(0.981961 -0.0118795 4.59602e-22)
(1.10712 0.182118 1.96193e-18)
(1.02982 -0.0914327 1.59986e-18)
(0.748453 -0.00892737 2.88393e-20)
(1.07836 -0.0346503 4.35811e-19)
(1.05376 -0.00704799 2.80478e-20)
(1.1126 -0.0195684 -5.22903e-19)
(0.61834 0.0719029 -3.00322e-20)
(0.488834 -0.00512402 3.77729e-20)
(0.850115 0.403381 -7.78549e-19)
(0.947897 0.0490732 -4.39475e-19)
(1.36142 0.242774 1.36794e-18)
(1.31618 0.0223356 1.18237e-18)
(0.697754 -0.00807897 -8.31225e-20)
(1.00335 -0.0527828 -2.41742e-21)
(0.841844 0.394861 -3.18412e-19)
(0.876882 -0.0902198 -5.05384e-20)
(0.497879 0.019878 -4.02255e-20)
(1.02848 -0.0593559 -8.21729e-21)
(0.998587 0.304938 7.28249e-20)
(0.496505 -0.071271 2.19099e-18)
(1.44069 0.0354642 1.24241e-18)
(1.00252 -0.105245 2.12983e-19)
(1.00414 -0.114647 -3.92108e-20)
(0.635971 0.006837 -9.28246e-20)
(0.226804 0.375797 -3.3428e-19)
(1.01441 -0.199706 -2.08969e-20)
(0.933463 0.276345 -2.85649e-19)
(1.14812 -0.0139268 -9.567e-19)
(1.11127 0.0910154 -1.16949e-18)
(0.972998 -0.0165862 -4.38378e-21)
(-0.15185 0.747308 1.46019e-19)
(1.00247 -0.00411154 -4.65708e-22)
(1.12778 -0.0495757 3.44799e-19)
(0.998406 -5.24959e-05 3.68084e-22)
(1.24327 2.31533 -7.23292e-20)
(1.20421 -0.0984836 -6.44088e-19)
(0.913478 0.118505 1.42077e-19)
(0.997715 -0.000401449 4.75685e-22)
(1.30035 -0.231609 -2.98643e-18)
(0.944523 -0.0161273 1.30715e-20)
(1.01036 -0.0801471 3.29274e-19)
(0.920629 -0.0384188 3.08575e-20)
(0.464332 -0.220118 -7.34889e-20)
(0.828058 0.0246186 6.36519e-19)
(0.992734 0.322814 1.12437e-18)
(0.981134 -0.00148766 2.33209e-20)
(1.07421 -0.160244 4.62367e-19)
(1.01949 -0.0325281 1.27831e-19)
(0.80159 0.0257913 4.50102e-19)
(0.99701 -0.0110727 4.97005e-21)
(1.00033 -0.115614 -4.15079e-20)
(0.968367 -0.00156158 2.53842e-21)
(0.990455 -0.220594 4.10041e-19)
(1.12526 -0.0730631 1.96908e-19)
(0.867107 -0.0688592 -2.31643e-21)
(0.577036 -0.00220893 -1.21662e-18)
(1.01187 -0.0288349 -1.34452e-22)
(1.03654 -0.0531314 4.7248e-20)
(1.04661 0.0323053 5.63969e-19)
(0.932081 -0.0350042 5.60448e-21)
(0.92271 0.0301476 -2.36473e-18)
(1.16333 0.159763 2.24271e-18)
(0.205199 0.386369 -4.06294e-22)
(0.517147 0.0091049 1.05183e-19)
(1.15988 -0.227344 -3.9812e-19)
(0.998106 -0.000210879 -3.03481e-22)
(0.583869 0.808207 1.81613e-19)
(1.03048 -0.299381 2.96618e-19)
(1.05032 -0.00708683 4.13554e-20)
(0.777351 -0.108042 2.62599e-19)
(0.992514 -0.106225 1.54541e-19)
(0.625166 -0.136176 -3.76831e-19)
(1.63549 1.11127 2.19537e-20)
(1.07261 -0.00653118 -5.00524e-20)
(1.00721 -0.1157 -1.02836e-18)
(0.997601 -0.0105364 4.27824e-21)
(0.83881 -0.0703072 6.82461e-20)
(0.947547 -0.0168285 1.28522e-21)
(0.701243 0.29129 -1.09081e-19)
(0.544501 -0.0387771 -4.32219e-20)
(1.01762 -0.0342641 -3.50588e-22)
(0.976064 -0.0120476 7.6654e-21)
(1.21053 0.0115206 9.41204e-19)
(0.768197 -0.250154 -1.28875e-19)
(0.882794 -0.0903989 7.97328e-20)
(1.01081 -0.113042 -9.83344e-20)
(0.860483 0.404007 -8.96318e-20)
(0.838359 -0.3186 6.28009e-19)
(1.11988 -0.0701446 1.2764e-19)
(0.123406 0.0363484 -2.22803e-20)
(1.35611 0.47114 -3.69592e-19)
(0.524415 -0.218574 -5.94118e-19)
(1.00435 -0.0521471 9.55983e-21)
(0.998858 -9.81416e-05 1.09352e-21)
(0.795771 0.327407 6.02403e-19)
(0.598635 -0.104414 -1.36677e-19)
(1.01278 -0.028798 -5.97346e-21)
(-0.0441579 0.314248 8.89522e-19)
(0.888761 -0.0566073 3.38175e-20)
(0.998641 -0.000759182 2.57375e-21)
(1.11719 0.205102 2.38798e-19)
(1.14118 -0.356841 9.93532e-20)
(0.739064 -0.212238 -1.47535e-18)
(0.430701 -0.216865 -2.72417e-19)
(0.874631 0.039336 5.3444e-19)
(0.476408 -0.00880745 6.13731e-20)
(0.502628 0.0183774 3.27854e-19)
(1.08677 -0.0479672 -5.36819e-19)
(0.813123 0.433397 -8.39027e-19)
(0.971971 -0.0734503 1.09326e-21)
(0.950754 -0.158622 -1.57685e-19)
(1.12517 0.218292 1.67071e-19)
(0.982864 -0.0706602 4.09641e-21)
(1.34923 0.435126 5.11604e-19)
(0.998268 -0.0664882 1.01108e-18)
(1.01879 0.261614 -2.25463e-18)
(1.06644 -0.0280031 3.75332e-19)
(0.939335 0.0168977 -1.14305e-19)
(1.2158 0.441288 -7.71888e-19)
(1.22858 0.0198966 7.03426e-19)
(1.11268 -0.158759 -5.64185e-20)
(0.754342 0.0535977 -4.52339e-19)
(0.659141 0.375325 1.59789e-18)
(0.62265 0.391245 5.10289e-19)
(0.51754 -0.000137953 3.75977e-20)
(0.980569 -0.18426 -2.86296e-19)
(0.707985 0.299096 1.4581e-19)
(0.85385 -0.0343291 2.09378e-20)
(0.955127 -0.0019797 1.88533e-22)
(1.52122 -0.456562 4.47263e-19)
(0.79271 -0.0257334 1.5661e-19)
(0.80311 0.0239232 1.16624e-19)
(1.40009 0.137462 -3.09519e-19)