/*--------------------------------*- C++ -*----------------------------------*\
  =========                 |
  \\      /  F ield         | OpenFOAM: The Open Source CFD Toolbox
   \\    /   O peration     | Website:  https://openfoam.org
    \\  /    A nd           | Version:  7
     \\/     M anipulation  |
\*---------------------------------------------------------------------------*/
FoamFile
{
    version     2.0;
    format      ascii;
    class       volScalarField;
    location    "31";
    object      p;
}
// * * * * * * * * * * * * * * * * * * * * * * * * * * * * * * * * * * * * * //

dimensions      [0 2 -2 0 0 0 0];

internalField   nonuniform List<scalar> 
29659
(
0.0128409
0.182649
-0.0130611
-0.0542721
-0.00366299
-0.0552107
-0.0457323
0.0111468
0.00319846
0.000328752
0.00519845
-0.0075247
-0.000697681
-2.30496e-05
0.0793525
-0.00893943
-0.000218496
0.0158958
-0.0032156
-0.0155061
-0.00126323
0.00301501
-0.0133058
-0.00316463
0.849882
0.181492
-0.000754175
0.683468
0.0643308
-0.00255554
0.0241351
0.0759988
-0.093171
-0.0112161
0.697509
-0.0143522
0.181439
-0.0401837
0.00894767
0.00857604
0.000734825
-0.026782
-0.000188286
-0.0440304
6.8653e-05
-0.00234701
-0.00675494
0.000148847
0.00515788
0.176786
-0.0748931
-0.0473914
0.0788705
-0.0530339
-0.00875903
0.0670167
-0.00522057
-0.00130615
-0.0082538
-0.0341318
-7.17456e-05
-0.00312955
-0.0764708
-0.012857
0.28409
0.804864
-0.013858
-0.012991
0.76303
0.000767104
0.17952
0.554677
0.00334897
0.771012
-0.0115654
-0.0271332
0.000696131
-0.0350604
-4.76137e-05
-0.0284121
-0.0482202
0.249156
0.0128368
3.19231e-05
-0.0431466
-0.20323
0.346092
-0.000728069
-0.000671693
-0.0701764
-0.0378547
-0.0356445
0.0047295
0.0663492
-0.0720886
0.334955
-0.0508795
0.000792018
-0.0626858
0.104452
-5.14799e-05
-0.0332015
-6.83516e-05
0.047274
-0.0482829
0.147406
0.459746
-0.000644325
1.97908e-05
-0.0952465
-0.0919939
0.00481386
7.06417e-06
-0.0023454
-0.00015943
0.535968
0.260263
-0.0168443
6.61869e-05
0.00398275
-0.148477
0.196128
-0.0763577
0.796732
0.00177823
-0.0513832
0.0215875
-0.0299094
0.00630447
7.41166e-05
-0.0413892
-0.00468908
0.47229
-0.0993681
0.0469151
0.0234991
0.264007
-0.0337955
-0.187899
0.100173
-0.043851
-0.0600322
-0.0638591
5.21591e-06
-5.0815e-07
-0.00373947
-0.00635053
-0.0711943
-0.147696
-0.0723999
0.0368899
0.0174146
0.000726513
-0.000164426
0.267641
0.000845816
-0.0118629
0.235136
0.329077
-0.073275
-0.0461994
-0.0529102
0.0722686
-4.77589e-05
-7.22373e-07
-0.0169882
-0.0611956
0.000124608
3.10058e-05
-0.0104026
9.25901e-05
0.0086762
0.243297
-0.0329992
-0.0900403
-0.00740816
0.00326456
-0.0347422
-0.00190976
-0.0697524
-1.09796e-05
-0.010897
0.33883
-0.0119584
-0.186623
0.259653
-0.0092866
-0.0258666
0.00595769
-0.00262571
-0.000387919
0.00170777
0.814859
0.262849
-0.0197524
-0.0113511
0.658908
0.23277
-0.0715919
0.00185278
-0.0731606
-0.0767083
-0.00730962
0.00137503
0.246536
-0.00996083
0.0105831
-0.0700033
-0.0973155
-3.0755e-05
0.576795
-0.00151921
2.60218e-05
-0.000789882
-0.0366415
-0.0627862
-0.00918852
0.0103122
-0.00314296
-0.0727074
0.000103462
0.000755435
-0.00340472
0.121907
-0.00427436
-0.00220719
0.0802919
0.000241603
6.44998e-05
0.00820269
-0.0417272
-0.030581
-0.00690968
0.177396
-0.0210546
0.0186133
-2.39759e-05
-0.00444373
0.00129056
-0.0690407
-0.160674
-0.00203352
0.000768937
-0.00227502
0.00423834
-0.0149561
-4.49993e-05
-0.193044
0.000125363
0.12401
-0.00503274
0.000269199
0.150117
-0.0752448
0.000432536
9.06894e-06
-0.0600659
-0.151242
-0.0129431
-0.0318755
0.036455
0.324238
0.0001541
-0.0391761
-0.10667
0.675323
-0.0119304
0.255614
-0.0215678
-0.000341064
0.988296
-0.000779234
-0.0941903
-0.0719491
0.00350986
-0.0521095
-0.0119448
0.464127
-0.00513645
-0.0257402
-0.000356748
0.151052
-0.00506768
0.344468
-0.000730059
-0.00856668
0.608596
0.103878
0.080243
-0.0465273
-0.000197331
0.00414941
-0.000232216
2.69571e-05
0.104523
7.96829e-05
-0.0278481
-0.109083
0.861772
0.46454
-0.0659135
-0.02894
-0.0290086
0.00618965
0.0030175
-0.0263482
-0.0709309
0.332668
0.568643
-0.00188287
0.449443
0.101522
-0.0768491
0.0163372
-0.00343647
-0.0224156
-0.00793164
-0.00389018
-6.31298e-05
-0.00305722
-0.00951239
0.146048
0.00256939
-0.0383907
0.0188895
-3.37693e-05
-0.0683645
0.917451
-0.00941318
-0.00221744
0.0174634
-0.0264694
0.116713
-0.00230308
-2.03904e-05
6.80787e-06
-0.0039145
0.613839
0.0263249
-0.163608
1.01228e-05
-0.158267
0.0662545
-0.00752106
-0.06602
-0.00202154
-0.000629239
-0.0360414
0.00151168
-0.0692175
0.0165069
-0.00142929
-0.000268171
0.00259983
0.194552
-0.143619
0.000710843
0.000750432
0.520644
-0.0381726
-0.00246405
0.24508
0.694978
-0.0860455
-0.0127523
-0.0548013
-0.0011285
-0.0124028
-0.00502691
0.227154
2.22973e-05
0.0158816
-0.147381
0.490339
0.752552
-0.00902055
-0.013293
0.297525
-0.0353911
-6.06367e-05
-0.0499477
0.129224
0.131661
-0.0114183
0.0402868
0.654873
-0.164981
0.573805
0.517218
2.2176e-05
-0.00793264
-0.154564
-0.0045262
0.00262631
0.702704
0.0260337
0.000497935
-0.0538662
-0.0783578
-0.00839942
-0.000149092
0.322707
0.255297
0.000131495
0.00653025
0.00862058
-0.145865
-0.0465835
0.000158119
-1.12978e-06
0.000849149
0.124261
-0.0397851
0.410011
-0.0707231
-0.028175
-0.0301184
0.23901
-0.0674401
-0.00182705
0.0127975
0.00141588
0.568919
-0.0366751
0.0018041
-0.0111738
-0.0401638
-0.00257043
-0.0185085
0.000420983
0.000427422
0.932605
-0.0121172
-0.00778033
-0.000693055
-0.0011009
0.300184
-0.149446
-0.0400868
1.22521e-05
2.29186e-05
-0.0378306
-0.0101673
-0.00786785
0.0272665
0.00986209
-0.00491171
-0.00402168
-0.0256595
0.560158
0.00480166
0.000444374
-0.0651139
-0.0371198
-0.0350332
-0.00539511
-0.0396756
-1.14249e-05
0.748343
0.0312662
0.000178049
0.815063
-0.0412481
-1.22599e-05
0.0024054
-0.067338
0.00714993
0.0612589
2.85572e-07
-0.011874
-0.0200967
-0.0081554
-0.00070073
-0.0123035
0.667414
-0.0128679
-0.0179642
0.281889
-0.00427259
0.597832
-1.4063e-05
-0.0259978
-0.0759859
-0.0391225
-0.121576
-0.00243338
6.96003e-05
-0.000166039
-0.0286017
0.00149657
-3.12378e-05
1.6008e-05
-0.00947624
0.581517
0.00946695
0.00405492
-0.071118
9.62281e-06
0.00165982
-1.38551e-05
0.0131472
-0.0260269
-0.000568697
-0.0127711
-0.0184853
0.00173402
-1.49952e-05
-0.103376
-0.000614329
0.0582529
0.436733
0.309082
-0.00797587
0.00968417
0.0414372
-7.63581e-05
-0.00590771
1.17205e-05
0.52445
-0.0208691
0.0268831
-0.0247774
0.00208144
-0.00498281
-0.000127538
1.92261e-05
-0.007525
0.0612571
0.333853
0.00208312
-0.0593406
-0.0358772
-0.0119048
-0.0692062
-0.00202619
0.000869078
-0.00853905
-0.000115224
-0.0697247
0.37972
0.241764
-0.0329627
0.370326
0.000178752
1.01795e-05
-0.047523
-0.0447229
0.782083
-0.0721935
-0.0305045
-0.0326853
0.00199184
-0.00892262
0.000812669
-0.0158451
-0.0194725
1.4254e-05
-0.00136858
0.487304
-0.00017388
0.717357
1.21593e-05
-0.116455
0.0534795
0.000766873
0.00177798
0.000346209
0.568468
0.0613042
-0.077094
0.254717
-0.0112121
-0.0193968
-0.00625409
0.109248
-0.0377765
0.00920133
-0.0122269
1.05389e-05
-0.00200501
0.00938071
-0.0257263
-0.0322543
-0.0602207
-0.0259889
0.162253
-0.0033216
-0.0711914
-0.0200846
0.000102227
-0.0176541
0.00483202
0.165323
-0.0395934
-3.04469e-06
-0.0270355
-0.00154222
0.00235184
-0.168852
0.40892
0.00155424
-0.0174593
-0.0704583
0.107329
0.650953
0.00301874
-0.00883899
0.192127
0.216469
-0.0244842
0.00806482
-0.0656177
2.46475e-06
-0.0539424
0.000173022
-0.0693717
-2.83863e-05
7.19299e-05
-0.0114917
-0.0753341
0.388654
0.00483489
0.0176795
2.27075e-06
-0.00974287
0.000176651
-0.00504369
7.13259e-05
0.0664998
-0.000713318
0.224109
-0.000158681
-0.0186146
-0.0482634
-0.00654037
0.644478
-0.0237525
-0.0879711
-0.00873439
0.0706228
-0.0649428
0.0454351
-0.043583
-7.04692e-07
-0.00940633
-0.00610944
0.00045625
0.000169558
0.0988661
-0.00763157
0.11755
-0.00848904
0.00148643
0.0496413
0.000311341
-1.59377e-05
-0.0529969
-0.00540435
7.64059e-05
0.269418
0.874842
-0.000293507
-0.0465875
1.4545e-05
0.674112
-0.122638
-0.0529826
0.00013588
0.0104725
0.0876943
0.103472
0.0592282
-0.000558924
-0.000189656
-0.0229433
9.79493e-06
5.80042e-06
-0.0383366
-0.0502549
-0.0593721
0.825117
0.000372675
-0.0584042
0.0124824
-1.39625e-05
-0.00200037
0.000115975
-0.00985103
9.30717e-05
-0.0414785
0.0439356
0.587585
0.0685389
-0.000404066
0.0008075
-0.151836
0.11507
-0.00485064
2.14605e-05
0.217375
-0.181958
-0.0705443
-0.0203952
-1.21262e-05
-0.000398663
-0.188445
-0.0366336
0.194491
0.558996
-0.0861468
-0.0019665
-1.16666e-05
-0.0628916
-0.0913501
-0.000279863
0.00178783
-0.0236754
-0.00727969
0.569314
-0.00203316
-0.0146079
-0.00215716
-0.0117016
0.787735
0.798953
-1.91355e-05
2.8248e-07
-0.0233311
0.025343
-0.0454225
0.00862665
-0.0113215
-0.000873247
0.643576
0.218535
0.00375638
0.976053
1.13768e-05
0.148638
-0.0876277
-0.0581149
0.000198546
-0.046941
0.154906
0.0241941
0.0932018
-0.000680493
-0.000726207
-0.0154708
-0.00536566
-0.0201192
-0.0017155
0.140804
-0.0103479
-0.00829106
-0.0708413
0.508097
-0.0148717
0.0487473
-0.000602113
-0.000776422
-0.0294248
0.00169932
-0.00399872
-1.15113e-05
-0.000468563
0.15549
0.569744
-0.000171305
0.0517753
1.633e-05
-0.00520431
1.97699e-05
0.00886646
-0.110909
-3.43601e-05
-3.645e-05
-0.0727921
1.05134e-05
0.0599987
-0.0380599
3.3862e-06
0.202978
1.84883e-05
-0.000598351
-0.000109596
-0.00793597
-0.000564922
-0.00935021
-0.103868
-0.00049379
0.00698314
-1.6376e-05
0.381625
-0.0160273
-0.017979
-0.0425908
-0.0314329
-0.00184622
0.00481822
0.275434
-0.0384508
0.14194
-0.0521043
-0.00537875
-1.24515e-07
-0.00880045
0.4531
0.226423
-0.0532928
-0.0635002
0.365476
-0.0126146
-0.0805911
1.94444e-05
-0.0395553
-0.00127012
0.941901
-0.0700196
-0.000106687
-0.0700266
-0.0393041
0.327131
-0.0039486
-0.0408457
-0.00631439
-0.0107213
-0.00197256
0.327288
-0.157044
-0.0275961
-0.0217718
-0.0184158
0.00917383
0.360761
-0.0263383
0.258073
0.00449408
-0.121337
0.734158
-0.0127969
-0.000327096
0.310139
0.503148
-0.0134895
-0.00745535
-0.0106865
-0.0421832
0.197664
-0.0622213
-1.49103e-05
-0.0110056
7.60372e-05
-0.00679939
-1.64698e-05
-0.00789081
-0.00146893
-0.00495617
-0.136363
-0.000899996
-0.000750435
-0.00177978
0.274128
-0.0031535
-0.00496544
-0.00471801
0.215462
0.00842118
-0.000538828
0.439637
0.78631
-0.02706
0.632908
-0.0238762
0.436053
0.00872546
-0.0264225
0.00413886
-0.000667449
3.62794e-05
0.00407448
-0.0168935
-0.0268457
0.250118
-0.0309446
-0.0272946
-0.00136591
-0.130007
-0.035471
0.0102751
-2.34542e-06
0.00633519
0.00851495
0.528674
-0.00546088
-0.018473
0.193589
-0.000486458
0.0541543
-0.0243636
0.000983363
-0.0694026
0.00364226
0.445892
-0.00303169
-0.000768676
-0.000116506
-0.0750927
-0.00195643
0.951772
0.984343
0.0183181
-3.31676e-05
0.0126357
-1.22677e-05
0.0640315
-0.000752088
0.0320325
0.842526
-0.0288662
3.87755e-05
-0.0112513
2.63773e-05
-0.156192
-0.0447376
0.666388
0.000390483
0.017634
0.00275957
0.000479457
-0.00320856
-0.000401263
-0.00832822
-0.0526292
-0.0309255
0.00667573
0.197346
-0.0179838
0.00926246
-0.027261
-0.00271144
-0.0369281
2.47089e-05
8.82221e-05
-0.00304672
0.039324
-0.0485649
-0.0222417
-0.00503022
0.003973
-0.0462791
0.135811
-0.0168914
-4.64778e-07
-0.0646421
0.605344
-0.0961968
-0.0161651
0.046666
3.40578e-05
-0.000897008
-0.0377115
-2.35132e-05
-0.000580361
-1.35597e-05
0.977278
0.0127025
0.00519137
8.29218e-07
5.1223e-06
1.85524e-05
7.85791e-07
-0.029353
0.504529
-0.0449008
-0.000616296
-0.000186165
-0.0081133
0.673611
-0.0734018
0.576102
-0.00155482
0.188514
-7.86921e-05
0.667949
-0.00295862
-0.0125163
-0.010009
0.00817659
0.00996562
0.245591
-0.0514079
0.657088
0.310963
-0.0112872
-0.0389001
-0.014999
-0.0381387
2.2174e-05
-0.00120857
0.00385228
0.0927159
-0.00871628
-0.029533
-0.00445144
0.810294
-0.103857
-1.82437e-05
-2.05802e-05
0.676
-0.00645607
0.00143497
-0.0170361
-0.00292093
-0.0202342
-0.0128212
-0.094213
0.0343945
0.00490843
-0.0131728
-0.0188477
0.000156576
-0.00750826
-0.00223434
-0.010254
-1.87609e-05
0.000110298
-0.0319326
-0.0266735
0.648947
-0.0500359
-0.000202827
-0.00196518
-0.000367041
0.441952
-0.0887888
-1.9472e-05
-0.0406545
-0.00582091
-0.00469722
-0.0365975
-0.0406115
0.00877433
0.0685137
-0.0896247
0.000140663
0.00783738
-0.0167268
2.14114e-06
-5.48686e-05
0.14963
0.107509
-0.0605359
-0.0577201
-0.071867
0.000748323
0.675969
0.000161009
-0.0255128
0.536973
-0.0215455
-0.0465708
7.47403e-06
0.000266043
-0.0466303
-0.0117524
0.0018585
-0.0390588
0.302298
0.194635
0.000942621
0.000397811
0.219647
-0.0157749
1.06114e-06
-0.00183865
-0.0347159
-0.0284964
-0.014989
-0.00379122
0.0652738
2.68668e-05
0.0958265
0.330932
7.80671e-05
0.00736838
-0.000513413
-0.122946
-0.0168305
-0.000786298
0.0343933
0.000321827
0.282891
0.00185102
0.0263917
-0.00945287
0.86643
0.517994
-0.0623656
-0.00864702
7.29695e-06
-0.089906
-0.0156261
0.17624
0.333707
-0.0391514
-0.0418044
-0.0186492
-0.00711479
0.183863
-0.000189727
0.625876
0.0279844
8.20999e-05
7.87703e-05
0.000155952
-0.0141245
-0.019503
0.000878707
0.0020801
0.100533
-0.0575069
0.000540027
0.000119575
-0.0260315
-2.62146e-05
-0.0030484
-0.0125166
-0.000776838
-0.0354258
0.00451039
-0.00141608
-0.0039895
-0.0174419
0.518853
0.534254
0.0410234
2.00699e-05
-0.000538337
0.321726
-0.000437736
-0.15722
-0.000180038
-0.0215504
-0.0932967
-0.000176961
-0.000208042
-0.0365653
0.00151698
-5.23375e-05
-0.0013451
0.219073
-0.0366692
-1.27136e-05
0.110213
0.450072
0.455336
0.00074673
-0.146031
-0.00965201
0.601426
-0.073837
-0.0758255
-0.0210839
-0.0132411
0.0298781
-0.0264467
0.458674
0.0683511
-0.000130364
-0.0552533
-0.0696613
-0.00397391
1.3534e-06
-0.00187764
0.275888
-0.000155682
-0.0163525
-0.00416577
-0.00116886
0.00938662
0.0315992
-0.000136483
-9.78144e-05
-0.00957473
-0.122455
-0.0375376
-0.0834798
0.322153
-0.00323232
-0.000239205
-0.0399499
-0.0249494
0.00963516
0.0141815
0.000137336
0.081341
0.170757
0.0202459
0.0253536
-0.000594866
-0.0135729
-0.079446
0.00144739
5.72821e-06
-0.00986681
-0.0040473
-0.000702351
-0.0118306
-0.000822326
0.121914
-0.00922312
-0.168149
-0.0251057
-0.0108688
0.0124328
0.665663
-0.043067
-8.32451e-05
0.664103
0.198345
0.00816998
-0.00588815
0.0079119
-0.0609769
0.198514
0.000414002
-0.00387427
0.844606
0.39284
0.326442
-0.045904
-0.00136952
-0.00119912
-1.21149e-05
-0.0012785
0.246152
0.0938471
-0.0191466
-0.00845735
-0.000307259
-0.084855
0.81376
0.553459
0.0894256
-0.00283245
-0.0612219
-0.00651276
-0.000684931
-0.0266941
0.0091827
-0.0273132
-0.00353647
0.000992574
-0.104608
-0.12218
0.0324381
-0.0255292
-0.00747737
-0.0257043
-0.000169643
-0.00708449
-0.000653444
0.38288
8.52154e-05
5.00224e-06
-0.0414627
-0.0197152
-0.028479
0.041184
0.000107261
-0.0975615
0.0618542
0.24515
0.919264
-0.00466458
-0.15358
0.0308888
-0.00205829
-0.00260408
-0.000559656
0.0107275
-0.000142804
0.23326
-0.142647
0.0110638
0.105014
0.139107
0.00156106
0.00229452
6.62275e-06
0.563737
1.06412e-05
-0.044276
0.000400443
0.00174011
0.210052
0.115367
-0.0867251
-0.0383599
-0.00417997
0.987102
-0.0859051
7.46275e-06
-0.0156274
-2.0685e-06
-0.0217437
0.117916
0.252001
0.000995883
-0.0347799
-0.00942474
0.183458
-0.0685714
-0.0321269
0.814638
-0.00992364
9.38172e-05
-0.195905
0.859714
0.0012209
0.107713
-0.0453074
0.144437
0.00202314
0.0247599
-0.0712633
0.0045939
0.0590307
-0.0417288
0.127247
-0.0260314
-0.0195445
-0.000748387
-0.000760242
0.731235
1.63658e-05
-0.0063555
-1.77628e-05
-0.0080704
0.000418028
-0.00736471
0.226774
1.03999e-05
-0.000973911
-0.063253
-0.179589
-0.0270026
0.00123387
0.585441
-0.0646243
0.214037
-0.0117808
0.191132
0.00621846
-0.000696164
-0.130366
0.000867911
0.749037
-0.0282983
-7.64704e-05
0.00240806
0.175344
-0.0111955
-0.000648201
-8.74259e-05
-0.111677
-0.0025458
-0.0100492
-0.0823747
4.30057e-06
-0.0668453
0.000492376
0.475775
-0.0105147
0.182397
0.00433184
-0.00369583
0.308458
-0.0787529
-0.197559
-0.0044097
-0.121631
0.319274
0.322842
-0.0140363
-1.20148e-05
-0.0155005
0.00482312
3.92396e-05
0.0170212
0.534994
0.0130382
0.00171274
0.0034281
-0.0680057
-0.00013512
0.0764199
0.046695
0.070915
0.0136644
0.0284221
-0.000348563
0.222605
-0.136863
-0.186897
-0.000958238
0.0133552
0.1702
0.00089805
-0.0693919
0.276282
-0.0503635
-0.0710698
-0.0695079
-0.138297
-0.13939
0.0566231
0.287157
-0.142472
2.06049e-05
0.000883491
-0.085364
-0.00174165
-0.00232951
1.46947e-05
-0.00570491
0.0041727
-4.5625e-05
0.0632499
-0.000469867
0.145751
-0.035076
-0.00865414
-0.00687473
-0.00845973
-0.0739569
-0.00578138
-0.00102038
0.0222424
0.0857287
0.00425049
-0.0327536
-0.00292329
0.029469
-0.00941498
-0.0192529
-0.0701612
-0.0158125
-9.13222e-06
-0.0151905
0.660332
5.71472e-05
-0.0154481
-0.0737569
0.794347
0.0520089
-0.0453934
3.18591e-06
0.00181753
-0.0992114
-9.79021e-06
-0.00266937
-1.67445e-06
-0.0841823
0.00471709
-0.107918
-0.0228351
-9.72523e-05
0.356567
0.350225
-0.0360961
0.000527048
-0.000137557
1.81272e-05
-3.82748e-05
0.683396
-0.00127742
0.00243428
0.0228779
0.00106074
-0.000553629
-0.0707408
-0.000184063
0.044318
-0.000276392
-0.00205748
-0.000691242
-0.0254058
-0.0416108
0.212382
0.0609654
-0.000131379
-0.0132903
0.000622572
-0.107965
-0.000638727
0.140666
-0.0127518
0.974232
-0.0230644
-0.00141109
0.0833148
-0.019098
0.467043
-0.0422196
-0.0112255
-0.0130229
0.019404
-0.00367109
2.72514e-05
-0.00842625
0.394115
-0.0428703
-0.00323372
-0.0411319
-0.0268306
0.188877
-0.000472077
0.343333
-0.00792803
-0.0719217
-0.000495854
0.0137916
0.0479063
-0.0145682
0.392363
-0.000432276
0.0355034
0.100486
0.000572862
-9.42554e-05
0.77419
0.0539494
-0.00194373
0.0308406
0.0104935
0.000178185
-0.111468
-0.022676
-0.164159
-0.0111889
0.459921
0.00404265
0.0530109
-0.000363998
0.551322
-0.0686602
-0.0053171
0.00653235
0.0335141
-0.0792795
-0.165444
-0.0086369
8.4855e-05
0.89119
-0.0226155
0.000919981
-0.0725167
-0.039198
0.412725
0.00319201
-0.0164581
-3.6257e-05
0.0298233
0.00838128
-0.0381142
0.000907286
-0.00351102
-0.0279578
5.51664e-05
-0.0519456
-0.0015598
-0.0150314
-0.0643492
0.39246
-0.0104063
-0.0176306
-0.0668099
-0.0341493
2.3996e-05
0.000196405
-0.0039225
5.71959e-05
-0.0112877
-0.0976975
-0.00206536
2.86251e-05
0.781585
0.00528237
0.000411812
-1.0575e-05
-0.00215245
0.386594
-0.0513865
0.894608
0.238605
0.0229545
0.375126
1.88641e-05
-0.0155777
-0.000819179
-0.00250033
0.251042
-0.0106918
0.880226
0.328471
-0.0582374
0.359311
0.00846487
-0.0146749
0.00240822
-0.0735247
-0.00403854
-0.0519393
-0.0546132
-0.003078
0.347721
-0.0101938
0.000184811
-0.00441419
-0.000645397
-0.0334409
-0.00013516
-0.00125151
-1.42011e-05
0.19978
-0.166602
0.359293
0.0281632
-0.00280664
-0.0381432
-0.0211616
0.0836927
-0.00311754
-0.00105519
-0.0646705
-0.046855
0.00445492
-0.0423502
-0.00460741
-0.00339665
0.000908557
6.60444e-05
0.163234
-1.24825e-05
0.0638132
-0.000791007
5.45221e-06
0.00216265
-0.000645157
-0.0012147
-0.0168397
0.177099
0.186933
-0.0203884
-0.013073
0.00311209
-0.00522169
-0.0104839
-6.54574e-05
-0.000464872
0.000791174
0.137509
-0.00944622
-0.0601106
-0.0621618
-0.00275393
-0.0304902
-0.0225455
-0.00173157
0.00560089
-0.012774
0.308964
-0.0785286
0.00508337
0.000475972
-0.0398349
0.874157
-0.0103961
-0.0072296
0.00817606
0.0949476
0.00427764
-0.0125138
0.348975
-0.000342603
0.0470081
-0.0269606
-0.0715945
0.00676468
-0.00389319
-0.00569861
0.0448205
-0.00371873
-0.000599829
-0.00612566
0.00266652
-0.000199201
0.0235155
-0.00972208
-0.00207682
1.74974e-05
0.202294
-1.65056e-05
-0.0367413
0.0913444
-0.0283624
0.000208858
0.136368
-0.0566433
0.221408
-4.57289e-06
-0.00416179
0.0243026
0.000225665
0.00525209
-0.00468357
0.0111298
-0.0214495
-0.0327138
-0.010322
-0.00275095
0.0105052
0.0223972
-0.0714175
-0.000160891
0.14291
-0.0407184
-0.00346094
-0.00717642
0.000475634
-0.0813547
0.000104422
0.668954
0.226549
-0.000468292
-0.0224376
6.89546e-05
-0.00222467
-0.00657818
-0.0245274
0.204175
0.0889652
-0.00826762
0.0107974
-0.0723373
0.0349867
-0.016282
-0.0197731
-0.0511936
0.0116142
0.237641
-0.00988386
0.534054
-0.000915421
-0.011212
-0.0566319
-6.09022e-05
-0.000738275
-2.46322e-05
0.530827
-0.010651
0.000338208
-0.0160916
-0.00706459
-0.000298568
-0.0135393
0.297167
0.00106281
0.0114582
-0.0352257
-0.000469074
-0.00471486
-0.000790694
0.896878
0.000260163
4.24703e-05
-0.00206628
-0.0154854
-0.019768
0.000638958
0.000361243
0.0868021
-9.96279e-05
0.00215568
-0.0720033
-0.0530119
-0.0695475
1.91585e-06
0.000419503
-0.0326097
0.0331715
0.411157
0.110143
-0.0337762
2.10903e-06
-0.06813
-0.00264238
-0.0129923
-0.0125734
0.226551
0.633929
-8.09893e-05
0.185992
0.304477
-0.0098908
-0.045047
-0.0267956
-0.0213756
0.000149781
-0.0400667
-0.00902572
-6.04879e-05
-0.00050096
-0.00158073
-0.00188927
-0.000638154
0.391702
0.365533
0.147508
-1.59242e-06
-0.0233617
-0.0388382
0.125532
0.679639
-0.000454225
-0.0203484
-0.0185219
0.263764
-0.0193654
-0.0100683
-0.0373139
0.19221
0.000371103
-0.000455318
-0.0278097
-0.0577476
0.122452
0.0108197
-0.0493092
-0.0263331
-0.0529462
0.0199854
-0.0517577
0.00735004
-0.0885206
0.067498
-0.000300614
-0.000581519
0.0687501
0.000251263
-0.00558782
0.0340141
2.17834e-05
0.155997
-0.0111167
-0.00447999
0.932067
-0.0364796
-0.0129645
-0.0389423
-0.00301352
0.626257
0.0012609
0.87992
-9.55083e-05
-0.0440678
0.887524
0.00722237
0.615748
-0.00579098
4.44663e-05
-0.035366
0.599564
-0.00156535
-0.00670901
-0.00822587
-0.000969177
-0.0220098
0.632846
0.111606
3.28354e-05
0.0199611
-0.00374741
0.0312173
-0.000857264
0.0247359
-0.00259467
-0.000420301
0.596488
0.632384
0.607295
-0.0504428
-0.0778399
0.00019751
-0.0542314
0.371312
0.0133702
0.000306897
-0.0911665
0.000665051
-7.62314e-05
0.636395
0.000167197
0.0044123
-0.00191513
-0.00956899
0.616784
0.619143
0.656895
0.0123418
0.000570451
0.255041
0.00801239
0.0183395
-0.00915535
9.84419e-05
-0.00295314
-1.11316e-05
-0.00457951
-0.000705538
-0.00597761
-1.54288e-05
0.176885
0.0022778
-0.0891623
-0.00948436
-0.0676385
-0.0162498
-0.000738357
0.422241
-0.0107791
5.69849e-05
-3.23158e-06
0.857129
4.49326e-05
0.0119233
0.0533925
-0.0178433
0.353841
-0.00527101
-0.0416187
-0.036213
-0.000482
0.000166735
0.337482
0.646996
-0.00150387
-0.024713
-0.000198954
0.618534
0.817815
-0.00140085
-0.00675185
0.0203692
0.00316373
-0.0243572
0.00012946
0.0106428
-0.0374054
0.0535932
0.389261
-0.00147189
0.030349
0.0421207
-0.0251429
-0.0426448
0.0294874
0.789156
0.190487
-0.0497793
0.618784
-0.00053642
0.67778
-0.00818752
0.524324
0.0713281
-0.00508402
0.0285477
0.00257955
0.0185471
-0.0682271
-0.000627114
-0.0230355
0.486776
-0.0267842
0.0162284
-0.00144602
-0.0812136
0.179188
-0.0092722
-0.147381
0.000795524
-0.0036683
-0.0235867
-0.00211176
0.0020908
-0.00877426
-0.000456972
0.00259406
0.510775
0.00222013
-0.015598
-0.0590944
-0.0288707
-0.0591083
-0.100492
0.00439397
2.10141e-06
3.8618e-05
0.298237
-0.0701948
8.68008e-05
-0.104001
0.209565
-0.0601219
-0.0148129
0.000152752
-0.00185533
-0.0439354
0.132936
-0.0097479
-0.000434654
-0.043807
-0.0200445
0.897565
0.125203
0.0680467
-0.0558096
2.84781e-07
-0.00662373
0.0695506
-0.000327018
3.02159e-05
0.187052
0.102489
0.00069211
-0.000812895
0.0047542
-0.046447
0.0104567
0.00759374
-0.0147786
7.82649e-05
0.199361
0.000658547
-0.000583423
-0.000183497
-0.000180389
-0.000111285
0.0888109
0.00100154
-0.00272449
-0.00935067
-0.00505895
0.0291858
-0.00529641
-0.0397605
-0.0101607
0.550141
0.435173
-0.000434251
-0.00141428
0.0989295
-0.000750073
-0.023394
0.0241782
-0.0315828
-0.000904872
0.0213711
0.0418883
0.00136848
0.0542629
-6.1918e-05
0.00767815
-0.0429759
0.0139574
-0.0143768
0.051764
0.000105269
-0.000948358
0.000345771
-1.30132e-05
-0.00159371
-0.00938514
-0.0123479
-0.0283695
0.0181098
0.0349745
0.00945499
-0.0732785
0.0092627
0.00358867
0.0131689
8.36642e-05
0.638231
-0.00801263
-0.00312994
-0.0633157
0.90925
1.05915e-05
-0.00178182
3.36646e-05
-0.0796374
-0.00616985
-0.0215575
0.186471
-0.0038001
3.27908e-05
0.0604518
0.0769773
-0.000484635
0.0533215
8.98871e-06
0.184408
0.00500851
-0.0274337
-9.45301e-05
0.240909
0.0290549
-0.0192507
7.2336e-05
0.189725
0.367373
-0.00102712
1.14479e-05
-0.0348989
-0.00852104
-0.00392157
0.015478
0.682275
0.338478
0.000531262
0.332832
0.241266
-0.00266148
-0.0502122
-0.042208
-0.0171283
-0.0637355
0.00321591
0.000866579
0.705941
0.146075
0.0122429
0.000155897
0.000685973
1.48122e-05
-0.000473402
-0.00259827
0.756686
3.85176e-05
0.0837421
0.0273282
-0.000172754
0.676183
0.815187
0.217483
0.266213
-0.101344
0.00248698
-0.000221866
-0.0103796
7.36614e-06
-0.000987546
-0.173812
4.0261e-05
-0.00203787
0.706961
-0.010872
-2.39269e-06
0.761959
0.000504616
-0.0321704
-0.0672544
-0.00118622
-0.097201
-0.000180952
0.0656594
0.00330952
-0.0178978
0.00195193
-0.000560091
-0.000311642
-0.000167059
-0.173009
-0.0572183
0.172939
0.00269911
-0.0129037
0.234797
0.000102473
0.862853
-0.000462967
-0.0748659
0.00224724
0.00165314
0.0519849
0.0541737
3.54524e-05
-0.00389464
0.00014172
-0.000580818
0.000879361
0.086868
0.0496537
0.377189
-0.0565687
-6.24795e-05
0.000204763
0.104565
0.340727
-0.00409327
-0.00581746
0.868317
-0.00254417
-0.0189573
0.000809837
0.0306722
-0.0582751
-0.00790868
0.177456
0.00135515
-0.000174699
0.00166964
-0.0802401
0.834314
0.640899
-0.0221342
-0.0441644
-0.00607628
0.00157767
5.30633e-05
0.0777932
0.192571
3.54625e-05
-0.00673437
-2.11951e-06
0.000178749
0.585084
4.08631e-07
-0.0864426
-0.066836
-0.12065
0.0705006
2.75178e-05
0.00954985
-0.00587355
0.52554
-0.0351632
0.00486986
-0.0283056
0.000669752
0.357055
0.242892
0.00977477
0.0387336
0.713021
-0.0618519
-0.0590699
-0.00172418
-0.00645256
-0.00028669
0.0125954
-4.48852e-06
0.185868
0.00284819
0.166205
-0.0337597
1.80021e-06
0.0493693
-0.000110625
2.40041e-05
-0.000643878
0.840952
0.803152
0.238672
8.37842e-05
0.0988373
0.675701
-0.000851114
0.000572375
-0.00775896
0.031195
0.599985
-0.0253732
0.129889
-0.00242739
-0.0582093
-0.0655951
0.946451
-0.000505438
0.631176
0.0907526
0.217304
0.000175888
0.000247959
0.00513743
-0.00827392
0.0822278
-1.41811e-05
9.29135e-05
0.623056
-0.136753
0.000343844
0.658835
-0.00210204
0.000194162
0.462343
-0.00740736
-0.00140479
-0.0911307
0.0708311
0.000350585
-7.76613e-05
0.00325885
-0.00368302
0.611376
0.834004
0.247354
0.925457
-0.00548767
-0.0416347
0.724539
-3.43061e-05
-0.00298648
0.0107191
-0.00318429
-0.000552805
-6.14303e-05
0.649723
-0.0018386
-0.000543583
0.80928
0.0770835
0.0902264
0.0422101
-0.00245348
-0.019246
0.117421
0.0662508
0.632032
-0.024611
-0.000668552
0.582291
0.460647
0.0118233
0.401404
-0.0386945
-0.00710873
-0.00896499
-0.000537295
-8.85621e-05
0.593647
-0.0591469
-0.0451009
0.000695153
0.164107
-0.0283838
-0.0238896
-0.000892447
-0.00398296
0.677875
-0.000683808
-0.016176
-0.0027124
0.649034
-0.0183864
0.0191387
-0.006843
0.00139605
0.163711
-0.0199538
0.711302
-0.032012
0.919152
0.295511
-0.0530331
0.0302084
-0.00159219
-0.012014
-0.11363
0.624495
0.673099
0.779204
0.257818
0.603677
-0.000277349
0.725128
-1.13245e-06
9.54925e-05
-0.0434667
0.787682
0.0496037
0.231724
7.28485e-05
-0.00192784
-0.132937
-0.0366346
0.614233
-0.000574969
-0.00698823
0.229559
0.00104509
-0.00387501
0.886368
0.0456642
-0.0496916
-0.209512
-0.000432772
-0.0139941
-0.0586713
0.931249
-0.0328432
-0.0234719
0.0038051
-0.000175822
-0.0178785
0.205967
0.00367535
0.000157937
-0.137983
0.278417
-0.00130955
0.618195
-0.0783224
0.63171
-0.0446542
-0.0212567
0.721957
-0.00485217
-0.0473119
-0.000314135
-0.00115999
-0.0553714
-0.0203755
-0.0323077
-0.00893282
-0.0164222
-0.143131
-0.0625351
0.614437
0.000302867
0.000772335
-0.0191726
0.111089
-0.145297
-0.0526934
3.23812e-05
-0.144974
0.0434173
-5.50858e-05
-0.0953655
-0.141315
0.643728
-0.1276
0.601035
-0.0124886
0.0677428
0.285248
-0.0309891
0.171728
-0.00162045
0.0456109
-9.81801e-06
0.0842145
0.197613
0.185423
-0.0259741
0.00565831
-0.000557036
0.191188
-4.91496e-05
-7.95007e-05
-0.000889722
-0.0280254
0.0114417
0.0136046
0.500985
0.130125
0.849874
0.451995
-0.00134337
-0.0285711
-0.000106247
-0.0441388
-0.00116313
0.00537317
0.000653909
-0.0338852
0.371666
0.636107
-0.000221307
3.25551e-05
-0.0314226
2.45439e-05
-0.00822054
-0.000117778
0.107032
-0.0314746
0.202134
-0.102803
7.17538e-05
-0.0123344
-0.0353328
-0.0257588
-0.0146763
-0.0455398
0.0165574
-0.000113065
-1.63258e-06
0.00197899
-7.80402e-05
0.0544858
-0.0265325
0.0345533
0.777531
0.0402405
-0.161668
-0.0742462
-0.00033799
0.0481505
-6.95085e-05
0.563725
0.0964464
0.695836
0.000176355
-0.0291717
-0.00604034
0.0427113
0.0171856
0.473987
-0.00677971
0.0185816
-0.00163618
-0.0188271
-0.00710975
-0.00539261
0.104701
0.0015166
-0.00919534
-0.0181416
0.0935492
0.0434391
9.34207e-06
-0.000738998
-0.00548843
-0.000495346
0.0870856
-0.000548883
-0.0386116
0.117422
9.90579e-05
0.246393
0.000109781
-4.29063e-07
-0.0920743
-0.0231567
0.000192563
-0.0200191
0.000205152
0.732864
0.0113398
-0.0211418
0.698178
0.126381
-0.0274544
0.491804
-0.00240602
-0.00162541
-0.00179898
0.0694789
0.98379
-0.00127443
-0.000479849
2.96173e-05
0.00716986
-0.00106091
0.0235013
0.00564099
-0.0183755
-0.0518378
0.0166117
0.00917328
-0.0167945
-0.00042808
-0.065441
0.40746
-0.00156551
-0.01212
-0.000164197
0.510905
0.0454411
0.410801
0.000445824
-0.000696258
-0.0215081
0.785241
0.143776
-0.0249655
-7.93633e-05
0.0280896
0.0341114
-0.042923
0.187161
-0.0410025
0.0157764
-0.168783
0.478771
-0.0163405
0.258241
-0.00277175
0.919144
-0.0357624
-0.00968486
0.695385
-0.0373188
0.165409
-0.182096
0.190561
0.0059029
0.0447131
0.35039
0.0457162
-0.041268
-0.00850826
-0.00686699
-0.0201182
-0.0383781
-0.00138229
-0.0515243
-0.0245294
0.00181601
-0.0568899
-0.071917
-3.78351e-06
0.00168986
-0.00803276
-0.023516
0.679719
0.368021
-0.0458513
-0.0625961
0.000482862
-0.0934443
-0.00430931
0.891579
-0.0307728
-0.0263079
0.369873
0.0442244
-0.0364692
0.129293
-0.0320502
-0.00051664
-0.0102938
0.00905817
0.000640095
0.389138
-0.00235135
0.141801
0.205858
-0.00497063
0.258757
-0.119937
-0.000289207
0.00604064
0.0309311
0.275298
-0.00218823
0.0576891
-0.0637578
0.0477022
-0.0203338
0.390991
-0.0157353
-0.112272
-0.00322607
0.00020535
0.603818
-0.00214019
-0.037592
-5.62879e-05
0.221515
-2.57211e-05
-0.0483424
-0.00472429
-0.194211
0.000642336
-0.00945055
0.103744
-0.00345364
0.00090381
0.000628736
-0.00363881
0.00201777
-4.64619e-05
5.15789e-06