/*--------------------------------*- C++ -*----------------------------------*\
  =========                 |
  \\      /  F ield         | OpenFOAM: The Open Source CFD Toolbox
   \\    /   O peration     | Website:  https://openfoam.org
    \\  /    A nd           | Version:  7
     \\/     M anipulation  |
\*---------------------------------------------------------------------------*/
FoamFile
{
    version     2.0;
    format      ascii;
    class       surfaceScalarField;
    location    "7";
    object      phi;
}
// * * * * * * * * * * * * * * * * * * * * * * * * * * * * * * * * * * * * * //

dimensions      [0 3 -1 0 0 0 0];

internalField   nonuniform List<scalar> 
172499
(
201.431
54.5079
-255.939
-473.775
102
371.775
-111.223
-78.0053
189.229
113.136
-278.553
165.417
-435.639
323.646
111.993
138.226
-337.154
198.928
-152.568
285.777
-133.209
-82.8794
192.529
-109.649
-363.398
351.948
11.4492
-465.119
-8.65662
-229.99
354.5
-124.511
494.982
-360.233
-134.748
-169.797
341.176
-171.379
90.854
-91.9972
1.14319
-43.9872
-319.411
-107.836
62.4363
45.3997
-456.097
86.4733
369.624
-411.594
77.0128
334.581
-125.045
286.335
-161.29
-331.938
-103.701
-74.6331
180.513
-105.88
199.3
-197.232
-2.06745
392.834
-290.292
-102.542
160.166
-313.542
153.376
-235.493
205.006
30.4869
-116.507
222.278
-105.771
66.0095
70.0689
-136.078
-207.238
460.703
-253.466
-263.26
-175.894
439.154
-55.0765
100.181
-45.1045
427.829
-342.037
-85.7924
-243.442
-68.0182
311.46
-267.683
405.322
-137.64
-101.19
-76.4502
177.64
-81.0756
-96.2018
177.277
182.21
95.4931
-277.703
-221.586
87.4295
134.156
-99.6668
-356.43
111.406
-142.534
31.1281
111.513
203.502
-315.015
157.011
-400.453
-57.5881
-354.006
-130.834
-36.527
167.361
-119.087
301.297
-40.565
103.234
-62.6689
-2.4754
93.3294
264.601
64.7666
-329.368
543.082
-303.161
-239.921
397.706
-147.99
-249.716
414.123
-534.064
119.941
-390.72
478.2
-87.4799
280.004
-101.776
-178.228
-469.927
327.568
142.359
-504.4
451.004
53.3966
-118.743
-166.471
285.214
-314.421
-155.506
551.872
-363.897
-187.975
-133.52
81.6647
51.8554
83.4084
73.5834
-156.992
128.681
-230.372
101.691
-515.36
327.472
187.888
-186.314
331.333
-145.019
346.044
-129.413
-216.631
-105.385
186.378
-80.9932
295.891
87.1775
-383.069
9.4176
-401.172
391.754
-351.753
197.122
154.631
-217.563
396.201
-178.639
77.0934
-140.844
63.7507
-533.075
253.342
279.733
-110.814
199.524
-88.7096
193.047
-148.438
-44.6085
365.898
-254.384
-136.013
68.5372
67.4755
-92.5054
-92.3741
184.879
81.2066
-165.442
84.2355
-202.018
48.2511
153.767
202.418
-403.036
200.618
-249.773
-137.405
387.178
-288.171
214.496
73.6746
-76.2456
-211.925
429.789
-432.786
2.99684
42.5639
-84.8617
42.2978
-305.022
555.786
-250.764
-137.404
240.966
-103.563
342.474
152.508
-109.829
178.418
-68.5889
-324.474
472.879
-148.405
106.134
-118.704
12.5694
-86.6937
441.522
-354.829
130.707
-5.16805
-125.539
202.811
-20.1867
-182.625
206.535
-469.795
221.39
50.1477
-271.537
-420.598
315.231
105.367
-574.927
416.859
158.068
261.99
-321.834
59.8443
95.5529
-52.989
83.6044
-158.453
74.849
0.168168
105.966
-314.481
-200.878
198.456
-432.676
234.22
327.834
-178.616
-149.218
-485.209
499.092
-13.883
99.6217
-210.436
168.307
-90.7203
-77.5871
-503.839
312.44
191.399
-36.7917
101.469
-64.6774
-143.215
225.355
-82.1401
-311.337
-71.1366
382.474
-120.82
228.384
-107.564
-54.6633
316.653
-171.63
-30.3883
135.022
106.189
-241.211
-112.424
46.7718
65.6517
205.144
-345.601
140.458
-307.595
77.6056
-88.1985
214.854
-126.655
363.997
-541.563
177.566
47.5848
145.462
-206.842
118.644
-67.8066
-40.0294
-223.532
115.052
108.48
44.5274
-166.17
121.643
-230.664
532.61
-301.946
-111.446
56.3692
-265.152
78.8375
-116.958
72.7707
44.1873
-181.133
-41.7048
222.838
-504.402
507.103
-2.70146
-104.97
232.954
-127.984
567.147
-287.747
-279.4
-171.503
181.2
-9.69723
538.941
-196.467
-329.438
480.843
-151.406
-123.502
227.713
-104.21
-260.982
182.386
78.5956
61.9363
-329.619
148.413
-267.156
182.764
148.569
83.7384
48.4319
-132.17
-190.738
341.056
-150.318
502.976
-504.536
1.55947
377.611
-196.824
-180.787
-264.007
159.037
141.96
-532.68
437.539
-330.574
-106.965
-115.805
-149.347
-449.116
231.553
-226.819
-167.389
394.208
108.738
59.5696
54.4548
-95.0198
7.6
195.211
-567.956
273.279
294.677
133.209
146.794
-359.046
426.743
-67.6972
-412.193
100.855
-66.4922
216.603
-150.111
133.622
-133.782
0.159932
-152.184
109.57
42.6136
151.358
-70.1513
138.229
299.31
158.375
187.669
-188.254
147.906
40.3479
264.018
-144.489
-119.529
139.924
173.447
-313.371
442.439
-257.219
-185.22
-59.1205
-107.084
166.205
-186.605
120.113
-241.814
124.806
117.009
-241.909
156.857
85.0518
-100.999
365.6
-94.308
-27.4145
121.722
26.6386
62.4374
-89.076
-70.3878
-83.9625
154.35
218.136
-433.986
215.85
-73.6112
100.25
193.923
85.6478
-279.571
115.285
-333.175
217.89
277.438
120.267
-287.548
-131.765
419.313
-191.009
98.5034
141.998
-257.215
115.217
-205.113
412.449
-207.336
-268.101
-235.739
-162.499
384.88
-222.381
95.3052
-261.995
166.69
311.897
188.103
-134.706
323.131
-188.425
122.817
7.89071
-105.958
299.881
-338.787
189.507
149.279
450.828
-162.891
-287.937
-203.772
116.469
87.303
-228.961
112.454
72.3633
-130.685
58.3217
21.2228
-94.834
-173.131
163.988
9.14279
56.7518
-147.779
91.0271
81.5217
138.7
-220.221
-566.37
386.585
179.785
-195.242
361.655
-166.413
361.5
57.2804
-418.78
481.284
-479.316
-1.96735
-338.704
169.063
169.641
136.404
-91.5639
-44.8401
369.995
-271.429
-98.5656
-87.2975
383.189
-211.677
-195.738
407.414
99.2219
-208.411
109.189
-70.0667
91.2895
41.8547
270.586
14.8624
-250.356
-384.203
297.51
-161.767
-65.3489
227.116
-86.1691
-117.603
-99.0739
249.753
-150.679
-183.934
-136.134
320.068
80.8311
-83.3065
-123.592
-261.447
385.038
132.252
7.32734
-139.579
136.013
-1.13681
-134.876
135.801
-329.689
193.888
-75.9781
139.826
-63.848
-73.5443
-430.856
-183.504
22.1475
161.356
-198.67
-82.09
280.76
185.624
-68.5354
-117.088
137.808
-65.4447
-348.791
96.9241
251.867
-0.23221
-411.156
411.388
67.7724
-118.325
50.5528
45.1314
-125.554
80.4222
85.2307
-176.884
91.6537
-234.681
122.361
112.32
-225.636
-340.735
-641.818
285.472
356.346
392.423
-205.205
-187.218
-53.7861
159.84
-106.054
239.912
-166.425
-73.4865
-43.3812
145.614
-102.232
-292.236
164.232
128.005
-115.433
-36.7502
149.252
-65.6474
278.322
-217.325
-60.9969
-234.828
407.61
-172.782
443.702
-218.881
-224.821
135.522
-86.9782
-48.5439
-162.545
103.425
-63.6743
-34.0832
97.7575
197.866
287.34
-485.206
-370.616
241.058
129.558
225.666
-528.225
302.558
387.361
-236.857
-150.505
120.242
-79.0024
-41.24
-5.49838
-282.05
-72.2324
173.296
-101.063
-559.79
298.327
261.463
503.667
-503.667
-185.058
102.179
369.535
-375.034
-3.94659
84.7777
-476.275
271.162
-124.243
120.76
3.48295
39.6461
-182.861
258.151
-145.016
-102.673
147.201
179.63
-280.034
100.404
101.963
94.4218
-196.385
-98.6582
202.933
-104.275
415.219
-131.529
-283.689
-325.152
190.446
427.926
-150.488
-220.636
-71.6003
141.627
177.691
-319.318
-189.007
104.213
84.7943
43.4679
-99.8002
56.3323
-170.142
99.7541
-248.641
297.86
-49.2189
77.5077
-114.299
-122.367
-65.887
97.1895
184.561
-404.789
220.229
69.4588
66.9452
456.563
-254.342
-202.221
172.786
205.467
-378.252
60.0794
-243.583
495.199
-505.128
9.9292
117.33
-69.1793
-48.1506
97.0984
-145.933
48.8343
109.238
-65.7699
-500.323
66.1264
434.197
-163.189
28.2917
134.897
363.867
-322.012
-258.632
409.614
-150.983
-479.015
302.296
176.719
364.348
-244.495
-119.853
-137.721
-212.432
350.154
-161.809
345.171
-183.362
-225.672
127.014
-70.4091
-22.9388
93.3479
108.603
-192.555
83.9517
-59.1166
129.095
-69.9785
309.262
-193.197
-116.065
84.1544
40.3272
-124.482
-126.802
277.212
-150.409
-251.341
163.804
87.5374
112.763
72.8606
97.7807
-124.326
26.5451
-171.575
286.86
-91.9362
-187.656
279.592
118.193
19.5036
-137.696
-97.5601
158.168
-60.608
-152.077
98.2914
-330.409
160.613
-180.578
346.3
-165.722
341.303
109.525
177.603
-412.432
273.052
-112.886
-174.237
119.804
54.4326
-5.51152
-175.906
181.418
262.775
-386.367
-58.3112
419.811
-34.2108
-78.2127
179.511
70.8127
-250.324
-143.697
60.0812
83.6163
-367.36
8.31423
194.027
-409.034
215.007
29.6357
-100.045
-147.926
-15.2629
194.262
-286.199
-432.877
-67.4464
141.626
229.505
-371.131
219.119
145.229
129.28
-59.7271
-69.5525
172.541
101.861
-274.403
-251.833
164.307
87.526
80.3377
-357.614
277.276
353.02
-214.794
243.443
-148.138
84.3951
107.77
-192.166
-130.894
265.254
-134.359
124.511
-58.5012
92.066
-182.401
90.3353
266.285
-89.0119
-177.273
-170.111
-212.998
383.109
-174.775
-73.8663
-74.1418
-30.3145
104.456
79.732
49.0118
-128.744
320.58
-173.618
-146.961
-209.312
37.8091
-507.27
346.494
160.777
363.672
5.86357
170.489
-290.507
120.019
184.546
-103.025
182.554
88.9751
-271.529
-48.4859
249.917
-105.321
-299.559
404.881
-171.185
388.665
-217.48
-113.786
260.758
-146.972
-171.768
278.521
-106.753
145.633
-97.1346
-48.4986
-149.006
-72.5796
-142.841
83.9475
58.8931
268.302
-153.561
-114.742
-438.08
332.758
-161.24
163.994
-2.75335
-186.287
111.284
75.0028
303.961
-168.161
-168.961
473.04
-304.079
195.934
-88.4933
-107.441
62.0805
85.2171
-147.298
73.2942
62.2279
25.6773
229.918
-255.595
92.5262
103.364
-195.89
62.7782
305.914
-368.693
147.256
510.417
-96.2942
225.935
95.7282
-321.663
-139.265
296.539
-157.274
136.516
-68.7438
213.513
-119.289
-94.2236
-79.8466
202.686
-122.839
137.133
-250.919
395.291
-222.505
-371.34
369.349
1.99147
135.908
-90.7769
-58.0008
-38.7971
96.7979
488.736
-165.09
-64.7645
183.65
-118.885
-227.252
423.98
-196.728
270.676
176.832
-447.508
68.1731
-178.003
-453.079
245.842
-21.6159
157.629
-324.882
187.567
137.315
3.63509
94.1456
-316.522
-131.981
448.503
267.753
160.173
-75.9202
-84.2058
160.126
97.8319
1.83445
-99.6663
-242.299
354.727
-112.427
119.783
-116.272
-3.5112
-158.654
387.531
-228.877
-122.459
127.89
-5.43051
56.1855
119.879
-176.064
142.046
-471.483
-170.304
261.607
-91.3031
-96.8975
246.097
-149.199
-133.569
197.971
-64.4014
254.57
-161.592
-92.9781
-274.732
87.0764
237.47
-407.581
-39.2457
214.095
-174.849
-225.957
88.5537
196.632
101.229
381.679
-113.926
78.1795
-132.337
54.1571
353.319
69.9316
-423.251
-196.698
405.872
-209.174
-232.839
-267.157
22.8059
-92.8726
601.488
-379.283
-222.205
-43.4391
130.319
-86.8802
-156.279
58.7187
299.761
-388.503
88.7419
-133.661
189.846
-393.124
377.191
15.9327
328.441
223.431
147.788
157.237
-305.025
-504.557
382.501
122.056
-352.559
426.18
-73.6207
-99.3739
252.891
-153.517
180.635
-67.8717
129.255
180.007
125.454
-295.758
-125.6
268.669
-143.069
382.799
218.69
336.287
-330.416
-5.87084
325.154
-529.537
204.384
341.528
-139.11
-102.331
-402.071
62.3998
-214.554
152.154
80.5393
-156.46
357.427
99.1359
178.525
-81.5421
-96.9834
238.119
169.492
134.614
233.67
-368.284
-104.366
375.042
411.209
-193.073
-409.488
18.2508
391.238
-291.196
-180.976
472.172
421.568
-291.821
-129.747
489.583
-249.349
-240.234
-68.8716
-93.6736
-60.0744
272.701
-212.627
59.727
80.6472
-140.374
84.3063
-141.991
57.6849
157.891
152.808
-310.699
-185.27
31.3567
153.913
30.7076
89.0752
412.058
-173.94
374.955
113.781
-263.808
-151.472
415.28
-33.7173
151.91
-172.911
98.2784
-160.93
-219.959
380.888
-25.3132
87.7506
-38.0117
-147.258
166.338
-457.534
198.593
-34.5583
-56.763
91.3213
218.06
-58.2208
-91.1721
-44.8406
-258.818
133.218
-102.061
281.572
-324.717
499.955
-175.238
261.338
-422.268
395.815
-197.359
104.464
193.604
-298.068
-141.39
68.7642
72.6256
-367.321
488.641
-121.32
307.412
-227.074
554.484
-227.447
-327.037
114.804
103.256
358.803
-116.887
-241.916
-271.775
434.525
-162.75
137.479
-241.415
103.935
-163.937
32.2601
131.677
-149.784
-75.8879
152.907
-395.292
242.385
11.0391
-119.852
108.813
453.529
-191.1
-262.429
302.974
-475.125
172.151
-227.671
188.425
90.6782
105.256
102.708
-5.36479
-97.3436
253.938
-118.917
250.051
142.371
322.862
-180.714
-142.148
-326.93
217.413
109.518
-486.75
398.868
87.8825
184.6
-99.3693
-111.7
187.378
-75.6774
-179.061
-72.2803
346.235
-46.4738
119.423
10.6425
-130.065
-117.57
201.966
-127.142
83.7608
-527.318
360.073
167.244
311.594
-141.106
226.531
160.83
161.177
-398.034
-474.621
238.101
236.52
-247.128
162.118
85.0101
112.503
-41.2348
-71.2679
-219.024
-203.115
422.139
100.918
145.013
-245.93
-407.096
282.554
124.543
-272.205
-134.891
-561.426
373.375
188.051
-282.139
103.079
585.897
-299.753
-286.144
-148.311
-177.232
325.543
-132.927
138.044
-5.11682
-165.727
274.932
-109.206
-254.608
155.234
-413.367
308.403
104.964
103.019
91.2519
-194.271
-369.759
194.534
175.225
-111.983
-129.926
142.772
-104.303
-38.4693
276.4
105.279
573.967
-316.412
-257.556
253.318
-519.76
266.441
56.5708
-118.431
61.8602
96.5916
6.1168
-61.951
146.193
-84.2418
272.971
300.996
72.7331
-173.923
-285.948
155.053
115.623
-38.5297
113.058
155.244
347.273
82.5156
108.779
71.8555
40.6116
-187.565
146.953
365.262
-514.238
148.977
-60.9171
326.106
-265.189
-34.1829
118.489
174.649
379.835
-147.175
359.028
-211.853
63.5534
-163.126
99.5723
-340.971
-300.847
-65.2132
-34.8052
100.018
6.76774
-139.695
-107.652
118.691
177.507
-85.4413
179.583
-327.894
-139.33
79.8355
59.4942
-351.827
-87.7306
439.558
-338.278
521.843
-183.565
108.806
-370.501
261.695
49.9208
-139.299
89.3785
-109.012
-239.779
287.608
112.984
-400.592
175.7
-113.3
250.471
-141.548
-108.923
553.007
-187.429
-365.578
-368.727
51.8146
316.912
331.658
90.7262
-422.384
-476.994
496.91
-19.9155
-146.148
-77.3835
-92.0942
194.057
142.532
180.33
248.483
-533.166
284.684
376.899
-367.481
460.357
-172.748
552.926
-298.792
-254.134
-224.017
245.452
-21.4345
-51.8595
171.282
-88.6368
-258.819
347.456
56.7785
446.889
-65.5231
-86.5544
141.516
-81.7886
317.504
-159.613
131.452
56.9345
-188.386
166.822
-226.896
-67.3199
-97.436
164.756
552.659
-552.659
-2.78568
-119.674
281.302
-168.832
-112.47
-307.901
-171.113
-162.239
93.3676
-366.23
-118.979
-75.0408
137.121
207.244
-295.183
182.009
113.175
8.50855
-401.633
130.482
101.049
-231.531
87.1256
115.807
129.144
-45.4057
-66.2849
-302.442
69.7547
-244.255
174.5
-18.1685
-391.32
-298.353
151.177
-132.155
-184.055
316.21
109.617
238.507
-348.124
-328.357
500.845
-172.488
-88.7273
-35.5152
-70.3262
101.154
-30.8274
-100.299
182.002
-81.7025
227.918
169.332
-397.251
314.912
-210.448
405.906
-186.787
-304.334
-200.223
147.03
-272.075
-166.71
85.6345
-412.928
308.101
104.827
83.976
-435.803
90.211
147.463
-237.674
-222.136
-153.158
375.294
39.4677
-98.5842
125.343
-159.06
-113.083
-224.925
338.008
-301.836
240.919
-99.0676
-53.7921
152.86
-188.263
107.944
80.3183
358.193
-517.215
159.021
318.478
-211.164
-107.315
155.533
288.169
84.9566
80.8867
-165.843
387.223
-160.692
146.879
-514.2
252.66
-182.905
155.84
162.638
-64.6924
-348.235
215.553
-374.883
159.33
407.867
-236.388
-171.48
75.1825
-260.463
185.281
-228.926
-10.1175
239.044
64.1875
-153.084
88.8965
84.2452
-161.852
77.6064
193.547
212.359
-48.4083
146.24
-334.254
418.229
135.776
234.11
-369.886
-104.449
309.593
75.8148
104.227
-180.042
41.7804
-314.686
272.906
-139.812
146.58
278.664
-457.987
179.324
-91.4367
222.889
275.23
-455.241
196.609
-99.5332
-0.667135
100.2
35.9287
121.183
-157.112
216.819
236.71
-111.785
187.599
339.932
-28.4616
-311.47
-124.026
444.717
-320.691
101.937
290.898
44.8569
227.844
315.87
133.81
-449.679
328.195
-268.037
-60.1577
-32.4108
-128.83
-208.427
84.9248
-78.4836
-30.5679
109.052
13.2029
-91.6866
-312.565
173.3
-75.3644
-173.566
248.931
196.888
120.665
-317.553
-222.595
-47.5938
270.189
-153.109
87.5857
81.5658
-181.865
-84.001
-318.659
402.66
-77.2383
-143.398
517.555
-238.891
-71.4278
72.4161
54.6212
-127.037
-173.208
80.8488
92.3594
73.5238
-92.4809
18.9571
105.956
172.999
-278.954
-187.583
106.833
80.7499
-135.931
318.485
-96.9714
-124.129
221.1
-325.573
-207.502
-243.149
128.796
114.353
-229.281
527.003
-297.722
442.288
-289.381
-72.4263
-94.7414
167.168
-75.8191
105.455
-184.018
323.422
-139.404
-118.914
268.092
-149.178
163.05
-67.6134
-95.4363
-250.674
359.48
139.305
-83.6221
-55.6831
-274.152
280.064
-5.91191
-275.667
123.099
196.862
9.52693
-206.389
-196.446
384.999
-188.553
126.274
-61.5461
-64.7281
226.785
-466.982
240.197
-497.838
173.364
165.088
-32.8364
-140.723
0.910396
-190.387
89.316
101.071
-149.2
364.753
144.078
-80.5247
80.9046
-415.158
-44.5321
-65.1993
109.731
-105.541
-509.236
357.369
151.867
248.774
79.4211
-305.694
-160.79
466.483
-81.7535
298.798
97.4238
-140.863
-55.4675
-133.54
-232.337
-242.386
474.723
-198.021
-242.956
440.977
-282.916
269.865
13.0514
313.212
-250.434
-298.442
-208.828
340.838
-509.799
97.6605
97.1123
-194.773
-383.308
212.094
171.214
157.591
217.365
-78.569
143.511
-64.9415
-330.357
526.164
-195.806
-182.099
130.995
51.1036
-132.505
47.5312
84.9739
51.1916
-121.518
-63.8831
395.541
90.8129
63.7954
-154.608
501.549
-185.679
-121.148
263.147
-318.692
156.884
-287.045
287.045
-147.11
237.321
-548.824
281.568
267.256
-243.112
-92.6458
335.758
187.26
-146.648
-121.126
127.746
-6.62011
-247.973
76.2054
123.348
-483.581
42.9244
74.4054
-133.842
-314.275
448.117
-232.472
368.248
-245.901
146.828
499.525
-242.042
-257.483
-191.411
-37.5159
149.341
-327.957
-568.425
398.467
169.958
-284.933
-157.244
-203.75
37.8857
165.864
-45.5847
-115.373
160.958
134.598
119.341
-71.84
114.016
-42.1764
-1.28408
66.8914
-65.6073
223.088
-222.134
-0.954502
212.872
-337.854
124.982
63.6351
-175.336
-72.6774
-154.994
105.483
-199.952
94.469
-393.424
-263.691
331.595
-67.9045
84.5792
41.6949
-15.8392
-122.801
138.64
-150.272
-201.481
155.768
-386.667
230.898
-174.167
101.741
85.7412
46.2732
-132.014
39.0714
-138.139
-153.969
235.136
-81.1665
152.777
108.04
-260.816
-154.058
-286.946
441.004
171.139
-421.706
250.567
104.495
-153.034
48.5396
-540.726
308.916
231.81
465.134
-323.416
-141.718
-501.515
176.798
-121.837
119.051
-69.5088
-103.403
306.306
-410.672
-344.524
-130.097
-163.397
-131.786
-380.738
155.946
224.792
-212.114
134.876
-46.3108
307.302
-260.991
-92.5591
-241.693
129.71
171.806
100.657
-272.463
258.814
-454.486
195.671
195.79
-96.5681
-316.204
105.04
224.246
-95.5648
-327.571
-112.146
439.717
383.572
-227.803
-331.868
336.49
-4.62206
-70.5913
123.663
-53.0721
-380.264
167.266
-312.48
126.478
186.002
133.525
-133.525
-194.913
-256.091
451.004
471.547
-390.643
65.4598
-264.13
3.9858
335.946
335.656
217.35
-238.693
-47.2844
285.977
123.237
6.06886
-129.306
-73.5599
140.03
-66.4698
-181.323
110.946
70.377
-323.009
-244.947
-160.711
93.391
116.895
-44.479
-272.62
-302.307
-145.59
83.639
132.496
208.68
74.3393
34.0807
-108.42
-45.2276
134.133
-88.9055
379.748
173.178
-167.998
-114.141
-336.292
-172.944
-156.268
-100.662
256.93
-69.3745
-272.686
342.06
-346.068
184.021
162.048
-91.7222
-104.112
195.834
337.819
-505.054
167.235
209.18
-354.636
145.456
233.261
-412.017
178.756
-80.8153
-52.7048
-238.01
165.333
166.779
-395.12
228.341
-146.45
100.865
-379.783
184.541
-205.443
363.034
-74.5799
138.888
-64.3082
90.0887
-139.19
49.1018
28.4646
-92.1389
-153.992
366.864
483.5
-465.548
-17.9518
-97.8135
147.734
-78.4076
136.316
-57.9088
260.897
-455.81
-55.3108
159.855
-104.545
-149.331
289.254
390.878
-507.239
116.36
228.35
75.3999
-303.75
51.7267
-102.204
50.4778
-35.0335
108.557
58.9692
34.2766
-93.2458
-40.5833
141.889
-101.306
-10.7956
161.012
-150.216
177.201
-71.7173
387.018
-136.967
-68.1564
272.074
-203.917
-303.722
-48.8373
182.443
-102.187
-80.2562
194.386
-299.692
105.306
-239.855
-147.178
387.033
-81.8224
171.911
-273.192
160.182
113.01
230.086
-353.387
123.3
-324.257
203.322
120.935
252.353
-134.335
-118.018
-133.795
66.5832
67.2118
183.175
-394.852
-106.357
-74.8562
181.213
-45.6542
-135.002
180.656
92.3311
-240.651
148.32
-110.492
203.018
186.453
-98.7946
-87.6582
-59.4352
-109.28
168.716
-41.8362
167.179
-163.828
-117.52
281.347
-304.807
-8.65154
313.458
52.116
-109.347
57.2307
169.549
96.7356
117.499
106.747
-90.8104
100.203
-9.39241
-203.75
-55.6411
446.519
-2.83335
114.24
377.399
13.0749
-390.474
388.004
-326.067
-475.383
176.941
54.3772
51.0239
-105.401
-142.081
-32.1559
83.0184
-259.942
176.924
115.445
-379.136
-176.489
-34.3153
262.665
-67.909
264.771
256.547
155.902
-407.916
211.469
-144.467
65.8977
387.861
-162.195
236.909
-100.671
-136.238
259.06
-328.435
299.922
-181.886
-118.036
183.965
-171.824
-12.1413
115.716
-63.5996
-215.256
-235.57
450.827
-192.685
34.5095
158.175
492.508
-485.705
-6.80328
237.704
-67.0528
-170.651
243.619
245.666
-489.285
267.152
-174.821
-164.921
301.11
-136.189
-159.697
307.485
-135.092
220.462
-85.3704
-189.737
-148.967
69.4796
-147.74
78.2601
103.671
-200.642
352.1
119.448
-246.738
-166.629
-61.2061
-112.002
117.312
-42.9731
-172.501
275.644
-103.143
-63.4847
146.893
118.049
-44.3239
-73.7251
-137.465
78.0302
-581.314
375.146
206.168
61.4485
-135.117
73.6687
-178.889
261.907
-67.1485
132.392
-65.2436
72.4948
45.5542
-142.747
363.777
-221.031
-122.574
-98.5528
221.127
-57.6763
-38.9204
96.5967
337.972
-145.283
-192.689
238.258
-82.2535
-156.004
-379.814
-311.813
-163.57
-54.352
-94.0049
148.357
119.091
-308.313
189.222
138.636
-69.1561
-118.9
-2.93683
170.322
-420.096
312.366
-94.9532
-162.518
97.7535
-167.957
82.6011
85.3556
338.875
-129.695
160.426
-128.624
-31.8021
-79.6358
-88.3209
60.995
-127.792
66.7966
97.4369
-166.946
115.576
-64.251
-104.433
168.684
-89.2527
220.973
-131.72
116.521
-35.7714
-80.7498
-269.336
-35.4702
122.949
90.5636
-86.6106
10.7915
-99.8397
210.151
-110.312
-96.9197
100.28
-3.35999
-100.247
-78.1279
-96.1008
174.229
483.665
-385.835
-97.83
420.731
-114.424
137.113
-101.184
-425.697
463.889
-38.1927
-178.808
305.515
-126.707
-235.711
301.171
99.6556
86.7972
-71.3924
-114.895
-93.0395
272.669
-144.431
292.861
-148.431
39.4338
56.5347
-95.9685
-293.237
156.599
136.638
117.838
-61.2672
-81.6429
-66.7951
-218.362
-187.014
405.377
139.38
344.285
-456.036
258.015
239.94
-239.94
-73.9437
83.2471
-9.3034
185.179
-105.148
-80.0317
246
-540.001
294.001
183.112
154.86
-252.715
356.486
-103.771
121.755
-60.307
-204.26
130.244
74.0167
156.959
330.237
-487.196
254.311
-119.714
-317.466
161.401
156.065
89.1341
-181.089
91.9546
281.462
154.927
-436.389
-224.164
101.59
88.6083
-158.042
69.4332
138.677
-179.26
-169.901
397.819
-182.152
106.067
76.0859
174.456
-105.873
-68.5835
-93.3369
367.841
-274.504
332.806
-165.984
-37.8618
106.37
-68.508
180.567
178.01
-358.577
-207.206
-248.829
-90.7766
349.591
98.4126
-184.576
86.1632
-204.94
399.418
-194.478
155.002
-65.8682
318.759
-219.396
-99.3625
136.471
-58.2919
-219.887
-154.519
79.9391
-620.247
303.836
132.786
493.627
-501.544
7.91705
207.838
189.558
-397.395
114.861
45.5653
-375.972
-110.779
146.744
-152.255
13.3822
-296.298
-24.1943
-118.908
143.102
159.563
-296.116
136.554
124.417
274.451
-133.048
88.1638
44.8846
48.429
-183.431
39.5968
-75.0448
35.448
263.419
95.3847
262.704
-174.015
-88.6885
141.602
-77.4147
-392.875
273.826
119.049
-260.075
-360.172
185.265
52.4385
144.505
-455.36
310.855
-61.8686
-80.0156
141.884
34.0119
-125.788
91.7764
287.011
212.514
-2.55637
379.955
-75.5281
-67.0064
426.545
-145.083
74.6918
-127.962
53.2704
-463.711
260.114
203.597
-201.793
-245.42
447.213
-366.489
566.489
-200.001
280.98
146.849
-173.819
249.824
-76.0046
-159.894
260.812
352.003
-277.097
-74.9065
-179.848
290.843
-110.995
-185.423
-153.363
-102.375
-177.74
280.115
82.6217
35.5815
-118.203
184.633
-81.6141
440.44
-378.746
-61.6939
-180.621
110.301
70.3201
83.5887
266.995
-350.583
118.148
-32.4068
347.49
92.9496
-65.8901
154.498
-101.569
-31.4793
-225.966
514.171
-288.205
4.38445
191.661
-196.045
223.06
-390.684
167.623
-81.5598
-41.5906
123.15
289.149
97.8691
-84.2821
-21.6565
105.939
-134.12
117.611
16.5093
-183.765
122.603
61.1622
182.847
384.301
98.9785
-40.0093
-268.898
-123.977
228.567
-443.823
413.728
-509.857
96.1292
66.0741
223.185
-31.8263
-191.359
125.994
-64.9992
80.9048
-408.476
-77.7048
-88.7832
166.488
101.574
-9.14823
-92.4253
-114.306
40.1645
121.34
133.231
153.079
-328.879
175.8
-92.1624
162.386
-70.2231
152.408
-357.348
355.052
-235.96
341.879
-82.8185
-359.858
-199.932
-288.72
470.83
-182.11
429.265
-324.297
-104.968
-9.18342
-340.662
349.846
-336.216
-176.435
512.651
-155.713
-8.22359
70.6174
-31.0207
-504.186
262.164
242.021
-167.208
-93.7743
-75.6498
-58.1452
-46.4814
150.976
-93.0793
166.663
-554.672
382.754
171.918
97.7783
-162.029
-24.1825
90.2678
-66.0853
181.48
-146.385
194.709
-316.529
121.82
322.495
-255.514
-66.981
87.4114
-397.458
310.046
215.766
-98.2669
114.526
255.469
-91.7137
-96.5488
109.336
-57.6092
474.838
-299.268
-175.57
-267.313
364.016
-96.7034
-118.502
192.067
282.77
-417.837
31.8694
385.968
-287.833
-188.441
139.64
-216.893
77.2527
-131.28
-78.0987
209.378
107.617
210.972
-318.59
41.3022
-265.459
-238.727
-89.8374
-31.84
121.677
-204.025
326.209
-122.184
480.761
-174.846
411.318
-64.8242
-296.92
170.117
95.0193
6.55423
-272.083
-34.1027
306.186
57.1894
-373.711
-408.889
137.114
129.713
-16.9207
-112.792
171.954
-274.904
102.949
-108.971
261.748
-458.715
334.689
-74.8496
-78.2343
497.267
-149.777
-240.524
406.76
-166.236
218.333
-342.622
124.289
470.058
-111.865
53.9741
66.2683
-309.276
135.457
351.913
-197.407
-154.506
-172.981
296.565
-123.584
133.33
347.431
167.189
-269.049
101.86
389.868
-107.315
363.33
127.02
-490.351
329.154
-226.152
-103.003
473.642
-502.567
28.9251
124.315
-81.2469
-43.0682
338.406
-228.789
-10.7756
-88.7576
-80.5551
-182.412
262.967
40.8146
-119.897
79.0826
-144.856
63.213
-307.19
474.402
-167.212
-87.2822
-52.0475
-194.635
199.02
107.658
42.2493
-124.05
81.8003
288.674
3.29759
-291.972
-141.371
89.2714
52.0993
-100.811
454.13
179.478
120.444
-144.717
304.28
-236.844
156.997
335.41
52.5935
-159.151
-158.315
16.7435
226.7
-248.825
80.8263
-141.276
241.178
-99.902
56.0679
-131.109
412.559
-204.721
-370.528
376.698
-6.16992
-131.319
494.649
67.7627
-139.18
71.4175
128.226
-68.4967
-141.949
210.446
-151.822
186.447
-71.5866
74.7209
20.0833
-94.8042
64.9904
-126.205
61.215
-252.147
155.249
-99.122
-69.0661
168.188
-267.755
-293.924
127.334
166.59
118.481
-84.4691
51.8174
-113.312
61.4946
54.5566
-185.836
141.624
135.588
-109.953
264.018
-154.065
-137.74
85.9146
51.8258
-76.4355
196.658
-120.222
-375.364
212.865
-181.371
361.938
152.294
-271.392
119.098
246.211
169.917
-416.128
-54.8853
-32.2099
87.0952
331.457
97.8075
333.327
-148.257
-185.071
-157.657
406.19
-248.532
165.087
-70.9643
325.728
-254.764
327.681
121.68
-449.361
474.561
331.169
139.329
-470.498
249.315
-456.521
190.958
-28.5315
-162.427
-338.333
184.286
154.046
-122.425
14.9423
107.483
91.4487
18.5064
-109.955
-64.1345
-77.2553
12.9393
-383.467
-356.346
213.6
61.2895
192.827
-254.117
-377.995
307.031
222.467
123.212
-345.679
-57.5163
108.093
-50.5766
-100.838
-147.682
248.52
568.748
-256.852
63.2514
136.048
-137.794
-280.137
417.931
-122.409
170.838
-222.305
383.944
-161.64
-356.639
42.9773
313.661
-178.025
-279.159
457.184
-64.2742
-68.2309
-564.248
366.717
197.531
300.802
-182.363
-118.439
-123.964
346.431
-168.035
68.9132
111.436
-189.141
146.816
90.0933
-162.828
-490.524
250.995
239.529
-167.333
87.6973
-266.42
97.5883
-299.462
-281.852
-58.1919
-243.644
95.7581
-332.197
236.439
-203.509
-174.037
65.7303
108.307
-245.289
-70.9147
-113.802
-39.5009
153.303
-50.9367
-44.2056
95.1423
-316.4
223.063
17.4717
-88.5861
71.1144
158.246
-190.073
153.695
-365.508
211.813
5.04236
-277.126
-191.727
316.518
-124.791
-238.215
251.597
106.439
-133.003
-89.5329
222.536
400.532
-409.716
109.763
-70.3297
285.353
189.668
-475.021
-80.6506
-86.6825
-78.4163
272.679
364.782
-367.339
95.8569
-4.40824
409.756
-125.6
-284.157
105.725
163.896
-269.621
142.707
-46.4897
-123.823
170.313
272.816
-123.471
-149.344
347.798
42.0705
125.309
-84.4944
-501.726
173.369
67.8589
-135.007
-132.018
69.8456
62.1728
-53.3768
162.575
-109.198
-141.191
-77.4789
218.67
28.48
-97.5047
69.0248
-124.92
43.3599
176.047
-186.673
10.6259
229.132
-280.859
51.7271
-218.793
77.6022
-87.9909
-77.4512
-55.3264
-64.839
120.165
142.565
185.658
199.341
-225.548
179.237
174.442
-131.091
-43.3517
-375.643
267.958
107.685
231.58
-84.1172
336.18
161.087
335.12
102.995
-438.115
-130.324
-133.683
-537.842
251.048
286.795
222.621
-305.668
83.047
142.69
120.014
-95.4333
57.5715
-37.2102
97.2798
-60.0696
-270.468
-219.049
489.517
-410.631
442.3
-31.6692
-267.092
105.325
-128.569
-456.868
-21.4497
478.318
209.61
242.832
-452.442
-123.825
-188.655
-148.135
-145.101
99.7985
-25.0776
-337.286
135.493
-31.4183
168.898
-124.076
-273.175
171.896
101.279
83.7206
67.6373
-130.805
-144.478
275.283
134.939
-92.6896
416.388
-294.501
-121.888
-134.205
352.538
-211.731
-45.4839
457.157
24.1265
-114.499
-75.7289
190.228
454.65
-0.197047
-454.453
-89.9858
323.413
-233.427
117.331
82.3235
-199.655
-374.142
221.808
152.334
-130.778
-108.496
-164.679
141.936
-74.1734
-107.838
290.22
-182.383
139.079
140.816
-279.894
-150.703
-53.5576
-246.293
-176.81
423.103
116.555
476.436
-332.691
-143.746
-153.986
148.657
-93.5679
-55.0895
35.4461
-92.2091
203.745
-271.654
294.421
-352.612
-403.624
345.313
193.638
-317.463
230.879
181.179
437.545
-204.284
-231.433
163.277
95.0877
82.4195
-93.3482
107.847
-161.223
-271.059
289.722
-18.663
-277.072
-21.2802
77.1609
-141.379
64.2177
115.832
286.337
-159.003
247.008
-137.084
-109.924
-78.588
134.656
-269.814
120.648
-189.144
311.207
-62.5133
-248.693
-259.03
468.64
484.789
-148.609
-370.121
267.232
102.889
-22.282
476.932
-220.639
414.666
-86.0418
-203.231
289.273
104.88
-263.279
158.4
12.0372
290.258
-334.611
-247.387
581.998
147.486
-348.071
200.584
-292.789
392.828
-100.039
-118.871
450.04
352.42
-126.485
176.538
-89.576
369.592
-280.016
-77.8915
-63.4792
-240.461
154.821
85.6399
176.89
149.319
60.3892
-59.7064
-279.832
339.538
-386.132
-78.9867
-132.648
-197.926
-337.948
230.11
-412.896
412.896
164.97
-336.228
171.258
180.26
-340.201
159.941
231.809
79.3979
53.6249
39.4179
-93.0428
218.302
-371.459
287.7
-465.725
241.744
-39.058
145.343
158.618
72.7612
197.96
-270.721
125.314
-77.3498
-47.9642
-71.8604
-293.457
365.317
111.246
-182.441
71.1948
-66.62
181.054
-114.434
331.929
4.35856
-78.5776
80.4121
-276.33
321.641
-45.3108
43.7269
147.231
93.5942
17.7047
-111.299
-315.171
-41.468
36.1354