/*--------------------------------*- C++ -*----------------------------------*\
  =========                 |
  \\      /  F ield         | OpenFOAM: The Open Source CFD Toolbox
   \\    /   O peration     | Website:  https://openfoam.org
    \\  /    A nd           | Version:  7
     \\/     M anipulation  |
\*---------------------------------------------------------------------------*/
FoamFile
{
    version     2.0;
    format      ascii;
    class       volScalarField;
    location    "32";
    object      p;
}
// * * * * * * * * * * * * * * * * * * * * * * * * * * * * * * * * * * * * * //

dimensions      [0 2 -2 0 0 0 0];

internalField   nonuniform List<scalar> 
7807
(
0.228124
-0.0214416
0.340822
0.211373
-0.000726252
-5.42277e-06
0.335367
-0.00393263
-8.28401e-05
0.080812
-5.22816e-06
0.00133271
-0.00601059
0.0366078
0.0845529
-0.0134515
0.240049
-0.00810875
-0.00175842
-0.0863521
0.0496545
0.000796537
0.0254313
0.163797
-0.0106175
0.236677
-0.000678157
0.0466414
0.136218
-0.000778454
-0.0162887
0.464581
0.0247912
-0.000312344
-2.29352e-05
0.0647914
-0.000652415
0.32485
-0.00561887
-0.000131711
-0.00545429
-0.0126147
-0.0982137
-0.0806411
-5.74677e-05
-1.72982e-05
0.000774687
-0.00564699
-1.89753e-05
-0.0862854
0.00224581
0.0438917
-0.0133845
-0.0143089
0.0639702
-0.00382314
-0.00157177
-0.00376833
-0.0238712
-0.000303179
3.61768e-06
0.00305029
0.03695
0.00152692
-0.000451028
-0.0164689
-7.08265e-05
-4.21545e-07
0.0554199
-0.00532243
-1.5627e-05
-0.0576022
-0.0103268
-0.0177337
-0.00789531
-0.034232
0.336866
0.0486182
0.0330532
-0.0533178
-0.00582582
0.287018
0.0758793
-0.0203769
-0.00153218
-0.0013431
-0.00444269
-0.0130908
-0.000642715
-0.0027416
0.139416
-0.0914288
-4.48126e-05
-0.0010149
-0.00244136
-0.0162218
-0.054873
-0.0117598
-0.0015969
-0.000576644
-0.0324927
0.0408616
-0.00234725
-1.27592e-06
-0.0812753
0.143509
0.392694
-0.00399332
4.66487e-08
0.0197945
0.198196
-0.0688849
-3.96676e-07
0.0212905
0.143747
0.000123139
-0.0925093
0.11284
-0.0420338
-0.0191582
-0.0312026
0.272974
-0.0935633
0.00689906
-0.0302163
-0.000890133
-0.0140422
-0.000635095
-0.000478737
-0.0163241
-0.146794
0.0342704
-0.000421913
-0.000719681
-0.020914
0.190978
0.329938
-9.07424e-07
0.00592279
-0.0425821
-0.0162856
-0.0565316
-0.0358021
-0.0170493
0.391873
-0.0323016
0.137115
-0.0254971
-0.021229
0.272603
0.0614834
-0.0795251
-0.00146744
0.0346476
0.0755756
0.302736
-0.0407593
-0.00572615
0.40251
-1.63219e-05
-0.00168567
0.169935
-5.72383e-06
-0.00284534
-0.00272904
0.212512
0.21304
0.419674
-0.00296574
-0.0019529
-3.98384e-07
-0.026771
0.000122757
-0.0147749
0.00655291
-0.0210414
-0.058446
0.11702
-5.07799e-05
-0.000397901
0.216655
-1.21812e-05
-2.4401e-05
0.339978
-0.0267501
-0.0549666
-0.0400979
-0.017842
-0.0349355
-0.0434362
-5.52507e-06
-0.0524889
0.12303
-0.00248176
1.13358e-05
0.162535
-0.000736949
-0.0153821
-0.0323261
1.02221e-07
0.000192596
0.196043
0.152371
0.300444
-0.085843
-0.0642114
-0.151158
0.0513959
0.192992
-6.28772e-05
3.20008e-06
0.367558
-0.0114601
-0.000413168
-0.050705
-0.0147744
0.275274
0.280128
-0.0612682
0.451763
-0.000690127
-0.00773731
-0.0328942
0.0625815
-0.122238
0.197393
0.397603
-3.94529e-08
0.00754629
0.121087
-0.00480169
0.110086
-0.000611883
0.453376
0.294837
-0.00423134
0.00014482
-0.000121229
0.11462
-1.90089e-05
-0.00859913
-0.045478
-1.98366e-05
-0.00162754
-0.00053087
0.127286
-7.34752e-06
-0.00283639
-0.0525392
0.45996
0.0264478
0.424818
-6.37437e-06
-0.0342964
-0.000147316
0.31701
0.002883
0.330965
-0.00164514
5.64897e-05
-0.0110229
0.0541407
0.000239079
-8.36571e-05
0.000186348
-0.00510694
-0.0576507
-6.22764e-06
-0.0392652
-0.00261193
-4.93705e-05
-0.000457729
0.324175
-0.00529104
-0.000349755
0.415996
-0.00167188
0.216636
-0.000150358
-0.00788688
1.87256e-07
-0.0355288
0.0597149
-0.0495209
-0.0248804
-0.000349434
-0.0725644
-0.0109123
-4.73747e-05
0.000178383
-0.0025343
-0.00549149
0.0019784
-0.00129768
-0.01959
-0.0525489
-0.0183741
-0.0671168
-0.0231492
0.298787
0.311409
-0.00105102
-0.0832169
-3.04113e-07
-0.00299446
-0.0159972
0.159244
0.0864583
1.83416e-05
-0.00277912
-0.0225659
0.135473
-0.000897509
0.00253184
0.000604926
0.0207223
-0.162039
0.292098
-0.000951407
-0.0253973
-4.78896e-05
0.00181315
-1.23086e-05
-0.0221536
-0.00014398
-0.00391566
-0.115182
-0.0333885
-0.0062613
0.00672951
-0.000334821
0.0144015
-0.0134507
0.0538483
0.130307
-0.193561
-0.0877146
-0.0111422
0.00359673
-0.0452319
0.426917
-0.0766545
0.0289635
0.443607
-0.000924132
-0.0012956
-0.0894727
-0.00125011
-0.0288561
0.00503437
-0.0017788
-0.0012524
0.128635
-5.62611e-05
0.000224743
1.1839e-05
-0.0021985
-0.00865737
-6.0497e-07
-0.000609037
-0.0228673
0.373797
-0.00621335
-0.0109766
0.371929
0.242823
0.04335
-0.0702511
-0.0268816
0.00333653
0.20599
-0.00804907
0.249805
-0.0394808
-0.113076
0.154822
0.252936
-0.0351955
0.0800243
0.195723
0.227305
0.0496679
-0.00237809
-0.00353776
-2.67471e-05
-0.00861221
-0.00815895
0.00018219
-3.24981e-05
-0.00112881
-0.0705387
0.0570219
-0.0140913
-0.00643526
-0.00264069
-0.0267824
-0.00528407
-0.000490162
0.16779
-0.00113157
-1.3986e-05
-5.94723e-05
-4.84864e-06
-0.0174129
0.124511
-0.00282234
0.0269137
-0.134994
0.316166
0.000943592
0.00505534
-0.00428462
0.313164
-0.000553741
0.289241
0.140325
-3.48511e-05
-0.0415034
-0.00217515
-0.0555204
0.000238713
0.0517024
-0.00225538
0.00460866
-0.000457997
0.11405
0.138374
-0.0615914
-0.0244733
-0.00271618
-0.0321863
0.0324679
0.455722
-0.0857671
0.00203404
-2.06799e-07
-0.0110126
-0.00143634
0.0124873
-0.106062
-0.0954292
0.334824
0.124151
-0.138473
0.172113
0.303722
0.0285079
0.000370135
0.217827
-0.00111129
-0.000108104
-0.0111626
1.70235e-05
-0.166153
-0.00657826
-0.0326778
0.00103982
0.166929
-0.00112657
-1.21272e-05
-0.118715
0.000937471
0.00331372
-0.0319573
-0.0376632
-0.0440126
0.122438
0.0987907
0.101831
-7.91805e-05
0.048177
0.060864
-0.000434401
-0.0137711
0.000265871
-0.00186625
-0.0137241
0.00350622
-0.000790445
0.10799
-6.92021e-06
5.5358e-05
0.00117488
-0.0159718
0.0178819
-0.0291129
-0.0195189
-0.05229
-0.140722
-0.00681874
0.211001
-0.0995581
-0.00532064
0.453588
-0.0552323
-0.0091013
-0.0194183
-0.0117521
-0.0142892
-0.00841391
0.0249228
-0.08393
-1.41807e-05
0.0212993
-2.87521e-05
0.296659
0.065223
-0.00382135
-0.00932546
-7.15735e-05
0.287261
0.273744
0.030113
0.118376
-0.0604828
0.335686
-4.98047e-05
0.00354671
-0.0118111
0.123032
0.408869
0.0187685
0.118566
-0.00554186
-8.71646e-05
0.103515
-0.124893
0.301087
0.0060193
0.181587
-0.00556275
0.319157
0.259449
-0.00726157
-0.00620981
0.0795046
-0.0386664
-6.35217e-05
-0.0107096
-0.0421993
-0.0707792
0.00966292
0.00709966
-9.07616e-05
0.277807
-0.00431118
-4.2014e-05
-0.0481087
-0.000343485
-9.37197e-05
-0.000577027
0.183277
-0.104233
0.384847
9.9768e-06
0.181888
-0.0385197
-6.87865e-05
1.14449e-06
0.134073
0.175384
-0.00338747
0.156649
1.66798e-06
0.166372
-0.184956
-0.00752682
0.315609
-0.0478022
0.1097
-0.0179526
0.164721
0.172908
-0.0141997
-0.0180368
-0.0078581
-0.00194503
-0.00012022
-0.00417583
0.234678
-1.20353e-05
0.159105
-0.104747
0.265346
0.150104
-0.0418776
0.384142
-0.0012474
-0.00592876
-0.0723526
-0.0145384
-0.00538519
-0.0413806
0.0159114
0.430062
4.9249e-06
-0.00145931
-0.0649128
-1.46785e-07
0.304561
0.000973619
-6.3759e-07
4.99414e-05
0.000142103
-0.0206149
0.0119791
-0.0011075
-1.97848e-05
-0.00559985
-0.00185093
-0.112505
-0.034544
0.0187036
-1.55377e-06
-0.178303
-0.00993183
0.0859676
0.256937
-7.38316e-06
0.093116
3.45068e-05
-0.00960158
0.0722818
-0.00562361
0.199309
-0.0109453
0.0065358
0.075244
0.121408
-0.000801509
-0.00812992
0.147439
-0.0827924
0.324504
-0.00773932
0.228519
-0.00740011
-0.000727279
0.111935
-0.0114196
0.0686589
0.00102595
-5.38817e-07
-0.128451
0.16154
0.00028802
0.0815662
-0.0103502
-0.177766
-0.019385
-0.0305011
-0.00122236
-0.00562245
-0.0673968
-0.0213515
-0.00765952
-0.000164894
0.344621
0.0881923
0.0262127
-0.000104228
0.256475
-3.47016e-06
-9.3369e-05
0.0982645
-0.00833029
0.135836
0.0455855
0.0126201
-0.0728437
-0.143023
-0.0463967
0.000637467
-0.0316847
-1.57572e-05
0.00010763
0.191833
-0.0135468
-0.00209715
-0.0254657
-0.00141552
-0.000479623
0.413209
-0.0082239
-0.000444177
4.05653e-07
0.110289
-0.0308572
-0.000281933
-0.00183982
0.129369
0.061508
-0.0333768
-2.29051e-06
0.143966
-0.0177837
0.157162
0.0146272
0.0186945
-0.0234612
-3.86715e-05
0.0732588
0.0533553
-0.0105442
-0.0984222
0.23358
0.0044524
0.143013
-0.00693571
-0.0451656
-0.000193502
-0.0081512
-0.000139466
0.129603
0.212185
-0.00115957
0.0145388
-0.0130119
-0.083559
-0.0905267
-0.00124885
0.00209221
0.401262
-0.0283906
-5.38159e-05
0.0611622
-0.00567154
0.344853
-0.0098729
-0.0197643
-0.0184199
-0.0219133
-0.0135236
-0.00598887
-0.00754915
-0.000422526
0.00886436
2.00538e-05
-0.177011
-0.0515539
0.294072
-0.0321789
0.141596
0.00115063
-0.073905
-0.0269218
0.168838
-0.00601566
5.96105e-06
-0.0179683
-0.00710251
0.00541841
-0.0195319
-0.0185629
-0.0530441
-0.0102137
-0.02196
-0.077659
-3.90912e-07
0.0225298
-0.0672732
0.117005
-0.0831824
0.0683928
-0.0981854
0.268072
-0.0130989
-0.0239339
-0.0341898
0.360196
-0.148721
-0.0101527
-0.128164
-0.0561339
-0.120821
-0.0761891
0.138493
-0.00218092
0.200634
0.00686638
-0.000316895
-0.00138616
0.0518052
0.45071
-0.000935706
-0.0406729
0.136121
1.62987e-06
-0.0173073
0.0240418
-0.0281566
0.00700333
-0.0015885
-0.0376754
-0.0049783
2.00938e-06
-0.0460295
0.209678
-0.0117025
-0.0125208
0.00106029
0.135904
-0.000346704
-0.000833635
-0.000181524
-0.00104613
0.00672765
-0.0155481
-0.00388971
-0.0145334
1.6907e-06
-0.137073
-0.11291
-0.15544
-0.0260812
0.0113257
-9.43597e-05
-0.0131826
-0.0528303
-0.0109927
0.266143
-0.00172263
-0.0462304
-0.00398106
-0.00945373
0.116435
0.000163349
-0.000108549
0.088043
-0.0241861
0.00899041
-0.00235572
-0.00124523
-0.0512221
-0.000157226
-0.0151225
-0.00849041
0.227972
0.209285
-0.0660803
-0.0666223
0.00540621
-0.00617814
-0.0360236
-0.0767579
-0.0307918
-1.06899e-06
-0.038789
-0.0168259
-0.0840617
-0.00862764
-0.0314685
-0.000241046
-0.00220608
0.151827
-0.0226713
-4.93662e-07
-0.00176603
-0.136645
-5.89079e-05
-0.0368754
-4.31832e-05
-0.000922677
-0.109189
-0.0642545
-3.39593e-05
2.64628e-06
0.0943537
-0.0597165
0.287517
0.218838
-0.0406892
-0.000895082
-0.0268752
6.06468e-05
-0.144321
-0.112696
-0.0507601
-0.0128959
0.211733
-0.000845574
2.95845e-05
-0.00382961
-0.148311
0.00110006
-0.043871
-0.0517563
-0.00899912
0.0121498
0.0492308
-0.00264096
-0.0211521
-0.0966793
0.142853
-0.0514303
-6.4801e-08
-0.129194
-0.0443795
-0.0603645
-0.00230514
0.000325192
-0.00485053
-0.114853
0.0190869
-0.0186871
0.0925479
-0.0697322
-0.000452147
0.00977192
-0.00418094
-0.02009
-0.154429
-0.00012646
0.109132
0.157804
0.0040798
0.165841
-0.0909998
0.0296399
-0.060633
0.151112
0.07223
0.431002
-3.68357e-07
0.0687753
0.132434
0.00872601
-0.00077971
-0.00911611
-0.053336
3.17732e-08
-0.0112538
-0.0591128
-0.00978898
-0.0132964
2.71956e-05
-0.12678
-0.000273805
-0.000313647
0.181278
0.000332883
0.0289664
0.00969204
0.155902
0.000769997
-0.000407733
-0.139793
0.000808789
0.276397
0.000445815
-0.0602253
-0.000217549
-0.000230605
-0.00195858
-0.0796961
-1.60902e-05
-0.00501077
0.0147041
-0.000712081
1.78653e-06
-4.06387e-05
0.112451
-0.0678637
0.00170887
-0.000426697
0.0025746
0.00912658
0.0018876
-0.000234875
0.286732
-0.126487
0.166489
0.244338
-5.71507e-05
0.0190616
0.0746102
-0.000378174
-0.000162803
-0.00048412
-0.0403786
-0.00213043
-0.023697
-0.0292533
-0.0675631
0.126634
-0.128139
2.03658e-07
-0.012462
-0.0170662
-0.0197221
-0.00204507
0.00139912
0.000423086
0.0165958
-0.000178273
-0.000238307
-0.0125701
-0.00248761
-0.0160735
-1.05805e-06
-0.00942628
0.0202248
-0.0528457
-0.0575455
-0.0050225
-0.00696116
-0.00501246
-0.00279485
-0.0075268
-0.00486378
-3.78686e-05
-0.000301417
0.0112084
-0.00685413
-0.00281523
0.00291276
-0.00378
-0.152349
-0.00696432
0.115335
-0.00668399
-0.0444201
-0.0248669
-0.014889
-0.00934988
-0.00195184
0.000266756
-0.0019452
-0.00732175
-0.00913423
0.14515
0.10773
0.0254728
0.25729
-1.53977e-05
-0.00361125
-0.00877887
-0.00501516
0.0548134
-0.0123067
0.0208076
-0.00443682
0.160129
-0.00118456
-0.00108723
-0.00596801
-0.029197
-0.000118231
-0.0266989
-0.00309795
-0.0120681
-5.20312e-06
-0.00342194
0.000698471
-0.011413
0.0123545
0.0236662
0.011552
-0.00851037
-0.0203092
0.083909
-0.000960416
-0.00096725
-0.000971642
0.373664
-0.000105514
0.0434595
-0.0116842
-0.0131364
-0.0141628
-0.0414213
-0.016356
-0.0216469
-0.0132556
-0.00278397
-3.3376e-05
-0.00219024
-0.0117726
0.0706094
0.000624618
0.110653
-0.0211122
-0.00854757
-0.00033874
-0.018945
-3.13374e-05
0.108528
-0.0197978
-0.0168604
-0.0156592
-0.00459025
-0.0269494
-0.00068454
-0.0256263
0.0730926
-0.0157745
-0.0841016
-0.000622901
-0.0163787
-0.012073
0.00897255
-0.00189766
0.10415
-0.00109601
-0.00982287
-0.000436426
0.11805
-0.0247743
-0.0153502
-0.00151797
-0.00623817
-0.00163334
0.14305
-0.020608
0.158368
-0.0045944
-0.000574023
-0.000538527
-0.00139594
0.133121
-0.0437857
-0.00443202
7.48264e-05
-0.0119294
-0.0267926
-0.000805293
-0.0244639
-0.00999666
0.0394893
-0.00267896
-0.00418754
0.344124
-0.0418319
-0.0145052
-0.0399467
1.57888e-06
0.0532249
-0.00186036
-0.0147723
-0.00352011
-0.0223186
4.7908e-05
-0.000284401
-0.00138186
0.00141093
0.149093
-0.00289452
-0.000946568
-0.00268339
-0.0488257
-0.00479536
-0.0118492
0.000832246
-0.0047091
-0.00440137
-0.00183553
0.152203
-0.029373
0.00130735
-0.00201745
-0.0157547
-0.00712294
-0.0306822
-0.000972972
0.0646317
0.0128939
-0.00482421
-0.0010835
-0.00907662
0.393158
0.150231
-0.0066356
-0.000211579
-0.00136145
-0.0122393
-0.00243115
0.0118211
-0.000253422
-0.0247432
-0.000917924
-0.00907654
-0.125153
-0.000846592
-0.0142371
-0.000623536
0.242818
-0.00469588
-0.00645598
-0.062016
-0.000769742
-0.0165296
0.0210712
0.345284
-0.00669071
-0.00742334
-0.000900612
-0.000362421
-3.90995e-06
-7.13718e-07
-0.00626243
-0.000348755
0.0720992
-0.000505824
-0.000911875
0.00314969
-8.71713e-05
-0.0285444
-0.0722361
0.0102783
0.0263987
0.0166572
0.00563883
-0.0655462
0.0637302
0.0490004
0.0687955
0.0891102
-0.0070299
-0.000454691
-0.00591666
-0.080752
-0.00172012
-0.00888064
-0.0101946
0.267139
-0.0629248
-0.000193353
-3.05584e-05
-0.000580711
-2.43213e-06
-0.000278551
-0.000384707
-0.00486147
-0.0299113
0.000142157
0.000895383
-8.42223e-05
0.0352138
-0.00853812
-0.0726965
-0.0010183
0.243667
0.225776
-0.00665863
-0.103669
-0.0168362
-0.013072
-0.00903316
-0.00105915
-0.0937694
-0.047415
-0.0342328
-0.110788
-5.38738e-05
0.142531
-0.0323712
-0.00504932
-0.0451274
0.010342
-0.00025533
-0.0053672
-0.000590594
0.00124644
-0.00145028
0.122866
7.83645e-05
0.00540549
-0.000136974
-0.133435
0.00443707
-0.000818931
-0.0119496
4.90366e-05
-0.0201628
0.0816012
-0.00532641
-0.000713467
-4.1569e-05
-0.000284127
-0.000221418
-0.038675
0.0908739
-0.0273534
-7.87775e-05
0.00103576
-0.000254835
0.171088
-0.0406214
0.196013
-0.028063
-0.0001631
-0.00021316
-0.00475853
-0.00299348
-0.000464212
-1.55141e-06
0.0137329
0.0172424
-7.75341e-05
-0.000280476
-0.0116661
-1.50625e-06
0.124533
-0.000551557
-0.0334355
-0.0119167
-0.00329538
-0.0364641
-0.0456223
0.111718
-0.0388972
-0.0112719
-0.000106868
-0.0347389
-0.0111074
-0.030598
0.0606408
0.272591
-0.000466637
-0.0381229
-0.000245834
0.243512
0.0246239
-3.39048e-05
-0.00378788
-0.00209136
-0.00299616
-0.0219641
0.0589729
-1.781e-05
-0.000708884
0.000118765
0.0442487
-0.000213797
-9.38027e-05
-0.123646
0.220537
-0.0341214
0.106637
-0.00135408
-7.51595e-05
-2.32374e-07
-0.119559
-0.0191038
-0.00022208
0.0693835
0.0061383
-0.00316193
0.303993
-0.000371844
-0.00254693
-0.0422464
-0.0460786
-0.00105066
0.0989661
-0.0851823
-4.01428e-05
-0.00216418
-0.000121916
-3.93086e-05
0.101038
-0.0157771
-0.000150609
-0.0282036
-0.0153181
-0.00158477
-0.0535918
0.000927469
-0.012102
0.000409011
-0.00205221
-0.042742
-0.0243668
-0.00250059
-0.000569249
0.114903
0.155764
-0.132759
0.00214194
0.0107813
-0.00262225
0.123705
0.0725804
-0.0149409
-6.10376e-05
0.00295331
-0.0268605
-0.00440083
-0.0213653
-0.00128961
0.0186163
-0.0184924
-3.30692e-05
-3.51547e-05
-0.062711
-0.0263426
-0.0142944
0.0034319
-0.0322684
-0.0313653
-9.78571e-05
-0.00105647
-0.00012646
-0.0358733
-4.44815e-06
-0.00103186
-0.0644422
-0.131023
0.0718851
-0.00177074
0.00185347
-0.0157583
-0.0149015
-4.90894e-05
-0.0215799
0.0659519
0.116557
7.1479e-07
-2.66214e-05
0.118964
-0.00151681
-0.11209
-0.0185627
0.0014539
-3.97105e-05
-0.0343556
-0.0565228
0.122177
-0.027083
-0.00068517
-0.0142484
-0.0456077
-0.000312933
-7.15684e-05
-0.000519176
-0.0485132
-0.029349
0.100576
-7.13386e-05
0.363411
-0.0620058
-4.68341e-06
-0.000879954
7.57925e-06
1.31096e-05
-4.82707e-06
7.97754e-06
-0.0290522
-0.000477889
0.000102945
-5.88939e-05
0.103621
-0.0031712
-6.31068e-05
-2.95542e-05
0.29295
-0.0144519
-0.0758275
0.00016343
-0.00038441
0.0315492
-4.48895e-05
-0.0167372
-0.172965
0.000846645
-0.0068479
-2.74286e-05
-8.6337e-05
-0.0220822
-0.0848005
0.00364749
-0.15695
-0.0933297
-3.80182e-06
0.0130881
0.0212186
0.0787592
-0.000796446
-5.11607e-05
-0.0386586
-0.0033834
-0.000397988
-0.0286591
-4.70743e-05
0.016411
-9.56983e-05
-0.000503286
-0.0434132
-0.00223722
-0.0351944
0.350401
-0.00118305
5.25554e-05
-0.0478761
-0.0635036
0.00358155
0.00217577
-3.79204e-05
-0.0191994
-3.50596e-05
0.147294
0.416054
0.0406545
0.00127183
0.00146103
-5.53442e-06
-0.0205093
-3.06299e-05
-0.0109039
-0.000975453
4.39922e-05
-0.00164369
-0.00951165
-3.06414e-05
0.00022698
-0.0108769
-0.00011372
-0.00932922
-0.0110177
-0.0229997
-0.00114874
0.376884
-0.000685905
0.000968891
4.32884e-05
0.0079282
-0.0268937
0.004837
-6.86355e-05
-2.50353e-05
0.000545651
-4.42004e-05
-2.23584e-05
-0.0112716
0.000195168
-3.4914e-06
-0.0326352
-0.00247024
-0.028399
-0.000879833
-1.34264e-05
-0.00144349
-0.0207838
-0.0127035
-0.0299355
0.000913894
9.57628e-05
-0.00023046
-0.000761414
-3.94535e-05
0.213904
0.000555152
-3.71547e-06
2.33077e-05
-0.00130306
-0.00030852
-0.0314852
-0.0293432
-0.000104285
-0.00428124
-1.79258e-06
-0.00311007
-1.74509e-05
0.0232077
-5.51429e-05
-0.000135259
-0.00388957
-1.21916e-05
0.00762018
-9.53984e-05
-0.000586178
0.0113516
-2.25626e-06
0.292581
-0.0354318
-0.0270714
-9.07614e-06
-2.92234e-06
0.000473001
-0.000508537
-0.0425554
-3.10912e-06
-1.95551e-06
0.000166431
-1.89035e-07
8.22662e-05
0.000109476
-0.000204901
0.000227644
-0.0300402
0.373817
-0.0376476
0.267138
0.00475681
-0.0160508
-4.10277e-06
-0.000323688
-0.00818478
1.10657e-05
5.59122e-05
2.33694e-05
0.028172
-0.00148209
-0.000181474
0.342631
-0.000158166
5.8151e-05
0.000126375
-5.32109e-07
-0.00725779
-0.00141801
0.000365588
8.17514e-06
-0.000680768
-1.12817e-05
-0.00114666
-0.0296157
-0.000152049
-0.00190957
2.85526e-07
-0.00325905
-7.07647e-05
0.144208
-0.000178448
-0.000309001
-0.0312002
0.00164209
-7.88185e-05
-0.000665089
-9.78994e-06
0.130721
-0.0466569
-0.000399832
-0.000127728
-0.00245761
-0.000180387
0.0364711
0.0796189
-0.00257933
1.01599e-05
-8.48959e-07
4.76997e-08
0.0291711
4.66074e-05
-0.026632
-0.0334748
-0.0123998
-0.0675054
0.389258
0.00073202
0.1503
-0.0117214
-0.0202169
0.133121
-0.000103796
-0.0408585
-3.09677e-06
-0.00593545
-0.0226366
4.31126e-06
-0.0509993
-0.000377715
-0.0239992
-0.00609949
-0.019587
-0.0260444
-0.00399883
-0.0489203
-0.0205307
-2.97697e-05
-0.00587638
-4.52026e-05
-0.0181373
-2.83276e-06
-3.76198e-05
-0.00460456
0.1259
-3.78871e-08
-0.0305765
0.00138422
5.24509e-06
-0.019327
-1.71381e-06
-0.00643231
-0.000174085
-0.0182761
1.52843e-05
-3.0191e-05
-0.00179915
-7.828e-05
0.122522
-0.0206689
0.0401803
-2.49939e-05
0.000168838
-0.0152833
-4.17259e-07
-0.0370639
-0.0388446
-0.0297689
0.369116
-0.00419169
-2.58101e-06
0.0152972
-0.0204928
-0.00287263
-4.41761e-05
-2.51305e-05
-0.0280487
9.61679e-06
0.000257184
-2.01057e-07
1.07868e-05
-0.0136914
0.0747272
-0.0957518
0.0677797
-0.00332078
1.18638e-07
0.000895749
-0.0537299
-1.09733e-06
-2.76414e-06
6.6943e-05
5.8154e-06
9.4472e-05
0.186152
0.0219815
4.58201e-06
-1.59112e-06
-0.0355902
0.156076
0.136298
-1.91751e-06
-0.0235008
-0.0182554
-0.0104379
-0.0266464
-0.00875481
-0.00158711
0.107705
-2.35934e-05
-0.0176269
0.129785
-0.03212
-1.87454e-05
-0.0317499
-5.82808e-05
0.241841
0.0143645
-2.5151e-05
-1.06348e-05
0.143688
-5.74505e-07
-7.88969e-05
-0.00594062
-4.48941e-06
0.198736
0.000121238
-0.00370114
-0.0317404
-0.00227658
-0.0872565
0.142213
-0.0222433
-0.0627537
0.000310096
-7.95748e-06
-0.000768644
-1.40185e-05
-9.19934e-06
0.00350303
0.140034
0.114996
-0.000230829
0.192519
-0.0159775
-2.04292e-06
-0.0219693
-1.67646e-05
-0.0192952
0.0154968
-0.0139738
0.00153616
0.000670741
-0.00480109
-6.73776e-06
-0.000990672
0.0083108
-0.00119418
-3.30922e-05
1.03295e-06
-1.25618e-05
0.0202325
1.14489e-06
-0.0233374
0.202567
-0.00436815
3.99594e-06
-0.00173168
-1.00909e-05
0.0379368
-8.94991e-05
-1.61644e-05
-8.16733e-06
-3.97374e-06
0.163976
-8.95009e-05
0.189539
-0.0493909
7.47032e-06
-0.0423904
-0.000528544
0.120623
0.34803
-0.000531907
-6.67336e-08
-3.52076e-06
-6.54562e-06
0.102761
-2.6414e-07
0.000251339
-0.0114637
0.177115
-1.32508e-06
-2.52042e-06
-1.83683e-09
6.9768e-07
-0.0137112
-2.45772e-07
0.223378
-0.0149672
-1.68622e-05
1.6381e-06
-0.000848061
-0.0149317
-1.04169e-07
-9.26433e-06
0.128045
1.97485e-06
-0.0215791
-0.07831
1.55075e-05
-2.73623e-07
-0.180998
-1.3847e-07
0.126025
5.13466e-07
-0.000209963
-1.28891e-06
-2.60969e-05
0.0679481
-1.1991e-06
-0.000897745
-2.83288e-06
0.00241098
-0.00234031
-0.00301151
-0.00185737
0.118162
-0.000282545
-3.10718e-05
-0.0044347
-0.00451658
-4.64196e-05
-5.99395e-05
-0.000544269
-7.65627e-07
0.135266
-0.00944532
0.385324
-1.94058e-06
-0.00447529
-0.000165078
0.0991394
1.95267e-06
-0.0205751
5.68902e-07
-0.000805127
-0.0220816
-6.29215e-05
-0.0103897
-0.0338808
0.00134595
-1.24925e-05
-0.0615376
-6.63397e-05
-0.000365568
-0.00302889
-0.0228963
0.000251107
-7.09941e-05
-0.000184454
-0.00105212
-0.000609075
-3.17855e-06
-0.000534664
0.344715
9.76745e-06
-0.00154486
-0.0229595
-0.0318908
-0.0397677
-0.0238083
-0.0149917
-0.000624926
-0.0228171
5.71576e-06
-2.65644e-05
0.362577
-2.16304e-05
0.137843
-0.000101843
5.67648e-05
-0.000464783
-0.101508
-0.000160689
-0.00142036
-7.96323e-06
-0.000136223
-2.263e-05
-2.19248e-05
-0.00737821
-5.03252e-05
-4.00126e-05
-2.01297e-05
-3.63233e-05
-8.82073e-06
-0.0324751
0.191864
-2.59379e-06
-0.000150928
-8.05201e-05
1.05708e-06
-0.000296729
-1.09476e-06
-0.000345634
2.17711e-05
-0.000115277
-0.0376462
-0.000286647
-0.00117787
-1.09807e-06
-0.00176008
6.70705e-05
-1.59781e-06
-3.45063e-06
-1.44261e-07
-0.000218005
0.00010217
-0.0327532
-0.0233075
-0.0354259
-0.0005404
-0.00227096
-0.057545
-0.0331629
-1.24467e-05
0.0055193
0.00235489
-0.000297519
-0.00768925
-0.0251192
0.344048
-0.000115739
-3.75e-06
8.7823e-05
1.30875e-06
-8.38177e-08
0.0536023
0.00058115
0.0631096
-0.0397826
0.323996
-0.000126543
-7.81935e-07
1.65743e-05
-6.77791e-06
-0.000423328
0.116333
0.171004
-4.20495e-06
-7.07723e-05
-1.1837e-05
0.161484
0.000843596
-0.0095668
-1.36166e-07
4.09413e-07
0.00332832
-0.000183355
-0.0524851
-0.0114273
-5.16691e-06
0.00119821
-0.0268853
-1.4003e-05
0.00048591
-3.86236e-05
-0.0275284
-0.000576129
0.10977
-1.07422e-07
0.000558202
-0.00196676
-7.48002e-07
1.93641e-05
-0.0157956
-5.67544e-07
-0.000261127
-2.35717e-06
-0.00906054
-0.0246778
-0.00367744
-0.00976575
-0.00427396
0.00448099
-0.00554727
-0.000892016
4.61726e-06
1.55134e-06
-1.60363e-06
-1.07279e-06
-1.07539e-05
0.00367315
-0.0525184
0.000107729
-0.0530764
-0.00112994
-0.0544425
8.20643e-06
-9.21327e-06
0.000392682
-0.109589
-8.08373e-07
-0.0502756
-0.0119615
-0.0310321
-0.0559942
-7.81244e-08
-0.00130364
2.13117e-05
-0.181619
0.100405
-6.35508e-06
-0.0453166
-0.0193273
-0.00167998
-1.70516e-06
-2.81768e-06
0.00673159
-0.00749725
-3.4793e-06
-0.00353491
-1.67504e-05
2.26287e-05
0.0910345
-2.03767e-06
-1.2291e-05
-7.16397e-05
-8.9968e-07
0.000238317
8.61671e-06
-0.00212752
2.09531e-05
-0.00844479
0.00028433
-0.000114404
-0.0330804
-0.0304036
-0.00389996
-2.05339e-06
-1.12073e-06
-0.069932
0.00243155
-0.0311155
-5.60124e-06
-0.00308831
-1.59541e-06
-1.67354e-06
0.0449618
-0.00284541
-0.00102715
-1.03696e-05
-0.0140664
1.6478e-06
-0.0440582
-2.49085e-06
-0.0509283
-1.10672e-05
-1.62839e-06
7.9566e-06
0.000295281
-0.123526
-0.00836883
-0.0555158
-4.98576e-06
2.01155e-06
-0.047593
-0.0318481
-0.00360707
-2.97961e-06
-0.0573337
-0.0441533
-0.0448477
-7.58272e-06
-3.55288e-06
-2.1413e-05
-0.116655
-0.0563401
0.000141997
-0.00467706
-2.72883e-05
0.181853
1.0609e-05
-7.03824e-06
1.6977e-05
-2.95655e-05
-4.28399e-06
-0.00210762
-6.18413e-07
-0.00153816
-0.0566635
-0.00578618
-0.0239915
-5.6334e-06
-7.80276e-06
0.0275714
-0.0743127
-0.00189967
0.0813676
-3.72743e-05
-5.8711e-06
-4.97563e-06
0.0760877
2.0403e-05
-6.60995e-05
-7.45549e-06
-0.0645367
-0.00701301
-1.36176e-05
-5.86198e-05
-0.00609343
-0.00263699
4.31688e-05
0.173081
-0.0560786
-0.000827648
0.453939
-5.19676e-05
-0.000627826
-0.00823712
-0.040555
-5.48685e-06
-1.85318e-05
1.64187e-08
0.00176585
-0.0352838
-0.000201686
-0.0372692
-0.00325
-8.35474e-06
-1.1703e-06
-0.00437138
-0.0191876
-0.0449397
-0.109897
-0.0257767
-0.0255861
-0.0319885
-0.0215682
-1.74752e-05
4.72615e-05
-0.0149218
0.000125214
-0.000156459
0.000131998
-1.83341e-05
-0.000124073
-0.00523512
-2.17903e-06
-1.79095e-05
0.0153809
-0.0498382
-0.000270698
-9.16676e-05
-4.9674e-06
0.188823
-0.00430102
0.000107834
-0.022383
3.80571e-05
2.40534e-05
2.34154e-05
-1.64985e-05
8.82369e-05
-0.0287136
0.00325739
-1.7873e-06
-0.000212095
-0.0350859
-0.0308582
0.032446
-0.000111619
0.000642942
0.00975069
-6.70311e-06
-2.48773e-06
-0.0520104
-8.27091e-08
0.123795
-2.35287e-05
0.00173383
2.27809e-05
2.67612e-05
-0.0392649
-0.00503438
-0.0121137
-0.000948422
6.97491e-08
0.000465996
0.0417887
-0.00877615
-5.6618e-05
0.0675044
0.120678
-1.88784e-06
-0.035093
-2.75565e-05
-6.84223e-06
-8.36578e-06
-0.000137994
0.0111977
-3.24408e-05
2.79708e-05
-0.0125281
-0.0171486
-0.00958266
0.237248
-1.69558e-05
-2.00114e-05
0.127743
-0.0177225
-0.00232498
-0.000162568
0.125677
-1.34219e-05
-0.000467301
-3.16825e-05
-2.90007e-05
1.11757e-07
-2.61579e-07
7.13409e-06
-0.0086978
-8.88785e-06
-0.00235697
-0.0269397
0.188499
-0.000341099
-9.91812e-06
0.00194674
0.0598973
-0.0528076
-0.000201713
-0.0324488
0.23773
1.21497e-06
0.310097
-2.38792e-06
0.00103842
0.0138952
8.62314e-05
0.327494
-5.69586e-05
-2.34637e-06
0.000214935
-3.91211e-07
-0.000226446
4.02042e-05
-9.84794e-06
-0.000843469
-4.09335e-05
-6.30647e-05
-0.00163584
0.185576
0.0304271
0.012552
-0.0234156
-1.7799e-06
-1.35135e-05
0.000930368
-0.0598763
-5.84532e-06
-0.0264893
-1.58214e-05
0.074554
0.0418685
-0.0276121
-0.000684678
-0.0104098
-0.000274205
-0.0066073
-0.00214343
-0.00670365
0.0422528
-5.89425e-07
0.201026
0.00272018
-0.000798965
0.162091
-0.00897876
-1.82337e-06
-1.20663e-05
4.57311e-06
-3.36676e-05
-7.79542e-05
0.187222
-0.000398654
0.193038
-0.00135967
0.124131
0.17215
0.0803916
-0.00461207
-6.49767e-06
-5.49379e-05
-0.00446994
-0.16736
-0.0411721
0.000478332
-2.65524e-05
-0.0216476
-0.000593008
-7.19607e-05
0.00029311
-0.000397879
-0.00102387
0.020001
6.78703e-06
-0.0241586
0.0369455
3.57134e-06
2.60712e-05
-0.0131761
-0.0583386
-0.000262188
-0.000158725
-1.54981e-05
1.61569e-05
0.0504296
-0.013568
-0.042043
0.000380724
0.0634782
-0.0298677
-1.27057e-05
-7.64482e-06
-0.00657906
-0.000135118
0.0494322
-0.00581942
-0.00608841
-0.000206197
0.000419701
-0.0304507
-9.99695e-05
9.50978e-05
-0.0161209
-0.0470931
0.114434
-0.0347587
-0.0195202
-0.000231156
-7.27527e-06
0.00319286
-3.2723e-06
-0.0430678
-0.0542055
0.000124064
0.000759595
0.0015751
-0.134864
0.000141805
-4.51938e-06
-1.98153e-05
-0.0315299
-3.71837e-06
0.000126252
0.089591
0.135751
-0.154248
0.0327326
0.0308246
-0.00564747
-0.000294722
0.00189252
1.40944e-05
1.50137e-07
-0.000169781
-7.11924e-07
-0.000136599
-0.000126446
-0.00489574
-0.0869563
-0.00651107
-0.0278064
0.0340626
0.0279626
0.0015187
-0.0549837
-1.86398e-05
0.00119254
0.00488808
-0.000167597
0.050905
-0.00174304
-0.00846895
0.00444092
0.00250741
-0.00079094
-0.00250599
0.0249868
0.000168201
-0.0132426
-0.0119816
0.392517
-0.0203852
0.0560465
-0.00629497
-0.0371164
0.000690891
-3.77758e-05
-0.000968532
-3.40808e-05
-0.000905463
-0.019502
-2.39387e-05
-0.000212658
0.22471
-0.00119864
-0.0289826
-0.00837753
-6.13246e-05
-0.00224284
-1.05815e-05
-3.97554e-06
0.0206599
-3.15314e-06
-0.00109453
0.0510513
0.00208038
0.000342878
0.00869328
-0.00365985
0.00173723
-0.158937
0.000156708
-0.00268799
-0.0416971
-0.000675023
-0.00524603
-3.71021e-07
-0.00260683
0.000244501
0.0189537
-0.000507226
0.0022875
-0.027505
-0.0150539
-0.000118562
-0.0247228
-0.00998449
-0.00778041
-9.74383e-05
0.00295103
-0.075739
-0.000325349
-0.00348222
-0.0235976
-0.00360436
-0.000561353
0.171758
-0.0233145
-1.29931e-06
0.00394249
-0.047222
-0.000435811
0.148441
-0.00290282
0.000264231
0.0410444
-0.000733418
0.00331288
0.0949674
-0.000294904
0.000339108
9.03891e-06
-5.03389e-05
-0.00177978
-0.00739343
-0.000369647
-0.0162809
0.0696727
-0.0203284
-0.0811267
0.00034097
-0.00169728
-0.00087034
-0.0723275
-4.64015e-05
0.00467014
-8.6114e-05
-0.00733331
-0.00079418
-0.00198721
-0.0772385
0.0848209
-0.0901089
-1.87774e-05
0.153115
-0.00188454
-0.00368391
-0.0360218
-0.0973777
-0.0113111
-8.81223e-06
-0.00147852
0.00321201
-0.0015204
-0.00289598
-0.000113811
0.0609567
-0.0435578
-0.00733698
-0.00271482
0.00452759
-0.00672933
-0.00506206
0.000556754
-0.000526219
-0.00145468
0.0828174
6.73452e-05
-0.174771
-0.000195897
-0.00306013
-0.00466312
-0.109076
-0.00823924
-0.138646
-2.1037e-05
-2.44304e-05
-0.0086525
0.00474157
-3.87762e-05
-0.168478
0.0588301
-0.0390606
4.12796e-06
-0.190585
-0.000260183
-0.20438
-0.0178241
-0.234016
-0.236796
-0.230567
-0.193549
-0.110499
-0.0769733
-0.0454253
-0.0136751
0.018512
0.111125
0.141386
0.169145
0.216089
-0.00342472
-0.00586756
0.0352667
-0.0237945
0.00013377
-0.000271179
-0.0298284
-0.000241879
-0.00111517
-8.27075e-07
-0.0109738
0.00957303
-1.60946e-06
-0.000642907
-0.00436917
-0.0171743
-0.232469
-0.019348
-0.0431015
-0.000121916
-3.20908e-05
-2.6037e-06
-0.0708241