/*--------------------------------*- C++ -*----------------------------------*\
  =========                 |
  \\      /  F ield         | OpenFOAM: The Open Source CFD Toolbox
   \\    /   O peration     | Website:  https://openfoam.org
    \\  /    A nd           | Version:  7
     \\/     M anipulation  |
\*---------------------------------------------------------------------------*/
FoamFile
{
    version     2.0;
    format      ascii;
    class       volVectorField;
    location    "35";
    object      U;
}
// * * * * * * * * * * * * * * * * * * * * * * * * * * * * * * * * * * * * * //

dimensions      [0 1 -1 0 0 0 0];

internalField   nonuniform List<vector> 
29540
(
(1.00936 -0.0123598 2.48274e-23)
(1.00843 0.00419247 1.25856e-22)
(0.991794 -0.00297583 -1.57645e-22)
(0.972162 -0.0432183 5.39775e-23)
(0.99783 -4.64432e-05 2.24677e-23)
(0.961607 -0.0263016 -7.65418e-23)
(1.04799 -0.0763452 1.5327e-22)
(1.0122 -0.018766 -2.41004e-24)
(1.00179 -0.0017373 3.59696e-24)
(1.00016 -4.38307e-05 9.28192e-25)
(1.01345 -0.0251348 -1.07016e-24)
(0.997966 -0.0147444 -5.96378e-23)
(0.999573 -0.000173594 3.0943e-24)
(0.999973 -9.63802e-06 8.71243e-26)
(1.17181 0.0931608 1.84181e-22)
(0.99462 -0.00173128 2.42574e-23)
(0.999859 -0.000759648 -1.42269e-24)
(1.13707 -0.015568 -8.4266e-24)
(0.998103 -0.00159846 -7.65075e-24)
(0.990314 -0.000714088 -3.51963e-23)
(0.999234 -0.000245053 -1.04971e-23)
(1.00168 -0.00173317 1.26148e-23)
(0.991716 -0.00314749 1.74243e-22)
(0.998096 -0.000152647 9.85995e-24)
(0.882369 0.120522 6.37744e-23)
(1.00933 0.00333034 6.75308e-22)
(0.99954 -5.23096e-05 7.0502e-24)
(0.941861 0.102865 -4.19308e-21)
(1.17772 0.0927437 -5.49421e-22)
(0.999232 -0.00808292 -1.11779e-23)
(1.01368 -0.0100953 1.80441e-23)
(1.03463 -0.0069967 -1.38605e-22)
(0.975627 -0.0997594 5.65559e-22)
(0.998016 -0.020413 3.05949e-23)
(0.93974 0.0980364 3.36494e-21)
(1.00249 -0.0292275 9.37413e-23)
(1.07138 0.0457709 -2.01862e-22)
(0.974899 -0.024348 2.08476e-22)
(1.00472 -0.000738482 -4.93362e-23)
(1.00456 -0.000531541 9.39719e-23)
(1.00038 -0.000144991 -2.91138e-24)
(0.989594 -0.0268033 -2.09659e-22)
(0.999875 -0.000738443 -1.82845e-26)
(1.02002 -0.0657251 -4.19647e-22)
(1.00003 -5.00443e-06 -1.77554e-25)
(0.99941 -0.00820001 8.20017e-24)
(0.997714 -0.0109506 -1.69871e-23)
(1.00007 -7.5318e-05 4.6039e-25)
(1.00296 -0.00325782 -5.11147e-23)
(1.07103 0.0428129 -8.25974e-23)
(1.10171 -0.0974224 1.19583e-22)
(0.975316 -0.0381877 -2.46996e-22)
(1.03457 -0.00613053 4.8812e-23)
(0.962796 -0.0261104 -1.25107e-22)
(0.994752 -0.00177602 -2.12949e-23)
(1.18163 0.0798767 -3.27956e-22)
(0.997007 -0.00199593 7.64864e-24)
(0.999213 -0.000269976 1.32993e-23)
(0.999708 -0.0192913 -4.38783e-23)
(1.00728 -0.0525633 -1.72559e-22)
(0.999942 -6.255e-06 2.04153e-25)
(0.998169 -0.00163809 -1.57443e-24)
(1.26683 -0.0141477 -2.38772e-22)
(1.00286 -0.0285851 -5.23701e-23)
(1.06964 0.115715 1.76332e-21)
(0.910864 0.0336342 8.47349e-21)
(0.998715 -0.0242473 -8.42011e-23)
(0.993456 -0.0122158 7.35683e-23)
(0.934648 0.0215773 3.39677e-21)
(1.0004 -0.000136819 1.88346e-24)
(1.0109 0.0039991 -9.20296e-22)
(0.988163 0.0862882 2.29581e-21)
(1.00282 -0.00806937 -1.87952e-23)
(0.903665 0.140273 2.33187e-21)
(0.992882 -0.000558766 1.11853e-22)
(1.10909 -0.0575115 -4.39907e-23)
(1.24823 0.152703 2.7934e-22)
(0.976088 -0.0138469 4.94381e-23)
(0.999956 -1.98078e-05 -5.79451e-25)
(1.00193 -0.0430611 -1.65804e-22)
(0.963317 -0.000612849 -8.23632e-23)
(1.02166 0.0420761 5.44898e-22)
(1.00953 -0.0128963 -7.51318e-23)
(1 -5.56528e-05 6.52441e-26)
(1.05042 -0.0748014 -2.40301e-22)
(1.17391 -0.189577 -7.96651e-22)
(1.04034 0.101498 -3.44256e-21)
(0.999557 -0.000171049 -2.80352e-24)
(0.999587 -0.000154754 -8.21721e-25)
(0.943651 -0.033117 -3.23758e-22)
(0.992849 -0.0464613 2.92473e-22)
(0.975992 -0.0145041 5.59966e-23)
(1.00277 -0.00336609 8.68492e-24)
(1.05581 -0.0119506 -7.53943e-23)
(0.939063 -0.0141019 -2.701e-22)
(1.05126 0.122815 1.70545e-21)
(0.993631 -0.0601815 4.78e-22)
(1.00042 -0.000342972 4.67235e-24)
(0.972255 -0.0541774 -4.91136e-22)
(1.16507 0.122406 1.1656e-21)
(0.999954 -1.9418e-05 8.47366e-25)
(0.977268 -0.0090375 -2.9697e-22)
(0.999944 -7.66456e-06 -1.05594e-25)
(1.04273 -0.0197651 -3.65942e-22)
(0.974151 -0.038002 1.63338e-22)
(1.0353 0.0126029 9.2286e-22)
(1.00429 0.0813406 3.40705e-21)
(0.999604 -0.000156603 -6.94962e-24)
(0.999996 -6.17726e-05 -1.34429e-26)
(0.989164 -0.0975031 -2.86154e-23)
(0.974037 -0.0983747 -5.09192e-22)
(1.03735 -0.0396198 1.08437e-23)
(1.00001 -1.94954e-06 3.05145e-26)
(0.99897 -0.00546699 -2.88388e-23)
(0.999897 -0.00195135 1.10203e-24)
(0.991038 0.0883671 1.72082e-23)
(1.04472 0.0603547 -1.17518e-21)
(0.989627 -0.00637117 -1.20157e-22)
(1.00002 -6.06874e-05 3.94985e-26)
(1.0031 -0.0079955 -1.46325e-23)
(1.27145 -0.114915 2.9882e-21)
(1.00534 0.0122311 1.48984e-21)
(1.16216 -0.0852167 -9.98439e-22)
(0.908764 0.0411101 -8.03133e-21)
(1.00097 -0.00031857 -1.19149e-23)
(1.15876 -0.0597539 1.52961e-22)
(1.13596 -0.0108247 -5.97839e-23)
(1.01142 -0.051041 1.34034e-22)
(1.00354 -0.0030912 -4.58118e-23)
(1.00002 -0.000390381 3.75401e-26)
(1.01988 -0.0639594 1.4814e-22)
(1.25278 0.144959 1.09418e-22)
(1.00623 0.154028 4.18895e-21)
(1.16189 -0.105644 -2.9654e-22)
(1.04127 -0.01933 3.07116e-22)
(1.01328 -0.00972331 3.44663e-22)
(1.08283 0.200919 2.81207e-22)
(0.976323 -0.000670125 4.33517e-22)
(1.07097 -0.192181 1.92023e-21)
(1.16681 0.115843 -8.98884e-22)
(1.15892 -0.053895 -1.47142e-22)
(0.949706 -0.00421973 -3.46e-22)
(0.957516 -0.036412 1.05018e-22)
(1.00001 -1.77578e-06 -1.32808e-26)
(0.99999 -3.43835e-06 4.61663e-26)
(0.997774 -7.71437e-05 -1.77442e-23)
(0.997886 -0.010735 3.45696e-23)
(0.980867 -0.076842 -3.84091e-22)
(1.08978 -0.156523 9.09738e-22)
(1.30316 0.052728 -7.61916e-22)
(1.02762 -0.0182796 1.69745e-22)
(1.01575 -0.0181964 5.33187e-23)
(1.00038 -0.000556323 7.19093e-24)
(0.999884 -0.000197047 8.14838e-25)
(1.0015 0.0206491 -3.3293e-21)
(1.00047 -0.00136066 8.32673e-25)
(0.994032 -0.00995087 1.67187e-26)
(1.09919 0.203851 -7.87299e-22)
(1.00446 0.0437834 -3.6322e-21)
(1.10519 -0.0947725 -2.67031e-22)
(0.964973 -0.00233638 1.42417e-22)
(0.973042 -0.0423994 3.79563e-22)
(1.18251 0.0860038 8.94424e-23)
(0.999956 -4.08265e-05 1.84245e-25)
(0.99999 -3.32278e-06 -1.71934e-26)
(0.989577 -0.00669501 4.25322e-23)
(0.958539 -0.0357274 -5.57209e-22)
(1.00005 -0.000200157 -4.39082e-25)
(1 -5.90647e-05 2.53842e-26)
(0.994026 -0.00449834 -1.43187e-23)
(1.00003 -0.000378921 -2.83522e-26)
(1.00508 -0.00533937 -2.53901e-23)
(1.09413 0.207832 9.22495e-22)
(0.976661 -0.000355488 -3.57007e-22)
(1.02663 -0.104604 -1.87356e-22)
(0.995549 -8.68731e-05 7.21099e-23)
(1.00186 -0.00240118 2.67423e-24)
(0.976671 -0.00887907 5.02113e-22)
(0.999233 -0.00545705 -2.6578e-24)
(1.17062 -0.076205 6.45886e-22)
(0.999981 -9.03863e-06 2.83867e-25)
(1.01023 -0.0350245 -7.99666e-23)
(1.0429 0.10366 1.22869e-21)
(0.993736 -0.011356 -4.19196e-24)
(1.06745 -0.187107 -1.77169e-21)
(1.03369 0.0517022 -1.0381e-21)
(0.994458 -0.00248049 -1.04647e-22)
(0.98409 -0.0132408 1.31015e-22)
(1.00335 -0.00310615 6.98153e-23)
(0.999309 -0.00753822 -1.72113e-23)
(0.999755 -6.50606e-06 8.05967e-25)
(1.0051 -0.0160715 7.14284e-24)
(0.903818 0.0205257 3.35785e-21)
(1.0009 0.0166914 2.56132e-21)
(0.987467 -0.00537219 3.31325e-24)
(0.994296 -0.00980788 -4.62877e-23)
(0.980312 0.044556 -3.12591e-21)
(1.01296 0.032742 4.67768e-22)
(0.940283 -0.0139743 3.26928e-22)
(1.00101 -0.000425552 -9.32441e-24)
(1.05561 -0.096528 3.02908e-22)
(0.970102 -0.071359 5.07613e-22)
(0.998197 -0.0150559 2.83237e-23)
(1.00074 -0.000936356 -1.49204e-23)
(1.08613 0.205908 3.96332e-22)
(0.994215 -0.00450905 -9.50914e-24)
(1.00593 -0.00479012 -2.87416e-23)
(0.979567 -0.0762179 5.09994e-22)
(0.989025 -0.0996213 7.29705e-23)
(0.999968 -4.56562e-06 6.96751e-26)
(0.976728 0.123706 -3.79283e-21)
(0.999094 -2.04135e-05 -1.74438e-25)
(1 -4.74517e-05 1.82749e-26)
(0.999523 -0.000182373 1.19681e-24)
(0.99532 -0.0469303 -1.08918e-22)
(1.2587 0.0160879 6.68952e-22)
(1.01117 -0.0343801 5.81895e-24)
(1.00575 -0.00447202 -1.96814e-23)
(0.998117 -0.000209839 2.44852e-23)
(0.941314 -0.0155927 -6.30799e-23)
(1.00003 -0.000414928 -1.13984e-25)
(1.00042 -0.00138703 8.09291e-26)
(0.997972 -0.000178078 -1.61886e-23)
(1.02588 0.00120916 8.53538e-22)
(0.997684 -0.00345481 -5.2214e-24)
(0.998994 -0.00507862 8.54908e-24)
(1.02521 -0.00133852 4.10163e-22)
(1.00011 -0.000338801 7.04082e-25)
(1.00003 -4.34239e-06 4.67445e-26)
(1.00436 -0.000533108 9.93466e-24)
(0.978204 -0.0278726 -1.95323e-22)
(0.97918 -0.000342891 -1.72959e-22)
(0.995818 -0.000330419 -7.67576e-23)
(1.01189 0.00314407 7.60248e-22)
(0.986359 -0.000982073 8.29481e-23)
(1.016 -0.0175919 -5.31439e-23)
(0.999972 -1.0734e-05 2.44749e-25)
(0.997424 -0.00227971 -2.93298e-23)
(1.00069 -0.000929308 1.61231e-23)
(1.05592 -0.0931183 3.00536e-22)
(1.01743 -0.163421 1.1829e-21)
(0.998792 -0.000108866 1.28154e-23)
(1.00041 -0.000494761 -5.53434e-24)
(0.998909 -0.00495718 -2.90368e-24)
(1.00302 -0.00714019 -3.65829e-23)
(0.990506 -0.000526934 -1.48983e-22)
(0.999958 -3.89182e-05 -1.14251e-26)
(1.17232 -0.183316 -1.80467e-21)
(1.00004 -0.000424235 1.21623e-25)
(1.02555 0.00114489 -6.00935e-22)
(0.997101 -0.00199841 -1.53764e-23)
(1.00013 -0.000328723 3.00034e-25)
(1.03429 0.0130643 -5.86376e-22)
(0.966243 -0.0679549 -5.2721e-22)
(1.00022 -3.72265e-05 3.0559e-24)
(1 -1.12455e-05 1.11164e-26)
(0.949576 -0.00301935 -3.93501e-22)
(1.00951 -0.149233 -1.82492e-22)
(0.992442 -0.00714177 -1.13296e-23)
(1.01046 -0.0520666 -3.47156e-23)
(1.02839 -0.0189924 -2.78257e-23)
(1.049 0.100201 1.53142e-22)
(1.00007 -7.1105e-05 1.27545e-25)
(0.978618 -0.0273211 1.83728e-22)
(1.22164 -0.102052 1.25289e-21)
(0.960613 0.0667329 7.58232e-23)
(0.993665 -0.0110986 3.40562e-23)
(1.03237 0.0499938 1.26408e-21)
(1.11003 -0.0533884 -2.50625e-23)
(0.999895 -0.00214682 -1.38998e-24)
(0.813206 0.0566337 5.05428e-21)
(0.999525 -0.000383967 -8.04939e-24)
(1.02524 -0.107256 -2.37271e-22)
(0.942251 -0.0156021 4.04757e-22)
(1.00198 -0.00226949 -1.4745e-23)
(1.21142 -0.0286477 -4.46889e-22)
(0.992518 -0.000809296 -8.90397e-23)
(1.00871 0.166574 2.90773e-21)
(0.996962 -0.000229951 7.13112e-24)
(0.984515 -0.014291 -6.87752e-24)
(0.999818 -0.00195037 -7.15327e-24)
(1.14294 0.160898 3.02488e-22)
(0.999844 -0.0153067 7.61529e-24)
(1.04758 0.123721 1.07878e-22)
(0.999553 -4.04986e-05 -3.08509e-24)
(0.994891 -0.00164399 -3.36564e-23)
(0.957679 0.150642 -1.94761e-21)
(1.03041 8.90195e-05 -6.96847e-22)
(1.02502 -0.00095997 4.77058e-22)
(0.973781 -0.0351942 4.57882e-22)
(0.999867 -2.87533e-05 8.1738e-25)
(1.00294 -0.00689649 -4.11479e-24)
(0.999855 -0.000829379 -2.5626e-24)
(1 -4.49597e-05 1.44191e-26)
(1.05655 0.00351491 1.81003e-22)
(1.00004 -4.69558e-06 4.33355e-27)
(0.98252 -0.0126338 3.09981e-22)
(1.21577 -0.10247 -1.14001e-21)
(0.879659 0.125855 -4.93465e-21)
(1.00981 0.154555 -6.44986e-21)
(0.969879 -0.059135 1.61708e-22)
(0.987308 -0.0259847 1.16074e-22)
(0.980172 -0.00132604 8.22656e-23)
(1.02977 -0.0358276 5.4255e-23)
(1.00561 -0.0158652 -1.68942e-23)
(0.983976 -0.0138721 -1.8097e-22)
(0.97001 -0.0648454 7.14571e-23)
(1.04708 0.103018 -2.29901e-21)
(0.999473 0.0153012 5.0117e-21)
(0.998872 -0.000132957 7.06462e-24)
(1.00583 0.0823636 -4.69091e-21)
(1.05547 0.00209841 5.86049e-23)
(1.16858 -0.0836849 2.84185e-22)
(1.01203 -0.0144331 2.61067e-23)
(1.00081 -0.0141205 -3.90678e-23)
(1.01788 -0.0484194 -9.72567e-23)
(0.995259 -0.00159068 -7.93405e-23)
(0.997651 -0.000578607 -5.15352e-24)
(0.999947 -6.02567e-06 1.07775e-24)
(0.999164 -0.00772129 2.54038e-23)
(1.08941 -0.0517552 6.1955e-24)
(1.14388 0.167093 -5.31532e-22)
(1.00144 -0.00123357 6.91396e-24)
(0.975863 -0.0228423 -2.47376e-22)
(1.01377 -0.0148097 -8.18539e-23)
(0.999966 -1.47121e-05 -9.36643e-26)
(0.969936 -0.0618898 -2.56388e-22)
(0.853098 0.0977686 -2.24287e-21)
(0.994515 -0.00423946 1.18055e-22)
(0.999021 -0.00405913 7.87239e-24)
(1.01257 -0.0142773 -1.62279e-23)
(1.00173 -0.0418161 2.06461e-22)
(1.09304 0.0291914 2.16027e-22)
(0.999485 -0.00876611 -4.0776e-24)
(0.999971 -4.73099e-05 6.07996e-25)
(1.00001 -2.74561e-06 1.48673e-26)
(0.997619 -0.000527119 -5.74047e-24)
(0.955477 0.149456 2.81978e-21)
(1.04579 -0.0300392 6.36446e-23)
(1.02154 -0.163262 -2.94735e-22)
(1 -1.12568e-05 1.002e-27)
(1.00642 -0.151766 1.18113e-22)
(1.08165 -0.00706381 -2.13012e-22)
(0.99544 -0.000145357 -3.6168e-23)
(0.944407 -0.00571077 -4.85297e-22)
(0.999096 -0.00398872 -7.89808e-24)
(0.999613 -0.000175489 -5.08126e-25)
(0.979309 -0.0247114 -5.43412e-23)
(1.00082 -0.00102771 -7.20734e-24)
(1.17672 -0.0743985 -5.81685e-22)
(1.00829 -0.000961582 -2.08939e-22)
(1.2407 0.105844 -1.14926e-22)
(0.999928 -0.00211899 1.79875e-24)
(1.00374 -0.0126023 5.78563e-24)
(1.00516 0.0108097 -2.01565e-21)
(1.26576 -0.109731 -1.22458e-21)
(1.00038 -0.000523758 -4.22621e-24)
(1.0004 -0.000464048 4.13543e-25)
(0.993809 0.104387 2.33493e-22)
(0.99376 -0.0474167 -5.78133e-23)
(0.999333 -0.00863088 5.00129e-24)
(1.01181 0.0363019 2.47199e-22)
(0.972103 0.0228116 6.15613e-21)
(1.10099 -0.101971 -4.1449e-22)
(0.998751 -0.0234089 -2.47974e-23)
(1.25337 0.0192117 -6.64178e-22)
(0.999317 -6.58814e-05 -5.29579e-24)
(0.992256 -0.00373192 3.13022e-23)
(0.997025 -0.000241913 -1.9818e-23)
(1.01461 0.0312299 3.7916e-25)
(0.999989 -0.000681974 1.73925e-25)
(1.00801 -0.00117571 2.1348e-22)
(1.11408 -0.157277 2.20314e-23)
(1.00376 0.145303 6.54832e-21)
(0.907084 0.144858 -1.07494e-21)
(0.994626 -0.00247591 4.2386e-24)
(0.992223 -0.00697058 3.39331e-23)
(1.06649 0.11916 -1.41298e-21)
(1.0075 -0.054196 2.49956e-22)
(0.999949 -7.22387e-06 -1.05137e-24)
(1.28751 0.0983236 -5.18167e-22)
(1.02524 0.00172058 -2.56781e-22)
(1.02479 0.00169085 -1.747e-22)
(0.994749 -0.01209 -5.04082e-23)
(1.01716 -0.00181741 -3.32702e-22)
(0.946245 0.133461 9.65015e-22)
(1.0819 -0.162859 -2.63467e-22)
(0.979216 0.132812 1.01859e-21)
(0.995049 0.131665 -1.71211e-21)
(0.999997 -5.92034e-05 4.27123e-26)
(1.08638 -0.0501873 2.1717e-23)
(1.08441 -0.158347 1.69862e-22)
(0.997576 -0.00348528 1.3662e-23)
(1.00147 -0.00132245 -1.14139e-23)
(0.96656 0.0269557 1.47838e-21)
(1.04738 -0.0310187 -8.05698e-23)
(1.00026 -6.85139e-05 6.98525e-25)
(0.981229 -0.0531081 -5.77448e-22)
(0.969269 -0.073107 -2.38318e-22)
(0.995002 -0.00168949 4.72996e-23)
(0.999892 -0.000191335 -1.0213e-24)
(1.0601 0.147044 -2.31316e-22)
(1.04421 0.0580368 1.96257e-21)
(1.00004 -0.000464926 -3.54852e-26)
(1.00368 -0.003338 8.99787e-24)
(1.00475 -0.00335421 4.87998e-23)
(1.1683 -0.140677 1.27074e-21)
(0.973862 -0.034252 -4.05489e-22)
(1.00006 -0.000551964 -2.92654e-25)
(0.999987 -2.25348e-06 -2.56864e-26)
(1.00045 -0.000150458 1.10951e-24)
(1.09144 0.0308761 -2.0124e-23)
(0.974921 -0.0234897 -1.9967e-22)
(1.00247 0.0441233 1.06747e-21)
(0.951551 -0.0399077 2.57436e-22)
(0.988032 -0.0258986 -1.20025e-22)
(0.978583 -0.00102761 -3.43331e-22)
(1.01348 0.0351907 -1.21735e-21)
(1.25766 -0.0121876 -6.34246e-23)
(0.998907 -0.00014143 1.29367e-23)
(1.00715 -0.00548586 -5.21888e-23)
(1.00076 -0.00101693 8.1718e-24)
(0.97768 0.145894 -2.63644e-21)
(0.976764 -0.0213523 1.06036e-22)
(1.00099 -0.000259008 -3.90387e-24)
(0.993182 -0.00333105 -4.24363e-23)
(1.16516 -0.0495057 -1.94216e-22)
(0.999565 -0.00942161 -1.10692e-23)
(0.989468 -0.0114442 -2.375e-23)
(1.00021 -0.000130555 -2.12158e-24)
(1.00022 -4.99942e-05 -9.38219e-26)
(0.849017 0.104428 3.52073e-21)
(0.992574 -0.00120618 -5.55239e-23)
(0.995639 -0.00437609 4.85836e-23)
(0.999656 -0.00172869 -6.27161e-24)
(0.999334 -5.03902e-05 -7.27332e-25)
(1.0566 0.0974973 -7.60628e-22)
(1.1193 -0.1609 6.97506e-23)
(0.985398 -0.0387279 7.34478e-23)
(1.00001 -2.08422e-06 -1.54932e-26)
(1 -3.61677e-05 1.30771e-26)
(0.975864 -0.0220852 2.80626e-22)
(0.993855 -0.00177531 1.12616e-23)
(0.995295 -0.00203034 -6.46986e-24)
(1.01338 -0.00509979 1.01714e-22)
(1.00533 -0.0022824 1.75522e-23)
(1.00009 -0.0156835 -1.38251e-23)
(1.13133 -0.0325622 -3.96489e-23)
(0.983231 -0.00402773 -6.9909e-23)
(0.981379 0.13029 -8.27123e-22)
(1.01264 -0.0251067 -1.5195e-23)
(1.00023 -0.000131039 2.35985e-24)
(0.969239 -0.0579777 2.40322e-23)
(0.984089 -0.0342647 -2.51257e-22)
(1.20081 -0.0199346 -1.80126e-22)
(0.997348 -0.00574145 -1.46718e-23)
(0.988268 -0.0456433 -8.99165e-23)
(0.999981 -5.38759e-06 1.56186e-25)
(0.922422 0.105955 -3.3781e-21)
(1.01429 -0.00214395 1.86111e-22)
(1.00008 -0.000223043 -7.14401e-25)
(0.903617 0.0280579 -4.32365e-21)
(0.984442 -0.0388608 1.69102e-22)
(0.99998 -6.24886e-06 2.47726e-26)
(1.00133 -0.00120506 3.37222e-24)
(0.969176 -0.0606133 -1.42571e-22)
(1.03596 -0.0382034 1.67782e-23)
(1.04804 -0.0142231 2.16036e-22)
(0.999992 -3.7098e-06 3.65652e-26)
(0.992534 -0.000616269 4.43808e-23)
(1.01883 -0.0474529 1.79473e-22)
(0.995141 -0.0015505 6.54729e-23)
(0.999571 -4.65288e-05 -1.67425e-23)
(0.992407 -0.0038542 8.20532e-25)
(0.976612 0.0472886 3.64227e-22)
(0.993347 -0.0118666 -6.13487e-23)
(0.989911 -0.0112173 1.73296e-23)
(1.00164 0.0242868 -1.03287e-21)
(0.997471 -0.00215343 1.52895e-23)
(0.971331 0.14779 -3.41265e-22)
(0.999979 -6.27269e-06 -7.9412e-26)
(0.989924 -0.0261627 4.86878e-23)
(0.979628 -0.0726053 5.92459e-22)
(0.989129 -0.0460132 1.53045e-22)
(1.20476 -0.114401 3.2324e-22)
(0.998882 -0.00531102 1.93452e-23)
(1.00826 -0.0233381 5.10899e-26)
(0.999913 -0.00228244 3.15643e-25)
(0.984142 -0.0201648 -1.38805e-22)
(1.037 -0.0415075 -1.95643e-24)
(0.999967 -1.40762e-05 4.75521e-25)
(1.00002 -1.16161e-06 -2.59171e-26)
(0.994158 -0.000399033 2.99659e-23)
(0.980031 0.0919601 2.3578e-21)
(1.01171 -0.0194196 8.55673e-23)
(1.00239 -0.00339622 -1.41614e-23)
(0.940243 -0.0291737 3.4587e-22)
(1 -1.01495e-05 2.82579e-27)
(1.00091 -0.00112247 -1.30758e-23)
(0.999967 -0.000650107 -1.88845e-25)
(1.01305 -0.0186657 1.00826e-22)
(0.984433 -0.0149205 2.41078e-23)
(0.999645 -0.000273103 2.10606e-24)
(0.993801 -0.0105945 2.33497e-23)
(0.988593 -0.00663313 -2.504e-23)
(1.00095 -0.000155465 -1.07487e-24)
(0.999978 -7.22295e-06 -4.96315e-26)
(1.2365 -0.0706253 -1.19596e-21)
(0.999692 -0.00170011 6.73005e-24)
(1.07843 -0.0118874 1.58441e-22)
(1.02091 0.141938 6.25951e-21)
(1.06089 0.117758 -1.31393e-21)
(1.00021 -0.0197905 -5.22056e-23)
(1.00523 -0.00207089 -5.79682e-24)
(1.01751 -0.00144567 2.03483e-22)
(0.999959 -0.0023335 -3.57204e-25)
(0.997871 -0.00999922 2.43782e-23)
(1 -1.66646e-05 2.07529e-26)
(0.991937 0.132078 -1.24828e-22)
(0.988565 -0.0150453 3.36893e-23)
(1.01312 -0.00470771 -7.26248e-23)
(0.983602 -0.0041828 1.42797e-22)
(1.00329 -0.0123849 7.3952e-25)
(0.997506 -0.0056481 3.16814e-23)
(0.999903 -0.00019609 2.41091e-25)
(1.00002 -1.12328e-06 -1.4372e-25)
(0.995786 -0.0043598 -3.53438e-23)
(1.05585 -0.0137163 -1.15221e-22)
(1.00467 0.0459265 1.63941e-22)
(1.00114 -0.000458571 -1.58688e-23)
(0.973716 -0.0543638 -1.26965e-22)
(0.976726 -0.0207074 -4.79055e-23)
(0.992718 -0.00048277 -1.65866e-22)
(1.29527 0.0510597 4.79987e-22)
(0.99879 -0.000928037 -7.66792e-24)
(1.00332 -0.0139994 -1.22702e-23)
(0.994925 -0.00266943 3.28245e-23)
(0.999911 -0.000189065 2.02095e-25)
(0.969157 -0.0634034 1.6156e-22)
(1.00205 0.0374473 -1.65936e-21)
(1.03291 0.0452661 -1.29175e-21)
(0.9791 -0.0139102 -2.31326e-23)
(1.00151 0.0353944 -7.09675e-23)
(1.00008 -0.000209521 1.3751e-24)
(1.00001 -1.50309e-06 4.4031e-26)
(1.28154 0.0943845 1.4204e-22)
(1.2093 -0.0217719 3.56916e-22)
(0.905052 0.10756 -1.64249e-22)
(0.994502 -0.0777932 4.59567e-22)
(0.978811 -0.00141938 -1.07949e-22)
(1.16472 -0.0427122 2.87587e-22)
(1.00108 -0.000477508 1.79725e-23)
(0.994736 -0.0035945 1.8815e-23)
(1.00043 -0.000159671 -1.05784e-24)
(0.990112 -0.000675148 -3.6314e-23)
(0.988989 -0.0123122 -4.92585e-23)
(0.999996 -3.24391e-05 -1.13652e-25)
(0.999174 -3.16927e-05 3.02773e-24)
(1.00328 0.141947 -5.95497e-21)
(0.99988 -0.000675142 2.31316e-24)
(0.931476 0.0979598 4.04546e-21)
(1 -1.58523e-05 -1.59049e-26)
(1.29336 -0.0505221 -1.36007e-21)
(1.07827 -0.0141552 -3.49124e-22)
(1.13157 -0.0285337 3.93537e-23)
(1.00097 -0.000452224 1.0749e-24)
(1.00017 -4.01353e-05 1.87935e-24)
(0.984767 0.0870237 -3.51381e-21)
(1.08162 -0.00963824 7.13643e-22)
(0.978975 -0.0739046 -5.47479e-22)
(1.02256 0.044148 5.93581e-22)
(0.997584 -0.020013 2.12779e-23)
(0.98759 -0.00506327 -3.68858e-23)
(0.996229 -0.000207105 -1.98528e-23)
(1.15291 0.202193 -2.37227e-21)
(0.97755 -0.0247916 1.7413e-22)
(1.03035 -0.0343642 -4.17772e-23)
(0.994047 -0.0105022 -1.33561e-23)
(1 -1.01022e-05 -3.80466e-28)
(0.998803 -0.000876454 -6.51773e-24)
(1.00559 -0.00577482 3.02002e-23)
(0.982981 -0.00745652 1.83299e-22)
(0.979632 -0.0140331 3.45168e-23)
(0.959865 -0.0364628 -5.47301e-23)
(0.9828 -0.00790458 -1.38721e-22)
(1.01805 0.00287919 1.02746e-22)
(0.998021 -0.000134651 4.0616e-25)
(0.944904 -0.0335634 1.81924e-22)
(0.986969 -0.000862658 -5.11712e-23)
(1.00004 -0.000202311 1.74433e-25)
(0.988621 -0.000692883 -3.55285e-23)
(1.03074 -0.0371888 -4.91609e-23)
(1.0173 0.00308025 -5.68329e-22)
(0.975723 -0.0248717 -4.3424e-23)
(0.999985 -7.44368e-07 -7.18463e-28)
(0.983718 -0.0152328 3.64454e-23)
(1.00187 -0.0142744 5.07829e-24)
(1.0013 -0.00111833 4.3399e-24)
(1.10077 -0.17175 -7.80684e-22)
(1.00175 0.0345959 -3.88074e-21)
(1.00084 -0.00110847 1.21408e-23)
(0.988815 -0.000523116 4.80416e-25)
(1.0922 -0.099698 1.77666e-23)
(1.0264 0.000275588 8.50593e-22)
(0.990771 0.0304292 -3.8856e-22)
(1.00173 -0.00236443 3.85594e-24)
(1.00002 -0.0206075 1.62079e-23)
(1.1171 0.144783 -4.11996e-22)
(1.0155 0.02771 -3.00121e-21)
(0.990898 -0.0261189 1.29712e-22)
(1.00447 -0.00335373 -5.46356e-24)
(0.955429 -0.0429555 2.60467e-22)
(0.999998 -5.35769e-06 2.08673e-26)
(0.955732 -0.00183081 -1.82023e-22)
(1.00008 -6.63832e-05 2.59639e-25)
(1.08905 -0.0998452 -9.32434e-22)
(0.999969 -3.34267e-06 -5.24493e-26)
(1.00003 -5.93305e-05 1.41198e-25)
(0.99959 -0.0230315 -1.97053e-23)
(1.27234 -0.00647097 5.83922e-22)
(1.03743 0.181699 2.68686e-21)
(1.03395 -0.0385441 -6.56422e-23)
(1.01311 -0.0149371 5.447e-23)
(0.999999 -4.29792e-06 -5.59235e-27)
(0.994317 -0.00426878 -6.38837e-23)
(1.00008 -2.03518e-05 -1.95138e-25)
(0.997073 -0.00229059 2.18737e-23)
(1.00003 -5.52785e-05 -1.09628e-25)
(1.04826 -0.0122335 -6.72527e-22)
(0.99956 -0.000451835 -8.25537e-24)
(1.0622 0.0601898 1.25686e-21)
(0.999882 -0.000208885 -1.55893e-24)
(0.988039 -0.00495048 -6.19915e-23)
(0.962535 -0.000993094 4.07389e-22)
(0.996035 -0.000285138 -2.55068e-23)
(0.984342 0.0462307 3.73957e-21)
(0.984029 -0.000671603 9.94079e-23)
(1.01503 -0.101562 4.14297e-23)
(0.994871 -0.00377098 9.75614e-23)
(1.02453 -0.00264197 -1.72873e-22)
(0.971393 -0.0549939 5.87801e-22)
(1.01865 -0.00135997 -5.70598e-22)
(1.03393 -0.0723975 -1.81842e-23)
(0.999987 -1.86384e-06 6.45662e-27)
(0.999016 -0.0194422 1.78146e-23)
(0.99629 -0.00027338 3.11579e-24)
(1.00023 -8.81367e-05 1.42422e-24)
(1.00008 -1.71424e-05 3.24209e-25)
(1.15911 0.205451 2.5863e-21)
(0.995451 -0.00203711 5.45185e-23)
(1.02621 0.00108628 9.75245e-22)
(1.00061 -0.0211276 2.00742e-23)
(1.00081 -0.000291117 4.15749e-24)
(1.02273 -0.00833202 -6.21455e-22)
(1.00016 -3.80206e-05 -4.13547e-24)
(0.999978 -3.35065e-06 -7.04625e-27)
(0.956253 -0.00244008 1.39837e-22)
(0.996746 -0.00116281 2.46244e-23)
(1.00003 -5.38398e-05 1.6747e-25)
(1.07432 0.11594 9.33723e-22)
(0.866741 0.0854176 -6.16558e-21)
(0.999803 -0.000221001 3.90742e-24)
(0.964159 -0.00200747 -1.10126e-22)
(1.00002 -1.50322e-06 3.14453e-26)
(0.942449 0.130441 -3.88488e-21)
(1.30127 -0.0525172 -1.79111e-21)
(0.972204 -0.0442411 -4.65455e-22)
(1.00004 -0.000533731 -3.47224e-25)
(1.02931 -0.0330938 1.10263e-22)
(1.03007 -0.00287526 -2.39482e-22)
(1.03115 4.26323e-05 7.19625e-23)
(1.04921 -0.0149987 -8.24225e-23)
(0.999659 -0.00182196 -9.85592e-25)
(0.999878 -0.000808592 2.02597e-24)
(0.986883 -0.014928 -1.07195e-22)
(1 -8.9731e-06 -1.15486e-27)
(1.00001 -1.36085e-06 -8.11314e-27)
(0.976796 -0.0243275 -1.02456e-22)
(0.995037 -0.0595352 -2.3874e-22)
(0.960999 -0.0358334 -1.39928e-23)
(0.889115 0.121251 -1.35327e-22)
(1.00019 -2.44859e-05 -1.73599e-24)
(1.01119 -0.0762643 -5.3454e-22)
(1.00692 -0.00514765 -5.36165e-23)
(0.999979 -3.5682e-06 8.09293e-26)
(0.999044 -0.00377972 -1.70351e-23)
(1.00003 -0.000452226 -2.10654e-25)
(0.995743 -0.0122806 3.80355e-23)
(1.00004 -9.97449e-06 1.92177e-25)
(1.03577 -0.0713463 -4.36549e-23)
(1.01827 -0.00165901 5.53946e-22)
(0.973237 0.145113 9.02055e-22)
(1.02403 -0.00249497 6.48851e-22)
(0.999741 -0.000216621 3.07033e-24)
(1.00043 -0.000374235 -4.06991e-24)
(1.16466 -0.147075 -1.2948e-21)
(1.02617 0.000820426 -7.83698e-22)
(0.997123 -0.000375352 2.24048e-23)
(1.00002 -1.55011e-06 6.76905e-26)
(1.09257 0.0995078 -1.48097e-21)
(1.05705 -0.182907 -3.06373e-22)
(0.994802 -0.0761903 -2.01038e-22)
(0.986614 -0.000734041 -2.68796e-23)
(0.99998 -2.15108e-05 1.60424e-25)
(0.999743 -0.000204318 -1.79946e-24)
(1.06065 -0.187712 8.53067e-22)
(0.996344 -0.0478219 -6.4641e-23)
(1.03989 0.0317328 1.83049e-22)
(0.98072 0.125714 3.44721e-21)
(1.01432 -0.0989087 3.00309e-22)
(0.998821 -8.10444e-05 -4.03218e-24)
(0.999981 -1.01209e-05 -1.85256e-25)
(0.964896 -0.0467617 4.5344e-22)
(0.972549 -0.093652 -6.22814e-22)
(0.999811 -0.000228888 2.08372e-24)
(1.00889 -0.0227136 2.7531e-23)
(0.991215 -0.025434 -2.30517e-23)
(0.995685 -0.00218517 2.14951e-23)
(0.998431 0.0291888 -2.91662e-21)
(0.998802 -0.000522954 1.44631e-23)
(1.04903 -0.0552949 -4.24512e-23)
(1.2491 0.159591 -4.21303e-22)
(0.99281 -0.00314046 -6.23696e-23)
(0.902788 0.101382 -5.99376e-22)
(0.912882 0.0479713 1.84175e-21)
(0.999971 -5.0021e-05 -6.11172e-25)
(0.999976 -0.00071094 -1.77503e-25)
(0.984219 -0.000892846 -6.3263e-23)
(1.01244 -0.00460324 -1.31553e-22)
(0.965629 -0.00185442 2.32561e-22)
(1.00486 -0.00416337 -5.60058e-23)
(0.993067 -0.0031516 5.81132e-23)
(0.999471 -0.000480779 -6.3033e-24)
(0.952642 0.131231 -6.92407e-22)
(1.0627 0.0573112 -1.94739e-21)
(1.00213 -0.0022931 9.90764e-24)
(0.821202 0.0535642 -1.254e-21)
(1.00002 -1.29342e-06 -4.51698e-26)
(1.02462 0.00658652 -1.39013e-21)
(0.987021 -0.0927634 4.39282e-22)
(1.01346 -0.0765596 2.09061e-22)
(1.00009 -0.000203561 -7.01028e-26)
(0.964019 -0.00101328 1.89104e-22)
(1.02213 0.00598111 7.8515e-22)
(1.01211 -0.004921 1.08849e-22)
(1.02956 -0.00175962 3.34396e-22)
(0.999583 -3.65333e-05 1.18163e-23)
(0.999555 -0.000481221 7.47573e-24)
(1.02197 -0.0465195 5.47824e-23)
(0.9968 -0.00125284 -7.04194e-23)
(0.988207 -0.0111827 -1.1641e-22)
(0.999161 -0.00342609 1.00917e-24)
(1.09024 0.0387483 8.84222e-22)
(0.998745 -0.0202488 -1.20721e-23)
(0.995385 -0.00463073 1.21942e-24)
(0.937372 -0.0246552 -5.15548e-22)
(0.996464 0.104292 3.83145e-22)
(1.11469 -0.050503 1.37704e-22)
(1.02222 -0.00798348 4.97983e-22)
(0.99963 -0.000176154 2.2459e-24)
(0.999526 -0.000314802 1.0156e-24)
(0.983461 -0.0199045 2.79642e-22)
(1.00093 -0.00120784 -9.73934e-24)
(0.997589 -0.000662787 -4.00268e-24)
(0.999981 -2.06443e-05 -6.10231e-26)
(0.999694 -0.00185639 1.89347e-25)
(1.0215 0.00550583 -3.0577e-22)
(0.983737 0.0908292 -3.38531e-21)
(0.999881 -1.50487e-05 4.86359e-25)
(1.18919 0.182696 -1.79823e-21)
(0.999996 -4.04427e-05 4.88406e-26)
(0.99698 -0.00271316 2.98534e-23)
(0.999992 -9.26193e-05 6.84579e-26)
(1.0049 -0.00360524 -2.48583e-23)
(1.23662 -0.0783305 9.41291e-22)
(0.999963 -4.20666e-05 5.19272e-26)
(0.999962 -4.50455e-05 3.65766e-25)
(0.950596 -0.0403226 -2.54656e-22)
(1 -8.89017e-06 -1.4074e-27)
(1.05257 -0.0151542 6.8588e-22)
(0.987475 -0.0397684 2.34778e-22)
(0.999978 -0.000624827 1.95746e-25)
(1.08988 0.0747833 -1.13785e-21)
(1 -2.89647e-05 -3.10769e-26)
(0.999629 -3.78304e-05 1.03248e-23)
(0.999917 -3.46347e-05 1.69604e-26)
(0.99555 -0.00464027 -1.81916e-23)
(0.999687 -0.00148011 -3.18376e-24)
(0.99427 -0.000302953 -2.02039e-23)
(0.993817 -0.112232 -5.02535e-23)
(0.999722 -0.00144132 2.12832e-24)
(1.00392 -0.00335392 -1.93112e-23)
(0.999977 -2.44236e-06 -3.03591e-26)
(1.04004 0.17813 -5.07664e-21)
(1.04723 -0.0561856 -1.12963e-22)
(1.11834 -0.0518967 5.8148e-23)
(0.967983 -0.00555817 2.52186e-22)
(0.979216 -0.00400615 -4.62479e-23)
(0.999128 -0.00369701 2.81242e-23)
(1.00272 -0.00255823 2.69315e-23)
(1.05108 0.0741056 5.45518e-22)
(0.983437 -0.0352287 3.41988e-23)
(1.14106 0.121376 5.0495e-22)
(0.960255 -0.0125088 -4.59939e-22)
(0.996873 -0.00261921 -2.81695e-23)
(0.999991 -4.40174e-06 -6.6482e-26)
(0.994752 -0.00267816 -3.9541e-23)
(1.0125 0.168697 1.34323e-21)
(1.08055 0.086354 -2.67921e-22)
(0.982671 -0.0528209 1.96364e-22)
(0.946667 -0.00533353 1.06766e-22)
(1.04601 0.168991 1.34801e-21)
(0.992162 -0.000550537 5.20794e-23)
(0.983499 -0.0846178 3.47266e-23)
(0.999992 -8.86375e-05 1.29815e-25)
(0.986428 -0.0399038 2.92826e-22)
(0.999228 -0.000217571 -1.49784e-23)
(0.83397 0.0912455 -3.63003e-21)
(0.978936 -0.0690292 -4.50357e-22)
(0.999919 -3.10805e-05 8.99817e-25)
(0.943315 -0.0172209 -2.7558e-23)
(0.983221 -0.0373608 1.61418e-23)
(1.03624 0.0822207 2.02116e-21)
(0.997623 -0.000723455 -3.7682e-23)
(0.981528 -0.0359607 -1.02795e-22)
(0.997694 -0.0102479 -3.41518e-23)
(0.999684 -0.0222606 -4.07404e-23)
(0.998833 -0.000532282 -9.8382e-24)
(1.03478 0.0804794 -2.44844e-21)
(1.01428 -0.158395 5.13188e-22)
(0.983653 -0.0158562 -8.10805e-23)
(0.987406 -0.0138888 1.72946e-24)
(0.988138 -0.004677 -2.5259e-23)
(1.0049 -0.00195911 -2.28609e-23)
(1.04809 0.164342 5.21734e-21)
(0.983654 -0.0128616 3.65126e-23)
(1.01477 0.0418083 1.29811e-21)
(1.00251 -0.00205153 2.04962e-23)
(1.21215 -0.113238 -1.85734e-23)
(0.928192 0.104845 6.13506e-22)
(0.992008 -0.000428912 -1.80967e-22)
(0.999789 -3.97785e-05 2.02214e-24)
(1.05444 0.100475 5.9629e-22)
(1.00004 0.135969 -4.98842e-21)
(1.02137 -0.0448227 -6.94767e-23)
(1.0796 -0.0512626 -1.51169e-23)
(0.995529 -0.0127298 -4.28505e-23)
(0.968468 -0.00502806 -1.49793e-22)
(1.11353 0.141236 1.62721e-21)
(0.963671 -0.0468888 7.42043e-23)
(0.999978 -2.06568e-05 2.07318e-25)
(0.993196 -0.000106779 -9.24424e-23)
(1.00004 -5.38338e-06 1.94607e-25)
(0.995899 -0.000256119 6.95453e-23)
(0.999977 -2.16997e-05 -3.25261e-25)
(0.998001 -0.0143 5.90976e-23)
(0.999119 -3.51342e-05 5.3423e-24)
(0.997471 -0.00535506 3.678e-24)
(1.18105 -0.132797 -2.29854e-22)
(0.999455 -0.000368287 5.3879e-24)