/*--------------------------------*- C++ -*----------------------------------*\
  =========                 |
  \\      /  F ield         | OpenFOAM: The Open Source CFD Toolbox
   \\    /   O peration     | Website:  https://openfoam.org
    \\  /    A nd           | Version:  7
     \\/     M anipulation  |
\*---------------------------------------------------------------------------*/
FoamFile
{
    version     2.0;
    format      ascii;
    class       volVectorField;
    location    "17";
    object      U;
}
// * * * * * * * * * * * * * * * * * * * * * * * * * * * * * * * * * * * * * //

dimensions      [0 1 -1 0 0 0 0];

internalField   nonuniform List<vector> 
29659
(
(1.0119 -0.0154431 2.47863e-22)
(1.01235 0.00509252 1.11259e-21)
(0.989542 -0.00380937 -1.48439e-21)
(0.965648 -0.0569141 4.54018e-22)
(0.997237 -5.92937e-05 2.14121e-22)
(0.950611 -0.0350562 -6.76663e-22)
(1.06415 -0.0882877 8.05291e-22)
(1.01559 -0.0233665 -2.49326e-23)
(1.00227 -0.00219753 3.44411e-23)
(1.00021 -5.57946e-05 8.42213e-24)
(1.0174 -0.0312141 -1.99034e-24)
(0.997615 -0.0187138 -5.40992e-22)
(0.999458 -0.000220941 3.05908e-23)
(0.999965 -1.21033e-05 1.00179e-24)
(1.19674 0.0641365 1.84676e-21)
(0.993142 -0.00221301 2.27957e-22)
(0.99982 -0.000963202 -1.45275e-23)
(1.14821 -0.0185402 -1.76531e-22)
(0.99759 -0.00204001 -7.3622e-23)
(0.987608 -0.000918913 -3.26177e-22)
(0.999027 -0.000310522 -1.02356e-22)
(1.00214 -0.00219331 1.20333e-22)
(0.989441 -0.00403036 1.63171e-21)
(0.997578 -0.000194136 9.44009e-23)
(0.818916 0.19887 4.67526e-22)
(1.01343 0.0040176 5.98755e-21)
(0.999415 -6.64988e-05 6.9513e-23)
(0.917942 0.158083 -3.44694e-20)
(1.20067 0.0615423 -4.9235e-21)
(0.999099 -0.010256 -1.06402e-22)
(1.01726 -0.0125291 1.76326e-22)
(1.04278 -0.00891758 -1.29925e-21)
(0.978048 -0.132184 4.50168e-21)
(0.997866 -0.0259196 2.68735e-22)
(0.913219 0.150714 2.83118e-20)
(1.00392 -0.0368477 7.2805e-22)
(1.08917 0.0480841 -1.7544e-21)
(0.968134 -0.0319317 1.91236e-21)
(1.006 -0.000928633 -4.74854e-22)
(1.00579 -0.000651321 9.02242e-22)
(1.00049 -0.000186881 -2.71415e-23)
(0.987361 -0.0344466 -1.87046e-21)
(0.999841 -0.000935997 -1.52403e-25)
(1.0292 -0.0803925 -2.78807e-21)
(1.00004 -6.30472e-06 -1.36431e-24)
(0.99932 -0.0104028 8.00294e-23)
(0.997194 -0.0139113 -1.53175e-22)
(1.00009 -9.58222e-05 3.77891e-24)
(1.00375 -0.0041136 -4.93504e-22)
(1.0882 0.0449371 -7.23722e-22)
(1.12601 -0.0985476 5.18444e-22)
(0.969466 -0.050065 -2.1456e-21)
(1.04267 -0.00788309 4.58141e-22)
(0.952193 -0.0347548 -1.13248e-21)
(0.993312 -0.00227164 -2.0092e-22)
(1.19896 0.0511912 -3.17137e-21)
(0.996192 -0.00254468 7.24513e-23)
(0.999 -0.00034234 1.29637e-22)
(0.999964 -0.0244444 -3.73118e-22)
(1.01179 -0.0656622 -1.2896e-21)
(0.999925 -8.11358e-06 2.19534e-24)
(0.997674 -0.00208961 -1.52412e-23)
(1.23862 -0.0190203 -1.95526e-23)
(1.00434 -0.0360103 -4.01802e-22)
(1.10887 0.128946 1.37756e-20)
(0.858425 0.0523825 7.33739e-20)
(0.998885 -0.0307613 -7.14837e-22)
(0.991812 -0.0156179 6.92933e-22)
(0.894396 0.0326893 2.9512e-20)
(1.00051 -0.000176838 1.75425e-23)
(1.01531 0.00483852 -8.15916e-21)
(0.985806 0.119279 1.9786e-20)
(1.00362 -0.0101994 -1.89094e-22)
(0.859962 0.231898 1.79407e-20)
(0.990912 -0.00071844 1.0565e-21)
(1.12535 -0.058514 8.03952e-23)
(1.26715 0.0645365 3.66039e-21)
(0.969345 -0.0181194 4.56812e-22)
(0.999944 -2.53108e-05 -6.39436e-24)
(1.00416 -0.0542907 -1.28251e-21)
(0.952304 -0.000817064 -7.51648e-22)
(1.03005 0.0503001 4.76342e-21)
(1.01214 -0.0161164 -7.44043e-22)
(1 -7.02359e-05 1.80716e-24)
(1.06669 -0.0861012 -1.21568e-21)
(1.22619 -0.144309 -3.33897e-21)
(1.06637 0.123287 -2.81243e-20)
(0.999437 -0.000217689 -2.75726e-23)
(0.999475 -0.000196934 -8.07307e-24)
(0.926627 -0.0450271 -2.75934e-21)
(0.992921 -0.0594098 2.45813e-21)
(0.969232 -0.018983 5.10065e-22)
(1.00352 -0.00425395 8.46239e-23)
(1.06707 -0.0147544 -7.37312e-22)
(0.919744 -0.0192594 -2.30887e-21)
(1.08954 0.145913 1.29985e-20)
(0.995413 -0.0768905 3.85649e-21)
(1.00053 -0.000434779 4.38255e-23)
(0.966705 -0.0714128 -3.93942e-21)
(1.20355 0.0889155 8.83185e-21)
(0.999941 -2.4785e-05 9.36335e-24)
(0.970796 -0.0118038 -2.74254e-21)
(0.999928 -1.00047e-05 -1.13277e-24)
(1.05228 -0.0237112 -3.70198e-21)
(0.967917 -0.0498971 1.40984e-21)
(1.04436 0.0140394 8.25447e-21)
(1.00964 0.107315 2.92882e-20)
(0.999496 -0.000199326 -6.87277e-23)
(0.999995 -7.8096e-05 -2.30429e-25)
(0.995637 -0.126302 -2.17523e-22)
(0.975564 -0.130718 -4.05608e-21)
(1.047 -0.0471492 2.8423e-22)
(1.00002 -2.11416e-06 1.96324e-25)
(0.998724 -0.00693803 -2.78177e-22)
(0.999873 -0.00247963 1.28399e-23)
(0.991015 0.121228 1.61971e-22)
(1.06076 0.0698592 -1.00188e-20)
(0.986785 -0.00817981 -1.11532e-21)
(1.00003 -7.69506e-05 1.58864e-25)
(1.00398 -0.0100954 -1.46162e-22)
(1.25458 -0.0666613 6.63743e-21)
(1.00859 0.0159075 1.31244e-20)
(1.17626 -0.0736895 -2.52259e-21)
(0.855656 0.0642392 -6.78607e-20)
(1.00123 -0.000403103 -1.13548e-22)
(1.16921 -0.0540737 6.42234e-23)
(1.14727 -0.0143973 -9.9416e-22)
(1.01676 -0.063358 9.41976e-22)
(1.00449 -0.00390875 -4.41446e-22)
(1.00003 -0.000495732 -1.78007e-25)
(1.02876 -0.0782146 9.92747e-22)
(1.26637 0.0592259 1.69107e-21)
(1.04265 0.214863 2.79721e-20)
(1.18076 -0.0895571 -9.00412e-22)
(1.05055 -0.0232565 3.12259e-21)
(1.01675 -0.0120341 3.33178e-21)
(1.18378 0.217583 1.70831e-21)
(0.96947 -0.000871259 3.83906e-21)
(1.13616 -0.209202 1.12171e-20)
(1.20189 0.0833109 -6.80553e-21)
(1.1686 -0.0494663 2.57016e-23)
(0.934097 -0.00568152 -3.04812e-21)
(0.945638 -0.0488113 8.74998e-22)
(1.00002 -1.88356e-06 -8.53032e-26)
(0.999987 -3.69644e-06 6.13857e-25)
(0.997165 -9.82057e-05 -1.67379e-22)
(0.997407 -0.0136309 3.14922e-22)
(0.980976 -0.10047 -3.14344e-21)
(1.13631 -0.161477 4.95418e-21)
(1.26339 0.00781876 3.87423e-22)
(1.03443 -0.0223244 1.68172e-21)
(1.01993 -0.0225527 5.53684e-22)
(1.00049 -0.000703968 6.70011e-23)
(0.999852 -0.000249953 8.52447e-24)
(1.00281 0.0387067 -2.89798e-20)
(1.0006 -0.00172948 7.909e-24)
(0.992487 -0.0127076 5.79817e-25)
(1.20436 0.206335 -4.76133e-21)
(1.00817 0.0675519 -3.15914e-20)
(1.12888 -0.0949918 -9.90222e-22)
(0.954514 -0.00310192 1.2865e-21)
(0.966756 -0.0557667 3.27066e-21)
(1.20173 0.0549781 8.0598e-22)
(0.999944 -5.16578e-05 2.05154e-24)
(0.999986 -3.54163e-06 -2.2897e-25)
(0.986727 -0.00859805 4.02645e-22)
(0.946974 -0.0478229 -4.86297e-21)
(1.00006 -0.000254327 -3.10545e-24)
(1 -7.45875e-05 8.65701e-25)
(0.992401 -0.00574838 -1.33159e-22)
(1.00004 -0.000480857 1.58748e-25)
(1.00643 -0.00671047 -2.47039e-22)
(1.20237 0.214701 5.37551e-21)
(0.969912 -0.000456941 -3.2506e-21)
(1.04528 -0.126695 -1.24267e-21)
(0.994316 -0.00011088 6.8481e-22)
(1.00237 -0.00304091 2.56076e-23)
(0.970009 -0.0116039 4.53096e-21)
(0.999058 -0.00692399 -2.54627e-23)
(1.18105 -0.0650203 1.23469e-21)
(0.999975 -1.12776e-05 3.41183e-24)
(1.01398 -0.0436078 -4.8178e-22)
(1.07031 0.125005 9.91383e-21)
(0.992156 -0.0145048 -4.09504e-23)
(1.12949 -0.205559 -1.07599e-20)
(1.04578 0.0609226 -8.93077e-21)
(0.992942 -0.00317112 -9.96727e-22)
(0.979772 -0.0171461 1.23219e-21)
(1.00425 -0.00392553 6.70654e-22)
(0.99917 -0.00956044 -1.56279e-22)
(0.999688 -8.36144e-06 8.13146e-24)
(1.00666 -0.0202233 1.11139e-22)
(0.84679 0.0321249 2.85045e-20)
(1.00194 0.0326507 2.23563e-20)
(0.983985 -0.00691673 3.17487e-23)
(0.992822 -0.0125189 -4.34899e-22)
(0.965401 0.0677536 -2.76358e-20)
(1.01885 0.0397106 4.11039e-21)
(0.921408 -0.0190522 2.86545e-21)
(1.00129 -0.000544261 -8.88572e-23)
(1.07739 -0.109572 1.69708e-21)
(0.965676 -0.0945868 4.1016e-21)
(0.997918 -0.0191058 2.60034e-22)
(1.00094 -0.00118925 -1.40225e-22)
(1.19204 0.220727 2.22782e-21)
(0.992644 -0.00576215 -9.0773e-23)
(1.00752 -0.00602279 -2.77898e-22)
(0.979098 -0.0998579 4.08994e-21)
(0.995918 -0.129281 5.38633e-22)
(0.999958 -5.89407e-06 7.77546e-25)
(0.981335 0.180852 -3.05062e-20)
(0.998848 -2.61848e-05 -1.66809e-24)
(1 -6.00068e-05 4.70196e-25)
(0.999393 -0.000231765 1.17053e-23)
(0.996124 -0.0597679 -9.0197e-22)
(1.23545 -0.00319001 -5.6294e-22)
(1.01509 -0.0427583 5.96845e-23)
(1.00729 -0.00562527 -1.90514e-22)
(0.997604 -0.000267801 2.34766e-22)
(0.922848 -0.021245 -5.24313e-22)
(1.00004 -0.000527335 -7.2678e-25)
(1.00054 -0.00176411 8.87496e-25)
(0.997419 -0.000226986 -1.54447e-22)
(1.03273 0.00108771 7.72323e-21)
(0.997065 -0.0043963 -4.9638e-23)
(0.998752 -0.00644858 8.28541e-23)
(1.03156 -0.00177997 3.78968e-21)
(1.00014 -0.000431229 6.01304e-24)
(1.00004 -5.36249e-06 3.54973e-25)
(1.00552 -0.000663743 9.72035e-23)
(0.972629 -0.0363987 -1.61601e-21)
(0.973201 -0.000449347 -1.586e-21)
(0.994665 -0.000422049 -7.258e-22)
(1.01648 0.0037956 6.74994e-21)
(0.982527 -0.00126575 7.61941e-22)
(1.02022 -0.0218159 -5.3714e-22)
(0.999964 -1.35241e-05 2.81502e-24)
(0.996728 -0.00290317 -2.82611e-22)
(1.00088 -0.00117942 1.51454e-22)
(1.07686 -0.105656 1.68242e-21)
(1.05545 -0.204689 8.06699e-21)
(0.998465 -0.000138608 1.2263e-22)
(1.00052 -0.000626216 -5.19565e-23)
(0.998644 -0.00629347 -2.80424e-23)
(1.00387 -0.00901467 -3.60346e-22)
(0.987856 -0.000678433 -1.39502e-21)
(0.999946 -4.92115e-05 -1.12721e-25)
(1.22081 -0.141348 -7.17514e-21)
(1.00005 -0.000539355 4.13618e-25)
(1.03236 0.00101533 -5.44112e-21)
(0.996313 -0.0025491 -1.46462e-22)
(1.00016 -0.000417804 2.64867e-24)
(1.0432 0.0146391 -5.24697e-21)
(0.96002 -0.0905022 -4.18075e-21)
(1.00028 -4.73589e-05 2.81932e-23)
(1 -1.38681e-05 2.4737e-25)
(0.933916 -0.00406673 -3.47162e-21)
(1.03837 -0.189403 -1.25964e-21)
(0.990416 -0.00914453 -1.07857e-22)
(1.01568 -0.0647188 -2.51644e-22)
(1.03536 -0.0231638 -2.7533e-22)
(1.0767 0.11841 1.21862e-21)
(1.00009 -9.04679e-05 1.0617e-24)
(0.973153 -0.0356477 1.64786e-21)
(1.22125 -0.0717125 3.07901e-21)
(0.939143 0.0977397 6.50204e-22)
(0.992064 -0.0141761 3.23258e-22)
(1.04393 0.0588976 1.09662e-20)
(1.12576 -0.0545256 1.00873e-22)
(0.999866 -0.00272986 -1.30033e-23)
(0.701131 0.0903684 3.82311e-20)
(0.999396 -0.00048795 -7.92777e-23)
(1.04437 -0.130322 -1.62205e-21)
(0.924126 -0.021231 3.51933e-21)
(1.00251 -0.00287423 -1.41234e-22)
(1.20522 -0.0276725 4.57559e-22)
(0.990446 -0.00104202 -8.35111e-22)
(1.05429 0.232633 1.9769e-20)
(0.996125 -0.000295595 6.60508e-23)
(0.980347 -0.0184916 -6.45509e-23)
(0.999772 -0.00247884 -7.16903e-23)
(1.20857 0.131357 2.02641e-21)
(1.00002 -0.0193755 6.69806e-23)
(1.08521 0.148971 8.30748e-22)
(0.999431 -5.11195e-05 -3.03769e-23)
(0.993488 -0.00210367 -3.17763e-22)
(0.960749 0.233107 -1.29933e-20)
(1.03799 -0.000330914 -6.36432e-21)
(1.03133 -0.00123362 4.40855e-21)
(0.967233 -0.0462095 3.95438e-21)
(0.99983 -3.6719e-05 8.48714e-24)
(1.00376 -0.00869695 -4.10265e-23)
(0.999817 -0.00105318 -2.62581e-23)
(1 -5.68505e-05 3.38812e-25)
(1.06823 0.00262472 1.7049e-21)
(1.00005 -5.91003e-06 4.24926e-26)
(0.977717 -0.0163972 2.88257e-21)
(1.21796 -0.0735183 -2.96094e-21)
(0.814452 0.208869 -3.45515e-20)
(1.0486 0.213521 -4.45637e-20)
(0.964014 -0.0782318 1.29319e-21)
(0.984383 -0.033515 1.01306e-21)
(0.9745 -0.00172924 7.5809e-22)
(1.03778 -0.0432607 9.47754e-22)
(1.0073 -0.0199505 -2.03653e-22)
(0.979637 -0.0179646 -1.70091e-21)
(0.964797 -0.0858533 5.7248e-22)
(1.0754 0.122571 -1.84567e-20)
(0.999316 0.0338008 4.44429e-20)
(0.998566 -0.00016876 6.75226e-23)
(1.01231 0.107845 -4.00262e-20)
(1.06694 0.00106411 5.82416e-22)
(1.18087 -0.0711211 7.28309e-22)
(1.0153 -0.0179948 2.57975e-22)
(1.00119 -0.0178518 -3.13443e-22)
(1.02451 -0.0595053 -6.0161e-22)
(0.99396 -0.00203508 -7.53397e-22)
(0.99701 -0.000740494 -4.94137e-23)
(0.999932 -7.94331e-06 1.16923e-23)
(0.998987 -0.00979509 2.29053e-22)
(1.10512 -0.0553381 1.46827e-22)
(1.21425 0.135673 -3.22987e-21)
(1.00182 -0.00155339 6.65312e-23)
(0.969338 -0.0299164 -2.28936e-21)
(1.01745 -0.0184443 -8.16338e-22)
(0.999956 -1.86866e-05 -1.05328e-24)
(0.964366 -0.0819008 -2.06012e-21)
(0.766638 0.16032 -1.76951e-20)
(0.993027 -0.00541486 1.1189e-21)
(0.998767 -0.00515709 7.46167e-23)
(1.01596 -0.0178036 -1.60248e-22)
(1.00382 -0.052719 1.633e-21)
(1.10971 0.0269361 1.99393e-21)
(0.999427 -0.0111123 -3.91156e-23)
(0.999964 -5.96799e-05 7.28975e-24)
(1.00002 -2.97375e-06 8.38518e-26)
(0.996969 -0.000674431 -5.4568e-23)
(0.956084 0.23215 1.8776e-20)
(1.05614 -0.0354545 7.59391e-22)
(1.0609 -0.20262 -2.12583e-21)
(1 -1.39161e-05 4.01674e-26)
(1.03538 -0.193915 8.22068e-22)
(1.09508 -0.00972812 -2.31851e-21)
(0.994179 -0.000185163 -3.40302e-22)
(0.926938 -0.00773019 -4.29172e-21)
(0.998862 -0.00506711 -7.5061e-23)
(0.999509 -0.000223128 -5.03481e-24)
(0.973944 -0.0322268 -4.96569e-22)
(1.00104 -0.00130412 -6.78708e-23)
(1.18526 -0.0625899 -1.02754e-21)
(1.01046 -0.00125747 -2.00627e-21)
(1.2445 0.046938 -1.95564e-21)
(0.999904 -0.00269369 1.68039e-23)
(1.00487 -0.0158647 6.61043e-23)
(1.00831 0.0140591 -1.7749e-20)
(1.24979 -0.0656743 -2.60267e-21)
(1.00048 -0.000662293 -3.94505e-23)
(1.0005 -0.000587218 3.87114e-24)
(1.00042 0.144289 1.90397e-21)
(0.994175 -0.0605299 -4.92781e-22)
(0.999235 -0.0109429 4.77365e-23)
(1.01761 0.0445973 2.16528e-21)
(0.950994 0.0346878 5.43015e-20)
(1.12645 -0.103083 -1.72559e-21)
(0.998896 -0.0296891 -2.20014e-22)
(1.23285 -0.0010081 5.59999e-22)
(0.999132 -8.29413e-05 -5.14485e-23)
(0.990139 -0.00478204 2.96442e-22)
(0.996206 -0.000310216 -1.86267e-22)
(1.02073 0.0375596 8.86458e-24)
(0.999986 -0.000865608 2.45339e-24)
(1.01011 -0.00152017 2.04971e-21)
(1.15992 -0.150257 1.43368e-22)
(1.03412 0.202706 4.41571e-20)
(0.867317 0.239741 -7.90876e-21)
(0.993157 -0.00316334 3.94264e-23)
(0.990134 -0.00893161 3.22772e-22)
(1.10662 0.134271 -1.09124e-20)
(1.01224 -0.0676856 1.85263e-21)
(0.999934 -9.42763e-06 -1.14016e-23)
(1.26619 0.02878 1.89689e-21)
(1.03208 0.00174337 -2.31667e-21)
(1.03153 0.00177881 -1.57123e-21)
(0.993453 -0.0154325 -4.70407e-22)
(1.02153 -0.00234513 -3.13925e-21)
(0.934024 0.208332 7.56444e-21)
(1.1311 -0.171765 -1.42462e-21)
(0.988996 0.194391 7.44677e-21)
(1.01367 0.185847 -1.28346e-20)
(0.999996 -7.46882e-05 7.37117e-25)
(1.10186 -0.0540354 -2.89307e-22)
(1.13155 -0.166106 9.3423e-22)
(0.996927 -0.00443542 1.29641e-22)
(1.00186 -0.00167123 -1.09433e-22)
(0.942858 0.0402787 1.29775e-20)
(1.05803 -0.036483 -9.7195e-22)
(1.00033 -8.67572e-05 6.44218e-24)
(0.978499 -0.0691281 -4.84029e-21)
(0.964771 -0.0970626 -1.94199e-21)
(0.993631 -0.00216259 4.46919e-22)
(0.999863 -0.000242609 -1.07154e-23)
(1.11458 0.171655 -1.57875e-21)
(1.05967 0.0671544 1.68542e-20)
(1.00006 -0.000589985 -4.48252e-25)
(1.00467 -0.0042155 8.67429e-23)
(1.00601 -0.0042194 4.7108e-22)
(1.19744 -0.114043 5.13479e-21)
(0.967287 -0.0449668 -3.58635e-21)
(1.00008 -0.000699752 -1.85076e-24)
(0.999983 -2.29343e-06 -3.18967e-25)
(1.00057 -0.000193592 1.03602e-23)
(1.10829 0.0290006 -1.98258e-22)
(0.968122 -0.0308037 -1.83004e-21)
(1.00476 0.0771369 9.23556e-21)
(0.937783 -0.0538927 2.09559e-21)
(0.985303 -0.0333658 -1.07429e-21)
(0.972429 -0.00134559 -3.04568e-21)
(1.01961 0.0426839 -1.06655e-20)
(1.23345 -0.0178398 -4.63133e-23)
(0.998611 -0.000179388 1.23717e-22)
(1.00904 -0.00687611 -5.03834e-22)
(1.00097 -0.00129125 7.69047e-23)
(0.992397 0.216639 -1.86125e-20)
(0.970471 -0.0279376 9.85064e-22)
(1.00125 -0.00032771 -3.71006e-23)
(0.991321 -0.00425887 -4.04129e-22)
(1.17313 -0.0452752 3.6677e-22)
(0.999532 -0.0119384 -1.01505e-22)
(0.986669 -0.0147169 -2.2257e-22)
(1.00027 -0.000165993 -1.94166e-23)
(1.00028 -6.26449e-05 -8.55062e-25)
(0.759604 0.171833 2.66586e-20)
(0.990515 -0.00155153 -5.18665e-22)
(0.994467 -0.00558832 4.59398e-22)
(0.999565 -0.00219535 -6.0735e-23)
(0.999154 -6.31281e-05 -7.05547e-24)
(1.08528 0.112382 -6.19289e-21)
(1.16588 -0.151072 3.4303e-22)
(0.982668 -0.0500763 6.33798e-22)
(1.00002 -2.41957e-06 -1.04468e-25)
(1 -4.56689e-05 3.05208e-25)
(0.969313 -0.0289296 2.58705e-21)
(0.992159 -0.00227078 1.06747e-22)
(0.99401 -0.00259327 -6.15644e-23)
(1.0168 -0.00630854 9.72517e-22)
(1.00673 -0.00285276 1.69472e-22)
(1.00033 -0.0198484 -1.19408e-22)
(1.14355 -0.0336331 1.73224e-21)
(0.978491 -0.00523454 -6.38204e-22)
(0.991308 0.189317 -6.32956e-21)
(1.01642 -0.0312063 -2.08512e-22)
(1.00029 -0.000166673 2.16179e-23)
(0.963034 -0.0767673 1.91768e-22)
(0.980678 -0.0443671 -2.23136e-21)
(1.19787 -0.0220078 6.14491e-22)
(0.996653 -0.0073048 -1.37522e-22)
(0.986951 -0.058764 -7.45602e-22)
(0.999975 -6.55527e-06 1.84107e-24)
(0.886222 0.167592 -2.71024e-20)
(1.01796 -0.00262857 1.76977e-21)
(1.0001 -0.000283643 -5.86146e-24)
(0.846782 0.043988 -3.69875e-20)
(0.981451 -0.0503167 1.41858e-21)
(0.999974 -7.658e-06 2.90585e-25)
(1.00169 -0.00151976 3.22753e-23)
(0.963209 -0.0802727 -1.13605e-21)
(1.04527 -0.0455769 3.08568e-22)
(1.05824 -0.0172935 2.12806e-21)
(0.999989 -3.92899e-06 5.17349e-25)
(0.990468 -0.000791351 4.12035e-22)
(1.02556 -0.0582434 1.0259e-21)
(0.993807 -0.0019847 6.18297e-22)
(0.999455 -5.87342e-05 -1.64896e-22)
(0.990332 -0.00493826 8.64452e-24)
(0.959949 0.0702648 3.21034e-21)
(0.991663 -0.0151672 -5.78676e-22)
(0.98723 -0.0144159 1.63446e-22)
(1.00355 0.0443686 -8.9989e-21)
(0.996789 -0.00274254 1.47531e-22)
(0.982807 0.222744 -2.31686e-21)
(0.999973 -7.71769e-06 -9.34799e-25)
(0.98775 -0.0336036 4.35526e-22)
(0.978641 -0.0950115 4.70041e-21)
(0.988111 -0.0591587 1.26843e-21)
(1.21407 -0.0838731 9.40304e-22)
(0.998613 -0.00674113 1.86441e-22)
(1.01086 -0.0291694 7.38138e-23)
(0.999901 -0.00290045 3.66298e-24)
(0.980042 -0.0261266 -1.26968e-21)
(1.04677 -0.0493967 8.77561e-23)
(0.999958 -1.79075e-05 5.41401e-24)
(1.00002 -1.42083e-06 -1.82993e-25)
(0.992545 -0.000507164 2.81867e-22)
(0.975287 0.130189 1.9878e-20)
(1.01499 -0.0241818 9.43994e-22)
(1.00304 -0.00428885 -1.36509e-22)
(0.921803 -0.0397997 2.97319e-21)
(1 -1.2432e-05 1.17938e-25)
(1.00115 -0.00142328 -1.23431e-22)
(0.999958 -0.000825478 -1.88754e-24)
(1.01665 -0.0232087 1.05602e-21)
(0.980258 -0.0193094 2.26491e-22)
(0.999548 -0.000346994 2.09215e-23)
(0.992204 -0.0135343 2.15734e-22)
(0.985454 -0.00852799 -2.36953e-22)
(1.0012 -0.000196175 -1.02375e-23)
(0.999972 -8.99743e-06 -5.81408e-25)
(1.22478 -0.0513455 -2.33826e-21)
(0.999609 -0.00215899 6.53195e-23)
(1.09166 -0.0147856 1.78971e-21)
(1.05764 0.188161 4.48067e-20)
(1.09911 0.135307 -1.01543e-20)
(1.00062 -0.0250586 -4.40342e-22)
(1.00659 -0.00257779 -5.61668e-23)
(1.02193 -0.00187464 1.92481e-21)
(0.999959 -0.00296515 -4.1683e-24)
(0.997381 -0.0126891 2.245e-22)
(1 -2.09397e-05 4.82347e-25)
(1.00885 0.187666 -9.23033e-22)
(0.985594 -0.0193657 3.15758e-22)
(1.01644 -0.00580259 -6.95363e-22)
(0.978978 -0.00543397 1.33051e-21)
(1.0043 -0.0155961 7.22302e-24)
(0.996855 -0.0071868 3.0114e-22)
(0.999876 -0.000248594 2.55058e-24)
(1.00002 -1.27458e-06 -1.01716e-24)
(0.994656 -0.00556621 -3.3457e-22)
(1.06714 -0.0167545 -1.16146e-21)
(1.00875 0.0706834 1.45425e-21)
(1.00145 -0.000583134 -1.51256e-22)
(0.968681 -0.0715198 -1.04737e-21)
(0.970396 -0.027097 -4.34808e-22)
(0.990702 -0.000621907 -1.5476e-21)
(1.25914 0.00836697 -2.8505e-22)
(0.998464 -0.00118235 -7.42183e-23)
(1.00437 -0.0176415 -1.70282e-22)
(0.993542 -0.00340943 3.12885e-22)
(0.999887 -0.000239628 2.14373e-24)
(0.96348 -0.0840221 1.29336e-21)
(1.00449 0.0681143 -1.4476e-20)
(1.04409 0.0530794 -1.1235e-20)
(0.973285 -0.0181381 -2.0913e-22)
(1.00346 0.0649447 -6.12212e-22)
(1.0001 -0.000266236 1.10766e-23)
(1.00002 -1.83577e-06 3.01969e-25)
(1.26174 0.028683 -8.29912e-22)
(1.20366 -0.0232464 -1.05876e-22)
(0.856954 0.173255 -1.27855e-21)
(0.99901 -0.099568 3.45361e-21)
(0.972724 -0.00185685 -9.72612e-22)
(1.17216 -0.0399968 -4.577e-22)
(1.00138 -0.000609337 1.71196e-22)
(0.993306 -0.00459189 1.79144e-22)
(1.00054 -0.000205917 -9.91486e-24)
(0.987348 -0.00086978 -3.30742e-22)
(0.986072 -0.0158393 -4.63131e-22)
(0.999995 -4.09118e-05 -1.94698e-24)
(0.99895 -4.07386e-05 2.92955e-23)
(1.03183 0.197487 -4.32821e-20)
(0.999847 -0.00085713 2.41767e-23)
(0.899658 0.152356 3.40489e-20)
(1 -1.99143e-05 -3.6795e-25)
(1.25479 -0.035302 -1.96851e-21)
(1.09151 -0.0171623 -3.80338e-21)
(1.14358 -0.0301051 -1.91634e-21)
(1.00123 -0.000579468 1.0213e-23)
(1.00022 -5.12529e-05 1.71179e-23)
(0.980939 0.12121 -3.02714e-20)
(1.09504 -0.0124347 7.61983e-21)
(0.977965 -0.0968736 -4.26679e-21)
(1.03139 0.0528721 5.15886e-21)
(0.997305 -0.0254219 1.88454e-22)
(0.984141 -0.00651491 -3.44594e-22)
(0.995189 -0.000266582 -1.86948e-22)
(1.24863 0.154056 -1.2711e-20)
(0.971647 -0.0324089 1.60162e-21)
(1.03838 -0.0414741 -6.47684e-22)
(0.992516 -0.0134136 -1.23856e-22)
(1 -1.23604e-05 -2.15793e-27)
(0.998479 -0.00111606 -6.30757e-23)
(1.00707 -0.00724954 2.9461e-22)
(0.978219 -0.00967635 1.70606e-21)
(0.973981 -0.0182876 3.13288e-22)
(0.948799 -0.0487348 -4.70762e-22)
(0.977993 -0.0102611 -1.2941e-21)
(1.0239 0.00339165 9.12259e-22)
(0.997482 -0.000171097 3.8721e-24)
(0.928352 -0.0456 1.52794e-21)
(0.983314 -0.00110935 -4.7329e-22)
(1.00005 -0.000257149 8.54968e-25)
(0.985437 -0.000887374 -3.27629e-22)
(1.03903 -0.0448085 -1.00664e-21)
(1.02297 0.00366426 -5.0445e-21)
(0.969244 -0.0325888 -3.98046e-22)
(0.999979 -8.65238e-07 -8.5672e-27)
(0.979339 -0.019734 3.39615e-22)
(1.00254 -0.0180162 3.22473e-23)
(1.00165 -0.001413 4.1404e-23)
(1.15452 -0.170544 -4.25616e-21)
(1.0035 0.0663798 -3.38014e-20)
(1.00107 -0.00140622 1.14501e-22)
(0.985685 -0.000668523 4.64438e-24)
(1.11723 -0.103075 4.48651e-23)
(1.03322 0.000255421 7.73976e-21)
(0.98194 0.0534798 -3.44727e-21)
(1.0022 -0.00299478 3.69021e-23)
(1.0004 -0.0260971 1.3769e-22)
(1.17543 0.13439 -2.69194e-21)
(1.0217 0.0331923 -2.63863e-20)
(0.989001 -0.0334978 1.15478e-21)
(1.00567 -0.0042265 -5.2749e-23)
(0.943288 -0.0577349 2.14961e-21)
(0.999997 -6.12769e-06 3.81252e-25)
(0.942186 -0.00245922 -1.5692e-21)
(1.0001 -8.4408e-05 2.20143e-24)
(1.11415 -0.104262 -4.21104e-21)
(0.99996 -4.28358e-06 -6.03118e-25)
(1.00003 -7.52573e-05 7.89798e-25)
(0.999941 -0.0291704 -1.64671e-22)
(1.2418 -0.0153417 1.74319e-22)
(1.10957 0.234203 1.73762e-20)
(1.04293 -0.0461565 -1.55011e-21)
(1.01664 -0.0186165 5.43515e-22)
(0.999999 -4.65212e-06 -1.15147e-25)
(0.992773 -0.00545312 -6.04109e-22)
(1.00011 -2.54659e-05 -1.67551e-24)
(0.996281 -0.00291973 2.10828e-22)
(1.00003 -7.00582e-05 -6.05658e-25)
(1.05853 -0.0150364 -6.63772e-21)
(0.999442 -0.000574339 -8.16334e-23)
(1.0816 0.0661175 1.06595e-20)
(0.999851 -0.00026547 -1.63872e-23)
(0.984721 -0.00636456 -5.84912e-22)
(0.951268 -0.00132102 3.6345e-21)
(0.994942 -0.000362792 -2.41375e-22)
(0.971964 0.0717743 3.30603e-20)
(0.979517 -0.000874188 8.92926e-22)
(1.03008 -0.125733 2.8153e-22)
(0.993481 -0.00481622 9.28417e-22)
(1.03078 -0.00332142 -1.60356e-21)
(0.965634 -0.0725808 4.51649e-21)
(1.0234 -0.00174097 -5.36859e-21)
(1.04706 -0.0861502 -1.12545e-22)
(0.999983 -1.76716e-06 8.53877e-26)
(0.99909 -0.0246602 1.52477e-22)
(0.995268 -0.000351707 2.93798e-23)
(1.0003 -0.000112348 1.30805e-23)
(1.0001 -2.13318e-05 2.75585e-24)
(1.25512 0.150761 1.37838e-20)
(0.994209 -0.00260194 5.19441e-22)
(1.03316 0.00115969 8.84162e-21)
(1.00115 -0.0267245 1.67442e-22)
(1.00102 -0.000369291 3.92983e-23)
(1.02841 -0.0102811 -5.86738e-21)
(1.0002 -4.77495e-05 -3.74798e-23)
(0.999971 -4.10055e-06 -8.20273e-26)
(0.942886 -0.0032751 1.21214e-21)
(0.995859 -0.00148436 2.34922e-22)
(1.00004 -6.82215e-05 1.06045e-24)
(1.11438 0.126783 7.28955e-21)
(0.789574 0.138952 -4.94429e-20)
(0.99975 -0.000281076 3.94474e-23)
(0.953431 -0.00266752 -1.00323e-21)
(1.00002 -1.80623e-06 2.22e-25)
(0.926396 0.204367 -3.09655e-20)
(1.25933 -0.0355251 -2.68362e-21)
(0.965775 -0.0582506 -3.70084e-21)
(1.00006 -0.000676865 -2.02171e-24)
(1.03706 -0.040031 1.54713e-21)
(1.0374 -0.00376876 -2.21088e-21)
(1.03887 -0.000424269 6.53357e-22)
(1.05957 -0.0181819 -8.20582e-22)
(0.999574 -0.00231439 -1.01929e-23)
(0.999845 -0.00102658 2.0791e-23)
(0.983427 -0.0192544 -1.00658e-21)
(1 -1.08421e-05 3.00299e-25)
(1.00002 -1.3897e-06 -5.69399e-26)
(0.970633 -0.0318336 -9.43693e-22)
(0.99713 -0.0759181 -1.88683e-21)
(0.950281 -0.047827 -1.21121e-22)
(0.830874 0.199484 -1.10706e-21)
(1.00024 -3.09762e-05 -1.58581e-23)
(1.02005 -0.0947984 -3.87851e-21)
(1.00875 -0.00645642 -5.17753e-22)
(0.999972 -4.32648e-06 9.43615e-25)
(0.998797 -0.00479997 -1.63216e-22)
(1.00004 -0.000574303 -9.13773e-25)
(0.994717 -0.0156532 3.56384e-22)
(1.00005 -1.2625e-05 1.53165e-24)
(1.04915 -0.0846176 -2.54233e-22)
(1.02294 -0.00212126 5.20593e-21)
(0.984732 0.217261 6.50371e-21)
(1.0301 -0.00311057 6.02627e-21)
(0.999671 -0.000274979 3.08682e-23)
(1.00054 -0.000475271 -3.81813e-23)
(1.197 -0.119832 -5.2024e-21)
(1.03303 0.000946586 -7.11323e-21)
(0.996332 -0.000480985 2.10681e-22)
(1.00002 -1.74937e-06 4.78284e-25)
(1.12728 0.100577 -1.16935e-20)
(1.11511 -0.207454 -1.88462e-21)
(0.999125 -0.097397 -1.53054e-21)
(0.982857 -0.00094453 -2.5083e-22)
(0.999974 -2.73274e-05 1.92142e-24)
(0.999673 -0.000259425 -1.80601e-23)
(1.12219 -0.210705 5.28779e-21)
(0.997511 -0.0608038 -5.24296e-22)
(1.05114 0.0361291 1.59377e-21)
(0.988612 0.182403 2.74985e-20)
(1.02855 -0.122536 2.12919e-21)
(0.998502 -0.000102828 -3.85217e-23)
(0.999975 -1.27122e-05 -2.2182e-24)
(0.956208 -0.0621409 3.62596e-21)
(0.972537 -0.124605 -4.76149e-21)
(0.99976 -0.000290882 2.13041e-23)
(1.01163 -0.0283813 4.11238e-22)
(0.989377 -0.0326033 -2.02027e-22)
(0.99451 -0.00278948 2.05023e-22)
(0.997117 0.058724 -2.57396e-20)
(0.998477 -0.000669223 1.37159e-22)
(1.06214 -0.0640588 1.52084e-24)
(1.27117 0.0659699 -3.74866e-21)
(0.990843 -0.00401845 -5.89597e-22)
(0.852144 0.163047 -4.81397e-21)
(0.862578 0.0748595 1.54605e-20)
(0.999964 -6.33296e-05 -7.33659e-24)
(0.99997 -0.000901929 -2.24261e-24)
(0.979764 -0.00116087 -5.72343e-22)
(1.01563 -0.00577895 -1.25801e-21)
(0.955383 -0.00245909 2.08603e-21)
(1.00616 -0.0052431 -5.41123e-22)
(0.991173 -0.00403145 5.52058e-22)
(0.999328 -0.00061218 -6.17799e-23)
(0.944326 0.202405 -5.44518e-21)
(1.08153 0.0627565 -1.65856e-20)
(1.0027 -0.00290348 9.51676e-23)
(0.714136 0.0858715 -9.76188e-21)
(1.00002 -1.60111e-06 -3.1143e-25)
(1.0316 0.00757682 -1.24049e-20)
(0.991896 -0.120435 3.35855e-21)
(1.02292 -0.0947767 1.51268e-21)
(1.00011 -0.000258485 -5.48254e-25)
(0.953241 -0.00134979 1.7168e-21)
(1.02852 0.00686412 6.99115e-21)
(1.01524 -0.00620166 1.04094e-21)
(1.03684 -0.00245866 3.07849e-21)
(0.999469 -4.59106e-05 1.16241e-22)
(0.999435 -0.000612099 7.39514e-23)
(1.0293 -0.0567768 2.56412e-22)
(0.995928 -0.00159995 -6.73623e-22)
(0.98504 -0.0144098 -1.09046e-21)
(0.998945 -0.00435129 9.67023e-24)
(1.10818 0.037362 7.83479e-21)
(0.99878 -0.0256916 -1.0544e-22)
(0.994144 -0.00591246 1.0903e-23)
(0.917761 -0.0337128 -4.39477e-21)
(1.00453 0.143334 3.13077e-21)
(1.12974 -0.0511749 -1.02294e-21)
(1.02774 -0.00982877 4.71807e-21)
(0.999529 -0.000223965 2.22611e-23)
(0.999398 -0.000400271 1.0002e-23)
(0.979152 -0.025815 2.55769e-21)
(1.00118 -0.00153154 -9.20895e-23)
(0.996932 -0.000847754 -3.81852e-23)
(0.999975 -2.6206e-05 -7.23985e-25)
(0.999618 -0.00235783 2.05942e-24)
(1.02779 0.00635138 -2.71939e-21)
(0.980568 0.127227 -2.90131e-20)
(0.999849 -1.91399e-05 5.05914e-24)
(1.25558 0.113529 -1.01742e-20)
(0.999995 -5.11159e-05 8.27736e-25)
(0.996167 -0.00345632 2.86751e-22)
(0.99999 -0.000117293 9.43163e-25)
(1.00621 -0.0045363 -2.39964e-22)
(1.22606 -0.0553586 1.80188e-21)
(0.999953 -5.30442e-05 5.72468e-25)
(0.999952 -5.69442e-05 4.14178e-24)
(0.936513 -0.0545257 -2.00107e-21)
(1.00001 -1.07289e-05 -2.0448e-27)
(1.0634 -0.0183067 6.82945e-21)
(0.985443 -0.0512713 2.03008e-21)
(0.999972 -0.000793275 2.12217e-24)
(1.1161 0.0753476 -9.20073e-21)
(1 -3.64469e-05 -6.57934e-25)
(0.999529 -4.76269e-05 1.02122e-22)
(0.999895 -4.38335e-05 1.71235e-25)
(0.994356 -0.00592628 -1.7227e-22)
(0.999603 -0.00188043 -3.16116e-23)
(0.992687 -0.000383734 -1.89453e-22)
(1.00536 -0.144925 -3.90712e-22)
(0.999648 -0.00183146 2.10833e-23)
(1.00497 -0.00423277 -1.86211e-22)
(0.99997 -2.97154e-06 -3.50532e-25)
(1.11002 0.227171 -3.38483e-20)
(1.06018 -0.0653091 -4.18395e-23)
(1.13321 -0.0521759 2.96744e-23)
(0.958536 -0.0073514 2.25397e-21)
(0.973262 -0.00522558 -4.14251e-22)
(0.998903 -0.00469419 2.69283e-22)
(1.00345 -0.00322852 2.59106e-22)
(1.0715 0.0853793 4.58115e-21)
(0.979893 -0.0456611 3.03453e-22)
(1.18377 0.0998872 3.70085e-21)
(0.948365 -0.0166996 -4.05982e-21)
(0.996029 -0.0033373 -2.70307e-22)
(0.999988 -4.92699e-06 -9.26555e-25)
(0.99332 -0.0034212 -3.77245e-22)
(1.06155 0.23341 9.00188e-21)
(1.1095 0.0909589 -2.18285e-21)
(0.980353 -0.0686144 1.64408e-21)
(0.929998 -0.00720229 9.41198e-22)
(1.11054 0.210166 9.26933e-21)
(0.989988 -0.000709515 4.89746e-22)
(0.985709 -0.110297 2.65005e-22)
(0.99999 -0.000111928 2.0918e-24)
(0.984102 -0.0515244 2.53087e-21)
(0.99902 -0.000276465 -1.45443e-22)
(0.734024 0.148952 -2.80154e-20)
(0.977267 -0.0903261 -3.58283e-21)
(0.999897 -3.92763e-05 9.54838e-24)
(0.925611 -0.0234128 -2.47572e-22)
(0.97976 -0.0484401 1.43001e-22)
(1.05489 0.0992056 1.66787e-20)
(0.996975 -0.000925143 -3.61076e-22)
(0.977458 -0.0467423 -9.04899e-22)
(0.99716 -0.0130094 -3.1244e-22)
(1.00003 -0.0281875 -3.43072e-22)
(0.998517 -0.000680694 -9.37299e-23)
(1.05267 0.097216 -2.02825e-20)
(1.04887 -0.199735 3.57859e-21)
(0.979268 -0.0205435 -7.53718e-22)
(0.984075 -0.0179 1.60472e-23)
(0.984848 -0.00601012 -2.35051e-22)
(1.00619 -0.00248347 -2.20273e-22)
(1.10989 0.202366 3.62703e-20)
(0.979196 -0.0166678 3.42962e-22)
(1.02156 0.0508512 1.13262e-20)
(1.00318 -0.00259699 1.97245e-22)
(1.21842 -0.0811198 -1.07289e-22)
(0.89561 0.16443 5.12448e-21)
(0.989791 -0.00055405 -1.69104e-21)
(0.999731 -5.03119e-05 2.04759e-23)
(1.08373 0.116745 4.7908e-21)
(1.02369 0.190137 -3.55604e-20)
(1.02841 -0.0547715 -2.84661e-22)
(1.095 -0.0558973 1.26674e-22)
(0.994452 -0.01624 -3.95278e-22)
(0.959171 -0.00664467 -1.33506e-21)
(1.17006 0.132637 1.09711e-20)
(0.954579 -0.0623846 6.22987e-22)
(0.999972 -2.62433e-05 2.47472e-24)
(0.991317 -0.00013623 -8.7231e-22)
(1.00005 -6.96294e-06 1.51672e-24)
(0.994767 -0.000325859 6.54935e-22)
(0.999971 -2.75982e-05 -3.85229e-24)
(0.997634 -0.0181496 5.17302e-22)
(0.99888 -4.51752e-05 5.16295e-23)
(0.996806 -0.0068143 3.51051e-23)
(1.2038 -0.103515 -8.61525e-22)
(0.999307 -0.000467485 5.28006e-23)
(0.999417 -0.000240262 3.61261e-23)