/*--------------------------------*- C++ -*----------------------------------*\
  =========                 |
  \\      /  F ield         | OpenFOAM: The Open Source CFD Toolbox
   \\    /   O peration     | Website:  https://openfoam.org
    \\  /    A nd           | Version:  7
     \\/     M anipulation  |
\*---------------------------------------------------------------------------*/
FoamFile
{
    version     2.0;
    format      ascii;
    class       volVectorField;
    location    "28";
    object      U;
}
// * * * * * * * * * * * * * * * * * * * * * * * * * * * * * * * * * * * * * //

dimensions      [0 1 -1 0 0 0 0];

internalField   nonuniform List<vector> 
115546
(
(1.02361 -0.0370557 1.74127e-22)
(0.999988 -4.69637e-07 -2.20219e-25)
(0.989467 -0.00867318 2.37649e-22)
(0.997366 -0.00281983 -3.94643e-23)
(1.00129 -0.00316986 5.29411e-24)
(0.999298 -0.00104554 1.09029e-23)
(1.01001 0.0905291 -9.15461e-21)
(1.03614 -0.0722871 3.13849e-22)
(0.999765 -0.000337485 -3.65118e-25)
(0.999988 -3.9899e-07 4.57714e-26)
(0.999816 -1.71472e-05 3.05877e-24)
(1.00012 -9.12395e-05 2.7692e-24)
(0.998953 -0.00342934 -1.46987e-23)
(0.939756 -0.0039884 -8.53397e-22)
(0.999764 -0.000346117 3.54515e-24)
(0.947011 -0.0180816 -1.97129e-21)
(0.999898 -0.000259703 1.72039e-25)
(0.999718 -0.000181799 -4.94407e-24)
(0.988855 0.0870135 1.12811e-20)
(1.00133 -0.00320995 2.78423e-23)
(1.04057 -0.07349 2.89992e-21)
(0.99581 -0.000125626 -1.80801e-23)
(0.99967 -0.000245031 -4.87432e-24)
(0.99594 -0.00408376 -2.716e-23)
(0.932588 0.0242836 1.07585e-20)
(1.09827 0.0230562 2.34227e-21)
(1.26214 0.0348569 1.28467e-21)
(1.01373 -0.00332878 8.14408e-22)
(0.999984 -4.03061e-05 -4.69813e-25)
(1.0098 0.150106 -1.06509e-20)
(0.999897 -3.55102e-05 1.83489e-24)
(1.0393 0.00857031 7.6938e-22)
(1.00548 -0.00845762 -1.96473e-23)
(0.98923 -0.00457546 -2.18243e-22)
(0.922464 0.0659954 4.91566e-21)
(0.99854 -0.000878477 6.80617e-23)
(1.01359 0.0999276 1.57554e-21)
(0.999897 -0.000265954 -5.00581e-26)
(1.2164 -0.151592 5.11858e-22)
(1.01891 0.0532914 1.41456e-20)
(1.03973 0.00902552 -1.49614e-21)
(0.999714 -0.000188524 -1.00518e-24)
(0.986705 -0.0158517 -4.5409e-22)
(0.998545 -0.000851514 -4.83936e-23)
(0.972758 -0.0425981 -8.00106e-23)
(0.940108 -0.00358805 8.89131e-22)
(1.0045 -0.0103278 9.19645e-23)
(1.00422 -0.000517674 6.97652e-23)
(1.00005 -0.00509367 -4.37497e-24)
(1.00011 -1.00533e-05 -1.32687e-23)
(1.00001 -8.6648e-07 -9.84921e-26)
(0.997387 -0.000117186 5.48272e-23)
(1.02879 0.00971732 2.56023e-21)
(0.99999 -3.15339e-07 -3.5907e-26)
(0.998541 -0.00602207 6.52865e-23)
(1.02848 0.00996608 -6.68744e-22)
(1.02292 0.000548469 1.81801e-21)
(0.969494 -0.0297083 -2.48051e-22)
(1.19674 0.0344039 -6.78079e-22)
(0.991922 -0.0107136 5.20786e-22)
(0.999942 -0.000145365 1.99152e-25)
(0.995872 -0.00432694 2.35041e-23)
(0.999438 -3.25231e-05 -9.65257e-24)
(0.986188 -0.00753989 6.52894e-23)
(0.999948 -3.80143e-05 -1.11649e-24)
(1.00072 -5.95717e-05 -3.46202e-24)
(0.999125 -0.0031362 6.1034e-23)
(1.03009 -0.00297984 1.46966e-21)
(1.28181 0.0730461 -3.21163e-21)
(1.02336 0.000238335 7.42891e-22)
(1.0523 0.0992819 3.92712e-21)
(1.18855 0.0916492 -9.03496e-22)
(1.01901 0.0525061 6.26423e-21)
(0.967067 -0.00277002 -1.66785e-22)
(1.01471 -0.0461338 -2.3699e-22)
(0.978243 -0.00714491 -9.14913e-23)
(1.1319 -0.0245713 2.0278e-22)
(0.999444 -0.00181897 -2.12002e-23)
(0.998453 0.0531902 -3.61723e-21)
(1.09552 -0.0049965 -2.50477e-23)
(1.09614 -0.00346332 2.7697e-22)
(0.999958 -2.47753e-06 4.70108e-26)
(0.974257 -0.093475 1.29814e-21)
(1.01314 -0.000767029 -3.66903e-22)
(0.997395 -0.000743115 3.41483e-23)
(1.00011 -8.84195e-05 2.77374e-24)
(0.985986 -0.0118335 -3.03373e-22)
(0.999989 -1.44336e-05 2.89883e-26)
(0.976086 -0.00754713 -2.52826e-24)
(0.999992 -2.37361e-05 -3.02338e-25)
(1.22814 -0.0863667 4.29817e-22)
(0.991476 -0.00456751 1.33898e-22)
(0.999983 -4.04387e-05 5.29001e-25)
(0.998902 -0.00078134 4.98197e-23)
(0.999651 -0.000231405 -8.46324e-24)
(1.00025 -3.70109e-05 4.39943e-24)
(0.999723 -1.18804e-05 -1.67193e-24)
(0.974911 -0.0929728 7.06593e-23)
(1.13764 -0.090236 3.92089e-22)
(0.976207 -0.00733077 -1.44098e-22)
(0.999941 -0.000148641 -3.15582e-25)
(1.01691 -0.00576774 -8.42871e-22)
(1.00189 -0.00936734 9.01726e-24)
(1.00193 -0.000130529 -2.76142e-25)
(1.0514 0.0977772 2.62246e-21)
(1.00442 -0.066705 1.04285e-21)
(1.00991 0.054423 -4.18879e-21)
(0.980053 -0.0590974 8.945e-22)
(0.99542 -0.021696 8.96822e-23)
(0.999987 -4.63917e-05 6.19479e-25)
(1.11271 0.00338208 -4.6367e-22)
(0.999727 -1.55748e-05 6.5958e-25)
(1.13314 -0.0228192 -1.16264e-22)
(0.99671 -0.0154222 -3.90611e-22)
(0.836872 0.0575207 -2.25887e-21)
(0.999712 -0.00917014 -1.82012e-22)
(0.999814 -1.45261e-05 -5.67891e-24)
(1.06528 0.0997371 -4.77618e-21)
(1.00002 -1.27092e-05 3.24249e-25)
(1.1894 0.0885775 6.97595e-22)
(1.06478 0.101784 6.81645e-21)
(0.946489 -0.0184472 8.12006e-22)
(0.9898 -0.00913633 2.05666e-22)
(1.16538 0.0112388 -3.66269e-22)
(0.99999 -6.11326e-07 -3.86646e-26)
(1.00998 0.148642 1.22679e-20)
(0.995894 -0.00444494 -2.50828e-23)
(0.913925 0.137728 -6.52868e-21)
(0.998663 -8.05049e-05 9.77891e-25)
(1.0207 -0.000494489 -1.11567e-21)
(1.03471 -0.0452178 4.31729e-23)
(1.00017 -2.37196e-05 3.92094e-24)
(1.08927 0.112262 -2.80174e-21)
(1.00011 -8.3837e-05 -8.44587e-24)
(1.00002 -1.08218e-05 1.6201e-25)
(0.98781 0.100143 1.80988e-20)
(0.940273 0.0641121 -2.95115e-21)
(1.00546 -0.00861388 -2.28471e-23)
(0.998631 -0.00606762 -9.22143e-23)
(0.995918 -0.00427256 2.31994e-22)
(1.12156 0.191893 2.84658e-21)
(0.999958 -0.00875087 -6.81546e-23)
(1.00004 -3.14135e-06 -5.55744e-24)
(1.03528 0.0137934 3.32287e-22)
(1.03522 -0.0441386 -4.40929e-22)
(1.00001 -9.09693e-07 9.81655e-26)
(1.00883 -0.0120497 -2.76394e-25)
(0.995836 -0.00450579 -7.49969e-23)
(1.02984 -0.00270915 -2.2735e-21)
(1.00063 -0.00155298 -2.30199e-23)
(1.00365 -0.0660305 -7.9182e-22)
(0.972306 -0.0426055 5.69395e-22)
(0.991531 -0.00445354 8.56198e-23)
(0.999991 -7.31441e-07 1.82546e-26)
(0.997424 -0.000110603 3.16389e-23)
(1.00622 -0.00677694 1.6354e-22)
(0.999987 -4.72706e-05 -8.42947e-25)
(1.09155 -0.0252001 7.22223e-23)
(0.979389 -0.000516602 -9.33611e-24)
(1.0029 -0.0909321 -6.03968e-22)
(0.978488 -0.00733778 4.97678e-22)
(1.00872 -0.0118547 1.58932e-22)
(0.999448 -3.01611e-05 -7.09581e-24)
(0.997633 -0.0482012 8.77569e-23)
(0.994963 -0.0131379 -1.78756e-22)
(0.999308 -0.00040807 -2.96526e-23)
(1.02221 -0.0105522 4.13141e-22)
(0.991203 -0.0259175 -4.5833e-23)
(1.09312 -0.0256276 1.63653e-23)
(0.994284 -0.0131301 2.17482e-22)
(0.992699 -0.0114541 3.79339e-22)
(1.00452 -0.0101529 -5.12133e-23)
(1.2391 -0.09737 2.8819e-21)
(0.942125 -0.0144999 -1.39986e-21)
(0.997132 -0.0413508 5.5007e-23)
(1.0254 -0.00270398 -4.95679e-23)
(0.942218 -0.0136524 3.09689e-22)
(0.998339 -0.0020413 4.34334e-23)
(1.00642 -0.0122165 2.4473e-22)
(1.00003 -0.00500943 -9.49102e-24)
(1.01068 -0.00822127 5.52492e-23)
(1.01526 -0.0457742 -3.03687e-22)
(0.981898 0.090513 -5.02313e-21)
(1.03162 0.0133508 1.48686e-21)
(1.00911 0.0537568 9.88958e-21)
(0.999713 -0.000636279 -5.91606e-25)
(0.997038 -0.00236515 4.70072e-23)
(1.00003 0.000482506 -1.77273e-21)
(1.0227 -0.0187385 6.86356e-22)
(1.22535 -0.0872889 -2.26384e-21)
(0.998392 -0.00204193 1.35171e-23)
(1.00003 -0.00831492 4.67268e-23)
(0.994115 0.0421106 -7.46446e-21)
(0.982396 -0.0154288 9.05459e-22)
(1.09668 0.0230761 -3.146e-21)
(0.992193 -0.0784962 -6.77709e-22)
(0.941761 -0.0132948 -9.3632e-23)
(0.992265 -0.000203255 -2.25443e-22)
(0.980046 -0.0125393 -6.61488e-22)
(1.00414 -0.0303468 -2.32908e-22)
(1.02359 0.0135033 2.02576e-21)
(1.00253 0.0679502 5.99726e-21)
(1.01229 -0.00808012 1.58009e-22)
(0.999988 -2.08433e-05 2.19563e-25)
(0.997149 -0.00202172 4.00686e-24)
(0.974913 -0.0139387 -3.49283e-22)
(0.999483 -0.000708474 -1.51164e-23)
(0.999949 -3.82855e-05 8.61332e-25)
(1.02307 -0.00564211 -2.69428e-22)
(1.01186 -0.0536657 1.86492e-21)
(0.941831 -0.0124774 7.7483e-22)
(1.011 0.0541223 -2.5653e-21)
(0.935243 0.025662 -7.97322e-21)
(0.999992 -2.39594e-05 -4.26129e-26)
(0.999427 -0.0226366 -4.75931e-22)
(0.98223 -0.0156357 -4.50163e-22)
(1.06338 -0.0221822 3.79737e-22)
(1.00482 -0.00989879 1.36048e-22)
(0.939846 -0.00276428 5.17494e-22)
(0.999887 -0.000168809 2.43246e-25)
(0.982954 -0.0309925 -2.35524e-23)
(0.984805 -0.0147882 2.8105e-23)
(0.999938 -0.00642855 6.13046e-24)
(0.978558 -0.000663661 2.88255e-22)
(0.999989 -3.96452e-07 5.12613e-26)
(0.959949 0.0857663 7.68555e-21)
(1.00386 -0.0149641 2.873e-23)
(0.979097 -0.0109549 -6.79735e-22)
(0.992644 -0.0775587 -3.82232e-22)
(0.970163 0.0396861 4.24502e-21)
(1.01537 -0.00401833 -8.41927e-23)
(0.975576 -0.0331113 9.61411e-23)
(1.11353 0.18418 -2.3838e-21)
(0.9872 -0.024744 -4.22482e-22)
(1.03703 -0.0470877 2.59891e-22)
(1.02332 0.0136828 3.06309e-21)
(1.00029 -2.75236e-05 4.64971e-24)
(1.00058 -0.00755498 -2.82029e-23)
(0.988684 -0.0269917 1.56123e-22)
(0.99733 -0.000172675 -7.13474e-23)
(1.19849 -0.0718727 4.22591e-21)
(1.01437 -0.0329424 4.83348e-24)
(1.00345 -0.0920052 7.94756e-22)
(1.13797 -0.0928006 -2.04647e-21)
(0.998616 -6.95758e-05 -4.60493e-23)
(1.00063 -0.00180061 -1.79691e-24)
(1.03557 0.00218419 1.92412e-21)
(0.976964 -0.00174018 -5.83859e-22)
(0.991535 -0.0259825 -1.42498e-23)
(0.95291 -0.0309286 -4.30541e-22)
(0.99919 0.0133284 -4.07198e-21)
(0.999003 -0.00107515 -3.79719e-24)
(1.01983 0.00140867 -9.21305e-21)
(1.00002 -0.00211342 -1.07335e-24)
(0.910915 0.129515 -1.18237e-20)
(1.01089 -0.00811923 -3.2473e-22)
(1.15254 -0.0239798 1.30758e-21)
(1.01375 -0.000779571 3.45297e-22)
(1.0002 -4.07313e-06 2.56705e-23)
(1.03647 -0.0737072 5.36576e-23)
(1.01099 -0.00786038 -7.82896e-22)
(0.940211 -0.00234915 -3.17422e-22)
(1.03205 0.0139561 -2.10059e-21)
(1.20148 -0.16547 -1.10051e-21)
(0.995211 -0.0218952 7.06651e-23)
(0.997426 -0.00284287 1.36823e-22)
(1.16266 0.0108625 -2.32015e-22)
(0.998676 -0.000185557 4.97969e-23)
(1.12889 -0.00920963 4.37324e-24)
(1.13333 -0.0365567 -1.27831e-22)
(0.999949 -1.98239e-05 -3.46634e-26)
(1.02285 -0.0183252 -1.69676e-22)
(1.00011 -0.0049079 -1.49529e-23)
(1.01471 -0.0333156 1.66391e-22)
(0.999074 -0.00261542 -5.45684e-23)
(0.985289 -0.0119366 -1.49467e-22)
(0.97349 -0.0400564 5.66997e-22)
(0.997708 -0.0412979 3.83363e-23)
(0.998465 -0.00803946 1.15265e-22)
(0.980737 -0.0591018 -7.52829e-22)
(0.998013 -0.0485833 -2.08532e-22)
(0.998638 -6.11064e-05 -3.4411e-23)
(1.00002 -0.00119208 1.08109e-24)
(0.975147 -0.0136878 1.90321e-22)
(1.00001 -0.000552626 3.18569e-24)
(1.00856 -0.00607617 4.8518e-22)
(0.961692 0.0846754 4.4047e-21)
(1.0211 0.000579701 -4.54545e-21)
(0.976095 -0.0967919 -7.67591e-22)
(1.21247 -0.143916 4.78104e-22)
(0.97307 -0.0398391 1.27746e-22)
(0.99999 -1.8473e-05 1.99949e-25)
(1.19897 0.0200276 -6.0092e-22)
(1.01101 0.0533327 -2.472e-21)
(0.999919 -0.000336958 -9.34723e-26)
(1.01337 -0.0078323 -4.55292e-22)
(0.998972 -0.00121086 -3.28809e-23)
(1.0416 0.0077188 1.15882e-21)
(1.0001 -0.00329234 3.52822e-24)
(1.13636 -0.0366212 -3.72311e-22)
(0.94113 -0.01015 -4.14854e-22)
(0.993027 -0.0374306 1.77726e-22)
(1.28728 -0.050369 -1.26518e-21)
(0.9954 -0.00598401 -1.43719e-22)
(0.982326 -0.0385259 -9.66955e-23)
(1.08146 -0.00428292 3.22637e-22)
(1.01812 -0.0404498 3.98599e-23)
(0.979211 -0.0107864 4.57672e-22)
(1.12025 -0.189514 -3.5492e-21)
(1.00652 -0.0120723 -3.58899e-24)
(0.99795 -0.00136218 -4.02174e-23)
(1.07509 0.133494 5.53102e-21)
(1.09519 0.157279 3.83376e-21)
(0.989015 -0.0270409 -4.38018e-22)
(0.998875 -0.00345441 7.46478e-23)
(1.00191 -0.00903625 8.45878e-25)
(0.993043 0.0459485 -1.17943e-20)
(1.0006 -0.00182356 1.57455e-23)
(0.996041 -0.00410347 1.19143e-22)
(1.19896 0.00746207 1.71453e-22)
(1.06361 -0.0368707 -3.53335e-23)
(0.99989 -0.000173279 -1.96721e-24)
(1.01209 -0.008212 -1.232e-22)
(0.839724 0.0545771 3.99769e-21)
(1.08621 0.00390098 -1.62106e-21)
(0.97912 -0.00428951 -7.22245e-22)
(1.00637 -0.00673044 -2.37748e-22)
(1.03815 0.00549566 1.4254e-21)
(0.940661 -0.00974377 8.04298e-22)
(1.19969 0.0228404 8.90254e-22)
(0.99796 -0.00141624 2.85492e-23)
(0.99999 -1.90497e-05 -3.83215e-25)
(0.99973 -0.000675481 7.87514e-24)
(0.998987 -0.00119318 5.14414e-23)
(0.865953 0.0163196 2.60424e-21)
(0.997581 -0.00334991 -9.87139e-23)
(1.09728 -0.0192391 1.15238e-22)
(0.999952 -1.90574e-05 7.33482e-26)
(0.999285 -0.00102654 -1.44047e-24)
(0.997021 -0.00231493 -5.87282e-23)
(0.990677 -0.0094781 -1.9487e-22)
(1.05789 -0.000717152 -3.47671e-21)
(1.26616 0.0338746 -5.42618e-22)
(0.986533 -0.00706983 6.32359e-22)
(0.993653 -0.00740528 7.75478e-23)
(1.00127 -0.00237074 -9.24947e-24)
(0.998398 -0.00813562 -7.1019e-23)
(0.90197 0.134783 -2.04333e-22)
(0.97663 -0.0196526 1.18228e-21)
(0.998853 -0.00780828 3.11986e-23)
(1.0873 0.110957 1.4605e-21)
(1.01678 0.0211429 -2.83425e-21)
(1.01086 -0.0076671 7.08178e-22)
(0.997999 -0.00222477 7.93512e-23)
(1.00372 -0.0304806 -3.01643e-23)
(1.00417 -0.0172577 -8.3127e-24)
(1.02316 -0.0363531 -2.84147e-22)
(1 -1.67143e-06 3.72768e-27)
(0.999515 -0.00114781 3.30238e-23)
(1.02734 -0.0275862 -1.14208e-22)
(1.07473 0.0479862 3.44433e-21)
(0.981786 -0.0439073 2.02379e-22)
(1.01203 0.0988331 2.93377e-21)
(0.860905 0.0325673 -2.97567e-21)
(1.116 -0.0317003 5.65625e-22)
(1 -1.64023e-06 2.88149e-26)
(0.989694 -0.000268063 -3.75692e-22)
(0.988302 -0.0167754 2.50867e-22)
(1.00004 -0.00638742 3.12357e-23)
(1 -2.76193e-06 -5.4462e-26)
(1.06788 -0.0960595 -1.00538e-21)
(1.19469 0.164908 -1.06065e-21)
(0.977258 -0.00171504 -5.80919e-22)
(0.9996 -2.03812e-05 -9.59897e-24)
(1.13026 -0.000494635 -1.95768e-23)
(1.00308 -0.00433196 1.74815e-23)
(1.00181 -0.00917864 3.2901e-24)
(1.00011 -7.36674e-06 1.17875e-23)
(0.999047 -0.00116252 -2.84462e-23)
(1.02976 -0.027783 -3.29214e-23)
(0.975272 -0.0328397 7.12572e-22)
(0.996555 -0.0221015 -1.53781e-22)
(0.99618 -0.0149629 -5.72276e-22)
(1.0276 -0.0280925 -1.15521e-22)
(1.00856 -0.00592718 -2.52369e-22)
(0.999912 -4.48365e-06 -2.5874e-24)
(1.11418 0.180888 4.90141e-21)
(0.950587 -0.0283881 9.40777e-23)
(1.00132 -0.00306079 -3.04084e-23)
(1.02805 -0.0620878 -3.08441e-22)
(1.03728 0.00738668 -5.28681e-21)
(1.01935 0.042442 -7.30856e-21)
(0.985751 -0.0117918 2.26094e-22)
(1.01382 -0.00355305 4.35989e-22)
(0.985011 -0.014765 3.21571e-23)
(0.998644 -0.00153245 -7.48079e-23)
(1.11772 -0.187583 2.19394e-21)
(1.00042 -0.000846626 2.44074e-23)
(1.00009 -0.00483 2.86525e-23)
(0.98601 -0.008639 6.8966e-22)
(0.978398 -0.0153313 3.06684e-22)
(0.99861 -0.00165108 8.44597e-23)
(1.03121 0.168872 -2.95296e-21)
(1.02074 0.0509989 5.60166e-22)
(1.16014 -0.176006 1.08843e-21)
(1.07718 -0.0521481 7.43746e-22)
(1.00002 -1.14957e-05 -3.12935e-25)
(0.996321 -0.0086018 5.17579e-23)
(1.06041 -0.0248058 1.28826e-22)
(0.994933 -0.000197905 5.0857e-23)
(0.997398 -0.0173819 -2.87634e-22)
(0.997912 -0.0013478 1.00569e-23)
(1.00134 -0.00236447 -2.73843e-23)
(0.997527 -0.00291624 -9.45685e-23)
(0.997366 -0.000715731 -2.65918e-23)
(0.998447 -0.00789919 -3.80745e-23)
(1.00016 -0.00472969 -1.31921e-23)
(1.04373 -0.133239 3.26621e-22)
(1.00003 -1.69766e-05 2.98619e-24)
(1.00831 -0.00559299 -4.35616e-23)
(0.999994 -1.05692e-06 -1.51854e-27)
(0.941388 -0.0121175 -1.06083e-21)
(1.00017 -0.000145653 6.70968e-24)
(1.00899 0.120118 6.97419e-21)
(1.09345 0.155117 -2.01485e-21)
(1.0316 0.0322896 -2.50998e-21)
(1.07599 -0.0512285 -5.1628e-22)
(1.02697 0.036683 -2.53035e-22)
(1.02303 0.00050728 2.55893e-21)
(0.998731 -0.00270003 1.08901e-23)
(1.00124 -0.0012279 -3.53434e-23)
(0.99984 -0.000475351 8.51934e-26)
(0.996624 -0.00171867 6.49788e-23)
(0.97957 -0.0108833 2.71001e-22)
(0.995464 -0.00587939 -5.81543e-23)
(0.996178 -0.00864082 1.38014e-22)
(1.02486 -0.0357442 1.17784e-22)
(1.00016 -0.000141186 -8.23811e-24)
(0.999881 -6.07521e-05 -7.25546e-25)
(1.0001 -8.16413e-05 -6.33666e-24)
(0.999416 -0.00178799 2.25266e-23)
(1.02088 -0.000585803 1.05598e-21)
(1.02221 -0.0351152 -1.8529e-22)
(0.98583 -0.00854416 -7.36409e-22)
(1.00001 -0.000538191 -6.62107e-24)
(1.07761 -0.0931047 2.21086e-21)
(1.00061 -0.00174003 4.96537e-23)
(0.999894 -6.03948e-05 -2.72299e-24)
(1.01967 0.0416039 1.04146e-20)
(1.02552 -0.00291237 1.94811e-22)
(1.00123 0.0272361 1.77715e-20)
(1.00004 -2.33739e-05 -2.83139e-24)
(1.00004 -0.000404423 0)
(1.0013 -0.00133522 5.25893e-23)
(0.99167 -0.0264872 2.13791e-22)
(0.996291 -0.00495224 -6.25856e-23)
(1.02823 -0.0892284 -6.42666e-22)
(0.977163 -0.000759609 3.87269e-22)
(1.06211 0.0300687 4.25408e-21)
(0.993996 -0.000151836 4.67685e-22)
(1.03335 0.168735 -1.54703e-21)
(1.00063 -0.00171451 -3.61676e-23)
(1.00128 -0.00301711 3.5484e-23)
(1.0014 0.0420427 -4.73008e-21)
(1.07645 0.131724 -2.30059e-21)
(1.04093 -0.0747964 -1.74616e-21)
(1.00191 -0.00168477 9.5136e-24)
(0.942589 -0.0148508 1.53163e-21)
(0.993937 -0.000191278 -2.68625e-22)
(1.00004 -2.48133e-05 1.21382e-24)
(1.0083 -0.00575891 5.103e-23)
(0.951324 -0.0292432 -2.38059e-22)
(0.98848 -0.0265901 -3.58346e-23)
(0.966762 -0.00277509 2.9313e-22)
(1.02511 -0.0364988 7.52213e-23)
(1.08491 0.00329067 2.64072e-21)
(0.999994 -1.2369e-06 1.0144e-26)
(1.00196 -0.0016531 -1.87165e-23)
(1.0168 -0.00600852 6.01717e-22)
(1.03338 -0.0165543 -6.6385e-22)
(1.0003 0.131018 -3.56158e-21)
(0.999999 -1.68428e-06 1.7773e-27)
(0.999952 -1.98019e-05 2.57967e-26)
(1.00129 -0.000116176 -9.2803e-23)
(0.988546 -0.0262342 -4.32982e-22)
(0.999538 -0.000698328 1.25115e-23)
(0.999916 -0.000367028 -1.60328e-24)
(1.09764 -0.0263132 1.7683e-23)
(0.908227 0.0162266 -1.06881e-20)
(1.13772 -0.0343393 1.45528e-22)
(1.00258 0.0345192 -4.47351e-21)
(0.98524 -0.00273068 1.66294e-22)
(0.99878 0.0124162 2.61975e-21)
(1.02119 0.00897931 3.1494e-21)
(0.997566 -0.00295057 3.72328e-23)
(1.06572 -0.0962213 1.37966e-21)
(0.950985 -0.017448 1.33229e-21)
(0.996933 -0.0152621 2.79064e-22)
(1.00054 -0.00745112 1.68212e-23)
(0.997581 -0.00548535 8.0468e-23)
(0.998947 -0.000769139 1.51236e-23)
(0.999286 0.038353 -2.0896e-20)
(0.987604 -0.0245806 -6.25328e-22)
(1.02249 0.118467 3.47196e-21)
(1.01867 -0.0408671 2.7624e-22)
(1.03178 0.03152 1.39775e-21)
(0.985775 -0.00716178 2.782e-22)
(0.990858 -0.00953176 -5.0841e-22)
(1.20209 -0.072914 3.1259e-22)
(1.02155 0.0137486 3.32211e-21)
(0.998052 -0.00223596 -8.94154e-23)
(1.00002 -0.00205093 -2.72722e-24)
(0.999988 -0.00213088 5.6443e-24)
(0.999982 -1.18595e-06 -4.15033e-25)
(1.02068 -0.035425 3.83981e-22)
(0.975216 -0.0483336 -7.54278e-22)
(1.00016 -0.00034777 -1.01644e-23)
(1.05513 -0.0261339 -1.92042e-23)
(0.999769 -0.000558806 1.27139e-24)
(0.999767 -0.000570981 -7.39562e-24)
(1.0015 -0.000195077 -7.26396e-24)
(1.01946 -0.0404211 -1.63959e-22)
(1.00049 -4.12517e-05 -1.7252e-23)
(1.00093 -0.00601217 -3.58345e-25)
(0.983106 -0.00313963 3.62082e-22)
(0.997056 -0.00426831 5.04819e-23)
(0.996629 -0.00177528 -2.26908e-22)
(0.991984 0.065816 -2.83119e-20)
(1.09943 -0.0634861 -2.78578e-21)
(1.00735 -0.0108771 1.90927e-22)
(0.992647 -0.0116691 2.85944e-22)
(0.978664 -0.0300212 -9.34065e-23)
(1.00014 -0.0046576 6.49845e-24)
(1.00002 -2.32288e-05 -1.00991e-24)
(1 -2.14825e-06 -1.8021e-26)
(0.970367 -0.00579573 5.72307e-23)
(0.95122 -0.0170507 -1.35913e-21)
(0.978741 -0.0208631 -2.14644e-23)
(1.00002 -2.26351e-05 -2.80354e-24)
(0.989212 -0.00472342 4.11822e-22)
(1.05709 -0.00028621 3.24837e-21)
(1.28596 0.0723628 3.90578e-21)
(1.11533 -0.0336728 3.84876e-22)
(0.999959 -2.94293e-06 -4.34829e-25)
(0.979695 -0.0107185 9.04595e-22)
(1.00379 -0.0289206 3.86681e-22)
(1.00008 -7.27551e-06 -6.85182e-25)
(0.999941 -0.000175862 -6.22901e-25)
(0.97729 -0.000567007 -7.11086e-23)
(1.00125 -0.000114436 -3.05274e-23)
(1.00043 -0.0038878 -3.45748e-24)
(1.01395 -0.079133 -2.72894e-22)
(1.0003 -2.82661e-05 -1.38352e-23)
(0.963708 -0.0388907 1.03649e-21)
(0.983008 -0.00327625 -3.66452e-22)
(0.985292 -0.00284659 2.95824e-22)
(0.986719 -0.00716988 1.0319e-22)
(1.00107 -0.00603848 -5.99865e-24)
(0.972016 -0.0216138 1.08855e-21)
(1.00019 -0.000325704 1.25746e-23)
(1.00002 -9.84957e-06 -1.32255e-25)
(1.00368 -0.00377811 6.2066e-23)
(1.05588 0.132563 -2.52513e-21)
(0.97225 0.037443 2.10393e-20)
(1.0091 0.0368848 3.7165e-21)
(1.02189 -0.0355713 6.73674e-23)
(0.99215 -0.00994772 -1.01528e-22)
(1.00769 0.0425545 2.00139e-20)
(1.01027 -0.00690102 -9.97893e-22)
(1.00016 -0.000290681 -8.84934e-24)
(1.0186 -0.000994038 -8.08382e-22)
(0.989668 -0.00928354 1.14286e-22)
(1.13072 -0.0103254 2.65399e-22)
(0.997608 -0.00540159 9.9808e-23)
(1.02261 -0.000538881 -2.66872e-21)
(1.00072 -7.70502e-05 3.10803e-23)
(1.00945 0.0362709 2.51282e-21)
(1.00038 -3.52467e-05 -2.11635e-23)
(0.996226 -0.00533859 3.45726e-23)
(0.985954 -0.00722413 -7.60679e-23)
(1.0126 0.0522929 2.57322e-21)
(1.00019 -7.19929e-06 -2.29129e-23)
(0.989122 -0.0275931 5.79282e-22)
(1.0282 -0.0880004 1.23324e-21)
(1.06368 0.0302366 -3.35613e-21)
(0.996264 -0.0333366 -4.28304e-22)
(0.996175 -0.00490411 8.89394e-23)
(1.13927 -0.0785836 8.71148e-22)
(1.00005 -1.22974e-06 -2.1707e-24)
(1.16187 -0.173072 -4.54016e-22)
(0.996918 -0.00435792 5.42533e-23)
(1.01359 -0.00790301 -7.20846e-22)
(0.991975 -0.0265365 2.02211e-22)
(1.00197 -0.000161212 -1.12749e-22)
(1.19423 0.160183 -2.82208e-21)
(1.02056 0.0518953 -5.73503e-21)
(0.963759 0.0683672 9.78295e-21)
(1.02627 0.036333 7.57278e-22)
(1.07219 0.0755131 2.61865e-21)
(1.13174 -0.0391691 1.00572e-21)
(1.12402 0.194476 -5.06508e-23)
(1.01044 -0.00683469 1.10838e-21)
(1.04198 0.0748788 3.13553e-21)
(1.00142 0.0242263 -1.37791e-20)
(1.00036 -0.00392517 -1.29522e-24)
(0.999006 -0.00248238 -2.84446e-23)
(0.977826 0.0331331 -2.27115e-20)
(1.00002 -1.56976e-05 -5.62348e-25)
(1.20355 -0.161941 1.33173e-21)
(1.27913 0.090372 1.13124e-21)
(0.986787 -0.0119619 4.73244e-22)
(1.00074 -0.00159263 -3.47429e-24)
(1.03294 -0.0161756 -2.30885e-22)
(0.998981 -0.00115443 -2.66781e-23)
(1.00127 -0.00124522 -9.27221e-25)
(0.990505 0.0859433 -5.03232e-21)
(0.925397 0.0672188 8.63249e-21)
(0.999892 -6.10908e-06 -1.67864e-25)
(1.0002 -0.000325902 -1.25063e-23)
(1.06521 -0.0333112 1.48316e-23)
(1.00008 -0.00195152 5.6621e-25)
(1.29092 -0.0498456 2.98356e-21)
(1.07503 0.129078 -3.79947e-21)
(1.04651 0.028181 7.21482e-22)
(0.999944 -0.000177051 1.58356e-24)
(0.992915 -0.0462283 1.73649e-22)
(0.994547 -0.0388398 9.61926e-22)
(1.00041 -3.51565e-05 1.36153e-23)
(1.01212 -0.0255218 -5.18852e-23)
(1.03557 0.00165735 1.02476e-21)
(0.931322 0.0652701 -5.53377e-21)
(1.00005 -0.0020282 1.02825e-24)
(0.999999 -1.82328e-06 -8.35855e-27)
(1.04217 0.0736951 2.31177e-21)
(1.01183 -0.0252387 -1.0011e-22)
(0.99989 -7.16411e-06 -3.89786e-24)
(1.02638 -0.0117853 -1.72944e-22)
(1.00503 -0.00920873 -3.37672e-23)
(0.997575 -0.0032035 -8.8201e-24)
(0.998327 -6.00728e-05 2.05656e-23)
(1.22954 -0.141973 1.004e-21)
(0.987945 -0.00435866 1.68478e-22)
(0.998995 -0.0011351 1.65609e-24)
(0.97867 -0.0153592 6.26962e-24)
(1.0002 -0.000314378 1.79022e-23)
(0.999902 -6.31808e-05 1.77039e-24)
(0.999829 -0.00907986 1.03219e-22)
(1.14816 -0.0119119 1.46255e-22)
(0.99983 -4.67571e-05 1.82398e-24)
(0.983124 -0.00350658 -4.38849e-22)
(1.00055 -0.000750201 3.42534e-24)
(0.996556 -0.0329065 -1.87936e-22)
(1.01247 0.0530314 -3.3547e-21)
(0.999911 -0.000340812 8.24614e-25)
(0.844305 0.0261142 -6.64904e-21)
(1.05712 -0.0589875 6.63841e-22)
(0.99769 0.0169624 2.92197e-21)
(1.14499 -0.0127518 -1.86145e-22)
(0.999602 -0.000215624 4.07451e-24)
(0.999978 -5.81099e-05 3.46118e-25)
(0.999676 -0.000237638 -7.66959e-24)
(0.996345 -0.00491173 5.6761e-24)
(1.01799 0.00205822 0)
(0.999532 -0.00753119 6.54038e-23)
(0.989591 -0.000337959 8.92569e-23)
(0.988947 0.0989909 -1.7277e-20)
(0.952357 -0.0191996 -1.21982e-21)
(0.951941 -0.0190098 1.05302e-21)
(1.03004 -0.0269903 1.08999e-22)
(1.05413 -0.0292122 3.11891e-22)
(0.98959 0.0745135 1.75633e-20)
(0.999619 -0.00025494 3.92283e-24)
(0.989432 -0.0276612 1.18381e-22)
(0.986531 -0.0119291 -4.52492e-22)
(1.00015 -0.000143249 9.64873e-24)
(1.01541 -0.0332624 -1.00723e-22)
(1.00055 -0.000721344 -1.66772e-24)
(1.02114 -0.0357549 1.82998e-22)
(0.980321 -0.0550667 1.51535e-22)
(0.892933 0.0836214 -1.10758e-20)
(0.96219 -0.0384205 -9.7847e-22)
(0.998423 -0.00182403 1.26582e-23)
(0.98539 -0.0114455 -8.01545e-22)
(1.00428 -0.0169726 6.92585e-24)
(1.09118 -0.0106767 -8.86418e-22)
(1.02333 0.000316198 -4.30559e-22)
(1.00706 -0.0320097 5.11292e-23)
(1.00001 -2.97681e-07 -3.31466e-25)
(1.00263 0.0347433 5.6143e-21)
(0.990194 -0.00524282 -4.52292e-23)
(0.940811 -0.00885868 7.45715e-22)
(0.999193 -0.00709914 4.27131e-23)
(1.02519 -0.0274793 -3.61732e-22)
(0.98466 -0.0359424 9.44232e-22)
(1.00372 -0.00370393 2.7316e-23)
(1.25885 -0.0084891 4.04062e-21)
(0.999369 -2.61772e-05 2.84676e-23)
(1.01038 0.0890464 9.24679e-21)
(0.999579 -0.0132472 -1.11528e-22)
(1.03749 0.00302173 -5.06036e-22)
(0.967769 -0.00569622 6.88529e-22)
(1.01576 -0.00265754 1.23115e-22)
(0.999989 -1.44762e-05 4.59492e-26)
(0.983244 -0.030786 -5.75177e-23)
(0.983033 -0.00363686 4.14062e-22)
(0.988226 -0.0255248 5.78017e-22)
(1.02632 -0.0122198 -1.23226e-22)
(1.01283 -0.0798474 -2.78399e-22)
(1.00021 -0.000314294 -2.02791e-23)
(1.00914 -0.138888 -5.36722e-22)
(0.998925 -0.000788002 -6.19264e-23)
(0.99999 -5.21804e-05 4.67118e-25)
(0.999551 -0.00740504 -7.22027e-23)
(1.00017 -0.000336961 5.20118e-24)
(0.928722 0.0644138 7.50541e-21)
(1.00016 -0.000140541 -8.51444e-24)
(1.00964 0.119162 -2.12824e-21)
(0.985095 -0.0120961 -1.26564e-22)
(1.0152 -0.00215199 -2.31291e-22)
(1.00216 -0.0016965 -1.00344e-22)
(1.06999 0.018881 3.99081e-21)
(1.00299 -0.00438426 -1.12489e-22)
(1.01606 0.0215839 -2.44218e-21)
(1 -2.7987e-06 -2.66012e-26)
(1.0168 -0.0457357 -3.67577e-22)
(0.999052 -0.003622 2.77918e-23)
(1.00127 -0.00292296 5.30814e-24)
(0.980834 -0.0125799 -1.92799e-22)
(1.00002 -1.30227e-05 1.32432e-24)
(1.20156 0.000441134 1.16145e-21)
(0.939712 0.138692 2.57468e-21)
(1.27536 0.0906042 -2.43101e-21)
(1.00016 -0.000283011 1.7216e-23)
(1.10917 -0.0985719 -9.35784e-22)
(1.01826 0.00230962 -7.56797e-22)
(0.983605 0.0909998 1.23674e-20)
(1.00005 -0.00331895 -2.38659e-24)
(0.999801 -2.1724e-06 -1.54269e-24)
(1.06374 -0.0327055 -1.92569e-23)
(1.00012 -0.000103757 -6.05989e-24)
(0.969142 0.0325551 -4.71076e-21)
(1.00406 -0.0286834 2.18004e-23)
(1.19599 0.175284 -2.52663e-23)
(1.07325 0.0476405 -4.57142e-21)
(1.00012 -9.54306e-05 4.85987e-24)
(0.975888 -0.0955638 -7.04513e-22)
(1.00683 0.0277117 -5.48571e-21)
(0.999902 -6.03906e-05 6.51704e-26)
(1.06446 -0.022574 8.53382e-22)
(0.998378 0.00611668 1.4014e-20)
(0.998307 -7.61221e-05 1.6571e-23)
(1.00178 -0.00950946 -1.97702e-24)
(1.00028 -3.76786e-05 1.05496e-23)
(1.00477 -0.0100903 -7.57781e-23)
(0.986004 -0.00745449 3.49748e-23)
(0.995366 -7.81755e-05 3.00818e-23)
(1.02944 0.121805 -4.65376e-21)
(0.996904 -0.0149571 1.876e-22)
(0.885854 0.117121 1.96305e-20)
(0.814742 0.0122652 1.83053e-20)
(0.997884 -6.98209e-05 -5.05339e-23)
(1.00003 -0.000308063 -1.00217e-24)
(1.02242 0.116835 -1.97202e-21)
(0.997535 -0.00303671 3.35043e-23)
(0.987731 -0.00298206 9.02257e-23)
(1.00018 -0.000337101 -2.95104e-24)
(1.04853 0.0317868 1.64467e-22)
(0.968032 -0.00569673 -9.87604e-22)
(0.904858 0.0661522 1.37599e-20)
(0.999106 -0.00320756 -3.94775e-23)
(0.999963 -0.000908553 -2.07384e-24)
(0.990215 -0.00537089 1.55466e-22)
(1.28991 0.0468113 4.32015e-21)
(0.993403 -0.0463055 3.45931e-23)
(1.10159 -0.0230716 1.00957e-23)
(1.03869 -0.0272755 -3.0162e-22)
(1.02255 0.00892342 -2.62207e-21)
(0.999853 -8.75888e-05 -1.1434e-24)
(1.2148 -0.047158 -1.45411e-21)
(1.00002 -2.21277e-05 -1.83347e-24)
(1.00117 -0.00102261 6.62745e-23)
(0.999994 -1.38623e-06 -2.25816e-26)
(1.15946 -0.168985 -2.64958e-21)
(1.04246 -0.075328 1.467e-21)
(1.0188 0.0405943 4.59617e-22)
(0.999982 -1.33906e-06 4.28737e-26)
(0.96498 0.066455 -2.60805e-20)
(0.999696 -9.21468e-05 4.76668e-24)
(1.01577 -0.0329411 -1.11865e-22)
(0.999536 -0.000245778 1.40814e-23)
(0.950676 -0.0289885 4.71765e-23)
(0.992805 -0.011854 -4.53031e-22)
(1.08651 0.0155085 1.55543e-21)
(0.999896 -7.70324e-06 5.12138e-24)
(1.012 -0.0527407 -5.94205e-22)
(1.01273 -0.0253655 -2.2612e-24)
(0.992123 -0.0107116 -3.84648e-22)
(0.999985 -5.63768e-05 -1.50696e-24)
(0.999944 -0.000901247 -1.56329e-24)
(0.999833 -7.58229e-06 6.5522e-25)
(0.979415 -0.036325 -6.5287e-22)
(1.00124 -0.00243196 2.71057e-23)
(0.999149 -0.00049893 -1.45023e-24)
(0.97695 -0.000182718 5.95672e-22)
(1.00007 -0.0001539 -7.13722e-26)
(1.00022 -0.000305304 1.60487e-23)
(1.00411 -0.0149598 -2.16637e-23)
(0.999608 -0.000217465 2.38821e-24)
(1.00832 0.0428715 -8.8327e-21)
(1.04543 -0.00394332 2.88627e-21)
(1.29553 -0.00151044 2.78979e-22)
(0.981407 -0.000552133 -7.65429e-23)
(1.00702 -0.065091 7.47516e-22)
(0.999991 -7.80696e-07 -1.89501e-26)
(1.14222 -0.0797222 -1.03477e-21)
(0.979724 -0.0549154 -6.44156e-22)
(1.00026 -3.72126e-05 1.59879e-23)
(0.978963 -0.0212265 -2.72649e-22)
(0.998965 -0.00335285 -3.05434e-23)
(0.974332 -0.0150153 3.10159e-22)
(1.10955 -0.142157 -7.22678e-22)
(1.00037 -3.57033e-05 -1.5876e-23)
(1.01998 -0.0407592 5.03111e-22)
(0.99999 -5.39279e-05 -1.87463e-24)
(0.996144 -0.00460751 -5.63433e-23)
(0.999713 -9.45458e-05 4.57359e-25)
(1.03951 0.0662515 -4.15379e-22)
(0.994328 -0.00138633 -1.57256e-22)
(1.00011 -0.000184612 -1.27154e-25)
(0.999869 -6.06673e-05 1.8194e-24)
(1.01807 -0.00850018 7.23607e-22)
(0.969304 -0.0301092 9.48981e-23)
(0.99757 -0.00307005 -5.31843e-23)
(0.999985 -0.00094167 -4.58451e-24)
(1.02824 0.123134 -5.69156e-22)
(1.00287 0.0670697 3.70337e-21)
(1.00131 -0.00289037 1.47878e-23)
(1.18692 0.121568 -4.17441e-23)
(1.08886 -0.106729 2.28461e-21)
(0.95302 -0.0314782 3.94661e-22)
(1.00003 -0.000303588 3.97838e-24)
(0.99999 -2.89184e-07 6.85951e-26)
(1.0569 0.130704 3.22005e-21)
(0.974762 -0.0128174 9.34755e-23)
(1.00007 -0.000153524 -3.10222e-24)
(1.19058 0.0623771 2.04528e-22)
(0.999309 -0.000392753 1.79621e-23)
(0.999991 -4.97643e-06 3.6435e-26)
(1.06611 -0.00441731 2.29366e-22)
(0.985404 -0.0705153 -2.51273e-22)
(0.962686 -0.0383318 1.30425e-21)
(0.948615 -0.0283237 1.69833e-22)
(0.991026 -0.0247056 -4.29516e-22)
(0.99512 -0.00016636 5.39725e-23)
(0.987859 -0.00310729 -7.30752e-22)
(1.00064 -0.00726912 1.80816e-23)
(1.06119 0.0502616 -2.39105e-21)
(0.999833 -0.000481177 -1.80448e-24)
(0.991454 -0.03764 1.88673e-22)