/*--------------------------------*- C++ -*----------------------------------*\
  =========                 |
  \\      /  F ield         | OpenFOAM: The Open Source CFD Toolbox
   \\    /   O peration     | Website:  https://openfoam.org
    \\  /    A nd           | Version:  7
     \\/     M anipulation  |
\*---------------------------------------------------------------------------*/
FoamFile
{
    version     2.0;
    format      ascii;
    class       volVectorField;
    location    "35";
    object      U;
}
// * * * * * * * * * * * * * * * * * * * * * * * * * * * * * * * * * * * * * //

dimensions      [0 1 -1 0 0 0 0];

internalField   nonuniform List<vector> 
19930
(
(0.997554 -0.0002382 3.20084e-23)
(0.990058 -0.000764088 -3.56502e-22)
(1.03411 -0.00472684 4.02965e-23)
(1.00031 -6.30016e-05 -2.63968e-24)
(1.00062 -0.0112505 7.10577e-23)
(1.00017 -0.0119491 -6.98061e-23)
(1.03796 -0.213716 -8.67261e-22)
(1.22726 0.0897267 -1.0356e-20)
(1.00352 -0.105649 -2.09378e-21)
(1.23625 0.0848949 7.47139e-21)
(1.05352 -0.194459 -2.66825e-21)
(1.35688 0.00586303 1.16359e-22)
(0.979948 -0.0667909 -2.72677e-22)
(0.997358 -0.000285388 -2.66455e-23)
(0.99478 -0.00387156 -1.12971e-23)
(1.0003 -7.66256e-05 -2.41648e-24)
(1.32316 -0.125464 -2.43483e-21)
(1.18873 -0.00148004 -5.25492e-21)
(0.997777 -0.158654 -1.33237e-21)
(0.992343 -0.000362806 3.13836e-22)
(1.01797 -0.12275 2.89709e-21)
(1.35842 0.0107772 1.51198e-22)
(1.24671 0.0913691 -5.28321e-21)
(1.14549 -0.251837 -2.09846e-21)
(1.03168 -0.00220964 1.93827e-24)
(0.998138 0.212586 -2.73015e-20)
(1.01146 -0.0034014 5.30594e-23)
(0.990421 -0.0727465 9.61922e-22)
(1.20002 -0.245903 -1.92307e-21)
(1.00082 -0.160679 4.8236e-21)
(0.998378 -0.00259812 -6.58247e-26)
(0.877417 0.0338602 4.70112e-20)
(1.34032 0.0928619 2.30192e-21)
(0.988911 -0.0417356 1.02956e-22)
(1.00001 -0.00197724 6.86208e-24)
(0.998442 -0.00281541 3.03686e-25)
(1.23728 0.127343 -1.1381e-20)
(0.999939 -4.28657e-06 -4.87277e-24)
(1.01863 -0.0252068 1.40282e-22)
(1.19765 -0.012448 -1.51931e-21)
(1.05415 -0.0111121 2.95253e-23)
(1.34105 0.185993 4.85388e-21)
(1.07955 0.0925719 -7.11834e-21)
(1.01019 -0.00393332 -4.42154e-23)
(0.996062 0.203281 1.11011e-20)
(0.977989 -0.00161305 -1.93805e-22)
(1.17823 0.0116524 -1.80693e-20)
(1.34327 -0.059326 2.31658e-21)
(0.999583 -0.000111956 -4.89651e-24)
(0.964851 -0.057718 8.91339e-23)
(0.999891 -0.00210249 -1.6727e-23)
(1.10415 -0.0133178 2.01206e-22)
(1.2209 -0.179769 7.07144e-21)
(1.00032 -0.00475764 -2.65371e-23)
(1.2577 -0.192078 -1.68202e-21)
(0.941144 -0.0202726 1.12858e-23)
(0.972115 -0.0381231 3.10089e-23)
(0.998193 -0.00340124 -1.07537e-24)
(1.01104 -0.0618704 -1.42849e-21)
(1.32291 -0.120036 1.89811e-21)
(0.940961 0.0704651 2.45506e-20)
(0.967483 -0.00464201 -1.88606e-22)
(0.98755 -0.00360987 5.17588e-23)
(1.25303 0.0690807 -4.11113e-22)
(0.999427 -8.29681e-05 3.15898e-23)
(0.994212 -0.00985856 3.54042e-24)
(0.994534 0.142262 7.2772e-22)
(0.993531 -0.0102762 1.92879e-23)
(1.15365 -0.117932 -2.75525e-21)
(1.01512 0.213392 1.01675e-20)
(1.05188 -0.0573128 -8.92321e-22)
(1.31558 -0.15234 -3.59728e-21)
(0.995254 -0.00389986 -2.1696e-24)
(0.978415 -0.0484323 7.12575e-22)
(0.999582 0.0177936 -1.04748e-20)
(1.09299 -0.118967 1.8445e-21)
(1.01271 0.197858 4.63433e-21)
(0.958263 -0.00553971 -1.82479e-23)
(1.19361 -0.011433 9.93125e-22)
(1.00726 0.0695489 1.46625e-20)
(0.99531 -0.0103128 8.39833e-23)
(1.00265 -0.00567995 -3.47666e-23)
(1.18064 -0.245365 1.53457e-21)
(1.00496 -0.10241 1.74701e-21)
(0.971126 -0.00367673 2.08668e-22)
(1.07374 0.0880944 3.41823e-20)
(0.983689 -0.0623929 -4.9109e-22)
(0.755412 0.125532 4.56681e-21)
(1.24318 0.0668815 -4.24357e-21)
(0.958972 0.22092 1.80599e-20)
(1.20148 0.023484 -6.27724e-21)
(1.00038 -9.37282e-05 2.73554e-24)
(1.00003 -0.000390099 8.26553e-24)
(0.90056 0.0103776 -1.33786e-20)
(1.34289 -0.0659667 -1.13874e-21)
(0.987911 -0.00382636 4.68396e-23)
(0.920264 0.00667403 2.04826e-20)
(0.999174 -0.00564629 1.70182e-23)
(1.0593 -0.18868 -1.21259e-21)
(1.14107 0.0245231 -8.22056e-21)
(0.950672 0.228676 -5.36554e-20)
(0.970929 -0.0119031 -7.24092e-25)
(0.923767 0.209111 -5.96798e-20)
(1.20937 -0.164591 8.26409e-21)
(1.14602 -0.00576695 -1.81615e-21)
(1.12729 -0.120491 2.43613e-21)
(1.08764 0.2244 1.73441e-20)
(1.20041 -0.140588 3.02259e-21)
(0.989947 -0.000434194 5.47417e-22)
(1.14438 0.242098 3.51328e-21)
(1.20707 -0.250454 -6.62211e-21)
(1.03189 -0.212647 -1.92796e-21)
(0.971512 -0.029504 1.83862e-22)
(1.04373 -0.0294218 3.94648e-22)
(1.09657 -0.110768 7.88446e-22)
(1.00007 -0.000142515 -2.48588e-24)
(1.12921 0.141645 1.56222e-20)
(0.996029 -0.00966124 -3.41904e-23)
(1.19829 -0.176038 1.61704e-21)
(1.00573 0.0500615 -3.42882e-20)
(1.00037 -7.05814e-05 5.19456e-25)
(1.03287 -0.128887 2.03079e-21)
(1.23228 -0.00880144 -1.82614e-21)
(1.01173 -0.0708466 -1.97573e-21)
(0.988838 -0.0395277 -6.5351e-23)
(1.19079 -0.00167679 2.57721e-21)
(1.36437 0.0514565 -8.39294e-22)
(0.990195 -0.069983 7.67078e-22)
(0.861865 0.0404276 -1.38626e-20)
(1.122 0.149284 8.44016e-21)
(0.984899 -0.0805844 -7.73627e-22)
(0.964481 -0.0553963 -3.19518e-22)
(1.05439 -0.00574688 -4.86048e-23)
(1.01754 -0.0231909 -1.3498e-22)
(1.06938 0.212462 -2.4226e-20)
(1.13963 -0.00970237 -3.13378e-22)
(1.34436 -0.0362678 1.63491e-21)
(1.02194 -0.123767 -1.20175e-21)
(0.976492 -0.0123249 3.68075e-23)
(0.986045 -0.107211 3.53442e-21)
(1.02764 -0.13245 3.2574e-22)
(0.976362 -0.0500169 -7.08695e-22)
(1.31235 -0.161995 -3.12927e-21)
(0.915521 0.231783 -1.90009e-20)
(1.27868 -0.079002 -8.1947e-22)
(1.06897 0.220592 2.20484e-20)
(1.37108 0.102362 -4.87362e-22)
(0.963617 -0.0123946 5.78447e-23)
(1.35885 0.0365523 -8.67761e-22)
(1.01298 -0.00455333 -1.13922e-22)
(0.963858 -0.0112296 -1.32383e-22)
(1.01813 0.208086 1.08947e-21)
(1.00006 -0.000340623 -5.31804e-24)
(1.00327 -0.0946543 6.5679e-22)
(1.00259 -0.00510698 6.20444e-23)
(1.37147 0.111585 1.88908e-21)
(1.06536 0.0935546 -3.56149e-21)
(1.14061 -0.246998 9.40048e-21)
(0.935359 -0.0238451 3.66308e-23)
(0.978773 -0.0683806 5.67925e-22)
(1.25999 -0.202224 2.38203e-21)
(1.04371 -0.207213 1.35124e-21)
(0.998143 -0.00312901 -8.68373e-25)
(1.27954 -0.0718043 9.71643e-22)
(1.17736 -0.00999923 -3.63078e-22)
(0.760037 0.131723 1.0972e-20)
(0.97216 -0.0121541 -2.79612e-23)
(1.17224 -0.252107 6.03982e-22)
(1.08696 -0.120754 -2.11437e-21)
(1.23315 0.120984 -7.00322e-21)
(1.34478 -0.0399579 -4.57453e-22)
(0.97792 0.160392 1.09997e-20)
(1.2213 0.259712 2.04806e-20)
(0.98557 -0.0360784 1.35992e-23)
(0.821632 0.0319936 -1.64914e-20)
(1.344 0.0861322 2.32307e-21)
(0.996563 -0.000657621 -3.51329e-23)
(0.981742 0.0138859 -2.84141e-20)
(1.10499 -0.109747 -8.69391e-23)
(1.13143 0.260429 7.24607e-21)
(1.06162 0.238826 -1.12247e-20)
(0.999904 -2.59961e-06 5.9897e-24)
(0.907197 0.155473 7.28586e-22)
(1.19345 0.223753 1.91252e-20)
(0.991708 -0.000616409 -1.91911e-23)
(0.937421 -0.0163941 1.16738e-24)
(1.05148 -0.0535379 6.50261e-22)
(1.15025 0.0179 -2.15043e-21)
(1.2013 -0.168677 -2.74754e-21)
(0.832603 0.113679 1.41429e-20)
(1.361 0.05229 -6.53662e-22)
(1.29623 -0.12628 -1.798e-21)
(1.13316 0.0192235 1.62442e-20)
(1.15432 -0.109513 -1.36694e-21)
(0.935437 -0.0251348 1.33099e-22)
(1.3456 -0.00610847 4.12879e-22)
(0.909612 0.164548 -8.78474e-22)
(1.32712 -0.0838895 4.49186e-21)
(0.993691 -0.000235599 -1.20362e-23)
(0.823516 0.111831 -1.39104e-20)
(1.32791 -0.0467345 2.71642e-21)
(1.27769 -0.171768 2.56825e-21)
(1.22197 -0.171612 -6.74684e-21)
(0.847365 0.133044 -1.69228e-20)
(0.888335 0.141773 3.87785e-20)
(0.955491 -0.0295947 -1.0459e-22)
(0.998955 -0.0517773 -1.00173e-22)
(1.10428 -0.0078571 -2.26462e-23)
(0.940567 -0.0221063 -9.36249e-23)
(0.998811 -0.000110751 5.82078e-23)
(0.99872 0.145638 -5.10942e-21)
(0.975295 0.0491725 -1.02045e-20)
(0.961543 -0.016105 4.10521e-23)
(0.94382 -0.0411751 1.92455e-22)
(1.13238 0.249992 1.06794e-20)
(0.998479 0.0330649 1.59383e-20)
(0.998869 -5.51071e-05 -1.6772e-22)
(1.00323 0.0373982 -2.33782e-20)
(1.20675 -0.136183 1.41131e-21)
(1.01896 -0.0204344 3.62528e-22)
(1.00363 -0.0760018 1.09247e-22)
(1.08683 0.146814 -1.8185e-21)
(0.890215 0.261768 1.79541e-20)
(1.19637 0.0221844 8.30173e-21)
(1.14255 0.229062 -1.7271e-20)
(0.975171 -0.0122064 -6.73066e-23)
(1.00174 -0.051221 -5.03233e-22)
(1.00011 -0.000149623 1.28638e-25)
(0.999229 -3.8482e-05 4.62907e-23)
(1.00048 -0.00938117 1.38105e-22)
(1.2271 -0.0100632 7.55138e-22)
(1.15909 -0.171251 -1.54021e-21)
(1.08991 0.215748 -2.20574e-20)
(0.995797 -0.126336 9.21404e-22)
(1.05019 0.0774646 1.35513e-20)
(0.9856 -0.0602175 -8.49643e-23)
(1.11998 -0.114642 -1.77261e-21)
(0.983478 0.156494 1.94552e-20)
(0.906436 0.00822421 6.96987e-20)
(1.08664 0.138072 3.08809e-20)
(1.01789 0.190375 -2.86843e-20)
(0.941969 -0.0401413 -1.62796e-22)
(1.31047 0.17806 -3.74356e-21)
(1.01312 -0.0686876 2.16611e-21)
(1.15293 -0.00948626 4.05999e-21)
(0.995844 -0.00867266 -5.23181e-23)
(1.29186 -0.191347 -7.04439e-21)
(1.22299 -0.108999 -2.78489e-21)
(1.11414 -0.0396244 2.11063e-22)
(0.999625 -8.58349e-05 5.91556e-24)
(0.988139 -0.00060194 -6.13914e-22)
(0.878614 0.268258 -2.76781e-20)
(1.28035 -0.00359715 7.39669e-21)
(1.01781 -0.0270927 -3.26039e-22)
(0.960681 -0.0625533 -6.9516e-22)
(1.15319 -0.164894 6.07316e-22)
(1.08084 -0.229041 3.62422e-21)
(1.33397 0.196139 -7.09245e-22)
(0.987647 -0.106059 -1.01513e-21)
(0.973776 -0.00200857 3.06362e-22)
(0.99295 -0.0829862 1.16473e-21)
(0.990094 -0.0349507 -9.59868e-23)
(0.999397 -6.10497e-05 -2.32812e-24)
(0.9845 -0.0573387 4.46385e-22)
(1.04844 -0.207579 -5.94959e-22)
(0.912772 0.221379 3.56649e-20)
(1.33631 -0.0885708 -2.71082e-21)
(0.973692 -0.0281858 -2.97829e-22)
(1.04524 0.0818022 -2.09962e-20)
(0.892507 0.153478 -4.67947e-21)
(0.984414 -0.0649683 8.62758e-23)
(1.00075 -0.000330749 -1.83271e-23)
(1.00203 -0.0983424 -1.17468e-21)
(0.99469 0.133648 5.9732e-21)
(1.26552 -0.22248 -3.77856e-21)
(0.946418 0.0648287 -3.67788e-20)
(1.00003 -0.000159217 1.13772e-24)
(0.945693 -0.0457137 4.13735e-22)
(1.19052 0.27787 1.6747e-21)
(0.998966 0.0305981 3.18831e-20)
(1.03623 -0.0967932 -4.15954e-22)
(0.973944 -0.0364137 2.45768e-22)
(0.839471 0.237469 3.03916e-20)
(1.27724 -0.154506 7.7415e-22)
(1.28871 -0.126838 1.52066e-21)
(0.935018 0.211819 2.44089e-20)
(0.835491 0.130574 -2.90419e-21)
(0.982632 -0.0671187 -2.93833e-22)
(1.19057 0.286597 -1.1829e-20)
(1.21586 -0.0434149 -1.16244e-21)
(1.01054 0.0729477 -4.00141e-20)
(1.16631 0.143163 8.73157e-21)
(1.00078 -0.000242064 2.35994e-23)
(1.33934 -0.0900373 2.68411e-21)
(1.21838 0.122439 4.33589e-21)
(0.996527 -0.000559654 -1.02513e-22)
(0.993593 -0.133076 -3.85327e-22)
(1.32157 -0.0729476 1.1551e-21)
(1.15905 -0.241799 -1.7191e-21)
(1.32276 -0.0491034 -1.35672e-21)
(1.23831 -0.0897641 1.19542e-21)
(1.00011 -0.000232561 -2.12975e-24)
(0.999349 -0.00395457 4.35462e-23)
(0.967083 0.254999 -4.17862e-20)
(1.00114 -0.0170834 -2.57233e-23)
(1.00617 -0.159818 -1.18627e-21)
(0.985586 -0.0871051 1.08099e-22)
(1.3583 0.0129659 2.00833e-22)
(0.969959 -0.00445748 3.8489e-23)
(1.13768 0.26722 1.22718e-20)
(1.28197 -0.0539144 -8.67762e-22)
(0.989841 -0.0834743 6.57614e-22)
(0.955191 -0.00674606 6.10403e-23)
(1.23692 0.109898 7.29542e-22)
(1.33994 0.0036941 6.59439e-23)
(1.00007 -0.000237403 -1.78287e-24)
(0.94728 0.151295 3.58466e-20)
(1.12397 0.158177 4.03505e-21)
(0.985677 0.0300884 -8.85026e-21)
(1.26297 -0.183182 -2.43892e-21)
(0.999484 -5.80869e-05 -2.50871e-23)
(0.843472 0.22689 -2.03222e-21)
(0.996173 -0.00589836 -1.78121e-23)
(0.989598 -0.0638566 2.00139e-22)
(1.34103 -0.00416425 -3.90822e-23)
(1.3218 -0.081117 -5.22451e-22)
(0.974536 -0.0669818 -6.02352e-22)
(1.27298 -0.163795 3.82645e-21)
(1.05924 0.0898165 5.46855e-21)
(0.9042 0.0100985 2.51048e-20)
(1.04769 0.215335 -2.95269e-20)
(1.26208 -0.0294009 -1.83786e-21)
(0.797717 0.0431394 3.567e-21)
(1.00032 -1.18992e-05 -1.69849e-24)
(0.987438 -0.0342301 -9.23832e-23)
(0.999833 0.0167397 4.21509e-20)
(1.21388 -0.219636 7.70811e-22)
(1.21231 0.11671 -1.05787e-20)
(0.981029 -0.0491648 -3.04468e-22)
(1.00213 0.196565 2.91156e-20)
(1.25658 -0.0612312 -1.53786e-22)
(1.00004 -0.00433756 3.39779e-23)
(1.24869 -0.0627864 1.4403e-22)
(1.12565 0.130898 -2.01212e-20)
(1.17423 -0.221652 -5.08888e-23)
(0.943894 0.0151317 -6.72518e-21)
(1.2133 0.226193 2.62466e-21)
(0.999234 -0.000332911 1.48034e-24)
(1.04643 -0.0266845 4.55718e-22)
(1.30431 0.0880691 3.27255e-21)
(1.18905 -7.53651e-05 1.03484e-20)
(0.998304 -8.57851e-05 1.76456e-22)
(1.21732 0.250157 -1.84215e-20)
(1.01406 -0.0610362 -1.87951e-22)
(0.73559 0.125717 -1.61865e-21)
(1.02286 -0.130174 -2.43416e-21)
(0.9615 -0.0144597 -1.05104e-23)
(0.988798 -0.000713405 4.7557e-22)
(1.05287 0.223586 3.25508e-20)
(1.18805 0.216458 -3.00663e-20)
(0.974821 -0.00280138 -1.2002e-22)
(1.22637 0.101572 2.55418e-21)
(0.956757 0.209196 -1.03574e-20)
(1.00121 -0.0183402 -4.79476e-23)
(1.09481 0.0121047 5.09515e-21)
(1.04988 0.0379389 -1.51483e-20)
(0.765789 0.0668782 2.35799e-20)
(0.996702 -0.00491731 3.83478e-24)
(1.33671 0.0298443 -1.93337e-21)
(1.21502 -0.112307 1.06321e-21)
(0.939993 -0.0197221 -3.05383e-23)
(0.999653 -6.04089e-05 -5.30442e-24)
(0.999628 0.00935569 2.59777e-20)
(1.34754 0.186701 2.63529e-21)
(1.31242 -0.100175 1.15636e-20)
(0.99257 0.250986 -1.04497e-20)
(1.2603 -0.0219402 7.68162e-22)
(0.969952 -0.0375061 1.81626e-22)
(1.30837 0.165293 -2.88145e-21)
(1.17673 -0.00568448 -1.28803e-21)
(1.2712 -0.00104422 2.72737e-21)
(0.772323 0.0731811 -6.15594e-20)
(1.02676 -0.11444 9.14919e-22)
(1.33782 -0.0171511 -1.53906e-22)
(0.982109 0.0415032 -2.30532e-20)
(0.958926 -0.0635457 6.19862e-22)
(1.20094 -0.0532435 1.45584e-22)
(1.06776 -0.189755 2.85908e-21)
(1.30039 0.080428 -1.4882e-21)
(0.994883 -0.000183 7.36034e-22)
(1.18322 0.0115815 -1.8175e-21)
(1.31621 -0.0947053 -4.71316e-21)
(1.33554 -0.0225091 -9.89089e-22)
(1.00138 -0.00558721 1.251e-22)
(1.17449 0.00876501 1.92705e-20)
(0.99531 0.0214351 -2.19499e-20)
(1.11691 0.0894359 3.62545e-20)
(1.16072 -0.236855 -6.85413e-21)
(0.991741 -0.0329923 2.14919e-22)
(0.857407 0.121739 -1.95839e-20)
(0.877292 0.0393554 -5.04993e-20)
(0.996499 -0.00812281 -9.7223e-24)
(0.947881 -0.0447322 1.73189e-22)
(1.05295 0.156254 4.35481e-21)
(1.01119 -0.167941 -9.73408e-22)
(1.11142 -0.117257 1.57557e-21)
(1.32418 0.193166 1.10054e-20)
(0.990601 -0.000466853 -5.92701e-22)
(0.761113 0.0590474 4.08862e-20)
(1.03907 -0.0867753 -1.29123e-22)
(1.3402 0.0474772 1.08879e-21)
(0.988184 -0.0114852 -1.3972e-24)
(0.992305 0.02197 -9.41083e-21)
(1.21773 0.214531 -5.14824e-21)
(1.11528 -0.0312888 -5.14177e-22)
(1.12698 -0.128432 -9.07125e-22)
(1.29973 -0.121062 3.21132e-21)
(1.32945 -0.0417475 -3.40989e-22)
(0.999354 -0.00614559 1.9439e-24)
(1.03966 0.129263 -8.03319e-21)
(1.32121 -0.14969 7.7107e-21)
(1.23603 0.073074 1.05444e-20)
(0.73813 0.133615 6.16401e-20)
(1.27324 -0.18196 1.99552e-21)
(1.0843 -0.104238 -2.58221e-21)
(1.00005 -0.0101948 -1.38676e-22)
(1.34513 -0.0559289 -4.22358e-21)
(1.32764 -0.0915297 -2.94743e-21)
(0.969752 -0.0286411 4.6213e-22)
(1.27969 0.208646 -1.75676e-21)
(1.00001 -0.00160006 -2.67312e-23)
(0.966721 -0.0510562 -1.12071e-22)
(1.01782 -0.0185592 -5.07179e-22)
(1.27216 -0.14698 2.89728e-22)
(0.98614 -0.0550756 3.6657e-22)
(0.999573 -0.000146919 1.58655e-24)
(0.984052 -0.0715768 1.20133e-21)
(1.34629 -0.0126824 3.86642e-22)
(1.17327 -0.231058 -2.64369e-21)
(1.05698 -0.0931777 -2.18616e-22)
(0.953624 -0.0302965 -2.4136e-22)
(1.31581 -0.0694397 3.14452e-21)
(1.23306 -0.0828594 -7.36711e-22)
(0.967887 -0.0663105 -3.17567e-22)
(0.947834 -0.00951958 -2.36715e-22)
(1.00098 -0.00583255 -2.00514e-23)
(1.1601 -0.123603 3.02819e-21)
(1.02431 -0.181578 -1.63726e-22)
(1.01469 -0.00382489 8.66095e-23)
(1.04072 -0.0928273 1.51671e-21)
(1.33393 0.0061902 -4.23047e-22)
(1.11771 0.082144 -2.2012e-20)
(1.28821 -0.067235 -2.56444e-22)
(0.99921 -0.000276133 1.57486e-23)
(0.820321 0.252778 -4.52681e-20)
(1.01489 -0.00194684 3.00796e-22)
(0.999914 -0.00173169 3.19608e-23)
(1.05076 -0.0132453 -2.06837e-22)
(0.952585 -0.045337 -2.90875e-22)
(1.00791 -0.116898 1.35901e-22)
(0.896412 0.131043 -2.27609e-20)
(1.02802 -0.0706743 1.3333e-22)
(1.21098 -0.0395413 -7.47387e-22)
(1.02013 -0.157426 2.38742e-21)
(1.01615 -0.159759 -3.01544e-21)
(1.32236 0.180581 -7.64554e-21)
(0.992083 -0.0647117 -3.53486e-22)
(0.987149 -0.101134 5.17341e-22)
(0.996066 -0.131107 9.35473e-22)
(0.999709 -4.34614e-05 1.14287e-23)
(1.21029 -0.155006 -4.71407e-21)
(0.793313 0.238006 -4.18601e-21)
(1.0845 -0.222229 9.70887e-22)
(0.949429 -0.0577469 -5.36498e-23)
(1.26994 0.199588 -1.60763e-22)
(0.975986 -0.0631487 -6.36105e-23)
(1.16127 0.134166 -7.34091e-21)
(1.36152 0.035329 1.59448e-22)
(0.995603 -0.00630551 3.6114e-23)
(0.998653 -0.000161106 -4.74347e-23)
(1.1088 0.146215 2.53119e-21)
(0.742028 0.169807 1.99819e-20)
(1.0653 -0.219239 2.39716e-22)
(1.36744 0.0875662 2.55119e-22)
(1.34979 -0.0198515 2.19788e-21)
(0.956989 -0.0512841 -1.45005e-22)
(0.956863 -0.053982 -3.56279e-22)
(1.05816 0.162822 -1.1736e-21)
(1.1395 -0.0179965 5.17407e-22)
(1.18231 -0.236297 5.45011e-21)
(1.07322 -0.182331 -2.44144e-21)
(0.979337 -0.00165044 2.80487e-23)
(1.08091 -0.0205672 -6.65569e-23)
(0.868224 0.0620894 -8.72054e-21)
(1.22098 -0.0203784 -6.19676e-21)
(1.00031 -0.000111103 2.63452e-24)
(0.91956 0.200291 3.84751e-20)
(1.04309 -0.0829818 -1.63749e-21)
(1.00952 -0.119179 1.74281e-21)
(1.19831 0.269409 -1.01409e-20)
(1.02096 -0.0301816 -4.86348e-22)
(0.987279 -0.0109092 -1.04992e-23)
(0.999236 -0.000502976 5.67893e-24)
(1.19905 -0.122039 -1.60366e-21)
(0.956714 -0.0227738 -1.14165e-22)
(1.0003 -2.00189e-05 2.94908e-24)
(1.3689 0.0836665 -7.06204e-22)
(1.26995 -0.214858 -2.64376e-21)
(1.03435 0.12701 -1.40504e-20)
(0.999326 -8.82772e-05 -8.45569e-24)
(1.00014 -0.00520391 -1.61777e-23)
(0.974543 -0.0647646 -3.29202e-22)
(0.999995 -0.00014109 2.60958e-25)
(1.066 -0.225325 -1.223e-21)
(1.20152 -0.235081 -2.61966e-21)
(0.999451 -0.00519562 8.54157e-24)
(1.00743 -0.0935968 -5.29513e-22)
(0.938799 -0.0162234 2.75967e-23)
(1.17954 0.241551 -1.37189e-21)
(0.986148 0.248541 8.43024e-21)
(0.996147 -0.00535228 5.85255e-24)
(1.00378 -0.00136685 3.51283e-23)
(0.992009 -0.124017 -2.33816e-21)
(0.971008 0.224551 2.79906e-20)
(1.0047 -0.0423386 5.22149e-22)
(0.950848 0.141129 -8.51987e-22)
(0.977293 -0.01368 -8.44749e-24)
(0.741054 0.100426 -1.67249e-20)
(1.08401 0.0281602 -2.79794e-21)
(1.26255 0.0413805 -8.41409e-21)
(0.779342 0.133543 -1.80419e-20)
(1.32357 -0.139773 3.09782e-22)
(0.989032 -0.00307467 3.04915e-23)
(1.20683 -0.108045 -8.89858e-22)
(1.01015 -0.0440356 -5.47781e-23)
(0.989527 0.220712 6.83663e-21)
(1.05048 0.140418 1.88274e-20)
(0.967554 -0.00855539 -4.61211e-23)
(1.28837 -0.185093 7.96843e-21)
(1.1774 -0.0512432 -5.404e-23)
(1.07992 -0.109492 -1.40232e-21)
(0.995978 -0.000282434 1.06643e-22)
(1.28846 -0.200785 6.95797e-21)
(1.00029 -5.30716e-05 4.01649e-24)
(1.1687 0.236371 6.65446e-21)
(0.93827 -0.0151529 2.63175e-23)
(0.987596 -0.0805079 -2.21665e-22)
(0.994004 -0.0383022 2.47952e-22)
(1.0065 -0.074878 1.96228e-21)
(1.33249 0.0483234 3.92801e-22)
(1.28899 -0.0601113 1.20216e-21)
(0.998568 -4.94036e-05 -1.82668e-22)
(1.03192 -0.0681422 -1.1366e-21)
(0.999865 -0.000184128 -1.43029e-26)
(0.748164 0.0925812 1.23422e-20)
(0.880099 0.0557469 1.77827e-20)
(0.994804 -0.00106168 5.81316e-23)
(0.966564 -0.0144682 -2.06152e-23)
(1.04372 -0.0507 -5.23122e-22)
(1.05648 0.146967 8.08013e-21)
(0.931671 -0.0252729 -1.66913e-22)
(1.3513 -0.0202285 5.52711e-22)
(0.952014 -0.0592473 1.00412e-22)
(1.03572 0.216658 -5.88756e-22)
(1.27186 0.0424255 -8.57651e-22)
(0.955296 -0.0249588 -1.09686e-22)
(0.78278 0.0473355 -2.59483e-20)
(1.07099 -0.00351002 1.45406e-22)
(1.06208 0.225252 -1.72378e-20)
(0.990393 -0.0169351 2.96825e-24)
(1.0262 -0.192576 4.85667e-21)
(0.95588 0.00904257 -5.63047e-20)
(1.01755 -0.0557238 7.57879e-22)
(0.73412 0.182677 -9.12977e-21)
(1.08442 0.166987 9.94618e-22)
(0.786104 0.0539092 -6.13129e-21)
(0.989451 -0.00320723 -1.37569e-23)
(0.992658 -0.000527265 -2.40615e-22)
(1.03255 -0.122967 -5.62521e-22)
(1.22521 -0.100112 3.54924e-21)
(1.01927 -0.0298719 5.26876e-22)
(1.03219 -0.111231 -1.95638e-22)
(1.04404 0.198598 1.60028e-21)
(1.03742 0.237476 5.51702e-21)
(1.0865 0.00539389 7.17011e-24)
(0.978667 0.217424 -2.00597e-20)
(0.750966 0.199517 4.94459e-21)
(1.33165 0.0925998 5.23303e-21)
(0.998417 0.0103482 -3.77442e-20)
(1.10474 0.0706547 -7.1216e-21)
(1.00624 -0.0222896 -4.45513e-22)
(1.10302 0.15276 -8.21773e-22)
(0.985184 -0.100295 -4.45217e-22)
(0.954221 -0.057878 2.63556e-22)
(0.998423 -0.00142144 -1.68192e-24)
(1.07136 -0.108704 3.32197e-21)
(1.1321 -0.207827 -7.40469e-22)
(1.17696 0.0616521 5.1206e-21)
(1.12075 -0.0153785 7.13468e-22)
(1.00524 0.0587567 2.92393e-21)
(1.0101 -0.0645026 1.31679e-21)
(1.18764 -0.040092 6.11065e-22)
(1.00684 0.0443373 -3.32887e-21)
(1.01166 -0.0462246 8.80733e-22)
(1.12152 -0.133041 2.06156e-21)
(0.999899 -0.000215397 1.42225e-25)
(1.00053 -0.000275061 3.76726e-24)
(1.17186 0.0557053 -4.05246e-23)
(0.988429 -0.0867081 -6.37562e-22)
(0.961887 -0.0542143 4.35622e-22)
(1.00059 -0.000262622 -5.72998e-24)
(0.999996 -0.00358925 2.14237e-23)
(1.17391 -0.0567894 -8.43803e-23)
(0.999493 -6.05856e-05 1.4851e-23)
(1.33965 -0.0699874 7.50385e-23)
(0.758492 0.0730921 3.25168e-20)
(1.36826 0.0994049 1.72002e-22)
(1.25742 0.0772646 -4.42691e-22)
(0.964032 -0.00825678 9.8304e-23)
(1.11044 0.227213 5.84135e-21)
(1.34558 -0.0493503 1.80778e-21)
(1.00546 -0.0394765 -3.15849e-23)
(0.966794 -0.0163487 -3.40199e-23)
(0.996708 -0.00453615 -1.05344e-25)
(0.99918 -0.000439068 -4.40708e-24)
(1.00215 -0.00596788 -4.81628e-23)
(0.994754 -0.0407602 2.06449e-22)
(1.04601 -0.192839 2.87322e-21)
(1.25763 0.123047 1.22942e-20)
(1.25338 -0.111848 -1.18107e-21)
(0.964119 -0.00390573 2.76329e-24)
(0.999877 -0.000146587 4.58634e-25)
(1.00811 0.13141 1.95848e-20)
(1.31859 -0.117643 6.43744e-21)
(1.30444 -0.164296 2.21218e-21)
(1.02065 -0.0574581 -8.52006e-22)
(1.34165 -0.0350572 -1.21964e-21)
(1.06836 -0.112382 -8.59885e-22)
(0.984155 -0.00087789 1.90879e-24)
(1.00388 0.0332859 1.65998e-20)
(0.95823 0.00161037 -7.56837e-20)
(1.26361 0.263806 -1.06515e-20)
(0.990636 -0.000397644 4.00739e-22)
(1.25549 0.268974 8.88595e-21)
(0.966637 -0.00579958 -5.5883e-23)
(0.97977 -0.0591071 -4.27781e-22)
(1.35073 0.126413 -5.19681e-21)
(1.00029 -0.000136181 4.77497e-24)
(0.985959 -0.0383333 -3.91043e-23)
(1.34115 0.0333616 7.57512e-22)
(1.31416 0.0897139 5.65233e-21)
(0.956441 -0.0272413 -1.37057e-23)
(1.06623 0.145014 1.28305e-21)
(0.901964 0.269327 -1.87098e-21)
(1.03415 0.0701666 -3.75206e-20)
(0.950177 -0.0464374 4.69757e-22)
(0.94892 -0.00942533 7.72967e-23)
(1.06222 -0.0887648 -4.87827e-22)
(1.18272 -0.0118378 2.37455e-22)
(1.04634 0.031337 -8.87525e-21)
(0.99468 -0.0015037 1.5594e-23)
(0.947716 0.0217478 -2.10687e-20)
(0.988844 -0.0608668 1.10189e-21)
(1.03234 -0.192544 -3.33154e-21)
(1.20518 -0.0994335 -5.73015e-22)
(0.809889 0.257893 6.43064e-20)
(1.26858 0.129153 -9.31298e-21)
(1.04282 0.142565 -1.97976e-20)
(1.21232 -0.230061 1.38112e-21)
(0.92365 0.00493203 -3.43556e-20)
(0.958876 -0.0225442 1.09404e-22)
(0.981647 -0.0569061 3.11616e-22)
(0.837172 0.024697 1.22953e-20)
(1.10891 -0.0428879 -3.76426e-23)
(1.04744 -0.17955 -4.96684e-22)
(1.06113 0.205075 -3.99673e-21)
(1.02936 0.20791 -1.27526e-20)
(0.969015 -0.0493661 -3.94323e-22)
(1.05784 0.0405371 -1.99552e-20)
(0.973681 0.235258 -3.68412e-21)
(1.02841 0.190717 1.66947e-20)
(1.15854 0.260752 4.56674e-21)
(1.05094 0.207528 2.62133e-20)
(1.16035 0.152548 -1.15384e-20)
(0.984945 -0.00388439 -8.62919e-23)
(0.959897 -0.0246827 1.69894e-22)
(1.00332 -0.00968564 -2.76322e-23)
(1.00915 -0.157131 3.37127e-21)
(0.98732 0.0432804 -5.27808e-21)
(1.01561 -0.166475 1.95635e-21)
(1.3448 0.00904139 -3.34702e-23)
(1.28315 0.0113179 -3.25118e-21)
(0.962572 -0.0631917 3.25898e-22)
(1.33649 -0.0672464 -1.58673e-23)
(1.35599 0.0312769 -1.18345e-22)
(0.986199 0.0163695 -1.62004e-21)
(1.32739 -0.0685256 -1.30593e-21)
(0.999496 -0.00433393 -5.05777e-24)
(1.08597 -0.020179 3.21484e-23)
(0.978848 -0.0638415 2.06338e-22)
(1.2867 -0.153025 1.1794e-22)
(1.30035 -0.157711 -4.88509e-21)
(1.01971 -0.177025 6.37154e-22)
(1.1558 0.247262 2.57975e-21)
(0.948015 0.259974 3.0036e-20)
(1.2483 -0.0885406 -9.75192e-22)
(0.994877 0.0129232 1.67493e-20)
(0.741495 0.157502 -2.24293e-20)
(0.998669 -9.8718e-05 4.49668e-23)
(1.0042 -0.00139531 -2.80622e-24)
(0.99562 -0.00698875 -1.56301e-23)
(0.968145 -0.00909805 -3.09252e-23)
(1.22202 0.13982 -7.77208e-21)
(0.835493 0.0280551 -2.65622e-20)
(1.22634 -0.0180585 5.35951e-21)
(1.12174 0.243726 3.53774e-21)
(0.975906 -0.0294444 -1.76288e-22)
(1.26281 0.227073 1.44537e-20)
(1.26675 0.249236 4.52634e-21)
(1.26819 -0.204867 1.05445e-21)
(0.951846 -0.0133788 -1.17929e-24)
(0.933521 -0.0237759 1.22115e-22)
(1.34938 0.00633234 1.24584e-23)
(1.01478 -0.0569448 2.94471e-22)
(1.2545 -0.105566 -1.35995e-21)
(0.959441 -0.0499287 7.98748e-23)
(0.935697 -0.0476424 -5.72621e-22)
(1.07989 0.208259 2.78916e-20)
(0.990726 -0.0027132 -6.405e-23)
(1.03255 -0.077986 -2.61175e-22)
(1.04046 0.232608 1.35639e-20)
(1.33209 -0.0716165 -8.13763e-21)
(0.836483 0.213763 7.15917e-21)
(1.01716 -0.113313 -9.64907e-22)
(1.0929 0.0243585 9.12155e-21)
(1.29151 -0.160167 5.00104e-21)
(0.996734 -0.0922439 2.76097e-22)
(0.955724 0.0160019 -7.6261e-21)
(0.979308 0.00101723 4.87364e-20)
(0.979474 0.0635685 -8.2061e-21)
(0.990716 -0.0431843 -4.39285e-22)
(0.861726 0.036162 2.79506e-20)
(0.952941 -0.0425864 2.28742e-22)
(0.936509 0.185942 1.10973e-21)
(1.16232 -0.104361 6.80334e-22)
(0.97079 0.112712 -4.57405e-21)
(0.9752 -0.0605944 2.57283e-22)
(1.00003 -0.0002938 -4.16141e-25)
(0.970635 0.097762 1.5379e-20)
(0.929976 0.165405 1.82475e-20)
(0.944564 0.204022 -2.92066e-20)
(0.973687 0.0820053 -1.79032e-20)
(1.14958 0.00908528 -2.86286e-20)
(1.1988 -0.0471778 6.15672e-23)
(1.18504 0.132987 -2.0855e-20)
(1.0439 -0.17401 1.29903e-21)
(0.993332 0.0320397 5.4189e-20)
(1.06133 0.129433 -2.42208e-20)
(1.31174 -0.118675 -7.74513e-21)
(1.12526 -0.0202804 -7.79269e-22)
(0.985429 -0.00366827 -5.16148e-23)
(1.32786 -0.137391 -1.20241e-21)
(1.09962 0.210757 -4.43757e-21)
(0.938143 -0.0362233 7.95322e-24)
(0.967259 -0.00492749 2.18243e-22)
(0.985085 0.00871546 -1.08815e-20)
(0.958161 0.122131 -3.33662e-20)
(0.984412 -0.0697601 -5.01746e-22)
(0.979165 0.132762 2.40071e-20)
(1.02253 -0.187666 1.14117e-21)
(1.33754 -0.0370954 2.26809e-21)
(0.994084 -0.000292398 2.66295e-22)
(0.9441 0.132406 -1.88788e-20)
(0.927397 0.145008 4.85966e-20)
(0.771918 0.0831169 5.00599e-20)
(0.964447 0.243828 3.88849e-20)
(0.996978 -0.00035793 3.6885e-23)
(0.976011 -0.0320724 1.16362e-22)
(0.998218 -0.00145893 1.53542e-23)
(0.991693 -0.0964254 -2.11525e-21)
(0.841709 0.160576 -1.03462e-20)
(1.28498 0.070682 -1.05026e-20)
(1.13132 0.224622 -3.03689e-22)
(0.936505 -0.0455154 3.45094e-22)
(1.10717 0.0771389 2.23466e-20)
(1.04685 -0.0496099 5.47265e-22)
(0.837817 0.187763 1.4856e-20)
(1.10784 -0.140678 -9.64161e-22)
(0.991905 0.011465 1.85711e-20)
(0.994239 -0.000291944 1.5148e-22)
(0.865112 0.150887 -3.36778e-20)
(0.814366 0.199732 -4.17432e-20)
(0.97366 -0.0335372 -3.21718e-22)
(1.296 -0.0265336 4.52529e-22)
(0.870718 0.125413 -3.36264e-20)
(0.996272 -0.000556285 -1.89833e-22)
(0.808099 0.0851071 -5.53633e-21)
(1.05758 -0.0987182 3.66127e-22)
(0.996515 -0.000360684 6.9285e-23)
(0.949494 -0.014872 -4.14266e-24)
(1.06541 0.234862 -1.70209e-20)
(1.29924 0.0302126 -4.21558e-21)
(1.00467 -0.131803 1.51175e-21)
(1.00425 0.239646 1.52289e-21)
(0.798617 0.227273 2.81023e-21)
(1.25853 0.240711 -1.5828e-20)
(1.0762 -0.0154024 -3.72267e-23)
(0.995438 -0.0857075 4.26297e-22)
(1.19836 -0.114122 1.40789e-21)
(0.960978 0.138909 2.74052e-20)
(0.827607 0.0863797 -3.17325e-21)
(0.763255 0.0790004 3.23786e-21)
(1.27045 0.0599108 1.77525e-21)
(1.00034 -0.0129627 3.31881e-23)
(0.977006 -0.00182951 -1.04519e-22)
(1.10905 0.215862 -1.571e-20)
(1.00223 -0.0100595 2.76312e-23)
(0.981492 -0.00579967 1.5795e-24)
(1.00356 -0.0159456 -2.20104e-23)
(0.99086 -0.0376107 -2.1476e-22)
(1.0996 -0.198862 2.72721e-21)
(1.2041 -0.214539 -1.89812e-21)
(0.905103 0.202891 -4.32429e-20)
(1.02408 -0.0638725 2.55298e-23)
(0.998659 -0.00117335 -1.22646e-23)
(1.07789 0.132104 -4.14436e-22)
(1.3289 0.0585245 3.37852e-21)
(1.00205 -0.0161005 -3.87186e-23)
(1.33614 -0.0103907 5.10509e-22)
(1.00225 -0.00166837 5.3332e-24)
(1.2715 0.0235765 6.84193e-22)
(1.03523 0.0742173 2.63797e-20)
(0.973025 0.127099 -4.65784e-20)
(1.16599 -0.21529 2.12103e-21)
(1.28205 -0.0121419 -1.68517e-21)
(0.991506 -0.017407 -2.80613e-23)
(1.14787 -0.147873 3.86956e-22)
(0.99416 -0.00190607 7.5914e-24)
(0.952153 0.158404 -4.85607e-20)
(0.900446 0.196818 1.32119e-20)
(1.23348 -0.22559 1.94963e-21)
(1.19337 -0.230088 1.74955e-21)
(1.15214 -0.229922 5.54356e-21)
(1.03766 -0.114314 9.49275e-22)
(0.992136 0.230307 3.18163e-21)
(1.04213 -0.104769 6.47661e-22)
(1.12713 -0.190911 1.01273e-21)
(1.08026 -0.214182 -1.18027e-21)
(1.14206 -0.131085 -1.79096e-21)
(0.78975 0.0843675 2.70875e-20)
(1.151 -0.249254 -1.00842e-20)
(1.31527 -0.0867336 6.03499e-22)
(0.969029 0.0367465 9.53721e-21)
(0.995154 -0.000426266 -1.49941e-22)
(1.28343 -0.0475982 -1.31049e-22)
(1.0462 -0.0946553 -1.06202e-21)
(1.08197 -0.198322 2.05793e-21)
(0.995001 -0.00110706 -1.02106e-23)
(0.999532 -0.00365815 -1.34735e-23)
(0.783882 0.109418 -4.59659e-20)
(1.12332 0.0781904 1.66604e-20)
(1.2275 -0.233486 6.70724e-21)
(1.33508 -0.11502 -1.86852e-21)
(1.14856 0.134054 -8.68184e-21)
(0.987485 0.1293 -3.66046e-21)
(1.06897 0.136075 7.23686e-21)
(1.26245 -0.165115 -4.54716e-21)
(0.975898 -0.0682961 6.47682e-22)
(0.9906 -0.0583365 -2.96316e-22)
(0.9806 -0.0617904 -7.79701e-23)
(1.09635 0.13192 -2.32824e-20)
(0.966389 -0.00627062 -1.66985e-22)
(1.00149 -0.0877731 6.73572e-22)
(0.999698 -4.6598e-05 -3.70283e-24)
(0.962088 -0.0243096 -2.62935e-22)
(0.997413 -0.000657752 -2.85654e-24)
(1.12374 -0.21021 2.15252e-21)
(1.04844 0.231794 -1.60887e-20)
(1.05553 -0.179642 7.61346e-22)
(0.96573 0.202415 1.86071e-21)
(0.984675 0.199861 -4.29628e-20)
(0.954376 -0.0552445 -5.44396e-23)
(0.98095 -0.0367794 3.99955e-23)