/*--------------------------------*- C++ -*----------------------------------*\
  =========                 |
  \\      /  F ield         | OpenFOAM: The Open Source CFD Toolbox
   \\    /   O peration     | Website:  https://openfoam.org
    \\  /    A nd           | Version:  7
     \\/     M anipulation  |
\*---------------------------------------------------------------------------*/
FoamFile
{
    version     2.0;
    format      ascii;
    class       volVectorField;
    location    "5";
    object      U;
}
// * * * * * * * * * * * * * * * * * * * * * * * * * * * * * * * * * * * * * //

dimensions      [0 1 -1 0 0 0 0];

internalField   nonuniform List<vector> 
7639
(
(1.09746 0.115141 1.70179e-20)
(1.02691 -0.0323945 4.55231e-21)
(0.999342 0.0962252 -3.50912e-20)
(1.03607 0.0524226 4.83012e-20)
(0.999483 -0.000556767 -9.08569e-23)
(0.999979 -7.23514e-06 -1.03079e-23)
(0.9926 0.0784579 -6.86134e-20)
(0.997076 -0.00105886 -1.97336e-23)
(0.999923 -0.000108496 -1.68006e-23)
(1.01724 -0.00150289 -2.26912e-21)
(0.99998 -8.17857e-06 1.13649e-23)
(1.0013 -0.000827559 -3.67357e-22)
(0.995493 -0.00141738 9.39476e-22)
(1.01084 -0.00145448 -1.45742e-20)
(1.01646 -0.000141713 9.59408e-21)
(0.994674 -0.00822626 -1.82466e-21)
(1.10219 0.123352 -3.56957e-20)
(0.993989 -0.00175781 -3.29328e-22)
(1.00124 -0.00538794 -1.30221e-22)
(0.982617 -0.0475709 -1.42226e-21)
(1.02219 -0.00445666 -4.98861e-21)
(1.00085 -0.000371494 6.89476e-22)
(1.01099 -0.00263051 1.26232e-21)
(1.00981 0.0223258 -2.48673e-20)
(0.992057 -0.00215751 -1.50601e-21)
(1.09099 0.114661 -1.69847e-20)
(0.999476 -0.000524835 -6.56508e-23)
(1.01576 -0.000892008 5.75927e-21)
(1.00496 0.0114898 -3.19277e-21)
(1.00171 -0.00594123 1.07012e-22)
(0.992617 -0.00865344 -3.38925e-21)
(0.888253 0.0327732 1.00799e-20)
(1.00997 -0.00291966 7.80077e-21)
(0.999729 -0.000232238 1.14235e-22)
(0.999941 -1.18805e-06 2.2067e-25)
(1.01515 3.58248e-05 3.35619e-21)
(1.00244 -0.00647992 1.2565e-22)
(0.996056 0.0746268 -1.09392e-20)
(0.998147 -0.00461628 1.51983e-21)
(0.999808 -3.00158e-05 1.08833e-22)
(0.998178 -0.00470907 -1.76839e-22)
(0.994904 -0.00749424 -6.91267e-22)
(0.99269 -0.0554553 5.90153e-21)
(1.0742 -0.0703378 2.50922e-22)
(0.999884 -3.36142e-06 3.54715e-23)
(0.999957 -1.17288e-05 -1.02115e-23)
(1.00073 -0.000331799 -4.21491e-22)
(0.997616 -0.00391072 -8.96135e-22)
(0.999963 -1.77493e-05 -8.29236e-24)
(0.984266 -0.0484423 2.05133e-21)
(1.00188 -0.000730654 3.97266e-22)
(1.01561 0.000155077 -5.981e-21)
(0.989736 -0.00253913 -5.06216e-21)
(1.00503 -0.0188559 2.6367e-22)
(1.01432 -0.00163635 -1.98645e-21)
(0.99738 -0.00149588 -1.72918e-22)
(1.00085 -0.00536526 2.7653e-22)
(0.997097 -0.000889972 1.28399e-21)
(0.987243 -0.0100096 -6.00018e-21)
(0.999732 -0.000206388 -1.46748e-22)
(1.00002 -1.37587e-05 -1.50258e-23)
(1.0025 -0.000595412 4.45516e-22)
(1.01164 -0.000995637 -3.42161e-21)
(1.00139 -0.000738773 3.71801e-22)
(0.999476 -0.000130079 2.09828e-22)
(0.992776 -0.00906607 6.09371e-22)
(0.999948 -0.000112258 1.30131e-23)
(1.00001 -1.23406e-06 1.00214e-24)
(1.14628 0.0014965 7.15329e-21)
(0.997591 -0.0038036 -2.59454e-22)
(0.999961 -1.1925e-05 9.07356e-24)
(0.981461 -0.0287047 -1.06579e-20)
(0.992349 -0.00237895 7.31944e-22)
(0.986002 -0.00290749 9.98566e-22)
(0.994203 -0.00193941 1.0311e-21)
(0.980698 -0.013837 -1.31312e-21)
(1.00317 0.0976756 5.63602e-20)
(1.02057 -0.00412584 6.35041e-21)
(1.0579 -0.0156356 -1.18752e-20)
(0.97469 -0.0227176 -1.37061e-20)
(0.995674 -0.00155275 -1.44271e-21)
(0.999785 0.0432499 6.77097e-20)
(1.02663 0.00110675 1.4901e-20)
(0.985542 -0.00529026 4.57834e-21)
(0.999235 -0.00146194 -1.45457e-22)
(0.99871 -0.000180132 1.53038e-22)
(0.996887 -0.0013947 1.77434e-21)
(0.990098 -0.00284288 3.257e-21)
(0.999616 -0.000686183 9.79692e-23)
(0.997511 -0.000403329 5.48331e-22)
(1.00513 0.0131468 2.36017e-20)
(1.0969 -0.0818329 -5.09623e-22)
(0.999929 -3.23565e-05 -2.14955e-23)
(1.00099 -0.0045045 1.1017e-22)
(0.998016 -0.000595036 4.97986e-22)
(0.985672 -0.00172524 -7.96643e-21)
(0.982716 -0.0286121 6.89374e-22)
(1.00586 -0.0182733 8.00825e-23)
(0.999235 -0.0014248 4.90488e-23)
(0.999385 -9.38788e-05 7.04357e-23)
(0.973638 -0.0081243 3.4491e-21)
(1.06066 -0.0121552 9.71096e-21)
(0.998144 -0.000684869 -1.24185e-21)
(0.999984 -3.168e-07 -8.60841e-25)
(1.10639 -0.0788729 -6.13362e-22)
(1.02523 0.019293 -2.25487e-20)
(0.939878 0.0242171 1.16117e-20)
(0.997187 -0.00142017 -7.1479e-22)
(0.999995 -7.28641e-07 2.1344e-25)
(1.01481 -0.00909801 -2.72023e-21)
(1.04018 0.0489477 -5.61019e-20)
(1.0051 -0.0463124 -6.44987e-21)
(0.999994 -1.31878e-06 -3.1874e-25)
(1.01631 -0.00954194 -5.90733e-22)
(1.0217 0.0192206 2.37112e-20)
(1.00022 -0.000321154 -3.29051e-23)
(1.02181 -0.0628985 -2.04251e-22)
(1.02353 0.00980917 -5.44501e-21)
(0.988387 -0.0237507 4.58869e-21)
(0.985768 -0.00353976 -1.03831e-21)
(0.972145 -0.00531883 -8.33429e-21)
(1.00114 0.036761 -4.40684e-20)
(0.995397 -0.0556603 -8.11002e-21)
(1.00517 -0.00463933 2.31968e-22)
(0.973004 -0.00609727 3.28371e-21)
(0.999473 -0.000771954 2.1878e-22)
(0.992896 -0.00650237 1.10879e-21)
(1.00163 -0.00523343 -1.90834e-22)
(0.999441 -0.000106235 -4.67782e-22)
(0.992321 -0.00785656 5.60813e-23)
(1.09837 -0.111429 -9.02584e-22)
(1.05284 -0.0151848 2.025e-21)
(0.999668 -0.000295784 1.23744e-23)
(0.999567 -0.000707901 -1.90443e-22)
(0.984924 -0.00482898 1.3597e-21)
(1.037 0.0400777 2.06411e-20)
(0.993354 0.0297274 7.81093e-20)
(0.999986 -2.56505e-06 -1.02315e-24)
(1.00476 -0.00173241 1.87358e-22)
(0.963063 -0.00611507 -1.04181e-20)
(0.986779 -0.00207459 -4.08752e-21)
(0.989239 -0.0328819 -6.57876e-21)
(0.980841 -0.0149077 1.77817e-21)
(0.986704 -0.00263951 -8.97964e-23)
(0.935167 0.0192156 4.48322e-20)
(1.00343 -0.0274993 -2.19036e-22)
(1.01022 0.0124945 -1.20386e-20)
(0.988268 -0.0122209 -3.07302e-21)
(0.98073 -0.00286359 1.12875e-21)
(1.00049 0.0396761 -2.19157e-20)
(1.01594 0.00178711 8.43012e-21)
(1.08909 -0.0745408 8.34902e-22)
(0.999089 -0.00113243 -5.07503e-22)
(1.14528 -0.00994245 9.33865e-22)
(1.02588 0.000816377 -1.54836e-20)
(1.00941 0.077453 -5.55992e-20)
(0.977741 -0.0159234 5.45567e-21)
(0.995501 -0.00100331 3.16865e-22)
(0.950321 0.0624487 1.01681e-19)
(0.999965 -1.36164e-05 -7.81374e-24)
(1.00064 -0.00462184 -7.85221e-23)
(1.01098 0.0253138 1.78746e-20)
(0.999988 -1.09664e-05 5.02325e-24)
(0.998988 -0.00299248 -7.03183e-22)
(0.997801 -0.000579513 -2.38155e-22)
(1.00456 0.0299419 -5.86224e-21)
(1.00292 0.0312923 2.16897e-20)
(0.942258 0.0702821 3.38452e-20)
(0.998954 -0.0029097 -4.45806e-22)
(0.998235 -0.000193824 -2.66401e-22)
(1.00001 -1.17438e-06 -9.38375e-25)
(0.970639 -0.00332702 -1.43669e-20)
(1.0002 -0.000286037 4.52778e-23)
(1.02945 -0.030619 -5.32946e-21)
(1.00487 -0.00198743 1.24653e-21)
(0.981103 -0.00337069 2.34019e-21)
(1.10812 -0.0671336 4.74515e-22)
(1.10545 0.032819 5.69609e-22)
(0.999925 -3.4027e-05 1.17643e-23)
(0.999696 -0.000371572 -1.29087e-22)
(1.03708 0.0550301 -8.54002e-21)
(0.999966 -1.18976e-05 -3.78267e-24)
(0.999938 -5.97938e-06 5.62601e-24)
(0.993354 0.0833673 -5.68568e-20)
(1.02644 -0.034769 1.38949e-21)
(1.00072 -0.0375574 -3.77928e-21)
(0.989552 -0.0232543 -6.51139e-21)
(0.987071 -0.00388762 2.9868e-21)
(1.00171 -0.0280109 3.78022e-22)
(0.963883 -0.00514704 5.46203e-21)
(0.999989 -1.03779e-05 -1.79772e-24)
(0.983263 -0.0269581 -2.54569e-21)
(1.11321 0.0392656 -1.55951e-20)
(0.998121 -0.000828095 1.78392e-22)
(1.00004 -2.53784e-06 -1.12855e-23)
(1.07939 0.0503513 1.68818e-21)
(0.999311 -0.00021544 4.96448e-22)
(0.992721 -0.00772011 1.77184e-21)
(1.00079 -0.0263144 1.26473e-21)
(1.00001 -8.99859e-07 -4.08682e-25)
(1.00044 -0.00119036 -1.85946e-22)
(1.03346 0.0406896 2.56226e-20)
(1.10097 0.0520758 -2.08914e-20)
(1.00345 0.0670591 -7.46559e-21)
(1.02199 -0.0593266 2.30846e-21)
(1.00728 -0.0451878 1.50272e-21)
(1.03146 -0.0903234 -8.52573e-22)
(1.01524 -0.00325412 1.709e-20)
(1.02921 0.0407154 -8.26569e-21)
(0.999879 -1.06914e-05 -4.144e-23)
(1.00002 -1.08754e-05 3.97059e-24)
(0.955358 0.00956847 -4.46155e-20)
(0.995697 -0.0073081 -6.49097e-22)
(0.99966 -0.000270518 -1.23643e-22)
(0.984456 -0.0266924 5.28881e-21)
(0.992533 -0.00682867 -1.28724e-21)
(1.01852 0.0688956 -6.2333e-20)
(1.01387 0.0669939 -1.31314e-20)
(0.987493 -0.0334516 1.8081e-21)
(0.908495 0.0467498 -3.82221e-20)
(0.999362 -0.000255807 -3.64366e-22)
(0.994034 -0.00144487 1.1721e-21)
(0.972734 -0.00737818 4.54672e-21)
(1.02271 -0.000754455 -3.57458e-21)
(0.989837 -0.0668026 -7.70627e-22)
(1.12646 0.102975 -3.4961e-20)
(0.950349 0.0547187 -8.6994e-20)
(1.00004 -6.26924e-05 1.25574e-23)
(1.00519 -0.00466386 6.17014e-22)
(1.02195 0.0124691 2.94447e-20)
(0.99778 -0.00337809 -1.16195e-21)
(1.02511 0.0100424 -3.72115e-21)
(0.999691 -0.000731868 -3.15995e-23)
(0.921774 0.0791492 6.83135e-20)
(1.00921 0.0702622 1.21846e-20)
(0.99691 -0.00117203 1.12747e-21)
(1.0022 -0.00492262 -2.7092e-23)
(0.999818 -4.94558e-05 -2.02764e-22)
(1.15279 0.0457338 7.67113e-21)
(0.999945 -1.07602e-05 1.66966e-23)
(0.996728 -0.0062712 5.20751e-22)
(0.967118 -0.0141764 6.1491e-21)
(0.999959 -1.43364e-05 -3.76495e-24)
(0.999322 -0.00167207 -1.26137e-22)
(0.999761 -0.000725502 5.74777e-23)
(1.06011 0.0234111 2.13796e-20)
(0.999989 -1.38593e-05 6.04879e-24)
(0.997411 -0.000316416 6.0323e-25)
(0.975816 -0.0226584 1.58983e-20)
(0.889106 0.0243169 -2.21862e-20)
(1.05103 -0.017757 -2.75596e-21)
(0.931993 0.0527264 5.18955e-20)
(0.999976 -6.84935e-06 -9.43453e-24)
(0.999634 -0.0264379 -9.26052e-23)
(0.999894 -0.000178574 -4.63826e-23)
(1.0042 0.0803172 -5.58264e-20)
(1.00206 -0.000376984 -5.74288e-22)
(0.991116 0.028882 2.55862e-20)
(1.00166 -0.0062442 -5.25493e-22)
(1.00037 -0.00115328 1.99449e-22)
(1.01481 -0.0239375 -1.3696e-21)
(1.01524 -0.00188816 -1.58268e-20)
(1.00032 -0.000194292 9.38307e-23)
(0.999873 -3.34326e-05 1.09046e-24)
(1.00027 -0.000264527 2.12036e-22)
(0.997649 -0.0035738 -1.0245e-21)
(1.00332 -0.0403061 4.13897e-21)
(0.999977 -8.46228e-06 6.38037e-24)
(0.978614 -0.0153792 3.80825e-21)
(0.997896 -0.00069395 -4.4988e-23)
(0.999918 -3.22753e-05 2.28017e-23)
(0.999665 -0.00033333 4.02923e-23)
(0.987148 0.0474024 6.16731e-20)
(0.995455 -0.000485454 4.59497e-22)
(0.999581 -8.59705e-05 -4.19646e-23)
(0.913479 0.0111548 8.47104e-20)
(0.999258 -0.00164058 -2.84604e-22)
(1.07147 0.079891 -1.99944e-20)
(0.999884 -0.00017122 8.37818e-23)
(1.00401 -0.0144683 2.29848e-22)
(1.00001 -1.45664e-07 -3.46535e-25)
(0.988713 -0.0193997 -2.65514e-21)
(1.02237 1.68385e-05 5.52784e-21)
(1.11579 -0.0649822 -2.26287e-21)
(0.987285 -0.0107388 5.07196e-21)
(0.999776 -0.000384735 1.49762e-22)
(0.98357 -0.041047 3.33735e-21)
(0.990678 -0.000234532 2.13208e-21)
(0.999893 -1.78447e-05 2.25323e-24)
(1.00025 -0.000224236 -1.87714e-22)
(0.998771 -0.00205393 3.87543e-22)
(0.995594 -0.000826166 -1.37364e-21)
(1.00193 -0.000519822 -6.80715e-22)
(0.999286 -0.00120267 1.81932e-22)
(0.986271 -0.0049406 7.18872e-22)
(1.00603 -0.0393552 -3.06752e-21)
(0.986399 -0.00413124 3.19972e-21)
(1.07538 -0.0635137 -3.03457e-24)
(0.98213 -0.00447786 -4.0893e-21)
(1.02317 0.0941007 6.32334e-21)
(1.01893 0.0975823 -4.65625e-20)
(0.999166 -0.000463102 -3.15735e-22)
(1.1257 -0.0828595 -1.25961e-21)
(0.99999 -2.32494e-06 -5.95897e-25)
(0.99873 -0.00248662 -4.65318e-22)
(0.985396 -0.00119051 8.19221e-21)
(1.00737 0.0187978 1.48624e-20)
(1.03044 0.00326651 -1.45033e-20)
(1.00006 -2.44962e-05 2.55574e-23)
(0.998728 -0.00242666 -3.06637e-23)
(0.982742 -0.00497119 3.08174e-21)
(1.04597 0.0238277 -8.61036e-21)
(0.999443 -0.000732788 1.63716e-22)
(1.00197 -0.000581738 3.82533e-22)
(1.00073 -0.000571153 -3.41836e-23)
(1.09727 -0.0220707 1.01326e-20)
(1.09271 -0.113788 -5.18076e-21)
(1.04765 0.116071 3.01443e-20)
(0.999105 -0.000107304 -3.11228e-22)
(1.03292 -0.0363326 -3.88613e-21)
(0.999935 -4.17107e-05 -1.86627e-23)
(1.00284 -0.00447008 -1.33281e-21)
(0.999969 -7.56011e-06 -2.69146e-24)
(0.991074 -0.0119519 8.58728e-22)
(0.999806 -4.47142e-05 -3.88334e-23)
(1.0064 -0.013974 3.13852e-22)
(1.13552 -0.102074 3.10598e-21)
(0.98435 -0.0149981 6.01049e-21)
(1.00456 -0.0141404 -1.68129e-22)
(1.00494 -0.00398672 -8.08245e-22)
(0.999583 -0.000106485 1.87948e-22)
(1.01607 -0.0135156 1.923e-21)
(0.997288 -0.0111154 7.84637e-22)
(1.05812 -0.00585062 -5.69807e-21)
(1.05455 0.0235796 9.71465e-21)
(1.04296 -0.113169 2.31623e-23)
(1.06902 -0.0722973 -1.68705e-21)
(0.990346 -0.000509494 -2.28405e-21)
(1.00298 -0.00223947 1.22949e-21)
(0.968261 -0.013509 -2.3851e-21)
(0.935017 0.0696684 -1.05019e-19)
(1.05901 -0.0647774 4.36827e-22)
(1.01645 -0.00862837 -7.43646e-21)
(0.915429 0.050395 -5.20716e-20)
(0.999112 -6.06886e-05 1.53473e-22)
(0.998998 -0.000584395 -9.75201e-23)
(1.08228 -0.0765466 -1.59365e-21)
(0.99936 -0.00122898 -9.89017e-23)
(1.00398 -0.0259175 2.76216e-22)
(1.00354 -0.00130185 4.284e-22)
(0.99833 -0.000285163 -2.36845e-22)
(0.99875 -0.000260062 -3.78665e-22)
(1.02537 0.016868 1.72412e-20)
(0.99996 -9.33297e-05 -1.32513e-24)
(1.00029 -0.000144712 -8.35088e-23)
(1.00005 -1.12545e-05 1.92491e-23)
(0.998005 -0.000467556 1.28276e-21)
(0.996114 -0.00527446 1.43441e-21)
(0.999991 -3.35881e-06 4.64907e-25)
(0.999383 -0.000155961 3.9962e-23)
(0.987809 -0.00952772 1.78949e-21)
(0.955116 0.0138085 2.78345e-20)
(1.00568 -0.0148677 -1.53694e-22)
(0.995732 -0.00668394 2.2991e-21)
(0.966548 0.0542557 1.20381e-20)
(1.00144 0.0353382 3.91392e-20)
(1.04665 -0.0118288 -4.73931e-21)
(1.12594 -0.0737656 1.14639e-23)
(0.970044 -0.00246435 7.8426e-21)
(1.00302 -0.00247157 -6.08026e-22)
(1.00837 0.0332879 -2.16963e-21)
(0.993481 -0.00138514 -2.79777e-21)
(1.0486 0.0837137 8.69333e-22)
(1.00114 -0.0300021 3.68993e-23)
(1.00158 -0.0659599 -2.67321e-21)
(1.09416 0.0506439 1.29206e-20)
(1.05259 0.0897387 -2.62252e-20)
(0.979581 -0.01337 8.56253e-21)
(1.03238 0.00209346 -9.41874e-21)
(1.13595 0.10747 3.269e-20)
(1.06475 0.0824397 3.78674e-20)
(1.01528 -0.00241766 5.40777e-21)
(0.998256 -0.000896521 2.81333e-22)
(0.997547 -0.00135349 2.45809e-22)
(0.999948 -1.12018e-05 -8.94793e-24)
(1.00845 -0.0184324 3.64632e-22)
(0.993346 -0.00115809 6.60537e-22)
(1.00059 -0.00153596 -1.63705e-22)
(0.999939 -1.46442e-05 -1.65768e-23)
(0.999028 -0.000444638 1.22801e-22)
(0.982571 -0.0401576 -5.47249e-21)
(1.09253 -0.00314316 5.03207e-21)
(0.989974 -0.00342225 -3.65948e-21)
(0.999326 -0.0077324 8.27233e-22)
(0.997816 -0.00038905 -6.82498e-22)
(1.03111 -0.0362001 6.88956e-23)
(0.995823 -0.000919709 -2.21956e-21)
(1.0013 -0.00444834 5.16215e-22)
(1.15156 0.0908173 5.40226e-21)
(0.998899 -0.00021733 -8.87619e-22)
(0.999988 -2.64192e-05 -4.17193e-24)
(0.999967 -0.00011208 -2.26871e-24)
(1.00003 -6.56025e-05 1.63646e-23)
(0.987609 -0.00437995 1.67442e-21)
(1.02376 0.0140843 -2.04174e-20)
(0.997658 -0.000298529 2.62625e-23)
(1.01403 -0.0070601 4.81163e-21)
(0.991693 -0.07068 5.27587e-21)
(0.997707 0.0686526 -1.16997e-21)
(1.00237 -0.00482478 4.4308e-22)
(1.00423 -0.0027367 -2.01685e-22)
(0.997067 -0.00155165 -8.96106e-22)
(0.99385 0.0476046 -6.03952e-20)
(0.999395 -3.99723e-05 1.27502e-22)
(1.05273 0.120602 -1.53075e-20)
(1.00895 0.0129551 -2.32195e-20)
(0.999934 -1.78925e-05 1.94031e-23)
(1.0001 -0.030283 -2.36151e-21)
(0.998108 -0.000530103 -6.30573e-22)
(0.99079 -0.0335792 8.05886e-21)
(1.00031 -6.83735e-05 8.36507e-23)
(1.04362 -0.00818453 6.65975e-21)
(1.0039 -0.0101824 -1.84555e-23)
(1.0038 -0.00233064 1.02524e-22)
(0.999501 -9.20226e-05 -2.51893e-22)
(1.06579 0.0193737 1.03728e-20)
(1.04131 0.0238887 3.36797e-21)
(0.99872 -0.0387683 3.7998e-21)
(0.988128 -0.0111885 -3.44887e-22)
(0.9987 -0.00219599 -3.3427e-22)
(0.99763 -0.023559 -4.32703e-21)
(1.13324 -0.0134312 -8.84542e-21)
(0.894318 0.0385935 -4.87467e-20)
(1.03269 -0.062749 -1.99881e-21)
(1.00294 -0.00496244 -2.09465e-22)
(0.999995 -4.3805e-07 -1.70392e-25)
(0.992281 -0.00284282 -2.92851e-21)
(0.998671 -0.00021648 8.15723e-22)
(1.01579 -0.0121839 2.8048e-21)
(0.99004 -0.0571346 -2.44362e-21)
(1.11539 -0.0871859 9.2268e-22)
(0.98769 0.0660406 -7.49245e-20)
(1.04865 0.0196373 1.41516e-20)
(1.03632 -0.0866647 3.751e-21)
(1.08234 0.0574134 5.60686e-21)
(0.998923 0.0362715 7.16117e-20)
(1.01314 -0.00220686 3.98675e-21)
(1.00068 -0.00142316 3.74968e-22)
(1.02515 0.045416 1.28284e-20)
(0.999481 -0.0012453 2.2037e-22)
(0.999894 -9.64424e-05 1.83817e-23)
(0.989568 -0.00124626 1.02654e-21)
(1.00006 -2.17292e-05 4.78032e-24)
(1.03152 -0.0964421 2.12526e-21)
(1.00181 -0.0111462 -1.04615e-22)
(0.990095 -0.0191913 4.46679e-21)
(1.0011 -0.00102834 1.89628e-22)
(1.07178 0.0489903 2.98452e-20)
(0.998936 -0.000188076 -7.34463e-23)
(0.999986 -2.10405e-05 -4.12967e-25)
(0.997739 -0.0664397 2.96066e-21)
(1.00098 -0.000780231 -1.1017e-22)
(1.07107 -0.0305599 -1.36161e-21)
(0.974883 -0.00767374 1.60403e-21)
(0.964566 -0.00877299 8.06492e-22)
(1.16997 -0.0678832 -2.21528e-22)
(1.02027 0.0111967 -7.68504e-21)
(1.01609 0.00259706 4.74462e-21)
(1.01506 0.00258726 -1.90452e-21)
(0.999882 -2.72778e-05 6.48197e-24)
(1.09806 -0.00802972 3.8396e-21)
(1.05995 -0.00392922 6.62596e-21)
(0.999709 -0.000384041 5.91108e-23)
(0.990412 -0.00371369 4.25012e-21)
(1.00037 -0.000120425 -9.30903e-23)
(1.00646 -0.0128773 -2.14013e-21)
(1.00421 -0.0173468 -6.17348e-23)
(1.00282 -0.000907479 5.32786e-24)
(0.999561 -0.000785768 -2.65343e-22)
(1.14396 0.0382635 -2.36107e-20)
(0.999988 -1.31909e-05 -7.0376e-24)
(1.00013 -5.93597e-05 -2.47354e-23)
(1.00129 -0.000590542 -7.54869e-24)
(0.987095 -0.0018395 2.84858e-21)
(1.01159 -0.00780436 3.40556e-21)
(0.989839 -0.0161498 -6.39538e-21)
(0.98433 -0.00275995 -1.64581e-21)
(1.00235 -0.0377105 2.12632e-21)
(0.996889 -0.0779696 -5.63259e-21)
(1.01414 -0.0213022 8.92542e-22)
(1.03078 0.0453215 -7.35075e-20)
(1.13849 -0.0902322 -2.56706e-21)
(0.996183 -0.00151371 -1.1911e-22)
(0.918047 0.073738 8.10668e-20)
(0.983652 -0.0297374 9.27186e-21)
(0.996047 -0.00554858 4.52178e-22)
(0.984623 -0.0022781 2.72822e-21)
(0.99831 -0.0109698 -2.26938e-22)
(0.987884 -0.00142412 4.34909e-21)
(0.994158 -0.00233015 -8.49724e-22)
(1.01699 -0.0112069 -5.17096e-21)
(1.06061 -0.0696197 -1.27131e-22)
(0.999985 -2.58774e-05 -5.73456e-25)
(1.01394 -0.00981142 -5.69007e-22)
(0.999942 -1.79339e-05 -9.41932e-24)
(1.01452 0.0796719 1.49227e-20)
(1.15428 0.00450638 1.51141e-20)
(0.99716 -0.00117848 2.80246e-22)
(0.991831 -0.00107908 -3.88093e-21)
(0.999889 -3.37835e-05 -4.73391e-23)
(0.997011 0.0422263 4.51349e-20)
(1.03794 0.0901647 3.49187e-20)
(1.09559 -0.0165066 -5.42929e-21)
(1.17627 0.0649249 -1.97078e-20)
(0.983284 -0.0315724 -3.91993e-21)
(0.999008 0.0167523 -6.7282e-20)
(0.999963 -7.80504e-05 8.68244e-24)
(1.02823 -0.0229972 6.5692e-21)
(0.989411 -0.000946852 -1.62427e-22)
(1.09679 0.0344309 -6.02074e-21)
(0.941306 0.0508021 -6.32386e-20)
(1.13077 -0.0220612 1.01739e-20)
(1.04298 0.0168159 2.37515e-21)
(0.999814 -0.00764564 -1.27342e-22)
(0.999887 -5.00822e-05 -4.35972e-23)
(1.16446 0.0428608 7.90814e-21)
(1.10081 -0.100715 7.12209e-22)
(0.996981 0.0479907 -1.44773e-21)
(1.06549 -0.0286415 1.02873e-20)
(1.03125 0.035981 2.15373e-20)
(0.995905 -0.00134983 -3.95637e-22)
(0.994806 0.065688 2.04265e-20)
(1.0418 0.0840199 1.22409e-20)
(0.994865 -0.00194484 -2.3836e-21)
(0.995649 -0.00185485 -8.86206e-22)
(1.16693 0.0224738 2.41175e-22)
(0.963417 -0.00809307 -1.09588e-20)
(0.999948 -9.16626e-05 -1.34785e-23)
(0.99265 -0.00307257 3.77003e-21)
(0.965862 -0.0114776 8.01258e-21)
(0.987657 -0.0406831 -1.16539e-21)
(1.00585 -0.00192933 -3.46153e-21)
(1.00451 -0.00364391 2.28978e-22)
(0.999925 -0.000112399 -2.54996e-23)
(1.0409 0.0966042 -5.26047e-20)
(1.00013 -0.00651054 2.12957e-23)
(0.999939 -3.38211e-05 8.32234e-24)
(1.00673 -0.0369472 2.032e-21)
(0.999709 -0.000255601 5.19668e-23)
(0.999872 -4.75003e-05 3.32186e-24)
(1.00299 -0.00760636 -2.48899e-22)
(1.06135 0.0520073 4.08875e-20)
(0.996822 -0.0592226 4.14157e-21)
(0.957396 0.0508221 3.73036e-20)
(1.00004 -8.4906e-06 -1.32865e-23)
(1.06692 0.0547862 -4.26156e-20)
(1.00422 -0.0311868 1.71005e-21)
(0.999956 -0.000108493 -3.85338e-24)
(1.00001 -3.51381e-06 -4.08827e-24)
(1.00314 0.00846141 -3.86597e-21)
(1.05303 0.0439947 1.52216e-20)
(0.997738 -0.00143723 2.44853e-22)
(1.04571 0.0322632 -1.9636e-20)
(1.00002 -1.10911e-05 2.92365e-24)
(1.04776 0.0369557 -2.73099e-20)
(1.03741 -0.107394 5.14863e-21)
(0.994572 -0.00172231 2.61864e-21)
(0.999505 0.0251965 -9.21589e-20)
(0.98484 -0.0252062 6.1706e-21)
(1.17595 0.0531561 1.86936e-20)
(0.985309 -0.00241034 1.63307e-21)
(1.05221 0.0385275 3.5606e-20)
(1.05937 0.0456915 -1.10156e-20)
(0.990827 -0.00456147 6.11455e-21)
(0.988099 -0.00548566 -4.50284e-21)
(0.997011 -0.0056408 1.32435e-21)
(0.998368 -0.000420337 -2.06998e-22)
(0.99989 -0.000111649 5.03413e-23)
(1.00011 -0.00608699 -3.75578e-23)
(1.05184 0.0765882 -6.18189e-21)
(0.999984 -2.03404e-05 1.77353e-24)
(1.04055 0.0315328 2.59959e-20)
(1.00295 -0.0621248 6.26831e-21)
(1.00716 0.0448707 1.77998e-20)
(1.03946 0.0279613 -2.95684e-20)
(0.964639 -0.0107011 -9.92418e-22)
(0.962976 0.0651814 -7.83308e-20)
(0.999094 -0.000667683 1.75215e-23)
(1.00845 -0.0171075 9.42707e-22)
(1.01859 -0.0529867 1.41395e-21)
(0.988416 -0.00129139 -2.54029e-22)
(0.996414 -0.00192623 1.18063e-21)
(1.00274 -0.0317747 -1.55171e-21)
(1.03356 -0.0197133 -6.83242e-22)
(0.924522 0.044824 9.8984e-20)
(1.00003 -1.21805e-05 1.43501e-23)
(0.998938 -0.000717088 2.37027e-22)
(1.00296 -0.0447797 7.1662e-23)
(1.00001 -2.67867e-06 4.9827e-25)
(1.01509 0.0864427 7.34269e-21)
(1.00092 -0.000694235 0)
(1.00001 -4.04918e-06 3.83017e-25)
(1.0001 -4.95987e-05 5.79208e-23)
(1.00025 -5.66668e-05 1.17333e-24)
(0.991364 -0.0110542 4.41365e-21)
(1.01243 -0.0121609 -2.01104e-21)
(0.999138 -0.000495723 3.72077e-22)
(0.999957 -7.91645e-06 1.76818e-23)
(0.996144 -0.00180817 6.54913e-22)
(1.00227 -0.00795297 -1.86452e-22)
(0.98424 -0.0579871 -6.59435e-21)
(0.967583 -0.00364986 7.93847e-22)
(1.01109 -0.00695144 5.92896e-21)
(0.999984 -1.69273e-06 5.48918e-24)
(1.01627 -0.0978239 7.21157e-21)
(0.992803 -0.00209842 -1.50907e-21)
(1.14581 0.0249484 -1.235e-21)
(1.00057 0.0247673 -1.28289e-20)
(1.00066 -0.00218401 8.95224e-23)
(1.12566 0.0240233 -2.26067e-20)
(1.00008 -5.60253e-05 -2.83309e-26)
(0.993153 -0.00239328 4.27879e-23)
(1.01589 0.000285391 -9.68313e-21)
(0.996397 -0.00216461 -4.83719e-22)
(1.06737 0.0655333 -2.42129e-21)
(0.993031 -0.00373239 -2.84376e-21)
(1.02969 -0.0229949 -5.62119e-21)
(1.01738 0.00193173 -1.04306e-20)
(1.05329 0.0211055 -6.03395e-21)
(1.00409 -0.00949382 -9.55692e-22)
(0.994469 -0.00249516 7.04955e-23)
(1.08397 0.0434032 1.83321e-20)
(0.983336 -0.0434215 -6.07572e-21)
(1.00356 0.0854094 6.13986e-20)
(0.995081 -0.0027717 -2.76223e-21)
(1.07808 0.0940425 -4.29677e-22)
(0.995105 -0.00245876 7.38054e-22)
(0.999357 -0.00030233 -2.42659e-23)
(1.04076 0.0156505 6.65163e-21)
(1.00724 -0.0192151 -2.33206e-22)
(1.02435 -0.000571421 1.45835e-20)
(1.00092 -0.000538926 1.22848e-22)
(1.00001 -2.379e-06 1.74795e-25)
(0.987006 -0.0667739 2.38692e-21)
(1.14403 0.082419 -2.84296e-20)
(1.00085 -0.00211664 -1.17488e-22)
(1.13536 0.0187041 2.11203e-21)
(0.993394 -0.00348119 -1.85879e-21)
(1.01179 -0.0972761 -2.31542e-21)
(1.02327 -0.031303 1.12536e-22)
(0.989608 -0.0171373 3.59203e-21)
(0.999061 -0.000594242 -1.56779e-22)
(0.995239 -0.000606155 -5.51899e-22)
(0.982269 -0.036849 -3.841e-21)
(0.984213 -0.00512936 6.24368e-21)
(0.994786 -0.00229345 1.9521e-21)
(0.999918 -0.000258132 2.18961e-23)
(0.9967 0.0913287 -7.5578e-21)
(1.11665 0.018326 1.37128e-20)
(1.01555 -0.00787169 -1.82458e-21)
(0.999891 -8.63889e-05 3.34089e-23)
(1.03845 0.0784955 -2.34946e-20)
(1 -1.35033e-05 7.54316e-25)
(0.999898 -7.45731e-05 6.60358e-23)
(1.10742 0.0224306 1.20654e-20)
(1.00558 -0.0154942 6.14532e-22)
(1.14753 0.0617885 2.28129e-20)
(1.01535 -0.00330848 4.07841e-21)
(1.01034 -0.00860856 -4.20647e-22)
(1.04201 -0.0590954 7.87073e-22)
(1.0061 -0.0779517 5.79916e-21)
(1.16188 -0.0699111 -9.28623e-22)
(1.0007 -0.000522119 -2.67922e-22)
(0.975779 -0.00840159 -6.35578e-22)
(0.99999 -3.28804e-05 -1.21752e-24)
(1.00293 -0.00710523 1.73889e-22)
(1.06969 0.0614346 1.53513e-20)
(0.991277 -0.00428321 4.26794e-21)
(0.998484 -0.000863841 3.29204e-22)
(1.00588 -0.0253387 -7.79812e-22)
(0.998935 -0.000636402 2.23963e-23)
(0.99978 -0.000633432 6.83086e-23)
(0.918526 0.0100678 1.7475e-20)
(0.9948 -0.00299003 -1.56456e-21)
(0.999734 -0.000440187 -2.04563e-22)
(0.999989 -1.15754e-06 -1.17014e-24)
(1.01329 0.00395757 2.06551e-20)
(0.984928 -0.0139634 -9.46305e-22)
(0.999819 -0.000332959 5.97205e-23)
(0.998486 -0.000500254 4.22673e-22)
(1.01921 0.0138383 8.40976e-21)
(1.05057 -0.00369144 1.52008e-21)
(0.979562 -0.0121933 -5.31057e-21)
(1 -8.27829e-06 2.58749e-25)
(1.00212 0.0133075 5.55324e-20)
(0.992416 -0.00974546 -3.03939e-21)
(1.06955 0.042835 -2.99399e-20)
(1.00773 -0.00111501 -5.23763e-21)
(1.00893 -0.000857554 1.19309e-20)
(0.983299 -0.00631116 8.50889e-21)
(0.999947 -3.87178e-05 -5.4418e-24)
(1.01639 -0.000383583 -1.90513e-21)
(1.05201 -0.00735254 -2.12793e-21)
(1.15436 -0.0444875 5.52791e-21)
(1.00684 -0.0611466 1.2525e-21)
(1.04701 0.0716047 1.8493e-20)
(1.00364 -0.000944456 -8.11289e-23)
(1.09192 0.0445364 -2.51741e-20)
(0.99991 -0.00875683 -2.3253e-22)
(1.00515 -0.0350493 -4.09776e-21)
(0.999788 -9.64384e-05 -6.56108e-23)
(1.00131 -0.0116114 1.95578e-22)
(0.999941 -0.000256418 8.02251e-24)
(1.03902 0.019249 -1.96972e-20)
(1.10316 0.0983921 -5.40331e-20)
(0.999183 -0.000708238 1.25135e-22)
(1.01062 -0.00864355 1.24137e-22)
(0.99058 -0.00259303 1.46456e-21)
(1.01167 -0.0561732 4.60159e-22)
(1.00787 -0.0574131 -3.14956e-21)
(0.999016 -0.000501688 2.48481e-22)
(1.02515 -0.02226 -2.30109e-21)
(0.928124 0.0023309 -2.95914e-20)
(1.1365 -0.0513044 4.09117e-21)
(0.999969 -9.44451e-05 1.84778e-23)
(1.04592 -0.00432621 -5.51625e-21)
(0.998288 -0.00525515 -6.3374e-22)
(0.991292 0.00283421 6.35169e-20)
(0.993427 -0.00306556 2.58824e-21)
(0.99697 -0.0155841 -7.4212e-22)
(1.0078 -0.0230292 -1.0277e-22)
(0.995855 -0.0160194 -1.12294e-22)
(0.998544 -0.012817 -1.61975e-21)
(0.995902 -0.0019783 4.49998e-22)
(0.999498 -0.00862397 8.9988e-22)
(1.00107 -0.00388069 -1.37234e-22)
(1.03355 -0.0228262 1.53512e-21)
(1.00006 -2.06804e-05 -3.72874e-23)
(1.0642 -0.11467 -2.12495e-21)
(1.09867 -0.0608586 7.02231e-22)
(1.02796 0.0951054 4.30279e-20)
(0.980524 -0.0115871 8.09182e-21)
(1.13379 0.0619469 -1.17155e-20)
(1.0011 -0.000436548 4.33157e-22)
(1.02667 -0.0563581 -8.54419e-23)
(1.00056 -0.0229399 -1.60998e-21)
(1.01877 0.0263983 2.40854e-20)
(0.996176 -0.00234908 1.11983e-21)
(1.00006 -0.000106646 2.45059e-23)
(0.992702 -0.0101134 3.96741e-21)
(0.9975 -0.00557068 -5.01838e-22)
(1.02408 -0.0210499 4.72339e-21)
(0.984975 -0.00391165 -5.27173e-21)
(0.987501 -0.00511132 1.48468e-21)
(1.06903 -0.0574948 7.89379e-22)
(0.992056 -0.00165457 -2.52496e-21)
(1.0062 -0.0237271 4.22386e-22)
(0.987727 -0.0430826 4.31437e-21)
(1.00001 -4.08771e-06 3.08488e-25)
(1.03562 -0.0181551 8.45243e-21)
(0.989756 -0.0393863 -1.17805e-20)
(1.1317 0.041758 1.07461e-20)
(1.03966 -0.0628494 -1.80432e-21)
(1.02284 -0.000755846 1.22788e-21)
(1.00056 -0.0589705 -8.37246e-21)
(1.05336 0.103627 1.15673e-20)
(1.01784 -0.0258733 1.77752e-21)
(0.982606 -0.00582103 -5.03428e-21)
(1.00483 -0.0292102 -1.86855e-21)
(0.962256 0.00414019 2.83526e-20)
(1.05093 -0.0993141 9.39832e-22)
(0.993056 -0.002837 -7.86712e-22)
(0.996012 -0.0703364 -6.35006e-22)
(1.00755 -0.0415436 2.60113e-21)
(1.00432 -0.069437 -1.12885e-21)
(1.01216 -0.0525291 -2.99029e-21)
(1.08051 0.0374734 2.33243e-20)
(0.998484 -0.000973922 2.18603e-23)
(1.00647 0.0322441 8.99483e-21)
(1.00465 -0.000894794 6.19741e-22)
(0.999779 -0.000328669 -8.57434e-23)
(0.999286 -0.00142242 6.06194e-22)
(1.04019 -0.0071333 -2.04018e-21)
(0.887641 0.00352011 8.44398e-22)
(1.00085 -0.00403858 7.72122e-23)
(1.00586 -0.0329256 5.99945e-22)
(1.01945 0.0152096 -1.39734e-20)
(1.00001 -4.64973e-06 -7.26005e-25)
(0.988662 -0.00517452 3.59375e-21)
(1.01359 -0.00690068 4.26625e-21)
(1.03926 -0.0393814 2.78656e-21)
(1.00465 -0.000686753 3.47786e-21)
(0.99909 -0.00114718 1.12318e-22)
(0.989631 -0.0218593 1.36802e-22)
(0.998657 -0.00512479 -1.71045e-22)
(1.00002 -2.87943e-06 7.83908e-24)
(0.986013 -0.0249078 -1.03836e-20)
(1.05536 0.0630488 -6.477e-21)
(1.00959 -0.0209042 3.06416e-22)
(0.99099 -0.00293206 -2.75059e-21)
(1.00103 -0.000196324 -1.56058e-22)
(1.02227 0.017565 1.84244e-20)
(0.99979 -0.000374544 -3.96261e-23)
(0.999308 -0.000392054 -1.24994e-23)
(0.999806 -0.000108756 -5.99342e-23)
(0.99957 -0.00130339 -1.51576e-22)
(1.14761 -0.0318085 5.76245e-21)
(1.01431 -0.0255168 2.39939e-21)
(1.0042 -0.0117331 3.39844e-22)
(0.990342 -0.00426631 -1.25766e-21)
(1.00002 -3.14313e-05 7.58768e-24)
(1.01507 -0.0802151 7.46946e-21)
(1.11313 -0.0976993 2.07577e-22)
(1.01444 -0.0857885 -3.56827e-21)
(0.996847 -0.0196761 -1.38298e-21)
(1.00794 -0.00598523 3.94457e-21)
(0.999886 -5.91008e-05 2.75572e-23)
(0.993542 -0.00675419 -1.57337e-21)
(0.976788 -0.0240336 -6.24061e-21)
(1.13201 -0.0408541 8.64009e-22)
(1.005 0.0442584 -6.15713e-22)
(0.999348 -0.00196483 1.21863e-22)
(0.970915 -0.0164374 3.61399e-21)
(0.997401 -0.00169822 -1.06687e-21)
(1.01722 -0.0240461 -3.72357e-22)
(1.09105 0.0283422 2.34721e-21)
(1.00026 -8.37487e-05 -1.29983e-22)
(0.999918 -0.000122184 -1.01791e-23)
(1.17103 0.0307045 2.06363e-21)
(1.11493 -0.0489383 -4.76526e-22)
(1.01143 -0.0106779 1.44908e-21)
(0.998395 -0.00107576 5.62298e-22)
(0.998873 -0.000244742 -5.57412e-23)
(0.980013 -0.0248452 1.52151e-21)
(0.999906 -0.000216093 -3.36912e-23)
(1.00802 -0.0216082 7.11269e-22)
(0.992783 -0.000848501 5.27392e-21)
(1.00076 0.0257675 -1.06576e-20)
(1.06158 0.0669657 -3.33758e-21)
(1.02584 -0.0521637 7.33594e-22)
(0.991558 -0.040106 4.39432e-21)
(1.00357 -0.0010281 1.72991e-21)
(1.00727 -0.0161012 -1.39192e-21)
(1.09928 -0.0511002 4.11556e-21)
(0.990129 -0.0439987 -2.66478e-21)
(1.00669 -0.0285726 1.02886e-21)
(0.999999 -3.80881e-06 1.46355e-25)
(1.08323 -0.0521181 2.21795e-21)
(0.986047 -0.00165085 4.90082e-22)
(0.988437 -0.0482312 5.35828e-21)
(1.00959 -0.0194295 -2.22387e-21)
(0.976828 -0.00799846 -1.1317e-21)
(0.999787 -0.000195718 -2.93107e-23)
(0.998349 -0.000811485 -2.50449e-22)
(1.03537 0.0269924 2.28226e-20)
(0.984109 -0.00595318 -1.91545e-21)