/*--------------------------------*- C++ -*----------------------------------*\
  =========                 |
  \\      /  F ield         | OpenFOAM: The Open Source CFD Toolbox
   \\    /   O peration     | Website:  https://openfoam.org
    \\  /    A nd           | Version:  7
     \\/     M anipulation  |
\*---------------------------------------------------------------------------*/
FoamFile
{
    version     2.0;
    format      ascii;
    class       volScalarField;
    location    "7";
    object      p;
}
// * * * * * * * * * * * * * * * * * * * * * * * * * * * * * * * * * * * * * //

dimensions      [0 2 -2 0 0 0 0];

internalField   nonuniform List<scalar> 
7807
(
0.523375
0.0162647
0.659647
0.44551
-0.00226003
-7.92351e-05
0.644661
-0.0133503
-0.000311495
0.192018
-7.72588e-05
0.00501141
-0.020254
0.0963529
0.199105
-0.0327319
0.537736
-0.0271733
-0.000301601
-0.168918
0.133562
0.00313002
0.0700701
0.348512
-0.0359478
0.532674
-0.00209159
0.118638
0.296064
0.00333073
-0.0443769
0.85946
0.0692322
-0.00114631
-0.000208245
0.157672
0.00388748
0.627091
-0.0143435
-0.000663928
-0.013401
-0.0315477
-0.160692
-0.00370871
-0.000383595
-0.000170644
0.00311547
-0.0141403
-0.000151871
-0.16548
0.007793
0.112413
-0.0459726
-0.0131808
0.156688
-0.0123653
0.000219509
-0.0132326
-0.067371
-0.00117114
3.06489e-05
0.0102681
0.0964973
0.00559645
-0.00206755
-0.0437892
-0.000273425
1.95939e-06
0.254858
-0.013119
-0.000158852
-0.128043
-0.0349725
-0.0608779
-0.0264205
-0.0984775
0.652951
0.130214
0.144535
-0.137937
-0.0196301
0.565287
0.192497
-0.0658677
-0.00424387
-0.0050971
-0.0146945
-0.0448751
-0.00189649
-0.0103385
0.303025
0.00764876
-0.000282408
0.000468777
-0.00851415
-0.0593041
-0.123054
-0.00716513
-0.00454855
-0.002516
-0.112639
0.15867
-0.00820241
-4.22319e-05
0.0297766
0.318406
0.744739
-0.0129601
-2.33568e-06
0.0648881
0.424472
-0.0966831
-4.58687e-06
0.0693616
0.317083
0.000716777
-0.097598
0.258939
-0.0914735
-0.0628543
-0.113621
0.542283
-0.151693
0.0236439
-0.111062
-0.0026847
-0.0381222
0.00228335
-0.00216574
-0.0433014
-0.0546416
0.141654
-0.00147068
-0.00216491
-0.0676006
0.410324
0.636582
-3.73768e-05
0.018613
-0.146583
-0.0565358
-0.110895
-0.100118
-0.0581253
0.74745
-0.0457257
0.299425
-0.0668087
-0.0800662
0.541385
0.149985
0.0133801
-0.004095
0.225503
0.191198
0.595379
-0.113188
-0.0197733
0.751255
-0.000137522
-0.00128926
0.359044
-5.21208e-05
-0.00686123
-0.00958522
0.434007
0.434997
0.776843
-0.00750396
-0.00701749
1.58301e-06
-0.111161
0.00070465
0.0282187
0.0202665
-0.0787854
0.0602844
0.327185
-0.000288521
-0.00128013
0.45613
-0.000131792
-0.000219605
0.652335
0.00806193
-0.0858236
-0.0861943
-0.0580479
-0.0528687
-0.14407
-5.42004e-05
-0.117473
0.341877
-0.00845042
7.27878e-05
0.389282
-0.00286792
-0.0405769
-0.0517308
3.38249e-06
0.00157382
0.416146
0.384905
0.589463
-0.0862735
-0.0852977
-0.152492
0.129314
0.406879
-0.000404262
2.55196e-05
0.703786
-0.0282472
-0.00150472
-0.112655
-0.0399753
0.552312
0.558158
-0.118982
0.832357
-0.00267921
-0.0265153
-0.114616
0.158968
-0.198353
0.47921
0.74497
3.24131e-05
0.0252284
0.273967
-0.0128816
0.254476
-0.00173082
0.830384
0.581211
-0.0144011
0.0044456
-0.00062256
0.354293
-0.000195837
-0.0204004
-0.145621
-0.000163869
-0.00432992
-0.0014631
0.313781
-5.70671e-05
-0.0107244
-0.133901
0.850067
0.126565
0.786121
-9.5835e-05
-0.0570261
-0.000531788
0.616513
0.00989509
0.63974
0.000456027
0.00120134
0.0112421
0.134816
0.00108755
-0.000468377
0.000931223
-0.0135591
-0.0833737
-9.14678e-05
-0.108965
-0.00921769
-0.000304766
-0.00163042
0.624296
-0.0190968
-0.0016299
0.78279
-0.00460464
0.479567
-0.000563861
-0.00466223
4.2654e-06
-0.0800952
0.152431
0.0795654
-0.0684296
-0.00113562
-0.148576
-0.0394505
-0.000364928
0.000893953
-0.00680317
-0.0188032
0.00690749
-0.00362713
-0.0626685
-0.0729086
-0.0610163
0.0169721
-0.0775946
0.597482
0.615051
-0.00376119
0.0469827
-1.74618e-05
-0.00754641
-0.0605752
0.339805
0.214283
0.000111956
-0.00691359
-0.0759568
0.316324
-0.00280533
0.00866109
0.0025536
0.167396
-0.0801875
0.598922
-0.00375931
0.0177006
-0.00026632
0.00861766
-0.000118266
-0.0549279
-0.000721177
0.00649491
0.017807
-0.0872216
-0.000859275
0.022133
-0.00159218
0.0561887
-0.0267165
0.177242
0.314688
-0.182872
-0.0217336
-0.0405004
0.0125481
-0.140813
0.791506
-0.0166828
0.0868236
0.819878
-0.00358967
-0.00447204
-0.00691014
-0.003376
-0.0384794
0.0162838
-0.00665817
-0.00490059
0.290575
-0.000219132
0.00103322
8.32834e-05
-0.00828658
-0.0224173
-2.03048e-05
-0.00253821
-0.0642722
0.711565
0.000868443
-0.027485
0.703482
0.486082
0.150166
0.0654684
-0.11371
0.0117747
0.422653
-0.0286152
0.523406
-0.0606573
-0.162493
0.384168
0.531273
-0.101699
0.202847
0.481554
0.493658
0.12727
-0.0080526
-0.0114988
-0.000196455
0.00266873
-0.0290905
0.00177203
-0.000230421
-0.0039922
-0.149465
0.219631
-0.0461286
-0.0112811
-0.00937951
0.0099373
-0.0180606
0.00227441
0.43992
-0.00446868
-8.01755e-05
-0.000209353
1.19371e-05
-0.0565396
0.282357
-0.00986302
0.0788181
-0.20595
0.613732
0.00631807
0.0165874
-0.0139817
0.607339
-0.00236618
0.598063
0.304978
-0.000251694
-0.0656456
-0.0081171
-0.107094
0.00107726
0.162528
0.00411439
0.0153613
-0.00191174
0.293436
0.318795
-0.096587
-0.0656049
-0.00721177
-0.0548215
0.213211
0.848481
-0.0672484
0.00975199
-3.99084e-06
-0.0358796
-0.00536663
0.0504687
-0.173907
0.0222269
0.642726
0.297229
-0.129649
0.407714
0.593794
0.0767424
0.00237356
0.450868
-0.00295853
-0.00045775
-0.0435076
9.95016e-05
-0.168584
-0.00671197
-0.0745202
0.0042571
0.391955
-0.00425759
-7.8087e-05
-0.176143
0.00379693
0.109669
-0.107956
-0.142543
0.131945
0.275544
0.227482
0.233293
-0.000430643
0.208895
0.191574
-0.00144259
-0.044842
0.0011659
0.0105034
-0.0152039
0.0117306
-0.00234861
0.337643
-5.84273e-05
0.000291303
0.00444068
-0.0550469
0.0563796
-0.0687697
-0.0669291
-0.0797932
-0.206768
0.0166703
0.441107
0.0401836
-0.0177389
0.833342
-0.121797
-0.0236279
-0.0654706
-0.022928
-0.0507605
-0.0272276
0.0786991
-0.0262814
-8.54884e-05
0.0684116
-0.000213843
0.587228
0.2718
-0.0126837
-0.0344433
-0.000405168
0.565253
0.559762
0.180593
0.379479
-0.128242
0.648616
-0.000202986
0.0550905
-0.0448309
0.333302
0.762575
0.191054
0.281608
-0.00916274
-0.000454513
0.345495
-0.0285876
0.58901
0.110151
0.388435
-0.0183894
0.619475
0.536745
-0.0239717
-0.020265
0.303559
-0.145942
-0.000252608
-0.0347293
-0.144326
-0.135804
0.0291538
0.0230409
-0.000345521
0.56816
-0.00657876
-0.000242881
-0.0628094
-0.00123778
-0.000486164
0.00550727
0.41382
-0.158825
0.722697
6.49358e-05
0.413977
-0.0535989
-0.000251772
1.17879e-05
0.292864
0.393235
-0.0109113
0.354205
1.61548e-05
0.373298
-0.181944
-0.0247641
0.613542
-0.107526
0.360413
-0.0627207
0.373783
0.393246
-0.0443156
-0.0564862
-0.0193114
-0.00681119
-0.00050615
-0.00670971
0.498865
-8.18658e-05
0.35522
-0.148322
0.52905
0.338326
-0.146797
0.71858
-0.00412813
0.0074976
-0.0759031
-0.0498827
-0.0173993
-0.0606517
0.0877238
0.796327
3.85315e-05
-0.00486095
-0.0976961
1.72313e-06
0.599649
0.0039135
-2.03615e-07
0.000280735
0.000641292
-0.0524276
0.0491576
-0.00380844
-0.000187402
-0.0182103
0.00279093
-0.19367
-0.128037
0.0572686
-4.73373e-05
-0.209138
-0.0328129
0.305928
0.512254
0.00171891
0.303457
0.000199088
-0.0318224
0.174103
-0.0177108
0.447901
-0.034097
0.063615
0.180808
0.295455
0.00719024
-0.0262936
0.365628
-0.157412
0.629933
-0.0241326
0.504429
-0.0236677
-0.00272467
0.268093
-0.0042196
0.17571
0.00410976
3.20838e-07
-0.20894
0.427759
0.00240089
0.29179
-0.0321803
-0.219069
0.0131266
-0.0718233
-0.00413366
-0.0201113
-0.143923
-0.0708155
-0.024645
-0.000512558
0.659203
0.288696
0.0783659
-0.000462754
0.528855
-1.76053e-05
-0.000421908
0.298845
-0.00362121
0.384576
0.117158
0.0428284
-0.0361162
-0.185842
0.1204
0.00263521
-0.106055
-7.93738e-05
0.00636575
0.431996
-0.0420109
-0.00704972
-0.0298434
-0.00484284
-0.00134965
0.780432
-0.0256596
-0.00148767
-1.17387e-05
0.248783
-0.0831654
-0.000913428
-0.00656635
0.287881
0.185931
-0.0995019
-1.37643e-05
0.310813
-0.0467809
0.372796
0.0420623
0.0524229
-0.076146
-0.000222105
0.176423
0.173168
0.164351
-0.133703
0.493053
0.0144586
0.362589
-0.0120969
-0.0623081
-0.000858686
-0.0102997
-0.000417637
0.301188
0.48779
-0.00378776
0.0486007
-0.042492
-0.105259
-0.120716
-0.00446929
0.0499376
0.760908
0.128955
-0.000195418
0.180974
-0.0128581
0.664665
-0.0315171
-0.0387757
-0.0141979
-0.0433759
-0.0247894
-0.0195095
-0.0141468
0.00159663
0.0751117
0.000122048
-0.134323
0.0619782
0.590554
-0.0951146
0.389114
0.00437258
-0.0644839
-0.0428896
0.360179
-0.0189099
8.7489e-05
-0.0461556
-0.0171175
0.0549511
-0.0660318
-0.0582036
0.0255368
-0.0351258
-0.0231178
-0.142643
-1.24132e-06
0.104613
-0.126085
0.345946
-0.0536324
0.174018
-0.145796
0.561686
0.0122794
-0.0779441
-0.0455693
0.691747
-0.121311
-0.0326702
-0.191314
-0.0733826
-0.165339
-0.093209
0.347446
-0.00714397
0.412719
0.0211701
-0.00103847
-0.00364507
0.15848
0.840051
0.000311671
-0.0536305
0.301316
1.52829e-05
-0.0537578
0.071301
0.0225313
0.0214735
-0.00449326
-0.0825308
-0.010767
2.19336e-05
-0.102628
0.454492
0.000227152
-0.0413292
0.0039907
0.301983
-0.00107693
-0.00299196
-0.000800499
-0.00264142
0.184377
0.00216669
0.0019968
-0.045857
2.99422e-05
-0.165274
-0.00154539
-0.184552
-0.0485375
0.0359884
-0.000464477
-0.0356694
-0.13306
0.148658
0.530097
-0.0042639
-0.137371
-0.0125954
0.017399
0.317191
0.000726148
-0.000417441
0.321469
0.115314
0.0360723
-0.00770539
-0.00479132
-0.123453
-0.00053415
-0.00807353
-0.0309456
0.461644
0.460165
-0.0542582
-0.121526
0.017361
0.00458474
0.0849836
-0.137381
-0.0367155
-8.43445e-06
0.0634206
-0.0591124
-0.15252
0.00550949
-0.10201
-0.000945873
-0.0074607
0.339399
-0.0725975
-1.00599e-05
-0.00650256
-0.0957965
-0.000349948
-0.0443192
-0.000172856
0.0058525
-0.186727
-0.0588122
-0.000121469
2.34027e-05
0.217692
-0.100553
0.56598
0.485294
0.0460294
-0.00217409
-0.0379061
0.000312647
-0.0768055
-0.148363
0.0934139
-0.0411189
0.485946
0.0161007
0.000312065
0.00887866
-0.159263
0.004139
-0.052429
-0.128877
-0.00222477
0.0396401
0.126631
0.0152575
-0.0605682
-0.0844835
0.312803
-0.0610452
-1.70592e-06
-0.164343
-0.132154
-0.070003
0.00533626
0.00138142
0.0141629
-0.183442
0.0617107
-0.0646016
0.283816
-0.0784408
0.0100524
0.0340108
0.0284563
-0.0673218
-0.0980915
-0.000392171
0.246068
0.339449
0.013454
0.431087
-0.132566
0.0866808
-0.100237
0.328533
0.178797
0.797587
-1.89816e-06
0.192917
0.304659
0.0264147
-0.00277834
-0.0321623
0.0423633
2.10653e-05
-0.0354688
-0.107558
-0.035692
-0.0424745
0.000153272
-0.0485999
-0.000849391
-0.00142444
0.378557
0.00870375
0.23553
0.0365849
0.332801
0.0171006
-0.00110154
-0.120939
0.0113049
0.547885
0.00185271
-0.11251
-0.000624459
-0.000947382
0.00849269
-0.086977
-8.65155e-05
-0.0184874
0.0540969
-0.00311569
1.92911e-05
-0.000151197
0.252284
-0.0200748
0.00998068
-0.00183734
0.0132923
0.0280004
0.0126849
-0.000714551
0.586781
-0.0969065
0.354986
0.519119
-0.000338934
0.215662
0.214012
-0.00139564
-0.00057557
-0.00125226
0.03306
0.0273509
-0.0312043
-0.0484382
-0.142805
0.285998
-0.145207
5.19204e-06
-0.0382694
-0.0414965
-0.0678416
-0.00734523
0.00840701
0.00180087
0.0512067
-0.000827272
-0.000663051
-0.0357132
-0.00821095
-0.0494013
-2.67202e-05
-0.0290232
0.062877
-0.00832877
-0.036759
-0.0162211
-0.022216
-0.016641
-0.00952425
0.0122923
-0.016708
-0.000199895
-0.000912242
0.0414745
-0.0224476
-0.00934422
0.0130555
0.000176279
-0.223407
-0.0215401
0.258499
-0.0224663
-0.115028
-0.0561601
-0.0451663
-0.029722
-0.00675853
0.00252751
-0.00653776
-0.0246951
-0.0299168
0.335931
0.273338
0.100978
0.51267
-0.000126912
-0.00838637
-0.0297404
-0.015639
0.208288
-0.0389731
0.103947
-0.0104561
0.373971
-0.0037473
-0.0032879
0.030998
-0.0445275
-0.000448953
-0.0519211
-0.0106683
-0.0392045
-4.45648e-05
-0.011916
0.00292625
-0.0346659
0.0678265
0.0648627
0.0338055
-0.0268453
-0.0626267
0.197404
-0.00276072
-0.00347407
-0.0036272
0.704004
-0.000311976
0.142598
-0.0390763
-0.0404199
-0.048355
-0.0932505
-0.0538996
-0.0676213
-0.0376772
-0.00893887
-0.000183272
-0.0076046
-0.0393345
0.174415
0.00250691
0.330099
-0.0656783
-0.0260259
-0.00146395
-0.0577261
-0.000185226
0.246774
-0.0606471
-0.0519937
-0.0475987
-0.0102072
-0.0706012
-0.00280403
-0.081623
0.176718
-0.0499761
-0.156667
-0.00244821
-0.0524501
-0.0366623
0.026849
-0.00615508
0.236659
-0.00410606
-0.0339664
-0.00137971
0.263456
-0.0779254
-0.0500455
-0.00550539
-0.0191233
-0.00524538
0.350902
0.0367918
0.413743
-0.0113053
-0.00174429
-0.00211581
-0.00444056
0.371223
-0.128789
-0.0137103
0.00037054
-0.0210629
-0.0289627
-0.00217003
-0.0370023
-0.0307832
0.103099
-0.00913309
0.00292043
0.661563
-0.129523
-0.0527582
-0.121293
1.6364e-05
0.134475
-0.00641852
-0.0498249
-0.0110658
-0.0707908
0.00517237
-0.000992898
-0.00497148
0.00507766
0.320874
-0.010369
-0.00324464
-0.00883867
-0.118972
-0.0158793
-0.0408878
0.00564105
-0.0161764
-0.0161001
-0.00611691
0.331633
-0.093446
0.0049594
-0.00732153
-0.0524147
-0.0249669
-0.099765
-0.00290808
0.162382
0.0406995
-0.0154089
-0.0033895
-0.0276353
0.73542
0.323138
-0.0216633
-0.000930905
-0.00446689
0.00253031
-0.00774529
0.0366725
-0.000838421
-0.0412574
-0.00342003
-0.0315912
-0.0071695
-0.0023848
-0.0283727
-0.00234515
0.489354
-0.0136415
-0.0217653
0.00684168
-0.0031846
-0.056466
0.209553
0.658716
-0.0212136
-0.022933
-0.00354978
-0.00106478
-2.14566e-05
-9.09079e-06
-0.0198967
-0.00120475
0.244475
-0.00149732
-0.00323433
0.0125915
-0.000421303
-0.0895281
-0.127234
0.0303724
0.0716679
0.0471606
0.175627
-0.0825689
0.159529
0.123149
0.166761
0.207548
-0.0239848
-0.00162375
-0.0141219
-0.142488
-0.00611619
-0.028962
0.141061
0.554451
-0.112012
-0.00081031
-0.000115198
-0.00238869
-1.55307e-05
0.0120137
-0.00117235
-0.0113165
-0.0956749
0.000658952
0.00394127
-0.0003754
0.135075
-0.0289906
-0.0560851
-0.00277063
0.488379
0.505331
-0.0203797
-0.134459
-0.0538976
-0.0449001
-0.0285244
-0.00348992
-0.160982
-0.0738453
-0.0911862
-0.0209371
-0.000177637
0.335089
-0.0358953
-0.0176263
-0.0681889
0.03248
-0.000946328
-0.0167206
-0.00230268
0.0199719
-0.00366336
0.323344
0.000389411
0.0171397
-0.000642077
-0.0813664
0.0149235
-0.00204018
0.018387
0.000387774
0.111092
0.218382
-0.00308319
-0.00257059
-0.000221325
-0.00102521
-0.000871696
-0.124056
0.211383
0.0864972
-0.000413471
0.0130059
-0.000879161
0.360343
-0.124295
0.432067
-0.0872766
-0.000728236
-0.000662575
-0.0146879
-0.0102357
-0.00138564
-3.09028e-05
0.0445042
0.05203
-0.000381634
-0.000810329
-0.038031
-3.65549e-05
0.276348
-0.00185112
-0.106605
-0.0375703
-0.0114705
-0.113789
-0.130671
0.250854
-0.0436568
-0.0380756
-0.000511876
-0.113665
-0.0378201
0.066266
0.251066
0.54382
-0.00190028
-0.121413
0.0195313
0.5075
0.0716432
-0.000202948
-0.0118846
-0.00727307
-0.00958657
-0.0851409
0.170749
7.02195e-05
0.0332083
0.00323404
0.156468
-0.000876293
-0.000313309
-0.0842921
0.471015
-0.109074
0.275698
-0.00327347
-0.000345028
-4.85884e-06
-0.149446
-0.0736457
-0.000725483
0.20839
0.0191613
-0.0101854
0.59406
-0.00102102
-0.00757418
-0.123724
-0.0515096
-0.0038892
0.226516
-0.119414
-0.000257781
0.0187401
-0.000411549
-0.000194521
0.250161
-0.00383028
-0.000704821
-0.0978048
-0.0484015
-0.00591083
-0.0594672
0.00358087
-0.0418416
0.00220707
-0.00664054
-0.13258
-0.0759104
0.0355179
-0.00184498
0.271754
0.333232
-0.142477
0.0141496
0.0332558
-0.00833527
0.273268
0.205401
-0.0518996
-0.000286656
0.0150494
-0.102211
0.0177459
-0.0586555
-0.00404648
0.0883802
-0.055752
-0.000218596
-0.000161998
-0.0676487
-0.058872
-0.04858
0.0149543
0.0508085
-0.0921071
-0.000346007
-0.00299444
-0.00044866
-0.0772594
-4.43178e-05
-0.00350623
-0.0955327
-0.180452
0.262619
-0.0056679
0.00660911
-0.044458
-0.0487301
-0.000236764
-0.0824882
0.266178
0.260096
1.06767e-05
-0.000183348
0.264493
-0.00478894
-0.173068
-0.071064
0.00523714
0.000306711
-0.131109
-0.0286829
0.270465
-0.10454
-0.00254895
-0.0253713
-0.114987
-0.00106867
-0.000377228
-0.00176071
0.00552681
-0.0991254
0.29232
-0.000347607
0.691157
0.0398617
4.44866e-05
-0.00233587
0.000169383
0.000211112
-3.70892e-05
8.27461e-05
-0.100228
-0.00148832
0.000488541
-0.000316307
0.235425
-0.0105167
-0.000318222
-0.000125402
0.590455
-0.0433558
-0.0275149
0.00130875
-0.00129885
0.11532
-0.000201676
-0.0325092
-0.127421
0.00327162
-0.015755
-0.000169437
-0.000362021
-0.0634005
-0.129605
0.0120463
-0.137668
-0.0942686
-4.84159e-05
0.0378199
0.0587091
0.187363
-0.00295824
-0.000265446
-0.116323
-0.0112582
-0.00115495
-0.0952057
-0.000241422
0.077536
-0.000292272
-0.00206574
0.0951482
-0.00530584
-0.11596
0.666941
-0.00339088
0.000278992
-0.119499
-0.121228
0.0142587
0.00751345
-0.000239838
-0.0610601
-0.000171562
0.317286
0.787922
0.184478
0.00468463
0.00550987
-4.36181e-05
-0.0579821
-0.000138829
-0.0201106
-0.00318255
0.00033066
-0.00583755
-0.0223799
-0.000201246
0.00108231
-0.0216346
-0.000515005
-0.022163
-0.0330762
-0.0193959
-0.00284185
0.719579
-0.0017808
0.00370089
0.000231829
0.0239989
-0.0939476
0.0161825
-0.000311039
-0.000168825
0.00327775
-0.000210974
-9.7079e-05
-0.0266577
0.000863565
-4.33182e-05
-0.102259
-0.00571495
-0.104011
-0.00298631
-0.000114814
-0.00528749
-0.0238111
-0.0328213
-0.056135
0.0034688
0.000542607
-0.0008431
-0.0031896
-0.000174996
0.441648
0.00222484
-3.87912e-05
0.00050036
-0.00395672
-0.000875991
-0.119333
-0.104723
-0.000340317
-0.0135614
-5.64677e-06
-0.00697938
-0.000128175
0.0639911
-0.00025675
-0.0004457
-0.00887361
-6.77119e-05
0.0233508
-0.000397563
-0.00218517
0.0331769
-8.99387e-06
0.57554
-0.109086
-0.0834698
-6.10163e-05
-3.74698e-05
0.00257963
-0.00198358
-0.110722
-3.29749e-05
-1.43132e-05
0.000876208
-5.31471e-06
0.000409813
0.00051567
-0.000797572
0.000996333
-0.101106
0.702276
-0.0776406
0.538329
0.0152697
-0.0382501
-3.88313e-05
-0.00137524
-0.0246627
9.44697e-05
0.000289617
0.000144897
0.153469
-0.00352207
-0.000547946
0.660451
-0.000770399
0.000550597
0.000590263
-9.17612e-06
0.174037
-0.00424049
0.00152741
7.39705e-05
-0.00159957
-0.000111118
-0.00262627
-0.0891965
-0.000675254
-0.0043051
-2.58189e-06
-0.00353578
-0.000381806
0.310983
-0.000741263
-0.000804628
-0.125781
0.00584871
-0.000253295
-0.0023763
-9.91776e-05
0.287175
-0.1488
-0.000971313
-0.000605456
-0.00534079
-0.000491346
0.106536
0.212337
0.0920317
0.000399361
-1.24378e-05
-2.21547e-06
0.116314
0.000250045
-0.108224
-0.0577746
-0.0337163
0.0896477
0.734604
0.00289072
0.355031
-0.031547
-0.0595729
0.29169
-0.000536187
-0.132117
-2.82108e-05
-0.0179898
-0.088177
3.32987e-05
-0.111077
-0.00153255
-0.0181419
-0.0135263
-0.0763265
-0.0836286
-0.00848316
-0.130588
-0.0792393
-0.000262707
-0.0209483
-0.000160358
-0.0670327
-4.59327e-05
-0.000271178
0.0372222
0.277456
-1.06561e-06
-0.093124
0.00535104
4.60218e-05
-0.0473852
-8.44385e-06
-0.0233861
-0.000572547
-0.0688002
9.46498e-05
-0.000164133
-0.00466988
-0.000224782
0.271461
-0.0617849
0.175949
-0.00010316
0.00076426
-0.056941
-2.15035e-06
-0.116456
-0.130868
-0.106684
0.700468
-0.0128031
-3.22005e-05
0.0465062
-0.0755474
-0.00659002
-0.000137472
-0.000153429
-0.0932436
8.08678e-05
0.00112567
-2.9105e-06
0.000105265
-0.0495715
0.293829
-0.117475
0.187546
-0.0103468
-2.40915e-06
0.00870519
-0.115872
-3.26285e-05
-2.8084e-05
0.000339956
4.19935e-05
0.000454616
0.458357
0.0647853
3.57073e-05
-6.03566e-06
-0.128537
0.335476
0.306527
-6.38774e-05
-0.0724563
-0.0438041
-0.0240205
-0.09233
-0.0200361
-0.00525651
0.243189
-0.000109415
-0.0529875
0.287759
-0.0998378
-7.8785e-05
-0.11706
-0.000290319
0.529885
0.0510328
-9.0674e-05
-6.68784e-05
0.324075
-1.02671e-06
-0.000322669
-0.0205857
-1.82333e-05
0.431535
0.00374127
-0.0127415
-0.121573
-0.00715085
-0.166613
0.310603
-0.0308038
-0.0265878
0.0012903
-5.21069e-05
-0.00218917
-5.99927e-05
-5.29129e-05
0.0477084
0.30412
0.257058
-0.000811079
0.39542
-0.0296762
-9.16848e-06
-0.0837701
-7.48027e-05
-0.0567161
0.0533595
-0.0329955
0.00631174
0.00266361
-0.0159529
0.0001342
-0.00312977
0.0344242
-0.00460693
-0.000134182
1.24527e-05
-0.000105098
0.0569929
2.30097e-05
-0.0516848
0.41563
-0.0124696
3.16464e-05
-0.00597714
-5.09027e-05
0.208903
-0.000496004
-0.000116248
-0.000122535
-3.24331e-05
0.347916
-0.000319518
0.414209
-0.136616
6.4069e-05
-0.11128
-0.00133525
0.267395
0.670549
-0.00217297
3.53319e-07
-1.23402e-05
-4.90349e-05
0.266467
-5.73252e-07
0.0012669
-0.0420544
0.390433
-5.79764e-06
-8.47694e-06
1.13242e-06
9.21377e-06
-0.0410873
-5.29484e-07
0.505875
-0.0360907
-0.000178702
1.45655e-05
-0.00329129
-0.0526304
5.70995e-07
-9.27571e-05
0.281334
1.64221e-05
-0.0648377
-0.107405
0.000100221
-2.40671e-07
-0.191779
2.58695e-07
0.291116
6.60115e-06
-0.000781804
-3.66891e-06
-0.00024098
0.166397
-6.43946e-06
-0.00294887
-1.31445e-05
0.0202949
-0.00683141
-0.01076
-0.0013555
0.26295
-0.00075054
-0.000158257
-0.0153071
-0.0151796
-0.000339375
-0.000189058
-0.00174591
9.80622e-06
0.364513
-0.0231121
0.72092
-1.32727e-05
-0.0142961
-0.000464618
0.249182
2.73342e-05
-0.0558059
9.15993e-06
-0.00277547
-0.0670478
-0.00034596
-0.0312248
-0.102119
0.00680447
-5.71034e-05
-0.129774
-0.000437832
-0.000913034
-0.0100007
-0.0361356
0.00153915
-0.000211563
-0.000734832
-0.00244667
-0.00220343
-1.29354e-05
-0.00201261
0.664058
6.94081e-05
-0.0054466
-0.0703151
-0.133018
-0.12927
-0.0873702
-0.04394
-0.0015048
-0.0395533
4.91723e-05
-0.000150699
0.687135
-0.000154066
0.335004
-0.000599669
0.000371984
-0.00182574
-0.117261
-0.000679607
-0.00121897
-4.84974e-05
-0.000615979
-8.65784e-05
-0.000140285
-0.0259743
-0.000217795
-0.000131264
-0.000140776
1.81006e-06
-4.74387e-05
-0.090764
0.460788
-2.35958e-05
-0.000802676
-0.000167833
1.21677e-05
-0.00125507
-3.80098e-06
-0.00140719
0.000218004
-0.000555467
-0.128167
-0.00110677
-0.00352908
-5.15678e-06
-0.00402909
0.000342928
-2.58666e-05
-2.72012e-05
2.88024e-06
-0.00109083
0.000563489
-0.0937066
-0.058524
-0.126145
-0.000167652
-0.00500446
-0.00165067
-0.123551
-0.000140128
0.0252746
0.00987152
-0.00139974
-0.0231921
-0.101225
0.658444
-0.000607432
-3.31107e-05
0.000892383
2.0325e-05
3.71181e-06
0.133232
0.00433457
0.154903
-0.0833633
0.625993
-0.000692916
-4.94582e-06
0.00010947
-4.70817e-05
-0.00190882
0.280792
0.359262
-2.74103e-05
-0.00030077
-6.13782e-05
0.34376
0.0319029
-0.0165195
2.68678e-06
6.61354e-06
0.0116018
-0.000939441
-0.152832
-0.0334474
-1.41656e-05
0.00490117
-0.0676194
-0.000105539
0.00240354
-0.000160722
-0.0894972
-0.00261395
0.263838
4.16617e-06
0.00230572
-0.00266254
-5.43617e-07
0.000129254
-0.0463625
9.37514e-07
-0.00124313
-5.2939e-06
-0.0329409
-0.0860508
-0.00792817
-0.0186127
-0.014817
0.0150311
-0.0168554
-0.00379735
3.96074e-05
4.72827e-05
-2.9097e-06
-1.37536e-06
-9.4906e-05
0.0136726
-0.128124
0.000531864
-0.0993489
-0.00462829
-0.114093
6.02582e-05
-4.32796e-05
0.00171975
-0.0364063
7.58557e-07
-0.0986228
-0.0312125
0.134478
-0.099161
5.79497e-06
-0.00517028
0.000148184
-0.129826
0.22963
-2.5437e-05
-0.127467
-0.0486158
-0.00649025
4.57952e-06
-2.32493e-05
0.0514101
-0.0278621
-8.81267e-06
-0.0117927
-6.44046e-05
0.000165249
0.218227
-1.95764e-05
-4.77286e-05
-0.000236193
5.58069e-06
0.00111594
6.17928e-05
-0.00800707
0.00017466
-0.0248654
0.00136852
-0.000418036
-0.0732304
-0.0881578
-0.011947
-2.7199e-05
2.76286e-07
-0.138402
0.00882074
-0.0956507
-1.19131e-05
-0.0096476
-5.26158e-05
-9.79378e-07
0.141083
-0.0109425
-0.00419528
-4.53129e-05
-0.0375017
2.25612e-05
-0.137728
-3.09382e-06
-0.157415
-3.40544e-05
-1.55842e-05
5.88671e-05
0.00130167
-0.114378
-0.0305381
-0.151401
-1.77237e-05
4.11705e-05
-0.157225
-0.0583838
-0.0135114
-2.12052e-05
-0.04901
-0.110391
-0.155655
-3.3927e-05
-2.59638e-05
-6.90365e-05
-0.130226
-0.14757
0.000798402
-0.0177015
-0.000128999
0.441916
6.71472e-05
-2.51672e-05
0.000111515
-9.5975e-05
-2.96042e-05
-0.00663274
4.84569e-05
-0.00469414
-0.143176
-0.0213792
-0.102826
-6.68712e-06
-8.30103e-05
0.101507
-0.106729
-0.00726674
0.198357
-0.00010276
-3.97482e-05
-3.5411e-05
0.257898
0.000134092
-0.000167092
-3.88533e-05
-0.137336
-0.0256256
-4.86822e-05
-8.95201e-05
-0.018057
-0.00995271
0.000371623
0.365378
-0.13217
-0.00100372
0.832185
-0.000149371
-0.00166193
-0.0189683
-0.154241
-2.50929e-05
-6.68149e-05
5.7382e-06
0.00692767
-0.0743116
-0.000673509
-0.104819
-0.012185
-2.08122e-05
-1.16158e-05
-0.0162874
-0.0124774
-0.000811342
-0.0819019
-0.0871558
-0.0775394
0.0387902
-0.05632
-0.000115066
0.000313423
0.019494
0.000613877
-0.000381674
0.00081321
-4.33287e-05
-0.000341111
-0.0194823
-2.37092e-05
-8.53476e-05
0.0709754
-0.0274036
-0.000639702
-0.000244389
-3.04713e-05
0.392773
-0.0127852
0.000800635
-0.0591735
0.00021093
0.000158642
0.000137006
-9.90998e-05
0.000488278
-0.0792483
0.0275873
-1.93797e-05
-0.000541851
-0.0899209
-0.0707794
0.0860517
-0.000645682
0.00259045
0.0301203
-3.25325e-05
1.10312e-05
-0.107528
4.74188e-06
0.273506
-6.96916e-05
0.00628408
0.000135058
0.000181071
-0.137531
-0.0146085
-0.0353789
-0.0037675
7.31477e-06
0.00804069
0.108735
-0.0248685
-0.000247306
0.166622
0.269231
-1.04137e-05
-0.106625
-0.00013844
-4.06347e-05
-7.67869e-05
-0.00074328
0.0336804
-9.90727e-05
0.000199528
-0.0432614
-0.0509884
-0.0370294
0.479102
-4.87901e-05
-0.000125983
0.280786
-0.01755
-0.00710134
-0.000864398
0.277583
-2.26238e-05
-0.00107488
-6.22747e-05
-6.86313e-05
9.00453e-06
9.30138e-06
4.88767e-05
-0.0306868
-3.50581e-05
-0.00665659
-0.0874507
0.410216
-0.000731471
-8.58246e-05
0.00706245
0.150135
-0.105378
-0.00101143
-0.128261
0.480193
1.69734e-05
0.603743
-1.8115e-05
0.0044689
0.0418507
0.000443804
0.631541
-0.000156406
-1.89747e-05
0.00132683
6.12877e-06
-0.00117112
0.000232755
-3.52012e-05
-0.00315659
-0.000105305
-0.000266399
-0.00561195
0.387965
0.0953591
0.0376627
-0.082242
-1.55081e-05
-6.6019e-05
0.00436623
-0.125478
-3.69545e-05
-0.0890098
-0.000102456
0.18214
0.109786
-0.071337
-0.00235124
-0.0252636
-0.00131221
-0.0243857
0.00256555
-0.0163073
0.115738
-3.37991e-06
0.465178
0.094042
-0.00177829
0.355781
-0.0264355
-2.30608e-05
-3.37197e-05
3.95409e-05
-0.000285171
-0.000270711
0.387813
-0.00155589
0.400361
-0.00300126
0.274287
0.375647
0.253899
-0.0136945
-3.61449e-05
-9.715e-05
-0.0172121
-0.203927
-0.106432
0.00200446
-6.93357e-05
-0.0724332
-0.0012383
-0.000170775
0.00128588
-0.00164025
-0.00212015
0.0586222
4.8864e-05
-0.0899836
0.106644
3.15246e-05
0.000211564
-0.0312434
-0.1332
-0.00110223
-0.000746687
-4.97223e-05
0.000176659
0.221169
-0.0354535
-0.106167
0.00168276
0.218922
-0.0829258
-2.86861e-05
-2.22793e-05
0.0557787
-0.000356715
0.188034
-0.00259328
-0.0223241
-0.000717412
0.002089
-0.078691
-0.000253077
0.000507659
-0.00262773
-0.153966
0.296018
-0.121801
-0.0552175
-0.000573706
-7.58583e-05
0.0106191
4.91147e-06
-0.152429
-0.146501
0.000612427
0.00415671
0.00567763
-0.193595
0.000701287
9.61799e-05
-4.15976e-05
-0.0868477
-6.43028e-06
0.000612664
0.211346
0.298288
-0.202629
0.0874481
0.0871645
0.0491899
-0.000673043
0.0173692
9.0315e-05
3.94421e-06
-0.000394501
-6.19989e-06
-0.000258504
-0.000564159
-0.0147416
-0.104274
-0.0192654
-0.0646814
0.0962753
0.0789832
0.00584497
-0.142751
4.54318e-05
0.00602267
0.0173263
-0.000662071
0.139607
-0.00366299
-0.0228249
0.018763
0.00854121
-0.000183208
-0.0076511
0.0797633
0.00092953
-0.0392556
-0.033672
0.73643
-0.0531662
0.149354
0.0658014
-0.0837462
0.00300937
-3.37829e-05
-0.00399036
-5.90175e-05
-0.00398589
-0.0531091
-0.000133859
-0.000444238
0.485178
-0.00490894
-0.0865736
-0.0316079
1.33762e-05
-0.00451542
-6.23369e-05
-1.83345e-05
0.0712569
1.15537e-06
-0.00440468
0.142598
0.00876043
0.00144501
0.0302655
-0.0110805
0.00637438
-0.180332
0.000950201
-0.00833238
-0.120472
-0.00187627
-0.0157667
0.000638276
-0.00157498
0.0011896
0.0693409
-0.00113143
0.00843992
-0.100971
-0.0422181
2.39216e-05
-0.0979017
-0.0296789
-0.0290838
-0.000124889
0.0103376
-0.159343
-0.00130435
-0.0097834
-0.0914873
-0.00371835
-0.00202563
0.373461
-0.0496501
-5.87925e-05
0.0132867
-0.114033
-0.00169108
0.321291
-0.00610552
0.00125164
0.105597
-0.00251672
0.0122798
0.219179
-0.000466953
0.00149511
0.000112343
-0.000107051
-0.00686136
-0.016658
-0.000759163
-0.0483808
0.181261
-0.0708511
-0.167888
0.00149609
-0.00567322
-0.00188621
-0.0937041
-0.000107029
0.027713
-0.000164477
-0.0267399
-0.00310305
-0.00761182
0.0732001
0.220463
-0.179554
-0.000108145
0.355896
-0.0045663
-0.00724274
-0.120864
-0.188478
-0.0318369
-6.37021e-05
-0.00319934
0.0112978
-0.00521769
-0.00894987
0.000153898
0.15758
-0.0983577
-0.0218911
-0.0104412
0.0441666
-0.00989613
-0.00655518
0.0023019
-0.000834267
-0.00514315
0.213864
0.000753289
-0.196969
-0.000428585
-0.0115951
-0.00938381
-0.200927
-0.0234069
-0.230062
-0.00012294
-0.000127988
-0.0134206
0.0163265
0.00160492
-0.248134
0.167047
-0.106024
0.0001094
-0.259179
-0.000467603
-0.261624
-0.0517346
-0.241304
-0.223317
-0.193637
-0.109047
0.0411627
0.0963455
0.146526
0.196695
0.245293
0.378574
0.419644
0.457959
0.520174
-0.0128431
-0.0156164
0.129869
-0.0433566
0.000950039
0.027012
-0.0852831
0.000139879
-0.0022477
-8.17452e-06
-0.0296927
0.0298353
9.07567e-06
-0.00129051
-0.0168767
-0.0185285
-0.258422
-0.0333832
-0.122153
-0.000261259
0.000402158
-7.1233e-05
-0.121297
-0.0184002
-0.0792229
-0.0274708
0.00226686
-0.000176858
0.00712001
-5.02157e-05
-0.0263384
-0.000259668
0.000342493
-0.0175393
-0.018604
-0.00159825
0.000288345
0.0865354
-0.0215499
0.127179
-0.262414
-0.022065
0.336348
-0.0371763
0.00498695
-0.0448161
-0.00632271
-0.0204394
-0.0282831
0.515928
-0.00394381
-2.57688e-05
-0.0116042
-0.0191526
-2.51715e-06
0.144336
-0.00919599
0.491355
-0.0154619
-0.0844652
-0.054519
0.0903017
-0.0120955
-9.31545e-05
-1.21981e-05
-0.00813699
-0.134792
-3.32973e-05
0.569542
-0.00507702
-0.0101714
-0.000829436
-0.000619093
-0.0152002
0.291449
-0.0550663
0.211327
0.000703622
-0.0279575
-8.82748e-06
0.0468844
-0.0187151
0.033093
-0.039891
-0.0103374
-0.00375613
0.00115499
0.0183331
-2.03968e-05
-0.0226415
-0.000161757
-0.00069503
0.000503892
-0.0532407
-0.000371991
0.24937
-0.0205439
0.0049082
-0.12089
0.0859158
-0.131349
-0.0269962
0.0755618
-0.0321297
0.295541
-0.011063
-0.00644947
-0.106365
-0.00274615