/*--------------------------------*- C++ -*----------------------------------*\
  =========                 |
  \\      /  F ield         | OpenFOAM: The Open Source CFD Toolbox
   \\    /   O peration     | Website:  https://openfoam.org
    \\  /    A nd           | Version:  7
     \\/     M anipulation  |
\*---------------------------------------------------------------------------*/
FoamFile
{
    version     2.0;
    format      ascii;
    class       surfaceScalarField;
    location    "7";
    object      phi;
}
// * * * * * * * * * * * * * * * * * * * * * * * * * * * * * * * * * * * * * //

dimensions      [0 3 -1 0 0 0 0];

internalField   nonuniform List<scalar> 
11512
(
154.052
-497.433
343.381
-745.589
-9.05038
754.639
402.614
-374.703
-27.9107
618.846
279.778
-898.624
1511.14
-1069.43
-441.706
1216.29
-1527.14
310.841
-72.681
479.523
-406.842
168.543
-842.781
674.238
962.157
-1610.85
648.691
-1753.93
1661.03
92.8948
-542.946
1759.24
-1139.88
1933.77
-793.887
609.118
180.953
-790.07
-24.0109
-1309.66
1333.67
219.317
-1973.25
1024.29
-381.16
-643.126
-168.802
322.854
486.698
190.44
-677.138
1156.11
-1312.56
156.442
-306.944
377.938
-70.9936
997.81
-1305.89
308.082
1221.47
798.92
-2020.39
71.0959
-1633.91
1562.82
-458.506
-1179.59
1638.09
478.005
181.753
-659.758
-196.752
-300.682
498.32
1012.82
1640.72
-1796.76
156.041
-82.1383
-1694.37
1776.51
-1558.44
649.503
908.935
-306.084
653.909
-347.825
-192.708
-154.16
346.868
1279.49
-1208.39
355.139
-1407.48
1052.34
-1754.36
1754.36
100.336
1524.33
-1624.67
-1076.67
-481.763
634.663
-707.344
-383.089
941.448
-558.359
1331.98
-1317.35
-14.6327
-1100.45
717.363
628.656
395.63
-383.349
-43.7848
427.134
-434.112
756.789
-322.676
-1618.55
1618.55
1253.6
-1437.91
184.306
-488.334
1709.81
1256.35
-314.906
1660.76
-1161.27
-499.49
82.4033
-389.348
2064.28
-1134.16
-930.127
1805.44
-164.718
457.277
155.815
-613.093
-451.791
968.146
-516.355
-1164.43
1264.76
-569.055
971.469
-402.414
402.896
753.217
661.675
-493.132
-437.811
596.482
-158.671
1190.72
-835.58
2308.18
-1080.65
-1227.53
1163.17
-2007.36
844.19
-1595.42
1571.41
440.776
-1580.66
-759.256
1250.88
-491.623
-673.332
367.247
1661.48
-699.323
-1106.93
-870.892
1977.82
662.865
-353.971
-308.893
689.444
566.91
-258.203
1511.8
117.116
-320.546
203.43
-284.648
762.654
-334.794
566.925
-232.131
-324.427
811.124
-318.118
-150.64
468.758
327.044
75.5692
1449.13
-451.318
-965.469
477.253
488.216
280.704
89.2644
-369.968
950.414
-341.296
-1699.53
662.452
1037.08
15.309
-847.364
832.055
-282.513
597.346
-314.833
156.524
-1093.77
937.242
1051.93
-1067.42
15.489
372.884
519.533
-892.417
-245.186
702.463
-1104.04
-481.937
1585.98
-678.768
951.605
-272.836
1359.91
-1442.05
-617.87
272.05
345.82
-470.183
-1011.59
1481.77
-540.198
-792.089
1332.29
576.699
-996.85
420.151
-267.874
-317.628
585.502
408.956
-291.84
-1034.81
583.016
955.324
-798.8
-110.271
944.099
-833.827
-212.109
420.203
-208.094
-619.381
-346.087
-386.651
963.349
1856.38
-1856.38
-456.472
-161.398
-954.37
1549.66
-595.291
497.593
-931.846
434.253
-924.342
355.287
-941.912
-1058.08
-1485.15
347.372
1137.78
-287.263
906.109
-304.015
611.021
-307.006
-1941.91
999.994
-1133.13
-352.019
540.976
-1495.35
1728.52
-1725.49
-3.02983
213.173
-597.576
384.403
-1450.55
972.911
477.64
290.449
211.98
-502.429
311.821
-646.615
244.703
-420.992
176.289
2014.13
-865.692
-1148.44
-544.136
160.787
618.68
832.158
-1450.84
-183.72
428.423
431.053
877.137
-1308.19
-909.5
395.203
514.296
-1044.22
1447.11
-1068.9
309.649
753.691
-99.782
534.596
-279.203
-255.393
991.901
-514.648
593.27
-1403.97
810.704
-1342.38
238.333
-548.416
265.903
-1178.5
891.235
1944.83
-985.909
-958.916
276.805
1579.58
-2092.02
893.324
1198.69
368.05
-30.0553
-337.994
-223.782
483.896
-260.115
-114.318
-376.638
490.956
-468.343
150.225
343.143
-128.581
626.174
409.779
388.462
-798.24
-2033.84
1107.39
926.457
461.188
-533.966
72.7787
224.127
-366.084
141.958
1026.14
987.994
1775.74
-251.408
706.688
-434.637
797.356
-1390.13
592.778
335.657
327.208
1044.92
-1029.62
-507.656
-218.639
726.294
479.953
-137.989
-341.963
798.053
-617.101
571.281
-729.576
158.295
503.328
1157.43
-1239.97
699.771
1049.64
-1508.15
-3.13836
-1439.43
1442.57
324.697
825.529
-1150.23
623.721
269.866
-893.588
-2270.43
1134.05
1136.37
-1105.4
-1165.03
210.659
360.621
958.511
-633.814
879.571
-899.216
19.6449
-2099.38
992.451
-230.388
-190.627
421.015
-41.6557
1770.17
-820.807
75.2179
-1026.3
-1065.71
-229.69
453.816
-652.993
196.52
-256.63
-424.87
681.5
1104.06
-1574.25
783.182
-1374.57
591.385
693.29
-413.513
1947.88
-1444.55
-378.285
-1376.07
83.7318
395.791
-527.635
518.585
6.25193
-562.781
556.529
571.284
-280.835
-606.262
281.193
325.069
779.245
-369.466
32.9558
335.094
1188.47
-1191.61
180.375
228.582
392.133
-648.763
620.123
-1006.77
-2026.7
2026.7
-243.314
-449.247
692.561
699.395
405.851
-1105.25
579.54
174.152
395.95
383.295
-2199.74
1328.85
-926.931
-678.448
1605.38
-494.728
-683.77
-264.612
543.432
-278.82
823.591
-180.193
-643.398
-427.689
640.862
374.006
-678.021
-345.571
-135.958
481.529
-1322.72
-474.047
611.89
-1106.62
-374.148
-1244.41
844.321
1463.86
297.98
-939.03
641.05
966.809
-338.153
1391.49
-798.224
446.494
-266.119
-329.96
-868.78
556.366
312.415
-315.935
-552.845
306.625
-420.943
-218.546
-149.004
367.55
-392.711
1092.11
435.457
-245.017
-395.829
1343.81
-168.525
-1175.29
-466.309
269.892
196.416
232.817
239.227
-472.044
29.9735
-759.549
592.065
-1728.99
1136.92
1480.93
-862.253
-1049.17
-401.382
-1057.69
573.092
484.602
1370.04
-397.124
929.563
-1411.5
-158.363
-208.52
366.883
-469.897
582.006
-1626.22
427.983
903.998
267.237
300.07
-567.307
568.077
1186.28
1104.66
-716.288
-388.377
407.275
-220.539
-186.736
-1419.47
444.675
738.857
-1183.53
1473.42
-543.856
-492.807
918.421
-425.614
426.141
1186.17
-1612.31
47.2798
-726.048
-144.553
425.257
224.293
-417.001
522.95
468.951
-626.294
65.5201
560.774
1024.54
-1307.68
283.132
662.005
-266.056
468.214
-1447.26
979.044
416.024
1685.64
-522.468
911.746
1033.08
-663.053
-1684.45
757.519
566.314
390.397
-956.712
453.025
78.7224
1749.87
-1828.59
1443.77
-379.484
-1064.29
1699.08
-1740.74
-368.25
-512.288
717.991
-205.703
-502.592
186.183
293.77
-373.129
-1226.02
214.429
-764.545
-639.428
-665.176
1002.71
-337.539
-654.038
644.212
9.82527
655.132
-923.79
268.658
-762.991
387.536
375.454
-649.091
-680.132
355.086
325.046
-932.386
1400.6
-410.774
883.224
-472.45
-2205.3
5.55812
183.169
-538.475
355.307
141.341
1202.47
-94.3709
-558.622
161.089
-598.9
1487.24
-704.061
374.68
-465.795
91.1148
-569.737
569.737
1223.1
395.459
1777.8
-1229.14
588.961
640.179
850.491
-52.4375
1291.23
773.053
-539.823
1337.18
294.441
302.905
280.496
-792.784
236.434
-670.546
232.611
-445.781
213.17
-227.55
573.145
-345.594
130.596
-358.147
-592.166
-564.515
1156.68
-361.484
522.328
-160.844
-1192.16
2032.05
-839.886
1290.29
-331.78
-405.245
137.371
-1980.71
801.122
1519.74
-844.139
-675.604
1986.93
-877.413
-1109.52
713.366
576.925
-240.524
473.134
-676.594
1130.21
-453.621
-770.349
1201.4
551.483
924.693
-1724.76
800.069
-536.723
-70.2276
606.951
289.004
245.592
412.643
-106.704
-305.939
896.943
-83.4118
-813.531
904.598
-549.293
-355.305
1576.22
-472.158
887.183
-1625.24
738.057
1068.49
879.393
750.382
-445.502
-304.88
-1059.08
-258.271
556.289
581.472
-1137.76
-448.194
493.121
-44.9271
578.7
-347.187
-231.512
-981.733
570.958
596.702
884.232
-441.829
1096.96
1405.45
-770.536
-634.916
399.071
-926.229
527.158
-1008.58
389.194
538.859
-1031.67
446.368
-510.184
63.8163
463.899
292.89
-521.253
-48.4844
-794.626
-876.857
1671.48
196.137
211.138
-213.782
424.442
-32.7378
-539.598
572.336
487.916
866.19
-1354.11
-529.02
310.474
985.981
-89.038
836.622
-1065.06
228.442
384.011
846.716
-1386.54
-442.303
830.765
1976.18
-1282.69
-693.493
270.225
609.346
256.023
795.912
74.9393
-955.862
880.923
1673.75
-1089.09
-584.661
-137.8
1887.67
-1866.03
-160.66
483.77
-621.902
138.132
-1015.08
526.112
488.97
-1730.48
538.319
-955.946
845.674
392.118
204.364
587.194
-289.214
-425.443
712.262
254.547
81.074
709.09
-790.164
-1134.31
-894.602
2028.91
-533.389
1089.34
-555.948
-455.855
-340.797
110.41
-1653.58
858.959
-877.727
-583.913
1461.64
-332.318
-295.137
627.455
364.119
-640.75
276.631
235.077
-604.543
305.912
211.615
-517.527
332.726
-597.338
613.063
-248.944
314.893
-465.533
672.379
402.462
-169.646
-373.819
-306.313
1214.84
-3.50013
-1211.34
1040.13
-420.006
560.876
410.593
-1782.39
869.828
912.558
495.029
542.693
-1037.72
-535.96
203.642
-262.396
1180.43
-918.037
-1590.9
1212.62
504.649
-1096.81
388.093
-13.4133
423.569
294.813
-718.382
373.928
-619.114
-29.6616
754.952
-725.291
-526.316
796.183
376.963
322.968
527.523
655.024
80.9854
-389.805
308.819
1059.11
-645.375
-413.734
494.004
-1664.27
1170.27
-1140.47
1753.25
-612.78
1715.8
-1123.74
-334.775
615.968
-1182.06
1257
425.288
-796.726
1596.95
-800.219
-245.849
-220.46
-887.536
1469.19
1811.17
-611.513
-1199.65
-404.809
636.14
-1301.32
-124.806
-36.5897
449.233
-673.938
-354.17
-1236.73
-225.067
460.144
903.921
-561.664
185.026
-1674.49
-71.1722
1745.66
-1053.33
519.941
570.993
-1180.83
609.84
901.173
909.994
630.85
620.029
674.346
244.075
-1124.61
448.02
-404.14
410.392
622.276
-515.775
251.108
-734.781
483.673
675.764
-340.108
-335.819
181.659
-589.888
225.911
363.977
-888.548
-736.692
1087.67
-2145.75
400.517
-685.165
-342.9
-724.524
832.754
572.698
-348.924
305.139
360.93
202.671
660.91
-863.58
528.47
601.745
-523.042
177.471
361.761
-605.075
-1041.08
-851.563
1892.65
-1790.99
157.071
1107.3
-1369.69
1152.94
-731.658
-421.282
-503.305
1350.02
-1495.56
627.863
867.696
-288.575
-210.593
499.168
1428.39
558.545
326.661
-462.619
-486.709
-563.989
1050.7
-417.266
600.435
1582.04
-1128.61
-453.437
-764.228
314.981
654.947
404.162
-1623.43
416.154
1207.27
-200.126
506.037
797.924
784.118
194.619
-673.298
478.679
209.035
211.168
-294.467
-108.517
402.984
471.675
3.54401
-475.219
-1629.14
579.972
-1601.48
1665.2
-63.7143
9.17102
-1610.65
1069.63
748.555
-324.986
-799.883
-208.693
-1134.56
-240.011
-311.967
685.896
-1812.29
-624.105
1205.58
208.49
759.656
-1328.99
-678.375
-465.241
596.544
-329.307
-1013.29
1350.75
-1932.8
582.047
645.84
1287.93
487.278
-3.38157
717.744
699.542
-1417.29
-640.691
339.247
301.444
441.062
-99.6137
-341.448
155.21
285.99
168.317
-454.307
-576.88
1143.19
469.17
-609.038
-462.562
-401.808
864.37
-333.779
175.416
-460.092
168.251
-306.325
-708.757
549.759
-108.697
-568.929
968.001
580.65
-270.004
-310.646
456.818
-781.244
-645.218
431.161
-1129.42
-831.247
1178.62
-569.767
458.921
267.373
-442.092
88.1208
1029.53
-317.385
594.337
-276.952
-509.037
1578.66
-673.396
226.35
379.536
-605.886
211.832
469.55
-19.5837
-449.967
-253.791
-206.301
1014.09
1108.97
564.784
-865.291
935.155
-69.8646
-458.136
169.561
-719.517
294.648
-596.32
318.614
357.151
813.514
-1224.79
411.271
778.212
-807.874
-948.995
-550.37
1499.37
-154.901
454.97
-528.763
249.559
1298.59
762.72
-568.101
1303.97
-692.079
487.852
-684.866
-414.401
-424.366
-378.561
802.928
503.671
-844.967
-439.951
83.428
356.523
-324.523
572.39
730.321
-329.804
-246.729
-174.857
421.586
-492.144
147.113
345.031
1456.38
79.9847
-1536.37
-749.072
1345.77
-1144.75
-466.099
534.688
-155.151
1149.7
-371.487
1083.52
492.698
693.092
-412.596
-885.193
-522.289
-1328.48
-28.848
984.999
-956.151
596.512
317.544
-914.055
-319.049
-225.088
-678.475
405.514
1621.18
-167.716
363.08
352.559
-715.639
-1839.79
-2106.67
1519.14
587.537
-2037.46
343.087
350.777
537.192
-887.97
-460.126
1021
-383.285
-673.725
1057.01
-2030.52
1391.21
639.315
600.013
-983.298
50.6993
395.669
386.758
200.903
245.591
314.65
950.791
854.736
681.55
-327.239
-354.31
-295.482
623.408
-327.925
574.989
529.676
565.693
514.925
-1080.62
-796.273
-699.287
753.225
396.474
-419.49
696.12
-1193.43
1609.58
408.469
-1082.19
-321.979
533.594
-1383.09
861.761
521.326
-716.145
-355.246
-791.19
369.667
421.524
446.965
718.632
-1165.6
1068.27
-573.241
-396.208
655.184
-258.976
255.082
325.569
-469.052
-431.99
901.043
-241.463
551.762
-943.654
391.892
-463.5
600.599
-1681.25
423.663
671.361
-1095.02
522.567
88.454
113.406
-2212.78
533.537
-74.6159
1443.76
1777.09
-217.554
-1559.54
-438.4
1789.15
-1986.86
1194.43
792.429
405.226
345.157
-32.6921
865.446
-1283.59
719.072
-870.861
-823.525
794.677
311.308
53.6917
-365
231.264
186.273
-417.537
1549.05
-831.303
-1530.95
-325.431
469.814
-197.179
-272.635
395.928
366.726
237.88
358.664
-8.26558
1001.09
-992.823
374.82
269.06
-643.881
-734.016
1817.26
-1083.25
-342.824
738.751
-1213.21
-411.462
-916.435
484.445
562.362
-773.681
211.319
762.962
-381.899
-381.064
-421.358
-443.933
447.826
1067.33
1236.01
-665.012
802.29
-345.472
386.791
305.77
-253.179
-212.616
-195.823
611.847
407.933
-848.841
440.908
205.023
355.802
-560.825
-423.729
831.661
754.766
-1147.48
878.933
-65.4192
-492.114
273.743
771.182
-95.5487
1383.48
1890.5
-71.0164
340.909
-319.17
400.155
-1085.31
1077.04
612.7
376.323
386.639
61.0026
408.811
265.864
488.775
-370.506
-270.185
-564.646
-89.3916
-356.885
368.561
-11.6762
-257.899
-290.517
1011.13
-1540.72
529.595
-199.968
-174.735
-384.791
653.851
-1627.97
1591.07
-963.21
248.784
-663.184
584.308
1224.42
-1808.73
607.399
983.674
296.708
-1118.72
693.281
-287.915
-279.392
1370.88
-1441.99
821.955
620.035
410.088
-617.805
207.717
-357.448
472.863
-115.414
366.972
104.703
1723.61
461.711
-252.676
557.614
-1704.79
1147.18
-91.6756
394.645
343.053
338.497
-448.448
-616.121
1064.57
421.034
-863.338
-641.402
903.151
570.268
-512.469
-250.521
-439.997
-408.844
-307.136
-827.42
1821.11
-1821.11
-105.92
-1585.26
1691.18
292.579
286.121
-917.391
-555.255
1472.65
-408.186
973.879
-587.703
-1041.44
681.402
385.067
-1066.47
479.121
-164.228
573.057
1220.35
-1793.41
-1044.12
2115.86
-1071.74
-373.892
-299.44
-490.817
805.798
-1748.2
1598.36
149.833
1748.2
-1601.52
-146.672
-247.512
526.253
-278.741
-537.275
1620.8
1558.52
-1969.98
1070.6
-286.346
-247.673
534.019
241.584
-563.563
-692.694
273.204
1340.76
635.421
577.59
485.801
-1063.39
282.913
410.179
875.493
500.101
-1375.59
530.971
-1017.68
1574.96
-563.833
-776.765
-366.828
-112.144
478.972
-489.884
1208.52
-742.448
334.462
368.002
356.788
256.523
-613.311
598.372
832.029
-603.586
266.063
669.092
-512.469
-320.876
-224.634
545.51
1168.58
-668.263
611.342
464.804
-1076.15
-1290.32
1290.32
-387.498
763.821
-287.217
-474.107
761.324
483.717
448.493
-932.21
388.117
-675.334
613.394
-868.803
255.408
-367.19
-496.231
1073.82
-662.521
-708.842
1371.36
-374.786
926.548
-1552.68
675.265
35.8577
-404.836
368.978
-500.031
696.551
243.223
329.922
172.235
306.886
-510.113
222.199
1869.16
-1964.71
268.925
-696.614
445.249
-821.35
376.101
-920.39
1407.39
-487.001
-429.699
-486.736
600.675
1124.21
-1724.89
-716.322
342.431
-459.847
1034.84
-771.391
1037.45
-380.712
-630.257
-478.084
714.519
540.915
-359.163
904.752
-300.639
-191.505
1599.02
-1816.57
-344.468
-599.186
-332.252
479.366
251.748
-581.054
-179.8
1056.81
-783.063
214.545
-279.351
-285.744
565.095
395.391
-874.417
479.026
-488.035
-445.681
-939.03
-336.694
563.702
-227.008
-445.975
-418.778
-322.322
-195.205
-381.124
637.646
-447.464
753.233
-1073.14
624.691
-1409.53
531.806
-27.6115
-1833.72
1861.33
569.852
-449.297
1205.5
-685.554
334.443
-334.443
669.766
-432.725
1042.47
-1630.17
-1158.73
-947.944
294.076
329.331
881.776
715.169
-486.815
-301.946
788.761
1656
-1683.61
-434.809
350.595
220.688
1135.21
-523.869
-943.331
1550.47
-607.139
445.908
-245.005
383.874
370.636
-754.509
526.202
474.311
-1000.51
-331.79
666.252
-37.7976
1906.96
1583.45
992.988
-1697.05
727.319
-1177.27
449.956
-492.448
1367.94
838.105
-1341.41
-546.491
260.145
793.273
-402.876
554.364
-1187.26
632.901
-639.207
-1215.54
-695.636
1911.18
-201.192
541.813
-340.621
-167.833
288.667
-489.859
326.043
373.514
-699.557
-1480.27
757.498
722.773
884.13
-1434.5
826.38
-431.176
220.615
-365.168
-578.759
257.883
-634.018
-749.068
699.302
505.696
-1205
394.105
-204.251
-189.854
556.735
-959.149
-561.321
-426.074
720.721
-831.271
-1155.59
-1437.98
499.613
938.363
15.019
-622.875
331.607
291.268
-1309.48
1045.15
264.334
-617.109
-456.03
-665.938
921.961
402.729
-204.707
-198.022
508.138
980.737
-1488.87
974.695
-564.473
167.402
397.071
-389.807
667.822
-398.897
-508.273
176.021
234.477
-1517.17
532.563
535.708
-738.631
238.6
157.855
-458.494
372.336
-818.017
1954.16
-1195.39
-758.768
408.632
-661.94
253.308
325.388
321.718
124.985
-446.703
-563.411
196.272
265.439
-691.685
1374.42
-682.731
424.007
453.925
-1170.07
268.354
1866.78
-1013.59
-853.19
785.15
-518.846
182.151
1402.4
-975.217
-427.178
337.155
-769.881
-616.482
1725.45
613.293
622.713
321.302
-9.99362
271.614
-1138.46
1725.72
-587.257
-1763.52
820.186
1750.67
-1682.13
-68.5342
-657.813
253.674
560.109
-701.993
223.908
1402.76
-564.657
392.71
438.055
-1858.5
1420.1
536.973
-419.428
-117.545
211.95
-534.273
-278.156
-177.699
-354.105
697.158
-570.451
203.623
605.198
553.276
-1158.47
1113.69
-1947.39
833.703
163.347
318.182
-1698.57
1660.77
318.621
-731.216
-164.181
384.796
750.846
680.166
-1431.01
1071.75
-1075.25
528.404
-1101.65
-632.171
254.86
377.311
514.451
-288.54
-595.955
-1034.22
298.593
-717.371
-912.319
184.365
166.597
227.508
381.687
296.682
-678.37
-626.469
-833.889
-978.397
492.888
-1056.3
-280.95
477.366
535.51
643.109
-281.051
-124.194
-409.748
706.457
274.06
-1197.34
570.872
1306.19
-555.348
445.24
-1006.56
-389.748
155.802
381.171
1023.44
551.521
-1712.58
1606.66
1624.53
-554.746
-1069.79
1902.26
-1890.48
-11.7749
198.274
-517.445
-337.105
551.65
-761.783
-316.864
-340.949
1028.58
696.19
-1496.19
800.003
346.991
-26.192
1625.21
-1074.14
405.881
-1229.23
452.464
-59.9261
1516.31
1197.56
-470.244
-489.526
-74.9468
-261.914
736.003
-1951.54
-711.703
347.805
-534.594
186.789
192.058
-509.443
1139.9
671.538
-1811.44
-595.38
175.952
942.146
-1497.4
-210.477
678.931
-468.454
879.325
1120.68
-735.066
1348.36
593.281
-477.311
-115.969
-348.582
1170.54
1036.61
-1980.74
944.132
-1169.85
545.74
1488.82
-585.672
-371.26
-151.782
-1239.83
574.822
1160.02
-122.939
946.036
775.405
-1721.44
-213.859
578.399
-1541.76
963.357
486.974
916.74
-1403.71
616.306
589.27
381.887
-1106.66
591.775
1105.09
1216.34
-452.394
-763.949
-1186.2
-1754.94
-8.32936
-1704.25
-204.388
-413.417
1605.84
-626.385
-979.45
-490.855
1121.71
-1316.29
637.371
678.918
-1360.48
1440.46
-1328.8
593.73
1520.54
-386.056
-559.549
188.289
-1475.14
239.244
176.377
219.283
373.998
436.14
391.683
-827.823
506.3
-939.12
901.012
-1444.87
-687.029
232.094
454.935
-1038.47
461.586
-469.896
862.606
696.358
31.2081
-518.114
177.493
-886.565
-1318.74
-716.839
351.204
365.635
405.927
-724.058
318.132
-480.326
-189.311
-709.905
717.287
1539.46
-593.428
810.978
738.069
1344.86
-844.756
-971.445
-570.31
-798.533
427.797
370.736
-1037.11
-644.274
305.751
338.523
-1433.7
-296.783
-791.864
399.342
392.522
-641.852
393.563
248.289
-670.457
271.561
412.644
488.399
389.8
441.861
479.773
384.597
597.198
-970.327
672.675
470.519
454.277
356.543
-810.82
1630.78
-1079.92
-550.854
-504.413
-282.234
-1027.25
455.167
347.761
409.576
594.685
-1004.26
-1379.32
752.937
-535.258
1145.1
353.146
-67.156
412.065
-866.473
454.408
-1892.29
307.035
442.31
-727.236
284.926
-186.007
406.287
-220.28
-663.223
309.877
353.346
-675.876
321.566
370.873
392.947
613.163
-1021.35
753.76
660.836
-1414.6
438.719
625.85
340.478
393.069
-733.547
410.371
328.38
603.389
669.807
397.522
588.507
-1013.46
424.956
-1667.05
1200.43
466.623
1696.6
-539.171
621.859
-1147.53
525.673
-643.894
348.757
437.2
-935.955
498.755
740.936
-446.123
351.09
346.068
562.93
-907.398
650.62
-1253.48
602.865
363.919
735.096
-1224.98
769.896
509.407
-1279.3
478.202
407.482
-885.683
-501.609
-936.367
-304.316
630.359
352.572
542.407
-894.979
334.076
332.176
-502.176
1944.74
437.615
-847.799
410.185
-917.913
-806.849
-750.041
368.978
-1209.55
438.161
-1728.48
1601.52
126.956
1743.54
-1598.36
-145.177
-785.469
-594.994
267.642
327.352
-1750.67
1969.98
538.294
791.919
-1330.21
440.062
716.618
690.566
385.605
-1076.17
-82.1001
1617.15
-593.707
381.954
823.541
-650.948
327.582
323.366
-378.342
-297.894
552.976
-224.242
436.222
282.167
-668.212
386.045
266.619
-581.452
-284.237
442.43
-1034.01
591.582
538.036
1092.74
366.008
597.342
312.749
353.187
-665.936
1615.48
-919.289
1691.66
-1520.26
-171.399
-328.375
-824.433
415.589
857.629
-1068.11
-609.005
281.08
-1090.62
1628.66
-1578.15
-80.5241
1658.68
-341.364
-350.198
-370.125
536.122
599.089
-503.774
-30.1928
-550.094
508.697
-283.678
-225.02
1740.66
-1292.83
-626.894
300.684
326.21
404.122
357.254
734.852
-297.563
-398.837
-1743.54
1683.61
459.45
-1101.34
641.892
-44.0512
1650.71
571.521
476.426
-1047.95
104.811
1145.04
-1452.18
-17.2637
-1875.03
229.956
-600.572
307.668
292.904
-955.739
612.84
-899.23
469.531
-1128.9
673.932
454.965
358.334
268.127
-754.942
-311.839
1217.53
887.04
698.941
-1183.12
456.137
726.979
494.236
701.208
-1195.44
-358.855
-247.848
414.446
-961.386
438.36
523.027
21.2622
-1879.77
1080.26
-466.864
-491.002
557.913
-1378.31
820.4
-421.792
797.893
-405.225
495.779
-709.681
1723.77
414.744
-187.236
217.274
-172.864
-245.952
418.817
1895.31
-504.107
-1685.39
1051.88
-603.319
305.425
-1014.44
554.318
-313.098
544.236
905.416
-1449.65
-1104.15
438.208
-20.6616
-1944.05
1710.43
-673.815
-541.016
460.657
-1190.74
730.082
190.432
212.297
-282.946
767.912
701.277
838.875
818.987
-462.444
1085.3
-466.769
480.884
-195.627
-285.257
-1922.49
-714.611
-318.405
-644.392
-6.92642
651.318
469.294
-273.022
562.007
1053.47
-800.105
925.599
1244.5
-425.091
-201.287
-222.379
423.666
955.884
-888.62
-327.838
-1068.35
612.317
1554.04
-796.544
537.583
935.063
-388.587
735.779
-347.193
1130.63
-277.168
325.288
1349.83
-704.371
-221.858
448.264
-1198.82
750.557
-1001.91
-95.8429
1097.75
442.702
-956.361
513.659
174.92
732.891
483.452
742.463
-81.5536
853.926
-425.565
1182.78
-797.176
552.006
-1465.53
913.528
-1216.66
1800.97
-431.713
-1510.19
879.799
-1402.09
-301.624
-416.758
1457.31
-1522.13
785.441
1491.53
204.064
276.82
-350.418
-1728.48
-296.334
-1005.26
1567.27
-1760.14
1760.14
1558.52
-1004.56
-635.648
-333.509
368.41
605.469
-364.992
-358.573
-1389.91
897.462
1125.17
600.548
1202.93
1789.48
-1216.43
-608.071
273.667
1658.92
-1916.35
257.433
813.994
-1267.43
1545.27
-561.597
774.67
314.666
-332.638
554.563
795.458
679.055
1349.85
-214.649
-444.823
-351.612
498.198
-342.383
471.667
736.849
-292.663
-154.04
-323.925
566.798
-242.872
26.1432
-373.33
1107.5
-1720.28
-428.277
-480.862
-565.388
864.1
689.943
-1596.58
904.895
-451.509
-616.569
-513.408
1252.27
327.16
1723.64
-1702.38
-1656
1890.48
-1560.89
840.334
720.56
-363.044
-1794.5
917.64
582.855
819.907
-396.215
1794.23
-680.54
-407.024
674.785
422.784
-1097.57
-1099.25
444.054
753.509
-1617.2
473.171
901.244
179.24
-404.654
225.413
-1591.35
-381.899
-423.341
990.329
-668.962
1443
-975.14
1854.46
241.879
-543.42
499.452
-295.388
474.308
893.634
543.022
977.523
-462.631
-427.92
573.828
883.48
-1392.71
-40.9877
1568.88
-830.812
519.943
971.586
-1475.86
-1115.9
1767.19
-1243.09
-524.107
1206.19
-318.91
-887.277
-194.327
457.232
-262.905
-457.365
-250.519
433.804
-183.285
148.409
-396.258
1726.18
-1734.51
-451.26
-530.836
-903.664
447.003
-209.169
-237.834
636.115
-448.685
-356.795
-303.807
660.602
-923.122
370.277
-1167.44
676.587
421.12
-630.071
-443.91
1570.41
-855.241
530.178
-457.709
-571.575
-462.437
372.633
-362.836
-9.79714
-1092.63
407.076
-664.653
-1033.72
1698.38
-593.226
-1422.94
714.094
562.146
-1596.28
1034.13
-377.398
-481.305
143.511
530.835
-1258.52
745.112
539.211
1006.06
-2133.18
999.991
1133.19
-349.908
419.9
-395.022
-24.8778
1478.08
-363.743
449.427
1219.25
582.054
906.769
568.374
527.279
-1095.65
168.493
-432.623
-1682.13
261.267
1127.6
-608.758
518.422
1013.84
-1532.26
1092.88
-1643.74
193.302
685.631
540.755
-868.593
-1086.59
-173.684
431.039
-257.356
-587.329
-420.689
-636.915
-630.013
347.067
-1618.41
939.961
-476.65
215.369
-402.604
537.298
-307.342
-599.079
1197.26
-1264.52
920.204
344.317
-1024.86
-354.767
-753.975
-821.576
1685.68
-476.764
1793.09
-1580.59
-212.505
-1556.66
1018.76
537.895
-722.559
-263.34
445.867
-182.527
-585.78
383.575
276.414
-659.989
-523.772
980.4
632.25
-351.17
-1620.3
1050.53
571.75
1103.57
-1675.32
-404.309
-295.593
-367.631
-741.951
-463.12
-330.793
503.028
1558
-995.857
-775.649
1497.47
662.37
-311.775
725.88
1152.37
-1878.25
277.658
297.057
-487.005
-1931.27
1719.23
212.043
740.333
-474.441
-265.893
531.816
1060.86
-1592.68
372.633
-1721.51
-233.208
1752.35
-1580.71
1073.8
506.914
-1720.49
-1.01786
-521.512
419.9
1698.57
-1719.23
939.848
624.258
-1564.11
385.707
-219.106
-166.601
-401.815
-268.643
72.5958
94.9155
-358.256
-433.456
-435.347
-409.161
223.154
1510.27
378.766
-216.438
-425.414
465.147
-199.708
310.973
1510.8
1000.6
-152.238
-848.359
-1104.13
1704.8
-1728.73
1064.07
-707.057
-1021.67
-1265.09
1844.99
-579.898
1155.08
-1771.11
616.035
272.183
-878.351
1675.63
43.4597
-1719.09
-491.153
-1083.09
-1726.18
-982.753
554.834
1019.64
590.205
1133.06
-1723.26
289.695
-444.847
705.605
-384.04
367.948
925.093
680.286
-378.892
-634.571
582.874
1072.59
-1655.46
-397.883
-371.808
769.691
417.029
-1660.77
1520.26
140.509
584.827
-1044.67
544.74
1083.92
-1555.71
994.113
-240.053
236.352
315.298
1902.26
411.92
-83.1247
995.866
722.752
-1718.62
-697.522
1085.38
-1557.54
168.298
-572.16
199.569
265.579
-650.51
-559.042
582.441
1034.7
-711.305
-267.354
-1368.71
676.46
692.254
-417.263
772.684
55.1938
-827.878
561.529
-137.14
1557.24
-218.729
265.507
-769.197
-1931.27
1664.63
1036.49
387.536
294.593
446.343
-930.246
-992.246
-1767.27
638.435
1693.77
511.329
-474.153
1211
1087.17
-424.906
1030.37
-979.39
494.777
484.612
700.02
1047.97
-1747.99
487.255
480.745
-1494.05
-747.591
31.3032
781.675
-412.697
-882.457
391.455
-538.442
-802.969
641.05
-577.007
1397.41
1055.14
196.349
234.69
-550.598
1618.54
-771.627
1525.39
-1727.83
575.235
1152.6
545.848
-884.001
-1732.63
1916.35
-183.717
1721.75
184.21
-543.185
372.552
-277.636
-481.313
1211.39
568.269
1128.33
-491.306
434.856
859.44
-463.81
-774.121
423.729
350.392
1418.63
1089.63
-518.14
1423.04
-510.641
-533.587
1044.23
-602.732
462.926
-1194.58
1691.66
1839.58
-687.209
1585.54
-645.691
-1241.55
717.774
-562.33
205.38
-396.008
457.064
-245.896
-520.79
-1246.71
1870.94
-624.227
1173.47
-551.609
1120.3
-1659.47
1689.77
-573.917
-544.667
-549.806
1720.07
-317.415
-688.013
-473.262
1223.82
-1681.54
-1860.1
613.388
287.656
-931.055
170.899
215.775
-1719.03
1204.16
514.867
1162.86
558.887
-511.114
-465.346
1192.33
177.93
228.357
588.443
1251.14
-539.173
-1238.59
1777.76
-1025.47
999.991
866.791
-204.141
-1658.92
1702.38
-510.034
1411.28
-1732.63
-364.63
23.5724
341.058
-266.948
586.65
-319.702
65.1586
491.207
782.459
-376.532
1257.53
1270.97
-413.338
853.26
-437.671
1817.42
-662.34
1586.5
-1723.64
-412.777
-734.808
303.303
431.505
-559.219
-563.199
79.7198
-1138.8
-985.597
-669.491
1655.09
-943.709
-1189.47
158.479
-406.153
-648.768
705.575
1167.45
649.966
1410.34
-590.43
1636.76
1318.14
-573.027
-494.856
199.467
-503.259
1396.89
1240.2
-563.742
-999.99
894.326
53.1494
-947.475
603.446
-506.102
1403.56
1495.08
-588.31
-380.594
380.594
-589.372
1623.5
1239.66
-486.151
1134.17
-74.402
1850.91
-395.396
1489.48
-588.468
-507.663
1348
-653.459
1218.69
-565.227
1554.81
-591.45
744.84
572.741
-1317.58
-651.36
276.303
486.417
599.942
-1957.3
-978.078
1586.5
381.471
-381.471
-72.7759
389.941
436.438
372.649
-5.67616
-344.652
886.433
-522.514
-425.529
815.471
-245.299
622.61
-436.251
1543.64
-444.332
-884.147
189.285
226.18
-415.465
601.166
1250.78
-1851.95
927.951
-458.42
-362.836
126.153
-1943.01
1816.85
-452.869
186.749
1181.36
-440.428
-740.929
-306.835
-575.622
-491.319
-395.022
-482.526
257.506
1158.52
-559.433
230.371
-383.813
153.442
-22.3889
-107.671
1376.07
-1268.4
34.4445
-599.09
-586.359
-459.722
459.722
-1262.36
1985.12
-1344.4
-216.591
-1823.82
243.237
-1025.76
-974.241
-187.97
-1637.12
706.87
1229.32
-1924.95
371.618
311.097
-682.715
-1850.01
1234.27
615.737
-564.335
564.335
-959.28
-39.8219
-1866.03
-558.131
1650.87
-677.836
1636.17
-601.467
-171.573
-1703.46
-586.663
-440.215
-594.776
-472.899
472.899
-1537.81
194.524
1343.28
175.449
225.689
-401.138
486.763
513.834
997.724
-474.698
1751.3
768.776
-426.618
401.74
520.009
1702.05
-594.555
-552.955
1636.87
473.235
1812.72
-645.262
-1803.81
-1938.08
-646.903
-484.259
484.259
-583.036
231.424
-686.749
1020.01
-465.695
-1071.13
-284.617
1579.58
1852.3
1635.33
-1635.33
-278.217
739.107
1761.48
595.782
1275.15
175.973
209.735
568.307
593.799
1603.53
-1603.53
224.2
-352.44
-433.542
461.928
952.187
-457.41
-640.058
-1131.03
1706.27
282.053
-1645.37
603.931
-289.017
473.227
1744.64
-592.043
-215.612
-411.401
381.573
723.515
1738.57
-613.398
-511.756
-775.303
1960.53
-870.451
-1090.08
1642.8
-706.492
1223.98
-1824.94
600.962
320.197
-863.617
-186.125
-109.533
1098.68
-486.368
124.76
609.605
-1643.82
440.814
601.281
-1803.81
-583.269
1787.43
884.592
-1162.94
1760.49
-597.551
1783.83
-575.518
-1208.32
438.375
928.256
-1734.51
924.859
-1501.55
275.479
1226.07
-831.339
-1254.23
-384.328
77.2795
307.049
581.707
271.44
1024.68
-446.308
847.5
-401.192
821.466
737.611
-1559.08
643.58
1066.23
-24.4516
-663.828
688.279
-1744.26
722.592
696.565
150.537
-1122.72
1936.75
-674.544
-1262.21
-537.172
1665.51
826.825
962.881
-1789.71
1227.87
683.309
-402.11
711.987
834.969
1028.94
-586.238
1761.48
626.976
1773.56
-1185.63
-587.929
-376.904
-320.494
697.397
121.438
-1185.73
1660.56
-540.262
-1437.84
1437.84
1250.58
594.412
1351.62
206.385
-567.772
282.698
-193.434
699.047
1113.67
483.927
-305.997
-870.499
-574.369
1735.53
-1735.53
1008.46
-1008.46
987.329
1025.17
-2012.5
1837.94
-613.961
-581.102
813.318
-947.847
-1052.16
998.422
690.314
-1688.74
-521.253
-338.337
-644.961
-808.419
2042.69
-1246.42
-613.673
1002.97
974.85
1289.77
646.981
327.264
1012.69
231.237
336.151
1186.28
1756.87
-1756.87
672.14
80.0684
-390.714
-997.05
-539.988
1674.15
989.493
1010.51
-1833.27
-225.107
-361.555
602.579
-341.312