/*--------------------------------*- C++ -*----------------------------------*\
  =========                 |
  \\      /  F ield         | OpenFOAM: The Open Source CFD Toolbox
   \\    /   O peration     | Website:  https://openfoam.org
    \\  /    A nd           | Version:  7
     \\/     M anipulation  |
\*---------------------------------------------------------------------------*/
FoamFile
{
    version     2.0;
    format      ascii;
    class       surfaceScalarField;
    location    "33";
    object      phi;
}
// * * * * * * * * * * * * * * * * * * * * * * * * * * * * * * * * * * * * * //

dimensions      [0 3 -1 0 0 0 0];

internalField   nonuniform List<scalar> 
44730
(
-595.604
669.722
-74.1176
1064.06
-1072.33
8.2688
-334.43
381.162
-46.7315
222.111
-259.264
37.153
-498.137
498.137
214.992
-260.994
46.0023
-383.812
378.722
5.08953
29.6084
-568.081
538.473
664.324
-833.877
169.552
-1009.35
1102.31
-92.959
560.702
-149.231
-411.471
-533.645
536.038
-2.39233
-687.732
582.61
105.121
-859.812
868.871
-9.0593
248.105
68.4075
-316.513
384.873
-10.1483
-374.725
814.434
-666.901
-147.533
-399.063
411.699
-12.6369
160.719
314.819
-475.538
289.662
-355.903
66.2407
-593.943
81.6984
512.245
724.749
-60.4251
49.3339
-383.764
136.421
-489.168
352.747
237.789
-129.21
-108.578
1068.01
-3.94776
659.773
-680.901
21.1284
-278.369
-3.83473
282.204
292.221
-44.1157
-443.486
543.943
-100.456
955.723
-248.163
-707.56
-675.266
765.406
-90.1396
256.841
-225.813
-31.028
481.912
-74.3412
-407.571
133.932
-412.302
263.665
-432.342
168.677
439.21
-581.93
142.72
291.513
-42.1086
-249.404
825.501
-980.471
154.97
1063.31
-237.805
-1018.3
1035.79
-17.493
400.051
-87.6646
-312.386
704.065
110.369
189.704
-315.78
126.076
1228.48
-777.71
-450.77
-591.211
147.725
536.865
-538.92
2.05503
230.483
645.555
-876.038
225.672
537.213
-762.885
-102.229
541.439
-389.083
169.758
219.325
-8.54059
-227.173
235.714
-670.729
-4.53716
237.853
-22.8615
423.5
-38.6263
-274.471
-41.6501
316.121
523.964
-499.451
-24.513
-34.3235
-559.62
-465.996
45.6282
420.367
-298.261
-33.9103
332.171
799.496
17.5787
-817.075
-409.158
569.877
9.34848
-245.591
236.242
-221.296
484.961
-319.357
430.111
-110.754
263.135
241.98
-505.115
495.831
-122.163
-373.668
429.438
-50.2101
-379.228
-452.486
-29.8491
482.335
-986.78
-31.5192
1061.81
6.19301
298.934
284.116
-583.049
-245.099
548.009
-302.91
169.449
84.6729
-254.122
-430.859
380.858
50.0017
-375.13
392.488
-17.3578
276.058
-158.214
-117.844
-250.56
-58.4155
308.976
-699.288
16.5364
682.752
407.705
-87.8533
-319.851
-250.082
250.082
81.4344
-759.686
678.251
-665.596
69.9921
-947.214
848.233
98.9814
-325.307
-58.5044
-16.8837
218.474
-201.59
517.57
-135.316
-382.254
-644.473
-43.2589
652.381
-69.7708
92.7054
83.4081
-176.114
-360.618
97.807
262.811
-306.734
56.1739
846.996
-621.324
567.638
-601.288
33.6502
218.453
-90.8481
-127.605
-356.737
132.522
224.215
-29.4661
259.468
-230.002
-846.757
847.566
-0.808991
-37.2916
-155.463
192.755
264.325
0.530292
-264.856
-711.446
12.1572
-263.004
281.541
-18.5362
778.73
20.7659
433.952
-638.882
204.93
204.851
-213.391
-756.213
820.845
-64.6321
643.786
-716.279
72.4926
74.6398
577.741
943.835
-846.979
-96.8557
-214.627
248.224
-33.597
199.104
57.7365
357.309
123.055
-480.365
1009.09
-256.885
-752.209
17.5782
564.227
-581.805
-12.4073
-587.648
600.055
538.938
-240.004
110.823
422.044
-532.867
-302.914
406.489
-103.575
76.729
-814.822
738.093
-700.04
454.941
16.1822
-218.852
202.669
20.8786
-855.639
834.76
-328.693
323.907
4.78613
-37.5771
300.713
24.0004
-890.983
866.982
-350.668
350.377
0.291124
-72.9125
-326.15
16.8827
-293.759
276.877
705.047
-787.141
82.0937
726.079
-860.289
134.21
-156.844
346.547
176.875
99.1831
194.303
-204.865
10.5628
306.836
-311.513
4.67665
-127.729
561.681
628.753
326.97
148.186
70.9321
-219.118
274.31
-313.268
38.9588
229.98
-263.879
33.8991
-19.9719
284.297
-359.037
8.36842
2.06497
-183.341
181.276
218.071
-56.2788
-161.793
181.124
827.97
-198.073
-739.276
937.348
-101.103
-397.034
523.15
13.7141
238.393
-226.146
-12.247
280.631
-230.952
-49.679
35.5161
-226.81
191.294
-398.31
637.791
-239.481
49.7784
511.986
-561.765
984.116
-886.634
-97.4823
790.868
-787.084
-3.78387
-575.764
-235.016
810.78
-145.61
722.057
-576.447
453.403
-443.328
-10.0756
-211.077
-1.52779
212.605
34.8145
-763.982
729.167
-167.993
-221.09
-243.624
230.372
13.2519
242.569
-20.4579
17.7502
1020.87
-572.449
-448.418
735.195
-933.268
-397.934
95.0197
9.81985
208.252
16.5368
-778.29
761.753
-90.3696
-856.844
416.191
-451.453
35.2617
-106.766
832.844
53.133
-736.788
683.655
-205.807
-5.2699
274.31
10.0502
251.141
-261.191
-432.087
432.087
82.356
680.182
-762.538
-312.206
49.2016
-579.986
597.564
327.838
-316.646
-11.1924
-777.832
-63.2684
841.1
-151.633
452.894
-301.261
432.411
85.159
430.068
-441.934
11.866
276.037
-46.057
-204.394
-329.707
534.101
500.222
-380.928
-119.293
-328.029
20.0476
307.981
786.044
-80.9963
-519.473
-81.0783
600.551
-661.043
661.043
-130.562
504.842
-374.28
95.2409
-346.381
251.14
-919.27
343.506
306.021
-356.623
50.6019
436.661
16.7423
813.72
-496.127
-317.593
917.158
-69.1089
-848.049
72.8609
145.593
-847.454
614.538
232.916
-24.4923
276.801
-252.309
-206.45
225.822
-19.3725
-45.4098
-488.235
875.383
-890.301
14.9187
-57.621
429.177
-12.986
789.049
-793.745
4.69664
247.547
-9.15321
30.6102
-245.237
822.127
-963.813
141.686
245.118
-342.281
97.1639
570.524
-570.524
899.937
-93.2286
-806.708
594.155
73.0976
-667.252
62.9086
-332.596
269.688
-176.016
263.374
-87.3585
-478.386
326.753
52.745
736.304
-392.839
529.26
247.336
-174.475
-684.1
-176.189
484.853
-630.463
453.329
-500.853
47.524
-899.098
1034.71
-135.615
-579.515
555.503
24.0117
506.606
-581.894
75.2875
129.795
735.729
-865.524
211.217
530.793
-742.01
723.347
505.133
322.387
740.919
321.774
-231.812
-89.9616
-293.168
293.168
370.648
-401.551
30.9022
-27.8805
1089.69
268.715
-322.022
53.3065
531.991
-482.212
-297.429
-562.382
551.474
-564.986
13.5116
-29.1219
904.504
265.955
-290.447
-240.892
210.034
30.8582
498.837
-587.552
88.7149
-197.576
959.096
-761.52
588.628
-82.0217
772.303
-382.895
-389.408
338.001
-48.3386
471.988
548.88
-207.974
191.09
-743.839
59.7394
-936.171
37.0726
477.346
46.6179
-679.945
891.162
-695.89
-60.3237
184.776
-205.294
20.518
-73.9987
915.249
-841.25
-38.0539
-817.793
855.846
179.742
-177.677
55.2033
174.009
-229.212
-7.63266
-365.955
373.587
329.154
-312.271
-610.663
212.353
-241.007
439.613
-198.606
908.557
-678.075
304.532
17.2422
310.627
-13.2884
-297.338
-568.979
165.089
403.89
460.085
-30.0168
523.403
-727.797
-375.551
0.420815
646.441
-746.166
99.7256
-227.381
155.975
71.406
-656.108
638.924
17.1841
232.942
-222.892
69.9113
177.424
-743.829
826.185
-308.658
325.623
-16.9646
67.9749
-362.477
294.502
233.014
-206.874
-26.1404
526.04
-328.375
-197.665
10.5914
-346.487
335.895
-496.972
484.564
-74.5408
275.127
-200.586
-662.949
160.657
502.292
-343.953
-12.784
653.728
6.04519
444.643
-21.143
-163.335
11.7866
151.549
-23.6229
728.286
-704.663
-856.909
986.704
320.458
-153.334
-167.124
677.309
-775.09
97.7809
425.179
347.124
706.211
59.7641
-765.975
818.104
81.8331
556.345
-527.886
-28.4587
1093.72
-1012.32
-81.4069
2.44536
-292.984
290.538
289.04
21.5869
96.4024
141.386
209.937
-15.634
199.103
-197.664
-1.43979
139.992
151.408
-291.4
-302.379
282.441
19.9377
-165.746
-299.291
465.037
419.576
-550.137
-317.438
200.342
-190.663
-9.67891
191.404
1008.9
-559.771
-449.129
525.723
-109.08
-416.643
134.867
508.919
83.9172
472.427
-0.85478
-696.786
715.244
-18.4584
43.4603
-546.527
503.067
-94.5245
-248.556
343.08
-448.042
38.8262
409.216
-140.291
-335.878
476.169
779.994
-1.26411
24.4698
198.649
-385.769
187.12
153.92
-228.461
-920.892
849.735
71.1567
-292.995
306.063
-13.0681
673.985
-86.6706
-587.314
1047.01
-603.805
-443.204
198.517
-189.705
-8.81217
262.414
-111.887
-150.528
-420.529
417.806
2.72324
662.481
-30.868
-631.613
-696.424
-0.362053
379.428
28.2762
-559.788
448.577
111.212
584.771
-578.11
-6.66089
-855.763
44.4061
811.356
856.373
33.1974
-889.57
-424.281
283.99
-202.683
39.3477
-329.237
537.447
-208.21
-187.437
-53.4552
754.994
-793.048
-147.362
202.566
540.844
-168.061
-372.783
-123.423
-308.664
214.988
-215.037
0.0488488
619.597
42.8831
683.362
-608.723
24.9086
-302.263
277.355
837.894
-876.533
38.6394
-308.453
-8.19296
957.587
-960.652
3.06555
61.3734
192.674
-254.047
680.189
-33.7478
571.014
-592.689
21.6749
-828.347
849.226
207.494
-191.312
786.54
212.039
747.057
155.263
192.468
-347.73
-297.709
-6.44088
823.683
-72.1511
-751.532
598.558
-130.983
-467.575
255.238
-85.4806
80.4236
415.408
88.2263
-264.242
473.758
-503.798
30.0399
141.425
-347.764
206.339
137.527
388.513
58.4508
858.707
653.138
-773.185
120.047
-22.423
980.01
-288.959
-17.7528
306.712
-218.766
206.918
11.8488
-3.4088
172.858
47.9901
452.232
334.832
-342.464
-352.123
32.766
-344.844
46.5824
838.339
-58.3447
85.7516
-231.996
146.244
-957.994
21.8238
-921.963
-36.0315
-486.325
58.8054
427.52
-735.524
904.707
-169.183
-200.929
-60.3305
261.26
-122.46
-90.7603
213.22
-154.964
-45.3299
200.294
-133.19
228.514
-95.3243
853.465
422.057
-223.408
158.172
-11.9293
-567.585
-879.74
-41.1519
447.579
150.98
193.234
-522.471
200.789
-1107.12
906.335
19.6504
207.991
-227.641
-0.20977
-206.24
418.136
26.5069
89.1055
701.762
278.132
12.2622
-290.394
-468.751
579.574
728.845
72.7488
-801.594
-779.853
-7.28782
802.445
-856.075
53.6303
301.612
-287.286
-14.326
86.8323
233.626
850.874
-864.924
14.0494
978.828
-862.146
-116.681
939.274
-943.791
4.51771
-398.329
-161.459
-1.48175
-873.301
544.955
328.346
-177.903
161.284
16.6189
-246.14
386.133
139.36
91.102
-230.462
754.574
267.368
-258.019
431.552
94.1711
783.896
-698.486
-85.4093
-52.4076
-104.195
-91.3238
195.519
-305.113
261.487
43.6262
862.724
-838.724
-21.0988
378.598
-357.499
-330.707
-28.3294
572.045
-583.226
11.1807
366.283
-327.406
-38.8773
-828.572
731.236
97.336
-905.836
831.837
142.934
119.481
-405.326
276.096
129.23
467.011
-453.503
-13.5082
620.942
-622.626
1.68322
518.016
-44.2578
-316.748
-131.962
448.71
7.14389
-296.103
-66.1789
-249.959
316.138
544.287
563.93
-1108.22
-900.862
849.219
51.6426
0.95009
-404.333
418.001
-13.6684
431.203
-399.353
-31.8498
673.522
-848.364
174.842
711.764
-883.087
171.323
-502.28
-160.669
-437.444
62.5547
374.89
303.033
-5.90648
-297.127
-326.133
171.169
477.068
83.6336
-719.726
-108.846
13.4767
185.627
-299.41
302.945
-3.53482
26.7549
-337.147
310.392
489.216
40.2573
-529.473
-237.379
302.357
-64.9779
-896.193
-19.6371
915.83
-197.644
-37.3428
234.987
6.22871
-848.782
842.554
804.701
-118.369
-686.332
337.221
145.241
-211.42
-874.874
-21.3197
808.727
41.0086
0.853857
550.531
-193.222
-511.095
-18.1404
529.236
-801.991
913.794
-111.803
313.094
-245.119
-404.542
310.018
-29.9065
590.649
63.0783
382.712
-241.287
303.141
510.579
-12.4962
24.4355
341.848
-779.097
89.3915
689.706
456.179
95.2953
-130.45
-29.6227
160.072
-851.805
-23.0686
66.7349
333.316
-191.578
231.99
-40.4123
43.3987
-280.777
-287.222
278.08
9.14168
-17.6662
25.1317
-513.655
488.524
-611.619
-134.547
-19.6261
299.926
-280.3
-336.367
459.422
599.386
447.623
-1102.78
430.488
672.29
328.864
0.262815
-329.126
-234.105
-167.007
401.111
-525.552
555.16
-661.286
-19.2381
680.524
100.355
81.843
-182.198
-44.2521
799.246
839.346
-862.7
23.3544
807.413
-154.275
36.7419
-604.823
-322.725
-23.7612
556.787
57.7344
-614.522
437.426
22.659
-348.707
391.134
-42.4266
-853.898
-3.72128
857.619
-27.8198
-823.985
279.268
-286.02
6.75211
625.219
-4.27641
571.858
-416.592
-155.266
-217.415
273.919
-56.5041
-87.1261
-264.997
-419.8
-46.1957
895.973
-184.21
-824.755
89.2311
-629.205
17.5859
-538.36
48.5402
489.82
820.549
-39.6254
-780.923
-258.546
125.357
2.95761
-356.62
353.662
862.118
-188.597
306.152
-3.11884
637.095
-66.0807
494.305
-5.08904
801.346
-712.241
-1045.14
-57.6419
444.556
22.4556
535.621
32.0173
729.711
-694.897
796.431
-38.6551
-757.776
190.83
-228.122
273.194
-11.7075
-117.765
209.099
-173.583
474.905
15.3656
-490.27
576.184
-95.5811
-480.602
-458.452
421.472
36.9802
128.841
672.506
10.6369
-100.948
-757.104
858.052
75.6583
-666.341
590.683
223.428
-301.665
78.2372
-744.835
643.887
91.7034
712.997
-504.408
1048.69
229.971
-144.22
-281.903
-177.139
252.292
-75.1532
205.819
-267.186
61.3662
-178.74
318.101
10.7374
-341.445
-51.0225
4.89539
-409.847
404.952
-47.5061
-161.369
-194.534
-27.8432
365.606
-337.763
-870.855
944.461
-73.6058
45.4806
-527.99
482.51
29.0675
-247.834
-755.725
106.021
649.704
357.987
-224.055
819.407
1.14175
-35.3115
225.347
-190.036
441.106
130.752
-104.735
-332.709
816.181
-201.643
-95.2229
-914.125
614.718
-330.602
124.252
55.9684
651.983
-570.549
495.329
-13.4168
340.878
-34.8569
338.616
-420.955
82.3395
191.802
-235.234
43.4324
51.7131
245.894
-297.608
339.517
-505.263
-5.9017
761.956
-806.209
537.476
-62.5708
-107.239
738.912
-631.674
-268.559
301.996
-33.4375
-70.1623
293.591
199.789
-189.969
-279.471
10.9123
-1060.5
588.438
472.064
-35.8394
-78.7496
171.455
-308.187
293.82
14.3674
-675.996
692.533
267.453
-272.189
4.73585
-482.85
183.559
-503.912
-556.59
236.265
-278.373
847.164
-946.595
99.431
-343.445
20.7191
488.271
-626.789
138.518
-2.72236
811.449
265.192
-285.528
20.336
-325.955
-547.346
-37.1874
292.59
-25.1373
364.409
-129.428
-234.981
-19.8244
-844.421
864.245
-877.933
488.936
388.997
-55.6049
735.787
-460.559
40.7596
-140.427
-123.395
263.822
874.492
-821.335
-53.1573
391.197
-324.462
797.599
4.84641
109.502
78.9464
-188.448
-580.554
1024.4
-443.844
142.474
-190.251
47.7777
-759.002
-144.972
903.974
143.454
220.954
853.507
-31.3804
813.468
-736.739
502.547
-422.124
-17.0664
-228.524
41.9094
150.007
-191.916
311.013
239.517
-22.4385
-1098.2
619.197
479.002
8.64817
891.71
-60.5398
-831.17
-430.522
622.254
-191.732
57.1334
756.335
27.3477
-538.443
-590.505
-18.2056
608.711
415.141
141.461
-556.601
-264.767
-522.317
278.451
62.4264
-175.209
-74.8728
-405.845
352.393
53.4518
-793.354
297.226
199.803
-260.681
60.8786
225.867
-263.871
38.0035
429.131
-424.236
730.044
52.0459
-782.09
-203.029
47.5665
824.505
20.7779
-845.283
-370.52
20.8834
349.637
118.64
860.188
-408.326
453.954
411.01
-72.3945
-954.563
99.7344
854.829
789.12
102.59
-33.833
225.635
50.1526
381.05
901.41
133.303
24.0368
-484.596
28.8007
-827.118
798.317
700.721
-769.732
69.0109
636.343
465.963
769.008
-56.0308
-712.977
191.593
-49.1197
76.0956
339.233
-415.329
-735.258
792.391
260.792
169.319
-276.948
168.732
108.216
-111.232
-426.774
538.007
-31.3665
-212.258
1004.42
-573.927
88.4521
-289.381
181.747
-217.058
-106.698
-152.566
30.7736
820.101
-167.504
507.021
-604.684
758.395
-153.712
685.427
-709.05
-397.936
379.795
-442.987
-179.638
39.3102
349.018
-14.8739
-334.144
-46.2904
808.247
-505.248
-623.367
1128.61
287.978
-243.352
213.886
2.8936
196.895
-251.873
122.663
-885.341
909.009
-23.6673
-282.638
259.426
23.2115
73.2019
710.694
3.36196
765.646
635.105
-15.5072
-14.994
-511.282
472.168
39.1138
933.089
17.1511
-950.24
-322.07
-48.4503
-0.250059
-234.645
799.661
-69.617
529.012
-623.071
94.059
-762.121
-84.6359
12.6002
289.011
890.394
11.016
-490.342
440.511
49.8304
-950.457
-94.6791
41.7284
-377.451
335.723
-221.865
247.568
-25.703
253.618
-47.799
-39.4718
1050.3
-313.217
-737.079
579.551
-50.5382
54.1721
-263.254
-69.3419
-689.342
776.164
-86.8214
-81.0151
-17.6167
243.484
504.61
-5.77287
92.7881
-870.62
-85.9324
209.506
-123.574
-205.757
217.517
-11.76
-681.782
570.55
-454.854
479.985
344.297
46.8998
-459.805
424.454
35.3509
583.653
425.246
498.214
-459.8
-38.4148
491.416
-318.464
-172.952
-185.734
27.52
349.487
-20.9247
-328.563
-254.885
77.746
-328.434
290.857
-219.048
-636.714
-691.634
-81.5511
258.345
-58.542
664.989
197.13
7.05604
223.316
816.994
-84.023
-732.971
328.388
-141.989
646.884
-504.895
237.659
-297.99
-93.572
508.713
-751.066
7.23719
-121.266
-106.115
500.007
-96.6449
785.442
-688.797
-197.951
229.95
-31.999
-36.7801
-245.858
829.583
-737.879
218.715
-427.644
-408.434
836.078
864.969
-199.98
-42.7004
791.296
-748.595
597.319
-6.6695
17.6248
-608.13
282.63
143.512
-426.143
-403.848
479.943
-24.3558
-315.107
339.463
-616.488
65.13
551.358
-135.586
508.766
-373.18
-482.667
408.359
-482.472
74.1136
105.174
-172.317
67.1429
-182.703
337.966
-195.866
-179.684
733.016
-32.2954
102.243
581.12
-610.995
648.773
-37.7781
269.713
-289.339
-810.868
-51.8322
96.896
-432.774
590.12
460.176
-615.756
172.769
418.915
-846.559
380.613
-681.867
28.6482
653.219
-187.359
233.356
-45.9975
-816.299
886.697
-70.3977
-47.8357
-432.099
479.934
1005.36
-405.634
-599.727
-68.1343
-787.941
-18.3525
297.621
-950.461
207.431
743.031
-857.697
-92.7646
-170.938
-6.96474
-777.769
731.478
-128.91
-302.737
431.648
-8.91979
-270.692
279.611
160.213
647.2
237.596
148.012
-385.608
-902.865
154.569
748.295
541.133
-580.893
39.7601
604.534
58.5872
-663.121
-45.1443
673.593
-639.901
-33.6923
352.516
-23.6519
-36.2421
241.647
-205.405
608.456
65.1376
13.2451
-793.098
721.537
-777.568
-176.529
218.438
332.319
159.097
131.77
-327.637
201.384
-204.461
3.07666
338.932
-198.29
-140.642
592.216
42.8882
-748.503
801.395
-52.8917
-402.314
-98.2689
500.582
-7.8449
-291.565
240.154
59.3403
-299.495
244.898
-96.4792
-148.419
418.212
-466.047
-61.7143
-740.276
-410.462
87.2873
145.727
500.028
-434.297
-65.7316
-233.824
253.475
-197.115
190.405
6.70975
16.1268
-218.607
202.48
-321.678
378.411
-56.733
221.43
-19.6318
-201.799
450.46
554.901
-258.879
555.428
-473.73
141.925
-235.409
93.4839
-197.876
-20.4112
218.287
701.266
-96.7323
235.44
-165.528
-358.75
273.16
85.5901
-423.617
-17.2404
440.857
-351.881
448.777
308.054
-324.857
16.8028
-15.2094
29.2639
473.283
462.659
35.5554
35.4084
-459.025
215.603
-5.56921
-335.785
-7.65992
-368.209
298.275
69.9336
340.871
-62.4196
674.935
221.038
-229.905
246.031
-286.208
306.256
102.184
655.214
-757.398
-737.402
-25.2645
762.667
1.81756
160.343
16.7767
-338.455
-690.649
621.08
69.5693
122.865
-171.856
169.823
2.03299
434.848
-152.218
-253.769
-173.595
427.364
-163.169
-348.113
217.676
-16.2917
-253.913
113.486
97.0602
-182.993
-1009.54
696.319
-347.117
347.117
851.469
242.255
-35.1965
-509.092
-500.443
208.756
327.282
527.99
42.5342
544.735
-50.4303
271.622
-272.073
0.450734
-629.347
662.168
-32.8203
-50.3179
-532.045
-47.9412
-633.467
713.581
-80.1146
83.8672
-493.026
-352.815
539.416
5.31921
524.274
24.3781
-548.652
748.859
-647.005
7.10413
-114.601
-63.0813
177.683
-416.952
88.518
309.663
-31.5674
-278.095
-156.32
-46.3633
-300.133
288.029
12.1039
-289.33
71.9159
870.453
-195.518
-339.864
46.105
768.886
-1.98821
-766.898
584.15
-658.917
74.7668
-922.858
830.378
92.4801
-22.8472
-638.439
110.346
296.143
-21.818
-260.604
282.422
-785.251
25.5653
-202.066
-288.355
266.537
-466.029
511.509
-266.495
266.42
0.0752938
-300.549
302.002
-1.45277
-812.703
705.464
995.978
-148.815
-171.837
292.819
-231.445
361.549
-169.081
420.963
-324.393
-96.5694
285.869
55.0021
811.439
-89.2169
-722.222
184.538
-681.51
-758.109
674.339
83.7708
6.01873
-617.108
624.738
-7.63059
60.3009
175.139
-101.462
521.038
-269.424
289.378
-19.9538
378.947
-458.066
79.1191
-608.577
649.129
-40.5521
585.988
43.8776
-629.866
254.27
-221.955
-32.3155
557.026
-25.4138
-531.612
236.552
-124.872
-111.68
-129.198
-49.6518
178.85
957.745
-948.504
-9.24162
-575.494
-388.319
-45.9281
-758.15
804.078
-897.636
834.368
-588.547
371.09
217.457
605.057
-623.263
-13.8382
675.835
-661.997
20.671
147.458
-168.129
-50.6486
-286.498
-855.98
-66.8779
15.4703
365.387
334.055
-739.689
218.553
-2.95009
-225.771
225.771
410.928
-144.917
-266.011
-911.313
25.972
-2.9069
-23.9947
-480.575
504.569
-753.774
-80.5542
486.775
-406.221
-252.388
-408.654
431.563
-10.0907
-50.3179
258.308
153.976
184.955
-547.553
398.323
-161.201
398.797
338.402
-52.5329
763.294
-710.161
-283.763
-6.0647
270.803
-946.896
-3.56134
5.61411
927.475
532.57
-448.703
-842.755
577.016
265.739
10.0582
259.306
-269.364
350.767
-9.84415
-340.923
-461.45
30.9276
-835.462
749.188
86.2744
-132.423
-189.647
188.587
37.3582
-225.945
212.892
125.509
-800.99
17.8726
-591.516
324.67
266.846
60.3231
246.513
360.649
-324.436
-36.2129
-374.579
399.32
-24.741
847.409
-513.355
-454.916
312.927
-319.471
189.823
129.648
423.377
-720.806
568.352
-27.2193
811.243
-807.881
79.7386
156.813
-830.004
813.555
16.4494
-795.026
46.5229
-472.163
-527.848
1042.65
-186.28
931.091
-835.185
-95.9058
-521.121
-463.313
984.434
-48.1314
-254.247
56.6585
224.558
-229.225
4.66749
-21.7864
-56.0632
733.372
470.519
-36.5499
-433.969
-371.129
-197.851
28.1238
-92.87
-249.411
-147.105
427.052
-279.947
-925.694
925.694
92.5406
-808.054
490.461
-510.582
69.0989
441.483
-211.068
-194.258
168.288
-168.364
-379.189
-558.226
389.862
599.061
55.1347
189.763
418.772
-930.145
511.373
-22.847
300.979
-224.815
-261.51
-213.509
427.371
-95.0517
-179.603
-139.868
-65.4795
-835.382
452.423
-517.999
65.5759
17.8199
-696.025
779.394
-83.3686
415.777
-419.942
4.16522
245.037
-567.029
529.753
37.2763
108.266
115.027
-223.293
198.269
-234.511
378.942
-708.785
329.843
110.538
758.333
171.748
239.18
-68.5622
-492.946
468.952
291.954
-306.056
14.1022
416.333
-37.386
353.971
-381.814
-21.2273
-367.578
388.805
-17.8161
-293.697
302.087
28.6938
-330.78
-429.147
282.041
-387.182
38.1998
631.153
-749.522
-409.652
531.731
-312.536
-91.7968
976.646
-866.108
-492.765
-312.289
805.054
295.243
35.8335
291.017
-326.85
-459.161
148.448
-280.871
-51.6602
450.661
-563.741
113.081
47.4193
613.623
-183.795
69.1939
346.839
-286.516
708.745
-329.803
273.147
-175.34
23.6719
364.637
-388.309
-27.6133
-293.173
-9.09087
-252.48
249.585
2.89515
2.12459
560.238
-532.89
50.2724
-891.584
113.294
800.374
-2.77531
328.647
-115.755
525.491
328.704
-854.195
598.394
239.945
670.921
-767.566
-752.338
107.566
644.772
299.423
41.5338
-340.957
183.116
-175.592
-7.52331
34.1144
274.634
572.932
-195.646
32.0222
163.624
-156.703
-607.034
763.737
-339.346
365.44
-26.0941
-249.599
293.675
-44.0758
-147.668
-174.354
-255.612
208.43
47.182
920.094
-920.094
-87.1813
727.016
-639.835
294.516
-207.684
344.273
-68.177
-658.067
188.477
26.7487
-215.226
42.6378
-582.528
539.89
30.2822
-226.607
196.324
908.428
-914.091
5.66236
301.237
-674.607
373.37
337.084
-295.356
51.025
309.624
-350.745
876.236
556.925
-106.264
-72.2777
-240.991
-400.474
319.762
80.7126
223.727
-345.89
331.131
-500.599
169.469
-232.903
45.5443
-873.297
-73.5984
35.3077
-731.333
313.031
-180.509
796.376
-773.252
-23.1244
434.065
53.5518
-487.617
-685.513
610.633
74.8802
-271.587
224.232
47.3554
319.617
-27.6638
-426.074
-254.828
880.681
-836.519
-44.1625
-357.535
658.772
128.155
-530.468
-864.948
11.0497
-55.0924
-603.913
659.006
35.1942
-137.208
-139.74
-917.071
416.177
500.894
187.176
3.22977
449.253
-33.4761
543.447
255.443
-273.162
17.7186
-333.748
-5.82097
339.569
-545.123
442.893
-8.38323
-193.699
202.083
229.133
-40.6556
-91.1942
366.295
-275.1
-353.953
5.24562
434.218
-9.76374
59.0794
-808.687
749.608
-664.273
664.273
47.8571
189.802
-90.9636
-507.425
598.389
-854.485
938.111
-83.6263
741.135
55.2407
-14.1224
-834.556
848.678
323.455
-340.621
17.1657
324.57
13.2542
-337.824
584.72
-636.809
52.0885
25.8052
317.689
-343.494
-201.822
-125.45
327.271
191.798
-8.68239
107.634
-711.123
603.489
-760.026
267.261
348.108
-312.275
793.733
59.7738
-77.303
-433.279
340.941
-391.151
-681.891
102.693
579.199
327.934
-268.755
-59.1793
-530.817
616.078
-85.2605
-81.7212
-362.78
444.501
406.74
-382.305
-588.401
-328.67
598.098
-726.01
127.912
-409.768
-432.988
837.862
-39.7144
-645.799
122.947
454.829
-577.776
563.554
-644.732
81.1782
28.4308
-259.383
11.1108
-692.978
-318.863
321.821
-6.65239
570.473
-692.699
122.225
-344.489
-430.601
2.39563
-685.476
697.976
-12.4993
763.066
-164.672
645.367
-102.733
-542.634
213.126
286.902
286.418
-296.227
9.80952
807.726
-935.87
128.143
-651.952
-100.385
-287.702
18.278
-325.946
86.6452
239.301
-55.9004
640.621
90.4677
-274.6
184.132
357.119
-335.23
-21.8882
-337.578
-253.938
-22.5102
207.286
-35.6218
-169.672
234.217
141.825
-376.042
-270.881
318.836
-47.9556
591.094
-682.058
22.1188
287.544
-261.602
-64.3436
-286.027
-302.52
-711.315
540.731
170.585
-112.785
-148.209
-156.845
65.997
-577.621
536.282
41.3394
576.954
-1098.08
-24.272
-1014.11
-140.842
375.815
51.5556
-22.1184
-51.3743
-759.962
128.288
854.399
-848.171
617.367
-76.6363
1.8593
589.233
-591.092
-287.264
-163.087
450.352
-52.2025
-219.384
11.3591
191.42
-214.014
22.5937
-992.897
228.915
449.245
-118.115
19.6262
-627.925
608.299
300.21
-365.301
29.7517
335.549
62.635
574.009
-636.644
-102.232
772.57
-670.338
-669.553
-195.371
-731.435
39.9098
691.525
-29.8157
566.514
-536.698
925.862
-917.244
-8.61747
566.112
-621.204
-611.185
-23.5477
634.733
-394.825
123.944
254.236
-276.781
22.5454
801.528
-772.727
-95.8542
730.785
-634.931
458.208
13.9601
-433.603
-669.735
604.136
65.5988
399.747
-92.129
-563.979
-46.6475
-10.6641
-399.183
-33.8698
241.374
-207.505
20.2254
327.883
-359.639
363.699
-4.0592
747.662
-793.59
127.744
133.515
211.212
-222.578
11.3665
684.16
-775.253
91.0924
-319.117
-678.726
-10.6161
795.575
74.8788
290.751
120.26
812.507
-16.9323
-9.02946
-1029.48
173.841
3.93523
22.0507
-568.578
159.968
-139.297
-1083.06
-239.74
231.356
74.7326
219.783
-107.504
-467.108
574.611
-2.41944
-477.444
479.864
838.919
-31.1924
570.029
75.3379
-33.9848
-200.957
234.942
745.619
-788.319
-155.37
389.588
-410.423
446.962
-36.5389
-679.327
723.077
-43.7499
306.091
-363.825
17.4437
394.505
-148.096
-246.409
174.71
-511.311
465.928
45.3831
3.83441
-461.119
464.418
-3.2996
613.651
-596.026
40.0829
-165.433
599.498
-292.172
57.4356
440.702
40.7839
607.937
-648.721
-70.6541
-155.159
216.502
7.72971
31.8988
-388.8
23.4991
-416.052
5.62844
249.555
-251.427
1.87124
711.229
-682.581
-484.031
83.2469
400.784
-42.2169
626.367
-13.6088
-204.998
914.258
-141.753
-772.505
518.881
537.488
-1056.37
-301.793
-13.9871
289.589
4.23083
10.2935
272.147
-693.768
-3.38849
697.156
592.235
-748.937
-222.309
192.43
29.8789
-526.846
-23.1539
-643.187
2.33674
139.588
-136.849
-428.137
-121.533
212.001
18.0099
-638.73
620.72
-38.3619
-497.886
536.248
-267.7
293.506
-69.2546
626.042
-730.527
754.691
-24.1644
217.677
-482.444
236.88
-252.49
15.6102
-15.6636
-839.365
26.6627
246.088
-447.91
911.103
-921.584
10.4812
637.408
13.0291
-650.437
-51.3584
-541.33
-807.252
840.45
115.413
-206.737
897.672
-78.2651
237.458
-12.9002
-60.433
-716.006
776.439
-88.703
-596.773
-23.2726
547.546
-675.882
23.9299
206.904
-243.024
36.1202
-233.503
0.672563
232.83
-557.817
533.544
24.2728
-217.192
87.994
51.3626
96.0398
-147.402
-880.252
314.553
18.6159
-333.168
54.9311
637.901
-692.832
-341.019
372.674
-31.6553
-651.703
-24.1791
-664.613
766.796
-896.835
127.684
769.15
-143.793
-168.413
-444.351
63.4231
-456.846
-615.483
244.68
22.6881
-287.094
289.085
-1.99081
178.063
-69.7972
-421.729
393.247
28.4819
-954.89
972.041
-330.772
127.244
203.528
139.758
20.2095
524.825
859.875
-879.699
277.555
-43.9297
369.46
-505.045
-789.685
811.538
-21.8524
-353.418
-185.848
539.266
129.752
-167.988
38.2364
426.064
-527.527
749.756
-685.906
-63.85
-265.882
-35.9102
318.092
-77.9373
313.303
-291.184
329.615
-652.032
-17.7031
5.59683
633.327
-374.104
150.049
20.6442
-891.5
549.601
-388.943
608.143
368.503
423.211
8.35184
744.665
-805.098
-39.4749
-17.033
827.284
70.3877
421.066
-499.758
78.6913
210.914
-192.79
-18.1238
-210.608
236.631
-26.0233
-5.6431
341.641
-335.997
-618.046
658.83
440.229
256.509
-216.926
-39.5832
363.356
511.136
312.556
-333.48
709.844
101.595
80.6191
-604.166
523.547
639.665
-35.5286
11.5851
-930.626
114.089
816.537
219.146
-256.489
-249.067
-793.262
732.271
60.9912
5.17491
814.671
-819.846
928.972
-928.972
-377.289
17.65
602.822
36.8424
-109.102
-34.5049
-197.635
232.14
437.455
27.6954
-465.15
-433.75
19.7794
413.971
191.211
972.17
-453.288
-221.865
35.9068
185.959
-627.453
630.713
-3.25957
424.266
-469.215
44.9487
-430.693
-3.05695
44.2672
-763.816
719.549
-636.456
-63.5839
-548.799
518.428
30.371
-367.935
280.809
32.8611
-250.839
217.978
-165.907
-164.865
-28.064
240.321
-23.8188
48.0339
287.689
-275.427
-71.3695
791.606
365.492
-50.9396
-769.695
32.2922
-890.021
814.435
75.5866
135.413
276.286
380.267
158.671
-756.802
859.003
331.31
192.855
-524.165
-161.565
594.443
-644.019
49.5768
481.172
60.6175
-541.789
643.371
-345.189
-298.182
-478.501
-122.787
-782.899
680.666
26.3304
-688.066
661.736
-711.275
108.498
602.777
-762.884
-5.65281
36.9604
508.514
-87.4479
-525.327
357.823
555.914
-585.729
-35.3632
-64.7949
223.392
-158.597
49.6043
-683.071
-233.294
-226.747
161.952
-27.0935
296.369
-124.093
-172.276
174.836
-8.35349
-632.454
721.846
-37.6617
217.886
-180.224
869.863
-629.979
12.8714
158.286
188.553
0.997969
397.444
-398.442
-225.085
-201.758
426.843
180.928
763.534
379.095
-355.423
-843.142
7.68035
626.399
-609.863
-0.576148
-814.978
815.554
589.533
16.0251
-605.558
846.307
46.4989
-892.806
308.203
-6.20125
121.911
-409.176
425.578
8.63961
-254.811
334.511
-79.6996
190.2
381.173
-90.4222
610.884
-54.5533
-556.331
-757.903
784.542
-26.6394
15.0055
650.109
-665.114
-646.75
115.933
-5.55379
-442.212
609.104
34.2857
322.833
-29.3826
184.74
-84.3844
-335.312
1.5638
95.9506
742.968
2.80686
-276.507
273.7
-421.919
-508.226
-57.4357
-757.763
815.198
245.945
-53.2716
198.641
-275.438
76.7967
199.7
-95.3931
-218.715
-516.876
-581.323
-792.122
-18.7458
-164.573
-815.753
776.444
39.3098
-34.3392
469.484
-435.145
59.7811
821.337
-881.118
194.908
-143.545
775.722
25.6724
-238.707
204.202
19.7101
-304.933
285.223
575.714
-573.855
-643.532
133.307
510.225
-558.214
586.699
-28.4855
28.9697
257.448
-665.248
-441.876
608.537
45.7942
-654.332
-721.937
606.753
-679.208
72.4548
-155.511
-40.1347
449.925
-484.248
-846.892
852.067
107.066
-307.958
-588.876
-642.339
593.241
49.0978
176.684
-71.5097
-43.2166
463.978
179.393
-574.855
61.1998
514.344
-526.853
12.5092
73.3022
-717.652
644.349
265.852
-16.2968
-309.438
165.177
144.261
-564.967
589.345
-119.58
468.506
-348.925
681.404
-86.9615
-0.144882
-316.595
316.74
-447.023
-442.74
889.763
-164.131
265.544
-101.413
-102.898
-578.993
-568.549