/*--------------------------------*- C++ -*----------------------------------*\
  =========                 |
  \\      /  F ield         | OpenFOAM: The Open Source CFD Toolbox
   \\    /   O peration     | Website:  https://openfoam.org
    \\  /    A nd           | Version:  7
     \\/     M anipulation  |
\*---------------------------------------------------------------------------*/
FoamFile
{
    version     2.0;
    format      ascii;
    class       volScalarField;
    location    "4";
    object      p;
}
// * * * * * * * * * * * * * * * * * * * * * * * * * * * * * * * * * * * * * //

dimensions      [0 2 -2 0 0 0 0];

internalField   nonuniform List<scalar> 
29659
(
0.0771974
0.794737
-0.0736078
-0.273392
-0.0203502
-0.307983
-0.0179362
0.0787664
0.0171829
0.00153986
0.0613886
-0.0356854
-0.00405909
-0.000207141
0.868425
-0.0494003
-0.00137244
0.449063
-0.0181004
-0.085897
-0.00726075
0.0161381
-0.074174
-0.017867
2.72005
0.789547
-0.00435196
2.31748
0.846131
-0.0127887
0.132787
0.399509
-0.391363
-0.0480334
2.33854
-0.0410297
0.898492
-0.222172
0.0473977
0.0459591
0.00361291
-0.127466
-0.00122927
-0.0876223
0.000266697
-0.0110212
-0.0308773
0.000626026
0.0282064
0.877623
0.0326777
-0.243723
0.410337
-0.299682
-0.0482976
0.802722
-0.0283319
-0.00746113
-0.0316136
-0.0968389
-0.000509112
-0.0175311
0.417346
-0.03486
1.33221
2.55906
-0.0533474
-0.0681907
2.44223
0.00376012
0.782927
1.94354
0.0212402
2.58596
-0.0640242
0.221818
0.841567
-0.201051
-0.000382288
-0.0932278
-0.28098
1.03805
0.076695
2.44476e-05
-0.00260882
-0.142995
1.44288
-0.00420379
-0.00392473
-0.414431
-0.158701
-0.202159
0.0260593
0.416362
-0.427026
1.46586
-0.196803
0.00399491
-0.296701
0.976788
-0.000403474
-0.18911
-0.000497262
0.3026
-0.25033
0.68396
1.68874
-0.00377625
-4.13122e-05
-0.33394
-0.394665
0.130704
2.33483e-05
-0.0122554
-0.00137774
1.90294
1.11804
-0.0938416
0.000203604
0.0241926
0.163427
0.841367
0.17239
2.55988
0.00911665
0.263779
0.471489
-0.0676419
0.0342291
0.000208737
-0.0792613
0.814954
1.87605
0.100083
0.299642
0.129202
1.50856
-0.193251
-0.358832
0.952716
0.287639
-0.363068
-0.34511
1.64769e-05
-1.59816e-05
-0.0208614
-0.0287276
-0.308522
-0.205276
0.551052
0.222599
0.114472
0.00364591
-0.00109685
1.08499
0.00443287
-0.060682
1.43938
1.28079
0.050304
-0.270403
-0.26607
0.825042
-0.000396999
-1.78913e-05
-0.0943193
-0.337203
0.000437314
1.2871e-05
-0.0557728
0.000322351
0.0481876
1.47063
-0.190822
-0.210404
-0.0409884
0.0174788
-0.193792
-0.00969838
0.213127
-0.000125103
-0.00723423
1.43286
-0.0645054
-0.356595
1.08982
-0.0510027
-0.143788
0.0319457
-0.0111788
-0.00231826
0.0246932
2.59548
1.07
-0.11059
-0.0583305
2.17919
0.975713
-0.420206
0.00964609
-0.0811425
-0.347194
-0.0338035
0.00705058
1.49627
-0.0540093
0.0577171
-0.312688
-0.34245
-0.000253212
2.05833
-0.00854378
2.64394e-06
-0.00450551
-0.14577
0.493584
0.00154408
0.056304
-0.0176863
-0.416824
0.000243144
0.00398871
-0.0190309
0.5676
-0.0227345
-0.0116974
0.392498
0.00107438
0.000248843
0.0442265
-0.208449
-0.172644
-0.0385472
0.776005
-0.117946
0.119673
-0.000217671
-0.024562
0.00657712
-0.0662922
-0.427075
-0.0113406
0.00393559
-0.0125544
0.0248711
-0.0840888
-0.000375897
-0.127709
0.00036715
0.575513
-0.0274558
0.00122131
0.692806
-0.358296
0.00208441
2.26132e-06
-0.363966
-0.414943
-0.0714309
-0.0777341
0.222657
1.37496
0.000653026
-0.202229
0.176903
2.23376
-0.0652536
1.07681
0.243618
-0.00139071
3.07392
-0.00451423
-0.225459
-0.411127
0.0187107
0.387696
-0.0671729
1.88432
-0.0282884
-0.141693
-0.00207455
1.15903
-0.0203981
1.49388
-0.00424024
-0.0470394
2.21514
0.501146
0.391411
-0.246986
-0.00126325
0.02406
-0.00144185
1.27748e-05
0.561147
0.000314107
-0.154441
0.165498
2.74806
1.85313
-0.319645
-0.141869
-0.165475
0.112735
0.0295577
-0.145368
-0.332216
1.4042
1.95616
-0.0105896
1.66421
0.547173
0.184436
0.0971206
-0.00904701
-0.0221101
-0.0437735
-0.0220404
-0.000466067
-0.0130589
0.220975
1.17033
0.0137492
-0.213406
0.112642
-0.00028529
-0.325638
2.87851
-0.0512774
-0.0107632
0.103235
-0.0894488
0.731004
-0.0110819
-0.000253003
2.13392e-05
-0.022294
2.23122
0.233707
-0.417425
7.58459e-06
-0.436011
0.484343
-0.0419411
-0.393938
-0.00987382
-0.00369905
-0.193629
0.00779176
0.225365
0.0878348
0.757714
-0.000890372
0.0213247
0.834283
0.1716
0.00360263
0.00382773
1.88319
-0.156197
-0.0123477
1.01577
2.2725
0.00977384
-0.0505234
0.510768
-0.00649375
-0.070031
-0.0276576
0.957018
-0.000133507
0.0846626
-0.152612
1.88399
2.56058
-0.0495105
-0.0730697
1.36552
-0.101904
-0.000452789
0.664661
0.596487
0.605532
-0.0578737
0.209072
2.28937
-0.252563
2.05395
1.92184
-2.63274e-05
0.223085
-0.227674
-0.0238239
0.0140199
2.29031
0.233501
0.00235562
-0.244746
-0.354989
-0.0461244
-0.00101036
1.50357
1.09842
0.000390065
0.0352678
0.0466264
-0.0113251
-0.245094
0.000520395
-1.94553e-05
0.00419648
0.748792
-0.220773
1.52698
-0.382892
-0.136373
-0.176566
0.997532
0.427577
-0.0102656
0.0693854
0.00726136
2.07833
-0.205506
0.0092533
-0.0622558
0.308817
-0.0114673
-0.100235
0.0020043
0.00205557
2.91314
-0.0669131
-0.041551
-0.00358188
-0.00634357
1.31554
-0.150163
-0.183485
4.20534e-05
6.15282e-06
-0.212424
-0.0560023
-0.0436706
0.145595
0.053771
-0.0187675
0.365776
-0.143149
2.02629
0.0548417
0.00212248
-0.320636
-0.18078
0.422245
-0.0276038
-0.183036
-0.000118957
2.46188
0.163443
0.000729058
2.595
-0.190115
-0.000127048
0.0126216
-0.326507
0.132988
0.376512
-1.28365e-05
-0.0669368
-0.0121205
-0.0447595
-0.00406776
-0.0690001
2.19593
-0.0684713
-0.0965426
1.12819
-0.0241393
2.13519
-0.000141588
-0.123479
-0.306704
-0.178234
0.116221
-0.012986
0.0269583
-0.00129834
-0.15286
0.11725
-0.000268437
5.82893e-05
-0.0530947
2.02261
0.0716643
0.0221402
-0.428193
9.9318e-06
0.00859135
-0.000363777
0.0871428
-0.142861
-0.00338718
-0.0638878
-0.102581
0.00887695
-0.00014989
0.258876
-0.00317661
0.449627
1.74645
1.38995
-0.0288464
0.0529045
0.214463
-0.00079722
-0.0277525
6.84857e-07
1.9454
-0.112003
0.143462
-0.140094
0.0173847
-0.0259202
-0.000905165
7.01072e-05
-0.040293
0.399891
1.31031
0.0108885
-0.287942
-0.20499
-0.0656219
0.553769
-0.0114723
0.0139228
-0.0470083
-0.00083398
-0.332958
1.44083
1.02856
-0.180768
1.40266
0.00073046
3.59269e-05
0.662353
0.411527
2.56372
-0.251746
-0.175464
0.335409
0.01034
-0.0490542
0.00401386
-0.0878014
-0.10499
-3.52343e-05
-0.00778819
1.87555
-0.00122566
2.39153
4.55276e-06
0.319636
0.43373
0.384686
0.00922463
0.00163439
1.98055
0.466482
-0.314836
1.05543
-0.0502193
-0.109391
-0.0349198
1.19536
-0.205581
0.125423
-0.0611976
1.42674e-05
-0.0113371
0.052685
-0.146399
-0.176686
-0.331061
-0.148021
0.721767
-0.0185766
-0.409363
-0.113113
0.000345694
-0.0997507
0.110315
0.732546
-0.217659
-3.34162e-05
-0.148573
0.000345098
0.0123897
-0.228608
1.52535
0.00799337
-0.0982329
0.0101757
0.50595
2.16244
0.0161368
-0.0327879
1.21392
0.920977
-0.115993
0.0434799
-0.364954
-5.90276e-06
-0.327113
0.000742288
0.000103245
-0.000241669
0.000233732
-0.0430382
0.435201
1.73011
0.119915
0.105662
-1.43017e-06
-0.0529695
0.000765716
-0.027792
0.000234302
0.395895
-0.00419584
1.0361
-0.00111421
-0.105724
-0.285773
-0.0366276
2.14772
-0.135992
-0.241763
-0.0479261
0.350517
-0.304645
0.231839
-0.052944
-1.39807e-05
-0.0374046
-0.0343161
0.00216969
0.000737138
1.17843
-0.0422898
0.548326
-0.0291711
0.00755759
0.260579
0.00146409
-0.000153194
-0.323724
-0.0303625
0.000260959
1.30498
2.7888
-0.00185015
-0.275186
5.2865e-05
2.32097
0.313732
-0.273871
0.000366648
0.127123
0.432992
0.501199
0.372628
-0.00355048
-0.00120109
-0.124362
1.50315e-05
2.08582e-05
-0.209735
-0.188419
-0.323973
2.67308
0.00177196
-0.167005
0.0675707
-0.000138133
-0.0103731
0.000281946
-0.0493952
0.000374037
-0.0408023
0.225266
2.11268
0.340972
-0.00245849
0.00410092
-0.0350756
0.536598
-0.0268228
7.70282e-05
1.14362
-0.371266
-0.243789
-0.115757
-0.000157676
-0.00244004
-0.376001
-0.142591
0.873643
2.02381
-0.235904
-0.0110746
-0.000130327
-0.321167
-0.391703
-0.00178289
0.0345379
-0.112135
-0.0402182
1.95308
-0.0112725
0.0897515
0.852298
-0.0651572
2.57544
2.54396
-0.000253566
-0.000269273
-0.134381
0.134166
-0.266053
0.0467908
-0.0630875
-0.00504018
2.24857
1.01346
0.0201522
3.03214
4.01675e-05
0.672192
-0.327252
-0.158348
0.000838099
-0.276041
0.69229
0.128657
0.455354
-0.0039768
-0.00426766
0.010244
-0.0299125
-0.109572
-0.00915207
0.803061
-0.042057
-0.0440975
-0.43892
1.85357
0.266686
0.255885
-0.00354992
-0.00452295
-0.157347
0.00878989
-0.0226009
-0.000149712
-0.00308998
0.694159
1.98796
-0.00112306
1.03647
-3.95104e-05
-0.0288089
-6.68571e-05
0.0479739
0.236612
-0.000330617
-0.00033999
-0.390028
1.89407e-05
0.380225
-0.173444
-0.000255133
1.03268
-2.71273e-06
-0.00353504
-0.000767354
-0.0425172
-0.00317736
-0.0521581
-0.356836
-0.00281316
0.0377058
-0.000155626
1.70631
0.0788486
0.265793
-0.250908
-0.17435
-0.00955238
0.0259142
1.19204
-0.187144
1.04962
-0.303749
-0.0297602
-1.92566e-05
-0.0485115
1.86149
1.12826
-0.236477
-0.380769
1.6491
-0.0701367
-0.319155
-6.87495e-05
-0.180554
-0.00732511
2.97158
-0.29851
-0.000748617
-0.405836
-0.193212
1.34484
-0.0223273
-0.201513
-0.0297123
-0.0401149
-0.0110124
1.34161
-0.423886
-0.149868
-0.118964
-0.104897
0.0492241
1.62555
-0.146544
1.06111
0.0241837
0.127941
2.42056
-0.0714063
-0.00201054
1.34474
1.89379
0.0154257
0.20345
-0.0522788
-0.247686
1.2174
-0.327129
-0.000174568
-0.0613822
0.000296737
-0.0378588
-0.000184641
-0.0343315
-0.0083068
-0.0260911
0.0325317
-0.0051806
-0.00433895
-0.0089347
1.14178
-0.0176896
-0.0273798
-0.0246708
0.974431
0.0455919
-0.00298273
1.82138
2.50746
-0.152702
2.24378
-0.134438
1.73721
0.0469609
-0.0587813
0.022183
-0.00391751
0.000132899
0.0222162
-0.0922578
-0.152955
1.03998
-0.175778
-0.155076
-0.00778764
0.0732032
-0.175226
0.0562166
-2.76056e-05
0.122833
0.758563
1.90591
0.255539
-0.102216
0.842206
-0.00262239
0.282622
-0.137343
0.00566482
-0.400036
0.0317479
1.75224
-0.016929
-0.00443089
-0.000883048
-0.314111
-0.00968676
2.98217
3.07159
0.0968265
-0.000268676
0.0679854
-0.000130738
0.498855
-0.00438918
0.175193
2.78166
0.445966
0.000141431
-0.0626161
-2.08327e-05
-0.435887
-0.262022
2.24506
0.00185214
0.0934718
0.0319174
0.00228207
-0.0180557
-0.00240883
-0.0461277
-0.247828
-0.171331
0.0692034
1.01299
-0.0999381
0.0509449
-0.151862
-0.0130448
-0.198507
8.87525e-05
0.000352342
-0.0170687
0.222054
-0.173118
-0.117696
-0.0279867
0.0212282
-0.0393149
1.25038
-0.0966371
-2.10168e-05
-0.388769
2.07037
0.0906641
-0.0896405
0.580536
1.74553e-05
-0.00521374
-0.209218
-0.000217357
-0.00344831
-0.000135792
3.03136
0.068531
0.0280402
3.49982e-06
1.61304e-05
-4.12206e-05
-7.07684e-06
-0.168819
1.90867
-0.260223
-0.0033729
-0.00121596
-0.0351785
2.22801
-0.316888
2.05144
0.287241
0.814001
-0.000871688
2.20338
-0.0165294
-0.0686098
0.202448
0.0779574
0.0860853
1.04326
-0.297941
2.1785
1.49447
-0.0581155
-0.193613
0.078299
-0.21215
-3.22714e-06
-0.00693932
0.0205717
0.458326
-0.047689
-0.16941
-0.0234138
2.66622
-0.342333
-0.000226419
-0.000192554
2.2639
-0.036071
0.0256079
-0.0958176
-0.0165416
-0.108328
-0.0699131
0.125318
0.640177
0.303917
-0.0720932
-0.101014
0.000625035
-0.0415579
-0.0039962
-0.0572118
-0.000184173
0.00040706
-0.0857049
-0.142171
2.1541
-0.0483023
-0.00139457
-0.0106631
-0.00223526
1.81464
0.103602
-0.000230903
-0.168078
-0.0322846
-0.0247526
-0.19472
-0.232035
0.0488207
0.399608
-0.335482
0.000525079
0.0423095
-0.0961768
-6.35279e-05
-0.0004217
0.677144
0.527729
0.26709
-0.3508
-0.305826
0.00372324
2.37517
0.000589164
-0.0901298
1.95997
-0.120617
-0.253136
2.47493e-05
0.00113254
-0.250714
-0.065781
0.00964373
-0.232704
1.24616
1.37005
0.00469688
0.00186252
1.15661
-0.0874955
-6.72408e-05
-0.0100593
-0.196621
-0.14464
-0.0598312
-0.00676585
1.05452
9.54352e-05
0.470271
1.4429
0.000250312
0.0981839
-0.00305821
-0.319415
-0.0944375
-0.00454803
0.179081
0.00148413
1.21739
0.00950244
0.146883
0.234365
2.75105
1.83413
-0.37587
-0.0474513
2.58482e-05
0.310282
-0.0871868
0.872911
1.6108
-0.230642
0.0713937
-0.103668
-0.0394543
0.803618
-0.0012241
2.22331
0.165126
0.000324064
0.000259204
0.000654714
-0.0785588
-0.108429
0.00466569
0.484789
0.728778
-0.346226
0.00432081
0.000446608
-0.1376
-0.000226709
-0.0170003
-0.0650609
-0.00354743
0.364664
0.0292831
-0.00802376
-0.0225369
-0.093349
1.83235
1.88346
0.230091
-2.84591e-05
-0.00319889
1.30657
-0.00264985
-0.210096
-0.00117272
-0.115544
-0.38722
-0.00115143
-0.00132183
-0.181428
0.00866234
-0.000409236
-0.00762967
1.10478
-0.201788
-0.000194631
0.53969
1.74928
1.80744
0.0038901
-0.234361
-0.0538089
2.06193
-0.350422
-0.357851
0.0340778
-0.0746522
0.172727
-0.148228
1.8093
0.516943
-0.000989053
-0.311239
-0.429855
-0.0214745
-7.31203e-06
-0.0099814
1.11392
-0.0010461
0.0662385
-0.0224743
-0.00678502
0.0526139
0.165431
-0.00102516
-0.000686784
-0.0273183
-0.309194
-0.201296
-0.37527
1.26406
-0.00371924
-0.00153206
-0.195316
-0.136196
0.059245
0.0765433
0.000434734
0.405245
0.79474
0.106963
0.142486
-0.00356226
-0.0757365
0.35825
0.007393
-0.000232675
-0.0503938
-0.0228482
-0.00410236
-0.0608983
-0.00474426
1.23144
-0.0507992
-0.409628
-0.132647
-0.0604591
0.0670456
2.30479
-0.25227
-0.000660794
2.19087
0.882571
0.0440911
-0.0331108
0.0429394
0.256339
0.849408
0.00197876
-0.0110672
2.76541
1.47847
1.58728
-0.249169
-0.00785691
-0.00691026
-0.000201072
-0.00723533
1.42562
0.457121
0.0389493
-0.0113978
-0.00195377
0.143027
2.57127
1.96754
0.441219
-0.015856
-0.368116
-0.0175736
-0.00405887
-0.0951292
0.100083
-0.154911
-0.0197835
0.00523144
-0.404158
-0.319084
0.16894
-0.137036
-0.00558578
-0.147222
-0.00111511
-0.0382679
-0.0038612
1.68852
0.000287304
1.54951e-05
-0.0821422
-0.111161
-0.162589
0.218193
0.000310044
-0.415945
0.387853
1.03747
2.96029
-0.0256256
-0.253911
0.174809
-0.0116112
0.477586
-0.00334157
0.0596243
-0.00105061
1.28822
0.00640668
0.0602817
0.736906
0.63414
0.00847402
0.0202831
2.13854e-05
2.05837
-4.83005e-07
-0.257556
0.00189331
0.00992031
0.962118
0.55949
-0.348429
-0.22116
-0.0222163
3.04922
-0.370101
2.63444e-05
-0.0861178
-0.000211657
-0.0553312
0.56963
1.04014
0.00504889
-0.197011
-0.0519381
0.798714
0.408399
-0.181731
2.70001
-0.054513
0.000377054
-0.284438
2.792
0.0148693
0.507931
-0.23664
0.803651
0.0104937
0.217085
-0.441623
0.0361324
0.304954
-0.0725151
1.02905
-0.145841
-0.107149
-0.00439483
-0.00443612
2.41601
-2.69918e-05
-0.0265423
-0.000170612
-0.044599
0.00198106
-0.0395414
1.26258
2.24784e-06
-0.00566015
0.600774
-0.38782
-0.116299
0.00650241
1.99628
-0.23912
0.914877
-0.0658191
0.833774
0.0425272
-0.00410817
0.0854378
0.00439118
2.48402
-0.145356
-0.000624337
0.012552
0.768596
-0.0618527
-0.00383877
-0.000688951
-0.33065
-0.0143414
-0.0527607
-0.367465
1.38499e-05
-0.388632
0.00255854
1.76371
-0.0551619
0.802457
0.0269689
-0.0202284
1.37694
-0.224664
-0.272992
-0.0235235
-0.33051
1.41663
1.48158
-0.0773483
-0.000122193
-0.0854502
0.0260099
6.85066e-05
0.431486
1.90004
0.0703457
0.0087635
0.0732038
-0.395117
-0.000922593
0.467527
0.286294
0.435675
0.0739558
0.155505
-0.00212685
0.939422
0.0452098
-0.393218
-0.0055431
0.139342
0.788962
0.00446388
-0.409161
1.14181
-0.182866
-0.412146
-0.437732
-0.240614
-0.250352
0.294404
1.15181
-0.326154
-4.01027e-06
0.00506706
0.0925287
-0.00986176
0.0824757
-2.67576e-05
-0.0316754
0.022259
-0.000375542
0.316478
-0.00283442
0.658335
-0.175951
-0.0215814
-0.0380983
-0.0476314
-0.34674
-0.0326546
-0.00552192
0.118547
0.438983
0.0280121
-0.185857
-0.0163711
0.168939
-0.0524448
-0.107188
-0.42766
-0.088291
-0.000183485
-0.0846792
2.18133
0.000175123
0.732494
-0.122132
2.63754
0.273406
-0.266294
-1.67652e-06
0.00943638
-0.413421
-0.000102419
-0.0150304
-2.27442e-05
-0.361724
0.025379
-0.312622
-0.128947
-0.000684656
1.40519
1.35818
-0.197356
0.00249475
-0.000947296
-7.90369e-06
-0.000305745
2.38798
-0.00735123
0.0126747
0.121563
0.00537236
-0.0032993
-0.438028
-0.00133975
0.273943
0.0251498
-0.0116069
-0.00407111
-0.144949
-0.230385
0.958767
0.59568
-0.00089914
-0.0730726
0.00308963
-0.104528
-0.00269362
0.744006
-0.0355064
3.07606
-0.0540861
-0.00808848
0.414415
-0.106155
1.74247
-0.234042
-0.0632742
-0.0724974
0.10263
-0.0200135
4.58304e-05
-0.046205
1.5507
-0.250607
-0.0182032
-0.237694
-0.153289
0.814947
-0.00283159
1.42005
0.00849139
-0.339551
-0.00296526
0.0745626
0.260514
0.00687518
1.65835
-0.00263206
0.18466
0.486403
0.00299035
-0.00072738
2.57148
0.412467
-0.000503701
0.170228
0.148013
0.000738343
-0.110227
-0.123762
-0.38931
-0.0560248
1.68207
0.0261986
0.882935
-0.00221963
1.9705
-0.403861
-0.0299155
0.0353637
0.176442
-0.323198
-0.231748
-0.0483393
0.000293723
2.80585
-0.127959
0.00467105
0.0127902
-0.226305
1.6992
0.0169695
-0.0919527
-0.000294986
0.530463
0.0456661
-0.219155
0.00463181
-0.0196646
-0.159962
0.000211571
-0.296136
-0.00873271
-0.083565
-0.366316
1.47294
-0.0577152
0.372883
-0.134632
-0.170422
-0.000136066
0.000832883
-0.0210175
0.000220913
-0.0637887
0.284983
-0.0116582
7.18454e-06
2.48714
0.0285898
0.0019372
-0.000209814
-0.011964
1.63359
-0.306388
2.80779
0.997058
0.128579
1.44877
-2.88045e-05
-0.0782075
-0.00475727
-0.014066
1.03614
-0.0554901
2.85183
1.32745
-0.318136
1.3823
0.0534198
-0.0801064
0.0127669
-0.117641
-0.0226564
-0.296902
-0.326623
-0.0171319
1.36788
-0.0560535
0.00080218
-0.0244903
-0.00379938
-0.200541
-0.000933674
-0.0071397
-0.00014484
0.864774
-0.207545
1.40777
0.16559
-0.0156557
-0.170573
-0.112403
0.406471
-0.0175121
-0.00607977
-0.377646
-0.254673
0.0776013
-0.248214
-0.0256848
0.103345
0.0212128
0.000197399
0.759123
-0.000219634
0.318881
-0.00460899
1.85072e-05
0.0111893
-0.003835
-0.00699876
-0.0898058
0.955612
0.808562
-0.115503
-0.0717553
0.0165826
-0.029547
-0.058379
0.000327791
-0.00281371
0.00397319
0.630324
-0.0472782
-0.314543
-0.235952
-0.0112636
-0.102693
-0.04362
-0.00982773
0.0305377
-0.0713914
1.26961
-0.352537
0.0378027
0.0167154
-0.213479
2.76395
-0.0567856
-0.0203477
0.0445502
0.458374
0.0230274
0.0124734
1.37311
-0.00209709
0.25765
-0.122358
-0.241094
0.0364701
-0.0212798
-0.0317628
0.235983
-0.0208014
-0.00357513
0.0182335
0.0149074
-0.00132233
0.217478
-0.053469
-0.0116652
-2.82054e-05
0.872738
-0.000210907
-0.162531
0.443655
-0.124563
0.000843475
0.624023
-0.167644
0.940003
-0.000270833
-0.0223104
0.616656
0.00100441
0.0284599
-0.0259662
0.0603524
-0.119103
-0.187246
-0.0461229
-0.0154454
0.0571531
0.118018
0.568154
-0.00106559
0.648242
-0.231513
-0.0188237
-0.039934
0.00228347
-0.239588
0.000424941
2.2026
1.16171
-0.00282129
-0.12082
0.00132982
-0.0124816
-0.0279338
-0.0595829
0.870581
0.86465
0.183942
0.0587969
-0.422838
0.223971
0.391006
0.45739
-0.294856
0.112107
1.13269
-0.054586
1.90526
-0.00526547
-0.0626671
-0.257654
-0.000524988
-0.00430212
-0.000215683
1.89305
-0.0590178
0.00155589
-0.0884863
-0.0217456
-0.00185637
-0.0750614
1.42536
0.0060032
0.0633012
-0.150699
-0.00264723
-0.0262208
-0.00454941
2.88641
0.00119821
0.000157166
-0.010523
-0.0787469
0.601314
0.00312202
0.117142
0.44065
-0.000855061
0.0122847
-0.417614
0.465973
-0.139139
6.50344e-06
0.00197766
0.0887131
0.185938
1.59039
0.517428
-0.200523
7.36861e-06
-0.241096
-0.0149744
-0.0704166
-0.0680309
0.957353
2.12228
-0.000584591
0.812513
1.24957
-0.0550139
-0.000254121
-0.119209
-0.0465596
0.000624469
-0.228786
-0.047725
-0.000594937
-0.00301784
-0.0088392
-0.0107166
-0.00378384
1.55431
1.63183
1.03959
-2.15858e-05
-0.131885
0.344087
0.58899
2.23215
-0.00276053
-0.114891
-0.104199
1.48645
-0.107354
-0.05188
0.086436
0.832607
0.00172376
-0.00268775
-0.133656
-0.174401
0.793422
0.329092
-0.200211
-0.125229
0.587541
0.1186
-0.265088
0.0396531
0.330008
0.802706
-0.00194734
-0.00344009
0.609617
0.00116119
0.264957
0.178385
-2.76242e-05
1.33639
-0.0579096
-0.0249981
2.93223
-0.207533
-0.0405223
-0.213091
-0.0131944
2.10202
0.00662218
2.76715
-0.000737144
0.012721
2.84247
0.0389392
2.09507
-0.032292
3.73906e-05
-0.095618
2.14163
-0.00879602
-0.0372635
-0.0452173
-0.00560041
-0.117355
2.14861
0.628116
4.87943e-05
0.117143
-0.0209546
0.170214
-0.00493804
0.129994
-0.01478
-0.00252619
2.04269
2.19921
2.0625
-0.289492
0.378093
0.000840417
-0.323314
1.44229
0.103758
0.00139765
-0.234001
0.00333278
-0.000562175
2.18013
0.000715436
0.0240166
-0.0106648
-0.04908
2.08285
2.15264
2.21015
0.0673535
0.00278627
1.11259
0.0430583
0.163998
-0.0508022
0.000398127
-0.0164925
-0.0001129
-0.0253795
-0.00413003
-0.0313492
-0.000331535
0.801666
0.0118119
-0.315344
-0.0501666
-0.401049
-0.0907467
-0.00426526
1.72669
-0.0600056
-3.43192e-06
-0.000147663
2.72808
0.000166296
0.0644557
0.336724
-0.100202
1.50557
-0.0291268
-0.243626
-0.204726
-0.00263947
0.000707811
1.31474
2.19878
-0.00854861
-0.109116
-0.00127628
2.1722
2.636
-0.00796438
-0.0352398
0.108297
0.0178326
-0.135595
0.000403892
0.0572951
-0.207511
0.340701
1.71169
-0.00825191
0.161016
0.642873
0.346044
-0.248995
0.160358
2.55713
0.983619
-0.305359
2.20307
-0.003193
2.22917
-0.0369724
1.8604
0.452646
-0.0281215
0.231838
0.0134749
0.0990535
-0.414219
-0.00371143
-0.129173
1.83964
-0.142333
0.175257
-0.00809245
0.219387
0.954304
-0.0505253
0.177255
0.00405431
-0.0198593
-0.132
-0.0119333
0.0112603
-0.0488784
-0.00275068
0.0135275
1.83513
0.0128846
-0.0885093
-0.313997
-0.158867
-0.358452
-0.36292
0.0235783
-8.89797e-06
5.03247e-06
1.30212
-0.246711
0.000346279
-0.0597234
0.917118
-0.31942
-0.0820284
0.000649
-0.010382
-0.257372
0.78206
-0.0424458
-0.00262281
-0.256896
-0.104587
2.84092
0.588489
0.389718
-0.251389
-9.01272e-06
-0.0369741
0.353008
-0.00196495
0.000108908
0.874425
0.547699
0.00342846
-0.00464492
0.0569208
-0.166662
0.0584132
0.0487349
-0.0824113
0.000308107
1.35757
0.00330293
-0.00333172
-0.00124608
-0.00117429
-0.000818884
0.437977
0.00569225
-0.015309
-0.0519791
-0.0241006
0.160337
-0.0294015
-0.227877
-0.0563921
1.99014
1.657
-0.00263767
-0.00784101
0.530923
-0.00441251
-0.100815
0.430608
0.543982
-0.00521863
0.112725
0.219345
0.00733448
0.604524
-0.000531924
0.0411432
0.0553328
0.0765539
-0.0774617
0.262294
0.000416573
0.00786268
0.00160059
-0.000233504
-0.00760248
-0.0521377
-0.0689464
-0.156025
0.40326
0.223309
0.0495967
-0.297919
0.0708225
0.0524553
0.0714455
0.000333407
2.14721
-0.0439376
-0.0174994
0.0940028
2.88057
3.67361e-05
0.493895
2.87855e-05
-0.00459886
-0.0342301
-0.113524
0.871231
-0.0211999
-7.43915e-05
0.902242
0.376968
-0.00292788
0.275442
-4.1691e-05
0.811364
0.0444954
-0.147216
-0.000731352
1.18135
0.153902
-0.108516
0.000229814
0.842332
1.50688
-0.00593761
-0.000144496
-0.18914
-0.0476002
0.0780458
0.151952
2.24346
1.31227
0.00261363
1.59808
1.1975
-0.0149271
-0.302616
-0.154012
-0.074616
-0.242697
0.728913
0.00444496
2.341
0.765151
0.0667215
0.00054517
0.00342645
5.14961e-05
-0.00287494
-0.0145253
2.52487
5.98087e-05
0.40637
0.143175
-0.00116321
2.33858
2.6419
0.971269
1.11698
0.221779
0.0131319
-0.00145188
-0.0571982
-4.80046e-05
-0.00568967
-0.400024
-7.66691e-05
-0.00767778
2.3938
-0.0601569
-8.52695e-05
2.48137
0.00249478
-0.187739
-0.359002
-0.00676504
-0.331148
-0.00118995
0.77611
0.0176398
-0.0809931
0.0100496
-0.00328051
-0.00198313
-0.00112233
-0.42684
-0.311049
0.760316
0.015096
0.00576563
1.14181
0.000407333
2.78147
-0.00263923
-0.46078
0.0118627
0.00843813
0.262498
0.278558
3.63652e-05
-0.0211309
0.000576445
-0.003457
0.00446986
0.426536
0.250966
1.53161
-0.162871
-0.000482623
0.000900882
0.494431
1.63842
-0.023024
-0.0323691
2.7559
-0.0142654
-0.106708
0.00538991
0.445744
-0.14178
-0.0437888
0.775885
0.00702905
-0.00122543
0.00852617
0.207184
2.75661
2.13547
-0.124931
-0.164868
-0.0323847
0.0080596
0.000154458
0.381596
0.980885
4.99957e-05
-0.0373905
-7.92045e-05
0.000735426
2.01952
-8.88364e-07
-0.341428
-0.246348
-0.330188
0.356242
4.31494e-05
0.0520846
-0.0304036
1.86971
0.149143
0.0260068
-0.154868
0.00335282
1.64101
1.01039
0.0596045
0.327696
2.42531
-0.321629
-0.281382
-0.00970361
-0.0359552
-0.00184347
0.160844
-0.000285344
0.810531
0.0152637
0.955776
-0.171059
-4.31388e-06
0.30984
-0.000817392
-1.42635e-06
-0.00375692
2.6987
2.5842
1.43992
0.000321433
0.890234
2.21621
-0.00493754
0.0138691
-0.043311
0.4845
2.16836
-0.141552
0.604205
-0.0122471
-0.339943
-0.384195
2.97742
-0.00304553
2.13514
0.442332
0.923039
0.000661796
0.00111824
0.0281558
-0.0455089
0.425658
-0.000239214
0.00036366
2.0922
-0.307958
0.00156354
2.19314
-0.0116645
0.000826478
1.77896
-0.030702
-0.00768377
0.272202
0.775726
0.00166644
-0.000622989
0.0184694
-0.020647
2.0817
2.68565
1.31957
2.89255
0.652928
-0.239915
2.44941
-0.000362003
-0.0162405
0.731523
-0.017355
-0.00329201
-0.000473982
2.19112
0.223641
-0.00325772
2.60428
0.377263
1.10795
0.2237
-0.0137909
-0.104423
0.790218
0.38562
2.19081
-0.11144
-0.00394491
2.01063
1.85202
0.0713494
1.56783
-0.186171
-0.0397149
-0.0457652
-0.00321872
-0.000668206
2.03168
-0.312259
0.255171
0.0055317
0.76537
-0.162731
-0.0562441
-0.0048
-0.0168436
2.271
-0.00401803
-0.0876107
-0.0151572
2.24014
-0.0955467
0.101951
-0.0379986
0.0071861
0.740531
-0.112569
2.31532
0.662839
2.89058
1.17803
-0.315826
0.158162
-0.00887768
0.131897
0.131788
2.11063
2.2531
2.52577
1.44291
2.05261
-0.00175749
2.38879
-0.000132579
0.00037154
-0.245052
2.59891
0.251193
1.15512
6.8695e-05
-0.0108772
0.00858836
-0.159548
2.07234
-0.00340398
-0.0389157
1.42139
0.0052456
-0.0213641
2.80198
0.237943
-0.154808
-0.167971
-0.00264416
0.478308
0.61882
2.93002
0.5761
0.381458
0.0232411
-0.0011603
0.0184414
0.907757
0.0381324
0.000675695
-0.134445
1.12805
-0.0074047
2.14474
-0.305628
2.16841
-0.0228294
-0.113567
2.43564
-0.0268329
0.370928
-0.0019979
-0.00653007
-0.338194
-0.113631
-0.186667
-0.0486157
0.114456
-0.160135
-0.366352
2.16607
0.00139107
0.00390587
-0.0998475
0.5842
-0.212523
-0.300289
4.12063e-05
-0.133277
0.238139
-0.000485337
-0.316182
0.208816
2.18337
-0.287129
2.13892
-0.0682269
0.596148
1.14918
-0.178291
1.35871
-0.00831783
0.55985
0.0095882
0.413942
0.917427
0.812417
-0.140401
0.0310356
-0.00324268
0.831919
-0.000380064
-0.000608312
-0.00515089
0.107355
0.0949088
0.0755187
1.82718
0.751446
2.73514
1.69441
-0.0075798
-0.167362
-0.000788699
-0.235128
-0.00531887
0.0290522
0.003229
-0.144699
1.49808
2.12189
-0.00142158
0.000117375
0.353589
-2.66551e-05
-0.0452911
-0.000855392
0.65631
-0.178685
0.863721
-0.333205
0.00022218
-0.0691618
-0.198188
-0.111004
-0.0809217
-0.268336
0.345112
-0.000783839
-0.000140869
0.0103651
-0.000641369
0.417307
0.549503
0.201491
2.53938
0.225522
-0.372609
-0.447055
-0.00213772
0.249322
-0.000577432
2.0133
0.470263
2.36745
0.000733321
-0.1615
-0.033603
0.253205
0.864604
1.84164
-0.0371667
0.188174
-0.00955017
-0.0854157
-0.0394029
-0.0300247
0.50142
0.00788772
-0.0320466
-0.0997423
1.07406
0.353909
2.33749e-05
-0.00431816
-0.0305418
-0.00297155
0.571726
-0.00325983
-0.0919841
0.708273
0.000400751
1.15497
0.000450377
-1.32773e-05
-0.388576
-0.0596178
0.000840667
-0.111067
0.000911061
2.4878
0.0616017
-0.121494
2.28156
0.589585
-0.156895
1.79621
-0.013544
-0.0090844
-0.0101804
0.420788
3.0969
-0.00731905
-0.00286895
1.89208e-05
0.0386121
-0.00608177
0.123706
0.0303109
-0.103706
-0.294605
0.0916917
0.0546603
-0.091213
-0.00260727
0.0926888
1.75079
-0.00873987
-0.0675891
-0.00110534
1.83457
0.275877
1.73376
0.00213677
-0.00409044
-0.115102
2.53936
0.670122
-0.13959
-0.000606904
0.155814
0.533925
-0.0138871
0.920701
-0.239873
0.104074
-0.377872
1.84036
-0.0703128
1.10502
-0.0155155
2.94329
-0.205498
-0.0538313
2.31877
-0.213909
0.749355
-0.406712
0.827491
0.0318149
0.243914
1.43477
0.240669
-0.242132
-0.0473566
-0.0362251
-0.0317262
0.130568
-0.0067088
-0.270998
-0.14129
0.00982511
-0.329327
-0.409484
-0.000157175
0.656111
-0.0445273
0.668525
2.36138
1.61425
-0.269862
-0.349702
0.00230446
-0.242751
-0.0188704
2.83467
-0.174523
-0.150703
1.59643
0.230203
-0.189438
1.00964
-0.183044
-0.00305013
-0.0572896
0.0496146
0.00351291
1.67484
-0.0132061
0.646213
1.40315
-0.028114
1.0645
-0.33674
-0.00180295
0.0329177
0.469829
1.48352
-0.0123394
0.42596
-0.334862
0.366846
-0.112374
1.63836
0.101206
-0.0746795
-0.0128362
0.000918422
2.12781
-0.0118044
-0.102158
-0.000494522
0.934609
-0.00028014
-0.195338
0.00107193
-0.244172
0.00339259
-0.0478624
0.887155
-0.0190456
0.0045014
0.00329094
-0.0200832
0.35844
-0.000365662
-9.56201e-05
-0.0414785
-0.0514582
-0.108626
0.0399474
-0.00927301
0.357786
0.373042
-0.00619582
0.0049611
-0.00092884
2.09679
-0.0205705
-0.0332028
1.8121
-0.0890979
1.67162
0.26999
2.16591
1.0184
0.53181
-0.00726255
0.0329454
0.384171
0.122041
-0.0213419
0.000939883
0.041262
-0.243576
-0.00460787
-0.040499
-0.0391653
-0.0431971
-0.000126116
-0.0159909
0.000329429
-0.000338523
0.00421951
1.47548
0.953641
-0.0540562
-0.0136851
-0.233172
-0.101888
1.07122
1.92054
-0.248208
0.0100191
0.915734
0.00517438
0.00296119
-0.362632
-1.53853e-07
0.559937
0.750489
-0.00318608
-0.176422
0.00103704
-0.0385872
-0.0378393
0.262219
0.114147
-0.260336
-0.000188037
0.0531658
0.00848411
-0.167537
0.0273509
2.20067
0.0017051
-0.0190926
-0.156585
1.25388
1.50171
1.5436
0.249055
0.000283573
0.0326647
-0.00308333
-0.00702151
-0.00466277
0.450004
0.95709
-0.0589408
-0.18055
1.48537
-0.0202391
-0.0274601
-0.287498
0.235932
-0.00466543
0.406945
-0.0683045
0.493892
0.586365
-0.289841
0.00236626
-0.0266455
0.501529
0.00662381
-0.000304836
0.615903
-0.00194891
1.67144
1.18493
-0.427974
1.28832
0.191391
-0.0178601
-0.236664
1.34623
-0.0992718
1.2422
0.20234
-0.00281373
0.164359
0.00490413
0.766245
0.652351
-0.00931346
0.486917
-0.0357196
0.0261178
1.37923
-0.0063554
-0.00375143
-0.000661689
-0.0635529
1.22633
-0.0282887
-0.0598661
-0.0283376
0.881711
2.51789
0.0033565
0.92849
0.832709
-0.00297017
-0.339544
0.135886
0.978465
-0.046096
-0.096678
1.38872
1.3602
-0.128024
1.341
-0.343738
1.53738
0.459486
-0.342105
-0.000111869
-0.0347237
0.348599
-0.0848831
0.902201
-1.13724e-06
1.73196
-0.00743487
1.1987
0.00843344
-0.348285
1.14627
0.000291504
-0.00194552
-0.0263809
-0.016758
-0.206715
-0.00643445
0.230744
-0.16713
2.08029
0.00455696
-0.1382
1.20395
-0.0442896
1.40122
0.219113
-0.0263567
1.22765
0.444432
-0.330687
-0.152714
1.53635
3.3966e-05
0.00474668
0.617253
-0.313422
-0.0820078
-0.00643679
-0.000171336
-0.195337
1.58641
0.0733088
-0.0289634
-0.0382936
1.43662
-0.13312
1.31051
3.01587