/*--------------------------------*- C++ -*----------------------------------*\
  =========                 |
  \\      /  F ield         | OpenFOAM: The Open Source CFD Toolbox
   \\    /   O peration     | Website:  https://openfoam.org
    \\  /    A nd           | Version:  7
     \\/     M anipulation  |
\*---------------------------------------------------------------------------*/
FoamFile
{
    version     2.0;
    format      ascii;
    class       volVectorField;
    location    "10.5";
    object      U;
}
// * * * * * * * * * * * * * * * * * * * * * * * * * * * * * * * * * * * * * //

dimensions      [0 1 -1 0 0 0 0];

internalField   nonuniform List<vector> 
7807
(
(1.06093 0.111356 1.12573e-20)
(1.0463 -0.0349093 4.10793e-21)
(0.994495 0.0881101 -2.17287e-20)
(1.02963 0.0562843 3.1515e-20)
(0.999281 -0.000841667 -6.38355e-23)
(0.999967 -9.70813e-06 -7.20828e-24)
(0.990382 0.0728772 -4.25933e-20)
(0.995563 -0.00161799 -1.37214e-23)
(0.999892 -0.000158591 -1.17816e-23)
(1.02051 -0.000222892 -1.5249e-21)
(0.999969 -1.11343e-05 7.9503e-24)
(1.00191 -0.00115082 -2.60266e-22)
(0.993162 -0.00210176 6.64344e-22)
(1.01545 -0.00165618 -1.00695e-20)
(1.0198 0.000631985 6.4397e-21)
(0.992668 -0.0130507 -1.29165e-21)
(1.06266 0.116699 -2.37153e-20)
(0.990777 -0.00269057 -2.33016e-22)
(1.00209 -0.00803811 -9.55714e-23)
(0.986547 -0.0853691 -1.00377e-21)
(1.02924 -0.00312046 -3.48978e-21)
(1.00125 -0.000582424 4.90078e-22)
(1.0151 -0.00300958 8.79727e-22)
(1.00964 0.02476 -1.61732e-20)
(0.987681 -0.00337692 -1.06684e-21)
(1.05711 0.109768 -1.11961e-20)
(0.999291 -0.000792261 -4.60154e-23)
(1.02016 -0.00112905 3.94569e-21)
(1.00509 0.0128954 -2.08769e-21)
(1.0031 -0.00858997 8.04988e-23)
(0.988803 -0.0139782 -2.38438e-21)
(0.894273 0.0319107 6.16111e-21)
(1.01445 -0.00343495 5.40967e-21)
(0.999602 -0.000341298 8.01546e-23)
(0.999912 -3.69977e-06 1.51989e-25)
(1.01939 0.000555161 2.27256e-21)
(1.00386 -0.00946899 9.3656e-23)
(0.993905 0.0705207 -6.82828e-21)
(0.997097 -0.00692949 1.064e-21)
(0.999717 -4.77116e-05 7.65264e-23)
(0.997372 -0.00710852 -1.23057e-22)
(0.992819 -0.0121205 -4.86277e-22)
(1.01019 -0.0927137 4.03801e-21)
(1.12924 -0.0377696 -3.40825e-22)
(0.99983 -7.79707e-06 2.49371e-23)
(0.999934 -1.47301e-05 -7.20693e-24)
(1.00112 -0.000496482 -2.9955e-22)
(0.996706 -0.00617979 -6.28358e-22)
(0.999944 -2.60061e-05 -5.84046e-24)
(0.990291 -0.085788 1.44417e-21)
(1.00275 -0.00101345 2.80163e-22)
(1.02018 1.55022e-05 -4.10665e-21)
(0.98387 -0.00408319 -3.59789e-21)
(1.01022 -0.0263598 2.19404e-22)
(1.01913 -0.000857163 -1.36198e-21)
(0.996082 -0.002247 -1.21529e-22)
(1.00181 -0.00763899 1.97949e-22)
(0.99554 -0.00139105 9.05169e-22)
(0.980457 -0.0169669 -4.26454e-21)
(0.999592 -0.000302549 -1.0292e-22)
(1.00004 -2.06089e-05 -1.06253e-23)
(1.00364 -0.000918271 3.13669e-22)
(1.016 -0.00102375 -2.36322e-21)
(1.00202 -0.00100237 2.63452e-22)
(0.999208 -0.000179272 1.46777e-22)
(0.989279 -0.0145165 4.2784e-22)
(0.999921 -0.000161943 9.13736e-24)
(1.00001 -1.96275e-06 7.27778e-25)
(1.12734 0.0624263 6.29075e-21)
(0.996769 -0.00585724 -1.83848e-22)
(0.999939 -1.75573e-05 6.40081e-24)
(0.975262 -0.0511064 -7.64141e-21)
(0.98821 -0.00373743 5.17936e-22)
(0.977555 -0.00503003 7.12908e-22)
(0.991177 -0.00296296 7.29182e-22)
(0.969585 -0.0247193 -9.37254e-22)
(0.997558 0.0893617 3.48943e-20)
(1.02751 -0.00296299 4.42745e-21)
(1.07189 0.000829424 -9.50906e-21)
(0.960692 -0.0422862 -9.91784e-21)
(0.993478 -0.00231801 -1.01998e-21)
(0.998879 0.0439779 4.25395e-20)
(1.03302 0.00533913 1.02746e-20)
(0.977086 -0.00900026 3.26794e-21)
(0.998885 -0.00216589 -1.0134e-22)
(0.998109 -0.000272918 1.08081e-22)
(0.995267 -0.00213727 1.2486e-21)
(0.98451 -0.00455739 2.31569e-21)
(0.999453 -0.00100885 6.86511e-23)
(0.996255 -0.000587179 3.87385e-22)
(1.00524 0.0146749 1.54164e-20)
(1.15751 -0.0235347 7.07606e-22)
(0.999889 -4.86908e-05 -1.5088e-23)
(1.00161 -0.00648706 7.96381e-23)
(0.997044 -0.00089233 3.50997e-22)
(0.977176 -0.00283241 -5.69574e-21)
(0.977415 -0.0506678 5.32709e-22)
(1.01156 -0.0253314 -1.69866e-24)
(0.998801 -0.00209025 3.44533e-23)
(0.99906 -0.000156127 4.9234e-23)
(0.955912 -0.0152229 2.48642e-21)
(1.07264 0.00523519 7.68287e-21)
(0.997216 -0.00101149 -8.75528e-22)
(0.999978 -6.79933e-07 -6.08864e-25)
(1.16046 -0.0129341 4.01521e-22)
(1.02531 0.0244246 -1.49239e-20)
(0.944624 0.0226751 7.10691e-21)
(0.995812 -0.00213054 -5.04296e-22)
(0.999992 -1.71001e-06 1.37758e-25)
(1.02153 -0.0110009 -1.94684e-21)
(1.03295 0.0534123 -3.66044e-20)
(1.02403 -0.0682457 -4.09379e-21)
(0.999991 -1.94969e-06 -2.13297e-25)
(1.02313 -0.0115886 -4.25809e-22)
(1.02229 0.0237089 1.5685e-20)
(1.00034 -0.000480051 -2.31694e-23)
(1.06389 -0.0794791 -4.32545e-23)
(1.02567 0.0140065 -3.63487e-21)
(0.985823 -0.0400688 3.22903e-21)
(0.977262 -0.00612757 -7.41681e-22)
(0.952842 -0.0100112 -6.01713e-21)
(1.00077 0.0337488 -2.77043e-20)
(1.01564 -0.0911803 -5.56813e-21)
(1.00798 -0.00647362 1.6233e-22)
(0.954505 -0.0114289 2.37316e-21)
(0.999227 -0.00115805 1.53255e-22)
(0.98957 -0.0104891 7.86074e-22)
(1.00252 -0.00737592 -1.36828e-22)
(0.99916 -0.000132906 -3.27372e-22)
(0.988707 -0.0128121 3.91017e-23)
(1.19184 -0.038674 -1.35504e-22)
(1.06692 -0.00112095 1.60124e-21)
(0.999508 -0.00044979 8.6827e-24)
(0.999375 -0.00103954 -1.33496e-22)
(0.975973 -0.00824297 9.73377e-22)
(1.031 0.0466754 1.36053e-20)
(0.994849 0.026937 4.86912e-20)
(0.999979 -2.64097e-06 -7.17543e-25)
(1.00658 -0.0025206 1.31528e-22)
(0.935233 -0.0124934 -7.5943e-21)
(0.978966 -0.00361677 -2.91122e-21)
(0.990709 -0.0554976 -4.59456e-21)
(0.970055 -0.0266061 1.2698e-21)
(0.978821 -0.00453276 -6.41041e-23)
(0.939568 0.0178338 2.7568e-20)
(1.01159 -0.040295 -1.43045e-22)
(1.01051 0.014646 -7.90106e-21)
(0.98254 -0.0202929 -2.18504e-21)
(0.968414 -0.00496096 8.11645e-22)
(1.00032 0.0399109 -1.37914e-20)
(1.02036 0.00173464 5.74735e-21)
(1.14553 -0.0260818 8.80009e-22)
(0.998733 -0.00169011 -3.55941e-22)
(1.13222 0.0552538 1.21275e-21)
(1.03155 0.00496129 -1.06412e-20)
(1.0039 0.0733889 -3.48574e-20)
(0.964846 -0.0291183 3.91576e-21)
(0.993157 -0.00158404 2.24084e-22)
(0.953433 0.0591702 6.23309e-20)
(0.999948 -2.11507e-05 -5.50092e-24)
(1.00119 -0.00678099 -6.00714e-23)
(1.01043 0.0276746 1.16069e-20)
(0.999982 -1.6782e-05 3.47837e-24)
(0.998584 -0.00441943 -4.93943e-22)
(0.996668 -0.000856705 -1.68058e-22)
(1.00367 0.0322267 -3.77118e-21)
(1.00208 0.0303033 1.39187e-20)
(0.946707 0.0655759 2.0641e-20)
(0.998396 -0.00427771 -3.1268e-22)
(0.9974 -0.000308378 -1.89345e-22)
(1.00001 -1.53597e-06 -6.66363e-25)
(0.94988 -0.0061605 -1.03894e-20)
(1.00032 -0.000425264 3.19447e-23)
(1.04811 -0.0316877 -4.79886e-21)
(1.00668 -0.00284172 8.72503e-22)
(0.969165 -0.00585806 1.67788e-21)
(1.15156 -0.00358048 1.9286e-21)
(1.08773 0.0620822 5.1107e-22)
(0.999889 -5.47694e-05 8.25528e-24)
(0.999571 -0.00054007 -9.07935e-23)
(1.03025 0.0592138 -5.54124e-21)
(0.999948 -1.65381e-05 -2.66313e-24)
(0.999906 -9.9272e-06 3.95467e-24)
(0.990572 0.0772434 -3.52809e-20)
(1.04806 -0.0377881 1.51845e-21)
(1.01158 -0.0576748 -2.48748e-21)
(0.987563 -0.0387964 -4.57704e-21)
(0.979581 -0.00656063 2.13017e-21)
(1.00899 -0.0416175 2.34126e-22)
(0.936833 -0.0105394 3.98785e-21)
(0.999981 -1.5402e-05 -1.23999e-24)
(0.977857 -0.0474226 -1.82141e-21)
(1.09004 0.0685891 -1.19771e-20)
(0.997197 -0.00123212 1.25796e-22)
(1.00007 -5.05716e-06 -7.75669e-24)
(1.06343 0.0650826 1.16718e-21)
(0.998973 -0.000327976 3.48368e-22)
(0.989409 -0.012325 1.25867e-21)
(1.00653 -0.0394191 7.96151e-22)
(1.00002 -2.20393e-06 -2.96626e-25)
(1.0007 -0.0016998 -1.33208e-22)
(1.02796 0.0463443 1.66521e-20)
(1.07801 0.0736441 -1.50662e-20)
(1.00016 0.064677 -4.66928e-21)
(1.06017 -0.0738901 1.21062e-21)
(1.02713 -0.0649484 9.89604e-22)
(1.10561 -0.106486 -4.30389e-22)
(1.01986 -0.00277864 1.16582e-20)
(1.02563 0.0444665 -5.42828e-21)
(0.999821 -1.76647e-05 -2.90992e-23)
(1.00003 -1.70047e-05 2.81116e-24)
(0.958138 0.00914773 -2.75253e-20)
(0.993908 -0.0116162 -4.55719e-22)
(0.99949 -0.000405665 -8.68306e-23)
(0.9799 -0.0465792 3.74907e-21)
(0.989073 -0.0110658 -9.15619e-22)
(1.01185 0.0677875 -3.94566e-20)
(1.00867 0.0657206 -8.35979e-21)
(0.988209 -0.0570021 1.28314e-21)
(0.914516 0.0444087 -2.33873e-20)
(0.999046 -0.000378529 -2.55772e-22)
(0.990824 -0.00229452 8.32568e-22)
(0.954138 -0.0139104 3.27948e-21)
(1.02832 0.000806734 -2.47519e-21)
(1.01487 -0.115452 -5.61735e-22)
(1.07932 0.110046 -2.45458e-20)
(0.953475 0.0520299 -5.34035e-20)
(1.00005 -9.33294e-05 8.66801e-24)
(1.00788 -0.00623693 4.34811e-22)
(1.02379 0.0162456 1.96037e-20)
(0.996811 -0.00514961 -8.15421e-22)
(1.02772 0.0144779 -2.49514e-21)
(0.999554 -0.00108825 -2.2213e-23)
(0.92821 0.0741247 4.16213e-20)
(1.00435 0.0677481 7.57565e-21)
(0.995273 -0.00183183 7.93919e-22)
(1.00329 -0.0071859 -1.92198e-23)
(0.999734 -6.24489e-05 -1.42534e-22)
(1.10946 0.0875923 6.29169e-21)
(0.999918 -1.16326e-05 1.17839e-23)
(0.995599 -0.00956905 3.71533e-22)
(0.94424 -0.0276962 4.47702e-21)
(0.999938 -2.20458e-05 -2.65318e-24)
(0.998994 -0.00250473 -8.77937e-23)
(0.999654 -0.00106285 4.03987e-23)
(1.05683 0.0389263 1.48177e-20)
(0.999983 -2.13705e-05 4.2052e-24)
(0.996099 -0.000455127 4.41081e-25)
(0.962811 -0.0419304 1.14948e-20)
(0.89527 0.0237729 -1.35736e-20)
(1.06626 -0.00516976 -2.14971e-21)
(0.937399 0.0498448 3.17958e-20)
(0.999961 -8.23231e-06 -6.6206e-24)
(1.0045 -0.0401266 -7.9904e-23)
(0.999844 -0.000268612 -3.26769e-23)
(0.999604 0.0752008 -3.47924e-20)
(1.00316 -0.000599869 -4.04282e-22)
(0.992805 0.0291849 1.59466e-20)
(1.0026 -0.00884138 -3.84452e-22)
(1.00062 -0.00173374 1.43534e-22)
(1.02633 -0.0295496 -1.1842e-21)
(1.01972 -0.00147249 -1.07996e-20)
(1.00048 -0.000287282 6.61471e-23)
(0.999807 -4.84088e-05 7.65685e-25)
(1.00041 -0.000390116 1.49304e-22)
(0.996631 -0.00544876 -7.20913e-22)
(1.01778 -0.0598411 2.57396e-21)
(0.999963 -1.12341e-05 4.47575e-24)
(0.966292 -0.0278778 2.73757e-21)
(0.996836 -0.00100175 -3.15321e-23)
(0.999876 -4.19551e-05 1.60176e-23)
(0.999487 -0.000502501 2.82994e-23)
(0.988506 0.0457587 3.84426e-20)
(0.993107 -0.000743485 3.26908e-22)
(0.999359 -0.000105734 -2.94527e-23)
(0.919495 0.0106459 5.19861e-20)
(0.998873 -0.0024244 -1.98597e-22)
(1.05043 0.0841056 -1.32828e-20)
(0.999826 -0.000251179 5.90091e-23)
(1.00733 -0.0200246 2.14339e-22)
(1.00002 -8.8705e-07 -2.46454e-25)
(0.985098 -0.032407 -1.87865e-21)
(1.02803 0.00108023 3.80974e-21)
(1.15351 0.00501172 -5.16304e-21)
(0.980698 -0.0182426 3.60575e-21)
(0.99966 -0.000551291 1.05341e-22)
(0.984843 -0.0728192 2.33704e-21)
(0.985482 -0.0004235 1.51797e-21)
(0.999842 -2.07518e-05 1.6561e-24)
(1.00039 -0.000334528 -1.32161e-22)
(0.998239 -0.00311061 2.71827e-22)
(0.993414 -0.00131413 -9.74782e-22)
(1.00271 -0.000792574 -4.79779e-22)
(0.998952 -0.001745 1.27984e-22)
(0.978283 -0.00838332 5.12007e-22)
(1.02183 -0.0575144 -1.94374e-21)
(0.978409 -0.00702819 2.28203e-21)
(1.12301 -0.0305726 1.50868e-22)
(0.971092 -0.00787392 -2.92462e-21)
(1.01342 0.0876296 3.93885e-21)
(1.00996 0.0898979 -2.90941e-20)
(0.998733 -0.000688357 -2.22163e-22)
(1.17429 0.00298316 4.64533e-21)
(0.999985 -3.24686e-06 -4.09343e-25)
(0.998221 -0.0038386 -3.27441e-22)
(0.9766 -0.0019775 5.85011e-21)
(1.0074 0.021764 9.65317e-21)
(1.03496 0.00872721 -9.90714e-21)
(1.00009 -3.40631e-05 1.77309e-23)
(0.998275 -0.00363651 -2.15809e-23)
(0.972162 -0.00870521 2.20413e-21)
(1.04431 0.0338931 -5.83879e-21)
(0.999168 -0.00107713 1.14873e-22)
(1.00286 -0.000765362 2.69999e-22)
(1.00107 -0.000857993 -2.42668e-23)
(1.10882 0.0203633 9.30159e-21)
(1.1911 -0.0504557 -1.39685e-21)
(1.02945 0.105688 1.896e-20)
(0.998645 -0.000198672 -2.17944e-22)
(1.05647 -0.0361391 -3.9899e-21)
(0.999902 -6.14786e-05 -1.31297e-23)
(1.00426 -0.00640717 -9.41962e-22)
(0.999953 -1.16046e-05 -1.89195e-24)
(0.987369 -0.0194638 6.15213e-22)
(0.999706 -6.62776e-05 -2.72824e-23)
(1.01113 -0.0192689 2.30532e-22)
(1.19649 0.0048218 -3.14248e-21)
(0.976525 -0.0260144 4.28696e-21)
(1.0083 -0.0194761 -1.37351e-22)
(1.00724 -0.00552061 -5.66921e-22)
(0.999374 -0.000136198 1.32033e-22)
(1.02367 -0.0156848 1.38468e-21)
(0.99731 -0.0170082 5.42123e-22)
(1.06756 0.00951688 -4.36796e-21)
(1.05241 0.0372831 6.72789e-21)
(1.15182 -0.118253 -4.45701e-23)
(1.12661 -0.0461074 1.71418e-22)
(0.984858 -0.000880618 -1.62618e-21)
(1.00438 -0.00318306 8.67766e-22)
(0.946404 -0.0262241 -1.73172e-21)
(0.93985 0.0650412 -6.41735e-20)
(1.10846 -0.0468405 -1.50671e-21)
(1.02323 -0.0093023 -5.23864e-21)
(0.921539 0.0478242 -3.18373e-20)
(0.998681 -0.000137919 1.07551e-22)
(0.998507 -0.000857231 -6.8576e-23)
(1.14236 -0.035274 4.92177e-22)
(0.999078 -0.0018515 -6.89527e-23)
(1.01175 -0.0374791 1.4856e-22)
(1.00507 -0.00171848 3.05428e-22)
(0.997533 -0.000385425 -1.68366e-22)
(0.998183 -0.000335563 -2.67013e-22)
(1.02743 0.0214832 1.14901e-20)
(0.999942 -0.000136518 -9.67737e-25)
(1.00045 -0.000220607 -5.88995e-23)
(1.00007 -1.46239e-05 1.32573e-23)
(0.996988 -0.00062759 9.06217e-22)
(0.99456 -0.0082782 1.00907e-21)
(0.999985 -2.84623e-06 3.1562e-25)
(0.999068 -0.000227155 2.80004e-23)
(0.981393 -0.0160641 1.27176e-21)
(0.957355 0.013514 1.71343e-20)
(1.01004 -0.0203061 -1.66338e-22)
(0.99394 -0.0108283 1.61636e-21)
(0.967869 0.051162 7.41892e-21)
(1.00097 0.0329925 2.48523e-20)
(1.05805 -0.000486009 -3.53603e-21)
(1.16609 0.00840848 -1.9706e-21)
(0.948616 -0.00455688 5.6687e-21)
(1.00439 -0.00360666 -4.28527e-22)
(1.00751 0.0360291 -1.37226e-21)
(0.989991 -0.00207913 -1.98981e-21)
(1.03375 0.0831072 6.0433e-22)
(1.00877 -0.0447966 1.38701e-23)
(1.0347 -0.102874 -1.79824e-21)
(1.07398 0.0708346 9.2478e-21)
(1.03578 0.0879353 -1.68517e-20)
(0.96756 -0.024027 6.13336e-21)
(1.03638 0.00715311 -6.49067e-21)
(1.08347 0.114197 2.3073e-20)
(1.04536 0.0844367 2.47668e-20)
(1.02044 -0.00189715 3.69777e-21)
(0.997381 -0.00132926 1.9792e-22)
(0.99634 -0.00204671 1.72944e-22)
(0.999922 -1.93037e-05 -6.28657e-24)
(1.01532 -0.0248635 3.11503e-22)
(0.989714 -0.00174646 4.68548e-22)
(1.00089 -0.00216657 -1.17789e-22)
(0.999907 -2.20544e-05 -1.16519e-23)
(0.998589 -0.000639473 8.65386e-23)
(0.982362 -0.0718453 -3.83706e-21)
(1.09444 0.0307072 4.05213e-21)
(0.984392 -0.00558273 -2.59353e-21)
(0.999527 -0.011286 5.70483e-22)
(0.996686 -0.00062924 -4.832e-22)
(1.05419 -0.0382824 1.40078e-22)
(0.993725 -0.00139419 -1.56863e-21)
(1.00216 -0.00653887 3.67742e-22)
(1.09512 0.109339 3.68654e-21)
(0.998383 -0.000309862 -6.23277e-22)
(0.999981 -4.06396e-05 -2.92396e-24)
(0.999954 -0.000163292 -1.60757e-24)
(1.00004 -9.64325e-05 1.13631e-23)
(0.980523 -0.00731475 1.19212e-21)
(1.0259 0.0191402 -1.36431e-20)
(0.996471 -0.000483914 1.86796e-23)
(1.01992 -0.00806102 3.37937e-21)
(1.02188 -0.120254 3.77319e-21)
(0.99521 0.065862 -7.10451e-22)
(1.00363 -0.00671592 3.13947e-22)
(1.00597 -0.00402943 -1.40332e-22)
(0.99556 -0.00232255 -6.30833e-22)
(0.993019 0.0462013 -3.76693e-20)
(0.999091 -9.90569e-05 8.90972e-23)
(1.03258 0.109166 -9.66985e-21)
(1.00872 0.0151758 -1.51713e-20)
(0.999899 -2.72858e-05 1.36361e-23)
(1.00702 -0.0456718 -1.5784e-21)
(0.997114 -0.00072414 -4.46353e-22)
(0.993887 -0.0561582 5.61002e-21)
(1.00048 -0.000110777 5.88504e-23)
(1.0537 0.00208387 4.92987e-21)
(1.00659 -0.0143979 -1.43196e-23)
(1.00552 -0.00348207 7.20575e-23)
(0.999264 -0.000143534 -1.76651e-22)
(1.06187 0.0365945 7.32687e-21)
(1.04028 0.0326445 2.30217e-21)
(1.00962 -0.0602368 2.5484e-21)
(0.982202 -0.0187465 -2.45196e-22)
(0.998133 -0.00331815 -2.34835e-22)
(1.00135 -0.036327 -2.92481e-21)
(1.12761 0.0466809 -8.33949e-21)
(0.900327 0.037137 -2.97991e-20)
(1.07669 -0.0687211 -9.52971e-22)
(1.00458 -0.00695457 -1.51223e-22)
(0.999994 -1.83614e-06 -1.06507e-25)
(0.988141 -0.00453 -2.07018e-21)
(0.998024 -0.000339492 5.76721e-22)
(1.02288 -0.0152355 2.01612e-21)
(1.00713 -0.0972313 -1.72414e-21)
(1.17274 -0.00903879 -1.29637e-21)
(0.98682 0.0623189 -4.64981e-20)
(1.04789 0.0311031 9.7387e-21)
(1.10751 -0.0960346 2.06547e-21)
(1.06337 0.070757 3.87845e-21)
(0.999044 0.0330687 4.47908e-20)
(1.01742 -0.00250176 2.74506e-21)
(1.00104 -0.00206259 2.68862e-22)
(1.0208 0.0491946 8.31324e-21)
(0.99926 -0.00182132 1.53925e-22)
(0.999842 -0.000146996 1.28283e-23)
(0.983594 -0.00191722 7.30506e-22)
(1.00009 -3.12123e-05 3.33542e-24)
(1.11399 -0.114136 1.45001e-21)
(1.0038 -0.0160184 -4.39608e-23)
(0.987114 -0.0318346 3.12923e-21)
(1.00163 -0.00143774 1.34805e-22)
(1.05847 0.0621557 2.03842e-20)
(0.998446 -0.000286796 -5.14953e-23)
(0.999979 -3.237e-05 -2.89388e-25)
(1.02859 -0.107281 2.02419e-21)
(1.00144 -0.00117303 -7.85203e-23)
(1.09341 -0.00486858 -1.06285e-21)
(0.958209 -0.0142526 1.15378e-21)
(0.938513 -0.0173346 5.94849e-22)
(1.17929 0.0475513 -6.55829e-22)
(1.02183 0.0150465 -5.12151e-21)
(1.01863 0.00416581 3.15514e-21)
(1.01749 0.00387903 -1.28531e-21)
(0.999821 -4.00314e-05 4.55155e-24)
(1.10148 0.0300718 3.21501e-21)
(1.06793 0.0129159 5.08866e-21)
(0.999564 -0.000578129 4.12511e-23)
(0.985114 -0.00605212 3.01357e-21)
(1.00054 -0.000180676 -6.54939e-23)
(1.011 -0.0176633 -1.63035e-21)
(1.0087 -0.0252865 -9.77605e-24)
(1.00399 -0.0012539 3.23488e-24)
(0.99935 -0.00115497 -1.85879e-22)
(1.10836 0.0805552 -1.92191e-20)
(0.999981 -1.99429e-05 -4.8763e-24)
(1.00018 -9.18799e-05 -1.73137e-23)
(1.00182 -0.000907513 -5.41165e-24)
(0.979621 -0.0031449 2.02846e-21)
(1.01677 -0.0096608 2.41918e-21)
(0.986123 -0.026816 -4.51039e-21)
(0.974792 -0.00488028 -1.17986e-21)
(1.01457 -0.0568799 1.39009e-21)
(1.03911 -0.128638 -3.94307e-21)
(1.02463 -0.0267933 7.44658e-22)
(1.02489 0.0498037 -4.77493e-20)
(1.18755 0.0107666 1.63819e-21)
(0.994226 -0.00233715 -8.26155e-23)
(0.924439 0.0693716 4.94053e-20)
(0.979777 -0.0524186 6.58633e-21)
(0.994337 -0.00882884 3.17915e-22)
(0.975409 -0.00403112 1.94987e-21)
(0.998417 -0.0164538 -1.60349e-22)
(0.980921 -0.00232304 3.09728e-21)
(0.991123 -0.00360246 -6.00461e-22)
(1.0239 -0.0115689 -3.68225e-21)
(1.1159 -0.0502039 3.92601e-22)
(0.999977 -3.86745e-05 -4.05963e-25)
(1.02032 -0.0108887 -3.95084e-22)
(0.999914 -2.70289e-05 -6.62518e-24)
(1.00777 0.0757401 9.36055e-21)
(1.12878 0.0682602 1.45317e-20)
(0.995789 -0.00176867 1.97726e-22)
(0.98735 -0.00164423 -2.75717e-21)
(0.999834 -4.86274e-05 -3.32756e-23)
(0.997233 0.0424511 2.82978e-20)
(1.02506 0.0865811 2.21846e-20)
(1.10364 0.0222706 -5.03445e-21)
(1.11407 0.104234 -1.61744e-20)
(0.979843 -0.0556991 -2.77805e-21)
(0.998781 0.0123237 -4.18644e-20)
(0.999946 -0.000117917 6.1464e-24)
(1.04299 -0.0229845 5.23521e-21)
(0.983271 -0.00146199 -1.14774e-22)
(1.08094 0.0599209 -4.40603e-21)
(0.945579 0.0475568 -3.87957e-20)
(1.13109 0.0402537 1.0952e-20)
(1.04336 0.0258549 1.64614e-21)
(1.00015 -0.0111608 -8.21416e-23)
(0.999827 -7.46189e-05 -3.06521e-23)
(1.11617 0.0904503 6.7334e-21)
(1.17979 -0.0306761 -2.15848e-22)
(0.995874 0.0472488 -9.30508e-22)
(1.08671 -0.00606874 9.25824e-21)
(1.02755 0.0407484 1.40599e-20)
(0.993857 -0.00209553 -2.78795e-22)
(0.992497 0.0625164 1.26966e-20)
(1.02864 0.0824195 7.88689e-21)
(0.99216 -0.00301464 -1.68272e-21)
(0.993446 -0.0028247 -6.23494e-22)
(1.12639 0.0817262 3.42079e-22)
(0.936085 -0.0160819 -7.9975e-21)
(0.999926 -0.000138241 -9.52333e-24)
(0.988727 -0.00488824 2.66251e-21)
(0.941365 -0.0225116 5.838e-21)
(0.99199 -0.0699552 -8.1772e-22)
(1.00831 -0.0023849 -2.41321e-21)
(1.007 -0.00500135 1.6089e-22)
(0.999892 -0.000170899 -1.77867e-23)
(1.02663 0.0914328 -3.33658e-20)
(1.00052 -0.00989698 1.39454e-23)
(0.99991 -5.23924e-05 5.85814e-24)
(1.02138 -0.0528303 1.14727e-21)
(0.999571 -0.000378558 3.64637e-23)
(0.999806 -6.94543e-05 2.32236e-24)
(1.0048 -0.0106759 -1.81989e-22)
(1.04894 0.0615626 2.7425e-20)
(1.02087 -0.095719 2.83163e-21)
(0.960322 0.0479215 2.29196e-20)
(1.00006 -1.12804e-05 -9.2855e-24)
(1.0532 0.0650501 -2.87189e-20)
(1.01447 -0.0454486 1.05306e-21)
(0.999935 -0.000165136 -2.70392e-24)
(1.00002 -4.98516e-06 -2.88988e-24)
(1.00319 0.00999172 -2.51795e-21)
(1.04495 0.0531223 1.01848e-20)
(0.996609 -0.00216007 1.71979e-22)
(1.04157 0.0412069 -1.31552e-20)
(1.00002 -1.71106e-05 2.09806e-24)
(1.04192 0.0457325 -1.83411e-20)
(1.13768 -0.119494 2.96991e-21)
(0.991721 -0.00269788 1.85239e-21)
(0.999306 0.0192142 -5.75069e-20)
(0.98009 -0.0437742 4.37958e-21)
(1.11787 0.0988743 1.60091e-20)
(0.976574 -0.00407014 1.17218e-21)
(1.04554 0.048294 2.38647e-20)
(1.0493 0.0559697 -7.35697e-21)
(0.985873 -0.00744224 4.32814e-21)
(0.98141 -0.00916009 -3.20269e-21)
(0.99579 -0.00878901 9.30419e-22)
(0.997581 -0.000641696 -1.46075e-22)
(0.999832 -0.000166264 3.53675e-23)
(1.00036 -0.00938819 -2.45595e-23)
(1.03717 0.0783191 -3.98366e-21)
(0.999976 -3.02855e-05 1.24227e-24)
(1.03739 0.0394061 1.74105e-20)
(1.03357 -0.0952395 4.11436e-21)
(1.00466 0.0474466 1.11845e-20)
(1.03733 0.03557 -1.97618e-20)
(0.938875 -0.0211157 -7.16502e-22)
(0.965583 0.0611997 -4.82105e-20)
(0.99866 -0.00100719 1.24319e-23)
(1.01493 -0.0228629 7.36948e-22)
(1.04972 -0.0680725 7.84012e-22)
(0.981774 -0.00216659 -1.82591e-22)
(0.994577 -0.00295352 8.29631e-22)
(1.01214 -0.0468797 -9.8603e-22)
(1.04829 -0.0155395 -5.45701e-22)
(0.930039 0.0428915 6.06301e-20)
(1.00004 -1.80379e-05 1.01418e-23)
(0.998424 -0.00107737 1.66592e-22)
(1.01987 -0.0675895 4.31794e-23)
(1.00001 -4.18664e-06 3.52287e-25)
(1.00803 0.0810435 4.59971e-21)
(1.00143 -0.00100961 0)
(1.00001 -5.0069e-06 2.66203e-25)
(1.00016 -7.46207e-05 4.05545e-23)
(1.00036 -9.33768e-05 8.24129e-25)
(0.987646 -0.0181349 3.10693e-21)
(1.01969 -0.0145774 -1.45931e-21)
(0.998725 -0.000770607 2.6165e-22)
(0.99993 -1.38039e-05 1.24285e-23)
(0.994197 -0.00277095 4.61282e-22)
(1.0041 -0.0111653 -1.40702e-22)
(0.997294 -0.103519 -4.72349e-21)
(0.944074 -0.00711748 5.75254e-22)
(1.01608 -0.00858892 4.17534e-21)
(0.999977 -2.32868e-06 3.84268e-24)
(1.09467 -0.136766 4.78192e-21)
(0.988922 -0.00338547 -1.06748e-21)
(1.11443 0.0739459 -1.18203e-21)
(1.00036 0.0180944 -8.16731e-21)
(1.00107 -0.00311159 6.35074e-23)
(1.10362 0.0644082 -1.81888e-20)
(1.00013 -8.33273e-05 -2.95083e-27)
(0.989468 -0.00380614 3.13077e-23)
(1.02017 0.000800439 -6.58207e-21)
(0.994594 -0.00335066 -3.39849e-22)
(1.05013 0.0731519 -1.62907e-21)
(0.989382 -0.0059516 -2.00632e-21)
(1.04409 -0.0211093 -4.39493e-21)
(1.02114 0.00200443 -7.0622e-21)
(1.05225 0.0333044 -4.19849e-21)
(1.00677 -0.0132574 -7.05797e-22)
(0.99159 -0.00387006 4.98979e-23)
(1.06906 0.0618149 1.30248e-20)
(0.985978 -0.0770221 -4.35077e-21)
(0.998628 0.0795699 3.83021e-20)
(0.992583 -0.00434252 -1.94292e-21)
(1.05239 0.0947428 -1.53157e-22)
(0.992572 -0.00381755 5.18929e-22)
(0.999048 -0.000453377 -1.70538e-23)
(1.04263 0.0235401 4.56521e-21)
(1.01383 -0.0262121 -2.25798e-22)
(1.03051 0.00272996 1.0057e-20)
(1.00143 -0.000753634 8.7186e-23)
(1.00001 -3.52574e-06 1.2296e-25)
(1.00913 -0.1179 1.68529e-21)
(1.09359 0.103591 -2.09531e-20)
(1.0013 -0.00301516 -8.38741e-23)
(1.11158 0.0660208 1.83017e-21)
(0.989966 -0.00553903 -1.31008e-21)
(1.08656 -0.142833 -1.52941e-21)
(1.04167 -0.0352505 1.66462e-22)
(0.985877 -0.0285227 2.52858e-21)
(0.998622 -0.000885226 -1.10281e-22)
(0.992768 -0.000955542 -3.92159e-22)
(0.980012 -0.0660133 -2.70142e-21)
(0.974707 -0.00883001 4.46102e-21)
(0.992099 -0.00356321 1.37644e-21)
(0.99988 -0.000385317 1.55452e-23)
(0.99282 0.0839914 -4.65367e-21)
(1.10081 0.0571905 1.1198e-20)
(1.02143 -0.00885248 -1.27701e-21)
(0.999836 -0.000128538 2.34481e-23)
(1.02683 0.0777988 -1.50501e-20)
(1 -2.07727e-05 5.41172e-25)
(0.999848 -0.000113405 4.63505e-23)
(1.09318 0.0559575 9.48348e-21)
(1.00998 -0.0218245 5.10634e-22)
(1.10205 0.093617 1.76287e-20)
(1.02014 -0.00290607 2.80342e-21)
(1.01496 -0.0109372 -3.04588e-22)
(1.08508 -0.0564106 2.71731e-23)
(1.05366 -0.117767 3.89894e-21)
(1.17916 0.0403413 -2.8515e-21)
(1.00105 -0.00074458 -1.90213e-22)
(0.959942 -0.0155162 -4.579e-22)
(0.999985 -5.00111e-05 -8.55104e-25)
(1.00452 -0.00989745 1.26387e-22)
(1.05342 0.0703777 1.02943e-20)
(0.986622 -0.00695836 3.01816e-21)
(0.997725 -0.00129076 2.31625e-22)
(1.0144 -0.0360554 -3.96096e-22)
(0.998403 -0.000952214 1.58885e-23)
(0.99968 -0.000945661 4.80594e-23)
(0.924278 0.00990246 1.07406e-20)
(0.992138 -0.00468461 -1.10101e-21)
(0.999576 -0.00063921 -1.43073e-22)
(0.999984 -7.25973e-07 -8.04472e-25)
(1.01504 0.00517811 1.36867e-20)
(0.977216 -0.0242561 -6.73259e-22)
(0.999734 -0.000484105 4.21663e-23)
(0.997728 -0.000743645 2.98103e-22)
(1.02028 0.0171174 5.55684e-21)
(1.05828 0.00907697 1.08819e-21)
(0.967332 -0.0219297 -3.80054e-21)
(1 -1.30221e-05 1.99469e-25)
(1.00179 0.0136437 3.61507e-20)
(0.988812 -0.0157817 -2.13255e-21)
(1.05849 0.056658 -2.05174e-20)
(1.0108 -0.0012753 -3.63707e-21)
(1.01238 -0.00105783 8.27949e-21)
(0.973226 -0.0109989 6.08108e-21)
(0.999921 -5.70661e-05 -3.83279e-24)
(1.02023 1.28207e-05 -1.2538e-21)
(1.06231 0.0067629 -1.64714e-21)
(1.15819 0.0454237 7.94088e-21)
(1.03913 -0.0904088 7.29316e-22)
(1.03457 0.0738585 1.20531e-20)
(1.00508 -0.00140656 -5.81442e-23)
(1.07471 0.0651436 -1.79086e-20)
(1.0004 -0.0129756 -1.50938e-22)
(1.0178 -0.0509041 -2.54774e-21)
(0.999681 -0.000144349 -4.61358e-23)
(1.00325 -0.0169823 7.88554e-23)
(0.999916 -0.000374252 5.77723e-24)
(1.03914 0.0279293 -1.33065e-20)
(1.06755 0.102523 -3.65496e-20)
(0.998789 -0.00104626 8.79607e-23)
(1.01583 -0.0108408 1.02078e-22)
(0.985358 -0.00421555 1.03839e-21)
(1.04226 -0.078581 2.13165e-22)
(1.03743 -0.0836462 -2.06133e-21)
(0.998491 -0.000751401 1.74865e-22)
(1.03974 -0.0233181 -1.85392e-21)
(0.931591 0.00268858 -1.81847e-20)
(1.15423 0.0286909 6.00424e-21)
(0.999955 -0.000142581 1.30975e-23)
(1.05416 0.0066085 -3.99546e-21)
(0.997721 -0.0079939 -4.43829e-22)
(0.99345 0.00267978 3.94665e-20)
(0.989965 -0.00485216 1.82608e-21)
(0.997292 -0.0239667 -5.11241e-22)
(1.01639 -0.0317519 -7.89436e-23)
(0.996007 -0.0248376 -8.77559e-23)
(0.999292 -0.0191386 -1.10032e-21)
(0.993813 -0.00301999 3.17814e-22)
(0.999665 -0.0128555 6.08105e-22)
(1.00172 -0.00557465 -9.76196e-23)
(1.04971 -0.0189226 1.19918e-21)
(1.00009 -2.68996e-05 -2.58265e-23)
(1.17472 -0.0872432 -4.10035e-22)
(1.13959 -0.00716716 1.5323e-21)
(1.01696 0.0890303 2.70281e-20)
(0.968993 -0.02071 5.78762e-21)
(1.09456 0.0895951 -8.92606e-21)
(1.00162 -0.000603462 3.06757e-22)
(1.06379 -0.0665616 -8.61343e-23)
(1.00527 -0.0344257 -1.06113e-21)
(1.0178 0.0299011 1.56776e-20)
(0.994253 -0.0036298 7.86451e-22)
(1.00009 -0.000158736 1.70719e-23)
(0.989416 -0.0163899 2.78169e-21)
(0.996536 -0.00854233 -3.52536e-22)
(1.03707 -0.021494 3.61478e-21)
(0.976042 -0.00672779 -3.76826e-21)
(0.9804 -0.00855717 1.05481e-21)
(1.1123 -0.030864 1.11197e-21)
(0.987687 -0.00270429 -1.79793e-21)
(1.01422 -0.0333636 1.68144e-22)
(0.993552 -0.0740769 3.02396e-21)
(1.00001 -7.02647e-06 2.18046e-25)
(1.05046 -0.0120548 6.38537e-21)
(0.994864 -0.0664445 -8.16433e-21)
(1.09997 0.0775494 8.6457e-21)
(1.08549 -0.0629022 -3.90947e-22)
(1.0292 0.00225218 8.57823e-22)
(1.02696 -0.0922427 -5.57711e-21)
(1.0343 0.0975603 7.43352e-21)
(1.03142 -0.0312193 1.53183e-21)
(0.971994 -0.0101781 -3.59852e-21)
(1.01443 -0.042195 -1.08837e-21)
(0.965749 0.00413328 1.7488e-20)
(1.14024 -0.089703 1.57997e-22)
(0.989386 -0.00451133 -5.54368e-22)
(1.02923 -0.115652 -4.37015e-22)
(1.02563 -0.059525 1.5134e-21)
(1.04239 -0.105995 -8.79036e-22)
(1.03998 -0.0725999 -1.7664e-21)
(1.06866 0.0560759 1.6465e-20)
(0.997743 -0.00147509 1.54057e-23)
(1.00664 0.035014 5.79428e-21)
(1.00658 -0.00129081 4.33762e-22)
(0.99968 -0.000487065 -6.03935e-23)
(0.999006 -0.00209424 4.22336e-22)
(1.05022 0.00114158 -1.54859e-21)
(0.893815 0.00349848 5.17018e-22)
(1.00143 -0.00592273 5.63578e-23)
(1.0177 -0.0472617 3.76911e-22)
(1.02026 0.0192577 -9.24199e-21)
(1.00002 -6.95744e-06 -5.15568e-25)
(0.982364 -0.00859959 2.55239e-21)
(1.019 -0.00823127 3.00414e-21)
(1.06638 -0.0355487 2.91026e-21)
(1.00662 -0.000829538 2.42874e-21)
(0.998701 -0.0017958 7.83035e-23)
(0.987207 -0.0363017 9.51422e-23)
(0.99828 -0.00770436 -1.1989e-22)
(1.00003 -4.54799e-06 5.56523e-24)
(0.982032 -0.042848 -7.36017e-21)
(1.04243 0.0687142 -4.30434e-21)
(1.01785 -0.027826 1.86146e-22)
(0.986031 -0.00475883 -1.95393e-21)
(1.0015 -0.000328443 -1.10559e-22)
(1.02288 0.0214077 1.21971e-20)
(0.999689 -0.000568386 -2.78275e-23)
(0.99898 -0.000591856 -8.76997e-24)
(0.999708 -0.000159355 -4.21946e-23)
(0.999394 -0.00194296 -1.0588e-22)
(1.14634 0.0465166 6.23062e-21)
(1.02572 -0.031842 2.25385e-21)
(1.00728 -0.0165987 2.69786e-22)
(0.985065 -0.00700276 -8.90212e-22)
(1.00004 -4.65259e-05 5.39954e-24)
(1.07061 -0.112093 4.78146e-21)
(1.18202 -0.0164044 1.82955e-22)
(1.07619 -0.121032 -2.32142e-21)
(0.998417 -0.0304731 -9.45424e-22)
(1.01161 -0.0080344 2.78809e-21)
(0.999827 -8.98572e-05 1.93758e-23)
(0.990591 -0.0106954 -1.11326e-21)
(0.965047 -0.0442639 -4.49439e-21)
(1.14438 0.0307675 3.83e-22)
(1.00317 0.0465187 -4.03507e-22)
(0.999076 -0.00293676 8.51849e-23)
(0.95212 -0.0314585 2.62103e-21)
(0.996129 -0.00256676 -7.49616e-22)
(1.02956 -0.0289251 -3.84721e-22)
(1.07936 0.0534349 1.82056e-21)
(1.00038 -0.000123454 -9.12754e-23)
(0.999875 -0.000190469 -7.12336e-24)
(1.12454 0.0874842 1.93723e-21)
(1.1394 0.0140385 -1.03474e-21)
(1.01621 -0.0136786 1.04928e-21)
(0.997594 -0.00161488 3.94996e-22)
(0.998291 -0.000410834 -3.91625e-23)
(0.971354 -0.0448283 1.09266e-21)
(0.99986 -0.000322876 -2.38243e-23)
(1.01597 -0.0293729 7.3171e-22)
(0.98882 -0.00134975 3.74108e-21)
(1.00063 0.0200432 -6.76571e-21)
(1.04577 0.0730036 -2.19994e-21)
(1.05914 -0.0615123 1.53853e-22)
(0.998491 -0.0667255 3.0608e-21)
(1.00526 -0.00140945 1.21696e-21)
(1.01295 -0.0219467 -1.10927e-21)
(1.13173 -0.000686458 5.3751e-21)
(0.998285 -0.0743498 -1.87281e-21)
(1.01706 -0.0405048 5.83843e-22)
(0.999999 -6.34982e-06 9.2373e-26)
(1.11971 -0.0139713 3.47507e-21)
(0.977915 -0.00274497 3.51706e-22)
(0.997772 -0.0827218 3.75534e-21)
(1.01733 -0.025653 -1.86741e-21)
(0.961866 -0.0146684 -8.15032e-22)
(0.999675 -0.000284064 -2.06153e-23)
(0.997543 -0.0012135 -1.76055e-22)
(1.03381 0.0337947 1.52423e-20)
(0.97462 -0.0102929 -1.3692e-21)
(0.999987 -1.53836e-06 8.58491e-25)
(0.99765 -0.00048923 -4.11583e-22)
(1.13769 -0.0763957 -2.93741e-21)
(0.999864 -4.19666e-05 4.91064e-23)