/*--------------------------------*- C++ -*----------------------------------*\
  =========                 |
  \\      /  F ield         | OpenFOAM: The Open Source CFD Toolbox
   \\    /   O peration     | Website:  https://openfoam.org
    \\  /    A nd           | Version:  7
     \\/     M anipulation  |
\*---------------------------------------------------------------------------*/
FoamFile
{
    version     2.0;
    format      ascii;
    class       surfaceScalarField;
    location    "2.5";
    object      phi;
}
// * * * * * * * * * * * * * * * * * * * * * * * * * * * * * * * * * * * * * //

dimensions      [0 3 -1 0 0 0 0];

internalField   nonuniform List<scalar> 
29574
(
587.675
-435.26
-152.415
269.72
42.8579
-312.578
936.191
-1122.89
186.696
-395.231
994.365
-599.134
-634.647
670.241
-35.5945
-687.406
52.7592
202.877
-23.4206
-179.457
601.037
-450.825
-150.212
218.733
-288.191
69.4577
97.5091
503.528
-63.7442
243.521
-179.777
-263.979
265.94
-1.96167
-239.42
-13.4843
252.905
34.5257
553.149
622.681
-651.158
28.4772
-965.148
569.917
-282.083
322.303
-40.2203
-84.6509
-969.459
1054.11
-249.708
234.2
15.5081
303.956
-34.2361
-291.57
292.588
-1.01827
-27.9302
-236.048
-452.035
549.544
259.058
-297.494
38.4364
936.191
-362.897
86.466
276.431
887.863
-972.566
84.7034
341.632
-153.568
-188.064
-158.203
-84.8767
243.08
-98.3439
-151.364
-592.191
741.21
-149.019
346.606
-291.133
-55.4724
371.295
-87.6593
-283.636
556.968
-289.509
-267.459
-717.577
780.421
-62.8438
-731.631
139.44
130.772
-357.157
226.385
932.198
-932.198
781.989
-348.742
-433.247
261.605
420.356
-681.961
4.70992
783.74
-788.45
-291.492
101.635
189.857
-870.694
696.701
173.993
970.806
-82.9436
-129.261
-233.636
115.184
71.8274
-187.011
1082.8
-466.957
-615.842
309.548
-224.951
-84.5971
842.915
-30.4287
-812.486
239.019
-234.128
-4.89083
-787.863
70.2857
47.737
-733.391
685.654
-256.381
-132.8
389.181
762.541
-836.39
73.8491
145.971
-354.145
208.174
17.2453
-215.211
197.965
386.192
-115.967
-270.225
694.678
-751.98
57.3019
-47.9378
-301.386
349.324
-72.3088
-209.774
-658.102
421.304
236.798
-50.2256
245.249
-195.023
481.963
-484.414
2.45154
-203.583
-331.685
535.268
-697.566
828.048
-130.482
-718.102
109.756
608.345
523.342
-576.725
53.3836
-651.637
-66.4647
-146.211
-354.478
500.69
-137.828
-78.7943
216.622
365.773
-544.904
179.131
300.031
-211.62
-88.4109
676.165
-53.484
-278.142
-29.9202
308.063
1063.03
-577.26
-485.767
-57.92
447.742
-389.822
337.616
-136.014
-201.602
-227.541
15.5687
211.972
876.482
-614.877
574.463
-835.044
260.581
634.979
-525.223
817.1
-195.945
-621.154
268.486
-77.3359
-191.15
294.319
-75.5853
133.721
-183.947
-598.902
-271.792
244.18
-281.924
37.7439
-49.1976
155.884
-106.686
-633.937
430.354
142.569
-309.82
167.25
-414.852
678.03
-263.178
738.989
148.75
-887.739
904.558
-130.282
-774.276
167.441
-276.597
109.156
185.67
123.878
425.655
56.3077
241.516
-74.0753
-779
790.572
-11.5719
-305.309
241.565
980.902
-890.243
-90.6592
284.379
-141.809
410.867
-421.186
10.3193
178.003
116.067
-294.07
428.007
-183.194
-244.813
1176.43
-1176.43
462.222
18.1116
-480.333
-40.2026
260.264
-220.062
-447.384
214.873
232.511
263.336
8.92786
-272.264
-261.607
-84.3966
346.004
29.4118
-187.615
182.121
20.7558
401.369
-115.294
-286.075
-252.264
-402.1
654.363
-542.886
484.966
-568.586
-431.507
-373.067
-177.541
550.608
576.772
58.2073
-281.685
-12.0861
293.771
-1031.21
251.025
780.184
-170.774
909.762
38.8484
262.398
-301.246
355.269
-585.835
230.566
243.219
-361.945
118.726
125.901
431.067
746.539
-831.189
11.0363
205.355
-216.391
177.555
164.077
251.537
95.0681
139.456
-512.523
-20.6975
-157.254
177.951
16.0859
222.933
842.757
-838.047
294.251
487.738
139.265
-356.497
217.232
248.887
927.539
274.395
-66.4687
-207.926
-280.571
-10.9991
-410.9
37.674
373.226
111.91
57.2566
-169.166
282.085
-243.237
25.682
-303.824
170.776
129.255
-302.506
212.139
90.367
-528.705
81.1657
447.54
-103.442
242.708
-274.299
75.666
198.633
-96.5619
-225.682
322.243
8.7893
281.797
-290.586
-760.246
-212.32
128.544
-225.106
199.789
971.733
-67.1749
-236.588
-40.6135
277.202
152.327
664.773
-260.6
-13.6998
-742.314
143.412
89.0001
170.058
72.2842
-164.502
92.2174
-16.7615
-222.659
-168.65
314.621
-222.856
199.435
-36.9534
-377.712
-150.993
-188.072
-640.657
828.729
-162.805
113.607
348.955
61.9118
258.857
9.62867
428.121
19.6211
-341.942
472.714
324.971
-50.5765
-193.275
-127.662
320.937
-10.8777
-196.471
207.349
404.563
-442.772
38.2097
98.9897
95.0331
-194.023
46.471
324.824
-571.984
509.44
62.5444
-534.604
-32.7642
567.369
-433.496
-109.39
-28.9715
225.355
-196.383
35.3157
-209.698
174.382
735.448
196.75
339.288
60.01
-399.298
-90.3264
212.708
-122.382
265.956
38.0001
232.497
-127.198
-105.299
576.224
-210.451
24.3469
956.555
146.322
236.568
112.414
-348.982
267.073
-256.037
232.525
-362.182
129.657
65.421
-955.664
-559.758
413.546
223.826
-151.542
-40.6824
283.182
-242.5
75.6556
263.632
-45.873
291.946
-246.073
323.769
-57.813
4.59678
231.971
240.068
-364.46
124.392
-75.8871
298.078
-222.191
-439.574
172.714
-356.782
184.067
263.535
-397.699
134.164
-319.889
288.728
31.1616
-0.838135
-332.106
332.944
751.309
-703.572
203.272
-186.026
619.407
-634.71
15.3035
418.852
104.49
-856.277
523.474
332.803
-41.0195
309.247
-268.227
-91.7946
-151.609
243.404
-290.579
561.253
501.774
512.879
-512.879
-533.249
-497.96
-236.766
-210.618
894.822
-600.571
9.77421
258.368
-268.142
-184.649
-251.103
435.752
93.3969
148.45
-241.847
492.56
-907.412
-338.725
254.328
-13.9935
-396.906
355.939
-356.777
-1068.64
500.051
-484.447
484.447
-642.895
-4.09887
646.994
614.045
-258.776
293.056
109.453
-402.509
-324.955
284.752
-221.558
198.632
22.9266
-524.546
825.898
-301.352
306.105
-61.925
537.502
-75.2805
-421.213
227.939
175.04
66.4762
-645.745
461.096
224.492
-360.506
87.2171
-179.012
236.542
113.2
-349.742
350.831
-107.612
-940.339
-236.088
624.064
-47.2917
-65.1713
253.064
-187.893
515.098
-433.027
-82.0714
-66.8279
738.708
-671.88
-53.2067
896.121
261.797
1.53877
-97.5849
190.982
-84.822
524.271
-439.449
-539.965
191.223
-172.507
16.9862
155.521
-106.676
399.732
-26.6547
207.184
-180.53
-76.8987
-214.594
194.579
-82.6696
-76.953
192.137
10.6448
-245.053
234.409
28.7408
461.524
-490.265
710.311
49.3924
-759.703
292.482
13.6234
-63.6481
-159.208
-124.504
36.783
223.111
-259.894
39.1473
362.222
225.425
-749.971
323.545
-199.384
-82.54
122.6
-820.569
697.969
57.7304
-384.086
-192.639
-263.293
199.255
64.0374
-345.965
-312.137
567.701
-999.208
244.408
-54.8827
-189.526
-33.5088
227.407
-193.898
-1041.51
347.889
693.625
-32.5232
367.427
-334.903
324.99
61.2022
-255.463
107.429
148.033
325.743
-87.5252
-238.218
353.222
-120.697
-185.733
301.8
285.129
-212.868
146.724
-180.233
-95.2921
575.122
-479.83
754.369
-179.906
-132.924
-337.246
470.17
853.931
-731.332
237.302
-200.519
-46.6939
-295.248
-537.458
85.3056
78.681
-163.987
333.949
-77.6876
-256.261
-63.016
164.236
-101.22
362.259
-122.191
-100.807
-334.11
434.918
7.54081
844.004
-851.545
-776.434
804.622
-28.1879
-246.999
70.8329
176.166
-754.586
443.322
311.264
66.134
-164.478
9.43559
170.778
-180.214
-271.308
243.377
6.15136
-231.286
225.134
233.433
-8.07866
161.394
-505.456
344.062
227.24
-216.595
-40.5386
-187.002
-73.5329
546.247
331.14
-72.8918
-258.248
-733.941
741.482
-475.272
351.057
124.215
453.293
-313.836
478.342
-854.755
376.414
-274.52
-79.6244
-726.505
28.9392
-174.076
-81.3863
-647.198
631.814
15.3844
-174.764
351.322
-176.558
290.457
288.076
264.765
-166.124
-98.641
249.856
-272.081
-470.234
-193.787
-82.81
275.64
-187.305
-88.3348
-520.765
13.2826
507.483
180.039
-81.0498
1006.21
-1006.21
433.303
-514.233
-527.281
129.676
189.302
-318.979
-466.674
419.981
-330.832
300.912
-330.863
393.552
150.423
-543.975
49.7227
712.818
520.535
-126.984
404.176
-581.717
76.8961
210.655
-287.551
-208.519
-216.349
424.868
274.523
89.1086
-363.632
-297.431
-544.749
842.179
489.081
-741.345
343.282
34.6281
-377.91
-969.459
417.024
95.856
253.635
-264.513
305.678
-353.616
-25.4572
143.435
-117.978
1.51455
-266.701
-252.69
11.5974
241.093
235.969
39.6712
282.868
-373.194
226.258
-92.5362
-524.358
-180.72
-129.1
-388.338
-366.248
-950.143
-172.334
1122.48
-500.876
951.248
-450.372
-136.836
-9.25394
146.089
-669.764
636.862
32.9019
-224.305
346.249
-121.945
241.572
273.526
1.43605
-216.647
873.901
-912.434
38.5327
422.74
-100.893
202.528
-348.46
156.846
191.615
-241.749
50.8938
190.856
-461.932
-58.833
132.952
-248.919
328.76
-92.2178
-1055.83
867.759
-518.242
433.42
-112.076
230.701
-118.625
-57.0547
374.266
-317.212
350.449
-327.619
-22.8297
-377.935
41.9121
-214.419
-285.432
648.694
-363.262
-46.2613
-259.048
-91.0722
434.354
4.35951
191.451
-195.811
887.563
195.236
-329.411
-19.0497
157.382
193.067
-374.149
-455.175
829.324
-823.294
356.337
433.31
-947.674
514.364
82.4134
-420.042
337.628
-253.391
190.375
-5.64283
467.167
-157.858
-198.924
-442.892
151.759
616.202
7.86186
29.238
215.17
436.26
-99.6558
-336.604
-92.6623
-95.0111
187.673
104.006
202.216
-279.114
9.10682
-111.684
-47.3105
158.994
-386.124
-2.97402
389.098
-27.9971
301.442
-273.445
-105.914
496.892
-390.978
-421.445
364.21
-89.6869
-865.014
798.186
330.264
-312.153
-68.8571
-293.325
-68.6588
-295.801
-656.43
-122.57
-520.603
272.927
247.675
-264.421
52.8007
-130.409
130.426
23.5574
167.431
410.058
-577.489
27.346
-266.196
41.2445
20.7616
271.184
149.826
-265.12
-64.8243
-253.154
317.979
-811.05
796.221
14.8293
237.639
-253.35
15.7106
364.162
530.66
259.142
-346.667
-12.2917
304.773
-724.648
694.219
294.412
-209.948
-84.4632
272.487
10.6955
-176.495
-146.429
-318.328
464.757
-217.05
-102.84
280.298
-357.985
417.59
-518.397
115.19
83.4063
-198.597
208.611
-129.865
-78.7466
276.906
-651.056
134.306
-488.784
238.696
-104.26
-134.436
48.4984
-808.745
-418.648
283.57
-356.462
-577.355
659.769
-462.831
85.1181
368.363
-665.794
146.783
-252.599
105.816
-845.209
893.707
-30.6295
-10.9632
794.703
-225.38
218.823
6.55739
-306.865
201.207
105.657
-236.946
-160.752
-44.8378
416.876
-372.038
524.431
-619.723
29.371
-218.626
189.255
164.305
-134.934
315.415
90.4077
-265.171
165.864
28.7157
-136.253
766.782
107.12
-415.828
171.015
-237.142
180.495
56.6464
197.371
-224.025
2.28668
193.798
-196.085
-328.773
263.949
-229.035
-8.66171
237.697
-523.687
390.762
190.349
-181.56
-581.202
-65.996
614.753
4.65375
-280.296
-232.227
191.892
-84.4842
-107.408
-129.402
-78.3734
207.775
161.76
-215.994
54.234
-41.5538
267.551
-225.997
-227.6
219.966
7.63339
-202.098
-25.5013
332.421
103.839
940.669
-691.782
-253.831
-292.292
246.03
189.735
32.8346
-222.569
-954.247
786.071
168.176
-385.095
173.056
212.039
-474.331
-135.98
610.311
-158.986
-806.162
5.47029
-299.54
-455.359
452.385
-86.8711
-219.993
246.267
-18.8597
649.536
-93.7476
-555.789
347.765
-453.678
-159.342
756.472
-597.13
-202.273
-206.067
408.34
-290.163
275.715
14.4477
5.92398
-59.8968
221.657
-93.7185
-169.574
-531.045
10.4427
-16.1947
-91.8678
-744.522
35.7297
-432.325
-208.509
79.1071
-256.618
171.742
698.704
261.579
-302.193
166.768
65.7286
-324.618
18.1577
306.461
-271.311
29.5612
-37.9507
-995.659
777.991
217.668
-31.962
230.594
-111.145
278.395
497.388
-519.774
22.386
-290.054
-185.218
-363.342
401.016
-42.9918
150.626
-107.634
969.256
-807.237
-162.019
46.5144
-537.51
490.995
-16.8
-150.048
166.848
-146.648
-117.773
489.374
-63.7188
-226.952
468.523
-555.073
113.157
441.916
-191.89
278.356
515.712
-362.939
-152.773
298.308
8.16073
-306.468
-250.522
185.35
631.491
-87.3335
-544.158
413.643
-246.211
-432.437
388.804
43.6327
249.124
3.93967
-259.759
-64.8595
-184.199
57.0012
206.543
-499.464
59.1978
440.266
-256.48
266.254
-360.027
332.03
-301.437
-67.4238
-417.024
-446.973
402.135
-530.566
1001.84
-471.273
-127.673
84.6807
-179.168
-205.927
488.864
-50.1962
-438.668
-16.2083
-303.82
320.028
-487.216
553.821
-66.6052
416.056
208.57
-101.591
-106.979
180.351
-221.905
205.214
-202.927
-311.852
124.546
433.588
-387.073
-8.71104
-281.452
68.3555
-882.555
882.555
132.527
7.0381
420.444
-427.483
-151.678
180.953
-29.2749
-508.693
300.174
-416.527
57.8315
358.696
49.9544
141.938
-498.136
377.746
120.39
-217.885
437.903
51.4704
307.413
41.7789
-349.191
328.211
-65.8129
-400.03
-32.9963
109.571
-348.503
291.448
337.358
-230.387
-106.971
-50.99
148.814
-97.8241
-950.143
-303.035
-210.267
108.256
102.011
-311.14
223.481
-415.546
-532.128
258.831
528.179
-787.01
-150.613
-526.957
677.57
-458.283
177.987
-27.9452
193.809
216.661
-11.4468
-657.878
640.802
17.0757
59.5173
354.125
268.023
-50.4833
-217.54
-110.458
-522.906
633.364
-560.942
784.909
-223.968
-584.018
49.4453
-758.789
185.664
573.125
-986.677
422.707
563.97
-279.623
-275.449
-125.19
455.454
-968.626
438.06
-675.412
814.312
-138.901
609.35
-719.808
-207.16
252.729
-236.643
124.38
-799.792
-165.044
-693.787
858.832
641.51
-10.0189
501.254
326.794
-81.1592
266.83
-103.029
93.775
-140.328
210.4
-542.085
256.782
-229.599
-27.1826
-140.852
333.118
-192.266
-157.892
-108.304
518.944
-21.5561
-294.434
278.226
12.5398
624.323
-704.09
-651.12
-249.183
-250.281
22.4668
221.055
37.9404
433.932
-471.873
-349.896
322.715
27.1817
-140.475
156.044
561.582
440.258
-359.424
-190.711
550.136
161.868
-234.177
-88.4634
259.239
-60.7843
-355.743
167.959
-234.428
-238.81
298.328
200.602
-128.774
-449.505
-537.172
-284.424
-10.3712
294.795
-305.477
168.279
137.198
-172.513
176.872
-208.424
-97.0534
227.119
-220.968
255.805
-281.987
26.1818
287.758
-86.3869
-201.372
-805.227
646.241
-316.872
-299.259
74.9541
-289.396
324.024
280.017
-102.714
518.77
192.486
-44.0355
286.231
536.027
-822.258
-196.142
167.633
40.9779
-554.714
408.285
-924.296
283.639
306.304
-807.18
-473.89
-73.147
547.037
-532.041
455.859
76.1818
289.397
-208.189
56.5109
-600.323
373.372
-22.7398
169.523
-320.514
358.454
154.615
-517.554
-126.942
-35.7012
210.741
-5.30748
281.022
269.429
-79.6246
174.658
745.81
-7.10247
294.997
-263.448
-31.549
-249.023
-107.474
-112.063
-28.9639
266.603
694.412
256.836
74.9642
203.431
342.45
-117.958
-86.2448
303.839
-217.594
-437.19
99.9444
497.071
-231.522
-265.548
294.184
-299.491
-19.2457
-672.125
691.371
230.439
-828.988
451.053
-227.596
68.9119
-327.16
-115.984
-362.743
478.728
-123.797
140.783
227.6
-308.76
298.459
-16.6627
-868.068
333.463
77.3901
-333.651
-726.711
-510.16
-444.088
244.243
85.2461
-323.464
215.245
-303.709
168.546
70.1501
135.494
-226.488
90.9937
-472.939
138.828
499.266
-920.71
-165.416
80.9321
457.741
26.7068
-574.315
-421.344
19.4595
-600.661
-2.88223
301.19
-113.048
390.611
-277.563
-109.042
-84.9811
139.714
-203.84
-86.7382
-344.554
383.702
-229.203
-68.2912
297.494
-75.8002
244.08
-262.368
-264.435
246.671
17.7639
44.0689
-228.481
297.393
363.51
-50.2389
-299.657
-16.9841
236.95
208.273
-25.9732
-182.3
-107.723
-468.209
54.2526
413.956
-297.638
-119.369
417.007
164.85
-215.84
304.99
-260.393
86.3161
-205.717
-106.156
311.873
796.923
300.491
-29.5209
-216.888
246.408
-23.1214
-508.919
-284.424
-737.548
358.723
378.826
10.8293
-300.339
-9.26967
260.807
-16.7612
235.584
265.888
-341.214
75.3262
-447.945
-111.813
-550.887
202.408
348.478
216.084
21.6135
237.792
329.696
-620.137
290.442
227.499
-421.94
194.44
-366.453
393.242
-671.968
278.726
941.151
-916.805
-723.348
437.916
-409.906
-127.328
537.235
159.443
135.554
-314.625
570.968
-385.07
-185.898
354.249
-192.381
-797.552
236.611
251.914
245.157
-217.001
70.3537
390.823
-106.071
182.738
-187.597
4.85834
233.66
11.5885
575.68
-608.444
-512.014
195.804
316.21
81.5434
-347.21
-148.928
496.137
76.693
359.104
-191.145
264.022
59.747
-467.581
177.527
297.725
135.772
-433.497
124.049
-236.125
-172.035
-229.285
-205.975
-367.359
22.8042
-28.7588
-629.119
-26.1765
227.32
-201.143
-321.83
181.007
140.823
-351.484
-118.531
470.015
-246.379
-92.3453
194.746
13.5265
-318.524
89.008
177.378
101.656
-279.033
-271.361
-117.66
389.022
-368.802
-290.463
270.694
19.7684
137.763
-362.985
225.223
158.861
-251.973
93.112
-42.3689
-109.964
-263.927
373.891
-386.679
228.822
211.623
-440.908
-270.33
122.671
147.659
-455.942
137.614
34.9556
-439.767
404.811
-200.989
-63.4461
167.842
392.214
-321.723
-70.4909
-202.221
208.162
-5.94105
-264.834
139.025
125.808
-100.008
-137.134
-305.003
-110.109
896.18
-221.574
-23.4795
266.25
-487.587
302.37
124.1
-331.694
207.594
-364.806
-139.834
504.64
-469.948
-217.458
218.925
-29.1901
249.971
688.712
-707.957
-48.9388
-274.386
323.325
78.4217
-708.963
630.541
212.07
76.5268
-288.597
279.498
-90.1952
-228.257
233.727
-365.832
-36.6739
402.506
-710.986
39.5032
671.483
-468.254
-177.49
-92.3839
-267.643
521.744
-37.1623
-774.282
-19.3216
793.604
-193.188
519.143
-325.956
-195.358
481.589
171.377
-518.587
299.323
-88.6686
112.439
411.832
-425.719
432.757
-317.465
-122.543
440.007
-524.711
50.8206
327.556
23.5012
42.7997
-271.056
236.202
-51.9811
-184.221
-82.0895
-86.6253
277.001
-67.8455
-280.657
67.8794
210.476
-303.606
-83.7564
387.362
-274.804
320.246
-45.4427
-62.0823
259.453
-328.591
-115.277
443.868
-253.393
118.179
135.215
-133.258
-41.3348
48.6697
-651.181
602.511
-180.929
-251.508
-276.959
-228.497
-338.403
-80.2443
-214.872
-57.8743
272.746
415.717
639.578
179.605
-252.639
73.0339
145.36
514.408
211.333
24.8689
165.178
-232.609
67.4313
-365.232
-158.455
-533.014
-79.0187
328.875
-182.886
314.109
-24.7127
637.856
-176.761
-4.52822
231.648
-247.681
273.835
-26.1539
713.575
3.33549
290.848
-602.331
492.628
109.703
218.835
49.1878
204.521
-21.8835
203.203
-332.303
99.8316
-333.468
14.5625
-355.162
364.061
-8.89915
101.563
-208.249
185.376
34.8872
-320.434
325.04
-4.6064
256.676
-324.968
244.856
-10.4473
-335.842
-130.832
-67.9606
257.818
11.9933
244.789
308.144
-0.0815761
-370.921
-136.67
507.591
-83.1514
-150.977
-202.43
-16.1955
78.5596
244.986
265.55
-294.514
285.392
-72.0965
-230.171
261.85
-31.6795
-1063.51
716.475
347.033
-417.849
120.212
292.394
17.3575
-309.751
-52.4586
343.907
572.144
-181.079
-13.6986
194.778
-65.2944
-206.013
-268.11
-48.6755
316.786
-291.705
-47.6755
339.381
-70.1839
-510.461
-91.8708
-797.612
785.326
12.2856
61.0552
235.831
-296.886
60.2635
290.445
-160.466
446.164
-285.698
-236.354
-55.9375
-442.556
106.769
-215.811
179.935
-261.321
-314.846
-89.1654
404.011
-115.446
430.048
-314.602
-384.513
-70.8464
-217.422
-91.3371
2.37438
-403.159
-115.083
-206.492
684.613
10.3646
642.821
-653.186
-199.164
41.9105
223.744
-807.68
583.936
169.159
-406.106
289.098
-28.8333
112.343
-992.663
-208.708
-95.0007
443.851
-10.5474
-483.337
-385.413
-94.92
-657.412
210.391
-405.045
194.654
-5.02908
272.58
-308.952
-89.4696
398.421
-10.4325
-258.802
269.234
829.971
-116.396
-489.709
484.066
-59.8485
-714.434
-87.3888
419.418
-846.493
783.649
301.818
-464.366
403.582
-86.8307
-123.118
183.257
176.341
-359.598
-438.312
-243.064
186.943
20.1542
-207.098
-204.159
907.178
29.0135
-992.026
559.701
-212.698
-78.3593
291.057
710.985
35.553
346.609
-92.2804
378.422
-355.618
-402.271
412.465
-10.1939
320.002
-328.821
8.81885
352.769
-102.798
-12.2895
-395.434
-142.076
-216.953
-102.025
-197.408
-90.1426
-576.953
767.857
-190.905
-220.446
12.0219
-198.917
-401.336
-462.505
412.308
95.0172
-298.858
-120.097
-120.726
240.823
-45.6826
393.114
-347.432
331.301
-67.352
215.894
-59.233
-156.661
94.3511
-244.4
129.592
155.536
294.229
-82.1581
-302.02
-85.1061
208.984
541.719
-150.956
26.498
-773.738
747.24
-286.495
106.862
-186.486
-30.3054
-69.9551
313.332
57.5879
772.161
-698.312
856.145
-110.747
-745.398
381.899
-77.9871
-303.912
111.116
-229.741
-99.3155
511.041
-411.726
-221.375
-66.8164
27.0478
-736.011
414.391
-100.565
-291.232
291.519
-0.286634
-205.756
-66.1924
271.948
208.072
20.819
-228.891
-30.1222
-113.715
-445.504
-618.003
-427.549
206.327
2.18325
-221.191
-5.68785
236.126
49.4426
-533.919
484.477
-298.436
232.502
-411.67
172.641
-371.565
691.526
-297.119
70.5085
-274.204
203.696
-124.973
281.819
573.151
-168.975
-226.896
-146.23
235.745
865.405
91.1503
-294.795
220.72
47.4013
724.76
-14.4289
197.167
-328.002
-93.1839
364.199
-80.6284
-424.141
-510.469
150.607
359.862
-163.329
-498.706
662.035
-584.454
1007.19
-703.357
126.404
-451.133
-293.142
257.218
96.0038
-922.388
65.8159
856.572
-325.287
363.768
-83.4705
-1.46766
357.407
319.923
0.323688
220.267
-202.424
-17.8436
-301.281
97.1225
-198.641
-3.58065
242.265
340.454
-81.3119
621.324
-130.328
266.755
95.5037
525.971
-108.381
496.297
-86.2394
244.765
-22.2389
-222.526
405.63
-466.716
-320.756
787.472
537.843
-264.915
-268.934
-546.595
80.7161
465.879
296.328
-50.2979
-710.809
677.734
33.0754
512.594
-60.2091
-34.896
635.979
-601.083
-345.495
259.109
267.658
78.5911
402.678
117.857
-371.451
208.112
-18.8567
322.492
8.80872
-422.16
-130.722
-53.1019
587.906
328.444
-318.237
-10.2066
-491.914
43.9692
-360.289
-328.755
304.042
38.7606
328.666
-276.954
315.315
-56.2064
-148.437
-263.526
-240.229
-18.4414
258.67
-400.679
-112.2
-30.4163
547.468
-38.0278
-11.0167
478.184
553.817
-26.4404
-176.088
-274.445
314.666
-40.2208
-83.0149
245.177
32.9813
-743.79
-309.606
-224.214
327.036
-393.225
-53.7481
428.136
627.865
223.879
-851.744
-150.317
554.38
-139.989
307.698
-247.87
-59.8275
-98.0263
-568.941
-189.848
20.1675
208.002
111.921
-136.973
230.085
-271.777
-266.464
320.915
-54.4511
240.99
286.066
-411.256
703.377
419.099
-269.628
349.891
-80.2633
-255.97
-442.833
-217.52
837.295
18.8508
384.456
-61.9645
-949.125
26.7373
371.87
-89.0019
-743.552
-4.74785
-288.577
635.661
208.014
-92.8234
-104.377
4.45972
300.313
-376.814
11.1803
365.634
-229.198
-120.545
225.612
-92.5232
-473.836
-80.8778
482.553
-74.2683
322.434
-2.89446
-292.907
-89.4494
-115.719
-519.75
369.137
-117.947
653.602
-626.554
-261.435
341.13
-79.6947
-217.227
59.3346
284.848
24.3988
-452.838
-467.872
-424.278
974.871
-457.617
-517.254
534.516
-101.096
-492.975
-107.349
-88.8038
19.0306
485.881
-112.509
-6.01611
44.9944
182.325
-219.67
-196.158
62.2962
-91.23
525.478
-111.931
-409.024
-343.569
288.096
270.078
-3.47541
401.446
-79.0122
-57.1359
-149.356
-170.109
-311.727
30.2751
59.0496
-261.48
437.476
-649.796
565.976
-99.8641
-466.112
759.033
-726.052
393.648
-66.6119
-270.415
-303.782
22.4611
548.285
-120.148
-758.167
784.665
222.518
-6.27858
-216.24
-125.606
220.623
453.313
-51.1776
575.725
-145.371
-283.43
286.766
-110.987
-99.2799
-209.854
245.67
-35.8162
-111.58
271.023
294.294
-32.7144
-51.809
251.455
-473.409
-278.571
271.471
-235.96
-35.5111
-394.136
383.477
10.6584
-18.9714
-123.402
280.784
287.597
-293.98
6.38311
-243.425
-104.98
-8.41837
151.853
-326.373
385.887
-43.5691
787.277
-743.708
-507.191
333.963
-47.8965
24.8345
351.027
10.6602
-361.687
6.98091
381.824
208.314
488.387
21.6269
482.35
36.4198
355.111
-47.6986
-59.4607
224.638
232.06
71.779
-863.706
874.071
-299.83
288.437
11.3926
-552.064
254.491
-3.03579
759.876
-553.449
-206.427
262.144
-189.774
-72.3698
432.834
230.152
22.878
496.066
-201.183
619.983
-418.8
78.3006
-49.6383
838.848
-789.21
-392.181
282.217
477.339
198.827
240.089
-3.13811
228.569
-166.98
-468.755
635.735
33.8562
211
51.0446
-561.633
571.714
-509.17
802.16
-275.6
-526.561
-274.108
-165.466
58.9174
270.061
0.632944
-231.247
-266.889
-342.58
-480.714
7.87891
187.41
-195.289
295.231
269.11
201.392
-792.711
768.439
24.272
-5.17645
409.583
-447.239
37.6561
279.541
72.5835
1.72104
739.517
-741.238
77.4285
237.237
54.8927
96.832
-294.235
310.322
-16.0871
-900.808
-49.3349
201.677
-115.43
-482.489
597.92
-298.346
826.525
-145.17
-382.372
-109.542
-561.853
128.307
367.83
44.3394
-259.607
-23.8226
196.511
-151.516
-1.32451
838.047
44.5081
-17.0645
307.913
475.045
-358.237
-116.808
-629.177
256.639
372.539
107.863
169.138
356.999
-354.618
247.646
122.027
281.985
229.685
227.56
34.2905
70.0137
-484.85
414.836
817.334
-250.197
-567.137
169.307
190.784
-360.091
342.744
401.918
251.76
3.51038
-626.229
-305.969
243.872
-890.062
368.228
76.6738
-439.417
62.6018
-632.29
-103.721
250.355
-364.517
354.568
547.162
-568.453
645.301
-76.8482
-15.1764
377.398
411.707
-316.55
-25.7808
164.388
-138.607
-303.315
300.729
-19.7069
623.58
-348.499
-23.6602
379.64
-355.98
67.0223
-186.861
239.676
-52.8149
-263.809
215.302
48.507
285.112
517.049
159.991
-406.617
414.696
-1054.11
1055.83
103.509
-7.46958
430.558
160.936
-54.0739
416.639
330.028
217.06
26.3437
260.424
367.958
-26.7835
-341.174
-650.796
648.006
2.79019
236.709
202.421
-15.011
503.117
-433.103
-215.482
762.644
267.813
94.5825
248.865
-366.823
-179.315
26.7458
244.725
730.326
-162.677
-567.649
-851.384
916.805
276.473
340.579
232.391
-215.034
554.104
-992.416
423.547
311.032
292.239
-48.6474
438.992
291.437
60.4454
-419.446
359.001
-200.976
297.474
-13.684
-23.513
-824.403
694.12
811.432
-202.081
335.851
247.455
119.752
342.702
-20.6186
-322.084
269.792
277.794
270.246
-193.8
92.2083
-276.723
287.934
-11.2119
420.847
-529.519
-257.491
-6.87273
223.933
441.125
-577.795
-279.082
19.4742
433.202
-107.405
-232.873
340.279
-326.405
-184.065
635.215
105.996
426.628
-942.822
516.195
-462.373
419.049
43.3248
-4.12238
257.498
-253.376
316.272
-249.25
259.555
-236.971
-22.5843
282.183
18.4699
-205.331
-845.209
84.1949
320.581
-404.776
-30.0629
718.107
-688.044
325.145
-297.755
-27.3904
-445.729
433.65
292.033
-234.445
-400.032
978.697
-578.665
287.815
-14.3867
201.33
552.386
447.614
-172.221
214.389
10.0149
-224.404
-29.1419
402.367
-593.333
33.5355
559.798
205.728
238.148
-329.485
-39.2787
-354.857
-907.178
857.539
-482.746
1035.13
338.816
-47.7268
242.802
-2.5923
-240.209
490.511
-436.259
58.6962
-709.877
-461.147
-1.22658
-262.275
320.982
-469.564
-499.063
300.566
-18.9195
-281.646
-959.778
426.529
-797.612
159.376
35.5453
-194.921
33.6146
596.927
649.413
-634.029
-291.885
827.912
-71.882
201.137
355.081
-504.283
149.201
-114.447
346.47
-232.023
-703.323
750.724
-389.34
204.53
-226.869
236.587
-9.71804
-274.512
701.14
315.919
596.548
28.0033
-786.17
-234.128
227.46
-322.461
-54.3571
-227.978
239.576
-893.707
978.411
178.09
40.3293
-218.42
268.14
-281.749
-91.4454
22.6461
388.469
210.531
-599
502.748
-902.78
480.049
-46.4616
-224.753
-6.35069
231.104
-114.622
-197.104
-272.926
71.5541
-162.898
-140.926
304.527
292.61
-265.864
-113.337
-321.407
434.744
283.665
291.825
-17.9359
-295.696
313.632
-691.616
19.4914
842.757
-900.808
941.151
-940.339
927.539
954.909
-954.909
-851.384
-992.663
262.854
-218.514
-239.452
-220.389
-190.164
-5.92078
743.761
-964.065
220.304
-874.071
16.484
-286.709
197.176
-37.8
-763.248
791.251
230.997
-7.14617
-223.851
-252.135
241.702
-11.8068
-251.219
263.026
248.777
-14.0266
-234.751
204.384
-231.567
-23.5947
-254.743
278.338
-190.153
203.15
-12.9978
251.016
282.63
-348.896
409.341
110.094
-187.052
76.9576
-367.968
-587.697
-196.212
209.694
-13.4826
-420.377
-84.147
504.524
198.639
-178.484
45.2794
204.539
-26.4489
-357.062
249.588
472.135
-117.567
206.123
453.791
-44.2076
305.503
-367.377
61.874
19.8026
-633.799
667.413
261.896
-463.078
-783.886
730.352
53.5335
480.84
497.857
69.859
402.276
-249.657
244.628
-73.1969
-710.689
235.82
-314.179
686.717
-877.622
326.543
-720.318
393.775
133.224
263.05
-205.383
-57.6679
-43.6579
-389.742
-866.841
592.328
-3.80219
263.795
4.13698
-302.245
298.108
19.803
-38.3977
237.053
281.562
-36.837
184.075
-57.6865
-126.389
738.17
20.8628
273.69
307.921
6.93865
185.334
-224.537
39.2035
216.668
-303.272
300.39
-293.715
-205.063
219.459
-14.3958
74.92
-495.297
237.048
148.84
-88.7401
832.501
-602.547
416.649
556.444
-647.103
219.422
-308.091
315.05
-429.497
184.062
-286.087
218.639
-197.82
-301.976
211.781
-193.448
-9.77428
203.222
215.067
-305.209
368.37
-266.592
-101.778
1.10885
483.368
-442.576
-560.339
1002.92
-710.733
623.4
-50.3516
-320.397
370.749
21.4198
46.7626
-294.48
285.21
-274.79
-4.29159
200.427
41.7845
-242.212
-185.239
-219.806
-289.843
222.577
-208.348
-14.2292
-302.245
-403.25
403.25
189.608
-659.556
163.376
151.245
298.108
727.643
-235.015
-41.5669
-646.21
687.777
520.48
-78.5642
238.679
-366.813
317.874
376.587
246.286
4.63117
231.995
-172.327
-59.6683
-41.9433
-686.603
686.603
-172.428
-390.473
-93.6185
-122.192
205.973
20.2844
-139.464
205.94
-424.707
481.015
-167.879
-203.686
712.999
-496.129
-216.87
-120.179
-109.563
504.853
-160.79
-91.2938
-26.8927
-484.752
511.644
-500.205
-287.658
507.799
-11.7324
-28.7511
-700.964
533.984
-458.855
-65.856
767.497
19.7805
233.994
-113.104
773.936
-660.832
84.391
819.102
683.275
838.929
155.08
-214.312
-389.215
-71.9314
-241.514
249.024
-208.916
50.3381
-186.542
-896.777
41.1287
855.648
20.8706
400.433
808.785
-267.537
250.565
16.9723
1066.4
-542.399
-524.002
-170.403
10.0302
474.036
204.672
-37.0383
289.141
260.995
430.677
-772.074
956.368
-184.294
-348.433
4.86404
233.571
19.7656
664.847
-75.9219
-223.908
-188.858
-235.42
196.863
92.3836
635.26
690.379
-731.946
92.4627
-795.786
23.5011
654.232
752.388
-849.723
97.3351
-627.645
536.6
91.0455
627.461
-563.765
-63.6955
-447.468
522.388
44.9685
-103.85
-120.589
224.439
142.207
304.76
-593.913
416.422
185.018
-185.018
-201.221
221.279
-879.3
436.725
-646.107
530.677
-546.595
863.706
-952.446
24.6724
-239.225
207.516
-187.462
-218.644
-246.017
25.4561
358.246
38.0508
343.848
-355.168
-355.678
26.857
409.407
-674.322
-55.344
-726.866
782.21
217.251
-283.444
55.6483
129.593
-250.32
-623.612
656.514
-188.933
-72.3879
8.28249
519.595
129.099
-313.248
-15.5069
-455.134
957.883
863.758
-863.758
334.842
44.7973
16.1111
462.073
-761.671
17.9631
648.634
18.7797
80.461
417.936
-498.397
217.582
305.38
-4.19051
9.68389
671.534
19.837
-802.229
612.381
196.05
302.853
-498.904
-818.375
542.775
212.313
-408.085
23.6939
-650.248
-187.889
-35.4936
223.383
-103.356
218.395
-115.039
15.8775
46.3879
358.014
43.0013
-207.877
17.1943
-251.814
525.366
657.492
60.615
12.4741
114.034
-109.223
-187.663
200.075
394.475
-512.164
-707.907
-64.1671
-204.537
-467.193
-475.63
-274.103
-360.607
625.131
-515.428
6.86013
797.866
-804.727
318.343
50.0266
395.307
-60.465
612.221
-49.6026
-562.618
313.294
-12.3819
-567.448
-89.3809
656.829
-28.3686
-227.668
-595.363
418.602
-156.812
-64.6538
221.466
221.902
611.266
66.1466
-223.151
-109.152
25.8015
207.182
-546.477
638.86
196.99
4.34055
-200.465
400.17
-199.706
284.381
-820.688
536.307