/*--------------------------------*- C++ -*----------------------------------*\
  =========                 |
  \\      /  F ield         | OpenFOAM: The Open Source CFD Toolbox
   \\    /   O peration     | Website:  https://openfoam.org
    \\  /    A nd           | Version:  7
     \\/     M anipulation  |
\*---------------------------------------------------------------------------*/
FoamFile
{
    version     2.0;
    format      ascii;
    class       volScalarField;
    location    "17.5";
    object      p;
}
// * * * * * * * * * * * * * * * * * * * * * * * * * * * * * * * * * * * * * //

dimensions      [0 2 -2 0 0 0 0];

internalField   nonuniform List<scalar> 
7807
(
0.38385
0.0241588
0.540026
0.363218
-0.00220521
-0.000118574
0.540948
-0.0131569
-0.000352457
0.163162
-0.000112269
0.00575702
-0.0196392
0.0853721
0.169048
-0.0249881
0.394816
-0.0256818
0.00291369
-0.10947
0.11678
0.00375854
0.063652
0.293623
-0.0333642
0.394203
-0.00203818
0.103851
0.250019
0.006459
-0.0347649
0.794095
0.0628292
-0.00127369
-0.000303435
0.135777
0.00730289
0.525235
-0.0109433
-0.000902143
-0.00994145
-0.0241339
-0.102604
-0.00168377
-0.000555679
-0.000242898
0.00370402
-0.011199
-0.000205787
-0.106137
0.0086564
0.0986083
-0.0421421
-0.00131828
0.134796
-0.0117126
0.00317799
-0.0131819
-0.0537241
-0.00132702
6.95976e-05
0.011096
0.0856643
0.00635737
-0.00249086
-0.0339098
-0.000295822
5.87758e-06
0.178311
-0.0104707
-0.000225096
-0.0902784
-0.032225
-0.0549265
-0.0247922
-0.0768111
0.532453
0.114027
0.119652
-0.102161
-0.0188279
0.487344
0.162014
-0.0571607
-0.00364243
-0.00572137
-0.0140548
-0.0408484
-0.00170391
-0.0110865
0.255782
-0.000484887
-0.000382278
0.00304842
-0.00884797
-0.0564141
-0.0856897
0.00371986
-0.00401242
-0.00295716
-0.0950193
0.130844
-0.00840158
-6.60486e-05
0.0141112
0.264929
0.691953
-0.0124402
-2.82407e-06
0.0611014
0.345554
-0.0576506
-5.96514e-06
0.0649687
0.26461
0.00105623
-0.0578167
0.217159
-0.0632844
-0.0560629
-0.0988724
0.467164
-0.0944536
0.0248964
-0.0963555
-0.00247605
-0.0311267
0.00503642
-0.00262193
-0.0347167
-0.0531003
0.118275
-0.00157886
-0.00199439
-0.0592218
0.33572
0.567862
-5.72721e-05
0.0193015
-0.124467
-0.0520182
-0.0734913
-0.0772712
-0.052649
0.699415
-0.0236739
0.252377
-0.051752
-0.0723527
0.465743
0.129701
0.0076161
-0.00376767
0.154974
0.160956
0.492121
-0.0876393
-0.0195689
0.65678
-0.000187853
0.00156839
0.303455
-6.77126e-05
-0.00512785
-0.00996261
0.369042
0.370005
0.67873
-0.00584118
-0.00773292
6.33029e-06
-0.102659
0.00104183
0.0339194
0.0209573
-0.07129
0.0384462
0.244933
-0.000380277
-0.00132472
0.370207
-0.000186557
-0.00032491
0.543797
0.0184595
-0.0519415
-0.0593565
-0.0516581
-0.0295528
-0.121732
-7.2043e-05
-0.0825093
0.253844
-0.00847133
0.000142842
0.299855
-0.00319737
-0.032629
-0.0293646
8.50974e-06
0.00225407
0.342838
0.288646
0.493435
-0.0505909
-0.0492983
-0.102868
0.112503
0.337714
-0.000593225
5.99946e-05
0.659425
-0.021379
-0.00164093
-0.0786671
-0.0326
0.453608
0.461797
-0.0803154
0.755125
-0.0029705
-0.0253197
-0.0975303
0.136678
-0.126038
0.346198
0.658019
0.000109287
0.0260199
0.229586
-0.0103587
0.213343
-0.00145907
0.722079
0.482685
-0.0139846
0.00721294
-0.000840928
0.249972
-0.000280321
-0.0154799
-0.116602
-0.000224987
-0.00346834
-0.00117413
0.249638
-7.03191e-05
-0.0115152
-0.0990491
0.792646
0.10675
0.702959
-0.000143762
-0.0340016
-0.000545872
0.511377
0.0106825
0.569667
0.0038471
0.00190476
0.0208097
0.117123
0.00145357
-0.000642706
0.00128185
-0.0109031
-0.0489772
-0.000135352
-0.0847672
-0.00948969
-0.000414712
-0.00170346
0.546518
-0.019581
-0.00205486
0.753243
-0.00381845
0.369078
-0.00059993
0.00345201
1.193e-05
-0.0574026
0.131337
0.0513149
-0.0540266
-0.00113722
-0.0964004
-0.0382302
-0.000517153
0.00124217
-0.00563627
-0.0188509
0.00774534
-0.00324375
-0.0546327
-0.0402433
-0.0539665
0.0135491
-0.0681346
0.479684
0.495483
-0.00395281
0.0201363
-2.61274e-05
-0.00608422
-0.0570104
0.286352
0.179347
0.000205938
-0.00559846
-0.0662303
0.257474
-0.00266337
0.00948881
0.00317869
0.124357
-0.0721012
0.461945
-0.00421802
0.0258613
-0.000345222
0.0109579
-0.000168341
-0.0414573
-0.000961116
0.0138276
-0.00866907
-0.0666053
0.00694655
0.0233623
-0.00198816
0.0549007
-0.0174821
0.146485
0.252407
-0.130727
-0.0132265
-0.0393536
0.0136155
-0.113336
0.692525
-0.00754287
0.0785802
0.740734
-0.00406845
-0.00461345
-0.00648844
-0.00288186
-0.0186874
0.0167696
-0.00732104
-0.00545991
0.242154
-0.000230211
0.00139162
0.000161424
-0.00891212
-0.0177543
-3.08614e-05
-0.0029378
-0.0515018
0.655011
0.00906211
-0.020998
0.618213
0.41673
0.126477
0.0339022
-0.103977
0.0131151
0.35828
-0.0276956
0.412115
-0.0353856
-0.102117
0.290746
0.415221
-0.0802047
0.169864
0.344274
0.382864
0.11043
-0.00797557
-0.0109736
-0.000271454
0.0122754
-0.0282819
0.00255111
-0.000324381
-0.0042632
-0.0973646
0.166795
-0.0412698
-0.00637687
-0.00990124
0.0207714
-0.017988
0.00479887
0.312172
-0.00495727
-8.94611e-05
-0.000200313
7.86429e-05
-0.0497628
0.235633
-0.0104372
0.0715817
-0.13304
0.515735
0.00877605
0.0177885
-0.0132658
0.53002
-0.00283852
0.457856
0.257196
-0.000351846
-0.0395925
-0.00863103
-0.0693883
0.00143278
0.136654
0.00976166
0.0165244
-0.00230581
0.232902
0.26068
-0.0605483
-0.0513649
-0.00597144
-0.0338563
0.149223
0.781289
-0.0388707
0.0121461
-4.64419e-06
-0.032489
-0.0059837
0.0502865
-0.112426
0.00359706
0.548291
0.241865
-0.0867482
0.312551
0.519132
0.0692554
0.00314015
0.373957
-0.00242381
-0.000541261
-0.0421959
0.000184561
-0.115684
0.00038401
-0.0523488
0.00501037
0.304759
-0.0047004
-9.20914e-05
-0.112027
0.0045272
0.0895308
-0.091508
-0.121472
0.0750294
0.231217
0.192366
0.197118
-0.000595489
0.157172
0.157115
-0.00145756
-0.0397584
0.00153914
0.0166862
-0.00311863
0.0124713
-0.00211841
0.240502
-7.40458e-05
0.000463576
0.0051473
-0.0514408
0.0534681
-0.0498419
-0.0604567
-0.0463759
-0.131196
0.0249409
0.363878
0.00789661
-0.016848
0.730527
-0.0832173
-0.0186507
-0.0600263
-0.014181
-0.0485073
-0.0250786
0.0723357
-0.0142676
-9.91392e-05
0.0632551
-0.000295541
0.48127
0.190327
-0.0124438
-0.03381
-0.000550141
0.488805
0.443566
0.135124
0.259476
-0.088004
0.584417
-0.000215723
0.0555311
-0.0429749
0.251782
0.682179
0.13278
0.231659
-0.0043876
-0.000593483
0.239115
-0.0318441
0.509045
0.0905301
0.321748
-0.0177349
0.524877
0.425574
-0.0223712
-0.0189906
0.209863
-0.124059
-0.000275797
-0.031145
-0.118702
-0.0877632
0.0287709
0.0239901
-0.00038615
0.447268
-0.00249168
-0.000317431
-0.0340693
-0.00135832
-0.000645485
0.00923466
0.326066
-0.100723
0.640529
0.000126796
0.323608
-0.0286885
-0.000255013
3.04563e-05
0.246884
0.314313
-0.0102805
0.287488
4.26763e-05
0.301586
-0.127286
-0.0233921
0.541904
-0.0754501
0.247705
-0.057546
0.29976
0.311565
-0.0383932
-0.0485083
-0.0146344
-0.00725979
-0.000586816
-0.00287062
0.393134
-9.9616e-05
0.29017
-0.0928442
0.447732
0.277094
-0.12155
0.624015
-0.00413558
0.0157316
-0.0418956
-0.0464345
-0.0160371
-0.0344996
0.0795076
0.718783
8.11139e-05
-0.00486184
-0.0575531
8.36957e-06
0.489137
0.00460801
6.55495e-06
0.000444033
0.000918087
-0.0396638
0.0484373
-0.00393573
-0.000264401
-0.0169803
0.00685458
-0.125909
-0.11171
0.0540165
-7.47661e-05
-0.139952
-0.0304422
0.21556
0.440425
0.00289932
0.220055
0.000340644
-0.0292021
0.148622
-0.016053
0.347794
-0.0298574
0.0617876
0.153917
0.239019
0.0120706
-0.02394
0.28058
-0.104209
0.519712
-0.0215421
0.383544
-0.0214605
-0.00296332
0.221248
0.00666274
0.149275
0.00476082
6.10212e-06
-0.135335
0.304664
0.00359798
0.208086
-0.0283495
-0.144649
0.0226166
-0.0516058
-0.00423336
-0.0204315
-0.0955651
-0.0616911
-0.0225987
-0.000447842
0.544861
0.211855
0.0714144
-0.000561099
0.422539
-9.64196e-06
-0.000519124
0.222435
0.00584102
0.273999
0.102556
0.0425699
-0.0171972
-0.121765
0.0692853
0.00324247
-0.0890449
-8.23663e-05
0.00960595
0.336514
-0.0366031
-0.00696638
-0.0117312
-0.00492922
-0.00110359
0.739093
-0.0227538
-0.00145717
-2.03646e-05
0.210238
-0.0635669
-0.000897659
-0.00689226
0.241595
0.154033
-0.0793607
-1.00312e-05
0.262367
-0.0357409
0.291458
0.0400307
0.0489627
-0.0650454
-0.000285026
0.150298
0.143662
0.105769
-0.0821557
0.391929
0.0150775
0.275786
-0.0057735
-0.0340861
-0.0010514
-0.00240764
-0.000338477
0.247376
0.361681
-0.00375011
0.0473585
-0.0388687
-0.0621248
-0.0734922
-0.00467928
0.0512164
0.711421
0.0819842
-0.000191324
0.150955
-0.00906323
0.615391
-0.0281755
-0.0248853
3.09606e-05
-0.0287779
-0.0147766
-0.0180569
-0.00777007
0.0038396
0.0699326
0.000221508
-0.101131
0.0421359
0.471175
-0.0762548
0.280345
0.00504409
-0.0342696
-0.023706
0.301954
-0.0170173
0.000210091
-0.0348209
-0.0126813
0.054703
-0.0588558
-0.050531
0.0239005
-0.0330412
-0.0069923
-0.092977
5.14065e-06
0.0913527
-0.0814197
0.249975
-0.0302304
0.147988
-0.0906425
0.43454
0.0222358
-0.0672017
-0.0230109
0.647496
-0.083929
-0.0295025
-0.122174
-0.040547
-0.105054
-0.0541069
0.268319
-0.00692364
0.349647
0.0215222
-0.00105208
-0.00308039
0.13422
0.798914
0.00272767
-0.0281717
0.252331
3.75393e-05
-0.0464002
0.0655131
0.0289589
0.0218249
-0.00409126
-0.0573086
-0.00731794
5.05192e-05
-0.0716512
0.36001
0.0110167
-0.0373901
0.00463738
0.252416
-0.00102711
-0.00316145
-0.000965726
-0.00201627
0.123223
0.0136217
0.00862205
-0.0400865
7.57107e-05
-0.106636
-0.0146336
-0.122875
-0.0304645
0.036283
-0.000590496
-0.0286942
-0.0967746
0.0993953
0.450366
-0.00319594
-0.107147
-0.0116774
0.0258707
0.24181
0.00102267
-0.000454732
0.221237
0.0788361
0.0373846
-0.00739412
-0.0052255
-0.0883605
-0.000511357
0.004334
-0.0302704
0.39389
0.36026
-0.0268593
-0.0774529
0.0178362
0.0130097
0.0595359
-0.0884166
-0.0160561
-7.95758e-06
0.0484135
-0.0550299
-0.0973026
0.0148241
-0.0859935
-0.00107209
-0.00746007
0.279062
-0.062394
-1.44508e-05
-0.00705265
-0.0681134
-0.000469206
-0.0208395
-0.000175694
0.0105223
-0.122
-0.0295355
-0.000103729
5.31445e-05
0.184598
-0.0598358
0.491722
0.370735
0.0388881
-0.00154367
-0.0187468
0.00048432
-0.0619134
-0.0925601
0.0562401
-0.0363227
0.362714
0.0219903
0.000598013
0.0161391
-0.106034
0.00477418
-0.0261165
-0.0935675
0.00736516
0.0396209
0.109927
0.0219701
-0.0493823
-0.0519168
0.262296
-0.0315748
-1.87919e-06
-0.104295
-0.103423
-0.0376387
0.0111497
0.00179797
0.0217448
-0.117178
0.0579012
-0.0590228
0.213457
-0.0434248
0.0152302
0.0350664
0.0343663
-0.0600742
-0.0769562
-0.000327572
0.208164
0.284983
0.0140844
0.309999
-0.0820838
0.0783293
-0.0587821
0.27516
0.152186
0.704897
3.16251e-06
0.160636
0.250737
0.0263315
-0.00289856
-0.0315153
0.0321508
6.71576e-05
-0.0313477
-0.0685654
-0.0345032
-0.0378932
0.000270392
-0.0420332
-0.000792307
-0.00175628
0.320556
0.0126408
0.154828
0.0372906
0.281079
0.0220571
-0.000842238
-0.0824418
0.0156608
0.469717
0.00232867
-0.0729933
-0.000505492
-0.00112302
0.0146884
-0.0494783
-9.47892e-05
-0.0189401
0.0523473
-0.00376279
4.96494e-05
-0.000141079
0.213346
-0.00631929
0.0126779
-0.00218479
0.0160976
0.0277685
0.0161483
-0.000633744
0.456003
-0.0657915
0.298247
0.403056
-0.000455779
0.141744
0.174796
-0.00154161
-0.000578303
-0.000903374
0.0318648
0.033092
-0.0140433
-0.0289505
-0.0938318
0.238758
-0.0930607
1.46388e-05
-0.0331869
-0.0307518
-0.0605575
-0.00806336
0.0111102
0.00225882
0.0490771
-0.00104639
-0.000522815
-0.0295643
-0.00796485
-0.0424262
-4.03725e-05
-0.0254539
0.0588636
0.00441433
-0.0143805
-0.0150814
-0.0202899
-0.0159145
-0.00959021
0.0211691
-0.0164485
-0.000244308
-0.000837564
0.0420412
-0.0211193
-0.00909418
0.0155014
0.00624512
-0.145588
-0.0191514
0.218208
-0.0217509
-0.0851776
-0.039649
-0.0386399
-0.0267355
-0.00695499
0.00406186
-0.00652499
-0.0240086
-0.0276535
0.271781
0.220946
0.090333
0.438325
-0.000170387
-0.00596244
-0.0282106
-0.0141353
0.160944
-0.0346011
0.0907577
-0.00771175
0.294869
-0.00362908
-0.00305561
0.0363146
-0.0243693
-0.000476448
-0.0334825
-0.0107865
-0.035648
-5.69507e-05
-0.0121136
0.00357679
-0.0299335
0.0649236
0.0593786
0.0328775
-0.0240386
-0.0533283
0.167727
-0.00242009
-0.00367767
-0.00394764
0.612799
-0.000235344
0.121587
-0.0363328
-0.0348634
-0.0450601
-0.0650703
-0.0488281
-0.0578979
-0.0310409
-0.00843664
-0.000225896
-0.00785821
-0.0370739
0.148648
0.00302334
0.240808
-0.0556491
-0.0227341
-0.0017668
-0.0489093
-0.000234967
0.208063
-0.0511118
-0.0444332
-0.040504
-0.00701057
-0.0545973
-0.00317035
-0.0684989
0.150628
-0.0439059
-0.100897
-0.00275521
-0.0458795
-0.0314872
0.0267468
-0.00596999
0.20029
-0.00446816
-0.0327397
-0.00131694
0.222382
-0.0657376
-0.0449955
-0.00600329
-0.0169395
-0.00509968
0.273389
0.0393527
0.299865
-0.00869729
-0.00158168
-0.00238415
-0.00431869
0.269276
-0.100023
-0.0123557
0.000561225
-0.0118316
-0.0107237
-0.00173181
-0.0195702
-0.026836
0.0908528
-0.00907121
0.00988589
0.602842
-0.102718
-0.0490614
-0.0958886
4.19844e-05
0.116306
-0.00652939
-0.045763
-0.0102187
-0.0603029
0.00799285
-0.00105385
-0.00536588
0.00582129
0.270821
-0.010674
-0.00334051
-0.00849962
-0.0856426
-0.0150232
-0.0379185
0.0079147
-0.0157336
-0.0161979
-0.00604281
0.277174
-0.0774576
0.00574862
-0.00776325
-0.0469493
-0.024878
-0.0831621
-0.00264366
0.138731
0.0402764
-0.0141785
-0.00323328
-0.0239882
0.629151
0.272431
-0.0201512
-0.00112979
-0.00442806
0.0131588
-0.00729647
0.0366057
-0.000834692
-0.0239983
-0.00368307
-0.029759
-0.0235915
-0.0020225
-0.0184627
-0.00255234
0.412628
-0.0116402
-0.0208737
0.0102404
-0.00358819
-0.0510531
0.140919
0.560964
-0.0191543
-0.0202549
-0.00393608
-0.000930528
-1.62458e-05
-1.16666e-05
-0.0180917
-0.00129161
0.185774
-0.0013111
-0.00339162
0.0148126
-0.000530676
-0.0745917
-0.0814239
0.029847
0.06493
0.0444395
0.11931
-0.0467398
0.136435
0.107514
0.1426
0.176144
-0.0230188
-0.00165603
-0.0103228
-0.0910844
-0.00647375
-0.0264999
0.0968065
0.433051
-0.0711399
-0.000953191
-0.00010182
-0.00275321
-1.35291e-05
0.0171709
-0.0010977
-0.00823493
-0.0801322
0.000922958
0.00470651
-0.000457386
0.114539
-0.0272079
-0.028233
-0.00229062
0.41844
0.380007
-0.0179274
-0.0831079
-0.0476451
-0.0416458
-0.0253753
-0.00349182
-0.104175
-0.044292
-0.0698129
-0.0214327
-0.000149611
0.269116
-0.0150698
-0.0172775
-0.0396306
0.0328985
-0.00104561
-0.0149961
-0.00256209
0.0247126
-0.00284726
0.248833
0.000580139
0.0177139
-0.000822218
-0.0597467
0.0157301
-0.00147241
0.0268182
0.000669819
0.0792323
0.180608
0.00368565
-0.00270644
-0.000276155
-0.00112304
-0.00099561
-0.101152
0.179241
0.0645172
-0.000548833
0.0174328
-0.000911484
0.304654
-0.0991232
0.342733
-0.0720177
-0.000891456
-0.000599662
-0.0131294
-0.0102369
-0.00123433
-4.54894e-05
0.0437171
0.0494887
-0.000488527
-0.000688367
-0.0342242
-5.45904e-05
0.232931
-0.0017812
-0.0873675
-0.0330071
-0.0115033
-0.091573
-0.100126
0.212154
-0.0200669
-0.0350964
-0.00064088
-0.0936561
-0.0358077
0.0534748
0.180556
0.452486
-0.00221115
-0.098031
0.0249875
0.405858
0.0656053
-0.000262312
-0.0108856
-0.00742172
-0.00898191
-0.0796674
0.143839
0.000255976
0.0378185
0.00544377
0.130458
-0.00102338
-0.00028808
-0.0579506
0.375072
-0.0903593
0.220925
-0.00235574
-0.000424386
-6.59935e-06
-0.0944876
-0.0696957
-0.000697481
0.169267
0.019629
-0.00966791
0.518091
-0.000800051
-0.00672147
-0.0966237
-0.0252014
-0.00420937
0.191955
-0.0721221
-0.000351134
0.0249803
-0.000387335
-0.000230235
0.206422
0.0085122
-0.000893309
-0.0854045
-0.0420842
-0.00639149
-0.0302569
0.00423717
-0.0392212
0.00292242
-0.00637604
-0.106143
-0.0634602
0.039663
-0.00171878
0.22467
0.281023
-0.0923996
0.0177302
0.0332245
-0.00777897
0.230861
0.169558
-0.0476492
-0.000348823
0.0178621
-0.091298
0.0248848
-0.0468109
-0.00388451
0.0807317
-0.0467976
-0.000295111
-0.000179444
-0.0360196
-0.0413083
-0.0443001
0.0173975
0.0446417
-0.0730394
-0.000343218
-0.00259983
-0.000447304
-0.0533396
-6.07935e-05
-0.00357942
-0.0577017
-0.115574
0.192054
-0.00544993
0.00738308
-0.0362431
-0.0433616
-0.000284325
-0.0768334
0.18918
0.2198
2.7482e-05
-0.00024475
0.223516
-0.00461663
-0.110123
-0.0673607
0.00596395
0.000782385
-0.112724
-0.00881667
0.228488
-0.0933526
-0.00274188
-0.0146573
-0.0842278
-0.00112523
-0.000495208
-0.00172391
0.0138917
-0.084654
0.222147
-0.000438667
0.627238
0.0271697
0.000151897
-0.00183677
0.000380526
0.000444737
-4.41053e-05
0.000192797
-0.087509
-0.00138888
0.000715263
-0.000414095
0.199368
-0.0103175
-0.000405358
-0.000125804
0.465274
-0.0367357
-0.0126877
0.001974
-0.00138185
0.100955
-0.000227697
-0.0205666
-0.098228
0.00384231
-0.0112975
-0.000216509
-0.000432268
-0.0514427
-0.079526
0.0127516
-0.0966991
-0.0548509
-6.88532e-05
0.0364271
0.054228
0.159337
-0.00318413
-0.000335146
-0.0924677
-0.0109644
-0.000986952
-0.0816154
-0.000298971
0.0727565
-0.000229576
-0.0023777
0.0601865
-0.0038414
-0.0964654
0.578013
-0.00303564
0.000438336
-0.0869995
-0.0789704
0.0164604
0.00830693
-0.000321731
-0.0527349
-0.000198112
0.267683
0.754222
0.142817
0.00536161
0.00637737
-5.33879e-05
-0.0468108
-0.000148478
-0.0113715
-0.00314184
0.000591434
-0.0061103
-0.0164698
-0.000266757
0.00148578
-0.0134929
-0.00062998
-0.0171422
-0.0282746
-0.0033217
-0.00213691
0.678283
-0.00133576
0.00429888
0.000381899
0.0241444
-0.0823895
0.0169768
-0.000375575
-0.000221417
0.00469848
-0.000247399
-9.40051e-05
-0.0197804
0.00117894
-6.03328e-05
-0.0842132
-0.00408579
-0.0931073
-0.00303725
-0.000155519
-0.00568777
-0.00792755
-0.0256723
-0.0354343
0.00407314
0.000857472
-0.000913604
-0.00361288
-0.000191288
0.368342
0.00271858
-5.19647e-05
0.000966559
-0.00371377
-0.000724899
-0.105095
-0.0903101
-0.000303211
-0.0124538
6.1709e-06
-0.00467247
-0.00016772
0.0586367
-0.000305755
-0.000408043
-0.00625002
-7.28967e-05
0.0235885
-0.000466784
-0.00234728
0.0324522
2.48759e-06
0.483763
-0.0882695
-0.0692316
-7.12159e-05
-5.26341e-05
0.00332927
-0.00220548
-0.0826415
-4.46291e-05
-1.43366e-05
0.00125648
-7.49818e-06
0.000616142
0.000741041
-0.00089597
0.00133897
-0.0871073
0.595129
-0.052169
0.44131
0.0158885
-0.0281097
-5.02844e-05
-0.00165276
-0.0213142
0.000203937
0.000452225
0.00025602
0.122365
-0.00248456
-0.000467467
0.608899
-0.00103869
0.000968747
0.000836264
-1.24909e-05
0.111314
-0.00396348
0.00195828
0.000171898
-0.00103628
-0.000154974
-0.00173577
-0.0727663
-0.00081433
-0.00289627
-3.92483e-06
-0.000332
-0.000519218
0.262865
-0.000860724
-0.00057301
-0.114826
0.00662122
-0.000216516
-0.00246719
-0.000139919
0.24211
-0.120158
-0.00061746
-0.00075911
-0.00336577
-0.000358109
0.0954433
0.176142
0.0773106
0.000828072
-1.74181e-05
-2.85405e-06
0.10043
0.000399643
-0.101081
-0.0351172
-0.0272264
0.0462135
0.680518
0.00343183
0.281235
-0.0251665
-0.0491208
0.245961
-0.000701418
-0.108351
-3.60996e-05
-0.0157655
-0.0820619
7.13992e-05
-0.0763165
-0.00177176
-0.00201659
-0.00943413
-0.071753
-0.0708358
-0.00548704
-0.0991453
-0.073902
-0.000383263
-0.0212607
-0.000145954
-0.0631151
-6.71995e-05
-0.000381614
0.0410513
0.234316
-1.05152e-06
-0.0755356
0.00627717
9.84781e-05
-0.0350071
-2.44163e-06
-0.0239173
-0.000537031
-0.0647578
0.000182874
-0.000198039
-0.00367596
-0.000151986
0.229187
-0.05142
0.138852
-9.72569e-05
0.00105394
-0.0550828
-1.23979e-06
-0.0946136
-0.109987
-0.0927195
0.633198
-0.0114152
-4.47421e-05
0.0449055
-0.0699503
-0.00448794
-0.000100366
-0.000192314
-0.079035
0.000177815
0.00149043
-3.01631e-06
0.000228065
-0.0477342
0.203747
-0.0707665
0.15709
-0.00943876
-3.27846e-06
0.0116356
-0.0790908
-4.99145e-05
-3.723e-05
0.000516008
8.62432e-05
0.000663168
0.332707
0.0599683
7.39452e-05
3.72254e-06
-0.11014
0.282076
0.254622
-0.000103265
-0.0608929
-0.0321498
-0.0175724
-0.0802075
-0.0144446
-0.0051982
0.205814
-0.000114261
-0.0447091
0.241851
-0.0814054
-7.06638e-05
-0.102442
-0.00036332
0.398068
0.0499245
-7.10914e-05
-7.68446e-05
0.26691
2.04708e-06
-0.000377342
-0.0205016
-3.75817e-06
0.346028
0.00605961
-0.0129036
-0.107752
-0.00667332
-0.110713
0.260924
-0.0143118
-0.00874261
0.00169119
-5.89244e-05
-0.00188625
-5.05326e-05
-5.55355e-05
0.0490894
0.256516
0.217287
-0.000851668
0.336184
-0.0178909
-1.56658e-06
-0.0766578
-6.94326e-05
-0.0470107
0.0514264
-0.0242536
0.00778246
0.00323379
-0.0162454
0.000369901
-0.00301742
0.0354366
-0.00512191
-0.000131853
3.33647e-05
-0.000139974
0.0530057
6.365e-05
-0.0361146
0.35343
-0.0105015
6.57931e-05
-0.00613623
-4.78713e-05
0.150934
-0.000689339
-0.000149528
-0.000183957
-3.9175e-05
0.293725
-0.000329337
0.333059
-0.100932
0.000151407
-0.0845129
-0.000938099
0.225975
0.623211
-0.00254094
2.18847e-06
3.30341e-06
-5.89703e-05
0.214673
9.59013e-08
0.00177645
-0.0413747
0.316467
4.42169e-07
5.30826e-06
3.085e-06
2.70612e-05
-0.0349944
1.04265e-06
0.37445
-0.0268049
-0.000258925
3.5469e-05
-0.00367907
-0.0489939
1.52737e-06
-0.000128156
0.237473
3.98334e-05
-0.0536709
-0.0642403
0.000190703
4.34126e-07
-0.13335
1.17755e-06
0.240557
1.68202e-05
-0.000854785
6.13117e-06
-0.00035453
0.142138
-3.02959e-06
-0.00294227
-4.259e-06
0.0242864
-0.00598102
-0.0111959
0.00165534
0.222205
-0.000553045
-0.000184677
-0.0154073
-0.0148825
-0.000481924
-0.000152706
-0.00164564
4.07731e-05
0.269981
-0.0174645
0.616907
-1.20037e-05
-0.0132826
-0.000351054
0.205059
6.78848e-05
-0.0440889
2.58798e-05
-0.00283862
-0.056065
-0.000459107
-0.0268383
-0.0822629
0.0088983
-5.01763e-05
-0.0864616
-0.000641748
-0.000601768
-0.009678
-0.0194014
0.00219486
-0.000151767
-0.000832348
-0.00165442
-0.00230801
1.6668e-07
-0.0021878
0.604504
0.000133875
-0.00575024
-0.0584814
-0.121566
-0.104891
-0.0799681
-0.0367654
-0.000999815
-0.0231745
0.000100594
-0.000183493
0.605921
-0.000203474
0.26472
-0.000851649
0.00063194
-0.00205484
-0.0718223
-0.000798955
0.00119318
-5.18126e-05
-0.000752839
-7.13187e-05
-0.000177324
-0.0256274
-0.000243331
-0.000101439
-0.000182743
0.00018466
-4.58195e-05
-0.0705388
0.338684
-2.92414e-05
-0.00111857
-1.99325e-05
3.41065e-05
-0.00152961
4.08043e-06
-0.00165131
0.000430022
-0.000703856
-0.106538
-0.00127801
-0.00325569
-5.27503e-07
-0.00275984
0.000531608
-3.71549e-05
-3.17363e-05
1.28301e-05
-0.00146026
0.00087385
-0.073469
-0.0444589
-0.107713
0.000994337
-0.0032326
0.00689931
-0.108598
-0.000201254
0.0280644
0.0119543
-0.00189388
-0.0201717
-0.0933877
0.555874
-0.000799346
-4.17892e-05
0.00148161
5.61157e-05
1.69054e-05
0.115819
0.00637711
0.132945
-0.0564218
0.540473
-0.000977305
-2.60909e-06
0.000216186
-5.4135e-05
-0.0024426
0.229829
0.304254
-2.73879e-05
-0.000352397
-6.17595e-05
0.290111
0.0362459
-0.0085663
1.14902e-05
2.06128e-05
0.0125261
-0.00128317
-0.117133
-0.028205
9.75401e-06
0.00602046
-0.0508119
-0.000136982
0.0031053
-0.000166152
-0.0761997
-0.00310623
0.21776
1.64423e-05
0.00286508
-5.67903e-05
1.12884e-05
0.000249758
-0.0385801
1.22736e-05
-0.00166401
1.4145e-05
-0.0331828
-0.0757643
-0.00519378
-0.0110488
-0.0147373
0.0157112
-0.0148743
-0.00434957
8.55098e-05
0.000134497
1.39732e-05
1.29366e-05
-0.000127579
0.0156371
-0.0919187
0.000796184
-0.0643149
-0.00540258
-0.0770237
0.000117642
-3.52987e-05
0.00221826
-0.0286737
1.4842e-05
-0.0651735
-0.0245048
0.0824156
-0.0629765
2.56503e-05
-0.00601359
0.00028418
-0.100852
0.194427
-1.00102e-05
-0.0972381
-0.0364491
-0.00737313
3.50988e-05
-2.75109e-05
0.0519584
-0.0280489
1.29845e-05
-0.0116467
-4.84541e-05
0.000318415
0.183606
-2.44987e-05
-3.15959e-05
-0.00021005
3.25923e-05
0.00150593
0.000120354
-0.00903702
0.000346438
-0.0211656
0.00186098
-0.000427257
-0.0505849
-0.0704337
-0.0107377
-3.78497e-05
1.71754e-05
-0.0900044
0.00990122
-0.0783706
1.58368e-05
-0.00886996
-8.37103e-05
1.88352e-05
0.121086
-0.0119869
-0.00485782
-3.50695e-05
-0.0294059
5.79883e-05
-0.109818
1.95715e-05
-0.123929
-6.49427e-06
-1.884e-05
0.000114736
0.0017167
-0.0740348
-0.0304013
-0.112583
-5.54994e-07
0.000118628
-0.127014
-0.0367277
-0.0143609
-2.21397e-05
-0.0226595
-0.0804885
-0.12791
-2.33438e-05
-2.85783e-05
-3.86801e-05
-0.0821724
-0.108177
0.00119137
-0.01869
-0.000140131
0.326416
0.000129488
-6.82387e-06
0.000215437
-6.55043e-05
-3.19873e-05
-0.00625495
0.000145441
-0.00445088
-0.103415
-0.0220571
-0.0963131
3.1048e-05
-0.000115719
0.0910558
-0.0637274
-0.00815094
0.167735
-4.85823e-05
-4.40442e-05
-3.99414e-05
0.193313
0.000252209
-7.02149e-05
-3.4525e-05
-0.0920896
-0.0260027
-2.89688e-05
6.5993e-05
-0.0155686
-0.0109453
0.000672752
0.308017
-0.0932073
0.00025839
0.761288
-9.25076e-05
-0.00127136
-0.013844
-0.128581
-1.46298e-05
-4.67439e-05
2.14451e-05
0.00824239
-0.0501959
-0.00065785
-0.080391
-0.0131442
9.42228e-06
-1.42592e-05
-0.0171474
0.00160156
0.0108423
-0.0520288
-0.0750988
-0.0640391
0.0379554
-0.0439601
-0.000144049
0.000548388
0.0273255
0.000870975
-0.000214219
0.00125897
5.06952e-06
-0.000232344
-0.0203779
-3.15258e-05
-8.65768e-05
0.0672705
-0.00729746
-0.000361969
-0.000140906
-2.96306e-05
0.332431
-0.0112049
0.00129604
-0.045802
0.000348349
0.000292515
0.00025006
-0.000117927
0.000769746
-0.0618445
0.031444
-2.51129e-05
-0.000361649
-0.0671091
-0.0500741
0.0770733
-0.000911317
0.00313529
0.0300955
-2.40132e-05
6.35636e-05
-0.0721891
2.11739e-05
0.23092
-3.35189e-05
0.00716033
0.000243338
0.000332339
-0.116139
-0.01237
-0.0296896
-0.00418065
2.6621e-05
0.0117525
0.0957606
-0.0204941
-0.000284637
0.142196
0.226949
-6.06285e-06
-0.0855236
-0.000157375
-4.1217e-05
-0.000103074
-0.00104269
0.0331208
-6.19812e-05
0.000369889
-0.0409668
-0.042627
-0.0367857
0.407033
-1.39372e-05
-0.000156249
0.237129
-0.00363214
-0.00650259
-0.00119403
0.234238
2.98954e-05
-0.000623544
2.05254e-05
-8.16499e-06
3.20238e-05
3.63646e-05
9.82972e-05
-0.0297538
-1.90541e-05
-0.00569086
-0.0736934
0.331806
-0.000328143
-0.000113731
0.00803214
0.128898
-0.0700294
-0.00136677
-0.116319
0.405854
4.8066e-05
0.513441
-1.93242e-05
0.00568974
0.0407408
0.000690723
0.549508
-8.7765e-05
-2.15627e-05
0.00194444
2.95123e-05
-0.00155931
0.000397952
-1.60061e-05
-0.00343158
-4.0939e-05
-0.000304665
-0.0057032
0.326793
0.0864225
0.0368529
-0.0727101
-1.78434e-05
-6.48507e-05
0.00580241
-0.0847645
-3.82658e-05
-0.0774063
-0.000125812
0.154731
0.096644
-0.0537757
-0.00238998
-0.019523
-0.00176651
-0.024914
0.00758268
-0.0121893
0.102024
-1.16525e-06
0.34921
0.0803708
-0.00108217
0.293534
-0.022356
-3.1463e-05
-8.18947e-07
8.47037e-05
-0.000414306
-0.000268507
0.328838
-0.0017599
0.337939
-0.00189295
0.231648
0.308087
0.194766
-0.0119043
-3.31796e-05
4.05181e-05
-0.0179163
-0.137702
-0.0790042
0.00252006
-1.78979e-05
-0.0635833
-0.000620664
-5.86265e-05
0.00168765
-0.00191147
-0.0011686
0.0546802
9.90358e-05
-0.0808288
0.0951296
7.13701e-05
0.000402291
-0.0232659
-0.0921194
-0.00133061
-0.000961063
-2.0516e-05
0.000367931
0.163295
-0.0280821
-0.0778823
0.00219953
0.170512
-0.0642174
1.64267e-05
3.50625e-06
0.0544899
-0.000230512
0.149297
0.00438773
-0.022915
-0.000732864
0.00276023
-0.0591951
-0.00013361
0.000784621
0.0101063
-0.123395
0.233728
-0.104233
-0.0448017
-0.000365088
-0.00010428
0.0113876
4.38902e-05
-0.124918
-0.108381
0.000908264
0.0058266
0.00643712
-0.124089
0.00103415
0.000265587
1.50691e-05
-0.0681214
1.88506e-05
0.00090225
0.178595
0.250836
-0.133546
0.0782443
0.0782542
0.0501123
-0.000357621
0.0216587
0.000171984
9.69105e-06
-0.000204133
-5.92541e-06
-3.24453e-05
-0.00068038
-0.0129607
-0.0616361
-0.0164915
-0.0466204
0.0857554
0.0714627
0.00693986
-0.104262
0.000212385
0.00802186
0.0193532
-0.000738368
0.121724
-0.00215231
-0.0183354
0.0210998
0.00934172
0.00176542
-0.00693203
0.0736361
0.00135992
-0.0330959
-0.0275684
0.639311
-0.0409693
0.129186
0.0607722
-0.0596723
0.00374738
0.000109577
-0.00449135
3.66549e-05
-0.00458539
-0.0421458
-0.000159527
-0.000160542
0.379777
-0.00571483
-0.0699459
-0.0318299
0.000277174
-0.00243455
-6.83435e-05
-8.49821e-06
0.0668568
3.5139e-05
-0.00511112
0.123748
0.0107755
0.00187166
0.0317784
-0.00984864
0.00713678
-0.120479
0.00143216
-0.00763374
-0.0934465
-0.00155574
-0.0137568
0.0012408
0.00212363
0.00164449
0.0656456
-0.000627839
0.00965477
-0.0912296
-0.0346429
0.000463447
-0.0908509
-0.0252427
-0.0291781
0.000107148
0.0112877
-0.107159
-0.00151916
-0.00829992
-0.0843757
0.000825202
-0.00209345
0.307671
-0.0340501
-9.3348e-05
0.0140588
-0.0817538
-0.0018852
0.270238
-0.0037027
0.0016912
0.093193
-0.00253454
0.0142286
0.185727
2.93911e-05
0.00195849
0.000249729
-2.95908e-06
-0.00774885
-0.0118564
-0.000309827
-0.0406424
0.153183
-0.0630288
-0.111068
0.00194581
-0.00566299
-0.00111519
-0.0541014
-1.71751e-05
0.0309975
2.42029e-06
-0.0269978
-0.0034271
-0.00856259
0.0339808
0.182864
-0.11876
-0.000127175
0.284274
-0.00338281
-0.00418176
-0.0999159
-0.122769
-0.026199
-7.70155e-05
-0.00197271
0.0123598
-0.00536114
-0.0081292
0.000680032
0.135422
-0.0690752
-0.0188355
-0.0114548
0.0462706
-0.00327484
-0.00105927
0.0028798
-0.00011409
-0.00536771
0.178192
0.00130079
-0.133907
-0.000178512
-0.0125784
-0.00594128
-0.13102
-0.0194
-0.146475
-0.000147962
-0.000147184
-0.00569361
0.0180859
0.00310821
-0.160492
0.141481
-0.0803653
0.000262407
-0.172338
-6.54077e-05
-0.176386
-0.0427229
-0.174527
-0.167339
-0.151584
-0.0980033
0.00349429
0.0427984
0.0786798
0.115149
0.151182
0.253181
0.286049
0.316834
0.369802
-0.0137656
-0.01247
0.110856
-0.026583
0.00148454
0.0321671
-0.0675674
0.000859554
-0.00119833
-9.64629e-06
-0.0238278
0.0300788
4.39202e-05
-0.000612776
-0.01789
-0.00506936
-0.183215
-0.0191512
-0.093503
-8.37897e-05
0.000917261
-0.000114948
-0.0763569
-0.01477
-0.060353
-0.0151908
0.00292057
0.000311093
0.00802286
-7.53305e-05
-0.00768349
-0.00010224
0.000574486
-0.00856983
-0.0195497
-0.000508326
0.000498521
0.07735
-0.0173707
0.110341
-0.180544
-0.0116588
0.220491
-0.0315135
0.00629239
-0.0360389
-0.00560822
-0.0212407
-0.0207206
0.441979
-0.00225636
6.19952e-05
-0.00987718
-0.0149361
2.43322e-07
0.124212
-0.00686753
0.416851
-0.0372386
-0.075292
-0.0447727
0.082375
-0.00801455
-0.00011565
-1.82722e-05
-0.00715964
-0.0889123
4.29701e-05
0.454011
-0.00475791
-0.00839923
-0.000223097
-0.000718104
-0.0103734
0.185885
-0.0408839
0.178307
0.00102705
-0.023914
-1.49976e-05
0.0449956
-0.0129672
0.0324903
-0.0163909
-0.00926084
-0.00138686
0.00216175
0.0200831
-2.93103e-05
-0.015917
0.000874576
-0.000743773
0.000743391
-0.0254775
0.00032334
0.209587
-0.0177846
0.00643403
-0.0773643
0.068315
-0.0819941