/*--------------------------------*- C++ -*----------------------------------*\
  =========                 |
  \\      /  F ield         | OpenFOAM: The Open Source CFD Toolbox
   \\    /   O peration     | Website:  https://openfoam.org
    \\  /    A nd           | Version:  7
     \\/     M anipulation  |
\*---------------------------------------------------------------------------*/
FoamFile
{
    version     2.0;
    format      ascii;
    class       volVectorField;
    location    "34";
    object      U;
}
// * * * * * * * * * * * * * * * * * * * * * * * * * * * * * * * * * * * * * //

dimensions      [0 1 -1 0 0 0 0];

internalField   nonuniform List<vector> 
29540
(
(1.00926 -0.0122376 2.53009e-23)
(1.00844 0.00415259 1.27372e-22)
(0.991883 -0.00294298 -1.60413e-22)
(0.972437 -0.0426956 5.48364e-23)
(0.997853 -4.59454e-05 2.28481e-23)
(0.962036 -0.0259732 -7.78868e-23)
(1.04732 -0.075659 1.52292e-22)
(1.01206 -0.0185836 -2.4596e-24)
(1.00177 -0.00171925 3.65768e-24)
(1.00016 -4.33728e-05 9.44e-25)
(1.01328 -0.0248896 -1.0467e-24)
(0.997981 -0.0145864 -6.04624e-23)
(0.999578 -0.000171781 3.14613e-24)
(0.999973 -9.53111e-06 8.84906e-26)
(1.17068 0.0919783 1.91492e-22)
(0.994678 -0.00171255 2.46699e-23)
(0.99986 -0.000751634 -1.44483e-24)
(1.13578 -0.0158061 -9.19332e-24)
(0.998123 -0.00158159 -7.78115e-24)
(0.990418 -0.000706182 -3.58095e-23)
(0.999242 -0.000242423 -1.06757e-23)
(1.00166 -0.00171519 1.2827e-23)
(0.991805 -0.00311278 1.773e-22)
(0.998116 -0.000151009 1.00293e-23)
(0.883041 0.11973 6.42539e-23)
(1.00932 0.00329649 6.83431e-22)
(0.999545 -5.17573e-05 7.16835e-24)
(0.942139 0.102078 -4.22968e-21)
(1.17654 0.0915426 -5.68229e-22)
(0.999239 -0.00799744 -1.13523e-23)
(1.01354 -0.00999968 1.83642e-23)
(1.0343 -0.00697591 -1.40798e-22)
(0.975706 -0.0985453 5.72471e-22)
(0.998024 -0.0201942 3.09588e-23)
(0.94002 0.0972841 3.39435e-21)
(1.00244 -0.0289189 9.43198e-23)
(1.07083 0.0452161 -2.04842e-22)
(0.975168 -0.0240584 2.12072e-22)
(1.00468 -0.000730944 -5.01495e-23)
(1.00451 -0.000525707 9.55058e-23)
(1.00038 -0.000143534 -2.9595e-24)
(0.989688 -0.0265022 -2.12581e-22)
(0.999877 -0.000730637 -1.85534e-26)
(1.01968 -0.0650576 -4.20318e-22)
(1.00003 -4.94836e-06 -1.8089e-25)
(0.999414 -0.00811345 8.34091e-24)
(0.997734 -0.0108335 -1.72043e-23)
(1.00007 -7.45329e-05 4.68607e-25)
(1.00293 -0.00322439 -5.19924e-23)
(1.07048 0.0422851 -8.38233e-23)
(1.1004 -0.0967365 1.18572e-22)
(0.975561 -0.0377322 -2.50855e-22)
(1.03424 -0.00611705 4.95772e-23)
(0.963211 -0.0257857 -1.27331e-22)
(0.994808 -0.00175688 -2.16581e-23)
(1.18038 0.0787494 -3.39652e-22)
(0.997038 -0.00197456 7.77372e-24)
(0.999221 -0.000267088 1.35255e-23)
(0.999699 -0.0190866 -4.42711e-23)
(1.00712 -0.0520067 -1.7353e-22)
(0.999943 -6.19502e-06 2.07399e-25)
(0.998189 -0.00162078 -1.60133e-24)
(1.26494 -0.0150373 -2.32411e-22)
(1.00281 -0.0282842 -5.2634e-23)
(1.06922 0.114646 1.78575e-21)
(0.911232 0.0333832 8.54209e-21)
(0.99871 -0.0239873 -8.50708e-23)
(0.993522 -0.0120824 7.47612e-23)
(0.934825 0.0214108 3.42424e-21)
(1.0004 -0.000135456 1.91457e-24)
(1.01088 0.00395733 -9.31376e-22)
(0.988145 0.085547 2.31664e-21)
(1.00279 -0.00798648 -1.91896e-23)
(0.904239 0.139333 2.35194e-21)
(0.992958 -0.000552784 1.13774e-22)
(1.10787 -0.0572552 -4.20972e-23)
(1.24731 0.151035 3.11243e-22)
(0.976351 -0.0136833 5.03201e-23)
(0.999957 -1.95999e-05 -5.88687e-25)
(1.00186 -0.0425973 -1.67045e-22)
(0.963738 -0.000605343 -8.38833e-23)
(1.02156 0.0416213 5.51225e-22)
(1.00943 -0.0127688 -7.65611e-23)
(1 -5.50578e-05 6.55681e-26)
(1.04973 -0.0741408 -2.38543e-22)
(1.17189 -0.188574 -7.92653e-22)
(1.04009 0.100557 -3.4815e-21)
(0.999561 -0.000169263 -2.85028e-24)
(0.999591 -0.000153135 -8.35399e-25)
(0.944303 -0.0326798 -3.29933e-22)
(0.992872 -0.0459396 2.95802e-22)
(0.976255 -0.0143328 5.6969e-23)
(1.00274 -0.0033315 8.83854e-24)
(1.05526 -0.011941 -7.68049e-23)
(0.939792 -0.0139134 -2.75073e-22)
(1.05097 0.121729 1.72562e-21)
(0.993613 -0.0595028 4.83142e-22)
(1.00041 -0.000339369 4.75178e-24)
(0.972507 -0.0535198 -4.97878e-22)
(1.16407 0.121068 1.19479e-21)
(0.999954 -1.92151e-05 8.60896e-25)
(0.977519 -0.00893136 -3.0216e-22)
(0.999944 -7.59149e-06 -1.07261e-25)
(1.04229 -0.0196399 -3.73423e-22)
(0.974411 -0.0375469 1.66008e-22)
(1.03502 0.0124254 9.35126e-22)
(1.00424 0.080657 3.44049e-21)
(0.999608 -0.000154968 -7.06595e-24)
(0.999996 -6.11185e-05 -1.3601e-26)
(0.989082 -0.0963668 -2.88491e-23)
(0.974142 -0.0971709 -5.1539e-22)
(1.0369 -0.0392818 1.20746e-23)
(1.00001 -1.91327e-06 3.1166e-26)
(0.99898 -0.00540905 -2.92903e-23)
(0.999898 -0.00193095 1.12332e-24)
(0.991019 0.0875892 1.72408e-23)
(1.04442 0.0597161 -1.1891e-21)
(0.989739 -0.00629999 -1.22241e-22)
(1.00002 -6.00482e-05 4.0338e-26)
(1.00307 -0.00791324 -1.49232e-23)
(1.26962 -0.115249 2.95769e-21)
(1.00537 0.0121839 1.50739e-21)
(1.16033 -0.0849453 -9.83003e-22)
(0.909156 0.0408051 -8.09657e-21)
(1.00096 -0.000315229 -1.21166e-23)
(1.15708 -0.059702 1.48644e-22)
(1.13469 -0.0110969 -6.36126e-23)
(1.01122 -0.050513 1.3448e-22)
(1.0035 -0.00305977 -4.65803e-23)
(1.00002 -0.000386287 3.97137e-26)
(1.01955 -0.0633119 1.48335e-22)
(1.25182 0.143311 1.26076e-22)
(1.00624 0.152836 4.2328e-21)
(1.15999 -0.105187 -2.92854e-22)
(1.04084 -0.0192058 3.13438e-22)
(1.01314 -0.00962976 3.50519e-22)
(1.08252 0.199332 2.84849e-22)
(0.976588 -0.000662027 4.41327e-22)
(1.06962 -0.190395 1.92111e-21)
(1.16578 0.114537 -9.20764e-22)
(1.15727 -0.0538928 -1.42524e-22)
(0.950299 -0.00416505 -3.5266e-22)
(0.957984 -0.0359508 1.06733e-22)
(1.00001 -1.73993e-06 -1.35444e-26)
(0.99999 -3.37352e-06 4.68862e-26)
(0.997797 -7.63024e-05 -1.80469e-23)
(0.997904 -0.0106204 3.50212e-23)
(0.980956 -0.0759264 -3.89026e-22)
(1.08832 -0.155177 9.07809e-22)
(1.302 0.0513313 -7.35613e-22)
(1.02733 -0.0181306 1.72976e-22)
(1.01558 -0.0180252 5.44751e-23)
(1.00038 -0.000550443 7.31315e-24)
(0.999885 -0.000194971 8.27978e-25)
(1.00151 0.0208857 -3.36594e-21)
(1.00047 -0.00134652 8.47248e-25)
(0.994092 -0.00984243 2.02952e-26)
(1.09881 0.202225 -7.98802e-22)
(1.00448 0.0439388 -3.67056e-21)
(1.10385 -0.094131 -2.63844e-22)
(0.965373 -0.00230771 1.45081e-22)
(0.973308 -0.0418887 3.85366e-22)
(1.18128 0.0848299 9.24821e-23)
(0.999957 -4.03943e-05 1.8713e-25)
(0.99999 -3.2599e-06 -1.74732e-26)
(0.989688 -0.00662031 4.32746e-23)
(0.958995 -0.0352764 -5.66807e-22)
(1.00005 -0.000198063 -4.4676e-25)
(1 -5.84356e-05 2.54185e-26)
(0.994089 -0.00444935 -1.45519e-23)
(1.00003 -0.000374949 -3.02062e-26)
(1.00503 -0.00528497 -2.58338e-23)
(1.09379 0.206195 9.36129e-22)
(0.976921 -0.000351011 -3.63445e-22)
(1.02608 -0.103528 -1.8767e-22)
(0.995596 -8.59228e-05 7.33423e-23)
(1.00184 -0.00237636 2.71963e-24)
(0.976929 -0.00877452 5.10905e-22)
(0.999241 -0.00539936 -2.69733e-24)
(1.16877 -0.0760638 6.33962e-22)
(0.999981 -8.93411e-06 2.88307e-25)
(1.01008 -0.0346681 -7.96258e-23)
(1.04263 0.102702 1.2427e-21)
(0.9938 -0.0112319 -4.27122e-24)
(1.06614 -0.185347 -1.77254e-21)
(1.03348 0.051144 -1.05018e-21)
(0.994517 -0.00245361 -1.0642e-22)
(0.984261 -0.0130895 1.33279e-22)
(1.00331 -0.00307448 7.0988e-23)
(0.999314 -0.00745864 -1.74119e-23)
(0.999758 -6.44156e-06 8.19342e-25)
(1.00504 -0.0159078 7.56158e-24)
(0.904227 0.0203745 3.38475e-21)
(1.00092 0.0169027 2.58953e-21)
(0.987603 -0.00531167 3.37815e-24)
(0.994354 -0.0097011 -4.70127e-23)
(0.980236 0.0444228 -3.15293e-21)
(1.01295 0.0324279 4.73185e-22)
(0.940996 -0.013788 3.33087e-22)
(1.001 -0.00042123 -9.4822e-24)
(1.05477 -0.0956576 3.02015e-22)
(0.97034 -0.0704817 5.14162e-22)
(0.998209 -0.014895 2.87325e-23)
(1.00073 -0.00092662 -1.51649e-23)
(1.08582 0.204293 4.01744e-22)
(0.994276 -0.00446005 -9.67265e-24)
(1.00587 -0.00474179 -2.92271e-23)
(0.979675 -0.0753053 5.16481e-22)
(0.988935 -0.0984551 7.36005e-23)
(0.999968 -4.51647e-06 7.07465e-26)
(0.97685 0.122727 -3.82859e-21)
(0.999104 -2.02038e-05 -1.7729e-25)
(1 -4.69463e-05 1.83754e-26)
(0.999528 -0.000180458 1.21667e-24)
(0.995313 -0.0464086 -1.10103e-22)
(1.25691 0.0150512 6.47307e-22)
(1.01101 -0.0340322 5.92965e-24)
(1.00569 -0.00442688 -2.00155e-23)
(0.998136 -0.000207613 2.49038e-23)
(0.942012 -0.0153855 -6.40162e-23)
(1.00003 -0.000410582 -1.15268e-25)
(1.00042 -0.00137263 8.29397e-26)
(0.997993 -0.000176173 -1.64638e-23)
(1.02567 0.00118182 8.64837e-22)
(0.997708 -0.003418 -5.3019e-24)
(0.999004 -0.0050249 8.68403e-24)
(1.02498 -0.00133452 4.16035e-22)
(1.00011 -0.000335278 7.16168e-25)
(1.00003 -4.29156e-06 4.75952e-26)
(1.00431 -0.00052755 1.01083e-23)
(0.978429 -0.0275442 -1.98256e-22)
(0.979411 -0.000338975 -1.76026e-22)
(0.995863 -0.000326826 -7.80751e-23)
(1.01185 0.00311018 7.69445e-22)
(0.986508 -0.000970926 8.43872e-23)
(1.01582 -0.0174275 -5.42133e-23)
(0.999973 -1.06157e-05 2.48651e-25)
(0.997451 -0.00225533 -2.98208e-23)
(1.00069 -0.000919619 1.63879e-23)
(1.0551 -0.0922855 2.9954e-22)
(1.01675 -0.161642 1.18803e-21)
(0.998805 -0.000107715 1.30312e-23)
(1.0004 -0.000489541 -5.62881e-24)
(0.99892 -0.00490464 -2.95084e-24)
(1.00299 -0.00706668 -3.7287e-23)
(0.990608 -0.00052111 -1.51594e-22)
(0.999958 -3.85025e-05 -1.16244e-26)
(1.17028 -0.182327 -1.79524e-21)
(1.00004 -0.0004198 1.23002e-25)
(1.02535 0.00111955 -6.08893e-22)
(0.997131 -0.00197709 -1.56301e-23)
(1.00013 -0.000325291 3.05159e-25)
(1.03402 0.0128846 -5.94182e-22)
(0.966537 -0.0671098 -5.34559e-22)
(1.00022 -3.68339e-05 3.10809e-24)
(1 -1.11044e-05 1.11582e-26)
(0.950171 -0.00298023 -4.0113e-22)
(1.00898 -0.147572 -1.83221e-22)
(0.992522 -0.00706339 -1.15217e-23)
(1.01026 -0.0515245 -3.48505e-23)
(1.02809 -0.0188384 -2.83573e-23)
(1.04869 0.0992629 1.54863e-22)
(1.00007 -7.03637e-05 1.29827e-25)
(0.978839 -0.0270001 1.86573e-22)
(1.21944 -0.102032 1.23634e-21)
(0.960678 0.0661946 7.65235e-23)
(0.99373 -0.010977 3.46355e-23)
(1.03217 0.0494506 1.27872e-21)
(1.10882 -0.0531728 -2.36772e-23)
(0.999896 -0.00212435 -1.39942e-24)
(0.814225 0.0563024 5.09376e-21)
(0.99953 -0.000379922 -8.18438e-24)
(1.0247 -0.106145 -2.38055e-22)
(0.942937 -0.0153954 4.11981e-22)
(1.00196 -0.00224609 -1.49933e-23)
(1.20951 -0.0291287 -4.31355e-22)
(0.992599 -0.000800597 -9.05784e-23)
(1.00873 0.165308 2.93795e-21)
(0.996994 -0.000227532 7.24555e-24)
(0.98468 -0.0141279 -6.99494e-24)
(0.99982 -0.00192999 -7.25762e-24)
(1.14219 0.159395 3.08924e-22)
(0.999838 -0.0151444 7.70081e-24)
(1.04732 0.122635 1.09053e-22)
(0.999557 -4.00605e-05 -3.13698e-24)
(0.994945 -0.00162631 -3.42235e-23)
(0.957956 0.149546 -1.96611e-21)
(1.03015 5.70961e-05 -7.06602e-22)
(1.02479 -0.000956226 4.83855e-22)
(0.97405 -0.0347721 4.65263e-22)
(0.999868 -2.8457e-05 8.30967e-25)
(1.0029 -0.0068252 -4.19926e-24)
(0.999857 -0.000820664 -2.6019e-24)
(1 -4.44813e-05 1.45184e-26)
(1.05604 0.00337536 1.84089e-22)
(1.00004 -4.64516e-06 4.43631e-27)
(0.982709 -0.0124887 3.15302e-22)
(1.21358 -0.102394 -1.12542e-21)
(0.880355 0.125038 -4.97533e-21)
(1.00981 0.153354 -6.51729e-21)
(0.97015 -0.05841 1.64031e-22)
(0.987429 -0.0256906 1.17717e-22)
(0.980392 -0.00131071 8.37368e-23)
(1.02941 -0.0355088 5.77082e-23)
(1.00555 -0.0157039 -1.74676e-23)
(0.984147 -0.0137134 -1.84097e-22)
(0.970265 -0.0640495 7.24406e-23)
(1.04679 0.102062 -2.32565e-21)
(0.999471 0.0154588 5.05684e-21)
(0.998884 -0.00013155 7.18387e-24)
(1.00578 0.0816332 -4.73716e-21)
(1.05497 0.00197494 5.9759e-23)
(1.16671 -0.0834644 2.79892e-22)
(1.0119 -0.0142942 2.65917e-23)
(1.00079 -0.013972 -3.92688e-23)
(1.01762 -0.0479374 -9.70182e-23)
(0.995309 -0.00157359 -8.06821e-23)
(0.997676 -0.000572487 -5.24255e-24)
(0.999947 -5.97001e-06 1.09493e-24)
(0.999171 -0.0076396 2.57028e-23)
(1.08841 -0.0514697 6.77118e-24)
(1.14316 0.165555 -5.41777e-22)
(1.00142 -0.00122056 7.03259e-24)
(0.976122 -0.0225716 -2.51731e-22)
(1.01362 -0.0146699 -8.34102e-23)
(0.999966 -1.45542e-05 -9.51729e-26)
(0.9702 -0.0611308 -2.6003e-22)
(0.853918 0.0971529 -2.26041e-21)
(0.994573 -0.00419341 1.20034e-22)
(0.99903 -0.00401624 7.9873e-24)
(1.01243 -0.0141411 -1.65238e-23)
(1.00166 -0.0413659 2.08052e-22)
(1.09228 0.028723 2.20255e-22)
(0.999488 -0.00867341 -4.14242e-24)
(0.999972 -4.6807e-05 6.17751e-25)
(1.00001 -2.69434e-06 1.52061e-26)
(0.997644 -0.000521538 -5.83882e-24)
(0.955762 0.148372 2.84644e-21)
(1.04529 -0.0298223 6.56031e-23)
(1.02081 -0.161504 -2.96632e-22)
(1 -1.1116e-05 9.93015e-28)
(1.00591 -0.150063 1.18702e-22)
(1.08087 -0.00717847 -2.18759e-22)
(0.995489 -0.000143756 -3.67936e-23)
(0.945069 -0.0056355 -4.9454e-22)
(0.999104 -0.00394665 -8.01053e-24)
(0.999617 -0.000173651 -5.16594e-25)
(0.979525 -0.0244224 -5.52375e-23)
(1.00081 -0.001017 -7.32631e-24)
(1.17483 -0.0743082 -5.70549e-22)
(1.00821 -0.000953224 -2.12316e-22)
(1.23939 0.104368 -1.29189e-22)
(0.999929 -0.00209684 1.81125e-24)
(1.0037 -0.0124722 5.95811e-24)
(1.00519 0.0107679 -2.03933e-21)
(1.26381 -0.110036 -1.21126e-21)
(1.00037 -0.000518213 -4.29819e-24)
(1.00039 -0.00045914 4.20653e-25)
(0.993807 0.103478 2.35769e-22)
(0.99377 -0.0468858 -5.85201e-23)
(0.999338 -0.00853948 5.07973e-24)
(1.0118 0.0359919 2.5003e-22)
(0.972037 0.0227221 6.20837e-21)
(1.09967 -0.101238 -4.10934e-22)
(0.998747 -0.0231578 -2.51071e-23)
(1.25159 0.0181777 -6.42644e-22)
(0.999324 -6.51703e-05 -5.38618e-24)
(0.992339 -0.0036911 3.18614e-23)
(0.997056 -0.000239346 -2.01531e-23)
(1.01457 0.0309073 4.3581e-25)
(0.999989 -0.000674786 1.76112e-25)
(1.00793 -0.00116518 2.16932e-22)
(1.11239 -0.156062 2.20015e-23)
(1.00377 0.144162 6.61413e-21)
(0.907646 0.143886 -1.08436e-21)
(0.994683 -0.00244906 4.30088e-24)
(0.992305 -0.00689412 3.45122e-23)
(1.0661 0.118074 -1.43093e-21)
(1.00734 -0.0536213 2.51323e-22)
(0.999949 -7.15443e-06 -1.06813e-24)
(1.28648 0.0967807 -4.81953e-22)
(1.02505 0.00168965 -2.60142e-22)
(1.0246 0.00166263 -1.76946e-22)
(0.9948 -0.0119588 -5.11716e-23)
(1.017 -0.00180386 -3.37852e-22)
(0.946557 0.132485 9.73724e-22)
(1.0805 -0.161409 -2.63152e-22)
(0.979341 0.131778 1.02814e-21)
(0.995087 0.130612 -1.7289e-21)
(0.999997 -5.85731e-05 4.3177e-26)
(1.08541 -0.0499075 1.94329e-23)
(1.08301 -0.156952 1.69596e-22)
(0.997601 -0.00344809 1.38775e-23)
(1.00145 -0.0013086 -1.1609e-23)
(0.966523 0.0268074 1.49076e-21)
(1.04686 -0.0307958 -8.31607e-23)
(1.00025 -6.77863e-05 7.1026e-25)
(0.981375 -0.0524831 -5.8515e-22)
(0.969513 -0.0722052 -2.41437e-22)
(0.995055 -0.00167135 4.80972e-23)
(0.999893 -0.00018932 -1.03791e-24)
(1.0598 0.145799 -2.34618e-22)
(1.04391 0.0574186 1.98619e-21)
(1.00004 -0.000460036 -3.64126e-26)
(1.00364 -0.003304 9.1495e-24)
(1.0047 -0.00332006 4.96197e-23)
(1.16623 -0.13995 1.26124e-21)
(0.974131 -0.0338415 -4.12061e-22)
(1.00006 -0.000546151 -2.97948e-25)
(0.999987 -2.20807e-06 -2.61232e-26)
(1.00044 -0.000148939 1.12793e-24)
(1.09069 0.0304001 -2.05584e-23)
(0.975191 -0.0232103 -2.0313e-22)
(1.00247 0.0444314 1.0781e-21)
(0.95209 -0.0393925 2.61714e-22)
(0.988145 -0.0256063 -1.21793e-22)
(0.978821 -0.00101577 -3.49622e-22)
(1.01346 0.0348517 -1.23127e-21)
(1.25573 -0.0130368 -6.20297e-23)
(0.998918 -0.000139932 1.31554e-23)
(1.00707 -0.0054308 -5.30694e-23)
(1.00076 -0.00100634 8.30661e-24)
(0.977837 0.144793 -2.66148e-21)
(0.977013 -0.0211004 1.07916e-22)
(1.00097 -0.000256292 -3.96965e-24)
(0.993255 -0.00329458 -4.31713e-23)
(1.16347 -0.049575 -1.86277e-22)
(0.999567 -0.00932202 -1.12098e-23)
(0.989579 -0.0113168 -2.41414e-23)
(1.00021 -0.000129196 -2.15759e-24)
(1.00022 -4.94524e-05 -9.54189e-26)
(0.849868 0.103781 3.5484e-21)
(0.992653 -0.00119318 -5.64798e-23)
(0.995685 -0.00432905 4.93738e-23)
(0.99966 -0.00171047 -6.36021e-24)
(0.999341 -4.98391e-05 -7.39652e-25)
(1.05624 0.0965674 -7.69792e-22)
(1.11756 -0.159682 6.95502e-23)
(0.985522 -0.0382829 7.44171e-23)
(1.00001 -2.05178e-06 -1.58206e-26)
(1 -3.57798e-05 1.31662e-26)
(0.976124 -0.0218234 2.85538e-22)
(0.99392 -0.00175601 1.14568e-23)
(0.995345 -0.00200841 -6.58036e-24)
(1.01324 -0.00505114 1.03368e-22)
(1.00528 -0.00225898 1.78472e-23)
(1.00008 -0.0155175 -1.39656e-23)
(1.13001 -0.0326282 -2.82351e-23)
(0.983415 -0.00398195 -7.11297e-23)
(0.981487 0.129265 -8.349e-22)
(1.01249 -0.0248597 -1.58405e-23)
(1.00023 -0.000129676 2.3999e-24)
(0.96952 -0.0572653 2.43976e-23)
(0.984236 -0.0338695 -2.54914e-22)
(1.19901 -0.0204252 -1.71142e-22)
(0.997375 -0.00568011 -1.48969e-23)
(0.988347 -0.0451219 -9.10839e-23)
(0.999981 -5.32241e-06 1.58637e-25)
(0.922824 0.105187 -3.40639e-21)
(1.01415 -0.00212297 1.89042e-22)
(1.00008 -0.00022071 -7.26911e-25)
(0.904033 0.0278527 -4.35846e-21)
(0.984578 -0.0384131 1.71425e-22)
(0.99998 -6.17477e-06 2.51632e-26)
(1.00132 -0.00119239 3.42966e-24)
(0.969452 -0.0598682 -1.44648e-22)
(1.03554 -0.0378756 1.79168e-23)
(1.04756 -0.0141688 2.20142e-22)
(0.999992 -3.63816e-06 3.71697e-26)
(0.992615 -0.000609572 4.51395e-23)
(1.01856 -0.0469829 1.78465e-22)
(0.995192 -0.00153386 6.65808e-23)
(0.999576 -4.60303e-05 -1.70227e-23)
(0.992488 -0.00381207 8.41375e-25)
(0.976545 0.0470627 3.67468e-22)
(0.993414 -0.0117367 -6.23651e-23)
(0.990017 -0.0110926 1.7621e-23)
(1.00167 0.0245391 -1.04417e-21)
(0.997497 -0.00213039 1.55503e-23)
(0.971528 0.14669 -3.44466e-22)
(0.999979 -6.19936e-06 -8.06616e-26)
(0.990015 -0.0258694 4.93755e-23)
(0.979744 -0.0717386 5.9882e-22)
(0.989196 -0.0454893 1.54982e-22)
(1.20258 -0.114151 3.19726e-22)
(0.998893 -0.0052547 1.96481e-23)
(1.00815 -0.0231018 5.08526e-25)
(0.999914 -0.0022585 3.21946e-25)
(0.984306 -0.0199342 -1.41086e-22)
(1.03655 -0.0411496 -1.3756e-24)
(0.999968 -1.39245e-05 4.83063e-25)
(1.00002 -1.14464e-06 -2.65337e-26)
(0.994221 -0.000394638 3.04863e-23)
(0.980063 0.091164 2.37927e-21)
(1.01157 -0.0192295 8.77642e-23)
(1.00236 -0.00336103 -1.4406e-23)
(0.940945 -0.0287848 3.52575e-22)
(1 -1.0019e-05 2.78904e-27)
(1.0009 -0.00111074 -1.32927e-23)
(0.999967 -0.000643262 -1.91987e-25)
(1.0129 -0.0184853 1.03073e-22)
(0.984599 -0.0147502 2.45204e-23)
(0.999648 -0.000270235 2.14162e-24)
(0.993864 -0.0104788 2.36986e-23)
(0.988716 -0.00655873 -2.54816e-23)
(1.00094 -0.000153816 -1.09296e-24)
(0.999979 -7.14012e-06 -5.04121e-26)
(1.23436 -0.0709368 -1.1777e-21)
(0.999695 -0.0016822 6.82425e-24)
(1.07767 -0.0119476 1.63049e-22)
(1.02082 0.140788 6.32471e-21)
(1.06053 0.11669 -1.33003e-21)
(1.0002 -0.019581 -5.26899e-23)
(1.00517 -0.00204946 -5.89518e-24)
(1.01734 -0.00143507 2.06637e-22)
(0.99996 -0.00230906 -3.64382e-25)
(0.99789 -0.00989226 2.47102e-23)
(1 -1.64718e-05 2.08296e-26)
(0.991992 0.131027 -1.26175e-22)
(0.988683 -0.0148768 3.42432e-23)
(1.01299 -0.00466236 -7.3805e-23)
(0.983781 -0.00413537 1.45309e-22)
(1.00325 -0.0122565 7.53308e-25)
(0.997531 -0.00558789 3.21744e-23)
(0.999904 -0.000194023 2.44901e-25)
(1.00002 -1.10614e-06 -1.46721e-25)
(0.99583 -0.00431298 -3.59186e-23)
(1.0553 -0.0136914 -1.17629e-22)
(1.0047 0.0460758 1.657e-22)
(1.00113 -0.000453853 -1.61355e-23)
(0.97395 -0.0537067 -1.28786e-22)
(0.976976 -0.020463 -4.87605e-23)
(0.992796 -0.00047762 -1.68728e-22)
(1.29397 0.0496933 4.63743e-22)
(0.998803 -0.000918231 -7.79901e-24)
(1.00328 -0.0138544 -1.28553e-23)
(0.994979 -0.00264053 3.33814e-23)
(0.999912 -0.000187068 2.05376e-25)
(0.969427 -0.0626234 1.63834e-22)
(1.00207 0.0377742 -1.67611e-21)
(1.0327 0.0447675 -1.30701e-21)
(0.979328 -0.0137484 -2.35363e-23)
(1.00152 0.0357199 -7.17417e-23)
(1.00008 -0.000207326 1.39928e-24)
(1.00001 -1.47976e-06 4.49979e-26)
(1.28038 0.0928663 1.28693e-22)
(1.20744 -0.0222907 3.46079e-22)
(0.905566 0.106809 -1.65688e-22)
(0.994423 -0.0769081 4.63318e-22)
(0.979046 -0.00140299 -1.09813e-22)
(1.16307 -0.0428379 2.76314e-22)
(1.00107 -0.000472646 1.82744e-23)
(0.994792 -0.00355553 1.91357e-23)
(1.00042 -0.000158074 -1.07555e-24)
(0.990218 -0.000667707 -3.69473e-23)
(0.989105 -0.0121747 -5.00767e-23)
(0.999996 -3.20884e-05 -1.14938e-25)
(0.999182 -3.13648e-05 3.07911e-24)
(1.00329 0.140825 -6.01499e-21)
(0.999881 -0.000668016 2.34985e-24)
(0.931807 0.097224 4.07999e-21)
(1 -1.56676e-05 -1.5952e-26)
(1.29168 -0.0513773 -1.33996e-21)
(1.0775 -0.0141949 -3.58737e-22)
(1.13027 -0.0286329 2.68641e-23)
(1.00096 -0.000447671 1.09304e-24)
(1.00017 -3.97171e-05 1.9113e-24)
(0.984763 0.0862682 -3.54584e-21)
(1.08084 -0.00972977 7.32166e-22)
(0.979095 -0.0730188 -5.53306e-22)
(1.02245 0.0436732 6.0038e-22)
(0.997598 -0.0197977 2.15528e-23)
(0.987724 -0.00500617 -3.75331e-23)
(0.996269 -0.000204938 -2.01954e-23)
(1.1523 0.200478 -2.42216e-21)
(0.977787 -0.0244997 1.77046e-22)
(1.02999 -0.0340619 -4.3951e-23)
(0.994107 -0.0103878 -1.35541e-23)
(1 -9.97215e-06 -3.86053e-28)
(0.998815 -0.000867175 -6.62911e-24)
(1.00553 -0.00571609 3.07337e-23)
(0.983167 -0.00737118 1.86582e-22)
(0.979853 -0.0138701 3.51124e-23)
(0.960303 -0.0360044 -5.56515e-23)
(0.982988 -0.00781409 -1.41205e-22)
(1.01795 0.00284585 1.04018e-22)
(0.998042 -0.000133199 4.13055e-25)
(0.945539 -0.0331219 1.85347e-22)
(0.987111 -0.000852844 -5.20719e-23)
(1.00004 -0.000200198 1.77999e-25)
(0.988744 -0.000685021 -3.61585e-23)
(1.03037 -0.0368582 -5.31566e-23)
(1.01721 0.00304549 -5.75329e-22)
(0.975981 -0.0245768 -4.41653e-23)
(0.999985 -7.33068e-07 -7.30153e-28)
(0.983892 -0.0150584 3.70583e-23)
(1.00184 -0.014125 5.04552e-24)
(1.00129 -0.00110657 4.41293e-24)
(1.09916 -0.170323 -7.78916e-22)
(1.00176 0.0349398 -3.91931e-21)
(1.00084 -0.00109691 1.2342e-23)
(0.988936 -0.000517136 4.91126e-25)
(1.09098 -0.0989496 1.7535e-23)
(1.02618 0.000264796 8.62105e-22)
(0.990703 0.0305376 -3.91911e-22)
(1.00171 -0.00233997 3.9216e-24)
(1 -0.020389 1.6363e-23)
(1.11645 0.143436 -4.18055e-22)
(1.01546 0.0274147 -3.03628e-21)
(0.990979 -0.0258274 1.31509e-22)
(1.00442 -0.00331968 -5.55547e-24)
(0.955914 -0.0424069 2.64784e-22)
(0.999998 -5.26692e-06 2.11144e-26)
(0.956248 -0.00180782 -1.85555e-22)
(1.00008 -6.56898e-05 2.64225e-25)
(1.08786 -0.0990778 -9.2581e-22)
(0.999969 -3.30571e-06 -5.32963e-26)
(1.00003 -5.87067e-05 1.44042e-25)
(0.999578 -0.0227856 -1.9887e-23)
(1.2705 -0.00743955 5.69332e-22)
(1.03732 0.180301 2.71755e-21)
(1.03355 -0.0382075 -7.21143e-23)
(1.01296 -0.0147951 5.55097e-23)
(0.999999 -4.21344e-06 -5.6521e-27)
(0.994377 -0.00422236 -6.49558e-23)
(1.00008 -2.01342e-05 -1.98501e-25)
(0.997104 -0.00226607 2.22445e-23)
(1.00003 -5.46964e-05 -1.11841e-25)
(1.04779 -0.0121991 -6.85353e-22)
(0.999565 -0.000447085 -8.3947e-24)
(1.06175 0.0595311 1.27333e-21)
(0.999884 -0.000206696 -1.58572e-24)
(0.988168 -0.00489471 -6.30923e-23)
(0.962966 -0.00098075 4.15028e-22)
(0.996077 -0.000281997 -2.59463e-23)
(0.984265 0.0461509 3.7718e-21)
(0.984205 -0.000664128 1.01204e-22)
(1.01463 -0.100475 4.15715e-23)
(0.994926 -0.00373011 9.92126e-23)
(1.02431 -0.00262615 -1.75417e-22)
(0.971653 -0.054324 5.95867e-22)
(1.01847 -0.00134979 -5.79316e-22)
(1.03343 -0.0717046 -1.8174e-23)
(0.999987 -1.82158e-06 6.58949e-27)
(0.999015 -0.0192351 1.79921e-23)
(0.996329 -0.000270512 3.16921e-24)
(1.00023 -8.72251e-05 1.44818e-24)
(1.00008 -1.69566e-05 3.29984e-25)
(1.15851 0.203717 2.64103e-21)
(0.995499 -0.00201513 5.54495e-23)
(1.026 0.00106523 9.88249e-22)
(1.00058 -0.0209039 2.02517e-23)
(1.0008 -0.000288051 4.2274e-24)
(1.02251 -0.00826504 -6.31279e-22)
(1.00015 -3.76097e-05 -4.20696e-24)
(0.999978 -3.31168e-06 -7.16055e-27)
(0.956762 -0.00240942 1.42563e-22)
(0.996781 -0.00115032 2.50496e-23)
(1.00003 -5.32732e-05 1.70751e-25)
(1.07387 0.11486 9.46388e-22)
(0.867462 0.0848593 -6.2152e-21)
(0.999805 -0.000218697 3.97217e-24)
(0.964569 -0.00198274 -1.12203e-22)
(1.00002 -1.48075e-06 3.21367e-26)
(0.942776 0.129489 -3.91935e-21)
(1.29976 -0.0534231 -1.76722e-21)
(0.972477 -0.0437059 -4.72691e-22)
(1.00004 -0.000528117 -3.52626e-25)
(1.02896 -0.0328022 1.15046e-22)
(1.02979 -0.00287576 -2.4296e-22)
(1.03088 8.44518e-06 7.29526e-23)
(1.04872 -0.0149403 -8.40787e-23)
(0.999662 -0.00180281 -1.0042e-24)
(0.999879 -0.000800108 2.05648e-24)
(0.987021 -0.0147595 -1.09003e-22)
(1 -8.85296e-06 -1.4756e-27)
(1.00001 -1.33305e-06 -8.28834e-27)
(0.977042 -0.0240404 -1.04201e-22)
(0.995004 -0.0588675 -2.40986e-22)
(0.961424 -0.0353846 -1.42375e-23)
(0.889746 0.120445 -1.36091e-22)
(1.00019 -2.42247e-05 -1.76555e-24)
(1.01092 -0.0754517 -5.37452e-22)
(1.00685 -0.00509588 -5.45217e-23)
(0.999979 -3.52576e-06 8.22195e-26)
(0.999053 -0.00373979 -1.72884e-23)
(1.00003 -0.00044748 -2.13488e-25)
(0.995783 -0.012148 3.86185e-23)
(1.00004 -9.86929e-06 1.95694e-25)
(1.03524 -0.0706705 -4.35141e-23)
(1.01809 -0.00164652 5.62418e-22)
(0.973417 0.144024 9.10542e-22)
(1.02381 -0.00247883 6.58371e-22)
(0.999743 -0.00021434 3.12222e-24)
(1.00042 -0.000370317 -4.13897e-24)
(1.1626 -0.146275 -1.28532e-21)
(1.02595 0.000804264 -7.9415e-22)
(0.997153 -0.000371375 2.2784e-23)
(1.00002 -1.52738e-06 6.90962e-26)
(1.09197 0.0985036 -1.50251e-21)
(1.05585 -0.181128 -3.06629e-22)
(0.994725 -0.0753264 -2.02565e-22)
(0.98676 -0.000725673 -2.73627e-23)
(0.999981 -2.12753e-05 1.62763e-25)
(0.999746 -0.000202167 -1.8299e-24)
(1.0594 -0.185908 8.53931e-22)
(0.996323 -0.0472923 -6.52981e-23)
(1.0396 0.0313555 1.85234e-22)
(0.980826 0.124716 3.47963e-21)
(1.01393 -0.0978502 3.01798e-22)
(0.998833 -8.01791e-05 -4.09984e-24)
(0.999981 -1.00048e-05 -1.88146e-25)
(0.965254 -0.0461814 4.60584e-22)
(0.972688 -0.0925015 -6.3015e-22)
(0.999813 -0.000226495 2.1188e-24)
(1.00878 -0.0224852 2.89221e-23)
(0.991293 -0.0251506 -2.33503e-23)
(0.995731 -0.0021616 2.1861e-23)
(0.998412 0.0294429 -2.94302e-21)
(0.998814 -0.000517524 1.47044e-23)
(1.04842 -0.0548328 -4.09178e-23)
(1.24826 0.157898 -4.53674e-22)
(0.992887 -0.0031061 -6.34489e-23)
(0.903305 0.100674 -6.04517e-22)
(0.91325 0.0476159 1.8566e-21)
(0.999972 -4.94935e-05 -6.20961e-25)
(0.999976 -0.000703436 -1.79873e-25)
(0.984393 -0.000882872 -6.44092e-23)
(1.01231 -0.00456066 -1.33682e-22)
(0.966022 -0.00183171 2.36856e-22)
(1.00481 -0.00412117 -5.69565e-23)
(0.993141 -0.00311714 5.91225e-23)
(0.999476 -0.000475743 -6.40864e-24)
(0.952913 0.130254 -6.98622e-22)
(1.06225 0.0566761 -1.973e-21)
(1.0021 -0.00226945 1.00755e-23)
(0.822173 0.0532439 -1.26394e-21)
(1.00002 -1.27381e-06 -4.61676e-26)
(1.02444 0.00650022 -1.40788e-21)
(0.986982 -0.0916769 4.43464e-22)
(1.01316 -0.0757511 2.10164e-22)
(1.00009 -0.000201426 -7.13667e-26)
(0.964431 -0.0010009 1.92613e-22)
(1.02197 0.00590417 7.95001e-22)
(1.01199 -0.00487574 1.10618e-22)
(1.02929 -0.0017696 3.39159e-22)
(0.999587 -3.61359e-05 1.20141e-23)
(0.99956 -0.00047617 7.60191e-24)
(1.02167 -0.0460677 5.41713e-23)
(0.996834 -0.00123942 -7.16198e-23)
(0.988332 -0.0110576 -1.18332e-22)
(0.999169 -0.00338989 1.0241e-24)
(1.08952 0.03821 8.99138e-22)
(0.998745 -0.0200327 -1.2213e-23)
(0.995433 -0.0045808 1.23451e-24)
(0.938117 -0.0243238 -5.25827e-22)
(0.996451 0.103379 3.86863e-22)
(1.11345 -0.0503349 1.27846e-22)
(1.022 -0.00791856 5.05854e-22)
(0.999633 -0.000174311 2.2834e-24)
(0.999531 -0.000311486 1.03248e-24)
(0.983634 -0.0196763 2.84291e-22)
(1.00092 -0.00119524 -9.90144e-24)
(0.997615 -0.000655759 -4.07093e-24)
(0.999981 -2.04171e-05 -6.18735e-26)
(0.999697 -0.00183689 1.93974e-25)
(1.02136 0.00543583 -3.0958e-22)
(0.983748 0.0900335 -3.41616e-21)
(0.999882 -1.48935e-05 4.94368e-25)
(1.18839 0.180999 -1.84948e-21)
(0.999996 -4.00115e-05 4.94113e-26)
(0.997011 -0.00268408 3.03582e-23)
(0.999992 -9.16399e-05 6.94798e-26)
(1.00485 -0.00356866 -2.52764e-23)
(1.23447 -0.0785976 9.27204e-22)
(0.999963 -4.16154e-05 5.27349e-26)
(0.999963 -4.45678e-05 3.71467e-25)
(0.951147 -0.0398002 -2.58882e-22)
(1 -8.77104e-06 -1.43385e-27)
(1.05205 -0.0151031 6.99866e-22)
(0.987574 -0.0393145 2.37825e-22)
(0.999978 -0.000618254 1.987e-25)
(1.08924 0.0739632 -1.15434e-21)
(1 -2.86499e-05 -3.13087e-26)
(0.999633 -3.74199e-05 1.04985e-23)
(0.999918 -3.4269e-05 1.72585e-26)
(0.995596 -0.00459038 -1.84873e-23)
(0.99969 -0.00146451 -3.23218e-24)
(0.994331 -0.000299568 -2.05541e-23)
(0.993626 -0.110936 -5.0772e-23)
(0.999725 -0.00142615 2.15991e-24)
(1.00388 -0.00331977 -1.96368e-23)
(0.999978 -2.41384e-06 -3.08409e-26)
(1.03991 0.176746 -5.13486e-21)
(1.04663 -0.055708 -1.09038e-22)
(1.11706 -0.0517277 5.63096e-23)
(0.968347 -0.00549079 2.56904e-22)
(0.979446 -0.00395954 -4.70922e-23)
(0.999136 -0.00365797 2.85402e-23)
(1.00269 -0.0025317 2.73876e-23)
(1.05073 0.0733521 5.52079e-22)
(0.983591 -0.0348212 3.46976e-23)
(1.1402 0.12011 5.14492e-22)
(0.960712 -0.0123526 -4.68545e-22)
(0.996906 -0.00259112 -2.86476e-23)
(0.999991 -4.32634e-06 -6.75372e-26)
(0.994808 -0.00264913 -4.02125e-23)
(1.0125 0.167414 1.35752e-21)
(1.08 0.0854652 -2.71738e-22)
(0.982801 -0.0522023 1.98859e-22)
(0.947299 -0.0052637 1.08812e-22)
(1.04582 0.167647 1.36362e-21)
(0.992246 -0.000544603 5.29923e-23)
(0.983531 -0.0836171 3.5043e-23)
(0.999992 -8.76933e-05 1.31389e-25)
(0.986538 -0.0394467 2.96701e-22)
(0.999237 -0.000215265 -1.52314e-23)
(0.834895 0.0906942 -3.65927e-21)
(0.979071 -0.068205 -4.55703e-22)
(0.99992 -3.07503e-05 9.1456e-25)
(0.943986 -0.0169934 -2.81315e-23)
(0.983373 -0.0369277 1.64328e-23)
(1.03601 0.0814114 2.04375e-21)
(0.997648 -0.00071578 -3.83333e-23)
(0.981703 -0.0355412 -1.04289e-22)
(0.997715 -0.0101382 -3.46079e-23)
(0.999672 -0.0220232 -4.11285e-23)
(0.998845 -0.000526744 -1.00024e-23)
(1.03456 0.0796827 -2.47576e-21)
(1.01365 -0.156656 5.15711e-22)
(0.983826 -0.0156745 -8.24536e-23)
(0.987538 -0.0137324 1.75736e-24)
(0.988267 -0.00462425 -2.5701e-23)
(1.00485 -0.00193969 -2.32409e-23)
(1.04789 0.16302 5.279e-21)
(0.98383 -0.0127144 3.71496e-23)
(1.01475 0.0414065 1.31272e-21)
(1.00248 -0.00203044 2.08426e-23)
(1.20995 -0.113051 -1.86192e-23)
(0.928555 0.104071 6.1843e-22)
(0.992094 -0.00042432 -1.84104e-22)
(0.999791 -3.93589e-05 2.05583e-24)
(1.05409 0.0995277 6.03476e-22)
(1.00006 0.134886 -5.03814e-21)
(1.02108 -0.0443876 -6.84625e-23)
(1.0787 -0.0509468 -1.39201e-23)
(0.995572 -0.0125924 -4.34772e-23)
(0.968826 -0.00496716 -1.5258e-22)
(1.11289 0.139917 1.65295e-21)
(0.964045 -0.0463047 7.56012e-23)
(0.999979 -2.04309e-05 2.10509e-25)
(0.993269 -0.00010561 -9.4046e-23)
(1.00003 -5.32897e-06 1.98188e-25)
(0.995943 -0.000253289 7.07393e-23)
(0.999978 -2.14649e-05 -3.30223e-25)
(0.998015 -0.0141469 5.98545e-23)
(0.999128 -3.47739e-05 5.43247e-24)
(0.997497 -0.00529792 3.73591e-24)
(1.17893 -0.132227 -2.28009e-22)
(0.999461 -0.000364387 5.47828e-24)