/*--------------------------------*- C++ -*----------------------------------*\
  =========                 |
  \\      /  F ield         | OpenFOAM: The Open Source CFD Toolbox
   \\    /   O peration     | Website:  https://openfoam.org
    \\  /    A nd           | Version:  7
     \\/     M anipulation  |
\*---------------------------------------------------------------------------*/
FoamFile
{
    version     2.0;
    format      ascii;
    class       surfaceScalarField;
    location    "2";
    object      phi;
}
// * * * * * * * * * * * * * * * * * * * * * * * * * * * * * * * * * * * * * //

dimensions      [0 3 -1 0 0 0 0];

internalField   nonuniform List<scalar> 
176195
(
203.406
49.2413
-252.647
-473.775
102
371.775
-111.048
-79.2807
190.329
113.725
-279.038
165.313
-435.111
323.748
111.363
138.078
-337.225
199.147
-165.775
281.472
-115.697
-87.8761
191.24
-103.364
-363.403
352.008
11.3953
-465.119
-8.65631
-230.019
354.54
-124.521
494.951
-360.234
-134.717
-170.36
341.327
-170.967
93.464
-94.8602
1.3962
-43.9248
-319.478
-110.669
64.9525
45.7166
-456.099
86.4253
369.674
-411.635
76.9915
334.643
-143.899
287.16
-143.262
-332.004
-103.107
-79.9531
179.019
-99.0659
199.747
-197.666
-2.08083
392.892
-290.375
-102.517
160.952
-314.249
153.297
-259.287
219.869
39.4176
-108.859
209.826
-100.967
52.6042
69.608
-122.212
-206.665
457.537
-250.871
-263.272
-175.887
439.158
-65.4979
96.445
-30.947
427.843
-342.057
-85.7858
-237.17
-67.0924
304.263
-268.605
404.318
-135.713
-101.335
-77.2623
178.597
-106.795
-89.0172
195.812
182.206
95.6975
-277.904
-212.478
69.6328
142.845
-99.6221
-356.477
97.0334
-135.512
38.479
93.4971
208.978
-302.476
153.884
-391.054
-57.5593
-354.076
-130.437
-38.208
168.645
-119.309
301.516
-43.8338
105.395
-61.5613
-2.70485
96.1688
265.751
62.8904
-328.641
541.892
-302.369
-239.523
397.466
-147.229
-250.237
414.104
-534.034
119.931
-390.72
478.2
-87.4798
280.387
-101.902
-178.485
-462.537
321.15
141.387
-504.4
451.004
53.3964
-117.998
-167.209
285.207
-307.987
-154.55
544.441
-359.055
-185.387
-135.474
81.4289
54.0447
71.8237
71.5814
-143.405
130.277
-231.483
101.206
-515.379
327.461
187.918
-186.313
332.112
-145.799
346.15
-129.447
-216.703
-106.722
187.723
-81.0005
295.907
87.1665
-383.074
9.39511
-401.009
391.614
-351.947
196.782
155.165
-212.657
389.335
-176.677
61.2476
-124.683
63.4352
-525.804
249.901
275.903
-115.152
190.437
-75.2853
174.306
-132.072
-42.2345
353.524
-260.027
-138.313
69.562
68.7506
-86.1502
-95.4002
181.55
82.561
-167.324
84.7629
-193.126
51.0122
142.114
202.17
-403.122
200.952
-264.711
-117.143
381.853
-276.338
202.412
73.9257
-75.9277
-200.41
429.793
-432.79
2.99714
48.1565
-86.6087
38.4522
-302.736
551.938
-249.202
-137.684
241.296
-103.613
342.475
152.476
-111.632
179.725
-68.0932
-324.477
472.879
-148.402
107.026
-120.251
13.2251
-86.6858
441.52
-354.834
128.371
-13.0409
-115.33
203.36
-19.8011
-183.559
206.524
-469.796
221.636
50.0333
-271.669
-420.669
315.32
105.349
-574.85
416.812
158.038
262.032
-321.882
59.8505
98.7248
-50.5683
71.9366
-150.272
78.335
-0.304252
107.33
-314.466
-200.913
195.199
-428.592
233.393
327.669
-179.919
-147.75
-484.739
498.582
-13.8436
83.336
-198.488
167.469
-85.6701
-81.7984
-502.179
299.767
202.411
-33.1312
100.974
-67.8432
-145.728
225.892
-80.1644
-311.328
-71.1483
382.476
-110.86
215.466
-104.606
-54.6665
316.698
-159.711
-33.415
136.968
104.667
-241.636
-134.816
47.7674
87.0485
206.658
-345.969
139.31
-307.629
77.6101
-73.0881
197.989
-124.901
363.998
-541.561
177.563
45.0009
129.305
-189.301
116.213
-70.3293
-40.3398
-224.698
114.866
109.832
47.3934
-156.207
108.814
-230.664
532.611
-301.947
-106.176
40.6779
-265.767
79.4537
-123.506
60.8399
62.6661
-181.268
-41.7221
222.991
-498.734
501.301
-2.56637
-98.1276
228.648
-130.52
567.097
-287.715
-279.381
-163.232
164.688
-1.45547
538.911
-196.436
-329.439
480.842
-151.403
-142.31
228.361
-86.0507
-271.111
204.398
66.7128
60.1418
-328.747
149.071
-267.07
182.793
149.319
75.9577
36.9115
-112.869
-189.512
341.019
-151.507
502.969
-504.529
1.56025
369.306
-194.25
-175.056
-259.537
161.409
141.959
-532.679
436.557
-328.005
-108.552
-116.49
-149.277
-441.456
228.799
-227.071
-166.995
394.066
112.177
55.2914
53.482
-97.3158
7.18206
196.178
-567.957
273.279
294.678
133.38
147.007
-356.594
425.519
-68.925
-412.196
100.868
-69.8498
209.535
-139.685
135.034
-135.171
0.137864
-153.962
106.295
47.6668
153.045
-70.4842
139.51
297.047
158.42
187.73
-187.179
149.85
37.3297
264.782
-146.287
-118.495
139.906
173.565
-313.47
436.832
-251.791
-185.041
-56.3295
-109.796
166.125
-181.323
111.473
-242.921
126.796
116.125
-242.594
158.312
84.282
-99
364.751
-79.9688
-35.0047
114.973
26.7429
64.9935
-91.7365
-66.9397
-87.0503
153.99
214.042
-427.764
213.722
-76.532
103.275
194.386
85.3518
-279.737
117.708
-333.17
215.462
277.975
119.491
-284.638
-132.73
417.368
-188.581
102.431
120.067
-248.125
128.058
-198.746
403.934
-205.188
-253.755
-248.423
-162.388
384.897
-222.509
95.0758
-262.308
167.232
311.863
188.137
-129.038
318.269
-189.231
112.472
15.8982
-105.72
300.105
-338.779
190.536
148.243
448.14
-145.668
-302.472
-205.813
116.575
89.2387
-216.396
107.537
77.3089
-131.553
54.2444
21.1811
-97.7132
-173.832
164.664
9.16823
58.3067
-149.602
91.2951
78.0831
140.999
-219.082
-558.698
379.126
179.572
-215.301
362.646
-147.345
357.551
58.7282
-416.279
481.28
-479.319
-1.96162
-339.244
169.091
170.154
137.999
-93.4149
-44.5843
370.052
-271.574
-98.4779
-87.2861
383.193
-207.734
-194.916
402.649
103.307
-208.391
105.084
-72.8002
93.9813
23.0093
276.758
7.48215
-266.769
-384.2
297.514
-159.397
-68.0835
227.481
-88.0439
-117.77
-100.709
243.384
-142.676
-185.097
-134.169
319.266
83.2061
-85.9109
-123.561
-261.495
385.056
135.521
4.84902
-140.37
138.096
-2.35344
-135.743
137.113
-330.12
193.007
-76.8434
141.347
-64.5036
-73.5443
-430.856
-202.339
42.1118
160.228
-196.107
-84.2254
280.333
187.344
-68.6048
-118.739
139.142
-61.8334
-354.467
88.0976
266.37
-1.36967
-407.24
408.609
66.4553
-119.443
52.9878
33.2135
-105.84
72.6264
87.5744
-178.121
90.5464
-231.104
125.083
106.021
-224.734
-333.964
-641.717
285.42
356.297
391.983
-206.004
-185.98
-50.9445
159.36
-108.416
240.245
-166.679
-73.5663
-49.4611
138.428
-88.967
-291.669
160.539
131.131
-112.466
-41.4956
140.669
-68.7321
278.523
-217.492
-61.031
-235.217
407.576
-172.359
434.719
-214.721
-219.998
137.104
-88.1076
-48.9966
-162.195
105.865
-63.6746
-36.4138
100.088
209.371
275.894
-485.264
-370.801
241.327
129.474
222.604
-521.71
299.106
387.416
-237.335
-150.081
124.739
-99.0078
-25.7317
-3.88441
-280.754
-61.386
160.754
-99.3683
-555.695
296.332
259.363
503.615
-503.615
-183.592
95.7156
368.7
-372.584
-4.15804
87.3641
-465.968
267.222
-112.965
118.647
-5.68143
37.5219
-183.249
258.619
-144.894
-91.6845
139.078
179.781
-280.235
100.454
90.9439
93.6795
-184.623
-99.7869
192.882
-93.0952
415.222
-131.522
-283.701
-320.416
191.377
427.714
-149.739
-216.959
-74.7101
141.24
178.201
-319.441
-190.674
104.22
86.4545
41.6966
-100.636
58.9393
-169.645
102.705
-249.525
297.931
-48.4059
81.0855
-114.217
-125.169
-62.0104
97.2546
184.805
-404.833
220.028
69.4811
68.5181
456.528
-254.432
-202.095
173.69
203.46
-377.149
42.2771
-244.616
488.9
-498.603
9.70265
119.905
-67.2659
-52.639
83.8251
-138.387
54.5617
110.134
-68.4379
-500.321
66.1229
434.199
-152.274
30.7534
121.521
351.818
-328.809
-258.701
409.623
-150.922
-475.776
301.649
174.127
364.564
-244.509
-120.054
-133.972
-207.714
341.686
-162.409
345.224
-182.815
-214.829
115.042
-73.0332
-23.0988
96.1321
106.004
-193.032
87.0279
-62.7859
120.515
-57.7289
310.007
-193.045
-116.962
82.6162
43.3287
-125.945
-124.43
266.341
-141.912
-250.28
159.567
90.713
114.347
72.9971
101.097
-118.225
17.1276
-169.179
286.888
-91.8437
-188.045
279.889
99.248
26.4426
-125.691
-94.566
141.422
-46.8558
-151.883
100.939
-330.597
160.237
-181.826
346.141
-164.314
354.608
93.532
177.186
-412.403
273.593
-112.641
-162.057
106.074
55.9831
-11.2379
-166.63
177.868
262.819
-386.38
-59.6686
417.22
-32.1803
-102.636
174.216
65.119
-239.335
-145.275
60.9932
84.2817
-366.192
9.59779
189.693
-399.94
210.247
30.0892
-103.122
-133.584
-18.6903
194.665
-286.509
-432.878
-67.4438
141.512
229.649
-371.161
219.09
145.474
152.206
-67.1616
-85.0448
173.229
101.446
-274.675
-241.2
153.248
87.9515
80.3485
-357.625
277.276
353.064
-214.986
243.685
-148.609
85.8925
107.499
-193.392
-124.997
256.402
-131.405
109.759
-57.1549
93.2313
-183.696
90.4651
266.927
-88.5626
-178.365
-169.51
-213.311
382.821
-174.381
-75.1445
-92.864
-12.8244
105.688
82.0172
48.2422
-130.259
320.72
-174.657
-146.063
-191.336
28.1036
-500.362
346.49
153.872
361.195
7.5046
170.999
-290.858
119.859
183.278
-105.195
184.716
86.2145
-270.931
-42.8027
246.209
-105.321
-299.56
404.881
-171.004
388.69
-217.686
-116.735
258.292
-141.557
-166.217
264.727
-98.5106
147.26
-95.8817
-51.3779
-157.083
-55.3954
-167.422
92.3546
75.0673
254.54
-140.74
-113.8
-438.08
332.759
-162.096
164.879
-2.78303
-187.459
110.643
76.8159
304.309
-167.196
-168.961
473.041
-304.08
191.481
-92.6575
-98.8235
54.9197
71.898
-126.818
74.2483
62.8559
25.6877
229.966
-255.653
90.8131
93.229
-184.042
61.5848
305.967
-367.552
145.842
510.389
-96.2858
226.239
95.5532
-321.792
-133.349
291.743
-158.395
137.709
-71.2536
213.916
-121.652
-92.2641
-78.0389
202.215
-124.176
132.429
-249.163
394.014
-220.324
-371.361
369.371
1.99045
116.515
-83.3018
-58.0795
-41.0948
99.1743
488.149
-164.401
-70.0448
182.886
-112.841
-221.743
414.669
-192.926
255.752
182.738
-438.49
67.7645
-179.396
-450.069
243.403
-20.5373
158.633
-325.107
187.925
137.182
12.1462
88.9508
-316.607
-131.763
448.37
268.24
159.474
-77.2897
-84.0029
161.293
99.7982
0.770969
-100.569
-242.687
354.95
-112.262
102.624
-109.17
6.54619
-139.983
375.518
-235.534
-109.472
124.108
-14.6354
62.0837
111.62
-173.703
142.043
-471.482
-171.768
262.138
-90.3705
-98.4882
240.04
-141.552
-133.946
198.499
-64.5537
254.832
-160.076
-94.7558
-275.021
86.9754
237.789
-407.298
-38.7991
214.14
-175.341
-226.293
88.6096
197.667
100.265
381.4
-113.159
69.7126
-129.853
60.1401
353.319
69.926
-423.245
-197.323
404.431
-207.108
-232.84
-267.159
22.9342
-95.7344
601.446
-379.227
-222.219
-58.8403
130.634
-71.7934
-139.566
45.0002
287.596
-379.914
92.3179
-123.395
185.478
-392.069
368.426
23.6428
324.011
220.43
147.435
157.787
-305.222
-504.139
382.385
121.754
-352.648
426.191
-73.5431
-99.2875
253.253
-153.965
182.263
-67.9155
130.188
179.819
124.765
-296.533
-129.172
267.181
-138.01
382.745
218.701
336.3
-330.441
-5.85886
325.155
-529.509
204.354
341.646
-139.477
-101.375
-397.359
56.9089
-211.325
154.416
80.5762
-157.866
357.502
99.0259
174.431
-86.2042
-88.2271
238.449
169.127
134.605
233.693
-368.298
-111.734
367.486
405.102
-191.06
-396.249
4.20187
392.047
-291.198
-180.968
472.167
421.516
-291.862
-129.653
489.204
-248.884
-240.32
-66.0604
-96.1346
-60.7932
273.507
-212.714
65.8128
74.5021
-140.315
85.2361
-143.646
58.4104
154.015
144.386
-298.401
-185.854
31.447
154.407
15.5165
87.1071
412.021
-173.572
374.998
113.151
-282.816
-126.943
409.758
-39.2812
138.529
-172.147
92.194
-160.372
-219.998
380.369
-25.3512
90.3447
-38.1083
-147.746
166.329
-457.527
196.691
-36.8659
-56.7675
93.6334
219.868
-60.508
-92.5899
-45.7226
-256.266
127.094
-95.4006
269.616
-324.719
499.958
-175.239
261.382
-421.754
391.845
-196.646
106.873
187.721
-294.594
-135.22
78.9543
56.266
-367.32
488.64
-121.32
307.421
-227.073
554.116
-227.32
-326.796
113.919
105.949
358.839
-116.782
-242.057
-271.852
434.539
-162.687
136.258
-232.021
95.7635
-179.532
31.1834
148.349
-137.436
-77.3936
134.109
-385.226
251.116
11.3891
-120.876
109.486
454.516
-198.75
-255.766
300.639
-468.696
168.057
-227.742
188.943
96.0207
95.4603
104.492
-4.53638
-99.9553
254.361
-117.392
250.609
141.374
323.34
-180.459
-142.881
-327.117
217.649
109.468
-490.547
385.376
105.171
185.793
-98.2185
-119.886
181.661
-61.7748
-174.142
-76.1381
338.41
-50.8138
120.798
10.113
-130.911
-117.288
203.181
-122.51
73.0487
-519.671
357.556
162.116
311.908
-140.909
226.923
160.493
160.808
-398.143
-474.62
238.101
236.519
-246.043
157.484
88.5583
113.006
-39.0047
-74.0015
-218.927
-203.169
422.096
102.504
137.087
-239.591
-407.107
282.642
124.466
-272.305
-134.802
-560.976
373.12
187.856
-280.462
106.32
585.745
-299.666
-286.079
-147.221
-178.26
325.482
-133.875
139.235
-5.35926
-166.517
275.322
-108.805
-254.995
155.708
-412.618
327.979
84.6386
92.4572
94.5478
-187.005
-368.55
195.612
172.937
-111.131
-131.464
144.484
-103.908
-40.5764
276.731
104.669
573.964
-316.407
-257.558
253.32
-519.76
266.44
57.8531
-120.346
62.4925
99.0573
5.43436
-61.3013
147.695
-86.3939
272.966
300.998
73.5731
-174.908
-276.893
151.896
101.604
-40.3561
103.029
151.511
347.277
82.5159
110.308
71.9543
44.3679
-188.791
144.423
365.253
-514.223
148.969
-60.8698
326.096
-265.227
-34.6046
119.841
174.508
379.609
-147.84
359.004
-211.164
57.4156
-161.63
104.214
-340.912
-300.805
-68.4015
-33.4124
101.814
7.07265
-140.948
-108.313
119.702
178.72
-85.4889
180.476
-327.698
-141.415
82.1878
59.2276
-351.708
-87.7978
439.505
-338.279
521.842
-183.563
109.475
-370.247
260.772
34.9598
-125.197
90.2373
-98.9312
-255.536
274.297
122.072
-396.369
172.189
-115.28
251.281
-141.031
-110.25
544.654
-173.012
-371.642
-365.674
49.9508
315.723
331.682
90.6553
-422.337
-472.361
491.824
-19.4626
-146.158
-78.54
-90.313
181.257
142.115
181.225
245.561
-526.48
280.919
376.751
-367.356
454.663
-180.366
552.814
-298.723
-254.091
-223.958
246.164
-22.2055
-51.6198
172.418
-69.8453
-264.501
334.346
56.7709
446.844
-62.8478
-89.0355
142.053
-76.2407
305.087
-151.072
134.776
53.7455
-188.521
166.559
-227.352
-71.9294
-86.1555
158.085
552.649
-552.649
5.95715
-115.429
281.773
-169.645
-112.129
-304.399
-171.377
-161.839
95.7786
-365.837
-118.902
-63.9499
118.87
213.541
-302.86
172.25
130.61
0.766315
-392.835
128.359
88.8206
-217.179
88.4461
104.436
109.923
-33.9654
-64.4789
-301.195
52.8497
-227.255
174.405
-2.99828
-393.251
-298.533
150.693
-131.781
-184.546
316.327
100.807
253.442
-354.25
-328.358
500.842
-172.484
-87.2736
-25.6917
-56.2588
89.0576
-32.7988
-101.944
183.22
-81.2759
228.108
168.93
-397.037
310.935
-204.061
406.122
-187.033
-304.34
-199.799
125.233
-269.132
-182.501
75.7062
-412.953
308.123
104.83
84.0409
-435.749
92.133
138.525
-230.658
-222.509
-152.781
375.29
29.1719
-91.9578
104.678
-143.959
-105.853
-221.329
327.182
-301.821
240.952
-96.4089
-56.6185
153.027
-188.947
105.351
83.5961
358.123
-517.101
158.977
317.578
-207.984
-109.593
151.947
282.772
107.602
69.9726
-177.575
387.268
-160.345
146.879
-514.199
237.558
-184.709
152.457
165.121
-64.6903
-348.262
209.925
-369.71
159.785
406.748
-234.254
-172.494
74.6967
-260.606
185.909
-229.126
-10.131
239.257
68.7283
-144.131
75.4029
85.1305
-162.885
77.7549
193.505
212.617
-47.8994
147.698
-334.142
418.183
135.768
234.133
-369.901
-102.974
309.632
76.4193
92.2961
-168.715
41.7758
-314.71
272.934
-140.774
147.847
278.72
-457.834
179.114
-88.5885
223.364
281.973
-455.256
196.555
-117.794
-5.89956
123.694
28.4085
124.069
-152.478
227.108
227.408
-100.023
176.442
340.032
-28.5038
-311.528
-124.011
444.717
-320.705
101.915
290.977
45.4336
228.074
312.789
131.857
-444.645
328.701
-267.52
-61.1816
-32.5521
-129.544
-207.668
65.3575
-81.3309
-30.4031
111.734
12.6376
-93.9685
-308.068
174.719
-78.8991
-164.467
243.366
215.497
99.9135
-315.41
-222.598
-47.6494
270.247
-152.94
90.0923
81.195
-183.139
-83.9479
-318.667
402.615
-71.4403
-145.519
517.397
-238.677
-73.8536
69.5495
57.9413
-127.491
-188.712
75.3256
113.387
76.6257
-94.1229
17.4972
105.752
173.342
-279.094
-189.049
108.518
80.5315
-133.148
317.864
-96.3513
-115.689
212.04
-321.116
-204.688
-242.35
131.401
110.95
-229.281
527.002
-297.721
435.247
-301.138
-72.2754
-95.6002
167.876
-78.4973
108.587
-184.871
323.234
-138.363
-121.248
265.595
-144.347
163.485
-65.3813
-98.1035
-249.668
359.143
127.475
-69.9203
-57.5548
-274.247
280.164
-5.91661
-268.283
102.508
198.482
7.62887
-206.111
-192.058
376.828
-184.77
128.4
-62.8456
-65.5548
225.559
-463.14
237.581
-497.839
173.362
166.475
-30.9536
-141.958
1.18384
-191.704
91.7237
99.98
-149.626
359.551
141.763
-84.3473
80.9642
-415.106
-51.0329
-58.6664
109.699
-105.481
-509.236
357.384
151.853
248.21
80.4919
-305.581
-160.847
466.428
-74.899
298.797
81.0625
-139.903
-56.8465
-133.828
-231.07
-239.89
470.96
-197.401
-243.03
440.431
-271.626
258.987
12.6386
312.228
-250.643
-299.718
-200.643
340.839
-509.8
92.293
100.507
-192.8
-383.421
211.631
171.79
158.239
216.76
-80.2855
144.99
-64.7043
-330.358
526.162
-195.804
-168.389
115.605
52.7839
-136.752
62.7924
73.9595
50.5419
-106.801
-63.8139
395.496
80.049
69.3523
-149.401
495.818
-183.029
-139.014
259.081
-318.884
156.475
-287.076
287.076
-138.24
230.373
-548.795
281.528
267.267
-261.415
-84.5668
345.981
188.416
-144.048
-103.222
110.061
-6.8393
-235.831
69.6141
123.317
-483.551
48.3985
71.5063
-124.716
-319.199
443.914
-232.495
368.263
-240.131
139.422
501.011
-246.195
-254.816
-191.587
-37.5384
147.943
-327.862
-568.338
398.417
169.922
-284.097
-158.342
-204.259
37.9915
166.268
-28.0365
-119.557
147.594
136.674
117.687
-93.2405
122.27
-29.0297
-4.46358
87.075
-82.6114
223.338
-222.377
-0.961146
212.93
-337.851
124.921
46.8073
-166.693
-72.2182
-155.523
106.372
-201.248
94.8765
-393.379
-258.364
319.538
-61.1732
85.7767
42.6236
-1.29278
-146.168
147.461
-149.87
-202.077
155.573
-386.62
231.046
-174.979
102.704
69.8535
48.0978
-117.951
42.0493
-138.458
-143.112
225.229
-82.1166
146.378
110.461
-256.839
-149.824
-284.638
434.462
171.13
-421.724
250.595
105.002
-142.722
37.7199
-540.723
308.918
231.805
464.831
-323.387
-141.444
-501.518
176.799
-109.346
115.303
-75.2687
-96.8784
292.053
-403.787
-344.522
-130.097
-181.32
-121.541
-380.803
155.957
224.846
-208.882
137.442
-46.3666
307.4
-261.033
-94.9455
-242.585
131.454
162.545
97.218
-259.763
258.831
-454.516
195.685
195.378
-92.0713
-316.086
108.101
225.211
-94.9338
-327.585
-112.133
439.718
383.531
-227.958
-331.901
336.524
-4.62217
-69.5275
125.192
-55.6648
-379.96
166.649
-312.602
126.446
186.156
135.087
-135.087
-194.861
-256.121
450.982
471.537
-390.573
67.4849
-263.592
4.02756
336.004
338.563
206.091
-231.355
-48.1044
279.459
116.247
-1.91321
-114.334
-74.2884
141.352
-67.0638
-181.066
106.364
74.7016
-323.01
-244.947
-153.43
81.5008
117.72
-48.1709
-272.591
-302.259
-147.097
85.796
132.068
209.259
76.1081
33.7109
-109.819
-53.1418
131.492
-78.3503
379.68
173.134
-163.311
-117.151
-336.305
-172.931
-155.918
-101.471
257.389
-69.3648
-272.746
342.11
-331.259
166.707
164.552
-91.8429
-104.568
196.411
337.844
-505.029
167.185
209.209
-354.669
145.459
229.08
-407.926
178.846
-83.3366
-52.137
-238.106
165.888
166.562
-395.067
228.504
-130.969
102.932
-378.599
163.298
-204.718
362.957
-64.3998
122.42
-58.0198
94.7028
-133.922
39.219
30.6286
-94.3032
-153.925
366.856
483.5
-465.548
-17.9522
-99.307
134.267
-78.702
138.053
-59.3505
260.924
-455.785
-53.7714
145.723
-91.9521
-149.447
289.353
390.879
-507.239
116.36
222.913
70.1786
-293.091
56.8882
-104.42
47.5318
-33.9261
110.552
59.1317
36.6014
-95.7331
-38.5189
141.503
-102.984
-10.8016
161.416
-150.615
178.302
-71.9303
386.389
-135.78
-59.1344
258.378
-199.243
-303.722
-48.9252
183.037
-99.7625
-83.2743
184.386
-288.819
104.433
-239.952
-147.101
387.054
-72.258
166.961
-271.933
156.182
115.751
226.969
-342.776
115.807
-324.483
202.042
122.441
252.819
-135.946
-116.873
-129.976
57.4392
72.5367
182.395
-390.129
-100.816
-79.4093
180.225
-47.3883
-134.391
181.78
76.2647
-224.732
148.468
-100.169
190.982
187.33
-99.1041
-88.2256
-63.42
-106.633
170.053
-46.4279
151.106
-163.942
-117.533
281.475
-304.843
-8.6536
313.497
59.4633
-111.183
51.7201
170.625
96.3018
119.037
106.174
-112.747
111.484
1.26287
-204.259
-55.6401
446.519
-12.8476
109.881
377.61
12.4263
-390.036
385.968
-325.826
-469.832
170.114
46.6096
58.5781
-105.188
-128.125
-33.9323
82.7875
-260.07
177.283
107.62
-365.984
-177.825
-31.0233
253.936
-66.0617
264.544
252.952
150.982
-399.306
207.248
-146.091
65.8051
383.03
-160.426
218.943
-86.669
-132.274
259.117
-328.482
287.877
-172.379
-115.498
199.952
-183.343
-16.6089
117.086
-57.6227
-215.059
-235.668
450.727
-191.954
39.689
152.265
491.091
-483.998
-7.09241
232.671
-61.7883
-170.883
241.989
243.13
-485.119
252.254
-175.99
-165.75
301.498
-135.748
-160.203
307.638
-135.515
220.92
-85.4054
-189.801
-149.443
57.1245
-131.077
73.9528
96.0315
-192.383
352.041
119.497
-264.358
-148.26
-53.2849
-135.428
118.779
-42.6711
-172.673
275.845
-103.172
-62.2353
134.059
120.012
-45.1402
-74.8717
-139.233
75.813
-581.79
364.672
217.118
68.0498
-123.84
55.7905
-179.247
262.034
-68.5663
134.053
-65.4866
73.6181
46.3937
-142.463
363.821
-221.359
-113.232
-93.8871
207.119
-57.8538
-41.2287
99.0826
338.366
-145.577
-192.789
226.379
-80.5364
-145.842
-379.775
-313.377
-156.455
-58.973
-81.5956
140.569
113.14
-298.582
185.443
122.369
-65.2445
-114.859
5.51292
148.61
-413.321
312.536
-94.887
-162.859
92.814
-164.059
87.4138
76.6457
338.899
-129.69
161.698
-129.778
-31.9201
-84.6007
-79.4587
51.5126
-124.609
73.0969
90.5461
-165.815
115.257
-64.5301
-104.988
169.518
-90.7559
213.524
-122.768
111.7
-27.302
-84.3979
-269.371
-35.4723
125.357
88.5595
-89.2607
10.7634
-99.6304
199.068
-99.4378
-96.7699
102.201
-5.43085
-102.328
-78.3847
-96.4603
174.845
483.288
-385.712
-97.5756
412.861
-120.808
131.571
-103.162
-425.696
463.888
-38.1927
-179.267
305.793
-126.526
-233.192
300.677
99.9507
87.3789
-73.1569
-114.302
-93.0733
272.854
-140.535
280.945
-140.409
28.9369
62.5259
-91.4629
-286.566
156.933
129.633
119.681
-61.8275
-70.561
-61.5106
-214.155
-186.734
400.889
139.044
344.244
-455.427
258.025
240.3
-240.3
-97.4276
93.49
3.93759
185.731
-102.581
-83.1503
246.001
-540.001
294.001
183.461
154.905
-252.769
356.536
-103.767
114.249
-46.1995
-205.42
130.594
74.8261
156.96
330.239
-487.199
254.93
-118.255
-317.376
160.193
157.182
80.0062
-176.722
96.7159
279.315
150.544
-429.859
-210.267
97.0349
77.2574
-150.267
73.0098
140.875
-179.394
-169.512
397.62
-185.034
96.3719
88.6622
176.12
-106.015
-70.1043
-91.1469
360.706
-269.559
333.41
-166.851
-43.7393
107.956
-64.2171
181.51
175.53
-357.04
-206.575
-248.851
-90.7813
349.613
99.0178
-185.409
86.3913
-205.071
399.48
-194.409
150.634
-70.6282
318.868
-219.539
-99.3283
133.178
-63.4654
-220.057
-136.501
72.1008
-620.244
303.838
132.641
493.615
-501.534
7.91918
201.865
188.423
-390.287
115.918
45.7802
-363.16
-127.387
139.462
-150.7
12.6098
-284.236
-30.9878
-103.476
134.464
160.982
-295.687
134.705
100.863
284.513
-135.322
88.18
47.1418
50.1297
-184.521
56.0017
-97.5294
41.5277
263.516
95.3236
263.27
-175.033
-88.2374
133.804
-65.076
-387.505
271.825
115.68
-260.077
-360.167
185.222
47.4485
143.583
-454.224
310.641
-56.9786
-83.4181
140.397
35.2991
-127.458
92.1593
292.698
208.313
-1.92179
379.532
-63.3461
-72.1662
419.891
-140.576
66.5151
-125.422
58.9072
-463.113
259.316
203.797
-201.846
-245.099
446.945
-366.488
566.488
-200
280.998
146.844
-173.795
249.989
-76.1945
-151.901
254.405
352.06
-277.146
-74.9142
-180.474
291.133
-110.659
-186.469
-152.31
-80.9588
-197.052
278.011
67.5425
46.6928
-114.235
176.476
-84.0188
440.406
-378.805
-61.6013
-176.633
101.589
75.0436
80.9656
265.09
-346.056
105.732
-35.8789
347.552
92.8539
-69.8008
147.058
-102.079
-33.2424
-225.965
514.167
-288.202
5.14152
191.629
-196.77
217.628
-385.086
167.458
-82.5943
-41.9891
124.583
289.603
96.7865
-85.7898
-22.8336
108.623
-152.637
141.398
11.2394
-181.007
114.611
66.3959
182.823
384.274
101.476
-42.3442
-267.063
-120.442
228.667
-443.726
413.725
-509.849
96.1242
70.4581
223.338
-31.8287
-191.509
121.616
-70.1032
80.892
-408.478
-77.9349
-89.1241
167.059
103.951
-10.631
-93.3204
-118.732
25.8682
123.13
131.701
154.783
-328.437
173.654
-93.0965
163.652
-70.5555
152.336
-357.407
345.108
-231.968
341.927
-82.8096
-357.028
-198.668
-287.94
464.172
-176.232
429.272
-324.311
-104.961
-8.97711
-337.563
346.54
-335.722
-176.574
512.295
-173.055
-6.47691
91.7675
-35.7658
-501.896
261.186
240.71
-188.992
-82.1188
-86.8492
-43.1266
-36.1057
141.107
-80.5758
152.157
-554.637
382.755
171.883
98.3168
-162.847
-24.5515
91.9827
-67.4312
181.616
-146.393
189.636
-313.921
124.285
322.581
-255.586
-66.9943
87.4131
-397.458
310.045
216.696
-97.6588
114.439
255.614
-94.9516
-93.995
111.041
-54.1524
474.909
-299.119
-175.79
-267.34
364.052
-96.7113
-110.957
192.28
282.629
-417.835
31.8684
385.967
-283.035
-182.933
128.074
-206.628
78.5541
-135.273
-72.1347
207.407
107.577
211.138
-318.715
43.622
-264.462
-237.434
-76.4078
-29.8514
106.259
-205.013
326.318
-121.305
479.609
-173.642
405.391
-58.9006
-285.063
160.633
95.9926
7.95887
-269.458
-36.1186
305.576
56.9699
-373.577
-408.901
137.049
131.027
-17.0645
-113.963
179.103
-264.507
85.4038
-111.024
257.402
-458.716
334.704
-62.982
-81.1491
497.238
-149.686
-240.608
406.777
-166.169
213.234
-331.727
118.493
469.958
-111.835
39.9858
84.7536
-309.486
135.692
340.106
-181.573
-158.534
-175.519
296.364
-120.845
132.35
347.259
163.876
-268.502
104.626
389.857
-107.216
361.61
128.68
-490.289
329.257
-226.23
-103.026
473.361
-502.283
28.9222
126.801
-98.8662
-27.9343
344.448
-243.641
-8.68978
-109.105
-80.2812
-182.802
263.084
50.0371
-119.666
69.6287
-129.179
58.6178
-307.195
474.401
-167.206
-87.5092
-53.9062
-194.631
199.773
112.852
26.7606
-104.479
77.7186
289.142
2.18195
-291.324
-127.671
74.167
53.5039
-100.806
454.124
169.906
117.97
-142.918
303.9
-237.012
158.973
335.051
50.9171
-160.354
-157.022
16.4433
227.242
-247.192
83.8811
-141.536
241.492
-99.9559
49.5433
-113.493
405.259
-203.394
-369.527
376.417
-6.89037
-132.641
494.251
68.6168
-140.721
72.1038
122.304
-68.6417
-142.336
210.978
-152.082
187.909
-71.9907
101.797
6.64315
-108.441
73.2785
-118.233
44.9544
-246.075
147.587
-100.524
-68.7754
169.3
-267.758
-294.24
128.223
166.016
119.893
-84.5935
49.0451
-113.774
64.7292
49.4097
-184.683
133.29
133.051
-92.3978
248.883
-156.486
-124.859
71.9021
52.9566
-70.5393
181.793
-111.253
-375.379
212.991
-178.826
360.336
153.011
-271.925
118.914
230.908
176.489
-407.397
-57.2765
-32.3074
89.584
331.471
97.8014
321.685
-146.971
-174.714
-157.603
406.198
-248.595
164.759
-70.9642
325.727
-254.763
327.68
121.679
-449.36
474.56
315.669
150.121
-465.79
249.318
-455.893
193.155
-31.358
-161.797
-338.26
185.606
152.654
-114.894
6.41326
108.481
93.8574
17.9426
-111.8
-73.7946
-61.4258
13.6691
-383.196
-356.404
213.941
61.1308
193.229
-254.359
-377.995
307.031
222.767
122.982
-345.75
-62.2397
109.637
-47.3973
-103.518
-141.13
244.648
568.75
-256.887
63.408
136.339
-133.03
-278.163
411.193
-121.821
171.951
-223.242
382.559
-159.317
-351.231
39.9573
311.274
-177.909
-279.175
457.084
-51.2456
-85.5063
-564.244
366.718
197.526
301.161
-183.008
-118.154
-123.72
346.487
-169.188
68.664
111.872
-189.806
129.938
89.005
-163.41
-490.522
250.998
239.525
-163.335
78.7347
-266.892
97.2475
-292.386
-289.404
-58.1445
-243.677
95.4131
-332.077
236.664
-203.706
-176.186
68.3828
107.803
-242.351
-73.7353
-113.217
-41.2781
154.495
-52.4219
-45.3666
97.7885
-310.003
218.856
0.028571
-78.4632
78.4346
158.373
-190.201
153.341
-365.391
212.049
7.34329
-276.801
-191.931
316.674
-124.743
-229.156
241.765
106.986
-133.187
-89.6385
222.826
396.867
-405.844
100.203
-71.2656
285.389
189.535
-474.924
-85.9212
-77.4142
-78.2891
272.954
364.969
-366.89
97.3552
-3.49779
409.375
-124.921
-284.455
107.167
156.194
-263.361
145.161
-29.1455
-131.16
160.306
260.093
-122.825
-137.268
347.869
41.9889
124.285
-74.2475
-501.723
173.365
68.191
-136.757
-133.647
71.3566
62.29
-48.9427
149.328
-100.386
-140.459
-78.6993
219.158
35.4691
-100.677
65.2075
-126.409
43.8143
174.657
-188.349
13.6918
226.137
-280.7
54.5626
-219.332
78.8727
-88.602
-78.7219
-62.1594
-59.4231
121.582
142.563
182.138
194.689
-225.623
179.256
163.809
-114.032
-49.7777
-370.79
262.526
108.264
225.688
-87.1632
336.237
161.001
335.205
102.772
-437.977
-132.814
-126.723
-537.841
251.044
286.797
214.546
-294.106
79.5603
143.673
119.597
-98.2092
54.4699
-33.1902
96.7531
-63.5629
-266.999
-216.651
483.65
-418.452
440.269
-21.817
-267.236
107.839
-130.097
-453.219
-21.8172
475.036
209.044
240.513
-449.558
-123.798
-188.804
-148.191
-138.375
118.243
-16.4455
-337.13
135.284
-26.3389
162.596
-116.517
-271.968
167.823
104.146
84.2191
68.8261
-129.934
-145.417
275.351
117.423
-90.6627
416.362
-294.559
-121.803
-127.993
341.226
-217.058
-31.067
457.158
24.1225
-114.708
-76.4139
191.122
454.646
-0.199977
-454.446
-87.6742
314.643
-226.969
118.333
82.1592
-200.492
-373.172
219.484
153.688
-131.456
-111.663
-160.305
143.481
-74.8643
-107.254
289.991
-182.736
141.067
138.174
-279.241
-151.226
-54.1935
-246.525
-175.172
421.697
115.707
476.436
-332.705
-143.732
-154.319
150.594
-94.1483
-56.4456
37.7349
-94.5023
205.617
-271.679
294.464
-352.608
-402
342.331
193.793
-317.591
231.193
180.828
432.87
-203.79
-217.744
158.609
96.2685
82.4518
-96.2881
99.4635
-148.406
-271.339
289.054
-17.7148
-276.755
-21.7773
76.6375
-142.938
66.301
115.136
286.545
-158.321
246.142
-133.344
-112.798
-67.4752
117.018
-269.31
120.991
-189.633
311.406
-62.4492
-248.957
-256.694
465.738
484.759
-148.522
-370.174
267.305
102.869
-22.2801
476.926
-215.99
405.683
-86.0392
-203.358
289.397
104.642
-263.538
158.895
13.2401
288.409
-334.611
-247.387
581.997
146.969
-347.92
200.951
-292.804
392.845
-100.04
-128.417
444.086
352.603
-126.364
177.491
-89.5662
369.597
-280.03
-76.5166
-51.1543
-225.214
148.479
76.7357
177.865
148.453
54.9266
-59.6635
-279.87
339.534
-386.131
-78.9872
-129.273
-198.732
-337.782
230.527
-412.914
412.914
144.893
-333.102
188.21
181.836
-339.712
157.876
232.067
79.3389
53.8511
41.7424
-95.5935
218.637
-371.418
287.706
-465.615
242.687
-40.4724
146.54
157.769
72.7787
198.04
-270.819
125.374
-93.1888
-32.1849
-71.8558
-293.488
365.344
103.147
-178.576
75.4297
-49.513
162.54
-113.027
331.952
4.34759
-79.8325
80.6035
-276.412
321.692
-45.2797
46.6073
146.548
95.9658
17.0663
-113.032
-312.557
-38.6746