/*--------------------------------*- C++ -*----------------------------------*\
  =========                 |
  \\      /  F ield         | OpenFOAM: The Open Source CFD Toolbox
   \\    /   O peration     | Website:  https://openfoam.org
    \\  /    A nd           | Version:  7
     \\/     M anipulation  |
\*---------------------------------------------------------------------------*/
FoamFile
{
    version     2.0;
    format      ascii;
    class       volScalarField;
    location    "33";
    object      p;
}
// * * * * * * * * * * * * * * * * * * * * * * * * * * * * * * * * * * * * * //

dimensions      [0 2 -2 0 0 0 0];

internalField   nonuniform List<scalar> 
7639
(
0.183905
-0.00585425
0.391461
0.232702
-0.00111366
-4.85842e-05
0.400425
-0.00662457
-0.00015754
0.0961876
-4.54572e-05
0.00302083
-0.00987508
0.0469582
0.100462
-0.0132043
0.198282
-0.0127842
0.00118126
-0.0588144
0.0616171
0.00198391
0.0346692
0.192911
-0.0165475
0.199258
-0.00103101
0.0584742
0.160364
0.00289771
-0.0175656
0.644064
0.0339323
-0.000623039
-0.000135695
0.0781359
0.00334253
0.385853
-0.00565998
-0.000436683
-0.00520074
-0.0126289
-0.0619093
-0.0722679
-0.000260697
-0.000105992
0.00193878
-0.00589393
-8.77035e-05
-0.0585954
0.00455968
0.0554423
-0.0207334
-0.0047298
0.0773421
-0.00592554
0.00127396
-0.00659782
-0.0267671
-0.000646839
5.06873e-05
0.00584869
0.0473434
0.00333705
-0.00123981
-0.0172754
-0.000125646
5.00119e-06
-0.0115511
-0.00555355
-9.7347e-05
-0.0469249
-0.0160349
-0.026522
-0.0124052
-0.037416
0.384472
0.0605911
0.0342609
-0.0500486
-0.00948208
0.356185
0.0884906
-0.0278884
-0.00184758
-0.00290743
-0.0070821
-0.0201481
-0.00084498
-0.00561383
0.163576
-0.0985535
-0.000172621
0.0014067
-0.00447309
-0.0275427
-0.0445473
-0.0020931
-0.00203126
-0.00147515
-0.0446124
0.040769
-0.00424176
-2.60451e-05
-0.0992636
0.16404
0.553276
-0.00630191
-6.87708e-07
0.0302146
0.217101
-0.0426943
-1.99741e-06
0.0319952
0.165269
0.00057782
-0.060146
0.130325
-0.0341868
-0.0272768
-0.0461985
0.339097
-0.0595827
0.0127281
-0.0450792
-0.00124083
-0.0159675
0.00237085
-0.00131167
-0.017842
-0.142576
0.0373291
-0.000780171
-0.000994753
-0.0288169
0.210494
0.434311
-2.23788e-05
0.0102638
-0.0569826
-0.0251593
-0.0412935
-0.0378575
-0.0255724
0.559131
-0.0188136
0.160717
-0.0263278
-0.0344279
0.338176
0.0746838
-0.0836837
-0.00194719
-0.0349112
0.0882392
0.350798
-0.0428955
-0.00982698
0.514917
-7.95491e-05
0.000604227
0.200044
-2.46002e-05
-0.00267583
-0.00502809
0.254675
0.255143
0.537498
-0.00301135
-0.00393511
5.81854e-06
-0.0476297
0.000570825
0.000145504
0.0111667
-0.0340629
-0.0796798
0.08045
-0.000171778
-0.000655992
0.235721
-7.93645e-05
-0.000145974
0.401087
-0.011202
-0.0346014
-0.0323066
-0.0253095
-0.0214308
-0.0557648
-2.67942e-05
-0.0432105
0.0807002
-0.00428467
9.39446e-05
0.146606
-0.00159923
-0.0168117
-0.0201867
6.99281e-06
0.00116509
0.218646
0.114016
0.35567
-0.0551101
-0.0393411
-0.098202
0.0638507
0.218274
-0.000279486
4.49246e-05
0.521198
-0.0112248
-0.000808716
-0.0414262
-0.0167089
0.313429
0.323476
-0.0452554
0.609423
-0.00148357
-0.0124869
-0.04566
0.0755744
-0.0750985
0.134979
0.516603
8.19955e-05
0.0133852
0.139891
-0.00534756
0.126718
-0.000716713
0.576226
0.343798
-0.00702195
0.00352828
-0.00040523
0.0288731
-0.000124252
-0.00828793
-0.0544638
-9.6973e-05
-0.00175601
-0.000567847
0.12475
-2.47126e-05
-0.00582278
-0.0489738
0.64371
0.0312806
0.562129
-5.98654e-05
-0.0221999
-0.000247897
0.370189
0.00559515
0.434924
0.00161841
0.000978132
0.00207814
0.0667035
0.000787714
-0.000303946
0.000696888
-0.00564111
-0.035905
-5.59419e-05
-0.0415413
-0.00479419
-0.000189965
-0.000835589
0.413209
-0.00985387
-0.00102063
0.614191
-0.00192616
0.205382
-0.000276097
-0.000585789
9.92881e-06
-0.0307062
0.07271
-0.0775309
-0.027085
-0.000551017
-0.0522543
-0.0189223
-0.000240442
0.000675099
-0.00290276
-0.00953374
0.00410051
-0.00165693
-0.0267051
-0.0319488
-0.0263199
-0.0636005
-0.032754
0.328664
0.346178
-0.00198164
-0.121388
-9.70806e-06
-0.00317854
-0.027543
0.187298
0.099569
0.00013006
-0.00294117
-0.0318782
0.144053
-0.0013336
0.00498885
0.0016796
-0.0100173
-0.12835
0.294415
-0.00211896
-0.0098213
-0.000154181
0.00558819
-7.10011e-05
-0.0216093
-0.000464529
0.00447674
-0.16656
-0.0335929
0.00123124
0.0121303
-0.000987425
0.0252445
-0.0101814
0.0550984
0.131365
-0.122994
-0.0694707
-0.0193332
0.00708672
-0.0531924
0.547932
-0.0634373
0.0399512
0.597588
-0.00204594
-0.00232457
-0.0826038
-0.00146862
-0.0160657
0.00880043
-0.00371717
-0.0027744
0.1467
-9.29423e-05
0.000753256
0.000104528
-0.00449576
-0.00925263
-1.17426e-05
-0.00146685
-0.0257431
0.51181
0.00196631
-0.0109883
0.479
0.295376
0.0491474
-0.113605
-0.0479572
0.00685093
0.244285
-0.0138209
0.25788
-0.0248601
-0.0698862
0.123655
0.256759
-0.039009
0.0927016
0.122606
0.222547
0.0618216
-0.00402991
-0.0055526
-0.000119315
0.00177025
-0.0140821
0.00130144
-0.000145386
-0.00215698
-0.0514481
0.0316985
-0.0203767
-0.00392348
-0.00499085
-0.00960693
-0.00907849
0.00228014
0.0880882
-0.00251185
-3.00223e-05
-7.60966e-05
6.50934e-05
-0.0244098
0.142345
-0.00528386
0.0372466
-0.0824135
0.377542
0.00440779
0.0093841
-0.00669599
0.397165
-0.00142117
0.286657
0.164627
-0.000158661
-0.0266004
-0.00434026
-0.03991
0.00077546
0.0579723
0.00378796
0.00869162
-0.00114936
0.10908
0.149486
-0.0404888
-0.0259919
-0.00308298
-0.0219284
-0.0229276
0.632349
-0.0564212
0.00613124
-1.12215e-06
-0.0161713
-0.00303004
0.0231708
-0.0681038
-0.119603
0.410803
0.130323
-0.0913476
0.153378
0.387718
0.0381361
0.00160943
0.247943
-0.00122439
-0.000250341
-0.0206468
0.000118521
-0.105471
-0.0011869
-0.02785
0.00260016
0.15662
-0.00238071
-3.27939e-05
-0.0729748
0.00235803
-0.00113355
-0.0431729
-0.0560586
-0.128815
0.141906
0.116304
0.119897
-0.000280241
0.0208894
0.060947
-0.000716346
-0.0196557
0.000834124
0.00626356
-0.00491834
0.00654591
-0.00105577
0.0372438
-2.67683e-05
0.00027204
0.00270902
-0.0252852
0.0272208
-0.0262646
-0.0290851
-0.0325927
-0.0833969
0.0054544
0.237125
-0.140742
-0.00847656
0.583756
-0.0438993
-0.00967144
-0.0292732
-0.00832013
-0.0238613
-0.0125739
0.0358696
-0.0708811
-3.53446e-05
0.03151
-0.000131177
0.338241
-0.0128182
-0.00630476
-0.01676
-0.000257432
0.358474
0.290368
0.00410453
0.0124481
-0.0469757
0.448954
-8.61947e-05
0.0159602
-0.0210255
0.0912985
0.542416
-0.0341191
0.12846
-0.00282667
-0.00027731
0.00290457
-0.132845
0.376241
0.0029146
0.205071
-0.00894412
0.387048
0.273583
-0.0112073
-0.00956525
-0.00591972
-0.0568128
-0.000116117
-0.015511
-0.055075
-0.0497486
0.0153137
0.0124774
-0.000173039
0.290632
-0.00168326
-0.000140966
-0.0287335
-0.000666472
-0.000304446
0.00411171
0.182336
-0.0654323
0.502433
8.41039e-05
0.176247
-0.0229243
-0.000103699
2.41639e-05
0.157555
0.180919
-0.00520159
0.167231
3.42278e-05
0.176339
-0.122148
-0.0117219
0.409155
-0.0397095
0.00743872
-0.0280834
0.171278
0.174084
-0.0190728
-0.0238968
-0.00771962
-0.00367735
-0.000271638
-0.00180031
0.240545
-3.6958e-05
0.172668
-0.0650806
0.31828
0.164136
-0.0560664
0.485398
-0.00208629
0.00400962
-0.0450443
-0.0228386
-0.00808028
-0.0254365
0.0264157
0.576656
5.69953e-05
-0.00245403
-0.0406789
8.0512e-06
0.344686
0.00239435
7.60657e-06
0.000258576
0.000515883
-0.0205
0.0221704
-0.00198147
-0.000115027
-0.00855827
0.00269789
-0.0726224
-0.0517498
0.0278379
-2.96561e-05
-0.103833
-0.0151725
0.0100713
0.316262
0.00145464
0.0376378
0.00020514
-0.0145497
0.0867507
-0.00811441
0.19205
-0.0149436
0.0185227
0.0899708
0.125078
0.00515143
-0.0119963
0.126842
-0.0580681
0.375782
-0.0108595
0.21117
-0.0107812
-0.00148229
0.122677
-0.00111967
0.081303
0.0024715
6.60359e-06
-0.0773923
0.0843858
0.00184996
0.0187633
-0.0142207
-0.101531
-0.00421699
-0.0271512
-0.00213713
-0.0102568
-0.0503414
-0.029895
-0.0113472
-0.00019508
0.400865
0.0423068
0.0367613
-0.000260642
0.274746
5.09005e-06
-0.000240346
0.0587041
9.59374e-05
0.063445
0.0572588
0.0212966
-0.049468
-0.0862481
-0.114632
0.00171065
-0.0421722
-2.50946e-05
0.00450464
0.185159
-0.0182407
-0.00352011
-0.0127005
-0.00248257
-0.000529526
0.601808
-0.0114488
-0.000709403
-7.72587e-06
0.129619
-0.0317505
-0.000427188
-0.00348015
0.150253
0.0653413
-0.0383912
1.66645e-06
0.169017
-0.0182588
0.149746
0.0215416
0.0264713
-0.0314787
-0.000124658
0.0877872
0.0559869
-0.0874066
-0.0613403
0.244381
0.00795189
0.117413
-0.00366507
-0.0270991
-0.000508055
-0.00275327
-0.000139132
0.141275
0.172939
-0.00188924
0.0236268
-0.0192487
-0.0517965
-0.05655
-0.00234486
0.0145403
0.568637
-0.0835743
-7.247e-05
0.0667312
-0.00486947
0.480241
-0.0140871
-0.0145436
-0.00636064
-0.0167375
-0.00906089
-0.00908681
-0.00463562
0.00188563
0.019784
0.000138587
-0.137149
-0.071333
0.319086
-0.0370415
0.0748466
0.00264759
-0.0457762
-0.0165753
0.196503
-0.00859106
0.000139538
-0.0179402
-0.00671606
0.0176219
-0.0286917
-0.024879
-0.0493768
-0.0163122
-0.00985808
-0.0534436
7.23493e-06
0.0316327
-0.0467662
0.05369
-0.0564985
0.0812879
-0.0613263
0.268326
0.000842366
-0.0324652
-0.019558
0.510821
-0.112032
-0.0147301
-0.0783446
-0.0341683
-0.0742826
-0.0470661
0.122209
-0.00350541
0.238348
0.0114626
-0.000508525
-0.00158386
0.0595622
0.651487
0.00128049
-0.0237974
0.157656
2.89363e-05
-0.0229344
0.0340254
-0.0140428
0.0116253
-0.00210102
-0.0309954
-0.00398406
3.6962e-05
-0.0379074
0.214273
-0.000198055
-0.0185042
0.00244288
0.156847
-0.00049469
-0.00158498
-0.000463305
-0.00101758
-0.0647352
-0.0019618
0.00278402
-0.0198656
5.72207e-05
-0.084902
-0.134293
-0.0927055
-0.0184922
0.0187311
-0.000275487
-0.0146963
-0.0480492
-0.0656823
0.321353
-0.00163853
-0.050889
-0.00591865
0.00380252
0.0917654
0.000570462
-0.000204401
-0.00304125
-0.0644212
0.0179383
-0.00373859
-0.00262069
-0.0447435
-0.00022804
-0.00361499
-0.0150449
0.275728
0.207391
-0.0411794
-0.0457386
0.00937785
0.00316249
-0.0542153
-0.0521989
-0.0163303
-7.55336e-07
-0.0461231
-0.0271192
-0.056283
0.00232176
-0.0409505
-0.000515231
-0.00377666
0.168192
-0.0303162
-5.29106e-06
-0.00354684
-0.102031
-0.000215384
-0.0204161
-6.59896e-05
0.00453505
-0.0712291
-0.0389538
-2.92703e-05
3.89668e-05
0.11162
-0.0393378
0.362593
0.203023
-0.0383314
-0.000772033
-0.0151773
0.000281255
-0.132558
-0.0697075
-0.105863
-0.0180492
0.177777
0.00832943
0.000350979
0.00517097
-0.0930526
0.00251152
-0.0251355
-0.0466728
0.000150442
0.0201779
0.0613585
0.00739413
-0.0246594
-0.0631978
0.16605
-0.0302135
-3.52092e-07
-0.0790533
-0.0490928
-0.0361472
0.00425417
0.000968727
0.00610002
-0.0707274
0.0289406
-0.0282438
0.0609362
-0.0426194
0.00642091
0.0175412
0.00868865
-0.0288205
-0.119519
-0.000133855
0.128385
0.183947
0.00742805
0.0966537
-0.0570137
0.0404629
-0.0395688
0.175397
0.0859812
0.561028
5.55748e-06
0.0755138
0.146089
0.0140094
-0.00144846
-0.01562
-0.0590203
5.40468e-05
-0.0156576
-0.0409531
-0.0170457
-0.0188104
0.000166946
-0.114592
-0.000372169
-0.00085853
0.215032
0.00573905
-0.063186
0.0181158
0.183623
0.00916667
-0.00039567
-0.0970712
0.00707465
0.33978
0.00124367
-0.0424713
-0.000223101
-0.000546605
0.00560726
-0.0498737
-3.17847e-05
-0.0095451
0.0248931
-0.00190318
3.87766e-05
-4.7792e-05
0.132261
-0.0510066
0.0062048
-0.00108385
0.00785249
0.0146988
0.00763875
-0.000289964
0.293826
-0.088262
0.194271
0.242722
-0.000209212
-0.0666979
0.074278
-0.000758589
-0.000263146
-0.00042778
-0.0318465
0.00999592
-0.0124944
-0.0191092
-0.0500101
0.145525
-0.0795067
1.21947e-05
-0.0165989
-0.0161866
-0.0292268
-0.00409364
0.0055164
0.00119977
0.0253205
-0.000506336
-0.00023288
-0.0150047
-0.00403155
-0.0210554
-1.54754e-05
-0.0128057
0.0299552
-0.0346722
-0.0347115
-0.00761406
-0.0102178
-0.0080314
-0.00485272
0.00448725
-0.00829124
-0.000103797
-0.000396455
0.0204295
-0.0106123
-0.00460178
0.00774331
0.00192945
-0.0880449
-0.0096763
0.13544
-0.0109121
-0.0422982
-0.0214171
-0.0192733
-0.0133997
-0.00351761
0.00210611
-0.00330196
-0.012084
-0.0138203
0.152567
0.108908
0.0360693
0.314632
-7.09927e-05
-0.00315138
-0.0140747
-0.00715953
0.0362554
-0.0172387
0.0297406
-0.004079
0.157259
-0.00183259
-0.00153975
0.00731657
-0.0177004
-0.000213941
-0.0196266
-0.00545007
-0.0177015
-2.00696e-05
-0.00613128
0.00187771
-0.0150328
0.0243964
0.0323797
0.0176091
-0.0120758
-0.0262314
0.0998096
-0.00121363
-0.00184774
-0.00198875
0.473884
-8.69384e-05
0.0521669
-0.0180009
-0.017395
-0.0221163
-0.0344556
-0.0239603
-0.0283388
-0.0157167
-0.00427442
-9.53443e-05
-0.00397763
-0.0184441
0.0844465
0.00159682
0.0585962
-0.0272859
-0.0114762
-0.000868769
-0.0241727
-0.000100301
0.127481
-0.0251848
-0.0219985
-0.0201518
-0.00376868
-0.0277699
-0.00157847
-0.0331262
0.0874989
-0.0216991
-0.0567385
-0.00137613
-0.0226058
-0.0157793
0.0142862
-0.00302308
0.122721
-0.00224711
-0.0163054
-0.000642884
0.138677
-0.0319013
-0.0221649
-0.00303108
-0.00857877
-0.00258192
0.131642
-0.00752521
0.0977836
-0.00456066
-0.000775406
-0.00118675
-0.00218525
0.0745812
-0.0477621
-0.00626406
0.000322396
-0.00748416
-0.0131563
-0.000858087
-0.0144212
-0.0134757
0.0504544
-0.00458154
0.00306226
0.46842
-0.0485611
-0.0239502
-0.0456722
3.30138e-05
0.0659291
-0.00329812
-0.0224748
-0.00518252
-0.0294044
0.00377021
-0.00050936
-0.00271088
0.00308012
0.175401
-0.00538428
-0.00167959
-0.0042972
-0.0433354
-0.00756696
-0.0186643
0.00399474
-0.00791864
-0.00817129
-0.00305299
0.176031
-0.0371935
0.00301954
-0.00393155
-0.0230378
-0.0124661
-0.0396636
-0.00132464
0.078058
0.020745
-0.00716135
-0.00162737
-0.0120857
0.486506
0.176727
-0.0101294
-0.000547497
-0.00223398
-6.86743e-05
-0.00369749
0.0190514
-0.000395495
-0.0159272
-0.00184689
-0.0147415
-0.151732
-0.00100753
-0.0107094
-0.00127259
0.287474
-0.00593403
-0.0104715
-0.04937
-0.00181341
-0.0250129
-0.057484
0.422159
-0.00964507
-0.0102169
-0.00198348
-0.000443183
1.27003e-06
-3.82324e-06
-0.00912604
-0.000634041
0.0466927
-0.000636089
-0.00170166
0.0075805
-0.000245512
-0.0359723
-0.0487922
0.015966
0.0356526
0.0240133
-0.0544237
-0.0399854
0.0770923
0.0610876
0.0827568
0.105711
-0.0115012
-0.000804875
-0.00546063
-0.0537132
-0.00327587
-0.0132563
-0.0548907
0.273546
-0.042747
-0.000457685
-2.91064e-05
-0.00137666
-5.1067e-07
0.00711325
-0.000532409
-0.00438106
-0.0383756
0.00051254
0.00241886
-0.000209097
0.0421425
-0.0135325
-0.0478534
-0.0011487
0.296368
0.20034
-0.00906464
-0.0645565
-0.0234457
-0.0203856
-0.0127211
-0.00175812
-0.0614224
-0.0304039
-0.0349016
-0.116528
-4.90276e-05
0.146904
-0.0169608
-0.00865492
-0.0282724
0.0171212
-0.00050471
-0.00758275
-0.00127609
0.0101277
-0.00145653
0.10308
0.000331053
0.00937159
-0.000393765
-0.108304
0.0081967
-0.000729141
0.00187483
0.000386528
-0.0460555
0.0870248
0.000446574
-0.00135131
-0.000119892
-0.000545838
-0.000478911
-0.0475995
0.107605
-0.0428089
-0.000256195
0.00777545
-0.000435223
0.201836
-0.0470188
0.200582
-0.0348391
-0.000427089
-0.00027301
-0.00664875
-0.00517613
-0.000599003
-1.74295e-05
0.0222048
0.0257718
-0.000225508
-0.000318402
-0.0170003
-2.09755e-05
0.145922
-0.000872631
-0.0416329
-0.0164507
-0.00578894
-0.0435917
-0.0479431
0.13146
-0.021478
-0.0173786
-0.000300335
-0.0443113
-0.0177667
-0.0352925
0.00890044
0.317711
-0.00109878
-0.0462981
0.00942527
0.259961
0.0344028
-0.000114009
-0.00551441
-0.00374955
-0.00454692
-0.0378319
0.0674715
0.00016861
0.011552
0.00271981
0.048225
-0.000493451
-0.00011742
-0.0933829
0.230071
-0.042957
0.103184
-0.00120054
-0.000192861
-2.25829e-06
-0.0742877
-0.033452
-0.000323699
0.0675097
0.0104155
-0.00490149
0.387076
-0.000374324
-0.00341822
-0.0462619
-0.026391
-0.00212058
0.11687
-0.0532931
-0.000157994
0.00835056
-0.000166558
-9.62507e-05
0.108786
-0.00323592
-0.00042951
-0.0403471
-0.0208127
-0.00322811
-0.031587
0.00223032
-0.0194138
0.00152736
-0.00322591
-0.0500301
-0.0308956
0.0102845
-0.000837961
0.127811
0.183093
-0.0852098
0.00831261
0.0174043
-0.00393745
0.145413
0.0758912
-0.0232117
-0.000154903
0.00864334
-0.0428429
0.00700009
-0.0236285
-0.00196232
0.0292304
-0.0231905
-0.000130669
-7.02007e-05
-0.0378873
-0.0223636
-0.0217724
0.00865543
-0.0297333
-0.0355475
-0.000146438
-0.00130659
-0.000197764
-0.0291719
-2.30097e-05
-0.00179913
-0.0415319
-0.0796432
0.0254813
-0.00275719
0.00389059
-0.0182694
-0.0213721
-0.000122763
-0.0364756
0.00293749
0.137026
2.16849e-05
-0.000105992
0.139829
-0.00233705
-0.0694566
-0.0323643
0.00314853
0.000443926
-0.0513184
-0.0358313
0.143598
-0.043588
-0.00136748
-0.00918715
-0.042221
-0.000546161
-0.000228779
-0.000844527
-0.0347684
-0.0402097
0.0734981
-0.000200106
0.491011
-0.0698118
0.000108177
-0.00091362
0.000234782
0.000267775
-1.38335e-05
0.000128971
-0.041213
-0.000678462
0.000404154
-0.000188578
0.122152
-0.00522833
-0.000183865
-4.2815e-05
0.30947
-0.0183626
-0.0574249
0.00103996
-0.000682377
0.0412422
-9.36494e-05
-0.0120988
-0.132591
0.00202252
-0.00606251
-9.1783e-05
-0.000196795
-0.0256198
-0.0536969
0.00672783
-0.104633
-0.0601036
-2.66669e-05
0.0195589
0.0294375
0.0940595
-0.00159347
-0.000148866
-0.0442142
-0.00553952
-0.000471408
-0.0389204
-0.000130633
0.0278292
-8.48609e-05
-0.00118185
-0.0820366
-0.00199065
-0.0454863
0.441362
-0.00153701
0.000255935
-0.0436267
-0.0449904
0.00836761
0.00439765
-0.00014331
-0.025862
-8.01908e-05
0.173115
0.607816
0.0235353
0.0028239
0.00334313
-1.78866e-05
-0.0234584
-5.48622e-05
-0.00696387
-0.00157729
0.000346023
-0.00308664
-0.00877491
-0.000116402
0.000806426
-0.00783945
-0.000295174
-0.00919278
-0.0142254
-0.00954082
-0.00108682
0.538978
-0.000653521
0.00226022
0.000227396
0.0128855
-0.0391217
0.00887708
-0.000168029
-9.45617e-05
0.00243848
-0.0001041
-2.80418e-05
-0.0105387
0.000646661
-2.28316e-05
-0.0403004
-0.00214476
-0.0435384
-0.00152355
-6.43552e-05
-0.00287352
-0.00949639
-0.0133075
-0.0213855
0.00215188
0.000488166
-0.000436393
-0.00180241
-7.53359e-05
0.24563
0.00144536
-1.87854e-05
0.000538301
-0.00188036
-0.00033683
-0.0488734
-0.0425455
-0.000123931
-0.00629727
1.21504e-05
-0.00247846
-6.94316e-05
0.0319018
-0.000132928
-0.000175891
-0.00332349
-2.24127e-05
0.0125374
-0.00021265
-0.001166
0.0173915
1.10163e-05
0.34858
-0.0421937
-0.0336079
-2.39052e-05
-1.98291e-05
0.00171735
-0.0010935
-0.0411162
-1.61583e-05
-2.30794e-06
0.000685282
-2.71821e-06
0.000351554
0.000416542
-0.00042749
0.000729862
-0.0412851
0.454534
-0.0291702
0.302712
0.00841709
-0.014918
-1.75837e-05
-0.000814498
-0.0107696
0.000133601
0.000263637
0.000157377
0.0180103
-0.00127298
-0.000204844
0.472938
-0.000505552
0.000540741
0.000466195
-4.32401e-06
-0.100533
-0.0020148
0.00105158
0.000116326
-0.000504408
-6.43854e-05
-0.000882226
-0.0353589
-0.000386844
-0.00150727
-1.31039e-06
-0.000657823
-0.000242779
0.169568
-0.000410051
-0.000257713
-0.0530388
0.00349728
-8.10039e-05
-0.00122784
-5.7874e-05
0.153356
-0.0559944
-0.00028088
-0.000359524
-0.00178458
-0.000147652
0.0480732
0.0862559
-0.000960686
0.000469733
-6.38115e-06
-8.17485e-07
0.0383802
0.00023525
-0.0473035
-0.0225438
-0.0139573
-0.153919
0.547787
0.00180721
0.149561
-0.0129261
-0.0243798
0.156439
-0.000331539
-0.0507598
-1.21423e-05
-0.00798942
-0.0387855
5.06352e-05
-0.0407477
-0.000873482
-0.00973365
-0.00511312
-0.0342324
-0.0341576
-0.00299116
-0.0484823
-0.0350777
-0.00017435
-0.0106871
-4.9573e-05
-0.030562
-2.62391e-05
-0.000173514
0.00853116
0.147929
-1.5238e-08
-0.0365331
0.00328717
6.9678e-05
-0.018334
5.17963e-06
-0.0119367
-0.000241086
-0.0311258
0.000118169
-8.14532e-05
-0.00187432
-4.55207e-05
0.143906
-0.0254184
0.0284767
-2.88122e-05
0.000581218
-0.0268795
6.09239e-07
-0.0448895
-0.0512375
-0.0435966
0.496169
-0.00579051
-1.64746e-05
0.0234038
-0.0336771
-0.00235662
-2.44114e-05
-7.97888e-05
-0.0377299
0.000118187
0.000808814
-4.21332e-07
0.000147745
-0.023443
-0.0114442
-0.0594985
0.0759709
-0.0047823
-9.88865e-07
0.00547875
-0.0422489
-1.94477e-05
-1.30501e-05
0.000297109
5.92776e-05
0.000375005
0.12873
0.0313749
5.16363e-05
9.8756e-06
-0.0508365
0.182376
0.155046
-4.20839e-05
-0.0297582
-0.0169874
-0.00946591
-0.0381392
-0.00777836
-0.00262313
0.126847
-3.88697e-05
-0.0222125
0.15113
-0.0390951
-1.67621e-05
-0.0476455
-0.000162525
0.217587
0.0241629
-1.40025e-05
-2.5833e-05
0.160127
3.11249e-06
-0.000169462
-0.0103104
1.13495e-05
0.209246
0.00298012
-0.00653986
-0.0493473
-0.00338098
-0.060872
0.165741
-0.0119612
-0.0429255
0.000921332
-1.83534e-05
-0.000938696
-8.06357e-06
-1.52228e-05
0.0159446
0.164669
0.135257
-0.000404788
0.229278
-0.0108986
6.71085e-06
-0.036442
-1.69954e-05
-0.0233939
0.0251842
-0.0129187
0.00406503
0.00170649
-0.00817362
0.000231248
-0.00151738
0.0168056
-0.00257448
-4.50435e-05
2.69558e-05
-5.6918e-05
0.028503
5.02305e-05
-0.0196934
0.242357
-0.00535828
4.64026e-05
-0.00310429
-9.84034e-06
-0.00331322
-0.000327648
-6.06128e-05
-7.85104e-05
-1.23009e-05
0.193454
-0.000141583
0.200316
-0.0483114
0.000103947
-0.0420125
-0.000447209
0.141774
0.487103
-0.00126779
2.18394e-06
1.41973e-05
-1.97034e-05
0.100956
5.06156e-07
0.000958636
-0.0204623
0.190577
5.91234e-06
1.34636e-05
2.56911e-06
2.27099e-05
-0.0175322
1.57258e-06
0.185148
-0.0141667
-0.000113
2.72443e-05
-0.00184793
-0.0237639
1.14641e-06
-5.21586e-05
0.150497
3.08552e-05
-0.0264445
-0.0489506
0.000122447
6.14953e-07
-0.109644
1.03587e-06
0.140546
1.34011e-05
-0.000406846
1.0368e-05
-0.000160364
0.0819089
2.67106e-06
-0.00147826
7.11966e-06
0.0105876
-0.00304094
-0.00565723
0.000607764
0.138924
-0.000247662
-7.42504e-05
-0.00777293
-0.0075079
-0.000221848
-4.99361e-05
-0.000809062
3.62328e-05
0.0938761
-0.00915451
0.475829
-7.9521e-07
-0.00671736
-0.00014414
0.105185
5.15164e-05
-0.022338
2.12961e-05
-0.00142052
-0.0275498
-0.000210697
-0.0135251
-0.0396411
0.00453974
-8.81198e-06
-0.0462731
-0.000303839
-0.00027137
-0.00489654
-0.0137693
0.0011593
-4.64068e-05
-0.000395598
-0.000837516
-0.00114682
1.16011e-05
-0.00108581
0.468547
8.88255e-05
-0.00290776
-0.028627
-0.0554415
-0.0492351
-0.0381419
-0.0184408
-0.00048233
-0.014936
6.96863e-05
-7.49543e-05
0.468737
-8.6342e-05
0.13378
-0.000409096
0.000366108
-0.00101807
-0.0640608
-0.000379376
0.000488985
-1.43247e-05
-0.000356287
-1.49792e-05
-7.30827e-05
-0.0127333
-0.00010087
-2.579e-05
-7.61419e-05
0.000133321
-9.78459e-06
-0.0347891
0.143438
-9.24393e-06
-0.000545565
2.67019e-05
2.80737e-05
-0.000751621
8.21644e-06
-0.000814172
0.000259435
-0.000332731
-0.0496473
-0.00062477
-0.00164043
4.26535e-06
-0.00143031
0.00030842
-1.39579e-05
-9.17777e-06
1.21551e-05
-0.000716931
0.000496045
-0.0359248
-0.0230337
-0.0499261
0.000501894
-0.00170322
-0.0418927
-0.0502199
-8.63247e-05
0.0132685
0.00613299
-0.000943675
-0.0102096
-0.0435797
0.414904
-0.000379366
-1.39923e-05
0.000798122
4.46425e-05
1.60734e-05
0.0660601
0.00323778
0.0764811
-0.0312314
0.404908
-0.000474363
1.85692e-06
0.000138888
-1.68821e-05
-0.0012275
0.123839
0.202234
-5.16407e-06
-0.000156405
-1.63019e-05
0.190184
0.0124645
-0.00552785
1.06535e-05
1.75963e-05
0.00652415
-0.000628781
-0.0552017
-0.0142528
2.14732e-05
0.00315392
-0.0261733
-5.51702e-05
0.00162512
-6.20078e-05
-0.0365567
-0.00155311
0.120617
1.50343e-05
0.00151495
-0.000179116
1.35096e-05
0.000158029
-0.0193013
1.32562e-05
-0.000822239
2.02347e-05
-0.016573
-0.0360744
-0.00280934
-0.00659558
-0.0074217
0.00815855
-0.00754598
-0.00218521
6.1165e-05
9.58301e-05
1.83743e-05
1.60924e-05
-5.15715e-05
0.00807087
-0.0461663
0.000450898
-0.0376653
-0.00272387
-0.0419112
7.93089e-05
-2.88592e-06
0.00118334
-0.101814
1.62915e-05
-0.0370413
-0.0126966
-0.0985005
-0.0384081
2.40565e-05
-0.00304491
0.000177612
-0.137902
0.11839
9.86563e-06
-0.0469054
-0.0189114
-0.00372905
3.41803e-05
-8.02626e-06
0.0187068
-0.0139493
2.1405e-05
-0.00589115
-4.91648e-06
0.000197469
0.105903
-7.773e-06
2.12307e-06
-7.90095e-05
3.11574e-05
0.000814738
7.97445e-05
-0.00458855
0.000214078
-0.0107336
0.000999224
-0.000188228
-0.0273913
-0.0344984
-0.00545186
-1.39611e-05
1.92386e-05
-0.0496984
0.00517103
-0.037782
2.54684e-05
-0.00449925
-3.34803e-05
2.18325e-05
0.0542877
-0.0060476
-0.00245174
-1.79791e-06
-0.014998
4.47452e-05
-0.051715
2.39688e-05
-0.0582007
1.65275e-05
-5.53808e-06
7.70217e-05
0.000926834
-0.0833298
-0.0150935
-0.0538703
1.39544e-05
8.59612e-05
-0.0591389
-0.0224412
-0.00722708
-4.5661e-06
-0.0342378
-0.0405459
-0.0585972
2.53454e-06
-7.19974e-06
3.24767e-06
-0.073509
-0.0526372
0.000654828
-0.00939009
-5.15128e-05
0.137699
8.59949e-05
1.24355e-05
0.000137366
-8.99481e-06
-7.93944e-06
-0.00317252
0.000103196
-0.00226071
-0.0507011
-0.0110423
-0.0446896
3.57849e-05
-4.67593e-05
0.0383509
-0.0467438
-0.00412191
0.0956783
3.24198e-06
-1.24098e-05
-1.13479e-05
0.0431833
0.000158014
-2.16266e-06
-4.67068e-06
-0.0489998
-0.0129907
4.33922e-06
7.04885e-05
-0.00791171
-0.00554398
0.000389899
0.203203
-0.0472065
0.000120617
0.616847
-1.77232e-05
-0.000618977
-0.00745746
-0.0577991
5.29107e-06
-3.12583e-06
1.93701e-05
0.00430156
-0.0278579
-0.000303793
-0.0392123
-0.00662053
2.393e-05
-4.29322e-06
-0.00862405
-0.00649463
-0.0283245
-0.0785727
-0.0359323
-0.0312833
-0.0239149
-0.0225423
-5.75447e-05
0.000322837
-0.000612818
0.00048306
-7.28632e-05
0.000691537
2.72773e-05
-8.36351e-05
-0.0102381
-1.10277e-05
-2.62439e-05
0.0270202
-0.0292539
-0.000147908
-3.72587e-05
-5.29307e-06
0.22395
-0.00570554
0.000709254
-0.0233173
0.000207867
0.000180659
0.000156464
-4.44431e-05
0.000440213
-0.0307788
0.0130634
-8.38724e-06
-0.000149099
-0.033916
-0.0266671
0.0423748
-0.000440426
0.0016492
0.0158218
1.21582e-06
5.47091e-05
-0.0396291
1.99962e-05
0.145568
6.63566e-06
0.00376767
0.0001518
0.000203116
-0.0534805
-0.00629833
-0.0149818
-0.00210307
2.37424e-05
0.0054784
0.0530892
-0.0104446
-0.000121971
0.0813458
0.141457
2.94882e-06
-0.0410866
-6.07793e-05
-9.55294e-06
-4.05948e-05
-0.000507317
0.0175447
-6.28345e-06
0.000224771
-0.020412
-0.0212298
-0.018234
0.285167
1.51677e-05
-6.28032e-05
0.150059
-0.00694976
-0.00330351
-0.00058392
0.147428
3.92672e-05
-0.000285419
4.08292e-05
2.317e-05
2.82388e-05
3.22565e-05
6.65816e-05
-0.014758
6.91809e-06
-0.00290566
-0.0354133
0.201704
-0.000131112
-4.50521e-05
0.00421918
0.0729162
-0.0393518
-0.000670801
-0.053837
0.282514
3.87861e-05
0.378122
-4.16157e-06
0.00298719
0.0213942
0.000396253
0.413245
-1.41984e-05
-5.63156e-06
0.00103881
2.77723e-05
-0.000768143
0.000238462
9.377e-06
-0.00172055
8.04857e-06
-0.000131493
-0.00287873
0.217799
0.0418485
0.019459
-0.0347646
-4.72301e-06
-1.68477e-05
0.00303484
-0.0456583
-9.03995e-06
-0.0370112
-4.87821e-05
0.0888797
0.0532446
-0.0273592
-0.00119253
-0.0103499
-0.000871951
-0.0124444
0.00300863
-0.00644614
0.0540016
1.8653e-06
0.170933
0.00565978
-0.000535754
0.181386
-0.0113152
-1.13005e-05
2.04791e-05
5.99709e-05
-0.000189177
-0.000110846
0.222173
-0.000868493
0.226788
-0.000974822
0.145829
0.189592
0.0582334
-0.00605309
-4.98348e-06
5.69877e-05
-0.00900058
-0.0966052
-0.0394543
0.00134102
1.73092e-05
-0.0307168
-0.000292094
4.43085e-06
0.00091025
-0.000944928
-0.000595148
0.0287979
6.8019e-05
-0.0383035
0.0484297
5.22288e-05
0.000243424
-0.0123882
-0.047575
-0.000650179
-0.00046405
1.10245e-05
0.000227012
0.0128937
-0.0145149
-0.0392152
0.0011775
0.0474413
-0.0317908
3.1705e-05
1.99635e-05
0.00512478
-8.24429e-05
0.0396982
0.000500626
-0.0114445
-0.000342982
0.00145566
-0.0300195
-3.32265e-05
0.000445649
-0.00289508
-0.0575638
0.106934
-0.0485514
-0.0224896
-0.000150969
-4.13997e-05
0.00601733
4.14048e-05
-0.0575664
-0.0523201
0.00051154
0.00302545
0.00338866
-0.080797
0.000580002
0.000172492
3.34883e-05
-0.0338464
2.53237e-05
0.00050669
0.105669
0.158394
-0.0954401
0.0428215
0.0414135
0.00703084
-0.000146644
0.00955772
0.00011155
7.72597e-06
-6.84486e-05
-5.81351e-07
2.15198e-05
-0.000319427
-0.00658476
-0.054113
-0.00836943
-0.0247373
0.0451493
0.0379998
0.00364348
-0.0505559
0.000146068
0.00412243
0.00998239
-0.000347012
0.0626179
-0.0011303
-0.00945174
0.0104245
0.0049262
0.000869394
-0.00351627
0.0361769
0.000740454
-0.0166107
-0.0140144
0.497437
-0.0209982
0.0681064
0.00312184
-0.0319143
0.00196296
9.16073e-05
-0.00224721
5.01224e-05
-0.00230712
-0.0213672
-6.31954e-05
-4.46525e-05
0.225084
-0.0028891
-0.0340799
-0.0158227
0.00018288
-0.00131739
-2.11229e-05
6.68643e-06
0.0316895
3.59767e-05
-0.0025727
0.0624982
0.00555895
0.00100905
0.0160269
-0.00499913
0.00373237
-0.0996821
0.000777919
-0.00387216
-0.0450011
-0.000767381
-0.00698026
0.000672042
0.000606938
0.000889587
0.0302483
-0.000290075
0.00504833
-0.0431209
-0.0175391
0.00027734
-0.0426476
-0.0127414
-0.0144848
9.29414e-05
0.00589995
-0.0564361
-0.00074666
-0.00424642
-0.039618
-0.000139347
-0.00103285
0.191265
-0.0189572
-3.7507e-05
0.00734529
-0.0416027
-0.000930151
0.173533
-0.00200122
0.000910345
0.0519869
-0.00126041
0.00738768
0.112274
5.12837e-05
0.00105219
0.000160645
3.15919e-05
-0.00392447
-0.00641701
-0.000124033
-0.020281
0.0816984
-0.0303773
-0.0587141
0.00104327
-0.00286373
-0.000558602
-0.0445845
2.33912e-05
0.0137275
3.84501e-05
-0.0134715
-0.00171479
-0.00432669
-0.128896
0.0928357
-0.0629997
-4.81479e-05
0.156249
-0.00174565
-0.00234986
-0.0468518
-0.06653
-0.0133434
-2.71388e-05
-0.00102445
0.00644829
-0.00270967
-0.00412005
0.000386908
0.0734999
-0.0365109
-0.00954329
-0.00577892
0.0165952
-0.00264017
-0.00130158
0.00152744
-4.04733e-05
-0.00270477
0.0922146
0.000708483
-0.108224
-5.31124e-05
-0.00633647
-0.00332146
-0.0717499
-0.00989701
-0.0839257
-5.82305e-05
-5.64958e-05
-0.0041569
0.00945283
0.00160513
-0.0963444
0.068221
-0.0395754
0.000169131
-0.107085
3.62396e-06
-0.113942
-0.0213694
-0.140881
-0.153335
-0.164513
-0.17701
-0.189074
-0.185205
-0.174317
-0.150575
-0.132003
-0.0215066
0.0197167
0.0656457
0.144617
-0.00694233
-0.00642249
0.0432759
-0.0163746
0.000802877
0.0110919
-0.0332557
0.000455194
-0.000619165
-2.64574e-06
-0.0122359
0.0157746
3.9576e-05
-0.000294122
-0.00898178
-0.00714603
-0.134028
-0.0124146
-0.0450827
-6.11571e-06
0.00050945
-4.71595e-05
-0.0475117
-0.00762365
-0.0303955
-0.00991574
0.001538
0.000195684
0.00421082
-2.97164e-05
-0.0133688
-1.52035e-05
0.000334621
-0.00592323
-0.00982028
-0.000271567
0.000294794
0.0427416
-0.00894454
0.0484065
-0.123172
-0.00780524
-0.0659058
-0.0158596
0.00328837
-0.018167
-0.00285758
-0.0106667