/*--------------------------------*- C++ -*----------------------------------*\
  =========                 |
  \\      /  F ield         | OpenFOAM: The Open Source CFD Toolbox
   \\    /   O peration     | Website:  https://openfoam.org
    \\  /    A nd           | Version:  7
     \\/     M anipulation  |
\*---------------------------------------------------------------------------*/
FoamFile
{
    version     2.0;
    format      ascii;
    class       volScalarField;
    location    "18";
    object      p;
}
// * * * * * * * * * * * * * * * * * * * * * * * * * * * * * * * * * * * * * //

dimensions      [0 2 -2 0 0 0 0];

internalField   nonuniform List<scalar> 
29540
(
0.0146874
0.182499
-0.0145171
-0.0562438
-0.00396646
-0.0598878
-0.0299277
0.0138432
0.00351623
0.000369873
0.0085376
-0.0078394
-0.000742706
-2.23439e-05
0.15628
-0.00978419
-0.00020992
0.0478138
-0.00351735
-0.0170634
-0.00136738
0.00330753
-0.0146971
-0.00345356
0.709081
0.181277
-0.00080466
0.595943
0.143752
-0.00273375
0.0265228
0.0822978
-0.0875079
-0.0111137
0.603599
-0.0122421
0.199182
-0.043858
0.00969344
0.00933581
0.000809199
-0.0273724
-0.000177579
-0.034265
7.72624e-05
-0.00244144
-0.0068175
0.000172939
0.0057027
0.19384
-0.0465354
-0.0497706
0.0850835
-0.0579962
-0.0095707
0.137271
-0.00562501
-0.00140976
-0.00785079
-0.0290024
-7.2656e-05
-0.00341037
-0.0404175
-0.0107965
0.319928
0.667736
-0.0130989
-0.0139858
0.636432
0.000843551
0.179466
0.496344
0.0039459
0.66724
-0.0127057
-0.00128337
0.122968
-0.0390634
-4.80847e-05
-0.0253069
-0.0535806
0.245829
0.0146218
4.05168e-05
-0.0270355
-0.162203
0.354339
-0.000774293
-0.000715853
-0.0777305
-0.0366497
-0.039456
0.00525897
0.0782835
-0.0797041
0.360426
-0.0473144
0.000877954
-0.0625337
0.195563
-5.20594e-05
-0.0368076
-6.96428e-05
0.0557955
-0.0508688
0.152288
0.424412
-0.000685793
2.85549e-05
-0.0831923
-0.0868314
0.0141441
7.71519e-06
-0.00249047
-0.000180825
0.484151
0.264953
-0.0185899
7.91862e-05
0.00458689
-0.138095
0.194851
-0.0457742
0.664927
0.00195173
-0.019518
0.0541207
-0.0236941
0.00693234
0.000103368
-0.0319192
0.106519
0.477765
-0.0686436
0.0553052
0.0257487
0.386964
-0.0374842
-0.141279
0.18628
-0.0118913
-0.067736
-0.0677169
5.72311e-06
-3.19691e-07
-0.00406198
-0.00636682
-0.0685584
-0.109538
-0.0155023
0.0423054
0.0208603
0.000806357
-0.000164532
0.259632
0.000949869
-0.012557
0.362407
0.312719
-0.0450199
-0.0515395
-0.0547225
0.145352
-4.60038e-05
-5.47866e-07
-0.0187121
-0.0657926
0.000148168
3.93513e-05
-0.011227
0.000125286
0.00963009
0.369833
-0.0368629
-0.0707777
-0.00808879
0.00359804
-0.0380112
-0.00200248
-0.0384386
-1.07798e-05
-0.00724445
0.350892
-0.0130958
-0.13986
0.258936
-0.0101388
-0.0284553
0.00651032
-0.00255625
-0.000406665
0.00328914
0.675892
0.255292
-0.021823
-0.0120402
0.564453
0.229445
-0.0787457
0.0020398
-0.052351
-0.0746943
-0.00752459
0.00150319
0.382993
-0.0108173
0.0116277
-0.0684316
-0.0854324
-3.02503e-05
0.528121
-0.00163433
3.31124e-05
-0.000839138
-0.0348066
-0.0195515
-0.005427
0.0113342
-0.00342377
-0.0788285
0.000121115
0.000851067
-0.00369559
0.125292
-0.00455803
-0.00236159
0.0842146
0.000279696
7.25069e-05
0.00893034
-0.0431246
-0.0337416
-0.00757385
0.17755
-0.0232576
0.0221217
-2.34931e-05
-0.00482664
0.00140706
-0.0485899
-0.121306
-0.00219211
0.000856304
-0.00248936
0.00480832
-0.0166072
-4.25884e-05
-0.157717
0.00014647
0.12729
-0.00543231
0.00031004
0.154742
-0.0751162
0.000485975
1.07853e-05
-0.0678393
-0.11645
-0.0142246
-0.0259296
0.0420621
0.33591
0.00017867
-0.04128
-0.0780046
0.579002
-0.0131639
0.25509
0.00456376
-0.00028398
0.806537
-0.000831063
-0.0738462
-0.0778742
0.0038546
-0.0155674
-0.0132513
0.483427
-0.00556559
-0.0281818
-0.000359451
0.263971
-0.00496934
0.368162
-0.000780123
-0.00933439
0.566272
0.108496
0.0840817
-0.0497399
-0.000203761
0.00467676
-0.000226316
3.4091e-05
0.115596
9.05757e-05
-0.0305328
-0.0807592
0.717723
0.472902
-0.0667658
-0.0298976
-0.0322401
0.0135557
0.00449622
-0.0288563
-0.0703945
0.344026
0.501186
-0.00203662
0.417263
0.112352
-0.0469256
0.0185357
-0.00287226
-0.0152927
-0.00865784
-0.00426885
-6.42278e-05
-0.00298499
0.0105805
0.270208
0.0028416
-0.0420866
0.0215716
-3.32584e-05
-0.0684913
0.753255
-0.0102457
-0.00225318
0.0198023
-0.0239163
0.143555
-0.00242129
-1.71189e-05
7.59527e-06
-0.00430868
0.570008
0.0365053
-0.123195
1.17632e-05
-0.122595
0.0850284
-0.00825415
-0.0735833
-0.00205226
-0.000669262
-0.0388657
0.00165514
-0.039005
0.0178771
0.0919644
-0.000186761
0.00348726
0.193023
-0.134745
0.00079331
0.000836583
0.479025
-0.0366731
-0.00264099
0.240383
0.589588
-0.0573204
-0.0122254
-0.0114356
-0.00121661
-0.0137993
-0.00544033
0.224461
4.4721e-05
0.0172154
-0.111977
0.483424
0.657764
-0.0098392
-0.014571
0.331488
-0.0302614
-6.17414e-05
0.0383269
0.132361
0.134645
-0.0120856
0.043186
0.588146
-0.121655
0.529525
0.490901
3.08411e-05
0.0120507
-0.110622
-0.00480565
0.00289524
0.594926
0.0361793
0.000552135
-0.0532573
-0.0761025
-0.00914769
-0.000147697
0.373767
0.259607
0.000155649
0.00716393
0.0094481
-0.109108
-0.0495255
0.000185262
-1.19761e-06
0.000934561
0.150034
-0.0435328
0.380602
-0.0746543
-0.0289492
-0.0339896
0.235264
-0.0295085
-0.00197355
0.0140567
0.00154783
0.5347
-0.040413
0.00198066
-0.0123259
-0.00830609
-0.00258264
-0.0201315
0.000472532
0.000480517
0.7636
-0.013294
-0.00837335
-0.000693721
-0.00118616
0.317624
-0.113959
-0.0399483
1.37018e-05
2.88213e-05
-0.0417237
-0.0111274
-0.00861807
0.0296295
0.0108395
-0.00472308
0.0260531
-0.0282095
0.520385
0.00762337
0.000498333
-0.0664463
-0.0382187
0.00298029
-0.00568104
-0.0400331
-1.14065e-05
0.638717
0.0336676
0.000208521
0.675959
-0.0411284
-1.2176e-05
0.00263936
-0.0681666
0.0157174
0.0712496
4.77701e-07
-0.013193
-0.0131305
-0.00887761
-0.000746128
-0.0136323
0.570395
-0.0139601
-0.0194564
0.272362
-0.00469513
0.552729
-1.39752e-05
-0.026558
-0.0702684
-0.0393169
-0.0923277
-0.00261256
0.0023868
-0.000193344
-0.0308431
0.0109523
-3.0579e-05
1.82166e-05
-0.0104604
0.518135
0.0121658
0.0044933
-0.0795771
1.13628e-05
0.00181823
3.57486e-06
0.0157582
-0.0284498
-0.000605874
-0.0133772
-0.020342
0.00190441
-1.47827e-05
-0.0759225
-0.000608505
0.076583
0.445068
0.338375
-0.00742173
0.0106686
0.0444031
-9.03484e-05
-0.00601288
1.46638e-05
0.496231
-0.0226199
0.0292311
-0.0274687
0.00280338
-0.0052889
-0.000125306
2.19785e-05
-0.00810416
0.0735886
0.319148
0.00229009
-0.0603153
-0.0400163
-0.013049
-0.0116307
-0.00220456
0.00178032
-0.00932632
-0.000111232
-0.0698705
0.355527
0.242083
-0.0357996
0.347884
0.000208964
1.16268e-05
0.0432829
-0.00678883
0.663939
-0.0639685
-0.0340325
0.000270661
0.00218233
-0.00975499
0.000894572
-0.0174385
-0.021133
1.8866e-05
-0.00147712
0.479003
-0.000167298
0.617618
1.48968e-05
-0.100078
0.0719937
0.0313995
0.00195281
0.000389926
0.507027
0.0800596
-0.0718588
0.25087
-0.0113674
-0.0215256
-0.00684699
0.277089
-0.0409556
0.016549
-0.0128077
1.22421e-05
-0.00217993
0.0104605
-0.0286387
-0.03502
-0.0647284
-0.0289405
0.163654
-0.00360493
-0.0776006
-0.0222672
0.000126441
-0.0196366
0.0124944
0.166453
-0.0431006
-3.06249e-06
-0.0295605
-0.000924413
0.00258476
-0.123965
0.37932
0.00169928
-0.0193735
-0.0467074
0.110979
0.559182
0.0033272
-0.00828359
0.284316
0.214677
-0.0250317
0.00883415
-0.0707973
2.98973e-06
-0.0611824
0.000198756
-0.0460202
-2.8396e-05
8.53608e-05
-0.0107825
-0.0385004
0.444085
0.0133004
0.0201825
2.6692e-06
-0.0105961
0.000201589
-0.00548522
8.45396e-05
0.0762961
-0.000763435
0.238823
-0.000163298
-0.0207524
-0.0541483
-0.00717929
0.554904
-0.0265446
-0.0724838
-0.00954028
0.074525
-0.0645523
0.0484765
-0.0308262
-7.85584e-07
-0.00905515
-0.00671061
0.000509466
0.000194319
0.273278
-0.00834836
0.120954
-0.00775308
0.00163171
0.053537
0.000352071
-1.60605e-05
-0.0604221
-0.0059352
9.00377e-05
0.31155
0.725647
-0.000308803
-0.052248
1.67252e-05
0.598009
-0.110122
-0.0558569
0.000157382
0.0174968
0.0924624
0.108269
0.0696242
-0.000628988
-0.000178933
-0.0249629
1.14563e-05
6.73745e-06
-0.0416397
-0.0460848
-0.0635623
0.69468
0.000419061
-0.0490743
0.013692
-1.41763e-05
-0.00208278
0.000135029
-0.0103934
0.000106559
-0.0286188
0.046928
0.545532
0.072387
-0.00042727
0.000897163
-0.113766
0.118412
-0.00526086
2.43812e-05
0.262435
-0.134887
-0.0620567
-0.0227129
-1.01322e-05
-0.000422888
-0.138016
-0.0345359
0.199396
0.51794
-0.070763
-0.00212988
-1.10789e-05
-0.065072
-0.0865731
-0.000294038
0.00413572
-0.0242109
-0.00794776
0.500982
-0.00218622
-0.00178304
0.135598
-0.0129036
0.667116
0.663884
-1.60958e-05
1.89415e-05
-0.0261727
0.0274755
-0.0507206
0.00948317
-0.0124888
-0.000933701
0.57876
0.232829
0.00413622
0.79656
1.29434e-05
0.15114
-0.0787501
-0.0482754
0.000230586
-0.0524865
0.15669
0.0262953
0.0978158
-0.000725289
-0.000776037
-0.00860183
-0.00586547
-0.021923
-0.00179349
0.16643
-0.0100259
-0.00891102
-0.0807045
0.470255
0.0090066
0.0526168
-0.000639392
-0.000830367
-0.0317084
0.00186064
-0.00438144
-9.10462e-06
-0.000533254
0.15724
0.509167
-0.000177376
0.210176
2.19153e-05
-0.00567704
3.03615e-05
0.00971786
-0.083718
-3.28187e-05
-3.40062e-05
-0.0763837
1.22081e-05
0.0706999
-0.0379851
2.45468e-05
0.233887
2.33192e-05
-0.000637457
-0.000112314
-0.00856127
-0.00057757
-0.0102922
-0.0893198
-0.00050235
0.00766037
-1.65689e-05
0.436128
-0.00344884
0.00650945
-0.0478386
-0.0343202
-0.00191196
0.00529805
0.284141
-0.0395336
0.224985
-0.0578554
-0.00586598
1.36953e-07
-0.00962405
0.475821
0.258704
-0.0521412
-0.0711134
0.418958
-0.0139069
-0.0742804
2.96915e-05
-0.0394356
-0.00137708
0.775303
-0.0667634
-0.000109315
-0.0765684
-0.0407823
0.327776
-0.00432808
-0.042234
-0.00644035
-0.0100638
-0.00212669
0.326903
-0.119202
-0.0299721
-0.0238057
-0.0205708
0.010016
0.411099
-0.0289678
0.252622
0.00493891
-0.0944969
0.628344
-0.0141386
-0.000343271
0.326604
0.48408
-0.00700044
0.0111034
-0.0111128
-0.0472971
0.285932
-0.0653473
-1.27665e-05
-0.0121365
8.59753e-05
-0.00744091
-1.43993e-05
-0.00785615
-0.00158324
-0.00528799
-0.103812
-0.000963389
-0.000800555
-0.00185375
0.272232
-0.00343788
-0.00537953
-0.00500916
0.224203
0.00925211
-0.000545396
0.470921
0.65459
-0.0299643
0.57884
-0.0264166
0.442584
0.00954568
-0.0211519
0.00455156
-0.000711249
4.08663e-05
0.0045075
-0.0184204
-0.0298917
0.246359
-0.0342595
-0.0303254
-0.00147497
-0.0995581
-0.0368002
0.0113011
-2.54997e-06
0.0144652
0.0991103
0.486384
0.0168098
-0.0202755
0.193984
-0.000484682
0.0583353
-0.0269703
0.00115516
-0.0756564
0.00507103
0.443997
-0.00328565
-0.000820717
-0.000107478
-0.0711771
-0.00201743
0.780033
0.805531
0.0198052
-3.26597e-05
0.0137801
-1.19376e-05
0.0851593
-0.000803917
0.0352051
0.713969
0.011115
4.35685e-05
-0.0123966
3.92111e-05
-0.118831
-0.0499709
0.580487
0.000437912
0.0190793
0.00449354
0.000534524
-0.00349548
-0.000423108
-0.0091238
-0.0530993
-0.0337491
0.0101836
0.227856
-0.0197917
0.0102208
-0.0299878
-0.00282053
-0.039768
2.79756e-05
0.000100928
-0.00331671
0.0437071
-0.0439004
-0.0239197
-0.00550255
0.00435729
-0.0322182
0.296991
-0.0189309
-1.49779e-07
-0.072471
0.533431
-0.0654151
-0.0177885
0.0837019
4.71207e-05
-0.000966275
-0.0409883
-2.30176e-05
-0.000618829
-1.36908e-05
0.797388
0.0138877
0.00570682
1.05536e-06
5.68567e-06
2.54052e-05
9.88914e-07
-0.0327732
0.486207
-0.0500009
-0.000627319
-0.000193825
-0.00805529
0.577413
-0.0705841
0.526034
0.0218051
0.187545
-8.47166e-05
0.571004
-0.00320488
-0.0136768
0.00923763
0.0118487
0.0136898
0.246043
-0.0569164
0.56339
0.369769
-0.012062
-0.040707
-0.00280644
-0.0415106
2.80607e-05
-0.00130366
0.00423262
0.0978795
-0.00953059
-0.0329168
-0.00473096
0.690209
-0.0878777
-1.69578e-05
-2.01482e-05
0.587515
-0.00707432
0.00311219
-0.0189038
-0.00319081
-0.0218519
-0.0140022
-0.0628749
0.0842849
0.0275335
-0.014409
-0.0203842
0.000186195
-0.00820903
-0.00170763
-0.0113126
-1.82986e-05
0.000129406
-0.026678
-0.0287225
0.557363
-0.0351005
-0.000200373
-0.0020887
-0.000387221
0.468012
-0.0582937
-1.8531e-05
-0.0388349
-0.00635932
-0.0050012
-0.0392574
-0.0449571
0.0097374
0.0778823
-0.080612
0.000166588
0.00858514
-0.0188064
3.12953e-06
-5.6225e-05
0.152214
0.113362
-0.0283407
-0.0654149
-0.0684793
0.00082571
0.611001
0.000193125
-0.0233518
0.501805
-0.0237858
-0.0502566
8.66497e-06
0.000305052
-0.0501197
-0.0129954
0.00204829
-0.0442675
0.300599
0.338474
0.00103752
0.000441585
0.266452
-0.0173617
2.09013e-06
-0.00195752
-0.0382664
-0.0300286
-0.0143543
-0.00287473
0.219304
3.03862e-05
0.100807
0.355314
9.37146e-05
0.0131445
-0.000543775
-0.0952805
-0.0186524
-0.000841811
0.0369723
0.000362005
0.291204
0.00203134
0.0292349
0.0124278
0.717146
0.464595
-0.0701135
-0.00947086
8.24957e-06
-0.0599353
-0.0172682
0.192625
0.409058
-0.044077
-0.0214285
-0.0205434
-0.00778189
0.184527
-0.000196932
0.569805
0.0317275
9.39508e-05
9.43656e-05
0.000179244
-0.0155765
-0.0214779
0.000998853
0.0405959
0.135934
-0.0648128
0.000737811
0.000138902
-0.027924
-2.61053e-05
-0.00330115
-0.0134123
-0.000760092
-0.00153166
0.00537583
-0.00152647
-0.00437189
-0.0188621
0.465045
0.478291
0.0455473
2.6909e-05
-0.000571054
0.317676
-0.000463475
-0.11731
-0.00018675
-0.0233236
-0.0867566
-0.000172295
-0.000215029
-0.0380084
0.0017348
-5.40813e-05
-0.00144734
0.25133
-0.0399337
-6.72096e-06
0.116125
0.443404
0.459948
0.000845518
-0.105313
-0.0106263
0.530067
-0.0736086
-0.0753675
-0.01038
-0.0147151
0.0335852
-0.0291777
0.460108
0.0899192
-0.000132146
-0.0603323
-0.0790604
-0.00426243
1.60557e-06
-0.0019672
0.267062
-0.00014998
-0.00465231
-0.00447168
-0.00126778
0.0104462
0.0340218
-0.000140108
-0.000100675
-0.00829064
-0.0951764
-0.0404314
-0.0806783
0.307054
-0.00224169
-0.000246837
-0.0410907
-0.0272409
0.0111623
0.0155515
0.000166302
0.0860778
0.177803
0.0219003
0.0281936
-0.000634383
-0.014993
-0.0466507
0.0015927
2.48651e-05
-0.0105006
-0.00443268
-0.000746846
-0.0126203
-0.000877873
0.290351
-0.0100967
-0.125785
-0.0269367
-0.0119678
0.0135652
0.59526
-0.0481628
-7.69263e-05
0.567722
0.202339
0.00894721
-0.00647035
0.00870263
-0.0295567
0.19693
0.000464484
-0.00335223
0.712863
0.366635
0.401874
-0.0496226
-0.00148482
-0.00129772
-7.66295e-06
-0.00137166
0.354416
0.0983627
-0.00876084
-0.00628505
-0.000318757
-0.0546701
0.672414
0.503642
0.0942698
-0.00306971
-0.0687803
-0.00554971
-0.000732611
-0.0244781
0.0143458
-0.0303228
-0.0038422
0.0011194
-0.0936363
-0.0952485
0.0348773
-0.0276092
-0.00519354
-0.0287014
-0.000175525
-0.00765784
-0.000698213
0.429536
0.000102309
5.70746e-06
-0.0321652
-0.0218767
-0.0316798
0.0446212
0.000135587
-0.0913926
0.072681
0.24451
0.765174
-0.00505591
-0.111748
0.0344214
-0.00223226
0.0367177
-0.000596593
0.0118653
-0.000148471
0.309163
-0.109965
0.0121559
0.13904
0.141741
0.00175627
0.0032085
7.48851e-06
0.529498
1.2916e-05
-0.0494363
0.000450911
0.00198039
0.220245
0.121029
-0.0801281
-0.0427058
-0.00446067
0.803261
-0.0806803
8.56619e-06
-0.0171596
9.92935e-06
-0.0180096
0.123563
0.246927
0.00109203
-0.0384139
-0.010315
0.183385
-0.0316931
-0.0354936
0.695884
-0.0108482
0.000107334
-0.142718
0.72222
0.002083
0.111332
-0.0479128
0.168287
0.00222548
0.0341139
-0.0810929
0.00605641
0.0633577
-0.0313989
0.21411
-0.0287274
-0.0213958
-0.000800896
-0.000813312
0.62508
2.14293e-05
-0.00624003
-1.67739e-05
-0.00882683
0.000469396
-0.00793925
0.298702
1.27334e-05
-0.00105183
0.00712235
-0.13305
-0.0265642
0.00138005
0.512983
-0.0588043
0.212783
-0.0130184
0.191876
0.00760336
-0.000743419
-0.102227
0.000955142
0.641482
-0.0300627
-7.02646e-05
0.00264299
0.175566
-0.0122804
-0.000690241
-8.23192e-05
-0.0918748
-0.00276858
-0.0107677
-0.0790782
4.89422e-06
-0.0734036
0.000559097
0.445155
-0.0112652
0.183962
0.0050516
-0.0039847
0.335016
-0.0654044
-0.145519
-0.0047182
-0.0951691
0.346585
0.367206
-0.0153933
-1.20953e-05
-0.017024
0.00530092
4.82415e-05
0.0471164
0.484318
0.0142688
0.00188152
0.00841342
-0.0745976
-0.000139028
0.0895111
0.0540481
0.0828364
0.0149974
0.0312465
-0.000366127
0.219928
-0.107259
-0.136825
-0.00103145
0.0203809
0.17673
0.000988175
-0.0766268
0.272973
-0.045728
-0.0776166
-0.0800078
-0.106034
-0.105827
0.0609204
0.27683
-0.108178
2.59351e-05
0.00103791
-0.0553948
-0.00188774
0.00559278
1.94645e-05
-0.00623666
0.00456504
-4.62323e-05
0.0669597
-0.000498962
0.148008
-0.036678
-0.00721645
-0.00751422
-0.00935215
-0.0734569
-0.00636879
-0.00106142
0.02422
0.0919297
0.00509292
-0.0362393
-0.00317039
0.0330074
-0.0103571
-0.0212204
-0.0792259
-0.01748
-4.70146e-06
-0.016769
0.565725
6.71707e-05
0.0732028
-0.0562688
0.681713
0.0561646
-0.0507318
3.677e-06
0.00199198
-0.0916803
-9.92911e-06
-0.00290302
-1.84054e-06
-0.0793412
0.00518386
-0.0882516
-0.0253197
-0.000100179
0.345492
0.334036
-0.0391562
0.000582302
-0.000139817
2.31294e-05
-3.84017e-05
0.613601
-0.00138426
0.00266987
0.0248428
0.00115876
-0.000588154
-0.080541
-0.000193953
0.0514299
0.00196091
-0.00223641
-0.000739342
-0.0283081
-0.0451213
0.220397
0.0948075
-0.000135129
-0.0145748
0.000692285
-0.0817212
-0.00059623
0.157404
-0.0109445
0.801875
-0.0186806
-0.00153194
0.0881236
-0.0210415
0.439116
-0.0458061
-0.0124647
-0.0143644
0.0209944
-0.00396106
3.28902e-05
-0.00919802
0.38656
-0.0480363
-0.00352392
-0.0458325
-0.0298919
0.187833
-0.000499748
0.348631
-0.00414295
-0.0716718
-0.000525716
0.0151286
0.0524845
-0.00831577
0.418125
-0.000458808
0.0381315
0.105081
0.000647696
-8.94111e-05
0.665414
0.0698919
-0.0012438
0.0340225
0.0192196
0.0002083
-0.0846401
-0.0247734
-0.122657
-0.0117705
0.423349
0.00480766
0.151765
-0.000384135
0.504127
-0.075734
-0.00583809
0.00716363
0.0361842
-0.0740003
-0.121083
-0.00951611
0.000102244
0.732767
-0.0251102
0.00101283
-0.0461513
-0.0436558
0.428693
0.00350267
-0.0181962
-3.64973e-05
0.0663891
0.00923384
-0.0423881
0.00100443
-0.00381732
-0.0311493
6.22689e-05
-0.0571612
-0.00167599
-0.0165713
-0.0704432
0.365946
-0.0114313
0.0153479
-0.0518244
-0.0356236
3.98504e-05
0.000227586
-0.00419941
6.45174e-05
-0.0125527
-0.0702896
-0.00224839
3.61652e-05
0.649255
0.00581108
0.000465255
-5.16925e-06
-0.00232159
0.410993
-0.057842
0.734073
0.234674
0.0254963
0.358104
2.49936e-05
-0.0164052
-0.000876089
-0.00271674
0.245985
-0.0113927
0.736999
0.323935
-0.0624788
0.340971
0.00993374
-0.0160253
0.00264813
-0.0549142
-0.00441019
-0.0572088
-0.0615137
-0.00333045
0.335356
-0.011154
0.000212009
-0.00480216
-0.000689052
-0.0382313
-0.000137686
-0.00134745
-1.38182e-05
0.199963
-0.12143
0.346396
0.0318315
-0.00304336
-0.0377927
-0.0228124
0.0875419
-0.00339145
-0.00113609
-0.0713273
-0.050569
0.00953143
-0.0473996
-0.00501616
0.00657516
0.00241258
7.9123e-05
0.169548
-7.62303e-06
0.0675222
-0.000846945
6.52308e-06
0.00237179
-0.000688168
-0.00131577
-0.0181773
0.208901
0.186301
-0.0227592
-0.0143235
0.0034164
-0.00575165
-0.0115439
6.4883e-06
-0.000494052
0.000873845
0.140595
-0.00994081
-0.0632259
-0.057061
-0.0026632
-0.0272195
-0.0175708
-0.00187971
0.00618145
-0.0141208
0.307152
-0.076182
0.00650137
0.00169224
-0.0429555
0.720888
-0.01135
-0.00622963
0.00901698
0.0991568
0.00470764
-0.00662344
0.336982
-0.00036025
0.0517067
-0.0271134
-0.0627021
0.00740296
-0.00419963
-0.00623577
0.0484417
-0.00404719
-0.000637765
-0.00215213
0.00299418
-0.000204943
0.0333757
-0.0106325
-0.00225116
2.31364e-05
0.202355
-1.00715e-05
-0.0362937
0.0956382
-0.0281062
0.000244165
0.139166
-0.0479359
0.21964
9.8188e-06
-0.00445904
0.0737613
0.000257358
0.00577819
-0.00509452
0.0121827
-0.0236773
-0.0364018
-0.0104128
-0.00298584
0.0115147
0.0242083
-0.0109849
-0.000166194
0.145349
-0.0449162
-0.0037236
-0.0078582
0.000531564
-0.0683153
0.000119686
0.57122
0.267728
-0.000498475
-0.0243338
0.000182815
-0.00240897
-0.00650986
-0.0200657
0.202222
0.159974
0.00932079
0.0118412
-0.0794547
0.0412377
0.0173569
0.01978
-0.0564979
0.0169568
0.26361
-0.0108297
0.487111
-0.000981156
-0.0123837
-0.0556247
-5.66609e-05
-0.000787633
-2.46657e-05
0.483363
-0.0116976
0.000382281
-0.0176501
-0.00624667
-0.000313241
-0.0149032
0.351874
0.00121736
0.0126507
-0.0343802
-0.000466367
-0.00512813
-0.000844955
0.747429
0.000296148
4.77532e-05
-0.00216527
-0.0164145
0.0388233
0.000705009
0.0101634
0.092733
-9.15787e-05
0.00244417
-0.0786114
-0.0110223
-0.0537069
2.19722e-06
0.000474585
-0.0143987
0.0367915
0.396556
0.113743
-0.0383818
2.42551e-06
-0.06083
-0.00288541
-0.0141432
-0.0136818
0.224259
0.54735
-8.18202e-05
0.186678
0.301477
-0.0108776
-0.0283231
-0.0265853
-0.0171561
0.000172656
-0.0443509
-0.00970739
-4.7967e-05
-0.00052961
-0.00169656
-0.00205686
-0.000680081
0.386741
0.411826
0.22287
-1.65622e-06
-0.0258941
-0.0052765
0.129594
0.578716
-0.00048512
-0.0226789
-0.0205382
0.374429
-0.0213019
-0.0107303
-0.0176717
0.192006
0.000418855
-0.000468316
-0.0285141
-0.0495669
0.157323
0.0338364
-0.0469205
-0.027138
0.011159
0.0228102
-0.054109
0.00805028
-0.0596308
0.135486
-0.000314032
-0.000616893
0.101183
0.000287714
0.0171965
0.0366783
2.91315e-05
0.331802
-0.0118729
-0.00487793
0.766165
-0.0404122
-0.0115896
-0.0425226
-0.00299185
0.542058
0.00139571
0.722991
-9.2853e-05
-0.0267623
0.738766
0.00790876
0.539054
-0.00633739
6.23944e-05
-0.0297016
0.550866
-0.00168497
-0.00733725
-0.00901987
-0.00104346
-0.0237685
0.553111
0.127362
4.02478e-05
0.0226718
-0.00407993
0.0342593
-0.000915877
0.026709
-0.0028414
-0.000433549
0.524192
0.566131
0.530227
-0.0555713
-0.0448536
0.000229959
-0.0609899
0.355964
0.0173338
0.00034873
-0.0734006
0.000744657
-7.71981e-05
0.56224
0.000192702
0.00487942
-0.00206098
-0.0101677
0.536039
0.554024
0.570824
0.0135553
0.000631891
0.26231
0.00871162
0.0256262
-0.0100455
0.00011283
-0.00320704
-1.11524e-05
-0.00498154
-0.000753176
-0.00639299
-2.97368e-06
0.181411
0.00249678
-0.0780951
-0.0101984
-0.0750255
-0.017962
-0.00078739
0.435858
-0.0118694
7.96821e-05
1.00197e-06
0.711795
5.05151e-05
0.013043
0.0626432
-0.0197714
0.372924
-0.00574542
-0.0465694
-0.0399977
-0.000472978
0.000191366
0.320475
0.566953
-0.00162813
-0.0246094
-0.000206788
0.560186
0.68522
-0.00151116
-0.007194
0.022138
0.00353151
-0.0267966
0.00015233
0.0116045
-0.0408179
0.0631637
0.43785
-0.0015803
0.0328721
0.0905355
0.00672984
-0.0477732
0.032315
0.664203
0.218683
-0.0570113
0.568602
-0.000565987
0.577717
-0.00829306
0.471739
0.0848968
-0.00554488
0.0378345
0.00282874
0.0201893
-0.0770009
-0.000670055
-0.0254415
0.468181
-0.0287694
0.0251723
-0.00155012
-0.0510474
0.209195
-0.0101131
-0.140919
0.000884052
-0.00394467
-0.0260164
-0.00229519
0.00233039
-0.00964386
-0.000484047
0.00284268
0.466158
0.00254652
-0.0174119
-0.0626099
-0.0314956
-0.0668346
-0.0883871
0.00482738
2.79003e-06
5.58821e-05
0.314117
-0.0624891
9.95488e-05
-0.0744703
0.212084
-0.0635951
-0.0163125
0.000174956
-0.00199966
-0.049105
0.159459
-0.00972485
-0.000459512
-0.0490006
-0.0214379
0.740682
0.129403
0.0766625
-0.0545965
3.69576e-07
-0.00726054
0.0741438
-0.000337784
3.40964e-05
0.197024
0.112916
0.000769959
-0.000866072
0.00793955
-0.0422191
0.0115958
0.00898745
-0.0163291
8.9535e-05
0.334551
0.000734066
-0.000597163
-0.000188704
-0.000187301
-0.00010991
0.0935949
0.00114954
-0.00295949
-0.0102836
-0.00519816
0.0321488
-0.00578727
-0.0440913
-0.0111639
0.509752
0.415252
-0.000458139
-0.00150543
0.109114
-0.00080382
-0.0230554
0.052044
0.0218212
-0.000972927
0.0231021
0.0451663
0.00153604
0.0915369
-5.8448e-05
0.00832219
-0.0232335
0.0154244
-0.0155784
0.0550928
0.000121771
7.13631e-05
0.000394736
-7.50097e-06
-0.00160303
-0.0103077
-0.0136458
-0.0310334
0.0450619
0.0412163
0.0102015
-0.0683825
0.0119186
0.00678511
0.0144184
9.56924e-05
0.553555
-0.00873959
-0.00339575
-0.0392822
0.750908
1.19133e-05
0.0385423
4.40034e-05
-0.0524513
-0.00673948
-0.0231424
0.196107
-0.0041324
5.55926e-05
0.158054
0.0807781
-0.000514926
0.0571824
1.12689e-05
0.186092
0.00700003
-0.0296513
-9.10721e-05
0.274651
0.0314316
-0.0213635
8.65289e-05
0.192822
0.372302
-0.00110657
2.42981e-05
-0.0376964
-0.00937751
0.00418287
0.0227481
0.581026
0.320858
0.00059607
0.402523
0.280917
-0.00288588
-0.0568829
-0.0386963
-0.0169938
-0.0586105
0.0832775
0.000961894
0.605761
0.162876
0.0134751
0.000180296
0.000762801
1.66697e-05
-0.00049981
-0.00282049
0.653212
4.75041e-05
0.0875678
0.0294641
-0.000177134
0.603209
0.686412
0.224199
0.265468
-0.0782599
0.00272809
-0.000229258
-0.0113731
9.56711e-06
-0.00106246
-0.129595
6.40979e-05
-0.00190948
0.618498
-0.0119439
-7.62421e-07
0.644128
0.000569033
-0.0361716
-0.0708559
-0.00127421
-0.0841546
-0.000187307
0.12851
0.00362779
-0.0181264
0.00214185
-0.000587669
-0.000324888
-0.000171021
-0.12777
-0.0612493
0.173374
0.00303751
-0.00743637
0.264522
0.000118656
0.720238
-0.000463176
-0.0845162
0.00246924
0.00181501
0.0552806
0.0580078
4.50738e-05
-0.00419708
0.000163209
-0.000618729
0.000974083
0.0913806
0.0528395
0.37955
-0.0475708
-6.38347e-05
0.000234068
0.108188
0.414094
-0.00447591
-0.00636135
0.718378
-0.00275847
-0.0210228
0.000980017
0.0577743
-0.046866
-0.0086558
0.177508
0.0014894
-0.000177759
0.00183177
-0.049031
0.709359
0.551807
-0.0245453
-0.0407836
-0.00652162
0.00173472
6.28561e-05
0.0817045
0.218773
4.35769e-05
-0.00736668
-3.17089e-07
0.000208725
0.51785
3.49857e-07
-0.0792254
-0.0605853
-0.0965362
0.0750267
3.33402e-05
0.0105033
-0.00623129
0.475341
-0.0116892
0.00532986
-0.0308653
0.000746343
0.416466
0.238464
0.0112726
0.0527375
0.626615
-0.0645587
-0.0594624
-0.00186024
-0.00706214
-0.000297393
0.0215991
9.65711e-06
0.186284
0.00313334
0.205677
-0.035478
2.07345e-06
0.0578218
-0.000108887
3.04163e-05
-0.000682519
0.701264
0.671729
0.357455
9.70366e-05
0.168635
0.576292
-0.000915353
0.00148894
-0.00852325
0.0620299
0.555694
-0.0279392
0.13356
-0.00252418
-0.0645663
-0.0724403
0.777722
-0.000539955
0.550217
0.0951527
0.21544
0.000209673
0.00028293
0.00569251
-0.00904407
0.088564
-9.34554e-06
0.000107634
0.539466
-0.103272
0.00038677
0.566871
-0.00226156
0.000225234
0.450979
-0.00720035
-0.00148235
-0.0635788
0.131574
0.00039538
-7.31685e-05
0.0036525
-0.00401421
0.535122
0.697213
0.318559
0.757394
0.0604411
-0.0462588
0.633082
-2.86682e-05
-0.00320697
0.0911241
-0.0034293
-0.000589012
-6.29518e-05
0.565074
0.016817
-0.000579433
0.677402
0.0808792
0.2401
0.0457432
-0.00266268
-0.0209342
0.154298
0.0751943
0.564069
-0.024755
-0.000714454
0.514987
0.472066
0.0135396
0.389806
-0.0395749
-0.00780256
-0.00951231
-0.000571989
-8.79303e-05
0.521248
-0.062375
-0.0151003
0.00095135
0.170802
-0.0316526
-0.0193115
-0.00091433
-0.003908
0.587158
-0.000729722
-0.0175993
-0.00294525
0.57822
-0.0196273
0.0208147
-0.00748512
0.00152695
0.167407
-0.0221471
0.600819
0.0425064
0.755206
0.284379
-0.0596236
0.0325428
-0.00170985
0.0031512
-0.0857991
0.543533
0.582476
0.655948
0.359121
0.527215
-0.000281329
0.618865
3.22963e-06
0.000110503
-0.0476171
0.672812
0.0528067
0.26643
9.33486e-05
-0.00209707
-0.101379
-0.0359903
0.533525
-0.000611931
-0.00765493
0.356346
0.00115037
-0.00421333
0.73094
0.0491414
-0.0430837
-0.165671
-0.000453549
0.0270787
0.0185131
0.765358
0.022132
0.0110208
0.00441099
-0.000181999
-0.0094784
0.209296
0.00561029
0.000181239
-0.102093
0.271013
-0.0014041
0.551678
-0.0718515
0.558214
-0.0300382
-0.0228972
0.629318
-0.00527545
-0.011031
-0.000328519
-0.0012368
-0.0630359
-0.0224535
-0.0361116
-0.00974056
-0.00123222
-0.105523
-0.0692782
0.556284
0.000345723
0.000857176
-0.0204812
0.121805
-0.108207
-0.0579058
3.98049e-05
-0.107313
0.0477146
-5.06603e-05
-0.0816113
-0.133782
0.563054
-0.0973853
0.550081
-0.0136476
0.0989126
0.277054
-0.0345643
0.337598
-0.00169531
0.0805688
0.000853427
0.0886105
0.207928
0.186547
-0.0281564
0.00627101
-0.000575364
0.191528
-4.99295e-05
-7.82737e-05
-0.000958287
-0.00961692
0.0153465
0.0151065
0.462961
0.153669
0.710884
0.425568
-0.00144021
-0.0322756
-0.000102159
-0.0472545
-0.0011528
0.00591396
0.000726179
-0.0330802
0.371186
0.548866
-0.000231851
3.67317e-05
0.0016887
3.28689e-05
-0.00902383
-0.000114968
0.128543
-0.0348622
0.200368
-0.0870384
8.61177e-05
-0.0136627
-0.038711
-0.0253612
-0.0161047
-0.051078
0.0391007
-0.000116397
3.19082e-06
0.00217622
-7.34226e-05
0.0706072
0.024808
0.0389157
0.65807
0.0446391
-0.121483
-0.0827496
-0.000353437
0.0516844
-6.52135e-05
0.515934
0.101162
0.612061
0.000205009
-0.0319322
-0.00660591
0.0486404
0.143136
0.468006
-0.00737569
0.0277297
-0.00180565
-0.019015
-0.00776957
-0.0058932
0.108991
0.00166983
-0.00843943
-0.0198562
0.228242
0.0579868
1.07903e-05
-0.000790238
-0.00599581
-0.000527279
0.106987
-0.000583475
-0.0311913
0.141332
0.000113487
0.270001
0.000125958
-3.42835e-07
-0.0870394
-0.0192749
0.000220552
-0.0220245
0.000243263
0.641255
0.0124403
-0.0237117
0.591916
0.1301
-0.0305772
0.454686
-0.0026158
-0.00174593
-0.00195189
0.0805139
0.805972
-0.00137611
-0.000499799
3.73644e-05
0.00786309
-0.00113843
0.025393
0.00617616
-0.0204168
-0.0569986
0.0183385
0.0104665
-0.0182992
-0.000452604
-0.0407393
0.446577
-0.00168223
-0.0133798
-0.000168314
0.465323
0.0524117
0.441114
0.000499212
-0.000744045
-0.0232461
0.659526
0.148696
-0.0275295
-7.85488e-05
0.0310715
0.0695508
-0.0278721
0.204807
-0.0458824
0.0189379
-0.125085
0.46831
-0.0161485
0.261351
-0.00301186
0.763347
-0.0398126
-0.0106524
0.599701
-0.0414438
0.169326
-0.133706
0.190617
0.00646857
0.049056
0.352618
0.0494352
-0.0462787
-0.00934369
-0.00737652
-0.0150867
-0.0152302
-0.00141066
-0.0546072
-0.0275011
0.00203302
-0.0629066
-0.0779635
7.74277e-07
0.0671072
-0.00879599
0.0527274
0.607159
0.405517
-0.0513666
-0.0676439
0.000541923
-0.0760222
-0.00428269
0.73761
-0.0340756
-0.0293657
0.3999
0.0475673
-0.038636
0.211184
-0.0355679
-0.000537843
-0.0113267
0.00998911
0.000745665
0.423831
-0.00255378
0.144632
0.349192
-0.00547123
0.253446
-0.097647
-0.000303114
0.00667437
0.0607139
0.372812
-0.00237582
0.0736771
-0.066813
0.0618622
-0.0223201
0.411735
-0.00171841
-0.0800192
-0.00309367
0.000234576
0.547002
-0.00229531
-0.0315105
-5.26191e-05
0.218881
-2.28015e-05
-0.0458467
-0.00282799
-0.146062
0.000736698
-0.0100021
0.170411
-0.00373378
0.000998711
0.000715351
-0.00394042
0.0294975
-4.74311e-05
9.77418e-06
-0.00818926
-0.0101949
-0.0222088
0.00812932
-0.00177402
0.0736909
0.0791485
-0.00115465
0.00109063
-0.00012425
0.539049