/*--------------------------------*- C++ -*----------------------------------*\
  =========                 |
  \\      /  F ield         | OpenFOAM: The Open Source CFD Toolbox
   \\    /   O peration     | Website:  https://openfoam.org
    \\  /    A nd           | Version:  7
     \\/     M anipulation  |
\*---------------------------------------------------------------------------*/
FoamFile
{
    version     2.0;
    format      ascii;
    class       volScalarField;
    location    "0.1";
    object      p;
}
// * * * * * * * * * * * * * * * * * * * * * * * * * * * * * * * * * * * * * //

dimensions      [0 2 -2 0 0 0 0];

internalField   nonuniform List<scalar> 
117990
(
-2.35585
-0.0095973
-0.684462
-0.169307
-0.483098
-0.150115
-1.37825
-3.26511
-0.103995
-0.00993068
-0.0593633
-0.110992
-0.302641
-3.53664
-0.105213
-3.22505
-0.101004
-0.0799867
-1.08051
-0.490046
-3.30239
-0.0166184
-0.087608
-0.200217
-0.274482
-3.07153
-4.54999
-1.36346
-0.0398339
-1.1263
-0.0488112
-2.31277
-0.971054
-0.355636
-0.198743
-0.102548
-1.37454
-0.102309
-5.60178
-1.87442
-2.31415
-0.0806525
-1.27024
-0.100117
-2.42494
-3.52284
-0.976286
-0.704692
-0.49448
-0.101124
-0.00149292
-0.0447447
-2.15565
-0.00529819
-0.453354
-2.15169
-2.0116
-2.27507
-4.08182
-0.716064
-0.0771876
-0.210643
-0.078151
-0.822768
-0.0407762
-0.262792
-0.299847
-2.08609
-4.49085
-1.96841
-2.00099
-3.71852
-1.87644
-2.05099
-2.3705
-1.34884
-3.8761
-0.223311
-1.19639
-3.18465
-3.20476
-0.0306724
-3.71829
-1.31802
-0.0582984
-0.108999
-1.09745
-0.0197347
-1.53645
-0.0277553
-5.18241
-0.233646
-0.03976
-0.108691
-0.0858009
-0.154167
-0.0668152
-3.69723
-4.56022
-1.5205
-0.0778887
-1.54507
-0.81308
-0.455079
-1.9916
-2.83069
-1.77621
-2.75061
-1.40689
-0.043644
-3.40012
-0.0669067
-3.89967
-1.04786
0.835287
-0.7054
-0.0594024
-2.22051
-0.0368962
-3.73314
-2.20977
-3.25065
-0.701522
-3.90241
-0.00173487
-1.13004
-0.217163
-0.0388972
-0.0762502
-1.7468
-2.71947
-0.127083
-2.46615
-0.108278
-0.0364103
-1.05431
-0.387889
-0.976764
-0.462421
-0.208598
-2.45027
-0.698682
-0.0581439
-2.21329
-2.70472
-0.00192219
-1.26352
-0.221013
-2.08385
-0.325346
-2.80407
-2.43803
-0.223803
-0.00176721
-0.0467349
-0.968564
-0.0443838
-3.27879
-1.16672
-3.38962
-1.33673
-1.25522
-0.0781586
-2.29702
-0.86458
-0.0968233
-1.82098
-1.58858
-3.29221
-0.867919
-0.766092
-0.97276
-5.27285
-3.47016
-2.0717
-1.95049
-3.4613
-0.167237
-1.14551
-0.488008
-1.25732
-2.38772
-0.986844
-2.18353
-1.76811
-0.141347
-0.124768
-2.07807
-1.9553
-5.16209
-0.170006
-0.676384
-0.9094
-1.3906
-3.05998
-3.14232
-3.47887
0.0395893
-1.36642
-1.80044
-2.11499
-1.38968
-1.34765
-0.02549
-0.10752
-1.74203
-0.130483
-0.0406761
-1.84759
-2.55304
-3.47095
-1.80444
-0.304051
-0.0280481
-1.46078
-1.40628
-2.87143
-0.981206
-3.53879
-0.0791102
-1.84894
-1.27144
-0.553046
-1.23769
-0.00558577
-0.633291
-1.15524
-1.3667
-3.11103
-0.622274
-1.44937
-2.07318
-2.40591
-1.6113
-2.79074
-2.1122
-0.166406
-0.656046
-1.63615
-0.0431092
-4.86412
-2.07093
-3.41985
-4.55584
-0.074911
-0.338103
-2.2475
-1.37799
-1.59146
-3.07228
-0.851312
-0.136327
-2.04434
-0.296526
-0.0106985
-1.26539
-4.04868
-1.35611
-0.135319
-3.30009
-1.26376
-3.52104
-2.1941
-5.5872
-1.41145
-0.174693
-3.85612
-0.0760333
-3.7656
-3.96735
-0.0352874
-1.95476
-0.487583
-2.08315
-0.255978
-1.1233
-2.33682
-2.07844
-0.578445
-2.74594
-2.30952
-0.0757832
-0.22542
-1.72619
-0.160712
-1.10371
-0.658624
-2.03708
-3.74326
-5.54356
-2.34566
-0.023479
-4.21842
-1.79633
-0.118317
-1.39656
-0.142751
-2.34288
-0.383996
-4.01283
-3.49094
-1.95044
-5.15899
-0.336795
-2.05426
-2.96439
-2.3218
-1.3607
-5.35446
-1.14331
-0.105488
-2.23707
-2.34224
-1.63696
-0.299175
-0.800729
-0.915221
-0.336948
-0.203581
-4.25079
-3.03162
-0.0802627
-1.33265
0.796831
-3.03869
-1.23385
-0.9784
-2.30705
-3.50664
-4.21341
-0.109027
-0.0239645
-0.147329
-0.142362
0.499047
-0.222385
-3.36161
-0.0345696
-0.147605
-0.12005
-0.665658
-2.64127
-4.58573
-0.776119
-0.424842
-0.44469
-0.57969
0.110499
-1.78916
-0.580469
-2.43093
-2.07947
-1.252
-0.15797
-1.79161
-1.29267
-2.33777
-0.00192394
-0.174341
-2.23747
-2.5784
-2.23726
-1.34883
0.539785
-3.74661
-0.00201952
-0.0121424
-1.27178
-0.557158
-0.00375391
-3.95011
-3.28897
-1.35404
-0.073658
-3.6615
-0.685468
-0.802316
-0.100236
-0.144898
-2.32274
-2.07988
-1.43208
-1.01372
-2.25814
-1.09904
-0.0431175
-2.42915
-3.152
-0.478832
-2.95485
-2.28529
-1.968
-1.10251
-1.36936
-1.26691
-0.147627
-5.32148
-0.249023
-0.481811
-0.903123
-1.56428
-0.153571
-1.41705
-1.89951
-5.41655
-3.46708
-0.0368672
-0.540654
-2.87044
-0.00628813
-1.17964
-0.102604
-0.450636
-0.185141
-0.0553236
-0.571909
-0.480628
-4.30743
-0.0516313
-1.08007
-0.000257568
-3.48778
-0.134325
-1.28247
-2.32758
-2.16234
-3.43587
-2.09396
-2.00398
-0.237402
-0.384823
-0.132149
-0.0777921
-1.34135
-0.330793
-0.538031
-2.35317
-0.13278
-0.0552363
-0.103514
-0.218462
-1.76207
-2.29243
-0.899729
-0.158673
-4.03298
-0.333479
-0.0538271
-1.9739
-1.94811
-1.67378
-0.0550607
-0.144623
-0.397768
-1.61038
-0.270988
-3.4789
-1.35071
-2.5295
0.00115948
-1.45147
-0.334016
-0.47207
-1.50797
-2.24391
-3.33521
-0.483584
-3.45164
0.00328607
-0.0555517
-1.08435
-3.12681
-1.62734
-2.06629
-2.37739
-3.01468
-0.00105187
-0.489016
-1.5367
-2.22265
-1.08133
-0.00107875
-0.0345848
-0.359729
-1.61598
-0.133484
-0.123157
-3.37492
-0.024481
-4.02592
-1.75116
-0.668903
-0.783152
-2.08855
-0.189962
-3.92236
-3.00473
-1.03486
-0.646883
-0.366152
-0.109951
-1.16645
-1.59462
-1.49311
-2.35568
-2.16306
-0.818718
-0.66409
-4.92224
-2.10257
-0.162388
-0.292978
-0.294519
-0.0170324
-2.24706
-2.52084
-0.158207
-2.80055
-0.136693
-0.138082
-0.393361
-2.35969
-0.216064
-0.604805
-0.893473
-0.258181
-0.0801344
-1.06622
-3.88475
-1.14597
-0.783238
-1.92623
-0.474657
-0.0395578
-0.0014501
-1.87252
-2.99614
-1.73269
-0.0388095
-0.371044
-2.63519
-4.5307
-3.74135
-0.0303798
-1.33471
-1.75593
-0.080513
-0.0851684
-1.34201
-0.353496
-0.450443
-3.15543
-0.168887
-2.73394
-0.90562
-0.668646
-0.770937
-0.613558
-2.01366
-0.162233
-0.0349409
-0.720712
-1.89648
-0.628518
-1.95978
-2.29299
-0.648748
-1.89547
-1.20954
-0.152203
-1.61485
-0.725941
-3.79451
-0.362076
-1.85182
-0.26258
-1.96031
-0.191277
-0.30341
-0.812654
-1.8186
-0.133408
-1.66392
-3.44277
-2.5546
-1.82656
-0.262028
-4.49112
-0.0638288
-5.41666
-0.256352
-1.41532
-1.61728
-0.461486
-3.30499
-1.89386
-0.634325
-2.07611
-2.3838
-3.95958
-2.46761
-1.22063
-2.02517
-1.66351
-0.44889
-0.241066
-0.650395
-0.0423368
-5.5964
-4.35703
-1.07317
-0.340776
-2.20411
-0.139952
-0.390093
-1.1046
-0.219937
-0.0476421
-0.164029
-3.02596
-0.292162
-5.1938
-2.23313
-2.32549
-0.0860016
-2.22362
-1.98377
-0.197993
-1.82934
-2.24212
-0.28928
-0.294429
-0.0014152
-2.02849
-1.81325
-0.0480133
-1.98347
-0.97481
-0.211769
-0.0695043
-5.61201
-0.475849
-0.139689
-1.55119
-0.164354
-0.0535615
-0.707314
-3.92553
-0.0592542
-0.891846
-0.261412
-1.81817
-1.81697
-0.118185
0.711412
-3.30677
-0.779004
-3.92325
-0.0839952
-0.0489366
-0.0869947
-0.269944
-2.05277
-0.598233
-0.0216365
-1.06544
-2.9576
-2.97283
-2.3152
-2.83904
-1.07086
-0.0885896
-1.66972
-1.08229
-0.12983
-2.08878
-0.26049
-2.2714
-2.61476
0.178527
-2.78121
-0.156701
-1.09856
-1.2816
-3.15622
-1.97734
-1.91922
-0.0055806
-1.76291
-0.342419
-3.49415
-0.554135
-2.21036
-1.96838
-0.720952
-4.80172
-0.0792764
-1.39516
-0.927268
-2.28919
-2.05323
-1.46039
-0.0198983
-1.841
-0.902377
-1.60945
-1.98452
-3.16029
-0.16627
-4.3308
-0.110252
-0.0474363
-0.591641
-0.16011
-0.259473
-0.13057
-1.29754
-1.13946
-1.43589
-0.512316
-2.69351
-0.679926
-2.07553
-0.00390393
-2.43396
-0.32334
-0.467744
-1.34816
-0.0393367
-4.28493
-0.33581
-4.32188
-0.151725
-4.42056
-2.04993
-1.00514
-0.380343
-0.0608475
-3.01273
-0.114198
-0.590369
-1.75451
-3.24688
-2.56495
-0.111617
-3.72387
-1.99689
-0.0529594
-2.90186
-0.689424
-0.0684654
-0.813536
-0.162419
-0.981794
-0.825583
-0.0108696
-1.57691
-1.01356
0.315925
1.07394
-0.0600267
-0.128043
-1.49565
-0.195473
-0.411671
-0.161932
-2.32863
-2.03993
0.0288659
-0.302726
-0.196361
-0.351478
-4.68977
-2.23058
-3.46283
-2.51832
-2.09344
-0.0623914
-4.7889
-0.0372566
-0.366365
-0.00133776
-5.39809
-3.34699
-1.9769
-0.0173922
-0.643364
-0.0708431
-2.09214
-0.0871486
-3.15546
-0.793526
-2.9497
-0.0469276
-2.5221
-1.83383
-0.709466
-0.0489352
-0.193551
-0.0571458
-2.04774
-0.444106
-0.09984
-1.37018
-0.106125
-0.166953
-1.16842
-0.0841651
-1.90459
-2.41878
-4.98492
-0.995246
-2.8052
-0.00218493
-4.51773
-2.61041
-0.156702
-1.72876
-0.299211
-1.80533
-4.81826
-0.188103
-2.38448
-0.0482951
-0.237572
-0.0707418
-2.02868
-0.0210254
-0.121804
-0.0563328
-1.62438
-2.29012
-0.20099
-0.201807
-1.56872
-1.40574
-0.469542
-3.46069
-4.37998
-3.07385
-0.128293
-0.00310002
-1.90864
-1.73568
-0.107285
-3.85967
-0.095519
-0.0090557
-2.7586
-2.97869
-2.76016
-3.25018
-1.54096
-0.00784902
-0.402764
-0.640593
-2.39278
-0.132309
-1.95427
-2.87073
-0.134689
-4.3462
-2.05664
-2.29048
-0.825338
-0.819588
-0.832811
-1.84485
-2.88047
-1.27678
-2.01288
-3.6573
-0.0634619
-2.08639
-2.22627
-0.0842461
-0.0641039
-4.04247
-0.419455
-0.692646
0.45692
-0.00913744
-0.00879076
-5.62014
-0.562747
-0.972272
-2.0744
-4.44739
-4.24946
-0.151317
-2.30812
-1.28385
-2.76181
-0.923693
-2.18138
-2.28104
-1.35095
-2.04269
-2.32722
-0.0713836
-2.98358
-0.270594
-4.02129
-0.220798
-3.22334
-2.0741
-2.65246
-1.46496
-2.03176
-0.350748
-0.231833
-0.0402112
-0.106403
-3.9658
-3.18331
-0.165462
-1.05861
0.165046
-1.79022
-0.0810584
-4.12154
-2.04147
-2.0986
-1.8193
-1.65679
-0.148349
-1.60069
-2.025
-0.226913
-3.20022
-3.21013
-0.0920312
-3.22431
-0.160076
-2.06913
-4.87812
-2.28356
-4.00007
-5.39057
-1.21692
-0.11172
-2.98438
-4.18253
-0.0564336
-0.780076
-4.20009
-4.47354
-3.38023
-0.253864
0.0345004
-3.25778
-4.6342
-0.064288
-1.41756
-3.51196
-2.46455
-2.68798
-2.75612
0.0111003
-0.371052
-1.98185
-3.31431
-0.012743
-0.165407
-1.16553
-0.0610095
-1.28983
-0.0770376
-2.95188
-5.50695
-2.82271
-1.86803
-3.67078
-1.82987
-0.365903
-0.517999
-0.0379878
0.684233
-1.99731
-0.00178644
-0.092906
-0.0710683
-1.65735
-0.293751
-0.00224159
-1.0031
-0.717095
-3.37743
-2.09575
-3.18631
-4.55321
-1.54128
-0.341251
-0.93692
-1.36739
-2.2112
-0.252575
-3.78151
-1.15822
-0.526535
-0.0466729
-0.0377147
-0.128761
-3.36821
-0.0967515
-4.3118
-0.199039
-3.43086
-0.0404237
-0.161906
-0.0685556
-2.16183
-0.763384
-1.17512
-3.04993
-2.65904
-5.24046
-0.936322
-1.18015
-2.00351
-1.28535
1.14816
-0.131816
-0.412714
-5.57526
-1.77452
-0.0411089
-2.64552
-0.734459
-2.54304
-1.28521
-0.686271
-0.562301
-5.59844
-2.10063
-4.50128
-0.604818
-0.360085
-0.00130136
-0.0481908
-0.111271
-2.78077
-0.0685055
-0.226171
-0.685523
-1.03764
-1.07366
-3.89999
-0.150801
-4.03056
-1.88351
-4.72783
-0.148903
-4.56821
-2.01583
-0.0462529
-0.258567
-1.99634
-1.37525
-0.631667
-2.95399
0.457417
-3.84012
-0.125077
-3.24862
-1.78851
-0.223802
-0.0566042
-5.57041
-0.0750204
-4.47939
-0.0491399
0.00980885
-1.98754
0.0741657
-1.16138
-1.02492
-0.698491
-0.127834
-2.27296
-0.0715087
-1.37372
-2.09961
-0.0348117
-1.54603
-0.401728
-0.0367575
1.18114
-1.04067
-0.394755
-0.826526
-4.78188
-4.08336
-0.110941
0.0270258
-2.35804
-0.075401
-0.0473413
-1.98081
-0.0762559
-0.0253846
-0.687076
-0.129255
-1.99749
-2.96461
-0.240315
-0.0543747
-5.23844
-0.239364
-0.0182391
-2.1981
-3.68749
-2.64885
-0.104902
-3.21202
-1.05369
-3.50595
-0.572915
-0.678335
-2.08212
-2.99552
-1.97647
-1.17805
-0.249639
-0.122972
-1.13098
-1.43631
-2.53338
-0.0496478
-5.60535
-0.148704
-0.129517
-2.43555
-0.196492
-0.0111953
-0.113895
-1.97115
-1.56719
-0.667295
-1.73946
-0.136794
-2.06602
-0.0784801
-0.329108
-0.305033
-0.661322
0.685425
-0.157746
-5.06169
-3.64789
-0.0321997
-2.02876
-0.266666
-1.98957
-1.88719
-0.723461
-4.79707
-0.0509814
-2.97651
-0.932813
-1.01773
-0.962069
-0.728657
-0.116414
-2.38234
-0.0618106
-3.26045
-2.16154
-0.543986
-2.0655
-1.25434
-5.5693
-0.00797554
-1.99652
-0.750374
0.716774
-1.15956
-2.90389
-0.94868
-0.0380442
-0.446205
-1.28283
-2.5956
-2.66601
-2.96105
-2.05116
-5.05226
-3.13193
-0.14338
-1.15369
-0.193351
-1.95392
-3.43581
-0.0342553
-2.32989
-0.111245
-0.290798
-0.0187313
-0.00139158
-0.00109823
-1.94286
-0.532518
-1.87444
-0.803509
-5.24416
-2.21624
-1.07453
-0.551796
-0.231817
-0.100823
-0.0188382
-0.196039
-3.56033
-2.53256
-2.07777
-0.0178669
-2.10913
-1.27362
-1.1443
-1.81517
-0.207013
-0.341001
-0.0442932
-0.225771
-0.197734
-0.95357
0.00913293
-2.34926
-0.20646
-0.0355108
-4.25177
-0.251486
-1.81983
-0.0876125
-0.247743
-0.244522
-1.84383
-1.85047
-1.46708
-3.28936
-2.22597
-1.23416
-0.0749841
-0.256366
-1.19052
-0.11308
-2.67041
-2.59187
-0.0498805
-1.5463
-5.53036
-0.215918
-4.26542
-0.111614
-0.567907
-2.20644
-0.456836
-2.66693
-2.0582
-1.34804
-2.35436
-0.135255
-5.03089
-0.0427588
-1.61669
-1.68501
-3.24072
-0.611749
-4.09321
-1.38237
-2.17061
-1.71819
-0.624561
-1.36449
-3.98245
-0.0354151
-2.28402
-0.0865162
-1.76591
-2.07631
-3.03536
-0.147067
-0.259943
-2.71924
-0.0324677
-2.62122
-0.407061
-3.80626
-3.29045
-1.80016
-1.08795
-1.47318
-1.3873
-2.06559
-1.3014
-0.100415
-2.84065
0.767644
-0.360505
-3.33581
-5.22085
-2.23891
-1.31815
-0.484495
-1.90331
-0.146988
-2.45024
-0.984945
-0.0249522
-0.225776
-0.0540386
-2.44897
-0.294575
-1.17179
-0.202093
-2.26203
-1.24463
-0.341132
-1.32418
-0.301421
-0.97272
-0.573519
-0.0494231
-0.153366
-1.58206
-3.12933
-0.93355
-0.0885776
-1.33305
-0.101812
-0.329355
-1.61908
-2.3948
-0.752437
-2.42058
-3.21149
-0.547791
-0.452247
-1.77155
-0.450097
-0.449908
-1.97753
-3.27738
-1.18042
-0.00886444
-0.0974666
-1.29319
-0.146816
-0.0851467
-0.0533765
-2.29705
-0.0866453
-0.165815
-1.38363
-0.00285224
-0.3594
-0.0403124
-1.94691
-0.147385
-0.246894
-0.0394439
-4.76838
-2.63829
-0.565798
-4.01666
-0.0829719
-0.0102919
-1.27604
-0.346135
-0.0471566
-1.16665
-1.10088
-0.0969545
-3.3065
-0.297513
-0.209115
-0.994993
-0.551267
-0.0799049
-0.421016
-0.0594304
-3.42006
-2.14834
-0.0546355
-1.56166
-0.0855351
-1.86073
-2.10559
-1.82529
-0.00420834
-0.162917
-0.526998
-4.76163
-0.564962
-2.40737
-0.273081
-0.0791952
-0.0357921
-0.059888
-3.92748
-1.4742
-2.03544
-0.566423
-0.238267
0.638808
-2.1997
-2.69462
-0.0590966
-1.62103
-1.76726
-1.78883
-2.40691
-4.05562
-2.47012
-2.28402
-1.37609
-2.39004
-1.14632
-3.257
-0.102745
-3.28333
-3.4979
-2.39371
-0.728375
-0.737895
-0.250254
-2.64704
-1.93599
-1.46078
-2.55356
-1.39583
-1.96636
-0.075064
-0.722732
-0.333963
-0.0397926
-0.0837099
-2.45102
-0.0228059
-1.30893
-0.767261
-1.28258
-2.09215
-0.0710097
-1.99115
-1.39039
-0.0532355
-2.37452
-1.02475
-0.0956335
-1.31108
-2.89415
-0.00118213
-1.89065
-0.203466
-2.47213
-4.03911
-2.08867
-1.3478
-0.0948922
-0.0762595
-2.40498
-1.92817
-1.95394
-0.248169
-1.5624
-1.46262
-3.30243
-1.05468
-0.00184909
-2.21901
-1.21539
-0.617072
-4.51177
-0.991772
-1.28077
-0.274586
0.2574
-0.0434247
-1.57966
-2.28414
-1.92911
-2.64077
-2.56671
-0.86755
-1.8969
-0.0599622
-0.0844194
-0.103332
-0.0794248
-2.39476
-1.24573
-1.35401
-2.7134
-0.00752182
-1.36271
-4.01606
-0.226928
-0.329805
-0.0843335
-1.79063
-0.554721
-2.73094
-0.0350306
-0.0364285
-0.252708
-0.124549
-0.263786
-4.86448
-2.41456
-4.91792
-4.87022
0.417402
-1.98036
-0.315919
-0.0799542
-4.85898
-0.0801039
-0.0491438
-0.278163
-0.708458
-0.177213
-0.300909
-1.80668
-0.0149126
-2.89804
-1.62843
-0.614393
-0.0690494
-0.572093
-2.88157
-2.05205
-3.23963
-4.27523
-0.0429178
-2.91933
-2.21434
-0.0875278
-0.0351522
-0.142681
-0.348004
-2.06467
-4.98368
-0.197375
-0.419327
-4.31273
-0.0862671
-1.04898
0.0427813
-3.01789
-0.215255
-0.0736916
-0.145147
-3.97626
-3.37117
-1.04528
-0.922813
-2.19255
0.0256032
-1.76999
-0.0227604
-0.0338272
-0.0255645
-4.81343
-1.96058
-3.95039
-1.6456
-1.94958
-2.60301
-3.88954
-4.36125
-0.00152596
-3.48597
-2.15419
-2.23064
-0.0280557
-0.0236398
-0.184019
-1.95404
-3.16885
-1.62381
-2.93856
0.546885
-0.259174
-0.0284159
-0.0485538
-2.74797
-0.269699
-1.98153
-0.033248
-3.27636
-0.55732
-0.0571662
-0.655168
-1.56809
-1.9887
-0.0089992
-0.203659
-2.81869
-3.23813
-2.20009
-0.96005
-0.241936
-0.422755
-0.261074
-1.39766
-3.0393
-1.38105
-0.0962329
-2.88619
-0.00122932
-0.164856
-2.5226
-0.821238
-3.019
-1.8589
-0.298901
-1.95952
-2.95572
-0.0288431
-2.96029
-0.288694
-0.294409
-0.0589165
-0.037073
-1.7792
-4.70811
-0.277003
-0.930827
-0.45047
-2.64594
-1.22094
-0.104046
-0.0805308
-0.0683216
-1.91307
-0.058869
-0.0891878
-0.0185738
-1.14635
-2.07502
-0.324903
-2.87804
-1.26201
-2.94128
-1.2384
-1.79292
-1.95792
-0.0291559
-5.53999
-1.96116
-0.733119
-2.48755
-0.0859747
-2.1555
-0.409246
-1.05782
-0.225814
-2.67673
-2.92282
-2.54925
-0.00302201
-2.94263
-0.0289259
-0.14509
-3.67206
-0.0797374
-1.81844
0.437218
-1.04067
-0.288251
-0.0946813
-2.09449
-1.91968
-1.10987
-1.97861
-3.04926
-0.079873
-0.078354
-2.91371
-1.71892
-0.555513
-0.034673
-4.17617
-0.450518
-1.48406
-0.414351
-0.00807019
-4.54479
-1.7724
-0.826061
-2.08904
-0.00954582
-3.36389
-0.242509
-2.86419
-2.96966
-0.885752
-1.16738
-0.085388
-1.80842
-3.71978
-0.0861493
-0.0741047
-1.27583
-2.1373
-2.01382
-1.8438
-3.50802
-4.439
-0.00293003
-0.0331807
-3.40751
-1.65768
-1.31398
-0.0781602
-2.26287
-0.0795449
-0.00106187
-0.101646
-0.493216
-0.847922
-0.0130483
-0.937722
-3.24811
-2.06688
-0.161114
-1.60926
-0.470165
-2.06864
0.00748643
-1.18662
-0.0558033
-2.58355
-3.3743
-1.80397
-0.0785099
-2.00396
-0.795323
-1.18843
-2.02693
-0.0123277
-2.16302
-0.0019667
-3.53564
-2.84595
-0.88323
-0.105218
-0.0350118
-2.03031
-0.968319
-2.38442
-0.0378252
-4.98726
-2.4093
-0.223009
-0.0833739
-3.00445
-1.32736
-1.12429
-1.4756
-0.0803412
-1.99693
-0.556388
-3.28772
-0.136876
-1.09877
-2.35346
-3.71517
-0.100256
-3.00754
-3.52254
-2.16158
-1.65442
-0.115876
-1.7732
-1.78891
-2.01315
-0.0931855
-2.71514
-0.720248
-0.0135874
-3.98921
-0.0549968
-0.304239
-1.01119
-0.0799505
-0.222565
-1.98942
-0.134275
-3.50246
-2.35586
-1.84053
-0.0592318
0.284041
-0.0412205
-0.0683247
-0.769934
-0.0297556
-0.518631
-0.328592
-2.98989
-2.00357
-1.64239
-4.16607
-2.03549
-1.72395
-0.0418924
-4.05921
-1.58487
-3.776
-0.0354568
0.505428
-0.958769
-2.30684
-0.102641
-0.688149
-0.0355568
-1.8318
-0.0366853
-2.27495
-0.106526
-2.36713
-0.0882016
-0.00664623
-1.52358
-0.0362455
-2.11665
-0.33288
-2.16941
-0.0281556
-2.07608
-2.67938
-1.734
-1.44494
-1.92892
-0.696141
-0.0244717
-1.3507
-2.3395
-0.17203
-2.24409
-1.99883
-0.00880009
-0.148145
-1.34385
0.375672
-3.38647
-0.92268
-2.19469
-0.0602946
-0.162437
-1.01031
-1.33516
-1.0244
-1.78564
0.0488639
-1.8235
-1.43539
-1.85245
-1.62739
-1.12697
-0.332136
-2.30411
-0.51957
-2.33309
-0.360721
-3.95577
-0.873436
-3.12124
-0.0244892
-1.73433
-0.0486783
-2.11754
0.264594
-5.45837
-0.25688
-3.13963
-1.77746
-0.0310148
-0.693322
-1.3036
-0.71007
-2.04145
-1.45766
-0.0748995
-0.614537
-1.85253
-0.0977257
-1.51422
-0.0720483
-2.31759
-0.2466
-1.77935
-0.0981568
-0.0368367
-1.95579
-0.809095
-4.10615
-0.259502
-1.8435
-1.80743
-3.28887
-0.0569197
-1.62756
-1.86477
-4.02765
-1.48981
-0.0795206
-3.33366
-0.977229
-0.513534
-1.39809
-0.0537044
-4.50167
-0.954424
-0.0446403
-0.0568334
-0.0868892
-2.43238
-0.000359442
-0.16145
-0.0627219
-0.0201246
-0.0798026
-1.15743
0.781922
-0.0706233
-2.121
-0.0199547
-2.45039
-0.731098
0.0119766
-2.21984
-0.0813597
-2.06193
-0.745454
-0.258163
-0.682098
-0.0393502
-1.88278
-0.0683513
-1.72322
-0.30221
0.159921
-1.51081
-0.0338226
-2.30383
-0.0784049
-1.47144
-2.06381
-0.225784
-1.63706
-0.0975563
-1.80371
-1.17401
-3.96204
-1.73423
-0.136651
-4.03258
-0.0309755
-1.32181
-0.249719
-1.00246
-2.22211
-1.19062
-2.23384
-0.00763082
-3.73816
-2.86556
-2.80699
-2.09648
-0.378157
-4.02934
-0.0102283
-0.151489
-0.132525
-1.38184
-2.02548
-0.081944
-3.92244
-0.954817
-0.265382
-2.00627
-0.0721028
-0.175529
-0.0805274
-0.0348489
-3.10222
-0.297223
-2.06512
-0.0345694
-0.0726543
-0.057217
-0.216908
-0.0355661
-2.61425
-3.7187
-2.07346
-0.146846
-0.827966
-0.580307
-0.406709
-0.129691
-1.98178
-1.85275
-1.51241
-0.313883
-0.0711238
-2.58107
-1.45968
-2.57301
-0.0985851
-5.25853
-1.95334
-0.0557255
-0.694196
-1.7886
-0.0821143
-1.16737
-0.0486991
-5.02719
-0.862706
-0.131307
-0.15053
-1.69587
-0.000818602
-3.88038
-1.27296
-0.00910943
-0.0356933
-2.06588
-1.33473
-1.94515
-1.82899
-0.0559494
-1.98155
-1.35201
-2.14245
-0.0960147
-1.83777
-0.0897472
-2.43997
-0.0748487
-2.27959
-0.00690626
-0.717954
-1.29678
-4.35553
-2.03652
-1.71396
-0.079649
-3.87884
-0.310365
-0.999535
-3.0838
-0.711958
-3.11546
0.397173
-1.65154
-3.42687
-0.21478
-0.0564506
-0.0570489
-2.3414
-0.0710061
-0.293597
-3.2088
-0.405014
-0.0481416
-0.0776463
-1.96495
-0.525663
-0.253196
-1.88971
-4.02326
-3.05771
-0.03492
-3.26727
-2.85278
-3.90634
-3.3564
-3.48043
-1.47002
-0.0464118
-0.330144
-0.158497
-2.40889
-1.92848
-3.92331
-1.72021
-0.0560092
-2.10852
-2.07621
-0.0291708
-1.7938
-0.510863
-0.0363513
-0.274819
-3.43286
-0.216451
-3.36127
-2.02796
-2.30719
-1.22405
-0.0643936
-0.00235099
-0.116727
-1.6263
-1.93448
-1.69227
0.0100606
-0.383185
-0.230334
-2.4821
-0.0341385
-2.87108
-0.0788706
-0.532484
-0.492662
-0.174971
-3.34939
-1.14835
-0.729921
-1.44784
1.11974
-3.06881
-1.94114
-3.20514
-2.27648
-2.87217
-0.712751
-2.21448
-2.76199
-2.1134
-1.51241
-0.054461
-0.015007
-0.000840002
-2.97878
-0.113194
-0.15233
-0.0134121
-2.21557
-0.0903982
-0.0168747
-3.66685
-4.29851
-0.00848632
-0.0334436
-0.300281
-5.02772
-0.124327
-2.00718
-0.548424
-1.36614
-1.18144
-4.2831
-1.9365
-2.82384
-2.25334
-0.121448
-0.127368
-1.9057
-0.1397
-1.08314
-0.0555449
-1.46625
-1.4789
-0.16045
-2.8828
-0.873101
-0.730808
-1.12407
-0.0349256
-4.26392
-0.0979706
-0.55239
-0.0700289
-0.038949
-1.96986
-0.57404
-0.00284479
-3.10517
-0.145205
-0.072468
-4.75283
-0.25559
-1.92555
-2.84803
-0.0616232
-0.0824081
-4.00019
-1.33043
-0.0466226
-4.46405
-1.34702
-2.33495
-2.57382
-1.31025
-1.15505
-0.699734
-3.24518
-2.20354
-0.0877619
-0.60282
-1.96819
-0.0058705
1.07008
-1.96172
-0.000850903
-2.09073
-2.06883
-5.1533
-3.39338
-1.65354
-1.8427
-0.195551
-0.909374
-0.00113578
-0.146284
-2.89542
-1.46439
-1.50598
-0.095291
-2.22686
-0.178368
-0.114151
-0.0558169
-1.78055
-0.185981
-1.73094
-0.000788452
-0.135886
-0.435466
-0.078848
-4.45095
-2.08943
-2.34976
-1.24987
-3.85298
-4.73224
-0.251491
-0.041272
-2.85879
-0.778844
-2.29651
-0.344321
-1.88359
-0.0954366
-0.0992775
-0.164382
-0.108455
-0.0816556
-2.88329
-0.160439
-2.2714
-0.0272091
-1.81047
-0.0239259
-2.14051
-1.26922
-2.93124
-3.38759
-1.32701
-0.0259239
-3.07869
-3.71234
-2.13472
-2.20815
-2.36369
-1.51098
-2.11489
-5.47743
-2.33252
-4.66664
-3.17731
-0.774234
-1.65981
-0.102844
-2.1013
-1.71898
-0.0917848
-0.0134675
-2.46798
-0.0864591
-2.33791
-2.4971
-4.54334
-0.0252339
-0.705154
-1.05077
-2.27509
-0.201738
-2.09762
-3.37619
-1.6561
-0.136749
-0.0764556
-1.79036
-2.08406
-2.16346
-0.765503
-0.0809075
-0.0550949
-2.35815
-4.02035
-1.82113
-3.6811
-0.807004
-4.80071
-2.35641
-3.49934
-3.09049
-1.62469
-1.4544
-3.25003
-0.313294
-0.0342372
-2.14288
-3.69018
-0.391999
-0.0595334
-2.14052
-3.15678
-1.35248
-2.03522
-1.0984
-0.990416
-0.13797
-2.06692
-4.42964
-0.673377
-0.0293891
-1.67659
-1.31975
-0.0813175
-0.255856
-1.94617
-2.08218
-0.262177
-1.14399
-2.41307
-1.24858
-1.48256
-2.82328
-0.0594509
-2.07162
-2.37687
-0.0613089
-0.0027708
-0.127353
-1.96503
-0.12131
-0.711346
-4.0074
-4.84167
-0.0947357
-0.963628
-2.01191
-1.83613
0.324128
-2.3004
-3.9733
-0.00953942
-1.151
-0.324107
-0.081223
-1.05979
-2.20379
-2.61314
-0.205887
-0.78604
-1.6721
-2.12263
-0.0271129
-1.85637
-0.0780337
-3.24672
-1.11198
-1.15987
-0.0324458
-4.0231
-3.0951
-0.00151459
0.242911
-1.91277
-0.0753982
-0.0580944
-0.0963809
-2.21252
-3.00671
-0.00154179
-0.0880526
-0.0502027
-0.0522044
-0.381059
-0.0886751
-0.121607
-0.161239
-0.148071
-0.07625
-0.0872378
-0.0748036
-1.44085
-0.00839006
-0.00897272
-3.93848
-2.85415
-2.10343
-1.48503
-3.29669
-0.221185
-0.14682
-0.000463885
-0.572078
-2.55867
-4.39331
-3.89383
-0.0701967
-1.80334
-3.69616
-2.4959
-1.05186
-2.81807
-1.35466
-1.57962
-0.0334609
-1.14976
-4.21471
-0.10393
-2.60068
-3.1048
-0.041886
0.494464
-2.1416
-0.151633
-2.28084
-3.03354
-0.712301
-0.781696
-0.0481241
-1.18199
-1.18075
-0.0015423
-1.89358
-0.0515059
-0.0955564
-1.67767
-3.3612
-0.119242
-0.511022
-0.0087126
-2.26934
-0.363097
-2.32354
-1.31995
-0.129201
-0.0781872
-0.271646
-2.96025
-5.10216
-4.49114
-0.0851882
-2.8805
-2.30454
-0.296942
-0.0494991
-0.110756
-2.13075
-3.79347
-0.615968
-3.07674
0.838547
-0.3532
-1.67304
-3.30238
-1.93731
-1.17132
0.0136096
-0.160026
-2.81252
-0.0412081
-0.418763
-2.2133
-1.9624
-1.70672
-2.97408
-2.02892
-0.503149
-1.96229
-2.51825
-2.25049
-4.81215
-2.01192
-3.10855
-0.0817147
-4.49961
-1.62462
-0.211168
-1.66429
-0.0572478
-0.961845
-1.28795
-0.402575
-2.15697
-0.0834474
-1.1919
-4.45112
-2.35335
-0.0484281
-0.105446
-0.0376455
-0.0443365
-2.28304
-2.60547
-0.632894
-0.0890526
-1.30109
-0.0258896
-0.135131
-0.177279
-0.0685888
-4.92144
-2.14075
-0.62591
-2.60423
-0.0816351
-2.14098
-1.84035
-1.01653
-0.310048
-0.204573
-1.94989
-1.77363
-0.115148
-0.0448721
-0.569891
-3.55031
-1.56421
-1.84895
-0.376673
-1.19981
0.278663
-0.262522
-0.299566
-2.97812
-0.167254
-0.0846348
-0.0502656
-0.00136368
-0.0804173
-1.91836
-2.58307
-0.872402
0.540427
-0.117787
-0.0760013
-0.0614949
-2.85692
1.12178
-3.91187
-3.16713
-1.88357
-0.0346499
-0.246209
-2.90411
-0.718906
-3.4076
-0.981492
-4.40269
-3.88074
-0.435985
-0.0950739
-4.71721
-0.152526
-0.258872
-2.99989
-0.79249
-4.49956
-3.29728
-0.447047
-1.64934
-1.05193
-2.09546
-1.73997
-3.13287
-2.94468
-0.0861959
-0.612387
-3.55125
-1.31083
-0.141484
-0.0140396
-4.24598
-4.37295
-0.0750084
-2.17502
-2.71827
-2.8389
-1.09676
-0.117081
-1.11716
-1.98646
-2.1111
-3.53072
-1.30091
-0.757367
-1.96889
-1.17051
-2.24508
-0.164522
-1.37336
-0.0816348
-2.84424
-1.89602
-1.74119
-0.41308
-0.104899
-2.80779
-4.751
-2.80827
-4.08671
-0.025661
-1.87401
-3.00312
-3.27313
-0.360627
-0.723827
-1.04884
-0.150326
-2.36394
-1.50387
-3.89378
-0.511696
-0.443144
-0.060121
-0.0912739
-1.75995
-0.0120339
-1.50069
-1.87987
-2.09771
-0.0642251
-0.207598
-0.0938283
-0.451155
-3.78764
-1.09805
-2.23615
-2.83439
-4.08868
-0.169257
-0.187637
-0.425094
-0.170241
-0.0417022
-1.61596
-0.131578
-1.67078
-0.655589
0.00517384
-2.48004
-0.214948
-1.07833
-0.0666291
-0.0755002
-1.70498
-1.74089
-4.82379
-1.87303
-0.400334
-3.06918
-4.43104
-4.42439
-0.0611644
-0.170194
-1.80437
-2.01331
-1.46802
-1.85144
-0.0126794
-1.0745
-1.02123
-0.376642
-3.52278
-2.0654
-0.084222
-0.104889
-1.96411
-1.30281
-0.0821913
-0.0899236
-2.2728
-1.79252
-2.98273
-1.88303
-0.207298
-0.50391
-1.34225
-0.137366
-0.614077
-0.629119
-4.89456
-2.50727
-0.0929412
-0.18419
-4.30698
-2.57054
-2.0909
-4.01453
-1.96361
-1.76923
-0.180621
-4.44736
-1.45774
-0.227113
-0.367854
-0.237812
0.0320105
-0.487203
-1.56032
-2.11412
-0.0747453
-3.36547
-1.14031
-0.0120385
-0.643111
-0.0835611
-0.720555
-1.96352
-2.46597
-1.17223
-4.63328
-1.26246
-0.0578111
-0.142104
-0.163498
-2.48333
-5.58578
-0.812417
-0.0798821
-2.01395
-2.08822
-0.0686627
-0.546753
-2.95483
-0.0791775
-2.93104
-0.0773838
-0.443869
-2.05318
-0.979884
-1.10065
-0.0447062
-0.0189106
-3.13044
-0.28077
-1.00114
-0.118322
-0.729696
-0.0764095
-3.24349
-0.145113
-2.39639
-1.68532
-1.41462
-2.07971
-0.0397974
-2.17928
-0.0791271
-1.95797
-0.130772
-0.288562
-0.775203
-1.81893
-2.60419
0.793364
-2.06911
-0.641347
-3.02924
-3.33996
-1.90937
-0.717645
-2.87845
-0.119545
-1.73556
-1.08135
-0.0699479
-3.83067
-4.06948
-0.0522927
-2.31485
-1.87161
-1.70265
-0.0159433
0.00560861
-2.00562
-1.55099
-1.44322
-1.79548
-0.345522
-2.63644
-2.80397
-2.16915
-2.8192
-1.83309
-0.564887
-0.0682814
-1.83633
-1.95542
-3.98866
-0.000512964
-0.660481
-0.63092
-2.07842
-3.87368
-1.38101
-1.99888
-0.0789117
-2.16425
-3.26532
-2.10217
-3.80008
-1.13309
-1.54525
-0.227624
-2.15692
-1.96247
-0.0783126
-0.299573
-1.95332
-0.0604087
-0.0352317
-2.1013
-0.0315726
-0.0803497
-0.0574021
-2.0775
-1.57566
-1.79338
-0.109881
-1.27395
-0.501525
-0.0751733
-1.41632
-1.40097
-3.74992
-0.997306
-1.89724
-0.119819
-0.112806
-0.131013
-1.15834
-2.08078
-4.4475
-2.15733
-1.86281
0.0347792
-1.98456
-2.07302
-2.41777
-2.44779
-3.11596
-0.835898
-1.44005
0.457808
-2.13308
-0.0464383
-1.75564
-2.03035
-0.0230988
-4.42924
-1.79921
-3.11595
-0.115205
-0.0315763
-1.57983
-1.82661
-2.87898
-0.0849572
-1.82495
-2.61457
-2.05945
0.0348398
-1.16268
-2.29117
-0.0850378
-2.31894
-1.0758
-1.92552
-5.09407
-0.215736
-0.92426
0.612082
-1.82852
-4.94924
-2.67651
-0.205359
-0.234884
-0.446071
-2.15069
-0.225365
-0.823818
-1.77318
-4.62295
-0.65317
-0.212785
-0.0821171
-0.158635
-3.23252
-0.763513
-2.09066
-0.0534314
-1.7313
0.0572364
-0.93968
-0.0403911
-3.29927
-0.0849327
-0.0280405
-2.87407
-1.40637
-0.644052
-1.34514
-1.40257
-1.19089
-0.146105
-4.36482
-3.52713
-0.437468
-1.32687
-5.09124
-0.324578
-0.286035
-0.539251
-2.76455
-1.75766
-3.92186
-1.68271
-1.69551
-0.302593
-0.48713
-0.047229
-0.0691252
-0.877197
-1.00824
-1.09212
-3.73886
-0.0258821
-1.96795
-0.700103
-0.0524009
-1.06413
-0.0456681
-2.09134
-2.41992
-2.90057
-2.51176
-2.50758
-1.69395
-1.67155
-1.73914
-0.174372
-2.14886
-1.71706
-0.0727276
-1.1985
-0.211901
-0.463589
-0.107422
-3.32279
-4.93251
-1.05361
-1.1851
-0.804051
-0.406897
-3.26722
-1.88374
-4.01962
-4.78025
-0.0631733
-0.986402
-2.63524
-0.0609596
-1.17104
-1.94901
-0.00977567
-1.40736
-0.0509689
-0.0804174
-3.96034
-1.99569
-0.0721667
-4.43734
-0.0890209
-1.12925
-3.66458
-1.93176
-0.381103
-2.08249
-1.73038
-1.27424
-0.0517752
-1.84143
-4.05437
-0.381136
-0.470732
-1.86923
-1.00799
-4.71443
-0.00205384
-1.62258
-0.00193336
-2.37242
-0.407726
-1.71947
0.836763
-2.57263
-0.15198
-2.22465
-2.07594
-0.140365
-0.545248
-0.588032
-1.51436
-0.000223877
-2.66937
-1.99054
-1.07978
-0.0464924
-3.88037
-0.238186
-1.70597
-1.77955
-1.54492
-2.06134
-4.05831
-3.02873
-2.35131
-0.128042
-0.453478
-0.0787363
-0.132517
-2.07446
-1.71238
-0.142021
-2.9411
-0.03909
-0.937471
-0.102704
-1.32678
-3.15162
-0.0456487
-0.0649937
-0.68817
-0.0798565
-5.24011
-0.91857
-3.90966
-0.223875
-2.20629
-5.2764
-0.318255
-2.87821
-1.0584
-0.0988153
-4.9841