/*--------------------------------*- C++ -*----------------------------------*\
  =========                 |
  \\      /  F ield         | OpenFOAM: The Open Source CFD Toolbox
   \\    /   O peration     | Website:  https://openfoam.org
    \\  /    A nd           | Version:  7
     \\/     M anipulation  |
\*---------------------------------------------------------------------------*/
FoamFile
{
    version     2.0;
    format      ascii;
    class       surfaceScalarField;
    location    "0.1";
    object      phi;
}
// * * * * * * * * * * * * * * * * * * * * * * * * * * * * * * * * * * * * * //

dimensions      [0 3 -1 0 0 0 0];

internalField   nonuniform List<scalar> 
176195
(
203.694
47.3113
-251.005
-473.774
102.001
371.774
-110.942
-79.889
190.831
113.987
-279.248
165.26
-434.873
323.742
111.131
138.022
-337.249
199.227
-169.008
281.436
-112.428
-89.0376
189.588
-100.551
-363.402
352.029
11.3728
-465.117
-8.65693
-230.023
354.542
-124.52
494.944
-360.238
-134.706
-170.594
341.385
-170.79
94.8409
-96.3768
1.53588
-43.8989
-319.503
-112.109
66.3273
45.7813
-456.092
86.4058
369.687
-411.653
76.9903
334.663
-147.685
287.952
-140.268
-332.019
-102.854
-81.2619
177.361
-96.0989
199.944
-197.856
-2.08714
392.917
-290.411
-102.507
161.337
-314.624
153.287
-263.953
222.73
41.2222
-108.925
207.42
-98.4943
52.3751
66.3189
-118.694
-206.325
456.293
-249.968
-263.275
-175.886
439.161
-67.987
96.5111
-28.5242
427.848
-342.063
-85.7847
-234.684
-67.3479
302.032
-269.005
403.905
-134.9
-101.382
-77.6488
179.031
-111.375
-87.8314
199.206
182.195
95.7766
-277.971
-211.398
66.2029
145.196
-99.6034
-356.489
93.1107
-130.449
37.3383
88.6398
211.157
-299.797
153.554
-388.238
-57.5508
-354.102
-130.239
-38.96
169.199
-119.397
301.592
-45.5269
106.364
-60.8371
-2.81784
97.6588
266.198
62.1708
-328.369
541.407
-302.023
-239.384
397.33
-146.917
-250.413
414.098
-534.026
119.928
-390.72
478.198
-87.4779
280.56
-101.962
-178.598
-460.562
319.274
141.287
-504.401
451.004
53.3968
-117.659
-167.499
285.158
-306.091
-154.471
542.063
-357.506
-184.557
-136.345
81.2027
55.142
71.2221
68.5925
-139.815
131.035
-232.004
100.969
-515.383
327.453
187.93
-186.36
332.538
-146.178
346.192
-129.465
-216.727
-107.373
188.362
-80.9883
295.908
87.1661
-383.074
9.38518
-400.946
391.561
-352.024
196.632
155.391
-211.161
387.061
-175.9
61.0892
-120.984
59.8947
-523.201
248.582
274.618
-117.428
189.8
-72.3724
169.126
-129.829
-39.2966
350.425
-261.785
-139.463
70.0607
69.4021
-83.2503
-96.4831
179.733
83.2233
-168.24
85.0171
-189.053
49.9061
139.146
202.06
-403.152
201.091
-267.759
-113.096
380.856
-271.484
199.106
72.3776
-74.206
-197.278
429.79
-432.787
2.99751
50.873
-86.9634
36.0904
-301.847
550.42
-248.573
-137.809
241.435
-103.626
342.478
152.466
-112.503
180.326
-67.8232
-324.478
472.879
-148.402
107.448
-120.976
13.5278
-86.6849
441.518
-354.833
124.08
-12.4104
-111.67
203.587
-19.6061
-183.98
206.521
-469.795
221.738
49.9844
-271.723
-420.699
315.362
105.338
-574.824
416.798
158.026
262.05
-321.899
59.8489
99.8019
-48.929
69.2201
-146.216
76.996
-0.522619
107.97
-314.456
-200.927
193.986
-427.021
233.035
327.592
-180.461
-147.13
-484.544
498.375
-13.8312
79.5338
-196.961
166.45
-83.0847
-83.3652
-502.332
297.082
205.25
-31.1081
100.391
-69.2828
-146.786
226.031
-79.2449
-311.325
-71.1492
382.475
-109.619
211.797
-102.179
-54.6641
316.714
-156.44
-32.6125
137.825
103.971
-241.796
-138.682
47.9456
90.7364
207.331
-346.096
138.766
-307.632
77.6092
-69.1622
195.051
-125.889
363.999
-541.562
177.562
42.1209
127.005
-186.039
116.877
-71.666
-40.4427
-225.222
114.768
110.453
44.9249
-152.077
107.152
-230.665
532.612
-301.947
-105.985
37.9978
-266.071
79.7109
-124.933
59.2662
65.6664
-181.327
-41.7314
223.059
-496.703
499.2
-2.49747
-95.5637
226.377
-130.814
567.081
-287.707
-279.375
-163.63
162.053
1.57657
538.905
-196.426
-329.44
480.842
-151.402
-146.415
229.225
-82.8104
-273.177
208.269
64.9082
59.3943
-328.4
149.298
-266.956
182.867
149.671
77.1994
33.4351
-110.634
-188.955
340.968
-152.013
502.968
-504.529
1.56107
366.924
-193.907
-173.017
-256.898
161.334
141.955
-532.675
435.851
-326.825
-109.026
-116.807
-149.264
-438.743
227.582
-227.195
-166.815
394.01
113.264
53.1857
52.8325
-98.3594
6.96931
196.617
-567.957
273.279
294.678
133.457
147.103
-355.48
424.917
-69.437
-412.196
100.87
-68.7433
206.165
-137.422
135.697
-135.823
0.126664
-153.783
104.098
49.6843
153.849
-70.6252
139.79
296.061
158.437
187.755
-186.262
150.37
35.892
265.115
-147.089
-118.026
139.893
173.611
-313.504
434.372
-249.608
-184.764
-54.7998
-111.057
165.857
-178.379
109.636
-243.403
127.708
115.695
-242.836
158.902
83.9335
-98.1723
364.371
-77.556
-33.5382
111.094
26.6828
66.421
-93.1038
-65.2237
-88.3247
153.548
212.734
-425.652
212.919
-78.1838
104.867
194.603
85.1864
-279.789
118.809
-333.198
214.389
278.143
119.187
-283.476
-133.112
416.587
-187.099
103.849
116.324
-246.907
130.584
-196.439
401.474
-205.035
-250.811
-251.521
-162.333
384.899
-222.565
94.9659
-262.428
167.462
312.007
187.993
-126.958
316.351
-189.394
108.88
15.2005
-105.601
300.204
-338.762
190.961
147.802
447.85
-142.572
-305.278
-206.783
116.619
90.1644
-214.108
105.183
79.4008
-131.348
51.9469
21.0273
-99.2111
-174.146
164.958
9.1875
59.0316
-150.445
91.4139
76.5008
141.844
-218.345
-556.283
376.827
179.456
-219.941
363.413
-143.472
355.985
59.2552
-415.24
481.28
-479.321
-1.9592
-339.504
169.121
170.383
138.736
-94.3001
-44.4357
370.074
-271.632
-98.442
-87.2859
383.194
-206.538
-194.431
400.969
104.657
-207.773
103.117
-74.3376
95.3649
18.3416
278.741
5.98732
-269.94
-384.197
297.512
-158.295
-69.1992
227.494
-88.9442
-117.839
-99.932
240.587
-140.655
-185.554
-133.345
318.9
84.4612
-87.279
-123.544
-261.52
385.064
137.071
3.60171
-140.672
139.079
-2.95582
-136.124
137.751
-330.326
192.574
-77.2499
142.057
-64.8072
-73.5445
-430.857
-205.999
45.6759
160.323
-194.863
-85.152
280.015
188.163
-68.6508
-119.512
139.236
-59.8355
-355.619
86.773
268.846
-1.71935
-405.875
407.594
65.6838
-119.846
54.1626
29.6686
-102.756
73.0872
88.6355
-178.624
89.9884
-228.942
125.35
103.591
-224.394
-331.889
-641.681
285.4
356.281
391.703
-206.286
-185.418
-49.4257
158.988
-109.562
240.393
-166.802
-73.5911
-47.8994
134.313
-86.4134
-290.902
158.906
131.997
-110.362
-43.421
136.771
-67.5514
278.609
-217.561
-61.0476
-235.411
407.594
-172.184
431.58
-212.895
-218.685
137.857
-88.6718
-49.1856
-161.721
106.921
-63.5159
-37.683
101.199
212.547
272.552
-485.1
-370.894
241.453
129.441
221.601
-519.72
298.12
387.46
-237.566
-149.894
125.817
-102.381
-23.4363
-3.26107
-280.214
-60.5429
157.276
-96.7331
-554.102
295.524
258.578
503.601
-503.601
-181.902
92.8647
368.356
-371.617
-4.25923
88.7204
-462.748
266.309
-108.499
114.336
-5.83761
36.5902
-183.376
258.832
-144.844
-90.5556
135.48
179.848
-280.321
100.473
89.5879
91.4613
-181.049
-97.4676
188.626
-91.1587
415.222
-131.524
-283.698
-318.505
191.547
427.584
-149.441
-215.131
-75.771
141.046
178.441
-319.487
-191.451
104.239
87.212
40.6847
-100.908
60.2229
-169.05
103.826
-249.911
297.958
-48.0478
82.675
-113.783
-126.079
-60.1824
97.2814
184.909
-404.85
219.94
69.4741
69.2617
456.511
-254.475
-202.036
174.092
202.702
-376.794
39.1759
-245.174
486.889
-496.511
9.62222
120.516
-65.7625
-54.7534
80.4845
-133.28
52.7953
110.426
-69.7413
-500.323
66.1244
434.199
-147.89
28.9794
118.911
348.916
-330.575
-258.737
409.631
-150.894
-474.467
301.297
173.169
364.66
-244.524
-120.136
-132.073
-207.057
339.13
-162.664
345.257
-182.592
-209.767
112.299
-74.4867
-23.0808
97.5675
104.619
-192.916
88.2963
-59.9072
116.248
-56.3411
310.328
-192.967
-117.361
81.726
44.7512
-126.477
-122.268
262.433
-140.165
-249.336
157.725
91.6113
115.087
73.0756
98.6081
-113.255
14.6471
-168.266
287.075
-91.794
-188.224
280.018
95.194
29.1173
-124.311
-96.4811
139.874
-43.393
-151.53
102.104
-330.673
160.078
-182.362
346.077
-163.715
357.21
90.6404
176.992
-412.403
273.842
-112.505
-157.545
103.93
53.615
-12.4578
-163.631
176.089
262.841
-386.386
-60.0978
416.082
-31.8803
-106.802
170.776
65.0409
-235.817
-146.025
61.4264
84.5984
-365.631
10.1503
187.715
-396.872
209.157
30.2643
-104.751
-130.691
-17.199
194.858
-286.652
-432.876
-67.4472
141.456
229.715
-371.171
219.096
145.564
156.152
-68.443
-87.7087
173.563
101.223
-274.785
-237.012
150.313
86.6981
80.3455
-357.622
277.276
353.083
-215.061
243.775
-148.81
86.6215
107.326
-193.947
-124.097
254
-129.903
106.991
-54.6158
93.7759
-184.302
90.5258
267.19
-88.3595
-178.83
-169.238
-213.459
382.697
-174.188
-75.7228
-95.9923
-10.1929
106.185
83.1499
47.7983
-130.948
320.769
-175.108
-145.661
-188.678
25.0485
-498.567
346.638
151.929
360.211
8.14457
171.229
-290.999
119.771
182.506
-106.005
185.585
85.0769
-270.662
-40.6937
244.387
-105.321
-299.559
404.88
-170.925
388.695
-217.77
-117.495
257.059
-139.563
-166.054
261.943
-95.8888
147.834
-95.0999
-52.7338
-159.303
-52.0951
-171.731
93.8831
77.8478
248.997
-137.519
-111.478
-438.078
332.756
-162.488
165.282
-2.79452
-187.944
110.328
77.6161
304.527
-166.776
-168.962
473.041
-304.079
187.691
-92.5363
-95.1552
50.9917
72.7893
-123.781
74.7087
63.1487
25.6927
229.977
-255.67
88.4728
91.9956
-180.468
61.0621
305.985
-367.048
145.23
510.382
-96.2833
226.375
95.4558
-321.831
-131.278
289.622
-158.344
138.161
-72.4768
213.997
-122.651
-91.3466
-77.2092
201.957
-124.748
130.689
-248.184
393.612
-219.519
-371.355
369.365
1.98984
113.874
-84.2055
-57.9891
-42.3365
100.326
487.872
-164.13
-71.7484
181.938
-110.19
-219.559
411.673
-192.114
251.546
184.718
-436.264
67.5366
-180.04
-448.859
242.533
-19.9433
159.023
-325.204
188.085
137.119
13.5274
85.0807
-316.642
-131.671
448.313
268.392
159.192
-77.942
-83.8617
161.804
100.716
0.233956
-100.95
-242.848
355.044
-112.197
100.397
-109.044
8.6472
-134.621
372.474
-237.853
-104.245
119.526
-15.2811
62.7076
109.038
-171.745
142.042
-471.482
-172.444
262.381
-89.937
-97.974
237.389
-139.415
-134.109
198.726
-64.6176
254.817
-159.353
-95.4646
-275.136
86.9125
237.947
-407.185
-38.5713
214.131
-175.56
-226.437
88.6276
198.111
99.8478
381.256
-112.864
65.3014
-126.876
61.5746
353.319
69.9238
-423.243
-197.632
403.913
-206.281
-232.841
-267.156
22.8915
-97.2291
601.433
-379.206
-222.227
-62.2318
131.4
-69.1686
-137.895
41.414
284.191
-377.948
93.7569
-120.283
182.991
-392.329
366.693
25.6363
322.699
219.364
147.254
158.052
-305.305
-503.947
382.326
121.621
-352.69
426.194
-73.5041
-99.2496
253.413
-154.164
183.029
-67.9413
130.6
179.729
124.441
-296.885
-130.091
266.124
-136.033
382.725
218.707
336.299
-330.444
-5.8551
325.158
-529.503
204.345
341.691
-139.631
-100.966
-395.737
54.8707
-209.834
154.963
80.5605
-158.503
357.537
98.974
171.057
-86.1998
-84.857
238.621
168.973
134.604
233.699
-368.303
-114.197
365.743
403.084
-190.35
-392.808
0.566462
392.242
-291.198
-180.968
472.166
421.488
-291.879
-129.61
489.027
-248.668
-240.358
-64.5093
-97.2117
-61.1071
273.831
-212.724
67.9002
71.4466
-139.347
85.6839
-144.424
58.7397
154.094
141.295
-295.39
-186.118
31.5073
154.61
12.5765
87.8203
412.04
-173.419
375.018
112.855
-287.513
-121.158
408.67
-41.9096
137.104
-170.826
89.5643
-160.133
-220.021
380.155
-25.265
91.6859
-38.1534
-147.964
166.327
-457.526
195.98
-38.1223
-56.6346
94.7569
220.595
-61.6078
-93.2888
-46.1739
-254.767
124.676
-95.0025
265.779
-324.719
499.957
-175.238
261.402
-421.535
390.397
-196.41
107.118
185.888
-293.005
-134.786
81.2875
53.4986
-367.32
488.638
-121.319
307.418
-227.073
553.969
-227.271
-326.698
113.473
107.122
358.859
-116.745
-242.114
-271.892
434.55
-162.657
133.885
-227.813
93.9279
-182.358
31.0963
151.262
-134.346
-75.4204
129.503
-382.755
253.252
11.5584
-121.354
109.796
454.743
-200.915
-253.828
300.027
-466.793
166.766
-227.706
189.135
96.3915
91.3
105.307
-4.02355
-101.283
254.51
-116.685
250.734
140.969
323.573
-180.394
-143.179
-327.195
217.757
109.437
-491.32
382.738
108.582
186.273
-97.6376
-122.358
181.645
-59.2873
-171.873
-77.4636
336.535
-52.3436
121.45
9.83442
-131.284
-117.152
203.773
-118.885
70.9855
-517.504
356.917
160.587
312.046
-140.817
227.11
160.349
160.635
-398.201
-474.619
238.103
236.517
-245.206
155.541
89.6654
113.011
-37.7459
-75.2649
-218.884
-203.194
422.078
102.317
134.648
-236.965
-407.112
282.677
124.435
-272.347
-134.764
-560.788
373.011
187.777
-279.065
107.192
585.686
-299.631
-286.055
-146.708
-178.773
325.482
-134.332
139.799
-5.46687
-166.889
275.493
-108.604
-255.158
155.909
-412.97
332.228
80.7421
89.604
93.6386
-183.243
-367.955
195.938
172.017
-110.725
-132.111
145.208
-103.616
-41.5924
276.85
104.406
573.966
-316.408
-257.558
253.321
-519.759
266.438
58.5055
-121.266
62.7607
100.291
5.01628
-60.928
148.351
-87.423
272.967
301
73.9666
-175.349
-274.326
150.229
98.804
-37.7148
100.485
148.512
347.274
82.5161
111.017
72.0114
45.8395
-189.072
143.233
365.251
-514.218
148.967
-60.8386
326.085
-265.246
-34.7943
120.478
174.452
379.517
-148.135
359.001
-210.866
54.4454
-160.039
105.594
-340.891
-300.79
-70.0574
-32.551
102.608
7.17792
-141.51
-108.613
120.171
179.278
-85.5017
180.888
-327.597
-142.393
83.3711
59.0222
-351.656
-87.8282
439.484
-338.28
521.842
-183.562
109.729
-370.142
260.413
31.482
-123.12
91.6377
-97.2133
-258.406
270.661
124.817
-395.478
170.838
-115.967
251.617
-140.778
-110.839
542.523
-169.504
-373.019
-364.438
49.165
315.272
331.696
90.6233
-422.319
-470.579
489.897
-19.3187
-146.158
-79.0631
-88.1684
177.756
141.938
181.635
244.417
-524.102
279.685
376.696
-367.31
453.281
-182.621
552.774
-298.697
-254.077
-223.911
246.433
-22.5219
-51.4548
172.905
-65.0532
-266.288
331.341
56.7691
446.832
-61.3618
-90.1681
141.476
-73.5759
302.191
-148.097
136.143
52.2434
-188.386
166.432
-227.539
-70.7208
-83.4136
154.134
552.646
-552.646
6.8844
-111.13
281.995
-170.024
-111.972
-303.117
-171.35
-161.325
96.8153
-365.679
-118.864
-64.5153
115.507
215.804
-304.545
170.836
133.708
-1.35865
-390.971
129.306
85.2359
-214.542
86.6002
102.026
107.6
-30.4006
-63.7742
-300.663
48.1571
-223.679
175.522
1.26672
-394.075
-298.617
150.483
-131.592
-184.777
316.369
99.3548
256.158
-355.513
-328.359
500.842
-172.483
-84.0642
-24.4344
-56.1224
86.4769
-30.3546
-102.719
183.778
-81.0593
228.191
168.747
-396.938
309.153
-202.036
406.233
-187.137
-304.33
-199.616
121.271
-268.956
-185.444
74.0686
-412.951
308.118
104.833
84.0686
-435.724
91.8387
135.827
-227.666
-222.689
-152.608
375.297
28.8042
-88.7114
99.8533
-141.763
-103.33
-221.147
324.477
-301.806
240.967
-94.9833
-57.8068
152.79
-188.96
103.983
84.9772
358.097
-517.059
158.962
316.89
-206.685
-110.205
151
280.579
111.655
68.0096
-179.665
387.309
-160.199
146.876
-514.196
234.285
-186.127
151.107
165.783
-64.6916
-348.259
207.941
-367.675
159.734
406.215
-233.357
-172.857
74.4187
-260.618
186.199
-229.212
-10.1368
239.348
66.1315
-138.701
72.5695
85.5632
-163.36
77.7972
193.506
212.727
-47.6144
148.331
-334.093
418.162
135.766
234.14
-369.906
-102.29
309.621
74.2303
90.8108
-165.041
41.7671
-314.713
272.946
-141.231
148.409
278.746
-457.77
179.025
-87.212
223.355
283.863
-455.268
196.532
-120.924
-6.76692
127.691
26.4082
123.876
-150.284
229.326
225.417
-98.3408
172.571
340.08
-28.5284
-311.552
-124.01
444.719
-320.709
101.906
291.011
45.6516
228.179
311.858
131.311
-443.168
328.897
-267.299
-61.5978
-32.6167
-129.871
-208.19
61.7749
-82.8658
-30.2217
113.087
12.2423
-95.1081
-305.88
174.602
-79.3005
-161.522
240.822
219.444
95.9754
-315.419
-222.596
-47.6744
270.27
-152.565
91.2028
81.0074
-183.726
-83.9239
-318.673
402.597
-68.9202
-146.211
517.332
-238.586
-74.368
67.8388
59.4867
-127.326
-191.668
74.6796
116.989
78.202
-94.8441
16.6421
105.653
173.483
-279.136
-189.73
109.317
80.4121
-131.932
317.517
-94.7263
-114.091
208.817
-319.536
-203.665
-241.728
132.273
109.455
-229.282
527
-297.719
433.373
-303.87
-72.176
-96.0017
168.178
-79.9653
110.23
-185.23
323.111
-137.881
-121.795
264.346
-142.551
163.499
-64.2159
-99.2827
-249.267
358.996
123.551
-68.6474
-54.9034
-274.284
280.204
-5.92011
-267.452
98.4441
199.147
6.79157
-205.938
-191.024
374.075
-183.051
129.447
-63.5191
-65.9283
224.951
-461.588
236.637
-497.841
173.363
167.045
-29.9744
-142.546
1.31516
-192.224
92.785
99.4389
-149.709
357.65
140.004
-85.5585
80.9899
-415.083
-53.5357
-54.6761
108.212
-105.456
-509.238
357.385
151.853
247.977
80.9205
-305.531
-160.873
466.404
-73.7886
298.801
78.1989
-140.431
-57.4872
-133.964
-230.493
-238.951
469.444
-197.125
-243.07
440.195
-268.921
255.746
13.1748
311.816
-250.754
-300.207
-198.36
340.836
-509.799
89.9334
101.612
-191.545
-383.459
211.438
172.02
158.554
216.464
-81.1145
145.656
-64.5415
-330.359
526.162
-195.803
-163.831
113.185
50.6458
-137.997
65.4348
72.562
47.659
-103.781
-63.7822
395.478
76.7116
69.165
-145.877
494.124
-182.266
-142.488
258.812
-318.973
156.309
-287.082
287.082
-135.608
227.447
-548.786
281.515
267.271
-264.834
-83.0807
347.914
188.667
-142.828
-101.988
106.423
-4.43476
-233.524
67.4701
123.306
-483.544
51.1155
69.4005
-122.239
-320.636
442.875
-232.5
368.266
-237.299
137.367
501.428
-247.356
-254.072
-191.662
-37.5496
147.353
-327.814
-568.308
398.4
169.908
-283.727
-158.828
-204.486
38.048
166.438
-24.3574
-121.3
145.658
137.624
116.886
-96.7615
123.836
-27.0743
-5.06768
90.5455
-85.4778
223.446
-222.481
-0.965062
212.954
-337.845
124.891
43.542
-165.9
-71.9624
-155.744
106.821
-201.892
95.0712
-393.359
-257.637
316.289
-58.6522
86.3667
43.0807
1.04882
-150.182
149.133
-149.697
-202.326
155.479
-386.588
231.109
-175.332
103.156
68.9687
45.3494
-114.318
43.323
-138.306
-140.323
221.153
-80.8302
144.178
110.778
-254.956
-148.439
-284.083
432.522
171.123
-421.734
250.61
101.116
-138.421
37.3051
-540.724
308.919
231.805
464.702
-323.366
-141.336
-501.517
176.798
-104.287
111.171
-76.7639
-94.0623
288.013
-402.21
-344.518
-130.101
-184.474
-120.071
-380.829
155.963
224.865
-207.154
138.234
-46.3963
307.444
-261.048
-96.1114
-242.93
132.205
160.812
94.9057
-255.717
258.831
-454.512
195.681
194.686
-90.0287
-315.752
109.066
225.649
-94.6143
-327.59
-112.13
439.72
383.504
-228.025
-331.904
336.528
-4.62386
-68.9059
125.816
-56.9099
-379.823
166.364
-312.652
126.431
186.221
135.825
-135.825
-194.84
-256.137
450.976
471.537
-390.547
68.3535
-263.217
4.05601
336.024
339.204
203.319
-229.487
-47.7398
277.227
111.893
-0.888716
-111.005
-74.6265
141.965
-67.3382
-180.157
103.903
76.2543
-323.01
-244.947
-149.493
78.7723
117.802
-49.963
-272.582
-302.242
-147.752
86.8237
131.876
209.508
76.9859
33.4797
-110.466
-53.6192
127.98
-74.3605
379.657
173.117
-161.2
-117.865
-336.308
-172.93
-155.731
-101.826
257.557
-69.3571
-272.77
342.127
-328.284
162.304
165.979
-91.8912
-104.772
196.663
337.86
-505.023
167.163
209.218
-354.671
145.452
227.411
-406.295
178.884
-84.5751
-51.7696
-238.084
166.121
166.454
-395.033
228.579
-128.475
104.118
-379.022
159.081
-204.411
362.965
-65.3387
119.984
-54.6455
94.2868
-130.559
36.2719
31.8044
-95.3203
-153.896
366.85
483.502
-465.549
-17.9532
-100.977
132.459
-78.8296
138.862
-60.0327
260.939
-455.779
-50.7153
141.8
-91.0847
-149.496
289.389
390.88
-507.239
116.359
219.748
69.8927
-289.64
59.3384
-105.142
45.8036
-33.2235
111.426
59.0766
37.8762
-96.9528
-37.5853
141.256
-103.671
-10.8076
161.597
-150.789
178.817
-71.9969
386.045
-135.311
-55.8855
255.031
-199.145
-303.724
-48.9663
183.069
-98.5117
-84.5577
181.94
-284.958
103.018
-239.997
-147.066
387.063
-68.9096
163.196
-270.902
154.326
116.576
226.929
-340.23
113.301
-324.565
201.499
123.065
252.972
-136.65
-116.321
-129.957
56.1807
73.776
181.977
-388.515
-98.3784
-80.833
179.211
-48.1493
-134.068
182.218
72.3417
-221.852
149.511
-98.8127
187.285
187.732
-99.2409
-88.4907
-65.202
-105.241
170.443
-48.8301
148.683
-163.992
-117.533
281.525
-304.855
-8.65541
313.51
62.4707
-110.921
48.4503
171.093
96.0962
119.769
105.88
-116.451
113.498
2.9534
-204.486
-55.6384
446.518
-12.6825
105.793
377.673
12.1966
-389.87
385.053
-325.659
-468.441
168.234
42.0594
61.4028
-103.462
-125.296
-32.2488
82.6662
-260.104
177.438
104.997
-362.633
-178.388
-30.9086
250.656
-65.2093
264.356
252.238
149.236
-396.373
205.349
-146.839
65.7247
381.551
-159.951
215.809
-83.1527
-132.656
259.14
-328.497
283.458
-170.082
-113.375
202.767
-185.354
-17.4131
116.593
-54.1226
-214.969
-235.71
450.679
-190.563
41.3926
149.17
490.643
-483.49
-7.15339
230.229
-59.8975
-170.331
241.289
242.182
-483.471
249.697
-177.355
-166.123
301.681
-135.558
-160.438
307.692
-135.707
221.115
-85.4081
-189.828
-149.676
57.6437
-127.824
70.1808
94.6128
-189.339
352.02
119.517
-267.972
-144.998
-52.2314
-139.437
119.461
-42.4746
-172.75
275.936
-103.186
-59.5213
130.743
120.969
-45.5261
-75.4429
-139.792
74.5903
-581.994
361.844
220.15
70.4621
-122.961
52.4993
-179.406
262.072
-69.2614
134.837
-65.5754
74.1685
46.8005
-142.341
363.833
-221.493
-113.07
-91.0378
204.108
-57.8168
-42.4908
100.308
338.561
-145.713
-192.849
222.493
-78.5651
-143.928
-379.757
-313.906
-154.534
-57.2755
-79.1119
136.387
110.763
-295.437
184.675
119.516
-61.8723
-110.747
6.46061
144.237
-411.996
312.612
-94.8541
-162.413
90.6644
-160.807
87.3825
73.4247
338.9
-129.682
162.297
-130.334
-31.9631
-84.5712
-76.236
46.8798
-121.116
74.2358
87.5318
-164.296
115.106
-64.6445
-105.247
169.892
-89.4545
210.179
-120.725
107.377
-22.9014
-84.4761
-269.382
-35.4724
126.39
87.6071
-90.6739
10.7085
-101.11
197.794
-96.6846
-96.4392
102.968
-6.5285
-103.281
-78.4951
-96.6127
175.108
483.118
-385.648
-97.4693
410.914
-122.9
129.324
-102.916
-425.696
463.89
-38.1935
-179.467
305.916
-126.449
-231.983
300.337
100.088
87.6441
-73.9437
-114
-93.0826
272.931
-137.798
276.783
-138.984
27.2052
60.824
-88.0293
-283.128
155.891
127.237
120.561
-62.055
-71.5259
-58.3033
-212.786
-186.417
399.203
138.907
344.211
-455.155
258.03
240.465
-240.465
-101.303
95.1875
6.11585
185.67
-101.219
-84.4512
246.002
-540.002
294
183.621
154.94
-252.789
356.553
-103.763
114.144
-43.6823
-205.961
130.775
75.1857
156.959
330.238
-487.197
255.208
-117.584
-317.317
159.664
157.653
76.5293
-173.929
97.3999
278.84
149.149
-427.988
-207.228
94.1579
74.6456
-146.266
71.6208
141.728
-179.313
-169.34
397.531
-186.235
95.0352
91.2001
176.893
-106.076
-70.8174
-90.1474
358.472
-268.324
333.661
-167.229
-46.4572
107.951
-61.4933
181.854
174.515
-356.368
-206.297
-248.858
-90.7818
349.612
99.3024
-185.792
86.4896
-205.134
399.505
-194.371
148.241
-71.7115
318.913
-219.601
-99.3122
129.764
-64.4629
-220.134
-133.592
68.253
-620.247
303.839
132.578
493.612
-501.533
7.92054
200.038
188.37
-388.408
116.447
45.8502
-360.246
-131.074
136.932
-149.39
11.9735
-280.895
-29.7286
-100.247
129.975
161.586
-295.43
133.844
96.1975
286.54
-136.37
88.1304
48.2398
50.8686
-184.937
58.8748
-101.393
42.5186
263.549
95.3104
263.491
-175.467
-88.0244
128.821
-62.6895
-385.416
270.996
114.42
-260.08
-360.167
184.597
45.6311
143.185
-453.737
310.552
-54.5381
-84.7404
139.279
35.936
-128.243
92.3075
294.011
207.417
-1.70173
379.375
-60.8878
-69.5612
417.96
-139.12
62.2634
-122.194
59.9305
-462.853
258.981
203.872
-201.866
-244.971
446.837
-366.488
566.488
-200
281.004
146.844
-173.786
250.045
-76.2592
-149.397
251.714
352.077
-277.161
-74.9159
-180.766
291.269
-110.502
-186.887
-151.875
-76.895
-201.202
278.097
65.1877
49.1005
-114.288
172.81
-83.2056
440.389
-378.828
-61.5618
-173.216
97.8336
75.382
80.3872
264.163
-344.55
102.423
-33.4539
347.579
92.8106
-68.4649
143.111
-102.247
-34.1233
-225.966
514.166
-288.2
5.4901
191.605
-197.095
215.705
-382.807
167.102
-83.0971
-42.1462
125.243
289.779
96.2663
-86.5187
-23.4541
109.973
-155.894
145.45
10.4438
-178.148
110.979
67.1693
182.816
384.265
102.693
-43.6169
-265.905
-119.511
228.711
-443.68
413.725
-509.847
96.1216
67.9332
223.395
-31.831
-191.564
117.721
-70.8413
80.8894
-408.479
-78.0358
-89.2671
167.303
105.076
-11.3945
-93.6816
-119.773
23.7808
123.819
130.998
155.538
-328.24
172.702
-93.547
164.238
-70.6906
152.302
-357.436
342.125
-231.362
341.943
-82.8031
-355.977
-198.125
-287.828
462.334
-174.506
429.273
-324.312
-104.961
-8.88041
-336.384
345.264
-335.498
-176.647
512.145
-176.114
-6.24382
95.3993
-36.5245
-500.905
260.772
240.133
-192.942
-80.2347
-89.1938
-40.7628
-35.7792
136.895
-79.8498
148.442
-554.628
382.759
171.87
98.5662
-163.211
-24.7247
92.8212
-68.0964
181.663
-146.394
187.491
-312.47
124.979
322.611
-255.615
-66.9966
87.4092
-397.452
310.043
217.116
-97.3472
114.4
255.674
-96.2709
-92.6896
111.532
-52.1936
474.929
-299.05
-175.879
-267.339
364.048
-96.7087
-107.285
192.363
282.566
-417.833
31.8691
385.964
-282.001
-180.747
125.39
-202.587
77.1971
-136.424
-69.493
205.917
107.556
211.215
-318.771
44.8767
-264.037
-236.868
-76.0966
-27.1294
103.226
-205.426
326.353
-120.926
479.115
-173.13
403.961
-57.3238
-280.586
158.318
96.4004
8.67569
-268.198
-36.9892
305.187
56.876
-373.518
-408.909
137.017
131.644
-17.1422
-114.501
181.309
-263.299
81.99
-111.157
255.335
-458.718
334.708
-60.6365
-78.0645
497.224
-149.645
-240.647
406.787
-166.141
212.823
-329.148
116.325
469.921
-111.825
38.0077
87.8095
-309.568
135.782
338.469
-178.469
-160
-176.445
296.174
-119.729
131.946
347.169
162.46
-268.132
105.672
389.85
-107.173
360.581
129.597
-490.179
329.302
-226.264
-103.037
473.247
-502.166
28.9187
127.677
-102.021
-25.656
345.714
-246.359
-8.37045
-112.554
-80.1295
-182.972
263.101
50.9907
-116.542
65.5514
-127.076
55.5503
-307.195
474.4
-167.205
-87.553
-54.8403
-194.608
200.098
114.79
23.3331
-101.553
78.22
289.305
1.71855
-291.024
-123.548
72.8482
50.6999
-100.804
454.123
167.529
115.929
-142.101
303.687
-237.023
159.813
334.815
50.2378
-160.871
-156.445
16.2947
227.481
-245.968
84.7676
-141.648
241.628
-99.9794
46.0986
-110.614
403.353
-203.315
-369.052
376.247
-7.19508
-133.426
494.007
69.0229
-141.455
72.4326
117.823
-68.7043
-142.498
211.203
-151.971
188.636
-72.1895
106.364
4.39955
-110.763
75.3789
-117.503
42.1244
-243.287
145.313
-101.169
-68.6102
169.779
-267.758
-294.379
128.652
165.727
120.539
-84.6027
47.4897
-113.69
66.1999
47.2937
-183.718
131.557
130.876
-87.4247
245.535
-158.11
-120.941
70.3281
50.6125
-66.7963
177.785
-110.989
-375.379
213.045
-177.76
359.614
153.347
-272.171
118.824
226.637
178.738
-405.375
-58.6102
-32.2551
90.8653
331.472
97.8009
318.835
-147.345
-171.49
-157.574
406.197
-248.623
164.621
-70.9637
325.723
-254.76
327.683
121.675
-449.358
474.559
311.639
153.062
-464.701
249.319
-455.616
193.934
-32.5908
-161.343
-338.2
186.162
152.039
-109.673
4.08071
105.593
95.0578
17.6242
-112.682
-75.9652
-58.8209
13.979
-383.031
-356.424
214.084
61.057
193.403
-254.46
-377.993
307.029
222.907
122.872
-345.779
-64.4791
109.84
-45.3607
-103.768
-139.054
242.822
568.805
-256.798
63.4759
136.468
-131.414
-277.848
409.262
-121.535
172.404
-223.497
381.917
-158.42
-349.139
39.0087
310.13
-177.86
-279.187
457.046
-49.4444
-88.5523
-564.245
366.72
197.525
301.345
-183.311
-118.034
-123.601
346.508
-169.696
68.5271
112.07
-190.106
125.755
90.0537
-163.665
-490.523
250.997
239.525
-160.035
75.4638
-267.101
97.0777
-289.472
-292.522
-58.1164
-243.689
95.2495
-332.003
236.754
-203.801
-177.082
69.6209
107.461
-241.029
-74.7225
-112.875
-42.0745
154.949
-53.1907
-45.9611
99.1518
-307.949
217.802
-3.33585
-76.9175
80.2534
158.425
-190.256
153.165
-365.32
212.155
8.31262
-276.51
-192.019
316.744
-124.725
-227.236
239.21
106.976
-133.268
-89.6813
222.949
395.493
-404.373
96.0725
-68.8673
285.414
189.476
-474.89
-85.8946
-74.1405
-78.2179
273.076
365.038
-366.74
98.0688
-3.01099
409.21
-124.641
-284.568
107.051
153.733
-260.784
146.86
-25.8196
-133.293
159.113
257.533
-123.684
-133.849
347.898
41.9528
120.976
-69.9854
-501.723
173.364
68.3326
-137.594
-134.404
72.0764
62.3275
-50.3945
147.356
-96.9612
-140.098
-79.2422
219.34
38.485
-101.075
62.5896
-127.11
44.0125
173.576
-188.672
15.0956
224.853
-280.502
55.6496
-219.547
79.4497
-88.9002
-79.3401
-64.9201
-56.2048
121.125
142.562
180.561
193.514
-225.657
179.261
163.042
-111.212
-51.83
-368.866
260.63
108.235
223.087
-87.2604
336.262
160.962
335.245
102.674
-437.919
-132.939
-123.958
-537.843
251.045
286.798
212.883
-290.918
78.035
144.104
119.387
-98.8464
52.3891
-30.7859
95.9868
-65.2009
-265.757
-215.841
481.598
-421.114
439.944
-18.8305
-267.146
108.851
-130.818
-452.116
-21.9692
474.085
208.78
239.611
-448.391
-123.787
-188.866
-147.037
-136.09
121.365
-15.0015
-337.073
135.207
-26.0031
159.888
-112.657
-270.968
166.056
104.913
84.4611
69.3874
-129.493
-145.845
275.338
115.171
-91.8377
416.348
-294.586
-121.762
-125.654
338.478
-218.299
-28.6084
457.156
24.1237
-114.809
-76.7206
191.53
454.648
-0.204177
-454.444
-86.2316
311.727
-225.495
118.819
82.046
-200.865
-372.68
218.541
154.139
-131.757
-112.538
-158.431
144.221
-75.1986
-106.977
289.892
-182.914
141.858
137.037
-278.895
-151.458
-54.5025
-246.645
-174.535
421.18
115.342
476.438
-332.709
-143.73
-154.451
151.538
-94.4251
-57.1133
38.9732
-95.6079
206.466
-271.676
294.484
-352.601
-401.324
341.227
193.861
-317.647
231.358
180.682
430.914
-203.503
-214.211
158.326
96.8254
82.4523
-97.1659
96.0237
-146.418
-271.441
288.742
-17.3008
-276.61
-22.0076
76.3251
-143.624
67.2993
114.83
286.676
-158.023
245.443
-131.617
-113.825
-67.9977
114.096
-268.973
121.138
-189.842
311.497
-62.4213
-249.076
-255.767
464.547
484.743
-148.481
-370.199
267.338
102.861
-22.2774
476.925
-214.874
402.589
-86.036
-203.414
289.45
104.523
-263.636
159.113
13.5361
287.761
-334.612
-247.385
581.997
146.731
-347.837
201.106
-292.799
392.838
-100.039
-131.224
442.863
352.676
-126.301
177.93
-89.5662
369.597
-280.031
-72.9445
-50.6036
-222.408
148.751
73.657
178.283
148.07
51.6732
-59.6366
-279.89
339.527
-386.132
-78.9856
-127.778
-199.048
-337.691
230.713
-412.917
412.917
141.075
-332.829
191.755
182.459
-339.511
157.052
232.173
79.3239
53.8475
43.0167
-96.8641
218.792
-371.401
287.714
-465.574
243.038
-41.0813
147.138
157.389
72.7848
198.072
-270.857
125.929
-96.1015
-29.8277
-71.8509
-293.505
365.356
99.8851
-175.942
76.0573
-44.9937
159.279
-114.286
331.953
4.34566
-80.4036
80.6375
-276.452
321.714
-45.2617
47.8603
146.073
97.1332
16.7077
-113.841
-311.297