/*--------------------------------*- C++ -*----------------------------------*\
  =========                 |
  \\      /  F ield         | OpenFOAM: The Open Source CFD Toolbox
   \\    /   O peration     | Website:  https://openfoam.org
    \\  /    A nd           | Version:  7
     \\/     M anipulation  |
\*---------------------------------------------------------------------------*/
FoamFile
{
    version     2.0;
    format      ascii;
    class       volVectorField;
    location    "2";
    object      U;
}
// * * * * * * * * * * * * * * * * * * * * * * * * * * * * * * * * * * * * * //

dimensions      [0 1 -1 0 0 0 0];

internalField   nonuniform List<vector> 
29659
(
(1.00752 -0.00998273 1.54516e-21)
(1.0103 0.00354705 5.75779e-21)
(0.993245 -0.00233023 -8.58907e-21)
(0.977249 -0.0357294 2.57153e-21)
(0.998174 -3.23743e-05 1.22559e-21)
(0.968257 -0.0218355 -4.02375e-21)
(1.03987 -0.059582 7.35144e-24)
(1.01008 -0.0156901 -1.55717e-22)
(1.00149 -0.0013941 2.04551e-22)
(1.00014 -3.72347e-05 5.47106e-23)
(1.0112 -0.0208967 7.75872e-23)
(0.998531 -0.0118911 -2.75236e-21)
(0.999643 -0.000154013 1.6659e-22)
(0.999975 -7.59163e-06 4.09955e-24)
(1.13192 0.0439309 1.71107e-20)
(0.99551 -0.00145723 1.30567e-21)
(0.999854 -0.000621889 -6.99656e-23)
(1.10026 -0.0153937 -1.77425e-21)
(0.998471 -0.00139057 -4.20798e-22)
(0.991927 -0.000613859 -1.88966e-21)
(0.999376 -0.000182481 -5.74906e-22)
(1.00145 -0.00145098 7.19365e-22)
(0.993133 -0.00249076 9.4391e-21)
(0.998452 -0.000110615 5.42002e-22)
(0.877864 0.130975 1.88089e-21)
(1.01065 0.00267601 3.09507e-20)
(0.999612 -3.6174e-05 3.77087e-22)
(0.944228 0.102432 -1.42369e-19)
(1.13516 0.0422901 -4.32196e-20)
(0.999615 -0.00662626 -5.26714e-22)
(1.0117 -0.0077439 1.04277e-21)
(1.02948 -0.00759145 -7.53389e-21)
(0.982091 -0.0828254 2.29312e-20)
(0.99874 -0.0168158 1.32378e-21)
(0.94079 0.0966958 1.16963e-19)
(1.00173 -0.024067 2.75636e-21)
(1.06036 0.0310598 -9.85153e-21)
(0.979427 -0.0200949 1.12177e-20)
(1.0042 -0.000557689 -2.78249e-21)
(1.0039 -0.000197399 5.26656e-21)
(1.00033 -0.000148399 -1.64596e-22)
(0.99139 -0.0220552 -9.99933e-21)
(0.999876 -0.000599888 -1.18531e-24)
(1.01671 -0.0528263 -7.89635e-21)
(1.00003 -2.94753e-06 -1.15433e-23)
(0.999532 -0.00679295 4.24116e-22)
(0.997948 -0.00887745 -7.664e-22)
(1.00005 -6.47858e-05 2.89885e-23)
(1.00237 -0.00283746 -2.94089e-21)
(1.05855 0.0294622 -4.07576e-21)
(1.08129 -0.0705795 -4.50261e-22)
(0.97992 -0.0316459 -1.20901e-20)
(1.0281 -0.00621602 2.63895e-21)
(0.969327 -0.0217342 -6.76259e-21)
(0.995608 -0.00154257 -1.15188e-21)
(1.13439 0.0360032 -2.78643e-20)
(0.997439 -0.00165882 4.10686e-22)
(0.999349 -0.000212643 7.27337e-22)
(0.999869 -0.0157706 -1.66797e-21)
(1.00628 -0.0426253 -4.88622e-21)
(0.999948 -9.07034e-06 9.78544e-24)
(0.998496 -0.00139604 -8.61112e-23)
(1.1679 -0.015793 9.48574e-21)
(1.00193 -0.0235658 -1.42853e-21)
(1.07125 0.0844433 7.30485e-20)
(0.902687 0.0335627 2.89839e-19)
(0.998659 -0.0200407 -3.32795e-21)
(0.994789 -0.0100145 3.86426e-21)
(0.925122 0.0223519 1.16731e-19)
(1.00034 -0.000147466 1.06565e-22)
(1.01178 0.00395301 -4.21927e-20)
(0.987467 0.0759495 8.41091e-20)
(1.00227 -0.00697676 -1.28313e-21)
(0.905817 0.152129 7.34441e-20)
(0.994083 -0.000512393 6.06065e-21)
(1.08293 -0.0429423 3.74828e-21)
(1.18332 0.051558 5.26885e-20)
(0.980283 -0.0113039 2.71671e-21)
(0.999964 -1.76135e-05 -2.78482e-23)
(1.00155 -0.0351552 -5.31609e-21)
(0.969549 -0.000546321 -4.5506e-21)
(1.02027 0.0313188 2.37946e-20)
(1.00804 -0.0102873 -4.64565e-21)
(1 -4.52738e-05 -1.28314e-24)
(1.04158 -0.0586235 4.98189e-22)
(1.14854 -0.113293 -3.07613e-21)
(1.04185 0.0781791 -1.38109e-19)
(0.999625 -0.000155466 -1.49457e-22)
(0.999654 -0.000132894 -4.39128e-23)
(0.953389 -0.0277816 -1.68847e-20)
(0.994696 -0.0381881 1.21279e-20)
(0.980153 -0.0118682 3.00223e-21)
(1.00221 -0.00288094 5.11927e-22)
(1.04461 -0.0116241 -4.55896e-21)
(0.949338 -0.0118877 -1.40232e-20)
(1.05791 0.0951269 6.59761e-20)
(0.995652 -0.0493784 1.86506e-20)
(1.00035 -0.000276654 2.71731e-22)
(0.977566 -0.0450546 -2.11782e-20)
(1.13606 0.0617469 6.99829e-20)
(0.999961 -1.77707e-05 4.06897e-23)
(0.981238 -0.00751375 -1.62049e-20)
(0.999952 -1.17894e-05 -5.03581e-24)
(1.03462 -0.0156359 -2.37617e-20)
(0.978938 -0.0315209 8.07832e-21)
(1.03039 0.00808902 4.40514e-20)
(1.00677 0.0649141 1.30802e-19)
(0.999668 -0.000135601 -3.7383e-22)
(0.999994 -4.93308e-05 -2.90384e-25)
(0.993142 -0.0802706 -9.71902e-22)
(0.980755 -0.0817695 -2.06321e-20)
(1.02972 -0.0320179 3.13367e-21)
(1.00001 -1.85683e-06 2.09887e-24)
(0.99918 -0.00445762 -1.50761e-21)
(0.999989 -0.00168101 6.25611e-23)
(0.99226 0.0767601 3.26793e-22)
(1.03898 0.0449353 -5.033e-20)
(0.991424 -0.00517347 -6.46976e-21)
(1.00002 -5.02302e-05 3.2108e-24)
(1.00266 -0.00669333 -9.57796e-22)
(1.17928 -0.0553151 -2.46844e-20)
(1.00754 0.0103385 6.70898e-20)
(1.11776 -0.0555063 2.04848e-20)
(0.901298 0.0415634 -2.68471e-19)
(1.00081 -0.000261742 -6.71477e-22)
(1.11403 -0.0415344 -7.32054e-21)
(1.09933 -0.0127918 -9.45528e-21)
(1.00976 -0.0416868 3.02348e-21)
(1.00289 -0.0026435 -2.60505e-21)
(0.999992 -0.000314312 9.26727e-24)
(1.01646 -0.0514182 2.77858e-21)
(1.18332 0.0475264 2.87344e-20)
(1.026 0.139907 1.32302e-19)
(1.12029 -0.0674913 3.86714e-21)
(1.03241 -0.0156447 2.00892e-20)
(1.01152 -0.00667428 1.99533e-20)
(1.11581 0.143945 9.97092e-21)
(0.980398 -0.000453031 2.29388e-20)
(1.07662 -0.146399 3.11081e-20)
(1.13512 0.0579523 -5.32756e-20)
(1.11341 -0.038186 8.182e-21)
(0.958257 -0.00345321 -1.8784e-20)
(0.964956 -0.0304274 5.05633e-21)
(1.00001 -1.66713e-06 -8.73559e-25)
(0.999992 -2.29853e-06 2.01257e-24)
(0.998143 -4.73844e-05 -9.58374e-22)
(0.998058 -0.00879839 1.58945e-21)
(0.985654 -0.0635222 -1.62581e-20)
(1.08221 -0.114345 9.52167e-21)
(1.18662 0.00735591 3.75616e-20)
(1.02243 -0.014795 1.04711e-20)
(1.01215 -0.014969 3.60003e-21)
(1.00031 -0.000432298 4.21491e-22)
(0.999897 -0.000158006 4.01526e-23)
(1.00078 0.0326355 -1.41519e-19)
(1.00036 -0.00116081 4.82092e-23)
(0.994941 -0.00826369 8.80857e-24)
(1.12949 0.138046 -2.96243e-20)
(1.00508 0.0447319 -1.49193e-19)
(1.08329 -0.0684664 3.18334e-21)
(0.970958 -0.00193364 7.8244e-21)
(0.978017 -0.0350907 1.83086e-20)
(1.13654 0.0388143 7.0074e-21)
(0.999962 -3.40541e-05 8.80095e-24)
(0.999991 -2.0134e-06 -7.63159e-25)
(0.991424 -0.00547999 2.34184e-21)
(0.96585 -0.0297534 -2.86229e-20)
(1.00004 -0.000171843 -3.0424e-23)
(1 -4.88863e-05 -1.18828e-24)
(0.994993 -0.00374453 -7.48089e-22)
(0.999995 -0.000313712 -7.77608e-24)
(1.004 -0.00429258 -1.48253e-21)
(1.12827 0.143131 3.34888e-20)
(0.980697 -0.000146308 -1.94298e-20)
(1.02487 -0.083665 -3.72711e-21)
(0.996256 -5.74777e-05 3.92654e-21)
(1.00154 -0.00197551 1.51444e-22)
(0.980649 -0.00734517 2.67904e-20)
(0.999397 -0.00447425 -1.31593e-22)
(1.12205 -0.0493458 -1.74355e-20)
(0.999984 -7.23525e-06 1.32517e-23)
(1.00882 -0.0288308 -2.86396e-22)
(1.04451 0.0789519 4.89368e-20)
(0.995105 -0.00914231 -2.33267e-22)
(1.0724 -0.143086 -2.98618e-20)
(1.02861 0.0392407 -4.45342e-20)
(0.995367 -0.0020758 -5.69325e-21)
(0.986973 -0.0109286 7.21154e-21)
(1.00298 -0.00269592 3.9594e-21)
(0.999232 -0.00624693 -7.21997e-22)
(0.999786 -7.05995e-06 4.26022e-23)
(1.004 -0.0136427 1.12093e-21)
(0.89491 0.0202699 1.12036e-19)
(1.00158 0.0313197 1.09179e-19)
(0.989647 -0.004367 1.9239e-22)
(0.995213 -0.00812553 -2.4021e-21)
(0.970038 0.0418262 -1.12844e-19)
(1.01439 0.0250291 2.06175e-20)
(0.950315 -0.0116985 1.75427e-20)
(1.00081 -0.000410141 -5.27356e-22)
(1.0472 -0.074772 2.54485e-21)
(0.976193 -0.0590862 2.15161e-20)
(0.998756 -0.0122625 1.33995e-21)
(1.00063 -0.000798708 -8.44427e-22)
(1.12094 0.145912 1.38252e-20)
(0.99518 -0.0038073 -5.20621e-22)
(1.00494 -0.00393174 -1.64153e-21)
(0.984576 -0.0629831 2.10925e-20)
(0.993112 -0.0820919 2.43136e-21)
(0.999971 -3.9938e-06 3.22597e-24)
(0.985682 0.116932 -1.33163e-19)
(0.99924 -2.47237e-05 -9.11717e-24)
(1 -3.90822e-05 -2.14081e-25)
(0.999589 -0.000157127 6.3181e-23)
(0.996627 -0.0384368 -4.35742e-21)
(1.16499 -0.00382786 -3.41237e-20)
(1.00928 -0.0283515 3.55343e-22)
(1.00467 -0.00358749 -1.12807e-21)
(0.99846 -0.000180296 1.34545e-21)
(0.951159 -0.013077 -2.96673e-21)
(1.00005 -0.000339389 -6.91188e-24)
(1.00033 -0.00120851 3.87699e-24)
(0.998325 -0.000133573 -8.86104e-22)
(1.02165 -0.00147872 4.15271e-20)
(0.998014 -0.00289379 -2.72664e-22)
(0.999236 -0.00421494 4.46814e-22)
(1.02054 -0.00163334 2.101e-20)
(1.00009 -0.000295046 4.48604e-23)
(1.00003 -2.30832e-06 2.98871e-24)
(1.00378 -0.000533675 5.88137e-22)
(0.981845 -0.0230681 -9.00632e-21)
(0.982713 -0.000321972 -9.40055e-21)
(0.996531 -0.00024422 -4.17771e-21)
(1.01279 0.00250541 3.49802e-20)
(0.988666 -0.000799987 4.44703e-21)
(1.01278 -0.014995 -3.3768e-21)
(0.999976 -7.97317e-06 1.15791e-23)
(0.997828 -0.00186266 -1.62028e-21)
(1.00062 -0.000778417 9.13806e-22)
(1.04704 -0.0721794 2.28237e-21)
(1.02508 -0.134548 2.93087e-20)
(0.998989 -7.95196e-05 6.85035e-22)
(1.00032 -0.00040169 -3.26371e-22)
(0.999225 -0.00402263 -1.53692e-22)
(1.00255 -0.00569606 -2.30005e-21)
(0.992142 -0.000443464 -8.09664e-21)
(0.999961 -3.05616e-05 -6.17383e-25)
(1.14498 -0.110298 -4.9452e-21)
(1.00005 -0.000359967 9.30657e-24)
(1.02151 -0.0013142 -2.92555e-20)
(0.997525 -0.0017108 -8.32375e-22)
(1.0001 -0.000274029 1.84185e-23)
(1.02951 0.00864732 -2.80252e-20)
(0.972832 -0.0564027 -2.25877e-20)
(1.00018 -3.51959e-05 1.77632e-22)
(1 -8.71956e-06 3.01636e-26)
(0.958134 -0.002485 -2.14537e-20)
(1.01555 -0.123085 -4.63573e-21)
(0.993867 -0.00588555 -6.15558e-22)
(1.00881 -0.0423805 -8.56811e-22)
(1.02321 -0.0155303 -1.71705e-21)
(1.04951 0.0777846 5.9472e-21)
(1.00006 -6.13685e-05 7.96559e-24)
(0.982253 -0.0225328 9.27991e-21)
(1.15272 -0.0569244 -1.74156e-20)
(0.955558 0.0610714 2.76481e-21)
(0.995163 -0.00889353 1.81696e-21)
(1.02772 0.0370416 5.4553e-20)
(1.08304 -0.0401205 2.79875e-21)
(0.99976 -0.00177837 -4.21115e-23)
(0.79894 0.0597664 1.4781e-19)
(0.999603 -0.000317156 -4.33116e-22)
(1.02421 -0.0860628 -5.45821e-21)
(0.951944 -0.0130652 2.11473e-20)
(1.00165 -0.00188321 -8.34335e-22)
(1.14169 -0.0228075 2.61507e-20)
(0.993832 -0.000698298 -4.80414e-21)
(1.03317 0.151066 9.40137e-20)
(0.99745 -0.000214417 3.70615e-22)
(0.98728 -0.0117292 -3.75369e-22)
(0.999818 -0.00169436 -3.41502e-22)
(1.1361 0.0904478 1.54834e-20)
(1.00019 -0.0121522 3.10142e-22)
(1.05503 0.096701 4.03644e-21)
(0.999625 -1.8562e-05 -1.64548e-22)
(0.995753 -0.00145271 -1.81675e-21)
(0.972587 0.152532 -5.68734e-20)
(1.0254 -0.000677426 -3.4967e-20)
(1.02079 -0.000510255 2.43935e-20)
(0.97857 -0.0289795 2.25695e-20)
(0.999884 -2.45622e-05 4.27012e-23)
(1.00258 -0.00529912 -2.70365e-22)
(0.999874 -0.000668746 -1.22201e-22)
(1 -3.67347e-05 -1.90096e-26)
(1.04527 0.0012538 1.01043e-20)
(1.00003 -3.39384e-06 3.02901e-25)
(0.985626 -0.0105087 1.68556e-20)
(1.14961 -0.0580759 1.56599e-20)
(0.874984 0.137446 -1.38021e-19)
(1.0299 0.139057 -2.10701e-19)
(0.975736 -0.0490558 7.05284e-21)
(0.98955 -0.0216424 5.47355e-21)
(0.983632 -0.00108358 4.50329e-21)
(1.0239 -0.029134 9.05682e-21)
(1.00476 -0.0133748 -1.64673e-21)
(0.986814 -0.0114119 -9.94814e-21)
(0.975958 -0.0537428 3.07258e-21)
(1.04915 0.079883 -9.19131e-20)
(0.999454 0.0468731 1.85673e-19)
(0.999061 -0.000104443 3.76949e-22)
(1.01003 0.0662481 -1.79317e-19)
(1.04406 -1.32019e-05 3.66198e-21)
(1.12149 -0.0538911 -5.65035e-21)
(1.01059 -0.0118719 1.58485e-21)
(1.00041 -0.0116511 -1.02879e-21)
(1.01496 -0.0397615 -9.302e-22)
(0.996079 -0.00139231 -4.31647e-21)
(0.998096 -0.000502018 -2.84835e-22)
(0.999954 -9.436e-06 5.21124e-23)
(0.998993 -0.00627996 1.06381e-21)
(1.06792 -0.0391242 1.46831e-21)
(1.13927 0.0935023 -2.44361e-20)
(1.0011 -0.000929799 3.98821e-22)
(0.98023 -0.0187477 -1.35114e-20)
(1.01135 -0.0122256 -5.05764e-21)
(0.99997 -1.3164e-05 -4.49257e-24)
(0.975834 -0.0513329 -1.11859e-20)
(0.843041 0.105878 -6.86068e-20)
(0.995453 -0.00354073 6.35383e-21)
(0.999036 -0.00325238 3.85025e-22)
(1.0107 -0.0119132 -9.94882e-22)
(1.00143 -0.0339478 6.86951e-21)
(1.07341 0.0146617 1.27077e-20)
(0.999747 -0.0070744 -1.96831e-22)
(0.999976 -3.65588e-05 2.78835e-23)
(1.00001 -2.05285e-06 1.0659e-24)
(0.998075 -0.000447573 -3.14655e-22)
(0.969455 0.151708 8.20669e-20)
(1.03581 -0.0243343 5.72095e-21)
(1.02861 -0.133788 -8.42991e-21)
(1 -8.89019e-06 -6.19872e-26)
(1.01307 -0.125663 3.17621e-21)
(1.06344 -0.0088712 -1.65894e-20)
(0.996207 -0.0001006 -1.95823e-21)
(0.953814 -0.00467589 -2.63749e-20)
(0.999104 -0.00325395 -3.90632e-22)
(0.999676 -0.000147877 -2.74147e-23)
(0.98304 -0.0204471 -2.85665e-21)
(1.00068 -0.00085076 -4.07618e-22)
(1.12537 -0.0478387 1.65119e-20)
(1.00684 -0.00117669 -1.16915e-20)
(1.16808 0.0355821 -2.70289e-20)
(0.999714 -0.00178505 5.4861e-23)
(1.0031 -0.0103403 5.11654e-22)
(1.00668 0.00923927 -9.10331e-20)
(1.17545 -0.0543378 1.18363e-20)
(1.00029 -0.000405159 -2.48417e-22)
(1.00031 -0.000368881 2.46453e-23)
(0.999049 0.093819 8.44915e-21)
(0.995381 -0.0388082 -2.49069e-21)
(0.999694 -0.00696389 2.41563e-22)
(1.01344 0.0282354 1.07844e-20)
(0.962125 0.0212267 2.18795e-19)
(1.08083 -0.0738069 1.85926e-21)
(0.998734 -0.0191571 -1.11601e-21)
(1.16279 -0.00214896 3.41475e-20)
(0.999437 -4.39715e-05 -2.8954e-22)
(0.993678 -0.00311865 1.72013e-21)
(0.997492 -0.000208175 -1.06003e-21)
(1.01474 0.0229728 1.37382e-22)
(0.99998 -0.000555674 3.49139e-24)
(1.00667 -0.00142364 1.19449e-20)
(1.09945 -0.108767 3.22634e-22)
(1.01999 0.131822 2.03642e-19)
(0.91101 0.157732 -3.26474e-20)
(0.995508 -0.00204475 2.07486e-22)
(0.993702 -0.00581916 1.85297e-21)
(1.06956 0.0883754 -5.79159e-20)
(1.00652 -0.043876 6.9489e-21)
(0.999957 -9.63929e-06 -5.08338e-23)
(1.18646 0.0245417 5.83641e-20)
(1.02202 -0.000731103 -1.23829e-20)
(1.02105 -6.07338e-05 -8.34334e-21)
(0.995666 -0.00992428 -2.5377e-21)
(1.01412 -0.00287968 -1.80086e-20)
(0.95502 0.135151 3.20238e-20)
(1.07744 -0.121027 -3.17674e-21)
(0.990458 0.126208 3.25217e-20)
(1.00693 0.121006 -5.77653e-20)
(0.999995 -4.85359e-05 9.2794e-25)
(1.06562 -0.0381521 -5.14615e-21)
(1.07875 -0.117197 1.94712e-21)
(0.997893 -0.00287486 7.21051e-22)
(1.00118 -0.00100028 -6.54417e-22)
(0.956372 0.0245764 5.20904e-20)
(1.03759 -0.0246021 -7.44613e-21)
(1.00023 -4.9186e-05 3.99016e-23)
(0.985155 -0.0438833 -2.55258e-20)
(0.975522 -0.0606517 -1.02456e-20)
(0.995837 -0.00151066 2.5569e-21)
(0.999904 -0.000158885 -5.07566e-23)
(1.07299 0.112348 -9.65577e-21)
(1.03915 0.0434413 8.54658e-20)
(1.00004 -0.000377135 -2.25453e-24)
(1.00313 -0.0027479 5.11656e-22)
(1.00386 -0.00260903 2.77608e-21)
(1.13069 -0.0872538 -1.8116e-21)
(0.978587 -0.0281718 -2.05217e-20)
(1.00006 -0.000438729 -2.09716e-23)
(0.999988 -7.43771e-07 -1.1971e-24)
(1.00037 -0.00014907 6.27108e-23)
(1.07192 0.0162181 -1.2891e-21)
(0.979371 -0.0193067 -1.07479e-20)
(1.003 0.0535106 4.18791e-20)
(0.959947 -0.0333539 1.22053e-20)
(0.990023 -0.0214993 -5.89334e-21)
(0.982332 -0.000928566 -1.82688e-20)
(1.01489 0.0267786 -5.30422e-20)
(1.16356 -0.0148382 2.02669e-21)
(0.999091 -0.000113553 6.9079e-22)
(1.00597 -0.0045618 -2.95235e-21)
(1.00065 -0.00085803 4.62081e-22)
(0.992735 0.141157 -8.20697e-20)
(0.980976 -0.0175588 5.82587e-21)
(1.00081 -0.000225761 -2.18762e-22)
(0.994407 -0.00275289 -2.32432e-21)
(1.11696 -0.0352008 1.48576e-20)
(0.999713 -0.00760209 -4.9295e-22)
(0.991333 -0.00948683 -1.26926e-21)
(1.00018 -0.000111414 -1.22691e-22)
(1.00018 -3.66846e-05 -5.45202e-24)
(0.838377 0.113623 1.0356e-19)
(0.993793 -0.00104942 -2.98256e-21)
(0.996336 -0.00371331 2.57566e-21)
(0.999651 -0.00142366 -2.97563e-22)
(0.999449 -3.05305e-05 -3.96351e-23)
(1.05527 0.073187 -3.15709e-20)
(1.10389 -0.11015 5.00748e-22)
(0.988169 -0.0320994 3.33052e-21)
(1.00001 -1.74795e-06 -1.06401e-24)
(1 -2.92464e-05 -8.8161e-27)
(0.980257 -0.0180993 1.52413e-20)
(0.994864 -0.00146187 6.1224e-22)
(0.996097 -0.00168023 -3.55419e-22)
(1.01032 -0.00333281 5.66616e-21)
(1.00412 -0.00151614 1.00112e-21)
(1.00029 -0.0124619 -5.09731e-22)
(1.09686 -0.0260451 2.4478e-20)
(0.986081 -0.00336092 -3.74426e-21)
(0.992075 0.122336 -2.76985e-20)
(1.01104 -0.0204897 -1.8602e-21)
(1.00019 -0.000110322 1.36212e-22)
(0.975168 -0.0481299 1.06459e-21)
(0.987062 -0.028219 -1.21777e-20)
(1.13579 -0.0184245 1.6655e-20)
(0.997672 -0.00473297 -7.52404e-22)
(0.990977 -0.0375726 -3.8754e-21)
(0.999983 -3.80757e-06 7.30429e-24)
(0.921979 0.109521 -1.09635e-19)
(1.01157 -0.001501 1.01761e-20)
(1.00006 -0.000188557 -4.57939e-23)
(0.895598 0.0284463 -1.45677e-19)
(0.987494 -0.0323409 7.56664e-21)
(0.999983 -4.75357e-06 1.1877e-24)
(1.00114 -0.000965332 1.92351e-22)
(0.975139 -0.0502813 -6.23583e-21)
(1.0288 -0.0304504 3.02165e-21)
(1.03727 -0.0122057 1.32579e-20)
(0.999993 -1.97549e-06 1.63714e-24)
(0.99386 -0.000484248 2.35932e-21)
(1.01537 -0.0387708 4.69794e-22)
(0.995949 -0.00138099 3.54192e-21)
(0.999637 -2.81185e-05 -8.96465e-22)
(0.993789 -0.00323648 5.70556e-23)
(0.967406 0.0420806 1.3077e-20)
(0.994638 -0.00960044 -3.23756e-21)
(0.991661 -0.00929505 9.39272e-22)
(1.00285 0.0359207 -4.34592e-20)
(0.997948 -0.00175532 8.54889e-22)
(0.986401 0.145488 -1.01214e-20)
(0.999982 -4.53255e-06 -3.74441e-24)
(0.991616 -0.0214858 2.34792e-21)
(0.984039 -0.0600372 2.3072e-20)
(0.991639 -0.0378896 6.51656e-21)
(1.14596 -0.0659806 -3.12202e-21)
(0.999156 -0.00432322 1.01038e-21)
(1.00646 -0.0190347 1.16907e-21)
(1.00006 -0.00185969 1.58155e-23)
(0.986971 -0.0166809 -7.27244e-21)
(1.02999 -0.0337857 1.37077e-21)
(0.999971 -1.22779e-05 2.26676e-23)
(1.00001 -1.51646e-06 -1.89994e-24)
(0.995171 -0.000310211 1.62566e-21)
(0.98153 0.084679 8.46155e-20)
(1.00926 -0.0159146 6.62412e-21)
(1.00193 -0.00280414 -8.1573e-22)
(0.950528 -0.0244914 1.83216e-20)
(1 -7.8249e-06 -2.06414e-25)
(1.00075 -0.000920222 -7.39379e-22)
(0.999963 -0.000528909 -1.07733e-23)
(1.01105 -0.0151773 6.93401e-21)
(0.987214 -0.0122434 1.31993e-21)
(0.999706 -0.000226241 1.1358e-22)
(0.994579 -0.00867328 1.15811e-21)
(0.990573 -0.00541513 -1.38631e-21)
(1.00078 -0.000128732 -6.02102e-23)
(0.999981 -5.43389e-06 -2.35365e-24)
(1.15632 -0.0417219 2.17291e-20)
(0.999687 -0.00142542 3.19818e-22)
(1.06138 -0.0127253 1.31593e-20)
(1.03545 0.122238 2.12686e-19)
(1.06424 0.0889458 -5.26193e-20)
(1.00029 -0.0162696 -1.95438e-21)
(1.00391 -0.00134602 -3.32608e-22)
(1.01412 -0.00199935 1.10552e-20)
(1.00005 -0.00195188 -1.8216e-23)
(0.998159 -0.00819902 1.16434e-21)
(0.999999 -1.31548e-05 -8.36333e-26)
(1.00404 0.122033 -4.33777e-21)
(0.990696 -0.0124007 1.79295e-21)
(1.00984 -0.00300141 -4.04777e-21)
(0.986466 -0.00350807 7.82341e-21)
(1.00285 -0.010032 4.58024e-23)
(0.997835 -0.00473008 1.66226e-21)
(0.99992 -0.000161699 1.15374e-23)
(1.00002 -2.50083e-07 -9.89534e-24)
(0.996482 -0.00368119 -1.87542e-21)
(1.04489 -0.0134118 -7.4874e-21)
(1.00816 0.0476113 6.83158e-21)
(1.00093 -0.000399867 -8.96227e-22)
(0.978893 -0.0450753 -5.69278e-21)
(0.980967 -0.0170334 -2.57723e-21)
(0.993955 -0.000436805 -8.89183e-21)
(1.18311 0.00731886 -2.39952e-20)
(0.999021 -0.000773126 -4.22358e-22)
(1.00254 -0.0114995 -1.61232e-21)
(0.995772 -0.00220452 1.79075e-21)
(0.999922 -0.000156191 1.00161e-23)
(0.97521 -0.0525849 6.99756e-21)
(1.00512 0.0525854 -6.63044e-20)
(1.02892 0.0335035 -5.64954e-20)
(0.982678 -0.0116496 -1.23227e-21)
(1.00137 0.0521142 -2.93751e-21)
(1.00006 -0.000175127 8.9232e-23)
(1.00001 -1.58217e-06 3.07733e-24)
(1.18305 0.0240392 -2.1807e-20)
(1.14022 -0.0195031 -1.78627e-20)
(0.903485 0.11369 -5.32516e-21)
(0.996691 -0.0637175 1.52715e-20)
(0.982496 -0.00126736 -5.71365e-21)
(1.11637 -0.0311498 -2.09594e-20)
(1.00092 -0.000460324 1.01443e-21)
(0.99564 -0.00298836 1.02439e-21)
(1.00036 -0.000170904 -5.98432e-23)
(0.991782 -0.000612401 -1.91822e-21)
(0.990917 -0.0101455 -2.64893e-21)
(0.999997 -2.60188e-05 -2.92644e-24)
(0.999316 -2.89446e-05 1.63854e-22)
(1.01877 0.128477 -1.99496e-19)
(0.999889 -0.000555524 1.18083e-22)
(0.93182 0.0982196 1.38878e-19)
(1 -1.31677e-05 6.0653e-26)
(1.18121 -0.0292892 2.32858e-20)
(1.06158 -0.0140115 -2.73793e-20)
(1.09652 -0.0236394 -2.69256e-20)
(1.00081 -0.000485197 6.10183e-23)
(1.00015 -3.35785e-05 1.09914e-22)
(0.983799 0.0763797 -1.29039e-19)
(1.0638 -0.0108526 5.37629e-20)
(0.9835 -0.0610733 -2.08898e-20)
(1.02206 0.034857 2.55032e-20)
(0.998366 -0.0162929 9.36839e-22)
(0.989773 -0.00407965 -2.01717e-21)
(0.996879 -0.000225804 -1.07853e-21)
(1.16052 0.107577 -1.09266e-19)
(0.981676 -0.0205602 9.27511e-21)
(1.02436 -0.0278871 -5.81263e-21)
(0.994791 -0.00874197 -6.61287e-22)
(1 -7.72459e-06 -2.39123e-26)
(0.999023 -0.000708444 -3.56694e-22)
(1.00436 -0.00465517 1.77789e-21)
(0.98601 -0.00611777 1.01042e-20)
(0.983134 -0.0117504 1.83771e-21)
(0.966976 -0.030382 -2.74628e-21)
(0.98589 -0.00653752 -7.66171e-21)
(1.01842 0.00240208 4.7541e-21)
(0.998368 -9.37642e-05 2.20343e-23)
(0.954358 -0.0281852 9.30819e-21)
(0.989208 -0.000675741 -2.77447e-21)
(1.00002 -0.000176247 1.55082e-23)
(0.990599 -0.000546139 -1.92161e-21)
(1.02473 -0.0302401 -1.02899e-20)
(1.01764 0.00263116 -2.63027e-20)
(0.980135 -0.020627 -2.32643e-21)
(0.999985 -9.04705e-07 -3.23297e-26)
(0.986596 -0.0124689 1.96673e-21)
(1.00134 -0.01149 -1.68935e-23)
(1.00107 -0.000900459 2.45697e-22)
(1.09387 -0.122775 -8.10241e-21)
(1.00294 0.0541549 -1.53023e-19)
(1.00072 -0.000924001 6.86148e-22)
(0.990743 -0.000383015 2.80365e-23)
(1.07456 -0.0726333 -4.54027e-22)
(1.02193 0.000189263 4.18681e-20)
(0.982352 0.0356892 -1.40468e-20)
(1.00145 -0.00196492 2.19256e-22)
(1.00016 -0.0170041 6.1938e-22)
(1.11368 0.0900327 -1.71298e-20)
(1.01707 0.0208047 -1.33251e-19)
(0.992438 -0.0214404 6.15801e-21)
(1.00375 -0.00273256 -3.10805e-22)
(0.963386 -0.0358629 1.24667e-20)
(0.999998 -3.85474e-06 5.96458e-25)
(0.963285 -0.00164106 -9.68263e-21)
(1.00007 -5.75078e-05 1.59266e-23)
(1.07253 -0.0730164 1.74417e-21)
(0.999973 -2.2547e-06 -2.51374e-24)
(1.00002 -4.96584e-05 1.05084e-23)
(0.99946 -0.0187412 -7.22439e-22)
(1.17056 -0.0128485 -2.09477e-20)
(1.06878 0.152839 8.92553e-20)
(1.02729 -0.0310741 -1.66288e-20)
(1.011 -0.0124463 3.3638e-21)
(0.999999 -2.23153e-06 -1.27863e-25)
(0.995258 -0.00358041 -3.43236e-21)
(1.00007 -1.36235e-05 -1.15435e-23)
(0.997559 -0.00192112 1.20648e-21)
(1.00002 -4.58597e-05 -8.17703e-24)
(1.03852 -0.0111263 -4.1383e-20)
(0.999639 -0.000376548 -4.46179e-22)
(1.05538 0.0427726 5.6457e-20)
(0.999913 -0.000174816 -8.05968e-23)
(0.990194 -0.00399216 -3.43253e-21)
(0.968944 -0.000827364 2.21295e-20)
(0.996719 -0.000180135 -1.39233e-21)
(0.975536 0.0457697 1.35005e-19)
(0.98681 -0.000634008 5.29823e-21)
(1.01499 -0.0819396 9.66478e-22)
(0.995761 -0.00311465 5.29359e-21)
(1.02067 -0.00220296 -8.9811e-21)
(0.976804 -0.0456896 2.42836e-20)
(1.0158 -0.00158556 -3.05089e-20)
(1.02885 -0.057582 -2.30466e-22)
(0.999987 -1.61338e-07 3.17645e-25)
(0.999172 -0.0160124 7.0832e-22)
(0.996941 -0.000296508 1.6911e-22)
(1.0002 -7.91146e-05 8.13446e-23)
(1.00007 -1.16426e-05 1.95644e-23)
(1.16492 0.106161 1.1886e-19)
(0.996218 -0.0016938 2.99527e-21)
(1.02236 0.00213558 4.76067e-20)
(1.00041 -0.017262 7.30122e-22)
(1.00068 -0.000263593 2.32928e-22)
(1.01811 -0.00574449 -3.39108e-20)
(1.00013 -2.2505e-05 -2.46214e-22)
(0.999981 -2.54422e-06 -3.39714e-25)
(0.963743 -0.00216331 7.49124e-21)
(0.997331 -0.000960499 1.35435e-21)
(1.00002 -4.50289e-05 1.18634e-23)
(1.07454 0.0826027 4.00914e-20)
(0.858323 0.0910604 -1.94464e-19)
(0.999844 -0.000193419 2.00655e-22)
(0.970291 -0.00166817 -6.1158e-21)
(1.00001 -1.19577e-06 2.22331e-24)
(0.949624 0.13281 -1.29682e-19)
(1.18507 -0.0295344 2.68681e-20)
(0.977345 -0.036572 -2.08161e-20)
(1.00005 -0.000435143 -2.34093e-23)
(1.02343 -0.0269143 1.30878e-20)
(1.02409 -0.00178836 -1.2319e-20)
(1.02589 -0.000730075 3.56377e-21)
(1.03788 -0.0132152 -5.23017e-21)
(0.999829 -0.00153065 -5.54829e-23)
(0.999882 -0.00068078 9.55493e-23)
(0.989348 -0.0123225 -5.803e-21)
(1 -6.66169e-06 -1.32477e-24)
(1.00001 -3.13524e-07 -5.56441e-25)
(0.981054 -0.0201995 -5.5004e-21)
(0.996735 -0.0489153 -8.7234e-21)
(0.967907 -0.0298387 -7.17655e-22)
(0.885997 0.13142 -3.69565e-21)
(1.00016 -1.67579e-05 -1.01507e-22)
(1.01069 -0.0618386 -1.46523e-20)
(1.00575 -0.00421016 -3.04646e-21)
(0.999982 -2.67709e-06 3.85779e-24)
(0.999164 -0.00309289 -8.83568e-22)
(1.00005 -0.000374583 -1.48966e-23)
(0.996464 -0.00998773 1.92767e-21)
(1.00004 -8.30479e-06 1.21124e-23)
(1.03011 -0.056717 -3.30341e-22)
(1.0157 -0.00200553 2.96101e-20)
(0.987574 0.141521 2.85061e-20)
(1.01974 -0.00209641 3.3736e-20)
(0.999789 -0.000174096 1.63277e-22)
(1.00035 -0.000320514 -2.36616e-22)
(1.13005 -0.0914446 1.39106e-21)
(1.02165 0.00138761 -3.83001e-20)
(0.99759 -0.000317304 1.20647e-21)
(1.00002 1.14432e-07 4.64054e-24)
(1.08322 0.0663018 -6.68952e-20)
(1.06281 -0.142694 -5.34161e-21)
(0.99688 -0.0624497 -6.62054e-21)
(0.988921 -0.000575049 -1.48157e-21)
(0.999982 -1.74288e-05 7.088e-24)
(0.999791 -0.000161989 -9.53992e-23)
(1.06716 -0.145609 1.53277e-20)
(0.997448 -0.0391776 -2.46398e-21)
(1.03533 0.0218501 8.0584e-21)
(0.99072 0.117672 1.19822e-19)
(1.01416 -0.0799051 7.97942e-21)
(0.999023 -5.40907e-05 -2.1505e-22)
(0.999982 -7.93848e-06 -8.62384e-24)
(0.971207 -0.0389384 2.05644e-20)
(0.979013 -0.0778889 -2.40446e-20)
(0.999851 -0.000192131 1.08728e-22)
(1.0074 -0.0189771 3.88399e-21)
(0.992739 -0.0208628 -1.0405e-21)
(0.99642 -0.00180717 1.18082e-21)
(0.996265 0.049738 -1.08101e-19)
(0.998997 -0.000483517 7.64167e-22)
(1.03964 -0.0435484 3.0042e-21)
(1.18561 0.0532033 -5.23111e-20)
(0.994072 -0.00263496 -3.39045e-21)
(0.900404 0.106907 -1.96661e-20)
(0.904328 0.0498512 6.10632e-20)
(0.999978 -4.06058e-05 -2.78282e-23)
(0.999978 -0.000579302 -5.65552e-24)
(0.986992 -0.000825231 -3.39917e-21)
(1.01024 -0.00454008 -7.29032e-21)
(0.971507 -0.00151297 1.26281e-20)
(1.00397 -0.00336347 -3.19346e-21)
(0.994305 -0.00263908 3.17703e-21)
(0.999558 -0.000424802 -3.38171e-22)
(0.961412 0.130897 -2.30276e-20)
(1.05441 0.0410196 -8.80093e-20)
(1.00175 -0.00187605 5.62249e-22)
(0.807518 0.0569984 -3.80109e-20)
(1.00001 -1.27274e-06 -3.1714e-24)
(1.02208 0.00451111 -6.54883e-20)
(0.99128 -0.076483 1.56708e-20)
(1.01246 -0.0620007 5.65401e-21)
(1.00007 -0.000168583 -4.56418e-24)
(0.970169 -0.000893936 1.04129e-20)
(1.01871 0.00303529 3.66259e-20)
(1.01 -0.00512672 6.0399e-21)
(1.02461 -0.00163347 1.70311e-20)
(0.999646 -1.85729e-05 6.33062e-22)
(0.999634 -0.000406955 4.04551e-22)
(1.01799 -0.0377326 -6.13309e-22)
(0.997367 -0.00106396 -3.86655e-21)
(0.990324 -0.00934141 -6.23076e-21)
(0.99928 -0.0028216 5.25684e-23)
(1.07222 0.0230154 4.69703e-20)
(0.999211 -0.0167751 -4.96085e-22)
(0.996119 -0.00388327 5.57885e-23)
(0.948116 -0.0206864 -2.73939e-20)
(1.00193 0.0932361 1.38745e-20)
(1.08467 -0.0370828 -2.10655e-20)
(1.01738 -0.00577405 2.72657e-20)
(0.999689 -0.000149727 1.21121e-22)
(0.999606 -0.000258919 5.44088e-23)
(0.986413 -0.0164823 1.47266e-20)
(1.00078 -0.00100413 -5.49786e-22)
(0.99803 -0.000556474 -2.20055e-22)
(0.999982 -1.64751e-05 -2.60579e-24)
(0.999821 -0.00155493 1.26192e-23)
(1.01814 0.00279329 -1.42074e-20)
(0.984627 0.0803958 -1.23543e-19)
(0.9999 -1.41969e-05 2.52128e-23)
(1.16874 0.082492 -1.02484e-19)
(0.999997 -3.31606e-05 1.28629e-24)
(0.997511 -0.00224683 1.64731e-21)
(0.999993 -7.23766e-05 2.41135e-24)
(1.00402 -0.00287894 -1.41391e-21)
(1.15755 -0.0449779 -1.60963e-20)
(0.999971 -3.19164e-05 2.49563e-24)
(0.999968 -3.65842e-05 1.73231e-23)
(0.9591 -0.0336778 -1.16469e-20)
(1 -6.59439e-06 -1.06477e-25)
(1.04086 -0.0126746 4.39128e-20)
(0.989934 -0.0328641 1.05751e-20)
(0.999969 -0.000503154 9.84585e-24)
(1.07684 0.0504529 -5.2027e-20)
(0.999999 -2.33334e-05 -2.8823e-25)
(0.999689 -2.2754e-05 5.57859e-22)
(0.999932 -2.77574e-05 9.85766e-25)
(0.996267 -0.00397085 -9.62479e-22)
(0.999729 -0.00121115 -1.6258e-22)
(0.995243 -0.00020207 -1.09225e-21)
(0.998397 -0.0925067 -1.85434e-21)
(0.999758 -0.00118013 1.06927e-22)
(1.00327 -0.00271444 -1.09732e-21)
(0.99998 -1.83584e-06 -1.45555e-24)
(1.06906 0.148353 -1.73793e-19)
(1.03856 -0.0442949 7.72451e-21)
(1.08738 -0.0380046 -3.06693e-21)
(0.973521 -0.00458458 1.36909e-20)
(0.982692 -0.00334346 -2.48177e-21)
(0.999231 -0.0030344 1.45164e-21)
(1.00227 -0.00207366 1.52955e-21)
(1.04726 0.0557239 2.32197e-20)
(0.986487 -0.0289998 1.65861e-21)
(1.12136 0.0677162 2.54009e-20)
(0.967069 -0.0105189 -2.46989e-20)
(0.99742 -0.00216613 -1.55223e-21)
(0.999992 -2.88756e-06 -2.92793e-24)
(0.995621 -0.00220906 -2.16115e-21)
(1.03798 0.151858 4.34047e-20)
(1.07303 0.0585502 -1.2123e-20)
(0.986266 -0.0435848 8.51569e-21)
(0.955699 -0.00433761 5.79446e-21)
(1.06975 0.137533 4.77285e-20)
(0.993503 -0.000454452 2.83502e-21)
(0.988021 -0.0700172 1.22708e-21)
(0.999995 -6.6018e-05 2.71112e-24)
(0.989114 -0.0330301 1.33015e-20)
(0.999373 -0.000191105 -8.15538e-22)
(0.821549 0.0989013 -1.09883e-19)
(0.983465 -0.057047 -1.81578e-20)
(0.999934 -2.3325e-05 4.54608e-23)
(0.952847 -0.0144029 -1.56664e-21)
(0.986439 -0.030606 8.28419e-22)
(1.03418 0.0618856 8.1162e-20)
(0.998058 -0.000602833 -2.08727e-21)
(0.984945 -0.0295164 -4.94762e-21)
(0.997989 -0.00840078 -1.60325e-21)
(0.999615 -0.0180655 -1.54947e-21)
(0.999033 -0.000476502 -5.22155e-22)
(1.03323 0.060822 -9.85909e-20)
(1.02137 -0.130672 1.33615e-20)
(0.986487 -0.0129217 -4.37439e-21)
(0.98973 -0.0113891 8.93882e-23)
(0.990273 -0.00376428 -1.37287e-21)
(1.00409 -0.00193421 -1.29268e-21)
(1.06958 0.132457 1.88738e-19)
(0.986609 -0.0106734 2.00662e-21)
(1.01597 0.0320635 5.56402e-20)
(1.00208 -0.0017063 1.16691e-21)
(1.14969 -0.0641348 -3.842e-22)
(0.927876 0.106689 2.01731e-20)
(0.993391 -0.000374398 -9.74487e-21)
(0.999824 -3.21837e-05 1.07327e-22)
(1.05427 0.0765514 2.44949e-20)
(1.01343 0.124079 -1.61586e-19)
(1.01744 -0.0363044 1.3592e-21)
(1.06111 -0.0391776 2.63503e-21)
(0.996213 -0.0105738 -2.10185e-21)
(0.973907 -0.00412232 -8.09128e-21)
(1.11021 0.0888371 7.01785e-20)
(0.970271 -0.0390774 3.76086e-21)
(0.99998 -1.63156e-05 9.55528e-24)
(0.994348 -8.4196e-05 -5.02786e-21)
(1.00003 -7.4428e-06 1.23753e-23)
(0.996583 -0.000156507 3.77e-21)
(0.999979 -1.77904e-05 -1.47858e-23)
(0.998151 -0.0115971 2.56147e-21)
(0.999263 -3.98819e-05 2.8766e-22)