/*--------------------------------*- C++ -*----------------------------------*\
  =========                 |
  \\      /  F ield         | OpenFOAM: The Open Source CFD Toolbox
   \\    /   O peration     | Website:  https://openfoam.org
    \\  /    A nd           | Version:  7
     \\/     M anipulation  |
\*---------------------------------------------------------------------------*/
FoamFile
{
    version     2.0;
    format      ascii;
    class       surfaceScalarField;
    location    "27.5";
    object      phi;
}
// * * * * * * * * * * * * * * * * * * * * * * * * * * * * * * * * * * * * * //

dimensions      [0 3 -1 0 0 0 0];

internalField   nonuniform List<scalar> 
29574
(
588.016
-435.407
-152.609
270.861
43.1382
-314
947.108
-1138.21
191.103
-395.196
994.353
-599.156
-632.083
671.089
-39.0062
-687.283
55.1998
218.267
-42.256
-176.011
642.669
-496.809
-145.86
206.874
-288.563
81.6893
89.407
553.262
-88.5294
258.739
-170.209
-292.103
293.356
-1.25293
-232.089
-20.8368
252.926
34.6547
553.361
620.86
-649.871
29.0117
-965.137
569.941
-316.466
356.417
-39.9509
-91.5174
-1032.32
1123.83
-259.057
229.888
29.1685
305.365
-34.5041
-305.779
293.871
11.9072
-31.2723
-260.831
-499.899
589.306
263.309
-323.088
59.7785
947.108
-353.469
62.5821
290.887
892.455
-976.398
83.9433
339.155
-146.205
-192.95
-159.708
-109.706
269.414
-114.176
-144.881
-592.313
740.783
-148.471
335.046
-280.219
-54.8268
408.927
-88.6545
-320.273
555.532
-293.88
-261.652
-717.046
780.479
-63.4333
-731.025
138.713
162.81
-394.282
231.473
932.343
-932.343
784.724
-344.46
-440.264
277.726
451.211
-728.937
1.68901
802.896
-804.585
-322.638
100.591
222.047
-885.357
728.355
157.002
973.808
-81.3525
-101.333
-252.136
116.386
72.4905
-188.877
1148.38
-490.825
-657.559
341.787
-245.674
-96.113
842.859
-30.4369
-812.422
238.882
-228.397
-10.4853
-787.796
70.7495
45.7921
-758.685
712.893
-300.789
-128.307
429.097
763.096
-835.464
72.3675
176.669
-396.317
219.649
15.0604
-208.982
193.922
379.383
-109.165
-270.218
694.728
-751.255
56.5263
-60.6134
-293.21
353.824
-86.4847
-229.981
-645.466
402.695
242.77
-50.2688
244.276
-194.007
479.603
-482.185
2.58167
-206.991
-373.017
580.008
-697.606
828.062
-130.456
-714.658
106.979
607.679
541.534
-568.574
27.0401
-650.509
-64.1493
-178.646
-356.422
535.069
-111.186
-101.017
212.203
359.897
-554.094
194.197
333.929
-228.399
-105.53
675.101
-54.2412
-270.691
-37.2721
307.963
1063.23
-563.035
-500.198
-82.9011
477.878
-394.977
335.124
-109.958
-225.166
-226.573
15.4022
211.171
935.424
-657.699
591.9
-832.645
240.745
632.493
-525.514
816.812
-194.215
-622.597
302.752
-107.672
-195.08
297.017
-90.1427
133.865
-184.134
-629.106
-256.25
237.195
-282.024
44.8292
-32.4562
135.259
-102.802
-681.043
474.052
115.868
-302.438
186.57
-437.58
724.856
-287.276
739.007
148.794
-887.801
904.477
-130.148
-774.329
173.473
-283.83
110.357
202.503
139.284
424.004
55.5994
249.852
-76.3799
-779.39
789.592
-10.202
-325.211
236.681
1034.01
-928.608
-105.397
277.072
-161.204
405.12
-416.268
11.1477
157.465
140.334
-297.799
465.333
-183.685
-281.648
1241.1
-1241.1
473.765
40.7574
-514.522
-11.8472
256.182
-244.335
-484.568
248.302
236.267
265.214
8.93453
-274.149
-294.678
-60.7009
355.379
48.7666
-208.475
178.93
39.3371
394.727
-109.321
-285.406
-266.62
-401.261
667.881
-573.774
490.873
-568.685
-431.397
-416.39
-157.57
573.96
576.736
55.7567
-320.915
4.06713
316.848
-1028.5
237.98
790.522
-170.793
909.8
54.9311
256.252
-311.183
381.837
-631.935
250.098
232.357
-361.899
129.541
131.487
424.045
795.462
-886.979
14.6668
227.375
-242.042
183.511
155.644
241.91
93.1359
114.961
-531.351
-30.7313
-149.908
180.639
21.9452
216.937
858.701
-857.012
290.512
494.212
115.719
-361.77
246.051
269.373
971.729
304.219
-75.5377
-228.681
-276.867
-28.9118
-405.707
35.3523
370.354
100.567
65.3448
-165.912
292.391
-237.46
31.4912
-302.182
182.933
150.996
-299.908
187.764
112.144
-582.033
95.6702
486.363
-130.954
246.673
-309.52
89.5663
219.954
-94.2661
-222.889
317.155
8.39523
313.819
-322.215
-765.167
-211.231
127.374
-221.64
223.939
971.751
-67.2742
-229.007
-52.63
281.637
150.993
665.819
-289.167
-20.3531
-753.632
124.526
73.4933
189.816
68.4291
-159.237
90.8081
-10.2015
-221.887
-172.333
349.002
-239.552
197.296
-36.2972
-409.742
-172.291
-203.062
-678.735
881.797
-143.111
110.655
345.562
59.5578
274.141
28.6112
440.541
37.3363
-358.494
521.304
358.33
-54.1115
-164.655
-152.566
317.221
15.4084
-227.953
212.545
398.603
-442.679
44.0752
97.5599
95.7041
-193.264
45.5986
363.329
-571.615
509.11
62.5042
-535.61
-32.22
567.83
-439.69
-134.084
-1.79919
219.628
-217.829
63.2306
-231.288
168.058
735.562
196.781
342.161
36.0558
-378.217
-67.0012
216.323
-149.322
267.118
38.247
226.987
-123.788
-103.198
586.755
-226.858
30.8199
1003.19
144.418
207.627
117.505
-325.132
298.468
-283.801
248.497
-397.28
148.783
72.7601
-1001.37
-603.064
424.417
216.914
-148.485
-45.6252
313.373
-267.748
95.2487
246.912
-55.5469
324.273
-268.726
325.233
-58.1147
-6.53891
214.166
261.922
-401.013
139.091
-95.7772
334.21
-238.433
-484.474
145.441
-332.541
187.101
268.207
-376.682
108.475
-312.193
284.767
27.426
-9.58928
-327.267
336.856
777.328
-731.536
197.179
-182.119
619.575
-634.858
15.2826
413.173
128.361
-851.952
510.322
341.629
-38.8636
303.396
-264.532
-85.6333
-150.367
236
-296.477
560.117
503.115
513.774
-513.774
-531.133
-497.369
-266.985
-217.583
899.425
-608.913
-1.74339
265.864
-264.12
-159.489
-279.835
439.323
63.2762
164.346
-227.622
530.222
-967.802
-348.388
287.687
-12.5946
-393.112
351.919
-361.508
-1068.66
499.971
-485.143
485.143
-641.351
-6.64772
647.999
661.565
-279.728
291.688
135.759
-427.447
-330.065
318.218
-216.765
206.734
10.0312
-559.243
842.911
-283.668
306.692
-69.4967
573.251
-99.4859
-411.901
247.245
182.036
67.8169
-659.613
500.125
247.032
-356.991
87.9317
-173.565
276.366
111.299
-387.664
352.276
-119.919
-995.638
-245.464
622.034
-45.2975
-83.0272
286.056
-203.029
552.334
-476.513
-75.8213
-80.2824
777.29
-697.008
-53.2144
896.073
263.496
1.71859
-118.045
181.321
-92.0777
572.931
-480.854
-542.617
198.156
-165.34
10.8475
154.493
-135.385
427.073
-52.1487
230.727
-178.578
-71.3282
-251.309
192.536
-91.9693
-77.3643
193.751
20.9897
-249.221
228.232
34.995
455.754
-490.749
710.374
49.3837
-759.757
285.712
20.98
-80.4385
-159.113
-142.443
44.7773
243.538
-288.316
33.9765
360.751
205.341
-764.584
304.263
-193.716
-88.3081
122.531
-820.684
698.153
68.0093
-402.388
-166.186
-297.572
214.467
83.1048
-330.26
-315.206
567.774
-999.171
236.564
-49.5776
-186.986
-62.0869
263.785
-201.698
-1039.5
345.119
694.383
-48.5119
379.594
-331.083
324.555
54.8281
-234.877
84.5167
150.36
363.03
-108.543
-254.487
390.639
-142.141
-156.722
297.056
262.946
-214.553
140.018
-202.105
-111.163
622.93
-511.767
753.415
-161.515
-114.957
-375.445
490.402
854.058
-731.527
264.088
-219.311
-27.0863
-331.408
-536.96
72.8952
88.2958
-161.191
369.83
-90.5125
-279.318
-93.6793
189.57
-95.8908
399.517
-137.594
-121.146
-355.413
476.558
7.66059
843.947
-851.607
-776.66
803.897
-27.2364
-241.409
46.9955
194.413
-754.047
439.895
314.152
48.9294
-163.106
-1.26285
175.748
-174.485
-300.602
269.33
6.1879
-230.584
224.396
248.263
-28.6349
180.905
-552.919
372.014
230.774
-209.784
-40.2672
-186.306
-62.4956
583.799
366.001
-80.3588
-285.642
-733.868
741.528
-461.019
363.738
97.2809
460.876
-345.915
482.814
-855.436
372.622
-294.843
-101.475
-726.531
28.925
-178.923
-55.9536
-645.607
631.58
14.0277
-182.036
351.352
-169.316
320.376
314.283
262.597
-169.582
-93.0152
267.253
-258.925
-494.707
-198.823
-85.0063
271.545
-211.179
-60.3666
-567.861
17.7209
550.14
174.467
-76.9066
1006.26
-1006.26
433.598
-499.802
-539.7
160.392
192.257
-352.649
-493.173
466.087
-331.882
294.61
-326.499
420.985
170.69
-591.675
50.7466
712.35
567.102
-146.117
443.447
-601.017
106.52
209.846
-316.366
-208.364
-214.424
422.788
320.103
72.8852
-392.988
-297.325
-544.653
841.977
491.685
-758.305
386.146
27.555
-413.701
-1032.32
417.668
96.1061
293.852
-278.444
300.5
-361.113
-11.3495
121.393
-110.043
15.5246
-261.752
-254.383
11.8205
242.562
252.151
19.3944
323.755
-390.756
226.915
-93.0503
-559.305
-200.141
-102.297
-391.517
-362.53
-977.037
-184.674
1161.71
-496.273
963.908
-467.634
-130.806
-4.2203
135.027
-668.448
636.793
31.6551
-250.293
382.658
-132.365
245.253
307.081
2.36812
-211.35
873.944
-912.486
38.5428
436.965
-123.508
224.099
-381.594
166.95
214.645
-256.99
71.7639
185.226
-501.839
-66.022
135.205
-244.37
360.584
-84.2183
-1123.35
920.285
-564.393
472.316
-98.0882
211.184
-113.096
-73.9273
384.318
-310.391
386.089
-362.173
-23.9153
-369.138
46.1264
-211.467
-317.323
697.11
-379.787
-71.6599
-253.551
-90.6339
476.78
4.42572
192.2
-196.626
944.599
203.785
-366.139
-15.4552
172.198
213.891
-372.659
-456.388
829.047
-871.501
380.676
436.278
-949.872
513.593
104.54
-442.117
337.576
-282.018
188.339
-12.6433
468.397
-133.221
-199.32
-428.34
148.121
616.091
5.94243
24.119
212.445
437.471
-75.9471
-361.524
-109.667
-86.7366
196.404
133.56
237.268
-308.596
9.1127
-108.205
-41.5311
149.736
-384.215
-20.7176
404.933
-27.0444
332.25
-305.206
-102.923
493.559
-390.636
-419.157
391.082
-70.9794
-907.701
827.418
362.407
-321.65
-70.4184
-326.862
-73.956
-327.057
-655.356
-124.034
-536.561
300.029
236.532
-294.064
65.665
-127.781
123.909
39.3673
195.697
411.128
-606.824
29.7376
-293.737
48.0631
27.836
296.437
150.938
-260.259
-51.2937
-291.865
343.158
-810.677
796.29
14.3875
231.331
-252.406
21.0753
362.208
537.217
276.115
-384.657
-20.4831
306.195
-724.581
694.144
288.666
-211.065
-77.6008
300.294
13.0793
-175.498
-168.155
-311.67
479.825
-214.292
-97.9005
304.726
-395.239
443.565
-564.71
119.268
76.2742
-195.542
206.035
-128.352
-77.6824
278.177
-650.836
160.072
-516.495
243.49
-91.8714
-151.618
47.5796
-812.747
-432.727
313.096
-393.455
-593.051
697.591
-508.255
98.5131
368.302
-665.626
116.212
-231.706
115.493
-850.493
898.073
-30.198
-6.38135
809.278
-218.211
216.406
1.80494
-312.192
196.67
115.522
-241.939
-134.743
-58.5461
426.805
-368.259
556.475
-667.638
47.1622
-229.073
181.911
174.316
-127.153
348.566
81.9604
-263.996
174.001
18.5356
-143.87
766.826
107.117
-453.854
172.205
-211.864
177.566
34.2987
190.759
-242.908
-3.0682
191.487
-188.419
-353.539
302.245
-222.194
-15.3968
237.591
-548.068
433.112
210.807
-202.412
-580.892
-64.7152
614.854
4.72109
-319.17
-212.181
174.021
-88.4969
-85.5241
-113.65
-100.939
214.588
177.209
-242.232
65.023
-44.1411
294.508
-250.366
-225.568
213.062
12.5065
-195.122
-30.4463
355.56
81.9108
992.079
-722.705
-283.171
-311.813
240.153
191.066
33.0146
-224.08
-985.098
805.793
179.305
-366.893
170.093
196.799
-508.841
-148.577
657.417
-158.926
-806.211
-14.2823
-283.516
-470.226
449.508
-98.6745
-213.517
258.273
5.51202
659.952
-102.772
-557.18
347.323
-450.246
-159.206
756.253
-597.048
-232.891
-208.658
441.549
-285.657
269.52
16.1362
5.94606
-70.1492
247.358
-115.727
-181.845
-526.878
-9.68365
-16.1574
-90.5345
-744.929
40.4037
-432.228
-214.134
100.485
-282.214
172.508
699.057
255.004
-307.634
163.483
63.5041
-332.323
-5.75017
338.073
-264.399
7.40978
-36.8687
-997.077
778.664
218.413
-19.7155
226.449
-85.193
271.763
493.013
-523.903
30.8895
-303.056
-157.962
-361.062
396.414
-45.1556
136.59
-91.4339
1002.43
-823.26
-179.168
42.9837
-581.995
539.011
-27.2332
-124.22
151.453
-157.722
-136.342
487.369
-63.3655
-260.579
505.832
-559.409
122.117
437.292
-210.099
272.681
520.039
-391.567
-128.472
294.39
8.38599
-302.776
-281.86
198.833
677.827
-104.177
-573.65
435.426
-239.73
-433.282
389.579
43.7035
271.604
14.4522
-293.319
-39.0035
-180.045
56.2564
200.043
-500.582
66.7045
433.877
-262.418
260.674
-397.14
370.095
-327.35
-67.4745
-417.668
-458.17
399.624
-530.613
1001.79
-471.179
-118.824
73.6682
-175.605
-191.288
488.187
-50.2135
-437.973
-17.4423
-298.723
316.166
-506.614
563.016
-56.402
444.092
203
-100.076
-102.924
199.949
-244.09
198.089
-201.157
-310.93
99.7515
469.773
-426.79
-11.3101
-274.347
66.2615
-906.35
906.35
121.197
3.04665
420.5
-423.546
-165.645
181.702
-16.0562
-512.995
304.632
-425.565
69.8827
355.682
56.3128
117.708
-510.731
408.112
102.619
-207.713
436.444
50.9248
308.205
41.9989
-350.204
339.303
-83.0511
-426.706
-49.8071
117.335
-358.967
285.039
337.891
-253.96
-83.9312
-29.7167
144.283
-114.566
-977.037
-295.292
-184.764
81.5871
103.177
-342.216
253.562
-427.309
-522.562
245.093
563.83
-808.923
-144.443
-531.952
676.395
-484.293
165.123
-18.9246
192.926
214.33
-16.2405
-657.292
640.529
16.7631
83.6179
351.808
292.636
-74.4505
-218.185
-100.225
-564.627
664.853
-578.723
818.917
-240.193
-594.665
59.0661
-812.52
208.148
604.371
-984.958
433.042
551.916
-288.516
-270.894
-116.579
478.986
-968.577
437.964
-675.561
814.399
-138.838
657.587
-757.812
-211.047
251.034
-229.088
124.31
-799.872
-164.139
-694.43
858.569
678.602
-0.774704
501.251
326.811
-92.7065
295.209
-92.3607
88.1404
-152.665
219.918
-592.936
254.016
-226.814
-27.2023
-120.076
344.198
-224.122
-172.164
-121.573
523.406
-30.3922
-290.995
273.553
13.3126
623.481
-703.858
-650.603
-255.337
-245.244
41.0429
217.696
23.8818
487.044
-510.926
-388.191
349.433
38.7581
-141.112
156.514
561.629
440.163
-380.958
-167.489
548.446
174.047
-260.531
-106.967
289.9
-72.6163
-352.949
183.72
-259.258
-232.792
316.41
202.529
-130.038
-448.395
-536.563
-290.766
-11.2844
302.051
-335.457
198.946
136.51
-173.867
178.293
-247.338
-88.1186
225.274
-219.086
249.72
-282.358
32.6383
319.611
-86.6052
-233.006
-805.222
646.296
-311.191
-331.837
81.5438
-325.541
353.096
273.457
-74.1498
518.242
180.07
-15.7239
263.57
561.286
-824.857
-194.092
165.82
40.2145
-575.485
407.329
-983.97
305.235
319.936
-816.21
-473.015
-73.0185
546.034
-528.99
451.363
77.6269
281.855
-207.12
41.4747
-651.582
391.002
-40.5938
156.806
-359.885
383.767
134.837
-526.404
-121.822
-36.8258
218.861
-7.64582
277.166
270.7
-81.015
176.719
774.725
2.56547
295.855
-283.073
-12.7813
-277.525
-84.2457
-86.9916
-34.2522
265.583
716.527
247.381
51.5433
220.219
340.952
-93.9194
-62.0598
316.23
-254.171
-457.459
82.0138
494.598
-230.393
-264.205
287.805
-295.451
-16.3465
-674.371
690.717
223.245
-828.636
459.498
-236.82
76.2016
-361.844
-124.54
-398.355
522.895
-124.97
135.817
248.54
-341.247
330.926
-17.1065
-870.33
334.72
89.2735
-368.591
-725.914
-523.486
-461.612
237.529
104.869
-359.356
231.395
-338.361
158.323
85.1667
153.336
-220.918
67.5817
-517.371
161.958
503.952
-923.11
-147.022
58.5255
458.324
26.8189
-574.852
-422.225
17.887
-598.779
-3.61121
298.001
-99.9852
413.641
-313.656
-107.996
-85.2677
152.724
-230.712
-65.7651
-343.524
377.501
-266.283
-52.521
318.804
-64.1933
263.14
-288.06
-259.79
241.775
18.0152
43.7626
-252.919
329.12
370.382
-65.6017
-322.589
-22.0731
235.135
204.398
-28.6405
-175.757
-84.0142
-466.585
53.8055
412.779
-290.302
-136.177
426.479
185.331
-215.048
337.814
-238.526
59.6022
-195.197
-123.595
318.792
817.754
336.264
-40.6801
-209.767
250.447
-22.637
-506.353
-290.766
-733.076
342.234
390.842
2.53976
-296.42
-9.311
251.221
-12.2472
228.654
282.935
-329.803
46.8684
-465.932
-137.132
-542.52
178.145
364.374
210.413
27.1771
237.883
346.195
-612.007
265.812
242.584
-409.485
166.901
-356.863
408.756
-664.308
255.551
992.167
-961.347
-777.366
460.043
-453.691
-112.066
565.758
174.16
121.695
-315.043
578.427
-415.277
-163.151
389.904
-215.857
-832.846
254.123
250.474
244.124
-240.087
82.3644
401.611
-83.3927
179.032
-180.901
1.86845
232.741
11.5351
579.871
-612.091
-502.021
170.666
331.356
74.1126
-363.777
-123.839
487.616
89.8303
395.581
-211.861
265.272
59.9607
-455.036
151.98
312.204
106.118
-418.322
118.215
-216.303
-189.865
-229.238
-206.17
-360.693
17.1692
-28.4837
-628.808
-36.732
231.56
-194.828
-297.775
185.265
112.51
-392.406
-120.065
512.47
-278.433
-69.9553
187.972
16.4251
-347.958
80.141
183.054
73.7715
-256.825
-265.542
-144.272
409.814
-366.378
-291.628
271.823
19.8052
110.675
-339.982
229.307
162.997
-228.846
65.8482
-36.1381
-122.894
-287.554
410.448
-364.728
231.507
211.57
-440.808
-249.567
107.28
142.287
-464.752
153.082
35.1024
-440.258
405.155
-196.691
-63.0988
184.427
429.419
-355.603
-73.8163
-210.322
202.092
8.22997
-263.244
120.557
142.687
-75.4107
-136.454
-330.476
-117.756
923.549
-215.231
-33.9905
272.941
-477.463
319.501
108.207
-307.494
199.287
-404.971
-143.096
548.067
-472.034
-215.248
220.168
-29.1021
281.535
690.186
-706.533
-49.0879
-272.172
321.26
82.8865
-711.737
628.851
208.001
99.9723
-307.974
309.348
-117.092
-238.639
224.357
-362.636
-49.4886
412.125
-710.478
39.2403
671.238
-504.277
-155.336
-96.5737
-300.566
522.781
-41.7975
-774.537
-19.7912
794.328
-206.102
565.746
-359.644
-214.446
478.016
146.107
-509.884
326.225
-116.379
124.019
448.912
-426.044
429.09
-322.153
-149.744
471.896
-523.531
50.516
315.537
48.2011
18.194
-256.833
266.76
-74.7703
-191.989
-110.663
-113.951
302.29
-86.3882
-272.579
44.1799
228.501
-298.795
-101.784
400.579
-278.886
350.214
-71.3286
-86.8993
277.659
-335.058
-142.006
477.063
-232.93
103.402
129.528
-133.518
-51.8556
55.7543
-651.647
595.893
-181.133
-252.149
-305.398
-247.521
-334.043
-98.6841
-209.523
-82.5961
292.12
415.168
639.758
170.344
-226.881
56.5371
167.381
530.211
227.096
39.664
178.262
-256.62
78.3586
-407.555
-140.513
-526.227
-100.424
367.677
-179.784
316.302
-34.4473
656.141
-156.016
-4.59442
229.868
-240.957
278.478
-37.5206
713.612
0.361885
287.444
-601.87
492.289
109.581
220.898
71.7375
204.726
-46.392
221.297
-323.594
73.9943
-326.13
19.2077
-354.9
357.825
-2.92564
83.2626
-186.065
166.405
49.8524
-320.38
318.893
1.48699
296.664
-349.185
248.307
-20.075
-374.542
-118.631
-62.175
284.222
11.9648
242.052
301.626
6.33714
-391.424
-114.223
505.647
-77.7073
-150.69
-195.436
-33.6369
54.2885
249.975
258.99
-293.242
319.486
-56.8753
-262.113
289.637
-27.5239
-1061.39
715.686
345.701
-422.073
131.771
334.519
6.82576
-341.345
-69.4966
354.536
566.077
-176.72
-38.5686
215.289
-72.0069
-228.596
-260.723
-64.2254
324.948
-284.118
-61.9746
346.093
-69.9494
-510.027
-91.8434
-797.982
785.602
12.3793
31.2107
249.184
-280.395
36.7101
321.625
-192.769
479.57
-286.801
-231.388
-80.4252
-483.039
103.927
-211.923
185.879
-241.833
-315.847
-116.34
432.187
-119.099
471.01
-351.911
-381.141
-89.0846
-237.662
-103.584
2.15669
-441.205
-123.188
-199.944
683.539
16.1938
647.83
-664.024
-197.397
47.4899
230.437
-815.891
585.454
145.187
-387.127
306.338
-50.1558
87.2067
-1024.11
-225.29
-113.071
438.207
-4.60897
-525.035
-393.063
-121.459
-657.418
205.937
-399.518
193.58
-7.24738
301.755
-344.944
-93.0032
437.947
-16.82
-283.339
300.159
830.036
-116.424
-491.939
479.296
-59.2507
-715.286
-92.5337
462.629
-846.8
783.367
295.819
-474.474
401.858
-94.8356
-116.229
162.119
175.886
-338.005
-438.225
-246.499
183.555
19.105
-202.66
-210.108
915.885
31.2232
-991.992
559.764
-212.274
-104.708
316.981
757.101
38.361
358.619
-70.9315
372.244
-355.075
-401.9
406.5
-4.59985
330.469
-324.694
-5.77449
363.381
-81.8465
-18.7543
-436.912
-145.083
-223.643
-129.006
-198.686
-117.68
-615.035
823.641
-208.606
-241.122
-6.21603
-220.891
-441.517
-462.303
412.09
74.7969
-305.509
-91.8075
-125.143
216.95
-42.8788
388.447
-345.568
356.066
-53.8205
218.194
-70.6495
-147.545
98.3868
-222.606
134.371
128.574
313.984
-105.982
-333.775
-91.3827
230.666
569.151
-136.039
26.2103
-773.538
747.328
-273.578
111.248
-192.263
-30.1407
-77.5946
346.925
57.4983
771.747
-699.379
856.455
-110.868
-745.588
376.454
-74.6372
-301.816
103.786
-216.883
-90.6259
507.252
-416.626
-231.344
-57.2194
22.3389
-734.076
457.085
-73.9281
-290.481
284.867
5.61414
-212.036
-40.1667
252.202
202.331
26.8424
-229.174
-36.0062
-87.2195
-449.872
-611.515
-427.201
200.332
0.413225
-196.325
-22.2429
245.488
58.0614
-538.317
480.255
-330.513
222.403
-398.008
149.246
-348.567
683.863
-330.82
67.7818
-268.093
200.311
-144.133
311.083
595.784
-152.337
-203.251
-141.36
228.96
914.163
89.0229
-302.051
225.671
46.2727
725.474
-11.4835
190.516
-322.969
-93.2985
401.78
-88.6841
-457.538
-519.948
153.151
366.798
-164.681
-539.577
704.258
-572.691
1009.66
-755.625
140.59
-484.801
-273.466
275.735
114.904
-934.841
54.9196
879.921
-353.336
401.56
-96.8337
-10.7557
362.675
332.502
17.7122
229.371
-195.538
-33.8331
-308.365
98.2571
-192.496
-17.8256
243.052
377.96
-101.846
674.254
-135.243
291.039
108.477
572.39
-128.825
519.08
-107.952
255.906
-40.3715
-215.534
443.96
-498.587
-339.616
838.203
543.749
-243.719
-298.413
-553.213
80.8554
472.357
313.761
-73.6083
-711.388
677.401
33.9877
525.971
-76.463
-28.5671
634.936
-606.369
-381.863
295.258
296.711
85.9474
429.713
137.389
-385.183
217.781
-35.8701
366.927
-10.8605
-435.827
-125.65
-47.3441
592.645
321.544
-315.626
-5.9183
-531.669
65.7375
-387.176
-332.912
298.465
53.3701
326.224
-296.423
347.797
-52.5386
-145.374
-272.099
-270.547
-15.9669
286.514
-401.407
-112.367
-35.4687
547.219
-38.1083
-4.79558
473.193
583.986
-26.3561
-157.057
-267.369
328.946
-61.5764
-55.4721
222.6
32.0055
-743.394
-323.876
-236.648
359.983
-389.794
-68.3766
468.152
644.172
211.334
-855.506
-155.074
585.139
-128.054
328.461
-244.285
-84.1763
-71.5601
-602.75
-209.769
34.674
199.804
132.698
-139.131
204.979
-284.371
-305.631
352.363
-46.7327
217.09
317.962
-434.541
731.021
430.689
-310.226
375.25
-65.0235
-266.342
-475.644
-219.541
837.485
18.9703
417.555
-50.6289
-967.767
32.9264
393.392
-69.6374
-745.539
-13.3612
-313.501
633.978
206.126
-86.8577
-93.218
11.9049
294.29
-388.328
-6.86844
395.196
-241.41
-146.254
201.477
-115.951
-474.534
-100.95
499.788
-92.4584
349.704
-5.45722
-321.599
-108.922
-134.998
-518.519
374.076
-112.901
652.807
-630.468
-277.536
378.66
-101.125
-239.214
67.0501
281.21
22.1857
-445.672
-477.438
-406.842
973.044
-466.026
-507.018
582.244
-109.928
-522.583
-128.999
-96.744
17.9195
526.569
-135.567
21.562
55.7293
175.831
-228.096
-225.757
54.9535
-104.2
561.504
-137.087
-403.94
-342.069
287.242
263.521
2.06149
442.606
-92.9016
-51.7119
-148.232
-145.51
-305.89
31.5432
78.4973
-273.933
441.15
-652.381
615.847
-114.335
-501.512
758.814
-726.809
433.997
-74.014
-246.882
-283.596
44.5453
594.741
-126.588
-758.317
784.528
215.343
-1.44003
-213.903
-148.845
223.642
464.155
-64.5308
620.552
-146.5
-280.306
280.668
-109.113
-75.6513
-209.185
269.464
-60.2792
-94.7711
268.931
299.999
-44.9947
-36.3679
250.036
-473.525
-277.73
271.406
-235.649
-35.7576
-431.325
419.755
11.5692
-17.5135
-137.499
309.696
294.767
-300.209
5.44209
-250.648
-84.5943
-14.0654
135.458
-319.977
420.507
-42.9141
787.118
-744.204
-507.732
348.78
-30.8185
35.2166
344.355
13.7455
-358.1
7.13228
382.446
229.58
498.775
36.8745
503.7
14.5413
356.169
-47.9636
-70.1781
248.44
266.595
49.6352
-871.255
887.449
-302.846
282.619
20.2261
-547.144
247.866
2.16927
807.047
-597.499
-209.547
259.535
-182.749
-76.7855
433.412
227.849
31.0645
492.341
-197.586
617.287
-419.702
97.8309
-51.6334
846.488
-794.855
-429.565
306.671
476.129
198.972
233.354
1.78106
222.269
-189.663
-485.59
675.253
40.9979
207.309
64.1686
-558.912
571.027
-508.523
814.733
-261.926
-552.806
-289.463
-195.011
69.0871
271.039
0.784236
-223.866
-286.866
-359.507
-511.994
3.20729
185.002
-188.209
290.311
262.974
191.216
-792.43
768.524
23.9058
-26.5622
407.754
-456.631
48.8766
279.127
80.4047
-0.487417
788.17
-787.683
98.8416
230.104
61.372
82.2161
-291.334
304.376
-13.042
-920.376
-56.6611
194.695
-131.914
-488.351
620.265
-292.839
856.669
-147.189
-398.266
-133.404
-560.519
102.755
384.861
26.9393
-253.639
-26.6678
199.177
-143.448
16.5924
857.012
49.3374
-14.4159
301.859
472.195
-356.551
-115.643
-630.087
234.611
395.476
137.865
164.426
363.23
-356.077
272.145
150.464
281.724
229.509
257.387
32.2492
69.6151
-483.456
413.841
836.963
-237.902
-599.061
168.562
218.661
-387.223
366.737
401.891
248.036
3.86041
-626.331
-306.012
271.374
-889.714
367.644
81.3771
-479.732
83.2386
-636.332
-97.7438
244.487
-358
393.371
554.328
-568.178
645.005
-76.8267
-10.6378
371.388
410.703
-351.618
-40.5453
172.118
-131.573
-303.172
294.549
-17.3823
668.191
-345.963
-22.4965
376.115
-353.618
89.1974
-178.166
254.811
-76.6453
-292.087
237.287
54.7999
271.325
543.408
135.852
-401.785
455.271
-1123.83
1123.35
128.304
-10.666
440.045
167.283
-56.0353
414.666
350.268
214.358
21.642
293.426
364.035
-25.7596
-338.276
-649.629
648.955
0.674113
229.654
195.532
-10.5302
501.479
-431.864
-211.197
765.525
305.019
80.8558
272.974
-366.894
-172.038
26.8258
244.58
785.866
-173.589
-612.276
-888.587
961.347
298.473
378.007
254.328
-247.502
554.137
-992.363
466.508
345.413
333.337
-35.3591
469.73
291.204
59.3967
-416.54
357.143
-219.229
330.264
-13.5981
-23.7471
-824.319
694.171
859.453
-201.867
333.717
286.391
124.869
339.214
-19.9759
-319.238
269.135
318.374
296.498
-187.775
87.6992
-272.436
281.914
-9.47797
446.013
-561.741
-247.182
-2.77022
217.128
463.742
-577.966
-275.633
21.9946
471.553
-131.573
-235.981
367.554
-331.624
-188.324
634.495
106.288
426.365
-943.765
517.4
-459.599
417.957
41.6424
-2.91864
252.253
-249.334
355.4
-266.202
259.295
-236.496
-22.7982
322.413
42.8929
-221.059
-850.493
81.7989
360.492
-442.291
-32.8442
723.984
-691.14
322.248
-295.266
-26.9826
-445.653
475.469
325.94
-268.442
-399.982
978.645
-578.663
275.222
-13.8018
197.356
540.95
459.05
-184.029
207.042
12.7633
-219.806
-27.7558
398.11
-593.47
33.5843
559.886
201.823
260.114
-363.698
-42.0411
-389.283
-915.885
864.252
-492.982
1033.93
336.28
-59.8078
238.057
-1.7818
-236.276
488.614
-434.809
55.6946
-707.342
-459.545
-0.0540443
-256.3
318.122
-469.464
-499.113
298.209
-18.8035
-279.405
-959.625
428.492
-797.982
156.08
32.3985
-188.479
29.6473
599.203
647.977
-633.949
-275.188
836.474
-73.3517
224.348
379.981
-551.243
171.262
-134.649
355.63
-220.98
-704.183
750.456
-385.737
220.075
-223.322
232.396
-9.07355
-275.723
702.088
313.454
642.366
27.6699
-785.987
-231.409
244.453
-357.523
-34.7431
-228.697
240.517
-898.073
982.016
175.435
39.1771
-214.612
262.478
-319.615
-71.1406
2.33805
391.941
210.577
-602.518
502.748
-902.73
524.913
-55.1397
-221.839
-2.56717
224.407
-114.148
-191.742
-306.9
73.8944
-166.385
-135.797
302.273
291.303
-264.477
-117.714
-316.185
433.899
280.133
288.817
-17.5506
-292.906
310.456
-690.88
16.5093
858.701
-920.376
992.167
-995.638
971.729
1013.34
-1013.34
-888.587
-1024.11
278.419
-251.48
-242.705
-252.271
-186.587
-1.83228
753.369
-965.092
211.723
-887.449
10.4807
-280.699
190.876
-34.7957
-763.496
791.166
227.556
-6.83673
-220.719
-280.982
264.162
-11.8741
-249.472
261.346
248.371
-14.2296
-234.141
201.337
-228.539
-23.646
-253.191
276.837
-187.621
200.374
-12.753
249.928
280.658
-347.072
406.469
104.107
-180.969
76.862
-392.977
-608.392
-193.869
207.15
-13.2802
-419.548
-84.0816
503.629
193.677
-174.572
40.0632
201.422
-25.9876
-360.111
275.865
514.648
-121.277
209.326
462.186
-54.4316
312.108
-399.577
87.4688
18.4524
-637.078
666.725
263.332
-460.918
-783.68
730.28
53.3997
480.777
497.868
71.2299
443.418
-276.379
269.131
-73.0767
-710.603
236.907
-341.615
730.864
-939.47
344.162
-765.4
421.237
126.225
264.006
-205.862
-58.144
-54.7728
-387.177
-868.303
592.58
-1.62977
255.95
3.7717
-308.136
304.364
15.729
-51.6837
235.523
281.686
-37.1056
185.404
-58.2862
-127.118
738.77
20.044
272.499
301.685
6.50446
178.49
-228.557
50.0675
236.757
-299.641
296.03
-331.902
-202.863
217.121
-14.2578
74.621
-494.169
241.432
179.075
-82.6934
836.062
-609.371
446.22
576.329
-681.726
220.336
-336.715
309.861
-444.511
186.813
-315.819
218.096
-191.253
-333.033
215.941
-189.498
-7.36057
196.859
217.551
-335.231
368.247
-266.206
-102.041
-6.17173
486.427
-442.472
-560.376
1002.85
-759.789
655.612
-50.5825
-320.391
370.974
21.3841
59.1763
-292.684
283.373
-268.081
-7.55242
196.45
65.1419
-261.592
-183.959
-215.559
-296.437
223.245
-208.79
-14.4555
-308.136
-409.521
409.521
185.797
-657.831
167.491
181.51
304.364
727.27
-234.981
-41.9401
-645.585
687.525
526.192
-88.9
235.139
-364.313
315.225
396.354
242.775
4.28634
232.129
-172.139
-59.9904
-31.4298
-686.807
686.807
-176.292
-386.809
-92.757
-119.166
206.633
20.2824
-142.168
209.985
-422.876
478.476
-146.404
-202.163
743.139
-504.802
-238.337
-111.009
-105.874
552.844
-180.83
-115.297
-43.508
-488.852
532.36
-500.647
-287.149
511.884
-19.5427
-17.1399
-744.748
555.086
-457.875
-65.6564
767.876
19.2418
230.614
-112.928
773.681
-660.753
105.274
874.384
683.177
855.311
146.868
-217.518
-386.131
-73.4139
-234.087
249.776
-230.715
49.3187
-167.912
-897.947
41.4348
856.512
11.0293
391.666
813.644
-261.259
246.245
15.0139
1066.41
-542.387
-524.024
-168.62
3.22159
476.074
202.627
-36.8065
266.265
282.181
422.256
-772.038
956.297
-184.259
-347.905
5.836
231.435
17.3617
666.177
-87.1084
-215.737
-164.292
-242.55
211.358
92.3162
634.954
689.846
-731.786
91.3039
-795.487
22.7246
654.676
752.262
-849.588
97.3259
-627.591
535.739
91.8519
627.241
-563.545
-63.6954
-446.355
520.975
58.2199
-77.8197
-121.979
199.799
122.524
305.586
-603.351
448.014
188.845
-188.845
-198.99
218.482
-879.208
436.736
-670.731
538.816
-553.213
871.255
-953.949
23.6469
-237.507
204.272
-164.179
-222.947
-246.389
20.4457
357.055
34.9984
341.455
-350.87
-363.924
39.2298
437.179
-680.899
-55.3105
-726.749
782.06
225.389
-265.556
55.1248
103.144
-228.287
-623.596
655.251
-196.73
-45.1026
8.15515
548.721
148.389
-308.137
-24.7746
-455.11
957.858
864.305
-864.305
332.891
43.2238
9.92406
463.269
-761.495
17.2911
651.419
15.3069
80.3282
417.402
-497.731
214.561
301.887
-3.8863
8.98119
673.395
17.3218
-858.72
648.951
195.464
303.249
-498.713
-826.397
564.471
210.284
-412.541
18.9807
-649.449
-184.598
-56.7104
241.308
-79.5521
194.637
-115.085
15.1906
44.4918
355.857
40.5573
-200.982
17.3833
-291.053
524.649
660.017
63.9673
12.3599
140.272
-81.914
-198.481
196.045
395.181
-500.575
-707.829
-64.2094
-197.516
-466.935
-476.83
-274.073
-360.785
624.557
-514.976
6.68952
798.636
-805.326
318.188
50.0594
392.119
-59.228
621.259
-56.8156
-564.444
313.783
-19.1729
-572.146
-104.153
676.299
-28.1984
-255.602
-608.603
452.587
-171.058
-73.074
244.132
238.339
611.301
66.3228
-239.729
-83.865
24.3806
203.279
-546.078
638.394
193.743
3.61388
-199.769
396.039