/*--------------------------------*- C++ -*----------------------------------*\
  =========                 |
  \\      /  F ield         | OpenFOAM: The Open Source CFD Toolbox
   \\    /   O peration     | Website:  https://openfoam.org
    \\  /    A nd           | Version:  7
     \\/     M anipulation  |
\*---------------------------------------------------------------------------*/
FoamFile
{
    version     2.0;
    format      ascii;
    class       volScalarField;
    location    "36.5";
    object      p;
}
// * * * * * * * * * * * * * * * * * * * * * * * * * * * * * * * * * * * * * //

dimensions      [0 2 -2 0 0 0 0];

internalField   nonuniform List<scalar> 
7807
(
0.255549
0.00275237
0.399754
0.259933
-0.0014015
-5.99991e-05
0.404632
-0.00838817
-0.000196178
0.11275
-5.60228e-05
0.00380372
-0.0125548
0.0571643
0.117268
-0.0166321
0.265846
-0.0162811
0.0016603
-0.0815206
0.0774564
0.00250248
0.0424499
0.211756
-0.0211673
0.265537
-0.00129755
0.0704322
0.179228
0.00385994
-0.022325
0.617376
0.0417135
-0.000782091
-0.000168899
0.0930558
0.00445191
0.39206
-0.00709796
-0.000547926
-0.00648967
-0.0158753
-0.0853202
-0.0439034
-0.000326124
-0.000131515
0.00244275
-0.00740086
-0.000108589
-0.0795166
0.00573282
0.0667949
-0.0266366
-0.00439026
0.0921803
-0.0074977
0.00174454
-0.00835132
-0.0344551
-0.000811839
6.56242e-05
0.0073482
0.0575451
0.00420015
-0.00156033
-0.0219194
-0.000155544
6.54311e-06
0.0891344
-0.00698148
-0.000120698
-0.0633217
-0.0205012
-0.0341665
-0.0158009
-0.0488446
0.393617
0.0758164
0.0667733
-0.0674551
-0.0120489
0.363336
0.109134
-0.0360692
-0.00231798
-0.00367276
-0.0089713
-0.0258629
-0.00106025
-0.00710983
0.182947
-0.051824
-0.000215166
0.00187378
-0.00565562
-0.0356955
-0.0594747
-0.000943685
-0.00255521
-0.00185755
-0.0588586
0.0751093
-0.00536039
-3.2041e-05
-0.0420007
0.187074
0.536339
-0.00798073
-7.98673e-07
0.0390416
0.245621
-0.0529075
-2.43006e-06
0.0415151
0.187489
0.000732087
-0.0652657
0.151598
-0.0441274
-0.0352639
-0.0612246
0.347386
-0.0784876
0.0161102
-0.0595287
-0.0015591
-0.0203494
0.00310554
-0.00165187
-0.0227356
-0.103976
0.0674465
-0.000980198
-0.00124911
-0.0373417
0.238355
0.430558
-2.74855e-05
0.0128451
-0.0768275
-0.0323712
-0.0541885
-0.0495112
-0.0329729
0.541356
-0.0216302
0.180172
-0.0339825
-0.0448423
0.346503
0.0889228
-0.0411626
-0.00245317
0.0692276
0.10852
0.36326
-0.0564883
-0.0124909
0.502272
-9.84308e-05
0.000882523
0.218804
-2.99703e-05
-0.00333985
-0.00636024
0.270394
0.271187
0.521262
-0.00377078
-0.00497687
7.64559e-06
-0.0631156
0.000724403
0.0101351
0.0139756
-0.0443502
-0.0199664
0.15178
-0.000214093
-0.000823892
0.264557
-9.82744e-05
-0.000181832
0.405969
-0.0021751
-0.0440917
-0.0416133
-0.0326775
-0.0254887
-0.0749471
-3.27826e-05
-0.0572452
0.157197
-0.00541555
0.000121018
0.200112
-0.00201433
-0.0214376
-0.024231
9.12293e-06
0.00147521
0.24485
0.186442
0.365975
-0.0595089
-0.0472461
-0.116403
0.0765359
0.242427
-0.000349809
5.82582e-05
0.506757
-0.0141018
-0.00101596
-0.0546889
-0.0213017
0.331506
0.339208
-0.0597664
0.585892
-0.00186802
-0.015874
-0.0604094
0.0923197
-0.1058
0.223984
0.503864
0.000106494
0.0168634
0.161189
-0.00672147
0.148469
-0.000897482
0.555299
0.35643
-0.00889147
0.00459261
-0.000508322
0.145017
-0.000154452
-0.0104137
-0.0733826
-0.000120191
-0.00219853
-0.000709455
0.166382
-2.99642e-05
-0.00737547
-0.065747
0.616868
0.0589366
0.543164
-7.39749e-05
-0.0273225
-0.000308837
0.379461
0.00702753
0.431585
0.00222418
0.00124227
0.00712171
0.0798655
0.000997951
-0.000380553
0.000881036
-0.00709116
-0.0438611
-6.90709e-05
-0.0548449
-0.00606291
-0.000237129
-0.00104914
0.413286
-0.0125337
-0.00128403
0.589374
-0.00241604
0.25407
-0.000344507
0.000184951
1.29588e-05
-0.0396093
0.0886467
-0.0114643
-0.0348925
-0.000690398
-0.0691783
-0.0242844
-0.000300472
0.000857319
-0.00364594
-0.0121276
0.00515473
-0.00208402
-0.0345116
-0.0372448
-0.0339757
-0.0307604
-0.0426099
0.348684
0.362439
-0.00249653
-0.0434088
-1.18836e-05
-0.00398707
-0.0356135
0.206455
0.121491
0.000166972
-0.00369306
-0.0413751
0.176523
-0.00167686
0.00626639
0.00212179
0.0563592
-0.118856
0.327966
-0.00267188
0.00127331
-0.000191886
0.00714486
-8.78232e-05
-0.0275708
-0.000582882
0.00692392
-0.0727604
-0.0436869
0.00256391
0.0152909
-0.00124224
0.0338133
-0.0125178
0.0886305
0.170052
-0.15213
-0.0512361
-0.0247725
0.00892241
-0.0715243
0.531182
-0.0417822
0.0508608
0.574892
-0.00257987
-0.00293039
-0.0511907
-0.00184345
-0.0180924
0.011031
-0.00469931
-0.0035047
0.169949
-0.000114283
0.000957015
0.000134664
-0.00568462
-0.0116615
-1.44054e-05
-0.00184707
-0.0331315
0.501359
0.00367899
-0.0137834
0.471117
0.308142
0.076103
-0.0310059
-0.063544
0.00863897
0.261829
-0.0176391
0.292265
-0.030255
-0.0922475
0.189935
0.293499
-0.0511596
0.114117
0.220532
0.266346
0.074614
-0.00509074
-0.00702361
-0.000148228
0.00445373
-0.017977
0.00164842
-0.000181064
-0.00272096
-0.0690735
0.09268
-0.0261619
-0.0047846
-0.00631217
-0.000995479
-0.0115414
0.00298241
0.194311
-0.0031713
-3.60831e-05
-9.28613e-05
8.49858e-05
-0.0314497
0.165162
-0.00668949
0.0467658
-0.115423
0.384518
0.00565973
0.0118051
-0.00847832
0.399187
-0.00179007
0.323225
0.184028
-0.000197746
-0.0332179
-0.00548373
-0.0512087
0.000984649
0.0848061
0.00539391
0.0109393
-0.00144663
0.152212
0.18005
-0.0511764
-0.0334511
-0.0038727
-0.026602
0.0674166
0.606638
-0.0562369
0.00784759
-1.29783e-06
-0.0206741
-0.00382646
0.0309574
-0.0930544
-0.0549399
0.412408
0.164035
-0.103887
0.20917
0.389933
0.0465997
0.00203564
0.270432
-0.00153487
-0.000312727
-0.0264953
0.000152346
-0.130079
-0.000913959
-0.0356606
0.00327483
0.205785
-0.00300521
-3.97497e-05
-0.0989795
0.00297106
0.0379865
-0.0569423
-0.0759034
-0.00654779
0.162759
0.134501
0.138131
-0.0003507
0.0836968
0.0961375
-0.000899187
-0.0251977
0.00105738
0.00905394
-0.00473817
0.00821944
-0.00132556
0.139492
-3.25758e-05
0.000347065
0.00341124
-0.0326984
0.0345216
-0.0335588
-0.0376016
-0.039861
-0.117974
0.0110497
0.261651
-0.058496
-0.0107534
0.562351
-0.05758
-0.0121703
-0.038009
-0.0101795
-0.0308018
-0.0160224
0.0462169
-0.0479495
-4.28313e-05
0.0404537
-0.000163178
0.353428
0.0984051
-0.00798611
-0.0214503
-0.000321946
0.36518
0.31834
0.065658
0.145996
-0.0625195
0.444075
-0.000105874
0.0287961
-0.0270043
0.158589
0.52603
0.0543289
0.15822
-0.00336688
-0.000346754
0.1332
-0.0826731
0.381123
0.0400411
0.229697
-0.0113602
0.39235
0.304081
-0.0142528
-0.0121524
0.11116
-0.076927
-0.000143551
-0.0198026
-0.0741392
-0.0652748
0.0190575
0.0157083
-0.000215582
0.3203
-0.00187897
-0.000175316
-0.0331689
-0.000836863
-0.000381041
0.00544528
0.224515
-0.0872024
0.490496
0.000108327
0.22163
-0.0265095
-0.000127712
3.14236e-05
0.17675
0.218075
-0.00657525
0.199594
4.44681e-05
0.209825
-0.145078
-0.014923
0.409037
-0.0520326
0.138529
-0.0364492
0.207195
0.214333
-0.0244212
-0.0307598
-0.00966935
-0.00464689
-0.000339301
-0.00204632
0.277224
-4.50311e-05
0.202909
-0.0844485
0.330913
0.193235
-0.0757388
0.476337
-0.00262884
0.00708809
-0.0484809
-0.029443
-0.0102412
-0.030535
0.0440393
0.556255
7.36175e-05
-0.00309366
-0.0500046
1.06027e-05
0.359602
0.00301552
1.00956e-05
0.000329765
0.00065641
-0.0260459
0.0296147
-0.00249672
-0.000142705
-0.010858
0.00370753
-0.101094
-0.0692715
0.0351042
-3.65045e-05
-0.14521
-0.0193832
0.118423
0.326757
0.00184636
0.126788
0.00026222
-0.0185628
0.102241
-0.0102839
0.238634
-0.0190577
0.0323906
0.105921
0.160802
0.00701808
-0.015266
0.184359
-0.0785436
0.385174
-0.0137996
0.26331
-0.0136993
-0.00186654
0.150929
0.000703744
0.100278
0.00311356
8.73402e-06
-0.114149
0.188986
0.00235394
0.114776
-0.0181308
-0.145175
0.00376177
-0.0347362
-0.00269388
-0.013047
-0.0675822
-0.0387451
-0.014435
-0.000241628
0.406315
0.122512
0.0463934
-0.000325734
0.303037
7.52365e-06
-0.000300265
0.13317
0.00147612
0.165401
0.0692395
0.0272199
-0.0418424
-0.117132
-0.00842897
0.00215986
-0.055477
-2.97093e-05
0.00590547
0.231229
-0.0233521
-0.0044438
-0.0133945
-0.00312972
-0.00066113
0.578141
-0.0145519
-0.00088973
-9.50946e-06
0.148258
-0.0410157
-0.000534189
-0.00439493
0.1709
0.0960639
-0.0502297
2.84735e-06
0.188443
-0.0231938
0.196365
0.0266399
0.0326402
-0.040853
-0.000154795
0.103366
0.0875868
0.0257369
-0.0770471
0.277944
0.00996617
0.178914
-0.00430563
-0.0317379
-0.000637341
-0.00281192
-0.000171179
0.170492
0.241873
-0.00237943
0.0302988
-0.0246984
-0.0617588
-0.0696807
-0.00295535
0.0262818
0.549765
0.00870863
-8.83821e-05
0.09523
-0.00604357
0.470568
-0.0179567
-0.0179887
-0.00512264
-0.020787
-0.0109715
-0.0115322
-0.00558332
0.00245217
0.03655
0.000177872
-0.133501
-0.0139515
0.341251
-0.0484277
0.172163
0.00333248
-0.0471657
-0.0194882
0.217035
-0.0108906
0.000179612
-0.0227186
-0.00839953
0.0291221
-0.0371905
-0.0321041
-0.0176914
-0.0208393
-0.00986214
-0.0713467
9.66877e-06
0.0519582
-0.0615375
0.149251
-0.0523114
0.0996934
-0.0800317
0.306301
0.00684275
-0.0422434
-0.0221642
0.497872
-0.109127
-0.0187992
-0.107831
-0.0392717
-0.0977961
-0.0549881
0.175882
-0.00442476
0.255681
0.014303
-0.000637023
-0.00198959
0.0843232
0.623497
0.00170477
-0.0272936
0.178766
3.75417e-05
-0.0295136
0.0427346
0.000756471
0.014499
-0.00264476
-0.0398448
-0.00493143
4.78317e-05
-0.0495972
0.252278
0.00258934
-0.0236994
0.00307393
0.178454
-0.000619102
-0.00199613
-0.000580786
-0.00127223
0.0425243
0.00183638
0.00432146
-0.0254733
7.4149e-05
-0.107853
-0.071487
-0.125816
-0.0226716
0.023644
-0.000344398
-0.0186726
-0.0640455
0.0256849
0.333319
-0.00204646
-0.0680665
-0.00748737
0.0100571
0.152541
0.000725419
-0.00025458
0.118777
0.0130798
0.0233413
-0.00471923
-0.0033047
-0.0593187
-0.000283368
-0.00189719
-0.0192255
0.289851
0.250048
-0.0399568
-0.0593022
0.0117311
0.00569191
0.000869498
-0.0687607
-0.0175489
-5.96726e-07
-0.00258658
-0.0352288
-0.0752267
0.00557474
-0.0538827
-0.000645734
-0.00477082
0.1956
-0.0393424
-6.43002e-06
-0.00447758
-0.0980099
-0.000268851
-0.0223013
-8.04129e-05
0.00615772
-0.0980613
-0.0397451
-3.41576e-05
5.04198e-05
0.129085
-0.0474893
0.36782
0.254479
-0.00573158
-0.000962674
-0.0172009
0.000358538
-0.102291
-0.0887746
-0.0122643
-0.0231003
0.243294
0.0120573
0.000446016
0.00805826
-0.115661
0.00315839
-0.0278019
-0.0622537
0.00185462
0.0256128
0.0742488
0.0113831
-0.0317352
-0.0673936
0.186722
-0.0335734
-3.81972e-07
-0.102492
-0.0654209
-0.0405666
0.00607426
0.00122696
0.0103826
-0.0991794
0.0370317
-0.0363993
0.127926
-0.047645
0.00882059
0.0224283
0.0161741
-0.0372265
-0.113306
-0.000164616
0.146871
0.204337
0.00928645
0.194631
-0.0732147
0.051108
-0.04707
0.19632
0.103518
0.542629
7.4729e-06
0.103307
0.173845
0.0174528
-0.00182326
-0.0199576
-0.0166923
7.03394e-05
-0.0199939
-0.0524205
-0.0218164
-0.0241126
0.000214141
-0.0859934
-0.000464469
-0.0010784
0.232832
0.00761786
0.0624729
0.0233732
0.202562
0.0126784
-0.000492566
-0.103394
0.00944657
0.348787
0.00157219
-0.0550923
-0.000276363
-0.000686135
0.00806473
-0.0551613
-3.81828e-05
-0.0121404
0.0325723
-0.00240121
5.0348e-05
-5.74285e-05
0.150846
-0.0351303
0.00801277
-0.00136344
0.0101352
0.0183305
0.0100005
-0.000360925
0.325113
-0.0906066
0.214485
0.282976
-0.000261162
0.0536482
0.1105
-0.000952862
-0.000327819
-0.000531891
-0.00700286
0.0166356
-0.0138695
-0.0232709
-0.0663295
0.167634
-0.0988038
1.59122e-05
-0.0212062
-0.0204387
-0.0378378
-0.00517664
0.007106
0.00151598
0.0319116
-0.00063528
-0.000288713
-0.0190998
-0.00509236
-0.0270256
-1.89574e-05
-0.0162977
0.03801
-0.0224773
-0.0310108
-0.00964944
-0.0129824
-0.01019
-0.00613812
0.0090451
-0.0105264
-0.000128441
-0.000495175
0.0265605
-0.0134969
-0.00581664
0.00991829
0.00301531
-0.131084
-0.0122787
0.154299
-0.0138869
-0.0558125
-0.0270575
-0.0246882
-0.0170777
-0.00444279
0.00268915
-0.00416832
-0.015415
-0.017632
0.186779
0.146015
0.05355
0.325325
-8.767e-05
-0.00391715
-0.0179681
-0.0090639
0.0904637
-0.0220568
0.0508382
-0.00507971
0.200461
-0.00230752
-0.00193624
0.0160833
-0.0208182
-0.000266369
-0.0243615
-0.00689745
-0.0226709
-2.44028e-05
-0.00776944
0.00237
-0.0191709
0.0368524
0.0397138
0.0218694
-0.0153656
-0.0338763
0.116426
-0.00152331
-0.00232825
-0.00250755
0.466445
-0.000105566
0.0748351
-0.0230687
-0.0222291
-0.0284423
-0.0446952
-0.0308913
-0.0367018
-0.0200068
-0.00539848
-0.000117891
-0.00502713
-0.0236832
0.101295
0.00201331
0.143846
-0.0352501
-0.0145836
-0.0010917
-0.031131
-0.00012419
0.146193
-0.0324431
-0.0282485
-0.0258207
-0.00466698
-0.0357972
-0.00198735
-0.0430646
0.103393
-0.0278939
-0.0770192
-0.0017326
-0.0290646
-0.0201279
0.0177845
-0.00381337
0.140899
-0.00283359
-0.0208761
-0.000805938
0.157547
-0.0414529
-0.0285216
-0.0038266
-0.0108718
-0.00325482
0.181438
0.00844187
0.188462
-0.00571255
-0.000971724
-0.00149335
-0.00275317
0.164788
-0.0634397
-0.00792111
0.00041058
-0.00894743
-0.0135651
-0.00107317
-0.0168142
-0.0171551
0.061048
-0.00579114
0.00481564
0.459863
-0.0645824
-0.0308824
-0.0604492
4.28282e-05
0.0789767
-0.00416345
-0.0289305
-0.00654958
-0.0380895
0.00491719
-0.000638453
-0.00342138
0.0038769
0.194446
-0.00681252
-0.00211549
-0.00542824
-0.0571666
-0.00958905
-0.0238958
0.00512392
-0.0100433
-0.0103743
-0.00385163
0.197453
-0.0485912
0.00380253
-0.00496932
-0.0296396
-0.0158947
-0.0519885
-0.00166421
0.0940244
0.0261937
-0.00906823
-0.00204772
-0.015361
0.477795
0.195886
-0.0128703
-0.000687056
-0.00281499
0.00320592
-0.00466622
0.0239598
-0.00049449
-0.0191831
-0.00232703
-0.018802
-0.0821619
-0.0012632
-0.0131159
-0.00160159
0.303205
-0.00748657
-0.0133138
-0.0276276
-0.00228762
-0.0322781
0.0558708
0.422543
-0.01224
-0.012967
-0.00250114
-0.000553634
2.65208e-06
-4.62174e-06
-0.01158
-0.000796075
0.10777
-0.000796031
-0.00214339
0.00964661
-0.000306688
-0.0469906
-0.0638925
0.0198503
0.0435115
0.0296383
0.0415084
-0.0466359
0.0926179
0.073211
0.0978137
0.122739
-0.0146333
-0.00100951
-0.00680973
-0.071668
-0.00413743
-0.0168937
0.02633
0.307476
-0.0552907
-0.000573735
-3.40369e-05
-0.0017335
4.9142e-08
0.00982409
-0.000666793
-0.00546149
-0.0502876
0.000651344
0.00304883
-0.000260937
0.0671836
-0.0172439
-0.0438665
-0.00143909
0.308944
0.258348
-0.0114891
-0.0803067
-0.0302031
-0.026141
-0.016189
-0.00221405
-0.0836759
-0.0373451
-0.0455568
-0.0700822
-5.8662e-05
0.183419
-0.0178753
-0.0109791
-0.0342025
0.021533
-0.000632659
-0.00960049
-0.00160598
0.0141363
-0.0018244
0.159768
0.000421411
0.0117106
-0.000493571
-0.09381
0.0102983
-0.000908721
0.00928756
0.000490387
0.0165107
0.11773
0.00122122
-0.00170074
-0.000148736
-0.000684666
-0.0006003
-0.0632122
0.124937
0.00893807
-0.000320333
0.010419
-0.000544837
0.220626
-0.0624281
0.238707
-0.045387
-0.000535309
-0.00033969
-0.00840848
-0.00654824
-0.000749789
-2.13442e-05
0.028209
0.0323328
-0.000281657
-0.000396523
-0.0217376
-2.57033e-05
0.16523
-0.00109499
-0.0547319
-0.0210111
-0.00732445
-0.0574679
-0.0636396
0.149967
-0.0229856
-0.022235
-0.000375627
-0.0585001
-0.0227643
0.00485931
0.0950855
0.332833
-0.00138243
-0.0612592
0.013712
0.289927
0.0429898
-0.00014147
-0.00697003
-0.00473604
-0.00574315
-0.0495421
0.0919111
0.000216702
0.0193169
0.00350733
0.0776932
-0.000618797
-0.000144604
-0.0864507
0.26481
-0.0566873
0.144619
-0.00149706
-0.000240508
-2.73769e-06
-0.0934975
-0.0435987
-0.000403815
0.10503
0.0130035
-0.00619608
0.389468
-0.000465952
-0.00430637
-0.0613534
-0.0285461
-0.00267389
0.13464
-0.0661237
-0.000196839
0.0129469
-0.000206253
-0.000118871
0.138806
-0.000226111
-0.000538585
-0.0528932
-0.0266974
-0.00407614
-0.0341509
0.00281258
-0.0249417
0.00193238
-0.00406944
-0.0668317
-0.0400616
0.0191536
-0.00105062
0.154222
0.202447
-0.101014
0.0109114
0.0218149
-0.00496921
0.164349
0.108073
-0.0298308
-0.000192667
0.0111785
-0.056393
0.0119762
-0.0303426
-0.00247094
0.046215
-0.0298062
-0.000162503
-8.60053e-05
-0.0412136
-0.0283423
-0.0279838
0.0110872
0.00192914
-0.0462744
-0.000181367
-0.00164004
-0.000245741
-0.0373263
-2.8195e-05
-0.00226605
-0.0505326
-0.107505
0.106612
-0.00347581
0.00488826
-0.0232887
-0.0274472
-0.000152192
-0.0476211
0.0998744
0.155774
2.81974e-05
-0.000131458
0.158662
-0.00294466
-0.0951557
-0.0421104
0.00395996
0.000567316
-0.0679955
-0.0283818
0.162518
-0.0574317
-0.00172116
-0.011055
-0.0556094
-0.000684778
-0.000285772
-0.00105972
-0.0167995
-0.0527638
0.136519
-0.000249639
0.481024
-0.024386
0.000139873
-0.00114284
0.000300295
0.000341702
-1.65431e-05
0.000166169
-0.0541322
-0.000850466
0.000513955
-0.00023523
0.140245
-0.00661512
-0.00022925
-5.1485e-05
0.335273
-0.0234782
-0.0421036
0.00131894
-0.000857238
0.060845
-0.000115431
-0.0148544
-0.130559
0.0025463
-0.0075405
-0.00011355
-0.000245542
-0.032985
-0.0686299
0.0084272
-0.119276
-0.0643346
-3.274e-05
0.0242506
0.0362207
0.11011
-0.00200676
-0.00018516
-0.0584285
-0.0070078
-0.000588998
-0.0510699
-0.000162187
0.0421953
-0.000103108
-0.00148707
-0.00579403
-0.00247682
-0.0602521
0.438105
-0.00193167
0.00032649
-0.0577009
-0.0590951
0.0106597
0.00552767
-0.00017831
-0.0333724
-9.86587e-05
0.192345
0.584862
0.076132
0.00355045
0.00421074
-2.15989e-05
-0.0301193
-6.67298e-05
-0.00830995
-0.00198521
0.000440115
-0.00389643
-0.0109583
-0.000144511
0.0010208
-0.0095671
-0.00036917
-0.011582
-0.0181126
-0.00858187
-0.00135948
0.523167
-0.000815484
0.00284477
0.000290359
0.0160499
-0.0513391
0.0111485
-0.00020919
-0.000117094
0.00310125
-0.000128664
-3.30551e-05
-0.0132163
0.00082082
-2.79667e-05
-0.0529517
-0.00267121
-0.0573089
-0.00191804
-7.9403e-05
-0.00362708
-0.00972789
-0.0168657
-0.0262348
0.00270871
0.000618999
-0.000546435
-0.0022702
-9.2367e-05
0.267004
0.00182416
-2.28985e-05
0.000685522
-0.00236666
-0.000419569
-0.0650898
-0.0560066
-0.000152592
-0.00796609
1.63259e-05
-0.00307132
-8.56766e-05
0.0391573
-0.000164937
-0.000217781
-0.00413132
-2.66016e-05
0.0156414
-0.000265322
-0.00146669
0.0216201
1.49739e-05
0.358925
-0.0555863
-0.0437667
-2.87711e-05
-2.42601e-05
0.00217048
-0.00137533
-0.0541195
-1.96846e-05
-2.376e-06
0.000867953
-3.28305e-06
0.000447534
0.000529341
-0.000535382
0.000926112
-0.0543476
0.45075
-0.0371655
0.322012
0.0105167
-0.018812
-2.13589e-05
-0.00102369
-0.0136668
0.000171934
0.000336283
0.000201818
0.0632336
-0.00158678
-0.00025382
0.464727
-0.000634738
0.000687854
0.000592153
-5.24532e-06
0.029053
-0.00253669
0.00133089
0.000150067
-0.000626004
-7.94768e-05
-0.00109663
-0.0461489
-0.000484444
-0.00187119
-1.54269e-06
-0.000666826
-0.000303569
0.188655
-0.000513617
-0.000319165
-0.0710959
0.00439596
-9.87349e-05
-0.00154459
-7.14136e-05
0.172651
-0.075693
-0.000346993
-0.000450097
-0.00220414
-0.000181417
0.061925
0.115276
0.0307756
0.000599065
-7.77017e-06
-9.71306e-07
0.0589417
0.000300401
-0.0628932
-0.0272563
-0.0177212
-0.0279813
0.528441
0.00227696
0.190632
-0.0163801
-0.0313539
0.17548
-0.000414996
-0.0678412
-1.46565e-05
-0.0101134
-0.0507967
6.54658e-05
-0.0532061
-0.00109782
-0.00850322
-0.00634526
-0.0445835
-0.0445124
-0.00369036
-0.065034
-0.0456632
-0.0002175
-0.0136057
-5.96264e-05
-0.0397262
-3.22487e-05
-0.000216465
0.0186365
0.166974
2.69369e-08
-0.0476798
0.00414282
8.99349e-05
-0.0232046
7.25248e-06
-0.0152023
-0.000299733
-0.0404091
0.000152311
-0.000100409
-0.0023466
-5.3608e-05
0.162896
-0.0327546
0.0754368
-3.39176e-05
0.000738332
-0.0348088
9.09472e-07
-0.0593793
-0.0685366
-0.0575678
0.485414
-0.00731583
-2.01119e-05
0.0293677
-0.0439458
-0.00292123
-2.77202e-05
-9.84647e-05
-0.049323
0.000152342
0.00102666
-4.20569e-07
0.0001899
-0.030239
0.106839
-0.0715754
0.101796
-0.00603859
-1.16581e-06
0.00714697
-0.0554476
-2.38503e-05
-1.58369e-05
0.000378568
7.64524e-05
0.00047689
0.214458
0.0392285
6.66774e-05
1.33493e-05
-0.0677814
0.202403
0.178674
-5.20059e-05
-0.0385762
-0.021479
-0.0118518
-0.0498905
-0.00970433
-0.00330708
0.145148
-4.67551e-05
-0.0285332
0.171407
-0.0512169
-1.89269e-05
-0.0631377
-0.000202316
0.272848
0.0314282
-1.50872e-05
-3.10831e-05
0.186623
4.16962e-06
-0.0002112
-0.0131182
1.57698e-05
0.243356
0.00384107
-0.00829
-0.0652469
-0.004264
-0.0835398
0.186035
-0.0133624
-0.0323686
0.00116933
-2.18595e-05
-0.00117716
-8.15604e-06
-1.77373e-05
0.0259806
0.183777
0.153905
-0.000506504
0.246289
-0.0131838
9.30364e-06
-0.0476137
-1.93204e-05
-0.0300768
0.0324972
-0.0162385
0.00514853
0.00215036
-0.0103735
0.000296008
-0.00190916
0.0219314
-0.00324795
-5.41847e-05
3.50716e-05
-7.009e-05
0.035263
6.52484e-05
-0.0248098
0.258548
-0.00675128
5.99413e-05
-0.00391887
-1.07745e-05
0.0731418
-0.00041045
-7.46127e-05
-9.72692e-05
-1.47154e-05
0.212205
-0.000175559
0.233923
-0.0643749
0.000134323
-0.0555945
-0.000556097
0.160664
0.477276
-0.00159596
2.86093e-06
1.92763e-05
-2.37521e-05
0.140515
6.83464e-07
0.00121431
-0.0263179
0.221974
8.10309e-06
1.8166e-05
3.33216e-06
2.96135e-05
-0.0224081
2.09693e-06
0.251987
-0.017842
-0.000140174
3.53719e-05
-0.00232916
-0.0305658
1.45822e-06
-6.4247e-05
0.169607
4.00355e-05
-0.0340843
-0.0596881
0.000157374
8.19307e-07
-0.14525
1.33836e-06
0.166743
1.74169e-05
-0.000509283
1.38945e-05
-0.00019992
0.0971767
3.84333e-06
-0.00186062
1.00088e-05
0.0143067
-0.00382754
-0.00716313
0.000902536
0.157707
-0.000306707
-9.12787e-05
-0.00986412
-0.00952153
-0.000276899
-5.9747e-05
-0.00101527
4.73671e-05
0.168932
-0.0114993
0.468463
-4.26049e-07
-0.00850453
-0.000177094
0.136773
6.67718e-05
-0.0286138
2.77447e-05
-0.00178782
-0.0356035
-0.000263006
-0.0172148
-0.0520398
0.00578831
-9.21168e-06
-0.0611127
-0.000380488
-0.000335219
-0.00619032
-0.0160736
0.0014688
-5.48861e-05
-0.000495335
-0.00104173
-0.00144243
1.58972e-05
-0.00136564
0.460834
0.000114259
-0.00367046
-0.0370028
-0.0743178
-0.0654978
-0.050031
-0.0235731
-0.000598511
-0.0179741
8.98136e-05
-9.23245e-05
0.461604
-0.000106838
0.177239
-0.000512872
0.000465646
-0.00128028
-0.0754245
-0.000475027
0.000695486
-1.67251e-05
-0.000446006
-1.64236e-05
-9.01223e-05
-0.0162106
-0.000124474
-2.95446e-05
-9.40226e-05
0.000172479
-1.08216e-05
-0.0451718
0.221683
-1.10718e-05
-0.000685044
3.80843e-05
3.65486e-05
-0.000944386
1.10631e-05
-0.00102326
0.000331299
-0.00041647
-0.066025
-0.000784319
-0.00206259
5.90079e-06
-0.00177696
0.000393026
-1.70943e-05
-1.08416e-05
1.59752e-05
-0.000900839
0.000629393
-0.0467975
-0.0295074
-0.0663782
0.000658613
-0.00210582
-0.0250929
-0.0668133
-0.000107006
0.0173938
0.00779629
-0.00118736
-0.0129535
-0.057387
0.417027
-0.000475149
-1.68876e-05
0.0010142
5.80284e-05
2.11171e-05
0.0790457
0.00414368
0.0908287
-0.0398992
0.406402
-0.000595412
2.69801e-06
0.000178556
-2.01297e-05
-0.00154636
0.15563
0.22047
-5.5619e-06
-0.000194615
-1.88448e-05
0.209126
0.0193378
-0.00654745
1.39952e-05
2.29812e-05
0.0082058
-0.000789846
-0.0744748
-0.0181422
2.88916e-05
0.003983
-0.0335983
-6.78673e-05
0.00205514
-7.54955e-05
-0.0478013
-0.00195676
0.148409
1.97201e-05
0.00191153
-0.000133424
1.79154e-05
0.00020283
-0.0246778
1.75214e-05
-0.00103373
2.69394e-05
-0.0212442
-0.0470474
-0.00346737
-0.00800925
-0.00940962
0.0102485
-0.0095502
-0.00275579
7.89906e-05
0.00012403
2.44084e-05
2.13479e-05
-6.34692e-05
0.0102256
-0.0614037
0.000573918
-0.0484085
-0.00343773
-0.0546376
0.000102101
-1.9461e-06
0.00149542
-0.070209
2.15201e-05
-0.0478362
-0.0160663
0.00635204
-0.0489261
3.15284e-05
-0.00384585
0.000227658
-0.137174
0.136407
1.40959e-05
-0.062324
-0.0240098
-0.00471243
4.48725e-05
-9.49561e-06
0.0288286
-0.0177996
2.86056e-05
-0.00745767
-3.94758e-06
0.000252886
0.126187
-9.31696e-06
4.73409e-06
-9.63944e-05
4.08693e-05
0.00103082
0.00010262
-0.00580679
0.000274034
-0.0136137
0.00126448
-0.000233869
-0.0347554
-0.0449591
-0.0068873
-1.70561e-05
2.54145e-05
-0.0659087
0.00651525
-0.0494687
3.40331e-05
-0.00568084
-4.12528e-05
2.88681e-05
0.0758244
-0.00766048
-0.00309397
-4.59275e-07
-0.0189586
5.80793e-05
-0.0692146
3.17477e-05
-0.0777653
2.30794e-05
-6.56872e-06
9.91613e-05
0.00117305
-0.0899846
-0.0192802
-0.0724251
1.91594e-05
0.000111473
-0.0795782
-0.0275714
-0.00916389
-5.04302e-06
-0.0334716
-0.0532489
-0.0786304
4.80115e-06
-8.29834e-06
6.71451e-06
-0.0880387
-0.070474
0.000830247
-0.0119349
-6.26177e-05
0.213028
0.000110674
1.74422e-05
0.000176526
-8.53946e-06
-9.11912e-06
-0.004001
0.000133467
-0.0028474
-0.0680047
-0.0140551
-0.0588512
4.73784e-05
-5.75622e-05
0.0551199
-0.0572922
-0.00521104
0.114624
7.27225e-06
-1.45664e-05
-1.33524e-05
0.111527
0.000202724
1.23149e-06
-4.45286e-06
-0.0649641
-0.0165725
7.63167e-06
9.31474e-05
-0.010008
-0.0070218
0.000495453
0.222504
-0.0628994
0.000181987
0.592109
-1.89689e-05
-0.000772396
-0.00930916
-0.0769937
8.07816e-06
-1.57968e-06
2.5365e-05
0.00543567
-0.0353259
-0.000378847
-0.051394
-0.00838975
3.23232e-05
-5.11855e-06
-0.0109526
-0.00478133
-0.0153613
-0.0751076
-0.046873
-0.0406074
0.000637047
-0.0289046
-7.07108e-05
0.000411484
0.00786686
0.000614065
-8.69724e-05
0.000877843
3.717e-05
-0.00010107
-0.0130269
-1.33849e-05
-3.10313e-05
0.0394243
-0.0239445
-0.000180204
-4.27831e-05
-5.60437e-06
0.241868
-0.00720485
0.000900986
-0.0297888
0.00026578
0.000231381
0.000200812
-5.42263e-05
0.0005594
-0.0398389
0.0182111
-1.01217e-05
-0.000182819
-0.0440722
-0.0339909
0.0518324
-0.000552331
0.00207822
0.0198064
3.0258e-06
7.15836e-05
-0.0515689
2.62339e-05
0.164529
1.10648e-05
0.00474172
0.00019479
0.000259856
-0.071683
-0.00794654
-0.0190786
-0.00265207
3.10475e-05
0.00723252
0.0644993
-0.0132203
-0.0001511
0.0970178
0.160658
4.39007e-06
-0.0539995
-7.43534e-05
-1.07837e-05
-4.98392e-05
-0.000637204
0.0218775
-5.03593e-06
0.000287397
-0.0262894
-0.0272192
-0.0233911
0.299415
2.16521e-05
-7.72211e-05
0.169158
-0.00662061
-0.00416462
-0.000733107
0.166633
5.22064e-05
-0.000351181
5.49153e-05
3.2311e-05
3.68901e-05
4.21661e-05
8.57577e-05
-0.0188336
1.05822e-05
-0.00365398
-0.0461623
0.233777
-0.000157445
-5.53331e-05
0.00531263
0.0874478
-0.0509161
-0.000842996
-0.072352
0.298099
5.04649e-05
0.383816
-4.64459e-06
0.00377926
0.0267623
0.000504713
0.414346
-1.43818e-05
-6.54107e-06
0.00131758
3.64026e-05
-0.000965325
0.000304671
1.37867e-05
-0.00216766
1.34401e-05
-0.00016306
-0.00363184
0.236987
0.0550111
0.0242896
-0.0453589
-5.50211e-06
-1.94041e-05
0.00385153
-0.0603496
-1.02579e-05
-0.0484428
-5.97335e-05
0.105822
0.0649066
-0.0351766
-0.00150008
-0.0130653
-0.00109607
-0.0158643
0.0042137
-0.00805759
0.0674555
2.62686e-06
0.23401
0.0355223
-0.000662695
0.207399
-0.0143535
-1.37582e-05
2.82067e-05
7.74336e-05
-0.000236047
-0.000136817
0.239927
-0.0010915
0.24568
-0.00120644
0.164823
0.21772
0.116419
-0.0076436
-4.96524e-06
7.6072e-05
-0.0114341
-0.138649
-0.0517639
0.00169371
2.48256e-05
-0.0398747
-0.000356888
9.63661e-06
0.00115282
-0.00118807
-0.000731468
0.0358873
8.76586e-05
-0.0501274
0.0619404
6.75958e-05
0.000311074
-0.015563
-0.0628856
-0.000816426
-0.000582174
1.63457e-05
0.000290471
0.0858298
-0.0184154
-0.0512965
0.00148871
0.0993602
-0.0412314
4.26193e-05
2.71972e-05
0.0220383
-9.94819e-05
0.0848367
0.0013647
-0.0145671
-0.000428473
0.00184189
-0.038719
-3.76365e-05
0.000566597
0.00050691
-0.0772566
0.15235
-0.06457
-0.0288588
-0.000185005
-5.08629e-05
0.00754174
5.43262e-05
-0.077033
-0.0698944
0.000650167
0.00385297
0.00426446
-0.112457
0.000736721
0.000221557
4.51412e-05
-0.0441377
3.36464e-05
0.000644275
0.123699
0.178458
-0.126934
0.0523555
0.0514907
0.0212283
-0.000178419
0.0128739
0.00014337
1.00595e-05
-8.13918e-05
-4.74138e-07
3.22715e-05
-0.000399554
-0.0083237
-0.0634086
-0.0105882
-0.0316123
0.0563378
0.0471202
0.00459709
-0.0681801
0.000188354
0.00525756
0.0126663
-0.000433975
0.0799202
-0.00138984
-0.0119328
0.0133911
0.00618786
0.00115329
-0.00443257
0.0469347
0.000938526
-0.0211906
-0.0178044
0.487261
-0.0268497
0.0856352
0.024085
-0.0409969
0.0024789
0.000119559
-0.00283267
6.6762e-05
-0.00291009
-0.0273319
-7.75561e-05
-5.03862e-05
0.265529
-0.00364797
-0.0443462
-0.0202397
0.000235625
-0.00160531
-2.51012e-05
9.64668e-06
0.0419168
4.73548e-05
-0.00324606
0.0806372
0.00706599
0.00127737
0.0204439
-0.00630959
0.00469252
-0.125843
0.000986697
-0.00488478
-0.0595735
-0.000961031
-0.00882447
0.00085627
0.000984216
0.00112639
0.04057
-0.000356663
0.00636887
-0.0568869
-0.0223748
0.000356895
-0.056227
-0.0161941
-0.018482
0.000121973
0.00742244
-0.0761511
-0.000938021
-0.0053442
-0.0518364
9.40543e-05
-0.00129795
0.217973
-0.0237134
-4.62655e-05
0.00922999
-0.0547328
-0.00116903
0.193443
-0.00245806
0.00115187
0.0628534
-0.00158489
0.00935807
0.129855
7.35898e-05
0.00133068
0.000206278
4.36501e-05
-0.00496127
-0.00798891
-0.000148237
-0.0259841
0.102134
-0.039371
-0.079439
0.00131927
-0.00361272
-0.000690795
-0.0527066
3.31867e-05
0.0185988
5.29575e-05
-0.0171909
-0.00216013
-0.00547044
-0.0379961
0.120804
-0.0878578
-5.87683e-05
0.194396
-0.00218045
-0.00285991
-0.0620317
-0.0916627
-0.0169462
-3.28823e-05
-0.0012673
0.00811864
-0.00341849
-0.00519777
0.000496387
0.0907539
-0.0474499
-0.0120932
-0.0073179
0.0253833
-0.0029063
-0.00129578
0.00192798
-3.80454e-05
-0.0034118
0.118332
0.000900971
-0.140192
-6.1214e-05
-0.00802708
-0.00407293
-0.10143
-0.0125242
-0.121419
-7.14104e-05
-6.90611e-05
-0.00473556
0.0119328
0.0020563
-0.143915
0.0912406
-0.0517644
0.000217171
-0.162224
1.18352e-05
-0.17197
-0.0273986
-0.190315
-0.190416
-0.182785
-0.14635
-0.0680094
-0.0372037
-0.00789991
0.0212523
0.05101
0.137276
0.165833
0.192158
0.238495
-0.00880246
-0.00807097
0.0660797
-0.0200103
0.00101892
0.0170394
-0.0432389
0.000585601
-0.000760409
-3.11594e-06
-0.0154896
0.0197604
5.17751e-05
-0.000359147
-0.0114095
-0.00714763
-0.191641
-0.0148492
-0.0596809
-3.08973e-06
0.000649934
-5.83112e-05
-0.0607076
-0.00960271
-0.0392936
-0.0117667
0.0019439
0.000254736
0.00529879
-3.65495e-05
-0.0129092
-1.4545e-05
0.000426326
-0.00688428
-0.0124884
-0.000318856
0.000376101
0.0521132
-0.0112867
0.0681895
-0.181955
-0.00917645
0.109456
-0.0202296
0.00416112
-0.0231196
-0.0035973
-0.0135781
-0.0139034
0.327568
-0.00147004
8.05744e-05
-0.00636643
-0.00976693
3.73318e-06
0.0840584
-0.00449496
0.306949
-0.100948
-0.0463024
-0.0286661
0.0492046
-0.00547178
-5.45954e-05
-8.40003e-06
-0.00458365
-0.0642073
6.7222e-05
0.327263
-0.00303701
-0.0054437
-9.93529e-05
-0.000422687