/*--------------------------------*- C++ -*----------------------------------*\
  =========                 |
  \\      /  F ield         | OpenFOAM: The Open Source CFD Toolbox
   \\    /   O peration     | Website:  https://openfoam.org
    \\  /    A nd           | Version:  7
     \\/     M anipulation  |
\*---------------------------------------------------------------------------*/
FoamFile
{
    version     2.0;
    format      ascii;
    class       volScalarField;
    location    "12";
    object      p;
}
// * * * * * * * * * * * * * * * * * * * * * * * * * * * * * * * * * * * * * //

dimensions      [0 2 -2 0 0 0 0];

internalField   nonuniform List<scalar> 
7724
(
0.37367
0.0211111
0.810176
0.497396
-0.00271209
-0.000126465
0.836642
-0.0166461
-0.00039174
0.221276
-0.000120042
0.00745717
-0.0248814
0.11274
0.229603
-0.0317984
0.377841
-0.0325862
0.00370811
-0.138286
0.150432
0.00488378
0.0829577
0.417845
-0.0423266
0.404791
-0.00250757
0.137427
0.348781
0.00821046
-0.0442816
1.38091
0.0819223
-0.00154171
-0.00035071
0.181976
0.00927914
0.804611
-0.0138842
-0.00107837
-0.0126222
-0.0307722
-0.130548
-0.0409792
-0.000655951
-0.000277007
0.00482723
-0.0141392
-0.000230963
-0.135072
0.0110954
0.130553
-0.0534049
-0.00338923
0.180598
-0.0148367
0.0040459
-0.0166922
-0.0681895
-0.00161167
0.000113182
0.0142316
0.113051
0.00821501
-0.00309031
-0.0432195
-0.000324642
1.1839e-05
0.121496
-0.0131885
-0.000254487
-0.113488
-0.0408943
-0.0696107
-0.0314616
-0.097202
0.791097
0.147199
0.128391
-0.128258
-0.0238756
0.760874
0.21196
-0.0723424
-0.00448374
-0.00717382
-0.0178229
-0.051786
-0.00208231
-0.0139887
0.357847
-0.0544395
-0.000442356
0.00388555
-0.0111425
-0.0712905
-0.1083
0.00286853
-0.0049505
-0.00369003
-0.119687
0.141299
-0.0105918
-6.89828e-05
-0.0427021
0.364692
1.17941
-0.0157387
-2.35805e-06
0.0774824
0.469629
-0.0776682
-5.33395e-06
0.0822193
0.366008
0.00141225
-0.0860837
0.294746
-0.0808357
-0.0709395
-0.124317
0.726565
-0.122685
0.031637
-0.121303
-0.00305501
-0.0395295
0.00637934
-0.00325634
-0.0440841
-0.11736
0.129947
-0.00192039
-0.00244456
-0.0748926
0.457792
0.927546
-5.9664e-05
0.0246949
-0.155817
-0.065951
-0.0939187
-0.0977505
-0.0666877
1.19525
-0.0331867
0.352306
-0.0656415
-0.0913896
0.723247
0.173392
-0.0403431
-0.00463057
0.0979137
0.211368
0.731265
-0.11054
-0.0247765
1.09583
-0.000209589
0.00196587
0.433073
-6.68633e-05
-0.00640785
-0.0125615
0.544748
0.546324
1.14142
-0.00730365
-0.0096948
1.31488e-05
-0.129105
0.00138263
0.032995
0.0267243
-0.0900496
-0.0145786
0.2396
-0.000439143
-0.00159387
0.502347
-0.000207976
-0.000375785
0.834098
0.0118328
-0.0686219
-0.0759106
-0.0653792
-0.0401965
-0.152509
-7.23914e-05
-0.10438
0.243796
-0.0106965
0.00020911
0.342903
-0.00399854
-0.0413943
-0.0395688
1.59314e-05
0.00302353
0.472957
0.289724
0.746847
-0.0758877
-0.0680211
-0.142759
0.149244
0.469942
-0.000700062
9.95721e-05
1.11447
-0.0272335
-0.00200738
-0.0997119
-0.0413658
0.656442
0.678232
-0.102017
1.30589
-0.00370517
-0.0321495
-0.122732
0.17954
-0.159462
0.29983
1.10139
0.000173066
0.0332036
0.313759
-0.013182
0.287618
-0.0017782
1.23229
0.718987
-0.0177282
0.00906944
-0.00100409
0.185643
-0.000322883
-0.0196393
-0.146007
-0.000254605
-0.00430311
-0.0014218
0.301531
-6.85012e-05
-0.014532
-0.124462
1.3787
0.116526
1.19708
-0.000156185
-0.0449895
-0.000637486
0.769394
0.0137153
0.930412
0.00488681
0.00258461
0.021696
0.15561
0.00191275
-0.000759996
0.0017004
-0.0138444
-0.0662303
-0.000146187
-0.106836
-0.0119651
-0.00048383
-0.00209176
0.876046
-0.0247813
-0.00253257
1.30489
-0.00474048
0.435051
-0.000706205
0.00361608
2.19931e-05
-0.0730743
0.172778
-0.00344075
-0.068555
-0.00136597
-0.123066
-0.0484192
-0.000610756
0.00163607
-0.00707429
-0.0238565
0.00994307
-0.0039815
-0.0691527
-0.0564348
-0.0683234
-0.022718
-0.0860871
0.674629
0.707335
-0.00493964
-0.0471263
-2.63469e-05
-0.00759698
-0.0721374
0.406138
0.235696
0.000293192
-0.00697484
-0.0837537
0.331491
-0.00329335
0.0121833
0.00413755
0.0965213
-0.127117
0.570602
-0.00530465
0.0191592
-0.000396524
0.0137957
-0.000186202
-0.0528015
-0.00115175
0.0162046
-0.0875646
-0.0843618
0.00782093
0.0295673
-0.00245099
0.0682529
-0.0225381
0.165038
0.311429
-0.178224
-0.0499718
-0.0498814
0.0174452
-0.141964
1.17101
-0.040452
0.10072
1.27635
-0.0051147
-0.00576989
-0.0512035
-0.00352403
-0.0266777
0.0216395
-0.00918209
-0.00685438
0.328871
-0.00024769
0.00182519
0.000233696
-0.0111936
-0.0225905
-3.15461e-05
-0.00366155
-0.0653542
1.10384
0.0102279
-0.0267706
1.01596
0.629719
0.146699
-0.0311205
-0.130808
0.01669
0.524
-0.0351027
0.531177
-0.047442
-0.133131
0.3033
0.52558
-0.101292
0.222353
0.27735
0.467727
0.146515
-0.0100739
-0.0138959
-0.000311039
0.0132286
-0.0358421
0.00344089
-0.000374389
-0.00532626
-0.123858
0.157823
-0.052335
-0.00802066
-0.012478
0.0140992
-0.0227831
0.00610412
0.246058
-0.00623918
-8.65784e-05
-0.000206871
0.000134819
-0.0630384
0.320076
-0.0131596
0.092541
-0.16775
0.790775
0.0110474
0.0225832
-0.0168121
0.844543
-0.00353629
0.554841
0.359778
-0.000407036
-0.0522352
-0.0108522
-0.0895869
0.00187699
0.162418
0.0117805
0.0210002
-0.00285706
0.275309
0.340737
-0.0791174
-0.0651926
-0.00748014
-0.044587
0.100319
1.35595
-0.0651057
0.015304
-3.59771e-06
-0.04125
-0.00749762
0.0624746
-0.142498
-0.0602084
0.865112
0.306018
-0.125412
0.353685
0.828716
0.0901683
0.00419497
0.529692
-0.00297311
-0.000631745
-0.0534825
0.000265804
-0.157348
-3.14552e-05
-0.0669699
0.00652699
0.359569
-0.00591345
-9.18614e-05
-0.143787
0.00589878
0.0759229
-0.115241
-0.151758
-0.0099867
0.317209
0.262916
0.270038
-0.000702735
0.140391
0.17766
-0.00177119
-0.0504538
0.00201626
0.0200605
-0.00557715
0.0160536
-0.0026027
0.188926
-7.34839e-05
0.000631793
0.00668674
-0.0650389
0.0684087
-0.0636159
-0.0765248
-0.062725
-0.16695
0.0274055
0.5081
-0.0632875
-0.0213993
1.24963
-0.105908
-0.0237221
-0.0758084
-0.0183758
-0.0613575
-0.0318457
0.0919722
-0.05174
-9.93159e-05
0.0808686
-0.000339459
0.701912
0.123822
-0.0157253
-0.0428593
-0.000647881
0.765582
0.591297
0.115745
0.173776
-0.111362
0.962921
-0.000231936
0.0618433
-0.054455
0.258882
1.15513
0.084113
0.298568
-0.00554112
-0.000701454
0.157515
-0.096162
0.801595
0.0811177
0.445879
-0.0224909
0.815981
0.564178
-0.0284133
-0.0241169
0.138708
-0.155127
-0.000303049
-0.0395732
-0.14871
-0.112568
0.0368822
0.0304194
-0.000432974
0.586964
-0.00306565
-0.000363675
-0.0480941
-0.00164615
-0.000765135
0.0116632
0.405396
-0.129842
1.06926
0.000188725
0.391148
-0.0401155
-0.000273481
5.34081e-05
0.343893
0.401701
-0.0130269
0.375628
7.59321e-05
0.393703
-0.175265
-0.0296789
0.874697
-0.0957995
0.165889
-0.0726944
0.384556
0.389715
-0.0487516
-0.0614969
-0.0186247
-0.00911729
-0.000690946
-0.003497
0.504356
-0.000101837
0.384814
-0.121822
0.676661
0.368127
-0.152073
1.0241
-0.00516067
0.017904
-0.0635323
-0.0587643
-0.0203971
-0.0468459
0.0909835
1.23207
0.00012873
-0.00608784
-0.0777782
1.7169e-05
0.710031
0.00600667
1.60509e-05
0.000607
0.00121103
-0.0506075
0.0604748
-0.00491118
-0.000303388
-0.0215831
0.00860658
-0.158191
-0.140047
0.0693477
-7.81817e-05
-0.179504
-0.0386315
0.162932
0.675767
0.00381281
0.189066
0.000471228
-0.0370883
0.200967
-0.0204242
0.420161
-0.0379619
0.069639
0.208403
0.296894
0.0148253
-0.0304345
0.31051
-0.131726
0.777831
-0.0274064
0.437736
-0.0272964
-0.00369578
0.285383
0.00620733
0.195492
0.0061901
1.42216e-05
-0.167976
0.241533
0.00468335
0.164591
-0.0360416
-0.183728
0.0197347
-0.0659026
-0.00528453
-0.0258592
-0.121319
-0.0780339
-0.0287211
-0.000512867
0.825987
0.188104
0.0919841
-0.000658158
0.568926
5.79447e-06
-0.000605772
0.21091
0.00595018
0.219884
0.135668
0.053957
-0.0419358
-0.155962
-0.011352
0.00421949
-0.112239
-7.56028e-05
0.0122414
0.404296
-0.0464719
-0.00878661
-0.0181933
-0.00617492
-0.00133434
1.27718
-0.0289542
-0.00177952
-2.02548e-05
0.289152
-0.0807274
-0.00107203
-0.00866959
0.333534
0.181876
-0.100283
6.43071e-08
0.367342
-0.0456151
0.347329
0.0516067
0.0633501
-0.0822762
-0.000324027
0.203564
0.164791
0.029994
-0.110168
0.512609
0.0194276
0.294644
-0.00759956
-0.0475266
-0.00127391
-0.00363623
-0.000375923
0.32373
0.359488
-0.00467182
0.0601083
-0.049263
-0.086575
-0.0994111
-0.00585555
0.0572688
1.2192
0.0183287
-0.000197778
0.180819
-0.011481
1.02782
-0.035817
-0.0322754
-0.00317519
-0.0371636
-0.0192475
-0.0229595
-0.0100792
0.00486531
0.0777968
0.000312792
-0.15723
-0.00493527
0.648765
-0.096352
0.24028
0.00653361
-0.056689
-0.032134
0.427087
-0.0216587
0.000308558
-0.0444901
-0.0161454
0.063039
-0.0743999
-0.0639868
-0.00750854
-0.041932
-0.0119448
-0.118477
1.45588e-05
0.105399
-0.104466
0.213052
-0.0568885
0.194505
-0.118726
0.541851
0.0221462
-0.084916
-0.0327688
1.09092
-0.133287
-0.0374801
-0.155937
-0.0574105
-0.136888
-0.0762888
0.301606
-0.0087362
0.510232
0.0275187
-0.00126206
-0.00376122
0.161822
1.39209
0.00346407
-0.0398929
0.349359
6.438e-05
-0.0588189
0.0845238
0.0188851
0.0278847
-0.00504356
-0.0732711
-0.00921578
8.36835e-05
-0.0910917
0.457829
0.0109846
-0.0474424
0.00601386
0.348385
-0.00122897
-0.00394321
-0.00116772
-0.00245902
0.0556299
0.0127051
0.0101703
-0.0508732
0.000128146
-0.14207
-0.0817608
-0.158638
-0.0398428
0.0460764
-0.000698007
-0.0364947
-0.121937
0.0411891
0.684529
-0.00395997
-0.134584
-0.0148136
0.0274615
0.254455
0.00134573
-0.000521317
0.146454
0.0273341
0.047084
-0.00934414
-0.00657021
-0.111673
-0.000594666
0.00264354
-0.038381
0.590128
0.446883
-0.0472021
-0.100077
0.0229314
0.0147232
0.0195265
-0.113419
-0.0243543
-3.50967e-06
0.0149147
-0.0694539
-0.124584
0.0161353
-0.108348
-0.00129449
-0.0094093
0.375623
-0.0789007
-1.46675e-05
-0.00885361
-0.113435
-0.000550649
-0.0311618
-0.000182945
0.0129634
-0.153559
-0.0489394
-9.21099e-05
8.78447e-05
0.251999
-0.0804456
0.774718
0.425274
0.0120977
-0.00186651
-0.0264502
0.000658051
-0.121048
-0.12348
-0.013662
-0.0461167
0.377613
0.026423
0.000809119
0.0189082
-0.143681
0.00619524
-0.0386499
-0.117946
0.00761775
0.0503105
0.145488
0.0258665
-0.062641
-0.0798295
0.365444
-0.0466134
-1.29904e-06
-0.138252
-0.130064
-0.0553087
0.0134504
0.00234403
0.0249237
-0.148306
0.0739758
-0.0748036
0.208265
-0.0640424
0.0186308
0.0442749
0.0383789
-0.076068
-0.127696
-0.000363406
0.286094
0.401484
0.0181056
0.266689
-0.108162
0.100867
-0.079733
0.385083
0.202421
1.19822
1.08987e-05
0.196672
0.332674
0.0337008
-0.00361249
-0.0399715
-0.00620793
0.000117529
-0.0398352
-0.0889014
-0.0437463
-0.0480726
0.000376125
-0.0960082
-0.000940531
-0.00216011
0.462742
0.015776
0.076988
0.0471335
0.397659
0.0270178
-0.00100335
-0.123746
0.019385
0.725968
0.00302824
-0.093927
-0.000581062
-0.00136018
0.0176502
-0.0734393
-9.18798e-05
-0.0239739
0.0660261
-0.0047302
8.61887e-05
-0.000138329
0.293813
-0.033434
0.0160582
-0.00270941
0.0203606
0.0355958
0.0202629
-0.00074328
0.579525
-0.104757
0.42238
0.494183
-0.000536229
0.0664053
0.203916
-0.00188252
-0.000678747
-0.00107771
0.0106141
0.0379989
-0.0202752
-0.0382531
-0.119667
0.326663
-0.126872
2.70413e-05
-0.042169
-0.0392868
-0.076612
-0.0101054
0.0140349
0.00294297
0.0628429
-0.00126344
-0.00059996
-0.0376109
-0.0100705
-0.0538314
-4.16491e-05
-0.032381
0.0753914
-0.0149656
-0.0321702
-0.0191651
-0.0257982
-0.0202046
-0.0121101
0.023264
-0.0208588
-0.000273437
-0.00099325
0.0529118
-0.0268065
-0.0115078
0.0195939
0.00737799
-0.180339
-0.0243725
0.300919
-0.0275662
-0.107632
-0.0508465
-0.049055
-0.0339811
-0.00875588
0.00518209
-0.00821729
-0.0304093
-0.0351045
0.348999
0.269198
0.107377
0.668658
-0.000188463
-0.00751734
-0.0357765
-0.0179769
0.157129
-0.0439308
0.102922
-0.00969285
0.360835
-0.00451581
-0.00378731
0.0394538
-0.0332001
-0.000550412
-0.0435045
-0.013632
-0.0452217
-5.44881e-05
-0.0153076
0.00466482
-0.0380602
0.0766815
0.0772756
0.0422519
-0.030574
-0.0675388
0.227896
-0.00298693
-0.00459661
-0.00494031
1.00268
-0.000247566
0.146319
-0.0460554
-0.0443013
-0.0570782
-0.0829688
-0.0618151
-0.0732523
-0.039495
-0.0106813
-0.000251861
-0.00989611
-0.0469359
0.198225
0.00394014
0.21422
-0.070485
-0.028932
-0.00217611
-0.0620026
-0.000263783
0.285843
-0.0648033
-0.0563754
-0.0514243
-0.008845
-0.0692826
-0.00396701
-0.0866305
0.203344
-0.0556657
-0.12837
-0.00343027
-0.0581684
-0.0400355
0.0342033
-0.00750842
0.274672
-0.00560314
-0.0414896
-0.00159723
0.307153
-0.0831311
-0.0570049
-0.00752773
-0.0215598
-0.00638666
0.317599
0.0324992
0.266893
-0.0109543
-0.00193429
-0.00296186
-0.00538719
0.238205
-0.125923
-0.015704
0.000756935
-0.0155165
-0.0172798
-0.00211973
-0.0267296
-0.0341425
0.12033
-0.0114678
0.0115958
1.00175
-0.129208
-0.0621249
-0.120793
7.37431e-05
0.154757
-0.0082198
-0.057958
-0.0129592
-0.0763089
0.010123
-0.00126566
-0.00673498
0.00750145
0.381477
-0.0134828
-0.00416179
-0.0107581
-0.108351
-0.0190785
-0.0481002
0.0100089
-0.0199682
-0.0205305
-0.00760269
0.387103
-0.0978419
0.00745129
-0.00975583
-0.0594945
-0.0315118
-0.104939
-0.00326888
0.18457
0.0512889
-0.0180209
-0.00401503
-0.0305341
1.02728
0.384004
-0.0255988
-0.00137047
-0.00553112
0.0132271
-0.00921934
0.0466306
-0.000994119
-0.0318748
-0.00460703
-0.0377845
-0.0961989
-0.00248609
-0.0238402
-0.00317679
0.610361
-0.0148072
-0.0264695
-0.0180568
-0.00451397
-0.0646172
0.0701619
0.886629
-0.0243725
-0.0257826
-0.00492786
-0.00111124
-3.06533e-06
-1.06249e-05
-0.0230166
-0.00155803
0.181088
-0.00159625
-0.00423175
0.0186567
-0.000621843
-0.0942005
-0.10485
0.0382802
0.0847548
0.0573871
0.0592182
-0.0659557
0.18198
0.142635
0.192645
0.239912
-0.0291982
-0.00203586
-0.0131189
-0.116712
-0.0081361
-0.0336613
0.0453653
0.551727
-0.0920973
-0.0011518
-9.15243e-05
-0.00342402
-4.79933e-06
0.0210188
-0.00131832
-0.0103832
-0.101101
0.00122385
0.0061509
-0.000527335
0.13192
-0.0345406
-0.0526176
-0.00282151
0.633107
0.417262
-0.0228243
-0.112018
-0.0603516
-0.0528078
-0.032279
-0.00434489
-0.132216
-0.058969
-0.0883382
-0.0810234
-0.000142836
0.339847
-0.0235541
-0.0219177
-0.0534854
0.0418832
-0.00125962
-0.0190828
-0.00318773
0.0301924
-0.00349905
0.272425
0.000782974
0.0226662
-0.00098437
-0.108706
0.0202491
-0.00178535
0.0271772
0.000900182
0.0372312
0.220507
0.00407796
-0.00337226
-0.000312307
-0.00135335
-0.00120089
-0.127214
0.244111
0.0293497
-0.000645252
0.0215384
-0.00108957
0.435641
-0.124719
0.437279
-0.0910476
-0.00107324
-0.000701428
-0.0166993
-0.0129388
-0.00149917
-4.7107e-05
0.0556059
0.0636087
-0.000569122
-0.000805704
-0.0434549
-5.65771e-05
0.322841
-0.00221182
-0.110184
-0.041945
-0.0145449
-0.115442
-0.126148
0.292135
-0.0307584
-0.0445317
-0.000761187
-0.117962
-0.0453761
0.0250177
0.142982
0.668164
-0.00274312
-0.123454
0.0300738
0.544389
0.0849576
-0.000297133
-0.0138164
-0.00935166
-0.0113786
-0.100437
0.177022
0.000373923
0.0434383
0.00689011
0.148993
-0.00123723
-0.000312911
-0.100272
0.489251
-0.113791
0.259743
-0.00288949
-0.000488281
-6.39395e-06
-0.126478
-0.0879543
-0.000824374
0.193749
0.0250935
-0.0122426
0.825718
-0.000949624
-0.00848961
-0.121673
-0.0382137
-0.00526566
0.262673
-0.0972484
-0.000405716
0.0294345
-0.000438074
-0.000255187
0.261077
0.00679802
-0.00107259
-0.107706
-0.0534066
-0.00802375
-0.04586
0.00551212
-0.0496637
0.00387419
-0.00803219
-0.133288
-0.0803184
0.0445098
-0.00211866
0.295816
0.397352
-0.128519
0.0221728
0.0424941
-0.00984287
0.31946
0.201643
-0.0604147
-0.000397368
0.0225759
-0.115012
0.0284943
-0.0594263
-0.00483607
0.093786
-0.059375
-0.00033802
-0.000191623
-0.0543576
-0.0529582
-0.0561426
0.0220206
0.0219062
-0.0924549
-0.000381122
-0.00321266
-0.000513175
-0.0683254
-6.07465e-05
-0.00446024
-0.07748
-0.149098
0.164984
-0.00683663
0.00948227
-0.0460639
-0.0549875
-0.000320052
-0.0969627
0.143838
0.303317
4.84288e-05
-0.000277141
0.308737
-0.00576211
-0.140744
-0.0850562
0.00769028
0.00106472
-0.141946
-0.0277679
0.316037
-0.117584
-0.00341724
-0.019196
-0.106516
-0.00135103
-0.000578196
-0.0021353
-0.00681218
-0.106743
0.227594
-0.000507306
1.04645
-0.0162225
0.000235103
-0.00225055
0.00053154
0.000614232
-3.91437e-05
0.000283449
-0.110291
-0.00169354
0.000955281
-0.000479055
0.273389
-0.0130474
-0.000467622
-0.000124109
0.615519
-0.0466728
-0.0429874
0.00263088
-0.0016655
0.120452
-0.000249618
-0.0266763
-0.15194
0.00500376
-0.0143472
-0.000242034
-0.000492513
-0.0652589
-0.10501
0.0163845
-0.139563
-0.0839264
-7.1079e-05
0.0468369
0.0704083
0.216282
-0.0039747
-0.000383082
-0.116507
-0.0138717
-0.00118441
-0.102895
-0.00033903
0.0857065
-0.000240524
-0.00295424
0.0040422
-0.00476906
-0.121358
0.93256
-0.00375128
0.000597722
-0.109929
-0.101171
0.0207608
0.0106552
-0.000369816
-0.0667929
-0.000215749
0.376295
1.3039
0.135816
0.00693709
0.00822159
-4.96657e-05
-0.0594361
-0.000153457
-0.0149197
-0.00390134
0.00079906
-0.00767885
-0.0209442
-0.000303382
0.00196128
-0.0174779
-0.000746212
-0.0216856
-0.0359749
-0.00812206
-0.0026037
1.15304
-0.00161807
0.00558935
0.000524439
0.0308577
-0.103849
0.0217674
-0.000428382
-0.000248718
0.00599664
-0.000275046
-8.60733e-05
-0.0251726
0.00155002
-6.13146e-05
-0.106195
-0.00508218
-0.117277
-0.00377731
-0.000170873
-0.00713722
-0.0128038
-0.0326728
-0.0463828
0.00530037
0.00113541
-0.0010955
-0.00452998
-0.000205008
0.524469
0.00354259
-5.06286e-05
0.00129644
-0.00461264
-0.000852006
-0.131955
-0.113784
-0.000332556
-0.015817
2.39874e-05
-0.00588203
-0.00018456
0.0763134
-0.000344797
-0.000464596
-0.00786359
-6.64258e-05
0.0301548
-0.000535398
-0.00291981
0.0416013
2.05294e-05
0.733936
-0.111272
-0.0875168
-6.78182e-05
-5.33452e-05
0.00441559
-0.00273793
-0.104439
-4.33811e-05
-8.24966e-06
0.00166822
-7.85622e-06
0.000827186
0.000991615
-0.00107746
0.00175371
-0.109706
0.949831
-0.0671137
0.633127
0.0203648
-0.0359091
-4.78845e-05
-0.00202807
-0.0271409
0.000295981
0.000615006
0.000357767
0.116321
-0.00305771
-0.000535956
1.01434
-0.00124593
0.00129469
0.00111324
-1.21123e-05
0.0264373
-0.00491135
0.00255143
0.000253788
-0.00123089
-0.000170412
-0.00210062
-0.0919477
-0.000977659
-0.00357841
-4.2009e-06
-0.000191122
-0.000611246
0.36844
-0.00103539
-0.000661325
-0.143932
0.00850432
-0.000223546
-0.00307141
-0.000152565
0.336657
-0.150291
-0.000715288
-0.000908549
-0.00421399
-0.00039557
0.120914
0.217096
0.0683201
0.00111595
-1.73925e-05
-2.62165e-06
0.118486
0.00054605
-0.126891
-0.0465006
-0.0346461
-0.0432424
1.1586
0.00447149
0.346603
-0.0320625
-0.0623288
0.342921
-0.000835845
-0.135969
-3.30838e-05
-0.0200701
-0.103473
0.000113822
-0.0971914
-0.00218263
-0.00685346
-0.0119386
-0.0905981
-0.0895031
-0.00691175
-0.124478
-0.0933529
-0.000446701
-0.026904
-0.000142177
-0.0796956
-6.97024e-05
-0.000444147
0.0446143
0.324516
-3.36081e-07
-0.0954784
0.00808915
0.000157722
-0.0447483
8.84451e-06
-0.0303078
-0.000625678
-0.0818364
0.000260208
-0.000217737
-0.00457196
-0.00014301
0.317173
-0.0651948
0.136369
-8.87862e-05
0.00139112
-0.069615
9.18246e-07
-0.119123
-0.137945
-0.116691
1.05705
-0.014504
-4.42791e-05
0.0575557
-0.0882228
-0.00564385
-8.20822e-05
-0.000212465
-0.099786
0.000259772
0.00194777
-1.71163e-06
0.000329709
-0.0603937
0.135981
-0.0982942
0.194435
-0.0119703
-3.30814e-06
0.0147831
-0.100657
-5.20536e-05
-3.51787e-05
0.000699094
0.000133921
0.000890798
0.300656
0.0775385
0.000117226
1.90559e-05
-0.138311
0.397806
0.347629
-0.00010826
-0.077056
-0.0410876
-0.0223504
-0.101217
-0.018366
-0.00651894
0.282847
-0.000112396
-0.0567228
0.334695
-0.102772
-5.72915e-05
-0.128842
-0.000416322
0.429671
0.0630619
-5.35209e-05
-7.34301e-05
0.359547
6.51563e-06
-0.000424742
-0.0259471
1.83642e-05
0.452786
0.00769447
-0.0163102
-0.135695
-0.00841602
-0.139147
0.364116
-0.0203354
-0.0314111
0.00219864
-5.33049e-05
-0.00231233
-3.40371e-05
-4.6975e-05
0.0568015
0.358928
0.299671
-0.00101624
0.487312
-0.0233908
1.184e-05
-0.0967196
-5.71865e-05
-0.0596419
0.0653214
-0.0309557
0.00988475
0.00421348
-0.0205824
0.000517734
-0.00374328
0.044733
-0.0064444
-0.00013024
5.97152e-05
-0.000152123
0.0686816
0.000111204
-0.0463569
0.518251
-0.0133472
0.00010561
-0.00771664
-3.51688e-05
0.118651
-0.000816808
-0.00016242
-0.000204629
-3.45987e-05
0.418373
-0.000362283
0.435924
-0.127342
0.000224732
-0.106511
-0.00111817
0.312309
1.04174
-0.00315591
4.71472e-06
2.62342e-05
-5.52132e-05
0.254924
1.12963e-06
0.00233254
-0.0523556
0.4204
1.1062e-05
2.58998e-05
5.92013e-06
4.97487e-05
-0.0444599
3.26348e-06
0.369178
-0.0342126
-0.000296919
6.02742e-05
-0.00460615
-0.0621013
2.93017e-06
-0.000138876
0.328886
6.8552e-05
-0.0680611
-0.0873026
0.000275087
1.51102e-06
-0.17375
2.47133e-06
0.320004
3.00054e-05
-0.00102471
2.08265e-05
-0.000411698
0.191309
4.35034e-06
-0.00364974
1.14315e-05
0.0300802
-0.00753509
-0.0141414
0.00210758
0.306846
-0.000635776
-0.000200302
-0.0195213
-0.0188686
-0.000569149
-0.000145251
-0.00203094
7.85709e-05
0.264369
-0.0221516
1.00153
-4.78657e-06
-0.0168611
-0.000388448
0.255937
0.000115529
-0.0560331
4.70534e-05
-0.00353302
-0.0710199
-0.000534811
-0.0341487
-0.103811
0.0112275
-3.50701e-05
-0.110186
-0.000758399
-0.000697531
-0.0122473
-0.0263565
0.00289635
-0.000142923
-0.000998964
-0.00199661
-0.00287293
2.05252e-05
-0.00271664
1.00432
0.000202461
-0.00721939
-0.074096
-0.152558
-0.131865
-0.100732
-0.0467105
-0.00118941
-0.0307066
0.000159503
-0.000200817
0.993372
-0.000227527
0.319118
-0.00101714
0.000847625
-0.00254607
-0.100588
-0.000958125
0.00152517
-4.38021e-05
-0.000900607
-5.52737e-05
-0.000194896
-0.0324914
-0.000267217
-8.5296e-05
-0.000202218
0.000283688
-3.41419e-05
-0.0893872
0.322413
-2.57009e-05
-0.00134545
2.63767e-05
6.18538e-05
-0.00187012
1.62593e-05
-0.00202722
0.000592714
-0.000840381
-0.133905
-0.00154815
-0.0040336
7.90997e-06
-0.0034062
0.000720543
-3.73311e-05
-2.64233e-05
2.61202e-05
-0.00178058
0.00115136
-0.0929992
-0.0565391
-0.135374
0.0014064
-0.00402993
-0.0165506
-0.136434
-0.000225484
0.0351042
0.0150673
-0.00231481
-0.0256801
-0.117631
0.870342
-0.000955556
-3.84282e-05
0.00197135
9.87023e-05
3.43454e-05
0.154026
0.00805722
0.178888
-0.0724647
0.858455
-0.00117018
2.94822e-06
0.000308963
-4.87266e-05
-0.00302247
0.291653
0.435
-1.81588e-05
-0.00039771
-5.18096e-05
0.412426
0.042623
-0.0113063
2.28213e-05
3.83385e-05
0.0161013
-0.00155518
-0.146929
-0.0358865
4.05334e-05
0.00771928
-0.0646561
-0.000147865
0.00408568
-0.000172644
-0.0961724
-0.00391182
0.282561
3.24766e-05
0.00373018
-7.62697e-05
2.79427e-05
0.000354665
-0.0490225
2.78902e-05
-0.00203448
4.06089e-05
-0.0420055
-0.0956818
-0.00653653
-0.0143588
-0.0186824
0.0202667
-0.0189285
-0.00547715
0.000138492
0.000206528
3.74805e-05
3.31529e-05
-0.000137778
0.0197062
-0.116059
0.0010527
-0.0830191
-0.00678112
-0.0983224
0.000181041
-1.86568e-05
0.00289906
-0.0791433
3.43031e-05
-0.0837078
-0.031229
0.0118441
-0.0818367
5.17444e-05
-0.0075349
0.000401215
-0.157856
0.266062
1.31206e-05
-0.122467
-0.0465404
-0.00925489
7.24439e-05
-2.28939e-05
0.0612069
-0.0355497
4.1979e-05
-0.01472
-2.84148e-05
0.000447232
0.245345
-2.1548e-05
-9.32257e-06
-0.000215951
6.64056e-05
0.001987
0.000181283
-0.01135
0.000484321
-0.0269587
0.00244088
-0.000487654
-0.0649653
-0.0890791
-0.0136341
-3.75641e-05
4.03692e-05
-0.115016
0.0126844
-0.0989357
4.98443e-05
-0.0112407
-8.73685e-05
4.54415e-05
0.147556
-0.0151298
-0.00610497
-1.68051e-05
-0.0374616
9.97743e-05
-0.137818
4.92704e-05
-0.15549
2.44696e-05
-1.57394e-05
0.000175953
0.00225236
-0.110744
-0.0385448
-0.141687
2.41426e-05
0.000183189
-0.15842
-0.0480912
-0.0181772
-1.49182e-05
-0.0397471
-0.101924
-0.160613
-4.44265e-06
-2.185e-05
-1.17661e-05
-0.114047
-0.136152
0.00158386
-0.0236598
-0.00014429
0.319168
0.00019397
1.88024e-05
0.000307067
-4.29954e-05
-2.44491e-05
-0.00787304
0.000223733
-0.00553447
-0.130198
-0.0279299
-0.121347
7.1547e-05
-0.000124498
0.109662
-0.0862239
-0.0102392
0.223601
-1.65444e-05
-3.70125e-05
-3.33897e-05
0.182993
0.000356605
-3.99637e-05
-2.08146e-05
-0.117092
-0.0329416
-4.48525e-06
0.000133873
-0.019824
-0.0138009
0.000911217
0.439239
-0.117774
0.000447173
1.31825
-6.96343e-05
-0.00153925
-0.0175903
-0.162014
3.97183e-06
-2.48873e-05
4.20037e-05
0.0105072
-0.0646246
-0.000775969
-0.101681
-0.0166202
4.38541e-05
-1.20063e-05
-0.0217166
-0.00158718
-0.00565329
-0.0889083
-0.094849
-0.0810375
0.0202419
-0.0558452
-0.000154991
0.00074173
0.0263924
0.00115643
-0.000212356
0.00166718
4.59193e-05
-0.000241293
-0.0257921
-2.98503e-05
-7.9531e-05
0.080685
-0.0226797
-0.000394106
-0.000128026
-1.9358e-05
0.48216
-0.0142333
0.00171874
-0.058291
0.000478437
0.000410851
0.000351195
-0.000122258
0.00102193
-0.078433
0.038449
-2.30102e-05
-0.000395539
-0.0851448
-0.0640818
0.100785
-0.00108968
0.00408979
0.0385458
-6.90961e-06
0.000113128
-0.0923088
4.29229e-05
0.31935
-3.58441e-06
0.0092072
0.000342333
0.000463972
-0.145611
-0.0157525
-0.0377716
-0.00524753
5.17378e-05
0.0147473
0.12619
-0.0261303
-0.000317344
0.190483
0.313752
3.78731e-06
-0.107907
-0.000166688
-3.13957e-05
-0.000108765
-0.00125071
0.0425176
-3.67409e-05
0.00051334
-0.0518013
-0.0541214
-0.046591
0.609418
1.8566e-05
-0.000169109
0.328902
-0.00704378
-0.00819518
-0.00144052
0.324774
7.60252e-05
-0.000716941
7.20548e-05
3.32443e-05
6.17195e-05
7.00147e-05
0.000150539
-0.0377449
4.17239e-06
-0.00716509
-0.0931229
0.439888
-0.000346332
-0.000121028
0.0103039
0.172251
-0.0897983
-0.00166195
-0.14566
0.601451
8.53649e-05
0.798422
-1.32314e-05
0.00727917
0.0522297
0.0009185
0.878312
-6.2943e-05
-1.66265e-05
0.0025652
5.96508e-05
-0.00190543
0.000547371
9.60984e-06
-0.00428921
-5.58279e-06
-0.000339493
-0.00716582
0.468424
0.108522
0.0473025
-0.0917973
-1.38928e-05
-5.42273e-05
0.00737729
-0.107734
-2.92187e-05
-0.0976369
-0.000132765
0.207553
0.127109
-0.0684136
-0.00296882
-0.0247384
-0.00215938
-0.0315664
0.0092764
-0.015524
0.132026
3.28317e-06
0.371288
0.0751073
-0.00127585
0.400157
-0.0284853
-3.06237e-05
3.26723e-05
0.000135916
-0.000485453
-0.000287942
0.475329
-0.00216866
0.486544
-0.00230434
0.320774
0.415672
0.198698
-0.0151369
-2.069e-05
0.00010058
-0.02269
-0.172704
-0.0999913
0.00328838
1.93582e-05
-0.0803797
-0.00069708
-2.45335e-05
0.00221282
-0.0023617
-0.00137493
0.0707603
0.000154297
-0.101966
0.121166
0.000117233
0.000555641
-0.0296402
-0.116718
-0.00161918
-0.00115533
8.72266e-06
0.00051313
0.139159
-0.0357141
-0.0987001
0.00287547
0.174322
-0.0814422
5.7075e-05
3.50225e-05
0.0539309
-0.000237151
0.153931
0.00493618
-0.0290335
-0.000869977
0.00362808
-0.0752419
-0.000117448
0.00103908
0.00834204
-0.154539
0.270389
-0.130956
-0.0568844
-0.000398763
-0.000110831
0.0146262
8.73255e-05
-0.156644
-0.136446
0.00119583
0.00737639
0.00830202
-0.157972
0.00135441
0.000383818
5.98015e-05
-0.0861513
5.11451e-05
0.0011871
0.242262
0.348969
-0.171172
0.102575
0.101778
0.0515244
-0.000387129
0.0267605
0.000251458
1.76923e-05
-0.00019686
-2.61632e-06
2.13394e-05
-0.000809646
-0.0164854
-0.0869169
-0.0210086
-0.0595178
0.111356
0.0930193
0.00888943
-0.131173
0.000317349
0.0101193
0.0243738
-0.000881169
0.155201
-0.00264758
-0.0233572
0.0267294
0.0119965
0.00224281
-0.00875585
0.0931124
0.00179831
-0.042084
-0.0350977
1.05637
-0.0521453
0.166413
0.0579491
-0.0760962
0.00490559
0.000187219
-0.00565517
9.32687e-05
-0.0057692
-0.0535841
-0.000171392
-0.000139547
0.474024
-0.00716626
-0.0884969
-0.0403387
0.000412696
-0.00305519
-6.21855e-05
8.99214e-06
0.0837985
7.49649e-05
-0.00642342
0.156931
0.0135771
0.00244341
0.0400486
-0.0124975
0.00918506
-0.159966
0.00189113
-0.00965834
-0.117746
-0.00189687
-0.0175091
0.00167052
0.0027223
0.00216342
0.0815578
-0.000718403
0.0123369
-0.114727
-0.044004
0.000657683
-0.114375
-0.0321398
-0.036996
0.000197337
0.014504
-0.135333
-0.00185768
-0.0104888
-0.106466
0.000954911
-0.00260461
0.419653
-0.0438201
-9.76873e-05
0.0181046
-0.103566
-0.00232977
0.379345
-0.00466705
0.00222348
0.123369
-0.00314857
0.0179359
0.253559
0.000113254
0.00256447
0.000360191
4.44492e-05
-0.00972738
-0.0150443
-0.000319377
-0.0516061
0.198681
-0.0797167
-0.140474
0.00254516
-0.00711422
-0.00131094
-0.0756501
2.59476e-05
0.0383405
5.61618e-05
-0.0342008
-0.00428932
-0.0107543
-0.0406964
0.229656
-0.149429
-0.000132667
0.358028
-0.00419321
-0.00525123
-0.12576
-0.154869
-0.0333562
-7.55776e-05
-0.00240574
0.015849
-0.00672532
-0.0102971
0.000943877
0.176841
-0.0879349
-0.0239906
-0.0144517
0.0545253
-0.00452875
-0.00156109
0.00375016
-3.22149e-05
-0.00673546
0.225563
0.00173431
-0.175133
-0.000163231
-0.0158955
-0.00744232
-0.163622
-0.0247301
-0.183917
-0.000158141
-0.000155233
-0.00769896
0.0227646
0.00400418
-0.198531
0.175858
-0.101712
0.000378165
-0.211539
-1.32244e-05
-0.2155
-0.0542432
-0.223875
-0.220357
-0.21013
-0.168815
-0.0879641
-0.0564855
-0.0270617
0.00460951
0.0364266
0.136652
0.172446
0.21108
0.301416
-0.0174122
-0.0158304
0.130679
-0.0348565
0.001965
0.0379022
-0.0855386
0.00122403
-0.00140988
-7.60806e-06
-0.0303502
0.0385003
8.5307e-05
-0.000677577
-0.0226544
-0.00849307
-0.228305
-0.0253885
-0.117898
-4.84496e-05
0.00124307
-0.0001212
-0.0994453
-0.0187972
-0.0766273
-0.0201661
0.00382413
0.000471145
0.0103024
-7.87247e-05
-0.0145208
-7.43971e-05
0.000773597
-0.0114411
-0.0247465
-0.000518488
0.000676956
0.101303
-0.0221449
0.134122
-0.223584
-0.0154756
0.102043
-0.0400644
0.0080232
-0.0458453
-0.00704031
-0.026883
-0.0264186
0.677444
-0.00279425
0.000123365
-0.012526
-0.0190415
5.45554e-06
0.165342
-0.00866849
0.625117
-0.122043
-0.0951908
-0.0568526
0.0991463
-0.010105
-0.000121271
-1.84974e-05
-0.00905647
-0.113205
9.77353e-05
0.620042
-0.00592853
-0.0106017
-0.000193176
-0.000856753
-0.0131485
0.0691757
-0.0875132
0.238654
0.00134438
-0.0304474
-1.48765e-05
0.0578178
-0.0165273
0.0416823
-0.0276151
-0.0117442
-0.0017561
0.00291717
0.0252846
-2.95507e-05
-0.0203352
0.00127343
-0.00088624
0.000989853
-0.041837
0.000526279
0.284459
-0.02265
0.00816481
-0.112036
0.045142
-0.1128
-0.0245312
0.0821467
-0.0388709
0.346958
-0.0118898
-0.00734758
-0.105499
-0.00157038
-0.000116712
0.000914899
0.000175149
-0.00486936
0.00948839
0.000151769
-0.0290103
0.0468961
-0.00664206
5.23591e-05
-0.00711347
-0.0894345
0.296554
-0.0708778
-0.100389
0.0176933
0.160885
-0.00269006
0.0595656
-0.0250806