/*--------------------------------*- C++ -*----------------------------------*\
  =========                 |
  \\      /  F ield         | OpenFOAM: The Open Source CFD Toolbox
   \\    /   O peration     | Website:  https://openfoam.org
    \\  /    A nd           | Version:  7
     \\/     M anipulation  |
\*---------------------------------------------------------------------------*/
FoamFile
{
    version     2.0;
    format      ascii;
    class       volVectorField;
    location    "14";
    object      U;
}
// * * * * * * * * * * * * * * * * * * * * * * * * * * * * * * * * * * * * * //

dimensions      [0 1 -1 0 0 0 0];

internalField   nonuniform List<vector> 
29540
(
(1.00703 -0.00947363 4.39395e-23)
(1.00804 0.00316836 1.90335e-22)
(0.993813 -0.00222661 -2.70748e-22)
(0.97865 -0.0317415 8.99235e-23)
(0.998356 -3.49636e-05 3.80573e-23)
(0.971281 -0.0191682 -1.32535e-22)
(1.03377 -0.0595153 1.34398e-22)
(1.00907 -0.01445 -4.40748e-24)
(1.00136 -0.00131836 6.08871e-24)
(1.00013 -3.33074e-05 1.5888e-24)
(1.00988 -0.0193511 -2.55783e-25)
(0.998366 -0.0111151 -9.439e-23)
(0.999676 -0.000132178 5.20669e-24)
(0.999979 -7.17587e-06 1.40228e-25)
(1.14036 0.0670159 4.71025e-22)
(0.995931 -0.00130514 4.11891e-23)
(0.999891 -0.00057428 -2.3248e-24)
(1.10579 -0.0180747 -3.71138e-23)
(0.998563 -0.00121201 -1.29897e-23)
(0.992691 -0.000537687 -6.03117e-23)
(0.99942 -0.000184431 -1.77982e-23)
(1.00128 -0.00131624 2.13613e-23)
(0.993752 -0.00235634 2.99161e-22)
(0.998559 -0.000114414 1.67817e-23)
(0.902086 0.0976101 8.58167e-23)
(1.0087 0.00250125 1.02139e-21)
(0.999651 -3.9518e-05 1.18634e-23)
(0.950579 0.0818016 -5.81093e-21)
(1.14519 0.066301 -1.2902e-21)
(0.9994 -0.00611998 -1.83631e-23)
(1.0104 -0.00777867 3.10084e-23)
(1.02682 -0.00617996 -2.29572e-22)
(0.978993 -0.0730023 8.77858e-22)
(0.998321 -0.0154045 4.63602e-23)
(0.948662 0.0778666 4.66449e-21)
(1.00147 -0.0221249 1.23501e-22)
(1.05713 0.0333885 -3.26675e-22)
(0.981053 -0.0179532 3.57095e-22)
(1.00362 -0.000561475 -8.29874e-23)
(1.00349 -0.000385203 1.57427e-22)
(1.00029 -0.000113029 -4.88066e-24)
(0.991883 -0.0200234 -3.33881e-22)
(0.999904 -0.000558035 -3.05764e-26)
(1.01324 -0.0501081 -4.86849e-22)
(1.00002 -3.66318e-06 -3.25647e-25)
(0.999525 -0.00621182 1.39208e-23)
(0.998203 -0.00826138 -2.63216e-23)
(1.00005 -5.73745e-05 8.15944e-25)
(1.00223 -0.00248089 -8.70091e-23)
(1.05669 0.0311063 -1.33898e-22)
(1.07322 -0.0788002 9.62297e-23)
(0.981098 -0.0281329 -4.09428e-22)
(1.02675 -0.00548579 8.05814e-23)
(0.972158 -0.0190557 -2.17645e-22)
(0.99603 -0.00134129 -3.61975e-23)
(1.14754 0.0556686 -7.84758e-22)
(0.997729 -0.00150701 1.28152e-23)
(0.999404 -0.000203574 2.25439e-23)
(0.999601 -0.0145916 -6.35335e-23)
(1.00431 -0.0397353 -2.24922e-22)
(0.999956 -4.99159e-06 3.29698e-25)
(0.998612 -0.0012411 -2.67371e-24)
(1.2119 -0.0275738 -2.41846e-23)
(1.00176 -0.02165 -6.69429e-23)
(1.05746 0.0897579 2.71447e-21)
(0.923675 0.0267216 1.15363e-20)
(0.998742 -0.0183035 -1.23258e-22)
(0.99501 -0.00918188 1.22789e-22)
(0.94231 0.0170056 4.62611e-21)
(1.00031 -0.000107324 3.15827e-24)
(1.00986 0.00304343 -1.39244e-21)
(0.988461 0.0664747 3.21568e-21)
(1.0021 -0.00615588 -3.45072e-23)
(0.919862 0.113561 3.21687e-21)
(0.994628 -0.000422887 1.90597e-22)
(1.08147 -0.048833 1.98276e-23)
(1.21172 0.112656 1.4684e-21)
(0.982051 -0.0102173 8.56617e-23)
(0.999967 -1.51272e-05 -9.36365e-25)
(1.00065 -0.0324529 -2.26336e-22)
(0.972711 -0.000450683 -1.44869e-22)
(1.01844 0.031362 8.16994e-22)
(1.00717 -0.00989155 -1.32834e-22)
(1 -4.19764e-05 5.41965e-26)
(1.03566 -0.0585078 -2.02803e-22)
(1.12341 -0.156204 -7.46815e-22)
(1.03295 0.0784776 -5.11691e-21)
(0.999663 -0.000130245 -4.71105e-24)
(0.999686 -0.00011775 -1.38055e-24)
(0.958192 -0.0238037 -5.78298e-22)
(0.993823 -0.0346988 4.4132e-22)
(0.98197 -0.0107045 9.61208e-23)
(1.00209 -0.00256562 1.49483e-23)
(1.04285 -0.0108982 -1.3308e-22)
(0.955115 -0.0101164 -4.76841e-22)
(1.04245 0.0959893 2.56701e-21)
(0.993934 -0.0448843 7.13483e-22)
(1.00032 -0.000259791 7.93017e-24)
(0.978413 -0.0397525 -7.83989e-22)
(1.1365 0.0915371 2.3478e-21)
(0.999965 -1.48564e-05 1.36972e-24)
(0.982962 -0.00668254 -5.10966e-22)
(0.999957 -6.14944e-06 -1.7014e-25)
(1.03246 -0.0162313 -6.68264e-22)
(0.980247 -0.0279706 2.7472e-22)
(1.0282 0.00873617 1.44163e-21)
(1.00302 0.062154 4.86738e-21)
(0.999699 -0.000119203 -1.16887e-23)
(0.999997 -4.66212e-05 -1.77458e-26)
(0.988942 -0.0720703 -4.02996e-23)
(0.977925 -0.0719031 -7.89641e-22)
(1.02748 -0.0312074 5.59778e-23)
(1.00001 -1.23086e-06 5.89872e-26)
(0.999207 -0.00413581 -4.77699e-23)
(0.999921 -0.00148102 1.951e-24)
(0.991133 0.067984 1.90177e-23)
(1.03627 0.0454222 -1.77219e-21)
(0.99217 -0.00476267 -2.05555e-22)
(1.00002 -4.60271e-05 7.92582e-26)
(1.00232 -0.00609265 -2.62846e-23)
(1.2109 -0.109568 2.16463e-21)
(1.00567 0.00992287 2.23704e-21)
(1.12043 -0.0738314 -5.40749e-22)
(0.922155 0.0327067 -1.09428e-20)
(1.00073 -0.000241134 -2.00853e-23)
(1.11972 -0.0540048 1.20891e-23)
(1.10518 -0.0142759 -2.05129e-22)
(1.00748 -0.0387911 1.63755e-22)
(1.00269 -0.00236439 -7.73703e-23)
(1.00002 -0.00029581 1.36239e-25)
(1.01322 -0.0487931 1.7041e-22)
(1.21523 0.105731 7.42e-22)
(1.00545 0.123053 6.08458e-21)
(1.11879 -0.0896235 -1.94824e-22)
(1.03132 -0.0158567 5.62462e-22)
(1.0101 -0.00743993 5.8532e-22)
(1.07098 0.160432 4.35122e-22)
(0.982279 -0.000488988 7.5402e-22)
(1.04337 -0.148064 2.20076e-21)
(1.13757 0.0860169 -1.78755e-21)
(1.12023 -0.0494175 5.68545e-24)
(0.962824 -0.00304266 -6.19236e-22)
(0.968127 -0.0264458 1.77311e-22)
(1.00001 -1.09007e-06 -2.4942e-26)
(0.999992 -2.12947e-06 7.28956e-26)
(0.998314 -5.76751e-05 -3.01332e-23)
(0.998334 -0.00810158 5.39084e-23)
(0.983882 -0.0565785 -6.01781e-22)
(1.05983 -0.122621 9.48668e-22)
(1.25397 0.0239827 1.41051e-22)
(1.02092 -0.0145092 3.00882e-22)
(1.01176 -0.0140989 9.93857e-23)
(1.00029 -0.000419704 1.22227e-23)
(0.999912 -0.00014916 1.33537e-24)
(1.00183 0.0259288 -4.90551e-21)
(1.00036 -0.00103522 1.42594e-24)
(0.995442 -0.00748408 1.41909e-25)
(1.08497 0.162516 -1.26476e-21)
(1.00487 0.0418865 -5.28722e-21)
(1.07598 -0.0770544 -1.80913e-22)
(0.973926 -0.00171154 2.51666e-22)
(0.979321 -0.0311719 6.25258e-22)
(1.14874 0.0605619 2.08153e-22)
(0.999967 -3.0917e-05 2.96209e-25)
(0.999992 -2.03873e-06 -2.73754e-26)
(0.992133 -0.00500727 7.29206e-23)
(0.968888 -0.0259661 -9.57659e-22)
(1.00004 -0.000152023 -7.80438e-25)
(1 -4.45359e-05 1.34044e-26)
(0.995472 -0.00338426 -2.39631e-23)
(1.00002 -0.000286926 -1.12046e-25)
(1.00383 -0.00406804 -4.35136e-23)
(1.08085 0.166014 1.48773e-21)
(0.98253 -0.000253043 -6.21152e-22)
(1.01617 -0.0794706 -2.20394e-22)
(0.996632 -6.51715e-05 1.22622e-22)
(1.00141 -0.00182661 4.52999e-24)
(0.982514 -0.00655939 8.64523e-22)
(0.999406 -0.00413109 -4.32002e-24)
(1.12775 -0.0675964 2.78532e-22)
(0.999985 -6.67845e-06 4.56669e-25)
(1.00716 -0.0267223 -7.57383e-23)
(1.03507 0.0801828 1.8306e-21)
(0.995231 -0.00852802 -7.37067e-24)
(1.04099 -0.143967 -2.03223e-21)
(1.02756 0.0386987 -1.55723e-21)
(0.995808 -0.00186931 -1.77478e-22)
(0.987997 -0.00985215 2.24037e-22)
(1.00255 -0.00237213 1.17959e-22)
(0.99944 -0.00570661 -2.60117e-23)
(0.999814 -5.05507e-06 1.34654e-24)
(1.00372 -0.0122703 2.24561e-23)
(0.917903 0.0163318 4.56084e-21)
(1.00134 0.022362 3.77527e-21)
(0.990556 -0.00400512 5.91793e-24)
(0.995644 -0.00737797 -7.64221e-23)
(0.979441 0.0368028 -4.32629e-21)
(1.01189 0.024627 7.00131e-22)
(0.955987 -0.0100293 5.81823e-22)
(1.00077 -0.000328624 -1.57449e-23)
(1.03836 -0.0752188 3.04092e-22)
(0.976254 -0.0521551 7.97762e-22)
(0.998536 -0.0113594 4.54202e-23)
(1.00056 -0.000712354 -2.50363e-23)
(1.07393 0.164572 6.24014e-22)
(0.995616 -0.00339499 -1.62046e-23)
(1.00451 -0.00366372 -4.86425e-23)
(0.98298 -0.0560521 7.96827e-22)
(0.988726 -0.0735796 1.03675e-22)
(0.999975 -3.46057e-06 1.11159e-25)
(0.980086 0.0981557 -5.35967e-21)
(0.999313 -1.57979e-05 -2.91771e-25)
(1 -3.59112e-05 1.63854e-26)
(0.999637 -0.000138369 2.00752e-24)
(0.995628 -0.0351254 -1.62261e-22)
(1.2073 -0.00227635 -1.00675e-22)
(1.00787 -0.0262613 1.0386e-23)
(1.00437 -0.00341844 -3.33729e-23)
(0.998575 -0.000158562 4.16102e-23)
(0.956716 -0.0111997 -1.03819e-22)
(1.00002 -0.000314989 -1.78521e-25)
(1.00032 -0.00105645 1.52703e-25)
(0.998464 -0.00013391 -2.74608e-23)
(1.02061 0.000538426 1.33196e-21)
(0.998237 -0.00261059 -8.57852e-24)
(0.999229 -0.00384523 1.41994e-23)
(1.01966 -0.00121736 6.56263e-22)
(1.00008 -0.000258216 1.21904e-24)
(1.00002 -3.06685e-06 8.46859e-26)
(1.00333 -0.000400946 1.71337e-23)
(0.983413 -0.0205998 -3.19711e-22)
(0.984395 -0.000257199 -2.98975e-22)
(0.996838 -0.000247917 -1.3072e-22)
(1.01059 0.00237108 1.15253e-21)
(0.989739 -0.000731491 1.42091e-22)
(1.01198 -0.0136602 -9.60699e-23)
(0.999979 -8.027e-06 3.95848e-25)
(0.998046 -0.00172076 -4.95283e-23)
(1.00053 -0.000705821 2.70798e-23)
(1.0388 -0.0726707 2.97555e-22)
(1.0055 -0.122468 1.51952e-21)
(0.999085 -8.22902e-05 2.16525e-23)
(1.00031 -0.000373899 -9.44369e-24)
(0.999168 -0.00374962 -4.86434e-24)
(1.00227 -0.00543388 -6.49044e-23)
(0.992838 -0.000397025 -2.55802e-22)
(0.999968 -2.93341e-05 -1.92018e-26)
(1.12227 -0.151002 -1.66194e-21)
(1.00003 -0.000322496 1.98786e-25)
(1.02037 0.000504822 -9.37757e-22)
(0.997801 -0.00151112 -2.58376e-23)
(1.0001 -0.000249775 5.15233e-25)
(1.02744 0.00912723 -9.1644e-22)
(0.973569 -0.0495343 -8.4703e-22)
(1.00017 -2.84412e-05 5.20847e-24)
(1 -8.1382e-06 1.08342e-26)
(0.962732 -0.00217812 -7.0619e-22)
(1.0007 -0.111393 -2.34363e-22)
(0.99428 -0.00536355 -1.92193e-23)
(1.0067 -0.0395101 -4.31334e-23)
(1.02149 -0.0150875 -4.93927e-23)
(1.04006 0.0774168 2.26844e-22)
(1.00005 -5.41816e-05 2.25337e-25)
(0.983735 -0.0202054 3.03641e-22)
(1.16674 -0.0927253 8.05795e-22)
(0.964404 0.0519817 1.06609e-22)
(0.995187 -0.00833006 5.774e-23)
(1.02653 0.0373322 1.8929e-21)
(1.0824 -0.0456784 2.24474e-23)
(0.99991 -0.00163003 -1.85188e-24)
(0.844865 0.0461616 6.81006e-21)
(0.99964 -0.000290894 -1.35557e-23)
(1.01498 -0.0813737 -2.93226e-22)
(0.95739 -0.0112149 7.06743e-22)
(1.0015 -0.00172727 -2.49244e-23)
(1.1639 -0.0339187 8.13857e-23)
(0.994355 -0.000612549 -1.5207e-22)
(1.00778 0.133511 4.21602e-21)
(0.997699 -0.000175398 1.18686e-23)
(0.988301 -0.0106326 -1.17087e-23)
(0.999859 -0.00148025 -1.14965e-23)
(1.11999 0.124687 5.62837e-22)
(0.999777 -0.0115632 1.14649e-23)
(1.03942 0.0967966 1.5864e-22)
(0.99966 -3.01064e-05 -5.19884e-24)
(0.996136 -0.0012431 -5.69769e-23)
(0.964812 0.121142 -2.75586e-21)
(1.02391 -0.000448924 -1.1073e-21)
(1.01952 -0.000818585 7.62115e-22)
(0.980041 -0.0258849 7.66685e-22)
(0.999898 -2.19793e-05 1.35736e-24)
(1.00221 -0.00523355 -7.48111e-24)
(0.99989 -0.000628068 -4.15733e-24)
(1 -3.39978e-05 1.46204e-26)
(1.04407 0.00103573 3.08136e-22)
(1.00003 -3.54099e-06 8.14227e-27)
(0.986833 -0.00939354 5.29244e-22)
(1.16173 -0.0923118 -7.47467e-22)
(0.899923 0.102052 -6.73906e-21)
(1.00847 0.123423 -9.36564e-21)
(0.97652 -0.0432637 2.61685e-22)
(0.990199 -0.0193913 1.85817e-22)
(0.985136 -0.000985843 1.42594e-22)
(1.02188 -0.0280322 1.82928e-22)
(1.00413 -0.0121161 -3.85653e-23)
(0.987903 -0.010318 -3.0943e-22)
(0.976419 -0.0474198 1.14266e-22)
(1.03857 0.07973 -3.44103e-21)
(0.999443 0.0220131 7.00923e-21)
(0.999145 -0.000100211 1.19462e-23)
(1.00444 0.0627811 -6.7091e-21)
(1.04316 -2.26997e-05 1.05406e-22)
(1.12559 -0.07321 1.57179e-22)
(1.00909 -0.0111303 4.57518e-23)
(1.0005 -0.0106932 -5.04747e-23)
(1.0124 -0.0371083 -9.89083e-23)
(0.996414 -0.00120286 -1.34472e-22)
(0.998223 -0.00043842 -8.79188e-24)
(0.99996 -4.91646e-06 1.74197e-24)
(0.999325 -0.00584256 3.8492e-23)
(1.06659 -0.0430976 2.82238e-23)
(1.12111 0.129852 -9.50672e-22)
(1.00108 -0.000926834 1.17619e-23)
(0.981784 -0.0168546 -4.26428e-22)
(1.01037 -0.0114817 -1.44766e-22)
(0.999974 -1.11518e-05 -1.51607e-25)
(0.97647 -0.04527 -4.13596e-22)
(0.877856 0.0793761 -3.02488e-21)
(0.995845 -0.003192 1.99472e-22)
(0.999242 -0.00307195 1.26981e-23)
(1.00948 -0.0110387 -2.82762e-23)
(1.00054 -0.0315101 2.83751e-22)
(1.07358 0.0194329 3.88075e-22)
(0.999582 -0.00663374 -6.74101e-24)
(0.999978 -3.56763e-05 9.7517e-25)
(1.00001 -1.71174e-06 2.94456e-26)
(0.998199 -0.000399082 -9.76707e-24)
(0.96293 0.120186 3.98624e-21)
(1.03429 -0.0242632 1.40078e-22)
(1.00851 -0.122644 -3.9792e-22)
(1 -8.17126e-06 1.00154e-28)
(0.998231 -0.113059 1.54378e-22)
(1.06298 -0.00836651 -4.39701e-22)
(0.996552 -0.000108815 -6.17561e-23)
(0.958999 -0.004105 -8.65995e-22)
(0.999299 -0.00301944 -1.26532e-23)
(0.999707 -0.000133305 -8.53459e-25)
(0.984302 -0.018297 -9.16035e-23)
(1.00062 -0.000780636 -1.21057e-23)
(1.1327 -0.0667343 -2.36124e-22)
(1.00632 -0.00078512 -3.48763e-22)
(1.19973 0.0732009 -6.56256e-22)
(0.999931 -0.00160878 2.406e-24)
(1.00276 -0.00958004 1.23621e-23)
(1.00546 0.00877267 -3.02755e-21)
(1.20528 -0.104515 -8.49285e-22)
(1.00028 -0.000394694 -7.1913e-24)
(1.0003 -0.000350423 7.08085e-25)
(0.993984 0.0815222 3.32825e-22)
(0.994459 -0.0354312 -8.88848e-23)
(0.999473 -0.00652985 8.23776e-24)
(1.01105 0.0275982 3.68685e-22)
(0.972128 0.0185772 8.48015e-21)
(1.07233 -0.0822576 -3.31352e-22)
(0.998786 -0.0176649 -3.81573e-23)
(1.20302 0.000768585 1.00187e-22)
(0.999482 -4.90474e-05 -8.98683e-24)
(0.994158 -0.00280439 5.4076e-23)
(0.997746 -0.000183573 -3.35612e-23)
(1.01303 0.0232946 2.71007e-24)
(0.999991 -0.00051658 2.53701e-25)
(1.00612 -0.000944988 3.56383e-22)
(1.07818 -0.125156 2.37119e-23)
(1.00316 0.11577 9.41036e-21)
(0.922779 0.117329 -1.48879e-21)
(0.995935 -0.00186449 6.86095e-24)
(0.994119 -0.00523851 5.77057e-23)
(1.05495 0.0926888 -2.17385e-21)
(1.00441 -0.0409554 3.2439e-22)
(0.999961 -5.76959e-06 -1.69932e-24)
(1.24358 0.0637259 8.14021e-22)
(1.02025 0.000984447 -3.99245e-22)
(1.01988 0.00103477 -2.70162e-22)
(0.99597 -0.00910032 -8.22755e-23)
(1.0132 -0.00152606 -5.47059e-22)
(0.95493 0.107013 1.34792e-21)
(1.05348 -0.126826 -2.84456e-22)
(0.982353 0.105739 1.43701e-21)
(0.99561 0.104478 -2.44435e-21)
(0.999998 -4.45946e-05 5.55642e-26)
(1.06435 -0.041754 -5.93056e-23)
(1.05571 -0.123573 1.81393e-22)
(0.998155 -0.00263239 2.26144e-23)
(1.00111 -0.000999554 -1.93821e-23)
(0.967706 0.0214491 2.02963e-21)
(1.03549 -0.0250587 -1.81389e-22)
(1.0002 -5.16947e-05 1.17995e-24)
(0.985044 -0.0392478 -9.11248e-22)
(0.975581 -0.0533937 -3.75957e-22)
(0.996219 -0.00127869 8.00924e-23)
(0.999918 -0.000144808 -1.67873e-24)
(1.05036 0.11592 -3.70369e-22)
(1.03589 0.043623 2.97438e-21)
(1.00003 -0.000352232 -6.96131e-26)
(1.00279 -0.00254709 1.5212e-23)
(1.0036 -0.00255273 8.24251e-23)
(1.12119 -0.117209 1.07583e-21)
(0.980114 -0.0251957 -6.80056e-22)
(1.00005 -0.000417311 -5.13093e-25)
(0.99999 -1.2906e-06 -4.19149e-26)
(1.00034 -0.000116944 1.86103e-24)
(1.07236 0.0208721 -3.75974e-23)
(0.981078 -0.0173171 -3.42473e-22)
(1.00243 0.0477965 1.53057e-21)
(0.963736 -0.0288421 4.38203e-22)
(0.990732 -0.0193334 -1.94474e-22)
(0.983959 -0.000767779 -6.00394e-22)
(1.01231 0.0264588 -1.81515e-21)
(1.20389 -0.0250048 -1.80136e-23)
(0.999171 -0.000106597 2.18892e-23)
(1.00542 -0.00419751 -8.82002e-23)
(1.00058 -0.000773331 1.37262e-23)
(0.981368 0.116767 -3.73141e-21)
(0.982468 -0.0157728 1.83218e-22)
(1.00075 -0.000196269 -6.56187e-24)
(0.994853 -0.00250171 -7.25242e-23)
(1.12543 -0.0465127 7.59052e-23)
(0.99963 -0.00712818 -1.71432e-23)
(0.992015 -0.00856906 -3.99125e-23)
(1.00016 -9.92703e-05 -3.60668e-24)
(1.00017 -3.70967e-05 -1.59368e-25)
(0.874576 0.0849048 4.75275e-21)
(0.99439 -0.000912386 -9.47103e-23)
(0.996692 -0.00330534 8.1241e-23)
(0.999735 -0.00130885 -9.96929e-24)
(0.999495 -3.72048e-05 -1.23098e-24)
(1.04623 0.0750583 -1.15212e-21)
(1.082 -0.128349 7.02118e-23)
(0.98851 -0.0287876 1.15435e-22)
(1.00001 -1.4123e-06 -2.97848e-26)
(1 -2.72618e-05 1.32715e-26)
(0.981797 -0.0162942 4.82858e-22)
(0.995353 -0.00133615 1.9247e-23)
(0.996441 -0.00153046 -1.10037e-23)
(1.01018 -0.00389628 1.69954e-22)
(1.00404 -0.0017178 2.96782e-23)
(0.999949 -0.0118577 -2.02642e-23)
(1.10028 -0.0309579 3.6765e-22)
(0.9874 -0.00300538 -1.20082e-22)
(0.984105 0.103534 -1.16796e-21)
(1.00929 -0.0192867 -3.96739e-23)
(1.00017 -9.96722e-05 4.00912e-24)
(0.976091 -0.0423984 3.95615e-23)
(0.987652 -0.0254335 -4.06535e-22)
(1.15602 -0.0260674 1.31608e-22)
(0.997969 -0.004338 -2.40712e-23)
(0.99047 -0.0339611 -1.40627e-22)
(0.999985 -3.91201e-06 2.51801e-25)
(0.934607 0.0848553 -4.63413e-21)
(1.01096 -0.00163257 3.07554e-22)
(1.00006 -0.000169474 -1.24789e-24)
(0.91785 0.0223743 -5.87843e-21)
(0.987806 -0.0288756 2.69026e-22)
(0.999985 -4.56262e-06 4.02306e-26)
(1.00101 -0.000908321 5.714e-24)
(0.975957 -0.0443139 -2.31721e-22)
(1.02649 -0.0300543 5.92162e-23)
(1.03672 -0.0122595 3.83262e-22)
(0.999994 -2.22586e-06 5.87417e-26)
(0.994369 -0.00046359 7.55128e-23)
(1.01315 -0.0363965 1.61932e-22)
(0.996324 -0.0011736 1.10991e-22)
(0.999674 -3.4724e-05 -2.81589e-23)
(0.994269 -0.00289699 1.62904e-24)
(0.976406 0.0378753 5.06012e-22)
(0.994929 -0.00891066 -1.03106e-22)
(0.992346 -0.00840287 2.93246e-23)
(1.00237 0.029259 -1.51879e-21)
(0.998085 -0.00162519 2.59876e-23)
(0.976106 0.118509 -4.81295e-22)
(0.999984 -4.58097e-06 -1.2839e-25)
(0.992137 -0.0195525 7.78536e-23)
(0.983144 -0.0534464 8.85383e-22)
(0.991087 -0.0342614 2.37601e-22)
(1.15195 -0.100462 2.31103e-22)
(0.999144 -0.00401694 3.20501e-23)
(1.00597 -0.0178086 1.63329e-23)
(0.999938 -0.00173146 5.58975e-25)
(0.987946 -0.0150076 -2.33094e-22)
(1.02715 -0.0326402 1.86445e-23)
(0.999975 -1.06631e-05 7.67385e-25)
(1.00001 -8.14375e-07 -5.20479e-26)
(0.995588 -0.000297898 5.12578e-23)
(0.9818 0.0714699 3.30519e-21)
(1.00867 -0.0149268 1.71585e-22)
(1.00181 -0.00257967 -2.41595e-23)
(0.955819 -0.0209207 6.21681e-22)
(1 -7.29706e-06 -3.22746e-28)
(1.00069 -0.000851813 -2.1982e-23)
(0.999974 -0.000492566 -3.19734e-25)
(1.00973 -0.0143846 1.90066e-22)
(0.988234 -0.011101 4.10819e-23)
(0.99973 -0.000207059 3.55239e-24)
(0.99526 -0.00796121 3.7965e-23)
(0.991392 -0.00495227 -4.31014e-23)
(1.00072 -0.000117164 -1.80835e-24)
(0.999983 -5.32823e-06 -8.03169e-26)
(1.18116 -0.0694846 -6.4536e-22)
(0.999762 -0.00128798 1.06697e-23)
(1.06029 -0.0119539 3.38426e-22)
(1.01743 0.112592 9.08591e-21)
(1.05027 0.091647 -1.99923e-21)
(0.99997 -0.014979 -7.48499e-23)
(1.00394 -0.00154722 -9.83264e-24)
(1.01344 -0.00121523 3.3481e-22)
(0.999972 -0.0017712 -6.35097e-25)
(0.998335 -0.00754225 3.85211e-23)
(1 -1.23389e-05 1.87191e-26)
(0.993029 0.104863 -1.82345e-22)
(0.991309 -0.0112447 5.65589e-23)
(1.00995 -0.00357316 -1.21336e-22)
(0.987681 -0.00312316 2.45885e-22)
(1.00243 -0.00940331 1.29377e-24)
(0.998091 -0.00427122 5.22206e-23)
(0.999926 -0.000148341 3.91322e-25)
(1.00001 -7.05274e-07 -2.7488e-25)
(0.996804 -0.00329321 -5.91015e-23)
(1.04283 -0.012289 -2.12147e-22)
(1.00523 0.0436833 2.43064e-22)
(1.00086 -0.000350003 -2.67689e-23)
(0.979484 -0.0399241 -2.04829e-22)
(0.982451 -0.0152932 -8.29696e-23)
(0.994504 -0.000366173 -2.83114e-22)
(1.24537 0.0232324 -8.82007e-23)
(0.999084 -0.000702837 -1.30241e-23)
(1.00241 -0.0106399 -3.37482e-23)
(0.99616 -0.00201077 5.56924e-23)
(0.999932 -0.000143025 3.31599e-25)
(0.975849 -0.0463412 2.59981e-22)
(1.00263 0.0432908 -2.39097e-21)
(1.02699 0.0336929 -1.94584e-21)
(0.984273 -0.0103115 -3.97547e-23)
(1.00199 0.0416316 -1.04795e-22)
(1.00006 -0.000159028 2.41011e-24)
(1.00001 -1.07584e-06 8.56618e-26)
(1.2367 0.060716 -3.46279e-22)
(1.16269 -0.0282203 -4.41697e-24)
(0.920466 0.0865176 -2.27518e-22)
(0.99383 -0.0578816 6.43952e-22)
(0.984124 -0.00105894 -1.84922e-22)
(1.12559 -0.0411698 -9.46111e-23)
(1.00082 -0.0003672 3.0307e-23)
(0.996015 -0.00270845 3.19694e-23)
(1.00032 -0.000124844 -1.77772e-24)
(0.99254 -0.000509752 -6.22541e-23)
(0.99165 -0.00921082 -8.30028e-23)
(0.999997 -2.43875e-05 -1.51349e-25)
(0.999374 -2.44805e-05 5.12906e-24)
(1.00272 0.112951 -8.56425e-21)
(0.999908 -0.000511529 3.81875e-24)
(0.941882 0.0780268 5.5757e-21)
(1 -1.17192e-05 -1.41207e-26)
(1.23481 -0.0604186 -7.29702e-22)
(1.06011 -0.0137001 -7.26582e-22)
(1.10065 -0.0277959 -4.07025e-22)
(1.00074 -0.000350859 1.8179e-24)
(1.00013 -3.06639e-05 3.20333e-24)
(0.985544 0.0671029 -4.92737e-21)
(1.06286 -0.0103742 1.44664e-21)
(0.982602 -0.0543443 -8.16463e-22)
(1.0192 0.0330285 8.85517e-22)
(0.998006 -0.0150876 3.28469e-23)
(0.99065 -0.00377224 -6.34041e-23)
(0.997147 -0.000158387 -3.38688e-23)
(1.13088 0.159303 -4.39823e-21)
(0.983004 -0.018329 2.95168e-22)
(1.02239 -0.0269407 -1.23445e-22)
(0.995447 -0.00789944 -2.16604e-23)
(1 -7.2499e-06 -6.42983e-28)
(0.999093 -0.000662967 -1.10658e-23)
(1.00421 -0.0044001 5.19122e-23)
(0.987212 -0.00554977 3.17582e-22)
(0.984669 -0.0104077 5.90699e-23)
(0.969838 -0.0265297 -9.32917e-23)
(0.987077 -0.00588439 -2.40297e-22)
(1.01525 0.00210846 1.56818e-22)
(0.998502 -0.000100608 6.88471e-25)
(0.959079 -0.0241467 3.23276e-22)
(0.990196 -0.000641412 -8.80723e-23)
(1.00003 -0.000153725 3.42425e-25)
(0.991429 -0.000514683 -6.12896e-23)
(1.02256 -0.0290987 -1.96775e-22)
(1.01466 0.00228464 -8.6656e-22)
(0.981653 -0.0183575 -7.41174e-23)
(0.999988 -5.26188e-07 -1.14908e-27)
(0.987698 -0.0113254 6.1733e-23)
(1.0013 -0.0108188 4.54143e-24)
(1.00098 -0.000846069 7.32727e-24)
(1.06716 -0.135076 -8.14322e-22)
(1.00188 0.0425588 -5.56402e-21)
(1.00064 -0.000841825 2.04051e-23)
(0.991572 -0.000386995 8.99117e-25)
(1.06581 -0.079927 1.02577e-23)
(1.02085 0.000104849 1.33603e-21)
(0.988947 0.030127 -5.37368e-22)
(1.00131 -0.00179834 6.54199e-24)
(0.999809 -0.0155913 2.34412e-23)
(1.09759 0.112284 -6.67883e-22)
(1.01375 0.0206496 -4.50418e-21)
(0.992867 -0.0195377 2.06212e-22)
(1.0034 -0.00255877 -9.23082e-24)
(0.966475 -0.0311301 4.42351e-22)
(0.999998 -3.474e-06 2.79544e-26)
(0.96719 -0.00133632 -3.26359e-22)
(1.00006 -5.05216e-05 4.54907e-25)
(1.0634 -0.0797676 -7.93218e-22)
(0.999976 -2.47941e-06 -8.54965e-26)
(1.00002 -4.50408e-05 2.7169e-25)
(0.999425 -0.0173942 -2.80437e-23)
(1.21757 -0.0219512 9.63276e-23)
(1.03227 0.145529 4.00083e-21)
(1.02495 -0.0302417 -3.03526e-22)
(1.00987 -0.0115648 9.64589e-23)
(0.999999 -2.54881e-06 -6.97113e-27)
(0.995694 -0.00321288 -1.07975e-22)
(1.00006 -1.51062e-05 -3.37816e-25)
(0.997781 -0.00173055 3.70886e-23)
(1.00002 -4.19294e-05 -2.1119e-25)
(1.03702 -0.0107472 -1.19455e-21)
(0.999667 -0.000342477 -1.39312e-23)
(1.05028 0.044985 1.95483e-21)
(0.999911 -0.000158702 -2.61737e-24)
(0.990988 -0.00368983 -1.06981e-22)
(0.972144 -0.000724903 7.2073e-22)
(0.997001 -0.000212166 -4.34968e-23)
(0.983063 0.0393226 5.17114e-21)
(0.988008 -0.00050482 1.72777e-22)
(1.00772 -0.0765105 5.12434e-23)
(0.996116 -0.00284131 1.65362e-22)
(1.01916 -0.00218756 -2.79187e-22)
(0.977747 -0.0403109 9.38212e-22)
(1.0144 -0.00111938 -9.33048e-22)
(1.0234 -0.0558139 -1.96248e-23)
(0.999989 -9.62316e-07 1.11318e-26)
(0.999073 -0.0146961 2.60424e-23)
(0.997194 -0.000208943 5.30386e-24)
(1.00018 -6.73503e-05 2.40704e-24)
(1.00006 -1.26498e-05 5.68901e-25)
(1.13648 0.161908 4.80836e-21)
(0.996557 -0.00153617 9.27187e-23)
(1.02089 0.000699884 1.52478e-21)
(1.00023 -0.0159867 2.83856e-23)
(1.00061 -0.000221923 6.98566e-24)
(1.01746 -0.00659728 -1.02879e-21)
(1.00012 -2.81417e-05 -7.12811e-24)
(0.999983 -2.47884e-06 -1.15346e-26)
(0.967568 -0.00178011 2.51131e-22)
(0.997539 -0.000877448 4.20191e-23)
(1.00002 -4.08392e-05 3.15125e-25)
(1.06128 0.0897942 1.46776e-21)
(0.888836 0.0690858 -8.37276e-21)
(0.999851 -0.000168088 6.51373e-24)
(0.973331 -0.00146918 -1.9509e-22)
(1.00001 -1.02686e-06 6.12917e-26)
(0.951688 0.104598 -5.40327e-21)
(1.24327 -0.0632241 -1.0353e-21)
(0.978662 -0.0324908 -7.70591e-22)
(1.00003 -0.000403945 -5.83372e-25)
(1.02164 -0.0259391 2.9167e-22)
(1.0234 -0.0026181 -3.85138e-22)
(1.02447 -0.000530911 1.13712e-22)
(1.03756 -0.0129158 -1.49513e-22)
(0.999744 -0.00138035 -1.72738e-24)
(0.999906 -0.000612578 3.26683e-24)
(0.990061 -0.0111368 -1.81579e-22)
(1 -6.3542e-06 -2.00216e-26)
(1.00001 -7.48763e-07 -1.55804e-26)
(0.982455 -0.0179759 -1.74687e-22)
(0.994992 -0.0444604 -3.44902e-22)
(0.970676 -0.0260963 -2.41381e-23)
(0.907622 0.0981042 -1.71216e-22)
(1.00014 -1.83548e-05 -2.96077e-24)
(1.00624 -0.0575636 -6.96085e-22)
(1.00526 -0.00393823 -9.06528e-23)
(0.999984 -2.60497e-06 1.31566e-25)
(0.999264 -0.00285902 -2.76912e-23)
(1.00003 -0.000343102 -3.48048e-25)
(0.996709 -0.00925304 6.22833e-23)
(1.00003 -7.57352e-06 3.45295e-25)
(1.0248 -0.0551095 -4.32709e-23)
(1.01411 -0.00136804 9.06254e-22)
(0.977631 0.116193 1.27355e-21)
(1.01869 -0.00203704 1.04687e-21)
(0.999803 -0.000164039 5.16781e-24)
(1.00032 -0.000284578 -6.90316e-24)
(1.118 -0.121872 -1.10338e-21)
(1.02076 0.000575766 -1.22532e-21)
(0.997821 -0.00028454 3.79616e-23)
(1.00001 -9.86588e-07 1.29184e-25)
(1.07567 0.0758653 -2.38324e-21)
(1.03349 -0.139944 -3.55462e-22)
(0.994136 -0.0567411 -2.77709e-22)
(0.989932 -0.000545486 -4.66027e-23)
(0.999985 -1.61153e-05 2.50832e-25)
(0.999805 -0.000154749 -3.02906e-24)
(1.03587 -0.14385 9.95767e-22)
(0.996356 -0.0358212 -9.46521e-23)
(1.03224 0.0231519 2.76626e-22)
(0.983496 0.09972 4.86794e-21)
(1.00734 -0.0745129 3.87218e-22)
(0.999107 -6.08714e-05 -6.80478e-24)
(0.999985 -7.51667e-06 -2.97739e-25)
(0.973247 -0.0341373 7.55945e-22)
(0.977056 -0.0684028 -9.56877e-22)
(0.999857 -0.00017377 3.49159e-24)
(1.00648 -0.0173678 7.9532e-23)
(0.993117 -0.0190332 -3.5877e-23)
(0.996734 -0.00164741 3.65147e-23)
(0.99787 0.0360388 -4.08237e-21)
(0.999092 -0.000399317 2.43565e-23)
(1.03562 -0.0436708 8.41508e-24)
(1.21358 0.118466 -1.63336e-21)
(0.994573 -0.00235944 -1.0656e-22)
(0.9185 0.0815131 -8.26529e-22)
(0.925472 0.0382336 2.50525e-21)
(0.999978 -3.79302e-05 -9.79204e-25)
(0.999981 -0.000538223 -2.69687e-25)
(0.98815 -0.000669998 -1.10061e-22)
(1.00948 -0.00361058 -2.19247e-22)
(0.974408 -0.00135796 4.09003e-22)
(1.00369 -0.00317679 -9.48504e-23)
(0.994767 -0.00236856 9.94072e-23)
(0.999599 -0.000365703 -1.0606e-23)
(0.960176 0.104998 -9.66127e-22)
(1.05057 0.0427145 -3.03269e-21)
(1.00161 -0.0017452 1.67765e-23)
(0.851369 0.0436152 -1.69526e-21)
(1.00001 -9.21141e-07 -8.80063e-26)
(1.02003 0.00468076 -2.14405e-21)
(0.987616 -0.0685027 6.38585e-22)
(1.0079 -0.057896 2.70895e-22)
(1.00007 -0.00015434 -1.24295e-25)
(0.973228 -0.000745293 3.33237e-22)
(1.01803 0.0042059 1.20414e-21)
(1.00924 -0.00388295 1.81672e-22)
(1.02309 -0.00177355 5.34358e-22)
(0.999683 -2.70382e-05 1.98736e-23)
(0.999662 -0.000365206 1.26168e-23)
(1.01556 -0.0358101 3.84346e-23)
(0.997579 -0.000946645 -1.1964e-22)
(0.991078 -0.0083686 -1.95894e-22)
(0.999356 -0.00259354 1.63806e-24)
(1.07173 0.0271606 1.50034e-21)
(0.998865 -0.0152993 -1.80339e-23)
(0.996498 -0.00349362 1.87851e-24)
(0.953824 -0.017647 -9.36503e-22)
(0.996253 0.0813894 5.45783e-22)
(1.08609 -0.0437329 -2.09889e-22)
(1.01702 -0.00629068 8.24332e-22)
(0.999719 -0.000133828 3.77417e-24)
(0.99964 -0.000238665 1.70495e-24)
(0.987447 -0.014807 4.71624e-22)
(1.00071 -0.000917078 -1.63811e-23)
(0.998176 -0.000501658 -6.79978e-24)
(0.999985 -1.54297e-05 -9.38581e-26)
(0.999769 -0.0014064 3.67974e-25)
(1.01757 0.00390283 -4.67985e-22)
(0.984877 0.0702695 -4.74615e-21)
(0.99991 -1.14967e-05 8.04379e-25)
(1.16108 0.14119 -3.85392e-21)
(0.999997 -3.05511e-05 6.59834e-26)
(0.997711 -0.00204831 5.05844e-23)
(0.999994 -6.99999e-05 1.02827e-25)
(1.00372 -0.00274764 -4.19951e-23)
(1.18079 -0.0757752 5.14532e-22)
(0.999972 -3.15611e-05 8.35207e-26)
(0.999971 -3.40072e-05 5.8625e-25)
(0.963031 -0.0291143 -4.33284e-22)
(1 -6.29089e-06 -2.70372e-27)
(1.04016 -0.0131512 1.25244e-21)
(0.990021 -0.0296032 3.67098e-22)
(0.999983 -0.000473208 3.19148e-25)
(1.07268 0.0559761 -1.82958e-21)
(1 -2.17717e-05 -3.4299e-26)
(0.999719 -2.82134e-05 1.7389e-23)
(0.999937 -2.62056e-05 2.91735e-26)
(0.996624 -0.00350504 -3.04102e-23)
(0.99976 -0.00112128 -5.18571e-24)
(0.995671 -0.00022457 -3.45386e-23)
(0.991537 -0.0831178 -7.4605e-23)
(0.999787 -0.00109233 3.43905e-24)
(1.00297 -0.0025584 -3.26424e-23)
(0.999982 -1.80188e-06 -4.93738e-26)
(1.03436 0.142472 -7.5656e-21)
(1.03423 -0.0442459 1.61299e-23)
(1.08889 -0.0449985 -7.01069e-25)
(0.976136 -0.00407963 4.45258e-22)
(0.98441 -0.00297327 -8.07717e-23)
(0.999329 -0.00279699 4.56363e-23)
(1.00206 -0.00194311 4.55999e-23)
(1.04158 0.0562954 8.26235e-22)
(0.987145 -0.0261332 5.53802e-23)
(1.11645 0.091857 8.95308e-22)
(0.970443 -0.0091226 -8.13485e-22)
(0.99763 -0.00197712 -4.77872e-23)
(0.999993 -2.82914e-06 -1.05676e-25)
(0.996029 -0.00201703 -6.71091e-23)
(1.01102 0.135214 1.95982e-21)
(1.06552 0.0654796 -4.28027e-22)
(0.98611 -0.0390776 3.05622e-22)
(0.960628 -0.00383767 1.90888e-22)
(1.03912 0.134665 2.01513e-21)
(0.994086 -0.00041636 8.94005e-23)
(0.985446 -0.0623899 5.02379e-23)
(0.999994 -6.66342e-05 1.72863e-25)
(0.989244 -0.0296809 4.60603e-22)
(0.999415 -0.00016483 -2.53338e-23)
(0.862145 0.074299 -4.92576e-21)
(0.982785 -0.0508116 -6.89662e-22)
(0.999939 -2.34376e-05 1.47675e-24)
(0.958144 -0.0123839 -5.08465e-23)
(0.986937 -0.0276997 2.77933e-23)
(1.0296 0.0628086 2.99462e-21)
(0.998201 -0.000547506 -6.43068e-23)
(0.985721 -0.0266225 -1.66345e-22)
(0.998198 -0.00772784 -5.36433e-23)
(0.999513 -0.0168137 -5.84596e-23)
(0.999116 -0.000405895 -1.65686e-23)
(1.02845 0.0614074 -3.62609e-21)
(1.00353 -0.118487 6.67147e-22)
(0.987639 -0.0117864 -1.37664e-22)
(0.990459 -0.0103661 2.88407e-24)
(0.991065 -0.00348393 -4.3373e-23)
(1.00372 -0.001517 -3.84647e-23)
(1.04075 0.130711 7.84655e-21)
(0.987676 -0.00957078 6.26325e-23)
(1.01329 0.0314514 1.9269e-21)
(1.0019 -0.00156379 3.47059e-23)
(1.15808 -0.100334 -2.17726e-23)
(0.939288 0.0837581 8.32737e-22)
(0.993971 -0.000325647 -3.09446e-22)
(0.99984 -3.00122e-05 3.38079e-24)
(1.04453 0.0775459 9.03069e-22)
(0.999886 0.108018 -7.15143e-21)
(1.01518 -0.0345047 -4.01045e-23)
(1.05908 -0.0421862 2.68468e-23)
(0.99654 -0.00960069 -6.91292e-23)
(0.976492 -0.00369009 -2.63899e-22)
(1.09451 0.10946 2.69827e-21)
(0.972358 -0.0341986 1.31453e-22)
(0.999983 -1.54743e-05 3.30538e-25)
(0.994867 -7.97516e-05 -1.58075e-22)
(1.00003 -4.24534e-06 3.52359e-25)
(0.996898 -0.000190363 1.18448e-22)
(0.999983 -1.63638e-05 -5.16191e-25)
(0.998376 -0.0107856 9.15019e-23)
(0.999331 -2.72669e-05 9.034e-24)