/*--------------------------------*- C++ -*----------------------------------*\
  =========                 |
  \\      /  F ield         | OpenFOAM: The Open Source CFD Toolbox
   \\    /   O peration     | Website:  https://openfoam.org
    \\  /    A nd           | Version:  7
     \\/     M anipulation  |
\*---------------------------------------------------------------------------*/
FoamFile
{
    version     2.0;
    format      ascii;
    class       volScalarField;
    location    "36";
    object      p;
}
// * * * * * * * * * * * * * * * * * * * * * * * * * * * * * * * * * * * * * //

dimensions      [0 2 -2 0 0 0 0];

internalField   nonuniform List<scalar> 
7639
(
0.173366
-0.00718366
0.379712
0.224476
-0.00106276
-4.68841e-05
0.389218
-0.00629032
-0.000151449
0.0925341
-4.38366e-05
0.00286973
-0.00937925
0.0449866
0.096675
-0.0126032
0.187027
-0.0121243
0.00108518
-0.0566572
0.0587527
0.00188543
0.0329662
0.186227
-0.0156965
0.188723
-0.000984754
0.0559673
0.154633
0.00271132
-0.0166847
0.628588
0.0322988
-0.00059385
-0.000129992
0.0752759
0.00313994
0.374693
-0.00539025
-0.000416769
-0.00495189
-0.012037
-0.0603888
-0.0745626
-0.000249114
-0.000101639
0.00183948
-0.0056263
-8.42065e-05
-0.056502
0.00433372
0.0529911
-0.0196552
-0.00485725
0.0743668
-0.00563203
0.00116704
-0.00626075
-0.0254229
-0.000616008
4.76955e-05
0.00556403
0.045363
0.00317123
-0.00117938
-0.0164205
-0.000120629
4.60944e-06
-0.0182063
-0.00530818
-9.34011e-05
-0.0449901
-0.0152177
-0.0250883
-0.0117764
-0.0354823
0.372851
0.0578025
0.0306539
-0.0476425
-0.00900824
0.346506
0.0845683
-0.0264337
-0.00175626
-0.00276761
-0.00672708
-0.0191069
-0.000805605
-0.00533697
0.158137
-0.101653
-0.000165083
0.00131623
-0.00425131
-0.0261196
-0.0426569
-0.00234077
-0.00193313
-0.00140297
-0.0421641
0.0368651
-0.00403093
-2.52149e-05
-0.102757
0.158124
0.541136
-0.00599111
-6.8591e-07
0.0286169
0.209113
-0.0420388
-1.98568e-06
0.0303122
0.159412
0.00054718
-0.0601593
0.125403
-0.0327884
-0.0258424
-0.0436603
0.329502
-0.0581336
0.0120683
-0.0425914
-0.00118167
-0.0152105
0.00222622
-0.00124846
-0.016996
-0.145118
0.0338671
-0.000743398
-0.000947705
-0.0273109
0.202781
0.422531
-2.1727e-05
0.00976126
-0.0538113
-0.023803
-0.0398245
-0.0359351
-0.024212
0.54636
-0.0185262
0.155209
-0.0250771
-0.0325443
0.328547
0.0717985
-0.0864997
-0.00185816
-0.0409873
0.084503
0.34018
-0.0407624
-0.00933198
0.502116
-7.64467e-05
0.000549595
0.193152
-2.38995e-05
-0.00255178
-0.00477708
0.246652
0.247469
0.523718
-0.00286845
-0.00374451
5.3752e-06
-0.0449722
0.000541149
-0.00135301
0.0106249
-0.0322209
-0.0834095
0.0733064
-0.000164377
-0.000626251
0.227319
-7.62506e-05
-0.00013981
0.389617
-0.0123376
-0.0339801
-0.031003
-0.0239983
-0.0210031
-0.0526435
-2.60705e-05
-0.0414006
0.0732155
-0.00407331
8.90247e-05
0.138857
-0.0015213
-0.0160194
-0.0196962
6.548e-06
0.00110237
0.210899
0.106055
0.345311
-0.0552358
-0.0388769
-0.098379
0.0610456
0.210685
-0.000266977
4.23065e-05
0.507779
-0.0107013
-0.000770137
-0.039696
-0.0159149
0.303496
0.313483
-0.0437069
0.595189
-0.00141123
-0.0118283
-0.0431515
0.0723515
-0.0731918
0.124861
0.504144
7.74209e-05
0.012697
0.134705
-0.00509409
0.12183
-0.000683654
0.561857
0.333463
-0.00666565
0.00333163
-0.000386898
0.0208427
-0.000119091
-0.00792377
-0.0515579
-9.30456e-05
-0.00167078
-0.000541763
0.118448
-2.40704e-05
-0.00553398
-0.0466678
0.628577
0.0280632
0.548459
-5.76476e-05
-0.0216096
-0.000236823
0.359248
0.00531553
0.423498
0.00150178
0.000924166
0.00125144
0.0639818
0.000748535
-0.000290289
0.000659634
-0.0053742
-0.0353255
-5.38887e-05
-0.039485
-0.00455583
-0.000181772
-0.000795102
0.402317
-0.00936061
-0.000971523
0.60006
-0.00183158
0.196096
-0.000263675
-0.000770439
9.33628e-06
-0.0294279
0.0695363
-0.0820249
-0.0257485
-0.000525221
-0.0502397
-0.0179531
-0.0002297
0.000641701
-0.00276668
-0.00906429
0.00389621
-0.00157911
-0.0253156
-0.0314963
-0.024939
-0.0662024
-0.0310045
0.317776
0.335046
-0.00188379
-0.12553
-9.44835e-06
-0.00303375
-0.0260688
0.181037
0.0952991
0.000123229
-0.00281053
-0.0301715
0.137882
-0.00126944
0.00474176
0.0015959
-0.0144275
-0.130718
0.283215
-0.00201541
-0.0111941
-0.000147594
0.00529458
-6.82782e-05
-0.0206216
-0.000443101
0.00403346
-0.169959
-0.0319927
0.000966042
0.011523
-0.000940245
0.0237999
-0.00980911
0.0509995
0.125167
-0.123392
-0.0716384
-0.018311
0.00673649
-0.05038
0.534541
-0.0653214
0.0379896
0.583493
-0.00194655
-0.00221026
-0.0850858
-0.00139976
-0.015887
0.00838262
-0.00353591
-0.0026414
0.14112
-8.94597e-05
0.000717513
9.91713e-05
-0.00427055
-0.00882176
-1.14099e-05
-0.00139513
-0.0244612
0.501228
0.00163867
-0.0104717
0.466863
0.286839
0.0456333
-0.117497
-0.0452368
0.00650893
0.237
-0.0131198
0.248091
-0.0243478
-0.0686925
0.115841
0.246766
-0.0370114
0.0886019
0.112116
0.213049
0.0591506
-0.00383065
-0.00527793
-0.000114331
0.00130335
-0.0133618
0.00123029
-0.000139201
-0.00205326
-0.0494247
0.0264856
-0.0193274
-0.00380486
-0.00474102
-0.0108874
-0.00862823
0.00214067
0.077935
-0.00239151
-2.92374e-05
-7.34663e-05
6.11973e-05
-0.0231423
0.137048
-0.00502298
0.0354817
-0.0807031
0.366672
0.00416781
0.00891973
-0.00636184
0.386643
-0.00135265
0.275228
0.159072
-0.000151909
-0.0260018
-0.00412101
-0.0385036
0.000738318
0.054336
0.00349782
0.00826101
-0.00109417
0.103082
0.143318
-0.0394018
-0.0247355
-0.00293863
-0.0213283
-0.0291117
0.61719
-0.0571276
0.00580505
-1.12864e-06
-0.0153481
-0.0028822
0.0218111
-0.0663517
-0.123433
0.399547
0.124476
-0.0917611
0.145252
0.376781
0.036385
0.00152336
0.239704
-0.00116731
-0.000239325
-0.0195568
0.000112443
-0.105608
-0.00125002
-0.0266379
0.00246582
0.148938
-0.00226669
-3.18487e-05
-0.07158
0.00223757
-0.00457763
-0.0408296
-0.0530181
-0.134782
0.136732
0.112075
0.115513
-0.000267683
0.0155702
0.0565005
-0.000682712
-0.018643
0.000793522
0.00576169
-0.00498111
0.00622906
-0.00100557
0.0291989
-2.60235e-05
0.000258263
0.00257376
-0.0239946
0.0258627
-0.0250982
-0.0275134
-0.0319625
-0.0817659
0.00459655
0.228981
-0.14514
-0.00805084
0.569214
-0.0420392
-0.00921227
-0.0277632
-0.00801322
-0.0226405
-0.011942
0.0340127
-0.0727178
-3.43111e-05
0.0299519
-0.000125712
0.327713
-0.0201864
-0.00599351
-0.0158997
-0.000246021
0.348877
0.280025
-0.000734405
0.00283107
-0.0451182
0.437739
-8.29898e-05
0.0141876
-0.0199164
0.0843988
0.528988
-0.0397794
0.122945
-0.0027347
-0.000264761
-0.00528015
-0.135823
0.366032
-0.000317228
0.19781
-0.00849889
0.376206
0.263616
-0.0106395
-0.00908761
-0.0142192
-0.053672
-0.000111565
-0.0147196
-0.0520939
-0.0480006
0.0145493
0.0118624
-0.000166092
0.280127
-0.00162745
-0.000135066
-0.0284212
-0.000635195
-0.000290673
0.00384651
0.174426
-0.0640871
0.489547
7.95229e-05
0.168225
-0.0225931
-9.97326e-05
2.26691e-05
0.152173
0.173415
-0.00494432
0.160461
3.19718e-05
0.169235
-0.122536
-0.0111295
0.398308
-0.0380276
-0.00166081
-0.0266322
0.164076
0.166436
-0.0180993
-0.0226656
-0.00736449
-0.00349688
-0.0002594
-0.00172934
0.231153
-3.58204e-05
0.165965
-0.0640427
0.308937
0.157671
-0.0530034
0.472765
-0.00198481
0.00347138
-0.0450731
-0.0216643
-0.00767556
-0.0249796
0.0240532
0.562843
5.36583e-05
-0.00233387
-0.0398939
7.57246e-06
0.333937
0.0022716
7.05888e-06
0.000245087
0.000491341
-0.0195316
0.0208647
-0.0018849
-0.000110157
-0.00813093
0.00248152
-0.0705715
-0.0489105
0.0264842
-2.86751e-05
-0.103178
-0.0144012
0.00287023
0.307206
0.00136505
0.0306364
0.000194411
-0.0138071
0.08336
-0.00771183
0.183353
-0.0141892
0.0165804
0.0865281
0.119152
0.00480583
-0.0113902
0.119447
-0.0561398
0.364572
-0.0103184
0.201279
-0.0102386
-0.00141043
0.117154
-0.00144927
0.0778019
0.00234447
6.11118e-06
-0.0754003
0.0750071
0.00175509
0.011661
-0.0135072
-0.100514
-0.0053349
-0.0259388
-0.00203325
-0.00974008
-0.0483055
-0.0283159
-0.0107769
-0.000186713
0.3893
0.0356106
0.0349869
-0.00024904
0.264968
4.38663e-06
-0.000229805
0.0520693
-0.000157252
0.0546727
0.0548481
0.0201941
-0.0507156
-0.0854109
-0.120911
0.00162527
-0.0398924
-2.45933e-05
0.00423384
0.17659
-0.0173176
-0.00334653
-0.0126781
-0.00236008
-0.00050498
0.587798
-0.0108752
-0.000675303
-7.45807e-06
0.124976
-0.0301731
-0.000407496
-0.00330807
0.144863
0.061236
-0.0363898
1.28094e-06
0.163504
-0.017366
0.142339
0.0204884
0.0252179
-0.029815
-0.000119499
0.0844297
0.0520554
-0.093124
-0.0605127
0.235178
0.00757007
0.109917
-0.00354438
-0.026708
-0.000484403
-0.0027483
-0.000133552
0.135493
0.163305
-0.00179748
0.0224079
-0.0182642
-0.0513265
-0.0558528
-0.00222787
0.0129045
0.555284
-0.0887287
-7.00276e-05
0.0627641
-0.00465235
0.467839
-0.0133734
-0.0140114
-0.00659465
-0.0161319
-0.00875445
-0.00863097
-0.00446514
0.00177575
0.0176125
0.000131392
-0.138831
-0.0747524
0.308254
-0.035128
0.0663691
0.002513
-0.0462141
-0.0161752
0.189811
-0.00816307
0.000131937
-0.0170763
-0.00640931
0.0159668
-0.027202
-0.0236041
-0.0518031
-0.0154636
-0.0099307
-0.0517418
6.72365e-06
0.0290008
-0.0451942
0.0459554
-0.057521
0.0777551
-0.060167
0.257663
-7.0683e-05
-0.0307524
-0.019335
0.498155
-0.11301
-0.0139835
-0.0768219
-0.0338044
-0.0732303
-0.0467237
0.115089
-0.00333368
0.230908
0.0108903
-0.000485088
-0.0015111
0.056045
0.636213
0.00119925
-0.0235381
0.152045
2.71157e-05
-0.0217628
0.0324022
-0.0156759
0.0110433
-0.0020023
-0.0297152
-0.00381235
3.45792e-05
-0.0363123
0.205636
-0.000686222
-0.0175519
0.0023186
0.151183
-0.00047189
-0.00150823
-0.000441674
-0.000971216
-0.0705952
-0.00264193
0.00250903
-0.0188489
5.36379e-05
-0.0843277
-0.137895
-0.0921264
-0.0178744
0.0178018
-0.000263038
-0.0139901
-0.045774
-0.0708397
0.312171
-0.00156257
-0.0482382
-0.00562725
0.00283455
0.0849292
0.000543346
-0.000195559
-0.0118808
-0.0687938
0.0169397
-0.00355436
-0.00248989
-0.0426945
-0.000217847
-0.00393876
-0.014276
0.267447
0.198547
-0.0416255
-0.04428
0.00891275
0.00270846
-0.0579998
-0.0506172
-0.0162661
-8.35483e-07
-0.0493206
-0.0257598
-0.0544972
0.00176462
-0.0387678
-0.000490709
-0.00359135
0.161772
-0.0287298
-5.20024e-06
-0.00336864
-0.103368
-0.000205847
-0.020317
-6.37106e-05
0.00423515
-0.0692059
-0.0392477
-2.88339e-05
3.65121e-05
0.107481
-0.0382113
0.352333
0.193469
-0.0410223
-0.000737428
-0.0149482
0.000266966
-0.135209
-0.0688671
-0.11042
-0.0171284
0.168099
0.00768084
0.000331078
0.00465442
-0.0929683
0.00238244
-0.0250127
-0.044485
-0.000164584
0.0191618
0.0587318
0.00671606
-0.0234303
-0.0637083
0.160226
-0.0300717
-3.701e-07
-0.0782977
-0.0465096
-0.0360093
0.00391994
0.000921565
0.00538672
-0.0690072
0.027477
-0.0266839
0.0545082
-0.0425087
0.00598879
0.0166308
0.00754351
-0.0272461
-0.121587
-0.000128438
0.123792
0.177806
0.0070408
0.0875101
-0.0559947
0.038537
-0.0384606
0.169334
0.0824851
0.547296
5.15502e-06
0.0714129
0.14036
0.0133122
-0.0013781
-0.0148146
-0.0619919
5.06824e-05
-0.0148655
-0.0396589
-0.016162
-0.0178523
0.000158605
-0.117194
-0.000355196
-0.000815998
0.207991
0.00538997
-0.0703324
0.0171271
0.177455
0.00853818
-0.000377752
-0.0977161
0.00664426
0.330176
0.00118184
-0.0410666
-0.000213393
-0.000521394
0.00516916
-0.0498228
-3.09448e-05
-0.0090701
0.0235086
-0.00181322
3.63047e-05
-4.64621e-05
0.127555
-0.0524914
0.00586401
-0.00103146
0.00742511
0.0139604
0.00720507
-0.000276994
0.282817
-0.089207
0.187794
0.232869
-0.000200086
-0.0732136
0.0696196
-0.000722592
-0.000251269
-0.000408419
-0.0341393
0.00894453
-0.0123681
-0.0186147
-0.0479811
0.140163
-0.0792083
1.1408e-05
-0.0157628
-0.0154454
-0.0276625
-0.00389349
0.00521749
0.00113893
0.0240865
-0.000482738
-0.000222887
-0.0142705
-0.00383347
-0.0199843
-1.50065e-05
-0.0121656
0.0284726
-0.0361169
-0.0354382
-0.00723515
-0.00970735
-0.00763203
-0.00461311
0.00374496
-0.00787776
-9.96318e-05
-0.000378427
0.0193448
-0.0100796
-0.00437496
0.00732851
0.00172277
-0.0863296
-0.00919592
0.130594
-0.0103621
-0.0402527
-0.0205008
-0.0183009
-0.0127256
-0.00334472
0.00199529
-0.00314021
-0.0114845
-0.013121
0.146079
0.1034
0.0335607
0.304978
-6.8261e-05
-0.00300916
-0.0133597
-0.00680604
0.0312314
-0.016365
0.0270751
-0.00389193
0.149936
-0.00174436
-0.00146605
0.00605316
-0.0173299
-0.000204547
-0.0189191
-0.00517944
-0.0167988
-1.95586e-05
-0.00582844
0.0017835
-0.0142807
0.0225328
0.0308639
0.016764
-0.0114697
-0.0248855
0.0960367
-0.00115618
-0.00175786
-0.00189244
0.461563
-8.38623e-05
0.0489132
-0.0170786
-0.0165132
-0.0209664
-0.0329776
-0.0227199
-0.0268769
-0.0149422
-0.0040647
-9.15669e-05
-0.0037819
-0.0175158
0.0810214
0.00151572
0.0510751
-0.0258752
-0.010906
-0.00082647
-0.0229389
-9.6266e-05
0.122789
-0.0238895
-0.020873
-0.0191284
-0.00360211
-0.0264501
-0.00150052
-0.0313781
0.0842024
-0.0205881
-0.05483
-0.00130943
-0.0214392
-0.0149852
0.0135818
-0.00287537
0.11827
-0.00213684
-0.0154807
-0.000612754
0.133745
-0.0302308
-0.0210237
-0.00288174
-0.00815485
-0.00245614
0.124596
-0.0093899
0.0888093
-0.00435004
-0.000738438
-0.00112951
-0.00207936
0.0662758
-0.0452678
-0.0059554
0.000306209
-0.00724827
-0.0132008
-0.000817947
-0.0141252
-0.0127986
0.0482082
-0.00435417
0.00273856
0.455779
-0.0459737
-0.0226922
-0.0432567
3.07919e-05
0.063021
-0.00313556
-0.0213093
-0.00492805
-0.027873
0.00354693
-0.000485749
-0.00257854
0.00292751
0.169375
-0.00511531
-0.00159849
-0.00408494
-0.0413313
-0.00718748
-0.0176887
0.00377787
-0.00752124
-0.00776493
-0.00290281
0.169879
-0.0352176
0.00286819
-0.00373809
-0.0218389
-0.0118369
-0.0375383
-0.00126107
0.0748215
0.019718
-0.00680488
-0.00154891
-0.0114818
0.473844
0.170856
-0.00962047
-0.000521768
-0.00212474
-0.000650655
-0.0035165
0.0181168
-0.00037745
-0.0155057
-0.00175646
-0.0139763
-0.155448
-0.000960034
-0.0103061
-0.00121118
0.278574
-0.00564448
-0.00994268
-0.0515642
-0.00172777
-0.023716
-0.0636701
0.410688
-0.00916167
-0.00970703
-0.00188756
-0.000422963
7.46012e-07
-3.7827e-06
-0.00867126
-0.000604627
0.0410038
-0.000606121
-0.00161888
0.0071837
-0.000234539
-0.0340816
-0.0473596
0.0151905
0.033926
0.0228556
-0.0599918
-0.0396408
0.0739469
0.0584807
0.0796088
0.101736
-0.0109147
-0.000764957
-0.00520877
-0.0520995
-0.00311539
-0.0125858
-0.0597676
0.263135
-0.0414468
-0.000436536
-2.86198e-05
-0.00131004
-7.98731e-07
0.0066193
-0.00050802
-0.00418337
-0.0363385
0.000487469
0.00229086
-0.000200034
0.038882
-0.0128357
-0.0484714
-0.00109463
0.287653
0.190349
-0.00861425
-0.063855
-0.022238
-0.019312
-0.0120789
-0.00167306
-0.0597268
-0.0297092
-0.0332048
-0.119374
-4.77117e-05
0.140333
-0.0169728
-0.00821433
-0.0276751
0.0162787
-0.000481183
-0.00720611
-0.00121417
0.00942688
-0.00138988
0.0963479
0.0003143
0.00889647
-0.000375773
-0.109855
0.00779748
-0.000695893
0.000817254
0.000364461
-0.0502116
0.0824242
0.000299155
-0.00128604
-0.000114978
-0.000520485
-0.000456655
-0.0450321
0.103575
-0.0463379
-0.000244781
0.00729277
-0.000415161
0.195484
-0.0445259
0.192329
-0.03301
-0.000407386
-0.000260871
-0.00631963
-0.00491978
-0.00057123
-1.69596e-05
0.0210919
0.0245334
-0.000215629
-0.000304192
-0.0161305
-2.03663e-05
0.140848
-0.000830619
-0.0394092
-0.0156137
-0.00549729
-0.0412677
-0.0454489
0.126772
-0.0214636
-0.0164829
-0.000286667
-0.0419255
-0.0168612
-0.0382721
0.00248531
0.307949
-0.00104593
-0.0438027
0.00869015
0.250552
0.0327884
-0.000109372
-0.0052424
-0.00356415
-0.00432285
-0.0357856
0.0637813
0.000158883
0.0103631
0.00256881
0.0445698
-0.000470496
-0.000112881
-0.0946504
0.221223
-0.0406697
0.0973317
-0.00114584
-0.000184584
-2.21213e-06
-0.0736053
-0.0316699
-0.000309004
0.0628694
0.00988925
-0.00466101
0.376235
-0.000357429
-0.00325249
-0.0438545
-0.026364
-0.00201727
0.112579
-0.0524719
-0.000151261
0.00757774
-0.000159543
-9.24553e-05
0.103858
-0.00372284
-0.000409769
-0.0381401
-0.0197426
-0.00306887
-0.0315562
0.00212078
-0.0184221
0.00144936
-0.00306754
-0.047372
-0.0292823
0.00898925
-0.000796856
0.122527
0.177267
-0.0851441
0.00783448
0.0165504
-0.00374373
0.140301
0.0714674
-0.0219769
-0.000148383
0.00816789
-0.0404831
0.0061876
-0.0224757
-0.00186734
0.0269078
-0.0220085
-0.000125237
-6.76589e-05
-0.0378884
-0.0214161
-0.0206409
0.00819328
-0.0323176
-0.0336994
-0.000140437
-0.00124459
-0.000189183
-0.0279959
-2.24016e-05
-0.00171153
-0.040753
-0.0785157
0.0191609
-0.00262212
0.00369162
-0.017359
-0.0202677
-0.000117719
-0.0344836
-0.00364491
0.132168
2.02992e-05
-0.000101679
0.134909
-0.00222332
-0.0679608
-0.0306382
0.00299051
0.000420926
-0.0483151
-0.0367643
0.138565
-0.0411579
-0.00130103
-0.00889094
-0.0402203
-0.000520707
-0.000218641
-0.000803916
-0.0364708
-0.0380421
0.0671435
-0.000191371
0.479158
-0.0729931
0.000101953
-0.000870971
0.000221949
0.000252974
-1.36254e-05
0.000122038
-0.0389524
-0.000646608
0.000383986
-0.000180363
0.117726
-0.00497136
-0.000175981
-4.16051e-05
0.298633
-0.0174366
-0.05903
0.000985663
-0.000650797
0.0384863
-9.00125e-05
-0.0116558
-0.134076
0.00191954
-0.00579093
-8.81624e-05
-0.000188465
-0.0243345
-0.0525694
0.00638858
-0.105369
-0.0602331
-2.58648e-05
0.0186209
0.028076
0.0904453
-0.00151578
-0.000142586
-0.0418925
-0.00526404
-0.000449784
-0.0368411
-0.000125226
0.0257831
-8.18502e-05
-0.00112456
-0.0865902
-0.00189813
-0.0430345
0.429544
-0.00146431
0.000242813
-0.0415755
-0.0434363
0.00793012
0.00418003
-0.00013724
-0.0245226
-7.71534e-05
0.167217
0.593669
0.018864
0.00267951
0.00317459
-1.75253e-05
-0.0222919
-5.30464e-05
-0.00671915
-0.00150085
0.000327109
-0.00293485
-0.00837365
-0.000111578
0.00076549
-0.00754165
-0.000281897
-0.00878804
-0.0135139
-0.0097526
-0.00103806
0.526138
-0.000623375
0.0021451
0.000215692
0.0122398
-0.0370105
0.00843592
-0.000160919
-9.07555e-05
0.00231129
-9.99561e-05
-2.74947e-05
-0.0100639
0.000615335
-2.21878e-05
-0.0381682
-0.00204876
-0.0411151
-0.00144994
-6.19385e-05
-0.00273272
-0.00950698
-0.012681
-0.0206589
0.00204335
0.000461714
-0.000416209
-0.00171293
-7.25635e-05
0.237536
0.00137312
-1.83103e-05
0.000510451
-0.00179004
-0.000321747
-0.0461876
-0.0402206
-0.000119041
-0.00598464
1.11553e-05
-0.00236836
-6.68079e-05
0.030393
-0.000127446
-0.000168383
-0.0031747
-2.19695e-05
0.0119143
-0.000203404
-0.00110961
0.0165609
1.00523e-05
0.338407
-0.0399645
-0.0318573
-2.332e-05
-1.93006e-05
0.00162705
-0.0010406
-0.0391331
-1.57935e-05
-2.4383e-06
0.000649848
-2.67542e-06
0.000333848
0.000395669
-0.000407702
0.000694591
-0.0390631
0.441992
-0.0280466
0.292955
0.00798411
-0.0142463
-1.71635e-05
-0.000775547
-0.0102339
0.000126462
0.000250232
0.00014929
0.013969
-0.00121547
-0.000196047
0.461136
-0.000482252
0.000512915
0.000442887
-4.24687e-06
-0.106131
-0.00191814
0.00100015
0.000110135
-0.000482202
-6.19342e-05
-0.000843241
-0.0335298
-0.000368945
-0.00143991
-1.28481e-06
-0.000672132
-0.000232164
0.163754
-0.000391102
-0.00024658
-0.0501184
0.00331968
-7.82203e-05
-0.0011685
-5.57373e-05
0.148127
-0.0530159
-0.000268775
-0.000342936
-0.00170742
-0.000141738
0.0456783
0.0817723
-0.00395539
0.0004457
-6.25475e-06
-8.20919e-07
0.0355471
0.000223244
-0.0447353
-0.0218871
-0.0132877
-0.158504
0.532882
0.00171518
0.14256
-0.012305
-0.0231431
0.150785
-0.00031638
-0.048033
-1.19372e-05
-0.00759432
-0.0366598
4.77223e-05
-0.0390663
-0.000831499
-0.0100184
-0.00488899
-0.0323744
-0.0323526
-0.00286443
-0.0461403
-0.0331421
-0.000166843
-0.0101518
-4.82299e-05
-0.028959
-2.54754e-05
-0.000166087
0.00711859
0.142797
-2.54822e-08
-0.0346197
0.00312077
6.55158e-05
-0.0174869
4.65578e-06
-0.0113271
-0.00023036
-0.0294566
0.000112423
-7.83186e-05
-0.00178521
-4.44569e-05
0.138851
-0.0241223
0.0240498
-2.82695e-05
0.000553055
-0.0254844
6.01934e-07
-0.042496
-0.0484555
-0.0412187
0.483863
-0.00550529
-1.60705e-05
0.0222734
-0.0318966
-0.00224944
-2.43272e-05
-7.67003e-05
-0.035702
0.000111889
0.000770264
-4.43341e-07
0.000139761
-0.0222344
-0.01848
-0.059037
0.0719898
-0.00454675
-9.6785e-07
0.0051652
-0.0405184
-1.88839e-05
-1.27808e-05
0.00028206
5.58278e-05
0.000356152
0.119014
0.0298866
4.86009e-05
9.05733e-06
-0.0479943
0.176351
0.149286
-4.06459e-05
-0.0282187
-0.0162184
-0.00904965
-0.0360746
-0.00743367
-0.00249413
0.12229
-3.7787e-05
-0.0210869
0.145773
-0.03703
-1.67503e-05
-0.0450008
-0.000155588
0.207069
0.0228527
-1.4245e-05
-2.51865e-05
0.153977
2.86887e-06
-0.000162556
-0.00979376
1.02094e-05
0.201069
0.00280803
-0.00621871
-0.046495
-0.00321535
-0.0588164
0.159996
-0.0117912
-0.0441033
0.000878317
-1.79972e-05
-0.000894816
-8.41296e-06
-1.50662e-05
0.014437
0.158996
0.130467
-0.00038621
0.221694
-0.0105223
6.05276e-06
-0.0344604
-1.69192e-05
-0.0222149
0.0238484
-0.0123397
0.00385929
0.00161979
-0.00776385
0.000218543
-0.00144448
0.0158511
-0.00244738
-4.37565e-05
2.52147e-05
-5.48251e-05
0.0272152
4.70264e-05
-0.0188639
0.234529
-0.00509701
4.36102e-05
-0.00295244
-1.00009e-05
-0.00899506
-0.000312872
-5.8387e-05
-7.54256e-05
-1.21276e-05
0.187102
-0.000135929
0.192388
-0.0458016
9.84672e-05
-0.0400125
-0.000427072
0.136835
0.475105
-0.00120652
1.96804e-06
1.29286e-05
-1.92582e-05
0.0955277
4.18968e-07
0.000910408
-0.0194169
0.183227
5.40617e-06
1.23115e-05
2.30495e-06
2.12459e-05
-0.0166532
1.4137e-06
0.174366
-0.0135198
-0.000108213
2.55843e-05
-0.00175806
-0.0224895
9.52711e-07
-5.02528e-05
0.145295
2.8917e-05
-0.0250849
-0.0482626
0.000115968
4.88223e-07
-0.109533
9.01137e-07
0.134942
1.25026e-05
-0.00038818
9.56035e-06
-0.000153498
0.0786427
2.35772e-06
-0.00140722
6.34628e-06
0.0099151
-0.00289358
-0.00537633
0.000551517
0.134041
-0.000236933
-7.14802e-05
-0.00738619
-0.00713373
-0.000211884
-4.86668e-05
-0.00077093
3.37803e-05
0.0859062
-0.00872514
0.463415
-1.0025e-06
-0.00638431
-0.000138315
0.100162
4.82545e-05
-0.0212516
1.98967e-05
-0.00135192
-0.0261334
-0.000201398
-0.0128517
-0.0375716
0.00429814
-9.07998e-06
-0.0443806
-0.000290179
-0.000259493
-0.00465463
-0.0134471
0.00109952
-4.52585e-05
-0.00037745
-0.000800514
-0.00109168
1.052e-05
-0.0010336
0.456652
8.3795e-05
-0.00276569
-0.0271407
-0.0522924
-0.0465746
-0.0361044
-0.0175181
-0.000460776
-0.0144975
6.55036e-05
-7.21196e-05
0.456501
-8.29515e-05
0.127085
-0.000390202
0.000346382
-0.000969099
-0.0637858
-0.000362003
0.000445875
-1.41865e-05
-0.000339944
-1.51172e-05
-7.03142e-05
-0.0120694
-9.69416e-05
-2.5563e-05
-7.31983e-05
0.000125521
-9.91036e-06
-0.0330316
0.133967
-9.11676e-06
-0.000520175
2.41516e-05
2.62332e-05
-0.000715745
7.57306e-06
-0.000775395
0.000245369
-0.00031755
-0.0469196
-0.000595478
-0.00156121
3.88639e-06
-0.00136629
0.000292815
-1.35924e-05
-9.12294e-06
1.13816e-05
-0.000682869
0.000469396
-0.0340798
-0.0219682
-0.0471491
0.000472469
-0.00162871
-0.0436797
-0.0474182
-8.28766e-05
0.0125253
0.00581115
-0.000898942
-0.00970439
-0.0411496
0.403517
-0.000361698
-1.37321e-05
0.000756972
4.17931e-05
1.50278e-05
0.0633894
0.00306321
0.0734927
-0.0300047
0.393675
-0.000452566
1.64592e-06
0.00013168
-1.65847e-05
-0.00116966
0.118263
0.195408
-5.35715e-06
-0.000149985
-1.61696e-05
0.183857
0.0113642
-0.00536028
1.00085e-05
1.64564e-05
0.00620098
-0.000599255
-0.0523117
-0.0135478
1.97358e-05
0.0029934
-0.024955
-5.31928e-05
0.00154248
-5.99081e-05
-0.0346168
-0.00147808
0.115476
1.40576e-05
0.00143815
-0.000191
1.25508e-05
0.00014976
-0.0183288
1.23443e-05
-0.000783094
1.8676e-05
-0.0157432
-0.0341147
-0.00268885
-0.0063618
-0.00704994
0.00776542
-0.00717429
-0.00207828
5.74448e-05
9.04727e-05
1.69876e-05
1.49072e-05
-4.97191e-05
0.00765047
-0.0440195
0.000428602
-0.0364098
-0.00258995
-0.0402606
7.47521e-05
-3.39266e-06
0.00112347
-0.10389
1.51222e-05
-0.0357162
-0.0120987
-0.103804
-0.0372569
2.24054e-05
-0.00289637
0.00016823
-0.139567
0.114076
8.73956e-06
-0.0445111
-0.0180229
-0.00354508
3.18243e-05
-7.9787e-06
0.0171764
-0.0132325
1.97238e-05
-0.00559903
-5.48864e-06
0.000187044
0.101673
-7.66302e-06
1.27289e-06
-7.63525e-05
2.9017e-05
0.000773093
7.51836e-05
-0.00436417
0.000202726
-0.0102042
0.00094848
-0.000180057
-0.0262322
-0.0327401
-0.00518447
-1.36176e-05
1.78207e-05
-0.0478341
0.00491302
-0.035803
2.34757e-05
-0.00427878
-3.24087e-05
2.02065e-05
0.0511153
-0.00574562
-0.00233247
-2.39997e-06
-0.0142607
4.19019e-05
-0.0489761
2.21652e-05
-0.0551326
1.49426e-05
-5.49117e-06
7.26137e-05
0.000880824
-0.0837532
-0.0143157
-0.0511238
1.2629e-05
8.12355e-05
-0.0559906
-0.0217097
-0.00686374
-4.70983e-06
-0.034612
-0.0386326
-0.0553246
1.77029e-06
-7.24925e-06
2.1707e-06
-0.0732835
-0.0500396
0.000621243
-0.00891738
-4.98341e-05
0.128446
8.12812e-05
1.11299e-05
0.000130203
-9.53843e-06
-8.00551e-06
-0.00301785
9.73549e-05
-0.00215134
-0.0482392
-0.0104821
-0.0421483
3.33101e-05
-4.50732e-05
0.0358829
-0.0459497
-0.00391795
0.0918162
2.03854e-06
-1.23062e-05
-1.12673e-05
0.0372132
0.000149723
-3.16565e-06
-5.0328e-06
-0.0470155
-0.0123332
3.31862e-06
6.57148e-05
-0.00752275
-0.00527076
0.000368669
0.196382
-0.0450567
0.000108748
0.602173
-1.7957e-05
-0.000590388
-0.00713014
-0.0543769
4.44552e-06
-3.8425e-06
1.80762e-05
0.00408385
-0.0267527
-0.000290087
-0.037205
-0.00628843
2.19781e-05
-4.24746e-06
-0.0081907
-0.00680487
-0.0297424
-0.0794988
-0.0340038
-0.0296667
-0.02613
-0.0214838
-5.5488e-05
0.000305866
-0.00176561
0.000458951
-7.06216e-05
0.000656481
2.49784e-05
-8.0783e-05
-0.00972413
-1.07985e-05
-2.57149e-05
0.0251376
-0.0300383
-0.000142041
-3.6602e-05
-5.52804e-06
0.217048
-0.00542732
0.000673158
-0.0221908
0.00019727
0.000171109
0.000148542
-4.30244e-05
0.000417092
-0.0292453
0.0121851
-8.23226e-06
-0.000143188
-0.0322977
-0.0255028
0.040623
-0.000420055
0.00156472
0.0150524
5.60456e-07
5.14324e-05
-0.0380931
1.8643e-05
0.14046
5.31307e-06
0.00357925
0.000144066
0.000192358
-0.0505031
-0.00598948
-0.0142381
-0.00200051
2.21201e-05
0.00515842
0.0508335
-0.00993305
-0.000117048
0.0780565
0.136416
2.5383e-06
-0.0389308
-5.8641e-05
-9.63021e-06
-3.92078e-05
-0.000484119
0.016695
-7.02681e-06
0.000212867
-0.0193974
-0.020155
-0.0173019
0.276457
1.3501e-05
-6.05064e-05
0.144872
-0.00705452
-0.003143
-0.00055644
0.142314
3.63863e-05
-0.000273192
3.77773e-05
2.09534e-05
2.63065e-05
3.00697e-05
6.26879e-05
-0.0139956
5.88721e-06
-0.00276677
-0.0335276
0.193979
-0.0001262
-4.35014e-05
0.00400861
0.0699958
-0.0379121
-0.000639327
-0.0509055
0.273773
3.63016e-05
0.367442
-4.26695e-06
0.0028357
0.0203624
0.000376463
0.402591
-1.46586e-05
-5.65498e-06
0.000986203
2.58591e-05
-0.000731475
0.000226174
8.16847e-06
-0.00163679
6.5191e-06
-0.000126167
-0.00273708
0.210551
0.0396433
0.0185216
-0.0328944
-4.74229e-06
-1.67221e-05
0.00287996
-0.0438565
-9.1083e-06
-0.0350371
-4.71333e-05
0.0853386
0.050979
-0.0260439
-0.00113555
-0.00988707
-0.000829694
-0.0118135
0.0027829
-0.00615151
0.051514
1.67338e-06
0.161488
0.00275094
-0.000512618
0.174674
-0.0107538
-1.10305e-05
1.86633e-05
5.63531e-05
-0.000180901
-0.000106703
0.215116
-0.000826983
0.219419
-0.000932258
0.14071
0.182481
0.0525504
-0.00575615
-5.29382e-06
5.30512e-05
-0.00854614
-0.09585
-0.0375515
0.00127377
1.54675e-05
-0.029087
-0.000280277
2.9793e-06
0.000865595
-0.000899447
-0.000570443
0.0274416
6.40498e-05
-0.036214
0.0460685
4.9074e-05
0.000230416
-0.0118337
-0.0454877
-0.000619425
-0.000442602
9.6508e-06
0.000214827
0.00734039
-0.0138318
-0.0373504
0.00111843
0.0423585
-0.0301874
2.93123e-05
1.82535e-05
0.00309649
-7.97378e-05
0.0351629
0.000318278
-0.0108593
-0.000327366
0.00138217
-0.0285772
-3.28986e-05
0.000422653
-0.00343141
-0.0544955
0.100672
-0.0458828
-0.0213751
-0.000145066
-3.99722e-05
0.00571537
3.8625e-05
-0.0543829
-0.0496799
0.000485781
0.00286852
0.00322061
-0.0793968
0.000550705
0.00016283
3.08468e-05
-0.0321834
2.33915e-05
0.000481472
0.101644
0.152867
-0.0942949
0.0409761
0.0395036
0.00521006
-0.000141054
0.0089578
0.000105562
7.19123e-06
-6.66252e-05
-6.25068e-07
1.90557e-05
-0.000304821
-0.00626154
-0.0537741
-0.00795584
-0.023656
0.0430542
0.036261
0.00346037
-0.0480463
0.000137748
0.00390706
0.00948264
-0.000331085
0.059624
-0.00108222
-0.00900005
0.00987307
0.00468303
0.000815575
-0.0033444
0.0342816
0.000702506
-0.0157776
-0.0133277
0.484829
-0.0199991
0.0649779
0.000809469
-0.0305773
0.00186448
8.5874e-05
-0.00213539
4.65256e-05
-0.00219408
-0.0203273
-6.09091e-05
-4.39969e-05
0.215829
-0.00274791
-0.0323146
-0.0150144
0.000172536
-0.00126452
-2.07127e-05
5.84153e-06
0.0299535
3.34931e-05
-0.00244609
0.0594163
0.00526988
0.000959891
0.0151968
-0.00475352
0.00353998
-0.0993872
0.000738137
-0.00368282
-0.0426804
-0.00073183
-0.00663584
0.000637048
0.000532347
0.000844666
0.0285093
-0.000277916
0.00479649
-0.0407783
-0.0166782
0.000262157
-0.0403237
-0.0121072
-0.0137311
8.67984e-05
0.00560866
-0.054155
-0.000711175
-0.00404113
-0.0374014
-0.000179913
-0.000982701
0.184279
-0.0181902
-3.62193e-05
0.00699126
-0.0396916
-0.000885283
0.167639
-0.00191719
0.000863971
0.0498012
-0.00119895
0.0070105
0.108104
4.70596e-05
0.000999471
0.000151862
2.88659e-05
-0.00373149
-0.00613569
-0.0001198
-0.0192583
0.0780432
-0.0287503
-0.0563486
0.000990754
-0.00272363
-0.000535004
-0.0441065
2.11704e-05
0.0128784
3.51889e-05
-0.0127866
-0.00163083
-0.00411167
-0.134078
0.0883489
-0.0606552
-4.6558e-05
0.149321
-0.00166573
-0.00225588
-0.0442896
-0.0641579
-0.0126931
-2.63937e-05
-0.000980477
0.00612874
-0.00257724
-0.00391773
0.000366282
0.0703851
-0.0349545
-0.0090709
-0.00549042
0.0152216
-0.00259404
-0.0013029
0.0014507
-4.17652e-05
-0.00257134
0.0878205
0.000672167
-0.107862
-5.1827e-05
-0.00601854
-0.00318483
-0.069425
-0.00941383
-0.0816735
-5.61673e-05
-5.45445e-05
-0.00406282
0.00896322
0.00151864
-0.0944144
0.0646412
-0.0375918
0.000159811
-0.105526
1.76647e-06
-0.112661
-0.0202991
-0.140948
-0.154069
-0.166072
-0.180002
-0.194026
-0.1909
-0.180711
-0.157894
-0.14002
-0.0310676
0.00909091
0.054861
0.133321
-0.00659575
-0.00611053
0.0402225
-0.0158426
0.000761663
0.010111
-0.0315715
0.000429033
-0.000594364
-2.60185e-06
-0.0116467
0.0149941
3.68965e-05
-0.000282923
-0.00852843
-0.00719626
-0.13363
-0.0120497
-0.0427591
-7.29583e-06
0.000482677
-4.54589e-05
-0.046203
-0.00725914
-0.0289175
-0.00962022
0.00145999
0.00018416
0.00399988
-2.87975e-05
-0.0135488
-1.57538e-05
0.000317101
-0.00577093
-0.00932668
-0.000264203
0.000279472
0.0409048
-0.008516
0.0454724
-0.122261
-0.00758638
-0.0749836
-0.0150702
0.00312005
-0.0172575