/*--------------------------------*- C++ -*----------------------------------*\
  =========                 |
  \\      /  F ield         | OpenFOAM: The Open Source CFD Toolbox
   \\    /   O peration     | Website:  https://openfoam.org
    \\  /    A nd           | Version:  7
     \\/     M anipulation  |
\*---------------------------------------------------------------------------*/
FoamFile
{
    version     2.0;
    format      ascii;
    class       volScalarField;
    location    "13.5";
    object      p;
}
// * * * * * * * * * * * * * * * * * * * * * * * * * * * * * * * * * * * * * //

dimensions      [0 2 -2 0 0 0 0];

internalField   nonuniform List<scalar> 
20933
(
-0.00193556
-0.0170478
0.0217551
-2.14022e-05
-0.00238073
-0.0029514
-0.0859437
0.599969
-0.0392285
0.587254
-0.0711201
0.447069
-0.0345768
-0.00190447
-0.0035574
-2.518e-05
0.0972206
0.373564
-0.0644394
-0.015962
-0.0330158
0.459275
0.591501
-0.0705254
0.0190977
0.910019
0.00522445
-0.0287058
-0.0746905
-0.0646264
-0.00117719
1.031
0.582999
-0.0173135
-0.000519298
-0.00125058
0.654497
1.86851e-06
0.00653221
0.328104
0.0383679
0.696881
0.76198
0.00448399
0.909661
-0.0419302
0.519222
0.265863
-7.58828e-05
-0.0384288
-0.000613061
0.0966493
0.00517128
-0.000958009
-0.0056019
-0.0448217
-0.0282412
-0.00150387
-0.0114403
0.108388
0.952096
-0.0326796
-0.00875348
0.551991
-0.00017181
-0.00560047
0.889298
-0.00610764
0.0673366
0.901558
0.0215614
0.0581847
-0.00323199
-0.0272879
0.89199
0.0197083
0.892221
-0.0496916
0.323522
0.838557
-0.00476727
5.60108e-06
-0.0799321
-0.0357667
-0.0322028
0.766739
-0.0290425
1.10924
0.550556
0.945062
0.488827
-1.89935e-05
-9.28776e-05
1.08093
0.243286
-0.00802157
1.08995
-0.00161481
-0.0581636
0.629855
0.953353
-0.0215964
0.967755
0.0359144
0.175227
0.0444801
0.847233
0.0655599
-0.0220868
0.816125
-0.0811896
-0.0880812
-0.0252676
0.0244588
0.0294082
-1.18588e-05
0.750227
-0.00433378
0.00915072
0.828312
-2.43037e-05
-0.0299842
0.370628
-0.0161591
-0.0172346
0.37667
0.539062
-0.0278156
1.04219
0.764771
-0.0366805
-0.0373592
0.0385378
0.00665666
0.852267
0.158543
0.326244
-0.0334429
-0.0170773
-0.0542164
-0.0357115
-0.0297361
0.0305885
0.978741
0.207811
0.860002
0.61458
-0.0266015
0.507564
0.00594421
-0.0262083
0.893176
-7.34053e-05
-0.0314092
4.86086e-05
0.624612
0.778922
-0.0752823
-0.0482331
-0.036661
-0.0158076
-0.0760722
-0.00139432
0.224031
0.267049
1.1016
-0.0202353
-0.0754016
0.0153659
0.644513
0.31158
0.913466
0.794941
-0.0180496
1.14165
0.570783
-0.00198616
0.936326
0.0375773
0.84044
0.873074
1.42858e-05
0.97491
0.783443
-0.0151077
-0.0520758
0.0231605
0.606354
0.0267459
1.04161
0.534726
0.120952
0.642654
0.0782487
-0.0485443
0.405879
0.971304
0.203578
-0.015249
1.05145
0.301548
0.0288324
0.0194044
1.02559
0.99041
-0.0359117
-0.0149335
0.0988004
-0.0442297
-0.000825508
0.883465
0.930397
-0.0282456
-0.0472456
0.829658
0.891369
-0.00359409
0.827935
0.0778541
0.00837008
-0.0214612
0.797702
1.00377
0.493228
0.809761
-0.0186295
-0.0126105
-6.84218e-06
-0.0027421
-0.00184024
0.3634
0.0110957
0.837614
-0.051471
0.78331
-0.026978
0.0465528
0.907571
1.09909
0.788422
0.885133
-0.0474374
0.686819
-0.0138975
0.191705
-0.00408045
-0.0120024
0.130828
0.10161
-5.81578e-05
-0.0215359
1.01212
0.388123
0.00500969
-0.0451914
0.012393
-0.0881493
0.705107
-0.0507382
-0.0398883
-0.031902
-0.014979
-0.00026018
-0.02662
-0.0710746
0.977199
0.191457
-0.0232214
0.790838
0.98655
-0.0286752
1.62706e-05
-0.0337098
0.888353
-0.0512856
0.947587
-2.4175e-05
-0.0479181
0.81635
0.872152
-0.0089953
-0.0259811
1.03727
0.0601464
0.115197
0.961544
1.03617
-0.0314514
0.82673
0.258443
0.831857
0.719683
2.54698e-05
0.182174
0.657399
-0.0021401
-0.06204
0.231379
-0.101449
0.291775
0.174652
-3.99777e-05
-0.00116977
0.946828
-0.00308335
-0.0724398
-0.0389002
0.463253
-0.0300099
0.839085
0.26824
-0.0348509
-0.0518878
0.622759
0.423368
-4.59618e-05
0.939586
0.771487
0.928464
0.0125767
-0.000190537
1.03132
-0.00320074
-0.0247487
0.406476
0.211388
-0.034693
0.0417609
0.782802
1.0788
0.872664
0.320531
1.15134
-9.73617e-06
-0.0165237
0.873018
-0.0430498
0.651633
-0.0251009
0.901607
0.245494
-0.000858377
0.238276
0.744778
-0.0522352
0.969668
0.762471
-0.00026018
0.0283016
0.575039
0.393968
-0.00270836
0.78672
-0.00816867
1.13106
-0.0369668
-0.0279373
-0.020665
0.869599
0.773913
-0.0337266
0.618869
0.943157
-0.00321263
0.702791
0.760531
1.1421
-0.00260875
0.478273
0.121705
-0.0484971
-8.73759e-05
0.899734
0.702815
0.170261
0.923313
0.340007
-0.0289434
0.675824
0.271697
0.393197
1.13134
-0.0254978
0.370998
0.926681
-0.0464145
0.219149
-0.055622
0.559606
-0.0271059
0.498538
0.177929
0.359155
-0.000650167
0.525985
0.921045
0.719907
-0.0856075
-0.0134048
1.01636
1.02329
-0.00366538
-0.0455997
0.83434
-0.0687073
0.0349729
0.703609
-0.0218922
1.17437
-0.00134842
0.510217
-0.00908578
0.926489
0.753431
0.107526
0.0332121
0.125046
0.307159
-0.00159935
0.831893
0.0616979
0.565058
1.12116
0.0142146
0.0241373
-0.00221139
0.279311
0.185932
-0.0257733
0.72382
-0.00042097
-0.0351867
0.00768041
0.0738063
-0.0246377
-8.60221e-05
-0.0347606
0.391365
-0.0665439
0.00787182
-0.0379699
0.241528
0.186314
-0.0398389
-0.0480023
-0.000934377
0.0682542
-0.071276
0.00701777
-0.0028042
0.426905
0.71033
0.239006
-0.000250569
1.05441
0.00721611
-0.000473367
0.0351326
-0.0424831
-0.0331909
0.983502
-0.00182967
0.264919
-0.0589273
-0.0651443
0.689344
-0.0237121
-0.040738
-0.0577595
-9.69392e-05
0.0463231
1.07095
-0.0813397
-0.0501274
0.719145
-0.0353484
0.714555
0.51441
-0.00361669
-0.000745624
0.774281
1.10858
-0.0906013
0.594507
0.37937
-0.0414373
-0.0424904
0.833051
0.15408
-0.0735424
-0.0484208
-0.0326338
0.065753
1.01684
0.32757
-1.65586e-05
0.970287
0.00345855
-0.0354237
0.805746
0.00811596
-0.00944932
-0.000310988
0.0923824
-0.0329021
-9.32898e-06
0.588898
-0.0434791
0.836865
-0.000229302
-0.00110994
-0.0368136
-9.29841e-06
-0.0950322
-0.0635768
-0.00146509
-0.0273259
-0.0520438
0.792619
0.929874
-0.00300873
0.00112779
-0.0517499
0.936341
-0.00772929
0.936245
-0.0163926
1.12739
0.72132
0.492436
1.0872
0.0783314
-0.00727416
0.120621
-0.00417462
0.920077
0.827333
-0.0254318
-0.00216339
0.189439
0.0131016
-0.00608372
-0.0195808
-1.64152e-05
0.798949
-0.0510506
-0.0344625
-0.0132627
-0.0198493
0.510517
0.254131
-0.00314769
0.00262386
-3.58645e-05
1.12755
1.00778
-0.00314839
-0.024743
0.0198903
0.825047
-0.0527639
0.383153
-0.0470235
0.88179
0.492652
-0.034569
1.16616
0.0565026
0.864132
-0.0093136
-0.0764481
0.966531
-0.0032929
1.11771
0.807877
1.14034
-0.00692307
-0.0102546
-0.0267945
0.146103
0.00733513
-0.0203329
0.865159
0.891898
0.713797
0.928405
1.10709
0.586591
0.921718
0.719117
-0.00123128
0.7842
-0.0404013
-0.0458146
-0.000931015
0.00804454
-0.0453257
0.609705
0.122218
0.837957
-0.013724
0.228411
0.810684
-0.00315102
0.0291934
-4.49884e-05
-1.05357e-05
0.607311
-0.0373605
-0.0399141
-1.19877e-05
-0.000730492
0.174502
-0.000204321
0.23664
1.13342
0.610499
0.565369
-0.0290833
0.830582
0.29476
-0.00640277
-0.0244938
-0.00240532
-0.000314165
-0.000379076
-0.0130579
-0.0688899
0.633605
0.131792
-0.044489
-1.53156e-05
0.869891
0.127022
0.03493
-0.00174129
0.336975
0.00153319
-0.0426284
0.811819
1.0545
0.771435
-0.0285302
0.779028
-0.0304742
-0.0299024
0.6331
-2.26417e-05
-0.0183654
0.489848
0.576594
-0.0335859
0.815059
0.996667
0.794341
-0.0441966
-0.0490986
0.0170943
0.280807
0.761103
-0.00297484
0.961714
-0.0253383
-0.0750113
0.133628
1.06516
0.639571
0.835548
-0.0610235
1.10712
-0.0314604
-0.0283644
1.15169
0.0929235
-0.0550127
0.85356
0.882043
-0.0332766
0.753502
0.936989
0.875328
0.821271
0.86434
0.733851
-0.0113456
-0.0310574
-0.000200809
-0.0685592
0.919762
-0.0644752
0.438188
0.423528
-0.0419772
0.245058
0.490917
0.934662
0.2436
-0.00118311
0.0731414
-0.0332468
0.0620866
0.0491616
-0.0710245
0.813324
0.962503
0.182314
0.928724
1.11454
-0.00228066
0.00131171
-0.00383614
-0.0236835
0.676328
1.13022
0.33816
0.832753
-0.0221563
0.748019
0.766233
-0.0155068
-0.0386997
-0.0532939
0.435811
-0.0063299
0.146216
-0.0394722
-0.0525997
0.841613
-0.00589364
-0.00310574
0.884261
0.234282
1.03652
-0.0340276
0.708329
0.0473788
-0.0345552
0.957829
1.04751
0.918821
-0.0169262
1.05001
-0.0411406
0.9532
0.0943599
0.914247
-0.0337476
-5.13142e-05
0.916745
0.958169
0.952477
0.917569
0.603873
0.228728
0.692134
-0.0547837
0.917172
0.808979
0.130214
0.127319
-0.0111316
0.084568
0.82616
-0.0485332
-0.033083
0.936273
0.927394
-0.0338917
0.905647
-0.0798926
0.319042
-0.0116204
0.941816
0.956622
1.11542
0.945839
-0.00245732
-0.0230526
-0.00101362
-0.0394767
1.03041
0.543208
0.813719
-0.051041
0.722402
0.0234692
1.03393
0.00994478
0.932273
-0.0108471
1.01035
1.05268
-0.0245891
0.338762
1.00484
-0.00245516
1.07078
0.00541016
-0.00300002
-0.0394434
0.86982
0.465273
-0.051259
0.916104
1.06896
0.760518
0.0603487
-0.0317593
0.105203
0.925538
1.04981
1.14642
0.526444
-0.00252994
-0.0307378
0.823159
-0.000976705
-0.012476
-0.00103046
-0.0155428
-0.0468968
-0.0369826
0.97799
-0.00205761
-0.000764217
0.792779
0.526441
-0.00247858
0.389303
0.000382324
0.451545
0.799733
0.911844
-0.0423295
0.369432
-0.00875002
0.029574
-0.00332364
0.933645
0.983113
-0.0522087
-0.0610644
-0.063631
-0.0191122
0.92135
-0.00860251
-0.0292377
-0.0697954
0.0439819
1.09165
-0.0656197
0.196962
0.938196
-0.00648984
0.281361
-0.000107561
-0.0585235
-0.00289148
-0.00108609
1.08577
0.699111
-0.0590373
0.140864
0.725759
0.895361
0.805115
0.0396135
-0.0342765
-0.0233745
-0.0307327
0.773853
-0.029542
-0.0291093
-6.1645e-05
-0.0295606
-0.00127146
-0.0497006
0.876665
-0.0550445
0.934689
0.917723
-0.044674
-0.0215407
1.10843
0.740444
0.156393
-0.023828
0.742246
-0.0296144
0.664045
1.08675
0.6834
-0.0276735
-0.0263436
0.852872
-0.0424905
-0.0571188
-0.0314334
0.99487
-0.032154
0.112327
0.72801
0.607931
0.785357
-0.0052324
0.655201
-0.0173681
0.934933
-0.0748909
0.476306
-0.0237288
-0.0293691
-0.000831644
-0.00139186
0.000180668
0.999612
-0.0371025
0.710762
0.303298
0.00915078
-0.0437609
0.559542
1.12088
1.02
-0.0107316
0.527395
0.0075568
0.261996
-0.0310951
0.413813
-0.0475403
-0.00109557
0.760569
-0.040183
0.00976507
0.986406
0.844849
0.953923
0.063291
0.0677765
-0.0160999
0.543001
0.0559003
-1.75479e-05
1.00526
0.356848
0.510309
0.14507
-4.25828e-05
-0.0114572
0.000409663
0.492531
-0.000338146
-0.0226505
0.00156066
-0.0318729
1.02783
-8.69687e-07
-0.0367527
-0.0476185
1.06317
0.0167457
-1.60702e-05
-0.0443952
0.358729
0.79625
-0.0219025
-0.0190438
-0.0131999
0.811038
-0.0246253
0.511264
-0.0265086
-0.0405639
0.28308
0.792578
0.252303
0.526246
-0.00308273
0.843334
1.06001
-0.0169999
0.705086
-0.0459569
1.07864
1.04412
-0.0439669
0.273683
0.237145
0.699008
-0.000274224
0.91548
1.14146
-0.00631274
0.444927
0.619057
-0.000548196
9.28461e-05
-0.021173
1.11948
-0.0111898
-0.0361859
0.926498
-0.000967386
0.68763
0.947264
-0.0295713
1.01014
-0.0357038
-0.0220456
0.950692
0.528675
0.784128
-0.00326972
0.955815
0.4961
0.910951
-0.0594599
-0.00918194
0.448882
1.00493
0.951099
1.01796
0.925823
0.0688995
-0.0398052
0.166369
0.729896
0.912672
1.05921
-0.0385085
0.59151
1.08282
0.874749
-0.000460533
-0.0474527
-0.0224683
0.412117
0.0250828
0.985099
0.532328
0.909247
0.295659
0.042004
0.914226
0.0966112
0.740751
-0.0325996
0.230864
-0.0111044
-0.0328465
-0.0525429
1.05705
-0.0498424
-0.031078
0.0724694
0.472697
0.272063
-0.0304616
0.179324
0.0261622
-0.0508079
0.767638
0.465079
0.823523
-0.034049
0.945932
-0.0434524
-0.000411074
-0.0117278
0.00596594
-0.0499979
-0.0478347
0.00143907
0.627812
1.02222
0.45784
0.214983
-0.0122887
-0.0544088
0.69799
-0.00182411
1.08045
0.63857
0.0076517
-0.0282083
0.0959764
-0.0169913
-0.0204208
-0.0105352
0.0554767
-0.0617843
0.613215
1.03893
0.968721
0.570291
-0.00436053
-0.0357825
-0.00175208
-0.0130748
0.777193
-0.0110672
0.752855
-0.0422164
-0.0196684
1.02963
1.04798
-0.000412185
0.923255
0.965326
0.394609
0.00486424
0.453508
0.772093
1.04509
0.671407
-0.030369
1.02588
0.249084
-0.0262705
-0.0336507
-0.0359961
1.06463
0.005417
0.937183
0.648066
1.01709
0.020078
0.691634
0.730999
-0.0490215
0.951923
0.0918509
0.997016
7.98422e-05
0.678917
0.745921
0.756354
-0.00121195
0.142236
-0.00345314
-0.0395249
0.633026
-0.0241962
0.710426
0.696027
1.11982
0.0315684
1.00223
0.0216059
0.0181903
0.211232
0.921726
0.32636
0.092905
0.207607
0.825568
-0.0024777
1.10321
0.000426253
0.054108
0.307344
-0.0272281
0.929952
-0.0295917
0.972489
0.804721
0.376733
0.153881
0.443839
-0.000713195
0.131179
0.992679
-0.0390398
0.059297
0.663168
0.260449
0.0790841
0.159949
-0.0174856
1.02931
-0.0325862
0.201844
0.0541411
-0.0484594
0.908517
1.13004
-0.0368794
-0.0579643
0.00550837
0.270392
-0.000211281
0.380141
1.04953
1.01398
0.0190418
0.43673
-0.000219381
-0.0447001
0.852308
0.00403369
0.53047
-0.0289975
1.10008
0.835081
-0.0645347
0.00353806
-0.0250645
1.10273
-0.0366715
-0.00180222
-0.0210131
0.386767
-0.0483327
-0.0257019
0.354802
1.03337
-0.0731233
1.07408
1.14784
-0.0260152
0.0511892
-0.000215023
-0.00370561
0.00875748
-0.0341511
1.09465
-0.0249556
-0.00534833
0.751617
-0.0524375
0.813653
-0.00903414
0.138549
0.816799
0.758294
-0.067722
-0.0202317
-0.0557619
0.878598
-0.0356962
0.554061
-0.041627
-0.0146007
-0.042687
-0.00684245
-0.00567155
-0.0715922
-0.0642537
0.029516
0.0121949
0.343444
-0.0027943
-0.0385171
-0.0520015
-0.0259584
-0.0109461
1.02806
0.134045
-0.0282021
-0.00356453
0.861233
-0.00204191
0.769691
0.0412561
0.215942
-0.0102001
0.809359
0.559067
-0.0481914
-0.0186681
-0.0243593
0.682261
-0.000340853
0.754169
0.875632
0.000880452
0.0194768
0.357485
0.320249
-0.0435395
0.420891
0.838798
-0.0263103
0.725885
-0.0480159
0.0493067
0.703473
1.04908
0.111805
-0.000209986
0.908168
0.741295
-0.0303071
-0.0423978
-0.086653
0.05015
-0.0281313
-0.00916382
0.853976
-0.0704504
0.0032065
0.857881
-0.0177532
-0.0348904
0.597248
-0.00498954
0.429023
0.749202
0.0961317
0.77003
-0.017552
1.01507
-0.0353863
-0.000383918
-1.27596e-05
0.179977
-0.000365505
-0.0203331
0.437923
0.00579778
-0.00157213
-0.0289689
-0.0228625
0.527573
0.930985
-0.000652798
-0.0217278
0.0139489
0.718224
-0.0604442
-0.0246403
-0.0299114
0.219869
0.601792
-0.0130934
-0.0138312
0.0379148
0.806055
0.862686
0.406556
0.763486
0.961685
-0.00705883
0.720645
0.321191
0.114527
-0.0273695
0.0663298
1.14635
0.00186209
-0.0335051
-0.0443349
0.806837
-0.0167737
-0.00154883
-0.041536
-0.0474631
-0.00501489
0.933003
0.636772
0.744357
0.86779
0.766894
-0.0205019
0.393414
0.639965
0.177001
0.914239
0.511034
0.661807
-1.31987e-05
0.659736
-0.0364306
0.49466
0.670143
-0.0696795
0.26122
0.24734
-0.0276319
-0.0106748
0.209206
0.477218
1.04476
0.517814
-0.000101825
0.589664
-0.0227956
0.679267
0.542807
-0.0175234
-0.0307783
0.722718
0.930039
0.358568
-0.0535791
-0.0315496
0.475108
0.728335
-0.0419859
0.844159
-0.0318206
0.417274
0.0811715
0.986721
-0.00122159
0.000816456
-0.00698077
-0.0328142
0.0213896
-0.0232426
0.748007
0.863574
0.00836169
0.589728
0.00951591
-0.0183085
1.67367e-06
0.512076
-0.00897597
0.61941
-2.39756e-05
0.742088
-0.0452527
0.828258
0.0151048
0.882899
-0.0461123
-0.0157737
-0.00060614
0.939865
-0.0418116
0.268683
0.399727
0.0129578
0.819639
-0.0157081
0.00319191
-0.0341794
-0.00592045
0.937447
-0.00747316
-0.0329509
-0.0249452
-6.5476e-05
-0.0208721
0.83776
0.000230819
-0.0495909
-0.000861276
-0.00290746
0.784277
0.0136048
0.209346
-0.0219717
-0.000193535
-0.0100262
0.0966156
-0.0349765
0.000692026
-0.0166546
0.533559
-0.000232542
-0.0301841
0.0811124
0.405235
0.913648
-0.0214871
0.00527589
-0.0483555
-0.0253706
0.777441
0.852448
0.943781
-3.01236e-05
0.47611
-0.0404569
-0.0377061
0.643414
-0.0291443
-0.0174356
-0.0212147
-0.0108033
-0.0286215
-0.0266847
-0.0203477
0.00012255
0.0338412
0.734634
0.0150948
0.58254
0.211579
0.143537
0.490531
0.345549
0.65743
0.0719749
0.748102
-0.000497504
-0.0160942
0.70699
-0.0527847
0.773536
0.743828
-0.0280303
-0.0471997
-0.000166024
-0.0359275
0.156356
-0.0256773
-0.0263402
-0.0293004
-0.0231434
-0.0426388
-0.0338629
-0.0200315
-0.0106013
-0.0544341
0.658823
-0.0396639
-0.00372629
-0.0477978
-0.000616748
-0.0457602
0.846784
0.819707
0.510079
0.987959
0.00176398
0.0313836
-0.0366092
0.000177901
-0.00617739
-0.000251661
-6.26707e-06
0.494792
0.361838
-0.000279801
-0.0326153
0.292986
0.480284
-0.0438455
-0.0256706
0.0026679
-0.00607744
0.000958597
-0.00184289
-0.044762
-0.0294586
1.01735
0.000683369
-0.0274475
-0.0301322
-0.0367972
-0.0193562
-0.0284822
-0.000160894
-0.0205062
-0.0268212
-0.0414106
-0.0389319
0.30476
-0.0236759
0.589437
-0.0362454
-0.00421768
0.0407253
0.770108
0.801742
0.636465
0.0437216
-0.031145
-0.0108737
-0.0166563
-0.0386573
-0.0250179
-0.0458691
-0.0285458
-0.0105852
-0.00818553
-6.61198e-05
0.197287
-0.00872824
-0.000691302
-0.00352595
1.04871
-0.0334498
-0.0666056
0.998779
1.02471
-0.0287045
1.00948
0.963141
0.791852
-0.0024721
-0.0354609
1.02819
-0.00106308
-0.000996576
-0.00310904
-0.0326929
-0.012744
0.0108971
-0.0312447
-0.0381481
-0.0368133
-0.0133798
-0.000127679
-0.0427054
-0.0140036
1.11045
-0.0306973
-0.0223483
1.1096
-0.00789651
1.06786
1.00914
0.736694
-0.0248883
1.10813
0.259107
0.888625
0.0301609
-0.000550119
-0.00572935
-0.00262
0.144151
0.925103
-0.00355553
-0.000181942
-0.0340133
-0.000363007
-0.0622472
0.474577
-0.000281947
0.767317
-0.0425978
-0.00800497
-0.0423592
-0.025855
0.418688
-0.00867502
1.01854
0.000981699
0.958351
0.0105781
-0.0375242
-1.63106e-05
-0.0483684
-0.0102581
-0.0453989
0.870817
0.918707
-5.39395e-05
1.02335
-0.0397377
-0.00087076
-0.0207303
0.966652
-0.0848368
-0.00104548
-0.000937423
-7.16234e-05
-0.000365876
-0.000201382
-0.00195162
1.03715
-0.000510427
-0.00425209
-0.00383344
1.07903
1.15083
-0.00834492
-0.0453225
0.785967
1.1063
-0.045241
-0.0344951
-8.61123e-05
0.0561423
0.942052
0.768667
-0.000137598
-0.0270145
-0.043203
0.979451
-0.0707555
-0.0207546
-0.0197803
-0.0179876
-0.0145586
0.81617
-0.000176794
0.998966
-0.00468404
1.06302
-0.00242347
1.01402
-0.0245922
0.199621
-0.0202627
-1.48937e-05
0.00038386
-0.0129698
-0.0256648
-0.0117576
-0.000165454
0.000433507
-0.00440902
-0.0409851
-0.000209992
-0.0225165
-0.0215906
-2.42062e-05
0.257225
-0.000725106
0.766202
-0.0354404
-0.00916556
0.00121973
-0.0747001
1.09128
-0.0193827
-0.0148781
-0.0154771
-0.0480895
-0.0277514
0.745835
0.805712
0.00821298
-0.0224649
0.00457894
0.296925
0.998538
-0.0465365
0.729247
0.837028
-6.39682e-05
-0.0493975
-0.0289703
0.000909357
-0.000958985
-0.00129428
0.000651603
-0.010921
-0.011965
0.0131374
-0.0237095
0.0355393
0.546112
-0.0345924
0.767649
0.352712
-0.0738047
-3.36573e-05
0.000301736
0.931726
-0.00258206
-0.0457742
-0.00105281
-0.0438718
-0.0216055
0.622603
0.169824
1.03817
-0.000170986
-0.000429881
-0.0390855
0.587905
0.00398444
0.996485
0.361131
-0.0315772
-0.0183581
-0.0490942
0.024488
0.739048
0.105083
0.939492
-0.0496184
-0.00049657
-0.00375186
-0.0187722
-2.86764e-05
-0.00110655
-0.00534396
-0.0206054
0.01079
-0.0445541
-0.000174387
-0.0460726
-0.054648
-3.0251e-05
-0.000170816
0.00385431
0.000164691
-0.000663507
-0.00767982
0.071763
0.00043308
0.159692
-0.0189972
0.7805
-0.0390717
-0.0464314
-4.39274e-05
-0.0449738
-0.0468002
-0.00757602
-0.0113487
-9.27363e-07
-0.00991437
-0.00023341
-0.0425083
0.174384
0.333188
-0.0888135
-0.000196888
0.143051
-0.0502783
0.834915
0.673073
0.802207
-0.00251774
-0.00752142
-0.000768204
-0.00959937
0.962677
0.747519
-0.00425755
-0.00505786
0.570657
0.746034
1.04121
-0.000269485
-0.00552105
-0.0159445
-9.06035e-05
-0.000302044
-0.000168744
-0.00149403
-0.00458963
0.778898
-0.013097
-0.000661975
0.0112908
0.000112465
0.160548
0.00622388
0.605672
0.000281366
0.369997
-0.0457376
-0.0451207
0.453347
0.374994
-0.000160599
0.450425
0.994737
-0.0465168
0.798951
-0.0452574
-0.00851889
0.85479
-0.00307727
0.770061
-0.00396976
0.0228108
-0.0349215
-0.0104666
-0.0229554
3.54259e-05
-0.000618125
0.0636549
2.47888e-05
-0.0194378
-0.0399647
1.00604
0.0129737
0.00322263
0.763829
-1.01471e-05
-5.93245e-05
0.0115819
-0.00216584
0.988258
-0.00279513
-2.61256e-05
-0.0243406
0.303218
-0.0283759
0.000700769
-0.000149967
0.260222
0.0101728
-7.85494e-05
0.915949
1.07409
-0.000263633
0.101798
-0.00152376
0.812419
-0.00090408
-0.00449703
-0.000211933
5.89392e-06
-0.0340633
0.00354831
0.000516825
-0.080748
-0.00180169
-0.0204151
-0.000100154
-0.000761573
0.0134055
0.862876
0.902152
0.00945286
0.741823
0.20319
-3.16494e-05
0.75119
-0.0102412
0.0012264
0.00361578
0.0799376
-0.000843449
0.0559103
-0.00191232
-0.0230061
0.475867
-0.0262483
-0.0205934
0.391937
0.631039
0.366718
-2.86795e-05
-4.62553e-06
-0.0224321
0.568451
-0.0083855
-0.0681943
-0.000468806
0.744761
-0.0136743
0.862969
0.66619
-0.019625
0.407289
-0.00120828
0.771715
0.157149
-0.0439142
-0.00037078
0.000579433
-0.0175769
-0.0206988
-0.0151923
-0.025233
0.333216
-0.0108009
0.575097
-0.000439483
0.00461631
-0.000966299
0.295995
0.0468778
0.00180128
-7.8155e-05
0.0396031
0.542233
-0.0303331
0.0333643
0.0286275
0.217523
0.0242997
-0.0010502
0.00014618
0.836807
0.890015
0.923833
-0.000182965
0.893141
0.820456
0.898717
-0.00363516
-0.000382634
-9.06559e-05
0.611516
0.694575
-0.0663884
-0.0498854
-0.0355213
-0.0192311
0.239589
-0.0179558
-0.00916907
0.725088
0.000892747
-0.0161258
-3.74759e-05
-0.020825
0.897628
-0.0365102
-0.000576651
9.8295e-06
0.967892
0.82004
0.125829
0.544088
-0.0167148
0.105197
-0.0201178
0.0847915
0.0658063
0.052243
0.517524
-0.0245975
0.331827
-0.000310053
0.87493
-0.0160225
-0.00952348
0.800941
0.0336704
-0.0180029
-0.0387552
0.0905468
0.381564
0.00812718
-9.33948e-05
0.729392
0.000137124
-0.0202805
0.189497
-0.00068333
-0.00643526
0.000833955
-0.0433807
-0.0316708
0.164719
-0.000607048
0.141651
-0.0225944
0.122103
0.104299
-0.0156937
-0.0261706
0.0894041
-0.0380359
-0.0190835
-0.015831
0.629605
-0.0219808
-0.00881219
-0.000215129
-0.0345644
-0.0549738
-0.000329187
0.644396
0.858806
-0.0375616
-0.0276883
-0.0180957
-0.0102164
-0.000373032
-0.00616282
-0.00368078
0.120422
-0.000555593
0.0248978
-0.0418555
-0.0335934
0.000471621
-0.000445758
0.617785
-0.00462816
0.296842
0.667535
-0.0102939
-0.0520105
-0.0323843
-0.000122572
0.268639
-0.0427342
-0.0369772
0.239517
0.446134
-3.45309e-05
0.211457
0.475802
-0.000528243
0.346178
-0.0187938
0.00878818
0.72586
-0.0069086
1.18543e-06
-0.000260825
0.700099
-0.0268083
-0.0287536
-0.0376315
-0.0194547
-0.00948458
-0.0154201
-0.0352283
0.308423
0.93569
1.02652
0.791821
-0.000395176
0.612751
0.278092
-0.0228211
-0.0385825
0.598317
-0.0444141
-0.0485571
-0.000733077
-0.0333907
0.763835
-0.00015445
-0.0554651
-0.0145125
0.0369258
0.000215539
0.804569
-0.047959
0.789627
-0.028312
-0.0274858
0.00665324
-0.000874732
0.702815
-0.0215651
-0.00964963
-4.77478e-05
-0.0262814
0.081292
0.415552
-0.0155458
-0.000742413
0.4403
-4.38428e-05
0.564878
0.384941
-4.81989e-05
0.569328
-0.047071
-0.000354994
-0.0184294
-0.000268401
0.000147993
-0.00380023
0.67538
-0.0322773
0.000199771
-0.0485427
-0.0182955
0.678193
0.90013
-6.9584e-05
-0.0195315
-0.00647846
-0.0134196
0.725795
0.0351081
-9.98784e-06
0.531211
0.409805
0.781724
-0.0140807
0.000337812
0.607813
-0.00318637
-0.0417098
0.0401292
0.949615
-0.0361174
-0.0212928
3.9741e-05
-0.00889823
0.94377
-0.0421302
1.05588
0.398195
-0.0150487
-0.000453278
-0.0285778
-0.0103517
-3.92602e-07
-0.019578
0.930747
-1.164e-05
-0.0210043
0.941964
-0.000178218
-0.0196935
5.77427e-06
-0.00168619
-5.47721e-06
0.106127
-0.000260412
-0.00161371
-0.0573417
-0.00119072
-6.8566e-05
-1.19392e-05
-0.00018869
-0.0273296
-7.86003e-06
-0.00070668
0.00534623
-0.0209883
1.05054
0.127552
-0.00836247
-0.00500716
-1.72619e-05
-0.0220776
-6.32833e-06
0.29959
0.771224
-0.0023204
-0.0186013
-0.0101102
0.225206
-7.4183e-05
1.09687
0.00119294
-0.00113378
0.556034
0.01523
-4.52741e-05
-0.0387383
0.761283
-0.000354178
0.751142
0.772033
-0.0252937
-0.0393629
0.877291
-0.0210268
-0.00162947
-0.0442163
0.64948
0.302684
-0.0400454
-0.000464856
0.90948
-0.0005698
0.0310743
-0.00544388
-0.00231269
1.01533
-0.00035567
-4.55982e-05
-0.0295265
0.51
1.0609
0.75328
1.12027
-0.00647842
0.998479
-0.000613247
0.627999
-0.00309149
-0.000824785
0.410721
-0.0229791
0.280296
-0.000193996
-0.0545514
1.06855
-0.0250076
0.0445443
0.000633704
-0.000904335
0.462628
0.00154378
-0.0400451
-4.51723e-05
-0.0233472
-0.000136855
1.08631
-0.0219941
-0.0326853
0.217407
-0.0247424
0.385519
0.750211
1.1405e-05
0.00824929
0.469477
0.805041
1.10197
-2.78161e-05
-0.0125333
-0.0207626
-0.00135786
0.516268
0.563086
-0.0186553
0.951721
0.318432
0.46407
-0.0184904
0.727673
-0.0412753
-0.000306791
-3.32289e-05
-7.81916e-05
-0.000202985
0.000365665
-0.0287856
-2.58635e-05
0.000435407
0.0102606
-0.000117077
0.575447
-0.022303
-3.25829e-05
1.06816
5.67251e-05
-0.00031149
0.902027
1.10011
-0.0480041
-0.0135919
0.869174
-0.0111997
0.991969
0.187546
-0.000481016
-0.0576743
-0.0211175
0.00135449
0.000271791
0.784648
-3.34383e-05
2.92995e-05
0.956484
-0.0003068
0.000932788
-0.0400381
-0.0281172
-0.0375006
-0.000146699
0.231699
-0.040312
-3.55143e-05
-0.0361824
-0.00163761
0.591218
-0.000122106
-0.000154206
-0.00151388
0.934896
-0.0111186
-0.00561719
-0.00179499
0.00116461
0.907016
0.0160421
0.353148
0.873981
-0.000669289
1.0183
0.848343
-0.0100348
-0.0574374
4.23348e-05
-0.0250554
0.991617
0.00184272
-0.000371273
-3.0717e-05
-0.0418829
-0.00575925
-0.000500322
-8.05916e-05
1.00907
-5.41875e-05
0.790098
-0.0188214
-0.0637928
-2.2604e-05
-0.0227255
-0.00075437
0.890567
0.904533
0.43666
-0.00161801
-0.0540306
-0.0477329
0.381462
0.288763
0.557536
-0.0747683
-0.0434776
-0.0484853
-0.000586398
-0.00134246
-0.00060862
-0.00268303
-0.00189755
-0.00226334
-0.00302311
-0.00536974
-0.0399063
-0.0049351
-0.00370003
-0.0437362
-0.000619281
-0.00318934
-0.000147169
1.16389
0.252273
-0.00444323
0.00253969
-0.00377329
-0.000118241
-0.000756351
-0.00500648
-0.00426655
-0.0491092
-2.96906e-05
-0.0488202
-0.00115504
-0.000794322
-0.000146105
-0.0403468
-0.0396364
-0.00588531
0.938543
-0.0117031
0.773367
-0.0463188
0.96999
-0.0555776
-0.0567482
-0.0575591
-0.058106
-0.0576977
-0.0584687
-0.058026
-0.00050702
-0.0576695
-0.0564028
0.899318
-0.0558794
0.0256552
-0.0513705
-0.000898709
-0.0408782
-0.0215829
-3.57581e-05
-0.00573551
-0.000198406
-0.00263602
0.0984827
-0.000966572
0.524763
0.808456
-0.0126341
0.00115945
-0.0410682
0.00330122
-0.00789829
-0.0127313
-0.0335938
-0.000220697
1.08113
-0.018705
-0.0253377
-0.00683823
-0.00121258
-0.0069009
-0.00396805
-0.0564131
-0.00912413
-0.00232553
-0.0142062
0.171418
-0.000102497
-0.000410182
-0.00771282
0.0440308
-0.00277686
-0.00466789
-0.0033447
-4.43916e-05
-2.35954e-05
-0.000957522
3.6825e-05
-0.00194026
-0.00546902
-0.004581
0.885571
-0.000982562
-0.0034899
-0.00137756
-0.000154959
-9.31056e-05
-2.38444e-05
0.673449
-0.00880925
0.854997
-0.00739267
-0.00121407
-6.70918e-05
0.754009
-0.0304167
1.01093e-05
-0.000327294
-0.000240163
-0.0147195
-0.00637929
0.149155
-0.000135292
-0.0220679
-0.000786518
-0.00250176
-0.00148583
-0.00850868
0.00152831
-0.0410523
0.869789
-0.0540727
-0.0154857
-0.000670843
-0.000180825
-0.0431963
-0.000128521
0.0154143
-0.00593011
-0.00643076
4.09025e-05
-0.011504
-0.0127855
-0.0789159
-0.000626171
-5.93088e-05
-0.0283231
-0.00049097
-0.00977388
-0.00871909
-0.00778551
-0.000138839
0.998946
-0.00038369
1.12572
-0.0144384
-0.00995565
0.00975788
-8.94337e-05
-0.000181519
0.0882781
1.74314e-05
-0.0149571
-0.000672231
0.0774341
-0.01122
-7.90325e-05
-0.000327209
0.000876437
1.0027
-0.000556182
-0.0298555
0.00747488
0.86771
-0.0442604
-0.0455469
-0.000160233
0.00947854
-0.0145572
-0.0753494
-0.00873637
1.17535e-05
0.0113725
1.05415
-0.0437441
-0.00105582
-0.0125526
-0.000278073
0.776664
0.861067
-0.000179745
-0.00177283
0.712168
-0.000454298
-0.0105398
-0.000213406
-0.000831862
-0.0306656
-0.0399013
-0.0630997
0.0670012
-0.00141523
-0.000252382
-0.000366934
-0.0262287
-0.00809575
0.580762
-0.0192231
-0.000226996
0.836751
-0.00230543
-0.00176309
-0.0542347
-0.0109455
-0.00170404
-0.000400043
0.00575015
-0.00281984
-0.0206381
-0.000222419
-0.00121612
0.569833
-0.011105
0.719198
0.969565
0.00411855
-0.000537339
-0.0690869
-0.0120372
1.0632
0.0137234
-0.00248137
-6.85177e-05
0.808238
1.01077
0.57928
0.172833
-0.0440277
-0.00029157
-0.0393546
-0.000970312
0.000331685
-0.0165981
0.735069
-0.0327852
-0.000572312
0.00100698
-0.00200119
0.23832
0.765725
-0.0148605
-0.0361487
-0.00234385
-0.0018968
-0.00190875
0.987656
0.00265726
-0.000794936
-0.000459649
-0.00422799
-0.0259111
0.239165
-0.00952045
-0.00342788
-0.0179702
-0.000127674
0.0143469
0.762936
-0.0484842
-0.00147527
0.0159436
0.756653
-0.00283165
0.319249
0.884573
0.000321092
-0.000103619
0.348082
0.716464
0.400925
0.62255
-0.0493653
-0.00157847
1.15632e-06
0.733788
-0.0266822
0.000679382
-0.0416665
-0.0173899
-0.0302341
-0.0424646
-0.00336858
2.26772e-07
0.705112
0.00142686
-0.0407255
0.901611
-0.0281305
0.860753
2.30014e-05
-0.0386642
0.82514
1.06442
0.0124677
-0.00852095
-0.0154067
-0.000904406
-0.00454038
0.855277
0.0113229
-0.0383541
-0.00389615
-0.00111693
-0.00251694
0.00194728
-0.000576279
0.64218
-0.000452902
0.0109762
-0.00336386
-0.00561227
-0.00089953
0.495247
0.803841
-0.0537523
-0.0558437
-0.0568589
-0.000725888
0.00393891
-0.000345089
-0.0560199
-0.0567783
0.514306
0.799917
-0.0569318
0.494307
-0.0177814
-0.0191373
-0.0163531
-0.0562166
0.634951
0.462501
-0.0563502
-0.00787897
0.810225
0.65461
-0.00487879
-0.000129878
-0.00133936
0.990406
-0.00104382
-0.000109205
-0.0039311
-0.00216863
-0.00137068
0.00159616
-0.00255363
0.0116921
0.325408
-0.0368462
-0.000125402
-0.0361102
-0.0383643
-0.0189731
-0.0375933
-0.0548806
-0.00179738
-0.00255933
-0.0045547
-0.0137183
0.829268
-0.00313421
-0.00535513
0.0565859
-8.25e-05
0.961739
0.804041
-0.0378664
-0.00368388
-0.00138956
-0.00434235
-0.000356608
0.784431
0.134317
-0.00155977
0.0479889
-8.74411e-05
0.0407843
-0.00161132
0.0348744
0.0295901
0.923288
-0.0176496
-0.000235251
-0.0060379
0.00261436
0.501363
0.708801
-0.0428566
0.71306
1.00612
-0.00994497
-0.022118
0.689043
-0.00509893
0.148755
0.966216
0.679152
-0.0145081
0.690387
-0.0063581
-0.00812435
-0.00164198
-0.00180996
-0.0543604
-4.51007e-06
0.123665
0.102205
0.0845495
0.0664747
-0.0237137
0.209272
3.50007e-05