/*--------------------------------*- C++ -*----------------------------------*\
  =========                 |
  \\      /  F ield         | OpenFOAM: The Open Source CFD Toolbox
   \\    /   O peration     | Website:  https://openfoam.org
    \\  /    A nd           | Version:  7
     \\/     M anipulation  |
\*---------------------------------------------------------------------------*/
FoamFile
{
    version     2.0;
    format      ascii;
    class       volScalarField;
    location    "32.5";
    object      p;
}
// * * * * * * * * * * * * * * * * * * * * * * * * * * * * * * * * * * * * * //

dimensions      [0 2 -2 0 0 0 0];

internalField   nonuniform List<scalar> 
29659
(
0.0123728
0.178736
-0.0126258
-0.0528089
-0.00354746
-0.0534287
-0.0464811
0.0106246
0.00309721
0.000318808
0.00473362
-0.00732668
-0.000675925
-2.27652e-05
0.0731329
-0.00865381
-0.000211781
0.0122424
-0.00311193
-0.0150035
-0.00122226
0.0029202
-0.0128698
-0.00306242
0.837968
0.177606
-0.000730381
0.67301
0.0580531
-0.00248285
0.023364
0.0737616
-0.0915352
-0.0109832
0.687093
-0.0142475
0.176537
-0.0388948
0.00867534
0.00831149
0.000712296
-0.0261182
-0.000182499
-0.0440939
6.67958e-05
-0.00228643
-0.00659497
0.000144206
0.00499066
0.172002
-0.0766213
-0.0460637
0.076583
-0.0512858
-0.00848046
0.0612207
-0.00506036
-0.00126418
-0.00811561
-0.0339143
-7.03726e-05
-0.00302968
-0.0812909
-0.0127817
0.276934
0.793983
-0.0136287
-0.0126034
0.752618
0.00074361
0.175662
0.545863
0.0032163
0.759269
-0.0111931
-0.0296034
-0.00691212
-0.033863
-4.66067e-05
-0.0281044
-0.0465376
0.244077
0.0123723
3.03984e-05
-0.0439881
-0.205302
0.338842
-0.00070543
-0.000650655
-0.0677264
-0.0371368
-0.0344492
0.00457364
0.063786
-0.0695454
0.327348
-0.0500889
0.000767393
-0.0612061
0.0977128
-5.03878e-05
-0.0320807
-6.70223e-05
0.0453904
-0.0469156
0.14384
0.451897
-0.000624217
1.85241e-05
-0.0941492
-0.0903224
0.00370535
6.77199e-06
-0.00227808
-0.000152685
0.527264
0.254626
-0.0162924
6.38325e-05
0.00383435
-0.15234
0.192007
-0.0792083
0.7857
0.0017227
-0.0545695
0.0178384
-0.029887
0.00610328
7.14918e-05
-0.0414784
-0.011915
0.462937
-0.101992
0.045055
0.0227548
0.255096
-0.0326473
-0.188595
0.0935818
-0.0471103
-0.0578173
-0.0619297
4.99077e-06
-4.90097e-07
-0.00362052
-0.00620359
-0.0698164
-0.148772
-0.0783979
0.0355365
0.0166826
0.000703987
-0.000159317
0.262437
0.000818198
-0.0115242
0.226253
0.322963
-0.0751188
-0.0445743
-0.0514935
0.0663585
-4.68445e-05
-7.0126e-07
-0.0164346
-0.0592758
0.000120954
2.95164e-05
-0.0100832
8.92332e-05
0.00839043
0.234064
-0.0318568
-0.0899659
-0.00717261
0.00316015
-0.0336098
-0.00185722
-0.0728277
-1.08274e-05
-0.0110437
0.331563
-0.0115827
-0.187245
0.254269
-0.00899181
-0.0250253
0.00577093
-0.00257141
-0.000376309
0.0015144
0.803767
0.257719
-0.0191007
-0.0110252
0.649368
0.228012
-0.0691034
0.0017944
-0.0738785
-0.0750699
-0.00712747
0.00133274
0.237581
-0.00964943
0.0102455
-0.0685582
-0.0961695
-3.03976e-05
0.567237
-0.00147106
2.47383e-05
-0.000765417
-0.0360177
-0.0679675
-0.00938429
0.00998318
-0.00304196
-0.0702806
0.000101083
0.00073069
-0.00329653
0.118976
-0.00414757
-0.00214206
0.0781867
0.000234116
6.27716e-05
0.00794982
-0.0406068
-0.0295629
-0.00668742
0.173567
-0.0203593
0.0178516
-2.36331e-05
-0.00430412
0.00125123
-0.069804
-0.160347
-0.00196955
0.000744797
-0.00220322
0.00408748
-0.0144592
-4.41872e-05
-0.195097
0.00012219
0.121042
-0.00487743
0.000260824
0.146515
-0.0734643
0.000419015
8.76826e-06
-0.0578441
-0.150741
-0.0125258
-0.031791
0.0350909
0.317283
0.00014929
-0.03806
-0.110153
0.665561
-0.0115469
0.25028
-0.0241246
-0.000336578
0.97512
-0.000754427
-0.09409
-0.0695613
0.00339877
-0.0562995
-0.0115497
0.454623
-0.00497509
-0.0249163
-0.000346795
0.143449
-0.00496955
0.336744
-0.000706937
-0.00829635
0.597985
0.101218
0.0781458
-0.0451416
-0.000191554
0.00400447
-0.000224951
2.56776e-05
0.101329
7.7451e-05
-0.0269474
-0.112468
0.849839
0.455308
-0.0642789
-0.0281859
-0.0280254
0.00526561
0.0028049
-0.0255024
-0.0692982
0.325575
0.559803
-0.00182288
0.441631
0.0984024
-0.0798007
0.0157506
-0.00341455
-0.0226653
-0.00767996
-0.00376319
-6.19492e-05
-0.00299296
-0.0116518
0.138353
0.00248693
-0.0371459
0.0182011
-3.31849e-05
-0.0667337
0.905036
-0.00911694
-0.00216119
0.0168391
-0.0261575
0.112245
-0.00224233
-2.02226e-05
6.47862e-06
-0.00378563
0.603173
0.0246863
-0.16337
9.77758e-06
-0.157671
0.0631032
-0.00727853
-0.0636346
-0.0019703
-0.000609647
-0.0349395
0.00146487
-0.0723844
0.0160069
-0.00797596
-0.00026741
0.00245415
0.190496
-0.14744
0.000688467
0.000726811
0.511888
-0.0374808
-0.00239435
0.240157
0.685059
-0.0877329
-0.012528
-0.0599836
-0.00109222
-0.0119878
-0.0048694
0.222469
2.19624e-05
0.0153994
-0.148854
0.481226
0.740736
-0.00873494
-0.0128672
0.290289
-0.0351518
-5.9504e-05
-0.0564263
0.126161
0.128558
-0.0110967
0.0391269
0.644287
-0.165877
0.564257
0.508061
2.08394e-05
-0.0100663
-0.155545
-0.00439374
0.00254275
0.692725
0.0243941
0.000482721
-0.0526821
-0.076697
-0.00813469
-0.000144505
0.314633
0.249761
0.00012797
0.00632313
0.00834819
-0.148281
-0.0452168
0.000153834
-1.12076e-06
0.000822987
0.119764
-0.038496
0.402865
-0.0685954
-0.0274565
-0.0290511
0.234137
-0.0722289
-0.00176897
0.0123892
0.00137229
0.559073
-0.0354701
0.00174769
-0.0108087
-0.0435446
-0.00251299
-0.0179304
0.000408161
0.000414081
0.92009
-0.0117284
-0.00754346
-0.00067501
-0.00106554
0.293407
-0.15099
-0.0391767
1.18439e-05
2.19439e-05
-0.0365833
-0.00984282
-0.00761567
0.0264358
0.00954877
-0.00482619
-0.00730218
-0.0248197
0.550689
0.00439172
0.000430758
-0.0634519
-0.0361663
-0.0392584
-0.00524295
-0.0387641
-1.13921e-05
0.737469
0.0303458
0.000172613
0.803968
-0.0403034
-1.21856e-05
0.00233001
-0.0656727
0.00606568
0.0589673
2.86024e-07
-0.0114796
-0.0203888
-0.00789871
-0.000678775
-0.0118964
0.65781
-0.0124745
-0.0174103
0.276419
-0.00413377
0.587854
-1.39604e-05
-0.0253551
-0.074717
-0.0382442
-0.124672
-0.00236099
-0.000174021
-0.000158848
-0.0277325
0.000445298
-3.07123e-05
1.55778e-05
-0.00916667
0.572323
0.00898124
0.00392262
-0.0685355
9.26302e-06
0.0016083
-1.2939e-05
0.0125846
-0.0251981
-0.000550799
-0.0124186
-0.0178835
0.00167977
-1.48515e-05
-0.107221
-0.000598699
0.0552682
0.428109
0.301782
-0.00785912
0.00937451
0.0402461
-7.24504e-05
-0.00576294
1.14442e-05
0.515169
-0.0202277
0.0260627
-0.0239479
0.00196215
-0.00483882
-0.000123506
1.87195e-05
-0.00729542
0.058753
0.327716
0.00201762
-0.0578612
-0.034658
-0.0115241
-0.0751791
-0.00196075
0.000758828
-0.00826756
-0.000111666
-0.0680571
0.373059
0.236649
-0.0319193
0.363618
0.000173302
9.85137e-06
-0.0540397
-0.0489962
0.770736
-0.0713364
-0.0294568
-0.0361632
0.00192988
-0.00863811
0.000787671
-0.0153311
-0.0188688
1.36374e-05
-0.00132461
0.478197
-0.000168199
0.706735
1.18586e-05
-0.121037
0.0505537
-0.00259385
0.00172242
0.00033563
0.559521
0.0582282
-0.0757633
0.249556
-0.0109564
-0.018749
-0.00605305
0.100709
-0.0365977
0.0082176
-0.0118895
1.01559e-05
-0.00194039
0.00906742
-0.0248559
-0.0312354
-0.0583384
-0.0251087
0.158639
-0.00321605
-0.068812
-0.0194154
9.90593e-05
-0.0170623
0.00390487
0.161666
-0.0383375
-3.20305e-06
-0.0261732
-0.00157115
0.00227787
-0.170068
0.401834
0.00150632
-0.0168782
-0.0719178
0.104679
0.641366
0.00292226
-0.00870378
0.184722
0.211948
-0.023881
0.00781025
-0.0635376
2.30326e-06
-0.0519383
0.000167686
-0.0707366
-2.80819e-05
6.94538e-05
-0.0113128
-0.0802918
0.379439
0.00382183
0.0170341
2.1131e-06
-0.00943697
0.000171286
-0.00488476
6.88643e-05
0.0641262
-0.000690118
0.218648
-0.000153316
-0.0179855
-0.0465338
-0.00632892
0.634983
-0.0229402
-0.0875558
-0.00845664
0.0687228
-0.0634285
0.0441494
-0.0439907
-6.92941e-07
-0.00923601
-0.00591116
0.000442259
0.000164353
0.0903378
-0.00738779
0.114707
-0.00837992
0.00144031
0.0481803
0.000301828
-1.59014e-05
-0.051003
-0.00522898
7.38392e-05
0.262301
0.862763
-0.00028407
-0.0449237
1.41193e-05
0.663486
-0.127195
-0.0514808
0.000132582
0.0094964
0.0853554
0.100805
0.0569384
-0.000538462
-0.000183793
-0.0222268
9.42923e-06
5.57408e-06
-0.0371308
-0.0495318
-0.0575399
0.813294
0.000361196
-0.0580615
0.0120859
-1.39407e-05
-0.00194525
0.000113217
-0.00957842
9.03947e-05
-0.0419557
0.0426879
0.577692
0.0666883
-0.000391426
0.000782207
-0.154123
0.112284
-0.00469761
2.0882e-05
0.210913
-0.182424
-0.0697369
-0.0197068
-1.18802e-05
-0.000386079
-0.188903
-0.0360391
0.190012
0.549512
-0.085748
-0.00190372
-1.14759e-05
-0.0611719
-0.089652
-0.000270835
0.00150381
-0.0230919
-0.00704837
0.560509
-0.00196989
-0.015718
-0.00995031
-0.0113198
0.776371
0.788098
-1.89987e-05
8.27749e-07
-0.0225253
0.0245749
-0.0438221
0.00835098
-0.0109517
-0.00084503
0.633223
0.213197
0.00363652
0.963061
1.10439e-05
0.145221
-0.0864381
-0.0578411
0.000192475
-0.0452772
0.151416
0.0234543
0.0907629
-0.000659154
-0.000702635
-0.0158747
-0.00519379
-0.0194852
-0.00166734
0.136109
-0.0101543
-0.00803975
-0.0681472
0.499433
-0.0174875
0.0473092
-0.000583434
-0.00075179
-0.0285303
0.00164667
-0.0038688
-1.12655e-05
-0.000450757
0.15199
0.560749
-0.000166224
0.0438559
1.54792e-05
-0.00503908
1.87095e-05
0.00858615
-0.114642
-3.37462e-05
-3.58472e-05
-0.0706397
1.01394e-05
0.05766
-0.0372033
3.52352e-06
0.197273
1.77775e-05
-0.000579651
-0.000106614
-0.00769275
-0.000548795
-0.00904713
-0.102828
-0.000479687
0.00676168
-1.63564e-05
0.372522
-0.0170693
-0.0206323
-0.0410745
-0.0304173
-0.0017961
0.0046646
0.269373
-0.037466
0.13516
-0.0502901
-0.00520808
-1.0523e-07
-0.00851968
0.443604
0.220194
-0.0521733
-0.0611946
0.356711
-0.0122047
-0.0793203
1.83977e-05
-0.0386628
-0.00122875
0.92899
-0.0686887
-0.000103785
-0.0676397
-0.0382731
0.320466
-0.00382018
-0.0397735
-0.00615848
-0.0105547
-0.00191065
0.320654
-0.156711
-0.0267331
-0.0210818
-0.0177903
0.00888778
0.352121
-0.0254811
0.252912
0.00435146
-0.124516
0.723496
-0.0123785
-0.000317196
0.303252
0.494067
-0.0138993
-0.00941648
-0.0104041
-0.040689
0.19032
-0.0604308
-1.4605e-05
-0.0106475
7.39397e-05
-0.0065816
-1.61623e-05
-0.0077156
-0.00142205
-0.00481048
-0.139016
-0.000871189
-0.000726916
-0.00173204
0.268491
-0.00305283
-0.00480936
-0.00458141
0.210412
0.00815267
-0.000523903
0.430417
0.775624
-0.026158
0.622478
-0.023082
0.427516
0.00845174
-0.0264113
0.00400701
-0.00064638
3.53423e-05
0.00394208
-0.0163584
-0.0259364
0.24503
-0.0299037
-0.0263749
-0.00132198
-0.132873
-0.0345346
0.00994552
-2.47464e-06
0.00532562
0.00205581
0.519841
-0.00784224
-0.0178753
0.1894
-0.000473834
0.0525732
-0.0235517
0.000945731
-0.0670591
0.00342189
0.437317
-0.0029356
-0.000744458
-0.000113656
-0.0737448
-0.00190596
0.93891
0.971123
0.0177665
-3.27406e-05
0.0122439
-1.21293e-05
0.0607218
-0.000727791
0.0310157
0.829984
-0.0331791
3.77874e-05
-0.0108862
2.50251e-05
-0.155734
-0.0431611
0.656413
0.000378487
0.0171019
0.00251858
0.000464682
-0.0031055
-0.000389065
-0.00806114
-0.0513819
-0.0299284
0.00616445
0.191724
-0.0173977
0.00896275
-0.0263723
-0.00264226
-0.0357997
2.40521e-05
8.57085e-05
-0.00294983
0.0380252
-0.0479436
-0.0215753
-0.00486914
0.00384779
-0.04682
0.127188
-0.0163133
-4.37563e-07
-0.0622828
0.596134
-0.0987196
-0.0156398
0.0423979
3.24987e-05
-0.000867457
-0.0364951
-2.31321e-05
-0.00056219
-1.35191e-05
0.964281
0.0123039
0.005026
7.64241e-07
4.86096e-06
1.74309e-05
7.22396e-07
-0.0283446
0.495329
-0.0433463
-0.000599157
-0.000180578
-0.00793635
0.663898
-0.071995
0.56661
-0.00413679
0.184553
-7.52293e-05
0.658233
-0.00286496
-0.0121193
-0.0120048
0.00761319
0.00935872
0.240399
-0.0496343
0.647435
0.302788
-0.0109607
-0.037855
-0.0160131
-0.0369027
2.11897e-05
-0.0011697
0.00372999
0.0902391
-0.00843924
-0.0285229
-0.00432198
0.798305
-0.102936
-1.79048e-05
-2.03139e-05
0.666021
-0.00624831
0.00122838
-0.0164693
-0.00282625
-0.0196146
-0.0124157
-0.0969579
0.0294345
0.00229725
-0.0127539
-0.0182694
0.000151735
-0.00726877
-0.00223765
-0.00991932
-1.84591e-05
0.000106891
-0.0317769
-0.0258661
0.639393
-0.0505733
-0.000196077
-0.0019062
-0.000355843
0.432788
-0.0912986
-1.909e-05
-0.039912
-0.00563523
-0.00455989
-0.0354974
-0.0392369
0.0084855
0.0661397
-0.0884051
0.000136464
0.00759013
-0.0161495
2.29193e-06
-5.38364e-05
0.146186
0.10467
-0.0638993
-0.0555711
-0.0705045
0.000725459
0.664882
0.000156402
-0.0251776
0.527774
-0.0208349
-0.0451282
7.30657e-06
0.000258276
-0.0452114
-0.0113668
0.00179972
-0.0376402
0.296155
0.185814
0.000913511
0.000386239
0.21311
-0.0152622
1.23966e-06
-0.00178307
-0.0335553
-0.0277028
-0.0147218
-0.00379597
0.0573086
2.61514e-05
0.0933016
0.32349
7.54616e-05
0.00659875
-0.000497535
-0.12272
-0.0162727
-0.000761216
0.0333886
0.000312448
0.27671
0.00179316
0.0255276
-0.0117246
0.854552
0.509669
-0.060081
-0.00837068
7.05448e-06
-0.0940311
-0.0151133
0.171482
0.324766
-0.0377549
-0.0432498
-0.0180404
-0.00688755
0.179856
-0.000184073
0.615503
0.026995
7.97887e-05
7.61464e-05
0.000151153
-0.0136646
-0.0188666
0.00084862
-0.00208993
0.095855
-0.0553983
0.00050929
0.000115975
-0.0252545
-2.59828e-05
-0.00295202
-0.0121492
-0.000760838
-0.039201
0.00432686
-0.0013708
-0.0038599
-0.0169074
0.510497
0.525608
0.0396749
1.89254e-05
-0.000521639
0.315333
-0.000424079
-0.158331
-0.000174669
-0.0208895
-0.0917005
-0.000171772
-0.000201943
-0.0355932
0.00146262
-5.13444e-05
-0.00130205
0.212939
-0.0355006
-1.29849e-05
0.107315
0.441577
0.446411
0.00072156
-0.146795
-0.00933898
0.592215
-0.0720971
-0.0740638
-0.0218079
-0.0128006
0.0288522
-0.0255748
0.449776
0.0649508
-0.00012576
-0.0534379
-0.0670287
-0.00385376
1.25713e-06
-0.00182468
0.270554
-0.000151058
-0.0172852
-0.00403961
-0.00113066
0.00907444
0.0306703
-0.000131622
-9.54144e-05
-0.00950599
-0.122291
-0.0363941
-0.0817243
0.316201
-0.00325561
-0.00023167
-0.0389195
-0.0241618
0.00927255
0.0137311
0.000133476
0.0791368
0.166608
0.0196363
0.0245108
-0.000575468
-0.0131289
-0.0838198
0.00140222
6.12084e-06
-0.00958527
-0.00391602
-0.000679725
-0.0114881
-0.000796082
0.113144
-0.00892797
-0.16809
-0.0243565
-0.0105164
0.0120467
0.655071
-0.0415483
-8.06579e-05
0.654467
0.193847
0.00791286
-0.00569667
0.00765969
-0.0642662
0.194367
0.000401171
-0.00383936
0.832208
0.385935
0.317663
-0.0444825
-0.00132474
-0.00116006
-1.22394e-05
-0.00123783
0.237616
0.091404
-0.0198761
-0.00851257
-0.000296772
-0.0875881
0.802893
0.544407
0.0870431
-0.00274261
-0.0589863
-0.00647171
-0.000662567
-0.0263385
0.00843056
-0.0263954
-0.00342383
0.000959166
-0.103111
-0.121919
0.0314878
-0.0247461
-0.0075655
-0.0248256
-0.00016463
-0.00686596
-0.000632724
0.373975
8.23981e-05
4.79471e-06
-0.0415477
-0.019057
-0.0275121
0.0399482
0.000104305
-0.0958002
0.0594739
0.240012
0.906128
-0.00451897
-0.154311
0.0298597
-0.0019934
-0.0067835
-0.000542042
0.0103757
-0.000137714
0.225807
-0.145194
0.0107099
0.10033
0.135878
0.00150835
0.00215266
6.29171e-06
0.554004
1.03845e-05
-0.0427325
0.000388262
0.0016784
0.205029
0.112386
-0.085326
-0.0370408
-0.00405672
0.974136
-0.0842965
7.15811e-06
-0.015124
-2.1304e-06
-0.0216574
0.114885
0.246965
0.000965547
-0.0336159
-0.00912349
0.179523
-0.073211
-0.0310544
0.802366
-0.00960755
9.11115e-05
-0.197493
0.847216
0.00110782
0.105058
-0.0439992
0.13979
0.00195938
0.0232387
-0.0685491
0.00434823
0.0573324
-0.0419056
0.120391
-0.0251734
-0.0189214
-0.000723949
-0.00073592
0.720568
1.56399e-05
-0.00622698
-1.74967e-05
-0.00781276
0.000405337
-0.00713931
0.21941
1.0109e-05
-0.000942323
-0.0694242
-0.179853
-0.0264494
0.00119312
0.576443
-0.0637271
0.209537
-0.0113942
0.186973
0.00594348
-0.00067347
-0.13331
0.000841387
0.737998
-0.0274923
-7.41756e-05
0.00233245
0.171554
-0.0108365
-0.000627163
-8.47273e-05
-0.111012
-0.00246427
-0.00975104
-0.080681
4.10296e-06
-0.0645507
0.000476245
0.467483
-0.0102029
0.178359
0.00416522
-0.0035822
0.30127
-0.078318
-0.199427
-0.00427869
-0.121281
0.311885
0.314952
-0.0135865
-1.19968e-05
-0.0150007
0.00466992
3.75604e-05
0.0135393
0.526301
0.0126275
0.00165914
0.00281684
-0.0656745
-0.000131303
0.0735705
0.0449447
0.0682643
0.0132286
0.0275176
-0.000338025
0.218027
-0.139606
-0.187207
-0.000927421
0.0123209
0.166094
0.000870382
-0.0669567
0.270679
-0.0496903
-0.0686478
-0.0667864
-0.139014
-0.140019
0.0549781
0.281716
-0.142486
1.97498e-05
0.000849582
-0.0877433
-0.00168556
-0.0031352
1.40744e-05
-0.00552258
0.00404212
-4.46296e-05
0.0615226
-0.000455127
0.142412
-0.0341237
-0.00862145
-0.0066555
-0.00818181
-0.0722565
-0.005592
-0.000992049
0.0215575
0.0833016
0.00407468
-0.0316544
-0.00283043
0.0284687
-0.00911023
-0.0186231
-0.0675642
-0.0152929
-9.30266e-06
-0.0146926
0.650601
5.52559e-05
-0.0219634
-0.0740937
0.782428
0.0504752
-0.0437899
2.98998e-06
0.001761
-0.0975216
-9.83481e-06
-0.00258395
-1.72565e-06
-0.0825966
0.00456711
-0.10734
-0.0220716
-9.48528e-05
0.34978
0.343724
-0.0349594
0.000510993
-0.000133697
1.73992e-05
-3.76735e-05
0.672243
-0.00123584
0.00235796
0.0221791
0.00102868
-0.000536403
-0.0680487
-0.000178008
0.0426381
-0.00050888
-0.00199206
-0.000668569
-0.0245427
-0.0402748
0.207424
0.056799
-0.00012768
-0.0128639
0.000603371
-0.109047
-0.000628336
0.136468
-0.0126671
0.960847
-0.0230153
-0.00136484
0.0810623
-0.0184746
0.458825
-0.0408611
-0.0108531
-0.0125987
0.018819
-0.00355861
2.6258e-05
-0.00815873
0.386591
-0.0413637
-0.00312976
-0.0397127
-0.0259178
0.184915
-0.000457463
0.336246
-0.0081623
-0.0702427
-0.000480463
0.0133535
0.0464084
-0.0149221
0.383866
-0.000418706
0.0344697
0.0978974
0.000554107
-9.12448e-05
0.762652
0.0512326
-0.00197139
0.0298478
0.00933227
0.000172721
-0.112561
-0.0219588
-0.164095
-0.0108814
0.45213
0.0038788
0.0462358
-0.00035289
0.542216
-0.0662615
-0.00514402
0.00632614
0.0325186
-0.0779443
-0.166605
-0.00835586
8.20234e-05
0.879192
-0.0218567
0.000891711
-0.0740042
-0.0378468
0.40413
0.00309133
-0.0159166
-3.56876e-05
0.0257146
0.00811128
-0.0368088
0.000879019
-0.00339897
-0.0270051
5.36962e-05
-0.0502038
-0.00151045
-0.0145408
-0.0622215
0.385569
-0.010071
-0.0211784
-0.0669261
-0.03323
2.37143e-05
0.000190453
-0.00380551
5.56609e-05
-0.0109117
-0.101743
-0.00199933
2.72199e-05
0.771026
0.00511368
0.000399252
-1.08872e-05
-0.00208499
0.378244
-0.0495297
0.882656
0.233796
0.0221957
0.368211
1.78763e-05
-0.0151501
-0.000792643
-0.00242044
0.246004
-0.0103802
0.867532
0.321992
-0.0564348
0.352726
0.00813269
-0.0142097
0.00233238
-0.0739091
-0.00390871
-0.0501887
-0.0526312
-0.00298092
0.341118
-0.0098683
0.000179113
-0.00427454
-0.00062508
-0.0322115
-0.000131376
-0.00121122
-1.4033e-05
0.195484
-0.167958
0.352517
0.0271731
-0.00271837
-0.0373145
-0.0205226
0.0815226
-0.00301775
-0.00102135
-0.0624295
-0.0454047
0.0038202
-0.0408548
-0.00446028
-0.00440913
0.000733608
6.37118e-05
0.15927
-1.27094e-05
0.0620758
-0.000765769
5.32927e-06
0.002095
-0.00062414
-0.0011751
-0.0163267
0.171655
0.182968
-0.0197013
-0.0126548
0.00301388
-0.00505012
-0.0101441
-7.1138e-05
-0.000450277
0.000766842
0.134277
-0.00918609
-0.0583852
-0.0612444
-0.00270163
-0.0301428
-0.0225852
-0.00167557
0.00542031
-0.0123553
0.302714
-0.0768826
0.00483174
0.000336337
-0.0386237
0.862315
-0.0100663
-0.00717694
0.00791204
0.0925081
0.00414132
-0.0128771
0.342362
-0.000332217
0.0455219
-0.0263496
-0.0708556
0.00655228
-0.0037734
-0.00551586
0.0434891
-0.00359997
-0.000580405
-0.00641664
0.00257581
-0.000192787
0.0219686
-0.00941203
-0.00201077
1.66446e-05
0.197957
-1.67354e-05
-0.0359586
0.0889726
-0.0277593
0.000202828
0.133183
-0.0562425
0.216786
-4.05101e-06
-0.00403747
0.0193783
0.000218871
0.00508421
-0.00453565
0.0107808
-0.0207506
-0.0315995
-0.0100862
-0.00266331
0.0101733
0.0217255
-0.0775
-0.000156167
0.139617
-0.0393518
-0.00335566
-0.00694631
0.0004608
-0.0808312
0.000101339
0.659212
0.22005
-0.00045365
-0.0217448
5.64237e-05
-0.0021549
-0.00643943
-0.0244558
0.199944
0.0829552
-0.0100792
0.0104555
-0.0697993
0.0335847
-0.0199607
-0.0240436
-0.049445
0.0107964
0.231559
-0.00956726
0.525312
-0.000885952
-0.0108456
-0.0553888
-5.94222e-05
-0.000715014
-2.44639e-05
0.522148
-0.0103082
0.000327905
-0.0155754
-0.00699602
-0.000289478
-0.0131011
0.289437
0.00102576
0.0110843
-0.0345229
-0.000457417
-0.00456483
-0.000765752
0.884076
0.000252112
4.1383e-05
-0.00200984
-0.0150502
-0.0252525
0.000619594
-0.000708814
0.0843774
-9.58322e-05
0.00208013
-0.0695496
-0.057875
-0.0696841
1.81086e-06
0.000406616
-0.0340314
0.0320846
0.403505
0.107438
-0.0325545
1.98895e-06
-0.0673147
-0.00255676
-0.0125854
-0.0121806
0.221858
0.624485
-7.89101e-05
0.18194
0.298334
-0.00957101
-0.0459386
-0.0262113
-0.021368
0.000145163
-0.0387111
-0.00875513
-5.7917e-05
-0.000484493
-0.00153106
-0.00182799
-0.000617486
0.384106
0.356915
0.140909
-1.62149e-06
-0.022581
-0.042483
0.122471
0.669835
-0.000439881
-0.0196662
-0.0179056
0.254878
-0.0187362
-0.00977708
-0.038795
0.188089
0.000359714
-0.000441677
-0.0271093
-0.0572953
0.11757
0.00809084
-0.0484524
-0.0256801
-0.0588988
0.019262
-0.0503227
0.00711822
-0.0927818
0.0616596
-0.000290758
-0.000562566
0.0645905
0.000243366
-0.00804842
0.0330085
2.05356e-05
0.146921
-0.0107903
-0.00433683
0.919404
-0.0352524
-0.0128355
-0.0377137
-0.00294883
0.61689
0.00122082
0.868146
-9.26702e-05
-0.045052
0.874971
0.00699545
0.606415
-0.00560523
4.31385e-05
-0.0351844
0.589541
-0.00151571
-0.00649467
-0.00796202
-0.000938025
-0.0213413
0.623236
0.107947
3.14655e-05
0.0192503
-0.00362777
0.0302311
-0.000829964
0.0239976
-0.00250993
-0.000407383
0.587353
0.622302
0.598121
-0.04873
-0.0823803
0.000191424
-0.0522717
0.3644
0.0126645
0.000297537
-0.090884
0.000643683
-7.42738e-05
0.626572
0.000162025
0.00426917
-0.00185527
-0.00929479
0.607515
0.609329
0.647092
0.0119459
0.000553161
0.24936
0.00776622
0.0171745
-0.00886099
9.55671e-05
-0.00285991
-1.11549e-05
-0.00443477
-0.000683179
-0.00580089
-1.45111e-05
0.17277
0.0022066
-0.0881461
-0.00919975
-0.0652338
-0.0157157
-0.000715191
0.413528
-0.0104298
5.54228e-05
-3.48057e-06
0.845301
4.37842e-05
0.0115483
0.0513161
-0.0172513
0.346161
-0.00510409
-0.0401518
-0.0350066
-0.000470601
0.000161605
0.331309
0.637147
-0.00145519
-0.0241781
-0.000193014
0.608537
0.80633
-0.00135577
-0.00655419
0.0197449
0.00305683
-0.0235624
0.00012597
0.0103127
-0.0361982
0.0514821
0.380269
-0.00142562
0.0294364
0.0372554
-0.0285912
-0.0411473
0.0285604
0.778009
0.184998
-0.0478907
0.608441
-0.000519055
0.668023
-0.00799384
0.51572
0.0685283
-0.00492278
0.0269618
0.00249866
0.0179755
-0.0657635
-0.000607356
-0.0222744
0.47796
-0.0259779
0.0149261
-0.00140035
-0.0845156
0.173781
-0.00897984
-0.151329
0.000770636
-0.00355718
-0.02281
-0.00204385
0.00202192
-0.00849074
-0.0004428
0.00251282
0.502342
0.00214001
-0.0150716
-0.0573559
-0.0279493
-0.0569174
-0.0993232
0.00425446
1.9552e-06
3.75307e-05
0.291552
-0.0693774
8.43277e-05
-0.105417
0.204936
-0.0583523
-0.0143317
0.000148095
-0.00179701
-0.0423863
0.128299
-0.00953586
-0.000421222
-0.0422595
-0.0194577
0.885304
0.122138
0.0657513
-0.0546056
2.85887e-07
-0.00641054
0.0676057
-0.000317166
2.94216e-05
0.182457
0.0993815
0.000670211
-0.000787526
0.00432208
-0.0458366
0.0101116
0.00728903
-0.0142946
7.60703e-05
0.190718
0.000638006
-0.000567685
-0.000177489
-0.000175003
-0.000108067
0.0864485
0.000966456
-0.00263761
-0.00904777
-0.00493184
0.0282512
-0.00512739
-0.0384076
-0.00983319
0.540845
0.427271
-0.000420628
-0.00137039
0.0959072
-0.000725509
-0.0229119
0.0208132
-0.0368043
-0.000875868
0.0207293
0.0406542
0.0013227
0.0499143
-6.03948e-05
0.00744451
-0.044313
0.013503
-0.0139313
0.0503161
0.000102093
-0.00103364
0.000335228
-1.32191e-05
-0.00155621
-0.00908265
-0.0119422
-0.0274639
0.0148788
0.0335783
0.00917055
-0.0720417
0.00878185
0.00317898
0.0127504
8.12811e-05
0.628718
-0.00775877
-0.00303052
-0.0652948
0.896721
1.01924e-05
-0.00607312
3.2064e-05
-0.0810951
-0.00597322
-0.0209168
0.181892
-0.00367916
3.22158e-05
0.0536352
0.0749526
-0.000469339
0.0517877
8.84257e-06
0.180322
0.00469314
-0.0265937
-9.17023e-05
0.234441
0.0281829
-0.0186081
6.98563e-05
0.185444
0.359854
-0.000994088
1.10143e-05
-0.0338165
-0.00824461
-0.00471671
0.014371
0.672424
0.332301
0.000514694
0.324045
0.234699
-0.00257688
-0.0483608
-0.0416277
-0.016766
-0.0627885
-0.00301657
0.000839447
0.695625
0.141773
0.0118493
0.000151628
0.000664631
1.43303e-05
-0.000457833
-0.00251608
0.745318
3.68351e-05
0.0815731
0.0265178
-0.00016754
0.665358
0.803564
0.212495
0.260678
-0.10494
0.00240919
-0.000214758
-0.0100468
7.28732e-06
-0.000955889
-0.173899
3.90492e-05
-0.00200476
0.696135
-0.0105209
-2.20883e-06
0.751143
0.00048871
-0.0310394
-0.0652701
-0.00114818
-0.0962136
-0.000175626
0.0600251
0.00320553
-0.0174893
0.00189087
-0.000542324
-0.000301622
-0.000162135
-0.172813
-0.0554612
0.169183
0.00260684
-0.0132133
0.228583
9.9402e-05
0.850647
-0.000451183
-0.0720572
0.00217669
0.00160154
0.0505353
0.0526253
3.38333e-05
-0.00377606
0.000137422
-0.000562636
0.000851945
0.08457
0.0482636
0.369586
-0.0562247
-6.09413e-05
0.000198526
0.101975
0.331545
-0.00396117
-0.00563134
0.856446
-0.0024633
-0.018326
0.000774776
0.0272856
-0.0581594
-0.00765572
0.173636
0.00131284
-0.000168847
0.00161762
-0.0834335
0.821812
0.631471
-0.0213943
-0.0435222
-0.00589343
0.00152834
5.12296e-05
0.0757413
0.187134
3.39086e-05
-0.00651911
-1.93952e-06
0.000173287
0.576014
3.79462e-07
-0.0850936
-0.0659238
-0.120155
0.0685431
2.64948e-05
0.00924435
-0.00570405
0.516999
-0.0371541
0.00471708
-0.0274095
0.000648816
0.348191
0.237999
0.00941503
0.0364818
0.701974
-0.0601057
-0.057647
-0.00166965
-0.00624564
-0.000276752
0.0113578
-3.93315e-06
0.181836
0.00275805
0.160602
-0.0328266
1.65797e-06
0.04746
-0.000107383
2.28728e-05
-0.000623158
0.829214
0.791971
0.229923
8.13507e-05
0.0927556
0.66582
-0.000823672
0.000464018
-0.00750827
0.0274926
0.589742
-0.0245427
0.12677
-0.00236158
-0.0561835
-0.0633113
0.933587
-0.000489496
0.621685
0.0883835
0.212783
0.000170714
0.000240583
0.00496935
-0.00801019
0.0798599
-1.43364e-05
9.01715e-05
0.613734
-0.136816
0.000333514
0.649163
-0.00203637
0.000188277
0.453739
-0.00726156
-0.00136415
-0.0949634
0.0652911
0.000339779
-7.55928e-05
0.00314737
-0.00356498
0.6021
0.82229
0.23982
0.913137
-0.011191
-0.0402068
0.713442
-3.37333e-05
-0.00289605
0.00458319
-0.00308717
-0.000535523
-5.99456e-05
0.639981
-0.00387909
-0.000526388
0.797978
0.0750573
0.0821193
0.0409424
-0.00237524
-0.0186427
0.112487
0.0639604
0.622044
-0.0240532
-0.000647451
0.573265
0.45133
0.011392
0.393818
-0.0377247
-0.00687929
-0.00870994
-0.000520472
-8.62841e-05
0.584584
-0.0574246
-0.0481086
0.000656054
0.160103
-0.0274135
-0.023846
-0.000868712
-0.00390172
0.667811
-0.000662282
-0.0156702
-0.00262656
0.63883
-0.0178509
0.0185502
-0.00662431
0.00135304
0.159907
-0.019287
0.701245
-0.0381996
0.906711
0.289896
-0.0511203
0.0293175
-0.00154236
-0.0134434
-0.116716
0.615116
0.663133
0.768215
0.249341
0.594544
-0.000268201
0.714645
-1.41193e-06
9.26558e-05
-0.0420305
0.776046
0.0482133
0.225349
7.13502e-05
-0.00186616
-0.135323
-0.0358774
0.605017
-0.000556985
-0.00676393
0.220857
0.00101275
-0.00375337
0.874311
0.0443306
-0.0492655
-0.211478
-0.000418671
-0.0183432
-0.0651558
0.918545
-0.0382888
-0.0271812
0.00366139
-0.000170653
-0.0184016
0.201363
0.00339482
0.000153097
-0.139419
0.272939
-0.00126826
0.608439
-0.077131
0.621933
-0.0453236
-0.0206084
0.710957
-0.00469922
-0.0513061
-0.000304013
-0.00112338
-0.0532907
-0.0197077
-0.0311904
-0.00865158
-0.0177785
-0.144432
-0.0603539
0.604422
0.000293503
0.00074828
-0.0186126
0.107805
-0.146175
-0.0509286
3.09835e-05
-0.146487
0.0420435
-5.38292e-05
-0.0944856
-0.145349
0.633979
-0.127631
0.591089
-0.0120924
0.0636806
0.279668
-0.0299248
0.162722
-0.00157537
0.0415102
-9.51309e-05
0.0819821
0.192788
0.181353
-0.0251687
0.00547287
-0.000541516
0.187052
-4.82822e-05
-7.75046e-05
-0.000861075
-0.0295285
0.0107826
0.0131551
0.49248
0.125702
0.837856
0.443998
-0.00130105
-0.0275596
-0.000103038
-0.042816
-0.00113693
0.00520184
0.000633735
-0.0332093
0.364292
0.626604
-0.000214564
3.17037e-05
-0.0350325
2.32345e-05
-0.00795591
-0.000114137
0.103065
-0.0304169
0.197938
-0.101931
6.93034e-05
-0.0119281
-0.0341709
-0.0252295
-0.0142045
-0.0439199
0.0137899
-0.000109988
-1.99801e-06
0.00191676
-7.56667e-05
0.0517399
-0.0316868
0.033358
0.766373
0.0389269
-0.161721
-0.0715635
-0.000327088
0.0467586
-6.7736e-05
0.554407
0.0939316
0.685095
0.00017105
-0.0282317
-0.00584713
0.0411857
0.00990044
0.464969
-0.00656654
0.0172061
-0.0015812
-0.018397
-0.00688319
-0.00522013
0.102051
0.00146893
-0.00907318
-0.0175602
0.0857723
0.0410418
9.05141e-06
-0.000715187
-0.00531307
-0.000479887
0.0835221
-0.00053176
-0.0385429
0.113183
9.61555e-05
0.240237
0.000106506
-4.09298e-07
-0.0903808
-0.023056
0.000186671
-0.019368
0.000198526
0.72155
0.0109796
-0.0204135
0.688202
0.12333
-0.0265204
0.483447
-0.00232902
-0.00157428
-0.00174102
0.0669342
0.970232
-0.00123367
-0.000464968
2.81902e-05
0.00694245
-0.00102685
0.0227977
0.0054638
-0.0177608
-0.050109
0.0160726
0.0088436
-0.0162669
-0.000414612
-0.0674481
0.398366
-0.00151633
-0.0117237
-0.00015938
0.502477
0.0437598
0.401901
0.000432013
-0.000673513
-0.0208501
0.77422
0.140279
-0.0241449
-7.7351e-05
0.0271762
0.0300406
-0.0436401
0.182141
-0.0395583
0.0151065
-0.168886
0.469844
-0.0160031
0.25269
-0.002684
0.906119
-0.0345378
-0.0093712
0.685129
-0.0360473
0.161554
-0.182222
0.186458
0.00571699
0.0433104
0.34327
0.0443555
-0.0398076
-0.00823384
-0.00666215
-0.0202215
-0.0402712
-0.00134786
-0.0500249
-0.0236825
0.00175547
-0.0549377
-0.069558
-4.11068e-06
-0.00392925
-0.00777551
-0.0296595
0.668751
0.359582
-0.0442239
-0.0605943
0.000468065
-0.0931147
-0.00421559
0.879277
-0.0297405
-0.0254088
0.36162
0.0429343
-0.0354182
0.122679
-0.0309629
-0.000500859
-0.00996079
0.00876572
0.000617282
0.380464
-0.00227635
0.138501
0.196878
-0.00480777
0.253594
-0.119369
-0.000280414
0.00584453
0.0273451
0.266704
-0.00211815
0.0549095
-0.0619255
0.0452652
-0.0196768
0.382662
-0.0169645
-0.113718
-0.00316764
0.000198976
0.59401
-0.00207396
-0.037398
-5.49734e-05
0.216936
-2.54002e-05
-0.0475098
-0.00482197
-0.195716
0.00062051
-0.00918486
0.09777
-0.00334647
0.000875555
0.000607864
-0.00352544