/*--------------------------------*- C++ -*----------------------------------*\
  =========                 |
  \\      /  F ield         | OpenFOAM: The Open Source CFD Toolbox
   \\    /   O peration     | Website:  https://openfoam.org
    \\  /    A nd           | Version:  7
     \\/     M anipulation  |
\*---------------------------------------------------------------------------*/
FoamFile
{
    version     2.0;
    format      ascii;
    class       volVectorField;
    location    "15";
    object      U;
}
// * * * * * * * * * * * * * * * * * * * * * * * * * * * * * * * * * * * * * //

dimensions      [0 1 -1 0 0 0 0];

internalField   nonuniform List<vector> 
20933
(
(0.997285 -0.00028867 -2.73877e-23)
(0.989123 -0.000821261 9.67356e-22)
(1.02361 -0.00307558 -1.3193e-22)
(1.00028 -2.95325e-05 -9.53747e-25)
(1.00079 -0.00803312 5.92041e-23)
(1.0005 -0.00852759 -5.76114e-23)
(1.03565 -0.144279 -7.93263e-22)
(1.0905 0.0609413 -2.16951e-20)
(1.00682 -0.0716754 -2.0542e-21)
(1.09526 0.061795 1.5529e-20)
(1.04565 -0.129914 -2.16659e-21)
(1.18266 0.111628 -9.1009e-22)
(0.989187 -0.0465996 -3.98378e-22)
(0.997176 -0.000342386 1.91104e-23)
(0.996383 -0.00308369 1.44885e-22)
(1.00027 -3.90819e-05 -7.90308e-25)
(1.24999 -0.0193021 1.21973e-21)
(1.10159 0.00115403 -1.21857e-20)
(1.00556 -0.107754 -1.63582e-21)
(0.991383 -0.000401618 -8.48724e-22)
(1.01748 -0.0824247 2.48563e-21)
(1.17845 0.110837 -1.56635e-21)
(1.09724 0.0670751 -1.17539e-20)
(1.11987 -0.168648 -1.3105e-21)
(1.02187 -0.00130256 9.27352e-24)
(0.994914 0.0739093 -3.27165e-20)
(1.0082 -0.00236171 -5.99213e-23)
(0.996483 -0.0501549 1.24107e-21)
(1.16654 -0.159757 -9.91855e-22)
(1.0078 -0.108944 5.56869e-21)
(0.998925 -0.00200255 -2.03158e-24)
(0.945666 0.0147571 4.99295e-20)
(1.12502 0.103978 9.63729e-21)
(0.994124 -0.029298 1.33291e-22)
(1.00008 -0.00148196 6.892e-24)
(0.998981 -0.002157 -7.06951e-24)
(1.08381 0.0772166 -2.32811e-20)
(0.999885 -3.45334e-06 -8.68771e-25)
(1.01348 -0.0170561 -3.79077e-23)
(1.11072 0.00255218 -4.30159e-21)
(1.03661 -0.00734644 5.01842e-23)
(1.09513 0.125245 1.66105e-20)
(1.03058 0.0376537 -9.51294e-21)
(1.00735 -0.00276503 4.99975e-23)
(0.994594 0.0710297 1.28985e-20)
(0.977016 -0.00157046 5.54923e-22)
(1.08576 0.0083926 -3.3232e-20)
(1.22948 0.0558457 -4.65615e-21)
(0.999621 -9.72968e-05 9.45877e-25)
(0.978602 -0.0411401 2.53098e-22)
(0.999998 -0.00157743 -1.73801e-23)
(1.06718 -0.00767823 3.53561e-21)
(1.17041 -0.101045 3.40518e-22)
(1.00039 -0.00347056 -2.16101e-23)
(1.20666 -0.10386 -3.30469e-22)
(0.955505 -0.0171384 -3.02797e-22)
(0.982577 -0.027717 6.44339e-23)
(0.998821 -0.00258587 4.04682e-24)
(1.00981 -0.0419693 -9.46717e-22)
(1.24595 -0.0150527 -8.30948e-22)
(0.976589 0.0267764 2.7192e-20)
(0.968981 -0.00441794 8.96838e-22)
(0.990144 -0.00327182 -2.36484e-22)
(1.10678 0.0612901 -1.02528e-21)
(0.999395 -9.90711e-05 -6.33617e-24)
(0.99628 -0.00729704 3.22833e-24)
(0.996403 0.0509026 8.27084e-22)
(0.995834 -0.00762752 8.39724e-23)
(1.10844 -0.0670279 3.32041e-21)
(0.999958 0.0750377 1.22043e-20)
(1.03652 -0.0371588 8.98928e-22)
(1.25543 -0.0484634 7.20138e-22)
(0.996726 -0.0030806 -2.99322e-23)
(0.987344 -0.0343352 1.42258e-21)
(0.999689 0.0126289 -1.22717e-20)
(1.06785 -0.074907 -4.92321e-22)
(1.00009 0.0701442 5.68295e-21)
(0.960118 -0.00503921 2.57592e-22)
(1.10895 0.00138142 2.6972e-21)
(1.00336 0.0297076 1.8061e-20)
(0.997068 -0.00756851 2.19758e-22)
(1.00207 -0.00406968 -5.10413e-24)
(1.14912 -0.160941 8.08783e-22)
(1.00762 -0.069411 1.70638e-21)
(0.971539 -0.00351209 -9.8819e-22)
(1.0285 0.0354358 4.59028e-20)
(0.991526 -0.0434684 -7.48585e-22)
(0.909858 0.0490748 4.67349e-21)
(1.10349 0.0571149 -9.57253e-21)
(0.982902 0.0751959 2.06379e-20)
(1.09763 0.0230939 -1.30117e-20)
(1.00033 -6.06904e-05 5.44086e-25)
(1.00005 -0.000283268 6.77601e-24)
(0.951249 0.00496086 -1.38916e-20)
(1.23466 0.050432 2.3604e-21)
(0.990631 -0.0034234 -1.42524e-22)
(0.960139 0.00320506 2.1295e-20)
(0.999616 -0.00414987 2.28642e-23)
(1.04941 -0.125532 -8.65408e-22)
(1.06283 0.0132061 -1.24363e-20)
(0.980302 0.0772893 -6.10921e-20)
(0.979075 -0.00995757 7.97941e-23)
(0.97265 0.0711954 -6.67265e-20)
(1.15764 -0.0914928 -1.6595e-21)
(1.09047 -0.00252126 -8.34734e-21)
(1.09093 -0.0724466 -2.07519e-21)
(1.02099 0.0833607 2.33174e-20)
(1.14574 -0.0752946 -2.2106e-21)
(0.988747 -0.000482385 -9.77693e-22)
(1.03525 0.0946787 5.34125e-21)
(1.17412 -0.163218 -3.2345e-21)
(1.03129 -0.143757 -1.85152e-21)
(0.981705 -0.0219294 6.00857e-22)
(1.03017 -0.0192965 -7.81937e-22)
(1.0694 -0.0690886 -4.88432e-22)
(1.00008 -7.22708e-05 -1.42368e-24)
(1.04369 0.0615039 2.26371e-20)
(0.997542 -0.00707711 -8.25297e-23)
(1.15094 -0.102285 -3.86883e-23)
(1.0029 0.0252278 -4.2706e-20)
(1.00033 -4.27804e-05 9.92804e-26)
(1.02788 -0.085749 1.34618e-21)
(1.12602 0.0179687 -5.76954e-21)
(1.01067 -0.0479704 -1.30814e-21)
(0.993981 -0.0278125 -1.46089e-22)
(1.10243 0.00274098 6.38033e-21)
(1.15184 0.116276 -2.37103e-20)
(0.996233 -0.0482997 1.03021e-21)
(0.940094 0.0174943 -1.45306e-20)
(1.04005 0.0634115 1.2064e-20)
(0.993121 -0.0556861 -9.74882e-22)
(0.978257 -0.0396137 -7.78001e-22)
(1.0367 -0.00382677 4.57257e-22)
(1.01272 -0.0156712 1.64318e-22)
(1.01674 0.0782487 -3.16289e-20)
(1.08728 -0.00508231 -2.37917e-21)
(1.20808 0.0699886 -5.98675e-21)
(1.02023 -0.0829038 -1.07105e-21)
(0.983717 -0.00994139 7.13941e-22)
(0.995277 -0.0735417 4.24775e-21)
(1.02451 -0.0884495 2.75363e-22)
(0.986024 -0.0354861 -1.3962e-21)
(1.25583 -0.0593517 4.32433e-22)
(0.970022 0.0776844 -2.09956e-20)
(1.18403 -0.00505208 3.14664e-21)
(1.01591 0.080597 2.85513e-20)
(1.12869 0.128369 -2.42859e-21)
(0.972768 -0.0106158 -6.73821e-22)
(1.15871 0.108616 -1.66877e-20)
(1.00924 -0.00316389 1.35808e-22)
(0.97224 -0.00974018 1.35314e-21)
(1.00126 0.0735904 1.45767e-21)
(1.00007 -0.000241642 -4.30458e-24)
(1.00613 -0.0642838 6.61895e-22)
(1.00201 -0.00365719 5.37677e-24)
(1.12544 0.13082 1.34358e-20)
(1.0251 0.0370319 -4.91853e-21)
(1.11539 -0.164993 5.65971e-21)
(0.951951 -0.0198346 5.7124e-22)
(0.988472 -0.047739 8.43425e-22)
(1.21246 -0.112241 4.09503e-22)
(1.03939 -0.139409 1.20388e-21)
(0.998779 -0.00239217 -6.5623e-24)
(1.18155 -0.000121772 -4.92752e-21)
(1.10307 -0.00264309 -1.26996e-21)
(0.912888 0.050947 1.10868e-20)
(0.980163 -0.0100659 5.4511e-22)
(1.14285 -0.167225 3.18605e-22)
(1.06398 -0.0765848 5.6913e-22)
(1.08467 0.0739234 -1.37088e-20)
(1.21265 0.0697515 1.93783e-21)
(0.990253 0.0567944 1.27825e-20)
(1.05274 0.110702 3.63286e-20)
(0.991608 -0.025662 2.7914e-23)
(0.917826 0.0144645 -1.64755e-20)
(1.1291 0.105214 1.18169e-20)
(0.996866 -0.000676178 3.14354e-23)
(0.989257 0.00737255 -3.21407e-20)
(1.07489 -0.067598 -5.83444e-23)
(1.02946 0.0982866 1.01422e-20)
(1.01221 0.0854633 -1.44619e-20)
(0.999832 -4.28824e-06 1.00776e-24)
(0.967347 0.0547778 9.17351e-22)
(1.05109 0.0965701 3.07775e-20)
(0.990787 -0.000654904 5.55666e-23)
(0.94906 -0.014427 3.22602e-21)
(1.03605 -0.034691 -5.86247e-22)
(1.06808 0.00983456 -3.16859e-21)
(1.15206 -0.0962836 3.25151e-22)
(0.939556 0.0430384 1.47612e-20)
(1.15014 0.112564 -8.08858e-21)
(1.21969 -0.034703 1.74477e-21)
(1.05916 0.00981682 2.50925e-20)
(1.10747 -0.0614218 3.01198e-21)
(0.952812 -0.020795 1.41836e-21)
(1.18239 0.083242 -1.07401e-20)
(0.968243 0.057578 -1.00349e-21)
(1.22714 0.0191297 -7.08326e-21)
(0.992794 -0.000257549 1.97377e-24)
(0.935904 0.0426627 -1.44132e-20)
(1.20152 0.0459041 -1.40182e-20)
(1.21967 -0.080845 -3.51985e-22)
(1.1692 -0.0946383 7.81841e-22)
(0.94648 0.0487853 -1.78363e-20)
(0.960905 0.0507111 4.19327e-20)
(0.970332 -0.022791 -5.79373e-22)
(1.00132 -0.0356958 -9.90918e-23)
(1.06717 -0.00455235 -4.84801e-22)
(0.956058 -0.0184801 -1.42688e-21)
(0.998644 -0.000131207 -2.6686e-23)
(0.997781 0.0522294 -6.09849e-21)
(0.988497 0.0209417 -1.15687e-20)
(0.972544 -0.0133035 1.02564e-21)
(0.963175 -0.031184 7.80021e-22)
(1.03109 0.0955642 1.56979e-20)
(0.999043 0.0197618 1.85656e-20)
(0.998565 -6.23904e-05 9.78988e-23)
(1.00173 0.0218592 -2.89021e-20)
(1.14978 -0.0705833 -1.09313e-21)
(1.01363 -0.0137765 -3.44622e-22)
(1.00552 -0.0517941 1.12612e-22)
(1.02805 0.0585479 -2.42818e-21)
(0.962687 0.0860352 1.95763e-20)
(1.09511 0.0206142 1.72012e-20)
(1.03634 0.0908605 -2.56892e-20)
(0.982643 -0.00992807 -1.2095e-21)
(1.00316 -0.0352048 -4.45471e-22)
(1.00012 -8.01241e-05 3.49156e-26)
(0.998983 -4.58776e-05 -3.85463e-23)
(1.00065 -0.00673371 1.17163e-22)
(1.1241 0.0155141 2.7518e-21)
(1.12 -0.104306 -6.55115e-23)
(1.02268 0.0810211 -2.97528e-20)
(1.00263 -0.0859122 1.16905e-21)
(1.02033 0.0299719 1.7616e-20)
(0.992723 -0.0419273 -1.34394e-22)
(1.08541 -0.0693014 1.45135e-21)
(0.992187 0.0555968 2.28162e-20)
(0.953691 0.00389232 7.1779e-20)
(1.029 0.0554432 4.18273e-20)
(1.00212 0.0680258 -3.50014e-20)
(0.96172 -0.0305766 -6.97848e-22)
(1.09061 0.11221 -1.00579e-20)
(1.0115 -0.0464772 1.4213e-21)
(1.09348 -0.00413278 1.68551e-20)
(0.997379 -0.0063947 -1.52852e-22)
(1.24414 -0.0941808 -1.15431e-21)
(1.15464 -0.0464014 6.82562e-21)
(1.07466 -0.0229487 5.48482e-21)
(0.999639 -7.37359e-05 -1.18376e-24)
(0.986945 -0.000671102 1.14345e-21)
(0.959447 0.0878474 -3.01056e-20)
(1.14863 0.0407743 4.10993e-20)
(1.01297 -0.0183965 1.5188e-22)
(0.976005 -0.0445815 -1.38848e-21)
(1.11486 -0.100259 -8.79839e-23)
(1.06734 -0.153945 2.89358e-21)
(1.09125 0.1243 -2.0715e-21)
(0.996247 -0.0726771 -1.16606e-21)
(0.973062 -0.00191131 -1.01772e-21)
(0.99865 -0.056948 1.39015e-21)
(0.994616 -0.0246629 -1.5971e-22)
(0.999316 -7.7282e-05 1.41466e-24)
(0.991855 -0.0400395 6.81682e-22)
(1.04278 -0.139467 -5.90665e-22)
(0.969295 0.0746752 3.97694e-20)
(1.24258 0.0236271 3.38145e-21)
(0.98312 -0.0209059 -1.16394e-21)
(1.01827 0.0314352 -2.71756e-20)
(0.962549 0.0543147 -4.97456e-21)
(0.992127 -0.045163 1.54269e-22)
(1.0006 -0.000242367 -1.50238e-24)
(1.00548 -0.0668135 -1.20455e-21)
(0.996552 0.0479936 7.04872e-21)
(1.22568 -0.129714 -1.20124e-21)
(0.978348 0.02483 -4.10814e-20)
(1.00005 -8.56053e-05 7.52752e-25)
(0.964932 -0.0340842 1.30827e-21)
(1.0428 0.110674 2.9293e-21)
(0.99946 0.0193719 3.7841e-20)
(1.02834 -0.0639783 -1.59639e-22)
(0.983732 -0.0264606 7.32453e-22)
(0.94764 0.0796727 3.19217e-20)
(1.21295 -0.0660923 -3.49299e-22)
(1.21314 -0.0382815 -1.26272e-21)
(0.975958 0.0721217 2.75293e-20)
(0.942018 0.0483325 -3.0117e-21)
(0.99102 -0.0466996 -4.5119e-22)
(1.04141 0.112955 -1.87005e-20)
(1.13015 -0.00725595 -8.10464e-21)
(1.00481 0.0298288 -4.93469e-20)
(1.05638 0.0675985 1.39039e-20)
(1.00062 -0.00017843 1.09608e-24)
(1.24939 0.025854 -2.85872e-21)
(1.07886 0.0711681 8.27393e-21)
(0.996709 -0.000597272 1.06377e-22)
(1.00146 -0.0906053 -4.66984e-22)
(1.2141 0.0231128 -2.89839e-21)
(1.13009 -0.159601 -9.35411e-22)
(1.19959 0.0403583 7.93876e-21)
(1.15898 -0.0283937 -3.91185e-21)
(1.00011 -0.000153767 -1.06348e-24)
(0.999678 -0.00293516 6.12395e-23)
(0.984368 0.0852226 -4.89659e-20)
(1.00137 -0.0120182 -2.96362e-23)
(1.01135 -0.108171 -1.27336e-21)
(0.993916 -0.0600669 1.48616e-22)
(1.17555 0.106069 -9.0196e-21)
(0.971592 -0.00432656 -1.76717e-22)
(1.03053 0.100733 1.79454e-20)
(1.1747 0.0131656 1.0551e-20)
(0.996579 -0.0574264 8.39232e-22)
(0.957684 -0.00604431 -7.19502e-22)
(1.08877 0.0706321 1.49258e-21)
(1.17248 0.0808045 7.88842e-21)
(1.00007 -0.000157328 -1.34072e-24)
(0.980336 0.053353 4.08532e-20)
(1.03942 0.0665437 6.0952e-21)
(0.992379 0.0154863 -9.98951e-21)
(1.20926 -0.0948631 -1.34855e-22)
(0.999417 -7.37187e-05 4.82981e-24)
(0.948662 0.076678 -2.0964e-21)
(0.997486 -0.00444885 -1.53155e-22)
(0.995569 -0.0442061 2.78306e-22)
(1.17855 0.079113 -3.308e-21)
(1.21979 0.0171468 8.82481e-22)
(0.985555 -0.0469634 -1.18703e-21)
(1.21227 -0.0754233 -7.68159e-22)
(1.02299 0.0351736 7.00499e-21)
(0.952959 0.00479376 2.61451e-20)
(1.00988 0.0775047 -3.74301e-20)
(1.1511 0.0190188 -1.23858e-20)
(0.909238 0.0192904 3.55074e-21)
(1.0003 -1.00968e-05 -5.01957e-25)
(0.992781 -0.0243201 -1.87655e-22)
(1.00002 0.0120555 5.00189e-20)
(1.17305 -0.135445 2.26875e-22)
(1.07828 0.0678485 -1.95203e-20)
(0.989155 -0.0347052 -5.5947e-22)
(0.996803 0.0692684 3.47815e-20)
(1.16107 -0.00279762 6.74897e-21)
(1.00019 -0.00318296 2.8422e-23)
(1.1566 -0.0069087 -5.89702e-21)
(1.04382 0.0571297 -2.91712e-20)
(1.13909 -0.141789 1.93946e-23)
(0.971971 0.00674893 -7.45957e-21)
(1.05637 0.100841 4.39487e-21)
(0.999404 -0.000296948 -3.21759e-24)
(1.03192 -0.0174313 -1.48891e-21)
(1.11694 0.0871892 1.03144e-20)
(1.10077 0.00060052 2.32788e-20)
(0.997896 -0.000108531 -9.81818e-23)
(1.05349 0.107716 -3.2505e-20)
(1.01178 -0.0413147 -9.37703e-23)
(0.901101 0.0497773 -1.9628e-21)
(1.02115 -0.0871613 -1.95692e-21)
(0.971883 -0.01215 4.45449e-22)
(0.987631 -0.000768963 -1.04541e-21)
(1.01091 0.0802733 4.17878e-20)
(1.05106 0.0941264 -4.90949e-20)
(0.974507 -0.00271842 4.47991e-22)
(1.08715 0.0652294 5.32089e-21)
(0.982508 0.0716656 -1.19374e-20)
(1.00145 -0.0129007 -3.02184e-23)
(1.04153 0.00529011 7.21184e-21)
(1.02207 0.0147882 -1.9858e-20)
(0.900656 0.0288459 2.34755e-20)
(0.997824 -0.00372643 4.72175e-23)
(1.15533 0.0873583 -1.79422e-20)
(1.14978 -0.0508434 -1.99571e-21)
(0.954044 -0.0167392 -5.07361e-22)
(0.999611 -6.26363e-05 1.49794e-24)
(0.999726 0.00684947 3.00431e-20)
(1.0966 0.128315 9.72324e-21)
(1.22214 -0.00417946 -1.51844e-20)
(0.99172 0.0850304 -1.26178e-20)
(1.14657 0.0220478 6.22832e-21)
(0.981097 -0.027403 5.14751e-22)
(1.09338 0.108489 -7.50451e-21)
(1.10218 -0.0014865 -4.15442e-21)
(1.14308 0.0377152 1.16646e-20)
(0.906426 0.0309862 -6.13723e-20)
(1.02296 -0.0763172 6.0764e-22)
(1.18662 0.0713762 4.32314e-21)
(0.991133 0.0192981 -2.61889e-20)
(0.974868 -0.0453252 1.26784e-21)
(1.12484 -0.016605 6.18248e-22)
(1.05543 -0.125831 1.99533e-21)
(1.11929 0.0831741 -4.56272e-21)
(0.994091 -0.000192113 -1.545e-21)
(1.08987 0.00926583 -3.80267e-21)
(1.22295 0.00290353 6.54977e-21)
(1.18897 0.0664342 1.09647e-20)
(1.00116 -0.00405662 4.73272e-23)
(1.08328 0.00651299 3.51474e-20)
(0.997195 0.0135029 -2.50856e-20)
(1.04555 0.0402373 5.24595e-20)
(1.13026 -0.155427 -3.65951e-21)
(0.995629 -0.0232625 3.52765e-22)
(0.94942 0.0449745 -2.07975e-20)
(0.946969 0.0168781 -5.35565e-20)
(0.997814 -0.00598751 -3.46136e-23)
(0.96637 -0.0333093 6.09898e-22)
(1.01578 0.0588507 5.52152e-21)
(1.01522 -0.113421 -1.03273e-21)
(1.0799 -0.0720061 -1.15512e-21)
(1.08998 0.120098 3.12944e-20)
(0.989441 -0.00051741 1.30359e-21)
(0.895615 0.0261472 3.98978e-20)
(1.0297 -0.0571985 -1.56116e-23)
(1.14608 0.0940305 5.71455e-21)
(0.992208 -0.00876873 6.64358e-23)
(0.99543 0.0132535 -1.0692e-20)
(1.05939 0.0983881 -9.1074e-21)
(1.07491 -0.0178779 -5.5238e-21)
(1.09173 -0.0780374 3.69366e-22)
(1.22081 -0.0285849 -2.77408e-21)
(1.19929 0.0503111 1.49182e-21)
(0.999764 -0.00450435 -1.30157e-24)
(1.01295 0.0485286 -1.02e-20)
(1.26213 -0.0428484 -1.63797e-21)
(1.09878 0.0569688 2.34487e-20)
(0.903936 0.0522045 6.14356e-20)
(1.21885 -0.0910201 -7.31678e-23)
(1.06072 -0.0658896 1.49753e-21)
(1.00037 -0.00730863 -1.1812e-22)
(1.23018 0.0625717 9.84599e-21)
(1.23311 0.013516 4.10889e-21)
(0.980453 -0.0214308 2.02225e-21)
(1.07597 0.110338 -2.8804e-21)
(1.00006 -0.0012026 -2.65551e-23)
(0.979566 -0.0366147 -2.70311e-22)
(1.01284 -0.0124811 4.98218e-22)
(1.20556 -0.0613227 -2.56727e-22)
(0.992858 -0.0384449 5.78979e-22)
(0.999639 -0.000124938 -7.02625e-25)
(0.992128 -0.0496466 1.67653e-21)
(1.18827 0.0823769 -5.65376e-21)
(1.13983 -0.149688 -1.21133e-21)
(1.04186 -0.0603694 1.07877e-23)
(0.969038 -0.0233846 -1.16916e-21)
(1.20692 0.0218125 -9.63155e-21)
(1.15327 -0.0254257 6.19104e-21)
(0.981042 -0.0468122 -6.2924e-22)
(0.953082 -0.00860893 2.27246e-21)
(1.0009 -0.00424678 -8.18638e-24)
(1.11377 -0.0699664 -3.50536e-21)
(1.0247 -0.122137 -1.52713e-22)
(1.01041 -0.00265262 -1.10464e-22)
(1.03115 -0.061081 2.47136e-22)
(1.1682 0.0771412 -1.23307e-20)
(1.04696 0.0372691 -3.2098e-20)
(1.18553 0.00767895 2.37397e-21)
(0.999362 -0.000255197 -8.46652e-24)
(0.942199 0.0842775 -4.64381e-20)
(1.01055 -0.00137919 -4.31686e-22)
(0.999998 -0.00130241 3.18392e-23)
(1.03454 -0.00886371 1.35879e-21)
(0.969658 -0.0334756 -9.83138e-22)
(1.01039 -0.0789853 1.40062e-22)
(0.963313 0.0472178 -2.47536e-20)
(1.02151 -0.0470828 1.89815e-23)
(1.12596 -0.00646983 -3.67676e-21)
(1.02069 -0.105877 2.19475e-21)
(1.0181 -0.107675 -2.92667e-21)
(1.09263 0.116771 -2.17213e-20)
(0.997288 -0.044693 -4.35774e-22)
(0.995716 -0.0693927 7.74415e-22)
(1.003 -0.0891416 1.02542e-21)
(0.999653 -4.3226e-05 -2.52092e-24)
(1.15641 -0.0840404 1.38131e-21)
(0.933426 0.0809145 -4.45536e-21)
(1.06955 -0.148682 7.12832e-22)
(0.968231 -0.0418684 -2.39789e-22)
(1.0755 0.105772 -3.93528e-22)
(0.986359 -0.0443155 -1.24474e-22)
(1.0562 0.0636288 -1.15749e-20)
(1.1609 0.111707 -1.90311e-21)
(0.997098 -0.00476138 2.38343e-22)
(0.998553 -0.000190781 2.12197e-23)
(1.03587 0.0606139 3.5792e-21)
(0.910923 0.0631164 2.00452e-20)
(1.05534 -0.147187 1.98058e-22)
(1.13379 0.121985 3.01795e-21)
(1.1983 0.0860266 -1.56039e-20)
(0.973003 -0.0372147 -4.1392e-22)
(0.973056 -0.039017 -9.64489e-22)
(1.01709 0.0614518 -1.5217e-21)
(1.08761 -0.00939851 3.56778e-21)
(1.14871 -0.153206 2.62025e-21)
(1.05885 -0.120256 -1.43947e-21)
(0.978279 -0.00163797 6.19802e-23)
(1.054 -0.0126996 2.67505e-21)
(0.947473 0.0252127 -9.27673e-21)
(1.12497 0.00725534 -2.22931e-20)
(1.00028 -6.82764e-05 6.52697e-25)
(0.971397 0.0685198 4.30123e-20)
(1.0321 -0.0544331 1.18555e-22)
(1.01155 -0.080399 1.63144e-21)
(1.04576 0.1095 -1.70234e-20)
(1.01528 -0.0203513 4.20343e-22)
(0.991539 -0.0084104 -2.03987e-22)
(0.999436 -0.000423364 -5.04293e-24)
(1.1409 -0.0618841 2.14622e-21)
(0.970227 -0.0180936 -9.36285e-22)
(1.00029 -1.51866e-05 7.97992e-25)
(1.13639 0.124034 -7.41502e-21)
(1.22801 -0.121959 -7.3862e-22)
(1.01115 0.047298 -1.75995e-20)
(0.999286 -0.000109933 1.96434e-24)
(1.00029 -0.00380373 -1.157e-23)
(0.985456 -0.045471 -5.76668e-22)
(1.00001 -6.90885e-05 1.00927e-25)
(1.05622 -0.151678 -1.02221e-21)
(1.1655 -0.150167 -1.13569e-21)
(0.99979 -0.00381744 1.30594e-23)
(1.00887 -0.0633655 -4.7077e-22)
(0.950281 -0.0142386 7.60982e-22)
(1.04516 0.0993258 -1.8051e-21)
(0.990006 0.0840271 1.02476e-20)
(0.997443 -0.00406005 4.83947e-23)
(1.00282 -0.0009817 -1.90649e-23)
(0.999997 -0.0845144 -2.76321e-21)
(0.986371 0.0765771 3.2606e-20)
(1.00473 -0.0290525 3.57399e-22)
(0.98147 0.0500609 -1.1546e-21)
(0.984551 -0.0108349 -8.17116e-23)
(0.898724 0.0412227 -1.673e-20)
(1.0363 0.01206 -3.91968e-21)
(1.12093 0.0537178 -2.4539e-20)
(0.921152 0.0507835 -1.82886e-20)
(1.25956 -0.0318761 -1.34058e-22)
(0.991209 -0.00279963 -8.02859e-23)
(1.14288 -0.0500045 1.8443e-21)
(1.00846 -0.0299844 -4.35736e-23)
(0.992021 0.0760405 8.28893e-21)
(1.01599 0.0531968 2.39436e-20)
(0.973935 -0.0076978 5.29154e-22)
(1.23689 -0.0896965 6.55266e-22)
(1.11148 -0.0216551 -5.91003e-22)
(1.05821 -0.0697621 1.3226e-22)
(0.995427 -0.000307301 -1.49121e-22)
(1.2441 -0.103849 1.1469e-21)
(1.00027 -2.00143e-05 1.43134e-24)
(1.0427 0.0963232 1.06388e-20)
(0.948717 -0.0134277 -2.95728e-21)
(0.99493 -0.0555341 -2.82962e-22)
(0.997391 -0.0267677 3.15489e-22)
(1.00738 -0.0509218 1.62982e-21)
(1.14334 0.0896511 1.75678e-21)
(1.18258 0.0128408 -9.03392e-21)
(0.998198 -6.39531e-05 1.28719e-22)
(1.02399 -0.045213 4.13326e-23)
(0.9999 -0.000115446 1.29156e-24)
(0.899328 0.0385143 1.25572e-20)
(0.951524 0.0227505 1.91157e-20)
(0.995416 -0.00104837 -7.91439e-23)
(0.976203 -0.0119605 -5.36716e-22)
(1.03105 -0.0332783 7.64153e-22)
(1.01761 0.0558981 1.02907e-20)
(0.949056 -0.0209922 -1.47059e-21)
(1.20079 0.0897009 -3.42522e-21)
(0.970053 -0.0427482 2.6208e-22)
(1.00618 0.077129 -7.50102e-22)
(1.12425 0.0575623 -2.78133e-21)
(0.969508 -0.019661 -6.29091e-22)
(0.902883 0.0211831 -2.55805e-20)
(1.04736 -0.00219514 -2.53671e-21)
(1.01357 0.0814898 -2.23435e-20)
(0.994004 -0.01242 3.07372e-23)
(1.02644 -0.129691 4.63068e-21)
(0.976582 0.0041229 -6.25028e-20)
(1.01389 -0.037612 1.91736e-22)
(0.909236 0.0671697 -9.07864e-21)
(1.02565 0.0651092 1.31707e-21)
(0.906757 0.0236885 -6.15336e-21)
(0.991713 -0.00288049 5.01097e-23)
(0.992003 -0.000585165 3.89779e-22)
(1.02734 -0.0817718 -4.15581e-22)
(1.15348 -0.0395192 -9.34973e-21)
(1.01416 -0.0202046 -4.63155e-22)
(1.02644 -0.073852 -1.31041e-22)
(1.00997 0.0721261 2.0288e-21)
(1.00537 0.0834321 6.90559e-21)
(1.03785 0.00213616 5.2228e-24)
(0.988871 0.0746931 -2.32942e-20)
(0.916984 0.0715241 4.97363e-21)
(1.12266 0.100182 1.8874e-20)
(0.998901 0.00780938 -4.29524e-20)
(1.04226 0.0311799 -1.00725e-20)
(1.00502 -0.0154807 -1.0656e-22)
(1.03319 0.0623385 -1.17408e-21)
(0.994354 -0.0689376 -6.70311e-22)
(0.971469 -0.0417304 6.87403e-22)
(0.998888 -0.00115084 5.21688e-24)
(1.05244 -0.0697694 -4.09212e-22)
(1.10404 -0.134678 -4.20854e-22)
(1.07546 0.0367035 8.5816e-21)
(1.07654 -0.00806688 6.76857e-21)
(1.00262 0.0278329 3.54171e-21)
(1.0093 -0.0437746 8.67765e-22)
(1.11422 -0.0132677 3.48308e-21)
(1.004 0.0221189 -4.13887e-21)
(1.00956 -0.0314242 2.96324e-22)
(1.0886 -0.0817161 -7.87637e-22)
(0.999931 -0.000140017 -2.22279e-25)
(1.00043 -0.00020341 5.85767e-25)
(1.07438 0.0332336 -2.72489e-23)
(0.995796 -0.0596768 -8.21399e-22)
(0.976447 -0.038942 1.06858e-21)
(1.00048 -0.000193029 -7.12549e-25)
(1.00013 -0.00265187 1.729e-23)
(1.11089 -0.0254604 -1.04293e-21)
(0.999446 -7.13071e-05 -3.08338e-24)
(1.23241 0.0425929 -4.91137e-22)
(0.899765 0.0313593 3.22839e-20)
(1.12889 0.124102 1.12883e-21)
(1.10567 0.0660368 -6.92222e-22)
(0.969848 -0.00755125 -8.43934e-22)
(1.02738 0.0864937 8.1815e-21)
(1.22377 0.0673887 -5.0626e-21)
(1.00511 -0.0270771 -2.0788e-23)
(0.976873 -0.0132349 -5.1512e-22)
(0.997815 -0.00345351 2.69543e-25)
(0.999383 -0.000379852 2.39577e-24)
(1.00172 -0.00430321 -1.72746e-23)
(0.998012 -0.0284237 2.79468e-22)
(1.04029 -0.129099 2.31617e-21)
(1.09176 0.0815884 2.71681e-20)
(1.17802 -0.0393969 1.76389e-21)
(0.964718 -0.00360998 1.90546e-22)
(0.999907 -7.89825e-05 -2.1259e-25)
(1.00152 0.0476609 2.35864e-20)
(1.23859 -0.0152491 -5.11218e-21)
(1.24638 -0.0648902 -2.85336e-22)
(1.01602 -0.0386516 -2.06215e-22)
(1.20375 0.0673673 7.1668e-21)
(1.05075 -0.0724289 -5.24555e-23)
(0.983032 -0.00087409 -1.46415e-22)
(1.00258 0.0194713 2.08333e-20)
(0.978393 0.000819396 -8.00061e-20)
(1.06202 0.120013 -2.25417e-20)
(0.989466 -0.000411803 -8.81293e-22)
(1.05959 0.119305 1.74542e-20)
(0.96968 -0.00550477 3.34378e-22)
(0.988751 -0.041427 -7.28511e-22)
(1.11532 0.116866 -2.11054e-20)
(1.00026 -8.42541e-05 1.29394e-24)
(0.991983 -0.0271759 -1.09573e-22)
(1.15458 0.0918187 6.13649e-21)
(1.11903 0.0910795 2.19066e-20)
(0.970754 -0.0211495 -1.63038e-22)
(1.02103 0.0559967 1.57073e-21)
(0.965979 0.0881371 -2.03616e-21)
(1.0145 0.0268162 -4.81048e-20)
(0.968076 -0.0343281 1.5235e-21)
(0.954175 -0.00849417 -1.06349e-21)
(1.04507 -0.0571315 2.62298e-22)
(1.10592 -0.00187442 6.34123e-22)
(1.02081 0.0123081 -1.18009e-20)
(0.995745 -0.00140146 -2.67249e-23)
(0.974649 0.00941957 -2.3379e-20)
(0.994927 -0.0422202 1.49174e-21)
(1.03068 -0.12949 -3.11725e-21)
(1.13958 -0.0447091 2.05051e-21)
(0.93924 0.0859617 6.60283e-20)
(1.09307 0.0863712 -2.24572e-20)
(1.01324 0.0534225 -2.51625e-20)
(1.17407 -0.144548 5.42735e-22)
(0.961701 0.00233176 -3.54477e-20)
(0.971905 -0.017841 9.44179e-22)
(0.989915 -0.0398815 5.24737e-22)
(0.923325 0.0111911 1.23134e-20)
(1.07184 -0.0252845 -1.76941e-21)
(1.04056 -0.11968 -4.1197e-22)
(1.01483 0.07532 -5.14563e-21)
(1.00478 0.0741188 -1.57086e-20)
(0.981038 -0.0353826 -9.71265e-22)
(1.0252 0.0160947 -2.67096e-20)
(0.986849 0.0797656 -4.33002e-21)
(1.00548 0.0686941 2.05305e-20)
(1.03682 0.101577 6.79566e-21)
(1.01151 0.0753688 3.31596e-20)
(1.0528 0.0698256 -1.80506e-20)
(0.987698 -0.00358105 3.25103e-22)
(0.973022 -0.01924 1.11524e-21)
(1.00267 -0.00686586 -6.58918e-24)
(1.01318 -0.106173 3.3072e-21)
(0.993505 0.0209649 -6.05808e-21)
(1.01815 -0.112228 1.92728e-21)
(1.1711 0.0868002 -5.55214e-22)
(1.14289 0.0493194 -1.49259e-20)
(0.977315 -0.0449448 7.34689e-22)
(1.22553 0.0406411 1.99139e-23)
(1.16127 0.104119 -6.09958e-21)
(0.991802 0.0091826 -1.84462e-21)
(1.21642 0.0308706 3.70174e-21)
(0.999801 -0.00320062 -6.37378e-24)
(1.05709 -0.012472 1.21711e-22)
(0.988318 -0.0446528 3.58064e-22)
(1.22145 -0.0615738 1.09657e-22)
(1.23818 -0.0604499 9.66042e-22)
(1.02139 -0.119181 6.45272e-22)
(1.0378 0.0975208 3.84248e-21)
(0.978895 0.0861008 3.44284e-20)
(1.16533 -0.0242607 4.44355e-21)
(0.996744 0.00881737 1.90098e-20)
(0.908951 0.059489 -2.23298e-20)
(0.99832 -0.000115422 -2.61562e-23)
(1.00311 -0.00100446 3.93508e-24)
(0.997144 -0.00523815 -1.06514e-22)
(0.974953 -0.00810661 1.91409e-22)
(1.07566 0.0773233 -1.4211e-20)
(0.923751 0.0127635 -2.67497e-20)
(1.12701 0.0106878 1.92075e-20)
(1.02881 0.0925748 4.89407e-21)
(0.984707 -0.0216495 -5.69042e-22)
(1.06822 0.110899 2.97268e-20)
(1.06501 0.117196 9.49592e-21)
(1.22203 -0.11307 2.14068e-22)
(0.961453 -0.0116685 9.9468e-22)
(0.950178 -0.0198665 8.96479e-22)
(1.17507 0.0906283 1.55535e-21)
(1.01208 -0.0385464 1.40053e-22)
(1.17671 -0.0345218 2.62014e-21)
(0.974592 -0.0361975 2.19004e-22)
(0.958026 -0.0358281 -2.22709e-21)
(1.02035 0.0778567 3.67882e-20)
(0.992641 -0.002446 1.64746e-22)
(1.02487 -0.0517207 -1.89953e-23)
(1.00663 0.082147 1.71561e-20)
(1.22364 0.0327662 1.61808e-20)
(0.946186 0.0731226 7.55084e-21)
(1.0164 -0.0761295 -7.51842e-22)
(1.04034 0.0105738 1.2871e-20)
(1.22942 -0.0661497 -5.87389e-22)
(1.00164 -0.06299 3.06321e-22)
(0.97747 0.00716759 -8.61115e-21)
(0.98905 0.000504896 5.19006e-20)
(0.990568 0.0261268 -9.4058e-21)
(0.995434 -0.0302515 -6.89745e-22)
(0.938968 0.0158583 2.93235e-20)
(0.969716 -0.0316227 7.78887e-22)
(0.976712 0.0642978 1.06088e-21)
(1.11204 -0.0566907 -1.15576e-21)
(0.988276 0.0405952 -5.34362e-21)
(0.985724 -0.0426263 4.52229e-22)
(1.00005 -0.000202731 -5.48785e-26)
(0.988018 0.0356755 1.77108e-20)
(0.974655 0.0578472 2.0537e-20)
(0.9789 0.0698811 -3.29595e-20)
(0.988787 0.0309667 -2.06266e-20)
(1.06836 0.0053484 -4.62231e-20)
(1.12192 -0.0141515 -3.04125e-22)
(1.06479 0.067407 -3.521e-20)
(1.03781 -0.115981 9.92117e-22)
(0.996191 0.0181254 6.20545e-20)
(1.02069 0.0500968 -3.12608e-20)
(1.23217 -0.0197353 6.25354e-21)
(1.07961 -0.0104953 -7.14095e-21)
(0.988072 -0.00340534 1.82824e-22)
(1.26562 -0.0265651 4.88567e-22)
(1.02601 0.080398 -6.26255e-21)
(0.958251 -0.0281724 6.16013e-23)
(0.969188 -0.0046962 -1.02838e-21)
(0.990354 0.00481905 -1.23164e-20)
(0.983939 0.0437831 -3.79286e-20)
(0.992308 -0.048383 -6.72394e-22)
(0.991155 0.0474557 2.7778e-20)
(1.02373 -0.126396 1.10822e-21)
(1.20272 0.0616658 -1.18555e-20)
(0.993207 -0.000336483 -3.23013e-22)
(0.979225 0.0472293 -2.13025e-20)
(0.973832 0.0513907 5.41428e-20)
(0.908719 0.0344662 4.99021e-20)
(0.983953 0.0819744 4.49224e-20)
(0.99679 -0.000387619 -3.67918e-23)
(0.984919 -0.0234341 3.74433e-22)
(0.998739 -0.00118754 -4.44722e-23)
(0.998476 -0.0660375 -2.59895e-21)
(0.945935 0.0573855 -1.07446e-20)
(1.11825 0.0735408 -3.16821e-20)
(1.03371 0.0881673 -3.6453e-22)
(0.958392 -0.0344171 1.45501e-21)
(1.04258 0.0340483 3.16558e-20)
(1.03306 -0.0324297 -8.996e-22)
(0.945752 0.065591 1.55678e-20)
(1.07981 -0.0881977 9.68862e-23)
(0.994682 0.00753493 2.10279e-20)
(0.993405 -0.000331271 -1.94954e-22)
(0.953421 0.0539282 -3.6142e-20)
(0.938672 0.0695797 -4.33537e-20)
(0.983411 -0.0245447 -9.65796e-22)
(1.16902 0.0370904 7.50555e-21)
(0.954347 0.0458641 -3.60622e-20)
(0.99631 -0.000582406 1.64993e-22)
(0.925522 0.0342458 -5.63727e-21)
(1.04266 -0.0639682 -4.06504e-23)
(0.996213 -0.000407506 -4.65174e-23)
(0.960089 -0.0128376 -6.95281e-22)
(1.0137 0.0845651 -2.17988e-20)
(1.14088 0.0651753 -1.91046e-20)
(1.00886 -0.0892502 1.50911e-21)
(0.995522 0.0822882 1.76274e-21)
(0.934692 0.0777599 2.87044e-21)
(1.06472 0.113206 -3.22203e-20)
(1.05074 -0.00948675 -1.33103e-21)
(1.00045 -0.0586683 4.90638e-22)
(1.13854 -0.056347 -2.44297e-21)
(0.984879 0.0493796 3.12436e-20)
(0.934145 0.034288 -3.26008e-21)
(0.903097 0.0334128 3.22871e-21)
(1.11683 0.063827 4.90028e-21)
(1.00068 -0.0092335 2.22959e-23)
(0.976222 -0.00184265 9.54264e-23)
(1.02825 0.082984 -2.22303e-20)
(1.00191 -0.00714807 1.23315e-23)
(0.985805 -0.00517309 -3.12027e-24)
(1.00301 -0.0111881 -4.59079e-24)
(0.995246 -0.0264332 -3.42938e-22)
(1.07902 -0.130491 1.45132e-21)
(1.16326 -0.13247 -6.58799e-22)
(0.967051 0.0692715 -4.79627e-20)
(1.01858 -0.0427655 1.31347e-23)
(0.999048 -0.000954264 2.89579e-23)
(1.02643 0.0524112 -4.83831e-22)
(1.13725 0.0903893 1.56188e-20)
(1.00196 -0.0113495 -2.45017e-23)
(1.18044 0.072353 -9.27909e-21)
(1.0017 -0.00120542 -1.95574e-25)
(1.13229 0.0496997 1.6686e-21)
(1.0145 0.0282515 3.36979e-20)
(0.989067 0.0454885 -5.38679e-20)
(1.13146 -0.13741 8.43359e-22)
(1.15345 0.0376292 -1.01938e-20)
(0.994793 -0.0126968 -6.33121e-23)
(1.10871 -0.0887039 -1.91882e-22)
(0.995494 -0.0017181 -1.20137e-23)
(0.981925 0.0557398 -5.53567e-20)
(0.965576 0.0674945 1.48527e-20)
(1.19317 -0.137903 4.9193e-22)
(1.15709 -0.146872 7.05012e-22)
(1.12223 -0.150374 3.08269e-21)
(1.03028 -0.0756182 4.79475e-22)
(0.992419 0.0789963 3.72772e-21)
(1.03274 -0.0689696 2.12941e-22)
(1.09867 -0.122419 3.39827e-22)
(1.06593 -0.142871 -8.44565e-22)
(1.10257 -0.0778546 1.03547e-21)
(0.917172 0.0344539 2.74077e-20)
(1.12435 -0.166123 -5.9032e-21)
(1.21713 0.00844288 -1.04114e-21)
(0.985347 0.0158707 1.07645e-20)
(0.994625 -0.000445557 1.87283e-22)
(1.17287 0.0180402 4.40707e-21)
(1.03487 -0.0619944 -1.55366e-22)
(1.06614 -0.131238 1.4137e-21)
(0.995719 -0.00108771 4.03371e-24)
(0.99979 -0.00271663 -1.9648e-23)
(0.919399 0.0429889 -4.67418e-20)
(1.04965 0.0362016 2.43437e-20)
(1.18938 -0.145794 2.5768e-21)
(1.26205 -0.00021496 1.40886e-21)
(1.05169 0.0614968 -1.31162e-20)
(0.994134 0.0463817 -4.37776e-21)
(1.02291 0.0531541 9.54157e-21)
(1.20291 -0.0797043 7.205e-22)
(0.98655 -0.0477952 1.28684e-21)
(0.995999 -0.0404526 -3.88524e-22)
(0.989418 -0.0431917 -1.04901e-22)
(1.0331 0.0540839 -3.18638e-20)
(0.970073 -0.00592685 9.36819e-22)
(1.00461 -0.0597557 6.96839e-22)
(0.999654 -4.26596e-05 4.6125e-25)
(0.974613 -0.0188729 -1.86741e-21)
(0.997814 -0.000639131 2.79789e-24)
(1.09793 -0.137148 9.68378e-22)
(1.00905 0.082406 -2.03945e-20)