/*--------------------------------*- C++ -*----------------------------------*\
  =========                 |
  \\      /  F ield         | OpenFOAM: The Open Source CFD Toolbox
   \\    /   O peration     | Website:  https://openfoam.org
    \\  /    A nd           | Version:  7
     \\/     M anipulation  |
\*---------------------------------------------------------------------------*/
FoamFile
{
    version     2.0;
    format      ascii;
    class       volVectorField;
    location    "30";
    object      U;
}
// * * * * * * * * * * * * * * * * * * * * * * * * * * * * * * * * * * * * * //

dimensions      [0 1 -1 0 0 0 0];

internalField   nonuniform List<vector> 
117990
(
(1.03109 -0.10084 -5.48591e-19)
(0.998073 1.34275e-05 -2.93752e-21)
(0.680505 0.0530845 -1.87625e-19)
(0.826007 -0.0985597 4.22667e-20)
(1.13205 -0.0763973 5.25718e-20)
(0.897136 -0.136652 -3.84166e-22)
(0.659096 0.0184364 -1.29224e-18)
(1.20423 -0.129485 -1.26419e-19)
(0.953938 -0.061335 -6.85892e-22)
(0.998007 8.94329e-05 6.214e-22)
(0.960562 -0.00382544 9.14882e-21)
(1.02469 -0.0202879 5.05095e-21)
(0.992083 -0.113233 5.71932e-20)
(0.0156937 -0.0392393 1.41962e-18)
(0.953685 -0.062738 6.84471e-21)
(0.229472 -0.187555 3.18e-18)
(0.979801 -0.0504632 2.2065e-21)
(0.943874 -0.0347608 -1.15474e-20)
(1.02509 -0.279002 1.28288e-18)
(1.1328 -0.0745587 1.88696e-19)
(1.20813 -0.0995109 -1.2057e-18)
(0.454191 -0.0091172 -2.10245e-20)
(0.935913 -0.045361 -1.02548e-20)
(0.784917 -0.0724611 2.47137e-20)
(1.45711 -0.0583851 9.07227e-19)
(0.79104 0.442945 1.47587e-18)
(-0.196538 0.385894 -1.65855e-19)
(1.29724 0.00624876 9.68472e-19)
(0.996979 -0.00876485 3.31731e-21)
(1.13211 0.395038 -1.19237e-18)
(0.978142 -0.00804325 7.60074e-21)
(1.13391 0.197952 3.49624e-19)
(1.17972 -0.0302243 -7.13103e-20)
(0.523193 0.0120035 1.01503e-19)
(1.49361 -0.0474426 3.89543e-19)
(0.773085 -0.114652 8.11528e-20)
(0.698554 0.20475 2.16684e-19)
(0.979789 -0.05153 -1.09119e-21)
(0.149869 2.439 2.73452e-20)
(0.784231 0.0797476 3.01922e-18)
(1.13472 0.199277 -6.79158e-19)
(0.943191 -0.0359116 -2.15868e-21)
(0.717505 0.0610509 4.24384e-19)
(0.771714 -0.112285 -5.69463e-20)
(0.935209 -0.251182 5.27702e-20)
(0.0192614 -0.0370266 -1.47779e-18)
(1.11484 -0.0110482 6.83493e-19)
(1.275 -0.0126863 1.6667e-19)
(1.0742 -0.0820126 7.44866e-20)
(1.02437 -0.00220327 -2.30583e-20)
(1.00106 -9.50629e-05 1.52513e-23)
(0.598158 -0.0133742 7.54185e-20)
(1.12218 0.134509 1.05773e-18)
(0.9984 -4.14314e-05 -4.75824e-22)
(0.999639 -0.0737465 -2.66149e-19)
(1.12043 0.133176 -2.62876e-19)
(1.20902 0.0221806 8.72106e-19)
(0.744668 -0.269528 3.0018e-19)
(-0.270762 0.400447 6.6711e-19)
(0.769042 0.0408817 -5.42751e-19)
(0.987836 -0.0304745 -2.49446e-21)
(0.786037 -0.06502 -2.29054e-20)
(0.885895 -0.00595942 -1.85828e-20)
(0.581232 0.082585 -4.92465e-20)
(0.989423 -0.00844892 -8.42916e-21)
(1.13208 -0.0044886 -1.4256e-20)
(1.00351 -0.111405 -3.04781e-19)
(1.20481 0.10396 9.14821e-19)
(0.0467891 0.318191 3.52383e-19)
(1.23087 0.0199031 3.8106e-19)
(0.636541 0.417468 7.5113e-19)
(-0.141751 0.163746 -8.96642e-19)
(0.794447 0.0834348 1.36033e-18)
(0.422691 -0.0403712 3.4153e-19)
(1.02642 -0.140614 2.6701e-19)
(0.532059 0.00802006 1.07362e-19)
(0.453898 0.5029 -3.49712e-19)
(0.98584 -0.12343 1.15106e-19)
(0.991971 -0.464623 -4.6521e-19)
(0.931711 0.324495 8.95348e-20)
(0.921222 0.33399 3.14252e-19)
(0.992037 -0.000288837 2.89689e-22)
(1.1206 -0.547226 -4.25432e-19)
(1.33023 0.000133728 -4.37882e-19)
(0.616295 -0.0781341 4.08986e-20)
(1.02373 -0.0197107 4.96743e-21)
(0.661044 0.0825045 2.54821e-19)
(0.99824 -0.00307648 -3.84437e-22)
(0.525351 -0.0502353 1.54133e-21)
(0.998276 -0.00518488 1.64899e-21)
(-0.324951 1.19158 6.31273e-21)
(0.596359 -0.0113958 -6.27523e-20)
(0.996597 -0.00866795 -4.20984e-21)
(0.816616 -0.109796 6.18764e-20)
(0.931731 -0.0426492 -1.76617e-20)
(1.05534 -0.00785822 9.82945e-21)
(0.940262 -0.00258696 -4.07911e-21)
(1.12986 -0.543477 -3.40629e-20)
(0.605265 1.07014 -3.24528e-20)
(0.522982 -0.0462344 2.13485e-19)
(0.987589 -0.031127 2.50448e-21)
(1.26397 0.0195327 -8.9677e-19)
(1.09195 -0.0377593 -5.47976e-19)
(1.20927 -0.00697303 -1.7724e-21)
(0.630625 0.416626 5.04006e-19)
(1.19214 -0.25934 -4.53734e-19)
(0.831444 -0.0550216 -8.34608e-19)
(1.05773 -0.347649 -3.63029e-19)
(0.875619 0.0814712 -1.30704e-19)
(0.997243 -0.0101469 -1.98133e-21)
(0.709345 0.394212 -7.00742e-19)
(0.940963 -0.00339913 1.63498e-21)
(0.427653 0.514406 2.19951e-19)
(0.930638 0.0703796 7.81444e-19)
(1.43521 0.117524 -1.19946e-19)
(1.03319 -0.0184189 9.92489e-19)
(0.960044 -0.003229 -1.68986e-20)
(0.621621 0.406954 -9.74734e-19)
(1.00333 -0.00272865 1.76998e-22)
(-0.15051 0.182347 6.19348e-19)
(0.624476 0.405164 1.39507e-18)
(0.225639 -0.189525 -1.27459e-18)
(0.69705 0.0549104 -1.69576e-19)
(-0.0281539 0.478229 4.97919e-19)
(0.998198 -0.00026959 -5.88362e-22)
(1.12212 0.39954 1.37748e-18)
(0.789794 -0.0651846 1.99522e-20)
(1.40818 0.320608 -3.83936e-19)
(0.765138 -0.0111035 1.41835e-21)
(1.30554 0.00264204 -8.03289e-19)
(1.06496 -0.129184 -6.1158e-20)
(1.03782 -0.00553939 7.79781e-21)
(0.572181 0.339813 -6.26613e-19)
(1.02376 -0.0187229 -1.51534e-20)
(1.00352 -0.0023582 8.25431e-23)
(1.05026 -0.0231739 2.01079e-18)
(1.46408 -0.126995 -2.49495e-19)
(1.17419 -0.0269871 -9.08421e-20)
(1.00447 -0.073435 3.65986e-19)
(0.788416 -0.0683848 -2.08592e-19)
(0.678143 -0.218229 4.08232e-19)
(1.05366 -0.0302275 5.03106e-19)
(1.00877 -0.000629536 -6.10248e-21)
(1.09539 0.181753 1.31935e-19)
(1.06377 -0.125227 9.02119e-19)
(1.00093 -0.000134192 -1.49236e-23)
(1.15325 0.0329357 7.08046e-23)
(0.786708 -0.0603823 7.059e-20)
(1.20755 0.104024 -1.41221e-18)
(1.10725 -0.0915672 -1.81895e-19)
(1.18587 -0.259392 3.46154e-19)
(0.92641 -0.248561 -3.83072e-19)
(0.591616 -0.0124111 -3.94984e-20)
(0.997893 -0.000241714 2.64313e-22)
(0.60234 -0.0125011 4.44142e-20)
(1.20607 -0.027809 4.30337e-19)
(0.997239 -0.0103718 2.52891e-21)
(0.971846 0.296945 1.09191e-18)
(0.501608 0.00762578 9.45166e-21)
(1.37279 -0.352792 1.82902e-19)
(0.532186 0.0152655 -5.85203e-19)
(1.15517 0.0330777 5.13697e-19)
(0.88772 -0.00542055 -1.37253e-20)
(1.02936 -0.197917 -4.92318e-20)
(0.904842 0.0438559 2.93594e-19)
(0.874067 -0.0661608 -4.81658e-20)
(1.20973 0.0064638 4.38579e-19)
(0.865912 0.0287182 4.56166e-20)
(0.947176 0.304351 -1.59386e-18)
(0.877072 0.0505181 -3.38594e-19)
(0.804806 0.0354922 -4.48983e-19)
(1.12173 -0.0169003 -3.85991e-19)
(-0.299783 1.26666 7.43356e-20)
(0.134328 -0.149263 2.22968e-18)
(0.962934 -0.167053 -4.2004e-20)
(1.23777 0.0639896 -4.02627e-20)
(0.130036 -0.144227 -4.9237e-19)
(0.874071 -0.127952 -4.94284e-20)
(1.11014 0.0204548 1.42727e-18)
(1.07298 -0.0849593 1.21771e-19)
(1.21915 0.0146037 8.59043e-20)
(1.0215 -0.140471 3.04431e-19)
(1.14725 -0.213711 -5.52212e-19)
(1.09506 0.162081 5.67315e-19)
(0.839706 -0.0667064 1.96226e-18)
(0.95064 -0.106145 -2.66517e-22)
(0.767722 -0.0872964 -2.13676e-20)
(1.00017 0.0034342 -5.89005e-19)
(1.13544 -0.023739 1.28641e-18)
(-0.317152 1.22147 -2.24929e-20)
(0.879862 -0.127524 -1.64198e-20)
(1.06245 -0.0357656 -3.37278e-19)
(1.06661 -0.422936 -8.10971e-19)
(0.673167 0.00788193 -7.99437e-19)
(0.807169 0.441099 -1.9556e-18)
(1.23948 -0.372228 2.18105e-19)
(0.120679 -0.139048 1.46545e-19)
(0.344544 -0.00113085 -4.21098e-20)
(0.590937 -0.00780984 5.79807e-19)
(0.943191 -0.0393954 4.2319e-19)
(1.08535 0.133806 7.42902e-19)
(0.826382 -0.381492 8.43121e-19)
(1.23083 0.0239149 2.54759e-19)
(0.998059 -0.00414051 -2.61038e-21)
(0.749366 -0.0902916 -2.29181e-21)
(0.573314 -0.127188 3.94067e-19)
(0.9076 -0.111744 -1.41812e-20)
(0.989665 -0.00849304 6.49168e-21)
(1.24637 0.0242164 -2.12884e-19)
(1.08588 -0.172426 -1.28958e-18)
(0.114943 -0.133593 -1.2436e-18)
(0.827304 -0.034756 -5.19327e-19)
(1.45152 -0.0647868 -6.72587e-19)
(0.998368 -0.00520249 2.16175e-22)
(0.902434 0.0544153 9.59786e-19)
(0.675101 0.00162956 3.96981e-19)
(1.10497 0.208906 6.29194e-19)
(1.13013 -0.0219811 7.72644e-19)
(0.0105539 -0.0297382 -8.5502e-19)
(0.976868 -0.0346729 1.26267e-21)
(0.93449 -0.153993 1.60415e-20)
(0.680141 0.0479358 -2.80938e-20)
(1.07227 -0.0665098 -3.5114e-20)
(0.51136 0.008615 -4.85326e-19)
(0.998382 -9.94873e-05 6.83467e-22)
(1.38232 -0.161853 7.05577e-19)
(1.0447 0.0409072 -6.5776e-19)
(0.55377 -0.0149681 6.22803e-19)
(1.23734 -0.365912 1.25427e-19)
(1.29879 -0.233891 3.99742e-19)
(1.28109 0.0174575 -8.80258e-20)
(0.921339 -0.250034 -6.82876e-20)
(0.69255 -0.136777 -3.54124e-19)
(0.852381 0.00877798 3.87856e-19)
(1.07232 -0.122968 -4.10511e-19)
(1.08378 0.132899 1.11368e-18)
(1.06457 -0.00582164 1.10659e-20)
(1.09203 -0.0489103 5.99985e-19)
(0.877737 -0.0064426 -1.39935e-19)
(0.592506 -0.0192238 -9.79941e-20)
(-0.21423 1.08095 -2.70269e-19)
(0.998686 -0.0759051 8.34908e-21)
(1.38131 -0.353731 -2.33329e-19)
(0.627448 1.11296 2.37079e-19)
(0.758315 -0.00981498 -7.2075e-20)
(1.10205 -0.0870335 -3.61512e-20)
(1.16042 0.147526 1.01182e-18)
(0.522377 0.00347188 1.06478e-18)
(0.86569 0.0291127 1.63946e-20)
(0.470809 -0.238812 5.76261e-19)
(1.01357 -0.224581 -4.19133e-19)
(0.851124 -0.135714 -2.62188e-21)
(1.14684 0.0200405 -3.82689e-18)
(1.05479 -0.108998 1.9014e-20)
(1.42124 0.29543 -7.17322e-19)
(1.22011 0.0140375 -5.90871e-19)
(0.157941 0.576693 -7.86607e-19)
(1.32884 0.00392713 3.99961e-19)
(1.04366 -0.000953552 5.30267e-20)
(1.21775 -0.127287 -1.28882e-20)
(1.22562 0.0168325 -1.3792e-18)
(0.0170265 -0.022275 5.24918e-19)
(1.09 0.170013 -8.14171e-19)
(0.470125 2.83344 -5.09024e-20)
(0.873207 0.0816135 -1.00846e-19)
(0.833449 -0.100589 -1.34272e-19)
(-0.00810082 0.47598 8.08864e-19)
(0.768308 -0.0266688 7.83594e-20)
(0.497161 0.45859 -4.1207e-19)
(0.446059 0.535284 7.65709e-20)
(0.989991 -0.0045789 -5.53408e-23)
(1.14069 -0.0218901 -3.1365e-19)
(1.07877 -0.0863922 3.15487e-19)
(0.9991 -0.0774599 -4.92662e-19)
(0.977224 -0.1232 2.22197e-19)
(0.652289 0.0779232 1.26841e-19)
(0.933985 -0.248947 -3.93601e-19)
(0.961285 -0.163803 -2.01691e-20)
(1.00014 -0.0316111 -4.03575e-19)
(1.06345 -0.345401 2.91832e-19)
(1.03152 -0.200115 1.29602e-19)
(0.761327 -0.00842197 -5.44954e-20)
(1.02395 -0.112832 2.95872e-20)
(0.567556 -0.117659 -2.07237e-19)
(0.995639 -0.0926021 1.27492e-20)
(1.23373 0.0015697 9.75484e-19)
(1.36931 -0.187573 4.12872e-19)
(1.17165 0.0111062 -1.9776e-18)
(1.15084 -0.55946 2.49096e-19)
(0.111455 2.30395 1.88799e-20)
(0.92715 -0.247804 -9.59246e-20)
(0.998449 -0.00381856 -1.97069e-21)
(-0.289329 0.455242 4.34417e-19)
(0.83547 -0.0268907 -5.06722e-19)
(0.983925 -0.0637239 -2.74609e-22)
(1.23133 0.0270537 -6.6736e-19)
(0.855333 -0.129895 -6.62959e-22)
(1.13949 0.199921 5.45485e-19)
(1.06827 -0.0993373 -2.38356e-19)
(0.399258 0.562746 1.95628e-19)
(0.084575 -0.110566 6.67671e-19)
(0.936423 -0.159561 -1.39893e-19)
(-0.0690751 0.574452 -3.31309e-20)
(0.802934 -0.0398401 1.78133e-19)
(1.00223 -0.226057 5.23202e-20)
(1.06808 0.265611 3.13844e-19)
(0.995719 -0.116862 -6.60882e-20)
(0.552191 -0.00812995 -4.30668e-19)
(2.10126 2.26118 -3.20233e-20)
(1.11539 0.019232 5.55026e-21)
(0.755377 -0.128709 -1.23604e-20)
(0.695173 0.272048 9.75833e-19)
(0.689116 0.0868378 6.42186e-19)
(0.876947 -0.00476656 4.20204e-19)
(0.978651 -0.107868 -2.94755e-19)
(1.09948 -0.0419861 1.49393e-19)
(1.07317 -0.429944 -1.27195e-18)
(1.1 -0.0868928 1.54288e-19)
(0.792101 -0.0766177 -1.09453e-19)
(-0.285628 0.490779 -1.09207e-19)
(1.11228 0.130021 2.18019e-19)
(0.977476 -0.0354316 -9.57946e-21)
(1.22791 0.0220957 -2.00011e-19)
(1.44156 0.106235 2.17656e-19)
(1.00275 0.308241 -1.21208e-18)
(0.511545 0.0305282 9.97003e-19)
(1.20751 -0.0271777 -6.32695e-19)
(1.14706 0.173427 6.99525e-19)
(0.0751774 -0.103713 -1.30068e-18)
(-0.29321 0.441107 -6.84831e-19)
(0.764217 -0.129085 8.73562e-21)
(0.998384 -0.00395453 3.72084e-21)
(0.95565 -0.11067 -3.7179e-21)
(0.857632 -0.135454 6.42749e-21)
(1.47752 0.0188684 1.72283e-19)
(0.883778 -0.0990086 1.46341e-19)
(0.920678 0.311302 6.33823e-19)
(0.990882 -0.00459263 6.52168e-22)
(0.891474 -0.136376 -3.57179e-22)
(0.761129 -0.0866146 2.98866e-20)
(0.714834 0.047197 1.65677e-19)
(1.11842 0.227967 -2.35394e-18)
(-0.166339 0.385524 6.39249e-20)
(0.575081 0.0782659 -4.5118e-19)
(0.769599 -0.0202799 -6.98206e-20)
(1.14557 -0.0799437 -5.65017e-20)
(0.995193 -0.0284653 2.50908e-19)
(1.41065 0.29893 -6.75238e-21)
(0.706251 -0.147674 -1.10264e-18)
(1.01931 -0.0421507 -1.2683e-19)
(0.578219 0.347127 3.30276e-19)
(1.0199 0.121036 -8.88521e-19)
(1.22785 0.0148189 1.2578e-18)
(0.847691 -0.115609 -7.40616e-20)
(0.941838 -0.039098 4.68498e-20)
(1.01575 0.0537873 8.90852e-20)
(1.03205 -0.0973686 8.72619e-19)
(1.00074 -0.000341205 -1.59275e-24)
(0.942136 -0.137073 -7.38377e-20)
(1.09831 -0.0504507 -5.49588e-19)
(0.740498 0.514294 1.18525e-18)
(1.02203 -0.256425 -9.16557e-20)
(0.698142 0.175864 4.11934e-19)
(1.48782 0.0493056 -1.72837e-19)
(0.709635 0.407495 -8.08805e-19)
(1.00056 -0.000356599 -1.21206e-23)
(0.359802 0.00148434 1.18465e-19)
(0.751667 0.0734838 -2.48325e-19)
(1.07765 -0.0672985 -3.13794e-19)
(1.00034 -0.000514452 6.95652e-23)
(1.38078 0.228094 2.1669e-19)
(0.124348 -0.319662 -4.76307e-19)
(0.522344 0.00581619 1.04282e-18)
(0.91585 -0.00379614 -2.11562e-20)
(0.472255 0.442373 -6.18021e-19)
(1.16872 -0.0623741 8.05861e-20)
(1.09423 -0.0394668 -3.05676e-19)
(1.02379 -0.00155387 2.04549e-20)
(0.86827 -0.142568 -1.95888e-21)
(1.10635 -0.0516502 -8.03737e-20)
(0.915049 -0.250879 -5.21821e-19)
(0.879321 0.0725122 2.48023e-19)
(0.922869 0.0691203 1.09059e-18)
(1.09626 -0.0507149 -6.68224e-19)
(1.24558 -0.00187796 -5.21133e-19)
(0.982519 -0.00106548 -1.12569e-20)
(0.676547 -0.118717 7.51252e-19)
(0.403922 -0.237944 -1.31127e-19)
(1.13472 -0.0775613 -2.03364e-19)
(1.12476 -0.156153 1.85999e-19)
(1.13658 0.184511 -2.42133e-18)
(0.882 0.119649 -1.79417e-18)
(0.657283 0.0818709 -1.89597e-19)
(1.29064 0.00988803 5.1992e-19)
(0.681948 0.0499714 -2.57752e-20)
(0.857233 -0.143005 4.65718e-20)
(2.12456 2.16136 1.83975e-20)
(1.0739 -0.077733 1.54655e-19)
(1.07762 -0.0873139 -5.71431e-19)
(0.602692 0.0847145 -5.48379e-19)
(0.634124 -0.0736453 -2.78089e-19)
(0.87173 -0.128749 -6.90362e-20)
(1.09176 0.25367 -3.01407e-19)
(0.80376 0.104708 1.26706e-19)
(1.31003 2.88587 2.63126e-20)
(1.04345 0.192852 -7.22338e-19)
(1.00352 -0.00250047 -1.8105e-22)
(0.939302 -0.0178914 -1.0514e-19)
(1.104 0.169909 2.68176e-19)
(0.402195 -0.0111158 4.80438e-20)
(0.917797 0.0777057 6.11139e-19)
(0.747417 -0.126923 3.59153e-21)
(1.15133 -0.0778666 -1.57899e-19)
(0.849426 -0.100696 1.08684e-19)
(0.609723 -0.0737993 -3.2486e-20)
(0.999989 -0.0366181 1.42845e-19)
(1.08211 -0.0875032 3.45919e-19)
(1.90518 -0.0348553 -3.49499e-20)
(1.00636 -0.00384279 2.73495e-21)
(1.25773 -0.00503366 -8.76301e-20)
(0.998389 1.30323e-05 -5.13611e-23)
(0.105919 -0.128167 1.7031e-18)
(1.03433 -0.0313186 1.38428e-20)
(0.933838 0.405912 8.68122e-19)
(0.690165 0.102682 -3.41627e-19)
(0.96118 0.228673 -7.39899e-19)
(1.0586 0.180883 4.95376e-19)
(0.917698 0.196206 -7.06294e-20)
(1.21329 0.022092 1.251e-18)
(0.938381 -0.110478 -3.0395e-20)
(1.14927 -0.0596159 -1.61766e-19)
(0.969718 -0.0823466 7.61853e-23)
(0.6694 -0.089991 -8.89189e-22)
(0.557977 -0.000123143 -2.50329e-19)
(0.804954 -0.0451586 6.73474e-20)
(0.933256 -0.0145943 -2.52458e-19)
(1.04481 -0.0972832 -3.26896e-19)
(1.03385 -0.0303243 -1.67873e-20)
(0.975299 -0.0134623 -2.81625e-21)
(1.02137 -0.0182074 -1.09461e-20)
(0.976778 -0.123922 -1.08346e-19)
(1.30188 0.00294334 7.57945e-19)
(1.0312 -0.0899836 6.93879e-19)
(0.594629 0.0875843 5.8335e-19)
(0.995266 -0.0907871 -2.63873e-20)
(1.29377 0.347241 -4.88693e-19)
(1.10153 -0.0885576 4.57466e-19)
(0.977836 -0.0134215 -1.17213e-20)
(0.886935 0.125051 2.57281e-18)
(1.23142 0.0614833 1.22116e-19)
(0.956413 -0.14327 3.28186e-18)
(1.00683 -0.00516732 -2.72478e-21)
(1.00423 -0.075155 0)
(1.15442 -0.0595767 2.4096e-19)
(0.86788 0.0211053 -2.35099e-19)
(0.839991 -0.0690929 6.96137e-20)
(1.40196 -0.175749 1.8823e-19)
(0.522811 0.00317731 -7.1409e-19)
(0.979889 0.390801 1.62345e-18)
(0.359713 -0.00501658 3.24419e-19)
(1.08087 0.24511 -1.56945e-19)
(1.10355 -0.0881518 -3.32612e-19)
(1.13379 -0.0777933 2.39798e-19)
(0.925705 -0.304749 -7.43001e-19)
(0.684607 0.276854 -4.07104e-19)
(1.22017 -0.0959629 6.98199e-19)
(1.17594 -0.0595613 3.70695e-20)
(0.144612 -0.153857 -2.43754e-18)
(0.35936 -0.00703095 -1.865e-19)
(1.00688 -0.00547957 1.15786e-21)
(1.24889 -0.00391409 1.0498e-19)
(0.425849 -0.238943 3.26498e-19)
(0.872558 -0.00147038 3.70487e-20)
(0.418227 -0.0423935 -6.02244e-19)
(1.04255 -0.101504 -1.19064e-19)
(1.01948 0.298968 2.00221e-18)
(0.998336 -6.05877e-06 -1.5297e-22)
(1.182 -0.0555056 -7.29345e-20)
(1.25784 0.0177446 6.57546e-19)
(1.16819 0.0320208 -7.98785e-19)
(1.09219 0.441704 -4.05854e-19)
(0.999866 -0.000189129 1.29056e-24)
(0.990954 -0.00488083 2.18829e-22)
(1.17564 -0.00381847 -3.58211e-19)
(0.870078 0.00416214 4.05693e-19)
(0.91789 -0.11151 1.10566e-20)
(0.983417 -0.0682644 -5.25821e-21)
(0.907146 0.325887 -7.89257e-19)
(1.48148 -0.0117554 -8.30825e-19)
(0.377093 0.572443 -8.50598e-20)
(0.946215 -0.0939793 -9.02117e-19)
(0.444292 0.0410305 -1.19224e-19)
(1.02326 -0.203174 2.61921e-19)
(1.10924 0.0945283 1.20291e-18)
(0.858163 -0.100972 -4.6047e-20)
(1.39197 0.196071 -2.93633e-19)
(0.273611 -0.194558 -2.27016e-18)
(0.936783 0.0657531 -5.64501e-19)
(1.09192 -0.049791 -3.22117e-19)
(0.94646 -0.0713634 -1.89678e-19)
(0.823646 -0.110315 1.8217e-20)
(1.00012 -0.424665 -2.60568e-18)
(0.85246 0.0171486 5.91079e-19)
(0.837755 0.410673 4.76269e-19)
(0.999161 -0.124396 -4.74707e-19)
(0.968984 0.227812 4.11599e-19)
(0.557482 0.0888351 -2.06551e-19)
(0.721665 0.0452179 4.49533e-19)
(-0.242795 1.09365 -9.95222e-21)
(1.0794 0.123835 1.18706e-18)
(0.858931 -0.119468 9.08431e-20)
(1.05438 -0.110655 3.72309e-19)
(1.0492 -0.107353 -2.88556e-19)
(0.997478 -0.000359488 -4.19827e-21)
(1.02159 -0.0940968 -1.20572e-18)
(0.973701 -0.287616 3.93671e-19)
(1.02561 -0.0678111 -2.53993e-20)
(1.12453 0.121432 -7.49222e-20)
(0.95906 -0.0947602 7.62981e-22)
(0.959072 -0.0965591 -5.75151e-22)
(1.186 -0.00998101 -2.74126e-20)
(1.00174 -0.120002 2.905e-19)
(1.1019 -0.00888119 -6.02288e-20)
(1.115 -0.0609807 4.49595e-21)
(0.473999 0.0486215 -3.52992e-19)
(0.86932 -0.0997961 -6.70123e-20)
(0.677891 -0.0886448 -5.66512e-21)
(1.05071 -0.470165 -3.25659e-18)
(0.913265 0.426674 1.21667e-18)
(1.15714 0.0112742 6.75383e-19)
(0.804536 0.0370011 -3.45389e-19)
(0.916943 -0.210258 6.99738e-20)
(1.08057 -0.0873674 -2.0515e-19)
(1.00327 -0.00504145 -3.18089e-22)
(0.9999 -0.000456966 4.55166e-23)
(0.471954 -0.0708628 -1.18298e-19)
(0.270477 -0.194271 2.31369e-18)
(0.748907 -0.117541 1.84154e-20)
(1.00317 -0.00484952 -8.29584e-22)
(0.531258 0.013654 -1.92694e-19)
(1.12254 0.227543 2.17492e-18)
(0.0908589 0.33065 -4.21061e-19)
(0.719754 0.419599 -5.64256e-19)
(0.992314 -0.000444557 -2.94268e-21)
(0.555254 0.00425927 -8.1923e-19)
(0.942332 -0.0166575 -7.02397e-19)
(1.01602 -0.00167751 -1.00259e-21)
(0.987761 -0.0364273 1.22921e-21)
(0.517568 -0.00393097 1.29901e-19)
(1.17385 -0.00334123 -1.18983e-19)
(1.10177 -0.084193 -2.62422e-20)
(1.29859 -0.236564 1.02759e-19)
(1.06615 -0.00630992 -3.37465e-20)
(0.740546 -0.235748 -1.01368e-18)
(0.482554 0.0569183 3.57574e-19)
(0.446245 0.0425233 -2.02562e-19)
(0.582734 0.0773538 -7.44826e-20)
(1.12003 -0.060848 -2.39972e-19)
(0.676267 -0.227888 -1.23829e-18)
(1.03466 -0.0653294 3.13648e-20)
(1.00333 -0.00214337 -6.42429e-23)
(1.1942 -0.0613169 2.02246e-19)
(0.783686 0.328274 -3.87408e-19)
(1.28547 -0.237695 2.01605e-18)
(0.946305 0.0607489 9.14356e-19)
(1.02916 -0.092542 -2.24245e-19)
(0.771293 0.0313845 1.03568e-19)
(0.917794 0.0118567 4.55623e-18)
(1.2336 0.0120573 -1.7414e-18)
(1.02898 -0.0585312 -2.08294e-20)
(1.30673 0.00438124 -6.67131e-19)
(0.696492 0.0588258 -9.74996e-20)
(0.465501 0.463394 -7.83361e-19)
(0.947675 -0.0765158 -2.28247e-19)
(1.27815 0.00941377 -1.6641e-18)
(1.13093 -0.00667354 1.29432e-19)
(0.948374 0.0652204 6.30436e-19)
(1.08408 -0.00743396 -6.1149e-20)
(0.853025 -0.0613616 -4.53528e-20)
(0.566378 0.0846238 5.59754e-20)
(0.832895 0.00276132 5.30169e-19)
(1.04227 -0.00178362 -4.70795e-20)
(0.88202 -0.0130348 -5.46545e-19)
(1.38785 -0.17436 -3.72499e-19)
(0.972382 0.395149 -1.27784e-18)
(0.895218 -0.0855798 4.13272e-19)
(0.830945 -0.0693755 -1.03442e-19)
(0.486944 0.931299 -1.46304e-19)
(1.01008 -0.000280876 -2.62128e-21)
(1.24584 2.84576 -1.1486e-20)
(0.861623 -0.0965308 -7.165e-20)
(1.23174 0.0268631 -1.03436e-18)
(0.867518 0.0215802 -2.24772e-19)
(1.20854 -0.00674172 -3.81443e-19)
(0.112154 -0.289091 -1.19826e-18)
(0.794264 0.100323 -1.25342e-18)
(1.34863 -0.2623 9.27995e-19)
(0.919403 0.190877 2.06844e-19)
(0.592529 0.478469 6.81671e-19)
(0.473489 0.539749 -5.99188e-19)
(0.672494 -0.245062 -1.10429e-20)
(1.23621 0.0122463 1.92831e-18)
(0.608908 0.341259 6.50753e-19)
(0.963498 -0.144764 -2.55034e-18)
(1.09173 -0.0827273 -1.13591e-20)
(0.961497 -0.127826 1.03131e-19)
(1.24524 -0.239334 -2.18247e-18)
(1.00436 -0.00338452 -3.60492e-22)
(0.409122 2.7475 6.28902e-20)
(0.0668685 0.256778 -1.8502e-19)
(0.673533 0.0828074 -4.01797e-19)
(1.11472 -0.0901183 -2.1115e-20)
(1.17537 0.0290437 -2.69887e-19)
(0.852567 -0.135282 -3.9011e-21)
(1.15094 -0.058715 -4.82865e-21)
(0.990724 -0.297896 -5.88195e-19)
(1.48937 -0.0533435 7.03856e-19)
(0.977644 -0.00120464 -6.72636e-22)
(1.03635 -0.0651193 -3.12975e-20)
(1.10881 0.145284 -2.54672e-19)
(1.06112 -0.110569 2.52551e-20)
(-0.0344759 0.552251 7.78158e-20)
(0.678912 0.291862 -6.84997e-19)
(1.01888 0.301617 2.51835e-19)
(0.98837 -0.0366667 -3.29594e-21)
(1.01651 -0.216628 -9.35601e-20)
(0.944537 -0.167581 -7.40798e-19)
(1.08899 -0.00622299 4.08529e-20)
(1.01258 -0.0309817 6.2385e-19)
(1.16234 0.150247 5.46576e-19)
(1.47866 -0.0839368 -4.56846e-19)
(1.05854 -0.10974 -9.40009e-20)
(0.99974 -0.000246139 1.98603e-23)
(0.616016 0.340536 4.9048e-19)
(1.01127 -0.0302631 1.1073e-18)
(0.977215 -0.001365 -1.49973e-20)
(1.20352 0.0069114 -1.69951e-19)
(1.15501 -0.0352195 -1.32144e-19)
(0.876283 -0.0995405 1.27604e-20)
(0.717836 -0.00806818 3.10221e-20)
(-0.039612 2.11625 4.61698e-20)
(0.48529 0.0318652 -7.91871e-20)
(0.854182 -0.13728 -8.02335e-22)
(0.637222 -0.0679831 -5.51729e-21)
(1.03841 -0.0632477 4.49475e-20)
(0.979529 -0.0140985 8.21735e-21)
(1.0409 -0.0234567 -5.59303e-19)
(0.221945 0.507764 -1.13341e-19)
(0.963786 -0.0103373 5.74193e-21)
(0.483394 0.0589092 4.24833e-19)
(1.10937 -0.0751796 1.85283e-20)
(0.892046 -0.0780686 1.93908e-19)
(0.827378 -0.00482892 -7.0106e-19)
(0.982476 -0.0641782 2.00757e-21)
(1.4481 0.045748 -3.69618e-19)
(1.10041 0.0316414 -4.93598e-19)
(1.03936 -0.241381 3.00169e-19)
(0.269131 0.504288 3.19671e-19)
(0.921799 -0.0392407 8.19678e-21)
(0.995121 -0.0127441 -2.19353e-21)
(0.936906 -0.0442371 -1.64107e-20)
(0.840744 -0.0700184 -2.04378e-21)
(1.12037 0.0242736 0)
(1.04713 -0.0511895 -3.89047e-19)
(0.361206 0.0022922 -2.75282e-20)
(1.02547 -0.0433401 -1.93725e-18)
(0.315277 -0.211669 1.94643e-18)
(0.30964 -0.208048 -1.68503e-18)
(1.10934 -0.0476978 4.29293e-19)
(1.12101 0.0910368 1.18906e-18)
(1.05288 -0.429421 2.01827e-18)
(0.926267 -0.0460521 7.96066e-21)
(0.881517 -0.0116928 -1.13555e-19)
(0.669465 0.0826949 3.82681e-19)
(1.03117 -0.0311492 1.96193e-20)
(1.00441 -0.0826536 2.88796e-19)
(1.11161 -0.0740034 -9.00215e-21)
(1.02133 -0.0887286 -6.39449e-19)
(1.04082 -0.323813 -7.33754e-20)
(1.4896 0.119724 -7.70056e-19)
(0.711055 -0.232023 9.85775e-19)
(0.858823 -0.127476 -1.48606e-20)
(0.647444 0.0826739 6.69055e-19)
(1.02482 0.0513047 -4.72772e-20)
(0.988942 0.300934 -1.3555e-18)
(1.22743 0.0210041 -2.22317e-19)
(0.957517 -0.0666195 -8.61964e-20)
(1.00202 -2.17789e-05 -1.23886e-23)
(0.946665 -0.0848514 1.12495e-18)
(0.583176 0.0086599 2.38462e-20)
(0.0657788 -0.0973368 -1.20883e-18)
(1.03709 -0.057142 -2.01342e-19)
(1.09169 -0.0544097 -2.12758e-18)
(0.977517 -0.190563 -5.75802e-19)
(1.19891 -0.0617861 8.82835e-20)
(-0.268255 0.529296 -2.2344e-19)
(0.873322 -0.00463331 5.26052e-20)
(0.646828 0.000221545 1.31372e-18)
(0.984217 0.0242004 3.93627e-19)
(1.15829 0.159515 -2.64025e-19)
(0.436281 -0.0808929 -1.36433e-18)
(1.30165 0.0122509 1.29308e-19)
(0.998141 -0.0031466 -1.10276e-21)
(0.930592 -0.146634 3.96905e-20)
(0.481506 0.055047 -4.02518e-19)
(0.864121 0.0119652 -5.45452e-19)
(1.20086 0.00340674 -1.25662e-19)
(1.30643 -0.243844 9.86348e-20)
(1.03966 -0.0631168 -5.1224e-20)
(1.66794 -0.521782 7.68064e-20)
(0.820816 -0.111621 -7.53242e-20)
(0.997303 -0.0116406 -9.48405e-22)
(1.04938 -0.0539409 4.32577e-19)
(1.03011 -0.0668974 1.29312e-20)
(1.48444 -0.0768109 6.26615e-19)
(1.03212 -0.0306061 -1.72969e-20)
(0.91334 0.398691 -2.76402e-19)
(0.651166 0.0735583 1.06579e-19)
(1.3159 0.00588561 -2.45974e-19)
(1.1949 -0.0542182 -3.71606e-19)
(1.04501 0.326706 1.93297e-18)
(1.1642 -0.0617247 -4.64167e-19)
(1.01636 0.116691 -7.63252e-19)
(1.00019 -0.000591201 3.20441e-23)
(1.01979 -0.141228 4.14752e-19)
(1.01538 -0.103465 -1.38775e-19)
(1.13112 -0.0783627 4.07865e-20)
(0.602153 0.00738988 1.7001e-19)
(1.00385 -0.00279466 8.04438e-22)
(-0.297188 0.521938 -3.37949e-19)
(1.38693 0.359887 1.77429e-19)
(0.0295776 0.242112 4.16504e-19)
(1.0293 -0.0571016 4.04224e-20)
(1.06992 0.836171 1.28474e-19)
(1.12142 0.0270291 -3.00781e-19)
(1.12096 -0.205893 1.35166e-18)
(1.05742 -0.0962951 6.34796e-20)
(0.956961 -0.000462342 -4.47644e-21)
(1.10715 0.13962 -2.98694e-19)
(1.02568 -0.0227429 -1.1236e-20)
(1.31161 -0.197824 -4.41996e-19)
(0.942697 -0.0144675 -7.46371e-20)
(0.151152 -0.379631 -9.60585e-21)
(0.747661 0.509939 -1.57746e-18)
(1.02471 -0.0211447 8.89921e-21)
(1.14606 -0.549563 2.40417e-19)
(0.985809 0.0744185 -1.52023e-18)
(0.979517 -0.0134633 4.0347e-22)
(1.10334 0.21338 1.70751e-18)
(1.03133 -0.0992192 1.34722e-18)
(0.715201 -0.0102315 2.52914e-20)
(1.08595 -0.0345379 3.84004e-19)
(1.06101 -0.00803714 2.47271e-20)
(1.12518 -0.0172154 -4.59843e-19)
(0.574065 0.0839234 -2.69791e-20)
(0.425451 -0.00542733 3.30494e-20)
(0.831428 0.416083 -6.54041e-19)
(0.939952 0.0616918 -3.88489e-19)
(1.43422 0.244642 1.10866e-18)
(1.39165 0.0228184 9.70975e-19)
(0.658206 -0.00908335 -7.28538e-20)
(1.00381 -0.0597745 -2.13845e-21)
(0.823728 0.403757 -2.66656e-19)
(0.861282 -0.0999672 -4.51268e-20)
(0.439719 0.0241777 -3.69822e-20)
(1.03215 -0.0670153 -7.25423e-21)
(0.980623 0.333829 6.26936e-20)
(0.441185 -0.0792595 1.94309e-18)
(1.50723 0.0223263 1.03485e-18)
(1.00303 -0.116086 1.88852e-19)
(1.00494 -0.128101 -3.47503e-20)
(0.592494 0.0105408 -8.34884e-20)
(0.0818828 0.394839 -2.36494e-19)
(1.01803 -0.214049 -1.84453e-20)
(0.87662 0.327525 -2.48179e-19)
(1.15469 -0.00550512 -8.36776e-19)
(1.11773 0.100303 -1.0099e-18)
(0.969387 -0.0188296 -3.84157e-21)
(-0.347556 0.822768 1.1816e-19)
(1.0028 -0.0046815 -3.97127e-22)
(1.14423 -0.0554222 3.04058e-19)
(0.998258 -7.03248e-05 3.27221e-22)
(1.23569 2.73005 -6.01685e-20)
(1.22284 -0.0845513 -5.72038e-19)
(0.897577 0.120756 1.22055e-19)
(0.997414 -0.000407987 4.22101e-22)
(1.34099 -0.274709 -2.50799e-18)
(0.937082 -0.0182634 1.14363e-20)
(1.00739 -0.0822839 2.89465e-19)
(0.910046 -0.0434901 2.69652e-20)
(0.412751 -0.238638 -6.51061e-20)
(0.808922 0.0361899 5.6578e-19)
(0.955467 0.360858 9.67105e-19)
(0.978582 -0.00169675 2.0492e-20)
(1.07883 -0.168291 4.09692e-19)
(1.01839 -0.0306274 1.12187e-19)
(0.778169 0.0358472 4.00443e-19)
(0.996618 -0.0125401 4.38609e-21)
(1.0007 -0.129192 -3.67948e-20)
(0.96409 -0.00176613 2.2296e-21)
(0.989887 -0.236223 3.64795e-19)
(1.1412 -0.0810581 1.73398e-19)
(0.849382 -0.0778066 -2.02572e-21)
(0.528042 -0.00184264 -1.08714e-18)
(1.01348 -0.0326816 -1.18653e-22)
(1.04145 -0.0602338 4.16833e-20)
(1.04936 0.0423621 4.9665e-19)
(0.92303 -0.0396243 4.8986e-21)
(0.91299 0.0212353 -2.02691e-18)
(1.16979 0.181556 1.94629e-18)
(0.0885785 0.436317 2.90182e-21)
(0.465326 0.0101146 9.46873e-20)
(1.17754 -0.238943 -3.55535e-19)
(0.997939 -0.000233747 -2.6985e-22)
(0.455192 0.970404 1.61461e-19)
(1.03718 -0.32368 2.6819e-19)
(1.05706 -0.00804069 3.64597e-20)
(0.757296 -0.116713 2.34534e-19)
(0.991529 -0.116575 1.37002e-19)
(0.586758 -0.148735 -3.37089e-19)
(1.69124 1.37615 2.20721e-20)
(1.08215 -0.00736091 -4.41448e-20)
(1.00493 -0.119918 -9.05099e-19)
(0.997318 -0.0119491 3.77874e-21)
(0.817965 -0.0755564 6.07673e-20)
(0.940517 -0.0190442 1.12514e-21)
(0.652546 0.305595 -9.30313e-20)
(0.487663 -0.0405081 -3.58829e-20)
(1.02001 -0.0388667 -3.07808e-22)
(0.972788 -0.0136176 6.72605e-21)
(1.23128 0.0150406 8.22042e-19)
(0.748706 -0.268814 -1.14294e-19)
(0.867765 -0.100219 7.12065e-20)
(1.01243 -0.126219 -8.71605e-20)
(0.844362 0.416451 -7.50108e-20)
(0.823689 -0.375789 5.33678e-19)
(1.13537 -0.0776352 1.1248e-19)
(-0.00987356 -0.0276971 -1.82294e-20)
(1.38303 0.606984 -3.33564e-19)
(0.478834 -0.238089 -5.27799e-19)
(1.00492 -0.05906 8.45709e-21)
(0.998686 -0.000108085 9.71591e-22)
(0.770432 0.332964 5.0735e-19)
(0.55689 -0.115199 -1.21986e-19)
(1.0145 -0.0326444 -5.2698e-21)
(-0.216237 0.303885 7.44378e-19)
(0.87392 -0.0640067 2.95388e-20)
(0.998485 -0.000865919 2.292e-21)
(1.11122 0.233001 2.07002e-19)
(1.1581 -0.382909 8.9312e-20)
(0.717248 -0.233984 -1.31099e-18)
(0.37532 -0.235514 -2.40786e-19)
(0.862235 0.0487745 4.73452e-19)
(0.412101 -0.00956097 5.36625e-20)
(0.444696 0.0228565 3.01174e-19)
(1.09655 -0.0511382 -4.7321e-19)
(0.769493 0.468162 -7.17939e-19)
(0.968375 -0.0832283 1.07033e-21)
(0.947847 -0.168663 -1.40111e-19)
(1.11277 0.249262 1.44827e-19)
(0.98055 -0.0799811 3.68211e-21)
(1.37584 0.563866 4.60998e-19)
(0.994208 -0.0686708 8.88521e-19)
(1.0055 0.287028 -1.94042e-18)
(1.07341 -0.0273132 3.30615e-19)
(0.931206 0.0261556 -1.01494e-19)
(1.2527 0.444912 -6.50027e-19)
(1.24979 0.0246363 6.12149e-19)
(1.12047 -0.163565 -4.97723e-20)
(0.728739 0.0652918 -4.03653e-19)
(0.606909 0.393404 1.3591e-18)
(0.512045 0.439505 4.40089e-19)
(0.459701 0.000873405 3.57187e-20)
(0.981206 -0.195909 -2.52986e-19)
(0.669173 0.297599 1.22139e-19)
(0.8344 -0.0387714 1.83061e-20)
(0.949065 -0.0022654 1.65398e-22)
(1.57457 -0.492748 3.95968e-19)
(0.767718 -0.0243065 1.39758e-19)
(0.779732 0.0334687 1.03793e-19)
(1.47531 0.133458 -2.5265e-19)
(0.421918 -0.00271013 7.66363e-20)
(0.998507 -0.000915843 -2.6218e-21)