/*--------------------------------*- C++ -*----------------------------------*\
  =========                 |
  \\      /  F ield         | OpenFOAM: The Open Source CFD Toolbox
   \\    /   O peration     | Website:  https://openfoam.org
    \\  /    A nd           | Version:  7
     \\/     M anipulation  |
\*---------------------------------------------------------------------------*/
FoamFile
{
    version     2.0;
    format      ascii;
    class       volScalarField;
    location    "2.5";
    object      p;
}
// * * * * * * * * * * * * * * * * * * * * * * * * * * * * * * * * * * * * * //

dimensions      [0 2 -2 0 0 0 0];

internalField   nonuniform List<scalar> 
7724
(
1.73213
0.162191
2.64455
1.737
-0.0105037
-0.000460839
2.64928
-0.0655748
-0.00145587
0.796574
-0.000430835
0.0287525
-0.097655
0.416458
0.825757
-0.119986
1.74512
-0.128809
0.0162313
-0.50729
0.570657
0.0188049
0.316071
1.43491
-0.167807
1.79385
-0.00959937
0.509002
1.2301
0.0343027
-0.173581
4.01371
0.312752
-0.00595885
-0.00127868
0.658419
0.0374393
2.56709
-0.0539332
-0.00414586
-0.048503
-0.117445
-0.4374
0.127109
-0.00247523
-0.000995913
0.0185706
-0.0542022
-0.000828227
-0.491134
0.0433054
0.484032
-0.212043
0.00356115
0.654769
-0.0582361
0.0182039
-0.0660888
-0.268751
-0.00626222
0.000489849
0.0554308
0.417005
0.0316928
-0.0120958
-0.168609
-0.00118458
5.43591e-05
0.813526
-0.0500554
-0.000918472
-0.425647
-0.162041
-0.279777
-0.124049
-0.388444
2.59801
0.557825
0.588162
-0.501228
-0.0938361
2.38421
0.791312
-0.288499
-0.0179192
-0.0278232
-0.0702502
-0.205604
-0.00803588
-0.0546817
1.25488
0.145131
-0.00165237
0.0163101
-0.0435726
-0.283616
-0.409088
0.0262003
-0.0197372
-0.0144889
-0.487056
0.632755
-0.0414705
-0.000246064
0.200486
1.28418
3.44311
-0.0617032
-9.79043e-06
0.303541
1.65633
-0.23252
-1.93398e-05
0.322201
1.28381
0.00557232
-0.187552
1.05571
-0.30206
-0.283026
-0.506101
2.29396
-0.409149
0.12451
-0.494182
-0.0118971
-0.153139
0.0267745
-0.0127581
-0.169789
-0.0245728
0.583665
-0.00747472
-0.00950905
-0.298597
1.61161
2.78249
-0.000211645
0.0959879
-0.636865
-0.265506
-0.337958
-0.388926
-0.267084
3.4869
-0.0997448
1.23849
-0.254279
-0.368833
2.28467
0.629946
0.163882
-0.0181382
0.737052
0.787762
2.39136
-0.437424
-0.0970833
3.29204
-0.000748655
0.00906402
1.4777
-0.000236043
-0.0245056
-0.0492377
1.79701
1.80585
3.40494
-0.028386
-0.0374681
6.12818e-05
-0.527373
0.00557739
0.200029
0.104125
-0.362708
0.285477
1.11989
-0.00163739
-0.00614895
1.76409
-0.000747649
-0.001384
2.6614
0.134704
-0.217763
-0.282711
-0.259772
-0.126812
-0.624182
-0.000257066
-0.39275
1.15171
-0.0418313
0.000914252
1.40352
-0.0155534
-0.158892
-0.129079
6.91933e-05
0.0115304
1.64456
1.31271
2.40747
-0.154419
-0.19467
-0.301234
0.553054
1.61686
-0.00265981
0.00043003
3.2807
-0.10384
-0.00779257
-0.374969
-0.160027
2.19344
2.23767
-0.362939
3.80428
-0.0144354
-0.127496
-0.499712
0.665093
-0.533154
1.51095
3.29587
0.00080156
0.130197
1.11544
-0.0508789
1.03544
-0.00680326
3.66191
2.34559
-0.0700436
0.0372791
-0.00383969
1.09313
-0.00116873
-0.0735389
-0.590667
-0.000916014
-0.0169001
-0.00537257
1.18452
-0.000234882
-0.0568406
-0.484504
3.99912
0.533181
3.52377
-0.00056472
-0.148491
-0.00236561
2.48833
0.0535767
2.80005
0.0207923
0.0097991
0.118191
0.573423
0.0075888
-0.00289579
0.00675025
-0.0535015
-0.201974
-0.00052765
-0.42277
-0.046842
-0.00179791
-0.00814393
2.68275
-0.0964973
-0.00987266
3.74106
-0.0187381
1.72111
-0.00263751
0.0235581
9.7594e-05
-0.273905
0.640138
0.331564
-0.26852
-0.00525158
-0.458986
-0.19071
-0.00228687
0.006621
-0.0274004
-0.0930916
0.0387519
-0.015677
-0.275501
-0.167806
-0.272364
0.18841
-0.345768
2.31853
2.39458
-0.0192864
0.239035
-9.59019e-05
-0.0292477
-0.289008
1.40244
0.873168
0.0012655
-0.0265971
-0.336522
1.23006
-0.0128631
0.0471914
0.0160933
0.624502
-0.0793883
2.17148
-0.0207622
0.167852
-0.00146307
0.0556904
-0.000667334
-0.202387
-0.00444864
0.0722616
0.157461
-0.329015
0.0394664
0.116765
-0.00952692
0.274585
-0.0806813
0.700348
1.19866
-0.361107
0.0760504
-0.197231
0.0679742
-0.573187
3.49435
0.0927286
0.389101
3.72152
-0.0199548
-0.0225368
0.113651
-0.0139673
-0.0751364
0.0827853
-0.0355824
-0.0265648
1.16858
-0.00085975
0.00732334
0.00103816
-0.0436996
-0.086733
-0.00011322
-0.0143371
-0.257076
3.27458
0.0497829
-0.102515
3.07621
2.02718
0.619968
0.296098
-0.536217
0.0657549
1.73501
-0.137624
1.94848
-0.149843
-0.409353
1.33039
1.9542
-0.40443
0.831052
1.48116
1.79325
0.542766
-0.0394482
-0.0544767
-0.00113204
0.0684347
-0.140638
0.0129049
-0.00138141
-0.0206655
-0.468469
0.797401
-0.208231
-0.0270441
-0.0489582
0.139098
-0.0893161
0.0252569
1.33833
-0.0243017
-0.000281117
-0.000698896
0.000642166
-0.25084
1.14284
-0.051394
0.353573
-0.53603
2.52533
0.0451797
0.0890862
-0.0661472
2.60311
-0.013863
2.14521
1.26293
-0.00151095
-0.165997
-0.0424673
-0.320516
0.00756133
0.666434
0.0507084
0.0830514
-0.0111188
1.10495
1.24811
-0.251289
-0.253491
-0.0290213
-0.147295
0.718476
3.94861
-0.0782124
0.0619462
-1.35295e-05
-0.1638
-0.0291497
0.251576
-0.473688
0.179773
2.7013
1.15349
-0.239092
1.45791
2.55073
0.344747
0.0158353
1.79663
-0.0115597
-0.00238633
-0.212338
0.0011379
-0.339149
0.00559148
-0.254122
0.025074
1.43182
-0.0230065
-0.000308338
-0.452374
0.0224773
0.457814
-0.46754
-0.616474
0.426368
1.12605
0.939508
0.964362
-0.0026692
0.75313
0.74759
-0.00690003
-0.200941
0.00804186
0.0861157
-0.00962384
0.0619297
-0.0101403
1.0656
-0.000256469
0.00261873
0.0255757
-0.258298
0.265176
-0.242332
-0.307291
-0.19822
-0.524477
0.133932
1.74577
0.225875
-0.0844248
3.70581
-0.399202
-0.0914461
-0.301142
-0.0659521
-0.243377
-0.125822
0.359728
0.0615091
-0.000330931
0.3163
-0.00124365
2.33254
0.83749
-0.0615593
-0.169323
-0.00244754
2.39264
2.11718
0.672563
1.12842
-0.412781
2.87159
-0.000801654
0.285976
-0.216178
1.16467
3.41328
0.658654
1.10869
-0.0191716
-0.00265354
1.03998
0.0442491
2.50342
0.464815
1.54772
-0.0884084
2.58138
2.02683
-0.112173
-0.0950162
0.920031
-0.632902
-0.00108671
-0.157359
-0.603684
-0.406358
0.144011
0.12027
-0.00163584
2.12531
-0.0100691
-0.00133117
-0.134209
-0.00638491
-0.00290233
0.0473065
1.54248
-0.415376
3.19104
0.000813046
1.51966
-0.118695
-0.000978279
0.00023331
1.21975
1.49136
-0.0510846
1.37333
0.000325356
1.43986
-0.365677
-0.116817
2.66237
-0.361368
1.07312
-0.289091
1.42706
1.47483
-0.193866
-0.244908
-0.0709339
-0.0355178
-0.00260162
-0.0121199
1.85738
-0.000347009
1.38766
-0.370249
2.18289
1.32698
-0.618772
3.09769
-0.0201536
0.0846667
-0.138101
-0.233021
-0.0805287
-0.143702
0.40432
3.60887
0.000550593
-0.0237963
-0.245423
7.99763e-05
2.36338
0.0229197
7.79281e-05
0.00253164
0.00493386
-0.196053
0.246908
-0.0191472
-0.00110529
-0.0851057
0.0380671
-0.541585
-0.570248
0.267341
-0.000280031
-0.465864
-0.15292
0.974716
2.15157
0.0156029
1.00735
0.00199082
-0.14714
0.72321
-0.0804914
1.63683
-0.15068
0.31805
0.750053
1.13487
0.0619429
-0.120555
1.30597
-0.472228
2.53122
-0.108283
1.76916
-0.108005
-0.014374
1.06016
0.041239
0.728042
0.0240819
6.8118e-05
-0.563944
1.31876
0.0181715
0.950539
-0.142827
-0.501803
0.145053
-0.251319
-0.0205873
-0.100801
-0.456775
-0.312092
-0.113495
-0.0018343
2.65468
0.976308
0.353475
-0.00248432
2.01641
5.28665e-05
-0.002282
1.02758
0.0331667
1.19836
0.50232
0.211387
0.0190607
-0.438561
0.398801
0.0163606
-0.454822
-0.000229981
0.0488344
1.57315
-0.184415
-0.0343902
-0.0422914
-0.0241569
-0.00503045
3.66631
-0.114601
-0.00694167
-7.65827e-05
1.02939
-0.318262
-0.00403881
-0.0338356
1.17706
0.74478
-0.402086
1.80732e-05
1.29375
-0.178557
1.37314
0.199405
0.242735
-0.330083
-0.0011806
0.732276
0.695505
0.53053
-0.323842
1.85646
0.0746577
1.27243
-0.0266538
-0.139727
-0.00486955
-0.00816636
-0.00129223
1.18619
1.61478
-0.018239
0.235338
-0.194985
-0.23739
-0.286836
-0.0229905
0.266646
3.56883
0.460552
-0.00066218
0.730211
-0.0431537
3.01457
-0.142173
-0.116249
0.0133884
-0.132594
-0.0674294
-0.0906794
-0.0362124
0.0202509
0.359306
0.00135626
-0.228297
0.301496
2.26731
-0.385247
1.24557
0.0253146
-0.0895899
-0.104446
1.46828
-0.0854719
0.00135377
-0.17341
-0.0611882
0.284417
-0.295933
-0.2542
0.205456
-0.166584
-0.0199164
-0.418474
6.98556e-05
0.464382
-0.372232
1.12025
-0.0312269
0.722364
-0.374705
2.04874
0.127268
-0.340521
-0.0930494
3.20412
-0.207912
-0.14868
-0.492022
-0.161185
-0.403699
-0.202046
1.25494
-0.0341614
1.69867
0.10756
-0.00480931
-0.0148848
0.653968
4.01792
0.0147048
-0.112531
1.22907
0.000278543
-0.233799
0.3235
0.185744
0.108934
-0.0199381
-0.27437
-0.0343162
0.00036278
-0.34307
1.69276
0.0655748
-0.188453
0.0230954
1.22651
-0.00469826
-0.0153372
-0.00444641
-0.00952498
0.602473
0.085982
0.0456847
-0.202398
0.00055558
-0.370098
0.112993
-0.41118
-0.140323
0.179419
-0.00263226
-0.141745
-0.475119
0.524421
2.1969
-0.0152819
-0.540293
-0.0580893
0.143132
1.12454
0.00544372
-0.00195807
0.966868
0.442594
0.186262
-0.0365922
-0.0257442
-0.430485
-0.00217287
0.0337695
-0.151287
1.92173
1.69526
-0.0611641
-0.352053
0.0887494
0.0701723
0.376224
-0.395378
-0.0593465
-7.54804e-06
0.317076
-0.274563
-0.440409
0.0829477
-0.437404
-0.00496302
-0.0367723
1.34082
-0.31542
-5.07996e-05
-0.0346724
-0.131066
-0.00206409
-0.0783402
-0.00060865
0.0539737
-0.522244
-0.0829396
-0.000258047
0.000376366
0.902287
-0.271947
2.4124
1.71208
0.267938
-0.00717672
-0.0788156
0.00271406
-0.0771609
-0.352551
0.352631
-0.18328
1.64863
0.112926
0.00341543
0.0849228
-0.330105
0.0238346
-0.0972602
-0.458242
0.0429616
0.196165
0.541032
0.11463
-0.2471
-0.125739
1.27867
-0.117569
-4.73395e-06
-0.382331
-0.52336
-0.136989
0.0583147
0.00929058
0.115829
-0.490805
0.287844
-0.302171
0.992609
-0.153658
0.0777824
0.17395
0.182968
-0.306352
-0.123783
-0.00125119
1.01912
1.38901
0.0703869
1.36897
-0.336094
0.386445
-0.266721
1.34014
0.740767
3.55079
5.29676e-05
0.776151
1.20647
0.131535
-0.0140561
-0.158141
0.253127
0.000523872
-0.15818
-0.309549
-0.173108
-0.190793
0.00162444
-0.00103159
-0.00350348
-0.00846903
1.56746
0.0643826
0.720032
0.186666
1.37838
0.11198
-0.00373956
-0.207284
0.079269
2.30086
0.0119587
-0.331231
-0.00210024
-0.005215
0.0754769
-0.169999
-0.000295235
-0.0934989
0.261919
-0.0183926
0.000373394
-0.000435326
1.04555
0.0708808
0.064183
-0.0105228
0.0809042
0.139223
0.0812554
-0.00273442
2.14689
-0.139734
1.45175
1.87905
-0.00199454
0.670722
0.835571
-0.00729566
-0.00251266
-0.00404907
0.229524
0.173642
-0.0560398
-0.12566
-0.449615
1.16173
-0.310901
0.000120152
-0.16724
-0.150527
-0.306781
-0.0390764
0.0562134
0.0116321
0.242729
-0.00485453
-0.00218416
-0.147578
-0.0393953
-0.213874
-0.000147009
-0.128165
0.291489
0.0960165
-0.00541202
-0.0755048
-0.101832
-0.0795501
-0.0473974
0.114679
-0.0821065
-0.000978544
-0.00373584
0.208265
-0.105551
-0.0450516
0.0782155
0.0338355
-0.567174
-0.0961548
1.06977
-0.108164
-0.422133
-0.191801
-0.194425
-0.1346
-0.0341732
0.0209642
-0.0321059
-0.11866
-0.13887
1.29721
1.05122
0.450953
2.14435
-0.000669122
-0.028315
-0.141021
-0.0706796
0.76744
-0.174369
0.459344
-0.0370854
1.39569
-0.0176122
-0.014748
0.196801
-0.10464
-0.00205306
-0.156354
-0.0533581
-0.179302
-0.00019043
-0.0598966
0.0179826
-0.150714
0.329495
0.293794
0.163381
-0.121056
-0.268772
0.81916
-0.01156
-0.0178659
-0.0192405
3.04809
-0.000795604
0.599981
-0.181921
-0.175895
-0.226787
-0.313961
-0.245717
-0.29175
-0.155058
-0.0417917
-0.000896498
-0.0386393
-0.184183
0.724494
0.0152349
1.09108
-0.281052
-0.114285
-0.00847748
-0.246523
-0.000946721
1.01933
-0.25811
-0.224275
-0.204175
-0.033186
-0.268629
-0.0154921
-0.348068
0.733482
-0.221336
-0.459703
-0.0133635
-0.23159
-0.158684
0.133437
-0.0293614
0.980323
-0.0219101
-0.163527
-0.00616622
1.09219
-0.333113
-0.226476
-0.0293534
-0.0849041
-0.0249821
1.28607
0.232555
1.33311
-0.0419628
-0.00746081
-0.011501
-0.0210616
1.20874
-0.505187
-0.0616503
0.00309537
-0.0535042
-0.0335683
-0.00815026
-0.0841263
-0.135342
0.444533
-0.0449351
0.0525801
2.94997
-0.522024
-0.248118
-0.486426
0.000316253
0.572542
-0.0321314
-0.230252
-0.0507476
-0.304777
0.0419576
-0.00486214
-0.0262302
0.02903
1.3297
-0.0528486
-0.0161768
-0.0421447
-0.419087
-0.0752609
-0.190892
0.0405932
-0.0787423
-0.0807228
-0.0297499
1.34673
-0.394223
0.0285999
-0.037973
-0.236852
-0.122954
-0.424045
-0.0127258
0.67896
0.19939
-0.0709646
-0.0156667
-0.120815
3.13827
1.34292
-0.101001
-0.00526242
-0.0216335
0.0796024
-0.0360697
0.180989
-0.00374866
-0.106822
-0.0179485
-0.15006
0.0998537
-0.0096011
-0.0860032
-0.0123276
2.00243
-0.0579278
-0.104036
0.158181
-0.0175519
-0.256845
0.665821
2.76279
-0.0963456
-0.101882
-0.0191977
-0.00421033
1.67039e-05
-3.80349e-05
-0.090832
-0.00605051
0.876467
-0.00606812
-0.016456
0.0748087
-0.00234694
-0.378457
-0.362622
0.148504
0.321902
0.220887
0.593153
-0.179549
0.666567
0.527152
0.693227
0.861086
-0.114918
-0.00796491
-0.0498415
-0.406128
-0.0316935
-0.133279
0.514471
2.04235
-0.318798
-0.00437108
-0.000260626
-0.0133547
-2.79078e-06
0.0880286
-0.00503334
-0.0393893
-0.407507
0.00493478
0.0236958
-0.00199197
0.568297
-0.136769
-0.0585627
-0.0108581
2.03057
1.74131
-0.0900394
-0.315163
-0.239792
-0.210013
-0.128041
-0.0169403
-0.453022
-0.184762
-0.346093
0.0593856
-0.000449196
1.28322
-0.0507916
-0.086614
-0.165674
0.162444
-0.00481725
-0.07518
-0.0124043
0.125965
-0.0136419
1.1646
0.0031861
0.0884231
-0.00375017
-0.0902967
0.07784
-0.0068351
0.152769
0.00381359
0.439483
0.862512
0.0216603
-0.0130875
-0.00113038
-0.00519819
-0.00456841
-0.515852
0.875845
0.381181
-0.00243803
0.0885107
-0.00415049
1.49381
-0.503073
1.62153
-0.365551
-0.00408341
-0.00257295
-0.0656564
-0.0505944
-0.00568282
-0.000165107
0.21685
0.244532
-0.0021448
-0.00301582
-0.17267
-0.00020106
1.14182
-0.00847566
-0.444965
-0.166758
-0.057175
-0.465926
-0.504672
1.03996
-0.0697433
-0.176551
-0.00287073
-0.477733
-0.178863
0.323421
0.843585
2.19165
-0.0106394
-0.500123
0.128765
1.93429
0.323479
-0.00107672
-0.0541929
-0.0365873
-0.044573
-0.405318
0.701376
0.00166225
0.197751
0.0281974
0.638712
-0.0047186
-0.00110224
-0.101875
1.77652
-0.459456
1.03936
-0.0111816
-0.0018314
-2.26194e-05
-0.342002
-0.352183
-0.00306925
0.812069
0.0981147
-0.0478952
2.54947
-0.00354179
-0.0331389
-0.487542
-0.087471
-0.0205452
0.938527
-0.293284
-0.00150057
0.130896
-0.00157471
-0.000903665
0.986398
0.0585355
-0.00409821
-0.436921
-0.212747
-0.0312349
-0.105783
0.0210296
-0.195562
0.0146729
-0.0314476
-0.53853
-0.321596
0.210865
-0.008227
1.08706
1.3847
-0.292024
0.089461
0.164049
-0.0385455
1.13801
0.809633
-0.241785
-0.0014658
0.0899219
-0.467645
0.132786
-0.232353
-0.0189041
0.40531
-0.235951
-0.00123775
-0.000654407
-0.12214
-0.199342
-0.223177
0.0873059
0.280207
-0.36973
-0.00139382
-0.0123996
-0.00188724
-0.254693
-0.000215024
-0.0173838
-0.238212
-0.442313
0.894693
-0.0267931
0.0372663
-0.180712
-0.218936
-0.00115785
-0.391792
0.872478
1.07866
0.000213002
-0.00100405
1.09867
-0.0225803
-0.455367
-0.340817
0.029755
0.00429336
-0.586766
0.0244641
1.12462
-0.479553
-0.013279
-0.0667951
-0.415454
-0.00521208
-0.00218472
-0.00818793
0.140711
-0.431923
1.0384
-0.00190655
3.10016
0.244954
0.00106144
-0.00865764
0.00228101
0.00260666
-0.000130182
0.00125046
-0.447726
-0.006484
0.00386753
-0.00179443
0.975297
-0.0509835
-0.0017472
-0.000392532
2.21094
-0.184853
0.0533373
0.0101176
-0.00650663
0.500787
-0.000876458
-0.0960052
-0.198153
0.0191534
-0.0540222
-0.000864249
-0.00187035
-0.257657
-0.337207
0.0635343
-0.247251
-0.171981
-0.000252107
0.181167
0.268237
0.777619
-0.0154818
-0.0014098
-0.468271
-0.0543948
-0.00448074
-0.415419
-0.00123583
0.364461
-0.000783798
-0.0114947
0.384296
-0.0183363
-0.491864
2.86021
-0.014567
0.00248401
-0.427648
-0.361502
0.0831109
0.041737
-0.00135716
-0.266062
-0.000751165
1.31252
3.7919
0.69354
0.026758
0.0319325
-0.000168989
-0.234128
-0.000508354
-0.052875
-0.0152399
0.00335235
-0.0299745
-0.0792423
-0.00110489
0.00768307
-0.0633544
-0.00281166
-0.0810612
-0.142383
0.00282988
-0.0101149
3.37821
-0.00619068
0.021463
0.00218779
0.120573
-0.419925
0.0850748
-0.00159328
-0.000893657
0.0240703
-0.000979747
-0.000254359
-0.0949256
0.00619157
-0.000217694
-0.427755
-0.0192722
-0.477872
-0.0147082
-0.000604651
-0.0278193
-0.0276491
-0.125587
-0.164024
0.0201981
0.00471854
-0.00415757
-0.0177727
-0.000702413
1.77052
0.0137304
-0.000179576
0.00522387
-0.0180437
-0.00319055
-0.537551
-0.462074
-0.00115831
-0.0621944
0.000121546
-0.0220535
-0.000652229
0.290145
-0.00125724
-0.00166091
-0.0296279
-0.000205972
0.117746
-0.00204055
-0.0113154
0.161172
0.000109577
2.35963
-0.448042
-0.35064
-0.000224194
-0.000188025
0.0167187
-0.0106242
-0.409667
-0.00015271
-2.12648e-05
0.00655691
-2.58307e-05
0.00339456
0.00397704
-0.00407244
0.00701535
-0.44363
2.9344
-0.246772
2.12439
0.0793343
-0.13676
-0.000168825
-0.00785948
-0.107179
0.00130461
0.00255036
0.00155645
0.598611
-0.0117373
-0.00192246
2.98876
-0.00481124
0.00522522
0.00446984
-4.2798e-05
0.53871
-0.01933
0.0100585
0.00113076
-0.00468128
-0.000606302
-0.00809654
-0.367739
-0.00370904
-0.0135073
-1.3385e-05
0.00146779
-0.00228273
1.29049
-0.00392547
-0.00242301
-0.586826
0.0332293
-0.000751509
-0.0119238
-0.000540724
1.19353
-0.607869
-0.00262485
-0.00344328
-0.0156638
-0.00137127
0.469211
0.846081
0.410673
0.00452077
-6.03217e-05
-1.02878e-05
0.506541
0.00228907
-0.514146
-0.155779
-0.134927
0.308769
3.369
0.0172174
1.33576
-0.124639
-0.24727
1.20635
-0.00316091
-0.551218
-0.000114367
-0.078999
-0.418966
0.000489114
-0.364017
-0.00846185
0.0119046
-0.044615
-0.364459
-0.359854
-0.0255239
-0.488369
-0.377288
-0.00166174
-0.104545
-0.000448555
-0.318226
-0.000247968
-0.00165142
0.222178
1.15635
-1.12275e-06
-0.38309
0.0315003
0.000668022
-0.172309
5.28793e-05
-0.118677
-0.00228639
-0.328348
0.00116345
-0.000765187
-0.017774
-0.000403443
1.12593
-0.259127
0.670849
-0.000259165
0.00558646
-0.276612
7.59416e-06
-0.481174
-0.560841
-0.473668
3.13754
-0.0569035
-0.000157075
0.221931
-0.352335
-0.0213158
-0.00021079
-0.00075122
-0.403375
0.0011614
0.00783067
-5.85823e-06
0.00144319
-0.239506
0.911901
-0.26305
0.759704
-0.0469024
-1.17801e-05
0.0596676
-0.37613
-0.000182846
-0.000123281
0.00286855
0.00057139
0.00359066
1.469
0.295829
0.000499369
9.8286e-05
-0.565855
1.3767
1.23424
-0.00040172
-0.307616
-0.157205
-0.0838069
-0.409725
-0.068948
-0.025517
1.00777
-0.000356961
-0.225099
1.18017
-0.413577
-0.000146228
-0.526102
-0.00154231
1.8053
0.24781
-0.000116469
-0.000240612
1.28516
3.41487e-05
-0.00160289
-0.101232
0.000114215
1.64176
0.0315302
-0.0638844
-0.559122
-0.0329537
-0.499628
1.27363
-0.0595903
0.0399987
0.00882027
-0.000170399
-0.00893838
-6.43921e-05
-0.000138158
0.254636
1.26557
1.06666
-0.00385136
1.63367
-0.0828132
6.89336e-05
-0.390322
-0.000151328
-0.236319
0.256237
-0.117015
0.0394766
0.0160924
-0.0809947
0.00222357
-0.0145858
0.179012
-0.0252316
-0.00041073
0.000260654
-0.00053533
0.26208
0.000484738
-0.173658
1.72251
-0.0520982
0.000447467
-0.0300992
-8.45957e-05
0.737501
-0.00312078
-0.000569744
-0.000743314
-0.00011652
1.4429
-0.00133574
1.58346
-0.508176
0.00101591
-0.416761
-0.00422102
1.11197
3.07466
-0.012315
2.14831e-05
0.000142651
-0.000185861
1.01465
6.8871e-06
0.00917559
-0.205475
1.51469
6.00501e-05
0.000134858
2.53303e-05
0.000219271
-0.175908
1.66313e-05
1.65662
-0.130182
-0.00107356
0.000262531
-0.0179723
-0.249117
1.22277e-05
-0.000489747
1.17667
0.000293942
-0.271059
-0.257334
0.0011904
8.57095e-06
-0.396426
1.14835e-05
1.15943
0.000129761
-0.00385841
0.000104012
-0.00152557
0.694185
2.79137e-05
-0.01423
7.31795e-05
0.123177
-0.0294145
-0.0553653
0.00953871
1.09214
-0.00233463
-0.000694656
-0.0767971
-0.0742799
-0.00211334
-0.000449874
-0.00775963
0.000354446
1.23348
-0.0847248
3.06028
-6.53534e-06
-0.0662856
-0.0013448
0.978035
0.000499942
-0.21896
0.000207738
-0.0137351
-0.282973
-0.00201057
-0.135032
-0.416563
0.04554
-7.43468e-05
-0.409385
-0.00289555
-0.00255937
-0.0479725
-0.0859899
0.0112765
-0.000421218
-0.00377715
-0.00773117
-0.0111168
0.000115673
-0.0105127
2.96868
0.000855882
-0.0281403
-0.296057
-0.627172
-0.535078
-0.405048
-0.184362
-0.00451595
-0.1056
0.000672222
-0.000703008
3.00259
-0.00081279
1.25495
-0.00390956
0.00357345
-0.00986069
-0.24935
-0.00362282
0.00719248
-0.000131245
-0.0034067
-0.00012984
-0.000686498
-0.127498
-0.000945269
-0.000229255
-0.000717607
0.00130699
-8.63879e-05
-0.354334
1.50831
-8.79535e-05
-0.00520036
0.000288307
0.000269484
-0.00725213
8.20483e-05
-0.00785301
0.0025348
-0.00316632
-0.545739
-0.00597909
-0.0157533
4.35518e-05
-0.0128946
0.00295773
-0.000132872
-8.64334e-05
0.000119911
-0.00686788
0.00485726
-0.370595
-0.217191
-0.553309
0.00551988
-0.0150824
0.12694
-0.557726
-0.00081784
0.140114
0.0607404
-0.00903166
-0.101274
-0.479848
2.73555
-0.00367075
-0.000132541
0.00777049
0.00043114
0.000156855
0.565865
0.0329141
0.647714
-0.267781
2.66021
-0.00451366
1.82001e-05
0.00135103
-0.000157993
-0.0117861
1.0971
1.48607
-4.69518e-05
-0.00147655
-0.000146871
1.42204
0.18829
-0.0385064
0.000105885
0.000170773
0.0624992
-0.00599731
-0.589955
-0.141544
0.000212514
0.0303351
-0.249863
-0.000517539
0.0157021
-0.000573005
-0.387405
-0.0153184
1.05088
0.000148523
0.0144352
0.00110249
0.000132505
0.00153236
-0.193889
0.000131161
-0.00786138
0.00019832
-0.164378
-0.387037
-0.0242708
-0.0511055
-0.0736851
0.0776416
-0.0744085
-0.0213922
0.000586561
0.000941531
0.000179939
0.000157374
-0.000483463
0.0789618
-0.449003
0.00438739
-0.29211
-0.0264805
-0.363045
0.000763052
-1.92394e-05
0.0113243
0.0287687
0.000160738
-0.300954
-0.12061
0.465753
-0.279503
0.000232171
-0.0292707
0.00172149
-0.214187
0.950609
0.000101669
-0.487207
-0.180283
-0.0359466
0.000332522
-7.5824e-05
0.265887
-0.139402
0.000210366
-0.0576779
-3.46031e-05
0.00190879
0.894574
-7.4351e-05
3.13335e-05
-0.000731981
0.000302464
0.007801
0.00077552
-0.043757
0.0020736
-0.106213
0.00959679
-0.00180609
-0.244908
-0.354465
-0.0534077
-0.000132905
0.00018918
-0.421386
0.049707
-0.397221
0.000254492
-0.0439771
-0.000317473
0.000215075
0.594441
-0.0591833
-0.023836
-6.25262e-06
-0.145337
0.000435505
-0.556481
0.000236608
-0.628996
0.00016931
-5.36926e-05
0.000744593
0.00883577
-0.202611
-0.151899
-0.563104
0.000141808
0.000849416
-0.644142
-0.167352
-0.071501
-4.22464e-05
-0.0544133
-0.396846
-0.657443
3.32499e-05
-6.73331e-05
4.37025e-05
-0.271549
-0.536303
0.00625216
-0.0922083
-0.000477756
1.46709
0.000822285
0.000129104
0.00134332
-6.96657e-05
-7.32984e-05
-0.0308129
0.001012
-0.0217352
-0.509514
-0.10883
-0.496714
0.00035293
-0.000438869
0.452072
-0.262949
-0.0396562
0.816884
4.74609e-05
-0.000115193
-0.000106016
0.909114
0.00154344
5.95704e-06
-3.71391e-05
-0.43692
-0.128716
5.58304e-05
0.000717393
-0.0778779
-0.0538599
0.00373261
1.49985
-0.451593
0.00194255
3.82653
-0.000149227
-0.00588407
-0.0658695
-0.672892
5.77994e-05
-1.47242e-05
0.000189504
0.0416899
-0.239885
-0.00288034
-0.405446
-0.0652742
0.000242283
-4.15645e-05
-0.0851161
0.0249049
0.115113
-0.105782
-0.383021
-0.323856
0.242853
-0.215879
-0.000538941
0.0031302
0.164767
0.00472466
-0.000663072
0.00663574
0.000273342
-0.000765308
-0.100265
-0.00010481
-0.000238603
0.339163
0.0208711
-0.00138177
-0.000325053
-4.66362e-05
1.62835
-0.0556902
0.00683578
-0.226586
0.00203058
0.00175926
0.00151877
-0.000413718
0.00427521
-0.309867
0.160031
-8.06851e-05
-0.00138986
-0.331881
-0.243056
0.378999
-0.00419656
0.0156657
0.14933
1.80293e-05
0.000534031
-0.339415
0.000194134
1.1419
8.15114e-05
0.0357963
0.00147821
0.00197536
-0.59515
-0.0616835
-0.148952
-0.0205269
0.000231188
0.0590099
0.469636
-0.102576
-0.00114622
0.695825
1.11261
3.12112e-05
-0.433613
-0.00056634
-8.55649e-05
-0.000381886
-0.00483259
0.164207
-3.97542e-05
0.0021864
-0.202685
-0.214606
-0.183478
1.98128
0.000161356
-0.000589429
1.16772
-0.00654759
-0.0320464
-0.00556671
1.1483
0.000392573
-0.00266524
0.000410414
0.000244852
0.000273866
0.000314647
0.000639382
-0.149088
7.52515e-05
-0.027844
-0.375281
1.58487
-0.00120589
-0.000424067
0.0402661
0.629734
-0.3251
-0.0064083
-0.592335
1.9706
0.000374695
2.52063
-3.92749e-05
0.0287214
0.201299
0.00384561
2.70571
-0.000108653
-5.33181e-05
0.0100315
0.000269091
-0.00735024
0.0023029
0.000101962
-0.0167004
0.000102247
-0.00124157
-0.0280117
1.5887
0.426419
0.182131
-0.370071
-4.55438e-05
-0.000149832
0.0295324
-0.397637
-8.26733e-05
-0.393677
-0.000456466
0.755646
0.474172
-0.266543
-0.0115074
-0.093478
-0.00843137
-0.123446
0.0397827
-0.0588899
0.500522
1.87954e-05
1.59436
0.416622
-0.00491315
1.41126
-0.112426
-0.000107902
0.000210618
0.000579562
-0.00180278
-0.00103096
1.60518
-0.00837369
1.63307
-0.008757
1.13965
1.47456
0.919308
-0.0593061
-4.2196e-05
0.000574216
-0.08897
-0.460857
-0.391994
0.0127719
0.000180502
-0.321807
-0.00263433
8.10623e-05
0.00871473
-0.00916886
-0.00526154
0.269675
0.000651343
-0.412983
0.469591
0.000503193
0.00237738
-0.111706
-0.444321
-0.00625816
-0.00443837
0.000116523
0.00220428
0.781163
-0.137233
-0.385105
0.0112113
0.811111
-0.322668
0.000313071
0.000200266
0.292655
-0.00074736
0.717691
0.0266871
-0.113523
-0.00326219
0.0139923
-0.293474
-0.000275294
0.00435001
0.0654328
-0.626772
1.09965
-0.533692
-0.224121
-0.00139919
-0.000390376
0.0566725
0.000407932
-0.640416
-0.541062
0.00497181
0.0298872
0.0320784
-0.485776
0.00564433
0.00169504
0.000338432
-0.339309
0.000250921
0.00492913
0.871126
1.22442
-0.480029
0.383778
0.385811
0.268695
-0.00134643
0.109833
0.00107457
7.65167e-05
-0.000607229
-6.61763e-06
0.000232807
-0.00305704
-0.0646684
-0.226233
-0.0826858
-0.225811
0.422984
0.351929
0.0349007
-0.515563
0.0014292
0.0410014
0.0966744
-0.00331999
0.59485
-0.00982139
-0.0908401
0.105634
0.0465244
0.00976903
-0.0342508
0.364557
0.0071253
-0.166379
-0.137624
3.19489
-0.202632
0.631359
0.327808
-0.28533
0.0186333
0.000916957
-0.0222112
0.000509214
-0.0225633
-0.209812
-0.000591031
-0.000376616
1.78462
-0.0278926
-0.353853
-0.158826
0.00176857
-0.0109839
-0.000195247
7.01125e-05
0.332922
0.000351548
-0.0251064
0.605251
0.0547757
0.00961332
0.157757
-0.0489511
0.036153
-0.388039
0.00751951
-0.0377708
-0.470028
-0.00729028
-0.0687886
0.00656151
0.0127254
0.00850056
0.327263
-0.00267301
0.0485118
-0.463875
-0.171838
0.00273199
-0.464533
-0.127047
-0.145652
0.00092966
0.0563429
-0.505678
-0.00719641
-0.0408419
-0.433556
0.00600298
-0.0100421
1.47883
-0.161325
-0.000359474
0.0697758
-0.399658
-0.00901446
1.31985
-0.0170978
0.00873739
0.453242
-0.0122779
0.0715841
0.908159
0.000577346
0.0100266
0.00156856
0.000336272
-0.0377057
-0.0562908
-0.00110002
-0.204411
0.747413
-0.31948
-0.524331
0.01
-0.027794
-0.00505506
-0.212232
0.000246227
0.155965
0.000411198
-0.133679
-0.0167175
-0.0416716
0.291735
0.882508
-0.54868
-0.000448789
1.35312
-0.0160564
-0.0191286
-0.511671
-0.563807
-0.13081
-0.000256168
-0.00907237
0.0617311
-0.0262357
-0.0403019
0.00379066
0.661491
-0.332349
-0.0945601
-0.0565596
0.237695
-0.0135712
-0.00296725
0.0144896
-0.000146057
-0.0263425
0.860066
0.00685583
-0.42381
-0.000481454
-0.0623409
-0.0271805
-0.584122
-0.0970312
-0.623486
-0.000544108
-0.000526033
-0.024489
0.0912692
0.0161875
-0.628506
0.689502
-0.403125
0.00165564
-0.628546
0.000104852
-0.610769
-0.214419
-0.49989
-0.439496
-0.358467
-0.152809
0.189733
0.31591
0.434787
0.558321
0.68256
1.06555
1.19433
1.33236
1.60627
-0.0683555
-0.0615636
0.5555
-0.122359
0.00777825
0.167353
-0.339733
0.00465893
-0.00533122
-2.61459e-05
-0.118232
0.148563
0.000387728
-0.00258541
-0.0885246
-0.014368
-0.556076
-0.0871925
-0.469958
-1.55259e-05
0.00497709
-0.000451062
-0.33854
-0.072961
-0.300108
-0.0690775
0.0148034
0.00197961
0.0402082
-0.000280092
-0.0150375
-0.000114662
0.00326772
-0.0375464
-0.0962959
-0.00190317
0.00286139
0.382223
-0.086251
0.54464
-0.591017
-0.0518802
0.935465
-0.158235
0.0319622
-0.179693
-0.0274971
-0.104478
-0.0993511
2.16605
-0.0102304
0.000613118
-0.048807
-0.0732961
2.73241e-05
0.607563
-0.0329245
2.02895
0.0646371
-0.386186
-0.225051
0.411481
-0.0372725
-0.000416957
-6.60619e-05
-0.0353567
-0.417048
0.000501396
2.18208
-0.0233661
-0.0410662
-0.000657122
-0.00322913
-0.0486685
0.808082
-0.018186
0.868109
0.00562036
-0.120223
-5.60489e-05
0.222313
-0.0615714
0.161473
-0.0473461
-0.0459398
-0.00569249
0.0112364
0.100707
-0.000105186
-0.0760912
0.00487554
-0.00333016
0.00403964
-0.0745529
0.00200598
1.01981
-0.0891998
0.0328679
-0.229257
0.386556
-0.285934
-0.0920228
0.35987
-0.153707
1.2329
0.0798073
-0.0287764
-0.421137
-0.00565104
-0.000406218
0.00382858
0.000788684
-0.0177688
0.0375425
0.000761798
-0.109244
0.180756
-0.0260549
0.000370011
-0.0278804
-0.355662
1.05358
-0.270769
-0.388656
0.069133
0.636487
-0.0105696
0.508854
-0.0987128
0.0445956
0.294878
-0.481173
0.794664
-0.000447218
-0.241827
0.00985492
-0.012685
-9.50413e-05
-0.0506294
0.800583
0.00773361
1.56709
-0.17399
0.196452
-0.132692
0.00129919
-0.0116604
0.506659
-0.320893
1.53442
0.307128
0.201052
1.18847
-0.348972
-0.0359431
-0.525963
0.00616176
-0.28353
1.08451
-0.0241558
1.76577
-0.0113145
0.679171
0.000865571
0.737908
0.944446
0.0228563
-0.165532
-0.00312664
-5.00931e-05
0.0446145
0.0180277
-0.326315
-0.297729
-0.0475397
-0.338198
1.13132
0.422869
-0.301296
-0.128305
0.00014573
0.0357049
1.40496
0.0390154
1.13899
-0.488547
0.0450938
0.000737798
0.00335336
-0.171068
-0.00951416
-0.0215887
-0.271951
-0.00518635
0.0295016
-0.257724
-0.327931
1.37676
-2.76781e-05
-0.148901
0.00159617
-0.211945
-0.00297695
-0.461208
0.891074
-0.283583
-0.19416
-0.012042
-0.125894
-0.00555062
-0.0434631
0.616259
-0.223783
-0.000155999
-0.056966
-0.0312637
-0.00304458
-0.0195733
0.10186
-0.0888611
-0.281499
-0.00033019
1.05935
-0.211786
0.0583642
-0.00310657
-0.0657081
-0.00308462
-0.00280937
0.00249146
-0.197037
-0.00085257
-0.31147
0.0237803
-0.000110399
-0.0872591
0.00260633
-0.0772115
0.0112568
1.16506
0.0103357
-0.0785118
-0.0748603
0.033261
0.892972
-0.121326
-0.138141
-0.124609
0.00285082
0.870541
0.382486
0.0109266
0.00102579
0.419962
-0.365757
0.0225141
-0.217593
0.0122586
0.00318142
0.246135
-0.227716
-0.108281
-0.0932324
1.88865
0.21974
-0.0392558
0.267951
-0.00362752
0.000223592
0.0149194
0.0262601
1.0015
-0.0281758
0.172759
0.00087342