/*--------------------------------*- C++ -*----------------------------------*\
  =========                 |
  \\      /  F ield         | OpenFOAM: The Open Source CFD Toolbox
   \\    /   O peration     | Website:  https://openfoam.org
    \\  /    A nd           | Version:  7
     \\/     M anipulation  |
\*---------------------------------------------------------------------------*/
FoamFile
{
    version     2.0;
    format      ascii;
    class       volVectorField;
    location    "4.5";
    object      U;
}
// * * * * * * * * * * * * * * * * * * * * * * * * * * * * * * * * * * * * * //

dimensions      [0 1 -1 0 0 0 0];

internalField   nonuniform List<vector> 
7807
(
(1.05345 0.0893199 7.71069e-20)
(1.04515 -0.0231104 2.36433e-19)
(1.01256 0.0710667 -1.2252e-19)
(1.03158 0.0505304 2.44801e-19)
(1.01 -0.00197955 3.37773e-20)
(1.00803 -0.0107951 2.11984e-20)
(1.00948 0.0640816 -2.42458e-19)
(1.00826 -0.00320369 9.03807e-22)
(1.00772 -0.00119884 2.78752e-20)
(1.02284 -0.000923059 -2.08714e-20)
(1.00568 -0.00447889 -2.34304e-20)
(1.01171 -0.00204641 -5.59903e-20)
(1.00686 -0.00383416 -5.5272e-20)
(1.01812 -0.00110736 -2.44804e-19)
(1.0215 0.000503819 8.71206e-20)
(1.00792 -0.00982079 8.98895e-20)
(1.05404 0.0934391 -1.6367e-19)
(1.00583 -0.00385221 1.54862e-20)
(1.0142 -0.00588891 -4.52868e-20)
(1.00243 -0.0586665 1.97127e-20)
(1.03057 0.00218316 -6.66448e-20)
(1.01079 0.000219546 1.57212e-19)
(1.02058 -0.00213003 3.14503e-20)
(1.01056 0.0256835 -1.48356e-19)
(1.00487 -0.00415233 5.56756e-20)
(1.05079 0.0878437 -7.72684e-20)
(1.01012 -0.00159752 2.80688e-20)
(1.02458 0.000981003 8.09832e-20)
(1.00578 0.0136997 -2.15859e-20)
(1.01319 -0.00579339 4.04969e-20)
(1.00448 -0.0109998 1.28491e-19)
(0.89239 0.0279084 2.54239e-20)
(1.0186 -0.00216801 1.70156e-19)
(1.00853 -0.00262486 -6.16481e-20)
(0.820946 -0.00122978 3.67576e-22)
(1.02144 0.00160367 3.32303e-20)
(1.01506 -0.00722168 2.99094e-20)
(1.01043 0.0612265 -4.11829e-20)
(1.00863 -0.00677044 -1.60265e-19)
(1.00308 -0.0023217 -7.09454e-20)
(1.00904 -0.0064466 1.61359e-20)
(1.00795 -0.00951975 3.34571e-20)
(1.01892 -0.064528 -9.47636e-20)
(1.10969 -0.0254982 -3.48786e-20)
(0.801045 -0.00118013 -3.3086e-20)
(1.00728 -0.0030382 1.62334e-20)
(1.00982 0.000213501 -9.56146e-20)
(1.00988 -0.00545046 9.42966e-20)
(1.00758 4.19113e-05 1.49633e-20)
(1.0051 -0.0590287 -2.90567e-20)
(1.01237 -0.00160987 4.50004e-20)
(1.02504 0.00177456 -8.73967e-20)
(1.00138 -0.0040303 1.54654e-19)
(1.01868 -0.0187254 3.31739e-20)
(1.01998 -0.000467307 -2.54673e-20)
(1.00887 -0.00354304 1.6072e-20)
(1.01178 -0.005178 7.13513e-20)
(1.00818 -0.00345617 -1.03406e-19)
(0.999847 -0.0123143 1.47201e-19)
(1.00855 -0.00344106 7.4628e-20)
(1.0074 -0.000725811 -3.74932e-20)
(1.01325 -0.000192529 4.29853e-20)
(1.01957 -0.000622383 -5.53474e-20)
(1.01095 -0.00199271 5.71413e-20)
(1.00889 -0.00414397 -6.0098e-20)
(1.00482 -0.0112118 -2.04841e-20)
(1.0073 -0.00170756 -2.60841e-20)
(1.00609 0.000104203 3.7267e-21)
(1.10759 0.0552966 7.90216e-20)
(1.00974 -0.00477647 3.79353e-20)
(1.00727 -0.000138917 -1.47344e-20)
(0.995648 -0.0343924 1.73775e-19)
(1.00509 -0.00449441 -2.76753e-20)
(0.99489 -0.00566532 -2.35535e-20)
(1.00642 -0.00407357 -4.86255e-20)
(0.992486 -0.0171269 2.35643e-20)
(1.01392 0.0720265 1.9629e-19)
(1.02909 0.00157176 8.37399e-20)
(1.0651 0.00526027 -1.748e-19)
(0.986294 -0.0283187 1.95645e-19)
(1.00717 -0.00372953 8.50327e-20)
(1.00924 0.0492043 2.76412e-19)
(1.0314 0.00841724 1.47501e-19)
(0.998159 -0.00711269 -1.04803e-19)
(1.00871 -0.00384113 4.70402e-20)
(0.990353 -0.00770873 -2.49819e-20)
(1.00797 -0.00342615 -1.38544e-19)
(1.0023 -0.00460562 -9.90738e-20)
(1.00926 -0.00207776 -3.88699e-20)
(0.998431 -0.000651461 -4.95851e-20)
(1.00585 0.0156596 1.53175e-19)
(1.13235 -0.0140202 5.44497e-20)
(1.00645 -0.00167497 2.51622e-20)
(1.01241 -0.0054042 3.32205e-20)
(1.00988 -0.00387222 -5.77216e-20)
(0.911544 -0.00286937 1.82376e-19)
(0.99706 -0.0342273 -1.04179e-20)
(1.01944 -0.0175592 -5.71463e-20)
(1.00809 -0.00405385 -9.47833e-21)
(1.00864 -0.00121382 -1.66132e-20)
(0.983143 -0.011043 -4.98058e-20)
(1.06609 0.00897254 1.31405e-19)
(1.00955 -0.00388985 1.43797e-19)
(0.842272 -0.000501517 2.23798e-22)
(1.13502 -0.00568733 3.46912e-20)
(1.02567 0.0236189 -1.47603e-19)
(0.982832 0.0369894 3.40497e-20)
(1.00871 -0.00333937 6.13803e-20)
(1.00519 -0.000391534 -1.19644e-21)
(1.02647 -0.00559457 -7.01803e-20)
(1.03506 0.0485205 -2.84124e-19)
(1.02938 -0.0477365 1.79636e-19)
(1.00507 -0.000115771 1.45982e-21)
(1.02881 -0.00546077 -1.52432e-20)
(1.02248 0.0236876 1.54081e-19)
(1.00915 -0.000379633 -2.08654e-20)
(1.05835 -0.0556509 1.33746e-20)
(1.02613 0.0145739 -4.07764e-20)
(1.00291 -0.0274193 -1.06649e-19)
(0.997981 -0.00584115 2.50023e-20)
(0.95972 -0.00893899 1.17984e-19)
(1.00481 0.0468909 -1.84327e-19)
(1.02292 -0.0635953 1.30163e-19)
(1.01576 -0.00332838 1.91616e-20)
(0.975502 -0.00857571 -4.64449e-20)
(1.00898 -0.00264375 -8.30416e-20)
(1.00549 -0.00818719 -4.70349e-20)
(1.01271 -0.00602975 -5.47146e-20)
(1.00241 -0.0133667 1.34391e-19)
(1.00523 -0.00970703 -3.10443e-21)
(1.15992 -0.0273521 1.62029e-20)
(1.0609 0.00354009 2.9303e-20)
(1.00888 -0.00274144 -5.87756e-21)
(1.00871 -0.00223298 8.63735e-20)
(0.997462 -0.00653196 -3.01749e-20)
(1.03349 0.0406967 1.13054e-19)
(1.00718 0.0611662 3.07107e-19)
(0.981302 -0.000171763 2.29471e-21)
(1.0171 -0.00171111 1.04537e-20)
(0.910393 -0.00218199 1.21761e-19)
(0.978339 -0.00452587 1.02209e-19)
(1.00598 -0.0378384 1.34284e-19)
(0.992717 -0.0183805 -3.15856e-20)
(0.995222 -0.00559466 1.87919e-21)
(0.922643 0.0215609 1.34386e-19)
(1.02036 -0.0274505 8.79513e-21)
(1.01164 0.0149968 -8.17451e-20)
(1.00099 -0.0142846 7.91655e-20)
(0.939941 -0.00342937 -2.09404e-20)
(1.00459 0.0471275 -9.19943e-20)
(1.02332 0.00364326 9.67923e-20)
(1.12277 -0.0158938 2.34431e-20)
(1.00924 -0.00264819 1.32054e-19)
(1.11184 0.0493891 1.8993e-20)
(1.03088 0.00744935 -1.5609e-19)
(1.01696 0.063412 -2.13036e-19)
(0.989578 -0.0198976 -8.50324e-20)
(1.0065 -0.00443103 -2.05582e-20)
(0.996999 0.0549581 3.09841e-19)
(1.00782 0.000219886 1.54562e-20)
(1.01228 -0.00522124 -8.2828e-20)
(1.01191 0.0289312 1.01918e-19)
(1.00616 -0.00168343 -1.79092e-20)
(1.00976 -0.00449947 1.63826e-19)
(1.00924 -0.00257193 2.57823e-20)
(1.00567 0.033404 -3.07639e-20)
(1.00381 0.0359689 1.10527e-19)
(0.992019 0.0554253 9.6456e-20)
(1.00943 -0.00521406 7.09442e-20)
(0.979814 -0.00647588 3.21093e-20)
(1.00654 0.000864122 -3.7613e-21)
(0.807579 -0.00625576 1.88469e-19)
(1.00939 -0.000844277 2.79179e-20)
(1.04729 -0.0208696 -2.76598e-19)
(1.0174 -0.00227052 6.83484e-20)
(0.972862 -0.00466815 -4.48465e-20)
(1.12789 0.00200871 6.43843e-20)
(1.07593 0.0535225 6.41181e-21)
(1.00663 -0.00173931 -1.46267e-20)
(1.00899 -0.00187256 7.75342e-20)
(1.03117 0.05183 -4.07671e-20)
(1.00808 0.000965202 6.94347e-21)
(0.968433 -0.000861765 -7.20598e-21)
(1.01033 0.0655406 -1.99342e-19)
(1.04618 -0.0246978 1.19965e-19)
(1.02055 -0.039609 1.13986e-19)
(1.00409 -0.0265853 1.53084e-19)
(0.999629 -0.00609345 -7.59987e-20)
(1.01864 -0.0285957 -2.17081e-20)
(0.881095 -0.00904169 -6.36595e-20)
(1.00547 -0.00207801 5.43583e-21)
(0.997464 -0.0320467 4.28189e-20)
(1.07813 0.0589579 -1.18343e-19)
(1.0093 -0.00358736 -2.06937e-20)
(1.0082 -0.000242726 -1.90837e-20)
(1.05732 0.0557038 9.26725e-21)
(1.00765 0.000121179 -1.26604e-19)
(1.00544 -0.00915735 -7.02081e-20)
(1.0169 -0.0272235 -7.76309e-20)
(1.00689 -0.000647389 -1.5655e-21)
(1.00996 -0.00216846 -6.93834e-20)
(1.0308 0.0413156 1.27959e-19)
(1.0671 0.0619941 -1.33328e-19)
(1.01348 0.0584196 -2.79554e-20)
(1.05533 -0.0516269 -7.52257e-20)
(1.0315 -0.0452304 -3.69329e-20)
(1.08909 -0.0779997 1.9599e-20)
(1.02274 -0.00317673 2.18878e-19)
(1.02782 0.0425951 -4.71987e-20)
(0.958922 -0.00386696 3.11811e-20)
(1.00787 -0.000283987 1.08048e-20)
(0.853549 0.0319966 -1.52829e-19)
(1.00825 -0.00951751 3.63041e-20)
(1.00899 -0.00298943 5.21342e-20)
(0.998856 -0.0315908 -9.91374e-20)
(1.00539 -0.00855179 5.22187e-20)
(1.02211 0.058677 -2.5577e-19)
(1.01883 0.0577886 -5.68967e-20)
(1.00436 -0.0386508 -3.46063e-20)
(0.975098 0.0407773 -1.02706e-19)
(1.00942 -0.00105166 9.59821e-20)
(1.00558 -0.00410558 -5.42319e-20)
(0.980749 -0.0104453 -6.46799e-20)
(1.03045 0.00483298 -4.35095e-20)
(1.0216 -0.0811096 8.73841e-21)
(1.06705 0.0900228 -1.85809e-19)
(0.997227 0.0505253 -2.70682e-19)
(1.0075 -0.00109515 2.7645e-20)
(1.01541 -0.00384599 2.54316e-20)
(1.02411 0.0170408 2.13249e-19)
(1.00964 -0.00502425 1.24953e-19)
(1.02782 0.015372 -2.81231e-20)
(1.00919 -0.00213712 2.83334e-20)
(0.981308 0.0574667 1.8834e-19)
(1.01727 0.0597779 4.38766e-20)
(1.00808 -0.00354325 -8.41911e-20)
(1.01424 -0.00563144 -4.96492e-21)
(1.00742 -0.00168947 1.35287e-19)
(1.09173 0.0744587 6.37197e-20)
(0.972812 -0.00110587 -2.66803e-20)
(1.00896 -0.00730238 -3.55039e-20)
(0.976204 -0.0182892 -7.39971e-20)
(1.0073 0.000442784 6.16594e-21)
(1.00902 -0.0037797 3.50912e-20)
(1.00921 -0.00214845 -3.13276e-20)
(1.05096 0.0343672 1.44636e-19)
(1.00665 -0.00159208 -2.41105e-20)
(0.962922 0.0010398 -2.75499e-22)
(0.98777 -0.0281729 -2.2828e-19)
(0.796256 0.0276194 -5.57028e-20)
(1.06051 0.000508896 -4.30877e-20)
(0.99034 0.0450601 1.50859e-19)
(1.01285 -0.0113613 1.81587e-20)
(1.01541 -0.0277841 -6.58401e-21)
(1.00825 -0.00235939 5.8881e-20)
(1.0146 0.0646466 -2.03197e-19)
(1.01172 0.000351972 -5.30452e-20)
(1.00934 0.0486405 9.87724e-20)
(1.01361 -0.00735459 -1.34498e-19)
(1.01049 -0.00156727 8.83527e-20)
(1.03029 -0.0196477 -1.06215e-19)
(1.0222 -0.00175284 -2.04025e-19)
(1.00926 -0.000542502 4.32686e-20)
(1.00711 -0.00452012 -1.855e-21)
(1.00926 -0.000852648 1.09132e-19)
(1.00993 -0.00522464 1.05844e-19)
(1.02512 -0.0413947 -1.4221e-19)
(1.01082 -0.0040787 -1.22021e-20)
(0.990399 -0.0190005 -6.22672e-20)
(1.0097 -0.00299779 5.6933e-21)
(1.00672 -0.00081771 -2.6297e-20)
(1.00907 -0.00280214 -1.57892e-20)
(1.00524 0.055607 2.33913e-19)
(0.940061 -0.00359968 -2.51482e-20)
(1.00026 -0.0159365 1.4473e-20)
(0.62821 0.0403544 2.3699e-19)
(1.00886 -0.00440593 6.65238e-20)
(1.04788 0.0692848 -9.9413e-20)
(1.00801 -0.00241332 -8.52774e-20)
(1.01646 -0.0147813 1.00509e-19)
(1.00743 0.000231536 -1.18249e-21)
(1.00268 -0.0220228 6.55177e-20)
(1.03065 0.00536238 6.28497e-20)
(1.12965 0.00865764 -1.48649e-19)
(0.999947 -0.0131581 -1.2617e-19)
(1.00868 -0.00220982 -9.69708e-20)
(1.0017 -0.0497553 -4.95538e-20)
(0.381864 0.00246281 -7.03255e-20)
(0.960614 -0.000586722 -5.11699e-21)
(1.00921 -0.000673809 -9.6826e-20)
(1.00996 -0.00368317 -7.79109e-20)
(1.00426 -0.00478778 8.0658e-20)
(1.0134 -0.000620275 -8.68005e-20)
(1.00896 -0.00311514 -4.39847e-20)
(0.998819 -0.0069659 -1.76761e-20)
(1.0281 -0.0395081 9.5566e-20)
(0.998948 -0.00626054 -7.66435e-20)
(1.1045 -0.0198013 9.98244e-21)
(0.993024 -0.00585469 8.15351e-20)
(1.02295 0.0714892 2.30551e-20)
(1.02083 0.0729143 -1.73336e-19)
(1.00796 -0.00301738 6.81625e-20)
(1.1467 0.00668816 1.89874e-19)
(1.00546 -0.00389825 1.14456e-21)
(1.01055 -0.00388783 8.34507e-20)
(0.767041 0.0037899 -1.88329e-19)
(1.008 0.0217456 8.73245e-20)
(1.03464 0.00980198 -1.30148e-19)
(1.00778 -0.00106275 3.79675e-20)
(1.01009 -0.00328211 1.20883e-20)
(0.994703 -0.00637973 -6.15525e-20)
(1.04182 0.0312705 -5.81745e-20)
(1.00881 -0.00280624 -4.70241e-20)
(1.01153 -0.00150662 4.00746e-20)
(1.0105 -0.000676101 -9.19999e-21)
(1.09279 0.0207212 1.52745e-19)
(1.15912 -0.036915 9.91724e-20)
(1.03213 0.0831512 1.15067e-19)
(1.00333 -0.000441213 6.22677e-20)
(1.05324 -0.0242957 -2.35251e-19)
(1.00661 -0.00151924 2.58112e-20)
(1.01424 -0.00521364 -1.40333e-19)
(1.00855 0.00186608 5.23172e-21)
(1.00431 -0.0138696 -2.17541e-20)
(1.00696 -0.00367851 2.33423e-20)
(1.01929 -0.0129448 1.4089e-20)
(1.16469 0.00793435 -1.61731e-19)
(0.997224 -0.0180086 -1.23525e-19)
(1.01727 -0.0136433 -2.93643e-20)
(1.01544 -0.0032705 -4.17335e-20)
(1.0079 -0.00751603 -6.58991e-20)
(1.02842 -0.0107357 4.66919e-20)
(1.01041 -0.01161 -6.38197e-20)
(1.06193 0.0129284 -6.53373e-20)
(1.04751 0.0337802 6.99388e-20)
(1.1247 -0.0889567 -1.60121e-21)
(1.10781 -0.0317659 8.7585e-20)
(0.624604 -0.00823732 7.44673e-20)
(1.01389 -0.00224503 9.76964e-20)
(0.977678 -0.0175056 3.02619e-20)
(0.987898 0.0547488 -3.02375e-19)
(1.09256 -0.0318413 -1.52889e-19)
(1.0264 -0.00438798 -1.38301e-19)
(0.982067 0.0425849 -1.4315e-19)
(0.986603 -0.0027447 -3.05342e-20)
(1.00812 -0.00321707 1.87606e-20)
(1.12039 -0.0231579 8.71552e-20)
(1.0097 -0.00330601 3.91585e-20)
(1.02057 -0.0253817 -3.01336e-20)
(1.01463 -0.00234979 3.10995e-20)
(1.00182 -0.00429559 3.10196e-20)
(1.00184 -0.0042999 6.30446e-20)
(1.0263 0.0227036 1.1723e-19)
(1.00743 -0.00144017 1.1469e-20)
(1.00917 -0.000181564 -3.81108e-20)
(1.00767 -0.00035128 3.28814e-20)
(1.00775 -0.00305596 -1.46786e-19)
(1.00854 -0.00693174 -9.55744e-20)
(1.01114 -0.010815 -3.09642e-21)
(1.01067 -0.000363728 -9.1829e-21)
(1.00044 -0.0117714 -4.57016e-20)
(0.965142 0.0435758 8.89267e-20)
(1.01873 -0.014418 -6.33521e-20)
(1.00858 -0.00882611 -1.34466e-19)
(1.00316 0.05329 3.95553e-20)
(1.0031 0.0417621 1.77563e-19)
(1.0539 0.00313935 -6.24059e-20)
(1.13993 0.0112388 -7.20688e-20)
(0.661046 0.00640049 -1.03081e-19)
(1.01404 -0.00245034 -5.10738e-20)
(1.00936 0.0367357 -8.82222e-21)
(1.00244 -0.00349635 1.20635e-19)
(1.03572 0.0682285 4.833e-21)
(1.01841 -0.0308209 -3.75822e-21)
(1.03634 -0.0727374 4.23586e-20)
(1.06422 0.0601415 8.20826e-20)
(1.03697 0.0716073 -1.12669e-19)
(0.991187 -0.016549 -1.4685e-19)
(1.03745 0.00866437 -9.18844e-20)
(1.06984 0.0933529 1.74616e-19)
(1.04416 0.0694505 1.7672e-19)
(1.02289 -0.00063384 7.05188e-20)
(1.0092 -0.00365902 -3.42108e-20)
(1.00896 -0.00356637 -2.3739e-20)
(1.00434 0.00240507 1.3079e-20)
(1.02267 -0.0167872 4.38166e-20)
(0.992959 -0.003769 -2.92075e-20)
(1.00989 -0.00308891 -5.06883e-20)
(1.00514 -0.0075005 2.03805e-20)
(1.00798 -0.00233839 -2.58151e-20)
(0.999979 -0.0490111 8.18679e-20)
(1.08189 0.028947 5.6074e-20)
(1.00231 -0.00529009 1.14452e-19)
(1.01024 -0.00846417 -1.53231e-19)
(1.01083 -0.00198867 7.10393e-20)
(1.05243 -0.0256579 8.41471e-21)
(1.00595 -0.00427235 1.39243e-19)
(1.01248 -0.00478176 9.92566e-20)
(1.07938 0.0908515 2.76053e-20)
(1.00233 -0.00390123 1.55954e-19)
(1.00692 -0.0013421 2.13856e-20)
(1.00776 -0.00137957 7.95981e-21)
(1.00746 -0.00124397 5.18327e-20)
(1.00013 -0.00643567 -4.35832e-20)
(1.0251 0.0191463 -1.47344e-19)
(1.00074 -0.0029932 -2.3213e-21)
(1.02444 -0.00461381 9.43346e-20)
(1.02652 -0.0848651 -6.28632e-20)
(1.01213 0.0592565 -4.49997e-21)
(1.01372 -0.0058276 5.32523e-20)
(1.01651 -0.00266848 -9.31775e-21)
(1.00839 -0.00342593 6.90093e-20)
(1.00915 0.0562747 -2.30756e-19)
(0.994009 0.00306719 -3.34312e-20)
(1.03402 0.0855663 -5.97704e-20)
(1.01025 0.0152714 -1.50463e-19)
(1.00632 -0.00248001 -2.41845e-20)
(1.01705 -0.0315165 8.51997e-20)
(1.00922 -0.00367204 7.12573e-20)
(1.00829 -0.0384031 -1.68748e-19)
(1.00895 0.000241224 3.66126e-20)
(1.04973 0.00600479 8.43824e-20)
(1.0162 -0.0101888 -3.02576e-21)
(1.01524 -0.00183552 1.53193e-20)
(1.00964 -0.00202132 8.05071e-20)
(1.05711 0.0322433 7.5738e-20)
(1.03824 0.0309051 2.19405e-20)
(1.01903 -0.0410335 -9.63466e-20)
(1.00091 -0.0134279 8.18974e-21)
(1.01034 -0.00386203 5.49741e-20)
(1.01338 -0.0243224 1.9608e-19)
(1.10828 0.0421256 -1.15606e-19)
(0.942944 0.0334561 -1.24486e-19)
(1.06798 -0.0485378 7.04566e-20)
(1.01459 -0.00551499 -2.92918e-20)
(1.00562 -0.000414216 1.18034e-21)
(1.00485 -0.00494148 1.118e-19)
(1.00504 -0.00583171 -1.24432e-19)
(1.02892 -0.00927489 7.7086e-20)
(1.01668 -0.0675138 3.38841e-20)
(1.14513 -0.00302306 -7.17022e-20)
(1.00849 0.058985 -2.66844e-19)
(1.04499 0.0286998 1.04708e-19)
(1.09099 -0.0699571 -7.23304e-20)
(1.05741 0.0602719 3.16026e-20)
(1.00662 0.0541392 2.86984e-19)
(1.02375 -0.00256132 8.0222e-20)
(1.01034 -0.0019299 1.11519e-19)
(1.0243 0.044471 6.37435e-20)
(1.00959 -0.00296382 -8.31696e-20)
(1.00743 -0.0023216 -2.25545e-20)
(0.917918 -0.0063688 -3.10442e-20)
(1.009 -0.000801038 7.95807e-21)
(1.0952 -0.084096 -2.60308e-20)
(1.0145 -0.011559 7.14067e-20)
(1.00385 -0.0219182 -1.188e-19)
(1.01072 -0.00151437 3.57686e-20)
(1.05331 0.0534103 1.74154e-19)
(1.00318 -0.00178234 1.30593e-20)
(1.0069 -0.00148319 1.65252e-22)
(1.03178 -0.075748 -4.37644e-20)
(1.01086 -0.000627586 -2.20447e-20)
(1.08198 0.00153629 -1.64068e-20)
(0.984462 -0.0104364 -2.47387e-20)
(0.965567 -0.00899942 -8.22508e-21)
(1.15112 0.0438399 -1.35622e-20)
(1.02242 0.0151014 -5.45612e-20)
(1.02017 0.00430955 3.74794e-20)
(1.01865 0.00397273 -1.76059e-20)
(1.00531 -0.0117307 -7.20004e-21)
(1.08742 0.0285405 4.44838e-20)
(1.0622 0.0148178 7.88655e-20)
(1.01005 -0.00235463 -3.17157e-20)
(1.00277 -0.00564015 -1.32497e-19)
(1.00986 -0.000122369 -4.05881e-20)
(1.01919 -0.0117422 -1.66102e-19)
(1.01909 -0.0176205 3.10089e-20)
(1.01457 -0.00141671 -9.27859e-22)
(1.00903 -0.002716 1.02598e-19)
(1.09141 0.0688558 -1.88774e-19)
(1.0065 -0.00210884 2.4324e-20)
(1.00868 0.000103232 -2.32435e-20)
(1.01259 -0.000749675 -5.52495e-22)
(0.964283 -0.00579448 -7.04547e-20)
(1.02247 -0.00583763 9.37531e-20)
(1.00323 -0.0186054 1.76004e-19)
(0.983051 -0.00338138 3.52449e-20)
(1.02293 -0.0393271 -6.39744e-20)
(1.03877 -0.0916831 6.93038e-20)
(1.02953 -0.0173244 5.6702e-20)
(1.02913 0.0443179 -3.67605e-19)
(1.15756 0.0129429 9.74208e-20)
(1.00749 -0.00383169 8.79251e-21)
(0.980408 0.0545819 2.17565e-19)
(0.998756 -0.0356303 -1.59002e-19)
(1.00876 -0.00782162 -2.86679e-20)
(0.968632 0.00421093 -6.07835e-20)
(1.01087 -0.0119407 1.3296e-20)
(0.922064 0.00266666 -1.14989e-19)
(1.00621 -0.00440595 4.03481e-20)
(1.02713 -0.00806951 -1.05094e-19)
(1.0985 -0.0343033 3.34099e-20)
(1.00694 -0.0013826 2.1119e-21)
(1.02454 -0.00669722 -7.57821e-21)
(1.00382 -0.00191907 1.3067e-20)
(1.0199 0.0645407 5.7501e-20)
(1.10851 0.0601089 1.75902e-19)
(1.00909 -0.00316634 -2.37885e-20)
(0.956946 -0.00366971 1.39456e-19)
(1.00344 -0.00409412 4.30276e-20)
(1.00464 0.0525585 1.82647e-19)
(1.02987 0.0703973 1.42884e-19)
(1.08913 0.0219797 -8.32856e-20)
(1.09518 0.0880308 -1.49727e-19)
(0.998758 -0.0377893 6.80946e-20)
(0.999818 0.0519667 -2.68601e-19)
(1.00746 -0.00129526 -2.36465e-20)
(1.04383 -0.014003 1.85173e-19)
(0.813814 -0.000155417 4.42183e-21)
(1.07083 0.0516873 -4.43663e-20)
(0.994726 0.0475148 -1.89861e-19)
(1.11123 0.0371326 1.76585e-19)
(1.04196 0.0254073 1.70861e-20)
(1.01075 -0.00846985 4.62991e-20)
(1.00638 -0.00328606 3.82977e-20)
(1.09718 0.0769074 6.64499e-20)
(1.15012 -0.0204301 -2.99161e-20)
(1.0099 0.0563901 -7.05737e-21)
(1.07609 -9.23618e-05 2.04231e-19)
(1.02974 0.0383924 1.14679e-19)
(1.00751 -0.00379673 2.57979e-20)
(1.0108 0.0592524 7.34018e-20)
(1.03218 0.0676417 5.39832e-20)
(1.00683 -0.00419284 1.22076e-19)
(1.00726 -0.00407078 5.40509e-20)
(1.10623 0.0707817 4.85959e-21)
(0.951747 -0.00463101 1.26288e-19)
(1.00753 -0.00144397 3.13289e-20)
(1.0051 -0.00519257 -1.45751e-19)
(0.974128 -0.014676 -9.46806e-20)
(1.0067 -0.0478969 1.71926e-20)
(1.01636 -0.00231021 -1.4398e-19)
(1.01435 -0.00261662 1.29286e-20)
(1.0088 -0.0018165 4.03846e-20)
(1.03068 0.0737152 -2.12098e-19)
(1.01251 -0.00801287 -1.18338e-20)
(1.0066 -0.00131484 -1.19029e-20)
(1.02768 -0.0364614 -1.14363e-19)
(1.00906 -0.00288436 -2.45168e-20)
(1.00724 -0.0036537 -3.70364e-21)
(1.01388 -0.00785793 -3.17531e-20)
(1.04704 0.0524372 2.23022e-19)
(1.02652 -0.0669841 -6.54868e-20)
(1.001 0.0512946 1.16981e-19)
(1.00776 -0.000677581 -2.55124e-20)
(1.04939 0.0555114 -2.36449e-19)
(1.0225 -0.0311474 -8.89026e-20)
(1.0079 -0.00176262 8.25574e-21)
(1.00719 0.000222171 -1.25938e-20)
(1.00362 0.0100301 -2.57451e-20)
(1.04316 0.0467064 8.46346e-20)
(1.00907 -0.00358582 -2.54384e-20)
(1.04032 0.0372956 -1.20023e-19)
(1.00698 -0.000202578 9.30276e-21)
(1.04121 0.0409407 -1.62193e-19)
(1.11339 -0.0890139 -7.16828e-20)
(1.00656 -0.00412216 -1.32134e-19)
(1.00033 0.0441306 -3.63136e-19)
(0.999067 -0.029723 -1.20032e-19)
(1.0985 0.0839995 1.53692e-19)
(0.979744 -0.00631736 -3.64397e-20)
(1.04364 0.042681 2.0808e-19)
(1.04682 0.0484885 -6.10863e-20)
(1.00329 -0.00656337 -1.98945e-19)
(1.00055 -0.00750934 1.18295e-19)
(1.00934 -0.00717354 -1.09834e-19)
(1.00933 -0.0043841 2.80265e-20)
(1.00759 -0.00228141 -5.07726e-20)
(1.01241 -0.00797285 1.95098e-20)
(1.03805 0.0647659 -2.75373e-20)
(1.00693 -0.00144541 -5.60865e-21)
(1.0367 0.0364574 1.57799e-19)
(1.03578 -0.0671696 -1.13012e-19)
(1.01394 0.0445281 7.19815e-20)
(1.03648 0.0334784 -1.84392e-19)
(0.971241 -0.0134897 1.23941e-20)
(1.00103 0.0558306 -2.51198e-19)
(1.00862 -0.00314949 2.51044e-23)
(1.02235 -0.0154865 6.55128e-20)
(1.04819 -0.0474905 -4.13884e-20)
(0.929164 -0.00255382 7.24664e-21)
(1.00784 -0.00407775 -8.04697e-20)
(1.02094 -0.0324005 7.06598e-20)
(1.04584 -0.00836379 -1.6404e-20)
(0.986619 0.0412466 2.81523e-19)
(1.00664 -0.000757036 3.51024e-20)
(1.00867 -0.00345551 -4.31221e-20)
(1.02681 -0.047134 2.23646e-22)
(1.0077 -0.000331211 2.01809e-21)
(1.01935 0.067465 2.78404e-20)
(1.0103 -0.000436752 0)
(1.00698 0.000624544 1.76553e-21)
(1.00758 -0.000180794 5.73286e-20)
(1.00981 0.00018911 7.03489e-22)
(1.00444 -0.0132167 -1.4791e-19)
(1.02329 -0.00895802 -5.32153e-20)
(1.00849 -0.00313935 -8.40574e-20)
(1.00839 0.010643 -2.68747e-20)
(1.00765 -0.00398621 -4.21125e-20)
(1.0131 -0.00779274 -3.49959e-20)
(1.00946 -0.071652 8.45286e-20)
(0.810766 -0.00406509 -1.01619e-20)
(1.02189 -0.00525961 1.44762e-19)
(0.983113 -0.000853169 -1.06593e-20)
(1.07973 -0.100468 -8.86075e-20)
(1.00531 -0.00478954 6.10419e-20)
(1.09665 0.0637289 -1.33291e-20)
(1.00087 0.0316267 -5.89342e-20)
(1.00998 -0.00274662 3.26736e-20)
(1.08866 0.0558328 -1.95771e-19)
(1.00756 -0.000443526 -1.09229e-21)
(1.00544 -0.00473202 -1.17087e-21)
(1.02195 0.00129382 -1.04214e-19)
(1.00793 -0.00433029 3.25362e-20)
(1.04801 0.060806 -1.39318e-20)
(1.00543 -0.00582685 1.12766e-19)
(1.04371 -0.0136964 -1.43515e-19)
(1.02362 0.00419374 -1.05505e-19)
(1.04846 0.0313955 -4.09989e-20)
(1.0162 -0.00954961 -9.14276e-20)
(1.00648 -0.00464963 -3.23821e-21)
(1.06154 0.0532481 1.18609e-19)
(1.00247 -0.0526536 8.66123e-20)
(1.01448 0.0664503 2.2526e-19)
(1.00703 -0.00498193 1.50411e-19)
(1.04872 0.0772111 8.15115e-22)
(1.00703 -0.00467613 -4.01568e-20)
(1.00869 -0.00164027 7.27362e-21)
(1.04062 0.0247633 5.01641e-20)
(1.02192 -0.0183202 -4.88297e-20)
(1.03021 0.00606822 1.51695e-19)
(1.00928 -0.000869822 2.44777e-20)
(1.00712 0.000501203 8.10186e-22)
(1.0173 -0.0826522 -3.12122e-20)
(1.07843 0.0861494 -1.72478e-19)
(1.0103 -0.00282125 -2.93239e-20)
(1.09473 0.0572105 2.17993e-20)
(1.00572 -0.00563473 8.01821e-20)
(1.07358 -0.104597 3.03449e-20)
(1.04177 -0.0230758 2.1909e-20)
(1.00309 -0.0197351 -9.53403e-20)
(1.00862 -0.00309965 3.37305e-20)
(0.980445 -0.00433547 3.17925e-20)
(0.998442 -0.0449078 5.92146e-20)
(0.996504 -0.0067863 -1.33552e-19)
(1.00677 -0.00452668 -1.01057e-19)
(1.00848 -0.00194417 -3.85226e-20)
(1.01146 0.0687186 -2.45301e-20)
(1.08643 0.0500834 1.2431e-19)
(1.02642 -0.00521613 -3.39068e-20)
(1.00729 -0.00238365 -3.41855e-20)
(1.03112 0.0647366 -1.01629e-19)
(1.0068 -0.000638255 9.85421e-21)
(1.00716 -0.00223101 -7.04593e-20)
(1.08022 0.0489877 1.0572e-19)
(1.01921 -0.015053 9.03097e-20)
(1.08573 0.0790443 1.58569e-19)
(1.02366 -0.00259116 5.91094e-20)
(1.02186 -0.00748135 -1.79848e-20)
(1.07454 -0.0391248 -6.29465e-20)
(1.04963 -0.0842915 -8.48937e-20)
(1.15098 0.0379011 -6.48566e-20)
(1.01038 -0.000935182 -6.55806e-20)
(0.985921 -0.0110516 8.79591e-21)
(1.00707 -0.00102205 7.03689e-21)
(1.01427 -0.00848403 2.27814e-20)
(1.04995 0.0598477 8.05931e-20)
(1.00375 -0.00626395 -1.48117e-19)
(1.00907 -0.00376667 -4.3756e-20)
(1.0225 -0.0243571 9.70548e-20)
(1.00852 -0.00371838 -2.30865e-21)
(1.00927 -0.00211376 -5.70207e-20)
(0.641651 0.010944 4.92934e-20)
(1.00684 -0.0051638 7.85927e-20)
(1.00848 -0.00294672 1.05206e-19)
(0.835349 -0.00145823 1.77452e-21)
(1.01624 0.00536818 1.58216e-19)
(0.997524 -0.0169902 1.80185e-20)
(1.0087 -0.00222738 -4.85427e-20)
(1.00904 -0.00420543 -5.78825e-20)
(1.02122 0.0175937 5.77485e-20)
(1.05393 0.01149 1.46079e-20)
(0.991092 -0.0151964 9.29168e-20)
(1.00654 -0.000597574 1.09307e-20)
(1.00244 0.0157081 3.54854e-19)
(1.00479 -0.0120181 1.0689e-19)
(1.05349 0.049159 -1.80843e-19)
(1.01821 -0.00126106 -1.56515e-19)
(1.01916 -0.000441149 3.17588e-19)
(0.995421 -0.00808354 -1.72728e-19)
(1.00667 -0.00118525 8.41349e-21)
(1.02246 0.000131857 -1.30086e-20)
(1.0565 0.00949876 -2.71937e-20)
(1.13319 0.0421348 1.34472e-19)
(1.03998 -0.0637109 -3.59526e-20)
(1.03602 0.0618949 8.70752e-20)
(1.01574 -0.00103066 -3.76648e-21)
(1.06565 0.0561407 -1.62754e-19)
(1.01155 -0.00993877 5.92276e-20)
(1.02502 -0.0351872 1.74239e-19)
(1.00801 -0.00279633 3.81007e-20)
(1.01427 -0.0118757 -1.44833e-19)
(1.00843 -0.00183112 -3.42305e-20)
(1.03705 0.0264139 -1.36413e-19)
(1.05882 0.0835471 -2.67621e-19)
(1.00885 -0.00297708 -2.59358e-20)
(1.02218 -0.00652077 1.16345e-20)
(1.00275 -0.00434512 -4.86126e-20)
(1.04264 -0.0551396 -2.12213e-20)
(1.03894 -0.0587171 5.66157e-20)
(1.00766 -0.00398823 -4.54798e-20)
(1.04041 -0.0136712 -7.37706e-20)
(0.335258 0.00217597 -8.38547e-20)
(1.13007 0.0279153 1.2033e-19)
(1.00767 -0.00132546 -6.01234e-20)
(1.05043 0.00955416 -5.81861e-20)
(1.00997 -0.00683579 8.38145e-20)
(0.772122 -0.00762272 2.84951e-19)
(1.00574 -0.0052488 -1.08608e-19)
(1.01037 -0.0168218 3.89092e-20)
(1.02381 -0.0213649 -4.09822e-21)
(1.00972 -0.0170371 1.4576e-21)
(1.0113 -0.0135526 1.49931e-19)
(1.00742 -0.00414437 -2.61603e-20)
(1.01125 -0.0101456 -1.28286e-19)
(1.01225 -0.00479578 -3.00599e-20)
(1.0473 -0.0115837 3.30351e-20)
(1.00703 -0.00106153 -5.49039e-20)
(1.14392 -0.0654031 4.29725e-20)
(1.1178 -0.00104107 5.06884e-20)
(1.02515 0.0721035 1.65328e-19)
(0.992203 -0.0144182 -1.45886e-19)
(1.08008 0.0753832 -7.93907e-20)
(1.01075 -0.000667923 7.36256e-20)
(1.05865 -0.04637 -2.90852e-21)
(1.01622 -0.0236078 8.7787e-20)
(1.01951 0.0298842 1.37686e-19)
(1.00782 -0.00452378 -7.3976e-20)
(1.00809 -0.00103866 4.09485e-20)
(1.00522 -0.012282 -1.48121e-19)
(1.00951 -0.00724068 4.29354e-20)
(1.03785 -0.0136259 1.21735e-19)
(0.997493 -0.00532787 1.17505e-19)
(1 -0.00708723 -3.93413e-20)
(1.09628 -0.019434 3.94679e-20)
(1.00409 -0.00515428 9.29511e-20)
(1.0223 -0.0226445 -8.14269e-20)
(1.00767 -0.0507648 -7.19874e-20)
(1.00694 -0.0011931 1.75431e-21)
(1.04689 -0.00575849 1.42193e-19)
(1.00877 -0.0456157 2.18441e-19)
(1.08528 0.0660523 8.79599e-20)
(1.07483 -0.0442965 1.03016e-19)
(1.02885 0.00535585 1.55206e-20)
(1.03104 -0.064735 1.51046e-19)
(1.03604 0.0780208 4.94746e-20)
(1.03446 -0.0206238 1.1035e-19)
(0.994565 -0.00740751 1.02599e-19)
(1.02252 -0.0288634 1.26008e-19)
(0.600152 0.00455327 9.58233e-20)
(1.1164 -0.0660301 -4.12253e-20)
(1.00545 -0.00509005 3.35789e-20)
(1.03198 -0.0818015 8.89336e-21)
(1.03064 -0.0409249 -1.06428e-19)
(1.04184 -0.0753195 5.65129e-21)
(1.04102 -0.0508127 8.61504e-20)
(1.06126 0.0488635 1.55306e-19)
(1.00909 -0.00369164 -2.17378e-21)
(1.00702 0.0356889 4.82615e-20)
(1.01579 -0.00101458 3.39782e-20)
(1.00891 -0.00205315 6.01053e-20)
(1.00999 -0.00298789 -1.86719e-19)
(1.04737 0.00545695 -2.96515e-20)
(0.195785 0.0102508 1.97553e-21)
(1.01216 -0.00478849 4.32335e-20)
(1.02498 -0.0324971 -2.27939e-20)
(1.02093 0.0190602 -9.42612e-20)
(1.00709 -0.000438159 -1.80891e-21)
(1.00114 -0.00718891 -1.00848e-19)
(1.02418 -0.00479633 9.35875e-20)
(1.06082 -0.0231494 1.42013e-19)
(1.01556 -0.000854485 1.77991e-19)
(1.01011 -0.00335437 -2.59228e-20)
(1.00381 -0.0248214 4.70239e-22)
(1.01045 -0.00663975 4.34214e-20)
(1.00651 0.000533122 2.10776e-20)
(1.00038 -0.0291954 2.0534e-19)
(1.04184 0.0583242 -3.47004e-20)
(1.02459 -0.0186951 -1.61825e-20)
(1.00342 -0.00471227 9.01868e-20)
(1.01143 3.98987e-05 -2.77857e-20)
(1.02379 0.0219103 1.25341e-19)
(1.00922 -0.00233053 2.36903e-20)
(1.00866 -0.00234921 5.40814e-21)
(1.00803 -0.00277256 3.84151e-20)
(1.00973 -0.00286881 7.50363e-20)
(1.12315 0.0427774 9.23859e-20)
(1.03011 -0.0220685 2.63941e-19)
(1.01707 -0.0116249 6.33101e-20)
(1.00273 -0.00627592 4.05672e-20)
(1.00748 -0.000480132 2.1062e-20)
(1.06247 -0.080717 -1.20297e-19)
(1.15245 -0.00918453 2.44458e-21)
(1.06622 -0.0876352 5.46745e-20)
(1.01142 -0.0209409 5.97013e-20)
(1.01868 -0.00520276 1.43227e-19)
(1.00692 -0.00288722 -2.47276e-20)
(1.00599 -0.00851477 6.63454e-20)
(0.989154 -0.0298199 9.23276e-20)
(1.12174 0.0297138 -4.41109e-23)
(1.01156 0.045722 -3.43531e-21)
(1.00988 -0.00377282 -4.39131e-20)
(0.981143 -0.0211308 -4.68214e-20)
(1.00875 -0.0036792 1.00286e-19)
(1.03291 -0.0192674 -4.33832e-20)
(1.06956 0.0465667 1.83626e-20)
(1.01013 -0.000541044 -7.33671e-20)
(1.00822 -0.00228843 1.61301e-20)
(1.10459 0.0753169 2.11311e-20)
(1.11756 0.0160086 -2.81237e-20)
(1.0244 -0.00977564 4.8418e-20)
(1.00914 -0.00369215 -7.29998e-20)
(1.00677 -0.00474439 9.53133e-21)
(0.993337 -0.0303822 -2.32746e-20)
(1.00817 -0.0022194 4.8643e-20)
(1.02339 -0.0200061 1.5099e-19)
(0.951995 -0.00408773 -2.11622e-19)
(1.00093 0.0309869 -4.77215e-20)
(1.04447 0.0606237 -1.68251e-20)
(1.05529 -0.0425848 -6.19861e-20)
(1.01124 -0.0457923 -7.70495e-20)
(1.01339 -0.001668 1.09952e-19)
(1.02073 -0.0147908 -1.33402e-19)
(1.11168 0.00409577 1.38255e-19)
(1.01097 -0.0510619 4.37502e-20)
(1.02432 -0.0275339 -7.68584e-20)
(1.0063 -0.000415488 -2.11786e-21)
(1.10218 -0.00658021 1.18837e-19)
(0.919649 -0.00741797 -1.14136e-20)
(1.01041 -0.057143 -7.95291e-20)
(1.02412 -0.0173791 -2.08662e-19)
(0.987227 -0.0101457 1.74917e-20)
(1.00809 -0.00285997 1.92182e-20)
(1.00919 -0.00372639 3.43462e-20)
(1.03344 0.0322964 1.40972e-19)
(0.996365 -0.00776173 4.07722e-20)
(1.00466 -0.00273434 -3.07654e-21)
(1.00812 -0.00438344 7.81448e-20)
(1.11504 -0.0556105 1.53501e-19)
(1.00601 -0.00159054 -7.30332e-20)
(1.02676 -0.0309128 3.10585e-20)
(1.00743 -0.0012446 2.94963e-21)
(1.01512 -0.00893347 9.43852e-21)
(1.00948 -0.0684949 -3.92204e-20)
(1.05066 -0.0432353 4.64777e-20)
(1.0075 -0.00113738 2.44432e-20)
(1.0069 0.000587989 -1.26181e-20)
(1.01964 0.00182162 4.51381e-21)
(1.02037 -0.0439083 -1.66194e-20)
(1.00144 0.0370523 -3.65414e-21)
(1.04988 0.0731699 2.04696e-21)