/*--------------------------------*- C++ -*----------------------------------*\
  =========                 |
  \\      /  F ield         | OpenFOAM: The Open Source CFD Toolbox
   \\    /   O peration     | Website:  https://openfoam.org
    \\  /    A nd           | Version:  7
     \\/     M anipulation  |
\*---------------------------------------------------------------------------*/
FoamFile
{
    version     2.0;
    format      ascii;
    class       volVectorField;
    location    "13";
    object      U;
}
// * * * * * * * * * * * * * * * * * * * * * * * * * * * * * * * * * * * * * //

dimensions      [0 1 -1 0 0 0 0];

internalField   nonuniform List<vector> 
7724
(
(1.21271 0.141656 7.14913e-21)
(1.05644 -0.0570149 1.84907e-21)
(1.02969 0.204724 -2.31467e-20)
(1.07686 0.0926046 3.00489e-20)
(0.999037 -0.00114881 -5.52332e-23)
(0.999955 -1.24917e-05 -6.80341e-24)
(1.00484 0.166795 -4.79249e-20)
(0.993986 -0.00216349 -1.14769e-23)
(0.999856 -0.000215108 -1.08582e-23)
(1.03194 -0.000388589 -1.42248e-21)
(0.999958 -1.44499e-05 7.50876e-24)
(1.0026 -0.00155033 -2.21104e-22)
(0.9908 -0.00275553 5.61549e-22)
(1.02326 -0.00266559 -8.97002e-21)
(1.03113 0.00079364 6.01997e-21)
(0.989813 -0.0172526 -1.11471e-21)
(1.22508 0.145266 -1.49545e-20)
(0.987642 -0.00350905 -1.96049e-22)
(1.0026 -0.0111062 -7.14197e-23)
(0.973146 -0.104982 -8.95053e-22)
(1.04342 -0.00899619 -3.01728e-21)
(1.00171 -0.000821684 4.15138e-22)
(1.02176 -0.00450801 7.67965e-22)
(1.01857 0.0431761 -1.61326e-20)
(0.983583 -0.00436567 -8.93255e-22)
(1.20508 0.149127 -7.84211e-21)
(0.999062 -0.00108356 -3.98575e-23)
(1.0297 -0.00257719 3.54421e-21)
(1.00855 0.021597 -2.02904e-21)
(1.00407 -0.0118945 5.92183e-23)
(0.984595 -0.0181618 -2.02408e-21)
(0.738465 0.0813191 7.98193e-21)
(1.02106 -0.00527676 4.72466e-21)
(0.999458 -0.000463345 6.97127e-23)
(0.99988 -5.92435e-06 1.30957e-25)
(1.03 6.84626e-05 2.11081e-21)
(1.00491 -0.0131355 7.14002e-23)
(1.01265 0.158025 -7.5939e-21)
(0.995836 -0.0092722 9.18189e-22)
(0.999617 -6.61205e-05 6.70581e-23)
(0.99625 -0.00953893 -1.05252e-22)
(0.990013 -0.0160988 -4.14393e-22)
(0.99923 -0.117094 3.90518e-21)
(1.14869 -0.094109 5.19849e-22)
(0.999771 -1.18357e-05 2.22567e-23)
(0.99991 -1.93752e-05 -6.67825e-24)
(1.00156 -0.000688586 -2.53717e-22)
(0.99547 -0.00836958 -5.42522e-22)
(0.999924 -3.51108e-05 -5.45984e-24)
(0.977368 -0.106001 1.29633e-21)
(1.00377 -0.00137253 2.37907e-22)
(1.0295 -0.000806679 -3.68374e-21)
(0.97864 -0.00521776 -3.00507e-21)
(1.01146 -0.0365589 1.3037e-22)
(1.02998 -0.00177632 -1.22713e-21)
(0.994694 -0.0030001 -1.03311e-22)
(1.00238 -0.0104493 1.52516e-22)
(0.993948 -0.0018674 7.66781e-22)
(0.973844 -0.0215517 -3.58575e-21)
(0.999442 -0.00041081 -8.93582e-23)
(1.00005 -2.78475e-05 -7.97702e-24)
(1.00499 -0.00131517 2.66525e-22)
(1.02383 -0.0016433 -2.11531e-21)
(1.00277 -0.00134322 2.23841e-22)
(0.998919 -0.000235966 1.25939e-22)
(0.985213 -0.0188704 3.55829e-22)
(0.999892 -0.00021791 8.57706e-24)
(1.00002 -2.72165e-06 5.13217e-25)
(1.21028 0.00348659 2.81207e-21)
(0.995612 -0.00791963 -1.61063e-22)
(0.999916 -2.35897e-05 5.93498e-24)
(0.964568 -0.0630622 -6.57362e-21)
(0.984275 -0.00484552 4.34807e-22)
(0.970563 -0.00637792 5.9157e-22)
(0.988176 -0.00387319 6.14085e-22)
(0.959876 -0.0305958 -7.811e-22)
(1.03978 0.204037 3.7208e-20)
(1.04078 -0.00834436 3.8512e-21)
(1.10411 -0.0220646 -6.20217e-21)
(0.947855 -0.0512648 -8.31003e-21)
(0.991225 -0.00304762 -8.6215e-22)
(1.00304 0.0946673 4.77448e-20)
(1.05268 0.00251087 9.03851e-21)
(0.969932 -0.011346 2.71796e-21)
(0.998466 -0.00292602 -8.70178e-23)
(0.997444 -0.000369099 9.24308e-23)
(0.993583 -0.00285341 1.05783e-21)
(0.979462 -0.00583691 1.93351e-21)
(0.999261 -0.00136818 5.92715e-23)
(0.994935 -0.000780349 3.28904e-22)
(1.00907 0.0246732 1.51159e-20)
(1.18314 -0.0942804 -9.20286e-22)
(0.999848 -6.53482e-05 -1.36304e-23)
(1.00205 -0.00887138 6.26109e-23)
(0.995995 -0.00119536 2.98577e-22)
(0.970166 -0.0035595 -4.72883e-21)
(0.967188 -0.0627506 4.44842e-22)
(1.01347 -0.0354453 9.97024e-23)
(0.998328 -0.0028198 2.95913e-23)
(0.998714 -0.000217136 4.21929e-23)
(0.943667 -0.0184171 2.03411e-21)
(1.10731 -0.0169066 5.13751e-21)
(0.996221 -0.00135557 -7.44398e-22)
(0.99997 -1.09276e-06 -5.77124e-25)
(1.19119 -0.0857629 -8.02067e-22)
(1.04801 0.0377305 -1.42737e-20)
(0.8705 0.0569529 8.94945e-21)
(0.994339 -0.00283809 -4.28333e-22)
(0.99999 -2.38341e-06 1.37641e-25)
(1.02958 -0.0179912 -1.60929e-21)
(1.07987 0.0857583 -3.48929e-20)
(1.02007 -0.0915307 -4.49173e-21)
(0.999987 -2.78508e-06 -2.12506e-25)
(1.03176 -0.0192187 -3.4891e-22)
(1.04233 0.0369743 1.50151e-20)
(1.00047 -0.00065818 -1.89452e-23)
(1.06311 -0.115061 -2.09536e-22)
(1.044 0.0195538 -3.42503e-21)
(0.978605 -0.0508728 2.84317e-21)
(0.970191 -0.00776258 -6.17501e-22)
(0.940078 -0.0120621 -4.90896e-21)
(1.00293 0.0658859 -3.12061e-20)
(1.00558 -0.116435 -5.37384e-21)
(1.01104 -0.00938807 1.33317e-22)
(0.942053 -0.0138007 1.93486e-21)
(0.998944 -0.00157672 1.32273e-22)
(0.985895 -0.0137349 6.71421e-22)
(1.00325 -0.0100629 -1.04825e-22)
(0.998856 -0.000172524 -2.80999e-22)
(0.984635 -0.0167031 3.46417e-23)
(1.20645 -0.122656 -7.51515e-22)
(1.09661 -0.0219953 1.06806e-21)
(0.999329 -0.000617327 7.52487e-24)
(0.99915 -0.00140645 -1.1575e-22)
(0.968547 -0.0103626 8.08187e-22)
(1.07265 0.0757828 1.27732e-20)
(0.991008 0.056755 5.79364e-20)
(0.999972 -3.33438e-06 -6.84949e-25)
(1.00889 -0.0036176 1.1257e-22)
(0.919126 -0.0147602 -6.14146e-21)
(0.972397 -0.00461405 -2.41886e-21)
(0.982569 -0.0702748 -4.1626e-21)
(0.96034 -0.0329445 1.05831e-21)
(0.972195 -0.00576087 -5.29618e-23)
(0.856627 0.0448591 3.51254e-20)
(1.0108 -0.0548788 -1.45516e-22)
(1.01804 0.0246647 -7.68168e-21)
(0.976299 -0.0258387 -1.85414e-21)
(0.959146 -0.00611089 6.68196e-22)
(1.00315 0.081945 -1.5426e-20)
(1.03097 0.00151244 5.2643e-21)
(1.17019 -0.090727 2.62177e-22)
(0.998301 -0.0022973 -3.05738e-22)
(1.2091 -0.00641543 2.15754e-22)
(1.05014 0.00257799 -9.43854e-21)
(1.03857 0.15686 -3.70177e-20)
(0.953855 -0.035683 3.25142e-21)
(0.990796 -0.00210381 1.90138e-22)
(0.898894 0.152804 7.6642e-20)
(0.999929 -2.90641e-05 -5.18663e-24)
(1.00148 -0.00929558 -3.79196e-23)
(1.02001 0.0484033 1.16763e-20)
(0.999975 -2.28524e-05 3.45433e-24)
(0.998017 -0.00595359 -4.31151e-22)
(0.995478 -0.00114738 -1.42826e-22)
(1.00798 0.0612726 -3.88418e-21)
(1.00465 0.0544258 1.45164e-20)
(0.882113 0.171321 2.55339e-20)
(0.997728 -0.00575375 -2.69687e-22)
(0.996489 -0.000423613 -1.6137e-22)
(1.00002 -2.52221e-06 -4.57343e-25)
(0.93656 -0.00736095 -8.44554e-21)
(1.00044 -0.000583999 2.62029e-23)
(1.05948 -0.0531723 -2.17235e-21)
(1.00907 -0.00405326 7.42049e-22)
(0.960083 -0.00723664 1.38262e-21)
(1.18744 -0.0724234 -4.96136e-22)
(1.1724 0.041961 2.10761e-22)
(0.99985 -7.56221e-05 7.47996e-24)
(0.999424 -0.00073029 -7.93721e-23)
(1.08222 0.0977642 -5.24726e-21)
(0.99993 -2.1979e-05 -2.48981e-24)
(0.999872 -1.38234e-05 3.6041e-24)
(1.00933 0.178756 -3.90897e-20)
(1.05764 -0.0612496 3.36482e-22)
(1.00739 -0.0763152 -2.54104e-21)
(0.980886 -0.0494821 -4.03442e-21)
(0.973136 -0.00833595 1.77441e-21)
(1.00732 -0.056012 2.59394e-22)
(0.921011 -0.0124891 3.22749e-21)
(0.999974 -2.08264e-05 -1.20891e-24)
(0.968101 -0.0589402 -1.57618e-21)
(1.18219 0.0471769 -6.96275e-21)
(0.996198 -0.00165223 1.06938e-22)
(1.00009 -7.34018e-06 -5.88044e-24)
(1.14457 0.0723792 8.09283e-22)
(0.998602 -0.000447655 2.98571e-22)
(0.985591 -0.0160783 1.07349e-21)
(1.00452 -0.0527954 8.56864e-22)
(1.00002 -2.8254e-06 -2.06089e-25)
(1.00097 -0.00230713 -1.12111e-22)
(1.06657 0.0773214 1.61753e-20)
(1.17526 0.0662474 -9.84784e-21)
(1.0226 0.138792 -4.99749e-21)
(1.06073 -0.107884 1.8679e-21)
(1.0246 -0.0883043 1.03388e-21)
(1.09984 -0.155984 -7.07565e-22)
(1.02992 -0.0041495 1.05257e-20)
(1.05935 0.0736022 -5.32541e-21)
(0.999756 -2.45518e-05 -2.57536e-23)
(1.00005 -2.34506e-05 2.09295e-24)
(0.902384 0.0229303 -3.42125e-20)
(0.991436 -0.0154676 -3.90868e-22)
(0.999303 -0.00055418 -7.51665e-23)
(0.970652 -0.0581472 3.26575e-21)
(0.985231 -0.0144687 -7.83012e-22)
(1.05262 0.136106 -4.04002e-20)
(1.04366 0.134063 -8.61019e-21)
(0.979361 -0.0717384 1.14228e-21)
(0.791296 0.115242 -3.00336e-20)
(0.9987 -0.000512588 -2.194e-22)
(0.987698 -0.00301566 7.00782e-22)
(0.941566 -0.0167885 2.67667e-21)
(1.04291 -0.00264192 -2.18916e-21)
(0.99997 -0.143538 -5.0721e-22)
(1.2317 0.104285 -1.3441e-20)
(0.897244 0.133161 -6.55682e-20)
(1.00007 -0.000126915 6.34845e-24)
(1.01097 -0.0088858 3.71944e-22)
(1.04169 0.0236219 1.85625e-20)
(0.995619 -0.00692589 -7.00705e-22)
(1.04739 0.0192431 -2.32758e-21)
(0.999393 -0.00148151 -1.98899e-23)
(0.829968 0.198474 5.23006e-20)
(1.03494 0.142985 8.35066e-21)
(0.993586 -0.0024554 6.71921e-22)
(1.00424 -0.00997134 -1.58081e-23)
(0.99964 -8.12284e-05 -1.24988e-22)
(1.22419 0.0416243 3.03254e-21)
(0.999889 -1.43748e-05 1.08489e-23)
(0.993888 -0.0127545 3.23647e-22)
(0.929328 -0.032826 3.65314e-21)
(0.999916 -3.02226e-05 -2.45801e-24)
(0.998598 -0.00339956 -7.53389e-23)
(0.999527 -0.00144256 3.53382e-23)
(1.11013 0.0401859 1.21064e-20)
(0.999977 -2.92542e-05 4.26183e-24)
(0.994724 -0.000601843 3.79926e-25)
(0.950472 -0.0510012 9.63707e-21)
(0.741813 0.0607702 -1.76217e-20)
(1.09375 -0.0267808 -1.47879e-21)
(0.854256 0.129758 4.00315e-20)
(0.999947 -1.05633e-05 -6.21744e-24)
(1.00181 -0.0534076 -6.57645e-23)
(0.999787 -0.000367174 -2.96672e-23)
(1.02986 0.164799 -3.76481e-20)
(1.00442 -0.000869541 -3.43957e-22)
(0.98724 0.0661688 1.8743e-20)
(1.00322 -0.0120743 -2.94138e-22)
(1.00086 -0.00239672 1.20502e-22)
(1.03222 -0.0441424 -6.41525e-22)
(1.02992 -0.00228905 -9.74825e-21)
(1.00065 -0.00039394 5.47451e-23)
(0.999736 -6.51882e-05 7.15796e-25)
(1.00057 -0.000534059 1.23022e-22)
(0.995376 -0.00732788 -6.21184e-22)
(1.01448 -0.080272 2.85826e-21)
(0.999949 -1.45117e-05 4.19612e-24)
(0.955687 -0.0342644 2.28105e-21)
(0.995708 -0.0013317 -2.70355e-23)
(0.999832 -5.53666e-05 1.44697e-23)
(0.999293 -0.000687452 2.44787e-23)
(0.982534 0.102756 4.48248e-20)
(0.990744 -0.00098299 2.75879e-22)
(0.999123 -0.000135411 -2.53897e-23)
(0.805467 0.0272936 6.70257e-20)
(0.998429 -0.0032769 -1.70086e-22)
(1.14908 0.119248 -1.06914e-20)
(0.999763 -0.000341086 5.28764e-23)
(1.00859 -0.0276161 8.74629e-23)
(1.00002 -1.35413e-06 -1.77075e-25)
(0.978539 -0.0413051 -1.62668e-21)
(1.04198 -0.00214372 3.39972e-21)
(1.1936 -0.066058 4.98713e-22)
(0.974087 -0.0231878 3.03687e-21)
(0.999533 -0.000742022 9.2346e-23)
(0.972909 -0.0901343 2.0413e-21)
(0.980769 -0.000557898 1.26935e-21)
(0.999787 -2.596e-05 1.60127e-24)
(1.00054 -0.000460397 -1.08872e-22)
(0.997589 -0.00421898 2.34435e-22)
(0.991167 -0.00175284 -8.24487e-22)
(1.00365 -0.00111562 -4.06517e-22)
(0.99857 -0.00235043 1.10066e-22)
(0.971454 -0.0106083 4.26982e-22)
(1.01975 -0.0783587 -2.10035e-21)
(0.97163 -0.00890405 1.89651e-21)
(1.14615 -0.0838544 -1.10769e-22)
(0.962452 -0.00980233 -2.41542e-21)
(1.07821 0.180643 4.03701e-21)
(1.07206 0.189565 -2.9392e-20)
(0.998268 -0.000931341 -1.90043e-22)
(1.2113 -0.0784882 -3.36301e-21)
(0.99998 -4.30519e-06 -3.91132e-25)
(0.997551 -0.00522216 -2.83458e-22)
(0.969422 -0.00248131 4.8491e-21)
(1.01407 0.0383298 9.66805e-21)
(1.0565 0.00788817 -8.87183e-21)
(1.00012 -4.48616e-05 1.36999e-23)
(0.997659 -0.00492807 -1.89261e-23)
(0.963755 -0.0108624 1.82056e-21)
(1.08584 0.042192 -5.21416e-21)
(0.99886 -0.00145884 9.86801e-23)
(1.00394 -0.00101949 2.29892e-22)
(1.00146 -0.00118729 -2.0453e-23)
(1.16046 -0.023192 4.1633e-21)
(1.20226 -0.132459 -4.52552e-21)
(1.14583 0.196554 1.64737e-20)
(0.998152 -0.000283408 -1.86086e-22)
(1.06825 -0.0618028 -1.29974e-21)
(0.999867 -8.3172e-05 -1.20079e-23)
(1.00566 -0.00891581 -7.78617e-22)
(0.999936 -1.60806e-05 -1.77683e-24)
(0.982527 -0.0251469 5.24958e-22)
(0.999599 -9.04619e-05 -2.37971e-23)
(1.01382 -0.0273694 1.85137e-22)
(1.23057 -0.0883008 4.10825e-21)
(0.968414 -0.0326418 3.62295e-21)
(1.01002 -0.0270186 -8.61484e-23)
(1.00997 -0.00788668 -4.78657e-22)
(0.999148 -0.000175794 1.13991e-22)
(1.03182 -0.0246034 1.12994e-21)
(0.995635 -0.0227717 4.97463e-22)
(1.10283 -0.00831455 -3.11829e-21)
(1.1019 0.040632 5.70502e-21)
(1.14186 -0.181562 5.70866e-23)
(1.14268 -0.101337 -1.99122e-21)
(0.979945 -0.00114233 -1.35831e-21)
(1.00601 -0.00445323 7.36784e-22)
(0.931951 -0.0311898 -1.41455e-21)
(0.862228 0.170997 -8.00719e-20)
(1.1241 -0.094964 1.76518e-21)
(1.03302 -0.0158649 -4.46613e-21)
(0.810631 0.124775 -4.05633e-20)
(0.998209 -0.00020488 9.19028e-23)
(0.997967 -0.00115452 -5.85514e-23)
(1.16288 -0.0979261 -1.96516e-21)
(0.998741 -0.00252154 -5.96729e-23)
(1.01155 -0.0513574 2.09094e-22)
(1.00697 -0.00233529 2.63463e-22)
(0.996665 -0.000510263 -1.43804e-22)
(0.997549 -0.000438553 -2.28183e-22)
(1.05026 0.0302145 1.08267e-20)
(0.999921 -0.000184841 -1.23444e-24)
(1.00062 -0.000307057 -4.87848e-23)
(1.0001 -1.8779e-05 1.00649e-23)
(0.995916 -0.000820294 7.68623e-22)
(0.992532 -0.011064 8.66204e-22)
(0.999979 -3.53481e-06 3.05228e-25)
(0.998727 -0.000305928 2.39054e-23)
(0.975088 -0.0204622 1.06879e-21)
(0.900229 0.033882 2.14699e-20)
(1.01216 -0.0284058 -5.77403e-23)
(0.991518 -0.0144711 1.39412e-21)
(0.934061 0.12622 8.99964e-21)
(1.00332 0.0611766 2.7015e-20)
(1.08537 -0.0163821 -2.65609e-21)
(1.20696 -0.0696842 9.86571e-22)
(0.935029 -0.00543243 4.60736e-21)
(1.00597 -0.00507883 -3.62348e-22)
(1.01846 0.067345 -1.50902e-21)
(0.986626 -0.00269227 -1.67336e-21)
(1.11755 0.141239 3.00812e-22)
(1.00648 -0.0598759 2.83169e-23)
(1.02469 -0.133628 -1.85051e-21)
(1.16633 0.0663563 6.27949e-21)
(1.12864 0.147811 -1.48842e-20)
(0.957447 -0.0296267 5.09112e-21)
(1.05766 0.00520267 -5.7093e-21)
(1.24288 0.10135 1.21319e-20)
(1.14042 0.127848 2.09483e-20)
(1.03087 -0.00371066 3.32629e-21)
(0.99644 -0.00178339 1.68456e-22)
(0.995041 -0.00274173 1.4699e-22)
(0.999894 -2.74031e-05 -5.76418e-24)
(1.01848 -0.0355866 1.81507e-22)
(0.986254 -0.00225847 3.94018e-22)
(1.00121 -0.00293061 -9.97223e-23)
(0.999873 -3.00477e-05 -1.05942e-23)
(0.998095 -0.000858091 7.40739e-23)
(0.970165 -0.088619 -3.36639e-21)
(1.1522 -0.000537241 2.45934e-21)
(0.979304 -0.00716931 -2.16963e-21)
(0.998994 -0.0152143 5.3254e-22)
(0.995504 -0.000860434 -4.1097e-22)
(1.06457 -0.0635395 5.19063e-24)
(0.991569 -0.00184691 -1.32578e-21)
(1.00282 -0.00902245 2.96956e-22)
(1.24272 0.0779359 2.17436e-21)
(0.997812 -0.000413718 -5.32251e-22)
(0.999974 -5.56896e-05 -3.14989e-24)
(0.999937 -0.000221161 -1.63498e-24)
(1.00006 -0.000130547 7.86347e-24)
(0.974319 -0.009305 9.94977e-22)
(1.04682 0.0272292 -1.27916e-20)
(0.995223 -0.000659517 1.59965e-23)
(1.02829 -0.0131212 2.90187e-21)
(1.00696 -0.150262 3.66074e-21)
(1.01174 0.145865 -1.01525e-21)
(1.00481 -0.00921722 2.57644e-22)
(1.00809 -0.0057435 -1.18709e-22)
(0.993976 -0.00308845 -5.34127e-22)
(0.990658 0.101629 -4.37719e-20)
(0.998761 -0.000146886 7.63548e-23)
(1.15814 0.198328 -8.13603e-21)
(1.01486 0.0261419 -1.48681e-20)
(0.999862 -3.70273e-05 1.23793e-23)
(1.00409 -0.0606813 -1.56317e-21)
(0.996074 -0.000950801 -3.78867e-22)
(0.986247 -0.0715705 5.09949e-21)
(1.00066 -0.0001575 4.86858e-23)
(1.08091 -0.0111643 3.76762e-21)
(1.00824 -0.0200961 -1.01751e-23)
(1.00753 -0.00501037 5.82096e-23)
(0.999 -0.000196822 -1.52006e-22)
(1.11493 0.0337527 5.75625e-21)
(1.07842 0.0425643 1.97815e-21)
(1.00448 -0.0790962 2.53144e-21)
(0.975969 -0.023903 -2.05416e-22)
(0.997445 -0.0044977 -2.02055e-22)
(0.998523 -0.0483009 -2.86998e-21)
(1.19805 -0.01026 -3.33307e-21)
(0.753613 0.0948393 -3.86431e-20)
(1.08116 -0.106992 -1.82865e-21)
(1.00615 -0.00966162 -1.22453e-22)
(0.999992 -2.80271e-06 -1.10542e-25)
(0.98418 -0.00588525 -1.73815e-21)
(0.997322 -0.000462933 4.92022e-22)
(1.03042 -0.024 1.6392e-21)
(0.994915 -0.121722 -1.60797e-21)
(1.20417 -0.088394 1.49245e-21)
(0.987663 0.142902 -5.32475e-20)
(1.08945 0.0354681 8.4505e-21)
(1.10492 -0.145899 3.04169e-21)
(1.15148 0.0806505 2.7514e-21)
(0.999326 0.0674236 5.18859e-20)
(1.02488 -0.00374329 2.40208e-21)
(1.00143 -0.00281345 2.27443e-22)
(1.05529 0.0879885 8.29074e-21)
(0.998987 -0.00246662 1.33075e-22)
(0.999785 -0.000201687 1.15213e-23)
(0.978321 -0.00242249 6.08814e-22)
(1.00012 -4.1892e-05 2.57013e-24)
(1.10587 -0.16623 1.65078e-21)
(1.00432 -0.0219811 -8.70071e-23)
(0.981063 -0.0407891 2.73492e-21)
(1.00223 -0.0019485 1.14298e-22)
(1.13381 0.0737548 1.62514e-20)
(0.997901 -0.000388742 -4.39965e-23)
(0.999971 -4.44211e-05 -2.59975e-25)
(1.01695 -0.137164 2.03393e-21)
(1.00197 -0.00162666 -6.67308e-23)
(1.12706 -0.0414566 -7.20043e-22)
(0.94648 -0.0173115 9.47648e-22)
(0.922928 -0.0204407 4.76596e-22)
(1.23949 -0.0474007 7.60459e-23)
(1.03816 0.0227746 -4.84271e-21)
(1.03 0.00605507 2.99625e-21)
(1.02835 0.00582092 -1.1945e-21)
(0.999757 -5.3918e-05 4.09654e-24)
(1.1595 -0.00668636 1.75947e-21)
(1.10549 -0.00424069 3.64341e-21)
(0.999402 -0.000787872 3.58105e-23)
(0.980221 -0.00779186 2.5205e-21)
(1.00074 -0.000249238 -5.41902e-23)
(1.01391 -0.0252017 -1.21525e-21)
(1.00948 -0.0350729 -5.94707e-23)
(1.00543 -0.00172168 2.50977e-24)
(0.999109 -0.00156528 -1.60523e-22)
(1.21378 0.0371445 -9.0591e-21)
(0.999974 -2.70414e-05 -4.8371e-24)
(1.00025 -0.000127864 -1.38598e-23)
(1.00245 -0.00126953 -4.6944e-24)
(0.973269 -0.00400556 1.68468e-21)
(1.02329 -0.0149077 2.03471e-21)
(0.980322 -0.0344084 -3.89702e-21)
(0.967111 -0.00615944 -9.78314e-22)
(1.01107 -0.0759884 1.4244e-21)
(1.02378 -0.162451 -3.88752e-21)
(1.03051 -0.0403391 4.48518e-22)
(1.06329 0.0865358 -4.67019e-20)
(1.22639 -0.0784074 -2.89615e-21)
(0.992207 -0.00311191 -6.99004e-23)
(0.818586 0.184917 6.28276e-20)
(0.969825 -0.0651714 5.70562e-21)
(0.992181 -0.0117835 2.7243e-22)
(0.967931 -0.00510035 1.61469e-21)
(0.997077 -0.0220648 -1.44269e-22)
(0.97493 -0.00294636 2.57614e-21)
(0.988098 -0.00471622 -5.05989e-22)
(1.03346 -0.0187256 -3.07562e-21)
(1.13028 -0.10141 -4.31679e-22)
(0.999969 -5.25663e-05 -4.18108e-25)
(1.0284 -0.0171661 -3.44761e-22)
(0.999884 -3.66776e-05 -6.06176e-24)
(1.05031 0.158381 9.90212e-21)
(1.21752 0.00589165 5.31608e-21)
(0.994317 -0.00235719 1.68054e-22)
(0.983187 -0.00211171 -2.31026e-21)
(0.999775 -6.56344e-05 -2.96461e-23)
(0.999359 0.0905475 3.22334e-20)
(1.10457 0.160675 2.06197e-20)
(1.15676 -0.0169274 -2.18104e-21)
(1.24711 0.0479794 -6.47277e-21)
(0.96955 -0.0690682 -2.43983e-21)
(0.997247 0.0240349 -5.06911e-20)
(0.999926 -0.000161191 6.02806e-24)
(1.05574 -0.0403721 3.50916e-21)
(0.977894 -0.0018469 -9.51711e-23)
(1.16213 0.0464844 -3.03313e-21)
(0.87543 0.121949 -4.85869e-20)
(1.19644 -0.0189747 3.31787e-21)
(1.07827 0.0298671 1.39185e-21)
(0.999826 -0.0150861 -8.41941e-23)
(0.999763 -0.000101517 -2.72343e-23)
(1.23228 0.0361715 2.71285e-21)
(1.20002 -0.11078 7.81944e-22)
(0.997911 0.103398 -9.368e-22)
(1.1188 -0.0392817 4.69049e-21)
(1.06024 0.0664758 1.38313e-20)
(0.991734 -0.00278544 -2.36122e-22)
(1.00155 0.139974 1.42072e-20)
(1.10629 0.147014 7.16231e-21)
(0.989454 -0.00397244 -1.41891e-21)
(0.991178 -0.0037289 -5.27132e-22)
(1.22905 0.019361 4.38369e-23)
(0.920079 -0.0188945 -6.47441e-21)
(0.9999 -0.000188625 -9.13625e-24)
(0.984933 -0.00636356 2.23661e-21)
(0.926128 -0.0266148 4.74706e-21)
(0.981844 -0.087799 -7.16631e-22)
(1.0116 -0.00327739 -2.06711e-21)
(1.00983 -0.00715877 1.33546e-22)
(0.999853 -0.000233774 -1.62732e-23)
(1.11485 0.168813 -3.06641e-20)
(1.00034 -0.0135555 1.3994e-23)
(0.999878 -7.17195e-05 5.37505e-24)
(1.02033 -0.0724503 1.5285e-21)
(0.999416 -0.000515292 3.16078e-23)
(0.999736 -9.36321e-05 2.08385e-24)
(1.00617 -0.0147745 -1.44171e-22)
(1.11854 0.0844127 2.3037e-20)
(1.01074 -0.122664 2.81691e-21)
(0.91416 0.119956 2.8218e-20)
(1.00008 -1.4234e-05 -7.08532e-24)
(1.12897 0.0842015 -2.37607e-20)
(1.01343 -0.0618272 1.19885e-21)
(0.999911 -0.000226435 -2.55457e-24)
(1.00003 -6.9966e-06 -2.11756e-24)
(1.00527 0.0169576 -2.44458e-21)
(1.10281 0.073826 8.86501e-21)
(0.995394 -0.00289481 1.46435e-22)
(1.08648 0.0566589 -1.19624e-20)
(1.00003 -2.35014e-05 1.55105e-24)
(1.09073 0.0644975 -1.62191e-20)
(1.12774 -0.178485 4.084e-21)
(0.988887 -0.0035549 1.56097e-21)
(0.998564 0.0367889 -6.77827e-20)
(0.971186 -0.0547929 3.79927e-21)
(1.24293 0.040083 5.97859e-21)
(0.969396 -0.00512657 9.76275e-22)
(1.09913 0.0653443 2.11407e-20)
(1.11298 0.0743191 -6.44509e-21)
(0.98117 -0.00961243 3.63198e-21)
(0.975398 -0.0116786 -2.67501e-21)
(0.994113 -0.0117884 8.05722e-22)
(0.996724 -0.000867042 -1.24436e-22)
(0.99977 -0.000226488 3.16177e-23)
(1.00012 -0.0128907 -2.50605e-23)
(1.11766 0.127771 -3.67268e-21)
(0.999967 -4.11795e-05 1.23202e-24)
(1.07785 0.0561013 1.57934e-20)
(1.02514 -0.124815 4.37907e-21)
(1.02059 0.0984718 1.22496e-20)
(1.0748 0.0495462 -1.82394e-20)
(0.923237 -0.0249124 -5.86605e-22)
(0.933566 0.153194 -5.80169e-20)
(0.998178 -0.00136792 1.05267e-23)
(1.01838 -0.032825 5.17946e-22)
(1.05024 -0.0980483 1.08234e-21)
(0.976011 -0.0027702 -1.5396e-22)
(0.992661 -0.00392961 7.02516e-22)
(1.01026 -0.0630553 -1.07302e-21)
(1.06576 -0.0326159 -3.59847e-22)
(0.833533 0.111967 7.69486e-20)
(1.00005 -2.39812e-05 7.63049e-24)
(0.997855 -0.00145943 1.42169e-22)
(1.01529 -0.0899193 5.33602e-23)
(1.00002 -5.77436e-06 2.41054e-25)
(1.0568 0.170379 4.83827e-21)
(1.00198 -0.00139296 0)
(1.00002 -7.11651e-06 1.76499e-25)
(1.00022 -0.000102325 3.23852e-23)
(1.00048 -0.000133044 6.7428e-25)
(0.982943 -0.0235069 2.66134e-21)
(1.02685 -0.0225003 -1.17666e-21)
(0.998266 -0.0010555 2.23905e-22)
(0.999902 -1.94518e-05 1.14236e-23)
(0.992171 -0.00368018 3.90069e-22)
(1.00526 -0.0153981 -1.04897e-22)
(0.982723 -0.127099 -4.36709e-21)
(0.929625 -0.0084976 4.6632e-22)
(1.0225 -0.0132451 3.57617e-21)
(0.999968 -3.17528e-06 3.66702e-24)
(1.07961 -0.184071 5.17166e-21)
(0.985206 -0.00442503 -8.96512e-22)
(1.21231 0.0253107 -3.85911e-22)
(1.00089 0.0308886 -8.82577e-21)
(1.00145 -0.00423103 5.22989e-23)
(1.19251 0.0281447 -9.68816e-21)
(1.00018 -0.000113378 4.50535e-26)
(0.985908 -0.00497404 2.60032e-23)
(1.03138 0.000650824 -6.06763e-21)
(0.992686 -0.00446713 -2.87736e-22)
(1.13435 0.102243 -1.47008e-21)
(0.985763 -0.00777224 -1.68785e-21)
(1.05811 -0.0380482 -3.05126e-21)
(1.03263 0.00182464 -6.53896e-21)
(1.09721 0.0350721 -3.41232e-21)
(1.00865 -0.0185335 -5.53604e-22)
(0.988702 -0.00508079 4.20147e-23)
(1.14849 0.0612392 9.3037e-21)
(0.973794 -0.0952134 -3.89123e-21)
(1.03236 0.177805 4.11622e-20)
(0.990005 -0.00574191 -1.64229e-21)
(1.16842 0.133258 -4.92789e-22)
(0.989992 -0.00503882 4.38706e-22)
(0.998705 -0.000615871 -1.46821e-23)
(1.07546 0.02599 4.00959e-21)
(1.01625 -0.0370276 -9.7116e-23)
(1.04762 -0.000756094 8.88237e-21)
(1.002 -0.00102025 7.38628e-23)
(1.00002 -5.10926e-06 8.17069e-26)
(0.993341 -0.145188 1.58235e-21)
(1.23229 0.0751728 -1.07941e-20)
(1.00175 -0.00410345 -7.0035e-23)
(1.20156 0.0211552 8.5108e-22)
(0.986543 -0.00725227 -1.10405e-21)
(1.07007 -0.188248 -1.81535e-21)
(1.05047 -0.0561021 -8.42155e-24)
(0.979846 -0.03653 2.19009e-21)
(0.99813 -0.00119781 -9.43716e-23)
(0.990293 -0.00126752 -3.31338e-22)
(0.968327 -0.081301 -2.35807e-21)
(0.966932 -0.0110692 3.69828e-21)
(0.989381 -0.00469397 1.1611e-21)
(0.999836 -0.000526083 1.45698e-23)
(1.02147 0.194647 -5.16744e-21)
(1.18219 0.0233522 5.83056e-21)
(1.03 -0.0144936 -1.11132e-21)
(0.999776 -0.000175374 2.09587e-23)
(1.09633 0.139747 -1.41574e-20)
(1.00001 -2.84755e-05 1.91255e-25)
(0.999792 -0.000155606 4.15282e-23)
(1.17264 0.0295846 5.57651e-21)
(1.01172 -0.0305923 3.23465e-22)
(1.22428 0.0565047 8.7874e-21)
(1.02985 -0.00473886 2.50811e-21)
(1.02031 -0.0162915 -2.45519e-22)
(1.09459 -0.0960992 9.8321e-22)
(1.04222 -0.154326 4.22958e-21)
(1.23514 -0.0518972 3.94151e-22)
(1.00145 -0.00101421 -1.60712e-22)
(0.948542 -0.0188987 -3.718e-22)
(0.999979 -6.84404e-05 -9.4924e-25)
(1.00584 -0.0136136 1.01961e-22)
(1.13537 0.0924531 8.27239e-21)
(0.982162 -0.00901058 2.53531e-21)
(0.996904 -0.00173929 1.97285e-22)
(1.01514 -0.0500786 -6.08109e-22)
(0.997822 -0.00128856 1.35403e-23)
(0.99956 -0.00129006 4.27641e-23)
(0.817644 0.0256944 1.37436e-20)
(0.989407 -0.00617865 -9.29647e-22)
(0.999409 -0.000864497 -1.2422e-22)
(0.999979 -8.90293e-07 -7.66056e-25)
(1.02457 0.00809967 1.30597e-20)
(0.969344 -0.0305337 -5.59625e-22)
(0.999637 -0.000655178 3.74149e-23)
(0.996914 -0.00100337 2.53882e-22)
(1.0358 0.0266422 5.34165e-21)
(1.09065 -0.00361593 8.83602e-22)
(0.957277 -0.0270433 -3.15944e-21)
(1 -1.78943e-05 -9.97495e-26)
(1.00291 0.0220424 3.54888e-20)
(0.984527 -0.0205146 -1.82062e-21)
(1.12773 0.0653867 -1.65003e-20)
(1.01523 -0.00174225 -3.14629e-21)
(1.01761 -0.00159332 7.19543e-21)
(0.965019 -0.0137488 5.03701e-21)
(0.999892 -7.72343e-05 -3.53947e-24)
(1.03129 -0.000138785 -1.1935e-21)
(1.09479 -0.0090815 -1.15559e-21)
(1.22231 -0.034632 1.10944e-21)
(1.03246 -0.120687 9.15311e-22)
(1.10704 0.122179 1.07979e-20)
(1.00689 -0.00199327 -5.08352e-23)
(1.15918 0.0590272 -1.27085e-20)
(0.999952 -0.0175775 -1.50262e-22)
(1.01631 -0.069241 -2.86017e-21)
(0.999564 -0.000196251 -4.02877e-23)
(1.00347 -0.0232823 1.66955e-22)
(0.999885 -0.00050798 6.15068e-24)
(1.07374 0.0354426 -1.2054e-20)
(1.2031 0.117328 -2.44663e-20)
(0.998351 -0.00141499 7.5172e-23)
(1.02176 -0.0165432 5.96129e-23)
(0.980575 -0.00543237 8.71277e-22)
(1.0388 -0.108039 3.72272e-22)
(1.03212 -0.112632 -2.19876e-21)
(0.997936 -0.00101756 1.49232e-22)
(1.05142 -0.0399678 -1.21059e-21)
(0.834489 0.00731532 -2.32031e-20)
(1.20841 -0.0451612 6.48732e-22)
(0.99994 -0.000195021 1.31732e-23)
(1.08373 -0.00499446 -3.17711e-21)
(0.996729 -0.0107862 -3.89276e-22)
(0.986955 0.00585706 4.8462e-20)
(0.986549 -0.00634737 1.53662e-21)
(0.99485 -0.0318071 -4.68964e-22)
(1.01853 -0.0449662 -5.7412e-23)
(0.99315 -0.0328085 -7.18658e-23)
(0.998034 -0.0256326 -1.03642e-21)
(0.991653 -0.00399685 2.68477e-22)
(0.998963 -0.0173705 5.65088e-22)
(1.00226 -0.00763119 -7.91674e-23)
(1.06629 -0.0374176 8.25565e-22)
(1.00012 -3.44202e-05 -1.99341e-23)
(1.17357 -0.159612 -1.68629e-21)
(1.17429 -0.069386 -1.87222e-22)
(1.08909 0.178381 2.61155e-20)
(0.959388 -0.0256301 4.80449e-21)
(1.21256 0.0626438 -4.61352e-21)
(1.00221 -0.000810826 2.60262e-22)
(1.06691 -0.100484 -4.47293e-23)
(1.00373 -0.0463615 -1.07054e-21)
(1.03554 0.0508471 1.56429e-20)
(0.992226 -0.00482764 6.66603e-22)
(1.00013 -0.000216615 1.30054e-23)
(0.985276 -0.0213607 2.37694e-21)
(0.995113 -0.0114748 -3.05582e-22)
(1.04865 -0.0365273 2.60836e-21)
(0.968674 -0.00847662 -3.12626e-21)
(0.974139 -0.0108818 8.82114e-22)
(1.13478 -0.0794982 1.10342e-22)
(0.983601 -0.00352581 -1.51092e-21)
(1.01544 -0.0465767 3.66239e-22)
(0.983172 -0.0928756 2.78491e-21)
(1.00001 -9.51807e-06 1.39128e-25)
(1.0702 -0.0290654 4.63868e-21)
(0.985799 -0.0839893 -7.50206e-21)
(1.20291 0.0444889 4.43054e-21)
(1.09265 -0.103355 -1.95399e-21)
(1.04563 -0.000956663 7.42915e-22)
(1.01829 -0.120003 -5.72703e-21)
(1.14131 0.171355 6.34442e-21)
(1.0382 -0.0477221 8.54501e-22)
(0.963514 -0.0126875 -2.98067e-21)
(1.01403 -0.057795 -1.35049e-21)
(0.921757 0.0101451 2.18066e-20)
(1.13934 -0.150849 9.35269e-22)
(0.985805 -0.00589288 -4.6689e-22)
(1.01596 -0.14655 -4.37054e-22)
(1.02406 -0.0816749 1.89358e-21)
(1.0326 -0.138813 -7.80888e-22)
(1.03772 -0.100553 -2.19767e-21)
(1.14151 0.0539776 1.23423e-20)
(0.996931 -0.00199385 1.30806e-23)
(1.01596 0.0646229 5.93963e-21)
(1.00906 -0.0018526 3.70579e-22)
(0.999565 -0.00066155 -5.31357e-23)
(0.998655 -0.00283112 3.62839e-22)
(1.07519 -0.0109754 -1.12402e-21)
(0.738611 0.0090352 6.74917e-22)
(1.00184 -0.00812651 4.21224e-23)
(1.01704 -0.0647277 4.13457e-22)
(1.03682 0.0305372 -8.86628e-21)
(1.00003 -9.32566e-06 -3.88355e-25)
(0.97664 -0.0109956 2.13418e-21)
(1.02672 -0.0131479 2.57269e-21)
(1.0806 -0.0649585 9.52284e-22)
(1.00916 -0.0011077 2.07415e-21)
(0.998235 -0.00246422 6.68461e-23)
(0.980718 -0.0463172 6.37424e-23)
(0.997504 -0.0104052 -1.09733e-22)
(1.00004 -6.44922e-06 4.16138e-24)
(0.973649 -0.0538605 -6.40043e-21)
(1.11503 0.103169 -3.85708e-21)
(1.0213 -0.0400565 2.13932e-22)
(0.981431 -0.00614703 -1.63529e-21)
(1.00204 -0.000473578 -9.37525e-23)
(1.04152 0.0328981 1.16729e-20)
(0.999575 -0.000780171 -2.42938e-23)
(0.998615 -0.000805295 -7.61229e-24)
(0.999602 -0.000215496 -3.702e-23)
(0.999169 -0.00264403 -9.24632e-23)
(1.214 -0.0255085 1.80099e-21)
(1.03073 -0.0468187 9.64186e-22)
(1.00892 -0.0232014 1.80068e-22)
(0.980144 -0.0090265 -7.46388e-22)
(1.00005 -6.34314e-05 3.98163e-24)
(1.06181 -0.152297 5.59035e-21)
(1.20872 -0.0993739 9.36233e-23)
(1.06517 -0.163002 -2.67387e-21)
(0.995523 -0.0403571 -8.75855e-22)
(1.016 -0.0118183 2.36639e-21)
(0.999764 -0.000123046 1.72339e-23)
(0.987208 -0.0140116 -9.48421e-22)
(0.95298 -0.0539867 -3.78028e-21)
(1.20155 -0.0369922 5.19154e-22)
(1.01641 0.0965721 -4.42045e-22)
(0.998718 -0.00398672 7.43439e-23)
(0.938418 -0.0376808 2.15382e-21)
(0.994752 -0.00343245 -6.37616e-22)
(1.03648 -0.0441691 -1.28249e-22)
(1.1534 0.0398515 1.0223e-21)
(1.00051 -0.000168569 -7.48489e-23)
(0.999828 -0.0002629 -6.53631e-24)
(1.23347 0.0249581 6.66038e-22)
(1.18671 -0.0495494 1.12931e-22)
(1.02132 -0.0202008 8.65299e-22)
(0.996724 -0.00217673 3.36548e-22)
(0.997672 -0.000568261 -3.33687e-23)
(0.960523 -0.0552082 9.23024e-22)
(0.999808 -0.000440665 -2.18958e-23)
(1.01851 -0.0417175 2.44679e-22)
(0.985092 -0.00175565 3.13719e-21)
(1.00145 0.0332795 -7.38039e-21)
(1.12692 0.107649 -2.01718e-21)
(1.06316 -0.0932495 7.75859e-22)
(0.990095 -0.084931 2.78337e-21)
(1.00732 -0.00193103 1.04105e-21)
(1.01586 -0.03129 -7.50694e-22)
(1.17046 -0.0584477 8.30517e-22)
(0.9887 -0.0938912 -1.71606e-21)
(1.01766 -0.0562564 7.55263e-22)
(0.999998 -8.71937e-06 1.24447e-25)
(1.15108 -0.0653886 7.04121e-23)
(0.971134 -0.00346695 2.93249e-22)
(0.986685 -0.103602 3.41901e-21)
(1.02108 -0.037024 -1.11353e-21)
(0.95092 -0.0179344 -6.68529e-22)
(0.999555 -0.000382156 -1.80561e-23)
(0.996666 -0.00163249 -1.50029e-22)
(1.06776 0.0488454 1.40869e-20)
(0.966789 -0.0129046 -1.13376e-21)
(0.999982 -2.15796e-06 8.44443e-25)
(0.996805 -0.000666195 -3.50221e-22)
(1.14176 -0.136844 -6.1668e-21)
(0.999814 -5.93444e-05 4.41049e-23)
(1.02076 -0.062981 -2.33426e-22)
(0.999945 -0.000156724 -9.60327e-25)
(1.00747 -0.0173128 -1.12259e-24)