/*--------------------------------*- C++ -*----------------------------------*\
  =========                 |
  \\      /  F ield         | OpenFOAM: The Open Source CFD Toolbox
   \\    /   O peration     | Website:  https://openfoam.org
    \\  /    A nd           | Version:  7
     \\/     M anipulation  |
\*---------------------------------------------------------------------------*/
FoamFile
{
    version     2.0;
    format      ascii;
    class       volVectorField;
    location    "39.5";
    object      U;
}
// * * * * * * * * * * * * * * * * * * * * * * * * * * * * * * * * * * * * * //

dimensions      [0 1 -1 0 0 0 0];

internalField   nonuniform List<vector> 
7807
(
(1.09403 0.122055 2.71104e-20)
(1.08504 -0.0213228 8.37584e-20)
(1.0649 0.107474 -4.40406e-20)
(1.06528 0.0861356 8.75558e-20)
(1.0399 -0.00147036 1.34716e-20)
(0.896849 -0.00334764 1.00693e-20)
(1.06684 0.109073 -8.75869e-20)
(0.998243 -0.000401905 3.36887e-22)
(1.03816 -0.00127311 1.19613e-20)
(1.04172 0.00444485 -7.50707e-21)
(0.970052 -0.00744878 -1.12439e-20)
(1.04024 -0.00190216 -2.1415e-20)
(0.935806 -0.00136379 -2.05686e-20)
(1.04634 -0.000361491 -8.88737e-20)
(1.04015 0.00432807 3.13398e-20)
(1.03405 -0.00876199 3.32209e-20)
(1.09448 0.125885 -5.75342e-20)
(0.907209 0.00227358 5.76535e-21)
(1.04126 -0.00558201 -1.68363e-20)
(1.02547 -0.0802056 7.13752e-21)
(1.05921 0.0070655 -2.39469e-20)
(1.03995 0.000141877 6.0896e-20)
(1.04783 -0.00120136 1.14982e-20)
(1.01694 0.0506088 -5.33911e-20)
(0.863142 0.00506655 2.06181e-20)
(1.09148 0.12039 -2.72184e-20)
(1.04011 -0.00131228 1.12602e-20)
(1.04869 0.00108127 2.92963e-20)
(1.00724 0.0234804 -7.76048e-21)
(1.04152 -0.00572809 1.50257e-20)
(1.03002 -0.00892654 4.74379e-20)
(0.455889 0.00858097 9.04108e-21)
(1.04744 -0.00134004 6.19875e-20)
(1.03792 -0.0021167 -2.57457e-20)
(0.419388 0.00146615 -1.25899e-22)
(1.04485 0.00359261 1.19627e-20)
(1.04217 -0.00673897 1.10666e-20)
(1.065 0.109138 -1.48802e-20)
(1.03679 -0.00494769 -5.99956e-20)
(0.807847 -0.00290605 -3.18433e-20)
(1.03713 -0.0050109 6.03732e-21)
(1.03414 -0.0082869 1.23953e-20)
(1.0533 -0.0880525 -3.38161e-20)
(1.17185 -0.008888 -1.18218e-20)
(0.390498 -0.000276733 -1.50927e-20)
(0.844585 0.00871687 6.49545e-21)
(1.03906 0.000279823 -3.70425e-20)
(1.03748 -0.00447267 3.5316e-20)
(1.03183 -0.00417419 6.5238e-21)
(1.02984 -0.0807488 -1.05086e-20)
(1.04065 -0.00147485 1.70797e-20)
(1.04932 0.00141517 -3.16355e-20)
(0.804365 0.00428231 5.58992e-20)
(1.04812 -0.0192604 1.20406e-20)
(1.04542 0.00330091 -9.20069e-21)
(1.03455 -0.00265608 6.12044e-21)
(1.04048 -0.00480738 2.65568e-20)
(0.958038 -0.000472734 -3.94389e-20)
(1.02037 -0.010646 5.42802e-20)
(1.03752 -0.00243042 3.12769e-20)
(1.0364 -0.0012231 -1.57815e-20)
(1.04189 -0.000227554 1.62289e-20)
(1.04678 -6.73902e-05 -2.00913e-20)
(1.0398 -0.00128746 2.18663e-20)
(0.826786 -0.00922932 -2.24179e-20)
(1.03044 -0.00940137 -7.57493e-21)
(1.03739 -0.00157684 -1.11212e-20)
(1.03446 0.000206251 1.60582e-21)
(1.15443 0.0878611 2.71105e-20)
(1.03768 -0.00406206 1.42272e-20)
(0.947003 -0.00270338 -5.88743e-21)
(1.01566 -0.0426834 6.35607e-20)
(0.921423 0.000411693 -1.0138e-20)
(0.711351 -0.00262432 -8.61809e-21)
(0.956115 0.000581384 -1.80951e-20)
(1.00364 -0.0185704 8.67901e-21)
(1.06488 0.108175 7.05585e-20)
(1.05777 0.00638585 3.00945e-20)
(1.10598 0.021273 -6.14064e-20)
(0.99793 -0.0326105 7.19344e-20)
(0.977285 -0.00327923 3.17485e-20)
(1.03089 0.119321 1.00731e-19)
(1.06057 0.019615 5.27163e-20)
(0.928349 -0.00238907 -3.88149e-20)
(1.03776 -0.00190563 1.8211e-20)
(0.677402 -0.00168219 -9.63711e-21)
(1.02291 -0.00284955 -5.27169e-20)
(0.866729 -0.000313801 -3.56711e-20)
(1.03906 -0.00127275 -1.54142e-20)
(0.673437 -0.00506193 -1.88376e-20)
(1.00762 0.0265953 5.5084e-20)
(1.19593 0.0110081 1.8317e-20)
(1.02214 -0.00325402 1.10185e-20)
(1.04032 -0.00437595 1.24078e-20)
(0.964897 -0.0035101 -2.25529e-20)
(0.451205 -0.00330193 6.68188e-20)
(1.01785 -0.0424932 -3.82855e-21)
(1.04934 -0.0181176 -2.07511e-20)
(1.03751 -0.00183689 -3.64282e-21)
(0.764239 0.0107258 -6.53099e-21)
(0.788314 -0.0106984 -1.83032e-20)
(1.10608 0.0259506 4.61946e-20)
(1.00152 -0.00116745 5.57645e-20)
(0.436203 -0.000483336 1.09785e-21)
(1.19641 0.0218336 1.15379e-20)
(1.04598 0.0490612 -5.29091e-20)
(0.684543 0.0425596 1.22519e-20)
(1.03101 -0.00292782 2.33581e-20)
(1.03294 -0.00151328 -5.27576e-22)
(1.05538 -0.00452348 -2.53952e-20)
(1.06632 0.0826853 -1.01619e-19)
(1.06638 -0.0593156 6.40614e-20)
(1.03411 -0.00163859 6.64668e-22)
(1.05675 -0.00427572 -5.50986e-21)
(1.04144 0.0474947 5.52329e-20)
(1.03856 -0.000331526 -8.28889e-21)
(1.11226 -0.0660727 4.66464e-21)
(1.04593 0.0312049 -1.46257e-20)
(1.02656 -0.0328393 -3.89523e-20)
(0.79901 0.000354965 9.23408e-21)
(0.567838 -0.00454457 4.31547e-20)
(1.00833 0.0535977 -6.71465e-20)
(1.05963 -0.0860692 4.64615e-20)
(1.04458 -0.00360158 7.10066e-21)
(0.646266 -0.0064381 -1.6936e-20)
(1.03892 -0.00135259 -3.27496e-20)
(1.03179 -0.00622863 -1.73955e-20)
(1.04057 -0.00486221 -2.03823e-20)
(0.665844 0.0125851 5.23789e-20)
(1.03059 -0.0079065 -1.14313e-21)
(1.22753 0.00354109 5.25467e-21)
(1.1011 0.0184718 1.03044e-20)
(1.0387 -0.00277553 -2.41749e-21)
(1.03879 -0.00134057 3.42301e-20)
(0.878797 -0.00307434 -1.11185e-20)
(1.06242 0.0778383 4.04056e-20)
(1.03601 0.11903 1.15053e-19)
(0.657718 0.0111843 1.78453e-21)
(1.04421 -0.001716 3.89357e-21)
(0.470172 0.00524122 4.69669e-20)
(0.591235 -0.0028509 3.82135e-20)
(1.03099 -0.0479535 4.87401e-20)
(1.00704 -0.0203354 -1.16319e-20)
(0.7012 0.00050797 6.77882e-22)
(0.539653 0.00303849 4.86821e-20)
(1.05122 -0.0321151 3.18072e-21)
(1.01625 0.0310554 -2.93854e-20)
(1.02367 -0.0139618 2.91421e-20)
(0.500246 0.00353604 -8.32197e-21)
(1.01221 0.0837614 -3.34906e-20)
(1.04632 0.00358857 3.49363e-20)
(1.18545 0.00597332 8.0877e-21)
(1.03869 -0.00115357 5.13284e-20)
(1.15962 0.0820294 6.42232e-21)
(1.05841 0.0186229 -5.58631e-20)
(1.0639 0.107107 -7.67088e-20)
(0.997184 -0.0226478 -3.13365e-20)
(0.833472 -0.0053922 -7.91147e-21)
(1.04845 0.0848535 1.11586e-19)
(1.02855 -0.0119261 7.17276e-21)
(1.04031 -0.00451246 -3.09628e-20)
(1.01735 0.0553419 3.66967e-20)
(1.0341 -0.00191019 -8.52424e-21)
(1.03808 -0.00320754 6.20472e-20)
(0.906312 0.00271895 9.86649e-21)
(1.00665 0.0556983 -1.1078e-20)
(1.0035 0.0363094 3.99048e-20)
(1.03063 0.0767835 3.46391e-20)
(1.03785 -0.00336937 2.6837e-20)
(0.606352 0.00131833 1.28435e-20)
(1.03551 0.000754914 -1.60833e-21)
(0.353117 -0.00278604 6.89281e-20)
(1.03881 -0.000476598 1.10793e-20)
(1.08615 -0.0177171 -9.80031e-20)
(1.04409 -0.00192043 2.53826e-20)
(0.587996 -0.0023406 -1.60488e-20)
(1.18683 0.0290693 2.16179e-20)
(1.1185 0.083979 2.20623e-21)
(1.03518 -0.00324851 -6.42495e-21)
(1.03891 -0.00175018 3.16508e-20)
(1.0678 0.0881792 -1.45647e-20)
(0.962633 -0.00461755 2.82414e-21)
(0.599103 -0.0116754 -3.73823e-21)
(1.0664 0.107502 -7.18834e-20)
(1.08768 -0.0239872 4.24156e-20)
(1.05219 -0.0495563 4.09712e-20)
(1.02819 -0.0316294 5.59064e-20)
(0.878338 -0.00159859 -2.80617e-20)
(1.04877 -0.0335342 -7.84824e-21)
(0.429113 -0.002587 -2.51061e-20)
(1.03345 -0.00213546 2.69333e-21)
(1.0186 -0.0394368 1.56448e-20)
(1.12005 0.0898323 -4.11399e-20)
(1.02399 -0.00126765 -7.99895e-21)
(1.03741 -0.000407181 -7.86828e-21)
(1.09669 0.086418 3.24776e-21)
(0.997935 0.0031778 -5.13965e-20)
(1.0313 -0.00753607 -2.5942e-20)
(1.04608 -0.0316424 -2.81365e-20)
(1.03592 -0.000580822 -6.73627e-22)
(1.03912 -0.00139825 -2.67208e-20)
(1.05901 0.0789624 4.58353e-20)
(1.10978 0.0937685 -4.66458e-20)
(1.06109 0.109493 -1.00662e-20)
(1.10712 -0.0604453 -2.62991e-20)
(1.06953 -0.055438 -1.31788e-20)
(1.16188 -0.0855671 6.68442e-21)
(1.04766 0.000119031 7.9072e-20)
(1.05435 0.0768224 -1.69604e-20)
(0.557986 -0.0151949 1.5608e-20)
(1.03715 -0.000765618 4.56441e-21)
(0.409032 0.0430973 -5.09887e-20)
(1.03484 -0.00808696 1.34591e-20)
(1.0385 -0.00311167 2.1471e-20)
(1.02065 -0.0387894 -3.62097e-20)
(1.03133 -0.00658258 1.92958e-20)
(1.06311 0.103166 -9.19046e-20)
(1.06119 0.104465 -2.04827e-20)
(1.02857 -0.0493265 -1.25839e-20)
(0.722678 0.0249119 -3.67891e-20)
(1.02533 0.00206484 3.8925e-20)
(0.836078 -0.00139219 -2.04023e-20)
(0.727892 -0.00899035 -2.37154e-20)
(1.05564 0.0106099 -1.56374e-20)
(1.06038 -0.114529 3.11044e-21)
(1.10765 0.123301 -6.49152e-20)
(1.04136 0.0827128 -9.73205e-20)
(1.03684 -0.00130085 1.14469e-20)
(1.04413 -0.00350556 9.36432e-21)
(1.0429 0.0344179 7.64888e-20)
(1.03755 -0.00371243 4.70812e-20)
(1.04955 0.0318784 -1.00798e-20)
(1.03893 -0.00125123 1.11828e-20)
(0.957139 0.0617725 6.79047e-20)
(1.06235 0.107146 1.58402e-20)
(1.00494 -0.00158773 -3.21876e-20)
(1.04139 -0.00495506 -1.85767e-21)
(0.880244 -0.0033667 6.07304e-20)
(1.13532 0.108399 2.20178e-20)
(0.579642 0.00998672 -1.08677e-20)
(1.03641 -0.00618918 -1.31817e-20)
(0.865272 -0.0185333 -2.72551e-20)
(1.0195 -0.00642177 2.43518e-21)
(1.03789 -0.0021086 1.35119e-20)
(1.03891 -0.00134083 -1.24034e-20)
(1.08892 0.0624592 5.11577e-20)
(1.035 -0.00209813 -1.11413e-20)
(0.543892 0.00350917 -6.66413e-23)
(1.00146 -0.0328213 -8.39248e-20)
(0.35194 0.0124232 -1.97362e-20)
(1.10087 0.013847 -1.52002e-20)
(0.947634 0.0568272 5.43143e-20)
(0.808171 0.00134155 7.97945e-21)
(1.04399 -0.0324782 -2.39863e-21)
(1.03805 -0.00194081 2.47287e-20)
(1.06466 0.107848 -7.31798e-20)
(1.04088 0.000287985 -2.00394e-20)
(1.04887 0.156285 3.60973e-20)
(1.04112 -0.00618771 -4.98785e-20)
(1.03968 -0.001234 3.4015e-20)
(1.06391 -0.0194017 -3.81738e-20)
(1.047 0.000834301 -7.37189e-20)
(1.03879 -0.000500583 1.71192e-20)
(0.903978 -0.0052486 -1.16011e-21)
(1.03877 -0.000665112 4.32272e-20)
(1.03757 -0.00390277 3.97725e-20)
(1.05914 -0.0511493 -5.09469e-20)
(0.925021 -0.00729725 -5.21779e-21)
(0.999523 -0.021576 -2.29095e-20)
(0.966356 0.000143888 2.14338e-21)
(1.00077 -0.0038415 -1.16695e-20)
(1.03895 -0.00285122 -6.44773e-21)
(1.06649 0.145256 8.60136e-20)
(0.497285 -0.00241461 -9.49449e-21)
(0.650392 0.00620703 5.76262e-21)
(0.264546 0.0226743 8.37581e-20)
(1.03776 -0.0022678 2.56372e-20)
(1.08759 0.102532 -3.51431e-20)
(1.038 -0.00195007 -3.60568e-20)
(1.04497 -0.0140253 3.67377e-20)
(1.03659 0.000892942 -5.04276e-22)
(1.02607 -0.0255397 2.40114e-20)
(1.05556 0.0096652 2.25821e-20)
(1.18696 0.0378603 -5.00587e-20)
(1.02128 -0.0120285 -4.65107e-20)
(1.03843 -0.00177307 -3.95033e-20)
(1.02417 -0.066165 -1.80491e-20)
(0.12476 0.000208392 -2.55416e-20)
(0.549837 0.0159736 -1.70506e-21)
(1.03885 -0.000630829 -3.83557e-20)
(1.03819 -0.00239261 -2.97599e-20)
(0.77736 -0.00962302 3.03995e-20)
(1.0415 -0.000879378 -3.30514e-20)
(1.03845 -0.00129487 -1.71003e-20)
(0.930658 -0.00154717 -6.54474e-21)
(1.06315 -0.0486479 3.42363e-20)
(0.876445 0.000216339 -2.84753e-20)
(1.16438 -0.00266495 3.38737e-21)
(0.765329 -0.00270804 3.02155e-20)
(1.06811 0.10794 8.26643e-21)
(1.06721 0.108738 -6.21078e-20)
(1.03701 -0.000189243 2.70011e-20)
(1.20523 0.0396333 6.28799e-20)
(0.993335 -0.00153556 6.41489e-22)
(1.03833 -0.00294518 3.16745e-20)
(0.320278 0.00341534 -6.89075e-20)
(1.01226 0.0447159 3.1435e-20)
(1.06094 0.0251516 -4.65296e-20)
(1.03682 -0.001521 1.56232e-20)
(1.03835 -0.00250507 4.61289e-21)
(0.829177 -0.00277439 -2.28058e-20)
(1.07386 0.058 -2.07305e-20)
(1.03904 -0.00132841 -1.85417e-20)
(1.03995 -0.000841843 1.51959e-20)
(1.03955 -0.000499831 -3.55491e-21)
(1.1424 0.0461993 5.26552e-20)
(1.22831 -0.00801802 3.24085e-20)
(1.07498 0.115522 4.09355e-20)
(0.736199 0.00384833 2.56395e-20)
(1.09588 -0.0207308 -8.29275e-20)
(1.03642 -0.00242402 1.13686e-20)
(1.04206 -0.00451512 -5.22142e-20)
(0.96752 -0.00242669 2.50554e-21)
(1.02863 -0.0135886 -8.00011e-21)
(0.895335 -0.00242352 1.03747e-20)
(1.04835 -0.0130907 5.13728e-21)
(1.22224 0.0453057 -5.303e-20)
(1.0174 -0.0196053 -4.54135e-20)
(1.04587 -0.0133065 -1.07201e-20)
(1.0434 -0.00296803 -1.54318e-20)
(0.791931 -0.00769451 -2.70006e-20)
(1.05805 -0.00747526 1.68496e-20)
(1.03735 -0.0120341 -2.34772e-20)
(1.10019 0.0298543 -2.30319e-20)
(1.08415 0.0608674 2.48384e-20)
(1.20678 -0.0848103 -4.15711e-22)
(1.1705 -0.0182288 2.95249e-20)
(0.224227 -0.00153432 2.73401e-20)
(1.0421 -0.0019515 3.65511e-20)
(0.869085 -0.0171969 1.11846e-20)
(0.998251 0.0681376 -1.08486e-19)
(1.15276 -0.022247 -5.2301e-20)
(1.05565 -0.00149162 -4.99264e-20)
(0.812293 0.0374146 -5.11939e-20)
(0.636795 -0.0118929 -1.26892e-20)
(1.03759 0.0002378 7.38571e-21)
(1.18404 -0.00388083 2.92576e-20)
(1.03866 -0.00161334 1.51626e-20)
(1.0512 -0.029365 -1.08918e-20)
(1.0424 -0.0018379 1.16537e-20)
(0.688095 -0.00222996 1.17105e-20)
(0.742885 -0.000290251 2.45156e-20)
(1.05013 0.0424048 4.19839e-20)
(1.03735 -0.00154524 4.84799e-21)
(1.03885 -0.000260664 -1.50729e-20)
(1.03675 -0.000302108 1.35722e-20)
(0.794638 0.00607175 -5.33297e-20)
(1.03588 -0.00554946 -3.55896e-20)
(0.921994 0.00343301 -4.25084e-23)
(0.908063 0.00600816 -3.73471e-21)
(1.02168 -0.00981359 -1.68584e-20)
(0.621467 0.013201 2.85934e-20)
(1.0474 -0.0140255 -2.30761e-20)
(1.03504 -0.00753355 -4.98004e-20)
(1.0828 0.101862 1.42868e-20)
(1.00409 0.0421247 6.43615e-20)
(1.09112 0.0182713 -2.20973e-20)
(1.1974 0.0433638 -2.39876e-20)
(0.259506 0.00467113 -3.75405e-20)
(1.04212 -0.00232761 -1.91079e-20)
(1.01957 0.0758666 -3.19744e-21)
(0.740616 -0.00251919 4.3683e-20)
(1.0768 0.103319 1.68574e-21)
(1.04867 -0.0364783 -1.3505e-21)
(1.0831 -0.0970536 1.4931e-20)
(1.10629 0.0911673 2.87714e-20)
(1.07843 0.105876 -4.0065e-20)
(0.996145 -0.0180057 -5.41165e-20)
(1.06247 0.0228844 -3.28263e-20)
(1.1102 0.127022 6.09577e-20)
(1.08405 0.103031 6.267e-20)
(1.04923 0.00220976 2.54501e-20)
(1.03137 -0.000970236 -1.32138e-20)
(1.03441 -0.00272203 -9.07489e-21)
(0.984215 0.00128968 5.83494e-21)
(1.05276 -0.0172117 1.58811e-20)
(0.642632 0.00460671 -9.60798e-21)
(1.03901 -0.00199231 -1.93942e-20)
(0.900864 0.00244084 1.02162e-20)
(1.03107 -0.000190384 -1.02396e-20)
(1.02145 -0.0649182 2.9799e-20)
(1.12682 0.0546718 1.95466e-20)
(0.937633 -0.00237722 4.21265e-20)
(1.03852 -0.00757928 -5.67268e-20)
(0.796272 0.0029482 2.83695e-20)
(1.09365 -0.0238013 2.91681e-21)
(0.815011 -0.00602092 5.4235e-20)
(1.04036 -0.00428064 3.70599e-20)
(1.12009 0.124671 9.62905e-21)
(0.784215 0.00423753 6.13334e-20)
(1.03599 -0.00228406 9.3929e-21)
(1.03763 -0.00155357 3.37436e-21)
(1.03687 -0.00148167 2.16334e-20)
(0.932217 -0.00126964 -1.61219e-20)
(1.04786 0.0395388 -5.27852e-20)
(0.649507 -0.00522485 -7.31373e-22)
(1.0527 -0.00242498 3.41264e-20)
(1.06956 -0.119261 -2.20641e-20)
(1.06447 0.111106 -1.71285e-21)
(1.04154 -0.00472449 1.98141e-20)
(1.04354 -0.00281213 -3.44169e-21)
(1.03102 -0.00252718 2.62992e-20)
(1.05129 0.140357 -8.48397e-20)
(0.648014 0.000314422 -1.37472e-20)
(1.07632 0.117651 -2.12346e-20)
(1.01248 0.031577 -5.41013e-20)
(0.938711 -0.00335472 -1.10071e-20)
(1.04682 -0.0374231 3.08205e-20)
(0.87793 -0.00481364 2.57555e-20)
(1.03427 -0.0487584 -6.1238e-20)
(1.03848 0.000123784 1.44823e-20)
(1.08611 0.0204021 2.99109e-20)
(1.04414 -0.0098282 -1.10975e-21)
(1.04318 -0.00227675 5.73841e-21)
(0.827803 -0.00495336 3.48519e-20)
(1.09324 0.0598803 2.67229e-20)
(1.06908 0.056948 7.7883e-21)
(1.05058 -0.0521932 -3.46394e-20)
(1.0233 -0.0125386 3.02233e-21)
(1.0383 -0.00258064 2.09391e-20)
(1.04138 -0.0291114 7.12041e-20)
(1.1567 0.0735191 -3.9593e-20)
(0.551415 0.0181341 -4.51747e-20)
(1.12373 -0.0514702 2.42879e-20)
(1.04254 -0.0047632 -1.08632e-20)
(1.03404 -0.00135531 5.30204e-22)
(0.975126 -0.0017599 4.11678e-20)
(0.752498 -0.0015893 -4.93502e-20)
(1.05735 -0.00795177 2.78822e-20)
(1.05021 -0.0934357 1.21242e-20)
(1.20627 0.0280989 -2.37789e-20)
(1.07109 0.115186 -9.6598e-20)
(1.07756 0.0544687 3.72678e-20)
(1.16176 -0.0741225 -2.45491e-20)
(1.09691 0.0912311 1.10879e-20)
(1.01414 0.0766443 1.05533e-19)
(1.04953 -0.00124724 2.91913e-20)
(1.03923 -0.00139239 4.27526e-20)
(1.05415 0.0863335 2.29188e-20)
(1.03871 -0.00161355 -3.22613e-20)
(1.03771 -0.00206395 -9.68144e-21)
(0.457119 -0.00101123 -1.07928e-20)
(1.03815 -0.0014102 3.29106e-21)
(1.17179 -0.0914485 -8.70799e-21)
(1.0423 -0.0111938 2.62058e-20)
(1.02778 -0.0251344 -4.34936e-20)
(1.03958 -0.000946348 1.37061e-20)
(1.09226 0.0843748 6.1464e-20)
(0.791042 -0.000729643 5.01869e-21)
(1.03571 -0.00244894 6.31488e-23)
(1.07642 -0.103083 -1.54391e-20)
(1.03949 -0.000404865 -8.46694e-21)
(1.12961 0.0183079 -5.78079e-21)
(0.791639 -0.0105484 -9.16552e-21)
(0.632578 -0.00296184 -2.70953e-21)
(1.2003 0.0815261 -4.50163e-21)
(1.03925 0.0330933 -1.95587e-20)
(1.03585 0.0112957 1.34696e-20)
(1.03344 0.0103466 -6.33109e-21)
(0.863632 0.000562603 -2.90985e-21)
(1.13384 0.0546189 1.54233e-20)
(1.1003 0.0338665 2.78221e-20)
(1.0393 -0.0021853 -1.28282e-20)
(0.972064 -0.00247162 -4.866e-20)
(1.03911 -0.000399153 -1.60532e-20)
(1.04813 -0.0117899 -6.05409e-20)
(1.04701 -0.0188586 1.12686e-20)
(1.04227 -0.00103801 -3.61224e-22)
(1.03887 -0.00145626 4.04467e-20)
(1.13529 0.102092 -6.52251e-20)
(1.03469 -0.00266201 1.14606e-20)
(1.03839 -6.47305e-05 -9.46103e-21)
(1.04098 -0.00109643 -2.01911e-22)
(0.550443 -0.00208626 -2.65962e-20)
(1.05086 -0.00446419 3.40784e-20)
(1.02703 -0.020462 6.45908e-20)
(0.621984 0.00175647 1.32871e-20)
(1.05537 -0.04856 -2.29887e-20)
(1.09124 -0.12641 2.42359e-20)
(1.06196 -0.0174547 2.03891e-20)
(1.05815 0.0845664 -1.31837e-19)
(1.21432 0.0490728 3.17612e-20)
(1.00915 -0.00286084 3.18771e-21)
(0.926473 0.0559124 7.83268e-20)
(1.02019 -0.0445287 -5.81018e-20)
(1.03567 -0.0060212 -1.06471e-20)
(0.561855 0.00385932 -2.29625e-20)
(1.03798 -0.0116884 4.89309e-21)
(0.459968 0.00515697 -4.28092e-20)
(0.997813 -0.00226402 1.50239e-20)
(1.0565 -0.00318468 -3.79032e-20)
(1.16114 -0.0244815 1.13419e-20)
(1.0359 -0.00241246 9.02525e-22)
(1.0539 -0.00397455 -2.71971e-21)
(0.986245 0.00505073 5.74578e-21)
(1.06509 0.106165 2.07055e-20)
(1.15483 0.0933977 6.0242e-20)
(1.01815 -0.00194506 -9.0303e-21)
(0.519814 0.000310152 5.07486e-20)
(0.96217 0.00332857 2.00038e-20)
(1.02192 0.112322 6.68492e-20)
(1.07263 0.106207 5.09473e-20)
(1.13673 0.0474398 -2.86784e-20)
(1.13617 0.123085 -5.14707e-20)
(1.02009 -0.0476968 2.48145e-20)
(1.02526 0.0725432 -1.02919e-19)
(1.03735 -0.00158039 -1.01321e-20)
(1.07913 -0.00977388 6.59704e-20)
(0.347311 0.00958349 1.26457e-21)
(1.11235 0.0817819 -1.55317e-20)
(0.988893 0.0701936 -6.85262e-20)
(1.16076 0.0679551 6.01419e-20)
(1.07127 0.0481054 6.06442e-21)
(1.039 -0.00753715 1.71315e-20)
(1.02379 -0.0021235 1.73143e-20)
(1.14058 0.111726 2.2873e-20)
(1.21663 0.00871728 -9.97486e-21)
(1.046 0.13378 -2.51467e-21)
(1.12297 0.0162787 7.11476e-20)
(1.05437 0.0720109 4.12111e-20)
(0.977683 -0.0044763 9.82054e-21)
(1.0654 0.11511 2.65014e-20)
(1.07383 0.103622 1.92244e-20)
(0.993041 0.000251327 4.58342e-20)
(1.01467 -0.0033329 2.03939e-20)
(1.15057 0.105057 1.64235e-21)
(0.576875 0.00436321 4.57299e-20)
(1.03732 -0.0015314 1.33983e-20)
(1.00022 -0.00223939 -5.38055e-20)
(0.76738 -0.0133013 -3.4625e-20)
(1.03211 -0.0632155 6.26229e-21)
(1.04422 -0.00149053 -5.32372e-20)
(1.04337 -0.00254252 4.77041e-21)
(1.03849 -0.00187417 1.72052e-20)
(1.07376 0.10837 -7.5588e-20)
(1.03975 -0.00721976 -4.39207e-21)
(1.03592 -0.00220875 -5.24996e-21)
(1.06231 -0.0436455 -4.09437e-20)
(1.03833 -0.00255753 -1.01324e-20)
(0.997848 -0.00495719 -1.73037e-21)
(1.0422 -0.00713579 -1.17103e-20)
(1.08386 0.0855909 7.89815e-20)
(1.06624 -0.0906413 -2.32204e-20)
(1.06407 0.090826 4.20026e-20)
(1.03691 -0.000826857 -1.06297e-20)
(1.08804 0.087543 -8.36463e-20)
(1.0545 -0.0368224 -3.20361e-20)
(1.03769 -0.00175045 3.5187e-21)
(1.03628 -3.14391e-05 -5.35421e-21)
(1.00364 0.0162894 -9.23969e-21)
(1.07864 0.0786488 3.00495e-20)
(1.03602 -0.00255689 -9.71223e-21)
(1.07185 0.0670454 -4.28007e-20)
(1.03612 -0.000191491 3.96755e-21)
(1.07321 0.0721223 -5.76739e-20)
(1.19504 -0.0904551 -2.3809e-20)
(0.954985 0.000156658 -4.96946e-20)
(1.00594 0.0464153 -1.34708e-19)
(1.02099 -0.0361591 -4.38865e-20)
(1.14034 0.118971 5.2748e-20)
(0.583572 -0.0024678 -1.34121e-20)
(1.07781 0.0737517 7.39912e-20)
(1.08318 0.0803779 -2.17021e-20)
(1.01318 -0.00303196 -7.3431e-20)
(0.992605 -0.00235073 4.3772e-20)
(1.03655 -0.00591225 -4.08933e-20)
(0.930972 0.00119968 1.10138e-20)
(1.03781 -0.00187684 -2.18538e-20)
(1.03962 -0.0070633 7.23569e-21)
(1.07816 0.0999359 -9.81739e-21)
(1.0356 -0.00250627 -2.52699e-21)
(1.06687 0.0658301 5.62558e-20)
(1.08084 -0.0884513 -3.98663e-20)
(1.04237 0.106262 2.60791e-20)
(1.0655 0.0609925 -6.58454e-20)
(0.718079 -0.0102021 4.7162e-21)
(1.07505 0.0977034 -9.08376e-20)
(1.03893 -0.000516772 2.11326e-23)
(1.05218 -0.0155115 2.3755e-20)
(1.09447 -0.0558521 -1.4529e-20)
(0.464935 0.00111401 2.57978e-21)
(1.03247 -0.00287665 -3.03857e-20)
(1.0522 -0.0383354 2.54699e-20)
(1.08354 -0.000555209 -5.81906e-21)
(0.846149 0.0430399 9.94566e-20)
(1.03571 -0.000688137 1.47646e-20)
(1.0382 -0.000155439 -1.69207e-20)
(1.0619 -0.0592624 1.25182e-22)
(1.03676 -0.00094818 8.61781e-22)
(1.06589 0.106795 1.0009e-20)
(1.0396 -0.000223948 0)
(1.03599 0.000382139 7.53732e-22)
(1.03706 -0.000219762 2.33553e-20)
(1.03952 -7.41893e-05 2.82389e-22)
(1.02891 -0.0125601 -5.4477e-20)
(1.05472 -0.00733559 -1.92085e-20)
(1.03899 -0.000657936 -3.3261e-20)
(0.869146 -0.000824862 -1.2008e-20)
(1.026 -0.0030533 -1.58956e-20)
(1.04185 -0.00732761 -1.28882e-20)
(1.0386 -0.101571 3.02162e-20)
(0.353758 -0.000216303 -3.79807e-21)
(1.05019 -0.00396451 5.26409e-20)
(0.665263 -0.00993917 -7.74624e-21)
(1.15484 -0.1208 -3.02258e-20)
(0.920023 -0.00256881 2.26127e-20)
(1.14129 0.0970036 -4.55553e-21)
(1.00161 0.0186517 -2.13712e-20)
(1.03906 -0.00199051 1.24303e-20)
(1.13259 0.0873052 -6.77653e-20)
(1.03684 -0.00043284 -4.52228e-22)
(0.968038 -0.0024945 -4.53716e-22)
(1.04386 0.00328832 -3.75784e-20)
(1.03534 -0.00298902 1.2273e-20)
(1.08651 0.0946942 -4.95447e-21)
(1.02543 -0.00298682 4.17403e-20)
(1.07969 -0.00707089 -5.11603e-20)
(1.04371 0.00499213 -3.79881e-20)
(1.08287 0.0560105 -1.44954e-20)
(1.04424 -0.0089351 -3.35638e-20)
(1.01523 -0.00167171 -1.2131e-21)
(1.10158 0.0832678 4.16262e-20)
(1.02558 -0.07073 3.13365e-20)
(1.06529 0.107498 8.11052e-20)
(1.03174 -0.0021003 5.63257e-20)
(1.08911 0.109784 2.2904e-22)
(1.02669 -0.00113052 -1.50145e-20)
(1.03594 -0.000126539 2.91685e-21)
(1.07057 0.0445859 1.78798e-20)
(1.05166 -0.0186822 -1.77012e-20)
(1.05838 0.0152053 5.43099e-20)
(1.03856 -0.000667891 9.44222e-21)
(1.03641 0.000837327 3.48822e-22)
(1.05329 -0.117922 -1.11023e-20)
(1.11998 0.119927 -5.99799e-20)
(1.03924 -0.00193214 -1.11382e-20)
(1.13968 0.0896119 7.50384e-21)
(1.02599 -0.00313054 2.97662e-20)
(1.14656 -0.129864 1.00203e-20)
(1.08058 -0.0225336 7.77701e-21)
(1.02674 -0.0220538 -3.49576e-20)
(1.03891 -0.000209484 1.3286e-20)
(0.579275 -0.0036733 1.1885e-20)
(1.01927 -0.0584862 2.15837e-20)
(0.879561 -0.0038086 -4.92907e-20)
(1.01586 -0.00103781 -3.78987e-20)
(1.03817 -0.00160249 -1.58601e-20)
(1.06533 0.107024 -8.82138e-21)
(1.13074 0.0804508 4.29866e-20)
(1.05397 -0.00256203 -1.22801e-20)
(1.03772 -0.00226346 -1.48952e-20)
(1.07204 0.101564 -3.6269e-20)
(1.03572 -0.000966707 4.30022e-21)
(1.03755 -0.00221041 -3.09409e-20)
(1.12387 0.0787527 3.67376e-20)
(1.04756 -0.0155654 3.29087e-20)
(1.12828 0.112463 5.49471e-20)
(1.04922 0.000722035 2.13805e-20)
(1.04975 -0.00599801 -6.55057e-21)
(1.13021 -0.0369807 -2.17454e-20)
(1.10715 -0.110407 -2.94218e-20)
(1.20187 0.0746595 -2.16082e-20)
(1.03959 -0.000451739 -2.54058e-20)
(0.846656 -0.0112207 3.20161e-21)
(1.03635 -0.00176579 3.07315e-21)
(1.04211 -0.00687281 8.42038e-21)
(1.08874 0.0918186 2.8467e-20)
(1.01434 -0.00262772 -5.47733e-20)
(1.03465 -0.000611453 -1.69796e-20)
(1.05353 -0.0278489 3.50669e-20)
(1.03761 0.000232747 -9.44085e-22)
(1.03893 -0.00144965 -2.26708e-20)
(0.278503 0.00724411 1.79038e-20)
(1.03116 -0.00250552 2.93366e-20)
(1.03866 -0.00223171 4.25762e-20)
(0.419307 -0.00229507 1.48878e-21)
(1.02787 0.0120953 5.68736e-20)
(1.01787 -0.0180514 6.64041e-21)
(1.0383 -0.00176538 -1.99057e-20)
(0.986691 0.00269946 -2.27373e-20)
(1.03606 0.0359769 2.07324e-20)
(1.09006 0.0287176 5.1884e-21)
(0.988644 -0.0159697 3.42225e-20)
(1.03532 -0.00097081 4.84644e-21)
(1.00142 0.0145941 1.27559e-19)
(1.02992 -0.0105603 3.94082e-20)
(1.09167 0.0793755 -6.38534e-20)
(1.04564 -0.000729242 -5.74742e-20)
(1.04641 -0.000416882 1.16357e-19)
(0.925094 -0.00465826 -6.37772e-20)
(1.03697 -0.00182759 3.69829e-21)
(1.04329 0.00176031 -4.65086e-21)
(1.09516 0.0266577 -9.58799e-21)
(1.18416 0.0763114 4.53912e-20)
(1.08647 -0.0822327 -1.27091e-20)
(1.07569 0.0975368 3.09875e-20)
(1.04335 -0.00130535 -1.39379e-21)
(1.10669 0.0860703 -5.7111e-20)
(1.0392 -0.00910005 2.18773e-20)
(1.05833 -0.0420416 6.25953e-20)
(1.02976 -0.00215134 1.65717e-20)
(1.04203 -0.0120194 -5.31569e-20)
(1.03818 -0.00152554 -1.40338e-20)
(1.06714 0.0514938 -4.86749e-20)
(1.09978 0.116211 -9.405e-20)
(1.03915 -0.000705473 -1.02189e-20)
(1.05079 -0.00545449 4.22111e-21)
(0.865872 -0.000585788 -1.81335e-20)
(1.08806 -0.0685268 -7.48179e-21)
(1.08352 -0.0748706 1.99726e-20)
(1.0343 3.32673e-05 -1.79918e-20)
(1.07621 -0.0109394 -2.63041e-20)
(0.116221 -0.00393402 -2.99042e-20)
(1.18363 0.0603217 4.05871e-20)
(1.03747 -0.00152582 -2.55845e-20)
(1.08573 0.0254879 -2.06395e-20)
(1.03776 -0.00559263 3.12831e-20)
(0.58607 0.0371003 1.33289e-19)
(1.01666 -0.00278807 -4.03031e-20)
(1.03696 -0.0179516 1.42432e-20)
(1.055 -0.0235775 -1.47817e-21)
(1.03607 -0.0186089 5.4772e-22)
(1.03868 -0.0137026 5.50481e-20)
(1.02616 -0.00277496 -9.86838e-21)
(1.03864 -0.0091337 -4.73789e-20)
(1.04032 -0.00385368 -1.12612e-20)
(1.08566 -0.00379192 1.17254e-20)
(1.03615 -0.00100649 -2.25764e-20)
(1.22227 -0.0478888 1.41433e-20)
(1.17651 0.0235989 1.71433e-20)
(1.06947 0.108063 5.90774e-20)
(0.991976 -0.0147579 -5.3796e-20)
(1.12251 0.10838 -2.75374e-20)
(1.03932 -0.000313837 2.83174e-20)
(1.10935 -0.0519877 -1.02899e-21)
(1.04478 -0.0271971 3.18807e-20)
(1.03344 0.0599133 4.95417e-20)
(1.03524 -0.00284688 -2.78269e-20)
(1.03758 -0.00105349 1.68268e-20)
(1.03044 -0.0111879 -5.46251e-20)
(1.03698 -0.00589275 1.59931e-20)
(1.0729 -0.00941157 4.3498e-20)
(0.804253 -0.000894434 4.3223e-20)
(0.969198 -0.00191627 -1.45602e-20)
(1.15366 -0.00520813 1.356e-20)
(0.765237 0.00324421 3.45909e-20)
(1.05311 -0.0253266 -2.94209e-20)
(1.03394 -0.0676515 -2.597e-20)
(1.0358 -0.00126299 7.54536e-22)
(1.08557 0.00373331 5.03864e-20)
(1.03522 -0.0593424 7.90008e-20)
(1.12819 0.0986638 3.04434e-20)
(1.13189 -0.0436945 3.54986e-20)
(1.05678 0.0141086 5.57646e-21)
(1.07282 -0.0859431 5.35773e-20)
(1.0779 0.111425 1.75632e-20)
(1.06929 -0.0204722 3.95456e-20)
(0.883171 -0.00382191 3.78993e-20)
(1.05418 -0.0336684 4.5413e-20)
(0.268127 0.0277245 3.19982e-20)
(1.19326 -0.05894 -1.39952e-20)
(1.00048 -0.00286947 1.25061e-20)
(1.07805 -0.112748 3.13112e-21)
(1.06748 -0.0501818 -3.79804e-20)
(1.09244 -0.0993634 1.91477e-21)
(1.08457 -0.0621904 3.04382e-20)
(1.10095 0.0780025 5.46195e-20)
(1.03636 -0.000980455 -8.41911e-22)
(1.01556 0.0705285 1.7389e-20)
(1.04347 -0.000879064 1.26455e-20)
(1.03836 -0.00165815 2.4693e-20)
(1.03867 -0.00147854 -7.21365e-20)
(1.08235 0.0182636 -1.04966e-20)
(0.068351 0.00464929 6.99944e-22)
(1.04021 -0.00400022 1.62013e-20)
(1.05789 -0.0383334 -8.18751e-21)
(1.03642 0.0406291 -3.38177e-20)
(1.03597 -0.000806188 -7.67375e-22)
(0.994987 -0.00231958 -3.72675e-20)
(1.05195 -0.00304038 3.39409e-20)
(1.10627 -0.0183938 4.98438e-20)
(1.04342 -0.00062382 6.61845e-20)
(1.03863 -0.0016409 -1.00282e-20)
(1.02785 -0.0291857 1.45497e-22)
(1.03824 -0.00540012 1.61906e-20)
(1.03567 0.000656696 8.9348e-21)
(1.02288 -0.0353558 7.50526e-20)
(1.07998 0.0922833 -1.23486e-20)
(1.05564 -0.0194999 -5.83306e-21)
(0.929156 0.000635837 3.36089e-20)
(1.03994 2.84326e-05 -1.07023e-20)
(1.0409 0.0428814 4.49567e-20)
(1.03876 -0.00188263 9.63711e-21)
(1.03889 -0.00126888 2.16107e-21)
(1.03565 -0.00170545 1.66332e-20)
(1.03879 -0.0015783 2.90891e-20)
(1.17371 0.0757658 3.14576e-20)
(1.06345 -0.021747 9.48271e-20)
(1.04498 -0.0114858 2.3181e-20)
(0.998846 -0.00280777 1.49849e-20)
(1.03681 -0.000687478 8.868e-21)
(1.12541 -0.100452 -4.1435e-20)
(1.2154 0.0229748 8.53791e-22)
(1.13309 -0.108854 1.87912e-20)
(1.03826 -0.0237243 2.1787e-20)
(1.04689 -0.00476117 5.24932e-20)
(1.03492 -0.00269948 -1.10555e-20)
(1.03252 -0.00655023 2.45485e-20)
(1.00479 -0.0352536 3.39255e-20)
(1.17453 0.0607468 1.65255e-22)
(1.03849 0.108156 -1.2725e-21)
(1.03841 -0.00230951 -1.68142e-20)
(0.950374 -0.0228757 -1.72641e-20)
(1.03627 -0.00271364 3.81905e-20)
(1.0669 -0.0184631 -1.55326e-20)
(1.11099 0.0757057 6.37384e-21)
(1.03922 -0.000602821 -2.93023e-20)
(1.03804 -0.00215963 6.79741e-21)
(1.148 0.109987 7.21611e-21)
(1.17268 0.0442434 -9.44539e-21)
(1.05128 -0.00814837 1.75898e-20)
(1.03628 -0.00131985 -2.81803e-20)
(0.900901 -0.00632846 3.84942e-21)
(1.01221 -0.0365798 -8.5457e-21)
(1.03791 -0.00184532 2.02775e-20)
(1.05422 -0.0212918 5.45608e-20)
(0.503841 -0.00184818 -7.75679e-20)
(1.00114 0.0189866 -1.73065e-20)
(1.08329 0.0950918 -6.00141e-21)
(1.10342 -0.0473649 -2.1752e-20)
(1.03916 -0.0596407 -2.78942e-20)
(1.04183 -0.0015052 4.1101e-20)
(1.05031 -0.0150683 -4.84944e-20)
(1.1677 0.028567 4.71002e-20)
(1.03913 -0.0678842 1.57946e-20)
(1.05657 -0.0317925 -2.76986e-20)
(1.03518 -0.000804522 -9.59777e-22)
(1.1581 0.0135229 4.05707e-20)
(0.456354 -0.00549838 -4.18033e-21)
(1.0386 -0.0772196 -2.86948e-20)
(1.05479 -0.0175821 -7.5436e-20)
(0.852967 -0.00896144 6.46916e-21)
(1.03791 -0.00171163 8.06175e-21)
(1.03116 -0.00089581 1.33332e-20)
(1.06067 0.0597792 5.03457e-20)
(0.927199 -0.0043417 1.5052e-20)
(1.03712 0.00434686 -1.53266e-21)
(0.836432 -0.00435786 3.04818e-20)
(1.18796 -0.0460413 5.14161e-20)
(1.00954 0.000139316 -3.33162e-20)
(1.0604 -0.0361711 1.11535e-20)
(1.03731 -0.00154208 1.2629e-21)
(1.04329 -0.00837477 3.46985e-21)
(1.03837 -0.0962513 -1.4004e-20)
(1.0967 -0.0492027 1.63729e-20)
(1.03725 -0.00141642 1.03799e-20)
(1.03583 0.000332582 -5.35194e-21)
(1.03519 0.00298696 1.62191e-21)
(1.05208 -0.0568435 -5.98627e-21)
(1.00364 0.029128 -1.62038e-21)
(1.09023 0.10583 7.07243e-22)
(1.14759 0.00179573 -1.75844e-20)
(1.03885 -0.00164737 -2.19747e-21)
(1.04894 -0.027852 -2.42301e-20)