/*--------------------------------*- C++ -*----------------------------------*\
  =========                 |
  \\      /  F ield         | OpenFOAM: The Open Source CFD Toolbox
   \\    /   O peration     | Website:  https://openfoam.org
    \\  /    A nd           | Version:  7
     \\/     M anipulation  |
\*---------------------------------------------------------------------------*/
FoamFile
{
    version     2.0;
    format      ascii;
    class       volScalarField;
    location    "9";
    object      p;
}
// * * * * * * * * * * * * * * * * * * * * * * * * * * * * * * * * * * * * * //

dimensions      [0 2 -2 0 0 0 0];

internalField   nonuniform List<scalar> 
7807
(
0.45899
0.00908139
0.588125
0.393573
-0.00200938
-8.40058e-05
0.575097
-0.0114718
-0.000309571
0.167643
-8.1866e-05
0.0041661
-0.0173763
0.0835048
0.17393
-0.0287865
0.472548
-0.0232662
-0.000692072
-0.150181
0.115543
0.00257264
0.0603921
0.307224
-0.0307088
0.467933
-0.00186559
0.102977
0.260172
0.00239223
-0.0385425
0.769846
0.0595899
-0.00103465
-0.000202402
0.137488
0.0028726
0.559047
-0.0125975
-0.000604873
-0.0118287
-0.027659
-0.145495
-0.0172354
-0.000357531
-0.000169244
0.00255998
-0.012447
-0.000153412
-0.147441
0.00655082
0.0974858
-0.0392314
-0.0131532
0.136543
-0.0106534
-0.000227037
-0.0113453
-0.0581946
-0.00105152
1.76877e-06
0.00866647
0.0836913
0.00467005
-0.00179418
-0.0381025
-0.000276759
-1.86822e-06
0.213518
-0.0115795
-0.000158843
-0.112617
-0.029879
-0.0518137
-0.0226264
-0.0848568
0.582015
0.112638
0.121634
-0.119738
-0.0168315
0.50302
0.167055
-0.0563363
-0.00376317
-0.00440431
-0.012619
-0.0382974
-0.00170803
-0.00885188
0.266552
-0.0100722
-0.000271624
7.71981e-05
-0.00734472
-0.0502713
-0.108183
-0.00784054
-0.00401836
-0.00217311
-0.0957667
0.134529
-0.00707317
-4.60736e-05
0.00943718
0.279736
0.664644
-0.0111664
-2.87515e-06
0.0552759
0.374405
-0.0893278
-5.54118e-06
0.0591216
0.278689
0.00053162
-0.0940997
0.226759
-0.0807298
-0.0537001
-0.0963778
0.481958
-0.137568
0.0201109
-0.09403
-0.00238665
-0.0330968
0.00158318
-0.00187695
-0.0377048
-0.0693792
0.119392
-0.00131865
-0.00193727
-0.0577875
0.361928
0.567653
-4.07891e-05
0.0158378
-0.124795
-0.0480705
-0.098779
-0.0864431
-0.0495711
0.666834
-0.0423035
0.263218
-0.0580628
-0.0677771
0.481157
0.130737
-0.00335621
-0.00362897
0.186302
0.165933
0.529832
-0.0977414
-0.0169548
0.672099
-0.000139834
-0.00144589
0.317016
-5.95875e-05
-0.00612637
-0.00825673
0.38463
0.385458
0.695803
-0.00665709
-0.0060776
-2.82109e-06
-0.0934397
0.000521713
0.0199358
0.0172791
-0.0666493
0.0378066
0.282312
-0.000278116
-0.00116317
0.403093
-0.000133783
-0.000212774
0.582146
0.00155139
-0.0784844
-0.0761664
-0.0496254
-0.0485257
-0.123043
-6.10786e-05
-0.103305
0.29519
-0.00728767
2.92214e-05
0.339752
-0.00249164
-0.0353686
-0.0472357
-1.29933e-06
0.00120919
0.367648
0.334682
0.524565
-0.0838828
-0.0793713
-0.148008
0.112316
0.359724
-0.000376497
-7.42727e-07
0.628077
-0.0248132
-0.00134252
-0.0991482
-0.0347429
0.490432
0.495963
-0.106035
0.746006
-0.00233357
-0.0226743
-0.0974365
0.138068
-0.179618
0.418251
0.666098
-1.37923e-05
0.0214689
0.240211
-0.0112548
0.22272
-0.00157135
0.744739
0.517027
-0.0123552
0.00345807
-0.000569423
0.303636
-0.000191233
-0.018016
-0.124492
-0.000163956
-0.00385266
-0.0013426
0.273333
-6.5811e-05
-0.00918529
-0.116376
0.761651
0.105903
0.704028
-9.9964e-05
-0.0519146
-0.000505463
0.549295
0.00834267
0.570324
-5.98824e-05
0.000886551
0.00711601
0.117247
0.000847425
-0.000434508
0.000712751
-0.0118597
-0.0767763
-9.58561e-05
-0.0940997
-0.00794265
-0.000290388
-0.00145226
0.55669
-0.0163508
-0.00142684
0.699841
-0.00407963
0.421694
-0.000530902
-0.00522936
-2.23065e-06
-0.0704658
0.1323
0.0548737
-0.0592321
-0.0010388
-0.13168
-0.0335494
-0.00034045
0.000681358
-0.00599483
-0.016128
0.00579211
-0.0032241
-0.0536199
-0.0675154
-0.0521134
0.00166782
-0.0661948
0.530721
0.547045
-0.00327669
0.0227329
-1.96655e-05
-0.00669163
-0.051248
0.299399
0.186394
5.58646e-05
-0.00614878
-0.0647548
0.276932
-0.00248307
0.00730275
0.00207358
0.13746
-0.0925105
0.530664
-0.00323785
0.00967104
-0.000259347
0.00710311
-0.000121279
-0.0479799
-0.000654556
0.00453846
-0.00656489
-0.0757335
-0.00183617
0.0188511
-0.00139285
0.0474551
-0.0239471
0.151732
0.274625
-0.179355
-0.0328751
-0.0344564
0.0105918
-0.120503
0.708795
-0.0270546
0.0744425
0.734472
-0.00309882
-0.00389251
-0.0213589
-0.00301363
-0.035898
0.0138445
-0.00575613
-0.00422962
0.254872
-0.000228499
0.000801995
3.51549e-05
-0.00715379
-0.0195895
-2.26706e-05
-0.00220211
-0.0555359
0.635405
-0.000386406
-0.0240994
0.62842
0.431833
0.127875
0.0396851
-0.0954877
0.00992005
0.374487
-0.0244218
0.4627
-0.0555985
-0.149394
0.334443
0.469552
-0.0875721
0.17611
0.419839
0.434912
0.110365
-0.00694747
-0.00991033
-0.000193399
0.000609476
-0.0248422
0.00136503
-0.000223878
-0.00347638
-0.132079
0.18575
-0.0394333
-0.0103707
-0.00808046
0.00313697
-0.0154932
0.00161403
0.381541
-0.00383884
-9.24974e-05
-0.000223694
-3.03495e-05
-0.0483618
0.2475
-0.00851498
0.0676611
-0.187845
0.546718
0.00510215
0.0140619
-0.0120282
0.541229
-0.00204626
0.52948
0.268215
-0.000242765
-0.0600208
-0.00699576
-0.0955961
0.000839256
0.139222
0.00284199
0.0129972
-0.00167234
0.254942
0.279369
-0.0881998
-0.0569232
-0.00635986
-0.0498302
0.176074
0.759191
-0.0687091
0.00805264
-5.13582e-06
-0.0306833
-0.00464028
0.042532
-0.157425
0.000768125
0.57321
0.259738
-0.127554
0.356202
0.52863
0.0661949
0.00187667
0.399284
-0.00265632
-0.000432825
-0.0367817
4.7386e-05
-0.16328
-0.00664475
-0.0655237
0.00351389
0.342632
-0.00367404
-8.82248e-05
-0.161269
0.00313408
0.0884535
-0.0919476
-0.120502
0.0975991
0.241679
0.199083
0.204226
-0.00040206
0.175549
0.164478
-0.00129786
-0.0383542
0.000914429
0.00809287
-0.0146746
0.0099254
-0.00209873
0.289089
-6.64856e-05
0.000193238
0.00368455
-0.0468748
0.0481722
-0.0602995
-0.0569788
-0.073135
-0.189324
0.0121825
0.390245
0.0140554
-0.0151981
0.747142
-0.107263
-0.0206655
-0.0558006
-0.0205908
-0.0431284
-0.0233233
0.0672797
-0.035983
-9.62546e-05
0.0583064
-0.000209198
0.522153
0.228878
-0.0109268
-0.0292205
-0.00037923
0.502953
0.495978
0.149718
0.324484
-0.113286
0.578213
-0.000212664
0.0447378
-0.0379877
0.288246
0.682251
0.155879
0.246214
-0.00849936
-0.000423789
0.294659
-0.044979
0.524337
0.0893114
0.342798
-0.0157668
0.551838
0.475058
-0.0205324
-0.0173736
0.256772
-0.123468
-0.000257221
-0.0297118
-0.122822
-0.121115
0.0249216
0.0196312
-0.000338997
0.50343
-0.00626778
-0.000237967
-0.0586828
-0.00111486
-0.000450875
0.00421914
0.363155
-0.145005
0.646047
2.47853e-05
0.362931
-0.0497055
-0.000259847
-3.1329e-06
0.257178
0.345317
-0.00940935
0.310901
-5.98161e-06
0.327835
-0.177181
-0.0212211
0.546542
-0.0945502
0.30763
-0.0534178
0.327869
0.344844
-0.037999
-0.0484151
-0.0169861
-0.00589078
-0.000475091
-0.00636572
0.440445
-9.07759e-05
0.312161
-0.136665
0.470024
0.297045
-0.124827
0.642789
-0.00360731
0.0049652
-0.0732611
-0.0425526
-0.0149251
-0.055897
0.0730058
0.713153
7.56963e-06
-0.00423227
-0.089531
-4.00678e-06
0.533475
0.00323425
-6.49185e-06
0.000185024
0.000479553
-0.0456862
0.0413421
-0.0033254
-0.000184141
-0.0156123
0.00179484
-0.174327
-0.108455
0.0490388
-5.16306e-05
-0.197377
-0.0280528
0.259806
0.455175
0.00126936
0.259059
0.000119663
-0.0272072
0.151862
-0.0152118
0.3933
-0.0292387
0.0522278
0.157729
0.257829
0.00557073
-0.022517
0.318225
-0.140379
0.561397
-0.0207094
0.443767
-0.0202854
-0.00237734
0.234166
-0.00542592
0.152487
0.00339336
-4.93964e-06
-0.189018
0.370715
0.00188194
0.24769
-0.0275978
-0.205245
0.00686606
-0.0629921
-0.00360839
-0.017218
-0.127061
-0.0604606
-0.0211151
-0.000498757
0.588426
0.246377
0.0671711
-0.000435399
0.46823
-3.05297e-05
-0.000399415
0.256273
-0.00437455
0.331553
0.101632
0.0364624
-0.0416001
-0.173101
0.0879303
0.00214776
-0.0903837
-9.45724e-05
0.00499571
0.379156
-0.0360305
-0.00609433
-0.028424
-0.00421038
-0.00124135
0.697266
-0.0220149
-0.0013354
-1.35258e-05
0.218056
-0.072047
-0.000846348
-0.00567361
0.252737
0.159899
-0.0855042
-2.21822e-05
0.273391
-0.0406624
0.325588
0.0361121
0.0451326
-0.0650847
-0.000219956
0.153871
0.148197
0.129423
-0.123885
0.4356
0.0122698
0.315115
-0.0110404
-0.0578235
-0.00077512
-0.00980306
-0.000417246
0.263735
0.427559
-0.0033188
0.0413914
-0.036346
-0.0985953
-0.112178
-0.00388152
0.0402851
0.679574
0.0979368
-0.000209977
0.155748
-0.0114587
0.592488
-0.0269912
-0.034702
-0.0146864
-0.038805
-0.0224195
-0.0167205
-0.0128018
0.00108964
0.0617584
6.33127e-05
-0.138162
0.0403596
0.524257
-0.0817714
0.336227
0.00362579
-0.0643613
-0.0392338
0.317581
-0.0162379
2.30346e-05
-0.0401974
-0.0150978
0.0449212
-0.0563011
-0.0498646
0.0110365
-0.0299601
-0.0224199
-0.127695
-7.50347e-06
0.0873945
-0.112736
0.297346
-0.0574187
0.151067
-0.13354
0.49663
0.00757903
-0.0665824
-0.0425077
0.617012
-0.122831
-0.0279594
-0.174966
-0.0684849
-0.152989
-0.0877341
0.302102
-0.00618282
0.365383
0.0180494
-0.000953453
-0.00325615
0.135936
0.751938
-3.23318e-05
-0.0500745
0.264671
-2.10647e-06
-0.0460885
0.0611669
0.0131073
0.0183301
-0.00396813
-0.072807
-0.00967085
4.49786e-07
-0.0903322
0.400566
-0.00190879
-0.0353263
0.00330939
0.265198
-0.000991601
-0.00261385
-0.000726173
-0.00239132
0.148421
-0.000978813
0.000847062
-0.0392815
-5.77514e-06
-0.155731
-0.0212468
-0.17406
-0.0436394
0.0307862
-0.000433616
-0.0309905
-0.11578
0.116716
0.471027
-0.00382413
-0.118037
-0.0108569
0.0123317
0.274141
0.00055008
-0.000402329
0.272655
0.0877985
0.0304157
-0.00666162
-0.00412881
-0.107845
-0.000511863
-0.00919126
-0.0263325
0.409509
0.404967
-0.0548782
-0.108998
0.0147684
0.00259654
0.0614851
-0.123354
-0.0348624
-1.23943e-05
0.0438441
-0.0503145
-0.136686
0.00288747
-0.0870958
-0.000859378
-0.00644394
0.298148
-0.0620904
-1.13555e-05
-0.00561224
-0.100382
-0.000330375
-0.0419718
-0.000186576
0.00446296
-0.168219
-0.0581957
-0.000143616
1.03663e-06
0.190471
-0.0910683
0.503514
0.426642
0.0296727
-0.00198852
-0.0351156
0.000212213
-0.086796
-0.138018
0.0656052
-0.0352122
0.42601
0.0127562
0.000190474
0.00645977
-0.152797
0.00343401
-0.0496442
-0.112253
-0.00335928
0.033845
0.109734
0.0117414
-0.052248
-0.084385
0.275026
-0.057803
-2.2839e-06
-0.15355
-0.113491
-0.0664643
0.00381811
0.00109699
0.0104657
-0.166455
0.052638
-0.0550416
0.243252
-0.0748053
0.00793644
0.0289608
0.0220762
-0.0575063
-0.105431
-0.000392695
0.215681
0.299002
0.0113987
0.374133
-0.121752
0.0744396
-0.0909686
0.289095
0.155618
0.714397
-7.06084e-06
0.16659
0.266886
0.0225784
-0.00243221
-0.0274076
0.0244073
-1.45384e-05
-0.0303866
-0.0965833
-0.0303545
-0.0363553
8.60169e-05
-0.0611701
-0.000794677
-0.00125338
0.334491
0.00696481
0.193382
0.0309734
0.29324
0.0138216
-0.00102871
-0.120976
0.00915051
0.487195
0.00149122
-0.100713
-0.000603508
-0.000854723
0.00645284
-0.0833494
-9.97039e-05
-0.0158005
0.0458372
-0.00267322
-5.22991e-06
-0.000169574
0.221209
-0.0281084
0.0082004
-0.0016069
0.011021
0.0239065
0.0104252
-0.000677982
0.519979
-0.0994603
0.313026
0.458304
-0.000319907
0.175644
0.184726
-0.00124755
-0.000545151
-0.00116604
0.0193459
0.0215469
-0.0292003
-0.0441449
-0.126206
0.250765
-0.138101
-2.81147e-06
-0.0328435
-0.0363655
-0.0578129
-0.00635979
0.00687511
0.00144737
0.0438438
-0.000747181
-0.000639627
-0.0308535
-0.00708918
-0.0423905
-2.95598e-05
-0.0249125
0.0537902
-0.015889
-0.0394139
-0.013925
-0.0190495
-0.0142607
-0.00820573
0.00852405
-0.0143
-0.000202213
-0.00085137
0.0351181
-0.0192402
-0.00805485
0.010882
-0.000583738
-0.204487
-0.018505
0.226667
-0.0192617
-0.0998992
-0.0494735
-0.0388031
-0.0254616
-0.0058408
0.00196606
-0.00565846
-0.0211743
-0.0255996
0.29423
0.23784
0.0853374
0.455414
-0.000130418
-0.00749369
-0.0254312
-0.0134574
0.176427
-0.0333762
0.0865421
-0.00930426
0.327093
-0.00329136
-0.00290771
0.0237065
-0.0408867
-0.000430519
-0.0464603
-0.00917699
-0.0335283
-5.21938e-05
-0.0102395
0.00238955
-0.029777
0.0564817
0.0559368
0.0289863
-0.0230119
-0.0537086
0.17245
-0.00246415
-0.00302808
-0.00314726
0.629127
-0.000323903
0.121724
-0.0334088
-0.0346915
-0.0412144
-0.08204
-0.0460488
-0.0579307
-0.0325581
-0.00772229
-0.000186488
-0.00656397
-0.0336713
0.151781
0.00204846
0.283522
-0.0563067
-0.0223654
-0.00128891
-0.0495549
-0.000186867
0.216134
-0.0520518
-0.0446117
-0.0408883
-0.00914213
-0.0613456
-0.00243081
-0.0698435
0.1541
-0.0427878
-0.140001
-0.00213394
-0.0448983
-0.0314967
0.0229713
-0.00534412
0.2073
-0.00355273
-0.0289824
-0.00125029
0.231072
-0.066713
-0.0427805
-0.00476712
-0.0164501
-0.00457176
0.305658
0.0259124
0.358878
-0.0100046
-0.00157263
-0.00185165
-0.00388568
0.320412
-0.110747
-0.0118198
0.000259695
-0.0191324
-0.0279856
-0.00196365
-0.0340363
-0.0264209
0.0893402
-0.00786786
0.00158144
0.590216
-0.110984
-0.0448142
-0.104076
-4.58523e-06
0.116705
-0.00555054
-0.0425376
-0.00955259
-0.0606118
0.00402137
-0.000907237
-0.00430268
0.00423461
0.282511
-0.00890882
-0.00284168
-0.00762536
-0.103844
-0.0136196
-0.0348562
0.00454282
-0.0138491
-0.013727
-0.0053026
0.291806
-0.0799439
0.00411969
-0.0063243
-0.0447624
-0.0213599
-0.0852093
-0.00258264
0.141064
0.0348198
-0.013244
-0.00298648
-0.023745
0.658031
0.284382
-0.0185688
-0.000837952
-0.00390005
-0.000144327
-0.00670707
0.0314141
-0.000778507
-0.0375116
-0.00297372
-0.0269338
-0.0282028
-0.00214181
-0.0254396
-0.002053
0.434406
-0.0118198
-0.0186575
-0.00553479
-0.00273928
-0.0481247
0.17117
0.587971
-0.0181977
-0.0196983
-0.00307295
-0.000986675
-3.32292e-05
-1.09082e-05
-0.0170697
-0.00109037
0.208262
-0.00136326
-0.00282594
0.0105419
-0.000397102
-0.0766396
-0.114468
0.0260196
0.0618279
0.0405491
0.14124
-0.0774252
0.138639
0.106972
0.145401
0.181449
-0.0205341
-0.00144631
-0.0124939
-0.128085
-0.00528789
-0.0247946
0.110847
0.490621
-0.100759
-0.000736825
-0.000136331
-0.00207949
-2.32727e-05
0.00955049
-0.00107595
-0.0100701
-0.0817732
0.000495481
0.00323625
-0.000359808
0.114239
-0.02478
-0.0575211
-0.00248829
0.434
0.444004
-0.0175269
-0.12539
-0.0461217
-0.0382869
-0.0244469
-0.00306126
-0.145026
-0.0676597
-0.0790593
-0.036202
-0.000197961
0.293041
-0.0344843
-0.0150778
-0.0626806
0.0278055
-0.000862411
-0.0143804
-0.00201201
0.0162093
-0.00328701
0.280146
0.000275506
0.0145879
-0.000587399
-0.0884317
0.0126517
-0.00186576
0.0125839
0.000254157
0.0852365
0.189381
-0.00349413
-0.00225206
-0.000220725
-0.000932248
-0.000794196
-0.105975
0.184821
0.0642994
-0.000387787
0.0105681
-0.000810256
0.317995
-0.106533
0.380152
-0.0747902
-0.000663371
-0.000630534
-0.0126561
-0.00881491
-0.00126442
-3.40431e-05
0.037994
0.0446143
-0.000362142
-0.000766094
-0.0325293
-4.01128e-05
0.242582
-0.00164714
-0.0911704
-0.0321899
-0.00986069
-0.0974574
-0.112554
0.219936
-0.0417813
-0.0325098
-0.000475318
-0.097038
-0.0322702
0.0476466
0.211404
0.483161
-0.00166377
-0.103822
0.0155866
0.448881
0.061556
-0.000202206
-0.010253
-0.00627845
-0.00827845
-0.0719304
0.147002
-4.88941e-06
0.0264836
0.00249746
0.133098
-0.000794955
-0.00031835
-0.089011
0.415713
-0.0932091
0.239519
-0.00295944
-0.00033247
-5.62575e-06
-0.140092
-0.0622753
-0.000681561
0.179296
0.0163294
-0.00878875
0.528782
-0.000956056
-0.00659634
-0.106399
-0.0492777
-0.00337549
0.198322
-0.110249
-0.000249242
0.0146032
-0.000404497
-0.000199025
0.218023
-0.0059352
-0.00064195
-0.0831078
-0.0414609
-0.00510857
-0.0569004
0.00295823
-0.0357374
0.00175471
-0.00575911
-0.113515
-0.065057
0.0279574
-0.0016486
0.237461
0.293458
-0.136844
0.0116563
0.0284846
-0.00721207
0.239814
0.177487
-0.0441392
-0.000281115
0.0125014
-0.0863195
0.0134201
-0.0507911
-0.00355143
0.0741005
-0.0479108
-0.000214436
-0.000172284
-0.0649842
-0.0519083
-0.041426
0.0125127
0.0349885
-0.0792582
-0.000344244
-0.00267282
-0.000434049
-0.0682633
-5.0238e-05
-0.00306904
-0.0877259
-0.16674
0.222637
-0.00493375
0.00552926
-0.0384806
-0.0416579
-0.000236881
-0.0697759
0.224422
0.228135
-2.9106e-06
-0.000182939
0.232038
-0.00418724
-0.157683
-0.0601339
0.00437137
0.00016206
-0.110691
-0.0328111
0.237334
-0.0882899
-0.00222906
-0.0230057
-0.100079
-0.000975373
-0.000356813
-0.00156856
-0.00412387
-0.08442
0.251455
-0.000333087
0.616994
0.0208192
-1.25267e-05
-0.00211202
7.80365e-05
0.000111141
-4.54505e-05
2.24029e-05
-0.0853479
-0.00134698
0.000356182
-0.000303543
0.206242
-0.00906434
-0.000306565
-0.000141891
0.523937
-0.037287
-0.035504
0.000994172
-0.00117336
0.0977937
-0.000208227
-0.0291682
-0.132156
0.00269912
-0.0139872
-0.000171963
-0.000350221
-0.0546857
-0.118386
0.0101989
-0.137105
-0.0916378
-5.33048e-05
0.032463
0.0505966
0.163547
-0.00257883
-0.000260015
-0.0998422
-0.00969734
-0.00106687
-0.0811824
-0.000239383
0.0650108
-0.00030458
-0.00180414
0.0682937
-0.00476734
-0.0989131
0.595356
-0.00301367
0.000185379
-0.104086
-0.108236
0.0119596
0.00630641
-0.000234045
-0.0522876
-0.000179099
0.279276
0.703752
0.154926
0.00389976
0.00458572
-5.20099e-05
-0.0500793
-0.000152055
-0.0181833
-0.00279884
0.000210797
-0.00504945
-0.0197959
-0.000199458
0.000839299
-0.0193883
-0.000479702
-0.0195771
-0.0284407
-0.0197266
-0.00257159
0.64212
-0.00162978
0.00306186
0.000146937
0.0205093
-0.0798884
0.0136996
-0.000303461
-0.000170284
0.00262205
-0.000214692
-0.000115225
-0.0235341
0.000666091
-4.84103e-05
-0.0875191
-0.00513965
-0.0882168
-0.00262115
-0.000118849
-0.00457524
-0.0227748
-0.0286587
-0.0504115
0.00286766
0.000385856
-0.000774812
-0.00275082
-0.000185119
0.391242
0.00181049
-4.4916e-05
0.000329566
-0.00348327
-0.000825289
-0.100927
-0.0888714
-0.000343526
-0.0116776
-1.87028e-05
-0.00626917
-0.000132486
0.0551574
-0.000255497
-0.000436099
-0.00793949
-8.1081e-05
0.0199357
-0.000381637
-0.00191799
0.0284503
-2.26601e-05
0.511989
-0.0934767
-0.0715529
-7.13072e-05
-4.20679e-05
0.00206486
-0.00174049
-0.0961233
-3.83418e-05
-2.01895e-05
0.000664615
-5.89073e-06
0.000290564
0.000379301
-0.000731223
0.000775715
-0.0861822
0.628139
-0.0689086
0.477808
0.0129714
-0.0336009
-4.56835e-05
-0.00121725
-0.0212166
3.35434e-05
0.000194402
7.96802e-05
0.128049
-0.00318519
-0.000531946
0.588647
-0.00069848
0.000378931
0.000440164
-1.06419e-05
0.137718
-0.00373192
0.00122089
1.83821e-05
-0.001487
-0.000114808
-0.00240289
-0.0765835
-0.000618335
-0.0039064
-2.8788e-06
-0.0036092
-0.000359211
0.273707
-0.000678055
-0.000770588
-0.106025
0.0048896
-0.000266883
-0.00208644
-0.000103385
0.252151
-0.127173
-0.000925317
-0.000556195
-0.00483579
-0.00048911
0.0916464
0.184006
0.0731973
0.000247914
-1.416e-05
-2.60594e-06
0.0979768
0.000162609
-0.0911964
-0.0524355
-0.0292575
0.0596145
0.656484
0.00237383
0.31021
-0.0274083
-0.0512772
0.256303
-0.000494999
-0.11279
-3.41347e-05
-0.0154965
-0.074452
5.82931e-06
-0.0979535
-0.00135378
-0.0189012
-0.0120815
-0.064474
-0.0714867
-0.00765289
-0.113074
-0.0669874
-0.000250369
-0.0179446
-0.000179326
-0.0568381
-5.03173e-05
-0.000259396
0.0288897
0.243525
-1.66118e-06
-0.0799113
0.00444218
7.08661e-06
-0.0414445
-1.69302e-05
-0.0199769
-0.000547497
-0.0582837
4.26852e-05
-0.0001698
-0.00415995
-0.000246636
0.238225
-0.0531117
0.148147
-0.000122297
0.000582924
-0.0482821
-3.8026e-06
-0.0996387
-0.111448
-0.0905944
0.625546
-0.0110567
-3.6876e-05
0.0398641
-0.0640454
-0.00591176
-0.000163138
-0.000157935
-0.0795233
2.53343e-05
0.000881061
-4.10924e-06
3.91897e-05
-0.0421198
0.24816
-0.110441
0.162044
-0.00894327
-2.72565e-06
0.00702816
-0.102259
-3.57089e-05
-3.33427e-05
0.000235209
1.14679e-05
0.000329268
0.399488
0.0556227
8.05962e-06
-1.71957e-05
-0.10908
0.295481
0.269005
-6.88012e-05
-0.0621254
-0.0384123
-0.0212695
-0.0784825
-0.0177741
-0.00457151
0.213137
-0.000124589
-0.0455413
0.252692
-0.0855396
-9.88849e-05
-0.0990251
-0.000282754
0.466528
0.043369
-0.000114701
-7.78844e-05
0.284387
-4.03324e-06
-0.000316459
-0.0176609
-3.65984e-05
0.38022
0.00289995
-0.0109467
-0.10283
-0.00620749
-0.148475
0.27313
-0.028665
-0.0322365
0.00101947
-6.28391e-05
-0.00196866
-8.01421e-05
-6.58885e-05
0.0387804
0.267351
0.225433
-0.00074984
0.349942
-0.0267552
-1.9292e-05
-0.0708064
-9.36243e-05
-0.0488242
0.0454012
-0.0290691
0.00522201
0.00218452
-0.0137027
4.54324e-05
-0.00276016
0.0289482
-0.00397197
-0.000151251
-4.93617e-06
-0.000110094
0.0490461
-9.7367e-06
-0.0456506
0.368076
-0.0108365
6.34852e-06
-0.00517375
-6.6776e-05
0.173638
-0.000458598
-0.00012186
-0.000124458
-3.9946e-05
0.306726
-0.000320053
0.364618
-0.118029
1.325e-05
-0.0965238
-0.00124207
0.234613
0.597635
-0.00189332
-1.25143e-06
-3.0454e-05
-5.81086e-05
0.23149
-1.29763e-06
0.000984615
-0.0357646
0.343435
-1.34414e-05
-2.41119e-05
-6.21978e-07
-5.76596e-06
-0.0353329
-1.98559e-06
0.44404
-0.0317081
-0.000176222
-1.51718e-06
-0.00285039
-0.0447763
-2.75288e-07
-9.74151e-05
0.24689
-2.20757e-06
-0.0557204
-0.099509
4.54584e-05
-9.75969e-07
-0.184289
-5.69396e-07
0.254901
-1.78608e-06
-0.000720383
-1.40581e-05
-0.000231097
0.144908
-1.19533e-05
-0.0025956
-2.55762e-05
0.0166606
-0.00597061
-0.00924315
-0.0015366
0.230662
-0.000720864
-0.000166061
-0.0131013
-0.0130137
-0.000318942
-0.000209749
-0.00156341
-1.7095e-05
0.315485
-0.0203743
0.645055
-1.97167e-05
-0.0123007
-0.000463148
0.217037
-4.92034e-06
-0.0483776
-4.68793e-06
-0.00243593
-0.0575591
-0.000328909
-0.0268457
-0.0876539
0.00557563
-7.57789e-05
-0.114744
-0.00040522
-0.000870893
-0.00862068
-0.0330681
0.00119461
-0.00023302
-0.000674856
-0.00223897
-0.00193681
-2.90392e-05
-0.00176954
0.592234
2.54145e-05
-0.00471574
-0.0603383
-0.111991
-0.110391
-0.0740713
-0.0378641
-0.00139906
-0.035823
1.09698e-05
-0.00015677
0.613624
-0.000156332
0.292028
-0.000546163
0.000246787
-0.00160528
-0.111306
-0.000624016
-0.00134497
-6.04584e-05
-0.000566756
-0.000109271
-0.00014525
-0.0221997
-0.000223705
-0.000155815
-0.000144599
-6.39568e-05
-6.20094e-05
-0.0783928
0.402424
-2.92217e-05
-0.000723501
-0.00020764
-6.31747e-06
-0.00111475
-1.23178e-05
-0.00124655
0.00012028
-0.000512527
-0.109034
-0.000997026
-0.00312082
-1.1184e-05
-0.00365415
0.000235083
-2.92021e-05
-3.44837e-05
-5.80428e-06
-0.000970824
0.000403455
-0.0807781
-0.0510706
-0.106952
-0.000337962
-0.0045319
-0.0115101
-0.104526
-0.000141214
0.0212023
0.0082146
-0.00123271
-0.0199536
-0.0852829
0.587664
-0.000555404
-3.99352e-05
0.000649579
-8.88926e-06
-7.92735e-06
0.115883
0.00346292
0.13491
-0.0738624
0.558058
-0.000628202
-9.0557e-06
4.8804e-05
-5.70161e-05
-0.00165827
0.245234
0.317191
-3.72587e-05
-0.000296343
-7.6572e-05
0.303044
0.0256827
-0.0150559
-4.72485e-06
-4.9505e-06
0.00978797
-0.000840579
-0.13145
-0.0288178
-3.89383e-05
0.00404641
-0.0589478
-0.00011135
0.00192609
-0.000174393
-0.0764229
-0.00223843
0.230261
-6.38405e-06
0.00187527
-0.00260064
-1.20385e-05
6.22249e-05
-0.0399463
-9.63109e-06
-0.00110173
-2.52006e-05
-0.0280624
-0.0731252
-0.00714492
-0.0167584
-0.0126823
0.0127553
-0.0145225
-0.00326173
4.83878e-06
-3.43065e-06
-2.00857e-05
-1.57052e-05
-0.000100089
0.0115035
-0.111802
0.000385468
-0.0889784
-0.00398068
-0.100983
1.95112e-05
-6.11388e-05
0.0013758
-0.0484343
-1.27439e-05
-0.0878977
-0.0271983
0.10177
-0.0893509
-1.22371e-05
-0.00446706
7.48239e-05
-0.135376
0.201053
-4.57551e-05
-0.109977
-0.0424035
-0.00559817
-2.2686e-05
-2.95233e-05
0.0423369
-0.0237193
-3.13061e-05
-0.0101565
-8.76799e-05
8.58565e-05
0.190334
-2.4218e-05
-7.06755e-05
-0.000250317
-1.87004e-05
0.000869147
2.25782e-05
-0.0069223
9.01238e-05
-0.0214264
0.00107366
-0.000405805
-0.0645598
-0.0759184
-0.0103223
-3.10506e-05
-1.62282e-05
-0.123035
0.00739717
-0.0819897
-3.89906e-05
-0.00834308
-5.71654e-05
-2.03986e-05
0.120777
-0.00937136
-0.00360686
-6.47865e-05
-0.0326934
-5.80153e-06
-0.117923
-2.53185e-05
-0.134757
-6.18867e-05
-1.97252e-05
1.95563e-05
0.00102701
-0.112904
-0.0259998
-0.130832
-3.81002e-05
-5.28598e-06
-0.134147
-0.0525819
-0.0115429
-2.88276e-05
-0.0491928
-0.096164
-0.132373
-5.21705e-05
-3.39676e-05
-9.73692e-05
-0.124282
-0.12794
0.000595792
-0.0151123
-0.00014189
0.385503
2.58435e-05
-4.74716e-05
5.16794e-05
-0.000123103
-3.86232e-05
-0.00576387
-5.83749e-06
-0.00411817
-0.124513
-0.0182746
-0.0863269
-3.84531e-05
-8.77757e-05
0.0861278
-0.098336
-0.00627783
0.172813
-0.000134842
-4.98173e-05
-4.45874e-05
0.219647
6.74385e-05
-0.00019921
-5.3728e-05
-0.121293
-0.0218641
-7.34499e-05
-0.000140178
-0.0155818
-0.00854041
0.000239925
0.322542
-0.115667
-0.00106007
0.746148
-0.000177306
-0.00152207
-0.0168155
-0.130505
-4.16897e-05
-9.16522e-05
-8.02018e-06
0.00575991
-0.0658181
-0.000634398
-0.0904747
-0.0104269
-4.96235e-05
-1.46185e-05
-0.0139017
-0.0134969
-0.00850549
-0.0846786
-0.0742452
-0.0665585
0.0254125
-0.0489746
-0.000121816
0.000200039
0.0127615
0.000456171
-0.000397772
0.000601985
-7.85548e-05
-0.000354125
-0.0166534
-2.80685e-05
-0.000101558
0.059507
-0.0306727
-0.000632422
-0.000268272
-4.14908e-05
0.34718
-0.0110659
0.000584528
-0.0514182
0.000131389
8.48152e-05
7.22746e-05
-0.000108602
0.000343766
-0.0685222
0.022618
-2.34038e-05
-0.000538617
-0.0782144
-0.0622236
0.0744223
-0.000586303
0.00212144
0.0257541
-4.90861e-05
-2.61288e-05
-0.095311
-1.00452e-05
0.239946
-9.99571e-05
0.00525267
7.17328e-05
0.00010045
-0.116893
-0.0126502
-0.0304931
-0.00325057
-9.77805e-06
0.00644574
0.0942007
-0.0215018
-0.000249082
0.144948
0.236209
-1.81296e-05
-0.0914901
-0.000148689
-5.28156e-05
-8.28376e-05
-0.000672293
0.02885
-0.000127729
0.00011246
-0.0368939
-0.0438722
-0.0313259
0.425206
-7.92978e-05
-0.000132587
0.246532
-0.0172478
-0.00617842
-0.000776118
0.24372
-6.00399e-05
-0.00102362
-0.000103901
-0.000105127
-1.1445e-05
-1.435e-05
1.55558e-05
-0.0261469
-5.69346e-05
-0.00583757
-0.0747203
0.361251
-0.000723484
-9.18461e-05
0.00590824
0.130501
-0.0937408
-0.000902757
-0.108175
0.426159
-8.56101e-06
0.537586
-2.45598e-05
0.00366745
0.0358968
0.000312455
0.563095
-0.000185517
-2.48063e-05
0.00101926
-1.51016e-05
-0.00103678
0.000143346
-5.90231e-05
-0.00274582
-0.000139194
-0.000267076
-0.00486433
0.342852
0.0816642
0.0322986
-0.0699405
-2.0186e-05
-8.24284e-05
0.00356017
-0.111009
-4.80254e-05
-0.0758782
-0.000110512
0.158621
0.0950549
-0.0620511
-0.00207129
-0.0222506
-0.00115807
-0.0207933
0.00160131
-0.0143725
0.0999293
-6.58865e-06
0.407441
0.0757241
-0.00165552
0.313091
-0.0227741
-2.67532e-05
-6.35589e-05
5.96777e-06
-0.000270065
-0.000278107
0.34289
-0.00137753
0.354285
-0.00274885
0.240746
0.330798
0.217276
-0.0118457
-4.96561e-05
-0.000143902
-0.0146638
-0.191497
-0.0924663
0.00161886
-0.000103574
-0.0618023
-0.00118311
-0.000204968
0.00101463
-0.00144239
-0.00197795
0.0503552
1.32893e-05
-0.0760844
0.0917392
1.13306e-06
0.000118717
-0.0275457
-0.116902
-0.000986082
-0.000677469
-7.80597e-05
8.79974e-05
0.185697
-0.0309258
-0.092415
0.00134249
0.186487
-0.0716815
-6.30283e-05
-4.88939e-05
0.0436102
-0.000370378
0.159495
-0.0032069
-0.0190735
-0.000669406
0.0016643
-0.0684266
-0.00027845
0.000361925
-0.00502231
-0.131427
0.256975
-0.103505
-0.0476863
-0.000569197
-8.12584e-05
0.0089776
-2.74308e-05
-0.129444
-0.126721
0.000449669
0.00335594
0.00474437
-0.177881
0.000519954
2.07531e-05
-7.91693e-05
-0.0750861
-3.12539e-05
0.000451806
0.184581
0.26215
-0.188511
0.0756341
0.0750348
0.0384843
-0.000665097
0.0142113
3.91802e-05
-1.12824e-06
-0.000412023
-9.11005e-06
-0.000297927
-0.000522732
-0.0127261
-0.0984002
-0.0166183
-0.0568038
0.082873
0.0680075
0.00485607
-0.123881
-2.3288e-05
0.00492249
0.0146722
-0.000612834
0.120724
-0.00336019
-0.019845
0.015732
0.00719736
-0.000398585
-0.00664904
0.0681824
0.000703475
-0.0337948
-0.0291281
0.658626
-0.0462295
0.129345
0.0515739
-0.0736754
0.00245447
-8.91989e-05
-0.00342636
-0.000103442
-0.00341296
-0.0460142
-0.000141951
-0.000464597
0.42772
-0.00422628
-0.0744025
-0.0268316
-6.67921e-05
-0.00413423
-7.47555e-05
-3.29696e-05
0.060613
-2.86968e-05
-0.00379053
0.12315
0.00727316
0.0011502
0.0257517
-0.00959184
0.00532283
-0.171556
0.000714442
-0.00722265
-0.103747
-0.00170092
-0.0136052
0.000429394
-0.00186326
0.000924834
0.0588223
-0.00107792
0.00706396
-0.0855943
-0.0365635
-7.7721e-05
-0.0825826
-0.0255412
-0.0247336
-0.000182936
0.00870573
-0.140716
-0.00116122
-0.00854604
-0.0772813
-0.00375001
-0.00178718
0.328982
-0.0440752
-6.34701e-05
0.0112468
-0.0996259
-0.00149326
0.28276
-0.00553326
0.000979706
0.0916801
-0.002215
0.0103216
0.191755
-0.000506095
0.0011873
4.17671e-05
-0.000147447
-0.00592082
-0.0148181
-0.00075249
-0.0416296
0.157091
-0.0602693
-0.14847
0.00118928
-0.00492354
-0.00175692
-0.0875075
-0.000144991
0.022972
-0.00020766
-0.0228115
-0.0026927
-0.00657148
0.0447883
0.191407
-0.159278
-0.000117882
0.311477
-0.00410256
-0.00660082
-0.102977
-0.16767
-0.0275283
-7.29824e-05
-0.00293278
0.00951932
-0.00452872
-0.00775291
2.37219e-05
0.136702
-0.0864857
-0.0188559
-0.00894374
0.0361536
-0.00922724
-0.00627022
0.00187009
-0.000850582
-0.00445708
0.185672
0.000536469
-0.187437
-0.000447391
-0.00992437
-0.00852431
-0.179534
-0.020235
-0.207665
-0.00013106
-0.0001381
-0.0124045
0.0138087
0.00117174
-0.22693
0.143975
-0.091741
3.56832e-05
-0.239361
-0.000496766
-0.243629
-0.0445939
-0.232938
-0.219394
-0.194936
-0.121264
0.0129119
0.0630901
0.108787
0.154679
0.199336
0.322519
0.360764
0.396363
0.454401
-0.0109781
-0.0136509
0.109954
-0.0390662
0.00070735
0.0215642
-0.0735365
-1.9374e-05
-0.00210019
-1.05466e-05
-0.0257869
0.02552
-2.08237e-05
-0.0012358
-0.0143817
-0.0179625
-0.246184
-0.0302759
-0.105334
-0.000294093
0.00023825
-7.63202e-05
-0.109497
-0.0160351
-0.0687594
-0.0249807
0.0018214
-0.000256319
0.00596266
-5.47236e-05
-0.0261962
-0.00028959
0.000225849
-0.0161162
-0.01589
-0.00155311
0.000182819
0.0748292
-0.0187179
0.108509
-0.246843
-0.0201886
0.283436
-0.0320017
0.00410038
-0.038846
-0.00553545
-0.017473
-0.0249784
0.458289
-0.00361469
-7.21009e-05
-0.0100979
-0.0167439
-6.07639e-06
0.125329
-0.00816502
0.436183
-0.0385814
-0.0718507
-0.0469843
0.0763374
-0.0109012
-0.000101089
-1.37661e-05
-0.00708164
-0.119511
-7.62053e-05
0.505007
-0.00444615
-0.00892207
-0.00083083
-0.000572636
-0.013615
0.241857
-0.0646147
0.184333
0.000523174
-0.0240593
-1.01635e-05
0.0402322
-0.0166706
0.0283444
-0.0390973
-0.00895194
-0.00350719
0.000809164