/*--------------------------------*- C++ -*----------------------------------*\
  =========                 |
  \\      /  F ield         | OpenFOAM: The Open Source CFD Toolbox
   \\    /   O peration     | Website:  https://openfoam.org
    \\  /    A nd           | Version:  7
     \\/     M anipulation  |
\*---------------------------------------------------------------------------*/
FoamFile
{
    version     2.0;
    format      ascii;
    class       surfaceScalarField;
    location    "17";
    object      phi;
}
// * * * * * * * * * * * * * * * * * * * * * * * * * * * * * * * * * * * * * //

dimensions      [0 3 -1 0 0 0 0];

internalField   nonuniform List<scalar> 
176195
(
200.003
53.8236
-253.827
-473.357
101.926
371.431
-90.7916
-73.558
164.35
91.2209
-253.631
162.41
-464.835
335.676
129.159
154.65
-327.322
172.672
-141.25
230.894
-89.6446
-93.7667
206.511
-112.744
-362.004
342.086
19.918
-464.672
-8.68502
-225.437
348.27
-122.833
500.706
-360.08
-140.626
-155.409
341.691
-186.282
52.0426
-50.5066
-1.53607
-53.5359
-308.468
-72.8909
33.6146
39.2763
-456.696
94.4015
362.295
-404.421
80.3644
324.057
-189.911
292.809
-102.897
-345.517
-119.318
-87.3513
193.195
-105.844
149.029
-148.054
-0.97542
383.281
-276.859
-106.422
138.161
-283.238
145.077
-339.985
280.03
59.9549
-43.2976
165.56
-122.263
-13.0567
33.2203
-20.1636
-234.721
517.026
-282.305
-261.203
-177.104
438.308
-60.6606
102.053
-41.3926
423.983
-337.662
-86.3209
-275.592
-39.6383
315.23
-286.284
436.789
-150.504
-78.6167
-61.1549
139.772
-155.272
-103.868
259.14
179.551
71.2242
-250.775
-181.581
72.0395
109.541
-107.088
-349.608
-98.3335
-62.3863
160.72
90.7881
179.266
-270.054
130.619
-406.211
-62.0063
-342.415
-108.083
-39.9579
148.041
-91.7444
271.296
-31.1232
101.89
-70.7667
0.262114
51.7805
279.657
65.9677
-345.624
608.792
-341.662
-267.131
413.654
-162.627
-251.027
418.176
-540.048
121.872
-390.915
478.395
-87.4803
229.208
-84.679
-144.529
-468.04
343.226
124.814
-504.085
450.706
53.3784
-126.522
-161.036
287.558
-329.927
-138.113
588.388
-383.724
-204.664
-123.276
86.4381
36.8374
-7.01074
46.8406
-39.8299
121.174
-208.38
87.2056
-511.753
329.461
182.292
-173.688
299.338
-125.65
328.497
-123.647
-204.85
-93.4004
153.456
-60.0561
293.247
88.445
-381.692
10.514
-425.857
415.343
-351.717
209.79
141.927
-206.743
413.091
-206.348
9.26133
-35.9211
26.6598
-573.651
275.782
297.869
-62.5322
145.052
-82.5199
60.3946
-41.4647
-18.9299
318.087
-227.299
-102.746
53.4215
49.3246
-95.0645
-91.4319
186.496
67.1642
-132.596
65.4319
-151.65
76.957
74.6926
219.014
-402.848
183.834
-338.777
-15.1467
353.924
-268.542
167.278
101.264
-100.515
-168.027
428.233
-431.236
3.00364
30.0318
-93.8372
63.8054
-345.836
630.9
-285.064
-105.025
199.082
-94.0564
342.453
158.253
-102.927
153.266
-50.3386
-323.613
472.541
-148.928
87.1586
-94.9769
7.81835
-88.0879
441.733
-353.645
93.1761
-89.7911
-3.38492
166.549
-17.0468
-149.503
207.854
-469.057
188.335
63.5439
-251.879
-408.409
300.261
108.148
-589.606
425.764
163.842
254.591
-313.108
58.5168
101.256
-71.2244
-17.9164
-105.318
123.235
2.10797
85.0506
-317.187
-194.566
209.794
-475.018
265.224
342.314
-184.036
-158.278
-529.331
546.11
-16.7791
96.799
-159.331
187.262
-106.84
-80.4221
-461.753
260.802
200.952
-54.2461
114.523
-60.2767
-147.89
213.785
-65.8954
-312.86
-68.998
381.858
-57.3986
171.983
-114.584
-53.7686
308.36
-91.3888
-60.2608
142.111
92.6459
-234.757
-180.638
66.2676
114.37
208.859
-350.995
142.136
-302.042
76.6052
-83.6135
163.137
-79.5233
364.014
-542.399
178.385
23.6486
36.746
-159.887
76.2739
-38.7003
-34.1906
-194.809
94.5644
100.245
70.8692
-86.6599
15.7907
-230.569
532.214
-301.646
-112.948
52.2878
-239.623
65.9356
-155.994
82.6372
73.3564
-160.985
-38.9103
199.895
-561.626
563.749
-2.12326
-107.616
232.657
-125.041
576.89
-293.798
-283.092
-105.85
124.004
-18.1539
544.738
-202.285
-329.489
481.621
-152.132
-156.542
235.056
-78.5132
-338.938
278.194
60.7442
68.1982
-354.483
143.95
-270.472
170.598
128.74
77.7115
4.99807
-82.7096
-197.726
350.726
-153.001
505.028
-506.514
1.48564
378.9
-176.355
-202.546
-262.775
155.159
141.937
-532.851
467.869
-346.443
-121.426
-100.435
-139.188
-471.494
264.751
-221.643
-193.008
414.651
115.241
72.0203
61.2193
-92.3425
6.746
159.803
-567.356
273.04
294.315
110.198
119.01
-392.194
464.354
-72.1595
-411.555
98.6946
-103.721
208.743
-105.021
104.886
-104.451
-0.435444
-182.814
135.904
46.9107
121.261
-54.0965
155.093
312.776
150.929
177.568
-195.664
148.478
47.1857
255.53
-145.811
-109.719
141.652
155.716
-297.368
471.113
-268.087
-203.026
-45.7782
-108.465
154.243
-183.699
79.978
-232.115
126.777
105.338
-221.312
147.321
73.9916
-105.645
385.302
75.5781
-107.848
32.2699
23.2542
31.873
-55.1273
-76.1083
-77.8238
153.932
219.103
-466.147
247.045
-37.875
61.1293
167.315
100.935
-268.251
129.711
-351.785
222.074
278.964
134.69
-307.942
-149.461
457.403
-191.522
96.4576
90.5492
-249.681
159.132
-229.104
418.704
-189.6
-211.86
-249.893
-178.303
381.858
-203.556
96.5274
-237.409
140.882
312.766
187.234
-133.441
332.496
-199.055
-1.5307
94.7068
-118.074
285.389
-349.331
193.56
155.772
437.065
-53.3726
-383.692
-176.495
97.7408
78.7542
-173.956
130.658
73.8377
-150.95
77.1121
19.8368
-57.7119
-119.968
113.508
6.46071
48.498
-122.057
73.5593
75.1497
138.146
-213.296
-564.203
401.176
163.027
-277.496
337.912
-60.4167
386.465
72.0215
-458.487
481.431
-478.633
-2.798
-299.307
158.592
140.715
112.743
-69.9211
-42.8222
360.588
-250.299
-110.29
-88.6212
381.868
-223.767
-220.012
443.779
100.936
-217.234
116.298
-35.9565
55.7933
1.78787
259.014
-3.24496
-336.74
-384.504
296.416
-144.332
-73.714
218.046
-76.6605
-99.8345
-130.019
249.858
-119.839
-194.173
-143.949
338.121
45.52
-45.2579
-128.736
-252.809
381.545
125.596
14.6333
-140.229
122.568
-6.94983
-115.619
130.927
-338.286
207.359
-60.5452
110.625
-50.0799
-73.5388
-430.546
-265.454
77.6094
187.845
-192.232
-94.2085
286.441
148.963
-54.3619
-94.601
157.271
-83.433
-399.916
64.1
335.816
-7.13303
-451.864
458.997
81.3079
-121.464
40.1558
5.44388
-71.9417
66.4978
85.2509
-167.256
82.0053
-234.256
119.867
114.389
-211.016
-353.187
-660.487
294.874
365.613
410.376
-210.869
-199.507
-44.6639
149.446
-104.782
195.897
-133.88
-62.017
-105.601
68.2263
37.3751
-289.111
161.578
127.533
-142.399
-40.4152
93.3575
-111.274
248.39
-192.677
-55.7127
-227.105
423.105
-196
454.962
-244.658
-210.304
108.494
-69.752
-38.7418
-150.402
104.624
-59.9378
-17.2733
77.2111
298.099
189.412
-487.511
-346.311
208.121
138.19
238.569
-551.135
312.566
394.846
-221.661
-173.185
159.554
-119.866
-39.6887
-0.359146
-307.583
17.078
72.5996
-89.6776
-634.578
339.283
295.295
513.606
-513.606
-199.597
105.83
407.569
-407.929
-1.2182
46.7382
-483.582
254.478
25.0386
136.738
-161.777
24.7739
-172.664
235.187
-143.966
-12.2435
83.1127
157.719
-250.213
92.4943
21.2401
108.004
-129.244
-115.481
141.648
-26.1666
413.797
-132.011
-281.787
-335.634
202.193
445.602
-166.637
-217.702
-71.4088
159.286
158.43
-317.716
-163.124
81.985
81.1394
53.9925
-103.645
49.6529
-169.481
93.3729
-247.989
298.965
-50.9757
73.3588
-127.605
-121.308
-74.3561
87.4044
165.524
-404.498
238.974
62.308
50.4353
460.203
-240.249
-219.954
192.293
222.686
-414.978
19.9726
-285.427
519.693
-531.934
12.2408
130.666
-88.7592
-41.907
-92.1122
-60.4493
152.561
112.918
-58.9256
-500.496
66.8499
433.646
-56.7802
39.1517
17.6285
313.138
-311.35
-246.952
407.685
-160.734
-521.823
336.359
185.464
337.55
-238.655
-98.8946
-174.165
-185.037
359.201
-150.866
354.13
-203.264
-155.426
39.9452
-36.3827
-19.1434
55.526
113.063
-189.845
76.7827
-48.7499
17.1119
31.638
281.298
-177.961
-103.336
96.1582
32.1099
-128.268
-149.291
267.368
-118.077
-245.928
161.526
84.4023
91.8783
57.0845
226.688
-135.617
-91.0719
-174.113
303.824
-97.861
-151.419
249.28
85.6358
15.118
-100.754
-79.4648
108.752
-29.2877
-143.188
98.5242
-327.116
171.707
-186.105
362.514
-176.409
425.712
11.3523
200.46
-427.566
248.692
-110.531
-55.0404
0.88962
54.1508
-30.9712
-154.429
185.401
254.802
-383.538
-71.7201
458.185
-45.2729
-135.365
201.422
30.4343
-231.856
-113.473
50.2444
63.2289
-399.857
7.66313
222.844
-421.128
198.284
21.8915
-58.2741
-23.8776
-32.9026
158.18
-256.041
-432.284
-68.2119
157.752
209.019
-366.77
219.479
118.071
202.868
-89.0239
-113.844
153.012
109.741
-262.753
-224.219
115.521
108.698
78.8608
-355.622
276.761
345.229
-190.579
221.423
-124.896
80.755
89.5718
-170.327
-94.7121
248.337
-153.625
10.8925
-23.9492
81.8187
-149.459
67.6403
240.029
-81.3339
-158.695
-195.238
-214.386
409.624
-175.49
-72.4988
-113.8
-22.4162
136.216
63.769
51.0201
-114.789
324.647
-172.618
-152.03
-144.75
38.9002
-502.325
329.772
172.553
395.408
12.1617
143.678
-268.297
124.619
177.857
-102.707
195.929
76.4699
-272.399
-47.5899
247.593
-105.473
-299.595
405.068
-190.03
385.282
-195.251
-119.806
265.778
-145.973
-94.2112
217.751
-123.54
152.252
-110.068
-42.1833
-123.846
-57.7345
-225.116
124.877
100.24
206.35
-84.7375
-121.612
-438.195
332.722
-113.388
115.479
-2.09069
-166.773
91.352
75.4212
312.97
-182.043
-169.144
473.18
-304.036
216.544
-125.256
-91.2888
-3.65149
59.5543
-55.9028
59.387
49.1068
24.0066
221.595
-245.602
98.2833
31.3437
-129.627
77.5295
323.536
-401.066
156.209
515.81
-97.6347
190.949
115.091
-306.04
-138.633
300.125
-161.492
140.208
-58.9005
202.505
-124.03
-78.4751
-65.2937
191.268
-125.975
136.335
-256.141
437.791
-245.498
-368.574
366.465
2.10848
81.9684
-76.5246
-53.9786
-19.719
73.6976
522.614
-186.938
-68.9809
191.187
-122.206
-256.465
431.647
-175.182
253.503
157.667
-411.17
50.0605
-152.988
-506.177
271.456
-12.4038
134.972
-304.856
156.583
148.273
127.849
98.8391
-314.619
-152.641
467.26
269.647
175.954
-71.9664
-61.4614
133.428
80.5579
4.77406
-85.332
-214.589
337.307
-122.718
103.494
-112.226
8.73196
-137.243
340.162
-202.919
23.0628
149.907
-172.969
86.3497
94.5257
-180.875
142.792
-472.282
-166.724
256.967
-90.2426
-119.546
244.392
-124.846
-95.5105
143.269
-47.758
245.078
-145.412
-99.6656
-244.758
93.3388
240.999
-436.238
-50.7044
206.069
-155.364
-183.8
78.7745
194.942
104.023
399.188
-129.54
84.6501
-180.506
95.8558
353.637
71.0148
-424.652
-219.377
451.697
-232.32
-232.704
-266.889
19.4791
-55.4356
608.883
-389.173
-219.71
-30.5572
119.465
-88.908
-108.429
28.9641
307.028
-365.818
58.7901
-102.119
188.469
-346.421
353.071
-6.65023
353.782
234.606
158.822
137.973
-296.794
-541.56
401.996
139.565
-339.047
423.973
-84.9266
-96.4318
218.428
-121.997
144.92
-53.0414
114.674
166.623
122.798
-289.522
-124.558
267.638
-143.079
392.326
216.557
334.497
-326.126
-8.37108
325.142
-535.03
209.888
337.625
-118.61
-114.635
-446.99
60.6912
-212.442
151.751
60.0539
-132.02
345.435
114.768
192.278
-122.176
-70.1026
231.621
191.485
135.608
229.352
-364.961
-91.3574
344.861
435.901
-216.798
-343.966
-40.9905
384.957
-291.072
-182.675
473.747
429.598
-284.579
-145.019
525.155
-277.142
-248.013
-55.7979
-94.6044
-48.6624
250.553
-201.89
77.2631
89.5278
-166.791
67.0286
-113.991
46.9624
101.305
186.515
-287.82
-129.91
22.3262
107.584
13.523
89.9707
427.991
-196.37
390.806
131.807
-351.861
-19.9308
371.791
-23.2874
108.923
-187.107
99.7555
-184.3
-229.564
413.864
-22.6534
54.5264
-27.504
-102.406
168.197
-459.269
218.414
-16.3214
-53.3628
69.6842
209.047
-59.6015
-70.4002
-32.3458
-257.568
133.01
-63.7314
265.153
-324.433
499.495
-175.062
274.666
-458.965
431.047
-221.253
122.07
192.129
-314.199
-145.857
68.0208
77.8363
-367.333
488.597
-121.264
305.678
-226.818
597.774
-244.889
-352.885
105.382
103.665
352.568
-131.13
-221.438
-259.024
431.959
-172.935
153.533
-217.472
63.9394
-230.303
36.2965
194.007
-60.1611
-95.2653
90.3704
-353.247
262.877
12.4099
-92.2471
79.8372
465.159
-261.324
-203.836
296.598
-486.193
189.595
-219.627
168.923
129.157
87.3872
79.2596
-13.7938
-65.4658
248.432
-106.321
258.443
151.933
315.092
-182.132
-132.959
-300.143
185.406
114.737
-511.251
311.922
199.328
173.915
-88.6641
-87.574
161.489
-73.9153
-177.617
-68.3103
327.41
-20.3827
103.511
0.0555656
-103.567
-98.7933
179.548
-73.1823
-32.419
-532.645
346.892
185.753
292.32
-148.642
213.795
181.051
180.856
-402.517
-474.113
237.933
236.181
-244.528
160.463
84.0653
119.431
-52.5196
-66.9113
-234.591
-193.766
428.356
119.492
124.895
-244.387
-404.922
269.115
135.806
-257.087
-147.835
-608.102
402.054
206.047
-276.804
99.1863
612.549
-315.308
-297.241
-163.243
-179.239
342.482
-98.479
106.404
-7.92525
-145.35
259.87
-114.52
-220.571
124.139
-409.949
417.477
-7.52811
48.857
122.822
-171.679
-393.456
211.587
181.869
-98.2641
-123.048
141.092
-111.945
-29.1476
281.039
118.149
574.834
-317.661
-257.172
253.212
-519.735
266.523
39.6417
-91.2728
51.6311
66.0986
13.1611
-60.5677
132.387
-71.8188
274.166
300.668
59.1235
-137.74
-276.32
181.608
28.6813
-19.42
56.7319
149.618
346.088
82.1446
89.3027
55.617
47.4426
-185.5
138.058
367.599
-518.055
150.455
-69.4067
327.629
-258.222
-27.7519
94.7805
188.963
408.811
-142.197
375.339
-233.142
73.6164
-187.273
113.657
-352.074
-308.413
-52.4743
-39.3027
91.777
10.6918
-109.171
-79.1261
91.536
146.061
-64.2423
183.17
-346.413
-121.652
59.5359
62.1165
-371.256
-76.6045
447.861
-338.361
522.627
-184.266
106.772
-396.269
289.497
40.8875
-111.01
70.1226
-67.7946
-332.122
269.102
114.374
-383.476
173.536
-112.845
225.504
-123.34
-102.164
515.086
-155.106
-359.98
-398.422
49.8219
348.6
326.77
102.83
-429.6
-533.017
554.156
-21.1386
-121.56
-73.249
-92.0824
113.322
146.346
168.746
274.026
-585.305
311.279
399.221
-388.707
439.654
-170.552
573.858
-311.55
-262.308
-214.498
228.306
-13.8086
-34.6535
138.165
-52.2675
-247.158
299.425
58.4791
455.127
-56.8968
-86.2914
167.399
-90.1356
284.706
-183.402
125.164
54.7983
-179.962
161.399
-210.061
-120.361
-5.07403
125.435
555.129
-555.129
145.541
-122.478
263.916
-148.069
-115.847
-327.612
-194.211
-150.43
94.6322
-401.538
-127.792
-48.2668
44.6153
180.844
-359.992
169.46
190.532
27.6523
-374.073
62.1794
110.078
-172.258
104.549
37.0992
76.9429
0.768605
-66.2069
-332.215
85.5065
-201.976
116.47
53.0981
-397.065
-306.741
164.544
-150.146
-162.787
312.933
69.5975
327.767
-397.365
-328.266
501.801
-173.535
-97.3703
122.409
-14.5495
27.9948
-13.4453
-94.6898
156.785
-62.0952
226.034
194.958
-420.992
332.274
-210.204
377.962
-158.483
-316.742
-224.818
71.2845
-261.196
-241.277
86.0045
-408.842
304.913
103.929
73.2877
-444.544
108.594
123.881
-232.476
-209.506
-175.981
385.488
-34.8751
-13.8748
93.1801
-116.467
-144.194
-184.923
329.117
-304.113
234.706
-108.72
-49.0285
157.748
-185.372
113.011
72.3615
370.988
-538.133
167.145
317.67
-208.221
-109.45
141.254
313.708
157.675
73.108
-230.783
395.394
-181.599
146.76
-514.093
206.129
-120.622
152.232
165.438
-64.2752
-344.566
223.272
-397.989
174.717
435.019
-255.051
-179.968
85.6697
-251.38
165.71
-200.18
-8.22247
208.403
142.775
-34.9954
-107.78
67.5433
-124.583
57.0394
196.608
181.354
-43.6874
124.245
-352.782
426.07
136.91
229.841
-366.752
-107.618
316.477
87.3414
11.0166
-98.358
42.9056
-310.249
267.344
-103.318
114.01
280.445
-483.472
203.027
-86.8775
212.042
260.87
-452.351
205.4
-157.224
-7.04557
164.27
18.8332
133.299
-152.132
293.399
171.761
-23.323
110.664
323.461
-21.9275
-301.533
-126.253
444.452
-318.199
105.484
277.797
35.9348
214.618
321.493
142.246
-463.739
333.712
-276.895
-56.8173
-22.5993
-90.7886
-210.576
54.0338
-45.6516
-31.1204
76.772
18.5979
-64.2494
-317.371
178.738
-95.7726
-154.999
250.771
288.439
22.2928
-310.732
-221.483
-39.1472
260.63
-144.728
87.831
61.7443
-156.434
-93.4253
-317.335
410.76
-75.5318
-142.171
544.995
-264.551
-70.9922
90.1519
48.1759
-138.328
-249.008
101.119
147.889
60.3782
-84.0312
23.653
116.151
150.194
-266.345
-160.207
99.3227
60.8846
-125.508
321.437
-120.153
-85.8855
206.039
-347.181
-226.469
-237.296
126.506
110.79
-229.514
527.494
-297.98
409.04
-318.67
-57.5592
-78.2154
135.775
-40.1
61.9915
-183.491
331.353
-147.862
-123.585
273.003
-149.418
168.484
-77.11
-91.3737
-279.8
386.572
16.0746
25.4533
-41.5279
-258.719
263.883
-5.16321
-217.239
75.9889
201.288
2.56076
-203.849
-182.008
396.91
-214.902
95.7695
-43.4859
-52.2837
257.759
-523.037
265.278
-497.379
173.766
163.268
-37.6717
-109.059
5.74152
-181.318
90.0967
91.2215
-162.709
385.981
166.345
-92.7289
70.8509
-423.633
-59.0692
-90.9964
150.066
-111.808
-509.137
354.884
154.254
257.635
76.0774
-323.798
-150.956
474.754
-83.6018
298.9
97.3511
-127.908
-54.8833
-108.241
-264.335
-271.789
536.123
-225.299
-255.511
480.81
-239.876
263.968
-24.0923
340.695
-263.165
-283.545
-218.78
340.705
-509.849
99.8936
94.5896
-194.483
-389.085
227.846
161.239
150.375
240.431
-67.5895
119.316
-51.7262
-330.333
527.049
-196.716
-48.2179
-4.52722
52.7452
-167.874
68.9561
98.9175
18.3073
-32.8568
-75.723
402.493
22.2901
125.188
-147.478
517.219
-195.726
-178.579
269.129
-321.347
170.481
-281.503
281.503
-122.846
231.44
-554.354
288.816
265.539
-346.415
-61.9991
408.414
185.401
-137.958
-61.0614
35.9428
25.1186
-196.591
102.379
129.022
-489.102
32.4307
98.2355
-130.607
-308.502
439.109
-228.352
365.262
-251.656
121.637
515.677
-280.489
-235.188
-166.024
-34.1564
157.062
-341.098
-584.371
407.901
176.47
-299.818
-128.054
-149.274
27.0234
122.251
-49.4289
-91.7379
141.167
142.214
106.218
-116.297
159.397
-43.0998
-5.39197
114.752
-109.36
188.186
-188.06
-0.125874
203.6
-338.398
134.798
65.6586
-153.233
-82.9856
-136.642
80.6417
-149.455
68.8133
-400.402
-218.189
324.618
-106.429
66.7549
29.0147
3.4689
-197.75
194.281
-166.22
-185.497
180.964
-394.115
213.15
-142.801
85.2422
4.57891
25.9735
-30.5524
33.5936
-142.313
-104.824
206.376
-101.553
150.919
119.733
-270.652
-174.424
-280.206
454.63
172.204
-416.96
244.756
92.8668
-36.9095
-55.9573
-541.52
308.574
232.946
495.976
-335.966
-160.011
-501.06
176.627
12.7786
132.763
-84.2436
-102.863
289.092
-380.45
-344.019
-130.095
-252.219
-107.772
-370.022
153.847
216.175
-209.624
134.092
-37.8441
291.64
-253.796
-70.3
-221.821
123.557
124.687
126.191
-250.878
256.581
-450.165
193.584
203.073
-102.137
-317.18
108.959
203.944
-82.7698
-325.174
-114.347
439.52
389.831
-208.867
-326.665
331.015
-4.34963
-81.5268
127.207
-45.6805
-406.413
192.027
-293.605
130.032
163.573
107.204
-107.204
-203.61
-251.031
454.641
473.444
-402.593
76.9915
-269.224
-2.19778
325.659
322.602
192.484
-219.433
-79.4919
298.925
32.8951
-21.3295
-11.5656
-56.4164
106.471
-50.0542
-198.538
126.711
71.8265
-322.598
-244.757
-111.256
-9.10537
125.426
-35.2744
-278.149
-311.457
-132.74
72.172
148.099
193.592
55.0152
35.2317
-90.2469
-156.604
177.014
-20.4098
392.501
181.358
-166.384
-110.419
-334.027
-175.11
-153.304
-84.208
237.512
-70.4971
-262.931
333.428
-278.916
170.767
108.148
-75.2333
-75.4994
150.733
333.062
-508.999
175.937
204.102
-349.618
145.516
244.701
-446.077
201.376
-64.6086
-58.667
-229.801
146.815
193.65
-403.821
210.17
-132.56
83.1315
-346.842
69.3467
-231.246
381.621
-31.9562
46.7015
-14.7452
146.057
-140.78
-5.27672
13.9119
-73.8497
-164.584
368.184
483.261
-465.32
-17.9405
-74.554
115.442
-68.8041
110.952
-42.1482
256.215
-459.825
-35.4735
47.7372
-12.2637
-131.915
273.567
390.467
-506.895
116.428
250.448
41.7131
-292.161
43.4815
-110.601
67.1192
-38.2171
98.5953
53.8647
15.3861
-69.2508
-28.8713
129.543
-100.672
-8.98456
117.747
-108.762
132.866
-52.2244
406.137
-147.694
-108.947
241.073
-132.126
-303.193
-35.8539
181.354
-107.766
-73.5875
160.354
-293.084
132.73
-225.1
-158.506
383.606
-40.4138
186.471
-269.885
156.499
113.386
188.683
-338.862
150.179
-334.563
210.457
124.106
246.15
-135.516
-110.635
-152.221
75.873
76.3479
206.432
-430.199
-110.476
-78.5661
189.042
-48.5879
-110.874
159.462
96.8121
-191.89
95.0783
-39.4736
137.757
140.797
-74.5699
-66.2268
-50.8941
-116.827
167.721
-26.8688
120.049
-146.864
-114.417
261.281
-298.05
-8.22442
306.275
64.2811
-143.965
79.6839
151.349
88.6798
111.314
92.6297
-148.032
149.148
-1.1157
-149.274
-55.7768
446.244
-174.847
76.5139
394.687
23.6596
-418.346
416.682
-348.484
-469.819
186.274
77.8931
70.9269
-148.82
-18.274
-36.7664
95.4941
-246.957
151.463
146.676
-364.865
-156.671
-5.22605
255.674
-62.1611
263.449
240.655
178.049
-419.743
237.735
-119.933
52.3435
405.697
-167.128
171.094
-88.2494
-82.8445
249.604
-320.101
289.341
-148.066
-141.274
256.156
-229.17
-26.9858
151.267
-86.986
-238.062
-226.1
464.162
-208.464
40.6733
167.79
494.295
-488.066
-6.22899
236.524
-66.6256
-169.899
276.88
275.549
-552.428
207.15
-110.338
-152.589
295
-142.411
-141.04
299.862
-98.9583
174.423
-75.465
-176.227
-123.08
9.70781
-31.6452
21.9374
66.0292
-186.182
362.214
111.229
-348.136
-61.8129
-70.8509
-178.158
97.6311
-42.616
-148.24
246.09
-97.8504
-40.1691
33.1583
89.2274
-32.4533
-56.7741
-135.838
84.9436
-578.257
340.638
237.619
64.4762
-116.987
52.5107
-151.874
247.368
-50.8816
106.654
-55.772
55.8045
33.4229
-160.05
364.531
-204.481
-38.7907
-109.344
148.135
-52.7338
-18.3881
71.1219
291.972
-115.07
-176.902
204.764
-101.259
-103.505
-385.546
-298.066
-171.754
-108.594
39.076
69.5176
149.823
-316.673
166.85
27.1569
-17.449
-122.563
135.342
37.886
-376.663
287.811
-102.404
-170.128
101.147
-184.177
127.337
56.8402
334.749
-130.647
120.596
-99.0193
-21.5771
-127.641
-56.5358
55.8073
-180.039
124.231
96.9801
-181.224
118.566
-45.0131
-73.8536
118.867
-117.758
212.033
-94.2749
167.849
-44.6936
-123.156
-262.832
-35.2187
128.268
74.2369
-49.8453
9.74531
-33.8514
135.463
-101.611
-103.994
99.0457
4.94785
-90.6915
-54.6881
-66.4369
121.125
518.031
-405.261
-112.77
389.771
-100.678
129.814
-110.981
-425.375
463.519
-38.1438
-154.035
288.315
-134.28
-231.825
308.816
74.9762
65.8206
-71.6866
-95.0866
-87.267
244.986
-167.697
281.643
-113.946
-131.099
196.702
-65.6033
-293.583
167.336
126.246
91.4136
-51.7719
-15.0861
-26.3787
-230.259
-209.231
439.49
159.814
358.217
-498.969
273.67
193.495
-193.495
-125.384
124.539
0.845222
183.603
-111.325
-72.2782
246.139
-540.366
294.227
146.209
145.763
-243.797
348.036
-104.239
108.056
-43.5802
-166.934
105.796
61.1376
156.875
329.931
-486.806
250.84
-108.626
-328.356
168.653
159.702
77.585
-185.439
107.854
272.913
174.786
-447.699
-156.106
117.315
-13.2631
-102.029
115.292
137.686
-166.557
-194.95
420.984
-204.876
117.782
87.0943
148.624
-88.1183
-60.5059
-123.035
387.089
-264.054
308.705
-147.306
-33.5689
127.884
-94.3156
200.531
189.169
-389.7
-235.428
-263.541
-89.7515
346.333
73.9235
-138.405
64.4811
-185.35
389.501
-204.151
159.355
-81.7702
301.625
-198.2
-103.425
184.771
-100.121
-200.464
-55.3277
23.3714
-621.089
303.428
138.285
496.425
-504.12
7.69521
226.193
166.897
-393.09
89.2326
31.3638
-284.676
-226.575
130.834
-161.805
45.5194
-285.395
-95.8509
62.6588
33.1922
166.242
-303.5
137.258
-24.7268
336.649
-123.215
92.4678
30.7474
51.2086
-162.083
72.5976
-128.185
55.5874
248.874
103.694
237.792
-155.442
-82.3503
45.6254
97.15
-416.921
296.054
120.867
-259.602
-361.487
184.219
52.3048
167.744
-508.283
340.54
-73.3325
-80.1764
153.509
32.0687
-103.445
71.3764
330.34
185.337
-12.7422
407.429
102.581
-164.967
439.144
-166.232
77.4183
-182.172
104.754
-503.286
291.861
211.425
-207.405
-270.539
477.945
-366.312
566.247
-199.935
277.291
146.692
-173.661
227.923
-54.2613
-142.744
262.236
341.883
-268.56
-73.3225
-160.958
279.65
-118.692
-189.231
-160.1
-11.1497
-267.475
278.625
81.9812
39.109
-121.09
155.824
-106.967
444.448
-369.235
-75.213
-198.231
92.1517
106.079
79.5773
297.255
-376.832
26.9277
-22.3488
336.873
107.575
-117.528
104.265
-103.777
-19.4384
-226.739
515.644
-288.906
-7.01966
184.201
-177.181
231.018
-414.802
183.784
-65.3001
-33.2403
98.5404
299.913
106.225
-63.7578
-7.06127
70.819
-205.015
189.366
15.6487
-207.449
116.268
91.1809
187.11
389.78
73.9634
-20.0987
-290.572
-126.349
218.744
-456.805
414.846
-511.923
97.0772
148.206
200.1
-31.0157
-169.085
174.273
-118.466
82.9979
-408.172
-55.1838
-62.3087
117.493
82.7635
3.83462
-86.5981
-152.472
38.6717
126.946
118.132
163.663
-350.72
187.058
-73.6193
123.544
-49.9243
162.879
-348.229
355.172
-205.349
333.52
-83.9158
-406.67
-227.909
-274.859
472.968
-198.109
427.766
-322.106
-105.66
-9.82002
-383.292
393.112
-367.897
-179.869
547.766
-224.61
-5.69356
120.611
-48.0133
-573.212
299.69
273.521
-262.698
-76.2397
-85.0656
-67.1553
52.4398
40.427
5.32454
41.5161
-560.928
382.681
178.247
70.1771
-115.19
-18.8319
65.5631
-46.7312
161.19
-145.252
191.415
-315.784
124.369
308.114
-243.405
-64.7087
86.8943
-396.464
309.57
196.899
-85.5847
126.359
234.229
-83.9062
-101.466
119.52
-76.0389
472.685
-312.142
-160.543
-263.314
359.078
-95.7642
-20.2728
178.626
294.059
-417.305
31.8424
385.463
-278.406
-205.177
77.0977
-174.68
97.5824
-134.766
-81.0488
215.815
112.553
186.911
-299.464
21.2296
-302.947
-270.264
-42.0076
7.51053
34.4971
-203.25
331.385
-128.135
522.248
-198.712
407.59
-77.8181
-285.734
136.443
88.0314
-5.26795
-270.021
-44.6272
314.648
73.3656
-387.985
-406.521
147.497
100.91
-12.3164
-88.5933
141.463
-218.721
77.2576
-118.7
269.619
-458.368
332.114
91.9049
-126.9
500.577
-163.704
-227.28
403.738
-176.458
174.253
-330.32
156.067
488.66
-117.672
57.2299
102.324
-281.885
108.224
264.068
-164.419
-99.6487
-180.78
292.067
-111.287
152.232
370.016
157.726
-263.251
105.525
390.898
-121.783
364.538
125.888
-490.426
312.212
-213.366
-98.8464
509.918
-540.179
30.2619
158.277
-113.084
-45.1923
388.13
-318.532
-12.1904
-145.034
-95.0963
-157.055
252.151
173.706
-199.495
25.7886
-44.6223
29.5362
-306.216
474.613
-168.397
-86.3153
-35.3371
-187.437
180.417
62.0918
15.6488
-89.6416
73.9928
301.778
11.1345
-312.913
-30.872
2.83475
28.0373
-101.856
455.493
146.388
142.953
-146.576
312.817
-228.762
163.469
357.888
58.7937
-162.897
-165.459
24.5703
196.853
-244.875
78.4903
-110.034
200.52
-90.4858
-0.35153
-47.9153
410.16
-183.967
-403.91
400.26
3.64947
-130.243
494.781
55.6381
-111.092
55.4543
68.6076
-52.1337
-102.535
154.669
-166.971
140.306
-51.0738
131.349
13.827
-145.176
64.5017
-124.951
60.4493
-252.722
133.176
-90.9226
-49.7385
140.661
-267.355
-298.637
116.995
181.642
97.2019
-65.1332
66.8471
-123.133
56.2856
57.3111
-192.077
109.931
157.437
-119.172
215.875
-96.7031
-13.3092
-16.693
30.0023
-91.4267
125.888
-34.4608
-372.745
194.442
-193.231
393.762
130.318
-246.474
116.156
228.031
150.065
-378.096
-27.0165
-28.4125
55.4291
329.31
98.4566
303.942
-102.806
-201.136
-166.951
404.949
-237.998
185.888
-71.0363
325.366
-254.33
327.782
121.58
-449.362
474.543
302.968
141.999
-444.968
264.961
-500.389
183.177
-25.1264
-158.05
-349.455
189.532
159.924
-130.523
-75.2794
205.803
64.8374
24.6292
-89.4665
-61.5436
-84.3135
3.51242
-407.422
-357.58
197.53
71.3678
156.022
-227.39
-377.493
306.457
199.036
143.563
-342.599
-48.7574
119.768
-71.011
-115.187
-142.53
257.717
568.847
-256.08
46.3425
102.687
-160.754
-268.77
429.524
-100.733
151.942
-243.612
414.54
-170.927
-370.789
38.2299
332.559
-195.924
-277.969
473.893
-72.7169
-95.1568
-565.439
366.724
198.715
287.621
-163.341
-124.28
-145.669
344.706
-140.228
49.3052
79.0537
-134.238
123.347
47.7465
-144.131
-491.111
250.508
240.603
-183.069
55.4282
-249.01
100.941
-267.947
-310.309
-66.2989
-237.814
119.662
-344.758
225.097
-192.48
-170.846
59.6231
111.223
-242.593
-74.5872
-98.4077
-38.9946
137.402
-28.6526
-26.8108
55.4634
-337.285
214.249
25.1401
-88.8199
63.6798
139.685
-170.701
178.337
-379.446
201.109
15.3901
-285.411
-163.91
293.847
-129.937
-198.748
244.268
115.023
-108.55
-74.9024
183.452
451.651
-461.471
-3.34505
-127.754
283.07
206.116
-489.186
-134.37
-48.6989
-87.2924
245.472
381.985
-394.728
78.9144
-14.077
429.551
-140.684
-288.867
121.546
154.013
-275.559
86.9571
-51.8187
-102.901
154.72
217.009
-61.4723
-155.536
336.948
53.9502
197.383
-23.6768
-502.701
174.435
57.4493
-108.331
-107.73
53.0543
54.6762
15.1257
69.3809
-84.5066
-131.701
-77.1688
208.87
34.0665
-128.582
94.5154
-99.9769
34.6768
183.867
-188.109
4.24193
221.173
-279.211
58.0377
-209.829
78.1276
-69.1168
-63.4794
-67.5914
-88.1144
155.706
143.26
211.533
185.377
-213.556
175.712
142.214
-107.8
-34.4143
-404.472
274.038
130.434
230.794
-106.912
326.122
174.455
336.111
122.149
-458.259
-127.423
-135.352
-538.261
252.007
286.254
186.326
-296.473
110.147
126.701
111.091
-112.17
78.6012
-60.3847
112.854
-52.4697
-297.572
-243.306
540.878
-485.094
427.243
57.8509
-255.45
111.118
-102.992
-463.387
-20.2593
483.646
238.071
269.49
-507.561
-126.648
-166.958
-158.025
-135.558
157.087
-25.7376
-357.493
150.088
-0.178089
153.711
-27.1324
-268.4
169.336
99.0638
64.3757
56.885
-137.659
-138.779
276.439
101.419
-85.7698
420.328
-284.556
-135.772
-163.089
337.342
-243.045
-6.63547
456.546
24.885
-90.8919
-60.2167
151.109
456.012
0.0832917
-456.096
-124.595
332.86
-208.264
99.1851
70.0416
-169.227
-400.253
231.141
169.112
-112.64
-105.851
-162.549
113.164
-57.5261
-131.284
307.2
-175.916
152.119
131.427
-283.546
-122.651
-44.2832
-271.255
-198.047
469.302
121.397
476.268
-330.278
-145.99
-130.806
123.691
-80.3712
-43.3196
18.0386
-71.4015
209.407
-271.569
286.854
-353.153
-442.022
370.302
171.072
-297.719
223.866
204.125
470.577
-225.876
-216.321
107.374
84.5862
61.4747
-91.6285
88.6427
-73.5171
-278.389
304.825
-26.4364
-292.543
-14.1988
76.5381
-129.923
53.3849
130.914
293.135
-176.14
241.616
-134.216
-107.4
-47.9797
47.6282
-276.452
86.7891
-138.923
283.35
-68.9769
-214.373
-289.131
527.203
488.444
-162.321
-361.002
255.083
105.918
-22.5434
478.556
-204.271
427.115
-85.6605
-184.014
269.674
109.824
-245.472
135.647
20.0694
316.289
-334.398
-247.104
581.502
169.759
-366.03
196.271
-290.726
390.368
-99.6418
-120.91
423.879
330.098
-139.149
155.401
-90.7031
368.392
-277.689
-32.6388
1.76681
-173.392
69.9263
103.466
175.541
155.844
83.6758
-67.4476
-273.039
340.486
-385.826
-78.8464
-128.722
-217.721
-355.198
223.914
-408.791
408.791
66.8013
-316.022
249.221
193.317
-357.419
164.102
198.291
85.0583
47.9492
18.9143
-66.8634
208.232
-384.214
287.748
-483.672
237.657
-46.3888
140.87
172.1
69.7834
184.936
-254.719
152.841
-101.458
-51.3837
-72.7389
-287.214
359.953
101.269
-186.803
85.5337
-56.6822
135.01
-78.3277
327.98
6.51695
-65.1347
69.9088
-262.738
312.533
-49.7951
40.475
142.702
69.255
24.1674
-93.4224
-333.848
-36.9406
26.7221