/*--------------------------------*- C++ -*----------------------------------*\
  =========                 |
  \\      /  F ield         | OpenFOAM: The Open Source CFD Toolbox
   \\    /   O peration     | Website:  https://openfoam.org
    \\  /    A nd           | Version:  7
     \\/     M anipulation  |
\*---------------------------------------------------------------------------*/
FoamFile
{
    version     2.0;
    format      ascii;
    class       volScalarField;
    location    "17.5";
    object      p;
}
// * * * * * * * * * * * * * * * * * * * * * * * * * * * * * * * * * * * * * //

dimensions      [0 2 -2 0 0 0 0];

internalField   nonuniform List<scalar> 
7724
(
0.251253
0.00647715
0.650132
0.389921
-0.00203362
-8.91885e-05
0.679567
-0.0124522
-0.00028311
0.171415
-8.44125e-05
0.00566519
-0.0186149
0.0862191
0.178272
-0.0242447
0.255341
-0.0242772
0.00259427
-0.1083
0.113919
0.00372828
0.063105
0.332175
-0.0315145
0.280431
-0.00188119
0.10554
0.276015
0.00591139
-0.0331714
1.15293
0.0621823
-0.00114504
-0.000251959
0.140686
0.00674616
0.652087
-0.0104776
-0.000800188
-0.00956195
-0.0233327
-0.107223
-0.0622395
-0.000480027
-0.000198036
0.00367341
-0.010775
-0.000163808
-0.10635
0.00845005
0.100109
-0.0396937
-0.00483214
0.139361
-0.0111049
0.00281766
-0.0124515
-0.0509634
-0.0011943
9.532e-05
0.0108203
0.0866119
0.00624695
-0.00230187
-0.0324671
-0.000230106
1.01451e-05
0.0547565
-0.0100946
-0.000181501
-0.0872659
-0.0304782
-0.0514078
-0.0234827
-0.072274
0.633868
0.111682
0.0852363
-0.0964272
-0.0178593
0.619316
0.161089
-0.0537024
-0.00337531
-0.00539257
-0.0133201
-0.0385162
-0.00155015
-0.0104988
0.283071
-0.0804175
-0.000319142
0.00284789
-0.00835811
-0.0529711
-0.0830066
-6.46596e-06
-0.0037262
-0.00274597
-0.0880338
0.0954414
-0.00793251
-4.80062e-05
-0.0725641
0.28551
0.98438
-0.0117993
-1.36374e-06
0.0576708
0.366724
-0.0671725
-3.51801e-06
0.061169
0.287281
0.00109081
-0.0821661
0.229435
-0.0623789
-0.0525996
-0.0913891
0.589564
-0.101125
0.0238647
-0.0891326
-0.00228358
-0.0298201
0.00467726
-0.00242903
-0.033303
-0.1367
0.0877988
-0.00143159
-0.00182406
-0.0555708
0.357752
0.764053
-4.13525e-05
0.018807
-0.114234
-0.0487137
-0.0739007
-0.0728785
-0.0493705
0.997204
-0.0288132
0.278262
-0.0495025
-0.0673281
0.58701
0.134052
-0.0657001
-0.00352018
0.0355798
0.160805
0.587222
-0.0825802
-0.0185355
0.905801
-0.000148522
0.00138966
0.345022
-4.55363e-05
-0.00487433
-0.00941462
0.43808
0.439244
0.945994
-0.00553082
-0.00730698
1.15024e-05
-0.0946714
0.00106852
0.0161716
0.0203958
-0.0664414
-0.0485268
0.159256
-0.000316983
-0.00119249
0.392668
-0.000147688
-0.000270278
0.675319
-0.00141477
-0.0573286
-0.0587119
-0.0485909
-0.034032
-0.111731
-4.97016e-05
-0.0801318
0.160896
-0.00800858
0.000171706
0.249142
-0.00297899
-0.0313143
-0.032878
1.37438e-05
0.00227499
0.371806
0.197637
0.602887
-0.0738727
-0.0600451
-0.136551
0.114702
0.371345
-0.00051356
8.4437e-05
0.926151
-0.0206859
-0.00149288
-0.0766176
-0.0312181
0.522661
0.542799
-0.0806244
1.0897
-0.00276052
-0.0238585
-0.0902416
0.137225
-0.131116
0.189649
0.911395
0.000147578
0.0250535
0.245068
-0.00991809
0.223388
-0.00131759
1.02157
0.577901
-0.0132339
0.00675658
-0.000743772
0.100674
-0.000231569
-0.0150533
-0.107756
-0.000181161
-0.00322878
-0.00104699
0.223294
-4.60471e-05
-0.0109013
-0.0938071
1.15204
0.0774983
0.996825
-0.000110757
-0.0369484
-0.000460341
0.620312
0.0104047
0.765927
0.00345838
0.00193775
0.0119734
0.119893
0.00147016
-0.000558695
0.00130601
-0.0104411
-0.0567835
-0.000103542
-0.0798877
-0.00896936
-0.000350507
-0.00154945
0.719481
-0.0185586
-0.00188881
1.09508
-0.00355363
0.321947
-0.000512417
0.00134275
1.91311e-05
-0.0562022
0.132018
-0.0405918
-0.0513776
-0.00101233
-0.0955658
-0.0360727
-0.00044518
0.00125806
-0.00533768
-0.0178991
0.00757469
-0.00301003
-0.0513583
-0.049123
-0.0506863
-0.0474699
-0.0636475
0.531577
0.560881
-0.00369009
-0.0816282
-1.77073e-05
-0.00578949
-0.0533434
0.322513
0.179892
0.000238011
-0.00533258
-0.0619116
0.252912
-0.00246055
0.00927859
0.00315552
0.045391
-0.142777
0.429789
-0.00395202
0.00314566
-0.000285335
0.010412
-0.000132121
-0.0400809
-0.000853678
0.010929
-0.11981
-0.0635315
0.00464737
0.0224586
-0.0018274
0.0499959
-0.01775
0.11593
0.233135
-0.172486
-0.0674156
-0.0370349
0.0132194
-0.10491
0.969775
-0.0575466
0.0754553
1.06513
-0.00381276
-0.00432084
-0.0730673
-0.00265991
-0.0237784
0.0164157
-0.00690984
-0.00514649
0.256196
-0.000172538
0.00140372
0.000190334
-0.00840533
-0.0171
-2.14178e-05
-0.00272807
-0.0489039
0.914724
0.00633025
-0.0202913
0.839413
0.509751
0.103497
-0.0687088
-0.0956992
0.012682
0.420383
-0.0262035
0.407394
-0.0399807
-0.113827
0.211362
0.400689
-0.075375
0.168906
0.167149
0.351497
0.112113
-0.00753455
-0.0104008
-0.000222241
0.00764607
-0.0267343
0.00257341
-0.00026911
-0.00399692
-0.0955163
0.0978123
-0.0389354
-0.00653989
-0.00935065
0.000429117
-0.0170672
0.00449789
0.146082
-0.00466735
-5.62898e-05
-0.000140974
0.000117858
-0.0468411
0.249355
-0.00987808
0.0697042
-0.140585
0.640677
0.00829153
0.0171957
-0.0125754
0.692178
-0.0026362
0.415052
0.284552
-0.000293211
-0.0435969
-0.00813109
-0.0706888
0.00144055
0.116929
0.00831145
0.0159669
-0.00212996
0.201227
0.261551
-0.0661582
-0.0490291
-0.00565851
-0.0364779
0.0403789
1.13137
-0.0691015
0.0114979
-2.07769e-06
-0.0307372
-0.00563277
0.0457818
-0.117186
-0.0906897
0.706439
0.231676
-0.122883
0.256243
0.677354
0.0688051
0.00314217
0.420282
-0.0022343
-0.000460297
-0.0396635
0.000216876
-0.14986
-0.000780379
-0.0512458
0.00494037
0.265052
-0.00442282
-6.14312e-05
-0.121606
0.00448506
0.0381239
-0.08491
-0.111665
-0.0580433
0.24823
0.205065
0.210852
-0.00051536
0.0824114
0.12548
-0.00131516
-0.0375336
0.001549
0.0139888
-0.00600187
0.0121857
-0.0019407
0.107013
-4.98944e-05
0.000498657
0.00508794
-0.0484219
0.0513522
-0.0485051
-0.0564973
-0.0527879
-0.14119
0.0170536
0.401118
-0.0988489
-0.0159767
1.03656
-0.0812812
-0.0179334
-0.0563386
-0.0144661
-0.0456726
-0.0237781
0.0685038
-0.0676335
-6.62554e-05
0.0601989
-0.00024325
0.560323
0.054917
-0.0117993
-0.031921
-0.000473857
0.623588
0.458678
0.062375
0.0841709
-0.0862266
0.793996
-0.000160633
0.0408003
-0.0403903
0.176759
0.960415
0.0279811
0.227924
-0.00458101
-0.000512807
0.0736159
-0.118548
0.6538
0.0433607
0.35108
-0.0168277
0.663061
0.436918
-0.0211987
-0.0180231
0.0639189
-0.113839
-0.000214173
-0.029477
-0.1095
-0.0888259
0.0280303
0.0230929
-0.000312195
0.453127
-0.00262889
-0.000261179
-0.0428889
-0.0012238
-0.000561619
0.00841709
0.305608
-0.109051
0.884913
0.000155364
0.292106
-0.0350028
-0.000190631
4.59709e-05
0.271561
0.306402
-0.00974264
0.288712
6.54405e-05
0.302437
-0.168069
-0.0221634
0.717749
-0.0734697
0.0806226
-0.0540226
0.293416
0.294596
-0.0363203
-0.0457498
-0.0141568
-0.00684771
-0.000502908
-0.00291952
0.386004
-6.92476e-05
0.29768
-0.104727
0.54591
0.28465
-0.1118
0.84561
-0.00386686
0.0114325
-0.0611758
-0.04372
-0.0152206
-0.0400742
0.0618898
1.02662
0.000107414
-0.00455979
-0.0656948
1.53221e-05
0.566673
0.00456144
1.46671e-05
0.000477434
0.000942221
-0.038229
0.0441142
-0.00367713
-0.000215988
-0.0161174
0.00597791
-0.128141
-0.102915
0.0522351
-5.46189e-05
-0.162641
-0.0288048
0.0864158
0.547867
0.00283634
0.112933
0.000376064
-0.0276331
0.155343
-0.0152568
0.313096
-0.0283177
0.0463518
0.161107
0.223078
0.0106942
-0.0226985
0.221879
-0.104278
0.625411
-0.0204716
0.320391
-0.0203646
-0.00275511
0.217809
0.0022899
0.148688
0.00467982
1.28627e-05
-0.137811
0.142362
0.00353437
0.0905884
-0.0269057
-0.163797
0.00682869
-0.0502222
-0.00396225
-0.0193499
-0.0934649
-0.0578101
-0.0214378
-0.00036429
0.667062
0.114792
0.0690931
-0.000480236
0.443052
9.6542e-06
-0.000441818
0.13574
0.00299877
0.129593
0.103983
0.0404354
-0.0524234
-0.137491
-0.0570188
0.00321937
-0.0827619
-4.6965e-05
0.00894615
0.301949
-0.0346627
-0.00657167
-0.0173718
-0.0046211
-0.000980108
1.07188
-0.0216128
-0.00131304
-1.35348e-05
0.226652
-0.0604401
-0.00078901
-0.00649494
0.261795
0.130974
-0.0744228
3.33596e-06
0.291031
-0.0342808
0.256901
0.0392824
0.0482921
-0.0609394
-0.000231297
0.157334
0.116513
-0.0221714
-0.0960886
0.395282
0.0147505
0.207048
-0.00609942
-0.0415148
-0.000940848
-0.00357608
-0.000261141
0.248537
0.247527
-0.00349892
0.044956
-0.0366969
-0.0776272
-0.0873355
-0.00437486
0.037601
1.01592
-0.0284377
-0.000134704
0.131339
-0.0088047
0.852015
-0.0267037
-0.0254244
-0.00580405
-0.0292955
-0.0154085
-0.0171344
-0.00795642
0.00363719
0.0512024
0.000252918
-0.161959
-0.0386695
0.50817
-0.071606
0.148174
0.00496405
-0.0584072
-0.0267565
0.33857
-0.0161706
0.000253024
-0.0335239
-0.0122854
0.042494
-0.0552527
-0.0476313
-0.0317258
-0.0311594
-0.0124083
-0.0945631
1.36814e-05
0.0722269
-0.0829245
0.129137
-0.064471
0.14817
-0.100539
0.409551
0.0113909
-0.0628998
-0.0291213
0.906836
-0.135372
-0.0279438
-0.131594
-0.0510743
-0.118851
-0.0692335
0.216721
-0.00653667
0.408961
0.0209556
-0.000934527
-0.00285268
0.117664
1.16537
0.00255615
-0.0355186
0.274371
5.50798e-05
-0.0438096
0.0636946
0.000652219
0.0212459
-0.0038192
-0.0565019
-0.00712468
7.05832e-05
-0.0699554
0.349665
0.00521766
-0.0353031
0.00458493
0.273171
-0.000907957
-0.00294285
-0.000859866
-0.00184616
0.00046626
0.00486395
0.00684336
-0.0378834
0.000108793
-0.128486
-0.108879
-0.143745
-0.0317819
0.0349093
-0.000509916
-0.0274835
-0.0918392
-0.00818504
0.553069
-0.00298749
-0.0997797
-0.0110854
0.0159694
0.175741
0.00104541
-0.000375561
0.0682928
-0.0159048
0.034839
-0.00698436
-0.00490078
-0.0846245
-0.000426364
-0.00113636
-0.028603
0.475743
0.33724
-0.0502411
-0.0799996
0.0173998
0.00931245
-0.0179973
-0.0911436
-0.0228368
-1.08491e-06
-0.017358
-0.0518294
-0.0995785
0.00942986
-0.0800644
-0.000954917
-0.00704619
0.291689
-0.0585296
-9.92603e-06
-0.00663085
-0.120313
-0.000399253
-0.0289358
-0.00012373
0.0093708
-0.124756
-0.0499538
-5.50613e-05
7.42209e-05
0.196582
-0.0656611
0.631646
0.312231
-0.0157347
-0.00139501
-0.0230441
0.000517951
-0.134534
-0.108653
-0.0544633
-0.0343558
0.264487
0.0184625
0.000638654
0.0127057
-0.134711
0.00471521
-0.0358095
-0.0890142
0.00384753
0.0379286
0.111268
0.0175534
-0.0468518
-0.0811733
0.287961
-0.0431416
-6.74432e-07
-0.122792
-0.0963111
-0.0514573
0.00942594
0.00180242
0.016222
-0.122544
0.0552024
-0.055061
0.136095
-0.0600744
0.0133949
0.0332795
0.0245099
-0.0560827
-0.137625
-0.000252095
0.22434
0.317838
0.0137328
0.166172
-0.0922183
0.0758815
-0.0653898
0.303797
0.155343
0.994769
1.04803e-05
0.144788
0.256516
0.0256529
-0.00269123
-0.0297524
-0.0351371
0.000101454
-0.029705
-0.0711733
-0.0325371
-0.0358206
0.000302524
-0.113782
-0.000688862
-0.00159915
0.369782
0.0115304
0.0129364
0.0350098
0.316023
0.0193
-0.000730313
-0.12414
0.0141937
0.589103
0.00231727
-0.0747147
-0.000414295
-0.00100738
0.0123858
-0.0694498
-5.9547e-05
-0.0179601
0.0486582
-0.00353121
7.37668e-05
-8.97164e-05
0.230677
-0.0476868
0.011946
-0.00201473
0.0151488
0.0270005
0.0149782
-0.000537788
0.44269
-0.109107
0.335091
0.372826
-0.00038834
0.0058067
0.146899
-0.00139934
-0.000490352
-0.00078586
-0.0135231
0.0251877
-0.0182447
-0.0315266
-0.092346
0.254924
-0.117101
2.34966e-05
-0.0314719
-0.0298604
-0.0566524
-0.00761342
0.0104975
0.00224747
0.0474208
-0.000934953
-0.000428995
-0.0282081
-0.00753217
-0.0401243
-2.86187e-05
-0.0241834
0.0565832
-0.0293029
-0.0386289
-0.0143175
-0.0192664
-0.0151035
-0.00907424
0.0143376
-0.0155993
-0.000193337
-0.000729425
0.0393396
-0.0200283
-0.00860868
0.0146798
0.00492502
-0.152394
-0.0182114
0.236174
-0.020607
-0.0808552
-0.0390285
-0.036614
-0.0253581
-0.00655998
0.00393766
-0.00615274
-0.022776
-0.0261908
0.266017
0.199824
0.0761648
0.541214
-0.000132994
-0.00572902
-0.0266935
-0.0134372
0.0997721
-0.0327549
0.0696959
-0.00740715
0.269809
-0.00338569
-0.00283829
0.0241121
-0.0280641
-0.000395886
-0.0343312
-0.0102101
-0.0336937
-3.6874e-05
-0.0114803
0.00354932
-0.0284297
0.0535414
0.0589345
0.0321938
-0.0228184
-0.0502658
0.177017
-0.00223353
-0.00343479
-0.00369432
0.826934
-0.000165159
0.105449
-0.0343036
-0.0330373
-0.0424039
-0.0635849
-0.0459493
-0.0544626
-0.0295974
-0.00798799
-0.000177689
-0.00742087
-0.0350451
0.152286
0.00300628
0.133287
-0.0523991
-0.0216236
-0.00161355
-0.0461903
-0.00018682
0.223514
-0.0482241
-0.0419887
-0.0383481
-0.00679447
-0.0522341
-0.00294894
-0.0641736
0.157086
-0.0414445
-0.101867
-0.00255644
-0.0432628
-0.0298873
0.026076
-0.00562319
0.214986
-0.00418573
-0.0309607
-0.00118252
0.241341
-0.0616561
-0.0424076
-0.00564576
-0.0161174
-0.00478895
0.231717
0.0114488
0.169885
-0.0083395
-0.00143291
-0.00220454
-0.00404232
0.149229
-0.0933726
-0.0117413
0.00059423
-0.0125252
-0.0172508
-0.00157572
-0.0226876
-0.0254825
0.0920205
-0.0085779
0.00773219
0.829155
-0.0954722
-0.0460785
-0.0893933
6.33557e-05
0.118718
-0.00615226
-0.043075
-0.00969574
-0.0566549
0.00741882
-0.000935941
-0.00504502
0.00572561
0.302485
-0.0100949
-0.00311273
-0.00804035
-0.081984
-0.0142459
-0.0357245
0.0075218
-0.0149143
-0.0153623
-0.00568881
0.305003
-0.0723825
0.00566477
-0.00732769
-0.0441926
-0.0235613
-0.0775066
-0.00244314
0.141395
0.0387764
-0.0134608
-0.00300611
-0.0228046
0.844345
0.304376
-0.019115
-0.00101311
-0.00414436
0.00640369
-0.00689679
0.035379
-0.000729546
-0.0262096
-0.00343827
-0.0280957
-0.123961
-0.00185301
-0.0187364
-0.00236488
0.490774
-0.0110869
-0.019777
-0.0388268
-0.00336588
-0.0480176
0.0106292
0.724434
-0.0181883
-0.0192536
-0.00368484
-0.000815173
2.50439e-06
-6.94404e-06
-0.0171873
-0.001159
0.116501
-0.00117855
-0.00316092
0.0141024
-0.0004532
-0.0698018
-0.0846073
0.0291734
0.0646231
0.0437269
0.00563987
-0.0593435
0.139572
0.109776
0.148826
0.186754
-0.0217834
-0.00150038
-0.00998311
-0.0940112
-0.00610132
-0.0251101
-0.00234712
0.421438
-0.0741031
-0.000848258
-5.49974e-05
-0.00255451
-6.74521e-07
0.0150162
-0.000975596
-0.00794566
-0.0747819
0.00094823
0.00463579
-0.000383017
0.0918744
-0.0257209
-0.0567684
-0.00211214
0.512387
0.30035
-0.0170517
-0.0991872
-0.0448952
-0.0391596
-0.0240731
-0.00325376
-0.107294
-0.049396
-0.0663514
-0.10263
-9.14484e-05
0.25699
-0.0228838
-0.0163513
-0.0452383
0.0317861
-0.00093098
-0.0142524
-0.00237239
0.0214922
-0.00264207
0.192308
0.000612929
0.0172455
-0.000726134
-0.118905
0.0153456
-0.00132759
0.0145715
0.000703563
-0.0042327
0.163408
0.00232267
-0.00251104
-0.000222481
-0.00100314
-0.000885991
-0.0938041
0.190048
-0.00716251
-0.000471758
0.0157116
-0.00080178
0.347306
-0.0922357
0.33371
-0.0674931
-0.000790588
-0.000506726
-0.0124774
-0.009691
-0.00110684
-3.24399e-05
0.0418397
0.0480887
-0.000414624
-0.000585094
-0.0323601
-3.90109e-05
0.253973
-0.00163049
-0.0814167
-0.0312575
-0.0108768
-0.0853294
-0.0936331
0.229313
-0.0294456
-0.0331375
-0.000556754
-0.0870292
-0.0338217
-0.00652211
0.0765312
0.536023
-0.0020408
-0.0910695
0.0209604
0.423422
0.0641789
-0.000211633
-0.0103301
-0.00700178
-0.0085065
-0.0740575
0.130244
0.0003062
0.0289021
0.00517517
0.104044
-0.000912873
-0.000217423
-0.107637
0.37682
-0.0840946
0.190215
-0.0021757
-0.000353892
-4.24022e-06
-0.113218
-0.065035
-0.000600012
0.137486
0.0190984
-0.00916434
0.674899
-0.000690395
-0.00635801
-0.0902802
-0.0364084
-0.00394046
0.205283
-0.0840268
-0.000292259
0.0199217
-0.000310141
-0.000179428
0.197126
0.00116201
-0.000792127
-0.0792798
-0.0397438
-0.00601695
-0.0436112
0.00420475
-0.0370113
0.00293231
-0.00601018
-0.0984913
-0.0596072
0.0285711
-0.00156146
0.227046
0.315349
-0.120872
0.0163617
0.0322593
-0.00735689
0.251747
0.14698
-0.0447333
-0.000285628
0.0167588
-0.0845379
0.0185694
-0.0446164
-0.00362711
0.0651464
-0.0442519
-0.000242126
-0.00013144
-0.0520201
-0.0407136
-0.0417162
0.0164854
-0.00570366
-0.0686756
-0.000269337
-0.00240711
-0.000366965
-0.0528579
-4.20471e-05
-0.00333701
-0.0659693
-0.129042
0.0965474
-0.00512149
0.00720129
-0.0345083
-0.0408866
-0.00022772
-0.0714255
0.0746897
0.238428
4.15685e-05
-0.000197244
0.242908
-0.00432434
-0.117618
-0.0628849
0.00586261
0.000833813
-0.103348
-0.0366073
0.248908
-0.0862819
-0.00254394
-0.0154725
-0.0802718
-0.00100172
-0.000421191
-0.00157568
-0.024447
-0.078747
0.153645
-0.000368018
0.867919
-0.0458993
0.000196442
-0.00167602
0.000426619
0.000489943
-2.55758e-05
0.000233273
-0.0811317
-0.00125327
0.000746365
-0.000347112
0.214017
-0.00977741
-0.000338414
-8.04676e-05
0.476987
-0.0348434
-0.0566636
0.00199995
-0.00124271
0.0858476
-0.000174562
-0.0210574
-0.157439
0.00381471
-0.0109885
-0.00017111
-0.000357491
-0.0487655
-0.088204
0.0124517
-0.138889
-0.0811409
-4.93724e-05
0.0357038
0.0536931
0.167583
-0.00296343
-0.00027524
-0.0863183
-0.0103827
-0.000868729
-0.0760177
-0.000242129
0.0602703
-0.000160667
-0.00219736
-0.0370537
-0.00362028
-0.089497
0.766325
-0.00282121
0.000471375
-0.0829425
-0.080028
0.0156476
0.00810639
-0.000265721
-0.0496447
-0.000149911
0.298213
1.08821
0.0827762
0.00528219
0.00624931
-3.30949e-05
-0.0444857
-0.000102901
-0.0118617
-0.0029176
0.000630586
-0.00575202
-0.0160108
-0.000216284
0.00151107
-0.013692
-0.000545896
-0.0166677
-0.0268767
-0.0103795
-0.0019615
0.960111
-0.00119647
0.00425485
0.000417214
0.023517
-0.0766034
0.0164767
-0.000308802
-0.000176285
0.00455468
-0.000193903
-5.26489e-05
-0.0192457
0.00119935
-4.22928e-05
-0.0785852
-0.00387862
-0.0860907
-0.00282159
-0.000120574
-0.00534949
-0.0125694
-0.0247125
-0.0369069
0.00404742
0.000885612
-0.000806618
-0.00336868
-0.000141025
0.417288
0.00270902
-3.4571e-05
0.00100834
-0.003464
-0.000619124
-0.0969653
-0.0837521
-0.00023115
-0.0118194
2.31971e-05
-0.00448476
-0.000129902
0.0581469
-0.000245979
-0.000329027
-0.00601734
-4.16884e-05
0.0229654
-0.000388284
-0.00216927
0.0317446
2.09128e-05
0.593015
-0.0823616
-0.0649551
-4.46008e-05
-3.67968e-05
0.00332409
-0.00203369
-0.0784713
-2.97142e-05
-3.98934e-06
0.00128797
-5.33626e-06
0.000647364
0.00077304
-0.000792487
0.00135347
-0.0809381
0.777763
-0.052301
0.503517
0.0154825
-0.0273799
-3.23714e-05
-0.00150722
-0.0202817
0.000242196
0.000484963
0.000287018
0.0699636
-0.00230614
-0.000381424
0.839355
-0.00092692
0.0010079
0.000865282
-8.06427e-06
-0.0270154
-0.00369743
0.00196004
0.000209941
-0.000908901
-0.000120518
-0.00158086
-0.0683125
-0.000717776
-0.00272226
-2.8462e-06
-0.000564942
-0.000446993
0.29218
-0.00076029
-0.00047308
-0.105712
0.00648076
-0.000150381
-0.0022822
-0.000107977
0.265541
-0.11092
-0.000512809
-0.000667083
-0.00321346
-0.000274411
0.0906555
0.161317
0.0342504
0.000874271
-1.1806e-05
-1.59935e-06
0.0829422
0.000431836
-0.0934412
-0.0378043
-0.026083
-0.0843403
0.968529
0.0034076
0.25956
-0.0241352
-0.0464916
0.270618
-0.000614086
-0.100264
-2.22523e-05
-0.0150021
-0.0761601
9.52257e-05
-0.074873
-0.00162063
-0.00991446
-0.00919688
-0.0668197
-0.0662738
-0.00533769
-0.0934109
-0.0687044
-0.000322402
-0.0201465
-9.23337e-05
-0.0590813
-4.84534e-05
-0.00032058
0.0274627
0.255875
3.03768e-08
-0.0708065
0.00614502
0.000131884
-0.0339432
1.00069e-05
-0.0226179
-0.000449638
-0.0604716
0.00021191
-0.000152238
-0.00343985
-8.76179e-05
0.249711
-0.0485816
0.0855741
-5.40962e-05
0.00107615
-0.0517074
1.29923e-06
-0.0880207
-0.101536
-0.0859017
0.876652
-0.0108452
-3.03562e-05
0.0435727
-0.0653333
-0.00428695
-4.5775e-05
-0.000149163
-0.0736731
0.00021375
0.00149712
-7.23451e-07
0.000268418
-0.0449169
0.0615694
-0.0887566
0.144058
-0.00894858
-2.10223e-06
0.0108396
-0.0776345
-3.6049e-05
-2.39133e-05
0.000548761
0.000111386
0.000695776
0.195063
0.0585656
9.76407e-05
1.88171e-05
-0.101375
0.315211
0.27098
-7.61764e-05
-0.057266
-0.0312798
-0.0171652
-0.0746363
-0.0140942
-0.00487973
0.221742
-7.28926e-05
-0.0423108
0.263071
-0.0760917
-3.131e-05
-0.0945569
-0.000299916
0.307767
0.0467732
-2.65436e-05
-4.81223e-05
0.278949
6.06568e-06
-0.000306567
-0.0194301
2.15285e-05
0.349105
0.00573325
-0.0122396
-0.0989724
-0.00629825
-0.109969
0.28726
-0.0178993
-0.0424588
0.00169283
-3.41697e-05
-0.00172268
-1.49056e-05
-2.82819e-05
0.0382691
0.283868
0.235471
-0.000746881
0.391447
-0.0186459
1.29072e-05
-0.0712966
-3.18715e-05
-0.0445299
0.0485345
-0.0236435
0.00751681
0.00322573
-0.01539
0.000419969
-0.00280158
0.0329304
-0.00480816
-8.46253e-05
5.14765e-05
-0.000106829
0.0522806
9.54073e-05
-0.0356976
0.416376
-0.0100004
8.81807e-05
-0.00578117
-1.81761e-05
0.0594197
-0.000601867
-0.000113621
-0.000145407
-2.27224e-05
0.332826
-0.00025727
0.336131
-0.0945668
0.000186943
-0.0801342
-0.000817474
0.2459
0.863805
-0.00235227
4.2671e-06
2.70231e-05
-3.65744e-05
0.187108
1.10686e-06
0.00179388
-0.039024
0.325168
1.13944e-05
2.56479e-05
5.18797e-06
4.33125e-05
-0.0332159
3.07307e-06
0.254602
-0.0260518
-0.000212142
5.14916e-05
-0.00343826
-0.0459176
2.55849e-06
-9.77821e-05
0.259434
5.86849e-05
-0.0506559
-0.0760551
0.000224281
1.35833e-06
-0.163086
2.18242e-06
0.247026
2.5946e-05
-0.000753328
1.9838e-05
-0.000296666
0.147372
5.4235e-06
-0.00272988
1.35592e-05
0.0217354
-0.00564688
-0.0105979
0.00145279
0.241371
-0.000454602
-0.000138866
-0.0146084
-0.0141125
-0.000413452
-9.2764e-05
-0.00150154
6.89888e-05
0.176339
-0.0168512
0.82331
-1.18179e-06
-0.0126082
-0.000269218
0.192062
9.81259e-05
-0.0420985
4.08082e-05
-0.00263436
-0.0528439
-0.00038857
-0.0255233
-0.0770003
0.00848053
-1.63879e-05
-0.0851281
-0.000557834
-0.000498437
-0.00916416
-0.022038
0.00220528
-8.84193e-05
-0.000732995
-0.00150005
-0.00213267
2.19836e-05
-0.00201823
0.830575
0.000166554
-0.00541148
-0.0550534
-0.111523
-0.0971918
-0.074436
-0.0349238
-0.000874461
-0.0249442
0.000132577
-0.000140173
0.820554
-0.000161113
0.236331
-0.000752692
0.000666126
-0.00189147
-0.0927469
-0.000703204
0.00108668
-2.6673e-05
-0.000660852
-2.83479e-05
-0.000136694
-0.0242
-0.000187439
-4.86159e-05
-0.00014242
0.000239379
-1.81766e-05
-0.0666983
0.215681
-1.69424e-05
-0.00100169
4.4239e-05
5.35672e-05
-0.00138942
1.57232e-05
-0.00150649
0.00047189
-0.000616821
-0.0984263
-0.00114999
-0.00302567
8.35388e-06
-0.00258484
0.000566598
-2.55245e-05
-1.68992e-05
2.32693e-05
-0.00132489
0.000895297
-0.0692173
-0.0428622
-0.0993089
0.00104338
-0.0030705
-0.0340437
-0.10003
-0.000160266
0.0259824
0.0113996
-0.00173503
-0.0192012
-0.086295
0.708525
-0.000702403
-2.57905e-05
0.00151173
8.47637e-05
3.06122e-05
0.118758
0.00608074
0.137915
-0.0562925
0.702118
-0.000869885
3.85184e-06
0.000251753
-3.14199e-05
-0.0022624
0.221052
0.34734
-9.55815e-06
-0.0002858
-3.02884e-05
0.327868
0.0290852
-0.00915518
2.02871e-05
3.35952e-05
0.0121919
-0.00115775
-0.108883
-0.0268583
4.07293e-05
0.00587434
-0.048918
-0.000103418
0.00309562
-0.000116375
-0.0711436
-0.0028982
0.215506
2.87714e-05
0.00285472
-0.000135751
2.5708e-05
0.000287275
-0.0366178
2.53181e-05
-0.00151823
3.83989e-05
-0.0314033
-0.0705331
-0.00503045
-0.0113474
-0.0139643
0.0153474
-0.0141552
-0.00407924
0.000116144
0.000173337
3.49081e-05
3.06178e-05
-9.67562e-05
0.0149382
-0.0877613
0.000820111
-0.0660363
-0.00507584
-0.0762734
0.00014947
-5.2443e-06
0.00222103
-0.0968428
3.11287e-05
-0.0658889
-0.0235863
-0.0363782
-0.0660147
4.58625e-05
-0.00566121
0.000323369
-0.164038
0.207926
1.87653e-05
-0.0911708
-0.0351922
-0.00695108
6.48766e-05
-1.47108e-05
0.0422805
-0.0265009
4.0626e-05
-0.0110334
-9.10289e-06
0.000359351
0.189138
-1.41874e-05
4.20357e-06
-0.000145832
5.91478e-05
0.00152802
0.000149164
-0.00854583
0.000388587
-0.0201713
0.00187385
-0.00034836
-0.0499401
-0.0663547
-0.0102
-2.56406e-05
3.67288e-05
-0.0900409
0.00962111
-0.0733467
4.84175e-05
-0.00840779
-6.12532e-05
4.16152e-05
0.107458
-0.0113411
-0.00456365
-3.09268e-06
-0.0281544
8.50364e-05
-0.10186
4.56523e-05
-0.114723
3.09159e-05
-1.00669e-05
0.000145076
0.00173201
-0.109324
-0.0287123
-0.10556
2.661e-05
0.000154693
-0.116522
-0.0384879
-0.0135956
-8.28589e-06
-0.0421469
-0.0768883
-0.117643
5.01477e-06
-1.32502e-05
5.55692e-06
-0.106071
-0.101903
0.0012261
-0.0177008
-9.65994e-05
0.21624
0.000159873
2.37787e-05
0.000249681
-1.73916e-05
-1.46537e-05
-0.00589806
0.00018708
-0.00416413
-0.0977944
-0.0208743
-0.0888274
6.66118e-05
-8.75606e-05
0.0787879
-0.0739845
-0.00769123
0.171947
4.62401e-06
-2.30446e-05
-2.10263e-05
0.115555
0.000288017
-8.71189e-06
-8.57518e-06
-0.0903829
-0.0246038
8.49978e-06
0.000124843
-0.014833
-0.0103635
0.000717442
0.349625
-0.0894219
0.000322242
1.10164
-3.44658e-05
-0.00113544
-0.0135046
-0.117679
1.01566e-05
-5.80833e-06
3.70412e-05
0.00797965
-0.050147
-0.000563756
-0.0757152
-0.0124398
4.50747e-05
-7.71391e-06
-0.0162429
-0.00513092
-0.0204982
-0.0939066
-0.0700493
-0.0602351
-0.0038237
-0.042176
-0.000107809
0.000585788
0.0125205
0.000894198
-0.00013529
0.00129041
5.01886e-05
-0.000158651
-0.0193045
-2.01872e-05
-4.91656e-05
0.0572431
-0.0301892
-0.000269936
-7.3939e-05
-9.8282e-06
0.385474
-0.0106598
0.0013282
-0.043855
0.000380173
0.000330021
0.000283832
-8.32607e-05
0.000798132
-0.0586707
0.0274396
-1.5337e-05
-0.000273605
-0.0641385
-0.0490149
0.0771139
-0.000808314
0.0031252
0.029258
2.38527e-06
9.96973e-05
-0.0717999
3.81177e-05
0.251563
1.20885e-05
0.0070083
0.00027635
0.000371183
-0.106772
-0.0117856
-0.028263
-0.00391588
4.54287e-05
0.0108514
0.0965808
-0.0195774
-0.000225324
0.146464
0.246459
5.84008e-06
-0.0799708
-0.000113849
-1.77526e-05
-7.58755e-05
-0.000930623
0.0323179
-1.22072e-05
0.000409644
-0.038743
-0.0403869
-0.0347262
0.490888
2.80895e-05
-0.000117672
0.259486
-0.00807801
-0.00614059
-0.00107268
0.255853
7.26472e-05
-0.00051482
7.30449e-05
4.17959e-05
5.40517e-05
6.14019e-05
0.000124915
-0.0280958
1.32202e-05
-0.00537961
-0.0688702
0.340338
-0.00023343
-8.44571e-05
0.00783567
0.132229
-0.0704112
-0.00123704
-0.107131
0.483636
7.3535e-05
0.649215
-7.50707e-06
0.00554607
0.0396403
0.000718992
0.719805
-2.85665e-05
-1.02199e-05
0.00196151
5.28824e-05
-0.00141926
0.000435149
1.80158e-05
-0.00320045
1.33893e-05
-0.000241798
-0.00536332
0.373485
0.0805638
0.0359417
-0.0677801
-8.54512e-06
-3.13123e-05
0.00561896
-0.0835331
-1.6871e-05
-0.0721581
-9.14604e-05
0.159774
0.0971471
-0.0515203
-0.0022092
-0.0189196
-0.00161134
-0.0235704
0.0065571
-0.0117988
0.0999891
3.77631e-06
0.262876
0.0414907
-0.000949964
0.312714
-0.021296
-2.07839e-05
3.78421e-05
0.000113674
-0.000351002
-0.000201635
0.380685
-0.00161101
0.38884
-0.00174251
0.252748
0.3241
0.132334
-0.0113269
-9.26239e-06
9.92936e-05
-0.0169666
-0.154959
-0.0751612
0.00251715
3.09198e-05
-0.0595046
-0.000508024
3.54024e-06
0.0017004
-0.00175397
-0.00103765
0.0535617
0.000128311
-0.0751039
0.0910229
9.88016e-05
0.000442648
-0.0226553
-0.0890027
-0.00120124
-0.000854785
2.01798e-05
0.000411561
0.0783525
-0.0270001
-0.0743701
0.0022061
0.115061
-0.0608196
5.80136e-05
3.77323e-05
0.0300617
-0.000155195
0.101018
0.00274679
-0.0216718
-0.000635266
0.00275929
-0.0566446
-6.55562e-05
0.000810342
0.00213069
-0.113852
0.196222
-0.096243
-0.042597
-0.000275767
-7.75596e-05
0.0111297
7.79728e-05
-0.114814
-0.101739
0.00092944
0.00560844
0.00632306
-0.134739
0.00105044
0.000312537
6.12128e-05
-0.0645438
4.82457e-05
0.000922835
0.187813
0.274999
-0.150612
0.0783734
0.0769725
0.0299983
-0.000265144
0.0194328
0.000205841
1.52495e-05
-0.000123955
-7.86339e-07
4.2316e-05
-0.000592346
-0.0123327
-0.0792658
-0.0157089
-0.0455028
0.0840727
0.0704742
0.00676548
-0.0982899
0.000263275
0.00766722
0.0185042
-0.000644074
0.116892
-0.0020169
-0.0175868
0.0199626
0.00913544
0.00168961
-0.00655187
0.0692734
0.00138728
-0.0314425
-0.026326
0.871246
-0.0393225
0.125929
0.0309761
-0.0584623
0.00373172
0.000163884
-0.00420558
8.97309e-05
-0.00430265
-0.0402489
-0.000118383
-7.82481e-05
0.359056
-0.005376
-0.065758
-0.030076
0.000339048
-0.00233913
-3.9301e-05
1.27695e-05
0.0617985
6.79643e-05
-0.00479897
0.117619
0.0102942
0.001879
0.0301968
-0.00934842
0.0069548
-0.147438
0.00145733
-0.00722466
-0.0875127
-0.00140789
-0.0130902
0.00128233
0.00172547
0.00166516
0.0597768
-0.000518185
0.00936827
-0.084613
-0.0330305
0.000524714
-0.0841265
-0.0240223
-0.0275513
0.000174648
0.010996
-0.104617
-0.00137997
-0.00788486
-0.0781429
0.000392039
-0.00192788
0.328212
-0.0339879
-6.843e-05
0.0137199
-0.0784682
-0.00172909
0.300115
-0.00357888
0.00170817
0.0946982
-0.00234062
0.0136351
0.197752
0.000111626
0.00196944
0.000292386
5.43175e-05
-0.00731155
-0.0115735
-0.000215192
-0.0385303
0.15031
-0.0589363
-0.108696
0.0019526
-0.00532807
-0.000982019
-0.0672713
3.9611e-05
0.0278185
6.70743e-05
-0.0255349
-0.00319594
-0.00807913
-0.0800679
0.172042
-0.116824
-9.03205e-05
0.27063
-0.00317526
-0.00410168
-0.092541
-0.121694
-0.0250292
-5.0693e-05
-0.00182551
0.0120123
-0.00503952
-0.00769783
0.000738396
0.134624
-0.0674027
-0.0179371
-0.0108339
0.037602
-0.00392418
-0.00159806
0.002872
-1.5561e-05
-0.00504044
0.169683
0.00133672
-0.161503
-9.59381e-05
-0.0119007
-0.00583039
-0.129974
-0.0185348
-0.150233
-0.00010913
-0.0001059
-0.00648325
0.0173105
0.00303543
-0.167278
0.130217
-0.0759923
0.000307084
-0.182855
1.73971e-05
-0.189638
-0.04055
-0.21117
-0.21332
-0.20959
-0.182531
-0.123972
-0.100166
-0.0780953
-0.0539149
-0.0288597
0.0483376
0.0762729
0.106752
0.182532
-0.013038
-0.0119258
0.0921157
-0.0279375
0.00151136
0.0258521
-0.0637939
0.000925686
-0.00107145
-4.69264e-06
-0.0228402
0.029228
7.52451e-05
-0.000499096
-0.0169379
-0.00892317
-0.210585
-0.0206509
-0.0876637
-1.17383e-05
0.000964739
-8.54673e-05
-0.0809074
-0.0141595
-0.0575666
-0.0164245
0.00291036
0.000381176
0.00783125
-5.49998e-05
-0.0160748
-3.1169e-05
0.000608501
-0.00950295
-0.0185168
-0.000407263
0.000535409
0.0774573
-0.0166551
0.0971452
-0.201397
-0.0127387
0.0212919
-0.0299623
0.00610187
-0.0343314
-0.00528762
-0.0201208
-0.0202197
0.548481
-0.00213291
0.000111258
-0.00940354
-0.0143774
5.53164e-06
0.126711
-0.00658348
0.503744
-0.150392
-0.0699435
-0.0424662
0.0709223
-0.00787034
-8.35621e-05
-1.24843e-05
-0.00677857
-0.0880784
9.1533e-05
0.484311
-0.00445264
-0.00800213
-0.000127328
-0.000626822
-0.0101929
-0.0036731
-0.101658
0.184144
0.00104102
-0.0227668
-9.89766e-06
0.0438384
-0.0127394
0.0317144
-0.0283305
-0.00878803
-0.00136741
0.00217501
0.019239
-2.00221e-05
-0.0156397
0.000936048
-0.000647531
0.000773229
-0.0424338
0.000405898
0.221424
-0.0169368
0.0062059