/*--------------------------------*- C++ -*----------------------------------*\
  =========                 |
  \\      /  F ield         | OpenFOAM: The Open Source CFD Toolbox
   \\    /   O peration     | Website:  https://openfoam.org
    \\  /    A nd           | Version:  7
     \\/     M anipulation  |
\*---------------------------------------------------------------------------*/
FoamFile
{
    version     2.0;
    format      ascii;
    class       volScalarField;
    location    "11";
    object      p;
}
// * * * * * * * * * * * * * * * * * * * * * * * * * * * * * * * * * * * * * //

dimensions      [0 2 -2 0 0 0 0];

internalField   nonuniform List<scalar> 
29540
(
0.0203838
0.237734
-0.0199267
-0.0762357
-0.00541982
-0.0826274
-0.0295264
0.0197791
0.00478742
0.000487683
0.013256
-0.0104778
-0.00102918
-3.55297e-05
0.234373
-0.0133578
-0.000292028
0.0869378
-0.00481826
-0.0233645
-0.00188551
0.00450082
-0.0201333
-0.00473496
0.875596
0.236158
-0.00111398
0.744268
0.221526
-0.00369606
0.0362157
0.111464
-0.115987
-0.0145967
0.752241
-0.0149436
0.266106
-0.0603329
0.0131589
0.0127098
0.0010806
-0.0366127
-0.000249418
-0.0394428
9.86183e-05
-0.00326466
-0.00902689
0.000223338
0.00778359
0.259105
-0.040626
-0.0677022
0.115015
-0.080224
-0.0130605
0.209471
-0.00765316
-0.00194111
-0.0101102
-0.035473
-0.000106441
-0.00466714
0.00577084
-0.013067
0.420059
0.824752
-0.0168584
-0.0190042
0.78752
0.00112457
0.233981
0.623578
0.00551509
0.830327
-0.0173602
0.0193334
0.213012
-0.0540325
-7.31068e-05
-0.0316879
-0.0743834
0.318167
0.0202657
4.53358e-05
-0.0254903
-0.165129
0.457191
-0.00107124
-0.000992985
-0.108761
-0.0481136
-0.0544666
0.00718909
0.109859
-0.111405
0.467759
-0.0613318
0.00117953
-0.0840602
0.283016
-7.86595e-05
-0.0508304
-0.000102783
0.0785301
-0.069304
0.201284
0.537486
-0.00095199
2.93298e-05
-0.106196
-0.115721
0.0247127
9.62459e-06
-0.00337706
-0.000270535
0.609568
0.344646
-0.0254963
9.73848e-05
0.00636315
-0.114619
0.253085
-0.0270003
0.822935
0.00262475
0.00695101
0.0950781
-0.0279128
0.00944965
0.000131169
-0.0365305
0.194528
0.609275
-0.0551974
0.0778252
0.0351582
0.510082
-0.0517818
-0.163869
0.271609
0.0162944
-0.0948349
-0.0931018
7.27561e-06
-1.06454e-06
-0.00555459
-0.00841364
-0.0911115
-0.120796
0.0477637
0.0588252
0.0294516
0.00108481
-0.000237576
0.334094
0.00128882
-0.016963
0.483419
0.399629
-0.0375266
-0.071596
-0.0741865
0.219543
-7.20196e-05
-1.35676e-06
-0.0256521
-0.0907322
0.000186396
4.35093e-05
-0.0152681
0.000161396
0.0131783
0.493159
-0.0510262
-0.0841707
-0.0110306
0.0048919
-0.0522911
-0.00270261
-0.0161983
-1.86432e-05
-0.00741235
0.453712
-0.017887
-0.161794
0.335525
-0.0138342
-0.0390919
0.00885392
-0.0033431
-0.000570072
0.00523184
0.835159
0.328739
-0.0299738
-0.0162791
0.702852
0.297202
-0.109875
0.00275505
-0.0559399
-0.0998151
-0.0100164
0.00203038
0.507126
-0.0147429
0.0158593
-0.0914507
-0.109028
-4.66733e-05
0.66431
-0.00224437
3.59059e-05
-0.0011581
-0.0452385
0.0350606
-0.00493968
0.0154663
-0.00469132
-0.109529
0.000148917
0.00115693
-0.00505615
0.165704
-0.00618481
-0.00321112
0.112421
0.000368375
9.25004e-05
0.0121852
-0.0581958
-0.0464909
-0.0103439
0.231684
-0.0319595
0.0311062
-3.73595e-05
-0.00659089
0.0018996
-0.0510737
-0.150144
-0.00300285
0.00115727
-0.00341037
0.00663592
-0.0228003
-6.70332e-05
-0.159503
0.00018362
0.168195
-0.00739751
0.000409312
0.204309
-0.101272
0.000645227
1.13428e-05
-0.0950139
-0.143868
-0.019473
-0.0308909
0.0586201
0.434762
0.000230926
-0.0560611
-0.0581416
0.720477
-0.0180242
0.330802
0.0268187
-0.000358869
0.989714
-0.00114857
-0.0883227
-0.108137
0.00523628
0.024322
-0.0181658
0.61693
-0.00758436
-0.0386475
-0.000494319
0.365682
-0.00646941
0.477091
-0.00108171
-0.0127263
0.713777
0.144498
0.112192
-0.0679901
-0.000291533
0.0064411
-0.000313675
3.75031e-05
0.157262
0.0001157
-0.0419358
-0.0613734
0.885523
0.603167
-0.0901755
-0.0402146
-0.0445056
0.0225469
0.00676145
-0.0395908
-0.0945724
0.444866
0.628784
-0.00279498
0.529089
0.152977
-0.026888
0.0256624
-0.00346638
-0.0160976
-0.0118135
-0.00585344
-9.50157e-05
-0.0039036
0.029766
0.373611
0.0038617
-0.057931
0.0298984
-5.13008e-05
-0.0922611
0.92658
-0.0139732
-0.00300736
0.0273918
-0.0301306
0.201005
-0.00325262
-3.28081e-05
9.67123e-06
-0.00591375
0.718324
0.0546457
-0.150762
1.24196e-05
-0.150981
0.122955
-0.0112736
-0.102868
-0.00274132
-0.000929539
-0.0531679
0.00223565
-0.0155995
0.024278
0.170111
-0.000221161
0.00509393
0.25071
-0.110081
0.00106921
0.00112897
0.604589
-0.0478975
-0.00357316
0.310716
0.732882
-0.0521749
-0.0158194
0.0444368
-0.0016796
-0.0189521
-0.00741263
0.291026
5.08131e-05
0.0234017
-0.119003
0.613399
0.820674
-0.0134227
-0.0199316
0.433414
-0.0371297
-9.1768e-05
0.1127
0.174765
0.177628
-0.0163147
0.058383
0.737129
-0.135107
0.665823
0.621136
3.24142e-05
0.0314445
-0.12333
-0.00650822
0.00393306
0.738895
0.0542478
0.000730464
-0.0710097
-0.101829
-0.0124717
-0.000214702
0.487071
0.337851
0.000195775
0.00975386
0.0128691
-0.103158
-0.0675701
0.000235839
-2.1241e-06
0.00124752
0.208404
-0.0599081
0.483021
-0.102828
-0.0388338
-0.0471627
0.304497
0.0165496
-0.00270804
0.0191376
0.00208959
0.674047
-0.0557019
0.00266338
-0.0168772
0.0215283
-0.00341667
-0.0275011
0.000625931
0.000637705
0.938352
-0.0181616
-0.0113781
-0.000931243
-0.00163801
0.413404
-0.120971
-0.0531694
1.72202e-05
3.12678e-05
-0.0575298
-0.0151874
-0.0117762
0.0402432
0.0147962
-0.00609313
0.0587802
-0.0387648
0.655516
0.0117635
0.000660464
-0.0900053
-0.0514102
0.0446472
-0.00766418
-0.053496
-1.89243e-05
0.793047
0.0455491
0.000269047
0.835146
-0.0548432
-2.03296e-05
0.00357198
-0.0920832
0.0263033
0.0995904
1.93474e-08
-0.0180932
-0.0132192
-0.0121007
-0.00103439
-0.0186988
0.709348
-0.0190143
-0.0265377
0.349612
-0.0064373
0.694224
-2.32291e-05
-0.0354985
-0.0918677
-0.0524183
-0.0763165
-0.0035565
0.0045446
-0.000281642
-0.0421103
0.0205381
-4.76751e-05
2.2799e-05
-0.0143114
0.650099
0.0175984
0.00613291
-0.111703
1.24235e-05
0.00245626
-7.75527e-06
0.0222649
-0.0389999
-0.000843216
-0.018002
-0.0278894
0.00255912
-2.44899e-05
-0.0448757
-0.000816078
0.111958
0.56805
0.441228
-0.00946054
0.0145679
0.0599671
-0.00014124
-0.00799942
1.53635e-05
0.627896
-0.030873
0.0396987
-0.0378392
0.00410378
-0.00715828
-0.000184698
2.76253e-05
-0.0110172
0.104087
0.409189
0.00309712
-0.0814264
-0.0553387
-0.017817
0.0511919
-0.00302383
0.00286373
-0.0127312
-0.000165481
-0.0942012
0.452757
0.314564
-0.0491038
0.442523
0.000269317
1.46411e-05
0.116192
0.0349621
0.823805
-0.0812944
-0.0470561
0.0321597
0.00294815
-0.0133219
0.00119493
-0.0238826
-0.0288487
1.80582e-05
-0.00203376
0.608454
-0.000240338
0.768913
1.57573e-05
-0.0607191
0.106281
0.0656197
0.00263775
0.000514878
0.636306
0.116715
-0.0941061
0.324369
-0.0150562
-0.0296033
-0.009352
0.389695
-0.0561754
0.0264391
-0.0172395
1.35053e-05
-0.00298963
0.0143425
-0.0395031
-0.0480223
-0.0892303
-0.0399297
0.214383
-0.00493277
-0.108051
-0.0306256
0.000158487
-0.0270132
0.0213299
0.217845
-0.0592348
-4.7675e-06
-0.0405326
-0.000852575
0.00350298
-0.136348
0.481538
0.00229334
-0.0266283
-0.0433725
0.147103
0.697117
0.00452239
-0.0106049
0.384997
0.278866
-0.0334536
0.0120216
-0.0979708
2.97476e-06
-0.0856327
0.000257411
-0.04376
-4.44094e-05
0.000105607
-0.0138143
0.00980432
0.572781
0.0229316
0.02798
2.79785e-06
-0.0144459
0.000261704
-0.00748772
0.000104788
0.105935
-0.0010577
0.314795
-0.000238316
-0.028575
-0.0753913
-0.00981164
0.69191
-0.0366486
-0.0885501
-0.0130253
0.0998082
-0.0865576
0.0652401
-0.0335114
-1.45161e-06
-0.011731
-0.00917638
0.000674622
0.00025236
0.38575
-0.011404
0.159977
-0.0097893
0.0021911
0.0724793
0.000464508
-2.63281e-05
-0.0846664
-0.00812256
0.000112077
0.410656
0.895614
-0.000437274
-0.0727032
2.10434e-05
0.747757
-0.0704603
-0.0760681
0.000195876
0.0274736
0.123698
0.144309
0.0977703
-0.000880718
-0.000248638
-0.0341343
1.30409e-05
8.52805e-06
-0.0571752
-0.059381
-0.0874959
0.859587
0.000554172
-0.0604028
0.0186365
-2.32233e-05
-0.00281273
0.000166057
-0.0140069
0.000136298
-0.0304088
0.0632524
0.685988
0.096996
-0.000598999
0.00120733
-0.109694
0.156566
-0.00717579
3.07527e-05
0.351247
-0.15833
-0.0787911
-0.0312858
-2.0155e-05
-0.00059381
-0.161666
-0.0447096
0.261849
0.652886
-0.0863512
-0.00292332
-1.91599e-05
-0.0885962
-0.114988
-0.000417377
0.00683324
-0.0323483
-0.0108515
0.627775
-0.00298942
0.00617616
0.22645
-0.0176663
0.827382
0.820184
-3.1914e-05
1.4967e-05
-0.0361731
0.0372297
-0.070461
0.0129114
-0.0171001
-0.00128847
0.725236
0.307079
0.00562546
0.977165
1.62812e-05
0.198696
-0.101828
-0.0588696
0.000298801
-0.0729793
0.20543
0.0356635
0.130598
-0.00100694
-0.00107467
-0.00713454
-0.00801593
-0.0299844
-0.00243259
0.228404
-0.0130418
-0.012102
-0.113776
0.594361
0.0326795
0.0712391
-0.000888752
-0.00114942
-0.0432973
0.00251242
-0.0060042
-1.863e-05
-0.000751719
0.206097
0.639062
-0.000255372
0.313525
2.12435e-05
-0.00775819
2.98747e-05
0.0132347
-0.0543681
-5.45701e-05
-5.61758e-05
-0.10498
1.39098e-05
0.0994013
-0.0505502
2.13056e-05
0.312518
2.4632e-05
-0.000887331
-0.000164949
-0.0116432
-0.000787184
-0.0140681
-0.114365
-0.000685908
0.010428
-2.70796e-05
0.56328
0.00362624
0.0303273
-0.0665221
-0.0471366
-0.00257979
0.00720701
0.369842
-0.0531872
0.314749
-0.0804009
-0.00801506
-8.09905e-07
-0.0131414
0.60868
0.344517
-0.0691858
-0.0994616
0.542095
-0.0190275
-0.0970447
2.89783e-05
-0.0524874
-0.00190022
0.954207
-0.0881547
-0.000160599
-0.106572
-0.0549464
0.422568
-0.00593172
-0.0569558
-0.00857159
-0.0128873
-0.00291166
0.421268
-0.147731
-0.0410092
-0.0325944
-0.0283381
0.013618
0.53244
-0.0398058
0.326101
0.00672255
-0.0773048
0.780437
-0.01936
-0.000484754
0.424185
0.613531
-0.00518909
0.0286131
-0.014906
-0.0657229
0.385969
-0.0895191
-2.34256e-05
-0.0166015
0.000109667
-0.010158
-2.58303e-05
-0.0103179
-0.00217669
-0.00717086
-0.0946684
-0.00132962
-0.00110781
-0.00249725
0.352326
-0.00470588
-0.00733323
-0.00678287
0.294625
0.0125942
-0.00074072
0.601734
0.80892
-0.0412774
0.7262
-0.0363551
0.564623
0.0129869
-0.0249742
0.00618698
-0.000986099
5.17693e-05
0.00615055
-0.0251669
-0.0412492
0.318735
-0.0472595
-0.0418282
-0.00203133
-0.0869198
-0.0496201
0.0154132
-4.22116e-06
0.0242927
0.175534
0.613221
0.0389833
-0.0277791
0.25314
-0.000656663
0.0788773
-0.0371279
0.00158957
-0.105195
0.00749066
0.566109
-0.00449583
-0.00113533
-0.000157141
-0.0939368
-0.00270996
0.958896
0.988889
0.0268428
-5.00218e-05
0.0187634
-2.02491e-05
0.124633
-0.00111227
0.0480268
0.886734
0.0549392
5.52282e-05
-0.0169528
4.26676e-05
-0.148569
-0.0694131
0.72392
0.000578814
0.0258914
0.00693947
0.000707738
-0.00478892
-0.000593388
-0.0124673
-0.0712328
-0.0463415
0.0155061
0.305034
-0.0271361
0.0139586
-0.0412189
-0.00378284
-0.0544182
3.53348e-05
0.000129035
-0.00453871
0.0599847
-0.0559932
-0.032571
-0.007526
0.00592485
-0.0332963
0.411774
-0.0260921
-1.1839e-06
-0.101428
0.667146
-0.0533638
-0.0243668
0.133347
5.32569e-05
-0.00133558
-0.0563218
-3.68244e-05
-0.000862462
-2.25429e-05
0.977654
0.0189027
0.00777331
1.289e-06
7.20182e-06
2.5167e-05
7.06832e-07
-0.0453111
0.616742
-0.0693704
-0.000850779
-0.000278652
-0.0105924
0.718559
-0.0937469
0.661552
0.0466313
0.243682
-0.000135658
0.710793
-0.00438512
-0.0186602
0.0268217
0.0178154
0.0202492
0.319615
-0.0790018
0.702443
0.483699
-0.0163352
-0.0549818
0.00425399
-0.0570689
2.99148e-05
-0.0017983
0.00575003
0.130994
-0.013018
-0.0454881
-0.00641117
0.856104
-0.111536
-3.15554e-05
-3.26369e-05
0.731613
-0.00966344
0.00509808
-0.0259742
-0.00437812
-0.029788
-0.0191281
-0.0472938
0.142186
0.0534361
-0.0196957
-0.0277945
0.000239489
-0.0112125
-0.00195273
-0.01548
-3.01427e-05
0.000163643
-0.0323447
-0.0391802
0.694734
-0.0367219
-0.000285993
-0.00283968
-0.000545238
0.597908
-0.0453479
-3.35719e-05
-0.0508414
-0.00868952
-0.00678
-0.0536117
-0.0621842
0.013332
0.107713
-0.104316
0.000211691
0.0116899
-0.0259442
-7.22613e-07
-8.40053e-05
0.200133
0.151494
-0.00165192
-0.0916379
-0.0903726
0.00110683
0.765625
0.000250733
-0.0296635
0.633207
-0.0326833
-0.068991
1.11635e-05
0.000401752
-0.068668
-0.0177985
0.00276244
-0.0616617
0.388093
0.457534
0.00138752
0.000589936
0.35656
-0.023781
-1.85543e-06
-0.00266533
-0.0527708
-0.0406187
-0.0186065
-0.00325893
0.322439
3.8453e-05
0.134713
0.460724
0.000115858
0.0208901
-0.000758426
-0.116905
-0.0256155
-0.0011659
0.0499893
0.000483803
0.378648
0.0027324
0.0400189
0.0328688
0.88463
0.585721
-0.098133
-0.0129424
1.03159e-05
-0.0250049
-0.0236784
0.257432
0.533206
-0.0612633
-0.0134864
-0.0281776
-0.0106311
0.240945
-0.000282124
0.715932
0.0439079
0.00011993
0.000116938
0.000231105
-0.0213293
-0.0294663
0.00135805
0.0849902
0.194974
-0.0906333
0.00106897
0.000175773
-0.038031
-4.12547e-05
-0.00451526
-0.0181949
-0.00100864
0.0335028
0.00755471
-0.00209974
-0.00599033
-0.0257066
0.585876
0.602398
0.0624359
2.75217e-05
-0.000795743
0.40897
-0.000648465
-0.128049
-0.0002683
-0.031829
-0.114643
-0.000246625
-0.000306955
-0.051299
0.00238463
-8.11442e-05
-0.00198603
0.335661
-0.0548339
-1.77344e-05
0.1551
0.564695
0.586582
0.00114585
-0.118167
-0.0145274
0.66342
-0.0991639
-0.101478
-0.00670733
-0.0201948
0.046294
-0.0401401
0.58642
0.130767
-0.000197063
-0.0833818
-0.111296
-0.00579883
1.33207e-06
-0.00266742
0.343402
-0.000216965
0.00139234
-0.00608249
-0.00175273
0.0143147
0.0460574
-0.000208143
-0.000147392
-0.0101918
-0.11589
-0.0553027
-0.107673
0.393126
-0.00239494
-0.000351709
-0.0553224
-0.0373102
0.0155461
0.0211582
0.000211681
0.11537
0.23508
0.0296794
0.0386746
-0.000881512
-0.0205378
-0.00737924
0.00214219
2.38333e-05
-0.0142009
-0.0060726
-0.00103171
-0.0170883
-0.00121227
0.405244
-0.0137938
-0.152756
-0.0366787
-0.0163644
0.0184809
0.744582
-0.0668944
-0.000118636
0.70678
0.265225
0.0121837
-0.00884975
0.0118625
-0.00380753
0.255624
0.000615244
-0.00410868
0.883882
0.466415
0.524155
-0.0680938
-0.00204275
-0.00179002
-1.95423e-05
-0.00188152
0.471442
0.13125
-0.00474306
-0.00700806
-0.000445828
-0.0379007
0.829595
0.633589
0.126092
-0.00420177
-0.0962142
-0.00673995
-0.00101599
-0.0311707
0.0221012
-0.0418128
-0.00525723
0.00151902
-0.122082
-0.116448
0.0471353
-0.0376971
-0.00547699
-0.03964
-0.000252951
-0.0104256
-0.00096949
0.554445
0.000127657
6.91698e-06
-0.0373248
-0.0300936
-0.0437375
0.0605101
0.000173243
-0.121459
0.101973
0.317435
0.945553
-0.0068968
-0.125573
0.0472644
-0.00305821
0.080665
-0.00083091
0.016229
-0.000219368
0.412699
-0.102875
0.0165641
0.198456
0.186656
0.00239426
0.00474396
9.49613e-06
0.667529
1.33507e-05
-0.0686216
0.00059658
0.00272099
0.290084
0.161355
-0.105082
-0.0591438
-0.00605531
0.984231
-0.107121
1.08088e-05
-0.0234949
2.25511e-07
-0.0216073
0.164602
0.318979
0.00147139
-0.0529956
-0.0140861
0.238864
0.0121991
-0.0489463
0.864273
-0.014808
0.000137347
-0.161458
0.893868
0.00323254
0.147583
-0.0653187
0.229864
0.00300169
0.0509039
-0.114238
0.00879732
0.0855001
-0.0356215
0.303886
-0.039515
-0.0292973
-0.00110751
-0.00112583
0.777078
2.1353e-05
-0.00815768
-2.78105e-05
-0.0120561
0.000621267
-0.0107963
0.400556
1.32509e-05
-0.00145606
0.0755345
-0.157671
-0.0349495
0.00187209
0.642571
-0.0756143
0.276704
-0.017834
0.250526
0.0107844
-0.00102936
-0.0883036
0.00128782
0.797745
-0.040762
-0.000109798
0.00356969
0.229242
-0.0167715
-0.00095644
-0.000126455
-0.114285
-0.00379429
-0.0146111
-0.105467
5.9035e-06
-0.102188
0.000758581
0.564107
-0.0152844
0.240555
0.00704564
-0.00543288
0.436421
-0.0805285
-0.163181
-0.0064098
-0.117544
0.450984
0.47835
-0.0210381
-1.98559e-05
-0.0233074
0.00721841
5.62188e-05
0.0840701
0.609599
0.019416
0.00252773
0.014223
-0.103851
-0.000202728
0.125
0.0754083
0.115767
0.0204156
0.042629
-0.000516022
0.285209
-0.0967613
-0.161592
-0.00142668
0.0312303
0.233477
0.00132148
-0.106934
0.352762
-0.058547
-0.108007
-0.112979
-0.121359
-0.121717
0.0823215
0.355731
-0.12893
2.75046e-05
0.00142621
-0.0441504
-0.00259468
0.0124376
1.92208e-05
-0.00852455
0.00620602
-7.09696e-05
0.0898038
-0.000697007
0.1945
-0.0495876
-0.00868392
-0.0102643
-0.0128014
-0.0987797
-0.00871799
-0.00144489
0.0328726
0.123887
0.00717544
-0.0500052
-0.00433976
0.0454289
-0.0141562
-0.0291175
-0.111376
-0.023974
-1.55598e-05
-0.0229919
0.705091
8.21931e-05
0.151076
-0.0631327
0.846873
0.0760634
-0.0704963
3.95843e-06
0.00269122
-0.121434
-1.63191e-05
-0.00397714
-3.01775e-06
-0.105168
0.00705365
-0.109404
-0.0348579
-0.000146821
0.442596
0.426839
-0.053705
0.000770243
-0.000204634
2.42198e-05
-5.83351e-05
0.768486
-0.00190873
0.00360491
0.0336968
0.00156027
-0.000819496
-0.113521
-0.000280041
0.0718637
0.00395309
-0.00306424
-0.00102231
-0.0390665
-0.0620215
0.289562
0.14436
-0.000197185
-0.019934
0.000927984
-0.0853947
-0.000780432
0.213265
-0.0133744
0.986809
-0.0221025
-0.0021075
0.118065
-0.0288657
0.55703
-0.0629797
-0.0170899
-0.0196627
0.0284669
-0.00540103
3.75716e-05
-0.0125562
0.49421
-0.0667393
-0.00482847
-0.0635272
-0.0412698
0.243966
-0.000698581
0.449472
-0.00317097
-0.0964615
-0.00073408
0.0205899
0.0715439
-0.00714291
0.53818
-0.000642955
0.0515334
0.140043
0.000879015
-0.000136131
0.826918
0.101977
-0.00122195
0.0464953
0.0309159
0.00026874
-0.0887331
-0.0339122
-0.147899
-0.0158599
0.535777
0.0067529
0.236463
-0.000541031
0.634661
-0.10563
-0.00798705
0.00976793
0.0490134
-0.0972116
-0.133703
-0.0130116
0.000127891
0.902522
-0.0345809
0.00136552
-0.0414349
-0.0604758
0.550167
0.00475581
-0.0249654
-5.57183e-05
0.112485
0.0125811
-0.0586721
0.00135428
-0.00522449
-0.043021
7.92739e-05
-0.0791652
-0.00229554
-0.0227092
-0.0978556
0.464951
-0.0156182
0.0497529
-0.0600485
-0.0481061
3.87882e-05
0.000294829
-0.00570868
8.21274e-05
-0.0172203
-0.0374068
-0.00308114
3.94141e-05
0.802357
0.00791745
0.000621298
-1.73429e-05
-0.00317578
0.529211
-0.0807128
0.903635
0.303931
0.0349325
0.457301
2.5264e-05
-0.0221247
-0.0012105
-0.00372274
0.317695
-0.0154287
0.911933
0.416619
-0.0860158
0.435162
0.0138982
-0.0218979
0.00359506
-0.0612145
-0.00603469
-0.0792524
-0.0859049
-0.00455398
0.429715
-0.0152292
0.000275289
-0.00655901
-0.000958063
-0.0533
-0.000201683
-0.00185149
-2.30218e-05
0.26068
-0.132178
0.443394
0.0440139
-0.00416092
-0.0501141
-0.0310782
0.116723
-0.00464543
-0.00156935
-0.0993551
-0.0694311
0.0156907
-0.0658354
-0.0068533
0.0152442
0.00406164
9.69904e-05
0.22416
-2.06196e-05
0.0905379
-0.00117219
8.3432e-06
0.00319759
-0.000954538
-0.00181502
-0.0247557
0.282593
0.242251
-0.031358
-0.0195844
0.00464165
-0.00787744
-0.0157826
3.60858e-05
-0.000690845
0.00117587
0.185347
-0.0133903
-0.086425
-0.0737173
-0.00346725
-0.0342791
-0.020203
-0.00258496
0.00843494
-0.0193421
0.396255
-0.101736
0.00935592
0.0029588
-0.0587958
0.888739
-0.0154912
-0.00761897
0.012285
0.132054
0.00640761
-0.00508865
0.431704
-0.000508055
0.0705996
-0.0360229
-0.0795461
0.0100831
-0.00572502
-0.00852379
0.065616
-0.00553713
-0.000885159
-0.000442724
0.00410187
-0.000294842
0.0502789
-0.0145147
-0.00308544
2.32169e-05
0.26364
-2.20993e-05
-0.048028
0.12752
-0.0371084
0.00032024
0.183426
-0.0591116
0.285256
-1.28889e-06
-0.00606219
0.130428
0.000335933
0.0078729
-0.00695745
0.0166152
-0.0325109
-0.0503101
-0.013777
-0.00408973
0.0157097
0.0327883
0.0546251
-0.000240025
0.191204
-0.0620645
-0.0050743
-0.0107273
0.000705516
-0.0845502
0.000153383
0.711149
0.357274
-0.000698252
-0.0332336
0.00029006
-0.003297
-0.00853362
-0.0238744
0.262564
0.236217
0.0251643
0.016155
-0.110961
0.0580021
0.0535276
0.0637975
-0.0783261
0.0256072
0.348251
-0.0147882
0.613154
-0.00135386
-0.0169487
-0.0741418
-9.04849e-05
-0.00109043
-3.92628e-05
0.608551
-0.0159808
0.000506191
-0.0241619
-0.00775031
-0.000443798
-0.0203879
0.460551
0.0016731
0.0172813
-0.0452248
-0.000638293
-0.0070027
-0.00116841
0.923564
0.000388583
6.05782e-05
-0.00292354
-0.022188
0.100045
0.000946361
0.0197762
0.12476
-0.000138727
0.00335968
-0.109409
0.0381176
-0.0622233
2.60361e-06
0.000633502
-0.00549561
0.0504237
0.506
0.150623
-0.0534128
3.00909e-06
-0.0778891
-0.00396078
-0.0193015
-0.0186672
0.29099
0.683491
-0.000121291
0.243752
0.388996
-0.0148667
-0.0264939
-0.0351536
-0.020177
0.000222367
-0.0613278
-0.0131885
-7.55492e-05
-0.000734623
-0.00232697
-0.00282292
-0.000943345
0.495141
0.532892
0.310744
-2.771e-06
-0.03565
0.0280948
0.171645
0.7201
-0.000680865
-0.0312288
-0.0282349
0.495668
-0.0292118
-0.014525
-0.00858227
0.250231
0.00055554
-0.000644096
-0.0382149
-0.0613099
0.220531
0.0615803
-0.0614056
-0.0363788
0.0757927
0.0315935
-0.0735811
0.0109604
-0.022501
0.20759
-0.000444574
-0.000853535
0.151287
0.000377729
0.0401929
0.0496438
3.00061e-05
0.453213
-0.0160913
-0.00666621
0.942654
-0.0558456
-0.0144526
-0.0584147
-0.0039402
0.676823
0.00189586
0.890529
-0.000141316
-0.0237868
0.912
0.0107759
0.673988
-0.00866242
7.15311e-05
-0.0360395
0.692518
-0.00231329
-0.0100231
-0.0123306
-0.00144194
-0.0324049
0.69124
0.174809
4.61541e-05
0.0313344
-0.00558059
0.0467112
-0.00126452
0.0361539
-0.00390437
-0.000598341
0.656293
0.709256
0.663088
-0.0769861
-0.00348317
0.000298257
-0.0851107
0.455003
0.02519
0.000461025
-0.0885183
0.00099688
-0.000115152
0.702979
0.000249548
0.00665519
-0.00282081
-0.0137496
0.669896
0.694193
0.712047
0.0184773
0.000848952
0.342178
0.0118714
0.0382831
-0.0137203
0.000144472
-0.00438606
-1.81976e-05
-0.00680258
-0.00104356
-0.00866791
-1.89878e-05
0.238648
0.00336851
-0.100183
-0.0138553
-0.104782
-0.0246397
-0.00108987
0.558859
-0.0162282
9.30164e-05
-7.55303e-06
0.878136
6.42227e-05
0.01776
0.087958
-0.0271631
0.48169
-0.00784978
-0.0646644
-0.0552003
-0.000643994
0.000247354
0.409897
0.708225
-0.0022362
-0.0324986
-0.000295794
0.702432
0.84766
-0.00207487
-0.00974223
0.0300473
0.00484067
-0.0368058
0.00019092
0.0158068
-0.0561298
0.0888123
0.564296
-0.00216127
0.0445923
0.147502
0.0390669
-0.0663422
0.0440371
0.822675
0.293566
-0.0799118
0.713985
-0.000784079
0.718848
-0.0109852
0.594802
0.119446
-0.00757781
0.0556701
0.00382285
0.0274256
-0.108203
-0.000932751
-0.0349829
0.593904
-0.0392163
0.0388706
-0.00212309
-0.0270957
0.282418
-0.0138039
-0.115995
0.00119241
-0.00537218
-0.0357621
-0.00314602
0.00317199
-0.013177
-0.000677377
0.00383933
0.587866
0.00351272
-0.023955
-0.0858555
-0.0431969
-0.0936061
-0.114289
0.00656478
2.559e-06
6.27061e-05
0.408606
-0.0799649
0.00012724
-0.0746499
0.277114
-0.0871651
-0.0223515
0.000226096
-0.00273939
-0.0682079
0.220185
-0.0128109
-0.000643692
-0.0680759
-0.029115
0.912831
0.171448
0.105639
-0.0726144
1.19064e-07
-0.00991832
0.0997174
-0.000473286
4.31159e-05
0.260546
0.153497
0.00102774
-0.00119559
0.0123576
-0.0538817
0.0158794
0.0126101
-0.0223809
0.000114325
0.451403
0.000985505
-0.000820132
-0.000273065
-0.000269003
-0.000164536
0.125192
0.00158192
-0.00405294
-0.0140633
-0.00694085
0.0438993
-0.00791196
-0.0610043
-0.0152528
0.642484
0.528444
-0.000640436
-0.00205795
0.148458
-0.00111179
-0.0303207
0.088496
0.0770673
-0.00134513
0.0313015
0.0611081
0.00208952
0.142904
-9.30222e-05
0.0113379
-0.0168053
0.0210512
-0.021231
0.0740436
0.000155102
0.000702082
0.000526682
-2.12502e-05
-0.00213825
-0.0140822
-0.0187036
-0.0425776
0.0793554
0.0579625
0.0138063
-0.0896806
0.0172651
0.0108833
0.0196266
0.000122437
0.691035
-0.0119284
-0.00464661
-0.0282642
0.925217
1.4939e-05
0.0843658
5.01869e-05
-0.0486654
-0.00920595
-0.0314855
0.259354
-0.00565003
6.62311e-05
0.244003
0.107873
-0.000718976
0.0771631
9.06292e-06
0.243364
0.0103851
-0.0405038
-0.000138856
0.364297
0.0426291
-0.0293844
0.000106745
0.252658
0.479166
-0.0015296
1.94823e-05
-0.0516155
-0.0128192
0.0107109
0.0345347
0.723424
0.409954
0.000797095
0.524805
0.372299
-0.00395235
-0.0794759
-0.0495472
-0.0224042
-0.0757785
0.157365
0.00129962
0.753689
0.220296
0.0183639
0.00022877
0.001024
2.09064e-05
-0.000695128
-0.00385775
0.812381
5.49736e-05
0.116735
0.0398615
-0.000257123
0.754483
0.849701
0.293985
0.344042
-0.0516622
0.00370077
-0.000328328
-0.015537
6.98011e-06
-0.00146745
-0.155471
7.28792e-05
-0.00245294
0.77125
-0.0163323
-5.76955e-06
0.798715
0.000761888
-0.0501605
-0.0972888
-0.00175091
-0.107319
-0.00027012
0.197798
0.00492981
-0.0240658
0.00288368
-0.000810517
-0.000458616
-0.000248262
-0.155664
-0.0842345
0.226561
0.00416194
-0.00645508
0.350563
0.000151236
0.89089
-0.000634675
-0.119026
0.00334941
0.00243718
0.0742354
0.0782002
5.14782e-05
-0.0057186
0.00020957
-0.000861643
0.00131128
0.122115
0.0709531
0.487759
-0.0585804
-9.62805e-05
0.000304828
0.143467
0.540198
-0.00612749
-0.00869349
0.886094
-0.0037789
-0.0289064
0.0013761
0.095169
-0.0560419
-0.0118252
0.231613
0.00201642
-0.00025804
0.00246096
-0.0265685
0.880582
0.688071
-0.0337846
-0.0524259
-0.00885767
0.00233075
7.64709e-05
0.109159
0.293044
5.00261e-05
-0.0100651
-5.01907e-06
0.00026907
0.64898
2.84949e-07
-0.103459
-0.0778859
-0.118193
0.100821
3.79681e-05
0.0143239
-0.00842595
0.598682
0.00279555
0.00724445
-0.0422971
0.0010023
0.540196
0.308417
0.0156775
0.0783495
0.781666
-0.0881676
-0.0799563
-0.00255209
-0.00964423
-0.000416529
0.034274
-2.05426e-06
0.243114
0.00426375
0.280917
-0.0480465
1.97143e-06
0.0810922
-0.000163207
3.26215e-05
-0.000941576
0.86681
0.831155
0.476956
0.000122959
0.246417
0.717475
-0.00126789
0.00251223
-0.0116561
0.103181
0.699724
-0.0383977
0.17661
-0.00339665
-0.0898633
-0.100971
0.956747
-0.000755565
0.687271
0.126964
0.279809
0.000272156
0.000370326
0.00777072
-0.0123515
0.119615
-2.37443e-05
0.00013679
0.673713
-0.122924
0.000511242
0.706544
-0.00309483
0.000291902
0.573669
-0.00939031
-0.00202095
-0.0327625
0.199913
0.000522747
-0.000113543
0.00501069
-0.00549409
0.669299
0.862392
0.423285
0.93116
0.125907
-0.0640977
0.788989
-5.10704e-05
-0.00437023
0.163603
-0.00467556
-0.000821653
-9.47735e-05
0.70535
0.0357911
-0.000807402
0.837957
0.107991
0.346
0.0620281
-0.0036498
-0.0286028
0.217856
0.103936
0.70638
-0.0328529
-0.000992044
0.645578
0.602921
0.0188021
0.498203
-0.0531409
-0.0106597
-0.0128538
-0.000798019
-0.000132879
0.65266
-0.0853768
0.0102509
0.00137998
0.225946
-0.0437341
-0.0229507
-0.00124199
-0.00511497
0.73172
-0.00101221
-0.0240307
-0.00402823
0.723308
-0.0266273
0.0282539
-0.0102259
0.00206333
0.220152
-0.0304693
0.746219
0.114389
0.929445
0.364922
-0.083191
0.044043
-0.00233629
0.0146984
-0.0682964
0.679046
0.725913
0.812701
0.476045
0.65962
-0.00039347
0.769071
-4.26067e-06
0.000140314
-0.0657204
0.835194
0.0709449
0.354464
0.000112273
-0.00287347
-0.0942349
-0.0474958
0.666623
-0.000851876
-0.0104531
0.475468
0.00154076
-0.00575734
0.900841
0.066422
-0.0536906
-0.170562
-0.000631472
0.0728452
0.0885533
0.941707
0.0826016
0.0468965
0.00613034
-0.000262688
-0.00721387
0.273833
0.00853194
0.000234608
-0.107639
0.348927
-0.00193026
0.691172
-0.0936333
0.698357
-0.0300318
-0.0312014
0.784245
-0.00720153
0.0257285
-0.000463911
-0.0016967
-0.0883572
-0.0308202
-0.0499856
-0.0132937
0.00902625
-0.112939
-0.0965485
0.698326
0.000457435
0.00115333
-0.0277992
0.165021
-0.11925
-0.0801931
4.52938e-05
-0.112132
0.0651351
-8.17791e-05
-0.10361
-0.105549
0.703249
-0.115542
0.691204
-0.018647
0.147724
0.356323
-0.0477971
0.458962
-0.00229033
0.127999
0.00161806
0.118426
0.274665
0.243739
-0.0384948
0.0085592
-0.000792596
0.249909
-7.48442e-05
-0.000119
-0.00132583
0.000694863
0.0225598
0.0206623
0.585159
0.211548
0.878654
0.540325
-0.00197891
-0.0447757
-0.00015349
-0.064632
-0.00152697
0.00805995
0.000971171
-0.0434803
0.47644
0.685025
-0.000331528
4.65449e-05
0.0353804
3.46758e-05
-0.0123391
-0.000171224
0.179294
-0.0481008
0.259978
-0.110072
0.000105955
-0.018722
-0.0532911
-0.0333653
-0.0220215
-0.0710505
0.0679579
-0.000170141
-4.65092e-06
0.00294389
-0.000114593
0.10303
0.0804475
0.0537338
0.816232
0.0611891
-0.145549
-0.116129
-0.00049771
0.0697733
-0.000102642
0.649216
0.135019
0.763705
0.000264537
-0.0438533
-0.00902706
0.0674185
0.231712
0.595692
-0.0100649
0.0423949
-0.0024893
-0.02526
-0.0106068
-0.00805326
0.144938
0.00225945
-0.0106845
-0.0271739
0.329466
0.0855866
1.27977e-05
-0.00109393
-0.00819191
-0.000737377
0.151437
-0.000812966
-0.0371647
0.196166
0.000145305
0.355831
0.000161594
-8.21049e-07
-0.11491
-0.0231528
0.000286761
-0.0302101
0.000319569
0.79971
0.0169488
-0.0327428
0.735754
0.172142
-0.0422199
0.574879
-0.00358229
-0.00239424
-0.00267664
0.112201
0.991774
-0.00188935
-0.000689519
4.14966e-05
0.0106935
-0.00156597
0.0343863
0.00840661
-0.028084
-0.0789069
0.0250563
0.0144941
-0.0249998
-0.000633321
-0.0298833
0.574274
-0.00229928
-0.0183216
-0.000244484
0.586911
0.0730056
0.56658
0.000662304
-0.0010282
-0.0317043
0.816833
0.196698
-0.0378465
-0.000119255
0.0425065
0.115578
-0.0270408
0.273376
-0.0636986
0.026745
-0.149268
0.595181
-0.0212465
0.339828
-0.0041206
0.942179
-0.0550876
-0.0145646
0.746764
-0.0573299
0.222748
-0.159709
0.248572
0.00880982
0.0668961
0.453981
0.0669484
-0.0642959
-0.0127651
-0.0100172
-0.0168686
-0.00223134
-0.00188937
-0.0746156
-0.0380174
0.00276971
-0.0874117
-0.10837
-8.38168e-06
0.131566
-0.0120179
0.123362
0.760083
0.524308
-0.0714383
-0.0935979
0.000724034
-0.0917909
-0.00563744
0.90988
-0.0470039
-0.0405613
0.516428
0.0642811
-0.0525401
0.298752
-0.0491186
-0.000740269
-0.015482
0.0136297
0.00102164
0.546078
-0.00349581
0.190434
0.470302
-0.00749552
0.327241
-0.120183
-0.000429765
0.00909781
0.100394
0.491686
-0.00325528
0.106802
-0.0914252
0.0903304
-0.0305966
0.529747
0.00733332
-0.0809622
-0.00400873
0.000305968
0.686647
-0.0031374
-0.0382787
-8.46978e-05
0.283644
-4.06593e-05
-0.0599043
-0.0025821
-0.158631
0.0010036
-0.0134991
0.246899
-0.00509709
0.00133421
0.000973078
-0.00538055
0.0610293
-7.14147e-05
4.87544e-06
-0.0111787
-0.0139277
-0.0301814
0.0110648
-0.00243206
0.0997774
0.106094
-0.00158596
0.00146039
-0.000185215
0.677335
-0.00547876
-0.00909736
0.58545
-0.0244887
0.538198
0.0648288
0.696868
0.311256
0.149158
-0.00188998
-0.00519114
0.107411
0.0303497
-0.00568831
0.000316807
0.0114226
-0.0679265
-0.0011829
-0.0109089
-0.0105201
-0.0121427
-5.46757e-06
-0.00425089
0.000126408
-6.52114e-05
0.00125555
0.468265
0.280343
-0.0145878
-0.00362278
-0.0684939
-0.0278944
0.329246
0.616461