/*--------------------------------*- C++ -*----------------------------------*\
  =========                 |
  \\      /  F ield         | OpenFOAM: The Open Source CFD Toolbox
   \\    /   O peration     | Website:  https://openfoam.org
    \\  /    A nd           | Version:  7
     \\/     M anipulation  |
\*---------------------------------------------------------------------------*/
FoamFile
{
    version     2.0;
    format      ascii;
    class       volScalarField;
    location    "24";
    object      p;
}
// * * * * * * * * * * * * * * * * * * * * * * * * * * * * * * * * * * * * * //

dimensions      [0 2 -2 0 0 0 0];

internalField   nonuniform List<scalar> 
20933
(
0.000331689
-0.00470728
0.0073115
-5.37152e-05
-0.00270739
-0.00304445
-0.0845116
0.393109
-0.0373548
0.382913
-0.0780344
0.24882
-0.0263087
0.000240401
-0.0014372
-5.65125e-05
-0.018675
0.231332
-0.0548008
-0.00402958
-0.0338458
0.260149
0.384842
-0.0920823
0.00542213
0.63936
0.000350996
-0.02358
-0.116743
-0.0562487
-0.000495649
0.73152
0.367753
-0.012668
-0.00054556
-0.000612757
0.435425
6.22398e-05
-0.00136397
0.196161
0.0141779
0.457726
0.523485
0.000153591
0.639557
-0.0110974
0.338416
0.111039
5.76704e-05
-0.0246473
-0.000584818
0.0450324
-0.0604912
-0.00114572
-0.0784621
-0.0194333
-0.0174185
-0.000780842
-0.015128
-0.0091441
0.672439
-0.0100676
-0.00290242
0.355445
0.000165519
-0.00332597
0.622943
-0.003518
0.00974311
0.634494
0.000484337
-0.0435116
-0.00130405
-0.0186237
0.625037
-0.0117892
0.62565
-0.0201661
0.193671
0.584325
-0.00287406
-0.00114346
-0.117587
-0.0347768
-0.00929492
0.527729
-0.0219314
0.795792
0.354481
0.667732
0.313732
-0.000104269
-0.000103491
0.768789
0.0921099
-0.00242838
0.775501
-0.00129119
-0.0667633
0.422728
0.67417
-0.00949927
0.68471
-0.0292218
0.0944778
-0.00141684
0.589402
-0.0036118
-0.00429515
0.562011
-0.124202
-0.0852294
-0.0141507
0.00550437
-0.00495432
-1.70803e-05
0.513216
-0.00272836
-0.0504964
0.576288
-0.000102598
-0.036428
0.222071
-0.0195838
-0.0126522
0.232933
0.327669
-0.0227887
0.740359
0.524962
-0.0295017
-0.0232568
0.0143945
-0.000676166
0.593599
0.083403
0.159145
-0.0362686
-0.00755
-0.0472078
-0.0399156
-0.0203572
-0.0669552
0.694293
0.0845867
0.60037
0.387259
-0.0105684
0.303895
0.00039308
-0.00978007
0.626985
-9.04087e-05
-0.0299547
-0.00108364
0.394133
0.537252
-0.0965518
-0.0206581
-0.0278688
-0.0848305
-0.0766766
-0.000628246
0.097406
0.155156
0.789235
-0.00861589
-0.107592
-0.0129403
0.427452
0.145372
0.642675
0.544132
-0.0120902
0.8179
0.356431
-4.48248e-05
0.658063
-0.000495476
0.582805
0.609864
6.46808e-05
0.690521
0.538241
-0.00376813
-0.0225344
0.00171254
0.404394
-0.0350979
0.743542
0.325193
0.0156606
0.432368
0.0173741
-0.0216421
0.224646
0.687078
0.0683018
-0.00425004
0.751314
0.147756
-0.0554744
-0.0492667
0.730705
0.702861
-0.0189024
-0.0139273
0.0465957
-0.019358
0.000255854
0.617931
0.654774
-0.0123306
-0.0260502
0.57337
0.624628
0.000342065
0.576189
0.00539718
0.000462442
-0.02115
0.55204
0.714781
0.316788
0.557831
-0.00861101
-0.012652
-1.76329e-05
0.000326711
-0.00208338
0.21748
-0.0337661
0.581216
-0.0451836
0.541241
-0.0206677
0.00301018
0.638458
0.782327
0.544186
0.620226
-0.0253762
0.452375
-0.0181121
0.105066
-0.00237049
-0.0945391
0.0416376
0.0467853
5.91391e-05
-0.0041441
0.720873
0.225241
-0.00242936
-0.0303307
-0.0325693
-0.0989656
0.464615
-0.0442008
-0.00977638
-0.0271839
-0.0109389
0.000182819
-0.0199809
-0.0723716
0.692239
0.0552887
-0.0129513
0.54694
0.699656
-0.0216033
-0.000267119
-0.0314651
0.622826
-0.118746
0.668562
-2.76712e-05
-0.0276799
0.560415
0.610096
-0.0200311
-0.0158159
0.742039
-0.0296922
0.012046
0.680608
0.739112
-0.023871
0.569996
0.139873
0.579055
0.488342
-0.00026201
0.0453329
0.438859
-5.30099e-05
-0.0557719
0.0924714
-0.136934
0.141065
0.0709178
-6.22115e-05
-0.000910171
0.668221
-0.00353356
-0.0683265
-0.031528
0.266299
-0.0098034
0.580776
0.132452
-0.0291883
-0.0218616
0.409105
0.240473
-6.02991e-05
0.662764
0.530098
0.65246
-0.0642084
0.000169938
0.736246
-0.00162197
-0.0195968
0.226492
0.0766181
-0.0235622
-0.0435378
0.540409
0.767892
0.610201
0.176782
0.826621
-3.37239e-05
-0.0113942
0.610435
-0.0958043
0.434287
-0.017217
0.633248
0.12169
-0.000897498
0.118075
0.509396
-0.0927161
0.682747
0.516598
3.74978e-05
0.00823274
0.367096
0.246074
0.00103316
0.537555
-0.0128001
0.813652
-0.0396184
-0.011585
-0.00446883
0.606527
0.529564
-0.0116651
0.407566
0.665957
-0.00369086
0.478788
0.524009
0.818642
-0.00124251
0.286318
0.0373799
-0.0226187
8.68599e-05
0.63108
0.463151
0.0481001
0.647986
0.192433
-0.0171777
0.445142
0.158561
0.231144
0.814784
-0.0312068
0.197912
0.651789
-0.0307874
0.114197
-0.0668057
0.35511
-0.00557582
0.322256
0.0512414
0.190251
-0.00128625
0.344104
0.646992
0.491471
-0.121753
-0.010044
0.723132
0.725879
-0.00223743
-0.0260657
0.580061
-0.0642333
-0.0048396
0.464989
-0.00521359
0.846428
-0.0144023
0.309809
-0.00425975
0.651382
0.510659
0.0514045
-0.0109809
0.0156238
0.149719
-0.00136053
0.578324
-0.0422531
0.365644
0.805171
-0.0651268
-0.00582036
-0.00226535
0.121287
0.0543719
-0.0138833
0.48323
-0.000437483
-0.022068
0.000298525
-0.0170855
-0.0187123
4.0945e-05
-0.0278785
0.212406
-0.105147
-0.012224
-0.0201922
0.102934
0.0815362
-0.026636
-0.0171331
-0.00140487
0.0103466
-0.0696629
0.000770478
-0.0158575
0.245086
0.483266
0.107772
6.67417e-05
0.756744
0.000910399
-0.000452724
0.0127461
-0.0244939
-0.0302576
0.697418
-0.0115606
0.146084
-0.0585466
-0.0638621
0.453481
-0.0194907
-0.0323867
-0.0522017
6.32019e-05
-0.0222258
0.768322
-0.0942235
-0.0312315
0.480782
-0.0256582
0.484749
0.309605
-0.00179063
0.000270391
0.532765
0.795874
-0.0989011
0.372426
0.201117
-0.0248892
-0.0258977
0.578832
0.0799808
-0.113876
-0.0628724
-0.00841984
0.029024
0.721485
0.191343
-6.65924e-05
0.687115
-0.0117313
-0.0336265
0.551378
-0.000351044
-0.00426386
-1.86414e-05
0.0173384
-0.0158306
-2.38442e-05
0.366455
-0.11469
0.582359
0.000190429
-0.00120897
-0.0263912
-8.98051e-06
-0.102094
-0.108411
-0.00127992
-0.0273709
-0.0238041
0.541363
0.654161
-0.00140316
-0.000402659
-0.0441076
0.660519
-0.00914249
0.660513
-0.00719425
0.806971
0.493527
0.30848
0.779633
-0.0307369
-0.00200058
0.0373682
-0.00765906
0.647469
0.574782
-0.0100114
-0.0850223
0.0969096
-0.0148028
-0.000757869
-0.0982712
-3.29462e-05
0.548172
-0.0206791
-0.0280597
-0.0106352
-0.0209535
0.312198
0.118923
0.000128363
-0.0088286
-1.64143e-05
0.806457
0.714628
-0.000353365
-0.0109732
0.00246945
0.572772
-0.0249457
0.203536
-0.028706
0.617398
0.307113
-0.0170932
0.838881
0.0236127
0.602459
-0.00546987
-0.0738977
0.680293
-0.00937526
0.805073
0.55796
0.818297
-0.00199685
-0.0020864
-0.0337931
0.0518362
-0.000184349
-0.028562
0.603857
0.625965
0.487796
0.654357
0.798191
0.373589
0.647835
0.49138
-0.00375972
0.540127
-0.0310381
-0.0283849
-0.000291369
-0.0166408
-0.074795
0.405269
0.0597755
0.583627
-0.0169695
0.124046
0.563237
-0.0071442
-0.0112414
-2.81715e-05
-0.000187139
0.403862
-0.031039
-0.025199
-0.000216714
-0.000752216
0.0867419
9.44475e-05
0.0891649
0.809464
0.38598
0.364814
-0.0109448
0.575279
0.133024
-0.00830755
-0.0110626
-0.00100309
6.43289e-07
-0.00132602
-0.0105923
-0.0727302
0.416017
0.0322631
-0.0144608
-4.31946e-06
0.608361
0.0109877
-0.059599
-0.00900061
0.171369
-0.021668
-0.0124142
0.563688
0.746153
0.519229
-0.00687483
0.526228
-0.0104743
-0.0213872
0.407246
-7.2336e-05
-0.0125313
0.294917
0.36664
-0.0166352
0.565151
0.708591
0.550488
-0.0252959
-0.0197528
-0.00526911
0.16432
0.52472
-0.00047063
0.677952
-0.02023
-0.0745379
0.0473429
0.765746
0.419954
0.580911
-0.110453
0.788228
-0.0152441
-0.0206675
0.825552
0.041673
-0.0603668
0.594188
0.617358
-0.0210469
0.518346
0.660815
0.612175
0.565911
0.603241
0.499343
-0.0039818
-0.015389
-0.00161481
-0.0657183
0.646273
-0.0611436
0.251143
0.252264
-0.0271266
0.097747
0.290665
0.65704
0.100559
-0.000991855
0.0334407
-0.0245042
-0.0308942
-0.0463323
-0.0683038
0.559751
0.681059
0.0743266
0.652593
0.80062
0.000587512
-0.000420653
-0.00203315
-0.00884954
0.452139
0.808958
0.19857
0.576247
-0.0126321
0.503915
0.517608
-0.0849895
-0.0166131
-0.0265344
0.247706
-0.0114435
0.0438124
-0.0238198
-0.0286607
0.584988
-0.00152559
-0.014421
0.618699
0.0909337
0.740314
-0.0368149
0.483321
-0.044822
-0.0308003
0.675006
0.741325
0.645823
-0.0129489
0.746119
-0.0232356
0.67333
0.0287217
0.642904
-0.0235969
-6.06281e-05
0.64475
0.678418
0.673787
0.645037
0.40278
0.121293
0.465907
-0.0596273
0.6445
0.560486
0.0154657
0.0629549
-0.00418527
-0.0261374
0.571665
-0.0249081
-0.011403
0.657473
0.653187
-0.0274216
0.636324
-0.0778273
0.155635
-0.00116351
0.664688
0.675974
0.800391
0.66762
-6.43768e-05
-0.0135681
-0.000285051
-0.0336976
0.735047
0.343953
0.561211
-0.0271656
0.493921
0.00442402
0.737978
-0.0240862
0.65554
-0.00126927
0.71886
0.753002
-0.0141408
0.184354
0.71392
0.000110714
0.764838
-0.0139718
0.000160447
-0.016716
0.607957
0.281751
-0.0478643
0.644787
0.767848
0.513586
0.0254522
-0.0278244
0.0274168
0.651962
0.748594
0.828284
0.332855
-0.00262089
-0.00713663
0.569409
-0.00195073
-0.00406041
-0.00244255
-0.0118476
-0.0666675
-0.0877299
0.691903
-0.0105272
-0.000226533
0.547415
0.325512
-0.00331518
0.214005
-0.000555755
0.276307
0.555058
0.641132
-0.080782
0.210702
-0.00534311
-0.0180228
-0.000679344
0.657374
0.696642
-0.109096
-0.105263
-0.0955834
-0.029344
0.648466
-0.0210855
-0.0602491
-0.0811205
-0.00531844
0.781175
-0.090765
0.0668113
0.659902
-0.000978107
0.141269
-0.0152813
-0.0732899
-0.000304456
-0.000931311
0.777494
0.474481
-0.112227
0.0182358
0.493926
0.628212
0.557268
-0.0424136
-0.0236398
-0.0191029
-0.0225443
0.532355
-0.010307
-0.0274094
7.1429e-05
-0.0147564
1.01395e-06
-0.0759286
0.612118
-0.0639093
0.659471
0.645838
-0.027263
-0.0138875
0.79509
0.505511
0.0579351
-0.0155249
0.500001
-0.025534
0.444188
0.778165
0.447589
-0.0101204
-0.0174407
0.595006
-0.0286577
-0.0581986
-0.0290379
0.706524
-0.0208714
0.000458963
0.488711
0.386955
0.543497
-0.0157224
0.425777
-0.0260824
0.658089
-0.0855052
0.277302
-0.0287581
-0.0309604
-0.000222583
-4.16041e-06
-0.000376769
0.709845
-0.0385892
0.481073
0.142861
-0.0310645
-0.0610421
0.356359
0.802099
0.727402
-0.04339
0.329903
-0.0100593
0.111056
-0.0102546
0.247454
-0.0262426
-0.00174641
0.524469
-0.0326651
0.00140735
0.699322
0.586237
0.674491
0.0273768
-0.0320566
-0.0107365
0.344899
0.00550835
-9.30302e-05
0.710625
0.182551
0.314413
0.0198436
7.58446e-05
-0.00908779
-0.000578226
0.298005
-0.000461703
-0.0177309
-0.00704686
-0.0247356
0.730438
8.32432e-06
-0.0322157
-0.0204854
0.754823
0.00459273
-1.19566e-05
-0.0781389
0.219312
0.546904
-0.0132147
-0.0120333
-0.0179824
0.559701
-0.0165501
0.323329
-0.0823882
-0.08501
0.161939
0.538721
0.138682
0.326349
-0.000215286
0.584542
0.758742
-0.00809224
0.470164
-0.040233
0.773437
0.745417
-0.0640777
0.119232
0.0865384
0.472536
-0.000277319
0.643181
0.816699
-0.00166326
0.251443
0.394571
-0.000948294
-0.000330208
-0.0100759
0.802477
-0.0106405
-0.0338362
0.652731
-0.00295967
0.463239
0.668604
-0.0189959
0.718717
-0.0236066
-0.0145296
0.671964
0.336176
0.542616
-0.000177213
0.675651
0.296606
0.640264
-0.055527
-0.00829144
0.256768
0.711399
0.671637
0.723865
0.651355
-0.0337885
-0.0185235
0.0464299
0.497742
0.64137
0.755948
-0.0236988
0.392778
0.769747
0.611675
-0.000912912
-0.0242822
-0.00987673
0.234414
-0.0241676
0.693457
0.345769
0.638656
0.16976
-0.00888228
0.642474
-0.00213878
0.508708
-0.0647625
0.0962258
-0.0116271
-0.0601455
-0.0513356
0.75114
-0.0476045
-0.0214916
-0.0150988
0.293365
0.125187
-0.0200373
0.0784967
-0.00301995
-0.0561801
0.5275
0.298877
0.572244
-0.0917386
0.664001
-0.0577196
-0.000658188
-0.00988158
-0.00911309
-0.0848264
-0.0942647
-0.00271676
0.402981
0.728359
0.268865
0.100564
-0.0246161
-0.0542895
0.46429
-0.0165004
0.772641
0.412162
-0.000103841
-0.0163685
0.0270856
-0.0507734
-0.0170359
-0.0196914
0.00328842
-0.0762798
0.392296
0.739794
0.685966
0.353662
-0.000187922
-0.0226953
4.12543e-05
-0.00932428
0.53631
-0.00100012
0.515879
-0.0535179
-0.0127993
0.734666
0.749284
-0.000777237
0.649808
0.683497
0.220754
-0.00844702
0.278151
0.533088
0.746869
0.450673
-0.0534273
0.731379
0.138799
-0.0304203
-0.0349332
-0.0614984
0.762898
-0.012163
0.660897
0.422236
0.725957
-0.0203392
0.47018
0.492292
-0.0666055
0.672613
0.0158449
0.707731
-0.000294533
0.448188
0.512565
0.514432
-0.00200713
0.0295977
-0.00196284
-0.0256641
0.419334
-0.0178082
0.479124
0.459305
0.805511
-0.00155112
0.712246
-0.00357219
-0.00411042
0.081803
0.648821
0.166938
-0.00287354
0.0970975
0.570794
-0.00430899
0.790849
-0.002283
-0.0254297
0.143034
-0.0122264
0.653747
-0.0349869
0.688643
0.558432
0.219523
0.0627474
0.258681
-0.000844806
0.0487138
0.703458
-0.0324595
-0.0125492
0.434066
0.117349
0.0210593
0.0650849
-0.00811483
0.729924
-0.020302
0.0758544
-0.0287322
-0.0261033
0.638452
0.810318
-0.0188208
-0.0577809
1.03367e-05
0.14361
-0.000722684
0.210023
0.750328
0.721738
-0.00686062
0.266559
-0.000274204
-0.0265628
0.592531
-0.0075362
0.339594
-0.0147033
0.792413
0.575106
-0.0675549
-0.00945946
-0.0257963
0.79149
-0.0227774
-0.000979473
-0.00554924
0.219137
-0.0600047
-0.0111875
0.188701
0.731042
-0.0783098
0.768052
0.829389
-0.018577
-0.0154088
-0.000532474
-0.000356152
-0.0291361
-0.0295032
0.784447
-0.0133405
-0.000310963
0.515208
-0.0496269
0.563574
-0.00127583
0.0180355
0.562029
0.522396
-0.0664191
-0.0190511
-0.0539715
0.615248
-0.0217672
0.363171
-0.0255957
-0.00993247
-0.0253991
-0.00790801
-0.00363068
-0.080556
-0.0764332
-0.0583234
0.00262682
0.189091
-0.000966049
-0.0229064
-0.0552768
-0.0148438
-0.0216178
0.731717
0.0614013
-0.0231797
-0.0117367
0.60165
-0.000157818
0.530901
-0.0307938
0.0762444
-0.000915351
0.558924
0.369036
-0.0283049
-0.0256183
-0.0278832
0.458146
-0.000348712
0.518872
0.610835
-0.00660834
-0.024515
0.204601
0.192589
-0.0525398
0.235178
0.581112
-0.0131644
0.497207
-0.0290474
0.0153611
0.478832
0.751493
0.0379266
-0.00356704
0.638188
0.498007
-0.0158028
-0.0351361
-0.0940464
0.0203498
-0.0135965
-0.00307948
0.595957
-0.0999399
-0.0330387
0.59832
-0.047515
-0.0237919
0.377762
-0.00112137
0.258291
0.514627
0.0152321
0.522441
-0.0113125
0.720052
-0.0555171
-0.000356622
6.83882e-05
0.0479031
-0.000573888
-0.012476
0.262505
-0.0283736
-0.00342383
-0.0263106
-0.0143465
0.331254
0.654202
8.67323e-05
-0.0113834
-0.00579025
0.486772
-0.0543434
-0.0153563
-0.0140194
0.117003
0.382394
-0.0115202
-0.00551101
-0.0369744
0.557275
0.599717
0.221503
0.525986
0.68079
-0.00915825
0.490357
0.193491
0.0372673
-0.0139098
0.0131159
0.819343
-0.00808116
-0.0601765
-0.024021
0.556181
-0.00663565
-0.00174173
-0.0243094
-0.0277605
-0.00126469
0.655747
0.412555
0.502809
0.606314
0.529026
-0.00558438
0.240104
0.430389
0.0555
0.642143
0.316448
0.430603
4.19688e-06
0.441299
-0.0356694
0.301552
0.440919
-0.0757202
0.146014
0.125827
-0.0178424
-0.003724
0.0692601
0.285585
0.74055
0.311838
-9.48912e-05
0.390137
-0.011898
0.44502
0.341346
-0.00647974
-0.0193225
0.48533
0.655132
0.192154
-0.0255312
-0.0143939
0.305664
0.498414
-0.0215895
0.588266
-0.0164232
0.251348
0.0129827
0.695253
-0.000615126
-0.000543972
-0.00313433
-0.0143576
-0.0530588
-0.00655205
0.507219
0.601736
0.00128317
0.380212
0.00138136
-0.00634675
1.47565e-05
0.324945
-0.0087538
0.393279
1.92781e-05
0.50934
-0.0188495
0.576393
-0.0718887
0.618112
-0.0245601
-0.00657573
0.000247428
0.662125
-0.0261685
0.117786
0.230483
0.00306467
0.56982
-0.00617165
-0.00684182
-0.0146078
-0.00168662
0.659369
-0.00330742
-0.0153726
-0.0126813
-4.23911e-05
-0.00698386
0.583569
-0.000403874
-0.0244867
-0.00250132
-0.0016204
0.542328
-0.0823127
0.0919438
-0.033752
-0.000840493
-0.0101518
-0.0135615
-0.0140341
-0.00070669
-0.00622727
0.347308
-0.000328246
-0.011197
-0.0198954
0.237879
0.641783
-0.00530665
0.000337505
-0.0194469
-0.0250109
0.531516
0.59242
0.662951
2.45374e-05
0.292771
-0.0219722
-0.019195
0.414666
-0.0194155
-0.0061135
-0.00650985
-0.00721863
-0.0136091
-0.0130173
-0.0073194
-0.00170742
0.0124074
0.504038
0.00386787
0.386252
0.118154
0.0739123
0.317147
0.211018
0.44378
0.0324818
0.502782
-0.000807393
-0.0128954
0.471597
-0.0334716
0.534157
0.511117
-0.0172384
-0.022246
-0.000315782
-0.0140085
0.0323559
-0.00851169
-0.00831686
-0.0113678
-0.00720498
-0.016602
-0.0207667
-0.00672586
-0.00385621
-0.0284818
0.444854
-0.0151809
-0.000486743
-0.0208667
-0.00318041
-0.018089
0.589308
0.568991
0.318412
0.701937
-0.00587072
-0.0242326
-0.0149535
-0.00202124
-0.00376559
-6.89003e-05
1.84484e-05
0.305831
0.189299
-6.02295e-05
-0.0695815
0.170099
0.308538
-0.0371952
-0.00684167
-0.00608601
-0.00338294
-0.000543726
-0.00186287
-0.0179302
-0.0297797
0.717824
-0.00209525
-0.0287191
-0.0137787
-0.0220704
-0.00509969
-0.00640763
-0.000692638
-0.00638224
-0.0168413
-0.0161397
-0.0341798
0.142966
-0.00921688
0.37852
-0.0132566
-0.00080694
-0.0217119
0.531622
0.555018
0.428132
0.017052
-0.0731023
-0.0244818
-0.0757638
-0.0260434
-0.078532
-0.0225048
-0.0759847
-0.00174614
-0.00795715
-2.34272e-05
0.10362
-0.00146363
0.000223564
-0.0105681
0.744676
-0.0178976
-0.0845566
0.706082
0.724645
-0.00848052
0.71208
0.676904
0.543275
-0.00309019
-0.101434
0.726484
0.000139803
-0.000407614
-0.00724
-0.0138552
-0.00451911
-0.0129723
-0.0136152
-0.0144043
-0.0117223
-0.0164196
0.000251989
-0.0364448
-0.00542923
0.793988
-0.00892471
-0.0061992
0.791613
-0.00250581
0.757277
0.717091
0.503137
-0.00750376
0.793636
0.127495
0.623308
0.00507638
-0.000523087
-0.00726726
-0.0133451
0.0688312
0.65011
-0.000669037
-0.000513771
-0.0140186
-8.93832e-05
-0.110576
0.303683
-3.72052e-05
0.528676
-0.0378661
-0.00359777
-0.0238233
-0.00763276
0.2317
-0.00308115
0.723838
-0.000501356
0.676743
0.0020704
-0.0174805
6.93519e-05
-0.0169324
-0.00851805
-0.0167666
0.609537
0.646544
1.70426e-05
0.725807
-0.0233896
-0.00165772
-0.0203891
0.684079
-0.111644
3.27192e-05
-0.000437485
-0.000925555
-0.000656057
7.07325e-05
-0.00101268
0.733259
9.93857e-05
-0.000953272
-0.0133353
0.77414
0.830714
-0.000934699
-0.0263533
0.542605
0.786233
-0.0287027
-0.0132092
-3.01748e-05
0.0197616
0.661288
0.530515
-0.000807192
-0.00923746
-0.0223498
0.693842
-0.0724313
-0.0120708
-0.00947746
-0.0075333
-0.0188344
0.566414
5.41764e-05
0.70973
-0.00123265
0.760609
-0.00131511
0.722387
-0.00799306
0.100847
-0.0176073
3.49016e-05
-0.000432859
-0.00520348
-0.0108039
-0.00864402
-0.000588663
-0.00182048
-0.000636089
-0.0218553
-0.000614613
-0.00837645
-0.00806907
-0.00150871
0.145371
-0.00068323
0.5283
-0.0132359
-0.0108418
-0.00217849
-0.0926077
0.783268
-0.00697967
-0.00630352
-0.00701891
-0.0244628
-0.00815071
0.509798
0.559219
0.00106174
-0.00715779
-0.0364837
0.176488
0.710418
-0.0203501
0.497681
0.583096
1.6044e-05
-0.0292023
-0.00790404
-0.000600886
0.000195141
-6.65456e-05
-0.000499929
-0.00244961
-0.00441319
0.00176157
-0.0167666
0.00987272
0.33486
-0.057877
0.528117
0.180654
-0.0748425
2.80322e-05
-0.000418426
0.656804
-0.00152322
-0.0235621
-1.36241e-05
-0.0181752
-0.0101187
0.417071
0.0861835
0.736444
-0.00043293
-0.0010376
-0.0143412
0.368209
9.05606e-05
0.70516
0.186744
-0.0100277
-0.00341533
-0.0507513
0.00850925
0.502876
0.0503609
0.662212
-0.0232411
-0.000203354
-0.00150035
-0.007673
-0.000175932
-0.000427442
-0.00118301
-0.0112258
0.00082931
-0.0208991
5.10915e-06
-0.0222457
-0.0621996
-2.27238e-05
7.30503e-05
-6.70133e-05
-0.000419646
-0.0002522
-0.00540794
0.0296281
-0.000521636
0.0787037
-0.0052631
0.539514
-0.0181496
-0.0467945
6.18805e-06
-0.0443072
-0.0303329
-0.0141774
-0.00438758
2.62959e-05
-0.00363025
1.62868e-05
-0.0497152
0.0470326
0.183639
-0.0937461
-0.000445157
0.0732243
-0.0808404
0.579933
0.450182
0.54856
-4.04009e-05
-0.00253043
2.55784e-05
-0.00195522
0.681614
0.512219
-0.00216557
-0.00333651
0.375498
0.512455
0.74366
-0.000396366
-0.00160061
-0.00775689
-2.09381e-05
-0.000401791
2.47379e-05
-0.00262774
-0.00252961
0.538038
-0.0184743
-0.00071959
0.00235228
-0.000716354
0.0318587
0.000663564
0.380786
-0.000776267
0.222156
-0.0275181
-0.0171992
0.263315
0.200308
-0.000364765
0.26976
0.706209
-0.0243095
0.554024
-0.0158508
-0.00157558
0.596604
-0.001842
0.522326
-0.000939594
-0.0142382
-0.0519045
-0.00244918
-0.00787313
-0.000623371
-0.000266926
0.0239478
4.12116e-05
-0.00732338
-0.014428
0.715247
-0.013697
-0.000324743
0.526726
1.21462e-05
-0.000478481
-0.00569716
-0.00126404
0.702355
-0.000501826
-0.000550682
-0.00866029
0.162994
-0.0222491
-0.000474523
0.000272898
0.113103
0.000764328
-0.000410601
0.644402
0.769867
-0.00140499
0.0217985
-0.00153223
0.564357
-0.000332919
-0.000823796
-3.82317e-05
2.1142e-05
-0.0482436
-0.000452183
-0.000479884
-0.0994155
-0.00101944
-0.046319
0.000240812
-0.000342005
0.0031392
0.602655
0.633345
-0.00567115
0.496288
0.0899504
4.88315e-05
0.516947
-0.00739932
-0.000444456
-0.000516242
-0.017874
-0.000431369
0.00916815
-0.000188088
-0.0259048
0.277833
-0.0103037
-0.00805898
0.21162
0.420744
0.207964
-4.87137e-05
4.00886e-07
-0.00557103
0.353731
-0.00414076
-0.0603287
7.85235e-05
0.511984
-0.0888789
0.603029
0.435228
-0.00419722
0.248432
-0.000106694
0.532743
0.0445956
-0.0244071
-6.54318e-05
-0.000465659
-0.00287714
-0.00369409
-0.00256833
-0.00564213
0.196082
-0.00104341
0.369027
-0.000620492
0.000219278
-2.50958e-05
0.138083
0.00561214
-0.00237664
-4.03353e-05
0.00326007
0.339907
-0.00661462
0.00145252
0.000659884
0.105613
-0.000280174
-0.000550029
-0.000447195
0.582702
0.624275
0.649881
-0.000377876
0.626455
0.570464
0.631202
-0.000309572
0.000127099
-0.000351183
0.39253
0.469608
-0.0702733
-0.0253608
-0.00873198
-0.00944535
0.11302
-0.00270585
-0.00067516
0.494526
-0.000553339
-0.00301884
0.000110681
-0.0032381
0.630008
-0.0278441
-0.000656679
2.76325e-05
0.685891
0.567594
0.0205773
0.334521
-0.00256419
0.00810535
-0.00369017
-0.00402834
-0.0154776
-0.0224998
0.313418
-0.00560742
0.173439
-0.000284792
0.611931
-0.016553
-0.0063854
0.548727
0.00975248
-0.00898258
-0.00880143
-0.0163382
0.224834
-0.00510026
0.000213301
0.499946
-0.000352038
-0.0103908
0.0871407
-0.000337597
-0.00067486
-0.000499813
-0.0163563
-0.00715749
0.0715606
5.45791e-05
0.0572754
-0.0169847
0.0460769
0.036191
-0.00564003
-0.00915539
0.0287594
-0.013812
-0.00329645
-0.00223107
0.417529
-0.00372323
-0.000615153
-2.10125e-05
-0.0162688
-0.0319955
-0.000100669
0.420337
0.599025
-0.0150555
-0.00894685
-0.00586947
-0.000817534
7.98831e-05
-0.00697413
-0.000133112
0.0592582
-0.000266045
0.00582007
-0.016871
-0.00763928
-0.000449035
-0.000205795
0.404129
-0.000580149
0.145637
0.448308
-0.0166268
-0.0271907
-0.00716528
0.000104904
0.12559
-0.0153294
-0.00937539
0.10481
0.261858
-3.22037e-05
0.085066
0.297398
-0.000185929
0.199329
-0.00725814
-0.0114107
0.496809
-0.00214269
-0.000174268
-0.000334921
0.467157
-0.09017
-0.0207973
-0.00924511
-0.00591934
-0.000551168
-0.0097027
-0.0119814
0.170983
0.65902
0.729503
0.545996
-0.000153744
0.401151
0.150601
-0.00908851
-0.0093858
0.393041
-0.0189821
-0.111219
-0.000253649
-0.0087231
0.517448
-4.96614e-06
-0.0564582
-0.00626446
-0.0164684
-0.000395739
0.555043
-0.0227098
0.542161
-0.0114732
-0.00513754
-0.00493151
0.000109865
0.478711
-0.010833
-0.00102289
-1.72661e-05
-0.0618511
0.0311607
0.238676
-0.00830843
-0.000801848
0.270775
-2.395e-06
0.367117
0.215539
-0.00046293
0.374557
-0.043853
-0.00015842
-0.0082221
0.000302009
-0.000664457
-0.00695805
0.447014
-0.020893
-0.000841031
-0.0441276
-0.00515052
0.459697
0.631795
-0.000397451
-0.0115626
-0.000380917
-0.00466093
0.489017
0.0083521
-0.000527725
0.341315
0.224099
0.540782
-0.00913
-0.000445022
0.395653
-0.00445888
-0.0131817
0.0125829
0.667477
-0.0321519
-0.00963413
-0.00061151
-0.00418217
0.66298
-0.0201649
0.752334
0.244639
-0.00699521
0.000360777
-0.0227333
-0.0248722
-0.000180189
-0.010268
0.653891
-1.96988e-05
-0.0194401
0.662874
0.000295351
-0.0109654
-0.000205442
-7.07902e-05
-0.000212152
0.0469108
-0.00672322
4.98089e-05
-0.0741254
-0.000487783
-0.000187454
-0.000142991
-4.5386e-05
-0.0245427
-0.00016285
0.000448327
-0.0161961
-0.0168006
0.749017
0.0634611
-0.00754146
-4.78124e-05
-3.25097e-05
-0.0108
-0.000113532
0.177513
0.527257
-0.000320039
-0.0207669
-0.00787082
0.117749
-0.00183956
0.784389
-0.000705185
0.000421237
0.365155
0.00302922
-0.000186925
-0.0211575
0.524007
0.000330765
0.511043
0.532962
-0.0118778
-0.0223535
0.614166
-0.0100545
0.000432308
-0.0217876
0.417968
0.178789
-0.0280598
-0.000130669
0.638315
0.000401251
0.00801141
6.51752e-05
0.000401648
0.722202
-0.00125762
-0.000105261
-0.0123807
0.319501
0.755211
0.518091
0.797505
-0.00204435
0.708333
-0.000162809
0.418899
0.000419574
5.8379e-05
0.252394
-0.0157232
0.1621
-0.000265755
-0.0294147
0.761205
-0.0158487
-0.0156968
-0.00120894
0.000437394
0.268018
-0.000753969
-0.0187821
-0.000177091
-0.0204673
8.11e-05
0.771185
-0.00756749
-0.0121784
0.117743
-0.065223
0.236923
0.506885
-0.000233417
-0.0567959
0.301636
0.557633
0.786347
1.08912e-05
-0.0700232
-0.0662986
0.000433564
0.336884
0.371674
-0.0699906
0.668442
0.186361
0.285245
-0.00704504
0.498844
-0.0147754
-0.000467693
-0.000103656
-0.000199364
0.000314582
-0.00096863
-0.00937893
-9.14597e-05
-0.000465368
0.00167141
2.86067e-05
0.370539
-0.0319787
-3.07327e-06
0.765387
-0.000347196
-0.000115396
0.632073
0.786114
-0.0200524
-0.0115755
0.607999
-0.0034679
0.700293
0.0984287
-0.000108419
-0.0520978
-0.0233751
-0.00139749
-0.000431178
0.532252
-3.8079e-05
-0.000254227
0.675997
0.000316406
-0.00132446
-0.0362726
-0.00957118
-0.0135648
-0.000304304
0.109204
-0.0134973
-0.000178319
-0.0150029
0.00020353
0.391867
1.4173e-05
-1.97412e-05
0.000182287
0.656334
-0.00352861
-0.000951541
-0.00053596
-0.000901451
0.636925
0.00375463
0.199528
0.611127
0.000166183
0.725587
0.590599
-0.00121621
-0.0522901
-0.000336323
-0.00864272
0.700399
-0.00151188
0.000377388
-0.000122483
-0.0155667
2.30282e-05
0.000387175
-0.000337398
0.716273
-0.000118874
0.545848
-0.0162075
-0.057741
-0.00012595
-0.0367736
-0.00138244
0.624322
0.635093
0.241795
-0.00101625
-0.0324755
-0.051126
0.233118
0.163563
0.356288
-0.068905
-0.0421147
-0.0159591
-0.000182896
-0.000817548
0.000449807
-0.00173889
-0.00120795
-0.00146171
-0.00122339
-0.000142415
-0.0105625
-0.00349874
-0.00163895
-0.0154993
-0.000346952
-0.00210552
-0.000176162
0.83706
0.145548
-0.00311862
-0.00153053
-0.00255867
-0.000138093
-0.00043297
-0.00230107
-0.00191298
-0.0282301
-9.00539e-05
-0.016307
-0.00068902
0.000446373
-0.000260734
-0.0160376
-0.0283746
-0.00281776
0.662306
-0.0114032
0.532667
-0.0309016
0.686363
-0.0245399
-0.0260742
-0.0275766
-0.0288135
-0.0289496
-0.0304763
-0.0308074
-0.000277936
-0.0313393
-0.030893
0.631225
-0.0327193
-0.0170271
-0.0317654
-0.000506275
-0.0503918
-0.00834479
-0.000127471
-0.00406156
-9.90967e-05
-0.00100972
0.0407628
0.000475517
0.313291
0.560454
-0.00625508
-0.000579595
-0.0135327
-0.00161142
-0.00399897
-0.00735786
-0.0121641
8.54974e-05
0.77523
-0.00567228
-0.0132438
-0.00504563
0.000454713
-0.00348843
-0.00105691
-0.0250646
-0.00474568
-0.000392516
-0.00257612
0.0602019
-0.000168408
-0.000219346
-0.00575625
0.0171523
-0.000550361
-0.00135166
-0.000800257
-0.000146722
-0.000325674
-0.00147768
-0.000280537
-0.000275658
-0.00170031
-0.000609272
0.620448
-8.64899e-05
-0.00051024
0.000536812
-0.00135537
-0.000296024
-0.000311818
0.438761
-0.00670942
0.593123
-0.00259097
-0.000160075
-0.000158183
0.517288
-0.0500849
-0.000287312
-0.000170372
-8.33506e-05
-0.00550663
-0.00211642
0.0194378
3.95208e-05
-0.0262494
-3.01106e-05
-0.000324622
-0.000249679
-0.00312257
-0.000645563
-0.0364635
0.607994
-0.0319564
-0.00472538
-0.000156555
-5.80405e-05
-0.0186969
-0.000168007
-0.00409946
-0.000992355
-0.000862047
-0.000440201
-0.00803943
-0.00533269
-0.0840739
7.2895e-06
-0.000146312
-0.0109593
3.40247e-05
-0.00373415
-0.00191736
-0.00166151
-2.98622e-05
0.705367
5.00478e-05
0.802426
-0.00787041
-0.00246302
0.00178452
-0.000158581
-0.000221395
0.018173
-0.000304023
-0.0441653
-0.000420635
-0.0381961
-0.0045196
0.000119057
-0.00022623
-0.00246465
0.713183
-0.000342955
-0.0182751
0.000768305
0.606169
-0.0302202
-0.0476058
-0.000213746
-0.0613619
-0.00344689
-0.0906961
-0.015831
-0.000234046
0.000538694
0.748087
-0.0445099
-0.00229037
-0.0029246
-0.00011919
0.536756
0.601549
-0.000104259
0.000181688
0.472018
-0.000275281
-0.00568019
-8.77317e-05
-0.000539538
-0.0244496
-0.0210487
-0.0911099
0.0159101
-0.0009402
-0.000228959
-0.000218955
-0.0371694
-0.0133105
0.382917
-0.00878654
-0.000131007
0.581235
-0.0046355
-0.000609699
-0.032144
-0.00261358
-0.00116397
-0.000277265
-0.00438479
-0.00124762
-0.0139608
-0.000222347
-0.000798068
0.37674
-0.0057633
0.476382
0.686928
-0.0018545
-0.00375344
-0.0613253
-0.00612191
0.759958
0.00195901
-0.000229033
-0.000116677
0.553467
0.714166
0.363366
0.0549589
-0.0221229
-0.000223688
-0.0135064
-0.000603569
-0.000600819
-0.00446755
0.504002
-0.0195893
-0.000405944
-0.00123898
-0.00138781
0.121166
0.524465
-0.0162502
-0.0106249
-0.00162042
-0.000786276
-0.000485448
0.69478
-0.000675912
0.000116874
-1.99693e-05
0.000180163
-0.0120987
0.125462
-0.00635333
-0.00603196
-0.0172931
5.73171e-05
0.00275738
0.51283
-0.0169369
-0.000177948
0.00162727
0.520878
-0.00198989
0.174685
0.619652
-0.00049172
-0.000130307
0.185657
0.476656
0.239867
0.401811
-0.0324214
-9.75545e-05
-0.000362651
0.50148
-0.00578657
-0.0011657
-0.0289159
-0.00889467
-0.0468979
-0.0203877
-0.00241535
-0.000382098
0.478062
-0.00130611
-0.0166677
0.632783
-0.0158698
0.601184
4.38623e-05
-0.0151483
0.573792
0.75876
-0.0047493
-0.00577277
-0.00770584
-0.000104884
-0.00343668
0.592699
0.000207385
-0.021996
-0.00283569
-0.000173546
-0.000986228
-0.00136913
-1.37372e-05
0.42756
1.09237e-05
-0.004002
-0.00153504
-0.00107185
-0.000148294
0.304897
0.549428
-0.0230135
-0.0257568
-0.027612
-5.24262e-05
-0.000243874
3.76088e-05
-0.0271409
-0.028501
0.332787
0.551802
-0.0295519
0.311904
-0.0053009
-0.0353592
-0.00521368
-0.0295052
0.403846
0.275254
-0.030886
-0.000114116
0.562246
0.428939
-0.00359441
-0.000251082
9.08141e-05
0.702008
-0.000800299
-0.000201426
-0.00184853
-0.000418085
-0.000263094
-0.000595994
-0.000518295
0.00157425
0.192215
-0.0311626
-0.000212707
-0.0173744